/*--------------------------------*- C++ -*----------------------------------*\
| =========                 |                                                 |
| \\      /  F ield         | OpenFOAM: The Open Source CFD Toolbox           |
|  \\    /   O peration     | Version:  2.4.0                                 |
|   \\  /    A nd           | Web:      www.OpenFOAM.org                      |
|    \\/     M anipulation  |                                                 |
\*---------------------------------------------------------------------------*/
FoamFile
{
    version     2.0;
    format      ascii;
    class       volVectorField;
    location    "1.18";
    object      U;
}
// * * * * * * * * * * * * * * * * * * * * * * * * * * * * * * * * * * * * * //

dimensions      [0 1 -1 0 0 0 0];

internalField   nonuniform List<vector> 
2320
(
(0.37048 -0.00582791 0)
(1.68098 -0.0101674 0)
(0.311633 0.0233586 0)
(1.59178 -0.0456686 0)
(0.521787 0.0577201 0)
(1.50034 0.00556511 0)
(0.487815 -0.0198537 0)
(1.5204 0.0435167 0)
(0.32305 -0.0420417 0)
(1.6395 0.0246381 0)
(0.228251 0.0169032 0)
(1.56634 -0.0857363 0)
(0.540536 0.0625817 0)
(1.29518 -0.0694914 0)
(0.855538 -0.0325606 0)
(1.36625 0.0328234 0)
(0.48786 0.0156422 0)
(1.61034 0.0373874 0)
(0.0921177 -0.087358 0)
(1.77799 0.129002 0)
(0.775727 -0.020446 0)
(1.2783 0.0346629 0)
(0.794459 0.0289173 0)
(1.02498 -0.0529627 0)
(0.904513 -0.0214537 0)
(1.13428 0.0211566 0)
(0.949361 -0.000372335 0)
(1.12598 0.0359919 0)
(0.947188 -0.00853693 0)
(1.10052 0.00450363 0)
(0.943977 0.0403569 0)
(1.09436 -0.0722039 0)
(0.902113 0.0577573 0)
(1.0688 -0.0695473 0)
(1.08914 -0.0367431 0)
(0.962975 0.164972 0)
(1.09 -0.163979 0)
(1.13628 0.142701 0)
(1.05985 0.0234807 0)
(1.16652 -0.00436897 0)
(0.742954 -0.0297041 0)
(1.24548 -0.0209211 0)
(0.925965 0.137555 0)
(1.03758 -0.100067 0)
(1.01627 -0.00852169 0)
(1.00901 -0.00293952 0)
(1.03061 -0.0186458 0)
(1.07307 0.0493251 0)
(0.878055 -0.0170347 0)
(1.15094 0.0149823 0)
(0.816483 0.0253289 0)
(1.17184 -0.0767603 0)
(0.810315 0.0699866 0)
(1.18787 -0.135745 0)
(0.850806 0.007811 0)
(1.10847 0.0701001 0)
(1.05713 -0.0611262 0)
(0.906464 0.0837478 0)
(1.08766 -0.0861243 0)
(1.02782 0.0769974 0)
(0.893371 -0.0124124 0)
(1.0913 -0.0604411 0)
(0.956641 0.133226 0)
(1.0957 -0.0723869 0)
(0.907759 -0.0218616 0)
(1.10517 0.0196518 0)
(0.900677 -0.038302 0)
(1.11203 0.0980041 0)
(0.868937 -0.038727 0)
(1.12694 0.0161451 0)
(0.897633 0.0436673 0)
(1.1149 -0.0630825 0)
(0.827922 0.0396496 0)
(1.13439 -0.0695423 0)
(0.685276 -0.0157704 0)
(1.20115 0.0547351 0)
(0.733009 -0.0702579 0)
(1.14817 0.0972496 0)
(0.876522 -0.024129 0)
(1.07006 0.00777751 0)
(1.08516 -0.0189079 0)
(0.85713 -0.0504267 0)
(1.12012 0.121997 0)
(0.95402 -0.0598668 0)
(0.989134 -0.0185169 0)
(0.965512 0.00606953 0)
(1.02118 -0.0218963 0)
(0.930176 0.0696122 0)
(1.11065 -0.00820102 0)
(0.858832 -0.00506069 0)
(1.14596 0.0349776 0)
(0.914333 -0.0359127 0)
(1.01842 0.0406349 0)
(0.999828 -0.0481407 0)
(0.893433 -0.0327126 0)
(1.07849 0.053964 0)
(0.861058 -0.0415217 0)
(1.10494 0.00796434 0)
(1.00302 -0.0207942 0)
(1.08479 0.035894 0)
(1.02396 0.0178383 0)
(0.931735 -0.0798931 0)
(1.04586 0.0728418 0)
(1.0015 -0.0023484 0)
(1.03356 -0.0361655 0)
(0.938253 0.00695578 0)
(1.07757 -0.0230926 0)
(0.92653 0.0470268 0)
(1.08867 0.00701099 0)
(0.942271 -0.0188171 0)
(1.0949 0.0241497 0)
(0.954795 -0.00546037 0)
(1.10276 -0.00807329 0)
(0.93327 0.00170224 0)
(1.14413 -0.073019 0)
(0.858183 0.0858165 0)
(1.16638 -0.0777503 0)
(0.859139 0.00609792 0)
(1.22686 0.00111587 0)
(0.816052 0.010645 0)
(1.02415 0.00342695 0)
(0.987131 -0.0554805 0)
(0.961432 0.0839148 0)
(1.0449 -0.0410819 0)
(0.973339 0.00301886 0)
(1.01712 -0.00972186 0)
(0.987013 -0.0187145 0)
(0.989447 0.0566465 0)
(0.992355 -0.00798772 0)
(1.04811 -0.0150048 0)
(0.958791 0.0357794 0)
(1.09196 -0.0342125 0)
(0.883923 0.0387925 0)
(1.14776 -0.0514472 0)
(0.884345 -0.00571907 0)
(1.07051 0.0464056 0)
(0.967095 -0.030899 0)
(0.962604 -0.034446 0)
(1.0458 0.0157739 0)
(0.973375 0.0275095 0)
(1.03212 0.0124406 0)
(0.954908 -0.0462024 0)
(1.01775 0.032079 0)
(0.983192 0.0012333 0)
(1.01286 -0.0279396 0)
(1.00173 0.0037444 0)
(0.988231 -0.0064441 0)
(0.963807 0.0371257 0)
(1.03619 -0.00909821 0)
(0.985131 -0.0128399 0)
(1.04773 0.0100492 0)
(0.949404 0.0279448 0)
(1.04061 -0.039861 0)
(0.990235 0.00869216 0)
(1.02038 -0.0437314 0)
(0.98197 0.0449634 0)
(0.999407 -0.0241014 0)
(1.02874 -0.0436484 0)
(0.96732 0.00947607 0)
(1.05656 0.00220494 0)
(0.986771 0.00926834 0)
(1.04015 -0.045908 0)
(0.949229 0.0592356 0)
(1.01537 -0.0285075 0)
(1.01274 -0.0162439 0)
(0.993371 0.00752247 0)
(1.00714 -0.000982247 0)
(0.957988 0.0296311 0)
(1.03934 -0.0138198 0)
(1.0154 -0.0274611 0)
(0.987454 0.0532781 0)
(1.0151 -0.0253963 0)
(0.985061 0.006534 0)
(1.03241 -0.0282705 0)
(1.01959 -0.0103513 0)
(0.938015 0.0637577 0)
(1.07193 -0.050866 0)
(0.914549 -0.0246009 0)
(1.0839 0.00419467 0)
(0.922446 0.0138459 0)
(1.00291 -0.000770616 0)
(1.01914 -0.0225376 0)
(0.959967 0.0377352 0)
(1.02104 -0.0204825 0)
(0.984438 -0.0221513 0)
(1.01324 0.00937626 0)
(0.969152 0.0140505 0)
(0.997948 0.0128377 0)
(1.01995 -0.0270887 0)
(0.999135 0.00477656 0)
(0.983485 0.018856 0)
(1.0056 0.0270317 0)
(0.970121 -0.049584 0)
(1.05505 -0.00373675 0)
(0.948295 -0.000716769 0)
(1.0357 0.0190405 0)
(0.972455 -0.0075057 0)
(1.02917 -0.0554873 0)
(0.978429 0.0119755 0)
(0.996705 0.00219136 0)
(0.996223 -0.00275295 0)
(1.0219 -0.0208086 0)
(0.971498 0.048437 0)
(1.02102 -0.0312229 0)
(1.00015 -0.0199086 0)
(0.967274 0.0191764 0)
(1.00947 0.00565605 0)
(0.983913 0.00178503 0)
(1.0374 -0.011366 0)
(0.970992 -0.0118209 0)
(1.00596 0.0480831 0)
(0.991096 -0.0135178 0)
(1.02601 -0.0279995 0)
(0.982834 -0.00825582 0)
(1.0332 -0.00782412 0)
(0.94633 0.0533048 0)
(1.06628 -0.0488935 0)
(0.95687 -0.0279728 0)
(1.02076 0.0166865 0)
(0.946927 0.00219242 0)
(1.01069 -0.0101922 0)
(1.00349 -0.00621816 0)
(0.968154 0.0314109 0)
(1.05586 -0.0272617 0)
(0.947915 0.000324817 0)
(1.00789 0.00609253 0)
(0.982311 0.00833609 0)
(1.00684 -0.00686221 0)
(1.02087 -0.0127503 0)
(0.976167 0.0131294 0)
(0.996135 0.0148946 0)
(1.01487 0.014619 0)
(1.00118 -0.0454078 0)
(1.00492 -0.00358282 0)
(0.97432 0.0140407 0)
(0.997104 0.00651525 0)
(1.03249 -0.0120073 0)
(0.961485 -0.0322537 0)
(1.0007 0.0146892 0)
(0.961258 0.00206453 0)
(1.02402 -0.0122116 0)
(0.965389 0.00666473 0)
(1.00115 0.01435 0)
(1.02183 -0.0140037 0)
(0.978055 -0.000397069 0)
(1.00174 0.00428656 0)
(0.986117 0.00668068 0)
(1.0227 -0.0197492 0)
(0.982754 0.00720261 0)
(1.01332 -0.0016227 0)
(0.977438 0.0291642 0)
(1.02187 -0.0141704 0)
(1.01738 -0.0271582 0)
(0.963595 0.0095096 0)
(1.01144 -0.00729118 0)
(0.966859 0.0235648 0)
(1.03865 -0.0304921 0)
(0.96846 -0.0124695 0)
(0.972421 0.0149184 0)
(1.03593 -0.0183764 0)
(1.02447 -0.00658969 0)
(0.952572 0.0111719 0)
(1.00829 -0.00403709 0)
(1.01147 -0.0118747 0)
(0.995742 0.00711755 0)
(0.998749 0.00245501 0)
(1.00072 0.000367662 0)
(1.01091 -0.0103971 0)
(0.989202 -0.0017956 0)
(1.01251 0.0086688 0)
(0.979967 0.0158726 0)
(1.0352 -0.00868377 0)
(0.982598 -0.0160285 0)
(0.998827 0.00208251 0)
(0.986007 0.00912991 0)
(0.981881 -0.00252209 0)
(1.03274 -0.0171319 0)
(0.936641 0.00490345 0)
(1.03825 -0.0244773 0)
(0.978268 0.00149986 0)
(1.01404 -0.00346458 0)
(0.960132 0.020866 0)
(1.0271 -0.0214545 0)
(0.986364 -0.00384047 0)
(1.0156 0.00376081 0)
(0.988845 0.00226032 0)
(1.00035 0.0028134 0)
(1.01735 -0.0176598 0)
(0.970207 0.0109534 0)
(1.02858 -0.000791475 0)
(0.965516 0.0207451 0)
(1.0431 -0.017256 0)
(0.971299 -0.00787093 0)
(1.00093 0.00662009 0)
(0.989579 0.0017325 0)
(0.999783 -0.000600931 0)
(1.0011 -0.00878194 0)
(0.990842 -0.0104409 0)
(0.997325 -0.0140983 0)
(1.03742 -0.0139153 0)
(0.98224 0.00409085 0)
(1.00006 0.010584 0)
(1.02734 -0.0226869 0)
(0.98394 -0.0023273 0)
(1.0176 0.00374432 0)
(0.973126 0.011034 0)
(1.02781 -0.0128003 0)
(0.977721 0.00105899 0)
(1.00829 -0.00254851 0)
(0.98956 0.0054437 0)
(0.994441 0.0139776 0)
(1.03209 -0.0162105 0)
(0.958273 0.00835378 0)
(1.01166 -0.00843414 0)
(0.979342 0.0103281 0)
(1.00265 -0.00762227 0)
(1.01338 -0.0135711 0)
(0.982187 0.00925048 0)
(1.02606 -0.051328 0)
(0.977187 0.0243753 0)
(0.970166 0.00328527 0)
(1.03068 0.00322131 0)
(1.01428 -0.0178974 0)
(0.993563 0.00384262 0)
(0.988355 0.00800886 0)
(0.992741 -0.00249138 0)
(1.01451 0.00174588 0)
(0.981248 -0.0101831 0)
(1.01119 0.00823377 0)
(0.97886 0.00277559 0)
(1.00421 0.00294079 0)
(1.01814 -0.00276858 0)
(0.964717 0.00615913 0)
(1.01302 -0.00703461 0)
(0.977563 0.00889509 0)
(1.01805 -0.0188842 0)
(0.992935 0.000141685 0)
(1.02074 -0.0107268 0)
(0.982931 -0.0238512 0)
(0.996162 0.0127508 0)
(0.974506 0.00170667 0)
(1.0381 -0.00658729 0)
(0.9978 -0.00929303 0)
(0.996651 0.0134727 0)
(0.980753 0.00195153 0)
(1.0007 0.000146274 0)
(1.00647 -0.00903881 0)
(0.982724 0.00342095 0)
(1.02284 -0.00118454 0)
(0.965728 0.00770321 0)
(1.02369 -0.00311119 0)
(0.990975 -0.000750251 0)
(0.984874 0.0153505 0)
(1.00642 -0.0196193 0)
(0.9893 0.0130597 0)
(1.01083 -0.0217281 0)
(0.99846 -0.00789107 0)
(1.00753 0.00811273 0)
(0.976926 -0.0344419 0)
(0.988171 0.0374601 0)
(1.00076 -0.00454799 0)
(1.00558 -0.00479301 0)
(0.98799 -0.000841771 0)
(0.993251 0.013767 0)
(0.992645 0.00486105 0)
(1.01463 -0.0134598 0)
(0.985642 0.00846978 0)
(1.00368 -0.0167183 0)
(0.993894 0.0154795 0)
(0.989832 0.00321804 0)
(1.01647 -0.00937816 0)
(0.975726 0.0142509 0)
(1.02511 0.00201858 0)
(0.989549 -0.0140081 0)
(1.00508 0.0129948 0)
(1.01189 -0.0321266 0)
(0.968763 0.0117003 0)
(1.01813 -0.00937838 0)
(0.949433 -0.00713779 0)
(1.01309 0.0214989 0)
(0.996793 -0.00270442 0)
(0.987134 0.00300322 0)
(0.997304 -0.00604149 0)
(0.969537 0.0128783 0)
(1.04961 -0.00915521 0)
(0.962413 0.00597505 0)
(1.03712 -0.00667364 0)
(0.96019 0.00218536 0)
(1.01391 0.00323432 0)
(0.991064 -0.000718776 0)
(1.02552 0.00224193 0)
(0.971681 -0.00464803 0)
(1.04592 0.0095453 0)
(0.996363 -0.0119257 0)
(0.986704 0.00818123 0)
(1.05482 -0.0126669 0)
(0.865492 0.00415838 0)
(1.12949 0.000438708 0)
(0.789005 -0.0111682 0)
(1.17217 0.0230979 0)
(-0.220937 -0.0714078 0)
(1.9671 -0.02812 0)
(-0.270749 0.0834199 0)
(1.76353 -0.186574 0)
(0.381886 -0.0541238 0)
(1.54509 -0.00775025 0)
(0.648171 0.121959 0)
(1.09024 -0.216986 0)
(1.1341 0.00461138 0)
(1.13553 0.0241414 0)
(1.25087 0.0470784 0)
(1.02942 -0.118801 0)
(0.990014 0.113541 0)
(1.00115 -0.0984744 0)
(1.07447 0.0699679 0)
(1.30934 0.120874 0)
(1.00225 -0.0217478 0)
(0.890306 -0.125025 0)
(1.23784 0.132337 0)
(0.909649 -0.053825 0)
(0.990526 -0.0408649 0)
(1.05775 -0.02053 0)
(0.856795 -0.0226006 0)
(1.35443 -0.00369649 0)
(0.936675 0.0838358 0)
(0.976182 -0.108834 0)
(1.07316 0.0548572 0)
(1.00682 0.013407 0)
(1.11259 0.00900367 0)
(0.810323 -0.0215886 0)
(1.27002 -0.102638 0)
(0.815833 0.0579258 0)
(0.949623 0.0574779 0)
(1.13065 -0.200507 0)
(0.927244 0.130004 0)
(1.17116 -0.0591919 0)
(0.892276 0.0302727 0)
(1.11677 -0.0728124 0)
(0.967059 -0.0388975 0)
(1.03036 -0.0896743 0)
(1.22905 0.0600712 0)
(0.873243 -0.105076 0)
(1.08417 0.0215632 0)
(1.05309 0.0457897 0)
(0.999604 0.0198581 0)
(1.10034 -0.0379746 0)
(0.874674 -0.0779695 0)
(1.21051 -0.0395011 0)
(1.03855 0.0392846 0)
(0.99253 -0.12942 0)
(1.02789 0.0386185 0)
(1.04541 0.00914041 0)
(1.08859 -0.0190987 0)
(0.972647 0.00993725 0)
(1.12969 -0.108922 0)
(0.95008 -0.101026 0)
(0.998472 0.0551188 0)
(1.03922 -0.0976823 0)
(0.965963 -0.0207859 0)
(1.08109 0.0227048 0)
(0.987955 0.0398496 0)
(1.03802 -0.0456038 0)
(1.0708 -0.0848876 0)
(0.97877 -0.0674512 0)
(1.08506 0.0356206 0)
(0.954073 -0.0927784 0)
(1.06645 0.00369112 0)
(0.946347 0.0184701 0)
(1.05281 -0.0112002 0)
(1.00893 -0.0155541 0)
(1.0644 -0.0894981 0)
(0.983604 -0.090449 0)
(1.0128 0.0319012 0)
(1.02213 -0.0787855 0)
(1.00192 -0.0294224 0)
(1.0112 0.0398206 0)
(0.997243 -0.00355741 0)
(1.01581 -0.0468068 0)
(1.08848 -0.0805771 0)
(0.899161 -0.0383449 0)
(1.03704 0.0126652 0)
(1.00982 -0.0745383 0)
(1.00594 -0.00207355 0)
(0.990282 0.0286657 0)
(0.982567 -0.0188216 0)
(1.06979 -0.0533965 0)
(0.975708 -0.0422829 0)
(1.00858 -0.0843047 0)
(1.05058 -0.0114389 0)
(1.01421 -0.0497005 0)
(0.961196 -0.029119 0)
(1.04455 0.0602123 0)
(0.967972 -0.0492278 0)
(1.06014 -0.0438601 0)
(0.953325 -0.0417106 0)
(0.993346 -0.0378722 0)
(0.986989 -0.0201806 0)
(1.06045 -0.025626 0)
(0.92498 -0.0190616 0)
(1.0488 0.022707 0)
(1.01881 -0.0213005 0)
(1.00874 -0.0464619 0)
(0.954247 -0.0134029 0)
(0.975681 -0.0680941 0)
(1.04974 -0.0334045 0)
(0.96271 -0.0108525 0)
(1.01359 -0.0290835 0)
(0.991291 0.0203801 0)
(1.05523 -0.0355883 0)
(0.941461 -0.00326703 0)
(0.994796 -0.0327989 0)
(0.957628 -0.0632662 0)
(0.963919 -0.0231734 0)
(1.04034 -0.00350564 0)
(0.961588 -0.0272744 0)
(1.02914 -0.00585957 0)
(1.01016 0.00293621 0)
(0.965651 -0.0114524 0)
(0.984107 -0.0287463 0)
(0.972803 -0.0605988 0)
(1.00896 -0.0440074 0)
(0.987747 -0.00398235 0)
(1.03949 -0.0211205 0)
(0.967383 -0.00949636 0)
(1.02492 0.00107871 0)
(0.950395 0.014154 0)
(1.01447 -0.0441301 0)
(0.932038 -0.0568323 0)
(0.96641 -0.0535885 0)
(1.05025 -0.000501162 0)
(0.988982 -0.0205026 0)
(1.01287 -0.00653141 0)
(0.984619 0.0140397 0)
(0.973052 0.00133877 0)
(0.998852 -0.0270948 0)
(0.91524 -0.0359383 0)
(0.972802 -0.0872579 0)
(1.05147 0.00718973 0)
(1.0221 -0.0134308 0)
(0.972439 -0.00836677 0)
(0.99879 0.0311011 0)
(0.970518 0.00553448 0)
(1.00052 -0.0244855 0)
(0.906823 -0.0283453 0)
(0.972457 -0.130498 0)
(1.04603 0.0141434 0)
(0.990227 -0.00360893 0)
(0.980925 0.00327875 0)
(0.968954 0.029137 0)
(0.982114 0.003023 0)
(0.945233 -0.00162215 0)
(0.891398 0.00239137 0)
(0.800854 -0.106289 0)
(1.05853 0.0287595 0)
(0.933399 -0.0137762 0)
(0.92348 0.023348 0)
(0.969586 0.0258378 0)
(0.926906 0.0112223 0)
(0.881651 0.0129224 0)
(0.873438 -0.0146049 0)
(0.876005 -0.130427 0)
(1.66994 0.0761494 0)
(0.414544 -0.00551705 0)
(1.08032 -0.217643 0)
(1.61746 -0.0588672 0)
(0.980741 -0.0146105 0)
(1.3414 -0.0175569 0)
(1.59297 -0.0405101 0)
(1.26215 -0.0192475 0)
(2.0558 -0.0790646 0)
(1.54738 -0.0104105 0)
(2.4864 -0.100201 0)
(1.95204 -0.0682162 0)
(2.88172 -0.0537924 0)
(2.4211 -0.0769865 0)
(3.14532 -0.0275332 0)
(2.8542 -0.0550166 0)
(3.40428 -0.0130486 0)
(2.98351 0.00523015 0)
(3.54128 -0.0205389 0)
(3.03056 0.0307336 0)
(3.58843 -0.0455166 0)
(2.92437 0.0480422 0)
(3.52712 -0.0597704 0)
(2.61226 0.0675144 0)
(3.29497 -0.0256821 0)
(2.04178 0.0519493 0)
(2.9366 -0.00887309 0)
(0.6884 -0.216459 0)
(1.25873 0.165167 0)
(1.23425 0.267252 0)
(0.669606 -0.400343 0)
(1.67174 0.0728349 0)
(0.747942 0.153933 0)
(1.45075 -0.28938 0)
(1.48935 0.0259407 0)
(1.35467 -0.133745 0)
(1.82852 -0.143235 0)
(1.68605 -0.112698 0)
(2.22776 -0.17742 0)
(2.05873 -0.0757202 0)
(2.67556 -0.189477 0)
(2.54059 -0.0878053 0)
(2.9982 -0.162994 0)
(3.02225 -0.058402 0)
(3.28123 -0.0802053 0)
(3.20059 -0.0436275 0)
(3.45369 -0.0145359 0)
(3.196 -0.0168139 0)
(3.51387 0.0534411 0)
(2.98502 0.0503248 0)
(3.38309 0.146044 0)
(2.59199 0.126502 0)
(3.06798 0.215435 0)
(2.11421 0.245615 0)
(2.51646 0.30149 0)
(0.966017 -0.0821589 0)
(0.761702 -0.110629 0)
(1.53289 0.243945 0)
(0.827705 -0.379111 0)
(1.33878 -0.065665 0)
(1.06593 0.112185 0)
(1.73003 -0.321024 0)
(1.02416 -0.0480256 0)
(1.80633 -0.15481 0)
(1.60351 -0.325955 0)
(1.96234 -0.146842 0)
(1.95867 -0.368466 0)
(2.34603 -0.259216 0)
(2.45323 -0.309259 0)
(2.64686 -0.263719 0)
(3.00706 -0.258445 0)
(3.14373 -0.193363 0)
(3.32361 -0.122929 0)
(3.35306 -0.0787038 0)
(3.49283 -0.0169366 0)
(3.31094 0.000480353 0)
(3.48018 0.0672304 0)
(3.04996 0.118279 0)
(3.33954 0.13571 0)
(2.71338 0.230156 0)
(3.02232 0.203976 0)
(2.41241 0.339404 0)
(2.37344 0.271405 0)
(1.49643 0.0532333 0)
(0.482877 -0.135876 0)
(1.67238 0.178335 0)
(0.893396 -0.22624 0)
(1.38485 -0.0892033 0)
(1.30765 -0.0395828 0)
(1.65503 -0.260757 0)
(1.15025 -0.0356462 0)
(2.05328 -0.336073 0)
(1.41992 -0.289114 0)
(2.15805 -0.210424 0)
(1.95289 -0.437346 0)
(2.38958 -0.241818 0)
(2.3356 -0.399377 0)
(2.81894 -0.351654 0)
(2.97765 -0.410462 0)
(3.12472 -0.224418 0)
(3.29665 -0.180379 0)
(3.31471 -0.106034 0)
(3.45334 0.000750757 0)
(3.30345 0.0340072 0)
(3.43607 0.146911 0)
(3.15097 0.17668 0)
(3.30194 0.271635 0)
(2.89287 0.323667 0)
(2.98854 0.324538 0)
(2.56126 0.582877 0)
(2.32226 0.382809 0)
(1.17222 0.0603236 0)
(1.04197 -0.150771 0)
(1.24457 0.0500883 0)
(1.29418 -0.22743 0)
(1.29205 -0.316365 0)
(1.29404 -0.0240766 0)
(1.46975 -0.230431 0)
(1.46755 -0.316588 0)
(1.78654 -0.251189 0)
(1.43098 -0.391503 0)
(2.19346 -0.392975 0)
(1.80986 -0.514254 0)
(2.36346 -0.403106 0)
(2.43497 -0.579433 0)
(2.81848 -0.52767 0)
(2.95201 -0.447373 0)
(3.15321 -0.335883 0)
(3.31337 -0.226124 0)
(3.41859 -0.146438 0)
(3.46746 -0.0265033 0)
(3.43089 0.0380714 0)
(3.45811 0.127696 0)
(3.2299 0.207317 0)
(3.26675 0.250772 0)
(2.94392 0.433225 0)
(2.83787 0.348407 0)
(2.69766 0.691743 0)
(2.14202 0.471328 0)
(0.951401 0.0429559 0)
(1.20592 -0.14706 0)
(0.923839 0.00360827 0)
(1.38209 -0.241382 0)
(0.946201 -0.0894007 0)
(1.25609 -0.169996 0)
(1.35017 -0.280422 0)
(1.25886 -0.224777 0)
(1.55759 -0.318222 0)
(1.58909 -0.482509 0)
(1.94797 -0.434011 0)
(1.77747 -0.517802 0)
(2.40964 -0.545168 0)
(2.40964 -0.654625 0)
(2.81621 -0.586823 0)
(3.01151 -0.563156 0)
(3.20227 -0.433302 0)
(3.39751 -0.288202 0)
(3.48512 -0.192645 0)
(3.49569 -0.0149719 0)
(3.51852 0.0870697 0)
(3.41213 0.221424 0)
(3.37772 0.315526 0)
(3.15161 0.397608 0)
(3.21677 0.540986 0)
(2.69995 0.473079 0)
(2.84204 0.847364 0)
(2.21806 0.537711 0)
(1.21101 0.0328291 0)
(0.96851 -0.109624 0)
(1.20116 -0.0649839 0)
(1.04202 -0.205959 0)
(1.16781 -0.235784 0)
(1.20172 -0.22288 0)
(1.1894 -0.219823 0)
(1.43491 -0.442947 0)
(1.47674 -0.407192 0)
(1.59324 -0.539505 0)
(1.84821 -0.568933 0)
(1.91645 -0.669249 0)
(2.37441 -0.758934 0)
(2.47297 -0.829389 0)
(2.87883 -0.782361 0)
(3.00483 -0.701889 0)
(3.19067 -0.541919 0)
(3.32483 -0.365242 0)
(3.41559 -0.224961 0)
(3.39868 -0.0265333 0)
(3.47279 0.0756024 0)
(3.3511 0.179334 0)
(3.3804 0.315783 0)
(3.08225 0.339618 0)
(3.20883 0.639475 0)
(2.72185 0.508675 0)
(2.85328 0.990878 0)
(2.21347 0.751296 0)
(1.10275 -0.00437266 0)
(0.991081 -0.0962447 0)
(1.16449 -0.0800419 0)
(1.08168 -0.193423 0)
(1.16869 -0.196773 0)
(1.08323 -0.213234 0)
(1.34161 -0.358527 0)
(1.30343 -0.386093 0)
(1.37888 -0.416186 0)
(1.68476 -0.637456 0)
(1.69935 -0.618533 0)
(1.90774 -0.742203 0)
(2.35235 -0.884249 0)
(2.40551 -0.890143 0)
(2.7807 -0.885591 0)
(2.77484 -0.75821 0)
(2.96548 -0.588789 0)
(3.05151 -0.41405 0)
(3.1179 -0.23707 0)
(3.14642 -0.0332035 0)
(3.22899 0.123792 0)
(2.9482 0.268189 0)
(3.16197 0.501499 0)
(2.62078 0.440122 0)
(3.11171 0.738167 0)
(2.39923 0.59877 0)
(2.90349 1.01741 0)
(2.31307 0.872241 0)
(1.02162 0.0104395 0)
(1.0327 -0.128004 0)
(1.06632 -0.120075 0)
(1.11508 -0.194186 0)
(0.997461 -0.230194 0)
(1.22798 -0.302887 0)
(1.13803 -0.312404 0)
(1.26582 -0.482574 0)
(1.46781 -0.605701 0)
(1.4741 -0.632367 0)
(1.58236 -0.751742 0)
(2.05957 -0.980129 0)
(2.17392 -1.05337 0)
(2.27449 -1.04133 0)
(2.465 -0.974663 0)
(2.32784 -0.799856 0)
(2.57217 -0.636675 0)
(2.493 -0.455765 0)
(2.71775 -0.226307 0)
(2.60796 -0.0456529 0)
(2.84612 0.141464 0)
(2.51858 0.224943 0)
(2.89867 0.461919 0)
(2.20987 0.416765 0)
(2.7094 0.802452 0)
(2.11706 0.641519 0)
(2.50054 1.09508 0)
(2.2618 0.991492 0)
(1.11646 -0.0567558 0)
(0.911252 -0.0810006 0)
(1.15476 -0.163509 0)
(0.958611 -0.136196 0)
(1.13931 -0.276926 0)
(1.0304 -0.294685 0)
(1.18223 -0.3703 0)
(1.29343 -0.542016 0)
(1.25915 -0.537161 0)
(1.38469 -0.700868 0)
(1.84397 -0.949197 0)
(1.86375 -1.03493 0)
(1.93527 -1.01869 0)
(1.93689 -1.00159 0)
(1.96604 -0.912596 0)
(1.86402 -0.785449 0)
(2.12199 -0.685179 0)
(1.96007 -0.512396 0)
(2.28911 -0.283589 0)
(2.1244 -0.105135 0)
(2.38889 0.175393 0)
(2.04095 0.32772 0)
(2.46189 0.621441 0)
(1.8874 0.484619 0)
(2.3611 0.777656 0)
(1.79254 0.596439 0)
(2.21379 1.13249 0)
(1.96729 1.02722 0)
(0.950958 -0.012615 0)
(1.07625 -0.127343 0)
(0.966642 -0.15549 0)
(0.986177 -0.156896 0)
(1.09445 -0.282517 0)
(0.944773 -0.289537 0)
(1.20724 -0.462083 0)
(1.12392 -0.530718 0)
(1.25491 -0.631852 0)
(1.48147 -0.898611 0)
(1.61573 -1.0211 0)
(1.57501 -1.03121 0)
(1.63162 -1.06232 0)
(1.5566 -1.04788 0)
(1.5072 -0.924402 0)
(1.50018 -0.833964 0)
(1.5238 -0.70719 0)
(1.45058 -0.514696 0)
(1.70302 -0.289105 0)
(1.43963 -0.08844 0)
(1.83861 0.112921 0)
(1.53705 0.196452 0)
(2.003 0.498555 0)
(1.42616 0.606941 0)
(1.81245 0.897468 0)
(1.42446 0.546308 0)
(1.79983 1.06523 0)
(1.67487 1.0513 0)
(0.948864 -0.082913 0)
(1.04344 -0.0946447 0)
(0.93232 -0.116483 0)
(0.969634 -0.209305 0)
(1.0177 -0.250992 0)
(0.964365 -0.351046 0)
(1.11699 -0.474583 0)
(1.05841 -0.531251 0)
(1.28536 -0.736343 0)
(1.36407 -0.932147 0)
(1.45971 -0.982698 0)
(1.3934 -1.03546 0)
(1.35577 -0.998755 0)
(1.1679 -0.923751 0)
(1.16043 -0.876483 0)
(1.03782 -0.801072 0)
(1.04865 -0.715901 0)
(0.962342 -0.514371 0)
(1.11525 -0.288243 0)
(0.939433 -0.113932 0)
(1.10775 0.142537 0)
(0.806929 0.358004 0)
(1.2794 0.530577 0)
(1.10384 0.545325 0)
(1.39895 0.809055 0)
(0.733755 0.61944 0)
(1.24129 1.17004 0)
(1.39569 0.945859 0)
(1.01983 -0.0562772 0)
(0.916626 -0.0984593 0)
(1.0183 -0.132549 0)
(0.873051 -0.176053 0)
(1.0603 -0.289807 0)
(0.869665 -0.321794 0)
(1.03018 -0.532001 0)
(0.95583 -0.581412 0)
(1.21851 -0.808971 0)
(1.20986 -0.991161 0)
(1.27035 -1.01694 0)
(1.09421 -0.959801 0)
(1.04138 -0.970862 0)
(0.87586 -0.942922 0)
(0.693167 -0.829487 0)
(0.529747 -0.728926 0)
(0.53062 -0.726734 0)
(0.458568 -0.597702 0)
(0.511085 -0.271972 0)
(0.332424 -0.0642033 0)
(0.492122 0.0614386 0)
(0.419826 0.16184 0)
(0.605405 0.372593 0)
(0.318122 0.690782 0)
(0.947285 0.899814 0)
(0.517214 0.487923 0)
(0.780456 0.996317 0)
(0.646256 0.934481 0)
(0.995574 -0.06734 0)
(0.951695 -0.0798377 0)
(0.917226 -0.105502 0)
(0.947686 -0.232942 0)
(0.889383 -0.23934 0)
(0.968568 -0.351321 0)
(0.833768 -0.505662 0)
(0.945043 -0.635166 0)
(1.06602 -0.886384 0)
(1.04647 -0.9386 0)
(0.98374 -0.928402 0)
(0.896079 -0.952448 0)
(0.587812 -0.86983 0)
(0.318562 -0.721649 0)
(0.180962 -0.754342 0)
(0.0681218 -0.761239 0)
(-0.0776054 -0.621655 0)
(-0.379084 -0.461907 0)
(-0.15357 -0.253708 0)
(-0.342875 -0.0755706 0)
(-0.207748 0.10909 0)
(-0.482794 0.333981 0)
(-0.0980052 0.429024 0)
(-0.367814 0.448 0)
(0.39796 0.796371 0)
(-0.27506 0.712357 0)
(0.36912 1.06896 0)
(0.258807 0.719052 0)
(0.977971 -0.0546125 0)
(0.889952 -0.0602773 0)
(0.983231 -0.118678 0)
(0.867082 -0.17285 0)
(0.86332 -0.276338 0)
(0.872254 -0.314618 0)
(0.824755 -0.491044 0)
(0.858456 -0.70589 0)
(0.886297 -0.868391 0)
(0.795134 -0.953924 0)
(0.684957 -0.902564 0)
(0.317039 -0.751095 0)
(0.0376843 -0.741826 0)
(-0.15954 -0.730695 0)
(-0.38931 -0.621005 0)
(-0.676762 -0.635943 0)
(-0.724134 -0.59741 0)
(-0.983936 -0.496359 0)
(-0.969682 -0.229565 0)
(-1.05731 -0.0600606 0)
(-0.965652 0.0794721 0)
(-1.12072 0.184995 0)
(-0.583203 0.332933 0)
(-1.20948 0.47501 0)
(-0.242795 0.740033 0)
(-0.867326 0.490896 0)
(0.0635744 0.916423 0)
(-0.390733 0.730573 0)
(0.973949 -0.040109 0)
(0.899122 -0.0656283 0)
(0.91181 -0.102826 0)
(0.903156 -0.175387 0)
(0.778494 -0.22967 0)
(0.794006 -0.344332 0)
(0.753722 -0.478767 0)
(0.691318 -0.691913 0)
(0.74564 -0.869142 0)
(0.452671 -0.814074 0)
(0.090186 -0.701648 0)
(-0.237736 -0.62653 0)
(-0.515374 -0.559077 0)
(-0.76864 -0.549067 0)
(-0.793218 -0.551741 0)
(-1.14728 -0.523 0)
(-1.35758 -0.452754 0)
(-1.56097 -0.37412 0)
(-1.64083 -0.20294 0)
(-1.65722 -0.0410394 0)
(-1.65025 0.112759 0)
(-1.67914 0.192111 0)
(-1.33092 0.377348 0)
(-1.76559 0.383054 0)
(-0.594922 0.624534 0)
(-1.55549 0.560756 0)
(-0.294317 0.796158 0)
(-0.669235 0.539773 0)
(0.932972 -0.0341437 0)
(0.901942 -0.0365451 0)
(0.91303 -0.102951 0)
(0.830203 -0.121688 0)
(0.7716 -0.206033 0)
(0.705625 -0.296082 0)
(0.645678 -0.441589 0)
(0.541654 -0.690757 0)
(0.365427 -0.746615 0)
(-0.0326874 -0.635047 0)
(-0.458701 -0.520981 0)
(-0.72909 -0.495333 0)
(-0.893801 -0.548147 0)
(-1.28304 -0.503077 0)
(-1.40156 -0.431448 0)
(-1.67867 -0.443746 0)
(-1.9579 -0.402737 0)
(-2.14085 -0.29685 0)
(-2.20163 -0.183232 0)
(-2.25517 -0.0499193 0)
(-2.21659 0.00695672 0)
(-2.17052 0.103572 0)
(-1.99206 0.252898 0)
(-2.14201 0.201661 0)
(-1.42346 0.524884 0)
(-2.15453 0.388678 0)
(-0.541252 0.538545 0)
(-1.62421 0.537655 0)
(0.916293 -0.0335886 0)
(0.895099 -0.0446559 0)
(0.883894 -0.0716776 0)
(0.80805 -0.104608 0)
(0.736569 -0.16341 0)
(0.623668 -0.277847 0)
(0.529116 -0.385587 0)
(0.317409 -0.581563 0)
(-0.130268 -0.556169 0)
(-0.634929 -0.375163 0)
(-0.815125 -0.366371 0)
(-1.13944 -0.349803 0)
(-1.51594 -0.299201 0)
(-1.85648 -0.299272 0)
(-2.00358 -0.316747 0)
(-2.24582 -0.277397 0)
(-2.50792 -0.274573 0)
(-2.65015 -0.225626 0)
(-2.79318 -0.0863294 0)
(-2.77145 -0.055738 0)
(-2.82371 0.0639123 0)
(-2.73442 0.170179 0)
(-2.64801 0.238235 0)
(-2.60921 0.266123 0)
(-2.17496 0.481075 0)
(-2.30186 0.252965 0)
(-1.29414 0.470856 0)
(-1.99054 0.284018 0)
(0.9086 -0.0229903 0)
(0.880154 -0.0239351 0)
(0.855468 -0.0498943 0)
(0.75019 -0.0539074 0)
(0.693858 -0.101347 0)
(0.538498 -0.183376 0)
(0.320715 -0.288162 0)
(0.0254203 -0.387298 0)
(-0.65991 -0.319892 0)
(-0.907534 -0.298772 0)
(-1.2218 -0.306332 0)
(-1.65164 -0.160818 0)
(-1.96008 -0.190985 0)
(-2.06755 -0.273357 0)
(-2.42932 -0.179683 0)
(-2.59776 -0.229271 0)
(-2.91724 -0.192908 0)
(-3.09245 -0.147763 0)
(-3.20062 -0.126991 0)
(-3.26896 -0.0314776 0)
(-3.27666 -0.0267942 0)
(-3.19405 0.055476 0)
(-3.10202 0.102621 0)
(-2.94963 0.103713 0)
(-2.59307 0.225085 0)
(-2.54171 0.0695963 0)
(-1.89028 0.254433 0)
(-2.15381 0.0578145 0)
(0.870506 -0.0214859 0)
(0.81943 -0.0145377 0)
(0.783652 -0.0121023 0)
(0.691712 -0.0221122 0)
(0.631412 -0.0558506 0)
(0.38322 -0.0837331 0)
(0.0898273 -0.131655 0)
(-0.485717 -0.105114 0)
(-0.986977 -0.049059 0)
(-1.24484 -0.0813157 0)
(-1.73418 0.0355589 0)
(-1.85663 0.000729231 0)
(-1.9973 -0.132071 0)
(-2.53609 -0.00328668 0)
(-2.52597 -0.0984843 0)
(-3.02973 -0.0635531 0)
(-3.23945 -0.038251 0)
(-3.49655 -0.0644866 0)
(-3.67422 0.0348642 0)
(-3.66314 -0.0216087 0)
(-3.7296 0.0649029 0)
(-3.58474 0.0768132 0)
(-3.48915 0.0548515 0)
(-3.29111 0.110166 0)
(-2.98399 0.117442 0)
(-2.83852 0.0730072 0)
(-2.40174 0.126191 0)
(-2.416 0.0661434 0)
(1.25821 0.304673 0)
(1.78911 0.239238 0)
(1.15167 0.130179 0)
(0.705592 0.202067 0)
(1.18475 0.100124 0)
(0.734045 -0.679708 0)
(0.830054 -0.745414 0)
(-0.730577 -0.585785 0)
(1.69176 0.613556 0)
(1.63243 0.295781 0)
(1.93595 0.423564 0)
(1.26036 0.458428 0)
(1.59546 0.162371 0)
(1.07799 -0.383965 0)
(0.377496 -0.857107 0)
(-0.199995 -0.148334 0)
(2.22736 0.708241 0)
(1.7232 0.302162 0)
(2.17594 0.327985 0)
(1.50492 0.418003 0)
(1.73009 0.249751 0)
(1.36115 -0.0347691 0)
(0.680976 0.0155574 0)
(-1.17249 -0.447182 0)
(2.31175 0.775038 0)
(1.81214 0.424039 0)
(2.08028 0.415722 0)
(1.7494 0.501004 0)
(1.67689 0.427435 0)
(1.49969 0.0442426 0)
(1.16589 0.206795 0)
(1.44318 -0.185298 0)
(2.38361 0.869689 0)
(1.78791 0.499324 0)
(1.94053 0.410403 0)
(1.71788 0.55568 0)
(1.7567 0.482746 0)
(1.58564 0.163254 0)
(1.25003 0.133917 0)
(1.18844 -0.276679 0)
(2.35339 0.89297 0)
(2.08688 0.694978 0)
(1.83744 0.424538 0)
(1.72044 0.574577 0)
(1.74321 0.590431 0)
(1.50437 0.268487 0)
(1.30918 0.218262 0)
(1.21938 0.0703597 0)
(2.28628 0.874841 0)
(2.19105 0.810976 0)
(1.7322 0.587291 0)
(1.65835 0.498286 0)
(1.79263 0.639941 0)
(1.68768 0.381607 0)
(1.37421 0.28642 0)
(1.22929 -0.0394222 0)
(2.16142 0.881415 0)
(2.16601 0.952843 0)
(1.82033 0.742661 0)
(1.45098 0.51249 0)
(1.77774 0.661493 0)
(1.67646 0.447933 0)
(1.39001 0.382701 0)
(1.39825 0.169893 0)
(2.05063 0.950643 0)
(1.93675 1.00558 0)
(1.85713 0.849514 0)
(1.36447 0.516092 0)
(1.66439 0.5976 0)
(1.55635 0.575309 0)
(1.33079 0.381951 0)
(1.21953 0.185616 0)
(1.9464 1.01138 0)
(1.83808 1.14457 0)
(1.58904 1.03252 0)
(1.18943 0.556913 0)
(1.40518 0.611544 0)
(1.43222 0.58077 0)
(1.28466 0.503641 0)
(1.1199 0.278022 0)
(1.52765 1.06237 0)
(1.84803 1.12146 0)
(1.67014 1.07975 0)
(1.41044 0.609037 0)
(1.32772 0.545943 0)
(1.47048 0.601387 0)
(1.33075 0.537822 0)
(1.26215 0.315696 0)
(1.30138 1.05291 0)
(1.43759 1.22527 0)
(1.46645 1.25294 0)
(1.44338 0.729957 0)
(1.33595 0.63704 0)
(1.49105 0.620147 0)
(1.41338 0.575051 0)
(1.33244 0.375647 0)
(0.918377 1.05343 0)
(1.26543 0.95117 0)
(1.28444 1.07404 0)
(1.16931 0.624225 0)
(1.18619 0.577994 0)
(1.3922 0.518556 0)
(1.42982 0.606462 0)
(1.34281 0.442255 0)
(0.589216 0.984046 0)
(0.587985 1.08816 0)
(1.007 1.16533 0)
(1.06259 0.690682 0)
(1.06674 0.626774 0)
(1.22097 0.439055 0)
(1.24716 0.588919 0)
(1.32146 0.454099 0)
(0.382458 0.839183 0)
(0.341292 0.672497 0)
(0.656474 1.01703 0)
(0.615761 0.538415 0)
(0.9665 0.554689 0)
(1.02012 0.392421 0)
(1.15992 0.601082 0)
(1.27835 0.43303 0)
(-0.0446566 0.78311 0)
(-0.174114 0.871778 0)
(0.4485 0.933658 0)
(0.489 0.459013 0)
(0.616065 0.559926 0)
(0.586908 0.208647 0)
(0.956021 0.536686 0)
(1.01573 0.436026 0)
(-0.174876 0.524204 0)
(-0.591828 0.468056 0)
(0.0789433 0.828564 0)
(-0.123383 0.357334 0)
(0.715778 0.508269 0)
(0.337508 0.193626 0)
(0.793877 0.468148 0)
(0.846673 0.343334 0)
(-0.276348 0.377574 0)
(-1.4583 0.705573 0)
(0.000987291 0.589781 0)
(-0.231079 0.146837 0)
(-0.00969652 0.48388 0)
(-0.260294 0.0800024 0)
(0.639485 0.391477 0)
(0.673555 0.291375 0)
(-1.25115 0.307743 0)
(-1.9014 0.367486 0)
(0.236477 0.173758 0)
(-1.19856 0.349249 0)
(0.167157 0.434322 0)
(-0.627753 -0.195558 0)
(0.417716 0.0706996 0)
(0.441645 0.1595 0)
(-1.85939 0.14945 0)
(-1.74995 0.111449 0)
(-0.741976 0.187233 0)
(-1.26801 0.220974 0)
(0.425825 0.330127 0)
(0.243244 -0.0255116 0)
(-0.130959 -0.127346 0)
(0.166293 0.10834 0)
(-0.7464 -0.876903 0)
(0.0797366 0.244212 0)
(0.288363 0.378186 0)
(0.533623 0.445854 3.86094e-18)
(0.944331 0.624191 2.5974e-19)
(1.04852 0.491345 0)
(1.45804 0.457257 2.66803e-18)
(1.29824 0.344283 1.52194e-19)
(1.54182 0.362018 1.97586e-18)
(1.32128 0.316601 1.90814e-18)
(1.55421 0.335114 0)
(1.23287 0.245122 1.57784e-18)
(1.57796 0.24567 -6.78033e-20)