/*--------------------------------*- C++ -*----------------------------------*\
| =========                 |                                                 |
| \\      /  F ield         | OpenFOAM: The Open Source CFD Toolbox           |
|  \\    /   O peration     | Version:  2.4.0                                 |
|   \\  /    A nd           | Web:      www.OpenFOAM.org                      |
|    \\/     M anipulation  |                                                 |
\*---------------------------------------------------------------------------*/
FoamFile
{
    version     2.0;
    format      ascii;
    class       volScalarField;
    location    "4.18";
    object      epsilon;
}
// * * * * * * * * * * * * * * * * * * * * * * * * * * * * * * * * * * * * * //

dimensions      [0 2 -3 0 0 0 0];

internalField   nonuniform List<scalar> 
6000
(
54.1733
1.09738
0.0203148
0.13445
0.0725572
0.0863808
0.0616891
0.0576807
0.0462625
0.0421296
0.0367241
0.0344795
0.0325287
0.032379
0.032967
0.0347606
0.0372862
0.0407247
0.0449895
0.0503387
0.0569581
0.0651364
0.0750562
0.0868419
0.100484
0.115882
0.13282
0.150981
0.16994
0.189163
0.207988
0.225628
0.241169
0.253578
0.261666
0.264268
0.260313
0.248928
0.22975
0.203141
0.17076
0.135572
0.101358
0.105528
0.16686
0.258111
0.38752
0.570146
0.808422
1.13286
1.51793
2.06257
2.62618
3.58868
4.32783
6.34565
7.02569
12.3943
11.8675
28.5779
17.723
0.975392
0.0253847
0.0742041
0.0418277
0.0474128
0.0344159
0.0316836
0.0255711
0.0231093
0.0201588
0.0188068
0.0176722
0.0174443
0.0176077
0.0183568
0.0194577
0.0209758
0.0228631
0.0252235
0.028128
0.031684
0.0359476
0.0409448
0.0466465
0.0529899
0.0598745
0.067172
0.0747248
0.0823464
0.0898164
0.0968788
0.103239
0.108558
0.11244
0.11449
0.114305
0.111508
0.10584
0.0972213
0.0859774
0.0729131
0.0594158
0.0629536
0.0913475
0.130803
0.183472
0.254014
0.342864
0.459959
0.597722
0.787647
0.98906
1.318
1.59514
2.26836
2.58263
4.31928
4.41128
9.63742
7.13601
0.711125
0.0303184
0.0435346
0.0252921
0.0273222
0.0200984
0.0182362
0.0148049
0.013297
0.0116242
0.0108055
0.0101477
0.00997822
0.0100376
0.01041
0.0109771
0.0117654
0.0127529
0.0139899
0.0155123
0.0173699
0.0195853
0.0221642
0.0250857
0.0283138
0.0317979
0.0354782
0.0392861
0.0431448
0.0469667
0.0506526
0.0540886
0.0571366
0.0596551
0.0614646
0.0623817
0.0622155
0.060795
0.0579955
0.0538401
0.0485583
0.0427848
0.0459397
0.0616813
0.0823411
0.108274
0.140949
0.180232
0.229676
0.286751
0.362675
0.444682
0.572069
0.688804
0.941815
1.09524
1.72442
1.86729
3.68474
3.42005
0.518223
0.0345448
0.0274512
0.0160648
0.0164903
0.0122436
0.0109529
0.00894002
0.00799274
0.00701575
0.00652091
0.00614724
0.0060551
0.00610958
0.00634849
0.00671108
0.00721015
0.00783825
0.00862507
0.00959424
0.0107743
0.0121779
0.0138061
0.0156445
0.0176698
0.0198516
0.0221558
0.0245455
0.0269811
0.02942
0.0318152
0.0341132
0.036252
0.0381725
0.0397806
0.0409848
0.0416846
0.0417798
0.0411809
0.0398567
0.0378577
0.035523
0.038391
0.0483312
0.0608536
0.075863
0.0938606
0.114659
0.139614
0.167728
0.20335
0.24208
0.298553
0.353919
0.46082
0.540518
0.793824
0.899666
1.59492
1.89782
0.395521
0.0386581
0.0190391
0.0107913
0.0104312
0.00777207
0.00685026
0.00561747
0.00500816
0.00442498
0.00413046
0.00392947
0.00390251
0.00397716
0.00417129
0.00445327
0.00483103
0.00530468
0.0058951
0.0066207
0.00750095
0.00854457
0.00975081
0.0111085
0.0126004
0.0142049
0.0158994
0.0176607
0.0194659
0.0212918
0.0231142
0.024905
0.0266437
0.0282947
0.0298083
0.0311357
0.0322202
0.0329996
0.0334099
0.0334085
0.0329777
0.0323339
0.0349651
0.0418954
0.0503299
0.0600709
0.0713094
0.0839555
0.0985955
0.114857
0.134532
0.156055
0.185223
0.215422
0.266862
0.312016
0.425853
0.495993
0.788898
1.19136
0.318418
0.0429832
0.0149633
0.00777133
0.00694543
0.00514864
0.0044613
0.0036711
0.0032698
0.0029169
0.00274819
0.00265369
0.00267449
0.00277043
0.00295064
0.00319875
0.00352107
0.00392182
0.00441783
0.00502504
0.00575852
0.00662495
0.00762297
0.00874338
0.00997253
0.0112945
0.0126936
0.0141548
0.0156645
0.0172099
0.0187781
0.0203547
0.0219343
0.0234906
0.0249946
0.026416
0.0277175
0.0288556
0.029782
0.0304558
0.030837
0.0310856
0.0335223
0.0387288
0.0448698
0.0517297
0.0593749
0.0677903
0.07727
0.087751
0.100028
0.113663
0.130995
0.149901
0.178275
0.206803
0.264388
0.311512
0.448162
0.829182
0.268834
0.0475736
0.0135365
0.00612578
0.00491111
0.00357578
0.00303234
0.00249864
0.002227
0.00201213
0.00192317
0.00189485
0.00194824
0.00206051
0.00223697
0.00246972
0.0027648
0.00312887
0.00357691
0.00412361
0.00478178
0.00555718
0.00644858
0.00744862
0.00854668
0.00973099
0.0109904
0.012315
0.0136962
0.0151261
0.0165973
0.0181021
0.0196355
0.0211781
0.02271
0.024209
0.0256477
0.026993
0.0282077
0.0292574
0.030093
0.0308481
0.033123
0.0372517
0.0419808
0.0471042
0.0526286
0.0585733
0.0651003
0.0722885
0.0805206
0.0898444
0.101189
0.114228
0.131839
0.151707
0.184436
0.217913
0.288266
0.628417
0.235882
0.0523369
0.0138439
0.0054069
0.00374014
0.00262515
0.00216159
0.00177703
0.00158612
0.00145521
0.0014169
0.0014299
0.00150488
0.0016287
0.00180518
0.00203136
0.00231358
0.00266008
0.00308503
0.00360249
0.00422418
0.00495568
0.00579642
0.00674081
0.00778065
0.00890695
0.0101114
0.0113866
0.0127263
0.0141249
0.0155762
0.0170757
0.0186155
0.0201808
0.0217558
0.0233224
0.024859
0.0263388
0.0277327
0.0290118
0.0301197
0.0311803
0.0333171
0.0367194
0.0405075
0.0444956
0.0486607
0.0530344
0.0577104
0.0628211
0.0685627
0.0751786
0.0830128
0.0924534
0.10431
0.119028
0.139568
0.164623
0.204019
0.510218
0.213249
0.0571173
0.0153618
0.00536695
0.00312177
0.00206192
0.00162868
0.00132761
0.00118553
0.00110569
0.00109943
0.00113849
0.00122801
0.00136047
0.0015392
0.00176431
0.0020426
0.00238339
0.00280052
0.0033078
0.00391656
0.00463267
0.00545644
0.00638376
0.00740812
0.00852224
0.00971922
0.0109929
0.0123377
0.0137487
0.0152203
0.0167466
0.0183191
0.0199253
0.0215512
0.023181
0.0247963
0.0263744
0.0278919
0.0293202
0.0306013
0.0318528
0.033868
0.0367494
0.0398678
0.0430611
0.0462921
0.0495965
0.05303
0.0567388
0.0608272
0.0656004
0.0711535
0.0781226
0.0864868
0.0976908
0.111562
0.130891
0.154475
0.43737
0.197245
0.0617443
0.0177479
0.00587237
0.00289654
0.00175709
0.00131073
0.00104952
0.000934219
0.00088462
0.000898434
0.000954332
0.00105432
0.00119419
0.00137721
0.00160543
0.00188612
0.00222934
0.00264883
0.00315843
0.0037695
0.00448846
0.0053165
0.00625063
0.00728548
0.00841464
0.00963185
0.0109312
0.0123074
0.0137552
0.0152685
0.0168394
0.0184594
0.0201168
0.0217985
0.0234895
0.0251735
0.0268302
0.0284402
0.0299665
0.0313635
0.0327345
0.0346393
0.0371277
0.039743
0.0423472
0.0448979
0.0474314
0.049982
0.0526941
0.0556247
0.0590836
0.0630593
0.0682341
0.074278
0.0828844
0.0927152
0.107807
0.122671
0.390902
0.185658
0.0660633
0.0207473
0.00684375
0.00298847
0.00164222
0.00113942
0.000885434
0.000780309
0.000747039
0.000773044
0.000840242
0.000948557
0.00109572
0.00128501
0.00151975
0.00180763
0.00215917
0.00258819
0.00310869
0.00373238
0.0044663
0.00531246
0.00626872
0.00733037
0.00849141
0.0097457
0.0110872
0.0125105
0.0140096
0.0155768
0.0172027
0.0188789
0.0205937
0.0223339
0.0240849
0.0258315
0.0275545
0.0292345
0.0308258
0.0323014
0.0337441
0.035546
0.0377245
0.0399449
0.0420915
0.0441218
0.0460717
0.0479636
0.0499351
0.052018
0.0545062
0.0573435
0.0611801
0.0655922
0.07222
0.0793975
0.0912383
0.10097
0.360496
0.177121
0.0699565
0.0241472
0.00823137
0.00335765
0.00168515
0.00107811
0.000803233
0.000694302
0.000667222
0.000699926
0.000775003
0.000890621
0.00104549
0.00124294
0.00148707
0.00178586
0.00215018
0.00259398
0.00313155
0.00377508
0.00453228
0.00540591
0.00639442
0.00749349
0.00869719
0.00999926
0.0113933
0.0128733
0.0144329
0.0160609
0.0177482
0.0194856
0.0212612
0.0230611
0.0248703
0.0266747
0.028455
0.0301841
0.03182
0.0333471
0.0348273
0.0365308
0.0384558
0.0403542
0.0421314
0.043747
0.0452366
0.0466164
0.0480157
0.0494537
0.0512024
0.0531896
0.0560089
0.0592285
0.0643346
0.0696677
0.0789953
0.0855394
0.340226
0.170763
0.0733524
0.0277572
0.00998924
0.00398409
0.00187751
0.00110947
0.000785875
0.000659836
0.000630602
0.00066574
0.00074638
0.000868818
0.00103206
0.00123937
0.00149531
0.00180805
0.00218867
0.00265126
0.00321051
0.00387911
0.0046655
0.00557306
0.00660067
0.00774422
0.00899767
0.0103544
0.0118076
0.0133506
0.0149756
0.0166687
0.018421
0.0202223
0.0220598
0.0239191
0.0257843
0.0276416
0.0294693
0.0312303
0.0328962
0.0344536
0.0359454
0.037553
0.0392631
0.0408909
0.0423597
0.0436335
0.0447474
0.0457148
0.0466573
0.0475881
0.0487577
0.0500907
0.0521224
0.0544448
0.0583729
0.0623711
0.0697551
0.074231
0.326535
0.166003
0.0762256
0.0314053
0.0120636
0.00486015
0.00221957
0.00122887
0.000825841
0.000668565
0.000629297
0.000663027
0.000747383
0.000876359
0.00104867
0.00126737
0.0015372
0.00186646
0.00226626
0.00275088
0.00333536
0.00403297
0.00485281
0.00579884
0.00687024
0.00806299
0.00937081
0.0107867
0.0123032
0.0139129
0.0156058
0.0173663
0.0191851
0.021051
0.0229502
0.0248671
0.0267851
0.0286904
0.0305512
0.0323333
0.0340165
0.0355864
0.0370693
0.0385818
0.0401041
0.0414979
0.0427022
0.0436858
0.0444842
0.0451098
0.0456774
0.0461978
0.0469027
0.0477192
0.0491301
0.0507605
0.0537692
0.0567709
0.0626517
0.0657337
0.317205
0.162445
0.0785905
0.0349417
0.0143874
0.00598059
0.0027147
0.00144111
0.000922173
0.00071738
0.000659666
0.00068799
0.000774265
0.000909481
0.00109149
0.00132293
0.0016085
0.0019565
0.00237798
0.00288731
0.00349988
0.0042295
0.00508593
0.00607361
0.00719194
0.00843695
0.00980203
0.0112797
0.0128618
0.0145405
0.0163019
0.0181303
0.0200157
0.0219454
0.0239045
0.0258763
0.0278428
0.0297875
0.031669
0.0334636
0.0351523
0.0367191
0.0381761
0.0395928
0.0409463
0.0421326
0.0431044
0.0438359
0.044363
0.0446984
0.0449513
0.0451322
0.0454561
0.0458558
0.0467688
0.0478542
0.0501379
0.0523772
0.0570908
0.0592007
0.310815
0.159806
0.0804908
0.0382451
0.0168793
0.00733375
0.00336948
0.00175517
0.00107905
0.000806967
0.000721011
0.000739311
0.000825453
0.000966442
0.00115862
0.001404
0.00170696
0.00207571
0.00252108
0.00305744
0.00370045
0.00446443
0.00535971
0.00639122
0.00755849
0.00885758
0.0102815
0.0118223
0.0134711
0.0152194
0.0170485
0.0189442
0.0208948
0.0228863
0.0249025
0.0269253
0.0289353
0.0309054
0.0328
0.0345982
0.0362811
0.0378306
0.0392472
0.0405663
0.041764
0.0427621
0.0435253
0.0440331
0.0443223
0.0444066
0.0443905
0.0442851
0.0442917
0.0443489
0.0448568
0.0455051
0.0472106
0.0488545
0.0526551
0.0540663
0.30643
0.157876
0.0819885
0.0412276
0.0194482
0.00889672
0.0041919
0.00217907
0.00130531
0.000941162
0.00081494
0.000817527
0.000900967
0.00104697
0.0012496
0.00150992
0.00183177
0.00222311
0.00269438
0.00325982
0.00393525
0.0047354
0.00567117
0.00674793
0.00796526
0.00931929
0.0108027
0.0124069
0.0141223
0.015939
0.0178347
0.0197958
0.0218092
0.0238594
0.0259288
0.0279978
0.0300403
0.0320262
0.0339264
0.035719
0.0373848
0.0389038
0.0402669
0.0414855
0.042536
0.0433601
0.0439325
0.0442384
0.0443155
0.0441792
0.0439299
0.0435799
0.0433186
0.0430908
0.0432649
0.0435578
0.0447968
0.045968
0.0490475
0.0499432
0.303426
0.156498
0.0831533
0.0438364
0.0219993
0.0106327
0.00518499
0.00272214
0.00161153
0.00112675
0.000945105
0.000924743
0.00100212
0.00115194
0.00136503
0.00164113
0.00198317
0.0023988
0.00289783
0.00349419
0.00420373
0.00504149
0.00601886
0.00714166
0.00840946
0.0098185
0.0113611
0.0130281
0.0148093
0.0166922
0.0186522
0.0206761
0.0227489
0.0248538
0.0269715
0.0290783
0.0311415
0.0331361
0.0350334
0.0368107
0.0384482
0.0399241
0.0412217
0.0423359
0.0432447
0.0439046
0.0442998
0.0444207
0.0443063
0.0439738
0.0435202
0.0429592
0.0424699
0.0420026
0.0418992
0.0419003
0.0427594
0.0435503
0.0460542
0.0465613
0.301375
0.155548
0.084055
0.0460521
0.0244431
0.012491
0.00634346
0.00339445
0.00200658
0.00137356
0.00111717
0.00106451
0.00113137
0.00128324
0.00150644
0.00179891
0.00216229
0.00260377
0.00313225
0.00376122
0.00450633
0.00538281
0.00640249
0.00757162
0.0088897
0.0103532
0.011954
0.0136825
0.0155278
0.0174737
0.0194952
0.0215781
0.0237061
0.0258607
0.02802
0.0301514
0.0322281
0.0342234
0.0361088
0.0378606
0.0394584
0.0408789
0.0420999
0.0431051
0.0438746
0.0443774
0.0446055
0.0445547
0.0442654
0.0437569
0.0431231
0.0423791
0.0416948
0.0410256
0.0406904
0.0404503
0.0409975
0.0414798
0.0435195
0.0437289
0.299986
0.154931
0.0847578
0.047883
0.026703
0.0144096
0.00765089
0.00420233
0.0025007
0.00169132
0.00133892
0.00124187
0.00129228
0.00144366
0.00167617
0.00198532
0.00237096
0.00283969
0.00339922
0.00406232
0.00484428
0.00576034
0.00682268
0.00803801
0.00940567
0.0109224
0.0125799
0.014368
0.0162751
0.0182799
0.020359
0.0224966
0.0246748
0.0268732
0.0290605
0.0312091
0.0332911
0.0352784
0.0371421
0.0388578
0.0404044
0.0417575
0.0428909
0.0437816
0.0444126
0.0447628
0.0448314
0.0446194
0.044169
0.0435015
0.0427081
0.0418053
0.040954
0.0401147
0.0395856
0.0391461
0.0394363
0.0396668
0.0413283
0.0413078
0.299055
0.154568
0.0853169
0.0493588
0.0287214
0.0163199
0.00907844
0.00514574
0.00310362
0.00208884
0.00162011
0.0014634
0.00148954
0.00163689
0.00187735
0.00220314
0.00261168
0.00310888
0.00370088
0.00439951
0.00521942
0.0061757
0.00728076
0.0085418
0.00995791
0.0115263
0.0132383
0.0150835
0.0170484
0.0191083
0.0212405
0.0234276
0.0256501
0.0278788
0.0300866
0.0322444
0.0343229
0.0362925
0.0381243
0.0397927
0.0412763
0.0425499
0.0435851
0.0443553
0.0448468
0.045047
0.0449617
0.0445972
0.0439974
0.0431857
0.0422508
0.0412102
0.0402168
0.039235
0.0385445
0.0379408
0.0380187
0.0380438
0.0393953
0.0391966
0.298441
0.154397
0.0857773
0.0505227
0.0304629
0.0181535
0.0105852
0.00621587
0.00382178
0.00257609
0.0019694
0.00173737
0.00172902
0.00186751
0.00211381
0.00245578
0.00288756
0.00341422
0.00403993
0.00477533
0.00563415
0.00663109
0.00777868
0.00908464
0.0105476
0.0121655
0.0139296
0.0158287
0.0178466
0.0199573
0.0221372
0.0243674
0.0266217
0.0288732
0.0310932
0.0332512
0.0353165
0.0372583
0.039047
0.0406567
0.0420652
0.0432474
0.044174
0.0448171
0.0451669
0.0452181
0.044983
0.044473
0.0437338
0.0427912
0.0417311
0.0405719
0.0394586
0.038359
0.0375354
0.036798
0.0367015
0.0365597
0.0376557
0.0373201
0.298046
0.154368
0.0861737
0.0514254
0.0319145
0.0198486
0.0121205
0.00739346
0.00465613
0.00316141
0.00239587
0.00207244
0.00201785
0.00214101
0.00239014
0.00274729
0.00320224
0.00375907
0.00441953
0.00519277
0.00609131
0.00712918
0.00831886
0.00966866
0.0111767
0.0128415
0.0146547
0.0166042
0.0186695
0.0208257
0.0230457
0.025308
0.0275863
0.0298523
0.0320755
0.0342241
0.0362658
0.0381688
0.039903
0.0414419
0.0427631
0.043842
0.0446494
0.0451585
0.0453633
0.0452657
0.0448837
0.044234
0.0433644
0.0423029
0.0411325
0.0398726
0.0386597
0.0374648
0.0365336
0.0356896
0.0354509
0.0351753
0.0360604
0.0356218
0.2978
0.154442
0.0865314
0.0521183
0.0330829
0.021356
0.0136283
0.00864829
0.00560004
0.00384974
0.00290801
0.00247696
0.00236418
0.00246375
0.00271161
0.00308228
0.00355989
0.00414726
0.0048432
0.00565516
0.00659405
0.00767296
0.00890409
0.0102964
0.0118472
0.0135562
0.015415
0.0174105
0.0195174
0.0217094
0.0239606
0.0262472
0.0285413
0.0308126
0.0330293
0.035158
0.0371651
0.0390178
0.0406853
0.0421409
0.0433624
0.0443259
0.0450038
0.0453715
0.0454275
0.0451802
0.0446535
0.0438694
0.0428776
0.0417083
0.0404419
0.0390978
0.0378044
0.0365351
0.0355195
0.0345934
0.0342407
0.0338602
0.0345716
0.0340586
0.297654
0.154587
0.0868676
0.0526501
0.0339909
0.0226424
0.0150525
0.00994025
0.00663766
0.00464079
0.00351214
0.00295877
0.00277583
0.00284332
0.00308407
0.00346582
0.00396505
0.00458292
0.00531479
0.00616609
0.00714577
0.00826565
0.00953741
0.0109707
0.0125618
0.0143116
0.0162124
0.0182462
0.0203856
0.0226063
0.0248808
0.0271832
0.0294837
0.0317506
0.0339503
0.0360481
0.0380089
0.039799
0.0413872
0.0427468
0.0438559
0.0446921
0.0452301
0.0454489
0.0453518
0.0449536
0.044284
0.04337
0.0422638
0.0409974
0.0396483
0.0382359
0.0368802
0.0355563
0.0344778
0.033492
0.0330506
0.0325907
0.0331601
0.0325975
0.297576
0.154779
0.0871931
0.053064
0.0346717
0.0236927
0.0163424
0.0112221
0.00774321
0.00552709
0.00421072
0.00352409
0.00325963
0.0032866
0.00351508
0.00390333
0.00442255
0.00507045
0.00583828
0.00672925
0.00774996
0.00891058
0.0102219
0.0116944
0.0133231
0.0151091
0.0170447
0.0191092
0.0212741
0.0235156
0.0258049
0.0281138
0.0304111
0.032663
0.0348346
0.0368895
0.0387917
0.0405064
0.0420023
0.0432526
0.0442366
0.0449336
0.0453215
0.0453839
0.0451293
0.0445787
0.0437676
0.0427284
0.0415152
0.040162
0.0387434
0.0372782
0.0358774
0.0345177
0.0333965
0.0323719
0.0318646
0.0313485
0.0318034
0.0312131
0.297541
0.155
0.0875134
0.0533956
0.0351643
0.0245088
0.0174584
0.0124438
0.00888156
0.00649264
0.00500068
0.00417618
0.00382102
0.00379919
0.00400988
0.00440137
0.00493866
0.00561439
0.00641763
0.00734827
0.00840999
0.00961093
0.0109607
0.0124683
0.0141304
0.0159479
0.0179131
0.0199999
0.0221826
0.0244364
0.0267313
0.029037
0.0313203
0.0335461
0.0356776
0.0376772
0.0395077
0.0411337
0.0425237
0.0436516
0.0444975
0.0450436
0.0452715
0.0451701
0.0447537
0.0440494
0.0430984
0.0419385
0.0406259
0.0391963
0.037721
0.0362179
0.0347889
0.0334114
0.0322666
0.0312229
0.0306707
0.0301193
0.0304841
0.0298855
0.297533
0.155235
0.087831
0.0536736
0.0355093
0.025107
0.0183747
0.0135573
0.0100103
0.00751218
0.00587174
0.00491379
0.00446282
0.0043852
0.00457272
0.00496398
0.00551712
0.00621929
0.00705689
0.00802636
0.00912819
0.0103681
0.011754
0.0132937
0.0149852
0.0168291
0.0188164
0.0209181
0.0231105
0.0253676
0.0276581
0.0299499
0.032208
0.0343956
0.0364745
0.0384056
0.0401509
0.0416744
0.0429448
0.0439366
0.0446318
0.0450154
0.0450737
0.0448017
0.0442193
0.0433604
0.0422716
0.040996
0.0395917
0.0380963
0.0365769
0.0350508
0.0336098
0.0322319
0.0310817
0.0300375
0.0294597
0.0288925
0.0291887
0.0285998
0.297542
0.155474
0.0881457
0.0539191
0.0357448
0.0255141
0.0190812
0.0145217
0.0110833
0.00855183
0.00680527
0.00572951
0.00518388
0.00504621
0.00520607
0.00559388
0.00616064
0.00688767
0.00775827
0.00876539
0.00990608
0.0111833
0.012603
0.0141715
0.015888
0.0177532
0.0197545
0.0218631
0.0240565
0.0263071
0.0285826
0.0308492
0.0330701
0.0352069
0.0372198
0.0390687
0.0407147
0.0421215
0.0432581
0.0441005
0.0446323
0.0448423
0.0447221
0.0442731
0.0435216
0.0425077
0.0412838
0.039898
0.0384105
0.0368598
0.0353093
0.0337746
0.0323376
0.030976
0.0298378
0.0288105
0.0282252
0.0276601
0.0279074
0.0273443
0.29756
0.155711
0.0884561
0.0541472
0.0359047
0.0257634
0.019583
0.0153077
0.0120552
0.00957096
0.00777398
0.00660851
0.00597761
0.00578
0.00590967
0.00629161
0.00687017
0.00762055
0.00852272
0.00956605
0.0107441
0.0120567
0.0135077
0.0151016
0.0168385
0.0187197
0.020726
0.0228333
0.0250181
0.0272519
0.0295013
0.0317306
0.0339016
0.0359742
0.0379073
0.0396597
0.0411917
0.0424673
0.0434562
0.0441356
0.0444919
0.0445178
0.0442109
0.0435795
0.0426564
0.0414883
0.0401331
0.0386436
0.0370817
0.0354869
0.0339183
0.0323895
0.0309718
0.0296427
0.0285329
0.0275391
0.026963
0.0264165
0.0266328
0.0261104
0.297583
0.15594
0.0887604
0.0543676
0.0360172
0.0258904
0.0198977
0.0158997
0.0128863
0.0105256
0.00874277
0.00752777
0.00683068
0.00657925
0.00667936
0.00705462
0.00764405
0.00841678
0.00934924
0.0104273
0.0116411
0.0129871
0.0144666
0.0160823
0.017835
0.0197248
0.0217285
0.0238256
0.0259918
0.0281979
0.0304092
0.0325886
0.0346963
0.0366907
0.0385295
0.0401705
0.0415739
0.0427036
0.0435305
0.0440339
0.044203
0.0440353
0.0435346
0.0427166
0.0416209
0.0403006
0.038819
0.0372335
0.0356071
0.03398
0.0324064
0.0308976
0.0295142
0.0282329
0.0271673
0.0262224
0.0256711
0.0251585
0.02536
0.0248918
0.297606
0.156159
0.0890564
0.054586
0.0361044
0.0259296
0.0200522
0.0162969
0.0135468
0.0113725
0.00967086
0.00845632
0.00772216
0.00743037
0.00750593
0.00787619
0.00847707
0.00927211
0.0102342
0.0113458
0.0125936
0.013971
0.0154762
0.01711
0.018874
0.0207644
0.0227575
0.0248351
0.0269725
0.0291393
0.0313001
0.0334162
0.0354466
0.0373482
0.0390777
0.0405923
0.0418519
0.0428212
0.0434723
0.043787
0.0437583
0.0433883
0.0426881
0.0416808
0.0404131
0.0389444
0.0373431
0.0356706
0.0339907
0.0323436
0.0307784
0.0293036
0.027969
0.02675
0.0257431
0.0248614
0.0243494
0.0238847
0.0240862
0.0236845
0.297629
0.156365
0.0893422
0.0548052
0.0361824
0.0259119
0.0200786
0.0165119
0.0140201
0.0120743
0.0105153
0.00935656
0.00862338
0.00831266
0.0083741
0.00874439
0.00935946
0.0101783
0.0111702
0.0123148
0.0135954
0.0150022
0.0165305
0.0181788
0.0199497
0.0218321
0.0238066
0.0258552
0.0279527
0.0300683
0.0321656
0.0342047
0.0361432
0.0379371
0.0395421
0.0409149
0.0420156
0.04281
0.043272
0.0433864
0.04315
0.0425709
0.041667
0.0404698
0.0390327
0.0374214
0.0357089
0.0339601
0.0322388
0.0305848
0.0290416
0.0276146
0.0263425
0.0251995
0.0242646
0.0234593
0.0229996
0.0225953
0.0228104
0.022486
0.29765
0.156558
0.0896166
0.0550258
0.0362624
0.0258634
0.0200106
0.0165676
0.0143038
0.0126032
0.0112352
0.010187
0.00949893
0.00919811
0.00926183
0.00964122
0.010276
0.011122
0.0121457
0.0133236
0.0146364
0.0160711
0.0176201
0.0192795
0.0210515
0.0229189
0.0248665
0.0268762
0.0289228
0.0309749
0.0329953
0.0349431
0.036775
0.0384458
0.0399108
0.0411265
0.0420536
0.0426591
0.0429194
0.0428228
0.0423707
0.0415772
0.0404679
0.0390824
0.0374811
0.0357354
0.0339224
0.0321099
0.0303608
0.0287138
0.0272063
0.0258404
0.0246437
0.0235889
0.0227383
0.0220208
0.0216252
0.0212923
0.0215331
0.0212957
0.297669
0.156739
0.0898784
0.0552472
0.0363509
0.0258045
0.0198803
0.0164943
0.0144088
0.0129445
0.0117964
0.0109058
0.0103087
0.0100522
0.0101402
0.0105421
0.0112051
0.0120843
0.0131435
0.0143566
0.0157021
0.0171639
0.0187317
0.0203992
0.0221662
0.0240122
0.0259247
0.0278858
0.0298703
0.0318463
0.0337762
0.0356184
0.0373286
0.0388611
0.0401706
0.0412141
0.0419531
0.0423567
0.042404
0.0420873
0.0414132
0.0404025
0.0390886
0.0375192
0.0357616
0.0338926
0.0319925
0.0301307
0.0283689
0.0267434
0.0252855
0.0239934
0.022884
0.0219283
0.0211726
0.0205528
0.0202314
0.0199793
0.0202565
0.020114
0.297685
0.156907
0.0901272
0.055468
0.0364513
0.0257503
0.0197162
0.0163251
0.0143575
0.0130976
0.0121755
0.0114757
0.0110112
0.0108356
0.0109744
0.0114162
0.0121192
0.0130399
0.0141406
0.0153927
0.0167725
0.0182618
0.0198474
0.0215208
0.0232769
0.0250955
0.0269651
0.0288681
0.0307794
0.0326669
0.0344927
0.0362149
0.0377884
0.0391673
0.0403064
0.0411632
0.0417007
0.0418904
0.0417149
0.041171
0.0402712
0.0390432
0.0375285
0.035783
0.0338805
0.0319023
0.0299311
0.028037
0.0262788
0.0246902
0.0232955
0.0220892
0.0210775
0.0202301
0.019578
0.0190639
0.0188251
0.0186613
0.0189841
0.018943
0.297699
0.157063
0.090363
0.0556867
0.0365644
0.0257105
0.0195413
0.0160928
0.01418
0.0130756
0.0123625
0.0118678
0.0115676
0.0115072
0.0117249
0.0122269
0.0129842
0.0139572
0.0151074
0.0164043
0.0178222
0.0193406
0.0209441
0.022622
0.0243625
0.0261481
0.0279676
0.0298033
0.0316305
0.0334174
0.035126
0.036714
0.0381363
0.039347
0.0403013
0.0409579
0.0412818
0.0412473
0.0408412
0.0400656
0.0389392
0.0374972
0.0357893
0.0338794
0.0318469
0.0297773
0.0277541
0.0258466
0.0241101
0.0225742
0.0212561
0.0201462
0.0192411
0.0185091
0.0179673
0.0175645
0.0174147
0.0173449
0.0177208
0.0177857
0.297711
0.157208
0.0905858
0.0559019
0.0366895
0.025691
0.0193734
0.0158274
0.0139099
0.0129027
0.0123621
0.0120657
0.0119465
0.0120283
0.0123511
0.0129343
0.0137615
0.0147991
0.0160087
0.0173579
0.0188192
0.0203701
0.0219928
0.0236744
0.0253962
0.0271444
0.0289072
0.0306674
0.0324006
0.0340755
0.0356542
0.0370947
0.038352
0.0393808
0.0401371
0.0405814
0.0406812
0.0404144
0.0397727
0.0387639
0.0374138
0.035765
0.0338757
0.0318172
0.0296742
0.0275346
0.0254815
0.023582
0.0218863
0.020419
0.0191902
0.018186
0.0173945
0.0167826
0.0163551
0.016067
0.0160103
0.0160379
0.0164727
0.0166466
0.29772
0.157344
0.0907963
0.0561122
0.0368247
0.025694
0.0192247
0.0155538
0.0135812
0.0126109
0.0121921
0.0120675
0.0121277
0.0123664
0.0128146
0.0134975
0.0144099
0.0155242
0.0168038
0.0182142
0.0197258
0.0213141
0.0229591
0.0246441
0.0263464
0.028054
0.0297548
0.0314323
0.0330625
0.0346149
0.0360522
0.0373328
0.0384126
0.0392471
0.039794
0.0400158
0.0398835
0.0393792
0.0385001
0.0372606
0.0356937
0.0338502
0.0317961
0.0296098
0.02738
0.0251957
0.023138
0.02127
0.0196351
0.0182525
0.0171245
0.0162335
0.0155599
0.0150702
0.0147584
0.0145854
0.0146236
0.0147494
0.0152472
0.0155309
0.297728
0.15747
0.090995
0.0563166
0.0369678
0.0257197
0.0191029
0.0152914
0.0132246
0.0122355
0.0118812
0.0118856
0.012105
0.0124998
0.0130833
0.013879
0.0148883
0.01609
0.0174492
0.0189297
0.0204994
0.0221312
0.0238028
0.0254929
0.0271761
0.0288413
0.0304765
0.0320654
0.0335852
0.0350061
0.0362919
0.037402
0.0382935
0.0389234
0.0392514
0.0392434
0.0388739
0.0381305
0.0370163
0.0355529
0.0337813
0.0317602
0.0295635
0.0272754
0.0249873
0.0227877
0.0207535
0.0189419
0.0173886
0.0161058
0.0150888
0.0143161
0.0137621
0.0133934
0.0131957
0.0131352
0.0132675
0.0134899
0.0140526
0.0144451
0.297734
0.157588
0.0911827
0.0565145
0.0371165
0.0257662
0.0190115
0.0150538
0.0128663
0.0118117
0.0114649
0.0115457
0.0118876
0.0124209
0.0131363
0.0140483
0.0151603
0.0164557
0.0179011
0.0194591
0.021094
0.0227759
0.0244793
0.0261778
0.027844
0.0294666
0.0310341
0.0325306
0.0339343
0.0352167
0.0363429
0.037274
0.0379686
0.038386
0.038489
0.0382468
0.037639
0.036659
0.0353168
0.0336419
0.0316833
0.0295079
0.0271964
0.0248379
0.0225248
0.0203429
0.0183628
0.0166338
0.0151825
0.0140136
0.0131154
0.0124634
0.0120276
0.0117757
0.0116871
0.0117336
0.0119562
0.0122708
0.0128984
0.0133993
0.297738
0.157698
0.0913603
0.0567054
0.0372686
0.0258311
0.0189512
0.0148496
0.0125262
0.0113711
0.0109808
0.0110824
0.0114988
0.0121375
0.0129665
0.0139866
0.015198
0.0165863
0.0181194
0.0197582
0.0214635
0.0232009
0.0249414
0.0266527
0.028305
0.0298868
0.0313863
0.0327885
0.0340728
0.0352119
0.0361731
0.0369191
0.0374113
0.0376118
0.0374868
0.0370105
0.0361678
0.0349589
0.0334016
0.0315335
0.0294121
0.027112
0.02472
0.0223281
0.0200277
0.0178995
0.0160056
0.0143854
0.0130553
0.0120124
0.0112383
0.0107064
0.0103842
0.0102412
0.0102536
0.0103983
0.0107047
0.0111053
0.0117971
0.0124016
0.297742
0.157802
0.0915285
0.0568891
0.0374221
0.0259113
0.0189204
0.0146829
0.0122184
0.0109396
0.0104651
0.0105352
0.0109731
0.0116726
0.0125831
0.0136897
0.0149864
0.0164576
0.0180721
0.0197889
0.0215648
0.0233603
0.0251419
0.0268704
0.028513
0.0300569
0.0314902
0.0327984
0.0339622
0.0349561
0.0357496
0.0363081
0.0365958
0.0365788
0.0362277
0.0355219
0.0344533
0.0330292
0.0312761
0.0292401
0.0269872
0.0245989
0.0221666
0.0197835
0.0175372
0.0155006
0.0137251
0.0122388
0.0110472
0.0101392
0.00949149
0.00907576
0.00885923
0.0088144
0.00891655
0.00914763
0.00952877
0.0100085
0.0107601
0.0114608
0.297744
0.157901
0.0916882
0.0570658
0.0375755
0.0260036
0.0189164
0.0145545
0.0119513
0.0105369
0.00994913
0.00994398
0.0103517
0.0110617
0.0120108
0.0131705
0.0145262
0.0160597
0.0177396
0.0195231
0.021363
0.0232142
0.0250372
0.0267861
0.0284227
0.0299325
0.0313029
0.0325197
0.0335646
0.0344145
0.0350411
0.0354132
0.0354988
0.0352683
0.034698
0.0337735
0.032494
0.0308755
0.0289531
0.0267821
0.0244363
0.0220031
0.0195766
0.0172485
0.0150998
0.0131929
0.0115667
0.0102364
0.00919676
0.00842937
0.00790663
0.00760012
0.00747856
0.00751828
0.00769634
0.00799967
0.00844392
0.0089933
0.0097987
0.0105862
0.297746
0.157994
0.0918401
0.0572355
0.0377276
0.0261051
0.0189354
0.0144627
0.0117287
0.0101762
0.00945794
0.00934484
0.00967779
0.0103484
0.0112878
0.0124579
0.0138361
0.0154006
0.0171192
0.0189481
0.0208363
0.0227332
0.0245923
0.0263612
0.0279941
0.0294735
0.0307852
0.0319148
0.0328453
0.0335553
0.0340197
0.0342109
0.0341015
0.0336672
0.0328905
0.0317644
0.0302965
0.0285118
0.0264546
0.0241892
0.0217964
0.0193679
0.0169979
0.0147734
0.0127658
0.0110246
0.00957446
0.00841756
0.00753863
0.00691294
0.00651041
0.00630349
0.00626407
0.0063731
0.00661151
0.00697123
0.00746518
0.00807295
0.0089242
0.0097871
0.297747
0.158083
0.0919852
0.0573986
0.0378773
0.0262133
0.0189739
0.0144043
0.011551
0.00986467
0.0090092
0.00876755
0.0089916
0.00957915
0.0104612
0.0115947
0.0129515
0.0145068
0.0162277
0.0180701
0.0199807
0.0219037
0.0237861
0.0255688
0.0271967
0.0286477
0.029905
0.0309531
0.0317756
0.0323532
0.032664
0.0326846
0.0323926
0.03177
0.0308065
0.0295034
0.0278772
0.0259626
0.0238134
0.0215019
0.0191146
0.0167452
0.0144847
0.012412
0.010586
0.0090412
0.00778746
0.00681476
0.00609933
0.00561192
0.00532167
0.00520293
0.00523191
0.00539454
0.0056773
0.00607699
0.00660635
0.00725993
0.00814755
0.00907278
0.297748
0.158167
0.0921241
0.0575555
0.0380242
0.026326
0.019028
0.0143751
0.0114157
0.00960486
0.00861378
0.00823416
0.00832722
0.00879805
0.00958106
0.0106325
0.0119218
0.0134224
0.0151017
0.0169167
0.0188137
0.0207332
0.0226164
0.0243988
0.026015
0.0274365
0.0286421
0.0296147
0.0303375
0.0307931
0.0309627
0.0308276
0.0303713
0.0295825
0.028459
0.0270111
0.025265
0.023265
0.0210742
0.0187717
0.0164474
0.0141937
0.012095
0.0102183
0.00860756
0.0072813
0.00623545
0.00544968
0.00489417
0.00453732
0.00434912
0.00430658
0.00439071
0.00459237
0.00490449
0.00532853
0.00588183
0.00656559
0.00747889
0.00845212
0.297749
0.158249
0.0922575
0.0577067
0.0381677
0.0264412
0.0190944
0.0143708
0.0113189
0.00939574
0.00827661
0.00775884
0.00771044
0.00804295
0.00869547
0.00962623
0.0108049
0.012205
0.0137959
0.015537
0.0173762
0.0192532
0.0211049
0.0228637
0.024454
0.0258397
0.0269938
0.0278956
0.0285278
0.028874
0.0289186
0.0286477
0.028051
0.0271247
0.0258753
0.0243227
0.022503
0.02047
0.0182946
0.0160608
0.0138589
0.0117761
0.00988605
0.00824109
0.00686851
0.0057717
0.00493484
0.00433033
0.00392527
0.00368794
0.00359049
0.0036129
0.00374085
0.00396955
0.00429853
0.00473352
0.00529966
0.0059991
0.00692704
0.00793317
0.297749
0.158328
0.0923862
0.0578525
0.0383076
0.0265577
0.0191701
0.014387
0.0112558
0.00923378
0.00799796
0.00734872
0.00715826
0.00734268
0.00784536
0.00862745
0.00966046
0.0109198
0.0123777
0.0139975