/*--------------------------------*- C++ -*----------------------------------*\
| =========                 |                                                 |
| \\      /  F ield         | OpenFOAM: The Open Source CFD Toolbox           |
|  \\    /   O peration     | Version:  2.4.0                                 |
|   \\  /    A nd           | Web:      www.OpenFOAM.org                      |
|    \\/     M anipulation  |                                                 |
\*---------------------------------------------------------------------------*/
FoamFile
{
    version     2.0;
    format      ascii;
    class       volScalarField;
    location    "4.18";
    object      p;
}
// * * * * * * * * * * * * * * * * * * * * * * * * * * * * * * * * * * * * * //

dimensions      [0 2 -2 0 0 0 0];

internalField   nonuniform List<scalar> 
6000
(
0.0496989
0.278864
0.275814
0.299145
0.304588
0.312271
0.315311
0.318929
0.320867
0.322949
0.324341
0.325743
0.326849
0.32794
0.328916
0.329899
0.330865
0.331874
0.332927
0.334055
0.335269
0.336592
0.338044
0.339652
0.341446
0.343461
0.345733
0.348301
0.351204
0.35448
0.358162
0.362279
0.366854
0.371896
0.377411
0.383377
0.389758
0.396492
0.403485
0.410614
0.417709
0.424584
0.431025
0.43674
0.4413
0.444551
0.446065
0.445792
0.4429
0.437926
0.428928
0.418399
0.40065
0.384685
0.352101
0.334152
0.269353
0.265011
0.114299
0.177121
0.0647181
0.277079
0.275856
0.298997
0.304505
0.312184
0.315254
0.318876
0.320828
0.322914
0.324315
0.325721
0.326832
0.327927
0.328905
0.32989
0.330859
0.331869
0.332923
0.334053
0.335268
0.336592
0.338046
0.339655
0.341451
0.343467
0.34574
0.348309
0.351213
0.35449
0.358173
0.362293
0.366869
0.371916
0.377431
0.383397
0.389777
0.396508
0.403495
0.410615
0.417696
0.424552
0.430969
0.436672
0.441227
0.444467
0.445962
0.445659
0.442731
0.437706
0.428662
0.418052
0.400251
0.384152
0.351556
0.333325
0.268706
0.263632
0.11357
0.174654
0.0785627
0.275002
0.275953
0.298879
0.304433
0.312117
0.315204
0.318833
0.320795
0.322886
0.324292
0.325701
0.326816
0.327913
0.328895
0.329882
0.330851
0.331863
0.332918
0.334049
0.335266
0.336592
0.338047
0.339658
0.341455
0.343472
0.345745
0.348315
0.351219
0.354496
0.358179
0.362298
0.366874
0.37192
0.377433
0.383398
0.389774
0.396499
0.403476
0.41058
0.41764
0.424468
0.430851
0.436531
0.44108
0.444313
0.445796
0.445472
0.442518
0.437455
0.42837
0.417699
0.399852
0.383651
0.351021
0.33258
0.268001
0.262403
0.11266
0.172476
0.090031
0.272825
0.276092
0.298788
0.304379
0.312062
0.315163
0.318797
0.320766
0.322861
0.324271
0.325684
0.326801
0.327901
0.328885
0.329873
0.330844
0.331856
0.332913
0.334045
0.335263
0.33659
0.338046
0.339658
0.341456
0.343472
0.345746
0.348314
0.351218
0.354493
0.358174
0.362291
0.366864
0.371906
0.377415
0.383372
0.389739
0.396452
0.403412
0.410495
0.417526
0.424322
0.430662
0.436303
0.440837
0.444064
0.445541
0.445209
0.44224
0.437154
0.428038
0.417325
0.399434
0.383155
0.35048
0.331876
0.267294
0.261287
0.111737
0.170672
0.100018
0.270653
0.276255
0.298721
0.304342
0.312016
0.315127
0.318765
0.320739
0.322838
0.324252
0.325667
0.326788
0.32789
0.328875
0.329864
0.330836
0.331849
0.332906
0.334038
0.335257
0.336586
0.338043
0.339656
0.341453
0.343469
0.345742
0.348309
0.351209
0.354481
0.358159
0.36227
0.366837
0.371871
0.37737
0.383315
0.389667
0.39636
0.403297
0.410352
0.417353
0.424117
0.430412
0.435999
0.440496
0.443707
0.445173
0.444834
0.441854
0.436756
0.42762
0.416878
0.398952
0.382614
0.349894
0.331158
0.26656
0.260206
0.110806
0.16911
0.109087
0.268553
0.276424
0.298677
0.304319
0.311978
0.315098
0.318736
0.320716
0.322816
0.324234
0.325651
0.326774
0.327878
0.328865
0.329855
0.330827
0.33184
0.332897
0.33403
0.33525
0.33658
0.338038
0.339651
0.341448
0.343464
0.345734
0.348298
0.351195
0.354462
0.358133
0.362237
0.366794
0.371815
0.377299
0.383227
0.389558
0.396228
0.403139
0.410165
0.417137
0.423871
0.430126
0.435652
0.440092
0.443267
0.444705
0.444346
0.441349
0.436238
0.427084
0.416324
0.39837
0.381991
0.349229
0.330389
0.265766
0.259119
0.109844
0.167707
0.117411
0.266566
0.276596
0.298653
0.304312
0.311947
0.315075
0.318711
0.320695
0.322797
0.324218
0.325637
0.326762
0.327867
0.328854
0.329845
0.330817
0.33183
0.332888
0.334021
0.335242
0.336573
0.338032
0.339645
0.341442
0.343456
0.345724
0.348285
0.351176
0.354436
0.358098
0.362191
0.366735
0.371741
0.377208
0.383116
0.389424
0.39607
0.402955
0.409955
0.416901
0.423611
0.429829
0.435291
0.439663
0.442786
0.444178
0.443781
0.440751
0.435615
0.426437
0.415658
0.397675
0.381267
0.348464
0.329548
0.264888
0.258008
0.108829
0.166427
0.125074
0.264715
0.27677
0.29863
0.304328
0.311925
0.315058
0.31869
0.320678
0.32278
0.324203
0.325623
0.32675
0.327856
0.328844
0.329835
0.330807
0.33182
0.332877
0.334012
0.335234
0.336566
0.338025
0.339639
0.341435
0.343447
0.345712
0.348267
0.351152
0.354404
0.358056
0.362136
0.366666
0.371656
0.377104
0.382991
0.389278
0.395901
0.402762
0.40974
0.416664
0.423351
0.429535
0.434936
0.439237
0.442298
0.443631
0.443181
0.440102
0.434927
0.42571
0.414903
0.396885
0.38045
0.347601
0.328628
0.263915
0.256858
0.107745
0.165242
0.132178
0.263012
0.276943
0.298616
0.304356
0.31191
0.315047
0.318674
0.320663
0.322765
0.324189
0.325611
0.326739
0.327846
0.328834
0.329825
0.330796
0.331809
0.332866
0.334001
0.335225
0.336558
0.338018
0.339632
0.341427
0.343437
0.345697
0.348247
0.351124
0.354367
0.358008
0.362075
0.36659
0.371564
0.376994
0.382863
0.389129
0.395731
0.402572
0.409529
0.416434
0.4231
0.42925
0.434593
0.438827
0.441822
0.443089
0.442577
0.439437
0.434208
0.42494
0.414093
0.396027
0.379562
0.346656
0.327636
0.262856
0.255665
0.106587
0.16413
0.138819
0.261463
0.277112
0.298606
0.304394
0.311905
0.315043
0.318661
0.320652
0.322753
0.324178
0.3256
0.326729
0.327836
0.328825
0.329815
0.330785
0.331798
0.332855
0.333991
0.335216
0.33655
0.338011
0.339624
0.341417
0.343424
0.34568
0.348223
0.351093
0.354326
0.357956
0.362011
0.366512
0.37147
0.376884
0.382735
0.388984
0.395567
0.402389
0.409328
0.416214
0.422859
0.428975
0.434266
0.438436
0.441366
0.442566
0.441986
0.438778
0.433486
0.424155
0.413257
0.395134
0.378628
0.345657
0.326592
0.261727
0.254435
0.105362
0.163073
0.145077
0.260072
0.277274
0.298595
0.304444
0.311906
0.315045
0.318653
0.320644
0.322742
0.324168
0.32559
0.32672
0.327827
0.328816
0.329805
0.330775
0.331787
0.332845
0.333981
0.335207
0.336542
0.338003
0.339615
0.341406
0.343409
0.34566
0.348197
0.351058
0.354282
0.357901
0.361944
0.366432
0.371376
0.376775
0.382611
0.388843
0.39541
0.402214
0.409136
0.416004
0.422627
0.428711
0.433953
0.438065
0.440933
0.442065
0.441415
0.438137
0.432776
0.423376
0.412418
0.394229
0.377673
0.344628
0.325515
0.260553
0.253182
0.104088
0.162065
0.151011
0.258841
0.277423
0.298579
0.304502
0.311914
0.315054
0.318648
0.320639
0.322735
0.324161
0.325582
0.326712
0.32782
0.328808
0.329797
0.330766
0.331777
0.332834
0.333972
0.335197
0.336533
0.337994
0.339605
0.341393
0.343392
0.345638
0.348168
0.351022
0.354237
0.357846
0.361878
0.366353
0.371285
0.376669
0.382491
0.388708
0.395259
0.402049
0.408954
0.415804
0.422405
0.428457
0.433654
0.437713
0.44052
0.441587
0.440868
0.437518
0.432085
0.422613
0.411588
0.393328
0.376716
0.34359
0.324425
0.259356
0.251921
0.102785
0.161103
0.15667
0.25777
0.277559
0.298556
0.304568
0.311928
0.315069
0.318648
0.320638
0.322729
0.324155
0.325576
0.326706
0.327814
0.328801
0.329789
0.330757
0.331767
0.332825
0.333962
0.335188
0.336524
0.337984
0.339594
0.341379
0.343374
0.345615
0.348139
0.350985
0.354191
0.357791
0.361812
0.366276
0.371195
0.376568
0.382375
0.388579
0.395116
0.401891
0.408781
0.415613
0.422191
0.428211
0.433367
0.437377
0.440127
0.44113
0.440342
0.436921
0.431415
0.421869
0.410775
0.392441
0.375768
0.342559
0.323336
0.258156
0.250666
0.101477
0.160191
0.162091
0.25686
0.27768
0.298525
0.304638
0.311947
0.31509
0.318652
0.320641
0.322727
0.324152
0.325572
0.326702
0.327809
0.328796
0.329783
0.33075
0.331759
0.332816
0.333953
0.33518
0.336515
0.337975
0.339582
0.341365
0.343356
0.345591
0.348109
0.350948
0.354146
0.357737
0.361748
0.366201
0.371109
0.37647
0.382265
0.388456
0.39498
0.40174
0.408614
0.415429
0.421984
0.427973
0.43309
0.437054
0.43975
0.440692
0.439837
0.436345
0.430766
0.421147
0.409982
0.391575
0.374836
0.341544
0.32226
0.256968
0.249429
0.100183
0.159328
0.167302
0.256109
0.277787
0.298482
0.304712
0.31197
0.315116
0.31866
0.320647
0.322727
0.324152
0.32557
0.3267
0.327807
0.328793
0.329779
0.330744
0.331752
0.332808
0.333945
0.335172
0.336507
0.337965
0.339571
0.341351
0.343338
0.345569
0.34808
0.350913
0.354103
0.357684
0.361686
0.366129
0.371027
0.376376
0.38216
0.388339
0.39485
0.401596
0.408455
0.415252
0.421783
0.427742
0.432822
0.436743
0.439386
0.440269
0.439348
0.435787
0.430136
0.420446
0.409208
0.390731
0.373923
0.340553
0.321203
0.255805
0.248218
0.09892
0.158515
0.172327
0.255514
0.277883
0.298428
0.304786
0.311996
0.315148
0.318672
0.320656
0.322731
0.324154
0.325571
0.326701
0.327807
0.328792
0.329777
0.33074
0.331747
0.332802
0.333939
0.335165
0.3365
0.337957
0.339561
0.341338
0.343322
0.345547
0.348053
0.350879
0.354061
0.357634
0.361627
0.366061
0.370948
0.376287
0.38206
0.388227
0.394725
0.401458
0.408302
0.41508
0.421588
0.427516
0.43256
0.43644
0.439033
0.439859
0.438874
0.435246
0.429524
0.419763
0.408455
0.389909
0.373033
0.33959
0.320171
0.254674
0.247039
0.0977009
0.157752
0.177181
0.255071
0.277972
0.298361
0.30486
0.312024
0.315186
0.318688
0.320669
0.322737
0.324159
0.325574
0.326703
0.327809
0.328794
0.329776
0.330738
0.331743
0.332797
0.333934
0.33516
0.336494
0.33795
0.339552
0.341327
0.343307
0.345527
0.348028
0.350847
0.354022
0.357587
0.361571
0.365996
0.370874
0.376202
0.381965
0.38812
0.394606
0.401325
0.408153
0.414913
0.421396
0.427294
0.432304
0.436145
0.438689
0.439458
0.438411
0.434717
0.428925
0.419098
0.407719
0.38911
0.372164
0.338655
0.319164
0.253581
0.245896
0.0965352
0.157037
0.181878
0.254774
0.278059
0.298281
0.30493
0.312053
0.315228
0.318707
0.320686
0.322746
0.324167
0.325579
0.326709
0.327814
0.328797
0.329779
0.330738
0.331741
0.332795
0.33393
0.335156
0.33649
0.337945
0.339545
0.341317
0.343294
0.34551
0.348005
0.350818
0.353986
0.357544
0.36152
0.365936
0.370804
0.376123
0.381875
0.388019
0.394493
0.401198
0.40801
0.41475
0.421208
0.427076
0.432052
0.435854
0.43835
0.439065
0.437956
0.434198
0.428338
0.418447
0.406998
0.388331
0.371316
0.337749
0.318185
0.252529
0.244791
0.0954295
0.156367
0.186429
0.254617
0.27815
0.298189
0.304994
0.312082
0.315274
0.318729
0.320707
0.322758
0.324177
0.325587
0.326717
0.327821
0.328804
0.329783
0.330741
0.331742
0.332794
0.333929
0.335155
0.336488
0.337942
0.339541
0.341311
0.343284
0.345496
0.347986
0.350793
0.353955
0.357505
0.361472
0.36588
0.370739
0.376049
0.38179
0.387923
0.394385
0.401076
0.407872
0.414591
0.421024
0.42686
0.431804
0.435567
0.438016
0.438677
0.437507
0.433687
0.42776
0.417807
0.406291
0.387571
0.370488
0.336872
0.317233
0.251519
0.243724
0.0943878
0.155739
0.190843
0.254593
0.278251
0.298088
0.305052
0.312109
0.315324
0.318755
0.320731
0.322772
0.32419
0.325598
0.326727
0.327831
0.328813
0.329791
0.330747
0.331746
0.332797
0.333931
0.335156
0.336489
0.337943
0.33954
0.341307
0.343277
0.345485
0.34797
0.350772
0.353927
0.35747
0.36143
0.365829
0.37068
0.37598
0.381711
0.387833
0.394282
0.400959
0.407737
0.414436
0.420842
0.426647
0.431557
0.435282
0.437684
0.438291
0.437061
0.433181
0.427188
0.417177
0.405596
0.386827
0.369678
0.336023
0.316307
0.250554
0.242695
0.0934123
0.15515
0.195126
0.254695
0.278366
0.297979
0.305102
0.312134
0.315377
0.318784
0.320759
0.32279
0.324206
0.325611
0.326741
0.327844
0.328825
0.329801
0.330755
0.331753
0.332802
0.333936
0.335161
0.336493
0.337946
0.339542
0.341308
0.343274
0.345479
0.347959
0.350755
0.353904
0.35744
0.361393
0.365784
0.370626
0.375917
0.381638
0.387749
0.394185
0.400847
0.407607
0.414284
0.420662
0.426436
0.431311
0.434998
0.437352
0.437907
0.436617
0.432678
0.42662
0.416554
0.40491
0.386099
0.368885
0.335202
0.315408
0.249632
0.241705
0.092504
0.154596
0.199285
0.254914
0.278502
0.297868
0.305142
0.312155
0.315432
0.318816
0.320791
0.322811
0.324225
0.325627
0.326757
0.32786
0.328841
0.329815
0.330767
0.331763
0.332811
0.333944
0.335169
0.336501
0.337954
0.339549
0.341312
0.343276
0.345477
0.347953
0.350744
0.353887
0.357416
0.361362
0.365745
0.370579
0.37586
0.381572
0.387671
0.394093
0.40074
0.407481
0.414135
0.420485
0.426225
0.431065
0.434714
0.437019
0.437521
0.436172
0.432175
0.426053
0.415937
0.404231
0.385384
0.368108
0.334406
0.314533
0.248754
0.240752
0.0916625
0.154072
0.203325
0.255242
0.27866
0.297756
0.305174
0.312172
0.315489
0.318851
0.320827
0.322835
0.324248
0.325646
0.326776
0.327878
0.328859
0.329833
0.330783
0.331777
0.332824
0.333957
0.335181
0.336514
0.337965
0.33956
0.341322
0.343283
0.34548
0.347952
0.350738
0.353875
0.357399
0.361337
0.365713
0.370538
0.375811
0.381511
0.387599
0.394008
0.400638
0.40736
0.413989
0.420309
0.426015
0.430819
0.434427
0.436685
0.437134
0.435725
0.431671
0.425487
0.415322
0.403557
0.384681
0.367343
0.333634
0.313683
0.247919
0.239834
0.0908871
0.153577
0.207252
0.255672
0.278845
0.297649
0.305197
0.312185
0.315547
0.318888
0.320868
0.322862
0.324274
0.325668
0.326798
0.3279
0.328882
0.329854
0.330803
0.331796
0.332841
0.333973
0.335197
0.33653
0.337982
0.339575
0.341336
0.343296
0.34549
0.347958
0.350739
0.353871
0.357388
0.361319
0.365688
0.370505
0.375768
0.381458
0.387534
0.393928
0.400541
0.407242
0.413846
0.420135
0.425806
0.430572
0.434139
0.436347
0.436742
0.435273
0.431163
0.424919
0.414708
0.402887
0.383987
0.366592
0.332886
0.312855
0.247125
0.238951
0.0901763
0.153106
0.211071
0.256195
0.279059
0.297549
0.305214
0.312192
0.315605
0.318928
0.320912
0.322894
0.324303
0.325693
0.326824
0.327926
0.328907
0.329879
0.330827
0.331818
0.332863
0.333994
0.335219
0.336552
0.338004
0.339597
0.341356
0.343314
0.345505
0.34797
0.350746
0.353873
0.357384
0.361309
0.365671
0.37048
0.375734
0.381413
0.387476
0.393855
0.400451
0.407129
0.413707
0.419963
0.425597
0.430323
0.433847
0.436004
0.436345
0.434817
0.430652
0.424348
0.414094
0.402219
0.383302
0.365851
0.33216
0.312049
0.246372
0.238101
0.0895285
0.152657
0.214786
0.256804
0.279303
0.297461
0.305224
0.312194
0.315663
0.318971
0.32096
0.322929
0.324337
0.325721
0.326852
0.327954
0.328937
0.329909
0.330856
0.331846
0.33289
0.33402
0.335245
0.336579
0.338031
0.339624
0.341383
0.343339
0.345528
0.347989
0.350761
0.353883
0.357389
0.361308
0.365662
0.370463
0.375707
0.381376
0.387426
0.393789
0.400365
0.407021
0.41357
0.419791
0.425387
0.430072
0.433552
0.435656
0.435942
0.434354
0.430134
0.423771
0.413479
0.401552
0.382624
0.36512
0.331455
0.311264
0.24566
0.237284
0.0889418
0.152227
0.218402
0.257491
0.279578
0.297388
0.305231
0.312192
0.315719
0.319015
0.321013
0.322969
0.324375
0.325754
0.326885
0.327987
0.328971
0.329943
0.33089
0.331879
0.332922
0.334052
0.335277
0.336611
0.338064
0.339658
0.341416
0.343371
0.345557
0.348015
0.350784
0.353902
0.357402
0.361315
0.365662
0.370454
0.37569
0.381347
0.387383
0.39373
0.400286
0.406917
0.413436
0.419621
0.425176
0.429818
0.433251
0.435302
0.435532
0.433883
0.429609
0.423189
0.41286
0.400884
0.381953
0.364398
0.330769
0.310499
0.244986
0.236497
0.0884141
0.151814
0.221924
0.258251
0.279884
0.297331
0.305237
0.312186
0.315775
0.319062
0.321071
0.323014
0.324418
0.325791
0.326922
0.328023
0.329009
0.329982
0.330929
0.331917
0.332959
0.33409
0.335315
0.33665
0.338104
0.339698
0.341456
0.34341
0.345595
0.34805
0.350816
0.353929
0.357424
0.361331
0.365672
0.370456
0.375681
0.381327
0.387349
0.393679
0.400213
0.406818
0.413305
0.419452
0.424964
0.429561
0.432945
0.43494
0.435113
0.433402
0.429075
0.422599
0.412237
0.400215
0.381286
0.363683
0.330103
0.309754
0.244349
0.23574
0.0879433
0.151417
0.225357
0.259075
0.28022
0.297294
0.305243
0.312178
0.315829
0.319111
0.321133
0.323064
0.324467
0.325833
0.326964
0.328064
0.329052
0.330026
0.330974
0.331962
0.333004
0.334134
0.33536
0.336696
0.338151
0.339746
0.341504
0.343457
0.345641
0.348094
0.350857
0.353966
0.357457
0.361358
0.365691
0.370468
0.375683
0.381317
0.387324
0.393635
0.400147
0.406724
0.413177
0.419284
0.424751
0.4293
0.432633
0.43457
0.434684
0.432911
0.428531
0.422
0.411608
0.399543
0.380622
0.362976
0.329455
0.309027
0.24375
0.235013
0.0875274
0.151033
0.228704
0.259958
0.280586
0.297278
0.305253
0.312168
0.315883
0.319163
0.3212
0.323119
0.324522
0.325881
0.327011
0.32811
0.3291
0.330075
0.331025
0.332013
0.333055
0.334185
0.335411
0.336748
0.338205
0.339801
0.34156
0.343513
0.345696
0.348147
0.350907
0.354013
0.357499
0.361395
0.365722
0.37049
0.375695
0.381316
0.387308
0.3936
0.400088
0.406635
0.413052
0.419116
0.424536
0.429034
0.432314
0.434191
0.434244
0.432409
0.427976
0.421391
0.410973
0.398868
0.379962
0.362276
0.328824
0.308318
0.243187
0.234313
0.087164
0.150662
0.231971
0.260895
0.280981
0.297283
0.305267
0.31216
0.315937
0.319217
0.321272
0.323182
0.324584
0.325935
0.327064
0.328162
0.329154
0.330131
0.331082
0.332071
0.333113
0.334243
0.335471
0.336809
0.338267
0.339865
0.341624
0.343578
0.34576
0.34821
0.350968
0.354071
0.357553
0.361444
0.365764
0.370524
0.375719
0.381327
0.387302
0.393573
0.400035
0.406551
0.412929
0.418949
0.424318
0.428763
0.431986
0.433801
0.433793
0.431894
0.427409
0.420771
0.41033
0.398188
0.379304
0.361582
0.32821
0.307627
0.242658
0.233642
0.0868512
0.150303
0.235163
0.261879
0.281403
0.297312
0.305288
0.312154
0.31599
0.319274
0.32135
0.323251
0.324653
0.325996
0.327124
0.32822
0.329214
0.330192
0.331146
0.332136
0.333179
0.33431
0.335538
0.336878
0.338338
0.339937
0.341698
0.343652
0.345834
0.348284
0.35104
0.35414
0.357619
0.361505
0.365818
0.37057
0.375754
0.381348
0.387306
0.393556
0.399991
0.406472
0.41281
0.418782
0.424099
0.428487
0.43165
0.4334
0.433329
0.431364
0.426828
0.420139
0.409678
0.397503
0.378648
0.360893
0.327612
0.306954
0.242164
0.232997
0.0865866
0.149954
0.238283
0.262907
0.281851
0.297363
0.305318
0.312151
0.316046
0.319334
0.321434
0.323328
0.324731
0.326066
0.327192
0.328286
0.329281
0.330261
0.331217
0.332209
0.333253
0.334385
0.335614
0.336955
0.338417
0.340018
0.341781
0.343736
0.345919
0.348369
0.351124
0.354222
0.357697
0.361578
0.365885
0.370628
0.375802
0.381382
0.387321
0.393547
0.399953
0.406399
0.412694
0.418615
0.423876
0.428204
0.431305
0.432987
0.43285
0.43082
0.426233
0.419494
0.409016
0.396813
0.377992
0.360209
0.327029
0.306298
0.241703
0.23238
0.0863682
0.149617
0.241336
0.263973
0.282322
0.297436
0.305357
0.312154
0.316104
0.319399
0.321523
0.323413
0.324818
0.326145
0.327269
0.32836
0.329356
0.330338
0.331297
0.33229
0.333336
0.334469
0.3357
0.337042
0.338506
0.340109
0.341874
0.343831
0.346015
0.348465
0.35122
0.354316
0.357788
0.361665
0.365966
0.3707
0.375862
0.381427
0.387347
0.393549
0.399924
0.406331
0.412581
0.418448
0.423649
0.427915
0.430949
0.432561
0.432357
0.43026
0.425622
0.418835
0.408344
0.396115
0.377337
0.35953
0.326462
0.305659
0.241274
0.231789
0.0861937
0.14929
0.244326
0.265073
0.282815
0.297532
0.305406
0.312164
0.316165
0.319469
0.32162
0.323508
0.324915
0.326234
0.327356
0.328443
0.32944
0.330423
0.331385
0.332381
0.333429
0.334563
0.335795
0.33714
0.338606
0.340211
0.341978
0.343937
0.346123
0.348574
0.351328
0.354423
0.357893
0.361766
0.366061
0.370786
0.375936
0.381485
0.387385
0.39356
0.399903
0.406269
0.41247
0.41828
0.423419
0.427617
0.430582
0.432121
0.431847
0.429682
0.424994
0.41816
0.407661
0.395411
0.376681
0.358856
0.325909
0.305038
0.240876
0.231224
0.0860608
0.148975
0.247259
0.266203
0.283329
0.29765
0.305466
0.312181
0.316231
0.319545
0.321724
0.323612
0.325023
0.326335
0.327454
0.328536
0.329534
0.330518
0.331483
0.332482
0.333532
0.334668
0.335901
0.337248
0.338716
0.340325
0.342094
0.344056
0.346244
0.348696
0.351451
0.354545
0.358013
0.361881
0.36617
0.370887
0.376025
0.381557
0.387435
0.393583
0.39989
0.406213
0.412362
0.418112
0.423184
0.427311
0.430203
0.431665
0.431319
0.429086
0.424348
0.41747
0.406965
0.394698
0.376024
0.358186
0.32537
0.304433
0.240509
0.230686
0.0859673
0.148671
0.250138
0.267359
0.283861
0.297788
0.305538
0.312207
0.316302
0.319628
0.321836
0.323726
0.325143
0.326448
0.327564
0.328642
0.329639
0.330623
0.331591
0.332593
0.333646
0.334784
0.336019
0.337368
0.338839
0.34045
0.342222
0.344187
0.346378
0.348832
0.351588
0.354682
0.358148
0.362013
0.366295
0.371003
0.376128
0.381643
0.387498
0.393616
0.399886
0.406163
0.412256
0.417942
0.422944
0.426996
0.429811
0.431193
0.430773
0.428469
0.423682
0.416762
0.406255
0.393977
0.375365
0.35752
0.324844
0.303846
0.240171
0.230174
0.0859107
0.148378
0.252967
0.268539
0.28441
0.297947
0.305621
0.312242
0.31638
0.319719
0.321958
0.323852
0.325275
0.326574
0.327688
0.32876
0.329757
0.330741
0.331712
0.332716
0.333772
0.334912
0.33615
0.337501
0.338975
0.340588
0.342364
0.344332
0.346526
0.348983
0.35174
0.354835
0.358299
0.36216
0.366437
0.371136
0.376247
0.381744
0.387574
0.39366
0.39989
0.406118
0.412153
0.417771
0.422698
0.426671
0.429405
0.430704
0.430207
0.427832
0.422996
0.416036
0.405532
0.393246
0.374704
0.356858
0.324331
0.303277
0.239862
0.229689
0.0858886
0.148099
0.25575
0.269738
0.284974
0.298124
0.305716
0.312287
0.316465
0.319817
0.322089
0.32399
0.325421
0.326716
0.327827
0.328894
0.329888
0.330872
0.331845
0.332852
0.333911
0.335054
0.336294
0.337648
0.339124
0.340741
0.34252
0.344492
0.34669
0.349149
0.351909
0.355004
0.358467
0.362325
0.366596
0.371285
0.376382
0.38186
0.387664
0.393717
0.399904
0.40608
0.412052
0.417599
0.422446
0.426335
0.428983
0.430195
0.429619
0.427173
0.422289
0.41529
0.404793
0.392507
0.37404
0.3562
0.323831
0.302724
0.23958
0.22923
0.0858982
0.147834
0.258492
0.270953
0.285551
0.298319
0.305822
0.312342
0.316558
0.319925
0.32223
0.32414
0.325582
0.326873
0.327982
0.329043
0.330035
0.331018
0.331992
0.333002
0.334064
0.33521
0.336453
0.337809
0.339289
0.340909
0.342692
0.344668
0.346869
0.349333
0.352095
0.355191
0.358654
0.362509
0.366773
0.371452
0.376535
0.381992
0.387768
0.393785
0.399927
0.406047
0.411954
0.417423
0.422187
0.425988
0.428546
0.429668
0.42901
0.426491
0.42156
0.414525
0.404039
0.391757
0.373373
0.355545
0.323342
0.30219
0.239323
0.228798
0.0859365
0.147584
0.261196
0.272182
0.28614
0.298531
0.305939
0.312407
0.316658
0.320042
0.322381
0.324304
0.325758
0.327047
0.328155
0.32921
0.330199
0.33118
0.332155
0.333167
0.334233
0.335382
0.336628
0.337987
0.33947
0.341093
0.342881
0.344861
0.347067
0.349534
0.352299
0.355397
0.358859
0.362711
0.36697
0.371638
0.376706
0.38214
0.387888
0.393866
0.39996
0.406021
0.411857
0.417246
0.421921
0.425628
0.428092
0.429119
0.428377
0.425784
0.420807
0.41374
0.403269
0.390996
0.372703
0.354894
0.322864
0.301673
0.239091
0.228394
0.0860002
0.147351
0.263866
0.273422
0.286739
0.298758
0.306067
0.312483
0.316767
0.320169
0.322544
0.324482
0.32595
0.32724
0.328346
0.329396
0.330382
0.33136
0.332336
0.33335
0.334418
0.33557
0.33682
0.338182
0.339668
0.341296
0.343087
0.345072
0.347283
0.349754
0.352523
0.355623
0.359085
0.362934
0.367186
0.371844
0.376895
0.382307
0.388023
0.39396
0.400003
0.406001
0.411762
0.417065
0.421646
0.425255
0.427619
0.428549
0.427721
0.425053
0.42003
0.412933
0.402482
0.390226
0.372028
0.354247
0.322396
0.301173
0.238881
0.228017
0.0860861
0.147136
0.266505
0.27467
0.287348
0.299
0.306205
0.312569
0.316885
0.320305
0.322717
0.324674
0.326159
0.327451
0.328558
0.329602
0.330585
0.33156
0.332536
0.333551
0.334622
0.335777
0.33703
0.338396
0.339886
0.341517
0.343313
0.345303
0.347519
0.349995
0.352768
0.35587
0.359332
0.363179
0.367425
0.372071
0.377104
0.382491
0.388174
0.394068
0.400056
0.405986
0.411668
0.41688
0.421363
0.424868
0.427128
0.427956
0.427039
0.424296
0.419229
0.412106
0.401679
0.389445
0.371349
0.353603
0.321937
0.300692
0.238692
0.227668
0.0861909
0.14694
0.269118
0.275924
0.287963
0.299256
0.306352
0.312664
0.317011
0.320452
0.322902
0.32488
0.326384
0.327681
0.32879
0.329831
0.33081
0.331782
0.332757
0.333773
0.334846
0.336004
0.33726
0.33863
0.340124
0.34176
0.343561
0.345556
0.347777
0.350258
0.353035
0.35614
0.359603
0.363447
0.367685
0.37232
0.377335
0.382695
0.388342
0.39419
0.400119
0.405978
0.411576
0.416692
0.421071
0.424466
0.426618
0.427341
0.426333
0.423515
0.418404
0.411258
0.400859
0.388655
0.370666
0.352964
0.321487
0.300229
0.238521
0.227348
0.086311
0.146764
0.271708
0.27718
0.288584
0.299523
0.306509
0.31277
0.317145
0.320608
0.323098
0.3251
0.326626
0.327931
0.329044
0.330082
0.331059
0.332027
0.333001
0.334017
0.335092
0.336253
0.337512
0.338885
0.340384
0.342024
0.343831
0.345832
0.348059
0.350545
0.353326
0.356434
0.359898
0.363739
0.36797
0.372592
0.377587
0.382919
0.388528
0.394327
0.400193
0.405977
0.411485
0.4165
0.420768
0.42405
0.426088
0.426703
0.425602
0.422708
0.417557
0.410391
0.400025
0.387855
0.369979
0.35233
0.321045
0.299785
0.238367
0.227056
0.0864429
0.146609
0.274278
0.278438
0.289209
0.299802
0.306675
0.312884
0.317288
0.320773
0.323304
0.325333
0.326884
0.328201
0.329321
0.330358
0.331332
0.332297
0.33327
0.334285
0.335362
0.336525
0.337788
0.339165
0.340668
0.342313
0.344126
0.346132
0.348365
0.350858
0.353644
0.356755
0.360218
0.364057
0.36828
0.372888
0.377862
0.383164
0.388733
0.394478
0.400279
0.405982
0.411395
0.416303
0.420456
0.423618
0.425539
0.426042
0.424848
0.421879
0.416687
0.409506
0.399177
0.387049
0.369289
0.351701
0.320611
0.29936
0.238227
0.226792
0.0865825
0.146478
0.276832
0.279694
0.289838
0.300091
0.306848
0.313008
0.317439
0.320948
0.323521
0.32558
0.327159
0.328491
0.32962
0.330659
0.331632
0.332594
0.333565
0.334579
0.335657
0.336822
0.338088
0.339469
0.340977
0.342628
0.344446
0.34646
0.348699
0.351198
0.353989
0.357103
0.360567
0.364402
0.368617
0.37321
0.378161
0.383432
0.388957
0.394646
0.400376
0.405993
0.411307
0.416102
0.420135
0.423172
0.424972
0.425361
0.424071
0.421028
0.415799
0.408607
0.398318
0.386238
0.368599
0.35108
0.320184
0.298954
0.238099
0.226558
0.0867259
0.146371
0.279373
0.280946
0.290468
0.30039
0.307029
0.31314
0.317597
0.321132
0.323748
0.32584
0.32745
0.3288
0.329941
0.330984
0.331959
0.332919
0.333889
0.334902
0.33598
0.337147
0.338416
0.339801
0.341314
0.342971
0.344796
0.346816
0.349062
0.351567
0.354363
0.35748
0.360945
0.364776
0.368982
0.373559
0.378486
0.383722
0.3892
0.394829
0.400485
0.406012
0.41122
0.415897
0.419804
0.422712
0.424387
0.42466
0.423275
0.420159
0.414896
0.407696
0.397452
0.385426
0.367909
0.350468
0.319764
0.298568
0.23798
0.226353
0.0868693
0.146289
0.281905
0.282191
0.291098
0.300696
0.307217
0.313281
0.317764
0.321325
0.323985
0.326112
0.327755
0.329127
0.330284
0.331334
0.332312
0.333273
0.334242
0.335255
0.336333
0.337501
0.338773
0.340162
0.34168
0.343344
0.345175
0.347202
0.349456
0.351967
0.354769
0.357889
0.361354
0.365181
0.369377
0.373937
0.378838
0.384036
0.389465
0.39503
0.400606
0.406037
0.411135
0.415689
0.419464
0.422239
0.423786
0.423943
0.422463
0.419277
0.413982
0.406779
0.396583
0.384617
0.367224
0.349868
0.319353
0.298204
0.237869
0.226178
0.0870087
0.146234
0.28443
0.283429
0.291727
0.30101
0.307411
0.31343
0.317938
0.321527
0.324232
0.326396
0.328075
0.329472
0.330649
0.331709
0.332693
0.333656
0.334626
0.335638
0.336718
0.337887
0.339161
0.340554
0.342078
0.343748
0.345586
0.347621
0.349882
0.352401
0.355208
0.358332
0.361797
0.365619
0.369804
0.374345
0.379217
0.384376
0.389752
0.395248
0.40074
0.40607
0.411052
0.415478
0.419117
0.421756
0.423173
0.423213
0.421639
0.418385
0.413061
0.40586
0.395716
0.383815
0.366547
0.349283
0.318951
0.297863
0.237764
0.226033
0.0871406
0.146206
0.286953
0.284655
0.292354
0.30133
0.307611
0.313586
0.31812
0.321737
0.324487
0.32669
0.328408
0.329834
0.331033
0.332108
0.333101
0.334068
0.335041
0.336054
0.337135
0.338306
0.339583
0.34098
0.342508
0.344185
0.346031
0.348074
0.350343
0.352869
0.355682
0.358809
0.362274
0.36609
0.370263
0.374784
0.379626
0.384742
0.390061
0.395485
0.400887
0.406111
0.410972
0.415265
0.418765
0.421265
0.422551
0.422473
0.420807
0.417488
0.41214
0.404946
0.394856
0.383026
0.365882
0.348716
0.31856
0.297546
0.237665
0.225918
0.0872618
0.146205
0.289477
0.285868
0.292977
0.301656
0.307817
0.31375
0.318309
0.321955
0.324751
0.326995
0.328754
0.330211
0.331437
0.332529
0.333535
0.33451
0.335487
0.336503
0.337586
0.338759
0.340039
0.34144
0.342974
0.344658
0.346512
0.348564
0.350841
0.353374
0.356193
0.359323
0.362787
0.366597
0.370757
0.375256
0.380064
0.385134
0.390392
0.39574
0.401048
0.406161
0.410896
0.415052
0.41841
0.420768
0.421922
0.421729
0.419972
0.416592
0.411223
0.40404
0.394008
0.382253
0.365232
0.34817
0.318183
0.297255
0.237571
0.225833
0.08737
0.146231
0.292004
0.287066
0.293595
0.301986
0.308027
0.313921
0.318505
0.322181
0.325023
0.32731
0.329111
0.330603
0.331858
0.332972
0.333993
0.334979
0.335963
0.336985
0.338072
0.339248
0.340531
0.341937
0.343477
0.345168
0.34703
0.349091
0.351377
0.353918
0.356743
0.359876
0.363338
0.367141
0.371286
0.37576
0.380533
0.385554
0.390748
0.396013
0.401223
0.406221
0.410825
0.41484
0.418053
0.420269
0.421291
0.420983
0.419138
0.415701
0.410315
0.403149
0.393177
0.381501
0.364603
0.34765
0.317822
0.296991
0.237483
0.225779
0.0874637
0.146284
0.294539
0.288246
0.294207
0.302319
0.308241
0.314098
0.318708
0.322415
0.325304
0.327634
0.329479
0.331008
0.332295
0.333434
0.334475
0.335475
0.33647
0.337499
0.338592
0.339773
0.341061
0.342471
0.344018
0.345716
0.347588
0.349658
0.351953
0.354502
0.357333
0.360469
0.363929
0.367723
0.371852
0.376299
0.381034
0.386001
0.391126
0.396306
0.401412
0.40629
0.410761
0.414631
0.417697
0.41977
0.420661
0.420239
0.418309
0.41482
0.409421
0.402275
0.392367
0.380774
0.363996
0.347158
0.317479
0.296758
0.237402
0.225757
0.0875428
0.146365
0.297084
0.289406
0.294811
0.302655
0.308459
0.314282
0.318917
0.322656
0.325592
0.327968
0.329858
0.331426
0.332747
0.333914
0.334978
0.335995
0.337005
0.338044
0.339145
0.340333
0.341627
0.343044
0.344597
0.346304
0.348185
0.350265
0.35257
0.355127
0.357963
0.361102
0.364559