/*--------------------------------*- C++ -*----------------------------------*\
| =========                 |                                                 |
| \\      /  F ield         | OpenFOAM: The Open Source CFD Toolbox           |
|  \\    /   O peration     | Version:  2.4.0                                 |
|   \\  /    A nd           | Web:      www.OpenFOAM.org                      |
|    \\/     M anipulation  |                                                 |
\*---------------------------------------------------------------------------*/
FoamFile
{
    version     2.0;
    format      ascii;
    class       volScalarField;
    location    "3.21";
    object      nut;
}
// * * * * * * * * * * * * * * * * * * * * * * * * * * * * * * * * * * * * * //

dimensions      [0 2 -1 0 0 0 0];

internalField   nonuniform List<scalar> 
6000
(
1.24053e-05
1.01579e-05
5.6926e-06
3.05736e-06
1.74734e-06
2.93803e-06
2.50582e-06
3.32581e-06
3.77659e-06
4.97365e-06
6.36981e-06
8.01386e-06
9.65424e-06
1.13165e-05
1.30892e-05
1.49352e-05
1.66526e-05
1.80361e-05
1.69352e-05
1.4768e-05
1.19552e-05
1.10792e-05
1.47881e-05
1.83038e-05
2.17971e-05
2.45081e-05
2.63614e-05
2.76388e-05
2.85304e-05
2.91387e-05
2.95305e-05
2.97464e-05
2.98026e-05
2.97211e-05
2.95158e-05
2.91952e-05
2.87583e-05
2.81924e-05
2.74725e-05
2.65632e-05
2.58501e-05
2.58949e-05
2.57074e-05
2.53055e-05
2.47196e-05
2.39829e-05
2.31133e-05
2.20861e-05
2.08786e-05
1.94735e-05
1.79315e-05
1.63554e-05
1.48163e-05
1.34085e-05
1.21658e-05
1.14134e-05
1.08382e-05
1.07384e-05
1.03581e-05
1.08326e-05
2.33581e-05
3.47889e-05
1.71841e-05
8.02154e-06
4.92915e-06
7.46126e-06
1.50619e-05
1.73669e-05
2.3444e-05
2.88362e-05
3.58202e-05
4.55888e-05
5.84454e-05
7.6011e-05
9.74063e-05
0.000122156
0.000148294
0.000152812
0.00011991
7.61731e-05
5.61996e-05
6.55168e-05
9.14017e-05
9.65829e-05
0.000111037
0.000132753
0.000150381
0.00016333
0.000173772
0.000182976
0.000191003
0.00019759
0.000204191
0.000210975
0.000218041
0.000225412
0.000232972
0.000240369
0.000246986
0.000251872
0.000246752
0.000231827
0.000213727
0.000193082
0.000170921
0.000148476
0.000126865
0.000105967
8.68456e-05
7.23961e-05
6.24749e-05
5.57066e-05
5.01995e-05
4.48071e-05
3.86768e-05
3.25396e-05
2.5815e-05
2.05801e-05
1.56685e-05
1.27853e-05
2.89e-05
5.03205e-05
2.4402e-05
1.01711e-05
1.11086e-05
1.7481e-05
2.98372e-05
3.52127e-05
4.46339e-05
5.53287e-05
6.98894e-05
9.06387e-05
0.000117049
0.000150775
0.000190321
0.000235398
0.000279722
0.00029158
0.000229921
0.000150678
0.000104835
0.00011482
0.000152399
0.000172066
0.000230659
0.000296376
0.000342177
0.000373492
0.000396652
0.000414775
0.000428812
0.000439698
0.000449447
0.000458522
0.000467237
0.000475741
0.000483875
0.000490992
0.000495939
0.00049696
0.000484377
0.000461024
0.000431482
0.000396496
0.000357535
0.000316526
0.000275456
0.000234563
0.000192841
0.000155443
0.000125199
0.000103234
8.78745e-05
7.6841e-05
6.67461e-05
5.81467e-05
4.77279e-05
4.01126e-05
3.00057e-05
2.57564e-05
3.21951e-05
5.72205e-05
2.77732e-05
1.12111e-05
1.75554e-05
2.78313e-05
4.22686e-05
5.06355e-05
6.30048e-05
7.91486e-05
0.000101389
0.000132126
0.000169713
0.000215354
0.000267548
0.00032599
0.000381039
0.000396582
0.000314453
0.000212097
0.000148644
0.000154909
0.000205704
0.000254339
0.00036484
0.000468525
0.000537339
0.000583504
0.000616149
0.000639835
0.000656664
0.000668559
0.000677701
0.000684908
0.000690789
0.000695711
0.000699601
0.000701699
0.000700576
0.00069407
0.000674714
0.0006459
0.000609459
0.000566067
0.000517263
0.000465148
0.000411923
0.000358247
0.000302764
0.000249639
0.000202586
0.000164852
0.000136786
0.00011692
0.000100791
8.83445e-05
7.47038e-05
6.5303e-05
5.21546e-05
4.85388e-05
3.39566e-05
5.94482e-05
3.41865e-05
1.2097e-05
2.27293e-05
3.64214e-05
5.2421e-05
6.36663e-05
7.90749e-05
0.000100392
0.000129701
0.000168922
0.000215323
0.000269521
0.000330129
0.000396747
0.000457602
0.000473528
0.000377098
0.000259506
0.000185156
0.000189725
0.000255537
0.000340688
0.000498372
0.000631682
0.000718632
0.0007763
0.00081565
0.000842454
0.000859882
0.000870549
0.000876774
0.000879734
0.000880344
0.000879227
0.000876473
0.000871342
0.000862319
0.000847182
0.000821698
0.000788198
0.000746798
0.000698068
0.000643476
0.000585048
0.000524894
0.000463852
0.00040065
0.000338277
0.00028022
0.000230433
0.000190869
0.000161615
0.000138528
0.000121381
0.000104425
9.33041e-05
7.86621e-05
7.63595e-05
3.49042e-05
5.90458e-05
4.15444e-05
1.24579e-05
2.55845e-05
4.30291e-05
6.07326e-05
7.49081e-05
9.34061e-05
0.000119499
0.000155124
0.000201466
0.000254758
0.000314961
0.000380815
0.000451851
0.000515033
0.000529253
0.000423043
0.000294932
0.000214658
0.000221966
0.000303737
0.000427961
0.000625491
0.000781992
0.00088343
0.000950043
0.000994087
0.00102236
0.00103892
0.00104689
0.00104876
0.00104604
0.00103994
0.00103135
0.00102056
0.00100695
0.00098905
0.000964929
0.000933591
0.000895583
0.000850199
0.000797918
0.00074006
0.000678437
0.000614907
0.000550264
0.000483297
0.000416053
0.000351502
0.000293572
0.000245088
0.000207503
0.00017765
0.000155552
0.000135226
0.000122158
0.000106764
0.000105201
3.5415e-05
5.72034e-05
4.70673e-05
1.48661e-05
2.51909e-05
4.77392e-05
6.74938e-05
8.47735e-05
0.000106362
0.00013682
0.000178034
0.000230352
0.000289005
0.000353263
0.000421968
0.00049465
0.000557595
0.000568889
0.000456383
0.000320408
0.000238055
0.000252572
0.00035092
0.000513888
0.000744272
0.000919268
0.00103252
0.00110622
0.00115357
0.00118223
0.00119696
0.00120129
0.0011979
0.00118861
0.00117488
0.00115787
0.00113813
0.00111519
0.00108772
0.00105451
0.00101731
0.000974776
0.000925972
0.000871305
0.000811896
0.000749245
0.000684847
0.000619279
0.000551264
0.000482127
0.000414277
0.000351321
0.000296466
0.000252137
0.00021629
0.000189413
0.00016579
0.000150548
0.000134623
0.000132988
3.56744e-05
5.46511e-05
5.0759e-05
2.17551e-05
2.25132e-05
5.05435e-05
7.28265e-05
9.34821e-05
0.000118164
0.000152608
0.000198757
0.000256103
0.000318909
0.000385722
0.000455456
0.000527705
0.000588509
0.000596195
0.000480221
0.000337688
0.000256368
0.000281906
0.000397231
0.000597028
0.000854303
0.00104438
0.0011675
0.00124698
0.00129672
0.00132506
0.00133735
0.00133743
0.00132822
0.00131176
0.00128978
0.00126369
0.00123429
0.00120135
0.00116373
0.00112141
0.00107817
0.001031
0.000979116
0.000922886
0.00086318
0.000801108
0.0007377
0.000673188
0.000606091
0.000537165
0.000468286
0.000402642
0.00034354
0.000294043
0.00025316
0.000221908
0.000195163
0.00017761
0.000161134
0.000158752
3.57843e-05
5.18378e-05
5.28828e-05
3.00748e-05
2.03475e-05
5.12982e-05
7.67217e-05
0.000101113
0.000128935
0.000167045
0.000217557
0.000279154
0.000345157
0.000413373
0.00048275
0.000553009
0.000610302
0.000614011
0.000496979
0.000348202
0.000270608
0.000310135
0.000442628
0.000676519
0.000955797
0.00115846
0.00129005
0.00137442
0.00142595
0.00145355
0.00146302
0.00145848
0.00144307
0.00141905
0.00138836
0.00135266
0.00131304
0.0012695
0.00122117
0.00116984
0.0011202
0.00106823
0.00101348
0.000956291
0.000897249
0.000837004
0.000776037
0.000714111
0.000649427
0.000582267
0.000514018
0.000447429
0.000385759
0.000332473
0.000287498
0.00025237
0.000222735
0.00020284
0.000185711
0.000182118
3.58065e-05
4.90337e-05
5.37109e-05
3.80583e-05
2.05167e-05
4.97889e-05
7.90836e-05
0.000107638
0.000138725
0.000180258
0.000234645
0.000299854
0.000368307
0.000437046
0.000505027
0.000572163
0.000625042
0.000624579
0.00050865
0.000353349
0.000281767
0.000337329
0.000486994
0.000751885
0.00104922
0.00126264
0.00140168
0.00149034
0.00154331
0.00156993
0.00157636
0.00156699
0.00154514
0.00151328
0.00147353
0.00142779
0.00137744
0.00132277
0.00126319
0.00120303
0.00114654
0.00108957
0.00103207
0.000974347
0.000916718
0.000859302
0.000801947
0.000743843
0.000682763
0.000618574
0.000552209
0.000485996
0.000423071
0.000367147
0.000318931
0.000280446
0.000248182
0.000226005
0.000208109
0.000203033
3.57788e-05
4.63931e-05
5.3516e-05
4.47002e-05
2.39297e-05
4.60694e-05
7.9781e-05
0.000112944
0.00014752
0.00019233
0.000250186
0.000318488
0.000388809
0.000457416
0.000523251
0.000586494
0.000634484
0.000629948
0.000516752
0.000354618
0.000290803
0.000363472
0.000530202
0.000822893
0.00113513
0.00135794
0.00150372
0.00159627
0.00165048
0.001676
0.00167928
0.00166496
0.00163653
0.00159662
0.00154753
0.00149139
0.00142986
0.00136357
0.00129234
0.00122348
0.00115967
0.00109748
0.00103723
0.000979289
0.000923652
0.000869873
0.0008171
0.000763848
0.000707365
0.000647123
0.000583631
0.000518821
0.000455677
0.000398063
0.000347348
0.000306006
0.000271387
0.000247068
0.0002283
0.000221618
3.57238e-05
4.39952e-05
5.25569e-05
4.97846e-05
3.02216e-05
4.12755e-05
7.87231e-05
0.000116854
0.000155245
0.000203306
0.000264311
0.000335285
0.00040703
0.000475033
0.00053822
0.000597131
0.000640155
0.000632048
0.000522468
0.000353655
0.000298595
0.00038844
0.000572129
0.000889476
0.0012141
0.00144528
0.00159726
0.00169346
0.00174881
0.0017732
0.0017733
0.00175396
0.00171886
0.00167075
0.00161209
0.00154523
0.00147215
0.0013938
0.00131075
0.00123314
0.00116161
0.00109395
0.00103092
0.00097294
0.000919718
0.000870221
0.000822836
0.000775311
0.000724276
0.00066881
0.000609004
0.000546423
0.000483892
0.000425373
0.000372802
0.000329071
0.000292371
0.000266038
0.000246378
0.000238074
3.56552e-05
4.18718e-05
5.10641e-05
5.3321e-05
3.71863e-05
3.71059e-05
7.59561e-05
0.000119147
0.000161764
0.000213192
0.000277112
0.000350429
0.000423267
0.000490353
0.000550613
0.000605055
0.000643397
0.000632533
0.000526874
0.000352293
0.000305797
0.000412034
0.00061267
0.000951669
0.00128666
0.00152542
0.00168322
0.00178292
0.00183938
0.00186265
0.00185958
0.00183521
0.00179337
0.00173696
0.00166855
0.00159072
0.00150575
0.00141495
0.00132018
0.00123363
0.00115406
0.0010807
0.00101478
0.000956836
0.00090631
0.000861582
0.000820244
0.000779193
0.000734356
0.000684389
0.000628964
0.000569301
0.000508069
0.000449302
0.000395433
0.000349745
0.000311236
0.000283047
0.000262504
0.000252632
3.55813e-05
4.00253e-05
4.92327e-05
5.54423e-05
4.36943e-05
3.49844e-05
7.17598e-05
0.000119607
0.000166873
0.000221948
0.000288655
0.000364065
0.000437766
0.000503754
0.000561009
0.00061112
0.00064538
0.000632807
0.000530889
0.000352478
0.000313404
0.000434414
0.000651745
0.00100957
0.00135332
0.00159903
0.00176236
0.00186545
0.00192303
0.00194523
0.00193903
0.00190964
0.00186104
0.00179625
0.00171795
0.00162894
0.00153181
0.00142823
0.00132215
0.00122636
0.00113848
0.00105919
0.000990255
0.00093233
0.000884642
0.000845016
0.000810236
0.000776284
0.000738307
0.000694489
0.000644059
0.000587906
0.000528557
0.000470103
0.000415426
0.000368181
0.000328126
0.000298264
0.000276866
0.000265521
3.55072e-05
3.84412e-05
4.72204e-05
5.63395e-05
4.93253e-05
3.73187e-05
6.6831e-05
0.000118097
0.000170315
0.000229486
0.00029897
0.000376303
0.000450724
0.000515552
0.000569883
0.00061605
0.000647076
0.000633999
0.000536003
0.000354854
0.000322084
0.000455775
0.000689296
0.00106334
0.00141451
0.00166667
0.00183528
0.0019417
0.00200043
0.00202163
0.00201234
0.00197797
0.00192261
0.00184938
0.0017611
0.00166074
0.00155125
0.00143462
0.00131795
0.00121252
0.00111614
0.00103077
0.000958668
0.000900662
0.000855816
0.000821463
0.000793605
0.000767256
0.000736718
0.000699636
0.000654755
0.000602639
0.00054568
0.00048803
0.00043298
0.000384545
0.000343203
0.000311862
0.000289658
0.000276955
3.5436e-05
3.70962e-05
4.5149e-05
5.6225e-05
5.38873e-05
4.24851e-05
6.21529e-05
0.000114659
0.000171794
0.000235655
0.000308055
0.000387226
0.000462299
0.000526007
0.000577611
0.000620436
0.000649238
0.000636918
0.000543351
0.000360263
0.00033224
0.0004763
0.000725288
0.00111314
0.00147065
0.0017288
0.00190249
0.0020122
0.00207211
0.00209237
0.00208007
0.00204075
0.00197864
0.00189697
0.00179863
0.00168681
0.0015648
0.00143517
0.00130854
0.00119318
0.00108822
0.000996665
0.000921264
0.000863016
0.000820884
0.000791808
0.00077107
0.000752692
0.000730091
0.000700272
0.000661448
0.000613847
0.000559733
0.000503323
0.00044829
0.000399007
0.000356623
0.000324003
0.000301056
0.000287121
3.53692e-05
3.59632e-05
4.31089e-05
5.53112e-05
5.72961e-05
4.87407e-05
5.86397e-05
0.000109613
0.00017103
0.000240236
0.000315866
0.00039688
0.000472612
0.000535332
0.000584528
0.000624717
0.000652366
0.000642041
0.000553692
0.000370615
0.000343918
0.000496167
0.000759705
0.00115915
0.00152208
0.00178583
0.0019644
0.00207734
0.00213847
0.00215787
0.00214262
0.00209841
0.00202959
0.00193946
0.00183103
0.00170769
0.00157308
0.00143091
0.00129462
0.00116927
0.00105576
0.000958029
0.000879242
0.000820556
0.000780888
0.000756914
0.000743316
0.000733128
0.000718868
0.000696779
0.000664477
0.000621831
0.000570975
0.000516199
0.000461542
0.000411727
0.000368539
0.000334836
0.000311221
0.00029618
3.53078e-05
3.50148e-05
4.11634e-05
5.37986e-05
5.95478e-05
5.49284e-05
5.82774e-05
0.000103635
0.000167842
0.000242938
0.000322306
0.00040528
0.000481745
0.000543686
0.00059088
0.000629178
0.000656714
0.000649521
0.000567388
0.000387054
0.000357163
0.000515547
0.000792549
0.00120157
0.00156913
0.00183808
0.00202134
0.00213745
0.00219984
0.00221845
0.00220032
0.00215129
0.00207579
0.00197722
0.00185869
0.00172382
0.00157658
0.00142274
0.00127687
0.00114161
0.00101974
0.000915953
0.000833775
0.000774446
0.000736886
0.000717664
0.000711026
0.000709078
0.000703456
0.000689494
0.000664135
0.00062685
0.000579635
0.000526854
0.000472903
0.000422851
0.000379084
0.00034449
0.000320291
0.000304266
3.52521e-05
3.42251e-05
3.93534e-05
5.18678e-05
6.07008e-05
6.04196e-05
6.09986e-05
9.76544e-05
0.00016227
0.000243413
0.000327218
0.000412402
0.000489745
0.000551181
0.000596826
0.000633953
0.000662307
0.000659244
0.00058442
0.000409781
0.000372065
0.000534609
0.000823843
0.00124059
0.00161205
0.00188584
0.00207358
0.0021928
0.00225647
0.00227435
0.00225341
0.00219962
0.0021175
0.00201053
0.00188193
0.00173554
0.00157569
0.0014115
0.00125587
0.00111095
0.000981035
0.000871469
0.000786004
0.000725866
0.000689979
0.000674978
0.000674909
0.000681053
0.000684247
0.000678725
0.00066068
0.00062913
0.000585913
0.000535463
0.000482523
0.000432509
0.00038838
0.000353078
0.000328382
0.000311492
3.5202e-05
3.35702e-05
3.77027e-05
4.96754e-05
6.08596e-05
6.48871e-05
6.55957e-05
9.26604e-05
0.0001547
0.0002413
0.00033037
0.000418172
0.000496613
0.000557875
0.000602443
0.000639042
0.000668991
0.000670898
0.000604464
0.000438232
0.000388796
0.000553518
0.000853626
0.00127641
0.00165109
0.00192931
0.00212134
0.00224358
0.00230853
0.00232575
0.00230208
0.00224359
0.00215491
0.00203961
0.00190098
0.00174315
0.00157114
0.00139751
0.00123215
0.00107796
0.000940453
0.000825537
0.000737032
0.000675993
0.000641306
0.000629832
0.000635715
0.000649619
0.000661633
0.000664763
0.000654347
0.000628874
0.000589983
0.000542177
0.000490534
0.000440817
0.000396528
0.000360694
0.000335592
0.000317949
3.51572e-05
3.30291e-05
3.62215e-05
4.73523e-05
6.01593e-05
6.81768e-05
7.07696e-05
9.05271e-05
0.000145938
0.000236317
0.000331451
0.000422458
0.000502309
0.000563776
0.00060774
0.000644348
0.000676485
0.000684041
0.000626987
0.000471406
0.00040762
0.000572439
0.000881958
0.0013092
0.00168645
0.00196871
0.00216478
0.00228996
0.00235619
0.0023728
0.00234646
0.00228336
0.0021882
0.00206462
0.00191604
0.00174686
0.00156366
0.00138104
0.00120616
0.0010432
0.000898711
0.00077903
0.000687892
0.000625982
0.000592035
0.000583266
0.000594254
0.000615381
0.000636022
0.000647899
0.000645358
0.000626261
0.000592002
0.000547132
0.000497054
0.000447876
0.00040362
0.000367418
0.000341999
0.000323709
3.51176e-05
3.25836e-05
3.49104e-05
4.50036e-05
5.87523e-05
7.02453e-05
7.57311e-05
9.14749e-05
0.000137112
0.000228401
0.00033008
0.000425059
0.000506738
0.00056884
0.000612663
0.000649698
0.000684436
0.000698171
0.000651349
0.000508168
0.0004289
0.000591544
0.000908923
0.00133916
0.00171832
0.00200417
0.00220405
0.00233205
0.00239956
0.00241559
0.00238665
0.00231903
0.00221745
0.00208569
0.00192727
0.00174686
0.00155389
0.00136234
0.0011783
0.00100719
0.00085643
0.000732716
0.000639515
0.00057692
0.00054333
0.000536364
0.0005514
0.000578964
0.000607846
0.000628427
0.000633924
0.000621459
0.00059211
0.000550448
0.000502184
0.000453772
0.000409732
0.000373318
0.000347672
0.000328834
3.50826e-05
3.22178e-05
3.37635e-05
4.27102e-05
5.67971e-05
7.11262e-05
7.99948e-05
9.44366e-05
0.00013036
0.000217882
0.000325853
0.000425686
0.000509745
0.00057297
0.000617117
0.000654887
0.00069246
0.000712765
0.000676879
0.000547433
0.000453074
0.00061102
0.000934637
0.00136647
0.00174683
0.00203583
0.00223924
0.00236996
0.00243871
0.0024542
0.00242274
0.00235067
0.00224278
0.00210292
0.00193477
0.00174373
0.00154195
0.00134161
0.0011489
0.000970328
0.000814133
0.000687236
0.000592691
0.000529771
0.000496298
0.000490233
0.000508085
0.000541054
0.000577572
0.000606656
0.000620259
0.000614628
0.000590435
0.000552231
0.000506015
0.000458583
0.000414931
0.000378451
0.000352664
0.000333371
3.50518e-05
3.19185e-05
3.27704e-05
4.05311e-05
5.44478e-05
7.09093e-05
8.32656e-05
9.82902e-05
0.000126902
0.000205854
0.00031837
0.00042407
0.000511104
0.000576011
0.000620962
0.000659691
0.000700174
0.000727307
0.000702924
0.00058825
0.000480616
0.000631082
0.000959257
0.00139131
0.00177211
0.00206378
0.00227044
0.00240373
0.0024737
0.0024887
0.00245477
0.00237834
0.00226423
0.00211638
0.00193864
0.00173804
0.00152792
0.00131908
0.00111825
0.00093298
0.00077224
0.000643098
0.000548042
0.000485322
0.000451918
0.000445949
0.000465278
0.000502393
0.000545709
0.000582918
0.000604583
0.000605923
0.000587097
0.000552579
0.00050863
0.000462376
0.000419272
0.000382864
0.00035702
0.000337361
3.50247e-05
3.16742e-05
3.1918e-05
3.85062e-05
5.18477e-05
6.97242e-05
8.53798e-05
0.000102195
0.00012643
0.000194043
0.000307598
0.000419842
0.000510693
0.000577747
0.000624027
0.000663889
0.000707219
0.00074131
0.000728873
0.000629817
0.000511953
0.000651993
0.000983004
0.00141384
0.00179425
0.00208808
0.00229771
0.00243343
0.00250458
0.0025191
0.00248278
0.00240208
0.00228185
0.00212613
0.00193917
0.00173008
0.00151187
0.0012949
0.00108657
0.000895421
0.000731076
0.000600672
0.000506008
0.000444141
0.000410972
0.000404487
0.000423953
0.000463769
0.00051281
0.000557571
0.000587124
0.000595499
0.000582211
0.000551583
0.000510101
0.00046521
0.000422806
0.000386597
0.000360778
0.000340835
3.50011e-05
3.14755e-05
3.11924e-05
3.66594e-05
4.91233e-05
6.77266e-05
8.62723e-05
0.000105568
0.000128032
0.000184123
0.00029397
0.000412644
0.000508244
0.000578023
0.000626098
0.000667272
0.000713271
0.000754321
0.000754157
0.000671443
0.000547351
0.000674083
0.00100618
0.00143423
0.00181332
0.0021088
0.00232108
0.00245909
0.00253136
0.00254544
0.00250678
0.00242191
0.00229566
0.00213219
0.00193687
0.00171989
0.00149388
0.00126922
0.00105407
0.000857872
0.000690879
0.000560205
0.000466849
0.000406566
0.00037399
0.000366646
0.000385031
0.000425994
0.000479465
0.000531
0.000568128
0.000583518
0.000575889
0.000549327
0.000510495
0.00046714
0.000425577
0.000389687
0.000363969
0.000343822
3.49804e-05
3.13145e-05
3.05792e-05
3.50019e-05
4.63816e-05
6.50865e-05
8.59571e-05
0.000108025
0.000130695
0.000177105
0.000278507
0.000402226
0.000503444
0.000576635
0.000626944
0.000669632
0.000718047
0.000765922
0.000778254
0.000712512
0.0005868
0.00069777
0.0010292
0.00145262
0.00182936
0.00212595
0.00234057
0.00248072
0.00255407
0.00256771
0.00252679
0.00243784
0.00230568
0.00213484
0.00193195
0.00170746
0.00147401
0.00124217
0.00102089
0.000820501
0.000651814
0.000521837
0.000430681
0.000372721
0.000341235
0.000332981
0.000349316
0.000389865
0.000446291
0.000503619
0.000547854
0.000570143
0.000568244
0.000545895
0.000509875
0.000468213
0.000427623
0.000392164
0.000366622
0.000346344
3.49623e-05
3.11845e-05
3.00646e-05
3.35349e-05
4.37085e-05
6.19767e-05
8.45115e-05
0.000109327
0.000133549
0.000173105
0.00026271
0.000388578
0.000495965
0.000573335
0.00062631
0.000670752
0.00072131
0.000775738
0.000800677
0.000752441
0.000629928
0.000723572
0.00105265
0.00146909
0.00184234
0.00213955
0.0023562
0.00249833
0.0025727
0.00258592
0.0025428
0.00244986
0.00231195
0.00213443
0.00192444
0.00169282
0.00145232
0.00121385
0.000987157
0.000783438
0.000613991
0.000485635
0.000397504
0.000342564
0.000312723
0.00030377
0.000317429
0.000356117
0.000413911
0.000475866
0.00052658
0.000555551
0.000559391
0.000541365
0.000508301
0.000468475
0.000428979
0.000394056
0.00036876
0.000348423
3.49465e-05
3.108e-05
2.96356e-05
3.22523e-05
4.11692e-05
5.85636e-05
8.20623e-05
0.000109349
0.000135937
0.000171541
0.000248196
0.000372075
0.000485521
0.000567847
0.000623972
0.000670401
0.000722862
0.000783433
0.000820978
0.000790668
0.000676006
0.000752113
0.00107689
0.00148355
0.00185254
0.00214957
0.00236795
0.00251192
0.00258725
0.00260006
0.0025548
0.00245798
0.00231479
0.00213101
0.00191434
0.001676
0.00142889
0.00118436
0.000952982
0.000746782
0.000577481
0.000451608
0.000367248
0.000315948
0.000288291
0.000279028
0.000289758
0.000325377
0.000382929
0.000448189
0.0005046
0.000539922
0.000549447
0.000535818
0.00050583
0.00046797
0.000429679
0.000395388
0.000370404
0.000350076
3.49327e-05
3.09963e-05
2.92803e-05
3.11432e-05
3.88096e-05
5.49995e-05
7.87727e-05
0.000108059
0.000137393
0.000171508
0.000236197
0.000353571
0.000471951
0.000559883
0.000619708
0.000668302
0.000722541
0.000788716
0.000838741
0.000826639
0.000724014
0.000784104
0.00110122
0.00149612
0.00186007
0.00215631
0.00237596
0.00252147
0.00259769
0.00261009
0.00256281
0.00246238
0.00231424
0.0021246
0.00190168
0.00165702
0.00140376
0.00115377
0.00091845
0.000710614
0.000542328
0.000419736
0.000339806
0.000292666
0.000267672
0.000258564
0.000266445
0.000298113
0.000353892
0.000421038
0.000482218
0.000523452
0.000538534
0.000529337
0.00050252
0.000466738
0.000429753
0.000396184
0.000371576
0.00035132
3.49207e-05
3.09298e-05
2.89879e-05
3.01936e-05
3.66584e-05
5.1417e-05
7.48281e-05
0.000105504
0.000137614
0.000172077
0.000227227
0.000334336
0.000455329
0.000549183
0.000613286
0.00066425
0.000720229
0.000791341
0.000853581
0.000859823
0.000772766
0.000819768
0.00112515
0.0015069
0.00186504
0.00215985
0.00238032
0.00252711
0.0026041
0.00261609
0.00256693
0.00246311
0.00231035
0.00211525
0.00188648
0.0016359
0.00137698
0.00112216
0.00088364
0.000675001
0.000508561
0.000389985
0.000315055
0.0002725
0.000250554
0.000242059
0.000247411
0.000274612
0.000327266
0.000394844
0.000459746
0.000506338
0.00052678
0.000522003
0.000498428
0.00046482
0.000429233
0.000396467
0.000372294
0.000352171
3.49101e-05
3.08772e-05
2.8749e-05
2.93879e-05
3.47296e-05
4.79258e-05
7.04231e-05
0.000101796
0.000136426
0.000172454
0.000221067
0.000315816
0.000436072
0.000535565
0.000604477
0.000658121
0.000715831
0.00079111
0.000865147
0.000889717
0.000821031
0.000858497
0.0011486
0.00151596
0.00186749
0.00216028
0.00238111
0.0025289
0.00260653
0.00261811
0.00256719
0.00246022
0.00230317
0.00210298
0.00186875
0.00161269
0.00134862
0.00108959
0.000848626
0.000640004
0.0004762
0.00036231
0.000292874
0.000255236
0.000236632
0.000229148
0.000232414
0.000254972
0.000303404
0.000370002
0.000437494
0.00048879
0.000514316
0.000513902
0.000493612
0.000462257
0.000428147
0.00039626
0.000372577
0.000352645
3.49009e-05
3.08359e-05
2.85551e-05
2.871e-05
3.30256e-05
4.46112e-05
6.57486e-05
9.70977e-05
0.000133767
0.000172034
0.000217
0.000299255
0.00041499
0.000519011
0.000593087
0.00064979
0.000709233
0.000787871
0.000873121
0.000915863
0.000867646
0.000899374
0.00117142
0.00152331
0.00186748
0.00215764
0.00237839
0.00252691
0.00260504
0.00261621
0.00256365
0.00245377
0.00229273
0.00208781
0.00184852
0.00158741
0.00131872
0.00105613
0.000813478
0.00060568
0.000445262
0.00033667
0.000273143
0.000240678
0.000225626
0.000219469
0.000221117
0.000239129
0.000282539
0.000346856
0.000415762
0.000471017
0.000501278
0.000505123
0.000488131
0.000459091
0.000426526
0.000395584
0.000372444
0.000352757
3.48929e-05
3.08038e-05
2.8399e-05
2.81444e-05
3.15401e-05
4.15343e-05
6.09822e-05
9.16118e-05
0.000129668
0.000170394
0.000214098
0.000285381
0.000393218
0.000499745
0.000578988
0.000639141
0.000700395
0.000781641
0.000877226
0.000937848
0.000911562
0.000941205
0.0011934
0.00152894
0.00186501
0.00215199
0.00237221
0.00252119
0.0025997
0.00261044
0.00255637
0.0024438
0.00227906
0.00206978
0.00182582
0.0015601
0.00128734
0.00102185
0.000778272
0.000572086
0.000415763
0.000313024
0.000255755
0.000228645
0.000217287
0.000212694
0.000213155
0.000226899
0.00026478
0.00032568
0.000394829
0.000453229
0.000487807
0.000495758
0.000482046
0.000455363
0.0004244
0.000394463
0.000371912
0.000352522
3.48858e-05
3.07792e-05
2.82744e-05
2.7676e-05
3.02603e-05
3.87344e-05
5.62789e-05
8.55634e-05
0.00012424
0.000167278
0.000211457
0.000274278
0.000372015
0.000478299
0.000562183
0.000626087
0.000689313
0.000772552
0.000877224
0.000955313
0.000951867
0.000982584
0.00121424
0.00153277
0.00186008
0.00214334
0.00236262
0.00251178
0.00259054
0.00260085
0.0025454
0.00243034
0.0022622
0.0020489
0.00180066
0.00153081
0.00125453
0.000986815
0.000743082
0.000539277
0.000387716
0.00029133
0.000240606
0.000218977
0.000211401
0.000208538
0.000208175
0.00021802
0.00025013
0.000306678
0.000374948
0.000435632
0.000474044
0.000485899
0.00047542
0.000451116
0.000421801
0.00039292
0.000371002
0.000351956
3.48797e-05
3.07605e-05
2.81759e-05
2.72912e-05
2.91696e-05
3.62313e-05
5.17663e-05
7.91848e-05
0.000117662
0.000162569
0.000208313
0.000265483
0.000352478
0.000455507
0.000542859
0.0006106
0.000675977
0.000760799
0.000872922
0.000967946
0.000987677
0.00102212
0.00123355
0.00153467
0.00185263
0.00213169
0.00234964
0.00249873
0.00257762
0.0025875
0.00253076
0.00241344
0.00224219
0.00202521
0.00177308
0.00149957
0.00122036
0.000951105
0.000707986
0.000507309
0.000361135
0.000271551
0.000227599
0.000211525
0.000207777
0.000206755
0.000205857
0.000212199
0.000238506
0.000289978
0.000356335
0.000418422
0.000460132
0.000475642
0.000468317
0.000446396
0.000418761
0.00039098
0.000369733
0.000351077
3.48743e-05
3.07466e-05
2.80989e-05
2.69776e-05
2.82494e-05
3.40286e-05
4.75418e-05
7.27006e-05
0.000110169
0.000156273
0.000204096
0.000258204
0.000335281
0.000432403
0.000521435
0.000592749
0.000660378
0.000746503
0.000864431
0.000975487
0.00101814
0.00105861
0.00125092
0.00153449
0.00184259
0.00211703
0.0023333
0.00248207
0.00256096
0.0025704
0.0025125
0.00239312
0.00221904
0.00199873
0.00174312
0.00146644
0.00118489
0.000914799
0.000673067
0.000476235
0.000336032
0.000253651
0.000216639
0.000206154
0.000206245
0.000207132
0.000205918
0.000209135
0.000229762
0.00027564
0.000339165
0.000401781
0.000446212
0.000465087
0.000460804
0.000441248
0.000415312
0.000388667
0.000368125
0.000349899
3.48695e-05
3.07365e-05
2.80396e-05
2.67242e-05
2.74801e-05
3.21179e-05
4.36728e-05
6.63139e-05
0.00010203
0.0001485
0.000198429
0.000251552
0.000320559
0.000410036
0.00049856
0.000572735
0.000642524
0.000729767
0.00085209
0.000977717
0.00104252
0.00109097
0.0012659
0.00153205
0.00182987
0.00209931
0.00231357
0.00246182
0.00254059
0.00254961
0.00249065
0.00236942
0.0021928
0.00196949
0.00171083
0.00143147
0.0011482
0.000877986
0.000638408
0.000446109
0.000312419
0.00023759
0.000207636
0.000202738
0.000206655
0.00020948
0.000208111
0.000208543
0.000223713
0.000263663
0.000323571
0.000385875
0.000432422
0.000454332
0.000452951
0.000435721
0.000411491
0.000386008
0.000366201
0.000348442
3.48654e-05
3.07295e-05
2.79946e-05
2.65214e-05
2.68427e-05
3.04817e-05
4.01985e-05
6.01964e-05
9.35305e-05
0.000139452
0.000191114
0.000244697
0.000307956
0.000389235
0.000475055
0.000550923
0.000622445
0.0007107
0.000836299
0.000974555
0.00106016
0.00111832
0.00127807
0.00152715
0.00181436
0.00207848
0.00229046
0.00243797
0.00251655
0.00252515
0.00246525
0.00234237
0.00216348
0.00193753
0.00167623
0.00139473
0.00111035
0.000840757
0.000604093
0.00041698
0.000290308
0.000223331
0.0002005
0.000201159
0.000208867
0.000213628
0.000212214
0.000210154
0.00022015
0.000253999
0.000309644
0.000370849
0.000418892
0.000443474
0.000444826
0.000429864
0.000407334
0.000383031
0.000363983
0.000346724
3.48617e-05
3.07249e-05
2.79611e-05
2.63606e-05
2.63192e-05
2.90968e-05
3.71337e-05
5.44818e-05
8.49541e-05
0.000129404
0.000182116
0.000236972
0.000296785
0.00037044
0.000451779
0.000527834
0.000600533
0.000689433
0.000817158
0.000966186
0.00107073
0.00114
0.00128702
0.00151962
0.00179593
0.00205446
0.00226394
0.00241055
0.00248883
0.00249704
0.00243632
0.00231201
0.00213113
0.0019029
0.00163939
0.00135628
0.00107145
0.000803213
0.00057021
0.000388898
0.000269709
0.000210833
0.000195145
0.00020131
0.000212751
0.000219415
0.000218022
0.000213719
0.000218855
0.000246562
0.000297435
0.000356824
0.000405747
0.000432613
0.000436501
0.000423728
0.000402878
0.000379765
0.000361495
0.000344764
3.48586e-05
3.07222e-05
2.7937e-05
2.62345e-05
2.5893e-05
2.79373e-05
3.44736e-05
4.9264e-05
7.65618e-05
0.000118678
0.00017154
0.000227906
0.000286224
0.00035364
0.000429465
0.000504098
0.000577125
0.000666128
0.000794813
0.00095267
0.00107431
0.00115551
0.0012924
0.00150929
0.00177448
0.00202719
0.00223397
0.00237953
0.00245747
0.00246531
0.00240389
0.00227835
0.00209578
0.00186562
0.00160037
0.00131621
0.00103159
0.000765456
0.000536844
0.000361907
0.000250632
0.000200051
0.000191485
0.000203086
0.000218183
0.000226688
0.000225345
0.000219004
0.000219607
0.000241238
0.000286961
0.000343898
0.000393101
0.000421843
0.000428048
0.000417365
0.000398163
0.000376241
0.000358761
0.000342581
3.48558e-05
3.07209e-05
2.79204e-05
2.61371e-05
2.5549e-05
2.69759e-05
3.21983e-05
4.45977e-05
6.85759e-05
0.000107628
0.00015961
0.000217232
0.000275476
0.000338433
0.000408566
0.000480359
0.000552628
0.000640994
0.000769456
0.000934141
0.00107116
0.00116457
0.0012939
0.00149607
0.00174995
0.0019966
0.00220051
0.00234492
0.00242246
0.00242998
0.00236799
0.00224143
0.00205747
0.00182576
0.00155923
0.0012746
0.000990869
0.000727596
0.000504077
0.000336052
0.000233087
0.000190938
0.000189439
0.00020639