/*--------------------------------*- C++ -*----------------------------------*\
| =========                 |                                                 |
| \\      /  F ield         | OpenFOAM: The Open Source CFD Toolbox           |
|  \\    /   O peration     | Version:  2.4.0                                 |
|   \\  /    A nd           | Web:      www.OpenFOAM.org                      |
|    \\/     M anipulation  |                                                 |
\*---------------------------------------------------------------------------*/
FoamFile
{
    version     2.0;
    format      ascii;
    class       volVectorField;
    location    "5.17";
    object      U;
}
// * * * * * * * * * * * * * * * * * * * * * * * * * * * * * * * * * * * * * //

dimensions      [0 1 -1 0 0 0 0];

internalField   nonuniform List<vector> 
6000
(
(0.165118 -0.00671288 1.29665e-18)
(-0.0097455 0.00185836 0)
(0.000829091 -0.00023432 7.23416e-18)
(-0.00663343 0.00128752 0)
(-0.00500564 0.000987383 0)
(-0.00607652 0.00113996 0)
(-0.00534402 0.000984119 4.01385e-18)
(-0.00550841 0.000962065 3.33603e-22)
(-0.00512573 0.000866532 0)
(-0.00512774 0.000821984 0)
(-0.00495481 0.000760061 3.9149e-18)
(-0.00498417 0.000723202 -7.7553e-18)
(-0.00498887 0.000687389 0)
(-0.00512672 0.000665528 0)
(-0.00530289 0.000648921 -1.88146e-18)
(-0.00557994 0.000639383 0)
(-0.00591689 0.000633137 0)
(-0.0063375 0.00062905 -1.83341e-18)
(-0.00682407 0.000624876 -1.82046e-18)
(-0.00738465 0.000618845 0)
(-0.00801015 0.000609072 1.80012e-18)
(-0.0086994 0.000593557 8.96487e-19)
(-0.00944263 0.000570394 -8.93993e-19)
(-0.0102309 0.000537653 0)
(-0.0110499 0.000493741 0)
(-0.0118851 0.000437381 0)
(-0.0127194 0.000367749 4.48059e-19)
(-0.0135335 0.000284434 -4.49997e-19)
(-0.0143047 0.000187608 0)
(-0.0150075 7.80862e-05 0)
(-0.0156131 -4.25497e-05 5.75468e-20)
(-0.0160901 -0.000171932 0)
(-0.0164046 -0.000307138 4.7141e-19)
(-0.0165206 -0.000442538 -4.78231e-19)
(-0.0164003 -0.00056674 0)
(-0.0160042 -0.000679273 0)
(-0.0152948 -0.000770556 1.00784e-18)
(-0.0142324 -0.000830918 0)
(-0.012783 -0.000849467 1.05021e-18)
(-0.0109076 -0.00081488 0)
(-0.00858558 -0.000714565 0)
(-0.00578743 -0.000536925 2.24383e-18)
(-0.00253597 -0.000269712 -4.58536e-18)
(0.00111331 9.21809e-05 0)
(0.00475203 0.000514747 0)
(0.00859469 0.00100808 2.43216e-18)
(0.0124816 0.00157639 0)
(0.0167208 0.00223707 0)
(0.0208241 0.00297291 -5.04007e-18)
(0.0255509 0.00382775 -5.0656e-18)
(0.0296133 0.00472069 -5.04154e-18)
(0.0350823 0.00580951 -1.85143e-21)
(0.0385613 0.0068094 4.8729e-18)
(0.0456228 0.00825352 0)
(0.0473254 0.00920275 -3.06789e-21)
(0.0582904 0.0113862 -4.30885e-18)
(0.0554768 0.0117987 3.45238e-18)
(0.0760448 0.0158598 3.54166e-18)
(0.0634483 0.0147633 4.21465e-21)
(0.104434 0.0229848 0)
(0.360298 -0.0164519 -1.80222e-18)
(0.00301822 0.00650569 4.28851e-18)
(0.00549298 -0.000893939 -4.33852e-18)
(-0.0149545 0.00337563 -4.60245e-18)
(-0.0124291 0.0025791 0)
(-0.0157702 0.00305972 0)
(-0.0142813 0.00266509 -4.58237e-18)
(-0.0148781 0.00262528 9.07674e-18)
(-0.0140297 0.00238257 0)
(-0.014095 0.00226994 0)
(-0.0137097 0.00211452 -4.34337e-18)
(-0.0138166 0.00202258 4.27915e-18)
(-0.0138691 0.00193639 2.1076e-18)
(-0.0142569 0.00188652 0)
(-0.0147535 0.00185158 2.04967e-18)
(-0.0155096 0.00183507 0)
(-0.0164261 0.00182715 0)
(-0.017557 0.00182429 0)
(-0.0188575 0.00182036 0)
(-0.020343 0.00181032 0)
(-0.0219877 0.00178878 -1.16997e-23)
(-0.0237833 0.00174995 0)
(-0.0257009 0.00168838 -9.54551e-19)
(-0.0277122 0.00159863 0)
(-0.0297767 0.00147631 0)
(-0.0318533 0.00131815 4.75199e-19)
(-0.0338948 0.00112208 -4.76043e-19)
(-0.0358491 0.000887153 -2.97243e-24)
(-0.037657 0.000614011 2.40118e-19)
(-0.039253 0.000305074 0)
(-0.0405646 -3.51388e-05 -6.09979e-20)
(-0.0415138 -0.000399834 -2.46643e-19)
(-0.0420174 -0.000780169 9.67462e-24)
(-0.0419868 -0.00116187 5.06812e-19)
(-0.041332 -0.00152287 -5.15065e-19)
(-0.039959 -0.00185247 0)
(-0.0377753 -0.00212687 0)
(-0.0346849 -0.00232084 0)
(-0.0306023 -0.00240551 0)
(-0.0254312 -0.00235063 0)
(-0.0191167 -0.00212152 -2.33034e-18)
(-0.0115906 -0.00168485 0)
(-0.00293883 -0.00100023 2.4292e-18)
(0.00658081 -3.8687e-05 2.48032e-18)
(0.0160097 0.00110628 0)
(0.0259407 0.00242942 0)
(0.0359956 0.00394783 0)
(0.0468335 0.0056998 0)
(0.057388 0.00765095 5.48684e-18)
(0.0693001 0.00989481 0)
(0.0798091 0.0122583 0)
(0.093352 0.0150844 -5.54993e-18)
(0.102709 0.0177489 -5.43719e-18)
(0.119737 0.0214365 0)
(0.125507 0.0240611 -1.00269e-17)
(0.151045 0.0294877 0)
(0.147579 0.0310474 -7.99088e-18)
(0.194101 0.0407553 -4.11721e-18)
(0.170423 0.0391161 1.69051e-18)
(0.262982 0.0577131 2.94118e-18)
(0.500824 -0.0113662 -1.73808e-19)
(0.0412816 0.00906068 -4.25172e-18)
(0.0141255 -0.00129332 0)
(-0.0188691 0.0048339 4.6098e-18)
(-0.0175033 0.00374047 0)
(-0.0234472 0.00457172 0)
(-0.0218125 0.00403434 0)
(-0.023001 0.00400851 -4.54391e-18)
(-0.0219413 0.003673 0)
(-0.0221487 0.00351674 -4.41483e-18)
(-0.0216665 0.00330404 0)
(-0.0218847 0.00317872 0)
(-0.0220274 0.00306825 -2.10881e-18)
(-0.022664 0.00300969 0)
(-0.0234752 0.00297585 0)
(-0.024677 0.00296833 0)
(-0.0261278 0.00297371 0)
(-0.0279012 0.00298504 0)
(-0.0299312 0.00299331 0)
(-0.0322341 0.00298995 1.94163e-18)
(-0.0347685 0.0029663 -1.92727e-18)
(-0.0375153 0.00291267 0)
(-0.0404253 0.0028201 6.39418e-24)
(-0.0434491 0.00267972 -9.50103e-19)
(-0.0465199 0.00248468 0)
(-0.0495692 0.00223012 -9.4823e-19)
(-0.0525207 0.00191318 0)
(-0.0552911 0.00153272 4.76283e-19)
(-0.0577872 0.00109024 -2.39303e-19)
(-0.0599077 0.000590107 0)
(-0.0615428 4.007e-05 0)
(-0.0625758 -0.000548365 2.45437e-19)
(-0.0628842 -0.00116014 -4.64363e-24)
(-0.06234 -0.00177328 0)
(-0.0608154 -0.00236429 1.02238e-18)
(-0.0581801 -0.00290473 0)
(-0.0543082 -0.00336051 1.05787e-18)
(-0.0490738 -0.00369454 0)
(-0.0423702 -0.00386418 0)
(-0.0340865 -0.00382553 0)
(-0.0241838 -0.00352722 2.27827e-18)
(-0.0126309 -0.00291888 0)
(0.000344267 -0.00193326 0)
(0.0143364 -0.000516334 -2.38314e-18)
(0.0284622 0.00121765 0)
(0.0434937 0.00323043 0)
(0.0588728 0.00556208 2.59469e-18)
(0.0754199 0.00824765 -2.65302e-18)
(0.0917055 0.0112656 -2.69683e-18)
(0.109869 0.014696 0)
(0.12628 0.0183802 0)
(0.146761 0.0226576 0)
(0.161842 0.0268814 5.39471e-18)
(0.187122 0.032348 5.33861e-18)
(0.197723 0.0367236 4.99787e-18)
(0.234611 0.0444857 0)
(0.233355 0.0478484 3.9944e-18)
(0.29896 0.0611036 8.24665e-18)
(0.271387 0.0608218 0)
(0.402364 0.0849964 -2.9598e-18)
(0.605049 0.000253419 -1.44286e-19)
(0.0969976 0.0110039 4.12719e-18)
(0.0279048 -0.00122795 -4.32696e-18)
(-0.0183239 0.00584347 0)
(-0.0200978 0.00456407 0)
(-0.0290451 0.00577092 0)
(-0.0278675 0.00514224 0)
(-0.029834 0.00516618 0)
(-0.0288149 0.00477081 0)
(-0.0292545 0.00459701 4.41761e-18)
(-0.0287894 0.00434892 4.34821e-18)
(-0.0291567 0.00421011 0)
(-0.029429 0.00409299 0)
(-0.0303118 0.00404213 0)
(-0.0314256 0.00402409 2.04957e-18)
(-0.0330328 0.00403871 0)
(-0.0349623 0.00406885 1.99814e-18)
(-0.0372981 0.00410436 -1.97578e-18)
(-0.0399559 0.00413341 0)
(-0.0429483 0.00414403 -1.93811e-18)
(-0.0462173 0.00412426 0)
(-0.0497296 0.0040605 -9.55121e-19)
(-0.0534145 0.00394038 1.90022e-18)
(-0.0572 0.00375179 9.46445e-19)
(-0.0609933 0.00348588 0)
(-0.0646996 0.0031368 4.71663e-19)
(-0.0682153 0.00270142 0)
(-0.0714293 0.0021789 4.73061e-19)
(-0.07422 0.00157203 0)
(-0.0764578 0.00088738 0)
(-0.0780051 0.000136037 0)
(-0.0787191 -0.000666084 2.4273e-19)
(-0.0784524 -0.0014983 -9.81148e-19)
(-0.0770565 -0.00233264 0)
(-0.0743866 -0.00313881 -5.02845e-19)
(-0.0702996 -0.00387911 0)
(-0.0646642 -0.00451065 -1.03523e-18)
(-0.0573561 -0.00498727 0)
(-0.0482828 -0.00525636 0)
(-0.0373605 -0.00526415 0)
(-0.0246036 -0.00494718 2.18974e-18)
(-0.0100508 -0.0042405 0)
(0.00595579 -0.00305653 2.22014e-18)
(0.0230725 -0.00132971 -2.24904e-18)
(0.0408302 0.000822978 0)
(0.0599433 0.00335178 -2.40898e-18)
(0.079743 0.00632496 -4.96889e-18)
(0.101089 0.00977496 2.55459e-18)
(0.122356 0.0136945 5.21721e-18)
(0.145878 0.0181368 -5.31026e-18)
(0.167615 0.0229809 -5.34945e-18)
(0.193994 0.0284981 0)
(0.214538 0.0341402 -5.30303e-18)
(0.246543 0.0410655 -5.26532e-18)
(0.262435 0.0471355 -4.92637e-18)
(0.307857 0.0566264 0)
(0.31099 0.0619706 0)
(0.389666 0.077442 -4.09797e-18)
(0.363944 0.0793196 0)
(0.521228 0.105895 2.89451e-18)
(0.684216 0.0143668 -1.25457e-19)
(0.162883 0.0131469 -3.18916e-20)
(0.0478717 -0.000608413 4.30107e-18)
(-0.0132734 0.00653857 4.60322e-18)
(-0.0200934 0.00513262 0)
(-0.0325172 0.00670586 -4.6419e-18)
(-0.0323868 0.0060218 0)
(-0.0353478 0.0061214 0)
(-0.0346156 0.00569298 0)
(-0.0353903 0.00552278 4.41856e-18)
(-0.0350526 0.00525859 -4.34911e-18)
(-0.0356104 0.00512313 0)
(-0.0360475 0.00501449 0)
(-0.037172 0.00498494 0)
(-0.0385701 0.00499453 -2.04806e-18)
(-0.0405357 0.00504132 0)
(-0.0428775 0.00510429 -1.99508e-18)
(-0.0456822 0.00517027 1.97176e-18)
(-0.0488496 0.00522453 0)
(-0.0523829 0.00525191 0)
(-0.0562068 0.00523713 9.57534e-19)
(-0.0602706 0.00516289 9.50446e-19)
(-0.0644816 0.0050136 -1.88909e-18)
(-0.068745 0.00477446 -9.39899e-19)
(-0.0729439 0.00443526 0)
(-0.0769607 0.00398994 4.67271e-19)
(-0.0806698 0.00343582 0)
(-0.0839395 0.00277306 -4.67335e-19)
(-0.0866293 0.00200623 2.342e-19)
(-0.0885934 0.00114451 0)
(-0.0896814 0.000202383 0)
(-0.089741 -0.000800039 -4.75964e-19)
(-0.08862 -0.00183687 4.79737e-19)
(-0.0861715 -0.00287601 0)
(-0.0822544 -0.00387985 -4.88825e-19)
(-0.0767351 -0.00480534 0)
(-0.0694979 -0.00560319 9.99328e-19)
(-0.0604393 -0.006221 0)
(-0.0494945 -0.00659944 0)
(-0.0366134 -0.00667758 0)
(-0.0218514 -0.00638272 -2.07689e-18)
(-0.00528275 -0.00563622 -2.08375e-18)
(0.0127268 -0.00433757 -2.08505e-18)
(0.0320043 -0.00242299 1.23602e-21)
(0.052446 -6.51071e-06 -2.17975e-18)
(0.074625 0.0028687 2.2618e-18)
(0.0978468 0.00629731 4.67684e-18)
(0.122971 0.0103181 0)
(0.148327 0.0149402 -2.47695e-18)
(0.176263 0.0201973 5.06854e-18)
(0.202651 0.0260106 5.13028e-18)
(0.233997 0.0325656 0)
(0.259642 0.039457 0)
(0.297187 0.0475889 0)
(0.318541 0.0552345 4.81105e-18)
(0.370428 0.0660241 0)
(0.379282 0.0733764 0)
(0.466618 0.0901305 4.01467e-18)
(0.446495 0.0945261 -1.62258e-18)
(0.620543 0.121375 -2.86778e-18)
(0.745567 0.0291097 -1.12209e-19)
(0.233424 0.0160006 -3.95356e-18)
(0.0745774 0.000578418 0)
(-0.00364059 0.00707661 -4.59321e-18)
(-0.0173789 0.00552717 -4.61727e-18)
(-0.033814 0.00742419 5.1294e-22)
(-0.0353125 0.00670652 0)
(-0.0395145 0.00689814 0)
(-0.0393119 0.00645694 0)
(-0.0405369 0.00630687 -4.41919e-18)
(-0.0404343 0.00604249 0)
(-0.0412278 0.00592389 0)
(-0.041861 0.00583613 2.10736e-18)
(-0.0432205 0.00583848 0)
(-0.044878 0.00588452 0)
(-0.0471476 0.00597021 0)
(-0.0498247 0.00607053 0)
(-0.0529922 0.0061693 -1.9652e-18)
(-0.0565348 0.00624896 0)
(-0.0604424 0.00629129 1.92148e-18)
(-0.064622 0.00627788 -9.51364e-19)
(-0.0690039 0.00618814 -9.43006e-19)
(-0.0734755 0.00600378 1.87155e-18)
(-0.0779221 0.00570809 1.85932e-18)
(-0.0822086 0.00529042 0)
(-0.0862024 0.00474545 -4.60485e-19)
(-0.0897654 0.00407178 0)
(-0.0927571 0.0032712 0)
(-0.0950317 0.00235052 -4.58543e-19)
(-0.0964418 0.00132167 0)
(-0.0968398 0.000202355 0)
(-0.0960798 -0.000983741 4.62212e-19)
(-0.0940207 -0.00220695 0)
(-0.0905282 -0.00343144 0)
(-0.0854737 -0.00461537 4.70167e-19)
(-0.0787398 -0.00571193 0)
(-0.0702274 -0.00666763 -9.54646e-19)
(-0.0598508 -0.00742585 0)
(-0.0475629 -0.00792251 0)
(-0.0333302 -0.0080906 0)
(-0.0172214 -0.00784941 0)
(0.000688357 -0.00710698 1.95916e-18)
(0.0200678 -0.00575631 1.95512e-18)
(0.0409021 -0.00374451 1.27179e-21)
(0.0632954 -0.00118088 2.03784e-18)
(0.0876876 0.00190828 2.10849e-18)
(0.113407 0.0056343 -2.18247e-18)
(0.141298 0.0100463 0)
(0.169751 0.0151688 -2.31559e-18)
(0.201057 0.0210284 2.37608e-18)
(0.231213 0.0275872 -4.82701e-18)
(0.266537 0.0349589 0)
(0.296672 0.0428825 0)
(0.338749 0.0519919 -4.87871e-18)
(0.365397 0.0610304 -4.60833e-18)
(0.422323 0.0728144 4.58165e-18)
(0.437492 0.0820792 3.75093e-18)
(0.530618 0.0995167 -3.9209e-18)
(0.518119 0.106483 1.59178e-18)
(0.702102 0.1323 0)
(0.793858 0.0436836 -1.0124e-19)
(0.304749 0.0197899 0)
(0.107942 0.00233611 4.22848e-18)
(0.0106957 0.00761844 4.5769e-18)
(-0.0118522 0.00582589 -6.12343e-23)
(-0.0328767 0.00797327 4.64124e-18)
(-0.0365848 0.00722996 0)
(-0.0423029 0.00752074 0)
(-0.0428725 0.00708027 0)
(-0.0446755 0.0069625 2.20922e-18)
(-0.0449142 0.00670994 2.17367e-18)
(-0.0459924 0.00661849 0)
(-0.0468498 0.00656085 -2.10554e-18)
(-0.0484357 0.00660258 2.07285e-18)
(-0.0503213 0.0066907 0)
(-0.052834 0.00681863 0)
(-0.0557597 0.00695725 0)
(-0.0591741 0.00708735 5.484e-23)
(-0.0629473 0.00718868 0)
(-0.0670545 0.00724032 -3.81333e-18)
(-0.0713862 0.00722117 9.42392e-19)
(-0.0758571 0.00710803 9.32423e-19)
(-0.0803397 0.00688078 -2.92956e-23)
(-0.084707 0.0065218 -9.15371e-19)
(-0.0888156 0.00602098 0)
(-0.0925281 0.00537461 0)
(-0.0957058 0.00458317 0)
(-0.0982105 0.00365036 2.23527e-19)
(-0.0999022 0.0025852 4.45846e-19)
(-0.100642 0.00140201 0)
(-0.100293 0.000121021 0)
(-0.0987211 -0.00123151 -4.4555e-19)
(-0.0957998 -0.00262337 -2.2312e-19)
(-0.0914047 -0.00401645 0)
(-0.0854183 -0.00536644 0)
(-0.077734 -0.00662374 0)
(-0.0682627 -0.00773196 0)
(-0.0569269 -0.0086311 0)
(-0.0436864 -0.00925314 0)
(-0.0285113 -0.0095252 0)
(-0.0114684 -0.00935907 0)
(0.00738127 -0.00865059 0)
(0.0277625 -0.00729132 -1.01563e-21)
(0.0497712 -0.00524491 1.85949e-18)
(0.0735969 -0.00261572 0)
(0.0995777 0.000593658 -3.94331e-18)
(0.127082 0.00450159 -2.03294e-18)
(0.156925 0.0091674 0)
(0.187603 0.0146247 2.15662e-18)
(0.221315 0.0209023 -2.21379e-18)
(0.254296 0.0279918 4.50367e-18)
(0.292572 0.0359615 -4.57686e-18)
(0.326342 0.0446695 0)
(0.371927 0.0545261 9.12558e-21)
(0.403291 0.0647046 4.36187e-18)
(0.46413 0.0772384 -8.70818e-18)
(0.48554 0.0881964 -1.32079e-20)
(0.582653 0.105953 -3.74244e-18)
(0.57851 0.115316 1.51053e-18)
(0.767846 0.139408 2.67011e-18)
(0.832279 0.0576534 3.11555e-18)
(0.374277 0.024541 0)
(0.147325 0.00468248 2.61613e-21)
(0.029872 0.00828651 -2.75909e-22)
(-0.00341647 0.00613178 4.60415e-18)
(-0.0296346 0.00840141 4.63756e-18)
(-0.0361391 0.00762698 0)
(-0.0436762 0.00801459 4.5493e-18)
(-0.0452635 0.00758131 0)
(-0.047785 0.00750363 -2.20868e-18)
(-0.0484721 0.00727077 -9.44653e-23)
(-0.0498879 0.00721339 -2.13794e-18)
(-0.0509956 0.00719178 0)
(-0.0527978 0.00727718 -4.13755e-18)
(-0.0548759 0.00740976 0)
(-0.0575663 0.00758003 0)
(-0.0606497 0.00775468 0)
(-0.0641929 0.00791161 1.94242e-18)
(-0.0680542 0.00802822 0)
(-0.0721962 0.00808151 1.88688e-18)
(-0.0764982 0.00804842 -1.86132e-18)
(-0.0808648 0.00790407 0)
(-0.0851623 0.00762747 -3.12899e-23)
(-0.0892607 0.00720098 0)
(-0.0930174 0.00661577 0)
(-0.096299 0.00587012 -4.40246e-19)
(-0.0989734 0.00496644 0)
(-0.100911 0.00391013 -4.33931e-19)
(-0.101981 0.00271192 -2.15829e-19)
(-0.102055 0.00138784 -5.37401e-20)
(-0.101006 -4.01762e-05 5.36018e-20)
(-0.0987123 -0.00154427 2.14048e-19)
(-0.0950548 -0.00309069 4.27766e-19)
(-0.0899153 -0.00464004 0)
(-0.0831837 -0.00614614 4.28751e-19)
(-0.074759 -0.0075572 0)
(-0.0645566 -0.00881437 0)
(-0.0525023 -0.00985458 0)
(-0.0385573 -0.0106061 8.69845e-19)
(-0.0226901 -0.0109904 0)
(-0.00495989 -0.0109123 0)
(0.0145916 -0.0102575 1.7499e-18)
(0.0357481 -0.00891979 -1.74951e-18)
(0.0586734 -0.00688129 0)
(0.0835694 -0.00424132 0)
(0.110703 -0.000975642 1.85454e-18)
(0.139488 0.0030347 1.90627e-18)
(0.170699 0.00785816 -1.95778e-18)
(0.202946 0.0135307 0)
(0.238322 0.0200886 0)
(0.27333 0.0275381 0)
(0.313675 0.0359256 7.45587e-21)
(0.35019 0.0451896 0)
(0.39831 0.0555849 4.27769e-18)
(0.433536 0.0666202 0)
(0.49726 0.079692 4.08263e-18)
(0.524277 0.0920228 -3.37515e-18)
(0.624118 0.109877 7.08349e-18)
(0.628105 0.12128 -1.44172e-18)
(0.819792 0.143388 -2.55501e-18)
(0.863048 0.0707565 8.43644e-20)
(0.440369 0.0301533 -3.63591e-18)
(0.191689 0.00764021 -4.12336e-18)
(0.0539016 0.00919245 -1.83257e-22)
(0.00810282 0.00653558 -4.59182e-18)
(-0.0240052 0.00875887 -4.63259e-18)
(-0.0339056 0.00793383 0)
(-0.0435892 0.00840564 -4.54754e-18)
(-0.0464467 0.00797899 0)
(-0.0498402 0.00794464 -2.20749e-18)
(-0.051086 0.00773516 -2.17108e-18)
(-0.0528976 0.00771541 2.13553e-18)
(-0.0542819 0.00773238 -2.0989e-18)
(-0.0562909 0.00786265 2.06326e-18)
(-0.0585247 0.00803911 -2.02758e-18)
(-0.0613284 0.00824917 1.99281e-18)
(-0.0644823 0.0084553 0)
(-0.068046 0.00863297 0)
(-0.0718715 0.00875774 0)
(-0.0759135 0.00880535 9.31315e-19)
(-0.0800467 0.00875161 9.16643e-19)
(-0.0841732 0.00857081 0)
(-0.0881601 0.00824178 -8.89767e-19)
(-0.0918812 0.00774741 0)
(-0.0952003 0.00708032 0)
(-0.0979918 0.00624072 4.28496e-19)
(-0.100132 0.00523258 -4.24143e-19)
(-0.101501 0.0040625 2.10228e-19)
(-0.101975 0.00274234 0)
(-0.101435 0.00128924 1.03719e-19)
(-0.099763 -0.000273772 -1.03255e-19)
(-0.0968433 -0.00191789 0)
(-0.0925605 -0.00360854 -2.05256e-19)
(-0.0868011 -0.00530523 4.10076e-19)
(-0.0794593 -0.00696018 -4.10364e-19)
(-0.0704373 -0.00851963 0)
(-0.0596529 -0.00992248 0)
(-0.0470327 -0.0111027 0)
(-0.0325375 -0.0119852 -8.30066e-19)
(-0.0161326 -0.0124858 0)
(0.00213201 -0.0125036 0)
(0.0222357 -0.0119163 -1.67044e-18)
(0.0440152 -0.010622 0)
(0.0676714 -0.00862033 1.68198e-18)
(0.0933807 -0.00600532 -1.71446e-18)
(0.121363 -0.00272614 0)
(0.151076 0.00133304 1.79612e-18)
(0.18325 0.00624889 3.68118e-18)
(0.216603 0.0120546 -1.87862e-18)
(0.253119 0.0187968 0)
(0.289557 0.0264829 0)
(0.331308 0.0351557 1.98127e-18)
(0.369822 0.0447951 0)
(0.419679 0.0555644 3.95762e-18)
(0.457887 0.0671987 0)
(0.523602 0.0806354 3.7791e-18)
(0.555291 0.0939855 3.12664e-18)
(0.656873 0.111797 -3.31194e-18)
(0.668123 0.124778 0)
(0.860192 0.144921 2.37687e-18)
(0.887776 0.0828583 -3.36667e-18)
(0.502052 0.0364589 2.00244e-20)
(0.239794 0.0112204 4.06906e-18)
(0.0826794 0.0104464 -1.62765e-22)
(0.0228895 0.00710403 -6.62121e-22)
(-0.0158913 0.00909809 0)
(-0.0298083 0.00818821 0)
(-0.0419881 0.00872033 0)
(-0.0463787 0.00829285 -2.23878e-18)
(-0.0508118 0.00830029 4.41192e-18)
(-0.052732 0.00811369 0)
(-0.0550044 0.00813181 2.13218e-18)
(-0.0566942 0.00818668 6.45136e-23)
(-0.0589045 0.0083603 -2.05611e-18)
(-0.0612616 0.00857769 5.91992e-23)
(-0.0641224 0.00882329 -1.98004e-18)
(-0.0672726 0.00905545 0)
(-0.0707702 0.0092478 0)
(-0.0744663 0.00937465 0)
(-0.0783137 0.00941124 -9.17764e-19)
(-0.0821885 0.00933286 0)
(-0.0859952 0.00911355 8.85589e-19)
(-0.0896066 0.00873225 8.70922e-19)
(-0.0929033 0.00817251 -8.57329e-19)
(-0.095757 0.00742821 0)
(-0.0980503 0.00650117 0)
(-0.0996674 0.00539651 4.11903e-19)
(-0.100495 0.00412158 0)
(-0.100417 0.00268892 2.01957e-19)
(-0.0993206 0.0011164 -5.0124e-20)
(-0.0970929 -0.00057223 4.98231e-20)
(-0.0936226 -0.00234764 -1.98233e-19)
(-0.0887965 -0.00417468 0)
(-0.0825045 -0.00601177 -3.94453e-19)
(-0.0746439 -0.00780966 0)
(-0.0651192 -0.00951278 0)
(-0.0538496 -0.0110579 7.90911e-19)
(-0.0407619 -0.0123762 0)
(-0.0258159 -0.0133893 0)
(-0.00897356 -0.014008 0)
(0.00972486 -0.0141266 0)
(0.030279 -0.013617 0)
(0.0525707 -0.0123824 0)
(0.0768169 -0.0104375 -3.23194e-18)
(0.103152 -0.00787033 1.64233e-18)
(0.131764 -0.00460607 1.67323e-18)
(0.162153 -0.000534004 -3.4144e-18)
(0.195007 0.00443016 -1.74291e-18)
(0.229141 0.0103131 1.7737e-18)
(0.266433 0.0171738 -1.80257e-18)
(0.303872 0.0250105 0)
(0.346562 0.0338758 3.43223e-21)
(0.386508 0.0437582 -3.65878e-18)
(0.437514 0.0547817 -3.68469e-18)
(0.477957 0.0668087 -3.49168e-18)
(0.544963 0.0804812 -7.01161e-18)
(0.580363 0.0945274 -2.90803e-18)
(0.68292 0.112214 3.05158e-18)
(0.700272 0.126292 1.22057e-18)
(0.891445 0.144641 -2.21935e-18)
(0.907675 0.0939156 -7.31309e-20)
(0.558814 0.0432654 3.49648e-18)
(0.290342 0.0154102 2.24747e-21)
(0.115941 0.0121311 -2.02853e-22)
(0.0411239 0.00790561 4.55106e-18)
(-0.00518478 0.0094722 4.61213e-18)
(-0.023766 0.00842931 -4.5807e-18)
(-0.0388097 0.00898556 2.26998e-18)
(-0.04501 0.00854312 4.43809e-23)
(-0.0506648 0.00858588 -2.20392e-18)
(-0.0533838 0.00841757 -2.16605e-18)
(-0.0561911 0.00847055 -2.12816e-18)
(-0.0582221 0.00855978 4.17606e-18)
(-0.0606362 0.00877301 5.52374e-23)
(-0.0630941 0.00902678 2.00643e-18)
(-0.0659703 0.00930299 0)
(-0.0690631 0.00955594 1.9243e-18)
(-0.0724345 0.00975802 0)
(-0.0759404 0.0098827 -1.84489e-18)
(-0.0795367 0.00990523 -9.03554e-19)
(-0.0831041 0.00980068 -8.85497e-19)
(-0.086553 0.00954309 -3.09738e-23)
(-0.0897632 0.00911157 -8.52467e-19)
(-0.0926229 0.00849016 8.37676e-19)
(-0.0950117 0.00767381 0)
(-0.0968193 0.00666558 -4.05966e-19)
(-0.0979366 0.00547141 0)
(-0.0982555 0.00409909 0)
(-0.0976663 0.0025616 -1.95957e-19)
(-0.0960601 0.000877328 0)
(-0.0933285 -0.000929552 0)
(-0.089362 -0.0028294 1.91758e-19)
(-0.08405 -0.00478651 0)
(-0.0772853 -0.0067582 0)
(-0.0689679 -0.00869388 3.80574e-19)
(-0.059004 -0.0105362 0)
(-0.0473139 -0.0122201 -7.63248e-19)
(-0.0338249 -0.013674 0)
(-0.0184956 -0.0148164 7.68023e-19)
(-0.00128471 -0.0155537 0)
(0.0177773 -0.0157761 0)
(0.0387079 -0.0153517 0)
(0.0614258 -0.0141893 0)
(0.0861509 -0.0123146 1.56092e-18)
(0.112969 -0.0098098 0)
(0.14205 -0.00657932 -3.21336e-18)
(0.17293 -0.00251859 1.63376e-18)
(0.20626 0.00246386 -1.65949e-18)
(0.240941 0.00838576 1.68251e-18)
(0.278752 0.0153196 1.70825e-18)
(0.316887 0.0232472 0)
(0.360187 0.0322404 1.73459e-18)
(0.40115 0.0422713 5.14636e-18)
(0.452889 0.0534645 -3.43044e-18)
(0.494985 0.0657293 3.2586e-18)
(0.562774 0.0795471 3.25882e-18)
(0.601053 0.0940252 0)
(0.704026 0.111544 -2.83463e-18)
(0.726317 0.126289 -2.2526e-18)
(0.915804 0.143085 0)
(0.92368 0.103941 3.59396e-18)
(0.610456 0.0503818 0)
(0.342098 0.0201691 2.031e-21)
(0.153255 0.014303 -2.83229e-22)
(0.0629506 0.00900146 -4.52454e-18)
(0.00823632 0.00994011 -9.19486e-18)
(-0.015692 0.008698 9.14831e-18)
(-0.0339811 0.00922882 -2.26735e-18)
(-0.0422846 0.00875089 2.23469e-18)
(-0.0493588 0.00881736 0)
(-0.0530124 0.00865881 4.37944e-23)
(-0.0564406 0.00874064 0)
(-0.0588587 0.00885817 -4.16233e-18)
(-0.0614915 0.00910557 2.03814e-18)
(-0.0640419 0.0093903 0)
(-0.0669101 0.00969217 0)
(-0.0699137 0.00996142 -1.90528e-18)
(-0.0731242 0.0101696 0)
(-0.0764072 0.0102895 1.81974e-18)
(-0.079724 0.0102966 8.89602e-19)
(-0.0829627 0.0101658 2.79735e-23)
(-0.0860401 0.00987127 -8.52104e-19)
(-0.088844 0.00939214 -8.35088e-19)
(-0.09127 0.00871288 0)
(-0.0932049 0.0078292 0)
(-0.0945447 0.0067452 3.96174e-19)
(-0.0951857 0.00546736 0)
(-0.0950248 0.00400377 1.92758e-19)
(-0.0939564 0.00236767 -1.90659e-19)
(-0.0918755 0.000577851 4.72327e-20)
(-0.0886773 -0.0013413 -4.68429e-20)
(-0.0842532 -0.00335995 1.86139e-19)
(-0.0784955 -0.00544174 -1.85268e-19)
(-0.0712998 -0.00754296 3.69469e-19)
(-0.0625685 -0.00961173 -3.69113e-19)
(-0.0522094 -0.0115891 0)
(-0.0401442 -0.0134081 0)
(-0.0263004 -0.0149946 0)
(-0.0106358 -0.0162644 -2.24553e-22)
(0.00689365 -0.0171199 7.47098e-19)
(0.0262674 -0.0174482 0)
(0.0475172 -0.0171147 0)
(0.0705916 -0.0160335 0)
(0.095705 -0.014238 0)
(0.122897 -0.0118045 0)
(0.152322 -0.00862025 1.13175e-21)
(0.183555 -0.00458732 0)
(0.217209 0.000392714 3.18596e-18)
(0.252263 0.006327 -3.21984e-18)
(0.290406 0.0133024 -1.62572e-18)
(0.329012 0.0212787 0)
(0.37269 0.0303542 0)
(0.414364 0.0404662 -3.2331e-18)
(0.466543 0.0517697 7.88015e-21)
(0.509852 0.0641587 -3.0393e-18)
(0.578068 0.0780594 3.02761e-18)
(0.618561 0.0927657 2.48604e-18)
(0.721562 0.110101 -2.61005e-18)
(0.747782 0.125164 2.062e-18)
(0.93513 0.140661 1.87096e-18)
(0.936534 0.112981 6.54451e-20)
(0.656991 0.0576341 -3.35489e-18)
(0.39395 0.0254303 -7.79193e-18)
(0.194045 0.0169944 -3.9408e-22)
(0.0884363 0.0104454 4.49206e-18)
(0.0245106 0.0105595 4.57747e-18)
(-0.0054946 0.00903866 -2.2817e-18)
(-0.027419 0.0094781 0)
(-0.0381389 0.00893833 0)
(-0.0468468 0.00901156 2.19843e-18)
(-0.0515851 0.00885043 2.15912e-18)
(-0.0557347 0.00895229 0)
(-0.0585997 0.00908988 2.07385e-18)
(-0.061481 0.00936471 0)
(-0.0641318 0.00967441 0)
(-0.0669868 0.00999719 0)
(-0.0698889 0.010279 0)
(-0.0729245 0.0104906 1.84025e-18)
(-0.0759715 0.0106041 8.97786e-19)
(-0.078999 0.0105952 -8.76402e-19)
(-0.0819033 0.0104386 2.69847e-23)
(-0.0846087 0.0101087 0)
(-0.0870105 0.00958445 8.19366e-19)
(-0.089012 0.0088507 0)
(-0.0905064 0.00790372 0)
(-0.0913956 0.00674845 3.87469e-19)
(-0.0915805 0.0053918 -3.81601e-19)
(-0.0909623 0.00384196 -1.88272e-19)
(-0.0894392 0.0021124 1.86114e-19)
(-0.0869097 0.000222181 -9.21527e-20)
(-0.0832714 -0.00180424 9.13287e-20)
(-0.0784174 -0.00393687 -1.81398e-19)
(-0.0722426 -0.0061386 1.8049e-19)
(-0.0646456 -0.00836474 -6.82547e-23)
(-0.0555311 -0.0105622 -3.59286e-19)
(-0.0448086 -0.0126706 0)
(-0.0324012 -0.0146211 0)
(-0.0182368 -0.0163371 0)
(-0.00227283 -0.017732 -1.44965e-18)
(0.0155375 -0.0187046 -7.27301e-19)
(0.0351825 -0.0191396 0)
(0.0567052 -0.018901 0)
(0.0800782 -0.0179076 -1.46687e-18)
(0.105505 -0.0161973 0)
(0.132982 -0.0138401 0)
(0.162656 -0.0107102 3.00953e-18)
(0.194133 -0.00671623 -1.52034e-18)
(0.227995 -0.0017531 -3.07453e-18)
(0.263288 0.00417482 1.72749e-21)
(0.301623 0.0111691 3.12087e-18)
(0.340531 0.019164 1.55879e-18)
(0.384415 0.028289 0)
(0.426573 0.0384334 1.53597e-18)
(0.478979 0.0498045 3.05387e-18)
(0.523173 0.0622345 2.87038e-18)
(0.591564 0.0761752 -2.84923e-18)
(0.633756 0.0909562 -2.33107e-18)
(0.736527 0.108108 2.43938e-18)
(0.765853 0.123218 -9.53134e-19)
(0.950825 0.13766 -1.73881e-18)
(0.946832 0.121099 6.24665e-20)
(0.698576 0.0648723 3.31565e-18)
(0.444947 0.031107 -1.57141e-21)
(0.237622 0.0202137 -5.30637e-22)
(0.117543 0.0122822 0)
(0.0437559 0.0113893 0)
(0.00694783 0.00949403 1.72178e-22)
(-0.0190284 0.00976253 0)
(-0.0325011 0.00912875 0)
(-0.0430736 0.00918613 -7.16365e-24)
(-0.0490636 0.00900651 0)
(-0.0540515 0.00911688 0)
(-0.0574391 0.00926431 2.0665e-18)
(-0.0606151 0.00955866 0)
(-0.0633905 0.00988679 0)
(-0.0662434 0.0102257 0)
(-0.0690477 0.0105165 0)
(-0.0719089 0.0107295 -3.57308e-23)
(-0.0747198 0.0108352 -8.86704e-19)
(-0.0774592 0.0108099 1.72881e-18)
(-0.0800323 0.0106281 2.53535e-23)
(-0.0823711 0.010264 8.23607e-19)
(-0.0843792 0.00969683 0)
(-0.0859668 0.00891138 7.88566e-19)
(-0.0870337 0.00790444 0)
(-0.087487 0.00668165 -3.79927e-19)
(-0.0872323 0.00525017 3.02737e-23)
(-0.0861743 0.0036183 0)
(-0.0842151 0.00179961 0)
(-0.0812564 -0.000186633 5.41879e-24)
(-0.0771974 -0.00231604 -6.01552e-24)
(-0.0719335 -0.00455835 8.86522e-20)
(-0.0653628 -0.00687574 0)
(-0.0573864 -0.00922257 -3.51633e-19)
(-0.0479113 -0.0115446 3.51114e-19)
(-0.0368491 -0.01378 0)
(-0.0241243 -0.0158583 -7.03479e-19)
(-0.00966549 -0.0177005 0)
(0.00657012 -0.019218 1.8412e-22)
(0.0246318 -0.0203062 0)
(0.0445152 -0.0208481 7.12487e-19)
(0.0662721 -0.020707 7.14837e-19)
(0.0898938 -0.0198059 5.67963e-22)
(0.11557 -0.0181841 -1.44165e-18)
(0.143261 -0.0159059 0)
(0.173105 -0.0128353 -9.50653e-22)
(0.204739 -0.00888773 1.47939e-18)
(0.238717 -0.00395166 1.34981e-21)
(0.274145 0.00195647 1.49949e-18)
(0.312563 0.00895299 -1.87336e-21)
(0.351643 0.0169445 -2.1894e-21)
(0.395601 0.0260947 0)
(0.438069 0.0362357 0)
(0.490546 0.047643 0)
(0.535373 0.0600526 0)
(0.60376 0.074003 0)
(0.647257 0.0887436 2.17696e-18)
(0.749621 0.105719 0)
(0.781408 0.120673 0)
(0.963904 0.13428 -1.60268e-18)
(0.95506 0.128367 -1.92901e-18)
(0.735459 0.071973 0)
(0.49431 0.0370997 -1.37911e-21)
(0.28323 0.0239457 -6.87199e-22)
(0.15011 0.0145455 0)
(0.0660591 0.012487 2.26337e-18)
(0.0217725 0.0101059 -2.26693e-18)
(-0.00870329 0.0101123 0)
(-0.0252897 0.00934671 0)
(-0.0379741 0.00935963 -2.19226e-18)
(-0.0454014 0.00914214 0)
(-0.0513624 0.00924681 0)
(-0.0553655 0.00939194 -2.05969e-18)
(-0.0588989 0.00969664 0)
(-0.0618383 0.0100359 -1.95684e-18)
(-0.064714 0.010386 0)
(-0.0674361 0.0106822 0)
(-0.070134 0.0108941 -2.80437e-23)
(-0.0727174 0.0109907 0)
(-0.0751766 0.0109485 -8.53751e-19)
(-0.0774265 0.0107416 8.32054e-19)
(-0.0794076 0.0103444 -1.6236e-18)
(-0.0810317 0.00973584 7.93071e-19)
(-0.0822163 0.00890093 -7.75998e-19)
(-0.0828674 0.00783677 0)
(-0.0828976 0.00654953 -3.73356e-19)
(-0.0822165 0.0050466 7.34616e-19)
(-0.0807328 0.00333625 0)
(-0.0783518 0.00143217 -8.94068e-20)
(-0.0749784 -0.00064633 4.42177e-20)
(-0.0705134 -0.00287494 -4.37933e-20)
(-0.064855 -0.00522307 -8.69319e-20)
(-0.0579043 -0.00765216 0)
(-0.0495651 -0.0101157 -3.44602e-19)
(-0.0397469 -0.0125584 3.44067e-19)
(-0.0283632 -0.0149169 0)
(-0.0153402 -0.0171193 6.8967e-19)
(-0.000607813 -0.0190844 0)
(0.0158774 -0.0207215 6.93722e-19)
(0.0341662 -0.0219233 0)
(0.0542604 -0.0225716 -6.98596e-19)
(0.0762185 -0.0225295 -7.01205e-19)
(0.100046 -0.0217235 5.28692e-22)
(0.125916 -0.0201917 1.41447e-18)
(0.153763 -0.0179933 0)
(0.183713 -0.0149849 -1.43459e-18)
(0.215434 -0.0110886 0)
(0.249452 -0.00618667 1.4535e-18)
(0.28493 -0.000307979 0)
(0.323344 0.00667854 -1.46086e-18)
(0.36249 0.0146502 -2.90245e-18)
(0.406421 0.0238073 0)
(0.44906 0.0339179 0)
(0.50149 0.0453375 0)
(0.546754 0.0576804 1.29357e-18)
(0.615005 0.0716183 0)
(0.6595 0.086232 -9.96765e-21)
(0.761339 0.10304 0)
(0.795083 0.117689 8.02181e-19)
(0.975079 0.130651 1.50496e-18)
(0.961618 0.134863 0)
(0.767951 0.0788396 3.2271e-18)
(0.541427 0.0433033 3.74544e-18)
(0.330089 0.0281534 -8.5518e-22)
(0.185855 0.017256 0)
(0.0914633 0.0139041 -2.24804e-18)
(0.0391165 0.0109162 0)
(0.00367075 0.0105601 2.25018e-18)
(-0.0164147 0.00961821 2.22297e-18)
(-0.0314721 0.00955144 2.18925e-18)
(-0.0405412 0.00927338 2.14826e-18)
(-0.0476283 0.00935537 2.10355e-18)
(-0.0523577 0.00948404 0)
(-0.0563274 0.00978842 0)
(-0.0594843 0.0101305 1.94676e-18)
(-0.0624199 0.010486 0)
(-0.0650856 0.0107836 0)
(-0.0676389 0.0109917 -1.78622e-18)
(-0.0700095 0.0110776 0)
(-0.072201 0.0110176 -8.44454e-19)
(-0.074139 0.0107853 0)
(-0.0757733 0.0103555 8.01563e-19)
(-0.077024 0.00970674 -7.825e-19)
(-0.0778163 0.00882412 0)
(-0.0780626 0.00770494 0)
(-0.0776808 0.00635584 2.33509e-23)
(-0.0765848 0.00478428 -3.61642e-19)
(-0.0746868 0.00299852 0)
(-0.0718956 0.00101227 8.79827e-20)
(-0.068119 -0.00115517 4.34773e-20)
(-0.0632595 -0.00347959 -4.30507e-20)
(-0.0572186 -0.00592998 0)