/*--------------------------------*- C++ -*----------------------------------*\
| =========                 |                                                 |
| \\      /  F ield         | OpenFOAM: The Open Source CFD Toolbox           |
|  \\    /   O peration     | Version:  2.4.0                                 |
|   \\  /    A nd           | Web:      www.OpenFOAM.org                      |
|    \\/     M anipulation  |                                                 |
\*---------------------------------------------------------------------------*/
FoamFile
{
    version     2.0;
    format      ascii;
    class       volScalarField;
    location    "7.39";
    object      k;
}
// * * * * * * * * * * * * * * * * * * * * * * * * * * * * * * * * * * * * * //

dimensions      [0 2 -2 0 0 0 0];

internalField   nonuniform List<scalar> 
6000
(
0.168224
0.0132714
0.000978354
0.00362169
0.00250564
0.00292586
0.0024211
0.00239025
0.00212329
0.002047
0.00191086
0.00186895
0.00182608
0.00184013
0.00187301
0.00194609
0.00204406
0.00217499
0.002333
0.00252125
0.00273735
0.00298196
0.00325305
0.00354896
0.00386619
0.00420066
0.00454704
0.00489898
0.00524849
0.00558607
0.00590073
0.0061801
0.00641072
0.00657838
0.00666788
0.00666523
0.00655816
0.00633601
0.00599384
0.00553128
0.00496276
0.00431116
0.0036305
0.00294574
0.00382858
0.00508723
0.00659599
0.00850038
0.0106253
0.0133575
0.0160899
0.0200007
0.0231773
0.0291901
0.0321729
0.0428173
0.0434765
0.0658738
0.0587142
0.110101
0.0762046
0.0101514
0.000944382
0.00240535
0.00171406
0.00192193
0.00160818
0.00156855
0.00140032
0.00134322
0.00125643
0.00122546
0.00119724
0.00120315
0.00122201
0.00126488
0.00132319
0.00140075
0.00149416
0.00160468
0.00173081
0.00187257
0.00202874
0.00219832
0.0023795
0.00257035
0.00276844
0.00297106
0.00317489
0.00337612
0.00357048
0.0037533
0.00391966
0.00406435
0.00418202
0.00426799
0.00431853
0.00433097
0.0043054
0.00424458
0.00415829
0.00406074
0.00397606
0.00388998
0.00432383
0.0048879
0.00555012
0.00637692
0.00730471
0.00849342
0.00970678
0.0114183
0.0128832
0.0155104
0.0170301
0.0216121
0.0224611
0.0318664
0.0301014
0.0510171
0.0412217
0.00803011
0.000973235
0.00168811
0.00122336
0.0013129
0.00110708
0.00106673
0.000956741
0.000914351
0.000858613
0.000837868
0.000821958
0.000828181
0.000844612
0.000877097
0.00092088
0.00097791
0.00104638
0.00112695
0.00121893
0.00132242
0.00143693
0.00156214
0.00169736
0.00184191
0.00199496
0.00215566
0.00232294
0.00249565
0.00267262
0.00285265
0.00303469
0.00321762
0.00340029
0.00358216
0.00376356
0.00394572
0.00413143
0.0043252
0.00453442
0.00476721
0.00502772
0.00526142
0.00553001
0.00579195
0.00606184
0.00637619
0.00672694
0.00718045
0.00766143
0.00835359
0.0089873
0.0101063
0.0108575
0.0128569
0.0135078
0.017601
0.017501
0.0264164
0.0260623
0.00677426
0.0010706
0.0012668
0.000916188
0.000934283
0.000789836
0.000751091
0.000676384
0.000645146
0.000609884
0.0005983
0.000593015
0.000603692
0.000623599
0.00065596
0.000698277
0.000751754
0.000815678
0.000890695
0.000976803
0.00107444
0.00118379
0.00130514
0.00143861
0.0015844
0.00174267
0.00191361
0.0020974
0.00229425
0.00250442
0.00272834
0.00296659
0.00321935
0.00348648
0.00376884
0.00406765
0.00438466
0.00472222
0.00508338
0.00547161
0.00588854
0.00632506
0.00670524
0.00696801
0.00715663
0.00729682
0.00740903
0.00750733
0.0076184
0.00773671
0.00792562
0.00811487
0.00849287
0.00878425
0.0095695
0.00993646
0.01167
0.0119492
0.0158596
0.0187963
0.00609219
0.00123203
0.00103246
0.000726694
0.000696143
0.000585642
0.000548351
0.000495353
0.000472558
0.000451511
0.000448217
0.000452569
0.000470039
0.000496898
0.000535086
0.000583523
0.00064323
0.000714309
0.000797642
0.000893839
0.00100377
0.00112818
0.0012679
0.00142365
0.0015962
0.00178628
0.00199469
0.00222213
0.00246934
0.00273703
0.00302598
0.00333706
0.00366895
0.00402172
0.00439571
0.00479118
0.00520853
0.00564829
0.00611115
0.00659759
0.0071057
0.00762008
0.00806418
0.00837843
0.00859649
0.00874098
0.00882115
0.00885436
0.00884752
0.00881959
0.00878308
0.00874766
0.0087561
0.00876848
0.00894263
0.00905214
0.00965357
0.00987998
0.0116217
0.015049
0.00576629
0.00144805
0.000925002
0.000616968
0.000547554
0.000453846
0.00041677
0.000377103
0.000360709
0.000350092
0.000354511
0.000368059
0.000393886
0.000430051
0.000477917
0.000537343
0.000609444
0.000694952
0.00079508
0.000910946
0.00104381
0.00119487
0.0013653
0.00155619
0.00176855
0.00200334
0.00226145
0.00254363
0.00285047
0.00318247
0.00353993
0.00392267
0.00432747
0.00475427
0.00520227
0.00567044
0.00615777
0.0066633
0.00718628
0.00772602
0.00827979
0.00882805
0.00930578
0.00967635
0.00994882
0.010141
0.0102558
0.0103093
0.0102979
0.0102466
0.0101447
0.0100295
0.00988309
0.00975607
0.00963422
0.00956522
0.00960609
0.00968091
0.0104603
0.0130163
0.00565589
0.00170743
0.000909819
0.000565116
0.000458949
0.000370443
0.000331827
0.000300044
0.000288477
0.000285947
0.000297743
0.000320397
0.000355765
0.000402977
0.00046318
0.000536878
0.00062538
0.000729898
0.00085195
0.000993024
0.00115465
0.00133828
0.00154524
0.00177669
0.00203365
0.00231695
0.0026273
0.00296514
0.00333063
0.00372368
0.00414395
0.00458911
0.00505552
0.00554259
0.00604851
0.00657128
0.00710891
0.00765958
0.00822181
0.00879473
0.00937546
0.00994013
0.0104408
0.0108566
0.0111783
0.0114199
0.0115809
0.0116764
0.0116981
0.0116725
0.0115784
0.0114625
0.0112797
0.0111142
0.010879
0.0107275
0.010512
0.010472
0.0108219
0.011878
0.00567207
0.00199803
0.000965339
0.000558983
0.000412972
0.000320982
0.000278764
0.000251072
0.000243053
0.000247094
0.000266079
0.000297933
0.000343758
0.000403315
0.00047769
0.000567814
0.000675195
0.000801367
0.000948072
0.00111701
0.00130985
0.00152811
0.0017731
0.0020459
0.00234734
0.00267803
0.00303834
0.0034283
0.00384756
0.00429546
0.00477105
0.00526918
0.00578756
0.00632454
0.00687756
0.0074439
0.00802091
0.00860622
0.00919796
0.00979539
0.0103944
0.0109689
0.0114869
0.0119351
0.012294
0.0125745
0.0127739
0.0129077
0.0129648
0.0129735
0.0129073
0.0128183
0.0126482
0.0124966
0.0122423
0.0120824
0.0117789
0.0116989
0.0118593
0.0112304
0.00575858
0.00230721
0.00107758
0.000590816
0.000399565
0.000296724
0.000248559
0.000222073
0.000216471
0.000226019
0.000252055
0.000293247
0.000350202
0.00042301
0.000512731
0.000620551
0.000748118
0.000897159
0.00106955
0.00126708
0.00149147
0.0017442
0.0020265
0.0023393
0.00268318
0.00305849
0.00346525
0.00390309
0.00437117
0.00486826
0.00539232
0.00593703
0.00650063
0.00708066
0.00767395
0.00827724
0.00888736
0.00950155
0.0101177
0.0107352
0.0113466
0.0119283
0.0124593
0.0129289
0.0133132
0.0136207
0.0138474
0.014009
0.0140933
0.01413
0.01409
0.0140297
0.0138838
0.0137621
0.0135251
0.0133939
0.0130838
0.0130234
0.013098
0.0108621
0.00587999
0.00262248
0.00123549
0.000655834
0.000413262
0.000292494
0.000235701
0.000207975
0.000203692
0.000217892
0.000250811
0.000301426
0.000369943
0.000456552
0.000562258
0.000688365
0.000836599
0.00100879
0.00120689
0.00143273
0.00168802
0.0019742
0.00229239
0.00264333
0.00302738
0.00344458
0.00389464
0.00437678
0.00488969
0.00543172
0.00599919
0.00658592
0.00719005
0.00780844
0.00843741
0.00907322
0.00971227
0.0103515
0.0109885
0.0116228
0.012242
0.0128292
0.0133691
0.0138514
0.0142512
0.0145755
0.0148193
0.0149984
0.0151002
0.0151556
0.0151343
0.0150959
0.0149713
0.0148783
0.0146661
0.0145736
0.014287
0.0142752
0.0143037
0.010657
0.00601446
0.00293241
0.00142894
0.000750652
0.000451372
0.000305456
0.000236918
0.000205638
0.000201512
0.000219557
0.000259103
0.000319116
0.000399403
0.00050007
0.000622012
0.000766551
0.000935453
0.0011306
0.001354
0.00160751
0.00189284
0.00221135
0.00256405
0.00295148
0.00337376
0.00383062
0.00432146
0.00484511
0.00539984
0.00598366
0.00659069
0.00721605
0.00785719
0.00851042
0.00917156
0.00983649
0.0105012
0.0111624
0.0118176
0.0124646
0.0130886
0.0136795
0.0142243
0.0147124
0.0151199
0.0154527
0.0157051
0.0158931
0.016004
0.0160696
0.016059
0.0160346
0.0159247
0.0158537
0.0156635
0.015607
0.0153497
0.0153931
0.0153879
0.0105489
0.0061491
0.00322743
0.00164781
0.000872875
0.000512006
0.000334401
0.000250439
0.000213208
0.000207934
0.000228962
0.00027475
0.000344011
0.000436087
0.000550858
0.000689054
0.000851945
0.00104131
0.00125908
0.0015073
0.00178787
0.00210245
0.00245236
0.00283845
0.00326105
0.00372003
0.00421478
0.0047444
0.00530737
0.00590151
0.00652424
0.00716816
0.00782939
0.00850468
0.00918981
0.00988019
0.0105713
0.0112589
0.0119393
0.01261
0.0132651
0.013892
0.0144842
0.0150302
0.0155186
0.0159276
0.0162623
0.0165166
0.0167067
0.0168199
0.0168888
0.0168822
0.0168646
0.0167631
0.016707
0.0165329
0.0165061
0.0162746
0.0163697
0.0163329
0.0104986
0.00627688
0.00350042
0.00188191
0.0010197
0.000593763
0.00037935
0.000275561
0.000229735
0.0002218
0.00024482
0.000296321
0.000374547
0.000478297
0.000607098
0.000761459
0.000942554
0.00115217
0.00139225
0.0016649
0.00197203
0.00231528
0.00269585
0.00311444
0.00357116
0.00406558
0.00459677
0.00516353
0.00576397
0.00639552
0.00705458
0.00773323
0.00842792
0.00913481
0.00984924
0.0105662
0.0112809
0.0119886
0.0126857
0.0133685
0.0140278
0.0146558
0.015247
0.0157906
0.0162748
0.0166802
0.0170115
0.0172625
0.0174492
0.0175594
0.0176259
0.0176181
0.0176016
0.0175031
0.0174556
0.0172923
0.0172885
0.0170772
0.0172168
0.017148
0.0104827
0.00639444
0.00374686
0.00212137
0.00118743
0.000695768
0.000440418
0.000312385
0.00025494
0.000242567
0.000266409
0.00032293
0.000409722
0.000524938
0.000667638
0.000838056
0.00103723
0.00126693
0.00152911
0.00182592
0.00215926
0.00253072
0.00294138
0.00339174
0.00388168
0.00441045
0.00497682
0.00557925
0.00621556
0.00688278
0.00757582
0.00828717
0.00901309
0.00974924
0.0104905
0.0112315
0.0119672
0.0126925
0.0134037
0.014094
0.0147552
0.0153823
0.01597
0.0165079
0.0169842
0.0173819
0.0177055
0.0179487
0.0181277
0.0182307
0.0182905
0.0182774
0.0182574
0.0181577
0.018114
0.0179568
0.0179701
0.0177737
0.0179502
0.0178489
0.010487
0.00650068
0.0039647
0.00235715
0.00137122
0.000817074
0.000517514
0.000361667
0.000289079
0.00027017
0.000293438
0.000354116
0.000448959
0.000575364
0.000731816
0.000918205
0.00113538
0.00138508
0.00166923
0.00199001
0.0023493
0.00274861
0.00318887
0.00367037
0.00419271
0.00475487
0.00535523
0.005992
0.00666264
0.00736394
0.00808872
0.00883081
0.00958582
0.0103489
0.0111147
0.0118773
0.0126314
0.0133718
0.0140937
0.0147876
0.0154487
0.0160725
0.0166543
0.0171835
0.0176487
0.0180353
0.0183476
0.0185796
0.0187474
0.0188397
0.0188894
0.0188677
0.0188408
0.0187368
0.0186927
0.0185382
0.0185637
0.0183779
0.0185843
0.0184503
0.0105025
0.00659577
0.00415388
0.00258162
0.00156528
0.000956023
0.000610584
0.000424255
0.000332851
0.000304937
0.000325969
0.000389743
0.000491998
0.000629261
0.000799308
0.00100161
0.00123676
0.00150643
0.0018125
0.00215713
0.00254217
0.00296901
0.00343841
0.00395045
0.00450443
0.00509901
0.00573222
0.006402
0.00710552
0.00783896
0.00859366
0.00936455
0.0101465
0.0109344
0.0117222
0.012504
0.013274
0.0140269
0.0147549
0.0154499
0.0161087
0.0167272
0.0173004
0.0178182
0.0182694
0.0186419
0.01894
0.019158
0.0193117
0.0193907
0.0194277
0.0193948
0.0193583
0.0192473
0.0192001
0.0190454
0.0190792
0.0189004
0.0191307
0.0189646
0.0105238
0.0066805
0.00431592
0.00278895
0.00176319
0.00110999
0.000719569
0.000500526
0.000387362
0.000347537
0.00036436
0.000429946
0.00053883
0.000686548
0.00087002
0.0010882
0.00134134
0.00163101
0.00195896
0.00232736
0.00273796
0.00319202
0.00369012
0.00423208
0.00481691
0.00544297
0.00610788
0.00680937
0.00754429
0.00830783
0.0090907
0.00988844
0.0106952
0.0115055
0.0123131
0.0131115
0.0138949
0.0146566
0.0153871
0.0160811
0.0167354
0.017346
0.0179083
0.0184121
0.018847
0.0192029
0.0194842
0.0196857
0.019823
0.0198866
0.0199086
0.0198627
0.0198145
0.0196947
0.0196419
0.0194851
0.019524
0.0193496
0.0195985
0.0194016
0.0105474
0.00675592
0.00445328
0.00297524
0.00195842
0.00127528
0.000843774
0.000590774
0.000453715
0.000398952
0.000409234
0.000475086
0.000589637
0.000747315
0.000944008
0.00117805
0.00144921
0.00175892
0.00210875
0.00250083
0.00293679
0.00341776
0.00394408
0.00451533
0.0051302
0.00578675
0.00648218
0.00721403
0.00797887
0.00877046
0.00957968
0.0104022
0.0112317
0.0120621
0.0128869
0.0136995
0.0144935
0.0152593
0.01599
0.0166806
0.0173281
0.0179287
0.0184777
0.0189649
0.0193813
0.0197184
0.0199807
0.0201638
0.0202829
0.0203292
0.0203347
0.0202742
0.0202127
0.0200828
0.0200225
0.0198621
0.0199035
0.0197318
0.0199946
0.0197688
0.0105712
0.0068231
0.00456899
0.00313853
0.00214491
0.00144729
0.000981645
0.000695198
0.000532555
0.00046045
0.000461473
0.000525737
0.000644767
0.000811784
0.00102143
0.00127129
0.00156051
0.0018903
0.00226201
0.00267767
0.00313879
0.00364631
0.00420035
0.0048002
0.00544426
0.00613026
0.00685499
0.00761579
0.00840907
0.00922656
0.0100602
0.0109055
0.0117553
0.0126035
0.0134431
0.0142672
0.0150672
0.0158344
0.016563
0.0172479
0.0178862
0.0184743
0.0190076
0.0194762
0.0198721
0.0201884
0.0204299
0.0205928
0.020692
0.0207198
0.0207075
0.0206313
0.0205555
0.0204144
0.0203453
0.0201803
0.020222
0.0200517
0.0203244
0.0200721
0.0105941
0.00688304
0.00466622
0.00327848
0.00231753
0.00162074
0.00113063
0.000813417
0.000624424
0.000533192
0.0005222
0.000582677
0.000704724
0.000880287
0.00110253
0.00136813
0.00167542
0.00202536
0.00241891
0.00285803
0.00334407
0.00387773
0.00445894
0.00508667
0.00575898
0.00647335
0.00722607
0.00801436
0.00883429
0.00967568
0.0105318
0.0113976
0.0122655
0.0131289
0.0139808
0.0148124
0.0156149
0.0163811
0.017105
0.0177819
0.0184087
0.018982
0.0194973
0.0199452
0.0203187
0.0206124
0.0208316
0.0209727
0.0210509
0.021059
0.021028
0.0209353
0.0208443
0.0206915
0.0206127
0.0204423
0.0204827
0.020313
0.0205923
0.0203163
0.0106153
0.0069366
0.00474804
0.00339612
0.00247248
0.00179012
0.00128716
0.000944259
0.000729573
0.000618023
0.000592764
0.000646884
0.000770166
0.000953259
0.00118761
0.00146881
0.00179415
0.00216425
0.00257961
0.00304204
0.0035527
0.00411208
0.00471983
0.00537463
0.00607421
0.00681577
0.00759512
0.00840936
0.00925383
0.0101173
0.0109937
0.0118779
0.0127614
0.0136375
0.0144978
0.0153331
0.0161357
0.0168984
0.0176151
0.0182814
0.0188942
0.0194504
0.0199455
0.0203707
0.0207202
0.0209898
0.0211851
0.0213034
0.0213595
0.0213471
0.0212967
0.0211871
0.0210804
0.0209155
0.0208264
0.0206503
0.020688
0.0205185
0.0208015
0.020505
0.0106345
0.00698453
0.00481726
0.00349339
0.00260741
0.00195017
0.00144685
0.00108562
0.000847655
0.000715502
0.000674506
0.000719537
0.00084191
0.00103124
0.00127702
0.00157359
0.00191691
0.00230718
0.00274424
0.0032298
0.00376475
0.00434934
0.00498295
0.00566395
0.00638972
0.00715724
0.00796176
0.00880034
0.00966714
0.0105507
0.0114452
0.0123454
0.013242
0.0141271
0.0149921
0.0158284
0.0166284
0.0173848
0.0180919
0.018745
0.0193415
0.0198782
0.0203511
0.0207517
0.0210755
0.0213196
0.0214898
0.0215842
0.0216174
0.021584
0.0215139
0.021387
0.0212646
0.0210875
0.0209877
0.0208059
0.0208399
0.0206706
0.0209549
0.0206414
0.0106516
0.00702744
0.00487629
0.00357281
0.00272143
0.00209636
0.00160473
0.00123441
0.000977543
0.000825731
0.000768271
0.000802242
0.000920934
0.00111486
0.00137117
0.00168275
0.00204391
0.00245428
0.00291294
0.00342139
0.00398024
0.00458948
0.00524819
0.00595445
0.00670524
0.0074974
0.00832553
0.00918679
0.0100736
0.0109751
0.0118854
0.0127992
0.0137049
0.0145955
0.0154624
0.016297
0.0170917
0.0178392
0.0185339
0.0191714
0.019749
0.0202639
0.0207125
0.0210868
0.0213834
0.0216007
0.0217448
0.0218145
0.0218242
0.0217695
0.0216794
0.0215354
0.0213972
0.0212081
0.0210976
0.0209103
0.0209399
0.0207709
0.0210547
0.0207278
0.0106666
0.00706586
0.00492716
0.00363714
0.00281495
0.00222521
0.00175569
0.00138665
0.00111719
0.000948173
0.000874424
0.000896224
0.00100882
0.00120488
0.00147053
0.00179658
0.00217532
0.0026057
0.00308576
0.00361682
0.00419913
0.00483239
0.00551539
0.00624586
0.00702042
0.00783581
0.00868592
0.00956795
0.0104724
0.0113897
0.0123134
0.0132363
0.0141482
0.0150415
0.0159075
0.0167376
0.0175241
0.01826
0.0189397
0.0195588
0.0201151
0.020606
0.0210282
0.0213745
0.0216427
0.021832
0.021949
0.0219933
0.0219792
0.0219029
0.021793
0.0216321
0.0214785
0.0212779
0.0211568
0.0209644
0.0209891
0.0208212
0.0211029
0.0207665
0.0106796
0.00710022
0.00497152
0.00368914
0.0028894
0.00233455
0.00189491
0.00153767
0.00126357
0.00108148
0.00099278
0.00100195
0.00110708
0.00130279
0.00157559
0.00191535
0.00231127
0.00276148
0.00326273
0.00381606
0.00442133
0.00507791
0.00578429
0.00653786
0.00733483
0.00817194
0.00904229
0.00994272
0.0108628
0.0117926
0.012726
0.0136553
0.0145706
0.0154637
0.0163259
0.0171486
0.0179241
0.0186455
0.0193074
0.0199057
0.0204382
0.0209028
0.0212967
0.0216135
0.0218518
0.0220121
0.0221013
0.0221197
0.0220816
0.0219839
0.0218543
0.021677
0.0215085
0.0212971
0.0211659
0.020969
0.0209887
0.0208224
0.021101
0.0207592
0.0106909
0.00713092
0.00501065
0.00373137
0.00294695
0.00242355
0.00201835
0.00168244
0.00141276
0.00122337
0.00112243
0.0011194
0.00121613
0.00140993
0.00168803
0.0020393
0.00245185
0.00292161
0.00344373
0.00401894
0.00464661
0.00532576
0.00605453
0.00682999
0.00764792
0.00850516
0.00939392
0.0103097
0.0112421
0.0121818
0.0131222
0.0140551
0.0149707
0.0158607
0.0167161
0.0175284
0.01829
0.018994
0.0196353
0.0202101
0.0207165
0.0211527
0.0215163
0.021802
0.0220093
0.0221396
0.0222005
0.0221927
0.0221305
0.0220115
0.0218629
0.0216699
0.0214872
0.0212658
0.0211252
0.0209247
0.0209394
0.0207759
0.0210506
0.0207074
0.0107005
0.0071583
0.00504553
0.00376607
0.00299018
0.00249264
0.002123
0.00181604
0.00156007
0.00137058
0.00126157
0.00124792
0.00133599
0.00152656
0.00180844
0.00216996
0.00259777
0.00308592
0.00362853
0.00422518
0.00487463
0.00557552
0.00632562
0.00712167
0.00795901
0.00883368
0.00973853
0.0106669
0.011609
0.0125559
0.0135004
0.014434
0.0153471
0.0162308
0.0170764
0.0178753
0.0186199
0.0193037
0.0199217
0.0204703
0.0209481
0.0213537
0.0216853
0.0219384
0.0221137
0.0222133
0.0222452
0.022211
0.0221249
0.0219852
0.0218181
0.0216103
0.0214144
0.0211841
0.021035
0.0208319
0.0208421
0.0206824
0.020953
0.0206125
0.0107087
0.00718268
0.00507691
0.00379513
0.00302181
0.00254329
0.00220719
0.00193408
0.00170045
0.00151893
0.00140745
0.00138601
0.00146605
0.00165251
0.00193672
0.00230712
0.00274913
0.00325487
0.00381724
0.00443452
0.00510479
0.00582624
0.00659626
0.00741124
0.00826607
0.00915615
0.0100747
0.0110129
0.0119621
0.0129134
0.0138591
0.0147905
0.0156978
0.0165723
0.0174049
0.0181872
0.0189119
0.0195725
0.0201643
0.0206843
0.0211311
0.021504
0.0218019
0.0220212
0.0221634
0.0222317
0.0222343
0.0221737
0.022064
0.0219041
0.0217195
0.0214979
0.02129
0.0210522
0.0208956
0.0206912
0.0206974
0.0205428
0.0208092
0.0204758
0.0107156
0.00720434
0.00510534
0.00382007
0.00304448
0.00257775
0.00227056
0.0020331
0.00182881
0.00166356
0.00155631
0.00153123
0.00160494
0.00178706
0.0020724
0.00245024
0.00290526
0.00342764
0.00400891
0.00464594
0.00533601
0.00607678
0.00686522
0.0076974
0.00856776
0.00947114
0.0104006
0.0113461
0.0122998
0.0132527
0.0141965
0.0151226
0.0160211
0.016883
0.0176995
0.0184622
0.0191639
0.0197984
0.0203613
0.02085
0.0212636
0.0216018
0.0218643
0.0220485
0.0221569
0.0221932
0.0221665
0.0220797
0.0219468
0.0217675
0.0215664
0.0213323
0.0211138
0.0208699
0.0207072
0.020503
0.0205059
0.0203581
0.0206206
0.0202983
0.0107215
0.00722356
0.00513121
0.00384205
0.00306056
0.00259871
0.00231402
0.00211089
0.00194054
0.00179918
0.00170354
0.00168014
0.00175037
0.00192877
0.00221443
0.00259838
0.00306509
0.00360304
0.00420226
0.00485809
0.00556686
0.00632565
0.00713099
0.0079786
0.00886244
0.00977698
0.0107145
0.0116648
0.0126201
0.0135716
0.0145107
0.0154283
0.0163147
0.017161
0.0179581
0.0186981
0.0193737
0.0199791
0.0205105
0.0209654
0.0213435
0.0216451
0.0218707
0.0220187
0.0220925
0.0220966
0.0220404
0.0219278
0.0217724
0.0215748
0.0213584
0.0211133
0.0208857
0.0206374
0.02047
0.0202676
0.0202683
0.0201289
0.0203881
0.0200812
0.0107263
0.00724059
0.00515485
0.00386193
0.00307212
0.00260904
0.00233949
0.00216665
0.00203197
0.00192058
0.00184386
0.00182834
0.00189905
0.00207532
0.00236108
0.00275
0.0032271
0.00377945
0.00439557
0.00506916
0.00579551
0.00657099
0.00739167
0.00825288
0.00914815
0.0100716
0.0110144
0.0119667
0.012921
0.0138681
0.0147992
0.0157052
0.0165764
0.0174037
0.0181783
0.0188923
0.0195389
0.0201124
0.0206095
0.0210282
0.0213687
0.021632
0.0218193
0.0219302
0.0219688
0.0219405
0.0218551
0.021717
0.0215401
0.0213252
0.021095
0.0208405
0.0206056
0.0203547
0.0201844
0.0199856
0.0199853
0.0198561
0.0201128
0.0198254
0.0107304
0.00725566
0.00517647
0.00388031
0.00308082
0.00261153
0.00234961
0.00220092
0.00210063
0.00202304
0.00197176
0.00197065
0.00204672
0.00222344
0.0025098
0.00290291
0.00338916
0.00395469
0.0045866
0.00527688
0.00601964
0.00681047
0.00764491
0.00851789
0.00942249
0.0103525
0.0112978
0.0122495
0.0131998
0.0141395
0.0150595
0.0159507
0.0168034
0.0176086
0.0183575
0.0190425
0.019657
0.0201959
0.0206561
0.0210363
0.0213372
0.0215606
0.0217084
0.0217813
0.0217844
0.0217236
0.0216093
0.0214466
0.0212491
0.0210183
0.0207759
0.0205138
0.0202735
0.020022
0.0198507
0.0196574
0.0196575
0.0195405
0.0197958
0.0195319
0.0107337
0.007269
0.00519627
0.00389758
0.00308794
0.00260872
0.00234744
0.00221548
0.00214556
0.00210284
0.00208191
0.00210144
0.00218828
0.0023689
0.00265715
0.00305415
0.00354847
0.00412597
0.0047725
0.00547836
0.00623637
0.00704121
0.00788785
0.00877078
0.00968262
0.0106166
0.0115618
0.0125103
0.0134537
0.0143829
0.0152888
0.016162
0.016993
0.0177728
0.0184929
0.0191458
0.0197254
0.0202269
0.0206478
0.0209873
0.0212469
0.0214288
0.0215361
0.0215705
0.0215378
0.0214448
0.0213022
0.0211157
0.0208989
0.0206537
0.0204008
0.0201331
0.0198895
0.0196397
0.0194693
0.0192836
0.0192856
0.0191829
0.0194382
0.0192017
0.0107365
0.0072808
0.0052144
0.003914
0.00309442
0.00260281
0.00233613
0.00221303
0.00216727
0.00215761
0.00216966
0.00221499
0.00231804
0.00250663
0.00279879
0.00319991
0.00370148
0.00428978
0.00494976
0.00567008
0.00644218
0.00725972
0.00811702
0.00900811
0.00992514
0.0108604
0.0118033
0.0127457
0.0136794
0.0145952
0.0154838
0.0163358
0.017142
0.0178933
0.0185815
0.0191994
0.0197412
0.0202028
0.0205821
0.020879
0.0210955
0.0212348
0.0213008
0.0212963
0.0212278
0.0211031
0.0209328
0.0207238
0.020489
0.0202313
0.0199698
0.0196987
0.0194539
0.019208
0.0190408
0.0188649
0.0188707
0.0187843
0.019041
0.0188358
0.0107388
0.00729126
0.005231
0.00392969
0.00310088
0.00259555
0.00231869
0.00219688
0.00216765
0.00218657
0.00223153
0.00230608
0.00243012
0.00263094
0.0029296
0.00333559
0.00384389
0.00444192
0.00511416
0.0058478
0.00663284
0.00746182
0.00832832
0.00922586
0.0101461
0.0110802
0.0120182
0.012952
0.0138732
0.0147726
0.0156408
0.0164687
0.0172469
0.0179667
0.01862
0.0192001
0.0197017
0.020121
0.0204566
0.020709
0.0208812
0.0209768
0.0210009
0.0209573
0.0208534
0.0206975
0.0205008
0.0202704
0.0200194
0.0197509
0.019483
0.0192107
0.0189671
0.0187276
0.0185658
0.0184021
0.0184135
0.0183458
0.0186055
0.0184353
0.0107407
0.00730053
0.00524619
0.00394473
0.0031077
0.00258826
0.00229779
0.00217055
0.00214967
0.00219055
0.00226559
0.00237043
0.00251893
0.00273588
0.00304387
0.00345591
0.0039707
0.00457747
0.00526078
0.00600658
0.00680342
0.00764263
0.00851695
0.00941932
0.0103409
0.0112716
0.0122023
0.013125
0.0140309
0.014911
0.0157561
0.0165568
0.0173041
0.0179894
0.0186051
0.0191448
0.0196036
0.0199785
0.0202686
0.0204751
0.0206017
0.0206531
0.020635
0.0205525
0.0204137
0.0202276
0.0200056
0.0197556
0.0194901
0.019213
0.0189409
0.0186698
0.01843
0.0181993
0.0180454
0.0178961
0.0179151
0.0178684
0.0181329
0.0180012
0.0107422
0.00730876
0.0052601
0.00395913
0.00311506
0.00258187
0.00227567
0.00213752
0.002117
0.00217186
0.00227163
0.00240521
0.0025797
0.00281573
0.00313567
0.00355511
0.00407634
0.00469095
0.00538409
0.00614083
0.00694832
0.00779659
0.00867743
0.00958311
0.0105039
0.0114293
0.0123507
0.0132598
0.0141479
0.0150061
0.0158251
0.0165959
0.0173095
0.0179577
0.0185333
0.0190302
0.0194441
0.0197726
0.0200156
0.0201751
0.0202554
0.0202621
0.0202019
0.020081
0.0199082
0.019693
0.0194474
0.0191794
0.0189016
0.018618
0.0183442
0.0180769
0.0178433
0.0176242
0.0174805
0.0173482
0.0173769
0.0173534
0.0176245
0.0175347
0.0107434
0.00731609
0.00527284
0.00397291
0.00312301
0.00257698
0.00225406
0.00210094
0.00207365
0.00213399
0.00225122
0.00240937
0.00260901
0.0028655
0.00319932
0.00362733
0.00415497
0.00477646
0.00547809
0.00624441
0.00706132
0.00791747
0.00880359
0.00971121
0.0106296
0.0115479
0.0124578
0.0133511
0.0142191
0.0150528
0.0158433
0.0165815
0.0172589
0.0178675
0.0184006
0.0188526
0.0192199
0.0195005
0.0196953
0.0198068
0.0198404
0.0198025
0.0197006
0.0195421
0.0193365
0.0190939
0.0188263
0.0185426
0.0182547
0.0179671
0.0176941
0.0174331
0.0172084
0.0170034
0.0168725
0.0167596
0.0168003
0.0168022
0.0170819
0.017037
0.0107444
0.00732265
0.00528452
0.00398606
0.00313152
0.00257388
0.00223421
0.0020635
0.00202358
0.0020812
0.00220745
0.00238376
0.00260524
0.00288153
0.00322987
0.00366703
0.00420079
0.00482801
0.00553655
0.00631086
0.00713577
0.00799855
0.00888874
0.009797
0.0107113
0.011621
0.0125178
0.0133932
0.0142389
0.015046
0.0158055
0.0165089
0.0171478
0.0177148
0.0182035
0.0186088
0.0189279
0.0191595
0.0193052
0.0193685
0.0193553
0.0192732
0.0191305
0.0189356
0.0186988
0.0184306
0.0181434
0.0178461
0.0175506
0.0172616
0.016992
0.01674
0.0165269
0.0163387
0.0162232
0.0161321
0.0161868
0.0162164
0.0165067
0.0165096
0.0107452
0.00732852
0.00529523
0.00399857
0.00314047
0.00257266
0.00221695
0.00202729
0.00197041
0.00201808
0.00214464
0.0023311
0.00256876
0.00286191
0.00322372
0.00366956
0.00420854
0.00483991
0.00555336
0.00633367
0.00716484
0.0080328
0.00892577
0.00983342
0.0107424
0.0116421
0.012524
0.01338
0.0142015
0.0149799
0.0157066
0.0163732
0.0169718
0.0174953
0.0179379
0.0182953
0.0185651
0.018747
0.0188433
0.0188584
0.018799
0.0186736
0.0184915
0.0182619
0.0179958
0.0177043
0.0173998
0.0170917
0.0167912
0.0165035
0.01624
0.0159998
0.015801
0.015632
0.0155344
0.0154675
0.0155385
0.0155979
0.0159007
0.015954
0.0107458
0.00733381
0.00530508
0.00401045
0.00314976
0.00257325
0.00220269
0.00199387
0.00191722
0.00194909
0.00206779
0.00225564
0.002502
0.00280684
0.00317905
0.00363164
0.00417401
0.00480726
0.00552298
0.00630671
0.0071419
0.00801319
0.00890744
0.00981317
0.0107156
0.011604
0.0124699
0.0133049
0.0141007
0.0148489
0.0155411
0.0161693
0.016726
0.0172047
0.0176002
0.0179087
0.0181288
0.0182608
0.0183079
0.0182754
0.0181709
0.0180036
0.0177838
0.0175218
0.0172288
0.0169166
0.0165976
0.0162815
0.0159789
0.0156953
0.0154408
0.015215
0.0150331
0.0148859
0.0148086
0.0147682
0.0148574
0.0149486
0.0152658
0.0153717
0.0107463
0.0073386
0.00531415
0.00402171
0.00315925
0.00257549
0.0021916
0.00196423
0.00186641
0.00187828
0.00198213
0.00216274
0.00240925
0.00271874
0.00309627
0.00355195
0.00409457
0.00472644
0.00544097
0.00622471
0.00706092
0.00793313
0.00882676
0.00972904
0.0106238
0.0114999
0.0123485
0.0131614
0.0139303
0.014647
0.0153035
0.0158922
0.016406
0.0168391
0.0171868
0.0174462
0.0176164
0.017699
0.0176977
0.0176188
0.0174708
0.0172637
0.0170087
0.0167168
0.0163999
0.0160701
0.0157397
0.0154186
0.015117
0.0148404
0.0145977
0.0143889
0.0142264
0.0141034
0.0140487
0.0140367
0.0141462
0.014271
0.0146044
0.0147647
0.0107467
0.00734295
0.00532253
0.00403236
0.00316883
0.00257915
0.00218358
0.0019389
0.00181973
0.00180902
0.00189264
0.00205827
0.00229618
0.00260209
0.00297809
0.00343146
0.00396971
0.00459572
0.00530451
0.00608383
0.0069171
0.00778696
0.00867743
0.00957431
0.0104601
0.0113227
0.0121532
0.0129431
0.0136842
0.0143686
0.0149886
0.0155371
0.0160075
0.0163946
0.0166945
0.016905
0.0170261
0.0170602
0.017012
0.0168886
0.0166994
0.0164552
0.016168
0.0158495
0.015512
0.015168
0.0148297
0.014507
0.0142095
0.0139429
0.0137146
0.0135254
0.0133847
0.013288
0.0132579
0.0132762
0.0134078
0.0135676
0.0139189
0.014135
0.010747
0.00734693
0.0053303
0.00404243
0.00317838
0.002584
0.00217843
0.00191806
0.00177828
0.00174392
0.00180366
0.00194808
0.00216931
0.00246301
0.0028295
0.00327362
0.00380138
0.00441574
0.00511299
0.00588224
0.00670741
0.00757057
0.00845441
0.00934329
0.0102184
0.0110664
0.0118778
0.0126439
0.0133567
0.0140083
0.0145915
0.0150996
0.0155267
0.0158681
0.0161208
0.0162833
0.0163567
0.016344
0.0162511
0.0160858
0.0158584
0.0155805
0.0152647
0.0149234
0.0145693
0.014215
0.0138724
0.0135516
0.0132616
0.0130079
0.0127967
0.0126294
0.0125126
0.012444
0.0124403
0.0124903
0.0126456
0.0128414
0.0132121
0.0134849
0.0107473
0.0073506
0.00533752
0.00405196
0.00318783
0.00258979
0.00217581
0.00190159
0.00174262
0.00168476
0.00171871
0.00183748
0.00203532
0.00230871
0.00265728
0.00308422
0.00359415
0.00418981
0.0048685
0.00562073
0.0064313
0.00728206
0.00815464
0.00903195
0.009894
0.0107258
0.0115171
0.0122588
0.0129428
0.0135616
0.0141081
0.0145761
0.0149605
0.0152572
0.0154639
0.0155802
0.0156078
0.015551
0.0154162
0.0152125
0.0149507
0.0146432
0.0143031
0.0139433
0.013577
0.0132166
0.0128739
0.0125587
0.0122794
0.0120414
0.0118499
0.0117065
0.0116154
0.0115763
0.0116004
0.0116831
0.0118633
0.0120959
0.0124872
0.0128171
0.0107475
0.00735399
0.00534426
0.00406097
0.00319711
0.00259629
0.00217539
0.00188919
0.00171285
0.00163261
0.00164037
0.00173093
0.00190046
0.00214671
0.00246946
0.00287104
0.00335508
0.00392404
0.00457607
0.00530313
0.00609121
0.00692243
0.0077777
0.00863862
0.00948437
0.0102977
0.0110675
0.0117841
0.0124391
0.0130251
0.0135354
0.0139643
0.0143071
0.0145606
0.0147234
0.0147958
0.0147806
0.0146829
0.0145102
0.0142722
0.0139805
0.0136482
0.0132888
0.0129158
0.0125421
0.0121802
0.0118417
0.0115358
0.0112705
0.011051
0.0108813
0.0107634
0.0106994
0.0106908
0.0107436
0.0108596
0.0110654
0.011335
0.0117478
0.0121343
0.0107476
0.00735716
0.00535058
0.0040695
0.00320616
0.00260331
0.0021768
0.00188045
0.00168877
0.0015879
0.00157027
0.00163179
0.00177009
0.00198419
0.0022745
0.00264314