/*--------------------------------*- C++ -*----------------------------------*\
| =========                 |                                                 |
| \\      /  F ield         | OpenFOAM: The Open Source CFD Toolbox           |
|  \\    /   O peration     | Version:  2.4.0                                 |
|   \\  /    A nd           | Web:      www.OpenFOAM.org                      |
|    \\/     M anipulation  |                                                 |
\*---------------------------------------------------------------------------*/
FoamFile
{
    version     2.0;
    format      ascii;
    class       volScalarField;
    location    "7.44";
    object      k;
}
// * * * * * * * * * * * * * * * * * * * * * * * * * * * * * * * * * * * * * //

dimensions      [0 2 -2 0 0 0 0];

internalField   nonuniform List<scalar> 
6000
(
0.168224
0.0132714
0.000978346
0.0036217
0.00250565
0.00292587
0.0024211
0.00239024
0.00212325
0.00204692
0.00191066
0.00186856
0.0018254
0.00183907
0.0018715
0.00194406
0.00204146
0.00217179
0.00232917
0.00251677
0.00273224
0.00297622
0.00324673
0.00354214
0.00385897
0.00419317
0.00453944
0.00489146
0.00524126
0.00557937
0.00589481
0.0061752
0.00640706
0.0065762
0.00666734
0.00666642
0.00656109
0.00634061
0.0059999
0.00553845
0.00497053
0.00431888
0.00363771
0.00295241
0.00381362
0.00506991
0.00657716
0.00848056
0.0106049
0.013337
0.0160694
0.0199806
0.0231576
0.0291708
0.0321543
0.0427988
0.0434596
0.0658552
0.0587002
0.110077
0.0762046
0.0101514
0.000944376
0.00240536
0.00171406
0.00192193
0.00160818
0.00156854
0.00140029
0.00134315
0.00125627
0.00122516
0.00119672
0.00120235
0.00122088
0.00126337
0.00132125
0.00139836
0.0014913
0.00160134
0.00172699
0.00186829
0.00202403
0.00219322
0.00237409
0.00256468
0.00276261
0.00296517
0.00316905
0.00337045
0.0035651
0.00374832
0.0039152
0.0040605
0.00417885
0.00426552
0.00431678
0.00432989
0.00430485
0.00424439
0.00415816
0.00406037
0.00397544
0.00389018
0.00431391
0.00487693
0.00553864
0.00636521
0.00729292
0.00848177
0.00969526
0.0114071
0.0128722
0.0154998
0.0170198
0.0216021
0.0224515
0.0318567
0.0300931
0.0510058
0.0412217
0.00803011
0.00097323
0.00168811
0.00122336
0.00131291
0.00110708
0.00106672
0.00095671
0.000914278
0.000858456
0.000837578
0.000821475
0.000827445
0.000843566
0.000875691
0.000919072
0.000975664
0.00104367
0.00112375
0.00121524
0.00131824
0.00143228
0.00155704
0.00169185
0.00183603
0.00198877
0.00214921
0.00231631
0.00248892
0.00266584
0.0028459
0.00302803
0.00321111
0.00339399
0.00357609
0.00375772
0.0039401
0.00412595
0.00431978
0.00452891
0.00476153
0.00502221
0.00525787
0.00552147
0.00578291
0.00605267
0.006367
0.00671773
0.00717132
0.0076523
0.00834463
0.00897833
0.0100976
0.0108488
0.0128484
0.0134993
0.0175928
0.017493
0.0264075
0.0260623
0.00677426
0.0010706
0.00126681
0.000916189
0.000934283
0.000789833
0.000751079
0.000676348
0.000645063
0.000609712
0.000597988
0.0005925
0.00060291
0.000622486
0.000654455
0.000696324
0.000749303
0.000812687
0.000887131
0.000972643
0.00106967
0.00117842
0.00129917
0.00143207
0.00157732
0.00173508
0.00190556
0.00208895
0.00228546
0.00249536
0.00271905
0.00295716
0.00320987
0.003477
0.00375943
0.00405836
0.00437551
0.00471322
0.00507451
0.00546282
0.00587988
0.00631705
0.00669964
0.00695948
0.00714786
0.00728807
0.00740028
0.00749848
0.00760943
0.00772751
0.00791628
0.00810525
0.00848319
0.00877426
0.00955964
0.00992627
0.0116601
0.0119391
0.0158491
0.0187963
0.00609219
0.00123203
0.00103246
0.000726694
0.000696142
0.000585637
0.000548335
0.00049531
0.000472459
0.00045131
0.000447857
0.00045198
0.000469145
0.000495621
0.000533349
0.000581252
0.000640358
0.000710775
0.000793398
0.000888848
0.000998003
0.00112164
0.00126058
0.00141558
0.0015874
0.00177681
0.00198458
0.00221147
0.00245819
0.00272549
0.00301413
0.00332501
0.00365685
0.00400967
0.00438381
0.00477952
0.00519719
0.00563729
0.00610052
0.0065873
0.00709582
0.00761116
0.0080575
0.00836976
0.00858768
0.00873222
0.00881236
0.00884536
0.00883819
0.00880975
0.00877274
0.00873666
0.00874463
0.00875631
0.00893019
0.00903903
0.00964058
0.00986632
0.0116075
0.015049
0.00576629
0.00144805
0.000925002
0.000616968
0.000547552
0.00045384
0.00041675
0.00037705
0.000360589
0.000349852
0.000354084
0.000367363
0.000392832
0.000428542
0.000475858
0.00053464
0.00060601
0.000690712
0.00078997
0.00090492
0.00103684
0.00118695
0.00135644
0.00154642
0.00175792
0.00199191
0.00224931
0.00253087
0.0028372
0.00316881
0.00352602
0.00390869
0.00431357
0.00474059
0.00518894
0.00565757
0.00614545
0.00665155
0.00717511
0.00771539
0.00826972
0.00881909
0.00929866
0.00966781
0.00994018
0.0101324
0.0102471
0.0103003
0.0102884
0.0102363
0.0101336
0.0100174
0.00987005
0.00974187
0.00961921
0.00954903
0.00958953
0.00966317
0.0104415
0.0130163
0.00565589
0.00170743
0.000909817
0.000565115
0.000458946
0.000370435
0.000331804
0.000299981
0.000288334
0.000285661
0.000297236
0.000319572
0.000354515
0.000401189
0.000460738
0.000533669
0.000621302
0.000724861
0.000845887
0.000985888
0.00114642
0.00132896
0.00153486
0.00176531
0.00202133
0.0023038
0.00261344
0.0029507
0.00331575
0.00370853
0.00412867
0.00457396
0.00504064
0.00552813
0.00603461
0.00655804
0.00709642
0.00764784
0.00821081
0.00878438
0.00936581
0.00993159
0.0104337
0.0108485
0.0111702
0.0114118
0.0115726
0.0116677
0.0116888
0.0116623
0.011567
0.0114498
0.0112657
0.0110987
0.0108621
0.0107088
0.0104923
0.0104504
0.0107988
0.011878
0.00567207
0.00199803
0.000965337
0.00055898
0.000412969
0.000320972
0.000278736
0.000250998
0.000242884
0.000246758
0.000265482
0.000296963
0.00034229
0.000401217
0.000474829
0.000564063
0.000670439
0.000795513
0.000941054
0.00110879
0.00130043
0.0015175
0.00176137
0.00203313
0.00233364
0.00266352
0.00302318
0.00341265
0.0038316
0.00427937
0.00475503
0.00525346
0.0057723
0.00630989
0.00686364
0.00743081
0.00800873
0.00859494
0.00918754
0.0097857
0.0103855
0.0109611
0.0114803
0.0119278
0.0122867
0.0125671
0.0127663
0.0128995
0.0129559
0.0129636
0.0128961
0.0128055
0.0126338
0.0124803
0.0122242
0.0120621
0.0117569
0.0116744
0.0118328
0.0112304
0.00575858
0.00230721
0.00107758
0.000590813
0.00039956
0.000296713
0.000248527
0.000221988
0.000216276
0.000225629
0.000251362
0.000292122
0.000348504
0.00042059
0.000509441
0.000616253
0.000742694
0.000890519
0.00106163
0.00125787
0.00148098
0.00173248
0.00201364
0.0023254
0.00266839
0.00304295
0.00344916
0.00388663
0.00435453
0.00485165
0.00537597
0.00592114
0.00648536
0.00706617
0.00766036
0.00826463
0.00887581
0.009491
0.0101081
0.0107264
0.0113387
0.0119215
0.0124534
0.0129227
0.0133069
0.0136143
0.0138407
0.0140016
0.014085
0.0141206
0.0140791
0.0140171
0.0138693
0.0137455
0.0135064
0.0133726
0.0130603
0.0129969
0.013069
0.0108621
0.00587999
0.00262248
0.00123549
0.00065583
0.000413256
0.000292482
0.000235665
0.000207879
0.000203471
0.000217447
0.000250019
0.000300142
0.000368011
0.000453809
0.000558546
0.000683541
0.000830547
0.00100143
0.00119817
0.00142265
0.00167662
0.00196155
0.0022786
0.00262854
0.00301175
0.00342829
0.00387789
0.00435978
0.00487266
0.00541487
0.00598277
0.00657012
0.00717503
0.00779435
0.00842436
0.0090613
0.00970154
0.0103419
0.01098
0.0116152
0.0122354
0.0128236
0.0133643
0.0138464
0.0142461
0.0145703
0.0148136
0.014992
0.0150928
0.0151469
0.0151239
0.0150837
0.014957
0.0148616
0.0146471
0.0145518
0.0142627
0.0142473
0.0142731
0.010657
0.00601446
0.0029324
0.00142894
0.000750647
0.000451365
0.000305442
0.000236879
0.000205532
0.000201265
0.000219058
0.000258213
0.000317676
0.000397241
0.000497013
0.000617898
0.000761236
0.000928824
0.00112258
0.00134456
0.00159668
0.00188066
0.00219792
0.0025495
0.00293597
0.00335748
0.00381377
0.00430426
0.00482778
0.00538261
0.00596676
0.00657439
0.00720052
0.0078426
0.0084969
0.00915924
0.00982543
0.0104915
0.0111539
0.0118102
0.0124583
0.0130834
0.0136751
0.0142207
0.0147087
0.0151162
0.0154488
0.0157007
0.0158879
0.0159976
0.0160618
0.0160494
0.0160229
0.0159108
0.0158372
0.0156444
0.0155849
0.0153248
0.0153644
0.0153561
0.0105489
0.0061491
0.00322742
0.0016478
0.000872869
0.000511998
0.000334386
0.000250397
0.000213093
0.000207663
0.000228412
0.000273766
0.000342418
0.000433705
0.000547506
0.000684565
0.00084618
0.00103417
0.00125049
0.00149724
0.00177638
0.00208961
0.00243827
0.00282327
0.00324497
0.00370324
0.00419752
0.0047269
0.00528986
0.00588424
0.00650746
0.00715213
0.00781427
0.00849064
0.009177
0.00986872
0.0105613
0.0112503
0.0119321
0.012604
0.0132603
0.0138883
0.0144814
0.0150281
0.0155165
0.0159254
0.0162599
0.0165136
0.0167028
0.0168147
0.0168819
0.0168734
0.0168536
0.0167496
0.0166908
0.0165139
0.0164839
0.0162494
0.0163404
0.0163004
0.0104986
0.00627688
0.00350041
0.00188191
0.0010197
0.000593754
0.000379333
0.000275517
0.000229613
0.000221508
0.000244222
0.000295247
0.000372811
0.000475707
0.00060347
0.000756625
0.000936377
0.00114455
0.00138314
0.00165429
0.00195997
0.00230186
0.00268121
0.00309875
0.00355461
0.0040484
0.00457921
0.00514583
0.0057464
0.00637833
0.00703803
0.00771756
0.00841331
0.00912144
0.00983726
0.0105557
0.0112719
0.0119812
0.0126798
0.0133639
0.0140246
0.0146537
0.0152459
0.0157902
0.0162744
0.0166798
0.0170107
0.0172609
0.0174466
0.0175553
0.0176201
0.0176102
0.0175913
0.0174902
0.0174399
0.0172735
0.0172663
0.0170518
0.0171871
0.017115
0.0104827
0.00639444
0.00374686
0.00212137
0.00118742
0.000695758
0.000440401
0.000312338
0.000254813
0.000242258
0.000265768
0.000321774
0.000407851
0.000522153
0.000663752
0.000832903
0.00103067
0.00125888
0.00151953
0.00181481
0.00214669
0.0025168
0.00292626
0.00337561
0.00386475
0.00439298
0.00495905
0.00556147
0.00619802
0.00686575
0.0075596
0.00827197
0.0089991
0.00973664
0.0104795
0.0112221
0.0119594
0.0126865
0.0133992
0.0140911
0.0147537
0.0153819
0.0159706
0.0165092
0.0169856
0.0173832
0.0177064
0.0179488
0.0181266
0.018228
0.0182859
0.0182705
0.018248
0.0181455
0.0180987
0.0179383
0.017948
0.0177482
0.0179202
0.0178154
0.010487
0.00650068
0.00396469
0.00235715
0.00137121
0.000817063
0.000517495
0.00036162
0.000288948
0.000269847
0.000292761
0.000352884
0.000446962
0.000572397
0.000727689
0.000912754
0.00112848
0.00137664
0.00165923
0.00197847
0.00233629
0.00273425
0.00317334
0.00365387
0.00417549
0.00473718
0.00533734
0.0059742
0.00664522
0.00734715
0.0080729
0.00881616
0.00957254
0.0103372
0.0111046
0.011869
0.012625
0.0133672
0.0140908
0.0147864
0.0154489
0.016074
0.0166567
0.0171867
0.017652
0.0180384
0.0183502
0.0185814
0.0187478
0.0188384
0.0188861
0.0188619
0.0188323
0.0187253
0.0186781
0.0185202
0.0185419
0.0183524
0.0185542
0.0184165
0.0105025
0.00659577
0.00415388
0.00258162
0.00156527
0.00095601
0.000610564
0.000424206
0.000332719
0.000304605
0.000325262
0.000388445
0.000489887
0.000626124
0.000794956
0.000995884
0.00122954
0.00149764
0.00180211
0.00214519
0.00252876
0.00295427
0.00342253
0.00393365
0.00448697
0.00508117
0.00571428
0.00638427
0.00708828
0.00782252
0.00857832
0.00935053
0.010134
0.0109236
0.0117132
0.0124969
0.0132689
0.0140238
0.0147537
0.0154505
0.0161108
0.0167306
0.0173048
0.0178233
0.0182748
0.0186471
0.0189445
0.0191615
0.0193138
0.019391
0.0194257
0.0193902
0.0193508
0.0192367
0.019186
0.0190278
0.0190577
0.018875
0.0191005
0.0189307
0.0105238
0.0066805
0.00431592
0.00278894
0.00176318
0.00110997
0.000719547
0.000500478
0.00038723
0.0003472
0.000363629
0.00042859
0.000536614
0.000683252
0.000865455
0.00108222
0.00133382
0.00162188
0.00194822
0.00231505
0.00272419
0.00317694
0.00367394
0.00421503
0.00479928
0.00542504
0.00608995
0.00679176
0.0075273
0.0082918
0.00907592
0.00987511
0.0106836
0.0114957
0.0123053
0.0131058
0.0138913
0.0146552
0.0153876
0.0160835
0.0167394
0.0173514
0.0179148
0.0184192
0.0188543
0.01921
0.0194906
0.019691
0.0198268
0.0198884
0.019908
0.0198593
0.0198081
0.019685
0.0196285
0.019468
0.0195028
0.0193244
0.0195683
0.0193675
0.0105474
0.00675592
0.00445328
0.00297524
0.00195841
0.00127527
0.000843751
0.000590724
0.000453585
0.000398614
0.000408489
0.000473683
0.000587325
0.00074387
0.000939242
0.00117181
0.00144139
0.00174947
0.00209767
0.00248818
0.00292269
0.00340238
0.00392764
0.00449808
0.00511244
0.00576878
0.00646432
0.0071966
0.0079622
0.00875489
0.00956551
0.0103897
0.0112209
0.0120533
0.0128803
0.0136951
0.0144914
0.0152596
0.0159924
0.0166849
0.0173341
0.0179361
0.0184862
0.0189742
0.0193908
0.0197276
0.0199892
0.020171
0.0202884
0.0203326
0.0203356
0.0202721
0.0202075
0.0200741
0.02001
0.0198457
0.0198828
0.0197068
0.0199645
0.0197346
0.0105712
0.0068231
0.00456899
0.00313852
0.0021449
0.00144728
0.000981621
0.000695148
0.000532426
0.000460117
0.000460721
0.000524298
0.000642373
0.000808201
0.00101648
0.00126481
0.00155242
0.00188056
0.00225062
0.00266471
0.0031244
0.00363066
0.00418369
0.0047828
0.00542642
0.0061123
0.00683725
0.0075986
0.00839276
0.00921151
0.0100467
0.0108937
0.0117455
0.0125959
0.0134378
0.0142643
0.0150667
0.0158364
0.0165672
0.0172542
0.0178943
0.0184839
0.0190183
0.0194877
0.0198837
0.0201997
0.0204405
0.020602
0.0206994
0.0207249
0.0207099
0.0206306
0.0205514
0.0204067
0.0203336
0.0201645
0.0202018
0.020027
0.0202945
0.020038
0.0105941
0.00688304
0.00466622
0.00327848
0.00231752
0.00162073
0.0011306
0.000813366
0.000624298
0.000532866
0.000521451
0.000581213
0.00070226
0.000876578
0.00109739
0.00136142
0.00166707
0.00201532
0.00240722
0.00284478
0.0033294
0.00386186
0.0044421
0.00506915
0.0057411
0.00645544
0.00720849
0.00799745
0.00881842
0.0096612
0.010519
0.0113867
0.0122567
0.0131225
0.0139769
0.014811
0.0156161
0.0163849
0.0171112
0.0177901
0.0184188
0.0189937
0.0195102
0.0199588
0.0203325
0.0206259
0.0208442
0.0209839
0.0210602
0.0210659
0.021032
0.020936
0.0208415
0.0206848
0.0206019
0.0204272
0.020463
0.0202886
0.0205626
0.0202822
0.0106153
0.0069366
0.00474804
0.00339612
0.00247248
0.0017901
0.00128714
0.000944207
0.000729449
0.000617705
0.000592025
0.000645411
0.000767647
0.000949435
0.0011823
0.00146187
0.00178554
0.00215394
0.00256764
0.00302852
0.00353779
0.004096
0.00470283
0.00535702
0.00605633
0.00679796
0.00757774
0.00839277
0.00923843
0.0101034
0.0109816
0.0118679
0.0127537
0.0136323
0.0144953
0.0153333
0.0161386
0.0169039
0.0176232
0.0182917
0.0189065
0.0194643
0.0199607
0.0203866
0.0207362
0.0210055
0.0211998
0.0213166
0.0213707
0.0213557
0.0213023
0.0211893
0.0210789
0.0209099
0.0208165
0.020636
0.0206689
0.0204946
0.0207721
0.0204711
0.0106345
0.00698453
0.00481726
0.00349339
0.00260741
0.00195016
0.00144683
0.00108557
0.000847533
0.000715192
0.000673782
0.000718068
0.000839353
0.00102731
0.00127155
0.00156644
0.00190805
0.00229659
0.002732
0.00321602
0.00374961
0.00433307
0.00496583
0.00564629
0.00637186
0.00713955
0.00794461
0.00878411
0.00965225
0.0105374
0.0114339
0.0123364
0.0132354
0.0141232
0.0149909
0.0158301
0.016633
0.0173923
0.0181019
0.0187574
0.0193559
0.0198943
0.0203685
0.0207699
0.0210938
0.0213375
0.0215067
0.0215995
0.0216305
0.0215944
0.0215211
0.0213907
0.0212644
0.0210831
0.0209788
0.0207924
0.0208214
0.0206471
0.0209258
0.0206076
0.0106516
0.00702744
0.00487629
0.00357281
0.00272143
0.00209635
0.0016047
0.00123436
0.000977423
0.00082543
0.000767564
0.000800786
0.000918357
0.00111086
0.00136555
0.00167539
0.0020348
0.00244343
0.00290043
0.00340736
0.00396488
0.00457304
0.00523096
0.00593675
0.00668744
0.00747986
0.00830866
0.00917094
0.0100592
0.0109625
0.011875
0.0127911
0.0136994
0.0145929
0.0154627
0.0163004
0.0170981
0.0178485
0.018546
0.0191859
0.0197656
0.0202823
0.0207321
0.0211072
0.021404
0.0216208
0.0217638
0.0218318
0.0218393
0.0217817
0.0216883
0.0215406
0.0213983
0.0212049
0.0210897
0.0208976
0.020922
0.020748
0.0210259
0.0206942
0.0106666
0.00706586
0.00492716
0.00363714
0.00281494
0.0022252
0.00175566
0.0013866
0.00111707
0.000947883
0.000873737
0.00089479
0.00100624
0.00120081
0.00146477
0.00178902
0.00216596
0.00259458
0.00307298
0.00360254
0.00418356
0.00481579
0.00549806
0.00622814
0.00700269
0.00781843
0.00866933
0.00955253
0.0104586
0.0113778
0.0123038
0.0132292
0.0141439
0.0150402
0.0159093
0.0167426
0.0175323
0.0182712
0.0189537
0.0195755
0.020134
0.0206267
0.0210502
0.0213973
0.0216656
0.0218543
0.0219702
0.0220127
0.0219962
0.021917
0.0218036
0.0216388
0.021481
0.0212758
0.0211499
0.0209525
0.020972
0.0207987
0.0210744
0.0207332
0.0106796
0.00710022
0.00497152
0.00368914
0.00288939
0.00233454
0.00189489
0.00153762
0.00126346
0.0010812
0.000992116
0.00100054
0.00110451
0.00129868
0.00156971
0.0019076
0.00230168
0.00275009
0.00324968
0.00380153
0.00440555
0.00506116
0.00576687
0.00652013
0.00731718
0.00815475
0.00902601
0.00992774
0.0108496
0.0117815
0.0127173
0.0136493
0.0145675
0.0154637
0.0163292
0.0171552
0.017934
0.0186586
0.0193235
0.0199244
0.0204593
0.0209258
0.021321
0.0216385
0.021877
0.0220367
0.0221247
0.0221412
0.0221006
0.0219997
0.0218666
0.0216853
0.0215123
0.0212962
0.0211601
0.020958
0.0209723
0.0208005
0.021073
0.0207261
0.0106909
0.00713092
0.00501065
0.00373137
0.00294695
0.00242354
0.00201833
0.00168239
0.00141265
0.0012231
0.00112179
0.00111804
0.00121359
0.0014058
0.00168206
0.00203138
0.00244203
0.00290995
0.0034304
0.00400416
0.00463062
0.00530885
0.00603703
0.00681226
0.00763036
0.00848816
0.00937796
0.0102952
0.0112294
0.0121714
0.0131143
0.0140501
0.0149688
0.0158621
0.0167209
0.0175367
0.0183017
0.0190091
0.0196535
0.020231
0.0207398
0.0211779
0.0215429
0.0218294
0.0220368
0.0221665
0.022226
0.0222162
0.0221514
0.0220292
0.0218769
0.0216796
0.0214924
0.0212661
0.0211204
0.0209146
0.0209238
0.0207545
0.0210231
0.0206747
0.0107005
0.0071583
0.00504553
0.00376607
0.00299018
0.00249263
0.00212298
0.001816
0.00155997
0.00137033
0.00126097
0.0012466
0.00133349
0.00152243
0.0018024
0.00216188
0.00258773
0.00307399
0.00361493
0.00421014
0.00485842
0.00555845
0.00630803
0.00710394
0.00794154
0.00881689
0.00972288
0.0106528
0.0115969
0.0125463
0.0134934
0.0144301
0.0153464
0.0162335
0.0170827
0.0178852
0.0186334
0.0193206
0.0199418
0.0204934
0.0209736
0.0213811
0.0217142
0.0219681
0.0221435
0.0222424
0.0222729
0.0222366
0.0221478
0.0220047
0.0218338
0.0216216
0.021421
0.0211857
0.0210313
0.0208228
0.0208272
0.0206617
0.0209259
0.0205801
0.0107087
0.00718268
0.00507691
0.00379513
0.00302181
0.00254329
0.00220717
0.00193404
0.00170036
0.0015187
0.00140688
0.00138475
0.00146362
0.00164842
0.00193065
0.00229892
0.00273888
0.00324269
0.00380336
0.00441922
0.00508836
0.005809
0.00657857
0.00739349
0.00824869
0.00913956
0.0100594
0.0109993
0.0119506
0.0129045
0.013853
0.0147876
0.0156983
0.0165763
0.0174127
0.0181988
0.0189272
0.0195914
0.0201865
0.0207095
0.0211588
0.0215337
0.021833
0.0220531
0.0221954
0.0222629
0.0222642
0.0222014
0.0220888
0.0219254
0.0217368
0.0215107
0.021298
0.021055
0.020893
0.020683
0.0206833
0.0205228
0.0207827
0.0204438
0.0107156
0.00720434
0.00510534
0.00382007
0.00304448
0.00257775
0.00227055
0.00203307
0.00182872
0.00166334
0.00155578
0.00153003
0.00160259
0.00178304
0.00206632
0.00244195
0.00289482
0.00341522
0.00399477
0.00463038
0.00531934
0.00605935
0.00684743
0.00767963
0.00855045
0.00945473
0.0103856
0.0113329
0.0122889
0.0132444
0.0141913
0.0151207
0.0160228
0.0168885
0.0177088
0.0184755
0.019181
0.0198192
0.0203855
0.0208773
0.0212935
0.0216338
0.0218977
0.0220827
0.0221911
0.0222267
0.0221984
0.0221094
0.0219735
0.0217907
0.0215854
0.0213467
0.0211232
0.0208739
0.0207057
0.0204957
0.0204926
0.0203387
0.0205946
0.0202667
0.0107215
0.00722356
0.00513121
0.00384205
0.00306056
0.00259871
0.00231402
0.00211087
0.00194047
0.00179898
0.00170304
0.00167901
0.00174812
0.00192485
0.00220839
0.00259004
0.00305451
0.0035904
0.00418786
0.00484225
0.00554995
0.00630803
0.00711307
0.00796078
0.00884518
0.00976073
0.0106998
0.011652
0.0126098
0.0135641
0.0145063
0.0154274
0.0163176
0.0171677
0.0179689
0.0187129
0.0193925
0.0200018
0.0205367
0.0209947
0.0213756
0.0216793
0.0219064
0.0220552
0.022129
0.0221323
0.0220745
0.0219595
0.0218011
0.0215997
0.0213791
0.0211291
0.0208964
0.0206426
0.0204696
0.0202613
0.0202559
0.0201102
0.0203627
0.02005
0.0107263
0.00724059
0.00515485
0.00386193
0.00307212
0.00260903
0.00233949
0.00216663
0.0020319
0.0019204
0.00184341
0.00182729
0.00189692
0.00207153
0.00235514
0.00274167
0.00321642
0.00376662
0.00438092
0.00505306
0.00577834
0.00655316
0.0073736
0.008235
0.00913092
0.0100555
0.0109999
0.0119543
0.0129111
0.0138612
0.0147956
0.0157052
0.0165804
0.0174118
0.0181906
0.0189088
0.0195595
0.020137
0.0206377
0.0210596
0.0214029
0.0216684
0.0218572
0.0219689
0.0220075
0.0219783
0.0218912
0.0217507
0.0215706
0.0213519
0.0211173
0.0208579
0.0206177
0.0203612
0.0201851
0.0199803
0.0199737
0.0198381
0.020088
0.0197947
0.0107304
0.00725566
0.00517647
0.00388031
0.00308082
0.00261153
0.00234961
0.0022009
0.00210058
0.00202288
0.00197136
0.00196969
0.00204473
0.00221981
0.002504
0.00289465
0.00337843
0.00394172
0.00457172
0.00526052
0.00600222
0.00679242
0.00762667
0.00849992
0.00940527
0.0103366
0.0112835
0.0122375
0.0131904
0.0141332
0.0150568
0.0159517
0.0168085
0.0176179
0.0183712
0.0190606
0.0196793
0.0202223
0.0206862
0.0210698
0.0213736
0.0215991
0.0217485
0.0218222
0.0218252
0.0217636
0.0216475
0.0214823
0.0212815
0.0210468
0.0207998
0.0205326
0.0202869
0.0200298
0.0198525
0.019653
0.0196468
0.0195232
0.0197717
0.0195017
0.0107337
0.007269
0.00519627
0.00389758
0.00308794
0.00260873
0.00234744
0.00221547
0.00214551
0.00210271
0.00208155
0.00210057
0.00218644
0.00236547
0.00265155
0.00304602
0.00353777
0.00411291
0.00475744
0.00546176
0.0062187
0.00702293
0.00786942
0.00875269
0.00966536
0.0106007
0.0115478
0.0124986
0.0134448
0.0143773
0.0152868
0.016164
0.0169992
0.0177834
0.018508
0.0191654
0.0197494
0.0202551
0.0206799
0.0210228
0.0212853
0.0214695
0.0215783
0.0216136
0.0215808
0.0214869
0.0213424
0.0211533
0.0209331
0.0206839
0.0204263
0.0201535
0.0199043
0.0196486
0.0194722
0.0192802
0.0192758
0.0191664
0.0194147
0.019172
0.0107365
0.0072808
0.0052144
0.003914
0.00309442
0.00260281
0.00233613
0.00221303
0.00216724
0.00215751
0.00216935
0.00221422
0.00231636
0.00250342
0.00279345
0.00319199
0.00369089
0.00427671
0.00493458
0.00565328
0.00642427
0.0072412
0.0080984
0.00898989
0.00990783
0.0108446
0.0117894
0.0127343
0.013671
0.0145901
0.0154825
0.0163387
0.0171492
0.0179051
0.018598
0.0192205
0.0197669
0.0202329
0.0206161
0.0209165
0.021136
0.0212776
0.0213452
0.0213415
0.0212729
0.0211472
0.0209751
0.0207633
0.0205251
0.0202631
0.0199969
0.0197205
0.01947
0.0192182
0.0190448
0.0188625
0.0188618
0.0187687
0.0190182
0.0188067
0.0107388
0.00729126
0.005231
0.00392969
0.00310088
0.00259555
0.00231869
0.00219687
0.00216763
0.00218649
0.00223127
0.00230541
0.00242861
0.00262799
0.00292456
0.00332796
0.0038335
0.00442892
0.00509892
0.00583084
0.00661472
0.00744308
0.0083095
0.00920749
0.0101287
0.0110644
0.0120044
0.0129409
0.0138651
0.0147681
0.0156403
0.0164724
0.0172552
0.0179797
0.0186379
0.0192228
0.019729
0.0201528
0.0204924
0.0207485
0.0209237
0.0210217
0.0210474
0.0210046
0.0209006
0.0207437
0.020545
0.0203119
0.0200573
0.0197845
0.0195117
0.019234
0.0189846
0.018739
0.018571
0.0184007
0.0184055
0.0183309
0.0185834
0.0184068
0.0107407
0.00730053
0.00524619
0.00394472
0.0031077
0.00258826
0.00229779
0.00217055
0.00214965
0.00219048
0.00226538
0.00236986
0.00251759
0.0027332
0.00303918
0.00344865
0.00396061
0.00456464
0.00524558
0.00598954
0.00678514
0.00762369
0.00849793
0.00940079
0.0103234
0.0112557
0.0121887
0.013114
0.0140232
0.014907
0.0157562
0.0165613
0.0173133
0.0180036
0.0186243
0.019169
0.0196326
0.020012
0.0203063
0.0205166
0.0206463
0.0207001
0.0206836
0.0206019
0.020463
0.0202758
0.0200518
0.0197989
0.0195298
0.0192483
0.0189712
0.0186946
0.0184488
0.018212
0.0180516
0.0178958
0.0179081
0.0178544
0.0181116
0.0179733
0.0107422
0.00730876
0.0052601
0.00395913
0.00311506
0.00258188
0.00227567
0.00213752
0.00211699
0.00217181
0.00227146
0.00240473
0.00257854
0.00281334
0.00313137
0.00354829
0.00406665
0.00467841
0.00536904
0.0061238
0.00692994
0.00777749
0.00865823
0.00956442
0.0104864
0.0114135
0.0123371
0.013249
0.0141405
0.0150025
0.0158258
0.0166012
0.0173197
0.017973
0.0185537
0.0190557
0.0194746
0.0198079
0.0200552
0.0202185
0.0203019
0.0203111
0.0202526
0.0201324
0.0199595
0.0197432
0.0194955
0.0192247
0.0189431
0.018655
0.0183761
0.0181031
0.0178635
0.017638
0.0174879
0.0173489
0.0173709
0.0173403
0.017604
0.0175074
0.0107434
0.00731609
0.00527284
0.00397291
0.00312301
0.00257698
0.00225406
0.00210095
0.00207365
0.00213396
0.00225109
0.00240897
0.00260803
0.00286341
0.00319544
0.00362101
0.00414578
0.00476433
0.00546331
0.0062275
0.00704293
0.00789828
0.00878426
0.00969238
0.0106119
0.011532
0.0124443
0.0133405
0.014212
0.0150497
0.0158446
0.0165876
0.01727
0.0178839
0.0184223
0.0188796
0.019252
0.0195375
0.0197366
0.0198521
0.0198889
0.0198535
0.0197533
0.0195956
0.0193898
0.0191461
0.0188765
0.0185897
0.018298
0.0180058
0.0177275
0.0174608
0.01723
0.0170185
0.0168811
0.0167614
0.0167952
0.01679
0.0170623
0.0170105
0.0107444
0.00732265
0.00528452
0.00398606
0.00313152
0.00257388
0.00223422
0.0020635
0.00202358
0.00208118
0.00220736
0.00238345
0.00260442
0.00287973
0.00322643
0.00366127
0.0041922
0.00481643
0.00552218
0.0062942
0.00711747
0.00797934
0.00886932
0.00977806
0.0106936
0.0116051
0.0125043
0.0133828
0.0142321
0.0150433
0.0158074
0.0165157
0.0171599
0.0177323
0.0182264
0.0186372
0.0189615
0.0191981
0.0193483
0.0194156
0.0194058
0.0193262
0.0191852
0.0189912
0.0187541
0.0184848
0.0181954
0.0178951
0.0175957
0.017302
0.0170271
0.0167693
0.01655
0.0163551
0.016233
0.016135
0.0161828
0.0162052
0.016488
0.0164839
0.0107452
0.00732852
0.00529523
0.00399857
0.00314047
0.00257266
0.00221695
0.0020273
0.00197042
0.00201807
0.00214457
0.00233086
0.0025681
0.00286039
0.00322072
0.00366439
0.00420064
0.004829
0.00553955
0.0063174
0.00714678
0.00801367
0.00890635
0.00981443
0.0107246
0.0116261
0.0125106
0.0133697
0.0141949
0.0149776
0.015709
0.0163807
0.0169847
0.0175138
0.017962
0.018325
0.0186002
0.0187872
0.0188881
0.0189073
0.0188514
0.0187285
0.0185481
0.0183194
0.0180531
0.0177604
0.0174538
0.0171425
0.0168381
0.0165456
0.0162767
0.0160305
0.0158254
0.0156498
0.0155454
0.0154716
0.0155355
0.0155876
0.0158829
0.015929
0.0107458
0.00733381
0.00530508
0.00401045
0.00314976
0.00257325
0.0022027
0.00199388
0.00191722
0.00194909
0.00206775
0.00225547
0.00250148
0.00280559
0.0031765
0.0036271
0.00416686
0.00479712
0.00550988
0.006291
0.00712421
0.00799428
0.00888812
0.0097942
0.0106978
0.0115881
0.0124565
0.0132948
0.0140944
0.014847
0.015544
0.0161775
0.0167398
0.0172242
0.0176255
0.0179398
0.0181653
0.0183026
0.0183544
0.0183261
0.018225
0.0180604
0.0178425
0.0175812
0.0172881
0.0169747
0.0166535
0.0163342
0.0160276
0.0157391
0.0154791
0.0152473
0.0150589
0.014905
0.0148209
0.0147734
0.0148556
0.0149394
0.015249
0.0153476
0.0107463
0.0073386
0.00531415
0.00402171
0.00315925
0.00257549
0.0021916
0.00196423
0.00186642
0.00187828
0.00198211
0.00216262
0.00240886
0.00271774
0.00309414
0.00354804
0.00408822
0.00471719
0.00542872
0.00620973
0.00704379
0.00791459
0.00880766
0.00971019
0.010606
0.011484
0.0123352
0.0131514
0.0139243
0.0146455
0.015307
0.015901
0.0164206
0.0168596
0.0172132
0.0174785
0.0176544
0.0177423
0.0177458
0.0176712
0.0175267
0.0173224
0.0170692
0.0167781
0.0164611
0.0161301
0.0157974
0.0154731
0.0151675
0.014886
0.0146376
0.0144227
0.0142537
0.0141239
0.0140622
0.0140431
0.0141456
0.0142628
0.0145887
0.0147415
0.0107467
0.00734295
0.00532253
0.00403236
0.00316883
0.00257915
0.00218359
0.00193891
0.00181974
0.00180903
0.00189263
0.0020582
0.0022959
0.00260131
0.00297637
0.00342817
0.00396418
0.00458744
0.00529324
0.00606974
0.00690069
0.00776897
0.00865869
0.0095557
0.0104424
0.011307
0.0121401
0.0129333
0.0136784
0.0143674
0.0149926
0.0155466
0.0160229
0.016416
0.016722
0.0169386
0.0170655
0.017105
0.0170617
0.0169427
0.0167571
0.0165157
0.0162303
0.0159126
0.015575
0.0152298
0.0148893
0.0145633
0.0142617
0.0139901
0.0137562
0.0135608
0.0134135
0.0133099
0.0132728
0.0132839
0.0134084
0.0135606
0.0139043
0.0141128
0.010747
0.00734693
0.0053303
0.00404243
0.00317838
0.002584
0.00217843
0.00191806
0.00177829
0.00174393
0.00180366
0.00194804
0.00216912
0.00246243
0.00282814
0.00327091
0.00379668
0.00440847
0.00510282
0.00586921
0.00669193
0.00755331
0.00843622
0.00932506
0.010201
0.0110508
0.0118648
0.0126344
0.0133512
0.0140075
0.014596
0.0151097
0.0155428
0.0158904
0.0161493
0.0163181
0.0163974
0.0163903
0.0163023
0.0161415
0.0159177
0.0156427
0.0153287
0.0149883
0.014634
0.0142785
0.0139337
0.0136096
0.0133154
0.0130567
0.0128399
0.0126663
0.0125429
0.0124673
0.0124566
0.0124993
0.0126474
0.0128357
0.0131988
0.0134638
0.0107473
0.0073506
0.00533752
0.00405196
0.00318783
0.00258979
0.00217582
0.0019016
0.00174262
0.00168477
0.00171872
0.00183746
0.00203519
0.00230829
0.00265624
0.00308206
0.00359025
0.00418357
0.0048595
0.0056089
0.00641692
0.00726573
0.00813718
0.00901427
0.00987707
0.0107105
0.0115044
0.0122495
0.0129377
0.0135612
0.014113
0.0145869
0.0149774
0.0152804
0.0154935
0.015616
0.0156497
0.0155985
0.0154689
0.0152696
0.0150115
0.0147069
0.0143687
0.0140098
0.0136433
0.0132817
0.0129368
0.0126183
0.0123348
0.0120919
0.0118946
0.0117449
0.0116472
0.0116011
0.0116181
0.0116935
0.0118665
0.0120915
0.0124752
0.0127971
0.0107475
0.00735399
0.00534426
0.00406097
0.00319711
0.00259629
0.0021754
0.0018892
0.00171285
0.00163262
0.00164038
0.00173092
0.00190038
0.00214642
0.00246869
0.00286937
0.00335193
0.00391882
0.0045683
0.00529261
0.0060781
0.00690722
0.00776117
0.00862167
0.00946799
0.0102829
0.0110551
0.0117751
0.0124343
0.0130251
0.0135409
0.0139756
0.0143247
0.0145847
0.0147539
0.0148327
0.0148237
0.0147317
0.0145641
0.0143306
0.0140427
0.0137133
0.0133558
0.0129836
0.0126098
0.0122467
0.0119059
0.0115968
0.0113273
0.0111029
0.0109275
0.0108033
0.0107326
0.010717
0.0107627
0.0108713
0.01107
0.0113319
0.011737
0.0121156
0.0107476
0.00735716
0.00535058
0.0040695
0.00320616
0.00260331
0.0021768
0.00188045
0.00168877
0.00158791
0.00157028
0.0016318
0.00177005
0.00198401
0.00227395
0.00264188
0.00309077