/*--------------------------------*- C++ -*----------------------------------*\
| =========                 |                                                 |
| \\      /  F ield         | OpenFOAM: The Open Source CFD Toolbox           |
|  \\    /   O peration     | Version:  2.4.0                                 |
|   \\  /    A nd           | Web:      www.OpenFOAM.org                      |
|    \\/     M anipulation  |                                                 |
\*---------------------------------------------------------------------------*/
FoamFile
{
    version     2.0;
    format      ascii;
    class       volVectorField;
    location    "265";
    object      U;
}
// * * * * * * * * * * * * * * * * * * * * * * * * * * * * * * * * * * * * * //

dimensions      [0 1 -1 0 0 0 0];

internalField   nonuniform List<vector> 
6000
(
(0.715352 -0.049011 -4.92632e-17)
(0.237145 -0.0438722 0)
(-0.00433445 -0.00275184 1.99283e-16)
(-0.0797287 0.0169157 0)
(-0.0809453 0.0155 0)
(-0.081218 0.0151085 0)
(-0.080275 0.0145249 1.14754e-16)
(-0.0805637 0.0141912 5.05314e-21)
(-0.0838039 0.014493 0)
(-0.0917947 0.0154687 0)
(-0.102981 0.0165184 1.023e-16)
(-0.113173 0.0168345 -1.94156e-16)
(-0.117651 0.0158256 0)
(-0.112886 0.0133478 0)
(-0.0956321 0.00920907 -4.70191e-17)
(-0.0650367 0.00364497 0)
(-0.0240063 -0.00216822 0)
(0.0248733 -0.00663514 -6.40192e-17)
(0.0528998 -0.00722964 -6.25295e-17)
(0.0698651 -0.00681655 0)
(0.0708635 -0.00523642 6.53412e-17)
(0.0655292 -0.00209584 3.58167e-17)
(0.0150727 0.00521258 -3.74316e-17)
(-0.0770279 0.0112792 0)
(-0.150407 0.0120717 0)
(-0.212655 0.0114899 0)
(-0.262997 0.00987082 5.90728e-18)
(-0.302932 0.00754517 -5.03788e-18)
(-0.333378 0.00469372 0)
(-0.355167 0.00150512 0)
(-0.368924 -0.00186516 4.99675e-19)
(-0.375177 -0.00525747 0)
(-0.374455 -0.00853223 4.03996e-18)
(-0.367095 -0.0115598 -4.20392e-18)
(-0.353444 -0.0142207 0)
(-0.333678 -0.0163949 0)
(-0.307744 -0.0179579 1.06189e-17)
(-0.275148 -0.0187774 0)
(-0.235099 -0.0186962 1.33582e-17)
(-0.18702 -0.0174853 0)
(-0.13086 -0.0151401 0)
(-0.0662925 -0.0117499 4.39211e-17)
(0.0117191 -0.00521085 -1.00189e-16)
(0.0787958 0.00293295 0)
(0.141179 0.0111633 0)
(0.197272 0.0195358 4.37795e-17)
(0.245592 0.0278118 0)
(0.285667 0.0356862 0)
(0.316981 0.0429468 -8.01414e-17)
(0.341205 0.0494525 -7.92104e-17)
(0.358894 0.0553234 -7.86075e-17)
(0.374147 0.0606457 -4.72945e-20)
(0.384663 0.0658687 7.50383e-17)
(0.398404 0.0706836 0)
(0.403351 0.0759966 -5.38137e-20)
(0.427856 0.0815576 -6.38699e-17)
(0.427895 0.08855 5.35783e-17)
(0.501951 0.100336 4.95883e-17)
(0.487262 0.111059 9.67057e-20)
(0.720543 0.146472 0)
(0.741787 -0.124078 2.66164e-17)
(0.337708 -0.060079 1.92093e-17)
(0.0852493 -0.00492879 -4.82223e-17)
(-0.0535124 0.0177627 -6.6217e-17)
(-0.0822837 0.0176256 0)
(-0.0871297 0.01715 0)
(-0.0877598 0.0165583 -4.88013e-17)
(-0.0890276 0.0162782 9.42615e-17)
(-0.0930924 0.0167664 0)
(-0.101358 0.0179455 0)
(-0.111808 0.0189827 -4.38734e-17)
(-0.120244 0.0189356 4.19501e-17)
(-0.122314 0.0171625 2.01845e-17)
(-0.114855 0.0136013 0)
(-0.0951402 0.00817601 1.87726e-17)
(-0.0629988 0.00118952 0)
(-0.0209332 -0.00547783 0)
(0.0252502 -0.00957051 0)
(0.0543015 -0.00941651 0)
(0.0706205 -0.00776504 0)
(0.0684121 -0.00427112 6.95599e-21)
(0.0518665 0.0027085 0)
(-0.0278647 0.014391 -1.59151e-17)
(-0.114641 0.0201631 0)
(-0.188654 0.0203967 0)
(-0.249828 0.0190402 4.10295e-18)
(-0.29841 0.0164685 -3.47169e-18)
(-0.33566 0.0130684 1.54795e-21)
(-0.362756 0.00907813 1.35577e-18)
(-0.380702 0.00473479 0)
(-0.390241 0.000216252 -2.99245e-19)
(-0.391967 -0.00427798 -1.17047e-18)
(-0.386419 -0.00858436 -3.21531e-21)
(-0.374243 -0.0125306 2.335e-18)
(-0.35579 -0.0160026 -2.391e-18)
(-0.331214 -0.0188854 0)
(-0.300459 -0.021063 0)
(-0.26303 -0.0224109 0)
(-0.218165 -0.0227591 0)
(-0.165317 -0.0217741 0)
(-0.104315 -0.0194635 -1.3781e-17)
(-0.0332498 -0.0155881 0)
(0.0429373 -0.00844841 1.63296e-17)
(0.110318 0.00067649 1.7127e-17)
(0.174214 0.0101766 0)
(0.231929 0.0200736 0)
(0.282132 0.0300693 0)
(0.324472 0.039736 0)
(0.35882 0.0488564 4.29257e-17)
(0.386734 0.057139 0)
(0.408644 0.0648476 0)
(0.427591 0.071669 -4.66903e-17)
(0.440039 0.0783748 -4.49468e-17)
(0.453082 0.0836145 0)
(0.454482 0.0896015 -7.56371e-17)
(0.474112 0.0936669 0)
(0.474745 0.102394 -5.599e-17)
(0.548569 0.112005 -2.45184e-17)
(0.547229 0.128512 1.36723e-17)
(0.769875 0.159141 1.74599e-17)
(0.764721 -0.117926 -1.26169e-18)
(0.407323 -0.0577676 -1.41099e-17)
(0.158244 -0.00758042 0)
(-0.0058691 0.0150569 4.32865e-17)
(-0.0704632 0.01734 0)
(-0.0826131 0.0167029 0)
(-0.0857125 0.0163811 0)
(-0.0881842 0.0164081 -2.59145e-17)
(-0.0928575 0.0172403 0)
(-0.101122 0.0186438 -2.47352e-17)
(-0.110959 0.0195733 0)
(-0.118409 0.0190296 0)
(-0.11949 0.0164306 -1.11327e-17)
(-0.111355 0.0118492 0)
(-0.0915008 0.00538625 0)
(-0.0601815 -0.00254187 0)
(-0.0198926 -0.00944984 0)
(0.0229982 -0.0126662 0)
(0.0513096 -0.0112771 0)
(0.0658093 -0.00790751 1.6656e-17)
(0.0597972 -0.00176935 -1.86919e-17)
(0.0284877 0.0105022 0)
(-0.0586484 0.025049 -3.35116e-21)
(-0.139351 0.0299678 -7.83723e-18)
(-0.2086 0.0286907 0)
(-0.264943 0.0256067 -5.38137e-18)
(-0.309203 0.0214426 0)
(-0.342649 0.0166455 1.99402e-18)
(-0.366437 0.0114429 -8.92414e-19)
(-0.381489 0.00605096 0)
(-0.388448 0.000611673 0)
(-0.387812 -0.00468551 7.5463e-19)
(-0.380139 -0.00968125 -2.37951e-21)
(-0.365938 -0.0142209 0)
(-0.345496 -0.0182196 2.97602e-18)
(-0.31893 -0.0215829 0)
(-0.286165 -0.0242224 3.14266e-18)
(-0.246699 -0.0260412 0)
(-0.199806 -0.0268756 0)
(-0.144948 -0.0263537 0)
(-0.0817743 -0.024564 7.89948e-18)
(-0.00838402 -0.0205697 0)
(0.0638788 -0.0130453 0)
(0.131095 -0.00335807 -9.78903e-18)
(0.194669 0.00679713 0)
(0.251989 0.0174854 0)
(0.301785 0.0283469 1.19117e-17)
(0.343771 0.038865 -1.27256e-17)
(0.377952 0.0487983 -1.35986e-17)
(0.405812 0.0577387 0)
(0.427528 0.0660551 0)
(0.445122 0.0731138 0)
(0.454267 0.0800506 2.773e-17)
(0.461289 0.0843591 2.48275e-17)
(0.457887 0.0901441 2.16259e-17)
(0.474432 0.0921493 0)
(0.478311 0.101972 1.52771e-17)
(0.555284 0.108784 2.66052e-17)
(0.564662 0.129611 0)
(0.780477 0.151133 -9.75479e-18)
(0.78364 -0.0980445 -8.96909e-19)
(0.45862 -0.0529102 1.1259e-17)
(0.219473 -0.0081417 -2.49122e-17)
(0.0482202 0.0126641 0)
(-0.0513984 0.0169364 0)
(-0.0746978 0.015986 0)
(-0.0810924 0.015848 0)
(-0.0849635 0.0161775 0)
(-0.0902229 0.0173489 0)
(-0.0985031 0.0189811 1.67096e-17)
(-0.107958 0.0198358 1.61844e-17)
(-0.114885 0.0188588 0)
(-0.115582 0.0155196 0)
(-0.107418 0.00997019 0)
(-0.0880909 0.00249177 7.30478e-18)
(-0.0581909 -0.00633963 0)
(-0.0204679 -0.013498 7.98165e-18)
(0.0193404 -0.015854 -9.25538e-18)
(0.0465467 -0.0130364 0)
(0.0590454 -0.00764258 -1.25889e-17)
(0.0486155 0.00181873 0)
(0.00298161 0.0194997 -7.6426e-18)
(-0.0821101 0.0357096 1.36836e-17)
(-0.15627 0.0390993 5.63503e-18)
(-0.219766 0.0361423 0)
(-0.271284 0.0313981 1.93673e-18)
(-0.311791 0.0258005 0)
(-0.342318 0.0197765 1.44167e-18)
(-0.363791 0.0135071 0)
(-0.376944 0.00717081 0)
(-0.382279 0.000874728 0)
(-0.380189 -0.00519667 5.52402e-19)
(-0.371204 -0.010888 -2.16351e-18)
(-0.355735 -0.0160567 0)
(-0.334026 -0.0206365 -1.09266e-18)
(-0.306164 -0.0245501 0)
(-0.27206 -0.0277372 -2.29997e-18)
(-0.231217 -0.0301293 0)
(-0.182941 -0.0315681 0)
(-0.126705 -0.0316707 0)
(-0.0619093 -0.0305446 5.72823e-18)
(0.0117145 -0.0265885 0)
(0.0811474 -0.0186271 6.59949e-18)
(0.147886 -0.0083919 -7.10679e-18)
(0.210734 0.00247706 0)
(0.267214 0.0140028 -8.15412e-18)
(0.31608 0.0257433 -1.74516e-17)
(0.357067 0.0370896 9.32824e-18)
(0.3902 0.0477493 1.98651e-17)
(0.416807 0.0572258 -2.09005e-17)
(0.436645 0.0659397 -2.13863e-17)
(0.450854 0.0730594 0)
(0.455108 0.0799033 -1.81496e-17)
(0.456797 0.0834584 -1.58461e-17)
(0.450287 0.0886752 -1.36065e-17)
(0.467045 0.0894802 0)
(0.474823 0.0993307 0)
(0.556062 0.104897 -8.37282e-18)
(0.572381 0.127032 0)
(0.784875 0.14387 6.16772e-18)
(0.798856 -0.0800792 -7.40715e-19)
(0.499193 -0.0475885 -1.10457e-19)
(0.271935 -0.00696721 2.10461e-17)
(0.10044 0.0117514 2.77892e-17)
(-0.022694 0.0164769 0)
(-0.0636807 0.0153987 -1.93691e-17)
(-0.0747292 0.0152301 0)
(-0.0803908 0.0158217 0)
(-0.0863573 0.0173106 0)
(-0.0947448 0.0191682 1.29738e-17)
(-0.103998 0.0199721 -1.25245e-17)
(-0.11068 0.0186081 0)
(-0.11133 0.0145918 0)
(-0.103499 0.00814243 0)
(-0.0850973 -0.000276195 -5.86797e-18)
(-0.0569729 -0.00989047 0)
(-0.0222165 -0.0172532 -6.59647e-18)
(0.0144594 -0.0188626 7.69918e-18)
(0.0403393 -0.0145946 0)
(0.0506542 -0.00689779 0)
(0.0348424 0.00643302 6.08623e-18)
(-0.02159 0.0289149 6.27379e-18)
(-0.100377 0.0454478 -1.07143e-17)
(-0.168006 0.0472785 -4.37858e-18)
(-0.225977 0.0428125 0)
(-0.27328 0.0366247 1.50935e-18)
(-0.310704 0.0297703 0)
(-0.338933 0.0226413 -1.14392e-18)
(-0.35863 0.0153822 5.18063e-19)
(-0.370355 0.00814426 0)
(-0.374485 0.00101035 0)
(-0.371331 -0.00583199 -9.01337e-19)
(-0.361388 -0.0122252 8.85548e-19)
(-0.344997 -0.0180409 0)
(-0.322365 -0.0232274 -8.94753e-19)
(-0.293551 -0.0277233 0)
(-0.258454 -0.0314949 1.88183e-18)
(-0.216587 -0.0345007 0)
(-0.167295 -0.0365868 0)
(-0.110051 -0.0373835 0)
(-0.04398 -0.0368576 -4.69754e-18)
(0.0284134 -0.0329002 -5.04185e-18)
(0.0960608 -0.0244896 -5.40261e-18)
(0.162195 -0.0137705 8.21018e-21)
(0.224218 -0.00218923 -6.227e-18)
(0.279762 0.0101729 6.66612e-18)
(0.327582 0.0227826 1.42144e-17)
(0.367405 0.0349397 0)
(0.39921 0.0462936 -8.00076e-18)
(0.424095 0.0562815 1.66028e-17)
(0.441313 0.0653505 1.65304e-17)
(0.451449 0.0725442 0)
(0.450833 0.0792559 0)
(0.448424 0.0822155 0)
(0.440334 0.0867561 9.84216e-18)
(0.459018 0.086695 0)
(0.47109 0.0961563 0)
(0.55647 0.101017 6.08414e-18)
(0.578034 0.12328 -3.17736e-18)
(0.788328 0.137235 -4.57241e-18)
(0.811741 -0.0646187 -6.47289e-19)
(0.533156 -0.0416522 -8.76936e-18)
(0.317703 -0.00456809 0)
(0.149624 0.0122093 -2.4101e-17)
(0.0131941 0.0161635 -2.32016e-17)
(-0.0489235 0.0150964 -5.40085e-21)
(-0.0666029 0.0146264 0)
(-0.0746333 0.0154041 0)
(-0.0815242 0.0171776 0)
(-0.0901485 0.0192502 -1.0919e-17)
(-0.0993571 0.0200219 0)
(-0.106005 0.0183156 0)
(-0.106855 0.0136886 5.06942e-18)
(-0.0996279 0.00642455 0)
(-0.0824538 -0.0028328 0)
(-0.0563741 -0.0130898 0)
(-0.0247532 -0.0205983 0)
(0.00853779 -0.021559 -6.80331e-18)
(0.0328719 -0.0158688 0)
(0.0407364 -0.00558512 9.92221e-18)
(0.0182441 0.0120803 -5.39549e-18)
(-0.0429029 0.0379546 -5.29743e-18)
(-0.114612 0.0541439 8.81702e-18)
(-0.176002 0.054573 7.17152e-18)
(-0.228956 0.0488081 0)
(-0.272611 0.0413794 -1.25021e-18)
(-0.307423 0.0334135 0)
(-0.333731 0.0252742 0)
(-0.351961 0.017087 -8.83899e-19)
(-0.362526 0.0089868 0)
(-0.365702 0.00103952 0)
(-0.361729 -0.00655983 7.83608e-19)
(-0.351067 -0.0136494 0)
(-0.334001 -0.0201157 0)
(-0.310699 -0.0259197 7.84863e-19)
(-0.281193 -0.0310146 0)
(-0.245372 -0.0353906 -1.6495e-18)
(-0.202757 -0.0390311 0)
(-0.152742 -0.0417879 0)
(-0.0947859 -0.0433261 0)
(-0.0277675 -0.0432758 0)
(0.0424094 -0.0392631 4.38052e-18)
(0.109075 -0.0304488 4.69709e-18)
(0.174556 -0.0192853 6.54313e-21)
(0.235747 -0.00700007 5.42241e-18)
(0.290358 0.00619278 5.78107e-18)
(0.33713 0.0196651 -6.15862e-18)
(0.375755 0.0326281 0)
(0.40611 0.0446722 -6.82621e-18)
(0.428995 0.0551856 6.96853e-18)
(0.443154 0.0646214 -1.34764e-17)
(0.449028 0.0719351 0)
(0.44395 0.0785046 0)
(0.438495 0.0809329 -9.12548e-18)
(0.430101 0.0847179 -7.81487e-18)
(0.45181 0.0839351 6.86725e-18)
(0.468386 0.0927999 5.31986e-18)
(0.557529 0.0972024 -4.90388e-18)
(0.583409 0.119015 2.50869e-18)
(0.791785 0.13106 0)
(0.823252 -0.0503336 -5.71429e-19)
(0.562652 -0.035202 0)
(0.358211 -0.00139956 1.65733e-17)
(0.195444 0.0136594 2.15161e-17)
(0.0529444 0.0163428 -4.74142e-21)
(-0.0293701 0.0150731 1.70309e-17)
(-0.0564718 0.0141262 0)
(-0.0676602 0.0149631 0)
(-0.0757792 0.0169786 0)
(-0.0848013 0.0192528 4.83119e-18)
(-0.0941162 0.0200083 4.62841e-18)
(-0.100907 0.0180007 0)
(-0.102164 0.0128244 -4.50727e-18)
(-0.0957582 0.00482626 4.45794e-18)
(-0.0800497 -0.00517217 0)
(-0.0562187 -0.0159488 0)
(-0.0278051 -0.0235415 0)
(0.00189969 -0.023924 3.90196e-22)
(0.0243452 -0.0168299 0)
(0.029369 -0.00369738 -1.88503e-17)
(0.00041211 0.0183241 4.92197e-18)
(-0.060862 0.0464249 4.58746e-18)
(-0.125544 0.0618889 -3.99658e-21)
(-0.18112 0.0610965 -3.04549e-18)
(-0.22958 0.0542292 0)
(-0.270029 0.0457311 0)
(-0.302556 0.0367721 0)
(-0.327188 0.0277011 4.24198e-19)
(-0.344153 0.0186392 7.85386e-19)
(-0.353741 0.00971355 0)
(-0.356143 0.000978296 0)
(-0.35154 -0.00736172 -7.0972e-19)
(-0.340354 -0.0151389 -3.50363e-19)
(-0.322819 -0.0222556 0)
(-0.299068 -0.0286839 0)
(-0.269101 -0.0343904 0)
(-0.232794 -0.0393872 0)
(-0.189677 -0.0436787 0)
(-0.139197 -0.0471256 0)
(-0.0807938 -0.049433 0)
(-0.0134603 -0.0497562 0)
(0.0544754 -0.0456223 0)
(0.120459 -0.0364861 -5.30424e-21)
(0.185269 -0.024892 4.57679e-18)
(0.245647 -0.0119068 0)
(0.299361 0.00211577 -1.04375e-17)
(0.345117 0.0164524 -5.53369e-18)
(0.382545 0.0302284 0)
(0.411369 0.0429788 6.06039e-18)
(0.432043 0.0540544 -6.0813e-18)
(0.442862 0.0638951 1.14348e-17)
(0.444522 0.0713709 -1.0054e-17)
(0.43549 0.0777809 0)
(0.427963 0.0796828 4.31808e-21)
(0.420409 0.0826471 6.60183e-18)
(0.445899 0.081202 -1.16299e-17)
(0.467002 0.089374 -1.59903e-20)
(0.55947 0.0934335 -4.17595e-18)
(0.588974 0.114532 2.06091e-18)
(0.795494 0.125199 3.15996e-18)
(0.833806 -0.0368059 -5.39125e-18)
(0.588866 -0.0285105 0)
(0.3945 0.00224804 -8.6421e-20)
(0.237956 0.0158199 -3.18874e-20)
(0.0935383 0.0172299 2.02649e-17)
(-0.00435634 0.0153071 1.64819e-17)
(-0.0439541 0.0138319 0)
(-0.0593596 0.0145397 1.07377e-17)
(-0.0691034 0.0167388 0)
(-0.0787174 0.0191971 -4.41754e-18)
(-0.0882892 0.0199504 -2.75507e-22)
(-0.0953823 0.0176807 -4.11341e-18)
(-0.0972222 0.0120118 0)
(-0.0918165 0.00335402 -8.20291e-18)
(-0.0777537 -0.00729647 0)
(-0.0563123 -0.0184909 0)
(-0.0311113 -0.0261072 0)
(-0.00509933 -0.0259607 5.81928e-18)
(0.0149871 -0.0174573 0)
(0.0167115 -0.00127968 9.05173e-18)
(-0.0170607 0.0247891 -9.09105e-18)
(-0.0757034 0.0541915 0)
(-0.133678 0.0687723 -3.90387e-21)
(-0.18391 0.0669426 0)
(-0.228342 0.0591536 0)
(-0.265926 0.0497331 -9.55559e-19)
(-0.296399 0.0398818 0)
(-0.319525 0.0299476 -7.69422e-19)
(-0.335367 0.0200594 -3.59397e-19)
(-0.344115 0.0103432 -8.58333e-20)
(-0.345883 0.000845381 8.43653e-20)
(-0.340803 -0.00821815 3.30942e-19)
(-0.329259 -0.016673 6.55862e-19)
(-0.311444 -0.024438 0)
(-0.287448 -0.0314959 6.712e-19)
(-0.257237 -0.0378255 0)
(-0.220669 -0.0434583 0)
(-0.177277 -0.0484155 0)
(-0.126572 -0.0525699 1.5079e-18)
(-0.0679574 -0.0556472 0)
(-0.000962036 -0.0562703 0)
(0.0650318 -0.0519738 3.66048e-18)
(0.130427 -0.0425946 -3.94547e-18)
(0.194553 -0.0305724 0)
(0.254143 -0.0168883 0)
(0.306997 -0.00203327 4.83212e-18)
(0.351773 0.0131753 5.11291e-18)
(0.388011 0.0277812 -5.35291e-18)
(0.415232 0.0412687 0)
(0.433515 0.0529576 0)
(0.440836 0.0632503 0)
(0.438455 0.070918 5.54297e-21)
(0.426037 0.0771351 0)
(0.417404 0.0784828 6.77281e-18)
(0.411721 0.0805687 0)
(0.441478 0.0784861 5.11799e-18)
(0.466985 0.0859177 -3.9639e-18)
(0.562318 0.0896997 7.43102e-18)
(0.594903 0.109945 -1.81686e-18)
(0.799521 0.119576 -2.83845e-18)
(0.843589 -0.024012 4.56118e-19)
(0.61254 -0.0217573 -6.93966e-18)
(0.427348 0.00620246 -1.42312e-17)
(0.277369 0.0185007 -3.48018e-20)
(0.133835 0.0188113 -1.92126e-17)
(0.0250935 0.0158985 -1.61349e-17)
(-0.0285282 0.013804 0)
(-0.049562 0.0141851 -1.03181e-17)
(-0.0614392 0.0164837 0)
(-0.071878 0.0191015 -4.13465e-18)
(-0.0818617 0.0198642 -3.92773e-18)
(-0.089404 0.0173693 3.83526e-18)
(-0.0919771 0.0112612 -3.8578e-18)
(-0.0877161 0.00201269 3.84491e-18)
(-0.0754253 -0.0092092 -3.94449e-18)
(-0.0564532 -0.0207365 4.1934e-18)
(-0.0344244 -0.0283178 0)
(-0.0121009 -0.0276724 0)
(0.00505473 -0.0177379 0)
(0.0031334 0.00167206 4.33812e-18)
(-0.032937 0.0310442 4.19206e-18)
(-0.0876827 0.0611997 0)
(-0.139385 0.0748699 -2.89417e-18)
(-0.184743 0.072186 0)
(-0.225543 0.0636393 0)
(-0.260524 0.053424 8.69373e-19)
(-0.289111 0.0427683 -7.75073e-19)
(-0.310852 0.0320325 3.56247e-19)
(-0.325674 0.0213632 0)
(-0.333683 0.0108905 1.61619e-19)
(-0.334926 0.000656488 -1.60107e-19)
(-0.329496 -0.00911157 0)
(-0.317741 -0.0182319 -3.13384e-19)
(-0.299815 -0.0266403 6.31802e-19)
(-0.275766 -0.0343304 -6.45242e-19)
(-0.245522 -0.0412928 0)
(-0.20891 -0.0475754 0)
(-0.165463 -0.0532114 0)
(-0.114754 -0.0580896 -1.43672e-18)
(-0.0561416 -0.0619097 0)
(0.00994496 -0.0627836 0)
(0.0743581 -0.0583171 -3.45959e-18)
(0.13917 -0.0487569 0)
(0.202599 -0.0363071 3.99963e-18)
(0.261417 -0.0219253 -4.27653e-18)
(0.313439 -0.00623468 0)
(0.357261 0.00985639 4.79688e-18)
(0.392306 0.0253151 1.00067e-17)
(0.417849 0.0395806 -5.08338e-18)
(0.433588 0.051941 0)
(0.43735 0.0627328 0)
(0.43119 0.0706056 3.90416e-18)
(0.416014 0.0765804 0)
(0.407247 0.0773265 6.09434e-18)
(0.404339 0.0784825 0)
(0.438613 0.0757726 4.61645e-18)
(0.468291 0.0824454 3.5672e-18)
(0.56603 0.0859928 -3.39521e-18)
(0.601239 0.105313 0)
(0.803873 0.114146 2.59121e-18)
(0.852718 -0.0119343 3.20559e-18)
(0.634177 -0.0150235 3.19841e-20)
(0.457344 0.0103538 1.32864e-17)
(0.313942 0.0215585 -3.69431e-20)
(0.173144 0.0209714 3.60168e-21)
(0.0571704 0.0169723 0)
(-0.00944881 0.0140687 0)
(-0.0380323 0.013967 0)
(-0.0526991 0.0162423 -4.33431e-18)
(-0.0642437 0.0189834 7.86956e-18)
(-0.0748029 0.0197626 0)
(-0.082932 0.0170773 3.62928e-18)
(-0.0863682 0.0105799 2.7663e-21)
(-0.083365 0.000803997 -3.64477e-18)
(-0.0729243 -0.010917 4.22947e-21)
(-0.056445 -0.0227055 -3.98906e-18)
(-0.0375155 -0.0301975 0)
(-0.0187909 -0.0290491 0)
(-0.0051256 -0.017642 0)
(-0.0104551 0.0048516 -4.14749e-18)
(-0.0468347 0.0369645 0)
(-0.0970423 0.0674502 3.26652e-18)
(-0.142952 0.0802525 2.59929e-18)
(-0.183879 0.0768893 -2.13563e-18)
(-0.221378 0.0677314 0)
(-0.25396 0.0568321 0)
(-0.280785 0.0454496 7.23544e-19)
(-0.301226 0.0339687 0)
(-0.315098 0.0225615 3.16369e-19)
(-0.322439 0.0113663 -7.72238e-20)
(-0.323235 0.000423985 7.71198e-20)
(-0.317558 -0.0100268 -3.02814e-19)
(-0.305716 -0.019797 0)
(-0.287831 -0.02884 -6.16273e-19)
(-0.263912 -0.0371613 0)
(-0.233838 -0.0447633 0)
(-0.197398 -0.0517081 1.314e-18)
(-0.154109 -0.0580347 0)
(-0.103607 -0.063653 0)
(-0.045192 -0.0681666 0)
(0.0195214 -0.0692612 0)
(0.0826768 -0.0646504 0)
(0.146872 -0.0549519 0)
(0.209582 -0.0420755 -7.64777e-18)
(0.267628 -0.0269988 4.08913e-18)
(0.318831 -0.0104703 4.33703e-18)
(0.36171 0.00651487 -9.13186e-18)
(0.395545 0.0228539 -4.7345e-18)
(0.419327 0.0379457 4.75947e-18)
(0.432399 0.051038 -4.54695e-18)
(0.432622 0.0623696 0)
(0.423016 0.070443 1.61511e-21)
(0.405778 0.0761107 -6.25658e-18)
(0.397844 0.0761953 -5.58575e-18)
(0.398451 0.0763767 -4.74954e-18)
(0.437293 0.073046 -8.49725e-18)
(0.470832 0.0789659 -3.29488e-18)
(0.570538 0.0823064 3.1485e-18)
(0.607977 0.100666 1.48197e-18)
(0.808533 0.108876 -2.43302e-18)
(0.861278 -0.000523344 -3.75922e-19)
(0.654133 -0.00834961 6.31044e-18)
(0.484943 0.0146257 -7.51186e-20)
(0.347938 0.0248819 -3.8414e-20)
(0.211063 0.0235987 1.76514e-17)
(0.0908327 0.0185715 1.54708e-17)
(0.0131259 0.0146706 -1.23786e-17)
(-0.0244586 0.0139487 4.98271e-18)
(-0.0427661 0.0160499 -1.45352e-21)
(-0.0557591 0.0188612 -3.7928e-18)
(-0.0670714 0.019658 -3.56827e-18)
(-0.0759185 0.0168137 -3.47687e-18)
(-0.0803314 0.00997301 7.00596e-18)
(-0.0786718 -0.000272998 3.70784e-21)
(-0.0701188 -0.0124295 3.58268e-18)
(-0.0561086 -0.0244186 0)
(-0.0401774 -0.031772 4.22992e-18)
(-0.0249599 -0.0301043 0)
(-0.0150571 -0.0171928 -6.43227e-18)
(-0.0232483 0.00809736 -3.96045e-18)
(-0.058578 0.0424289 -3.61565e-18)
(-0.104 0.0729697 8.6686e-22)
(-0.144603 0.0849866 -2.3685e-18)
(-0.181506 0.0811054 1.96329e-18)
(-0.215981 0.0714651 0)
(-0.246324 0.0599782 -7.47597e-19)
(-0.271477 0.0479382 0)
(-0.290672 0.0357647 0)
(-0.303636 0.0236613 -3.03709e-19)
(-0.310353 0.0117777 0)
(-0.310753 0.000156807 0)
(-0.304904 -0.0109517 2.96472e-19)
(-0.293074 -0.0213519 0)
(-0.275364 -0.0310158 0)
(-0.251741 -0.0399628 6.20958e-19)
(-0.222035 -0.0482076 0)
(-0.185982 -0.0558251 -1.30097e-18)
(-0.143069 -0.0628539 0)
(-0.0929757 -0.0692288 1.35108e-18)
(-0.03494 -0.0743742 0)
(0.0280293 -0.0756702 0)
(0.0901833 -0.070969 0)
(0.153708 -0.0611573 0)
(0.215664 -0.0478573 3.68884e-18)
(0.272922 -0.0320902 0)
(0.323299 -0.0147228 -8.35595e-18)
(0.365226 0.00316884 4.38603e-18)
(0.397817 0.020419 -4.51216e-18)
(0.419752 0.0363905 4.48531e-18)
(0.430062 0.0502734 4.23907e-18)
(0.42684 0.0621753 0)
(0.414192 0.0704267 3.28956e-18)
(0.395651 0.0757081 8.71028e-18)
(0.389477 0.0750638 -5.17851e-18)
(0.394161 0.074235 4.41263e-18)
(0.437461 0.0702962 3.96276e-18)
(0.474502 0.0754783 0)
(0.575762 0.0786355 -2.9761e-18)
(0.615087 0.0960223 -2.77967e-18)
(0.813479 0.103745 0)
(0.869329 0.0102716 -1.54857e-18)
(0.672663 -0.00176217 0)
(0.510499 0.0189644 -7.12871e-20)
(0.379609 0.028386 -3.93158e-20)
(0.247374 0.0265915 -1.70091e-17)
(0.12529 0.0206616 -3.05505e-17)
(0.038512 0.0156797 2.46227e-17)
(-0.00842419 0.0141753 -4.95481e-18)
(-0.0314856 0.0159516 4.15324e-18)
(-0.0463533 0.0187557 0)
(-0.0586169 0.0195624 1.72091e-22)
(-0.0683106 0.0165863 0)
(-0.0737988 0.00944399 -6.75783e-18)
(-0.0735501 -0.00122093 3.36442e-18)
(-0.0668914 -0.0137578 0)
(-0.0552896 -0.0258963 0)
(-0.0422285 -0.0330666 -4.05332e-18)
(-0.0303829 -0.030844 0)
(-0.0242324 -0.016469 6.17608e-18)
(-0.0346683 0.0112926 3.75428e-18)
(-0.06811 0.0473753 -5.51808e-21)
(-0.108749 0.0777996 -2.72153e-18)
(-0.144522 0.0891339 -2.17453e-18)
(-0.177766 0.0848802 0)
(-0.209447 0.0748688 0)
(-0.237675 0.0628783 7.07449e-19)
(-0.261219 0.0502428 0)
(-0.279201 0.0374254 3.0323e-19)
(-0.291276 0.0246664 -2.92058e-19)
(-0.297386 0.012129 7.2206e-20)
(-0.297413 -0.000139576 -7.32912e-20)
(-0.29144 -0.0118769 2.90996e-19)
(-0.279696 -0.022883 -2.94417e-19)
(-0.262268 -0.0331488 6.02964e-19)
(-0.23909 -0.0427101 -6.2184e-19)
(-0.209939 -0.0515962 0)
(-0.17449 -0.059894 0)
(-0.132176 -0.0676365 0)
(-0.0826954 -0.0747831 -3.31949e-21)
(-0.0252633 -0.0805001 1.37833e-18)
(0.0357601 -0.0819834 0)
(0.097055 -0.0772626 0)
(0.159842 -0.0673518 0)
(0.220995 -0.0536324 0)
(0.27743 -0.0371811 0)
(0.326955 -0.018975 4.46285e-21)
(0.367903 -0.000164243 0)
(0.3992 0.0180305 8.67047e-18)
(0.419201 0.0349387 -8.52353e-18)
(0.426687 0.0496668 -3.97593e-18)
(0.420178 0.0621551 0)
(0.404962 0.0705429 0)
(0.38593 0.0753469 -5.44044e-18)
(0.382369 0.0739038 2.79241e-21)
(0.391501 0.0720407 -4.13253e-18)
(0.439022 0.0675124 3.72837e-18)
(0.479188 0.071982 2.90028e-18)
(0.581622 0.0749759 -2.82671e-18)
(0.622532 0.0913899 2.62319e-18)
(0.818681 0.098733 2.19648e-18)
(0.876917 0.020493 3.16509e-19)
(0.68996 0.00472016 -5.84003e-18)
(0.534291 0.0233322 -2.29699e-17)
(0.409187 0.0320072 -3.97483e-20)
(0.281977 0.0298607 1.64396e-17)
(0.15993 0.0231874 1.51503e-17)
(0.0660651 0.0171308 -6.13133e-18)
(0.0101846 0.0146943 0)
(-0.0186559 0.0159946 0)
(-0.0359377 0.0186918 3.62821e-18)
(-0.049381 0.0194884 3.37274e-18)
(-0.0600514 0.0164023 0)
(-0.0667043 0.00899571 3.27931e-18)
(-0.0679208 -0.00204292 0)
(-0.0631425 -0.0149134 0)
(-0.053863 -0.0271587 0)
(-0.0435184 -0.0341072 0)
(-0.0348512 -0.0312918 4.57447e-18)
(-0.0322146 -0.0155371 2.95899e-18)
(-0.0443327 0.014344 -3.54756e-18)
(-0.0754434 0.0517832 -5.72731e-21)
(-0.111465 0.0819883 0)
(-0.14286 0.0927507 2.01851e-18)
(-0.172766 0.0882525 0)
(-0.201847 0.0779657 0)
(-0.22806 0.0655444 6.70647e-19)
(-0.250037 0.0523692 -6.18516e-19)
(-0.266818 0.0389533 -2.93205e-19)
(-0.278003 0.0255777 2.84387e-19)
(-0.283504 0.0124214 -1.41435e-19)
(-0.283163 -0.000462583 1.44514e-19)
(-0.277085 -0.0127971 -2.88925e-19)
(-0.26547 -0.02438 2.94039e-19)
(-0.248403 -0.0352228 -1.57058e-21)
(-0.22579 -0.0453807 -6.24721e-19)
(-0.197366 -0.0549005 0)
(-0.162736 -0.0638822 0)
(-0.121255 -0.0723493 0)
(-0.0725963 -0.0802781 -2.6535e-18)
(-0.0160768 -0.0865171 -1.36044e-18)
(0.0430083 -0.0881829 0)
(0.103452 -0.0835154 0)
(0.165423 -0.0735145 -3.24249e-18)
(0.225712 -0.0593814 0)
(0.281274 -0.0422533 0)
(0.329901 -0.0232096 7.88612e-18)
(0.369824 -0.00346698 -4.11106e-18)
(0.399763 0.0157077 -8.364e-18)
(0.417746 0.0336105 3.86625e-21)
(0.422383 0.0492335 7.50016e-18)
(0.412807 0.0623065 3.26946e-18)
(0.395566 0.0707702 0)
(0.376887 0.0749967 2.56801e-18)
(0.376679 0.0726865 4.57641e-18)
(0.390448 0.0697785 3.91579e-18)
(0.441865 0.0646868 -3.54909e-18)
(0.484774 0.0684759 -2.77442e-18)
(0.588039 0.0713242 2.72052e-18)
(0.630271 0.086775 -1.25508e-18)
(0.824112 0.0938275 -2.12658e-18)
(0.884078 0.0301772 2.92277e-19)
(0.706168 0.011085 5.66903e-18)
(0.556542 0.0277026 6.3728e-20)
(0.436881 0.035698 -3.98e-20)
(0.314854 0.0333296 0)
(0.194287 0.0260857 0)
(0.0952609 0.0190225 2.87145e-21)
(0.0311131 0.0155589 0)
(-0.00401273 0.0162188 0)
(-0.024401 0.0187005 1.05948e-21)
(-0.039297 0.0194501 0)
(-0.0510813 0.0162689 0)
(-0.0589826 0.00863096 3.1937e-18)
(-0.0617129 -0.00274187 0)
(-0.0587911 -0.0159072 0)
(-0.0517342 -0.0282247 0)
(-0.0439325 -0.0349203 0)
(-0.0381972 -0.0314847 3.87685e-21)
(-0.0386881 -0.0144592 -2.8099e-18)
(-0.0520202 0.0171983 6.6334e-18)
(-0.0806352 0.0556607 -5.86835e-21)
(-0.112305 0.0855876 2.32304e-18)
(-0.139741 0.095888 0)
(-0.166595 0.0912559 1.60308e-18)
(-0.193238 0.0807749 0)
(-0.217513 0.0679859 -6.43419e-19)
(-0.237951 0.054321 1.9823e-21)
(-0.253532 0.040349 0)
(-0.263814 0.0263945 0)
(-0.26869 0.0126538 2.45999e-22)
(-0.267968 -0.000812176 -2.42147e-22)
(-0.26178 -0.0137099 1.42963e-19)
(-0.250311 -0.0258371 0)
(-0.233649 -0.0372266 -6.09102e-19)
(-0.21169 -0.0479558 6.33766e-19)
(-0.184137 -0.0580938 0)
(-0.150527 -0.067757 -1.33329e-18)
(-0.110122 -0.0769581 0)
(-0.0625106 -0.085673 3.46137e-21)
(-0.00724102 -0.0924018 0)
(0.0499785 -0.0942568 1.3946e-18)
(0.109516 -0.0897089 1.47742e-18)
(0.170584 -0.0796254 4.53249e-21)
(0.229938 -0.0650852 -3.40606e-18)
(0.284559 -0.0472886 0)
(0.332227 -0.0274095 -4.21845e-21)
(0.371063 -0.00672206 4.00932e-18)
(0.399569 0.013469 4.18802e-21)
(0.415456 0.0324231 3.9008e-18)
(0.417268 0.0489821 -2.11557e-21)
(0.404898 0.0626198 -1.13194e-21)
(0.38624 0.0710803 0)
(0.368763 0.0746237 0)
(0.372504 0.0713846 0)
(0.390936 0.0674362 0)
(0.445866 0.0618145 0)
(0.491148 0.0649586 2.65426e-18)
(0.59494 0.0676778 0)
(0.638262 0.0821807 0)
(0.829742 0.0890166 -2.0549e-18)
(0.890841 0.0393567 -2.75354e-20)
(0.721405 0.0173243 0)
(0.577434 0.032057 6.00521e-20)
(0.462876 0.0394233 -3.95456e-20)
(0.346035 0.0369343 0)
(0.228016 0.0292901 7.50164e-18)
(0.125607 0.021332 -6.18003e-18)
(0.0541082 0.0167989 0)
(0.0125257 0.0166713 0)
(-0.0116025 0.0188143 -3.57337e-18)
(-0.0282879 0.0194641 0)
(-0.0413375 0.016194 0)
(-0.0505701 0.00835304 -3.12797e-18)
(-0.0548636 -0.00331968 0)
(-0.0537733 -0.0167483 -3.0951e-18)
(-0.0488364 -0.0291113 0)
(-0.0433925 -0.035532 0)
(-0.0403067 -0.0314643 4.23066e-21)
(-0.0434715 -0.0132881 0)
(-0.0576396 0.0198302 -3.07742e-18)
(-0.0837716 0.0590344 2.68393e-18)
(-0.111409 0.0886498 -4.32187e-18)
(-0.135274 0.0985915 1.77051e-18)
(-0.159324 0.0939192 -1.52374e-18)
(-0.183666 0.0833122 0)
(-0.206067 0.0702104 -6.16363e-19)
(-0.224986 0.0561009 1.15177e-18)
(-0.23936 0.0416121 0)
(-0.24872 0.0271149 -1.34791e-19)
(-0.252947 0.0128238 6.82979e-20)
(-0.251824 -0.00119042 -7.05609e-20)
(-0.245507 -0.0146162 -1.42471e-19)
(-0.234179 -0.0272525 0)
(-0.217935 -0.0391539 -6.11547e-19)
(-0.196676 -0.0504221 6.41113e-19)
(-0.170097 -0.0611537 0)
(-0.137685 -0.0714873 1.36781e-18)
(-0.0986003 -0.0814292 0)
(-0.0522775 -0.090925 1.34116e-18)
(0.00139246 -0.0981313 0)
(0.0568237 -0.100196 -1.3767e-18)
(0.115367 -0.0958247 -1.45187e-18)
(0.175442 -0.0856657 4.62434e-21)
(0.233779 -0.0707255 3.34007e-18)
(0.287382 -0.0522693 0)
(0.334015 -0.0315573 -3.77343e-18)
(0.371686 -0.00991219 0)
(0.398677 0.0113319 3.92824e-18)
(0.412403 0.0313901 0)
(0.411455 0.0489139 -3.38129e-18)
(0.396625 0.0630785 -5.90697e-18)
(0.377215 0.0714398 0)
(0.361761 0.0741935 0)
(0.369889 0.069974 0)
(0.39287 0.0650053 1.78665e-18)
(0.450899 0.0588928 0)
(0.498203 0.0614295 -8.54719e-21)
(0.602254 0.0640345 0)
(0.646467 0.0776086 1.14898e-18)
(0.835546 0.0842903 2.01028e-18)
(0.897232 0.0480613 0)
(0.735762 0.0234328 5.40442e-18)
(0.597115 0.036382 1.03251e-17)
(0.487336 0.0431573 -3.90469e-20)
(0.375581 0.0406228 0)
(0.260868 0.0327357 -7.46604e-18)
(0.156659 0.0240231 0)
(0.0789143 0.0184263 5.00602e-18)
(0.0308498 0.0174001 4.13224e-18)
(0.0026318 0.019062 3.56867e-18)
(-0.0162628 0.0195503 3.25202e-18)
(-0.0307535 0.0161865 3.10173e-18)
(-0.0414035 0.0081661 0)
(-0.047316 -0.00377688 0)
(-0.048039 -0.0174441 3.00678e-18)
(-0.0451265 -0.0298334 0)
(-0.0418535 -0.0359668 0)
(-0.0411203 -0.0312709 -3.9692e-18)
(-0.0465023 -0.0120659 0)
(-0.0612 0.0222328 -2.85035e-18)
(-0.0849581 0.0619406 0)
(-0.108907 0.0912261 2.01892e-18)
(-0.12955 0.100902 -1.67482e-18)
(-0.151012 0.0962676 0)
(-0.173173 0.0855915 0)
(-0.193755 0.0722243 1.82217e-21)
(-0.211169 0.0577107 -5.58768e-19)
(-0.22433 0.042742 0)
(-0.232752 0.0277369 1.3225e-19)
(-0.23631 0.0129288 6.68937e-20)
(-0.234762 -0.00160031 -6.94199e-20)
(-0.228298 -0.015519 0)
(-0.217089 -0.0286286 0)
(-0.201247 -0.0410043 1.71951e-21)
(-0.180694 -0.0527735 -1.68189e-21)
(-0.155141 -0.0640643 0)
(-0.12406 -0.0750457 0)
(-0.086524 -0.0857304 1.3946e-18)
(-0.041749 -0.0959902 0)
(0.00996049 -0.103682 0)
(0.0636632 -0.105994 0)
(0.121107 -0.101845 0)
(0.180094 -0.0916178 3.04924e-18)
(0.237326 -0.0762851 3.27072e-18)
(0.289822 -0.0571779 0)
(0.335333 -0.035636 0)
(0.371753 -0.0130204 3.82303e-18)
(0.397144 0.00931262 0)
(0.408658 0.0305219 0)
(0.405059 0.0490254 -3.23115e-18)
(0.388167 0.0636599 2.82769e-18)
(0.368715 0.0718117 0)
(0.356044 0.073672 0)
(0.368825 0.068435 0)
(0.396135 0.0624811 -1.72499e-18)
(0.456842 0.055921 1.5775e-18)
(0.505841 0.0578879 -4.97528e-18)
(0.609921 0.0603925 0)
(0.654849 0.0730595 -1.12315e-18)
(0.841499 0.0796406 -1.95904e-18)
(0.903271 0.0563181 0)
(0.749316 0.0294069 -5.2882e-18)
(0.615705 0.0406678 0)
(0.510404 0.0468809 -1.8663e-17)