/*--------------------------------*- C++ -*----------------------------------*\
| =========                 |                                                 |
| \\      /  F ield         | OpenFOAM: The Open Source CFD Toolbox           |
|  \\    /   O peration     | Version:  2.4.0                                 |
|   \\  /    A nd           | Web:      www.OpenFOAM.org                      |
|    \\/     M anipulation  |                                                 |
\*---------------------------------------------------------------------------*/
FoamFile
{
    version     2.0;
    format      ascii;
    class       volScalarField;
    location    "1350";
    object      nut;
}
// * * * * * * * * * * * * * * * * * * * * * * * * * * * * * * * * * * * * * //

dimensions      [0 2 -1 0 0 0 0];

internalField   nonuniform List<scalar> 
48900
(
4.85789e-06
6.85391e-06
7.90893e-06
8.29701e-06
8.25457e-06
7.97793e-06
7.57843e-06
7.13863e-06
6.69297e-06
6.27442e-06
5.88781e-06
5.49469e-06
5.06898e-06
4.69876e-06
4.38836e-06
4.11945e-06
3.89956e-06
3.70776e-06
3.55615e-06
3.42031e-06
3.31844e-06
3.22141e-06
3.15553e-06
3.08437e-06
3.04437e-06
2.9891e-06
2.96815e-06
2.92155e-06
2.91566e-06
2.8726e-06
2.88006e-06
2.83699e-06
2.85798e-06
2.81298e-06
2.84996e-06
2.80729e-06
2.33052e-05
1.47921e-05
1.23932e-05
1.14161e-05
1.09764e-05
1.08033e-05
1.08016e-05
1.09107e-05
1.10573e-05
1.12091e-05
1.13918e-05
1.13758e-05
1.13251e-05
1.13205e-05
1.13539e-05
1.14216e-05
1.15237e-05
1.16464e-05
1.18012e-05
1.19606e-05
1.21537e-05
1.23338e-05
1.2554e-05
1.27367e-05
1.29734e-05
1.31425e-05
1.3391e-05
1.35327e-05
1.37945e-05
1.38968e-05
1.41793e-05
1.42318e-05
1.45498e-05
1.45446e-05
1.49273e-05
1.4859e-05
0.000151608
7.42853e-05
4.89389e-05
3.66347e-05
2.95768e-05
2.51598e-05
2.22326e-05
2.02343e-05
1.88392e-05
1.78457e-05
1.71447e-05
1.66786e-05
1.63909e-05
1.62546e-05
1.62353e-05
1.63236e-05
1.64928e-05
1.67435e-05
1.70546e-05
1.74371e-05
1.78612e-05
1.79393e-05
1.81661e-05
1.82982e-05
1.85851e-05
1.87505e-05
1.90807e-05
1.92629e-05
1.96227e-05
1.98107e-05
2.01891e-05
2.03798e-05
2.07685e-05
2.09718e-05
2.13688e-05
2.16204e-05
0.000465387
0.000261866
0.000175183
0.000128396
9.97911e-05
8.10164e-05
6.79903e-05
5.85663e-05
5.15157e-05
4.61157e-05
4.18958e-05
3.85717e-05
3.59228e-05
3.38151e-05
3.21272e-05
3.0793e-05
2.97362e-05
2.89214e-05
2.82736e-05
2.77534e-05
2.73266e-05
2.70052e-05
2.67652e-05
2.66136e-05
2.65245e-05
2.65046e-05
2.65295e-05
2.66075e-05
2.67163e-05
2.68657e-05
2.7037e-05
2.72446e-05
2.74766e-05
2.77466e-05
2.80428e-05
2.8373e-05
0.000788579
0.000544724
0.000401158
0.000310234
0.000248822
0.000205541
0.000173921
0.000150133
0.000131788
0.000117368
0.000105824
9.64655e-05
8.87674e-05
8.23908e-05
7.70461e-05
7.25549e-05
6.87364e-05
6.5489e-05
6.26462e-05
6.01209e-05
5.78446e-05
5.58338e-05
5.40402e-05
5.24715e-05
5.10753e-05
4.98601e-05
4.87782e-05
4.78412e-05
4.70086e-05
4.62928e-05
4.56616e-05
4.51173e-05
4.46192e-05
4.41618e-05
4.37372e-05
4.33599e-05
0.000996384
0.000805214
0.000654759
0.000541524
0.000455819
0.000390141
0.000338989
0.000298523
0.000266034
0.000239635
0.000217914
0.000199872
0.000184718
0.000171906
0.000160967
0.000151587
0.000143463
0.000136411
0.000130205
0.000124722
0.000119802
0.000115398
0.000111402
0.000107798
0.000104503
0.000101517
9.8771e-05
9.62742e-05
9.3971e-05
9.18713e-05
8.99345e-05
8.8152e-05
8.64706e-05
8.48732e-05
8.33579e-05
8.19403e-05
0.00110429
0.000985224
0.000866115
0.000760507
0.00067079
0.000595798
0.000533306
0.000481111
0.000437298
0.000400334
0.000368944
0.000342144
0.0003191
0.000299195
0.000281884
0.000266774
0.00025349
0.000241781
0.000231372
0.000222095
0.000213745
0.000206223
0.000199377
0.000193153
0.000187438
0.000182205
0.000177368
0.000172913
0.000168777
0.000164951
0.000161392
0.000158089
0.000155011
0.000152139
0.000149455
0.000146963
0.0011548
0.00109027
0.00101172
0.000930919
0.000854147
0.000784154
0.000721663
0.000666459
0.000617916
0.000575313
0.000537896
0.000504996
0.000475979
0.000450333
0.00042758
0.000407348
0.000389275
0.000373096
0.000358534
0.000345402
0.000333484
0.000322652
0.000312741
0.000303667
0.000295302
0.000287594
0.000280446
0.000273822
0.000267652
0.000261911
0.00025655
0.000251545
0.000246867
0.000242491
0.000238394
0.000234593
0.00117703
0.00114519
0.00109966
0.00104619
0.000989733
0.000933689
0.000880065
0.000829906
0.000783636
0.000741333
0.000702849
0.000667953
0.000636339
0.000607717
0.000581779
0.000558262
0.000536891
0.000517451
0.000499712
0.000483503
0.000468636
0.000454982
0.000442388
0.00043076
0.000419978
0.000409972
0.00040065
0.000391961
0.000383836
0.000376236
0.00036911
0.000362426
0.00035615
0.000350253
0.000344707
0.000339554
0.00118638
0.00117172
0.00114776
0.00111615
0.00107935
0.0010397
0.000999078
0.000958821
0.000919822
0.00088263
0.000847539
0.000814681
0.000784063
0.000755636
0.000729291
0.000704912
0.000682353
0.000661485
0.000642157
0.000624249
0.000607625
0.00059218
0.000577797
0.000564391
0.000551863
0.000540147
0.000529162
0.000518856
0.000509167
0.000500052
0.000491464
0.000483368
0.000475727
0.000468512
0.000461695
0.00045535
0.00119015
0.00118372
0.00117204
0.00115499
0.00113328
0.00110801
0.00108033
0.00105128
0.00102172
0.000992278
0.000963433
0.00093551
0.000908712
0.000883167
0.000858928
0.000836013
0.000814396
0.000794043
0.00077489
0.000756882
0.000739943
0.000724012
0.000709013
0.000694888
0.000681568
0.000669003
0.000657134
0.000645916
0.0006353
0.00062525
0.000615725
0.000606695
0.000598126
0.00058999
0.000582268
0.000575061
0.00119159
0.00118884
0.00118346
0.00117492
0.00116316
0.00114844
0.00113126
0.00111219
0.0010918
0.00107059
0.00104899
0.00102735
0.00100594
0.000984952
0.000964543
0.00094481
0.000925812
0.000907588
0.000890146
0.000873489
0.000857598
0.000842454
0.000828025
0.000814285
0.000801198
0.000788735
0.00077686
0.000765545
0.000754758
0.000744472
0.000734661
0.000725299
0.000716362
0.000707828
0.000699686
0.000692064
0.0011921
0.00119089
0.00118848
0.00118444
0.0011785
0.00117058
0.00116077
0.00114928
0.00113638
0.00112236
0.00110752
0.00109212
0.00107639
0.00106054
0.00104471
0.00102904
0.00101363
0.000998552
0.000983861
0.000969597
0.00095578
0.000942427
0.000929541
0.000917121
0.000905161
0.000893653
0.000882585
0.000871944
0.000861715
0.000851886
0.00084244
0.000833365
0.000824644
0.000816264
0.000808225
0.00080067
0.00119226
0.00119164
0.00119054
0.00118868
0.00118584
0.00118186
0.00117666
0.00117025
0.00116271
0.00115417
0.00114477
0.00113466
0.00112399
0.00111292
0.00110156
0.00109005
0.00107846
0.00106688
0.00105539
0.00104404
0.00103286
0.00102189
0.00101116
0.00100069
0.000990484
0.000980553
0.000970903
0.000961535
0.000952449
0.000943643
0.000935112
0.000926853
0.00091886
0.000911128
0.000903665
0.000896616
0.00119228
0.00119186
0.00119122
0.00119022
0.00118871
0.00118655
0.00118363
0.00117991
0.00117538
0.00117007
0.00116404
0.00115737
0.00115015
0.00114245
0.00113439
0.00112603
0.00111745
0.00110873
0.00109993
0.0010911
0.00108228
0.00107351
0.00106483
0.00105625
0.00104781
0.00103951
0.00103136
0.00102339
0.00101559
0.00100798
0.00100054
0.000993297
0.000986238
0.000979367
0.0009727
0.000966383
0.00119228
0.00119192
0.00119147
0.00119086
0.00118998
0.00118875
0.00118706
0.00118487
0.00118212
0.00117882
0.00117496
0.00117058
0.00116573
0.00116044
0.00115477
0.00114879
0.00114253
0.00113607
0.00112944
0.00112269
0.00111587
0.00110899
0.0011021
0.00109522
0.00108838
0.00108159
0.00107487
0.00106823
0.00106169
0.00105525
0.00104892
0.00104271
0.00103662
0.00103066
0.00102485
0.00101932
0.00119226
0.00119192
0.00119155
0.00119112
0.00119058
0.00118985
0.00118889
0.00118763
0.00118603
0.00118406
0.00118172
0.00117899
0.0011759
0.00117245
0.00116869
0.00116463
0.00116031
0.00115577
0.00115103
0.00114614
0.00114111
0.00113599
0.00113079
0.00112553
0.00112025
0.00111495
0.00110965
0.00110438
0.00109913
0.00109392
0.00108877
0.00108367
0.00107864
0.00107369
0.00106882
0.00106417
0.00119225
0.0011919
0.00119156
0.0011912
0.00119081
0.00119034
0.00118975
0.00118902
0.0011881
0.00118696
0.00118559
0.00118397
0.00118209
0.00117996
0.00117758
0.00117498
0.00117215
0.00116913
0.00116592
0.00116256
0.00115905
0.00115543
0.0011517
0.00114789
0.00114401
0.00114008
0.00113611
0.00113212
0.00112811
0.0011241
0.00112009
0.0011161
0.00111214
0.0011082
0.00110431
0.00110057
0.00119223
0.00119187
0.00119153
0.00119119
0.00119086
0.0011905
0.0011901
0.00118964
0.00118908
0.00118841
0.00118761
0.00118666
0.00118556
0.00118429
0.00118286
0.00118126
0.0011795
0.00117758
0.00117552
0.00117333
0.00117101
0.00116858
0.00116605
0.00116342
0.00116072
0.00115796
0.00115513
0.00115226
0.00114935
0.00114641
0.00114346
0.00114048
0.0011375
0.00113452
0.00113156
0.0011287
0.00119221
0.00119184
0.00119149
0.00119116
0.00119084
0.00119052
0.00119019
0.00118985
0.00118947
0.00118903
0.00118854
0.00118797
0.00118731
0.00118656
0.00118571
0.00118476
0.0011837
0.00118253
0.00118126
0.00117989
0.00117843
0.00117687
0.00117523
0.00117352
0.00117173
0.00116988
0.00116797
0.00116601
0.001164
0.00116196
0.00115988
0.00115777
0.00115565
0.0011535
0.00115136
0.00114927
0.0011922
0.00119182
0.00119146
0.00119111
0.00119079
0.00119048
0.00119017
0.00118987
0.00118956
0.00118923
0.00118888
0.0011885
0.00118808
0.00118761
0.00118708
0.0011865
0.00118586
0.00118516
0.00118438
0.00118355
0.00118265
0.00118169
0.00118066
0.00117958
0.00117845
0.00117726
0.00117602
0.00117474
0.00117342
0.00117207
0.00117068
0.00116925
0.00116781
0.00116634
0.00116486
0.00116341
0.00119219
0.0011918
0.00119142
0.00119107
0.00119073
0.00119041
0.00119011
0.00118981
0.00118952
0.00118923
0.00118894
0.00118864
0.00118832
0.00118799
0.00118763
0.00118724
0.00118683
0.00118638
0.00118589
0.00118537
0.00118481
0.00118421
0.00118358
0.0011829
0.00118219
0.00118145
0.00118067
0.00117986
0.00117901
0.00117814
0.00117724
0.00117632
0.00117537
0.00117441
0.00117343
0.00117246
0.00119218
0.00119178
0.0011914
0.00119103
0.00119069
0.00119036
0.00119004
0.00118974
0.00118945
0.00118916
0.00118888
0.00118861
0.00118833
0.00118805
0.00118776
0.00118746
0.00118715
0.00118683
0.00118649
0.00118614
0.00118576
0.00118536
0.00118495
0.00118451
0.00118405
0.00118358
0.00118308
0.00118256
0.00118202
0.00118146
0.00118088
0.00118029
0.00117968
0.00117906
0.00117842
0.0011778
0.00119217
0.00119176
0.00119137
0.001191
0.00119064
0.0011903
0.00118998
0.00118966
0.00118936
0.00118907
0.00118879
0.00118851
0.00118824
0.00118798
0.00118771
0.00118745
0.00118718
0.00118691
0.00118663
0.00118635
0.00118606
0.00118577
0.00118546
0.00118515
0.00118483
0.00118449
0.00118415
0.0011838
0.00118343
0.00118306
0.00118267
0.00118228
0.00118187
0.00118146
0.00118105
0.00118063
0.00119216
0.00119175
0.00119136
0.00119097
0.00119061
0.00119026
0.00118992
0.0011896
0.00118929
0.00118899
0.00118869
0.00118841
0.00118814
0.00118787
0.0011876
0.00118734
0.00118709
0.00118683
0.00118658
0.00118633
0.00118607
0.00118582
0.00118556
0.0011853
0.00118504
0.00118478
0.00118451
0.00118424
0.00118396
0.00118368
0.0011834
0.00118311
0.00118282
0.00118253
0.00118223
0.00118195
0.00119216
0.00119174
0.00119134
0.00119095
0.00119058
0.00119022
0.00118988
0.00118954
0.00118922
0.00118891
0.00118861
0.00118832
0.00118804
0.00118776
0.00118749
0.00118722
0.00118696
0.00118671
0.00118646
0.00118621
0.00118596
0.00118572
0.00118548
0.00118524
0.001185
0.00118477
0.00118453
0.00118429
0.00118406
0.00118382
0.00118358
0.00118335
0.00118311
0.00118288
0.00118264
0.00118242
0.00119215
0.00119173
0.00119133
0.00119093
0.00119056
0.00119019
0.00118984
0.0011895
0.00118917
0.00118885
0.00118854
0.00118824
0.00118795
0.00118766
0.00118738
0.00118711
0.00118685
0.00118659
0.00118633
0.00118608
0.00118583
0.00118559
0.00118535
0.00118511
0.00118488
0.00118465
0.00118442
0.0011842
0.00118397
0.00118375
0.00118353
0.00118332
0.0011831
0.00118289
0.00118268
0.00118248
0.00119215
0.00119173
0.00119132
0.00119092
0.00119054
0.00119016
0.00118981
0.00118946
0.00118912
0.0011888
0.00118848
0.00118817
0.00118787
0.00118758
0.0011873
0.00118702
0.00118675
0.00118648
0.00118622
0.00118596
0.00118571
0.00118546
0.00118522
0.00118498
0.00118474
0.00118451
0.00118428
0.00118406
0.00118384
0.00118362
0.0011834
0.00118319
0.00118298
0.00118278
0.00118258
0.00118239
0.00119215
0.00119172
0.00119131
0.00119091
0.00119052
0.00119014
0.00118978
0.00118943
0.00118909
0.00118876
0.00118843
0.00118812
0.00118782
0.00118752
0.00118723
0.00118694
0.00118666
0.00118639
0.00118612
0.00118586
0.0011856
0.00118535
0.0011851
0.00118486
0.00118462
0.00118438
0.00118415
0.00118393
0.0011837
0.00118348
0.00118327
0.00118305
0.00118285
0.00118264
0.00118244
0.00118226
0.00119214
0.00119172
0.0011913
0.0011909
0.00119051
0.00119013
0.00118976
0.0011894
0.00118906
0.00118872
0.0011884
0.00118808
0.00118777
0.00118746
0.00118717
0.00118688
0.0011866
0.00118632
0.00118605
0.00118578
0.00118552
0.00118526
0.00118501
0.00118476
0.00118452
0.00118428
0.00118405
0.00118382
0.00118359
0.00118337
0.00118315
0.00118294
0.00118272
0.00118252
0.00118232
0.00118213
0.00119214
0.00119171
0.00119129
0.00119089
0.0011905
0.00119011
0.00118974
0.00118939
0.00118904
0.0011887
0.00118837
0.00118804
0.00118773
0.00118742
0.00118712
0.00118683
0.00118654
0.00118626
0.00118599
0.00118572
0.00118545
0.00118519
0.00118494
0.00118469
0.00118444
0.0011842
0.00118396
0.00118373
0.0011835
0.00118328
0.00118306
0.00118284
0.00118263
0.00118242
0.00118222
0.00118203
0.00119214
0.00119171
0.00119129
0.00119088
0.00119049
0.0011901
0.00118973
0.00118937
0.00118902
0.00118868
0.00118834
0.00118802
0.0011877
0.00118739
0.00118709
0.00118679
0.0011865
0.00118622
0.00118594
0.00118567
0.0011854
0.00118514
0.00118488
0.00118463
0.00118439
0.00118414
0.0011839
0.00118367
0.00118344
0.00118321
0.00118299
0.00118278
0.00118256
0.00118235
0.00118215
0.00118196
0.00119214
0.00119171
0.00119129
0.00119088
0.00119048
0.0011901
0.00118972
0.00118936
0.00118901
0.00118866
0.00118833
0.001188
0.00118768
0.00118737
0.00118706
0.00118677
0.00118648
0.00118619
0.00118591
0.00118564
0.00118537
0.00118511
0.00118485
0.00118459
0.00118435
0.0011841
0.00118386
0.00118363
0.0011834
0.00118317
0.00118295
0.00118273
0.00118252
0.00118231
0.00118211
0.00118192
0.00119214
0.00119171
0.00119129
0.00119088
0.00119048
0.00119009
0.00118972
0.00118935
0.001189
0.00118865
0.00118831
0.00118799
0.00118767
0.00118735
0.00118705
0.00118675
0.00118646
0.00118617
0.00118589
0.00118562
0.00118535
0.00118508
0.00118483
0.00118457
0.00118432
0.00118408
0.00118384
0.00118361
0.00118338
0.00118315
0.00118293
0.00118272
0.0011825
0.0011823
0.0011821
0.00118191
0.00119214
0.0011917
0.00119128
0.00119087
0.00119048
0.00119009
0.00118971
0.00118935
0.00118899
0.00118865
0.00118831
0.00118798
0.00118766
0.00118735
0.00118704
0.00118674
0.00118645
0.00118616
0.00118588
0.00118561
0.00118534
0.00118508
0.00118482
0.00118457
0.00118432
0.00118408
0.00118384
0.00118361
0.00118338
0.00118315
0.00118293
0.00118272
0.00118251
0.0011823
0.00118211
0.00118192
0.00119214
0.0011917
0.00119128
0.00119087
0.00119048
0.00119009
0.00118971
0.00118935
0.00118899
0.00118865
0.00118831
0.00118798
0.00118766
0.00118735
0.00118704
0.00118674
0.00118645
0.00118617
0.00118589
0.00118561
0.00118535
0.00118508
0.00118483
0.00118458
0.00118433
0.00118409
0.00118385
0.00118362
0.0011834
0.00118317
0.00118296
0.00118274
0.00118254
0.00118233
0.00118214
0.00118196
0.00119214
0.00119171
0.00119129
0.00119088
0.00119048
0.00119009
0.00118972
0.00118935
0.001189
0.00118865
0.00118831
0.00118799
0.00118767
0.00118736
0.00118705
0.00118675
0.00118646
0.00118618
0.0011859
0.00118563
0.00118536
0.0011851
0.00118485
0.0011846
0.00118435
0.00118412
0.00118388
0.00118365
0.00118343
0.00118321
0.001183
0.00118279
0.00118258
0.00118238
0.00118219
0.00118202
0.00119214
0.00119171
0.00119129
0.00119088
0.00119048
0.0011901
0.00118972
0.00118936
0.001189
0.00118866
0.00118832
0.001188
0.00118768
0.00118737
0.00118707
0.00118677
0.00118648
0.0011862
0.00118592
0.00118565
0.00118539
0.00118513
0.00118488
0.00118463
0.00118439
0.00118416
0.00118392
0.0011837
0.00118348
0.00118326
0.00118305
0.00118284
0.00118264
0.00118245
0.00118226
0.00118209
0.00119214
0.00119171
0.00119129
0.00119088
0.00119049
0.0011901
0.00118973
0.00118937
0.00118902
0.00118867
0.00118834
0.00118802
0.0011877
0.00118739
0.00118709
0.0011868
0.00118651
0.00118623
0.00118596
0.00118569
0.00118543
0.00118517
0.00118492
0.00118468
0.00118444
0.00118421
0.00118398
0.00118376
0.00118354
0.00118332
0.00118312
0.00118291
0.00118272
0.00118252
0.00118234
0.00118217
0.00119214
0.00119171
0.00119129
0.00119089
0.00119049
0.00119011
0.00118974
0.00118938
0.00118903
0.00118869
0.00118836
0.00118804
0.00118772
0.00118742
0.00118712
0.00118683
0.00118655
0.00118627
0.001186
0.00118573
0.00118548
0.00118522
0.00118498
0.00118474
0.0011845
0.00118427
0.00118404
0.00118382
0.00118361
0.0011834
0.00118319
0.00118299
0.00118279
0.0011826
0.00118242
0.00118225
0.00119214
0.00119172
0.0011913
0.0011909
0.0011905
0.00119012
0.00118976
0.0011894
0.00118905
0.00118871
0.00118839
0.00118807
0.00118776
0.00118745
0.00118716
0.00118687
0.00118659
0.00118632
0.00118605
0.00118579
0.00118553
0.00118528
0.00118504
0.0011848
0.00118456
0.00118433
0.00118411
0.00118389
0.00118367
0.00118346
0.00118325
0.00118305
0.00118285
0.00118265
0.00118246
0.00118229
0.00119214
0.00119172
0.00119131
0.00119091
0.00119052
0.00119014
0.00118977
0.00118942
0.00118908
0.00118874
0.00118842
0.0011881
0.0011878
0.0011875
0.0011872
0.00118692
0.00118664
0.00118637
0.0011861
0.00118584
0.00118558
0.00118533
0.00118508
0.00118483
0.00118459
0.00118435
0.00118412
0.00118389
0.00118366
0.00118343
0.00118321
0.00118299
0.00118277
0.00118255
0.00118234
0.00118214
0.00119215
0.00119173
0.00119131
0.00119092
0.00119053
0.00119016
0.0011898
0.00118945
0.00118911
0.00118878
0.00118846
0.00118814
0.00118784
0.00118754
0.00118725
0.00118696
0.00118667
0.00118639
0.00118612
0.00118584
0.00118557
0.0011853
0.00118502
0.00118475
0.00118448
0.00118421
0.00118393
0.00118366
0.00118338
0.00118311
0.00118283
0.00118255
0.00118227
0.00118199
0.00118171
0.00118144
0.00119215
0.00119173
0.00119133
0.00119093
0.00119055
0.00119018
0.00118982
0.00118948
0.00118914
0.00118881
0.00118849
0.00118817
0.00118786
0.00118755
0.00118724
0.00118693
0.00118661
0.0011863
0.00118598
0.00118565
0.00118532
0.00118498
0.00118463
0.00118427
0.00118391
0.00118353
0.00118315
0.00118276
0.00118236
0.00118195
0.00118153
0.0011811
0.00118066
0.00118022
0.00117978
0.00117934
0.00119216
0.00119174
0.00119134
0.00119095
0.00119057
0.00119021
0.00118985
0.0011895
0.00118916
0.00118882
0.00118847
0.00118813
0.00118777
0.00118741
0.00118703
0.00118663
0.00118622
0.00118579
0.00118533
0.00118486
0.00118435
0.00118383
0.00118327
0.0011827
0.00118209
0.00118147
0.00118082
0.00118015
0.00117945
0.00117874
0.00117801
0.00117726
0.0011765
0.00117572
0.00117493
0.00117415
0.00119216
0.00119175
0.00119136
0.00119097
0.00119059
0.00119022
0.00118985
0.00118948
0.00118909
0.00118869
0.00118826
0.0011878
0.0011873
0.00118676
0.00118618
0.00118554
0.00118485
0.0011841
0.0011833
0.00118244
0.00118153
0.00118056
0.00117954
0.00117847
0.00117735
0.00117619
0.00117498
0.00117374
0.00117247
0.00117116
0.00116982
0.00116846
0.00116708
0.00116568
0.00116428
0.00116289
0.00119217
0.00119177
0.00119137
0.00119098
0.00119058
0.00119017
0.00118973
0.00118924
0.0011887
0.00118809
0.00118739
0.00118659
0.00118569
0.00118468
0.00118355
0.00118231
0.00118096
0.00117949
0.00117791
0.00117623
0.00117445
0.00117258
0.00117063
0.0011686
0.0011665
0.00116434
0.00116213
0.00115987
0.00115757
0.00115524
0.00115289
0.00115051
0.00114813
0.00114573
0.00114335
0.001141
0.00119218
0.00119178
0.00119136
0.00119092
0.00119043
0.00118985
0.00118915
0.0011883
0.00118728
0.00118606
0.00118463
0.00118297
0.00118109
0.00117898
0.00117665
0.00117411
0.00117138
0.00116847
0.00116538
0.00116216
0.0011588
0.00115532
0.00115175
0.0011481
0.00114438
0.00114061
0.0011368
0.00113296
0.00112912
0.00112526
0.00112141
0.00111758
0.00111377
0.00110998
0.00110624
0.0011026
0.00119218
0.00119175
0.00119124
0.00119059
0.00118974
0.00118861
0.00118714
0.00118528
0.001183
0.00118029
0.00117714
0.00117358
0.00116961
0.00116528
0.00116062
0.00115567
0.00115046
0.00114504
0.00113944
0.00113369
0.00112783
0.0011219
0.00111591
0.00110989
0.00110387
0.00109786
0.00109188
0.00108594
0.00108006
0.00107425
0.00106852
0.00106288
0.00105733
0.00105188
0.00104654
0.00104139
0.00119215
0.00119156
0.00119067
0.00118932
0.00118735
0.00118466
0.00118116
0.00117682
0.00117168
0.00116577
0.00115916
0.00115194
0.00114419
0.001136
0.00112747
0.00111866
0.00110966
0.00110052
0.00109132
0.00108209
0.00107289
0.00106375
0.0010547
0.00104576
0.00103697
0.00102833
0.00101985
0.00101156
0.00100346
0.000995552
0.000987842
0.000980331
0.000973022
0.000965915
0.00095902
0.000952411
0.00119196
0.00119077
0.0011886
0.00118512
0.00118012
0.00117352
0.00116539
0.00115585
0.00114509
0.00113333
0.00112076
0.00110761
0.00109404
0.00108022
0.00106628
0.00105233
0.00103848
0.00102479
0.00101132
0.000998126
0.000985235
0.000972675
0.000960462
0.000948609
0.000937122
0.000926003
0.000915252
0.000904865
0.000894837
0.000885161
0.000875828
0.000866831
0.000858159
0.000849803
0.000841763
0.000834109
0.00119118
0.00118789
0.00118186
0.00117271
0.0011605
0.00114558
0.00112845
0.00110964
0.00108968
0.00106901
0.00104801
0.00102697
0.00100613
0.000985654
0.000965682
0.000946297
0.00092756
0.000909505
0.000892151
0.000875502
0.000859552
0.000844289
0.000829695
0.000815749
0.000802428
0.000789707
0.000777561
0.000765964
0.000754892
0.000744319
0.000734221
0.000724576
0.00071536
0.000706554
0.000698143
0.000690182
0.00118829
0.00117846
0.00116213
0.00113992
0.00111319
0.00108344
0.001052
0.00101992
0.000987982
0.000956727
0.00092651
0.000897549
0.000869965
0.000843809
0.000819084
0.00079576
0.000773789
0.000753107
0.000733647
0.000715337
0.000698106
0.000681885
0.000666609
0.000652214
0.000638642
0.000625837
0.000613749
0.000602329
0.000591533
0.00058132
0.000571652
0.000562492
0.000553809
0.000545573
0.000537759
0.000530397
0.00117831
0.00115014
0.00111015
0.00106307
0.001013
0.000962845
0.000914381
0.000868557
0.000825803
0.000786233
0.000749786
0.000716301
0.000685573
0.00065738
0.0006315
0.000607717
0.000585833
0.000565664
0.000547046
0.000529828
0.00051388
0.000499082
0.00048533
0.000472531
0.000460601
0.000449464
0.000439056
0.000429313
0.000420184
0.000411618
0.000403573
0.000396006
0.000388883
0.000382171
0.000375841
0.0003699
0.00114598
0.00107334
0.000990082
0.000907893
0.000832015
0.000764193
0.000704447
0.000652085
0.000606221
0.000565977
0.000530559
0.000499274
0.000471532
0.000446828
0.000424738
0.000404902
0.00038702
0.000370834
0.000356134
0.000342737
0.000330492
0.000319268
0.000308956
0.000299458
0.000290691
0.000282583
0.000275071
0.000268097
0.000261612
0.000255573
0.00024994
0.000244678
0.000239756
0.000235146
0.000230824
0.000226781
0.00104903
0.000893231
0.000759212
0.000651961
0.000567051
0.000499491
0.000445121
0.00040077
0.000364125
0.00033349
0.000307611
0.000285536
0.000266535
0.000250038
0.000235598
0.000222863
0.000211559
0.000201465
0.000192409
0.000184249
0.000176871
0.000170176
0.000164085
0.000158526
0.000153444
0.000148784
0.000144504
0.000140564
0.000136932
0.000133576
0.000130473
0.000127597
0.00012493
0.000122451
0.000120145
0.000118
0.000798061
0.000565333
0.00042811
0.000340685
0.000281014
0.000238284
0.000206494
0.000182086
0.000162871
0.000147434
0.000134821
0.000124356
0.000115544
0.000108012
0.000101492
9.5788e-05
9.0765e-05
8.6319e-05
8.23765e-05
7.8869e-05
7.57421e-05
7.29463e-05
7.04424e-05
6.8194e-05
6.6173e-05
6.43524e-05
6.27118e-05
6.12306e-05
5.98937e-05
5.86852e-05
5.75939e-05
5.6607e-05
5.5716e-05
5.49106e-05
5.41842e-05
5.35277e-05
0.000357737
0.000202666
0.000140653
0.000107554
8.71923e-05
7.36201e-05
6.40425e-05
5.69884e-05
5.16294e-05
4.7464e-05
4.41726e-05
4.15371e-05
3.94011e-05
3.76449e-05
3.61826e-05
3.49514e-05
3.39063e-05
3.30126e-05
3.22502e-05
3.16009e-05
3.1053e-05
3.05935e-05
3.02134e-05
2.99024e-05
2.9654e-05
2.94599e-05
2.93155e-05
2.92143e-05
2.91532e-05
2.91266e-05
2.91326e-05
2.91664e-05
2.92268e-05
2.93098e-05
2.94146e-05
2.95374e-05
6.02387e-05
3.53531e-05
2.71012e-05
2.31533e-05
2.0962e-05
1.96535e-05
1.88473e-05
1.83555e-05
1.80782e-05
1.79584e-05
1.79637e-05
1.80739e-05
1.8277e-05
1.85627e-05
1.89195e-05
1.93293e-05
1.97711e-05
2.01853e-05
2.0193e-05
2.02225e-05
2.02702e-05
2.03339e-05
2.04104e-05
2.04996e-05
2.05982e-05
2.07071e-05
2.08226e-05
2.09467e-05
2.1075e-05
2.12107e-05
2.13485e-05
2.14929e-05
2.16374e-05
2.17877e-05
2.19364e-05
2.20895e-05
4.82765e-06
6.70416e-06
8.14959e-06
9.18301e-06
9.86537e-06
1.02737e-05
1.04828e-05
1.05469e-05
1.05119e-05
1.0408e-05
1.02617e-05
1.00874e-05
9.90015e-06
9.70589e-06
9.51366e-06
9.32467e-06
9.14451e-06
8.97169e-06
8.81056e-06
8.65771e-06
8.51599e-06
8.38187e-06
8.25825e-06
8.14142e-06
8.03439e-06
7.93328e-06
7.84129e-06
7.75436e-06
7.67587e-06
7.60157e-06
7.53507e-06
7.47191e-06
7.41597e-06
7.36255e-06
7.3158e-06
7.27082e-06
5.28477e-08
1.50048e-06
2.5046e-06
3.40987e-06
4.21198e-06
4.92546e-06
5.57738e-06
6.19735e-06
6.81595e-06
7.46846e-06
8.18555e-06
8.89907e-06
9.59771e-06
1.02628e-05
1.08776e-05
1.14253e-05
1.18602e-05
1.21927e-05
1.24841e-05
1.29814e-05
1.35764e-05
1.40952e-05
1.45463e-05
1.49328e-05
1.52634e-05
1.55446e-05
1.57854e-05
1.59755e-05
1.61157e-05
1.62156e-05
1.62815e-05
1.6318e-05
1.63293e-05
1.58815e-05
1.53928e-05
1.4957e-05
1.45685e-05
1.42221e-05
1.39124e-05
1.36358e-05
1.3388e-05
1.31661e-05
1.29667e-05
1.27962e-05
1.2656e-05
1.25403e-05
1.24449e-05
1.23646e-05
1.22967e-05
1.22362e-05
1.21805e-05
1.21241e-05
1.20626e-05
1.199e-05
1.18982e-05
1.17824e-05
1.12216e-05
1.04968e-05
9.66104e-06
8.69765e-06
7.59066e-06
6.32869e-06
4.91406e-06
3.39168e-06
1.89347e-06
7.84241e-07
3.91053e-07
3.33976e-07
3.06568e-07
2.8178e-07
2.66876e-07
1.88938e-07
1.4499e-07
1.80709e-07
2.86697e-07
4.43511e-07
6.37309e-07
8.59349e-07
1.11083e-06
1.41076e-06
1.80325e-06
2.28662e-06
2.84336e-06
3.45254e-06
4.08437e-06
4.78901e-06
5.43925e-06
5.8528e-06
6.01441e-06
6.03261e-06
5.88517e-06
5.63898e-06
5.40921e-06
5.17552e-06
4.87908e-06
4.89417e-06
5.99768e-06
5.99399e-06
8.49398e-06
1.27232e-05
1.27417e-05
1.12097e-05
9.52573e-06
9.07248e-06
1.4224e-05
1.63356e-05
1.78407e-05
1.84423e-05
1.85821e-05
1.87029e-05
1.86141e-05
1.8595e-05
1.85298e-05
1.84812e-05
1.84711e-05
1.84436e-05
1.84749e-05
1.84751e-05
1.85032e-05
1.8521e-05
1.85443e-05
1.85749e-05
1.85977e-05
1.86332e-05
1.86601e-05
1.86952e-05
1.87273e-05
1.87609e-05
1.87964e-05
1.88294e-05
1.88659e-05
1.88996e-05
1.89353e-05
1.89699e-05
1.90044e-05
1.90392e-05
1.90728e-05
1.91069e-05
1.91398e-05
1.91728e-05
1.92051e-05
1.92367e-05
1.9268e-05
1.92985e-05
1.93286e-05
1.93578e-05
1.93865e-05
1.94145e-05
1.94418e-05
1.94684e-05
1.94943e-05
1.95196e-05
1.9544e-05
1.95678e-05
1.95908e-05
1.96131e-05
1.96346e-05
1.96555e-05
1.96757e-05
1.96952e-05
1.97142e-05
1.97325e-05
1.97504e-05
1.97678e-05
1.97848e-05
1.98015e-05
1.98179e-05
1.98344e-05
1.98509e-05
1.98678e-05
1.98852e-05
1.9903e-05
1.99214e-05
1.99406e-05
1.99608e-05
1.99823e-05
2.00054e-05
2.00303e-05
2.00575e-05
2.00872e-05
2.01198e-05
2.01558e-05
2.01956e-05
2.02399e-05
2.02892e-05
2.03441e-05
2.04054e-05
2.04739e-05
2.05505e-05
2.0636e-05
2.07315e-05
2.08383e-05
2.09574e-05
2.10905e-05
2.12391e-05
2.14048e-05
2.15897e-05
2.17961e-05
2.20264e-05
2.22833e-05
2.257e-05
2.28903e-05
2.32483e-05
2.3649e-05
2.40977e-05
2.46011e-05
2.51675e-05
2.58058e-05
2.65257e-05
2.7342e-05
2.82726e-05
2.93393e-05
3.05699e-05
3.19996e-05
3.36755e-05
3.56518e-05
3.48763e-05
3.40162e-05
3.31115e-05
3.21704e-05
3.11954e-05
3.0184e-05
2.9129e-05
2.80254e-05
2.68993e-05
2.57879e-05
2.47384e-05
2.39075e-05
2.36845e-05
2.3441e-05
2.32016e-05
2.29562e-05
2.26965e-05
2.24319e-05
2.21747e-05
2.19269e-05
2.16889e-05
2.14615e-05
2.1246e-05
2.10432e-05
2.08541e-05
2.06775e-05
2.05136e-05
1.9751e-05
1.89078e-05
1.81673e-05
1.75143e-05
1.6936e-05
1.6422e-05
1.59637e-05
1.55539e-05
1.51866e-05
1.48565e-05
1.45593e-05
1.42914e-05
1.40494e-05
1.38306e-05
1.36326e-05
1.34533e-05
1.32909e-05
1.31439e-05
1.30108e-05
1.28906e-05
1.27821e-05
1.26844e-05
1.25968e-05
1.25184e-05
1.24487e-05
1.23869e-05
1.23325e-05
1.22847e-05
1.22431e-05
1.22068e-05
1.21751e-05
1.21471e-05
1.21215e-05
1.20987e-05
1.20792e-05
1.20605e-05
1.20401e-05
1.20152e-05
1.19826e-05
1.19388e-05
1.18801e-05
1.18018e-05
1.16989e-05
1.15655e-05
1.13948e-05
1.11793e-05
1.0911e-05
1.05825e-05
1.01867e-05
9.71966e-06
9.1832e-06
8.58086e-06
7.48979e-06
6.30914e-06
5.229e-06
4.27296e-06
3.45387e-06
2.7731e-06
2.22223e-06
1.78591e-06
1.4455e-06
1.18225e-06
9.79248e-07
8.22604e-07
7.01764e-07
6.09017e-07
5.39121e-07
4.89276e-07
4.59305e-07
4.54048e-07
4.89624e-07
5.62612e-07
6.67373e-07
7.95749e-07
9.29603e-07
1.03465e-06
1.07893e-06
1.05123e-06
9.87566e-07
8.94333e-07
8.12683e-07
7.64084e-07
8.1148e-07
1.06118e-06
1.52617e-06
2.69858e-06
4.57813e-06
6.30505e-06
7.80121e-06
9.058e-06
1.01093e-05
1.09921e-05
1.17384e-05
1.23749e-05
1.29262e-05
1.34375e-05
1.38864e-05
1.42726e-05
1.46029e-05
1.48821e-05
1.51153e-05
1.53067e-05
1.54571e-05
1.55706e-05
1.56508e-05
1.5697e-05
1.57132e-05
1.57087e-05
1.56798e-05
1.56896e-05
1.60014e-05
1.63078e-05
1.65366e-05
1.67605e-05
1.66751e-05
1.68234e-05
1.57679e-05
1.2116e-07
1.96386e-06
4.871e-06
7.37305e-06
1.05045e-05
1.48498e-05
2.08727e-05
2.89277e-05
3.87158e-05
4.8545e-05
5.52568e-05
6.16712e-05
6.80997e-05
7.42774e-05
8.01055e-05
8.5723e-05
8.51764e-05
8.40615e-05
8.33176e-05
8.34697e-05
8.52346e-05
8.81836e-05
9.18247e-05
9.62079e-05
0.000101425
0.000107515
0.000114711
0.000117716
0.00011772
0.000117386
0.000116694
0.000115683
0.000114392
0.00011287
0.000111147
0.000109244
0.000107181
0.000104975
0.00010264
0.000100189
9.76314e-05
9.49746e-05
9.21934e-05
8.87972e-05
8.4784e-05
8.03475e-05
7.56292e-05
7.07544e-05