/*--------------------------------*- C++ -*----------------------------------*\
| =========                 |                                                 |
| \\      /  F ield         | OpenFOAM: The Open Source CFD Toolbox           |
|  \\    /   O peration     | Version:  2.4.0                                 |
|   \\  /    A nd           | Web:      www.OpenFOAM.org                      |
|    \\/     M anipulation  |                                                 |
\*---------------------------------------------------------------------------*/
FoamFile
{
    version     2.0;
    format      ascii;
    class       surfaceScalarField;
    location    "2050";
    object      phi;
}
// * * * * * * * * * * * * * * * * * * * * * * * * * * * * * * * * * * * * * //

dimensions      [0 3 -1 0 0 0 0];

internalField   nonuniform List<scalar> 
97240
(
1.4818e-06
8.91631e-08
1.38288e-06
9.89202e-08
1.29151e-06
9.1375e-08
1.20542e-06
8.60901e-08
1.12468e-06
8.07402e-08
1.05022e-06
7.44619e-08
9.82345e-07
6.78718e-08
9.21108e-07
6.12366e-08
8.6634e-07
5.47683e-08
8.17874e-07
4.84656e-08
7.75235e-07
4.26388e-08
7.37837e-07
3.73977e-08
7.04937e-07
3.29004e-08
6.76307e-07
2.86297e-08
6.51379e-07
2.49277e-08
6.30021e-07
2.13575e-08
6.11573e-07
1.84483e-08
5.96e-07
1.55729e-08
5.82572e-07
1.34272e-08
5.71405e-07
1.11675e-08
5.61715e-07
9.68986e-09
5.53852e-07
7.86203e-09
5.46918e-07
6.93443e-09
5.4146e-07
5.45784e-09
5.36473e-07
4.98672e-09
5.32756e-07
3.71654e-09
5.29167e-07
3.58862e-09
5.26765e-07
2.40185e-09
5.24248e-07
2.51711e-09
5.22932e-07
1.31608e-09
5.21367e-07
1.56404e-09
5.21103e-07
2.64225e-10
5.20654e-07
4.48988e-10
5.21763e-07
-1.11001e-09
5.23446e-07
-1.68273e-09
-4.88972e-09
5.28335e-07
1.66176e-06
7.10268e-08
1.66294e-06
9.7742e-08
1.65572e-06
9.85991e-08
1.64075e-06
1.01057e-07
1.61966e-06
1.01832e-07
1.59433e-06
9.9792e-08
1.56602e-06
9.61775e-08
1.53586e-06
9.1404e-08
1.50468e-06
8.59397e-08
1.47338e-06
7.97723e-08
1.44246e-06
7.3556e-08
1.41266e-06
6.72003e-08
1.3842e-06
6.13597e-08
1.35742e-06
5.54128e-08
1.33224e-06
5.00991e-08
1.30892e-06
4.46819e-08
1.28724e-06
4.0126e-08
1.26739e-06
3.5425e-08
1.24907e-06
3.17472e-08
1.23243e-06
2.78027e-08
1.21712e-06
2.50051e-08
1.20318e-06
2.17998e-08
1.19029e-06
1.98238e-08
1.17858e-06
1.71728e-08
1.16776e-06
1.58034e-08
1.15793e-06
1.35448e-08
1.14891e-06
1.26108e-08
1.1407e-06
1.06153e-08
1.13328e-06
9.93555e-09
1.12649e-06
8.10593e-09
1.12059e-06
7.45601e-09
1.11515e-06
5.71074e-09
1.11089e-06
4.70975e-09
1.10693e-06
2.85105e-09
1.10481e-06
4.2925e-10
-2.95093e-09
1.10287e-06
1.73182e-06
5.88571e-08
1.7401e-06
8.9464e-08
1.74509e-06
9.36103e-08
1.74812e-06
9.80246e-08
1.749e-06
1.00953e-07
1.74788e-06
1.00905e-07
1.74484e-06
9.92248e-08
1.73995e-06
9.62933e-08
1.73333e-06
9.25538e-08
1.72521e-06
8.78954e-08
1.71578e-06
8.2981e-08
1.70536e-06
7.7621e-08
1.6942e-06
7.25255e-08
1.68251e-06
6.71037e-08
1.67047e-06
6.21399e-08
1.65824e-06
5.69052e-08
1.64597e-06
5.23952e-08
1.63377e-06
4.76272e-08
1.62174e-06
4.3781e-08
1.60993e-06
3.96133e-08
1.59843e-06
3.65031e-08
1.5873e-06
3.29333e-08
1.57659e-06
3.05293e-08
1.56627e-06
2.7488e-08
1.55644e-06
2.56423e-08
1.54698e-06
2.29991e-08
1.53805e-06
2.15437e-08
1.52948e-06
1.91836e-08
1.52148e-06
1.79304e-08
1.51384e-06
1.57543e-08
1.50683e-06
1.44665e-08
1.50018e-06
1.23601e-08
1.49424e-06
1.06501e-08
1.48876e-06
8.33085e-09
1.48388e-06
5.30396e-09
1.96298e-09
1.47897e-06
1.80842e-06
4.96264e-08
1.81645e-06
8.14298e-08
1.8216e-06
8.84583e-08
1.82585e-06
9.37806e-08
1.82937e-06
9.74281e-08
1.83221e-06
9.80633e-08
1.83438e-06
9.70568e-08
1.83587e-06
9.48012e-08
1.83666e-06
9.17696e-08
1.83673e-06
8.78251e-08
1.83609e-06
8.36149e-08
1.83479e-06
7.89215e-08
1.8329e-06
7.44192e-08
1.83044e-06
6.95615e-08
1.82749e-06
6.50908e-08
1.82407e-06
6.03229e-08
1.82028e-06
5.61897e-08
1.81612e-06
5.17813e-08
1.81171e-06
4.81934e-08
1.80704e-06
4.42812e-08
1.80224e-06
4.13114e-08
1.79728e-06
3.78903e-08
1.79231e-06
3.55011e-08
1.78725e-06
3.25439e-08
1.78227e-06
3.06268e-08
1.77724e-06
2.80299e-08
1.77235e-06
2.64257e-08
1.76745e-06
2.40873e-08
1.76277e-06
2.26121e-08
1.75809e-06
2.04314e-08
1.7537e-06
1.88584e-08
1.74936e-06
1.66956e-08
1.74532e-06
1.46891e-08
1.74142e-06
1.2233e-08
1.73749e-06
9.2326e-09
6.00093e-09
1.73345e-06
1.88995e-06
4.20845e-08
1.8974e-06
7.39793e-08
1.90248e-06
8.33714e-08
1.90672e-06
8.95479e-08
1.91051e-06
9.36345e-08
1.91384e-06
9.47271e-08
1.91677e-06
9.41343e-08
1.9193e-06
9.22635e-08
1.92147e-06
8.96056e-08
1.92324e-06
8.60548e-08
1.92463e-06
8.22196e-08
1.92565e-06
7.7902e-08
1.92635e-06
7.37225e-08
1.9267e-06
6.92072e-08
1.92677e-06
6.50274e-08
1.92651e-06
6.05779e-08
1.92602e-06
5.66864e-08
1.92524e-06
5.25562e-08
1.92429e-06
4.91467e-08
1.92311e-06
4.54627e-08
1.92182e-06
4.2602e-08
1.92033e-06
3.93732e-08
1.91881e-06
3.70221e-08
1.91713e-06
3.4221e-08
1.91548e-06
3.22816e-08
1.91369e-06
2.98186e-08
1.91197e-06
2.81422e-08
1.91014e-06
2.59203e-08
1.90842e-06
2.43341e-08
1.9066e-06
2.22469e-08
1.90492e-06
2.05444e-08
1.90317e-06
1.84395e-08
1.90152e-06
1.63461e-08
1.89981e-06
1.39436e-08
1.8979e-06
1.11396e-08
8.16304e-09
1.89574e-06
1.97575e-06
3.58033e-08
1.98268e-06
6.70453e-08
1.9878e-06
7.82596e-08
1.99207e-06
8.52764e-08
1.99595e-06
8.9753e-08
1.99941e-06
9.12643e-08
2.00251e-06
9.1038e-08
2.00528e-06
8.94957e-08
2.00775e-06
8.71314e-08
2.00991e-06
8.38936e-08
2.01179e-06
8.03362e-08
2.01339e-06
7.63072e-08
2.01476e-06
7.23554e-08
2.01586e-06
6.80995e-08
2.01677e-06
6.41182e-08
2.01744e-06
5.99133e-08
2.01794e-06
5.61807e-08
2.01823e-06
5.22689e-08
2.01841e-06
4.89672e-08
2.0184e-06
4.54706e-08
2.01834e-06
4.26621e-08
2.01812e-06
3.95967e-08
2.01789e-06
3.72451e-08
2.01753e-06
3.45833e-08
2.01721e-06
3.2599e-08
2.01677e-06
3.02583e-08
2.01641e-06
2.85054e-08
2.01594e-06
2.63893e-08
2.01556e-06
2.47122e-08
2.0151e-06
2.27089e-08
2.01472e-06
2.09294e-08
2.01427e-06
1.8884e-08
2.01383e-06
1.67911e-08
2.01329e-06
1.44764e-08
2.01253e-06
1.19055e-08
9.22552e-09
2.01147e-06
2.0658e-06
3.05606e-08
2.07226e-06
6.05881e-08
2.0774e-06
7.31219e-08
2.08176e-06
8.09098e-08
2.08574e-06
8.57742e-08
2.08931e-06
8.7697e-08
2.09252e-06
8.78307e-08
2.0954e-06
8.66086e-08
2.09801e-06
8.45215e-08
2.10033e-06
8.15754e-08
2.1024e-06
7.8269e-08
2.10421e-06
7.45017e-08
2.10581e-06
7.07505e-08
2.10718e-06
6.67251e-08
2.10839e-06
6.29119e-08
2.10938e-06
5.89209e-08
2.11025e-06
5.53182e-08
2.11092e-06
5.15953e-08
2.11151e-06
4.8377e-08
2.11194e-06
4.50413e-08
2.11233e-06
4.22676e-08
2.11259e-06
3.93403e-08
2.11285e-06
3.69806e-08
2.113e-06
3.44335e-08
2.1132e-06
3.24067e-08
2.11329e-06
3.01623e-08
2.11345e-06
2.83463e-08
2.11353e-06
2.63094e-08
2.11368e-06
2.45662e-08
2.11376e-06
2.26241e-08
2.11389e-06
2.08033e-08
2.11396e-06
1.88109e-08
2.114e-06
1.6756e-08
2.11393e-06
1.45439e-08
2.11364e-06
1.21925e-08
9.7816e-09
2.11308e-06
2.16023e-06
2.61957e-08
2.1662e-06
5.46146e-08
2.17132e-06
6.80017e-08
2.1758e-06
7.6438e-08
2.17989e-06
8.16831e-08
2.18357e-06
8.40123e-08
2.1869e-06
8.45064e-08
2.1899e-06
8.36073e-08
2.19262e-06
8.17992e-08
2.19505e-06
7.91403e-08
2.19724e-06
7.60801e-08
2.19918e-06
7.25661e-08
2.20092e-06
6.90111e-08
2.20244e-06
6.52051e-08
2.2038e-06
6.15533e-08
2.20496e-06
5.77612e-08
2.20599e-06
5.42819e-08
2.20686e-06
5.0731e-08
2.20764e-06
4.75922e-08
2.20828e-06
4.43998e-08
2.20889e-06
4.16621e-08
2.20938e-06
3.88533e-08
2.20986e-06
3.64926e-08
2.21026e-06
3.40399e-08
2.21068e-06
3.1984e-08
2.21103e-06
2.98145e-08
2.21142e-06
2.79554e-08
2.21175e-06
2.59764e-08
2.21212e-06
2.41934e-08
2.21245e-06
2.22962e-08
2.21279e-06
2.04633e-08
2.21308e-06
1.85206e-08
2.21331e-06
1.65247e-08
2.21344e-06
1.44222e-08
2.21337e-06
1.22614e-08
1.00836e-08
2.21306e-06
2.2592e-06
2.25708e-08
2.26467e-06
4.91441e-08
2.26971e-06
6.29651e-08
2.27426e-06
7.18865e-08
2.27846e-06
7.74824e-08
2.28227e-06
8.02031e-08
2.28572e-06
8.10546e-08
2.28885e-06
8.0482e-08
2.29169e-06
7.89593e-08
2.29424e-06
7.65887e-08
2.29654e-06
7.37776e-08
2.29859e-06
7.05155e-08
2.30044e-06
6.71606e-08
2.30208e-06
6.35706e-08
2.30355e-06
6.00822e-08
2.30483e-06
5.64814e-08
2.30598e-06
5.31276e-08
2.30698e-06
4.97387e-08
2.30788e-06
4.66838e-08
2.30866e-06
4.3623e-08
2.30939e-06
4.09288e-08
2.31002e-06
3.82248e-08
2.31064e-06
3.58747e-08
2.31118e-06
3.35015e-08
2.31173e-06
3.14326e-08
2.31222e-06
2.93227e-08
2.31274e-06
2.74402e-08
2.31321e-06
2.55056e-08
2.3137e-06
2.37045e-08
2.31415e-06
2.18447e-08
2.31459e-06
2.00207e-08
2.31498e-06
1.81296e-08
2.3153e-06
1.62034e-08
2.31551e-06
1.42119e-08
2.31556e-06
1.22154e-08
1.02361e-08
2.31541e-06
2.36291e-06
1.95621e-08
2.36787e-06
4.41837e-08
2.37275e-06
5.80845e-08
2.37733e-06
6.73065e-08
2.38162e-06
7.31949e-08
2.38555e-06
7.62764e-08
2.38913e-06
7.74734e-08
2.39238e-06
7.72263e-08
2.39535e-06
7.59938e-08
2.39803e-06
7.39138e-08
2.40045e-06
7.13567e-08
2.40261e-06
6.8348e-08
2.40457e-06
6.52001e-08
2.40632e-06
6.18263e-08
2.40789e-06
5.85069e-08
2.40928e-06
5.5094e-08
2.41054e-06
5.18714e-08
2.41164e-06
4.86388e-08
2.41265e-06
4.56749e-08
2.41353e-06
4.27384e-08
2.41436e-06
4.00977e-08
2.4151e-06
3.74892e-08
2.41581e-06
3.51623e-08
2.41645e-06
3.28591e-08
2.41709e-06
3.07923e-08
2.41768e-06
2.87327e-08
2.41828e-06
2.68437e-08
2.41884e-06
2.49466e-08
2.4194e-06
2.31448e-08
2.41992e-06
2.13205e-08
2.42042e-06
1.95207e-08
2.42087e-06
1.76847e-08
2.42124e-06
1.58334e-08
2.4215e-06
1.39506e-08
2.42162e-06
1.20967e-08
1.02851e-08
2.42157e-06
2.47156e-06
1.70594e-08
2.47602e-06
3.97204e-08
2.48068e-06
5.3423e-08
2.48523e-06
6.27615e-08
2.48956e-06
6.88615e-08
2.49358e-06
7.22551e-08
2.49728e-06
7.3773e-08
2.50067e-06
7.38422e-08
2.50376e-06
7.28999e-08
2.50656e-06
7.11103e-08
2.50911e-06
6.88114e-08
2.5114e-06
6.60583e-08
2.51347e-06
6.31244e-08
2.51533e-06
5.99687e-08
2.51701e-06
5.68252e-08
2.51851e-06
5.35993e-08
2.51986e-06
5.05148e-08
2.52107e-06
4.74359e-08
2.52217e-06
4.45714e-08
2.52315e-06
4.17553e-08
2.52407e-06
3.91781e-08
2.5249e-06
3.66601e-08
2.5257e-06
3.43681e-08
2.52643e-06
3.21298e-08
2.52714e-06
3.00785e-08
2.52781e-06
2.80648e-08
2.52847e-06
2.61836e-08
2.52909e-06
2.43219e-08
2.5297e-06
2.25334e-08
2.53028e-06
2.07462e-08
2.53082e-06
1.89818e-08
2.5313e-06
1.72046e-08
2.5317e-06
1.54303e-08
2.532e-06
1.36518e-08
2.53217e-06
1.19228e-08
1.02533e-08
2.5322e-06
2.58535e-06
1.49676e-08
2.58934e-06
3.5723e-08
2.59374e-06
4.90244e-08
2.59819e-06
5.83146e-08
2.60252e-06
6.4533e-08
2.6066e-06
6.81758e-08
2.61039e-06
6.99771e-08
2.61389e-06
7.03429e-08
2.61711e-06
6.96831e-08
2.62004e-06
6.81794e-08
2.62271e-06
6.61396e-08
2.62513e-06
6.36425e-08
2.62732e-06
6.09285e-08
2.6293e-06
5.79928e-08
2.63109e-06
5.50318e-08
2.6327e-06
5.19935e-08
2.63416e-06
4.90543e-08
2.63547e-06
4.61286e-08
2.63666e-06
4.33716e-08
2.63775e-06
4.06746e-08
2.63875e-06
3.81705e-08
2.63967e-06
3.57412e-08
2.64054e-06
3.34951e-08
2.64135e-06
3.13199e-08
2.64214e-06
2.92959e-08
2.64287e-06
2.73275e-08
2.64359e-06
2.54661e-08
2.64427e-06
2.36411e-08
2.64493e-06
2.18773e-08
2.64554e-06
2.01309e-08
2.64612e-06
1.84102e-08
2.64662e-06
1.66952e-08
2.64706e-06
1.49983e-08
2.64739e-06
1.33185e-08
2.64761e-06
1.17003e-08
1.01522e-08
2.64771e-06
2.70449e-06
1.32075e-08
2.70807e-06
3.21489e-08
2.71218e-06
4.49109e-08
2.71648e-06
5.40169e-08
2.72075e-06
6.02613e-08
2.72484e-06
6.40827e-08
2.7287e-06
6.61197e-08
2.73229e-06
6.67524e-08
2.73562e-06
6.63587e-08
2.73867e-06
6.513e-08
2.74146e-06
6.33454e-08
2.744e-06
6.11018e-08
2.74632e-06
5.86106e-08
2.74842e-06
5.58958e-08
2.75033e-06
5.31226e-08
2.75205e-06
5.02726e-08
2.75362e-06
4.74852e-08
2.75503e-06
4.47132e-08
2.75633e-06
4.20715e-08
2.75751e-06
3.9494e-08
2.75861e-06
3.70722e-08
2.75962e-06
3.47318e-08
2.76057e-06
3.25415e-08
2.76146e-06
3.04305e-08
2.76231e-06
2.84444e-08
2.76312e-06
2.65233e-08
2.76389e-06
2.46923e-08
2.76462e-06
2.29074e-08
2.76532e-06
2.11778e-08
2.76598e-06
1.94767e-08
2.76658e-06
1.78064e-08
2.76712e-06
1.6156e-08
2.76758e-06
1.45362e-08
2.76795e-06
1.29491e-08
2.76822e-06
1.14307e-08
9.9877e-09
2.76839e-06
2.82923e-06
1.17165e-08
2.83243e-06
2.89543e-08
2.83626e-06
4.10818e-08
2.84037e-06
4.99035e-08
2.84454e-06
5.60909e-08
2.8486e-06
6.00198e-08
2.85248e-06
6.224e-08
2.85613e-06
6.31024e-08
2.85954e-06
6.29507e-08
2.86269e-06
6.19795e-08
2.8656e-06
6.04407e-08
2.86825e-06
5.84435e-08
2.87069e-06
5.61744e-08
2.87291e-06
5.36786e-08
2.87493e-06
5.10966e-08
2.87677e-06
4.84346e-08
2.87845e-06
4.58044e-08
2.87998e-06
4.31866e-08
2.88138e-06
4.06673e-08
2.88267e-06
3.82105e-08
2.88386e-06
3.58792e-08
2.88496e-06
3.36297e-08
2.886e-06
3.15043e-08
2.88697e-06
2.94602e-08
2.88789e-06
2.75215e-08
2.88876e-06
2.56515e-08
2.8896e-06
2.386e-08
2.89038e-06
2.21202e-08
2.89113e-06
2.04329e-08
2.89182e-06
1.8782e-08
2.89246e-06
1.71675e-08
2.89303e-06
1.55836e-08
2.89353e-06
1.40401e-08
2.89394e-06
1.25403e-08
2.89426e-06
1.11126e-08
9.76218e-09
2.89448e-06
2.22397e-06
1.07324e-08
2.22615e-06
2.6773e-08
2.22888e-06
3.8354e-08
2.23185e-06
4.69284e-08
2.23492e-06
5.30267e-08
2.23794e-06
5.69927e-08
2.24086e-06
5.93182e-08
2.24364e-06
6.03272e-08
2.24625e-06
6.03398e-08
2.24868e-06
5.95475e-08
2.25094e-06
5.81854e-08
2.25302e-06
5.63662e-08
2.25493e-06
5.42623e-08
2.25668e-06
5.19283e-08
2.25828e-06
4.94913e-08
2.25975e-06
4.69697e-08
2.26109e-06
4.4461e-08
2.26232e-06
4.19593e-08
2.26345e-06
3.95367e-08
2.26449e-06
3.71715e-08
2.26545e-06
3.49139e-08
2.26635e-06
3.27342e-08
2.26719e-06
3.06637e-08
2.26798e-06
2.86722e-08
2.26872e-06
2.67754e-08
2.26943e-06
2.49468e-08
2.2701e-06
2.3191e-08
2.27073e-06
2.14885e-08
2.27132e-06
1.98381e-08
2.27188e-06
1.82283e-08
2.27239e-06
1.66586e-08
2.27284e-06
1.51262e-08
2.27324e-06
1.36393e-08
2.27358e-06
1.22027e-08
2.27386e-06
1.08382e-08
9.55219e-09
2.27407e-06
2.39216e-06
9.81965e-09
2.39424e-06
2.46882e-08
2.39691e-06
3.56843e-08
2.39988e-06
4.39628e-08
2.40297e-06
4.99337e-08
2.40606e-06
5.39034e-08
2.40907e-06
5.63081e-08
2.41195e-06
5.74446e-08
2.41468e-06
5.76088e-08
2.41724e-06
5.69872e-08
2.41963e-06
5.57975e-08
2.42184e-06
5.41546e-08
2.42389e-06
5.22171e-08
2.42577e-06
5.00468e-08
2.4275e-06
4.77589e-08
2.42909e-06
4.53813e-08
2.43055e-06
4.29993e-08
2.43189e-06
4.0618e-08
2.43313e-06
3.8298e-08
2.43427e-06
3.60292e-08
2.43533e-06
3.38513e-08
2.43632e-06
3.17463e-08
2.43725e-06
2.97369e-08
2.43812e-06
2.78028e-08
2.43894e-06
2.59539e-08
2.43972e-06
2.41717e-08
2.44045e-06
2.24575e-08
2.44114e-06
2.07974e-08
2.44179e-06
1.9189e-08
2.44239e-06
1.76247e-08
2.44295e-06
1.61039e-08
2.44345e-06
1.46258e-08
2.44389e-06
1.31971e-08
2.44427e-06
1.18235e-08
2.44459e-06
1.05211e-08
9.29738e-09
2.44484e-06
2.57308e-06
8.97241e-09
2.57507e-06
2.26983e-08
2.57768e-06
3.30831e-08
2.58062e-06
4.10213e-08
2.58372e-06
4.68288e-08
2.58686e-06
5.07699e-08
2.58994e-06
5.32266e-08
2.59291e-06
5.44699e-08
2.59575e-06
5.47705e-08
2.59843e-06
5.43086e-08
2.60094e-06
5.32844e-08
2.60328e-06
5.18135e-08
2.60546e-06
5.00411e-08
2.60747e-06
4.80345e-08
2.60933e-06
4.58979e-08
2.61105e-06
4.36665e-08
2.61263e-06
4.14153e-08
2.61409e-06
3.91581e-08
2.61544e-06
3.69457e-08
2.61669e-06
3.47776e-08
2.61786e-06
3.26853e-08
2.61895e-06
3.06597e-08
2.61997e-06
2.87174e-08
2.62092e-06
2.6846e-08
2.62183e-06
2.50511e-08
2.62268e-06
2.33207e-08
2.62348e-06
2.16539e-08
2.62424e-06
2.00414e-08
2.62494e-06
1.84804e-08
2.6256e-06
1.69662e-08
2.62621e-06
1.54981e-08
2.62676e-06
1.4077e-08
2.62725e-06
1.27079e-08
2.62767e-06
1.13974e-08
2.62804e-06
1.01563e-08
8.99304e-09
2.62834e-06
2.76772e-06
8.18497e-09
2.76961e-06
2.08029e-08
2.77214e-06
3.05561e-08
2.77505e-06
3.81167e-08
2.77815e-06
4.37271e-08
2.78131e-06
4.76082e-08
2.78445e-06
5.00902e-08
2.7875e-06
5.14188e-08
2.79043e-06
5.18392e-08
2.79321e-06
5.15238e-08
2.79584e-06
5.0656e-08
2.7983e-06
4.93505e-08
2.8006e-06
4.77398e-08
2.80274e-06
4.58949e-08
2.80473e-06
4.39097e-08
2.80657e-06
4.18253e-08
2.80828e-06
3.97075e-08
2.80986e-06
3.75767e-08
2.81133e-06
3.54763e-08
2.8127e-06
3.34125e-08
2.81397e-06
3.1411e-08
2.81516e-06
2.94694e-08
2.81628e-06
2.76001e-08
2.81733e-06
2.57963e-08
2.81832e-06
2.40617e-08
2.81925e-06
2.23883e-08
2.82013e-06
2.07749e-08
2.82096e-06
1.92153e-08
2.82173e-06
1.7707e-08
2.82245e-06
1.62472e-08
2.82311e-06
1.48356e-08
2.82371e-06
1.3474e-08
2.82425e-06
1.21662e-08
2.82473e-06
1.09188e-08
2.82515e-06
9.73824e-09
8.63427e-09
2.82551e-06
2.9771e-06
7.45162e-09
2.9789e-06
1.90007e-08
2.98135e-06
2.8108e-08
2.9842e-06
3.526e-08
2.98729e-06
4.0642e-08
2.99046e-06
4.44332e-08
2.99364e-06
4.69143e-08
2.99675e-06
4.83063e-08
2.99976e-06
4.88292e-08
3.00264e-06
4.8646e-08
3.00537e-06
4.7924e-08
3.00795e-06
4.67754e-08
3.01036e-06
4.53211e-08
3.01262e-06
4.36339e-08
3.01474e-06
4.17987e-08
3.0167e-06
3.98603e-08
3.01853e-06
3.7877e-08
3.02023e-06
3.58739e-08
3.02182e-06
3.38884e-08
3.0233e-06
3.19319e-08
3.02469e-06
3.00256e-08
3.02599e-06
2.81721e-08
3.0272e-06
2.6381e-08
3.02835e-06
2.46499e-08
3.02943e-06
2.29812e-08
3.03045e-06
2.13703e-08
3.03141e-06
1.9816e-08
3.03231e-06
1.83145e-08
3.03315e-06
1.68638e-08
3.03394e-06
1.54628e-08
3.03466e-06
1.41111e-08
3.03532e-06
1.28114e-08
3.03592e-06
1.15662e-08
3.03646e-06
1.0382e-08
3.03694e-06
9.2618e-09
8.21616e-09
3.03735e-06
3.20233e-06
6.76672e-09
3.20404e-06
1.72897e-08
3.20641e-06
2.57419e-08
3.20921e-06
3.24604e-08
3.21226e-06
3.75853e-08
3.21544e-06
4.1258e-08
3.21864e-06
4.37128e-08
3.2218e-06
4.51462e-08
3.22487e-06
4.57538e-08
3.22783e-06
4.56879e-08
3.23066e-06
4.51001e-08
3.23333e-06
4.40988e-08
3.23586e-06
4.27943e-08
3.23823e-06
4.12594e-08
3.24046e-06
3.95711e-08
3.24255e-06
3.77764e-08
3.2445e-06
3.59274e-08
3.24632e-06
3.40521e-08
3.24802e-06
3.21835e-08
3.24962e-06
3.03362e-08
3.25111e-06
2.85287e-08
3.25252e-06
2.67667e-08
3.25384e-06
2.50585e-08
3.25509e-06
2.34045e-08
3.25626e-06
2.18069e-08
3.25737e-06
2.02636e-08
3.25841e-06
1.87736e-08
3.25939e-06
1.73351e-08
3.26031e-06
1.59467e-08
3.26116e-06
1.46082e-08
3.26195e-06
1.33198e-08
3.26268e-06
1.20841e-08
3.26334e-06
1.09028e-08
3.26394e-06
9.78209e-09
3.26448e-06
8.72202e-09
7.73414e-09
3.26497e-06
3.44462e-06
6.12495e-09
3.44624e-06
1.56671e-08
3.44852e-06
2.34601e-08
3.45126e-06
2.97257e-08
3.45428e-06
3.45675e-08
3.45744e-06
3.80943e-08
3.46066e-06
4.0498e-08
3.46385e-06
4.1951e-08
3.46698e-06
4.26253e-08
3.47001e-06
4.26612e-08
3.47291e-06
4.21952e-08
3.47568e-06
4.1331e-08
3.4783e-06
4.01685e-08
3.48078e-06
3.87796e-08
3.48312e-06
3.72342e-08
3.48532e-06
3.55799e-08
3.48738e-06
3.38637e-08
3.48932e-06
3.21154e-08
3.49114e-06
3.03645e-08
3.49285e-06
2.86277e-08
3.49445e-06
2.69215e-08
3.49596e-06
2.52539e-08
3.49739e-06
2.36325e-08
3.49874e-06
2.20598e-08
3.5e-06
2.05379e-08
3.5012e-06
1.90666e-08
3.50233e-06
1.76458e-08
3.50339e-06
1.62747e-08
3.50438e-06
1.49526e-08
3.50531e-06
1.36803e-08
3.50617e-06
1.24578e-08
3.50697e-06
1.1288e-08
3.5077e-06
1.01716e-08
3.50837e-06
9.11467e-09
3.50898e-06
8.11477e-09
7.18428e-09
3.50953e-06
3.70526e-06
5.52147e-09
3.7068e-06
1.41294e-08
3.70899e-06
2.12638e-08
3.71166e-06
2.7062e-08
3.71463e-06
3.15977e-08
3.71777e-06
3.49528e-08
3.72098e-06
3.72812e-08
3.7242e-06
3.87319e-08
3.72737e-06
3.94543e-08
3.73046e-06
3.9576e-08
3.73344e-06
3.92192e-08
3.73629e-06
3.84811e-08
3.739e-06
3.74524e-08
3.74158e-06
3.62024e-08
3.74402e-06
3.4795e-08
3.74632e-06
3.32771e-08
3.74849e-06
3.16917e-08
3.75054e-06
3.00689e-08
3.75247e-06
2.84357e-08
3.75429e-06
2.681e-08
3.756e-06
2.52071e-08
3.75762e-06
2.36362e-08
3.75915e-06
2.21048e-08
3.76059e-06
2.06167e-08
3.76195e-06
1.91746e-08
3.76324e-06
1.77795e-08
3.76445e-06
1.64319e-08
3.76559e-06
1.5132e-08
3.76667e-06
1.38799e-08
3.76767e-06
1.26766e-08
3.76861e-06
1.15224e-08
3.76947e-06
1.04201e-08
3.77028e-06
9.36953e-09
3.77101e-06
8.37657e-09
3.77169e-06
7.43691e-09
6.56361e-09
3.77231e-06
3.98563e-06
4.95212e-09
3.98709e-06
1.26723e-08
3.9892e-06
1.91533e-08
3.99179e-06
2.44742e-08
3.9947e-06
2.8684e-08
3.99781e-06
3.18431e-08
4.00102e-06
3.40725e-08
4.00425e-06
3.54988e-08
4.00746e-06
3.62504e-08
4.01059e-06
3.64414e-08
4.01363e-06
3.61802e-08
4.01655e-06
3.55568e-08
4.01935e-06
3.4653e-08
4.02202e-06
3.35345e-08
4.02456e-06
3.22597e-08
4.02696e-06
3.08737e-08
4.02924e-06
2.94164e-08
4.03139e-06
2.79172e-08
4.03342e-06
2.64014e-08
4.03534e-06
2.48871e-08
4.03716e-06
2.33888e-08
4.03888e-06
2.19165e-08
4.04051e-06
2.04778e-08
4.04205e-06
1.90774e-08
4.0435e-06
1.77185e-08
4.04488e-06
1.64031e-08
4.04618e-06
1.51322e-08
4.04741e-06
1.3907e-08
4.04856e-06
1.27278e-08
4.04964e-06
1.15961e-08
4.05065e-06
1.0512e-08
4.05159e-06
9.4784e-09
4.05246e-06
8.49446e-09
4.05328e-06
7.56569e-09
4.05403e-06
6.68641e-09
5.87021e-09
4.05472e-06
4.28723e-06
4.41334e-09
4.28861e-06
1.1291e-08
4.29064e-06
1.71278e-08
4.29315e-06
2.19653e-08
4.296e-06
2.58329e-08
4.29907e-06
2.87737e-08
4.30226e-06
3.08812e-08
4.3055e-06
3.22611e-08
4.30873e-06
3.30223e-08
4.3119e-06
3.32654e-08
4.315e-06
3.30855e-08
4.31799e-06
3.25644e-08
4.32087e-06
3.1776e-08
4.32362e-06
3.07809e-08
4.32625e-06
2.96327e-08
4.32875e-06
2.83741e-08
4.33112e-06
2.70417e-08
4.33337e-06
2.56641e-08
4.33551e-06
2.42649e-08
4.33754e-06
2.28619e-08
4.33946e-06
2.14693e-08
4.34127e-06
2.00973e-08
4.343e-06
1.87536e-08
4.34463e-06
1.74436e-08
4.34618e-06
1.61709e-08
4.34764e-06
1.49383e-08
4.34903e-06
1.37474e-08
4.35034e-06
1.25997e-08
4.35157e-06
1.1496e-08
4.35273e-06
1.04379e-08
4.35381e-06
9.42566e-09
4.35483e-06
8.46179e-09
4.35578e-06
7.54509e-09
4.35666e-06
6.68075e-09
4.35749e-06
5.86211e-09
5.10302e-09
4.35826e-06
4.61167e-06
3.90211e-09
4.61298e-06
9.98039e-09
4.61492e-06
1.51854e-08
4.61735e-06
1.9537e-08
4.62013e-06
2.3049e-08
4.62316e-06
2.57515e-08
4.62632e-06
2.77153e-08
4.62956e-06
2.9027e-08
4.6328e-06
2.97779e-08
4.63601e-06
3.00551e-08
4.63915e-06
2.99412e-08
4.64221e-06
2.95095e-08
4.64516e-06
2.88257e-08
4.64799e-06
2.79455e-08
4.65071e-06
2.69172e-08
4.6533e-06
2.57808e-08
4.65577e-06
2.45699e-08
4.65813e-06
2.33115e-08
4.66036e-06
2.20278e-08
4.66249e-06
2.07361e-08
4.66451e-06
1.945e-08
4.66643e-06
1.81797e-08
4.66825e-06
1.69332e-08
4.66997e-06
1.57161e-08
4.67161e-06
1.45325e-08
4.67317e-06
1.33856e-08
4.67464e-06
1.22774e-08
4.67603e-06
1.12098e-08
4.67734e-06
1.01839e-08
4.67857e-06
9.20129e-09
4.67974e-06
8.26225e-09
4.68083e-06
7.36912e-09
4.68186e-06
6.52033e-09
4.68282e-06
5.72077e-09
4.68371e-06
4.96315e-09
4.26139e-09
4.68456e-06
4.96066e-06
3.41586e-09
4.96191e-06
8.73479e-09
4.96377e-06
1.3323e-08
4.96612e-06
1.71889e-08
4.96883e-06
2.03352e-08
4.9718e-06
2.27818e-08
4.97494e-06
2.45814e-08
4.97816e-06
2.58037e-08
4.98142e-06
2.65241e-08
4.98465e-06
2.68168e-08
4.98784e-06
2.67528e-08
4.99095e-06
2.63966e-08
4.99397e-06
2.5806e-08
4.99689e-06
2.5031e-08
4.99969e-06
2.41153e-08
5.00238e-06
2.30954e-08
5.00494e-06
2.20019e-08
5.0074e-06
2.086e-08
5.00973e-06
1.96905e-08
5.01196e-06
1.85097e-08
5.01408e-06
1.73306e-08
5.01609e-06
1.61635e-08
5.01801e-06
1.5016e-08
5.01983e-06
1.38941e-08
5.02156e-06
1.28022e-08
5.02321e-06
1.17436e-08
5.02476e-06
1.07207e-08
5.02624e-06
9.73566e-09
5.02763e-06
8.78964e-09
5.02895e-06
7.88434e-09
5.03019e-06
7.01994e-09
5.03136e-06
6.19861e-09
5.03246e-06
5.41855e-09
5.0335e-06
4.68433e-09
5.03447e-06
3.98836e-09
3.34443e-09
5.03539e-06
5.33608e-06
2.95222e-09
5.33727e-06
7.54834e-09
5.33905e-06
1.1536e-08
5.34132e-06
1.49188e-08
5.34397e-06
1.76918e-08
5.34688e-06
1.98672e-08
5.34998e-06
2.14837e-08
5.35319e-06
2.25962e-08
5.35645e-06
2.32662e-08
5.35971e-06
2.35557e-08
5.36293e-06
2.35248e-08
5.3661e-06
2.32293e-08
5.36919e-06
2.27194e-08
5.37218e-06
2.20394e-08
5.37507e-06
2.12281e-08
5.37784e-06
2.03181e-08
5.38051e-06
1.93373e-08
5.38306e-06
1.83089e-08
5.3855e-06
1.72516e-08
5.38783e-06
1.6181e-08
5.39005e-06
1.51093e-08
5.39217e-06
1.40463e-08
5.39418e-06
1.29996e-08
5.3961e-06
1.1975e-08
5.39793e-06
1.09771e-08
5.39966e-06
1.00093e-08
5.40131e-06
9.07422e-09
5.40287e-06
8.17403e-09
5.40435e-06
7.31001e-09
5.40575e-06
6.48381e-09
5.40707e-06
5.69559e-09
5.40832e-06
4.94728e-09
5.4095e-06
4.23702e-09
5.41062e-06
3.56903e-09
5.41167e-06
2.93567e-09
2.35041e-09
5.41267e-06
5.73992e-06
2.50888e-09
5.74105e-06
6.41478e-09
5.74277e-06
9.81865e-09
5.74496e-06
1.27223e-08
5.74754e-06
1.51164e-08
5.7504e-06
1.70077e-08
5.75346e-06
1.84239e-08
5.75665e-06
1.94074e-08
5.75991e-06
2.00075e-08
5.76319e-06
2.0275e-08
5.76645e-06
2.026e-08
5.76967e-06
2.00099e-08
5.77282e-06
1.95676e-08
5.77589e-06
1.89715e-08
5.77886e-06
1.82554e-08
5.78173e-06
1.74483e-08
5.78449e-06
1.6575e-08
5.78715e-06
1.5656e-08
5.78969e-06
1.47087e-08
5.79212e-06
1.37472e-08
5.79445e-06
1.27827e-08
5.79667e-06
1.18246e-08
5.79879e-06
1.08799e-08
5.80081e-06
9.95449e-09
5.80274e-06
9.0527e-09
5.80457e-06
8.17804e-09
5.80631e-06
7.33307e-09
5.80796e-06
6.51997e-09
5.80953e-06
5.74004e-09
5.81102e-06
4.99484e-09
5.81243e-06
4.28448e-09
5.81377e-06
3.61071e-09
5.81503e-06
2.97161e-09
5.81623e-06
2.37111e-09
5.81737e-06
1.80167e-09
1.27636e-09
5.81844e-06
6.17432e-06
2.08338e-09
6.17541e-06
5.32728e-09
6.17707e-06
8.16319e-09
6.1792e-06
1.05924e-08
6.18171e-06
1.26037e-08
6.18452e-06
1.41998e-08
6.18754e-06
1.54e-08
6.19071e-06
1.62366e-08
6.19397e-06
1.67479e-08
6.19727e-06
1.69751e-08
6.20057e-06
1.69589e-08
6.20384e-06
1.67386e-08
6.20706e-06
1.63503e-08
6.2102e-06
1.58265e-08
6.21326e-06
1.5196e-08
6.21623e-06
1.44841e-08
6.21909e-06
1.37121e-08
6.22185e-06
1.28984e-08
6.2245e-06
1.20581e-08
6.22704e-06
1.1204e-08
6.22948e-06
1.03462e-08
6.23181e-06
9.49314e-09
6.23404e-06
8.65156e-09
6.23617e-06
7.8268e-09
6.2382e-06
7.02302e-09
6.24013e-06
6.24356e-09
6.24197e-06
5.49089e-09
6.24372e-06
4.76707e-09
6.24539e-06
4.07334e-09
6.24698e-06
3.41114e-09
6.24848e-06
2.78052e-09
6.24991e-06
2.18304e-09
6.25126e-06
1.6168e-09
6.25255e-06
1.08543e-09
6.25377e-06
5.81624e-10
1.17969e-10
6.25493e-06
6.64161e-06
1.67292e-09
6.64266e-06
4.27817e-09
6.64427e-06
6.56003e-09
6.64634e-06
8.51922e-09
6.6488e-06
1.01444e-08
6.65156e-06
1.14355e-08
6.65456e-06
1.24056e-08
6.65771e-06
1.30784e-08
6.66098e-06
1.34834e-08
6.6643e-06
1.36525e-08
6.66764e-06
1.36184e-08
6.67097e-06
1.34125e-08
6.67425e-06
1.30644e-08
6.67748e-06
1.2601e-08
6.68063e-06
1.20463e-08
6.68369e-06
1.14213e-08
6.68666e-06
1.07444e-08
6.68953e-06
1.00311e-08
6.69229e-06
9.29454e-09
6.69495e-06
8.54567e-09
6.6975e-06
7.79355e-09
6.69995e-06
7.04558e-09
6.70229e-06
6.30774e-09
6.70453e-06
5.58486e-09
6.70668e-06
4.88071e-09
6.70872e-06
4.19835e-09
6.71067e-06
3.54003e-09
6.71253e-06
2.90763e-09
6.7143e-06
2.30226e-09
6.71599e-06
1.72517e-09
6.71759e-06
1.17638e-09
6.71912e-06
6.57231e-10
6.72057e-06
1.65876e-10
6.72195e-06
-2.94334e-10
6.72326e-06
-7.30423e-10
-1.13031e-09
6.72451e-06
7.14428e-06
1.27413e-09
7.1453e-06
3.25845e-09
7.14686e-06
4.99699e-09
7.14889e-06
6.48924e-09
7.15131e-06
7.72475e-09
7.15404e-06
8.70174e-09
7.15702e-06
9.42865e-09
7.16018e-06
9.9222e-09
7.16346e-06
1.02041e-08
7.16681e-06
1.02984e-08
7.1702e-06
1.02302e-08
7.17359e-06
1.00239e-08
7.17695e-06
9.70267e-09
7.18026e-06
9.28799e-09
7.18351e-06
8.79908e-09
7.18668e-06
8.25301e-09
7.18976e-06
7.66466e-09
7.19274e-06
7.04684e-09
7.19563e-06
6.41043e-09
7.19841e-06
5.76459e-09
7.20108e-06
5.11693e-09
7.20365e-06
4.47372e-09
7.20612e-06
3.84006e-09
7.20849e-06
3.22008e-09
7.21075e-06
2.61705e-09
7.21292e-06
2.0336e-09
7.21498e-06
1.47165e-09
7.21696e-06
9.32832e-10
7.21884e-06
4.18057e-10
7.22064e-06
-7.16135e-11
7.22235e-06
-5.36275e-10
7.22398e-06
-9.74755e-10
7.22554e-06
-1.38886e-09
7.22702e-06
-1.77552e-09
7.22843e-06
-2.14141e-09
-2.47501e-09
7.22978e-06
7.685e-06
8.82757e-10
7.686e-06
2.25718e-09
7.68754e-06
3.45849e-09
7.68954e-06
4.4841e-09
7.69194e-06
5.32501e-09
7.69466e-06
5.97861e-09
7.69764e-06
6.44973e-09
7.70081e-06
6.74944e-09
7.70413e-06
6.89271e-09
7.70753e-06
6.89666e-09
7.71098e-06
6.77931e-09
7.71444e-06
6.55861e-09
7.71789e-06
6.25177e-09
7.72131e-06
5.87484e-09
7.72466e-06
5.4424e-09
7.72795e-06
4.96748e-09
7.73115e-06
4.46155e-09
7.73426e-06
3.93454e-09
7.73728e-06
3.39495e-09
7.74019e-06
2.84998e-09
7.74301e-06
2.30564e-09
7.74571e-06
1.76694e-09
7.74831e-06
1.23793e-09
7.75081e-06
7.21925e-10
7.75321e-06
2.21541e-10
7.7555e-06
-2.61125e-10
7.7577e-06
-7.24546e-10
7.7598e-06
-1.16745e-09
7.76181e-06
-1.58916e-09
7.76372e-06
-1.98887e-09
7.76555e-06
-2.36677e-09
7.7673e-06
-2.7219e-09
7.76897e-06
-3.05602e-09
7.77056e-06
-3.36632e-09
7.77208e-06
-3.65912e-09
-3.92353e-09
7.77353e-06
8.26665e-06
4.93008e-10
8.26764e-06
1.26051e-09
8.26918e-06
1.92422e-09
8.27118e-06
2.47905e-09
8.27359e-06
2.91775e-09
8.27633e-06
3.23741e-09
8.27934e-06
3.44006e-09
8.28256e-06
3.53194e-09
8.28593e-06
3.52215e-09
8.2894e-06
3.42143e-09
8.29294e-06
3.2414e-09
8.29651e-06
2.99383e-09
8.30007e-06
2.69019e-09
8.3036e-06
2.34131e-09
8.30709e-06
1.95716e-09
8.31051e-06
1.54671e-09
8.31385e-06
1.11796e-09
8.31711e-06
6.77861e-10
8.32027e-06
2.3242e-10
8.32333e-06
-2.13255e-10
8.32629e-06
-6.54876e-10
8.32915e-06
-1.08888e-09
8.3319e-06
-1.51235e-09
8.33454e-06
-1.92294e-09
8.33708e-06
-2.31879e-09
8.33952e-06
-2.69842e-09
8.34186e-06
-3.06081e-09
8.34409e-06
-3.40508e-09
8.34624e-06
-3.73087e-09
8.34828e-06
-4.03763e-09
8.35024e-06
-4.32571e-09
8.35212e-06
-4.59434e-09
8.35391e-06
-4.84527e-09
8.35561e-06
-5.07593e-09
8.35725e-06
-5.2923e-09
-5.48414e-09
8.35881e-06
8.89233e-06
9.74512e-11
8.89334e-06
2.50236e-10
8.8949e-06
3.6699e-10
8.89694e-06
4.40269e-10
8.89939e-06
4.64667e-10
8.90219e-06
4.37302e-10
8.90527e-06
3.57805e-10
8.90858e-06
2.28109e-10
8.91205e-06
5.18547e-11
8.91563e-06
-1.66179e-10
8.91929e-06
-4.20519e-10
8.92299e-06
-7.05356e-10
8.9267e-06
-1.01484e-09
8.93038e-06
-1.34329e-09
8.93403e-06
-1.68539e-09
8.93761e-06
-2.03621e-09
8.94112e-06
-2.39134e-09
8.94454e-06
-2.7469e-09
8.94787e-06
-3.09949e-09
8.95111e-06
-3.4462e-09
8.95424e-06
-3.78462e-09
8.95726e-06
-4.11272e-09
8.96018e-06
-4.42887e-09
8.96299e-06
-4.73175e-09
8.96569e-06
-5.02039e-09
8.96828e-06
-5.29402e-09
8.97077e-06
-5.55215e-09
8.97316e-06
-5.7944e-09
8.97545e-06
-6.02072e-09
8.97765e-06
-6.2309e-09
8.97975e-06
-6.42543e-09
8.98176e-06
-6.6038e-09
8.98368e-06
-6.76771e-09
8.98552e-06
-6.91489e-09