/*--------------------------------*- C++ -*----------------------------------*\
| =========                 |                                                 |
| \\      /  F ield         | OpenFOAM: The Open Source CFD Toolbox           |
|  \\    /   O peration     | Version:  2.4.0                                 |
|   \\  /    A nd           | Web:      www.OpenFOAM.org                      |
|    \\/     M anipulation  |                                                 |
\*---------------------------------------------------------------------------*/
FoamFile
{
    version     2.0;
    format      ascii;
    class       volScalarField;
    location    "0.025";
    object      p;
}
// * * * * * * * * * * * * * * * * * * * * * * * * * * * * * * * * * * * * * //

dimensions      [0 2 -2 0 0 0 0];

internalField   nonuniform List<scalar> 
1900
(
54.5749
52.8408
51.703
51.3592
51.2119
51.0881
50.9914
50.9561
50.9993
51.1411
51.4196
51.8909
52.6238
53.6996
55.1766
50.5277
50.4273
50.5452
50.7197
50.8491
50.8702
50.8517
50.8572
50.918
51.0611
51.3268
51.771
52.4631
53.4885
54.9283
51.0107
51.5306
51.5209
51.3328
51.172
51.05
50.9605
50.917
50.9379
51.0442
51.2693
51.6622
52.2855
53.2157
54.539
51.1392
51.3005
51.1826
51.0254
50.9624
50.9101
50.8576
50.83
50.8524
50.9483
51.1498
51.5024
52.0643
52.9049
54.0998
51.1465
51.2097
51.1507
51.045
50.9738
50.9064
50.8403
50.7974
50.7998
50.8683
51.0315
51.3302
51.8174
52.5567
53.6134
51.1342
51.1651
51.1278
51.0357
50.9523
50.8759
50.8026
50.7475
50.7297
50.7682
50.8882
51.1259
51.5292
52.157
53.0696
51.124
51.138
51.1039
51.0174
50.928
50.8445
50.7628
50.6931
50.6518
50.6558
50.7265
50.8951
51.2044
51.7093
52.4685
51.114
51.1165
51.0806
50.9978
50.9046
50.8134
50.7213
50.6349
50.5676
50.5335
50.5497
50.642
50.8477
51.2181
51.8121
51.1044
51.0999
51.0617
50.9804
50.8828
50.7831
50.6789
50.5742
50.479
50.4039
50.3613
50.3709
50.4641
50.6882
51.1036
51.0963
51.0882
51.0477
50.965
50.8623
50.7535
50.6364
50.512
50.3875
50.2694
50.1646
50.0862
50.0584
50.124
50.3461
51.0901
51.0812
51.0385
50.9519
50.8432
50.7253
50.5945
50.4499
50.2952
50.1327
49.9633
49.7922
49.6356
49.5298
49.5412
51.0861
51.0791
51.0343
50.9415
50.8259
50.6992
50.5544
50.389
50.2039
49.9966
49.7613
49.494
49.2011
48.9099
48.6901
51.0839
51.0823
51.0356
50.934
50.8111
50.6757
50.5169
50.3308
50.1158
49.8643
49.5629
49.1973
48.7616
48.2698
47.7937
51.0831
51.0913
51.0426
50.9302
50.8002
50.6563
50.4834
50.2773
50.0336
49.7396
49.3735
48.9091
48.3255
47.6169
46.8535
51.0838
51.1072
51.0522
50.9279
50.7936
50.6423
50.4552
50.2303
49.96
49.6264
49.1989
48.6377
47.9033
46.9613
45.8725
51.087
51.1422
51.0634
50.9209
50.7896
50.6353
50.436
50.1941
49.8994
49.5304
49.0464
48.3934
47.5087
46.3171
44.8556
51.0719
51.2236
51.0805
50.88
50.7462
50.5975
50.3965
50.145
49.8352
49.4421
48.9115
48.1777
47.1496
45.6953
43.8032
50.9378
51.4485
51.4131
51.1825
50.9658
50.7289
50.4738
50.1873
49.8477
49.4113
48.8266
48.0166
46.85
45.1161
42.7071
50.4518
50.3422
50.4335
50.56
50.606
50.5171
50.329
50.0775
49.753
49.3196
48.7256
47.8734
46.5981
44.5913
41.5127
54.4953
52.7489
51.5826
51.1889
50.9652
50.7183
50.4366
50.1255
49.7582
49.2899
48.6686
47.7907
46.4538
44.2863
40.4425
57.2278
59.6837
62.2709
64.5603
66.2347
67.2701
67.8941
68.3805
68.8044
69.1314
69.3896
69.6322
69.8365
69.9411
69.946
69.8613
69.7009
69.5228
69.4261
69.5058
69.7911
70.1983
70.5191
70.6082
70.5185
56.9174
59.2792
61.8517
64.2671
66.1515
67.3672
68.0914
68.6186
69.0174
69.2667
69.4603
69.685
69.9194
70.0944
70.1181
69.9466
69.6115
69.2361
68.9911
68.9818
69.211
69.6121
70.0578
70.3368
70.3439
56.3218
58.424
60.7382
63.0302
65.0275
66.5757
67.6988
68.5139
69.0629
69.3831
69.5894
69.7952
70.0239
70.2011
70.2028
69.9374
69.4601
68.9661
68.6377
68.5299
68.6339
68.9297
69.3644
69.7916
69.9808
55.69
57.5574
59.5924
61.6233
63.4731
65.0724
66.4473
67.6196
68.5408
69.1748
69.5789
69.8633
70.0856
70.2097
70.1514
69.8336
69.3223
68.7934
68.4426
68.2874
68.3209
68.5184
68.8418
69.2214
69.5726
55.0302
56.691
58.5027
60.3271
62.0176
63.5267
64.9017
66.1936
67.3746
68.3645
69.1153
69.6389
69.9577
70.0723
69.9722
69.6525
69.1846
68.7232
68.406
68.2658
68.2932
68.4599
68.718
68.998
69.41
54.3149
55.7716
57.3824
59.0376
60.6085
62.0418
63.3668
64.6392
65.8775
67.0447
68.0752
68.899
69.4517
69.7002
69.6653
69.4143
69.0538
68.7129
68.4909
68.4202
68.4962
68.6911
68.9598
69.2264
69.659
53.5362
54.7889
56.2094
57.7078
59.1682
60.5396
61.8328
63.0788
64.2993
65.4954
66.6406
67.6697
68.4821
68.9874
69.1691
69.1017
68.9166
68.7439
68.6693
68.72
68.8927
69.1649
69.5026
69.8575
70.2977
52.6934
53.7426
54.9826
56.3342
57.6861
58.9931
60.2593
61.4948
62.7031
63.8876
65.0474
66.1565
67.1436
67.9118
68.4001
68.6341
68.719
68.7802
68.9053
69.1257
69.4392
69.8292
70.2717
70.7442
71.2899
51.7873
52.632
53.6998
54.9144
56.1614
57.4007
58.6351
59.8627
61.0724
62.2555
63.4112
64.5362
65.604
66.5571
67.3351
67.9194
68.3561
68.7313
69.1222
69.5662
70.0656
70.6069
71.1819
71.8028
72.4934
50.8173
51.4541
52.3574
53.4438
54.5902
55.7611
56.9596
58.1755
59.3892
60.5828
61.7468
62.8796
63.9803
65.0361
66.0216
66.9151
67.7187
68.4626
69.1862
69.9143
70.6478
71.3738
72.1009
72.8862
73.7288
49.7804
50.2036
50.9501
51.9168
52.9664
54.0713
55.2342
56.4355
57.6498
58.8563
60.0388
61.1896
62.3132
63.4223
64.5288
65.6374
66.7452
67.8457
68.9314
69.9908
71.0038
71.9483
72.8434
73.8121
74.7791
48.6712
48.8729
49.472
50.3268
51.2826
52.326
53.4582
54.6464
55.8589
57.0754
58.2773
59.4517
60.5996
61.7402
62.9058
64.1303
65.4325
66.8049
68.2128
69.6035
70.9166
72.1028
73.1765
74.3333
75.4977
47.4816
47.452
47.9165
48.6665
49.53
50.5177
51.628
52.8091
54.0218
55.2457
56.4629
57.6578
58.8273
59.9871
61.1733
62.4347
63.8149
65.3294
66.9486
68.5986
70.1781
71.5954
72.8382
74.1579
75.5208
46.2006
45.9293
46.278
46.9283
47.6983
48.6382
49.7384
50.9221
52.1411
53.3742
54.6025
55.8099
56.991
58.1561
59.3351
60.5767
61.9367
63.4555
65.13
66.8966
68.6347
70.2139
71.5839
73.0424
74.6253
44.8118
44.2909
44.5523
45.104
45.7761
46.6782
47.7829
48.9818
50.2175
51.4662
52.7052
53.9169
55.0956
56.2475
57.3934
58.5723
59.837
61.2394
62.8037
64.497
66.2107
67.7999
69.1819
70.699
72.4757
43.2904
42.5229
42.7385
43.1835
43.7502
44.628
45.7544
46.9833
48.2497
49.5253
50.7797
51.9915
53.1544
54.2724
55.3586
56.4382
57.5501
58.7407
60.0457
61.4611
62.9093
64.2606
65.4215
66.8026
68.6677
41.5911
40.6146
40.8353
41.1486
41.6022
42.4749
43.643
44.9192
46.2342
47.5531
48.8336
50.0472
51.1856
52.2515
53.252
54.1992
55.1127
56.0195
56.9447
57.8917
58.8053
59.581
60.1291
60.9722
62.6301
39.6345
38.5928
38.8588
38.9878
39.3211
40.2075
41.4373
42.7815
44.1669
45.5495
46.8723
48.0966
49.2095
50.2112
51.1048
51.8915
52.5707
53.1416
53.5989
53.922
54.0404
53.8452
53.2064
52.7657
53.3386
37.195
36.4632
36.7514
36.6319
36.8871
37.8192
39.1176
40.547
42.0335
43.5106
44.8997
46.1508
47.2457
48.1809
48.9552
49.5616
49.9815
50.1833
50.118
49.7115
48.8232
47.2624
44.6922
41.6718
38.6762
34.148
34.4495
34.5877
34.0463
34.2648
35.34
36.7569
38.2732
39.8527
41.4318
42.9095
44.2129
45.3097
46.1889
46.8447
47.2642
47.4146
47.2362
46.6319
45.4561
43.4488
40.253
35.0387
28.0427
14.5453
29.3134
31.7634
31.6229
30.4188
30.3652
31.5589
33.3052
35.1969
37.0847
38.8744
40.4947
41.8975
43.0455
43.9101
44.473
44.7156
44.5982
44.0413
42.9051
40.9711
37.8374
32.9291
24.5471
11.7177
-22.9337
30.7368
31.556
30.5652
28.8665
27.9182
28.1511
29.3743
31.275
33.4985
35.7013
37.6607
39.2867
40.5537
41.4474
41.9491
42.0342
41.6593
40.738
39.1052
36.4959
32.4025
26.1611
15.643
0.761937
-26.2217
30.2512
30.5877
29.6767
28.2481
27.062
26.604
27.0043
28.2766
30.2606
32.5824
34.8345
36.7476
38.2088
39.1887
39.6765
39.6505
39.0659
37.8388
35.8064
32.7112
28.0571
21.3543
11.0447
-2.57993
-20.8766
30.055
29.7693
28.6895
27.3449
26.2997
25.7157
25.6882
26.3526
27.7953
29.862
32.1675
34.3007
35.9901
37.1205
37.6608
37.5938
36.8805
35.4465
33.1531
29.7941
24.9751
18.3798
9.09981
-3.25361
-18.467
29.8362
29.0641
27.8086
26.5001
25.5528
25.0007
24.8434
25.1589
26.1052
27.7399
29.8579
32.0535
33.9307
35.2454
35.9008
35.8681
35.1174
33.5901
31.1777
27.7314
22.9704
16.64
8.23334
-2.88924
-16.2506
29.7275
28.5932
27.1362
25.7928
24.9278
24.4345
24.2494
24.4035
25.0155
26.228
28.0237
30.1219
32.0981
33.5922
34.4085
34.4786
33.7757
32.2606
29.8553
26.4549
21.8769
15.92
8.33551
-1.27028
-12.507
29.7464
28.3723
26.6891
25.2571
24.4374
24.0059
23.8314
23.9133
24.3339
25.2281
26.6859
28.5832
30.5616
32.2017
33.2048
33.4352
32.8533
31.438
29.1435
25.9025
21.6119
16.1509
9.42339
1.28182
-8.07714
29.9024
28.3835
26.4583
24.9034
24.0834
23.6924
23.5441
23.596
23.9114
24.6022
25.7867
27.4575
29.369
31.1123
32.3118
32.7497
32.3514
31.1056
28.9999
26.0049
22.0754
17.161
11.237
4.28137
-3.62212
30.1778
28.5545
26.4231
24.7254
23.8604
23.4808
23.3563
23.402
23.6583
24.2288
25.2286
26.709
28.5311
30.346
31.7445
32.43
32.2726
31.2544
29.3909
26.6914
23.1533
18.7728
13.5617
7.56122
0.833301
30.4999
28.8442
26.5596
24.704
23.7555
23.3617
23.2489
23.3005
23.5266
24.0269
24.9168
26.2694
28.021
29.8992
31.5017
32.4719
32.6128
31.8778
30.297
27.915
24.7675
20.8857
16.3075
11.1048
5.34817
30.7963
29.1946
26.8405
24.8213
23.7612
23.3218
23.2098
23.2719
23.4893
23.9515
24.7827
26.0675
27.7885
29.7428
31.561
32.8521
33.3502
32.9598
31.7042
29.6543
26.8821
23.4519
19.4245
14.8827
9.90545
31.0084
29.5476
27.229
25.0635
23.8648
23.3575
23.2296
23.3033
23.5297
23.979
24.786
26.0485
27.78
29.8327
31.8811
33.5242
34.4373
34.4603
33.5856
31.8917
29.4808
26.45
22.8837
18.8728
14.501
31.1041
29.8532
27.6856
25.4164
24.0591
23.4617
23.3016
23.3846
23.6367
24.0959
24.9075
26.1799
27.9538
30.1242
32.4116
34.4247
35.7974
36.3018
35.8768
34.5836
32.539
29.8686
26.6836
23.0889
19.1748
31.0849
30.0774
28.1688
25.8632
24.3391
23.629
23.421
23.5072
23.7925
24.295
25.138
26.4476
28.2862
30.5842
33.1059
35.4839
37.3327
38.3665
38.459
37.6291
35.9851
33.6685
30.8157
27.5513
23.9792
30.9832
30.2075
28.6369
26.3815
24.7004
23.8549
23.5832
23.6638
23.9887
24.5558
25.4642
26.8432
28.7684
31.196
33.9313
36.6406
38.9407
40.5084
41.1565
40.8477
39.6583
37.725
35.1992
32.2225
28.9257
30.8478
30.2511
29.0514
26.9427
25.1377
24.1363
23.7829
23.8474
24.2112
24.8586
25.8668
27.3481
29.3859
31.9518
34.8717
37.8547
40.5375
42.5842
43.7654
43.9905
43.2914
41.7809
39.6091
36.9221
33.8901
30.7191
30.2276
29.3716
27.5051
25.6386
24.4706
24.0133
24.0487
24.4445
25.1771
26.3117
27.929
30.1073
32.8209
35.9122
39.1083
42.0788
44.4974
46.1183
46.8146
46.5783
45.4912
43.6882
41.3057
38.5488
30.6427
30.1613
29.539
27.9746
26.1528
24.8444
24.2622
24.2508
24.6683
25.4818
26.7538
28.5271
30.885
33.7685
37.0317
40.4095
43.5904
46.2572
48.177
49.2049
49.3105
48.5597
47.0682
44.9589
42.4396
30.6195
30.0833
29.5125
28.1859
26.5314
25.1971
24.5105
24.4349
24.853
25.7232
27.0887
29.0713
31.6635
34.7666
38.2425
41.8305
45.214
48.0864
50.2225
51.4727
51.7784
51.2148
49.8889
47.9225
45.4974
30.637
30.0244
29.383
28.122
26.6148
25.3794
24.7172
24.6614
25.1473
26.1367
27.6618
29.7979
32.5477
35.8815
39.5926
43.3968
46.9632
49.9771
52.2124
53.6259
54.1369
53.7531
52.5629
50.6958
48.3011
-77.9949
-70.9054
-70.4489
-69.1793
-68.4686
-67.9539
-67.6277
-67.3964
-67.1746
-66.8457
-66.2696
-65.2913
-63.7701
-61.6003
-58.7099
-55.0958
-50.7928
-45.8825
-40.5146
-34.8913
-29.2539
-23.8456
-18.8752
-14.4847
-10.7478
-7.67056
-5.20031
-3.19274
-1.82717
-0.0250798
-63.1791
-69.2457
-69.4978
-68.8494
-68.1828
-67.715
-67.4254
-67.2352
-67.0627
-66.7888
-66.2707
-65.353
-63.8929
-61.7862
-58.9747
-55.4251
-51.1823
-46.3391
-41.0292
-35.4474
-29.8309
-24.4234
-19.4346
-15.0126
-11.2353
-8.10716
-5.58633
-3.51856
-2.12719
-0.195253
-49.8798
-65.2569
-68.0204
-68.0451
-67.7499
-67.4353
-67.2198
-67.0824
-66.9545
-66.7176
-66.2331
-65.349
-63.9242
-61.8591
-59.0992
-55.6182
-51.4447
-46.6611
-41.4007
-35.8576
-30.2663
-24.868
-19.8737
-15.4329
-11.6246
-8.4558
-5.89086
-3.77286
-2.34893
-0.291266
-41.3961
-58.8953
-65.2939
-66.6686
-67.0071
-67.0359
-66.9638
-66.9154
-66.8435
-66.6423
-66.1816
-65.315
-63.9059
-61.8628
-59.1282
-55.6775
-51.5355
-46.7798
-41.5439
-36.0221
-30.4484
-25.0638
-20.0789
-15.6425
-11.8309
-8.6509
-6.06275
-3.92367
-2.44918
-0.335872
-33.5807
-49.5503
-59.1856
-63.7185
-65.6068
-66.2571
-66.5257
-66.6197
-66.6102
-66.4476
-66.0104
-65.1597
-63.765
-61.7419
-59.0243
-55.5892
-51.4626
-46.7238
-41.5078
-36.0106
-30.4671
-25.1159
-20.164
-15.7559
-11.9623
-8.78857
-6.18641
-4.03856
-2.4883
-0.391657
-25.5918
-38.8549
-49.7194
-57.3527
-62.0169
-64.3575
-65.4244
-65.9066
-66.078
-65.9888
-65.5875
-64.7657
-63.4081
-61.4108
-58.7167
-55.304
-51.2026
-46.4952
-41.32
-35.8734
-30.3888
-25.1003
-20.2078
-15.8489
-12.0868
-8.92567
-6.30895
-4.1514
-2.49893
-0.480764
-18.3935
-29.0111
-39.1061
-47.9094
-54.8939
-59.6765
-62.4985
-64.0086
-64.7425
-64.951
-64.6978
-63.9625
-62.6789
-60.7486
-58.1098
-54.7513
-50.71
-46.0727
-40.9797
-35.6267
-30.2424
-25.053
-20.2483
-15.9567
-12.234
-9.08471
-6.44723
-4.2714
-2.49478
-0.603344
-12.0893
-20.5829
-29.1219
-37.4338
-45.1143
-51.5901
-56.4405
-59.6793
-61.6225
-62.6059
-62.8419
-62.4227
-61.3579
-59.5949
-57.0896
-53.8539
-49.9387
-45.4364
-40.4893
-35.2893
-30.0568
-25.0066
-20.316
-16.1041
-12.4213
-9.27588
-6.60669
-4.39907
-2.4846
-0.749704
-6.26576
-13.1774
-20.2743
-27.5544
-34.782
-41.5933
-47.5666
-52.365
-55.8574
-58.1132
-59.2958
-59.5565
-59.0029
-57.6469
-55.4676
-52.5036
-48.8354
-44.5723
-39.8609
-34.8884
-29.8642
-24.9903
-20.4325
-16.303
-12.6522
-9.49699
-6.78268
-4.52899
-2.47336
-0.904846
-0.689896
-6.44719
-12.4525
-18.8067
-25.3085
-31.7225
-37.8095
-43.2879
-47.8797
-51.3967
-53.7777
-55.0584
-55.3081
-54.61
-53.0042
-50.5471
-47.3246
-43.4568
-39.0989
-34.4376
-29.6757
-25.0067
-20.5905
-16.5389
-12.9086
-9.73015
-6.96053
-4.65174
-2.46209
-1.05466
4.695
-0.216813
-5.42291
-11.0837
-16.9996
-22.9569
-28.8034
-34.3615
-39.4008
-43.6862
-47.0336
-49.3383
-50.5573
-50.7253
-49.8864
-48.1079
-45.4842
-42.1407
-38.2338
-33.948
-29.4835
-25.0331
-20.7585
-16.7781
-13.1599
-9.95161
-7.12404
-4.75911
-2.44919
-1.19138
9.93359
5.64207
1.02269
-4.13037
-9.6424
-15.3025
-20.9743
-26.52
-31.7539
-36.4617
-40.4398
-43.5239
-45.6042
-46.643
-46.6272
-45.5858
-43.6077
-40.8193
-37.3777
-33.4688
-29.2949
-25.0529
-20.9101
-16.9936
-13.3836
-10.1451
-7.26314
-4.84652
-2.43152
-1.3125
15.0918
11.2431
7.03997
2.24892
-2.99198
-8.48829
-14.1088
-19.725
-25.1641
-30.2221
-34.6935
-38.3935
-41.1781
-42.9544
-43.6552
-43.2713
-41.8779
-39.5958
-36.5789
-33.0131
-29.104
-25.0528
-21.0319
-17.1749
-13.573
-10.3072
-7.37697
-4.91443
-2.4083
-1.4164
20.2341
16.683
12.7478
8.18449
3.10498
-2.31776
-7.96464
-13.7138
-19.3955
-24.8044
-29.727
-33.9626
-37.3394
-39.7275
-41.0286
-41.2074
-40.3215
-38.4828
-35.8412
-32.5825
-28.9143
-25.0395
-21.1323
-17.331
-13.7361
-10.4447
-7.4709
-4.96674
-2.38241
-1.49886
25.3948
22.028
18.2341
13.7716
8.74684
3.31669
-2.41463
-8.33354
-14.2725
-20.023
-25.3628
-30.0759
-33.9675
-36.8821
-38.7011
-39.37
-38.9291
-37.4815
-35.1738
-32.1914
-28.7419
-25.0278
-21.2241
-17.472
-13.8812
-10.5638
-7.54964
-5.00688
-2.35812
-1.55428
30.5018
27.238
23.487
19.0242
13.9648
8.45477
2.58614
-3.53325
-9.73707
-15.8146
-21.5372
-26.6767
-31.0215
-34.3957
-36.6641
-37.7577
-37.7049
-36.6006
-34.5875
-31.8499
-28.5949
-25.0244
-21.3126
-17.6027
-14.012
-10.6674
-7.61489
-5.03686
-2.33956
-1.58099
35.3017
32.0801
28.303
23.7826
18.638
13.0034
6.96475
0.629926
-5.83413
-12.2153
-18.2804
-23.7926
-28.5291
-32.2956
-34.9409
-36.3874
-36.6595
-35.8455
-34.0837
-31.5569
-28.4711
-25.0264
-21.3948
-17.7188
-14.1233
-10.7508
-7.66448
-5.05731
-2.3289
-1.58408
39.3702
36.1526
32.3198
27.7366
22.5052
16.7433
10.5392
4.0068
-2.68489
-9.32273
-15.6701
-21.4844
-26.5413
-30.6265
-33.5699
-35.2904
-35.8136
-35.2256
-33.6631
-31.3085
-28.3653
-25.0297
-21.4673
-17.8179
-14.2138
-10.8149
-7.70061
-5.06948
-2.32464
-1.57233
42.5666
39.3141
35.4076
30.7605
25.4465
19.5653
13.2114
6.5078
-0.373618
-7.21778
-13.7837
-19.8199
-25.1146
-29.4534
-32.6297
-34.5626
-35.2618
-34.8174
-33.3829
-31.1521
-28.3267
-25.0906
-21.5921
-17.9598
-14.3321
-10.8904
-7.73734
-5.07638
-2.32298
-1.5554
45.4516
42.1326
38.1154
33.3596
27.9244
21.8979
15.379
8.497
1.4272
-5.61251
-12.3731
-18.5896
-23.962
-28.2921
-31.5363
-33.6514
-34.5925
-34.3895
-33.1677
-31.1094
-28.4122
-25.2542
-21.7819
-18.1302
-14.4538
-10.9574
-7.76331
-5.07702
-2.32049
-1.54259
)
;

boundaryField
{
    inlet
    {
        type            zeroGradient;
    }
    outlet
    {
        type            fixedValue;
        value           uniform 0;
    }
    upperWall
    {
        type            zeroGradient;
    }
    lowerWall
    {
        type            zeroGradient;
    }
    defaultFaces
    {
        type            empty;
    }
}


// ************************************************************************* //
