/*--------------------------------*- C++ -*----------------------------------*\
| =========                 |                                                 |
| \\      /  F ield         | OpenFOAM: The Open Source CFD Toolbox           |
|  \\    /   O peration     | Version:  2.4.0                                 |
|   \\  /    A nd           | Web:      www.OpenFOAM.org                      |
|    \\/     M anipulation  |                                                 |
\*---------------------------------------------------------------------------*/
FoamFile
{
    version     2.0;
    format      ascii;
    class       volScalarField;
    location    "1900";
    object      p;
}
// * * * * * * * * * * * * * * * * * * * * * * * * * * * * * * * * * * * * * //

dimensions      [0 2 -2 0 0 0 0];

internalField   nonuniform List<scalar> 
48900
(
-1.60144
-2.87233
-3.44814
-3.65584
-3.8815
-4.10922
-4.30232
-4.47613
-4.64015
-4.79382
-4.93548
-5.06598
-5.18486
-5.29439
-5.39665
-5.49188
-5.57901
-5.65816
-5.72954
-5.79388
-5.85164
-5.9038
-5.95158
-5.99613
-6.03833
-6.07914
-6.11946
-6.16015
-6.2021
-6.24611
-6.29331
-6.34462
-6.40171
-6.46499
-6.53565
-6.62796
-1.89823
-2.91858
-3.44911
-3.65846
-3.88416
-4.11143
-4.30509
-4.47841
-4.64126
-4.79366
-4.93394
-5.06352
-5.18241
-5.2923
-5.39412
-5.48859
-5.57493
-5.65355
-5.72442
-5.78856
-5.84604
-5.89807
-5.94566
-5.99027
-6.03247
-6.07347
-6.11383
-6.15474
-6.19667
-6.24085
-6.28786
-6.33915
-6.39553
-6.4572
-6.52446
-6.61126
-2.15194
-2.94368
-3.44862
-3.67439
-3.89868
-4.11892
-4.3082
-4.47763
-4.63685
-4.78627
-4.92398
-5.05145
-5.16906
-5.27795
-5.37865
-5.47206
-5.55768
-5.63589
-5.70656
-5.77088
-5.82868
-5.8818
-5.93013
-5.97562
-6.01838
-6.06013
-6.10084
-6.14229
-6.18424
-6.22858
-6.27494
-6.32549
-6.37923
-6.43791
-6.49558
-6.54909
-2.40437
-2.99509
-3.46545
-3.69933
-3.91547
-4.12592
-4.31096
-4.47771
-4.6342
-4.78156
-4.91733
-5.04314
-5.15957
-5.26733
-5.36695
-5.45929
-5.54416
-5.62177
-5.69219
-5.75633
-5.8145
-5.86811
-5.91697
-5.96283
-6.00594
-6.04793
-6.08874
-6.13018
-6.17176
-6.2155
-6.26056
-6.3091
-6.35919
-6.41214
-6.45818
-6.4952
-2.63045
-3.07116
-3.49607
-3.72701
-3.93515
-4.13712
-4.31787
-4.48163
-4.63464
-4.77853
-4.91152
-5.03495
-5.1494
-5.25552
-5.35381
-5.44489
-5.52878
-5.60564
-5.6757
-5.73966
-5.798
-5.85166
-5.90092
-5.94708
-5.9907
-6.03292
-6.07406
-6.11534
-6.15672
-6.19954
-6.2433
-6.28927
-6.33559
-6.38226
-6.42059
-6.4491
-2.81912
-3.15654
-3.53531
-3.75915
-3.95963
-4.15315
-4.32835
-4.48803
-4.6372
-4.77741
-4.90754
-5.02853
-5.14086
-5.24515
-5.34199
-5.43174
-5.5145
-5.59051
-5.66004
-5.7237
-5.78199
-5.83568
-5.88527
-5.93173
-5.97571
-6.0181
-6.05935
-6.10033
-6.14128
-6.18296
-6.2252
-6.26839
-6.31106
-6.35209
-6.38489
-6.40703
-2.9781
-3.24158
-3.57867
-3.79408
-3.98675
-4.17202
-4.34124
-4.49657
-4.64174
-4.77819
-4.90526
-5.02361
-5.13371
-5.23608
-5.33122
-5.41947
-5.50099
-5.57604
-5.64492
-5.70816
-5.76625
-5.81989
-5.86961
-5.91621
-5.96035
-6.00277
-6.04397
-6.08458
-6.12491
-6.16542
-6.20598
-6.24652
-6.28572
-6.32205
-6.35054
-6.36865
-3.11799
-3.32463
-3.62388
-3.83004
-4.01462
-4.19204
-4.35535
-4.50624
-4.64747
-4.7802
-4.90412
-5.01976
-5.12748
-5.22782
-5.32118
-5.40789
-5.48814
-5.56217
-5.63032
-5.69305
-5.75084
-5.80436
-5.85409
-5.90075
-5.94495
-5.98736
-6.0284
-6.06859
-6.10821
-6.14751
-6.18635
-6.22439
-6.26045
-6.29293
-6.31816
-6.33403
-3.24467
-3.40647
-3.67052
-3.86644
-4.04259
-4.21239
-4.3699
-4.51628
-4.65357
-4.78265
-4.90344
-5.01636
-5.12174
-5.22003
-5.3116
-5.39674
-5.47567
-5.54865
-5.61598
-5.67815
-5.73559
-5.7889
-5.83855
-5.88519
-5.92936
-5.97164
-6.01243
-6.05212
-6.09093
-6.12901
-6.16615
-6.20192
-6.23521
-6.26459
-6.2874
-6.30203
-3.36094
-3.48754
-3.71884
-3.90343
-4.07077
-4.23293
-4.38459
-4.52636
-4.65966
-4.78514
-4.90282
-5.01303
-5.11607
-5.21232
-5.30209
-5.38567
-5.46328
-5.53519
-5.6017
-5.66328
-5.72031
-5.77336
-5.82286
-5.86939
-5.91344
-5.9555
-5.99596
-6.03509
-6.07306
-6.10992
-6.14544
-6.17914
-6.21007
-6.23699
-6.25803
-6.27202
-3.46837
-3.56772
-3.769
-3.9413
-4.09948
-4.25383
-4.39949
-4.53646
-4.66567
-4.78754
-4.90209
-5.00959
-5.11028
-5.20447
-5.29245
-5.37447
-5.45077
-5.52162
-5.5873
-5.64825
-5.70484
-5.75757
-5.80685
-5.85321
-5.89707
-5.93887
-5.97893
-6.01745
-6.05455
-6.09022
-6.12424
-6.15611
-6.18505
-6.21003
-6.22981
-6.24351
-3.56814
-3.64659
-3.82089
-3.98029
-4.12902
-4.27536
-4.4148
-4.54676
-4.67173
-4.7899
-4.90127
-5.00601
-5.10431
-5.19643
-5.2826
-5.36307
-5.43806
-5.50783
-5.57267
-5.63295
-5.68906
-5.74143
-5.79045
-5.83657
-5.88018
-5.92164
-5.96124
-5.99913
-6.03537
-6.06992
-6.10256
-6.13284
-6.16014
-6.18361
-6.20254
-6.21618
-3.66112
-3.72364
-3.87418
-4.02044
-4.15959
-4.29777
-4.43076
-4.55748
-4.67803
-4.79238
-4.90048
-5.00238
-5.09824
-5.18824
-5.27258
-5.35147
-5.42513
-5.4938
-5.55776
-5.61736
-5.67294
-5.7249
-5.77359
-5.81942
-5.86271
-5.90379
-5.94288
-5.98013
-6.01554
-6.04904
-6.08045
-6.10939
-6.13535
-6.15771
-6.17604
-6.18977
-3.74823
-3.79845
-3.92843
-4.06166
-4.19122
-4.32117
-4.44754
-4.56883
-4.68479
-4.79519
-4.89988
-4.99886
-5.09219
-5.18001
-5.26246
-5.33973
-5.41203
-5.47957
-5.54262
-5.60149
-5.65649
-5.70798
-5.75629
-5.80176
-5.84469
-5.88533
-5.92389
-5.96048
-5.99509
-6.02766
-6.05799
-6.08579
-6.11071
-6.13224
-6.15019
-6.16407
-3.82009
-3.86175
-3.97636
-4.0985
-4.21971
-4.3425
-4.46297
-4.57936
-4.69117
-4.798
-4.89963
-4.99596
-5.08701
-5.17285
-5.2536
-5.32942
-5.40048
-5.467
-5.52921
-5.58739
-5.64185
-5.69288
-5.74081
-5.78592
-5.82848
-5.86872
-5.9068
-5.94282
-5.97677
-6.00859
-6.03811
-6.0651
-6.08929
-6.1103
-6.12806
-6.1421
-3.88024
-3.91606
-4.01838
-4.13133
-4.24536
-4.36189
-4.47713
-4.58915
-4.69722
-4.80085
-4.8997
-4.99364
-5.08262
-5.16666
-5.24587
-5.32037
-5.39031
-5.45589
-5.51732
-5.57487
-5.6288
-5.6794
-5.72695
-5.7717
-5.81392
-5.85378
-5.89143
-5.92696
-5.96035
-5.99156
-6.02046
-6.04683
-6.07049
-6.09115
-6.10883
-6.12306
-3.93984
-3.97084
-4.0617
-4.16569
-4.27248
-4.38258
-4.49241
-4.59984
-4.70398
-4.80421
-4.90013
-4.99152
-5.07829
-5.16042
-5.23799
-5.31107
-5.37981
-5.44437
-5.50496
-5.5618
-5.61515
-5.66526
-5.71237
-5.75673
-5.79855
-5.838
-5.8752
-5.91023
-5.94308
-5.97372
-6.00203
-6.02786
-6.05108
-6.07147
-6.08912
-6.10357
-3.99881
-4.02576
-4.10614
-4.20143
-4.30098
-4.40456
-4.50882
-4.61148
-4.7115
-4.80815
-4.90097
-4.98966
-5.07409
-5.15419
-5.23
-5.30157
-5.36902
-5.43249
-5.49216
-5.54823
-5.60093
-5.65048
-5.69711
-5.74102
-5.7824
-5.8214
-5.85813
-5.89266
-5.92498
-5.95507
-5.98286
-6.00822
-6.03108
-6.05127
-6.06895
-6.08365
-4.05696
-4.08052
-4.15144
-4.23836
-4.33075
-4.42777
-4.52634
-4.62407
-4.71981
-4.81273
-4.90229
-4.98814
-5.07009
-5.14805
-5.22199
-5.29195
-5.35801
-5.4203
-5.47897
-5.5342
-5.58618
-5.63511
-5.68119
-5.7246
-5.7655
-5.80402
-5.84027
-5.87429
-5.9061
-5.93569
-5.963
-5.98795
-6.01052
-6.03058
-6.04834
-6.06331
-4.11414
-4.13485
-4.19731
-4.27625
-4.36163
-4.45213
-4.54493
-4.63762
-4.72893
-4.81797
-4.90413
-4.98701
-5.06636
-5.14204
-5.21401
-5.28226
-5.34685
-5.40788
-5.46547
-5.51978
-5.57096
-5.61921
-5.66467
-5.70752
-5.7479
-5.78592
-5.82166
-5.85518
-5.8865
-5.91561
-5.9425
-5.96711
-5.98945
-6.00944
-6.0273
-6.04256
-4.17019
-4.18849
-4.24344
-4.31486
-4.39343
-4.47751
-4.56451
-4.65208
-4.73885
-4.82389
-4.90652
-4.98631
-5.06294
-5.13624
-5.20613
-5.27257
-5.33559
-5.39527
-5.4517
-5.50501
-5.55533
-5.60282
-5.64762
-5.68986
-5.72967
-5.76715
-5.80237
-5.83539
-5.86624
-5.89492
-5.92143
-5.94575
-5.96792
-5.98788
-6.00587
-6.02143
-4.22493
-4.24117
-4.28949
-4.35389
-4.42591
-4.50372
-4.58496
-4.66737
-4.74953
-4.83048
-4.90948
-4.98606
-5.05986
-5.13068
-5.19839
-5.26293
-5.3243
-5.38254
-5.43773
-5.48996
-5.53935
-5.58601
-5.63008
-5.67167
-5.71087
-5.74779
-5.78248
-5.81501
-5.8454
-5.87368
-5.89985
-5.92393
-5.94598
-5.96594
-5.98408
-5.99996
-4.27815
-4.29263
-4.33513
-4.39302
-4.45882
-4.53056
-4.60612
-4.68339
-4.76091
-4.83769
-4.91298
-4.98626
-5.05715
-5.1254
-5.19084
-5.25339
-5.31302
-5.36975
-5.42361
-5.47469
-5.52308
-5.56886
-5.61214
-5.65303
-5.69159
-5.72792
-5.76208
-5.79412
-5.82407
-5.85197
-5.87786
-5.90174
-5.92369
-5.94369
-5.96199
-5.97818
-4.32963
-4.34257
-4.37999
-4.43192
-4.49183
-4.55776
-4.62779
-4.69997
-4.77285
-4.84545
-4.91699
-4.98691
-5.05481
-5.1204
-5.1835
-5.24398
-5.3018
-5.35694
-5.40941
-5.45928
-5.50659
-5.55143
-5.59388
-5.63402
-5.67191
-5.70764
-5.74126
-5.77281
-5.80234
-5.8299
-5.85552
-5.87924
-5.90113
-5.92118
-5.93965
-5.95615
-4.37909
-4.39067
-4.4237
-4.4702
-4.52461
-4.58501
-4.64971
-4.71691
-4.78522
-4.85364
-4.92141
-4.98794
-5.0528
-5.11569
-5.17638
-5.23474
-5.29068
-5.34416
-5.39518
-5.44377
-5.48996
-5.53381
-5.57538
-5.61473
-5.65193
-5.68704
-5.72011
-5.75119
-5.78032
-5.80756
-5.83294
-5.85652
-5.87837
-5.8985
-5.91713
-5.93393
-4.42624
-4.43661
-4.46583
-4.50747
-4.55677
-4.61197
-4.67159
-4.73398
-4.79782
-4.86212
-4.92614
-4.98928
-5.05109
-5.11123
-5.16948
-5.22567
-5.27968
-5.33146
-5.38097
-5.42823
-5.47325
-5.51607
-5.55672
-5.59527
-5.63175
-5.66623
-5.69875
-5.72937
-5.75811
-5.78505
-5.81022
-5.83368
-5.8555
-5.87571
-5.8945
-5.9116
-4.47073
-4.48002
-4.50595
-4.54326
-4.58788
-4.63826
-4.69309
-4.75089
-4.8104
-4.87069
-4.93102
-4.9908
-5.04957
-5.10698
-5.16277
-5.21676
-5.26881
-5.31885
-5.36683
-5.41272
-5.45654
-5.49829
-5.538
-5.57572
-5.61148
-5.64533
-5.67731
-5.70746
-5.73584
-5.76249
-5.78746
-5.81082
-5.83263
-5.85292
-5.87187
-5.88925
-4.51218
-4.52053
-4.54361
-4.57708
-4.61748
-4.66344
-4.71382
-4.76728
-4.82267
-4.87909
-4.93584
-4.99234
-5.04813
-5.10284
-5.15619
-5.20798
-5.25808
-5.30637
-5.35279
-5.3973
-5.43989
-5.48056
-5.51932
-5.5562
-5.59123
-5.62445
-5.65589
-5.6856
-5.71362
-5.74
-5.7648
-5.78806
-5.80987
-5.83024
-5.84935
-5.86698
-4.55017
-4.55769
-4.57831
-4.60843
-4.64505
-4.68702
-4.7333
-4.78274
-4.83425
-4.88702
-4.94036
-4.9937
-5.04659
-5.09867
-5.14964
-5.19929
-5.24744
-5.29399
-5.33886
-5.382
-5.42336
-5.46295
-5.50076
-5.53681
-5.57112
-5.60371
-5.63463
-5.66391
-5.69159
-5.71772
-5.74235
-5.76553
-5.78734
-5.80779
-5.82704
-5.84492
-4.58418
-4.591
-4.60952
-4.63672
-4.67004
-4.70843
-4.75104
-4.79679
-4.84474
-4.89411
-4.94425
-4.99461
-5.04475
-5.09431
-5.14299
-5.19056
-5.23684
-5.2817
-5.32506
-5.36685
-5.40702
-5.44554
-5.48242
-5.51766
-5.55126
-5.58326
-5.61367
-5.64253
-5.66989
-5.69579
-5.72027
-5.74338
-5.76519
-5.78572
-5.8051
-5.82322
-4.61365
-4.61987
-4.63662
-4.66134
-4.6918
-4.72708
-4.76643
-4.80891
-4.85365
-4.89993
-4.94714
-4.99475
-5.04234
-5.08954
-5.13607
-5.18169
-5.2262
-5.26946
-5.31137
-5.35186
-5.39089
-5.4284
-5.46439
-5.49885
-5.53178
-5.5632
-5.59314
-5.62162
-5.64869
-5.67437
-5.69871
-5.72176
-5.74358
-5.76419
-5.7837
-5.80202
-4.63788
-4.64361
-4.65889
-4.68155
-4.70962
-4.74227
-4.77883
-4.81848
-4.86042
-4.90398
-4.94858
-4.99374
-5.03903
-5.08411
-5.12868
-5.1725
-5.21538
-5.25717
-5.29775
-5.33705
-5.375
-5.41158
-5.44674
-5.48048
-5.51279
-5.54369
-5.5732
-5.60133
-5.62813
-5.65362
-5.67785
-5.70085
-5.72268
-5.74337
-5.76301
-5.78153
-4.65612
-4.66138
-4.67547
-4.69653
-4.72269
-4.7532
-4.78749
-4.8248
-4.8644
-4.90567
-4.94808
-4.99114
-5.03446
-5.07769
-5.12055
-5.1628
-5.20425
-5.24474
-5.28414
-5.32237
-5.35939
-5.39512
-5.42955
-5.46265
-5.49442
-5.52486
-5.55399
-5.58183
-5.6084
-5.63374
-5.65788
-5.68085
-5.70271
-5.72349
-5.74325
-5.76197
-4.66731
-4.67213
-4.68536
-4.70526
-4.73003
-4.75896
-4.79153
-4.82706
-4.86487
-4.90436
-4.94503
-4.98643
-5.02817
-5.06992
-5.11139
-5.15235
-5.19263
-5.23204
-5.27047
-5.30782
-5.34405
-5.37909
-5.41291
-5.44548
-5.4768
-5.50688
-5.5357
-5.56331
-5.58971
-5.61494
-5.63902
-5.662
-5.68391
-5.70479
-5.72468
-5.7436
-4.66998
-4.67456
-4.68731
-4.70655
-4.7305
-4.75848
-4.79001
-4.82444
-4.86112
-4.89947
-4.93901
-4.9793
-5.01997
-5.0607
-5.10121
-5.14128
-5.18072
-5.21937
-5.2571
-5.29383
-5.32949
-5.36403
-5.39742
-5.42962
-5.46063
-5.49045
-5.51908
-5.54654
-5.57284
-5.59802
-5.62211
-5.64512
-5.66711
-5.6881
-5.70813
-5.72724
-4.66396
-4.66863
-4.68132
-4.70038
-4.7241
-4.75182
-4.78302
-4.81708
-4.85334
-4.89123
-4.93029
-4.9701
-5.01027
-5.05051
-5.09054
-5.13015
-5.16915
-5.20739
-5.24474
-5.28113
-5.31649
-5.35076
-5.38392
-5.41593
-5.44678
-5.47648
-5.50503
-5.53244
-5.55873
-5.58393
-5.60806
-5.63116
-5.65324
-5.67437
-5.69454
-5.71384
-4.65069
-4.65558
-4.66856
-4.68792
-4.71197
-4.74003
-4.77155
-4.80587
-4.84234
-4.88039
-4.91955
-4.9594
-4.99958
-5.03979
-5.07976
-5.1193
-5.15821
-5.19636
-5.23362
-5.26992
-5.30521
-5.33942
-5.37252
-5.4045
-5.43533
-5.46503
-5.4936
-5.52105
-5.54739
-5.57267
-5.59689
-5.6201
-5.64231
-5.66357
-5.6839
-5.70338
-4.63133
-4.63643
-4.65001
-4.67014
-4.69504
-4.72399
-4.75639
-4.79154
-4.82876
-4.86748
-4.90723
-4.94757
-4.98818
-5.02874
-5.069
-5.10878
-5.14789
-5.1862
-5.2236
-5.26003
-5.29543
-5.32974
-5.36294
-5.395
-5.42594
-5.45573
-5.4844
-5.51195
-5.53841
-5.56381
-5.58816
-5.6115
-5.63385
-5.65527
-5.67575
-5.6954
-4.60662
-4.61201
-4.62649
-4.64784
-4.67409
-4.70443
-4.73823
-4.77471
-4.81315
-4.85299
-4.89372
-4.93495
-4.97632
-5.01754
-5.05839
-5.09866
-5.1382
-5.17688
-5.21462
-5.25134
-5.28699
-5.32153
-5.35494
-5.3872
-5.41832
-5.44828
-5.47712
-5.50483
-5.53145
-5.557
-5.58151
-5.605
-5.62751
-5.64909
-5.66972
-5.68954
-4.57712
-4.58292
-4.59863
-4.62166
-4.64975
-4.68198
-4.71765
-4.75592
-4.79601
-4.83734
-4.87942
-4.92183
-4.96425
-5.0064
-5.04805
-5.08902
-5.12917
-5.16839
-5.20661
-5.24375
-5.27978
-5.31465
-5.34836
-5.3809
-5.41226
-5.44246
-5.47151
-5.49942
-5.52624
-5.55197
-5.57665
-5.60032
-5.62299
-5.64473
-5.66552
-5.68549
-4.54328
-4.54962
-4.56694
-4.59214
-4.62257
-4.6572
-4.6952
-4.73566
-4.77778
-4.82094
-4.86465
-4.90851
-4.9522
-4.99547
-5.0381
-5.07993
-5.12084
-5.16074
-5.19954
-5.23721
-5.27369
-5.30898
-5.34306
-5.37593
-5.40759
-5.43806
-5.46736
-5.49552
-5.52254
-5.54848
-5.57335
-5.5972
-5.62004
-5.64194
-5.66288
-5.68301
-4.5054
-4.51245
-4.53182
-4.55974
-4.59307
-4.63058
-4.67135
-4.71439
-4.75886
-4.80413
-4.84971
-4.89523
-4.94038
-4.98492
-5.02867
-5.07148
-5.11326
-5.15391
-5.19339
-5.23165
-5.26866
-5.30442
-5.33892
-5.37216
-5.40416
-5.43494
-5.46451
-5.49292
-5.52018
-5.54633
-5.5714
-5.59544
-5.61845
-5.64051
-5.6616
-5.68188
-4.46371
-4.47166
-4.4936
-4.52488
-4.5617
-4.60258
-4.64654
-4.69252
-4.73962
-4.78723
-4.83488
-4.88221
-4.92894
-4.97487
-5.01984
-5.06373
-5.10644
-5.14793
-5.18813
-5.22703
-5.26461
-5.30088
-5.33582
-5.36947
-5.40183
-5.43293
-5.46281
-5.49148
-5.51898
-5.54536
-5.57063
-5.59485
-5.61804
-5.64026
-5.66149
-5.68191
-4.41834
-4.4274
-4.4526
-4.48799
-4.52887
-4.57363
-4.62119
-4.67041
-4.72039
-4.77052
-4.82038
-4.86963
-4.91805
-4.96545
-5.0117
-5.05671
-5.10041
-5.14276
-5.18373
-5.2233
-5.26148
-5.29827
-5.33368
-5.36775
-5.40048
-5.43192
-5.4621
-5.49104
-5.5188
-5.54539
-5.57087
-5.59527
-5.61863
-5.641
-5.66237
-5.68292
-4.36933
-4.37978
-4.40911
-4.44947
-4.49502
-4.54412
-4.59565
-4.64839
-4.70144
-4.75424
-4.8064
-4.85766
-4.90781
-4.95671
-5.00428
-5.05044
-5.09515
-5.13839
-5.18014
-5.2204
-5.25919
-5.29651
-5.3324
-5.36689
-5.40001
-5.43179
-5.46227
-5.49149
-5.51949
-5.5463
-5.57198
-5.59656
-5.62008
-5.6426
-5.6641
-5.68476
-4.31661
-4.32888
-4.36344
-4.4097
-4.46057
-4.51446
-4.57029
-4.62678
-4.68303
-4.73858
-4.79311
-4.84639
-4.8983
-4.94873
-4.99762
-5.04494
-5.09067
-5.13479
-5.17732
-5.21827
-5.25766
-5.29552
-5.33189
-5.3668
-5.40029
-5.43241
-5.46319
-5.49267
-5.52091
-5.54795
-5.57382
-5.59857
-5.62224
-5.6449
-5.66652
-5.68729
-4.26005
-4.27472
-4.31587
-4.36911
-4.42592
-4.48502
-4.54545
-4.60584
-4.66539
-4.72372
-4.78062
-4.83593
-4.88958
-4.94151
-4.99171
-5.04018
-5.0869
-5.13191
-5.1752
-5.21683
-5.25681
-5.2952
-5.33203
-5.36735
-5.40121
-5.43365
-5.46472
-5.49447
-5.52294
-5.55018
-5.57624
-5.60116
-5.62497
-5.64776
-5.6695
-5.69036
-4.19937
-4.21729
-4.26679
-4.32817
-4.39148
-4.45618
-4.52143
-4.58582
-4.64868
-4.70978
-4.76901
-4.82631
-4.88165
-4.93505
-4.98653
-5.0361
-5.0838
-5.12965
-5.17369
-5.21597
-5.25653
-5.29542
-5.33269
-5.36841
-5.40262
-5.43538
-5.46673
-5.49673
-5.52543
-5.55287
-5.5791
-5.60417
-5.62813
-5.65103
-5.67288
-5.69383
-4.13418
-4.15657
-4.21664
-4.28736
-4.35766
-4.42827
-4.49848
-4.56689
-4.63302
-4.69682
-4.75831
-4.81751
-4.87448
-4.92928
-4.98198
-5.03262
-5.08125
-5.12792
-5.17267
-5.21557
-5.25667
-5.29604
-5.33374
-5.36984
-5.40439
-5.43745
-5.46907
-5.49931
-5.52822
-5.55586
-5.58226
-5.60748
-5.63157
-5.65458
-5.67653
-5.69757
-4.06392
-4.0926
-4.16598
-4.24718
-4.32482
-4.40155
-4.4768
-4.54916
-4.61845
-4.68483
-4.74845
-4.80945
-4.86796
-4.92408
-4.97793
-5.02958
-5.0791
-5.12654
-5.17198
-5.21547
-5.25709
-5.29692
-5.33502
-5.37147
-5.40635
-5.4397
-5.47159
-5.50207
-5.53119
-5.55901
-5.58558
-5.61095
-5.63517
-5.65829
-5.68035
-5.70145
-3.98784
-4.02548
-4.11552
-4.20815
-4.29327
-4.37624
-4.45648
-4.53264
-4.6049
-4.6737
-4.73932
-4.80198
-4.86191
-4.91928
-4.97421
-5.02682
-5.07718
-5.12537
-5.17145
-5.21551
-5.25762
-5.29789
-5.33638
-5.37318
-5.40837
-5.44202
-5.47417
-5.50489
-5.53422
-5.56224
-5.58897
-5.6145
-5.63884
-5.66209
-5.68424
-5.70543
-3.90494
-3.95548
-4.06603
-4.17067
-4.26317
-4.35236
-4.43746
-4.51719
-4.59221
-4.66323
-4.73068
-4.79489
-4.85614
-4.91466
-4.97062
-5.02415
-5.07533
-5.12423
-5.17095
-5.21556
-5.25816
-5.29885
-5.33772
-5.37488
-5.41039
-5.44433
-5.47675
-5.50772
-5.53728
-5.56549
-5.5924
-5.61808
-5.64257
-5.66593
-5.68819
-5.70945
-3.81392
-3.883
-4.01832
-4.13492
-4.23448
-4.32977
-4.41952
-4.50256
-4.5801
-4.65316
-4.7223
-4.78794
-4.85044
-4.91007
-4.96702
-5.02146
-5.07346
-5.12308
-5.17044
-5.2156
-5.25869
-5.2998
-5.33906
-5.37657
-5.41242
-5.44667
-5.47937
-5.5106
-5.54041
-5.56885
-5.59596
-5.62181
-5.64644
-5.66992
-5.69231
-5.71363
-3.71314
-3.80854
-3.97292
-4.10077
-4.20685
-4.3081
-4.40237
-4.48846
-4.56834
-4.6433
-4.71405
-4.78107
-4.84478
-4.90551
-4.96344
-5.01882
-5.07165
-5.12202
-5.17003
-5.21579
-5.25939
-5.30094
-5.34058
-5.37845
-5.41463
-5.4492
-5.4822
-5.5137
-5.54375
-5.57241
-5.59972
-5.62573
-5.65051
-5.6741
-5.69661
-5.71798
-3.59987
-3.73199
-3.92989
-4.06783
-4.17981
-4.28704
-4.38587
-4.47485
-4.55695
-4.63379
-4.70613
-4.77451
-4.83947
-4.90132
-4.96023
-5.01658
-5.07026
-5.12138
-5.17008
-5.21642
-5.26053
-5.30251
-5.34255
-5.38077
-5.4173
-5.45219
-5.4855
-5.51728
-5.54758
-5.57646
-5.60397
-5.63016
-5.6551
-5.67882
-5.70146
-5.72292
-3.46772
-3.65185
-3.88934
-4.03623
-4.15364
-4.26705
-4.37073
-4.46239
-4.54661
-4.62531
-4.69926
-4.769
-4.83521
-4.89819
-4.95807
-5.0154
-5.06988
-5.1217
-5.17102
-5.21788
-5.26241
-5.30472
-5.34507
-5.38362
-5.42049
-5.45567
-5.48924
-5.52126
-5.55179
-5.58087
-5.60855
-5.63488
-5.65994
-5.68374
-5.70646
-5.72789
-3.3042
-3.56934
-3.85371
-4.00769
-4.13056
-4.25037
-4.35857
-4.45242
-4.53822
-4.61842
-4.69368
-4.76461
-4.83191
-4.89584
-4.95689
-5.01531
-5.07069
-5.12333
-5.1734
-5.22089
-5.266
-5.30877
-5.34946
-5.38831
-5.42547
-5.46091
-5.49476
-5.52702
-5.55778
-5.58705
-5.61491
-5.64137
-5.66654
-5.69039
-5.71322
-5.73462
-3.10179
-3.49932
-3.82691
-3.98143
-4.11053
-4.23923
-4.35079
-4.44737
-4.53506
-4.61662
-4.69284
-4.76451
-4.83238
-4.89684
-4.95847
-5.01717
-5.0729
-5.12584
-5.17611
-5.22367
-5.26886
-5.31175
-5.35271
-5.39177
-5.42915
-5.46473
-5.49877
-5.53115
-5.56207
-5.59142
-5.6194
-5.6459
-5.67116
-5.69498
-5.71787
-5.73895
-2.86986
-3.47725
-3.82659
-3.96756
-4.09456
-4.22771
-4.34024
-4.43817
-4.52778
-4.61115
-4.68906
-4.76231
-4.83168
-4.8976
-4.96049
-5.02036
-5.07725
-5.13119
-5.18228
-5.2304
-5.27571
-5.31819
-5.35917
-5.39846
-5.43618
-5.47199
-5.50632
-5.53889
-5.57005
-5.59955
-5.62774
-5.65434
-5.67976
-5.70358
-5.72656
-5.74771
-2.5814
-3.4326
-3.82776
-3.96874
-4.09859
-4.23462
-4.34668
-4.44329
-4.53189
-4.61443
-4.69177
-4.76474
-4.83409
-4.9002
-4.96341
-5.02373
-5.08118
-5.13568
-5.18729
-5.23578
-5.28104
-5.3228
-5.36332
-5.40263
-5.44046
-5.47641
-5.51086
-5.54355
-5.57482
-5.6044
-5.63267
-5.65931
-5.68477
-5.70865
-5.73151
-5.75276
-6.65741
-6.65747
-6.65748
-6.65745
-6.65737
-6.65723
-6.65702
-6.65672
-6.65631
-6.65578
-6.65512
-6.65437
-6.65355
-6.65275
-6.65204
-6.65148
-6.65116
-6.65114
-6.65146
-6.65213
-6.65315
-6.65451
-6.65617
-6.65811
-6.66026
-6.66259
-6.66506
-6.66761
-6.67021
-6.67283
-6.67543
-6.67799
-6.68049
-6.6829
-6.68522
-6.68744
-6.68953
-6.69148
-6.69328
-6.69496
-6.69649
-6.6979
-6.69917
-6.70031
-6.70133
-6.70224
-6.70303
-6.70371
-6.70429
-6.70477
-6.70517
-6.70547
-6.7057
-6.70584
-6.70592
-6.70593
-6.70587
-6.70577
-6.70562
-6.70543
-6.70523
-6.70501
-6.70479
-6.70459
-6.70441
-6.70425
-6.70413
-6.70407
-6.70406
-6.70412
-6.70426
-6.7045
-6.70484
-6.7053
-6.7059
-6.70665
-6.70755
-6.70863
-6.70989
-6.71134
-6.71299
-6.71482
-6.71685
-6.71905
-6.72142
-6.72395
-6.72663
-6.72944
-6.73238
-6.73545
-6.73863
-6.74192
-6.74531
-6.74879
-6.75236
-6.75601
-6.75973
-6.76353
-6.7674
-6.77137
-6.77547
-6.7797
-6.78406
-6.78854
-6.79317
-6.79819
-6.80389
-6.81044
-6.81791
-6.82626
-6.83523
-6.84427
-6.85261
-6.85917
-6.8638
-6.86727
-6.87091
-6.87596
-6.88432
-6.89941
-6.92233
-6.95126
-6.98461
-7.02083
-7.05868
-7.09721
-7.13568
-7.17357
-7.2105
-7.24622
-7.28057
-7.31344
-7.34479
-7.3746
-7.40288
-7.42965
-7.45495
-7.47882
-7.50128
-7.52239
-7.54218
-7.5607
-7.57797
-7.59403
-7.6089
-7.62261
-7.63518
-7.64663
-7.65697
-7.66622
-7.67439
-7.6815
-7.68755
-7.69255
-7.69651
-7.69944
-7.70133
-7.70219
-7.70203
-7.70085
-7.69865
-7.69543
-7.69121
-7.68599
-7.67975
-7.67246
-7.66413
-7.65478
-7.6444
-7.63299
-7.62054
-7.60707
-7.59256
-7.57702
-7.56043
-7.5428
-7.52411
-7.50436
-7.48356
-7.46168
-7.43873
-7.41469
-7.38955
-7.36332
-7.33597
-7.3075
-7.27789
-7.24714
-7.21523
-7.18215
-7.14787
-7.1124
-7.07571
-7.03778
-6.9986
-6.95815
-6.9164
-6.87335
-6.82896
-6.78321
-6.73609
-6.68757
-6.63762
-6.58621
-6.53333
-6.47893
-6.42301
-6.36552
-6.30643
-6.24572
-6.18335
-6.11929
-6.05351
-5.98598
-5.91666
-5.84553
-5.77254
-5.69765
-5.62085
-5.5421
-5.46142
-5.37875
-5.29387
-5.20672
-5.11749
-5.02629
-4.93293
-4.83728
-4.73936
-4.63914
-4.53658
-4.43166
-4.32435
-4.21463
-4.10248
-3.98787
-3.87078
-3.75119
-3.62909
-3.50447
-3.37732
-3.24762
-3.11539
-2.98066
-2.84341
-2.70356
-2.56111
-2.41612
-2.26859
-2.11856
-1.96605
-1.81107
-1.65366
-1.49386
-1.3317
-1.16722
-1.00046
-0.831481
-0.66034
-0.487098
-0.311817
-0.134563
0.0445879
0.225559
0.408268
0.592626
0.778542
0.965918
1.15465
1.34465
1.53578
1.72795
1.92102
2.11489
2.30941
2.50447
2.69993
2.89564
3.09147
3.28728
3.48292
3.67823
3.87306
4.06727
4.26069
4.45317
4.64454
4.83465
5.02334
5.21044
5.3958
5.57926
5.76065
5.93981
6.11661
6.29087
6.46246
6.63121
6.797
6.95968
7.11912
7.27519
7.42777
7.57675
7.72201
7.86345
8.00098
8.13452
8.26398
8.38931
8.51044
8.62734
8.73995
8.84825
8.95224
9.05189
9.14723
9.23825
9.325
9.40751
9.48583
9.55996
9.63005
9.69626
9.75858
9.81706
9.87179
9.92287
9.97043
10.0146
10.0555
10.0932
10.1279
10.1598
10.1889
10.2154
10.2396
10.2614
10.2811
10.2989
10.3148
10.329
10.3417
10.3531
10.3632
10.3722
10.3803
10.3877
10.3944
10.4007
10.4067
10.4127
10.4189
10.4255
10.4328
10.4413
10.452
10.4649
10.485
10.5039
-6.65744
-6.65749
-6.65752
-6.65752
-6.6575
-6.65744
-6.65733
-6.65713
-6.65682
-6.65639
-6.65582
-6.65514
-6.6544
-6.65367
-6.65302
-6.65255
-6.65232
-6.65239
-6.6528
-6.65354
-6.65463
-6.65604
-6.65773
-6.65967
-6.66182
-6.66414
-6.66658
-6.6691
-6.67166
-6.67424
-6.6768
-6.67931
-6.68176
-6.68412
-6.68638
-6.68853
-6.69054
-6.69243
-6.69419
-6.69582
-6.6973
-6.69865
-6.69986
-6.70093
-6.70188
-6.70271
-6.70343
-6.70403
-6.70453
-6.70493
-6.70524
-6.70546
-6.7056
-6.70567
-6.70567
-6.70562
-6.70551
-6.70536
-6.70518
-6.70498
-6.70478
-6.70457
-6.70437
-6.70418
-6.70402
-6.70388
-6.7038
-6.70376
-6.70379
-6.70389
-6.70407
-6.70435
-6.70473
-6.70524
-6.70588
-6.70667
-6.70761
-6.70872
-6.70999
-6.71145
-6.71311
-6.71496
-6.71699
-6.71919
-6.72154
-6.72404
-6.72668
-6.72946
-6.73236
-6.73539
-6.73853
-6.74179
-6.74514
-6.74858
-6.75209
-6.75568
-6.75931
-6.76296
-6.76666
-6.77048
-6.77446
-6.77862
-6.78295
-6.78733
-6.79167
-6.7961
-6.80077
-6.80567
-6.81083
-6.81685
-6.8244
-6.83371
-6.84463
-6.85507
-6.86268
-6.86863
-6.87508
-6.88412
-6.89738
-6.91551
-6.93885
-6.96718
-6.99936
-7.03419
-7.07058
-7.10766
-7.14474
-7.18133
-7.21707
-7.25171
-7.28508
-7.31707
-7.34764
-7.37676
-7.40443
-7.43065
-7.45547
-7.4789
-7.50098
-7.52175
-7.54124
-7.5595
-7.57654
-7.59241
-7.60711
-7.62067
-7.63311
-7.64444
-7.65468
-7.66384
-7.67193
-7.67897
-7.68496
-7.6899
-7.69381
-7.69669
-7.69855
-7.69938
-7.69919
-7.69798
-7.69573
-7.69247
-7.68817
-7.68285
-7.67652
-7.6692
-7.66087
-7.65152
-7.64116
-7.62976
-7.61735
-7.6039
-7.58942
-7.5739
-7.55735
-7.53975
-7.5211
-7.50139
-7.48063
-7.4588
-7.43589
-7.4119
-7.38682
-7.36064
-7.33335
-7.30494
-7.2754
-7.24471
-7.21287
-7.17986
-7.14567
-7.11027
-7.07366
-7.03582
-6.99673
-6.95637
-6.91473
-6.87177
-6.82749
-6.78185
-6.73484
-6.68644
-6.63661
-6.58533
-6.53258
-6.47832
-6.42254
-6.36519
-6.30626
-6.2457
-6.1835
-6.11961
-6.054
-5.98664
-5.91751
-5.84658
-5.77381
-5.69912
-5.62251
-5.54397
-5.46349
-5.38101
-5.2964
-5.20957
-5.12064
-5.02965
-4.93652
-4.84114
-4.7435
-4.64356
-4.54129
-4.43667
-4.32967
-4.22026
-4.10842
-3.99413
-3.87736
-3.7581
-3.63633
-3.51203
-3.3852
-3.2558
-3.12383
-2.98929
-2.85219
-2.71258
-2.57047
-2.42581
-2.27864
-2.12896
-1.9768
-1.82217
-1.66512
-1.50568
-1.34387
-1.17975
-1.01336
-0.844742
-0.673961
-0.501071
-0.326138
-0.14923
0.0295795
0.210212
0.392586
0.576614
0.762205
0.949263
1.13769
1.32737
1.51821
1.71008
1.90288
2.09647
2.29073
2.48554
2.68075
2.87623
3.07185
3.26745
3.46289
3.65803
3.8527
4.04676
4.24005
4.43241
4.62369
4.81372
5.00234
5.1894
5.37473
5.55818
5.73959
5.91879
6.09564
6.26998
6.44166
6.61054
6.77647
6.93931
7.09894
7.25522
7.40803
7.55726
7.70279
7.84453
7.98238
8.11626
8.24609
8.3718
8.49334
8.61065
8.7237
8.83247
8.93693
9.03707
9.13291
9.22446
9.31177
9.39489
9.47382
9.54859
9.61918
9.68568
9.74827
9.80704
9.86209
9.91351
9.96142
10.0059
10.0472
10.0853
10.1204
10.1526
10.1822
10.2091
10.2336
10.2558
10.2759
10.294
10.3103
10.3249
10.3379
10.3496
10.36
10.3693
10.3777
10.3853
10.3923
10.3989
10.4052
10.4114
10.4178
10.4246
10.4322
10.441
10.4519
10.4649
10.4849
10.5032
-6.65778
-6.65782
-6.65786
-6.65789
-6.65793
-6.65794
-6.6579
-6.65777
-6.65753
-6.65716
-6.65668
-6.65614
-6.65559
-6.65512
-6.65479
-6.65468
-6.65482
-6.65525
-6.65598
-6.65701
-6.65832
-6.65989
-6.66168
-6.66367
-6.66581
-6.66807
-6.67042
-6.67282
-6.67525
-6.67767
-6.68006
-6.6824
-6.68468
-6.68687
-6.68896
-6.69095
-6.69282
-6.69456
-6.69617
-6.69766
-6.69901
-6.70023
-6.70132
-6.70228
-6.70311
-6.70382
-6.70441
-6.7049
-6.70527
-6.70555
-6.70574
-6.70584
-6.70586
-6.70581
-6.7057
-6.70553
-6.70532
-6.70507
-6.7048
-6.70452
-6.70423
-6.70394
-6.70367
-6.70342
-6.7032
-6.70301
-6.70288
-6.7028
-6.70279
-6.70285
-6.70302
-6.7033
-6.7037
-6.70423
-6.70491
-6.70574
-6.70673
-6.70792
-6.70929
-6.71084
-6.71257
-6.71446
-6.71652
-6.71873
-6.72108
-6.72357
-6.72617
-6.72888
-6.7317
-6.73461
-6.73763
-6.74077
-6.744
-6.74726
-6.75055
-6.75392
-6.75737
-6.76078
-6.76412
-6.76749
-6.77092
-6.77437
-6.7777
-6.7807
-6.78361
-6.78729
-6.79258
-6.7991
-6.80626
-6.81429
-6.82384
-6.83531
-6.84778
-6.86003
-6.87151
-6.8826
-6.89433
-6.90808
-6.92509
-6.94585
-6.97014
-6.99762
-7.0277
-7.05969
-7.0929
-7.12673
-7.16069
-7.19439
-7.22751
-7.25981
-7.2911
-7.32126
-7.35023
-7.37796
-7.40442
-7.42961
-7.45353
-7.47619
-7.49762
-7.51784
-7.53686
-7.5547
-7.57138
-7.58691
-7.60132
-7.61463
-7.62685
-7.63799
-7.64807
-7.65709
-7.66507
-7.67201
-7.67792
-7.68281
-7.68667
-7.68951
-7.69134
-7.69216
-7.69196
-7.69076
-7.68855
-7.68533
-7.6811
-7.67585
-7.66958
-7.66231
-7.65402
-7.64472
-7.6344
-7.62307
-7.61071
-7.59733
-7.58292
-7.56748
-7.551
-7.53348
-7.51492
-7.49531
-7.47464
-7.4529
-7.4301
-7.40622
-7.38125
-7.35518
-7.32801
-7.29973
-7.27032
-7.23976
-7.20806
-7.1752
-7.14115
-7.10591
-7.06946
-7.03178
-6.99286
-6.95268
-6.91122
-6.86845
-6.82437
-6.77893
-6.73214
-6.68395
-6.63434
-6.58329
-6.53078
-6.47677
-6.42124
-6.36416
-6.3055
-6.24522
-6.18331
-6.11971
-6.05441
-5.98738
-5.91857
-5.84796
-5.77552
-5.70118
-5.62491
-5.54675
-5.46663
-5.38449
-5.30028
-5.21395
-5.12551
-5.03495
-4.94223
-4.84729
-4.7501
-4.65063
-4.54883
-4.4447
-4.33818
-4.22927
-4.11794
-4.00416
-3.88792
-3.76919
-3.64796
-3.52422
-3.39796
-3.26915
-3.13781
-3.0039
-2.86742
-2.72841
-2.58688
-2.44282
-2.29624
-2.14716
-1.9956
-1.84159
-1.68514
-1.52631
-1.36511
-1.2016
-1.03581
-0.867809
-0.697639
-0.525358
-0.351031
-0.174725
0.00348732
0.183529
0.365319
0.54877
0.733792
0.920291
1.10817
1.29731
1.48762
1.67898
1.87128
2.06438
2.25817
2.45253
2.6473
2.84237
3.03758
3.23281
3.42789
3.62269
3.81705
4.01082
4.20384
4.39597
4.58703
4.77687
4.96534
5.15227
5.33751
5.52089
5.70225
5.88145
6.05832
6.23272
6.4045
6.5735
6.7396
6.90264
7.06249
7.21904
7.37215
7.5217
7.6676
7.80974
7.94802
8.08235
8.21267
8.3389
8.46099
8.57888
8.69254
8.80194
8.90705
9.00787
9.10443
9.19671
9.28472
9.3685
9.44811
9.5236
9.59502
9.66246
9.72602
9.78576
9.84176
9.89413
9.94298
9.98843
10.0306
10.0696
10.1056
10.1387
10.1691
10.1968
10.2221
10.2451
10.266
10.2848
10.3018
10.317
10.3307
10.343
10.354
10.3639
10.3728
10.381
10.3885
10.3955
10.4022
10.4089
10.4157
10.4229
10.4309
10.44
10.4513
10.4641
10.484
10.4999
-6.65827
-6.65829
-6.65831
-6.65834
-6.65836
-6.65836
-6.65831
-6.65818
-6.65797
-6.65768
-6.65736
-6.65707
-6.65685
-6.65678
-6.65691
-6.65728
-6.6579
-6.65877
-6.6599
-6.66125
-6.66282
-6.66458
-6.66649
-6.66854
-6.67068
-6.6729
-6.67516
-6.67745
-6.67974
-6.682
-6.68422
-6.68638
-6.68846
-6.69046
-6.69235
-6.69413
-6.69579
-6.69734
-6.69877
-6.70007
-6.70125
-6.7023
-6.70323
-6.70403
-6.7047
-6.70526
-6.7057
-6.70602
-6.70624
-6.70636
-6.70639
-6.70633
-6.70619
-6.70598
-6.70572
-6.7054
-6.70503
-6.70463
-6.70421
-6.70377
-6.70334
-6.70291
-6.7025
-6.70212
-6.70178
-6.70149
-6.70126