/*--------------------------------*- C++ -*----------------------------------*\
| =========                 |                                                 |
| \\      /  F ield         | OpenFOAM: The Open Source CFD Toolbox           |
|  \\    /   O peration     | Version:  2.4.0                                 |
|   \\  /    A nd           | Web:      www.OpenFOAM.org                      |
|    \\/     M anipulation  |                                                 |
\*---------------------------------------------------------------------------*/
FoamFile
{
    version     2.0;
    format      ascii;
    class       volScalarField;
    location    "1.77";
    object      epsilon;
}
// * * * * * * * * * * * * * * * * * * * * * * * * * * * * * * * * * * * * * //

dimensions      [0 2 -3 0 0 0 0];

internalField   nonuniform List<scalar> 
6000
(
54.18
1.09358
0.0208039
0.134018
0.0731248
0.0877495
0.0632506
0.0605942
0.0532344
0.053499
0.045105
0.0279067
0.00809629
0.00312873
0.01524
0.0246471
0.018734
0.0148496
0.105203
0.350853
0.756921
1.23806
1.65654
1.88168
1.83533
1.52851
1.06502
0.588382
0.223596
0.0406813
0.0093057
0.0493499
0.0991007
0.135728
0.155482
0.163191
0.165528
0.168219
0.175363
0.189921
0.214434
0.251503
0.30405
0.375465
0.469489
0.590349
0.742125
0.930174
1.15838
1.43799
1.77091
2.19707
2.69286
3.42705
4.18278
5.75236
6.76151
11.1828
11.5708
26.393
17.7248
0.974021
0.0256994
0.0739994
0.0421293
0.0481061
0.0352343
0.0332243
0.0291887
0.0287752
0.0240665
0.0149776
0.00467192
0.00259979
0.00918943
0.0134175
0.0104972
0.0122624
0.0576857
0.154178
0.289132
0.429227
0.536441
0.582049
0.553269
0.459764
0.327308
0.189486
0.0774291
0.0160343
0.00697797
0.0247179
0.0435564
0.0567749
0.0639224
0.0669825
0.0683451
0.0700318
0.0735014
0.0798202
0.0898939
0.104605
0.12491
0.151892
0.186736
0.230788
0.285392
0.352374
0.43325
0.53197
0.649972
0.800442
0.978266
1.2363
1.51456
2.0543
2.45912
3.92254
4.26842
8.96299
7.13654
0.7106
0.0305472
0.0434421
0.0254668
0.0277009
0.0205661
0.019128
0.0168209
0.0162845
0.0134821
0.00841083
0.00285506
0.00213304
0.00582467
0.00785824
0.00670119
0.0105467
0.0355452
0.0782542
0.128669
0.173029
0.200225
0.204898
0.187456
0.15389
0.110855
0.0665984
0.0290538
0.00708603
0.00508178
0.013032
0.0206286
0.0258412
0.0287363
0.0301313
0.0309533
0.0319711
0.0337558
0.0367408
0.0412697
0.0476723
0.0562964
0.0675307
0.0818012
0.0996016
0.121448
0.148055
0.180094
0.219116
0.265982
0.325517
0.396947
0.498506
0.612889
0.82067
0.998992
1.54054
1.75667
3.40641
3.42019
0.518019
0.0347286
0.0274195
0.016177
0.0167158
0.0125374
0.0115182
0.0101452
0.00965632
0.00790858
0.00495138
0.0018707
0.00175152
0.00389668
0.00500917
0.00494057
0.00919562
0.0238985
0.0444509
0.0645778
0.0786269
0.0838708
0.080518
0.070887
0.0575001
0.0418965
0.0261037
0.0122194
0.00372268
0.00366821
0.00726324
0.0104963
0.0127208
0.014018
0.0147267
0.0152312
0.0158413
0.016803
0.0183067
0.0204922
0.0234936
0.0274498
0.032516
0.0388657
0.0467044
0.056259
0.067844
0.0817867
0.0987539
0.119238
0.145164
0.176696
0.220661
0.272131
0.3601
0.444822
0.665009
0.79056
1.42184
1.89782
0.395447
0.0388168
0.0190453
0.0108727
0.0105792
0.00797585
0.00724214
0.00639153
0.00599044
0.00485951
0.00307061
0.00132765
0.00146108
0.00277029
0.00352157
0.00411971
0.00806154
0.0170943
0.0274778
0.0356371
0.039543
0.0391295
0.0355368
0.0305833
0.0247683
0.0183856
0.0119435
0.00608702
0.0024592
0.00272771
0.00434343
0.00576748
0.00677214
0.00739705
0.00778134
0.00809107
0.00845703
0.00899466
0.00979035
0.0109057
0.0123993
0.0143318
0.0167717
0.0197978
0.0235062
0.0280079
0.0334554
0.0400193
0.0480101
0.0577067
0.0699381
0.0849852
0.105593
0.130519
0.170869
0.213648
0.310625
0.382429
0.641907
1.19131
0.318398
0.0431281
0.0149969
0.00783908
0.00705355
0.00530411
0.00475637
0.00420643
0.0038908
0.0031367
0.00202038
0.00102576
0.00125112
0.00210911
0.00274306
0.00371968
0.00708841
0.0127892
0.0181704
0.0213922
0.0220077
0.0206111
0.0181214
0.0156359
0.0128561
0.00984998
0.00675787
0.00385287
0.00205953
0.00217996
0.00285001
0.00346455
0.00392147
0.00422882
0.00443993
0.00462643
0.00484523
0.00515359
0.00559065
0.00618573
0.00696619
0.00796065
0.00920219
0.0107303
0.012594
0.0148525
0.0175854
0.0208865
0.0249102
0.0298154
0.0359847
0.0436411
0.0539644
0.066776
0.0865797
0.109252
0.15501
0.196301
0.309688
0.82912
0.268834
0.0477111
0.0135929
0.00619053
0.00499924
0.0037047
0.00327107
0.00289746
0.00265251
0.00213633
0.00142199
0.000860138
0.00110762
0.00172461
0.00234239
0.00349601
0.0062552
0.00992762
0.0127744
0.0139769
0.0136874
0.0125092
0.0110608
0.00981299
0.00838887
0.00676571
0.00498132
0.00320985
0.00206668
0.00193361
0.00210157
0.00231147
0.00249308
0.00263165
0.00274028
0.00284666
0.00297537
0.00315397
0.00340053
0.00372956
0.00415453
0.00468985
0.00535275
0.00616443
0.0071519
0.00834845
0.0097982
0.0115545
0.0136989
0.016323
0.0196145
0.0237242
0.0291925
0.0361087
0.0464027
0.0589009
0.0818278
0.105831
0.158198
0.628353
0.235888
0.05247
0.0139209
0.00547556
0.00381986
0.00273974
0.00236669
0.00209619
0.00190523
0.0015434
0.00107893
0.000774574
0.00101695
0.00150832
0.00214244
0.0033402
0.00555567
0.00798274
0.00955063
0.00998923
0.00962117
0.00891938
0.00826568
0.0077249
0.00697357
0.00594916
0.00466782
0.00328786
0.00230321
0.0019136
0.00176706
0.00173653
0.00175603
0.00179168
0.0018334
0.00188578
0.00195737
0.00205958
0.0022007
0.00238776
0.00262758
0.00292778
0.00329782
0.00374971
0.00429899
0.00496517
0.00577371
0.00675594
0.0079568
0.00943006
0.011273
0.0135819
0.0166199
0.0205118
0.0261325
0.0332561
0.0453656
0.0595073
0.084984
0.510157
0.213254
0.0572467
0.0154585
0.00544463
0.00320093
0.0021699
0.00181397
0.00160054
0.0014485
0.00118959
0.000886933
0.000738466
0.000967407
0.00139543
0.00204696
0.00321122
0.00498762
0.00666181
0.00761773
0.00786139
0.0077281
0.00754149
0.00747634
0.00735836
0.00694093
0.00615715
0.00502829
0.00371967
0.00269297
0.00206349
0.00168127
0.00147481
0.00137694
0.00133784
0.00133024
0.00134387
0.00137715
0.00143247
0.00151274
0.00162095
0.00176044
0.00193531
0.00215091
0.00241428
0.00273463
0.00312367
0.00359653
0.00417195
0.0048757
0.00573975
0.00681704
0.00816787
0.00992785
0.0121994
0.0154032
0.0195862
0.0262879
0.0347485
0.0477808
0.437315
0.197245
0.0618688
0.0178629
0.00596294
0.00298154
0.00186421
0.00148563
0.00129744
0.00117174
0.000983498
0.000789264
0.000735243
0.000949781
0.00134652
0.00200521
0.00310004
0.00454869
0.00579095
0.00651111
0.00684703
0.00707778
0.00736489
0.00770996
0.00783288
0.00756129
0.00684181
0.00570737
0.00434011
0.00319215
0.00234145
0.00175682
0.00139795
0.00119766
0.00109359
0.00104406
0.00102693
0.00103245
0.00105726
0.00110064
0.00116312
0.00124599
0.00135135
0.00148224
0.00164283
0.00183869
0.00207696
0.0023668
0.00271961
0.00315054
0.00367889
0.00433465
0.00515542
0.00621491
0.00758651
0.00948455
0.012011
0.0158785
0.0210294
0.0280312
0.390853
0.185653
0.0661808
0.0208785
0.00695071
0.00308424
0.00175341
0.00131117
0.00112319
0.00101327
0.000874713
0.000754414
0.000756372
0.000957508
0.00133815
0.00199311
0.00301147
0.00423628
0.00526511
0.00597935
0.00656304
0.00719367
0.00787717
0.00848763
0.0087272
0.00848727
0.00773847
0.00652678
0.00506321
0.00377048
0.00271573
0.00194382
0.00143975
0.00113946
0.000971503
0.000881647
0.000837012
0.00082041
0.000823699
0.000843293
0.000877856
0.000927309
0.000992464
0.00107494
0.00117718
0.00130258
0.00145554
0.00164168
0.00186803
0.00214368
0.00248043
0.0028958
0.00341338
0.00407514
0.00493117
0.00609697
0.00766627
0.00998577
0.013185
0.0171322
0.360454
0.177111
0.0700646
0.0242915
0.00835712
0.00346847
0.00180522
0.00125283
0.00104219
0.00093853
0.000835104
0.000764978
0.000798207
0.000986694
0.00135741
0.0020021
0.00295533
0.00404846
0.00501984
0.00587605
0.00678569
0.00780095
0.00879819
0.00955863
0.00982168
0.00953543
0.00870302
0.00738361
0.00583631
0.00439986
0.00316014
0.00221114
0.00156345
0.00116085
0.000926259
0.00079466
0.000723036
0.000686895
0.000673495
0.000676523
0.000692996
0.000721706
0.000762522
0.000816097
0.000883772
0.000967568
0.00107022
0.00119521
0.00134695
0.00153097
0.00175461
0.00202833
0.00236714
0.00279583
0.00334822
0.00408977
0.00509322
0.00653583
0.00856878
0.0109011
0.34019
0.170748
0.0734488
0.0279103
0.0101348
0.00411336
0.00201147
0.00129272
0.00103532
0.000928323
0.00084914
0.000811971
0.000860294
0.001036
0.00139881
0.0020323
0.00294245
0.00398383
0.00501253
0.00610479
0.00736968
0.00873107
0.00996452
0.0107783
0.0109885
0.0105972
0.00964704
0.00821753
0.00661346
0.00505101
0.00365063
0.00253659
0.00174684
0.00123852
0.000933197
0.000757018
0.000657395
0.000602501
0.000574853
0.000565316
0.000569239
0.00058435
0.000609716
0.000645257
0.000691536
0.000749672
0.000821324
0.000908687
0.00101455
0.00114238
0.0012968
0.00148423
0.00171433
0.00200226
0.00237096
0.00285923
0.00352057
0.00444994
0.0057755
0.00721786
0.326504
0.165986
0.0763086
0.0315622
0.0122284
0.00501125
0.00237149
0.0014259
0.00109362
0.000972474
0.00090864
0.000891791
0.000944458
0.00110641
0.00146199
0.00208834
0.00298272
0.00404054
0.00521085
0.00659466
0.00821495
0.0098744
0.0112694
0.0120536
0.0121455
0.0116025
0.0105114
0.0089934
0.00735016
0.00569349
0.00416332
0.00290177
0.0019746
0.00135829
0.00097813
0.000754031
0.000624618
0.000550718
0.000509886
0.000489961
0.00048451
0.000490162
0.000505228
0.000529006
0.000561459
0.000603063
0.000654756
0.000717896
0.000794292
0.000886186
0.000996573
0.00112948
0.00129128
0.00149149
0.00174594
0.0020785
0.00252814
0.00314777
0.00403685
0.00496842
0.317179
0.162426
0.0786594
0.0350969
0.0145691
0.00615578
0.00288831
0.00165716
0.00121502
0.00106652
0.00101012
0.00100447
0.00105427
0.00120085
0.0015498
0.00217664
0.00308414
0.00421516
0.00558682
0.00728987
0.00924895
0.0111542
0.0126308
0.0133187
0.0132358
0.012504
0.0112556
0.00968449
0.00801164
0.00629727
0.00467401
0.00328925
0.00223443
0.00151046
0.00105227
0.000776989
0.000615672
0.000521922
0.000468154
0.000438953
0.000425942
0.000424581
0.000432416
0.000448172
0.000471312
0.000501817
0.000540101
0.00058696
0.00064358
0.000711461
0.000792644
0.000889747
0.00100709
0.0011508
0.00133205
0.00156599
0.00188133
0.00230834
0.00292273
0.00354947
0.310794
0.159785
0.0805456
0.0383932
0.017074
0.00753373
0.0035688
0.00199448
0.00140277
0.00120998
0.00115332
0.00115262
0.00119474
0.00132384
0.00166685
0.00230385
0.00325226
0.00450194
0.00611429
0.00814447
0.0104156
0.0125119
0.0139952
0.0145241
0.0142189
0.0132697
0.0118653
0.0102613
0.00857035
0.00683478
0.00515879
0.00368159
0.00251485
0.00168726
0.00114956
0.000820361
0.000625014
0.000510243
0.000443298
0.000405282
0.000385711
0.000378779
0.000381238
0.000391262
0.000407867
0.000430627
0.00045955
0.000495024
0.000537815
0.00058897
0.000649966
0.000722594
0.000809906
0.000915953
0.00104884
0.00121842
0.00144629
0.00174995
0.00218759
0.00262554
0.306414
0.157856
0.08203
0.0413639
0.0196501
0.0091203
0.00441997
0.00244564
0.00166496
0.0014055
0.00134027
0.00134073
0.00137207
0.00148112
0.00181852
0.0024758
0.00348993
0.00489265
0.00676804
0.00911887
0.011668
0.0138991
0.0153174
0.015631
0.0150656
0.0138795
0.0123409
0.0107008
0.00900625
0.00728281
0.00559521
0.00406129
0.00280435
0.00188158
0.00126518
0.000880273
0.000648986
0.0005119
0.000431245
0.000384469
0.000358825
0.000347147
0.000345351
0.00035106
0.00036288
0.000380031
0.000402191
0.000429427
0.000462201
0.000501269
0.00054777
0.000603021
0.000669303
0.000749369
0.000849302
0.00097559
0.00114497
0.00136736
0.00168864
0.00200566
0.303412
0.156479
0.0831828
0.0439574
0.0222018
0.0108766
0.00544341
0.00302025
0.00201065
0.00165851
0.00157464
0.00157472
0.00159348
0.00167941
0.00201032
0.002697
0.00379729
0.00537672
0.00752334
0.0101775
0.0129648
0.0152729
0.0165581
0.0166088
0.0157556
0.01433
0.0126806
0.0109935
0.00930743
0.00762414
0.00596382
0.00441145
0.00309117
0.00208622
0.00139473
0.000953684
0.000684942
0.000524294
0.000429233
0.0003735
0.000341947
0.000325956
0.000320563
0.000322834
0.000330983
0.000343916
0.00036103
0.00038213
0.000407439
0.000437502
0.000473258
0.000515751
0.000566801
0.000628355
0.00070515
0.000801496
0.000930776
0.00109819
0.00134116
0.00157841
0.301365
0.155531
0.0840743
0.0461553
0.0246393
0.0127497
0.00663183
0.00372731
0.00244827
0.0019772
0.00186134
0.00186154
0.00186697
0.00192628
0.00224757
0.00297036
0.00417192
0.00594157
0.00835588
0.0112873
0.0142678
0.0165938
0.017683
0.0174334
0.0162761
0.0146383
0.0128764
0.011139
0.00947009
0.00784847
0.00624949
0.00471678
0.00336358
0.00229378
0.00153385
0.00103796
0.000730756
0.000545493
0.000435274
0.000370243
0.000332742
0.000312621
0.000303994
0.000303357
0.000308544
0.000318177
0.000331408
0.000347817
0.000367432
0.000390632
0.000418218
0.000451083
0.00049078
0.000538755
0.000598857
0.00067395
0.000775101
0.000904458
0.00109368
0.00127704
0.299978
0.154915
0.0847688
0.0479673
0.0268862
0.0146757
0.0079664
0.00457155
0.00298782
0.00236916
0.00220628
0.00220778
0.00220107
0.00223008
0.00253534
0.00329724
0.00460921
0.00657315
0.00924175
0.0124169
0.0155407
0.0178248
0.0186618
0.0180867
0.0166329
0.0148119
0.0129311
0.0111437
0.00949761
0.00795251
0.0064423
0.00496455
0.00361048
0.00249665
0.00167799
0.0011301
0.000784488
0.000573899
0.00044784
0.00037311
0.000329506
0.000305287
0.000293603
0.000290366
0.000293038
0.000299976
0.000310119
0.000322855
0.000338039
0.000355913
0.000377173
0.000402621
0.000433656
0.000471424
0.00051919
0.000578851
0.000659871
0.000762354
0.000914097
0.00106035
0.299049
0.154554
0.0853215
0.0494244
0.028886
0.0165849
0.00941561
0.00555075
0.0036375
0.00284238
0.0026159
0.00261717
0.00260436
0.00259997
0.00287873
0.00367772
0.00510286
0.00725653
0.0101578
0.0135365
0.0167493
0.0189309
0.0194684
0.0185558
0.0168495
0.0148508
0.0128533
0.011019
0.00939931
0.0079395
0.00653796
0.00514547
0.00382203
0.00268739
0.00182247
0.00122724
0.000844264
0.000608092
0.000465679
0.000380863
0.000330949
0.000302575
0.0002879
0.000282233
0.000282666
0.000287308
0.000294908
0.000304691
0.000316364
0.000330045
0.000346342
0.000365989
0.000390302
0.000420249
0.000458714
0.000506946
0.000573311
0.000656505
0.000781791
0.000902144
0.298437
0.154385
0.0857774
0.0505711
0.0306047
0.0184082
0.0109359
0.00665336
0.00440168
0.0034045
0.00309621
0.00309415
0.00308488
0.00304564
0.00328341
0.0041113
0.00564574
0.00797677
0.0110822
0.0146182
0.0178607
0.019878
0.0200801
0.0188599
0.0169268
0.0147611
0.012655
0.0107796
0.00918886
0.00781814
0.00653761
0.00525414
0.00399028
0.00285903
0.00196261
0.00132646
0.00090821
0.00064674
0.000487699
0.000392484
0.000336054
0.000303433
0.000285769
0.000277759
0.000276123
0.000278731
0.000284164
0.000291507
0.000300342
0.000310679
0.00032304
0.000338108
0.000357142
0.000381007
0.000412348
0.000451977
0.000507521
0.000576684
0.000683128
0.000785234
0.298043
0.154359
0.086171
0.0514584
0.0320311
0.0200844
0.0124745
0.00785698
0.0052787
0.00406103
0.00365241
0.00364185
0.00364934
0.00357537
0.00375628
0.00459784
0.006231
0.00872005
0.0119952
0.0156364
0.0188436
0.0206334
0.0204971
0.0190071
0.0168699
0.0145529
0.0123505
0.0104419
0.00888268
0.00760128
0.00644721
0.00528927
0.00410967
0.0030055
0.00209388
0.00142475
0.000974419
0.000688545
0.000512912
0.000407106
0.000343991
0.000307028
0.000286353
0.000276044
0.000272444
0.000273193
0.000276716
0.000281985
0.000288478
0.000296109
0.000305324
0.000316751
0.000331609
0.000350699
0.000376519
0.000409588
0.000457049
0.000515896
0.000608845
0.00069802
0.297798
0.154435
0.0865271
0.0521385
0.0331737
0.0215652
0.013974
0.00912816
0.00625875
0.00481358
0.00428794
0.00426173
0.00429951
0.00419846
0.00430619
0.00513901
0.00685368
0.00947536
0.0128808
0.016569
0.0196603
0.0211744
0.0207302
0.0190039
0.0166873
0.0142382
0.011955
0.0100232
0.00849855
0.00730443
0.00627658
0.0052534
0.0041773
0.003122
0.0022122
0.00151913
0.00104096
0.000732225
0.000540399
0.000423961
0.000354061
0.000312685
0.000288978
0.000276397
0.000270905
0.000269915
0.000271711
0.000275167
0.00027968
0.000285088
0.000291764
0.000300283
0.000311823
0.000327144
0.00034865
0.00037667
0.000418037
0.000469235
0.000552492
0.000632477
0.297653
0.154582
0.0868629
0.0526602
0.0340568
0.0228196
0.0153778
0.0104239
0.00732238
0.005658
0.00500333
0.00495296
0.0050298
0.00492111
0.00494413
0.00573994
0.00751277
0.010237
0.0137136
0.0173732
0.0202876
0.02151
0.02079
0.0188597
0.0163901
0.0138302
0.0114835
0.00954042
0.00805448
0.00694446
0.00603826
0.00515237
0.00419297
0.00320524
0.00231283
0.00160662
0.00110593
0.000776521
0.000569294
0.000442356
0.000365659
0.000319841
0.000293098
0.000278271
0.000270948
0.000268312
0.000268514
0.000270346
0.000273146
0.000276693
0.000281299
0.000287484
0.000296384
0.000308722
0.000326845
0.000350952
0.000387696
0.000433188
0.00050948
0.00058293
0.297575
0.154776
0.0871885
0.0530665
0.034715
0.0238347
0.0166362
0.0116948
0.00844015
0.00658266
0.00579474
0.00571168
0.00583518
0.00574352
0.0056803
0.00640529
0.00819863
0.0109796
0.0144677
0.0180344
0.0207252
0.0216512
0.0206887
0.0185866
0.0159909
0.0133426
0.0109511
0.00900991
0.00756775
0.00653842
0.00574636
0.00499464
0.00415899
0.00325355
0.00239316
0.00168475
0.00116755
0.000820227
0.000598711
0.000461648
0.00037825
0.000328017
0.000298261
0.00028123
0.000272135
0.000267934
0.000266648
0.000266998
0.000268281
0.00027024
0.000273135
0.000277438
0.000284236
0.000294216
0.000309682
0.00033075
0.000363972
0.000405188
0.000476484
0.000545296
0.297541
0.154998
0.0875097
0.0533931
0.0351883
0.0246147
0.0177115
0.0128899
0.0095736
0.00756724
0.00665258
0.00653014
0.00670612
0.00665999
0.00651816
0.00713561
0.00890137
0.0116867
0.0151275
0.0185445
0.0209784
0.0216118
0.0204408
0.0181985
0.0155034
0.012789
0.0103719
0.00844673
0.00705439
0.00610259
0.0054155
0.00479042
0.00407985
0.00326692
0.00245148
0.0017515
0.00122422
0.000862217
0.000627852
0.000481249
0.000391361
0.0003368
0.000304087
0.000284911
0.000274116
0.00026843
0.000265748
0.000264729
0.000264644
0.000265218
0.000266679
0.000269454
0.000274578
0.0002827
0.000296084
0.000314793
0.000345329
0.000383334
0.000451062
0.000516597
0.297534
0.155234
0.0878283
0.053668
0.0355176
0.0251784
0.0185808
0.0139617
0.0106779
0.0085825
0.00756031
0.00739583
0.00762809
0.00765835
0.00745791
0.00793362
0.00961521
0.0123471
0.0156836
0.0189021
0.021057
0.0214113
0.0200636
0.0177112
0.0149414
0.0121825
0.00975907
0.00786458
0.00652875
0.00565186
0.00505986
0.00455079
0.0039617
0.00324682
0.00248697
0.00180533
0.00127459
0.000901481
0.000655986
0.000500625
0.000404571
0.000345832
0.000310258
0.000289018
0.000276603
0.000269519
0.000265529
0.000263239
0.000261903
0.000261248
0.000261485
0.000263007
0.000266797
0.000273462
0.000285227
0.00030211
0.000330603
0.0003662
0.000431398
0.000494634
0.297543
0.155474
0.0881442
0.0539121
0.0357412
0.0255543
0.0192373
0.0148714
0.0117059
0.00959136
0.00849377
0.00829072
0.00858134
0.00871898
0.00849407
0.00880321
0.0103395
0.0129557
0.016133
0.0191122
0.0209759
0.0210712
0.0195762
0.0171408
0.0143188
0.0115357
0.00912487
0.00727565
0.00600331
0.00519929
0.00469254
0.004287
0.00381181
0.00319597
0.00249981
0.00184534
0.00131758
0.000937154
0.000682472
0.000519299
0.000417513
0.00035481
0.000316504
0.000293301
0.000279363
0.000270973
0.000265768
0.000262296
0.000259806
0.000258042
0.000257216
0.000257699
0.000260425
0.000265957
0.000276472
0.000291957
0.000318904
0.000352702
0.000416124
0.000477766
0.297561
0.155712
0.0884559
0.05414
0.0358928
0.025777
0.0196893
0.015593
0.0126131
0.0105514
0.00942149
0.00919083
0.00954095
0.0098144
0.00961291
0.00974735
0.0110787
0.0135143
0.0164798
0.0191862
0.0207542
0.0206141
0.018999
0.0165038
0.0136485
0.0108599
0.00848026
0.00669059
0.00548863
0.00475588
0.00432504
0.00400972
0.00363798
0.00311811
0.00249113
0.00187119
0.00135246
0.000968547
0.000706768
0.000536865
0.000429873
0.000363477
0.000322601
0.000297558
0.000282202
0.000272607
0.000266281
0.000261716
0.000258161
0.000255384
0.000253619
0.00025323
0.000255105
0.000259761
0.000269326
0.000283755
0.000309547
0.000342012
0.000404209
0.000464765
0.297584
0.155941
0.0887613
0.0543612
0.0360003
0.0258827
0.0199574
0.0161153
0.0133626
0.0114188
0.0103062
0.0100665
0.0104772
0.0109097
0.0107903
0.0107649
0.0118407
0.0140316
0.0167353
0.0191418
0.0204154
0.0200644
0.0183526
0.0158156
0.0129425
0.0101657
0.00783506
0.00611852
0.00499333
0.0043305
0.003967
0.00372864
0.00344809
0.00301902
0.00246305
0.00188317
0.00137885
0.000995159
0.000728444
0.000552988
0.000441394
0.000371626
0.000328371
0.000301624
0.000284966
0.000274273
0.000266924
0.000261355
0.000256815
0.00025311
0.000250505
0.000249371
0.000250562
0.00025455
0.000263406
0.000277054
0.000301998
0.000333491
0.000394864
0.000454702
0.297607
0.15616
0.0890583
0.054581
0.0360851
0.0259061
0.020071
0.016442
0.0139291
0.012153
0.0111075
0.0108834
0.0113564
0.0119639
0.0119904
0.0118467
0.0126343
0.0145219
0.016917
0.0190021
0.0199858
0.0194474
0.017657
0.0150903
0.0122111
0.00946233
0.00719793
0.00556708
0.00452423
0.00393003
0.00362613
0.00345209
0.00324957
0.00290383
0.00241818
0.00188208
0.0013967
0.00101669
0.00074719
0.000567413
0.000451874
0.000379094
0.000333675
0.000305372
0.000287533
0.00027585
0.000267579
0.000261097
0.000255653
0.000251093
0.000247728
0.00024595
0.000246588
0.000250072
0.000258413
0.000271504
0.000295844
0.000326645
0.000387484
0.000446869
0.29763
0.156367
0.0893449
0.0548018
0.0361628
0.0258778
0.0200636
0.0165901
0.0143018
0.0127215
0.011786
0.0116048
0.0121427
0.0129318
0.0131659
0.0129718
0.013465
0.0150021
0.0170477
0.018794
0.0194943
0.0187877
0.0169301
0.0143395
0.0114632
0.00875805
0.00657639
0.00504247
0.00408647
0.00355946
0.00330825
0.00318689
0.00304918
0.0027777
0.00235951
0.00186914
0.00140625
0.00103303
0.000762814
0.000579969
0.00046117
0.000385766
0.000338415
0.000308712
0.000289813
0.000277247
0.000268153
0.000260848
0.00025458
0.000249236
0.000245179
0.000242837
0.000243024
0.000246134
0.000254116
0.00026683
0.00029076
0.00032109
0.000381607
0.000440731
0.297652
0.15656
0.0896199
0.0550241
0.036244
0.0258234
0.0199697
0.0165863
0.0144845
0.0131036
0.0123076
0.0121947
0.0127998
0.0137675
0.0142606
0.014105
0.0143301
0.0154882
0.0171518
0.0185464
0.018969
0.0181077
0.0161863
0.0135721
0.010706
0.00806004
0.00597686
0.00454958
0.00368369
0.00322213
0.00301745
0.00293834
0.00285271
0.00264557
0.00229024
0.00184589
0.00140805
0.00104426
0.000775245
0.000590529
0.00046919
0.000391568
0.000342528
0.000311584
0.000291745
0.000278398
0.000268577
0.000260537
0.000253523
0.000247463
0.000242776
0.000239935
0.000239751
0.00024259
0.000250337
0.000262818
0.000286494
0.000316526
0.000376874
0.000435876
0.29767
0.156741
0.0898822
0.0552471
0.0363348
0.0257624
0.0198213
0.0164631
0.0144944
0.013293
0.0126478
0.0126213
0.0132942
0.0144275
0.0152131
0.0151952
0.0152139
0.0159902
0.0172517
0.0182864
0.0184357
0.0174254
0.0154356
0.0127937
0.00994508
0.00737465
0.00540479
0.0040921
0.00331823
0.00292001
0.00275634
0.00271031
0.00266495
0.00251198
0.00221358
0.0018141
0.00140285
0.00105061
0.000784516
0.000599061
0.000475892
0.000396467
0.000345984
0.000313958
0.000293294
0.000279262
0.0002688
0.00026011
0.000252425
0.000245715
0.000240456
0.000237172
0.00023668
0.000239328
0.000246938
0.000259303
0.000282848
0.00031272
0.000373009
0.000431991
0.297687
0.156909
0.0901314
0.0554694
0.036438
0.025709
0.0196462
0.0162552
0.0143588
0.0132982
0.0127953
0.012862
0.0135986
0.0148745
0.015963
0.0161787
0.0160844
0.0165069
0.0173632
0.018036
0.0179136
0.0167522
0.0146824
0.0120069
0.00918495
0.00670755
0.00486471
0.00367265
0.00299138
0.00265397
0.0025263
0.00250538
0.00248966
0.00238087
0.00213266
0.00177564
0.00139155
0.00105247
0.00079076
0.000605603
0.000481283
0.000400463
0.000348782
0.000315828
0.000294445
0.000279814
0.000268791
0.000259526
0.000251245
0.000243949
0.000238171
0.000234493
0.000233745
0.000236266
0.000243816
0.000256157
0.000279669
0.00030949
0.0003698
0.000428836
0.297701
0.157065
0.0903673
0.0556893
0.0365542
0.0256722
0.0194666
0.0159957
0.0141114
0.0131405
0.0127531
0.0129055
0.0136952
0.0150818
0.0164572
0.0169835
0.0168915
0.0170216
0.0174904
0.017807
0.0174121
0.0160908
0.0139252
0.0112116
0.0084295
0.00606394
0.00436031
0.00329294
0.00270357
0.00242404
0.00232778
0.00232508
0.00232965
0.0022556
0.0020503
0.00173241
0.0013752
0.0010503
0.000794188
0.000610252
0.00048541
0.000403587
0.000350947
0.000317211
0.000295207
0.000280052
0.000268535
0.000258764
0.000249952
0.000242131
0.000235888
0.000231859
0.000230899
0.00023334
0.000240892
0.000253283
0.00027684
0.000306694
0.000367084
0.000426227
0.297712
0.157211
0.0905902
0.0559055
0.0366822
0.025657
0.0192989
0.0157136
0.0137878
0.0128506
0.0125383
0.0127551
0.0135786
0.0150357
0.016657
0.0175386
0.0175696
0.0174989
0.0176214
0.0175976
0.0169341
0.0154344
0.0131568
0.0104064
0.00768266
0.0054487
0.00389458
0.00295391
0.00245462
0.0022297
0.00216052
0.00217008
0.00218688
0.00213886
0.00196903
0.00168621
0.00135485
0.00104468
0.000795079
0.000613153
0.000488356
0.000405896
0.000352521
0.000318141
0.000295603
0.000279986
0.000268031
0.00025781
0.000248528
0.000240241
0.000233582
0.000229244
0.000228107
0.000230509
0.000238108
0.000250606
0.000274268
0.000304225
0.000364735
0.000424026
0.297722
0.157346
0.0908007
0.0561165
0.0368202
0.0256651
0.0191541
0.0154326
0.0134221
0.0124649
0.0121797
0.0124278
0.0132576
0.0147389
0.0165428
0.0177836
0.0180442
0.0178847
0.0177255
0.0173889
0.0164603
0.0147658
0.0123662
0.00958957
0.00694897
0.00486655
0.00346982
0.0026559
0.00224389
0.00207003
0.00202385
0.00204043
0.00206338
0.00203269
0.00189093
0.00163871
0.00133159
0.00103621
0.000793759
0.000614487
0.000490229
0.000407466
0.000353564
0.000318665
0.000295669
0.00027964
0.00026729
0.000256666
0.000246966
0.000238266
0.000231238
0.00022663
0.000225348
0.000227741
0.000235423
0.000248072
0.000271887
0.000302
0.00036266
0.000422129
0.297729
0.157472
0.0909992
0.0563214
0.0369658
0.0256961
0.0190387
0.0151704
0.013044
0.0120206
0.0117138
0.0119531
0.012755
0.0142103
0.016118
0.0176787
0.0182423
0.0181114
0.017754
0.0171445
0.0159571
0.0140602
0.0115409
0.0087613
0.00623412
0.00432205
0.00308774
0.00239879
0.00207052
0.00194397
0.00191681
0.00193574
0.00195941
0.00193831
0.00181768
0.0015914
0.00130645
0.00102552
0.000790587
0.000614466
0.000491162
0.000408388
0.000354147
0.00031884
0.00029545
0.000279048
0.000266334
0.000255342
0.000245267
0.0002362
0.000228849
0.000224007
0.000222608
0.000225017
0.000232808
0.000245642
0.000269645
0.000299955
0.000360788
0.000420457
0.297735
0.15759
0.0911868
0.0565196
0.0371165
0.0257478
0.0189553
0.0149386
0.0126774
0.0115522
0.0111798
0.0113691
0.0121057
0.0134843
0.0154095
0.0172127
0.0181052
0.0181062
0.0176441
0.0168127
0.0153821
0.0132897
0.0106708
0.00792498
0.00554514
0.0038195
0.00274952
0.00218212
0.00193354
0.00185042
0.00183836
0.00185532
0.00187452
0.0018565
0.00175058
0.00154558
0.00128041
0.00101322
0.000785937
0.000613317
0.000491298
0.000408764
0.000354347
0.000318731
0.000294999
0.000278252
0.000265193
0.000253857
0.00024344
0.000234048
0.000226414
0.000221371
0.000219881
0.000222326
0.000230247
0.000243289
0.000267507
0.000298046
0.000359066
0.000418953
0.297739
0.1577
0.0913641
0.0567106
0.0372702
0.0258175
0.0189034
0.0147442
0.0123398
0.011089
0.0106159
0.0107175
0.0113529
0.0126076
0.0144649
0.0164064
0.0176013
0.0178051
0.0173287
0.0163337
0.0146903
0.0124297
0.00975185
0.00708852
0.00489024
0.00336283
0.00245579
0.00200521
0.00183197
0.0017884
0.00178752
0.00179839
0.00180835
0.00178769
0.00169063
0.00150234
0.00125436
0.000999936
0.000780189
0.000611278
0.000490793
0.000408702
0.000354248
0.000318403
0.000294371
0.000277297
0.000263903
0.000252236
0.000241502
0.000231819
0.000223938
0.000218726
0.000217167
0.000219665
0.000227729
0.000240996
0.000265448
0.000296238
0.000357458
0.000417575
0.297743
0.157804
0.091532
0.0568943
0.037425
0.0259018
0.0188811
0.0145895
0.0120424
0.0106533
0.0100554
0.0100395
0.0105429
0.0116343
0.0133476
0.0153115
0.0167351
0.017167
0.0167496
0.0156496
0.0138431
0.0114655
0.00878947
0.00626449
0.00427835
0.00295529
0.00220665
0.00186721
0.00176497
0.00175713
0.00176343
0.00176413
0.00176046
0.00173206
0.00163855
0.00146258
0.00122907
0.00098622
0.000773712
0.000608586
0.000489804
0.000408314
0.000353934
0.000317928
0.000293626
0.000276234
0.000262506
0.000250512
0.000239476
0.000229529
0.000221432
0.00021608
0.000214472
0.000217035
0.000225251
0.000238754
0.000263452
0.000294509
0.000355938
0.000416295
0.297745
0.157902
0.0916914
0.0570708
0.0375793
0.0259977
0.0188851
0.0144742
0.0117911
0.0102607
0.0095248
0.00937147
0.00972079
0.01062
0.0121291
0.0140039
0.0155497
0.0161863
0.0158723
0.0147178
0.0128207
0.0103992
0.00780005
0.00546934
0.00371818
0.00259924
0.00200169
0.00176723
0.00173192
0.00175617
0.00176553
0.00175185
0.00173032
0.00168959
0.0015948
0.001427
0.00120524
0.000972591
0.000766861
0.000605477
0.000488488
0.000407711
0.000353491
0.000317374
0.000292824
0.000275114
0.000261045
0.000248722
0.000237393
0.0002272
0.000218914
0.000213445
0.000211805
0.000214443
0.000222817
0.00023656
0.000261511
0.000292847
0.000354491
0.000415093
0.297747
0.157995
0.0918431
0.0572402
0.0377319
0.0261021
0.0189114
0.0143955
0.0115872
0.00992005
0.00904259
0.00874227
0.00892532
0.00961609
0.0108809
0.0125734
0.0141227
0.0148999
0.0146994
0.0135441
0.0116321
0.00925305
0.00681007
0.00472137
0.00321729
0.00229588
0.00184004
0.00170443
0.00173255
0.00178552
0.00179364
0.00176106
0.00171744
0.00166011
0.00155964
0.00139616
0.00118342
0.000959514
0.000759966
0.000602175
0.000486998
0.000407002
0.000353002
0.00031681
0.000292024
0.000273991
0.000259568
0.000246906
0.000235285
0.00022486
0.000216405
0.000210839
0.000209181
0.000211899
0.000220433
0.000234417
0.000259624
0.000291244
0.000353108
0.000413958
0.297749
0.158084
0.0919878
0.057403
0.037882
0.0262126
0.0189561
0.0143495
0.0114294
0.00963484
0.00861998
0.00817219
0.00818672
0.0086654
0.0096668
0.0111112
0.012554
0.013384