/*--------------------------------*- C++ -*----------------------------------*\
| =========                 |                                                 |
| \\      /  F ield         | OpenFOAM: The Open Source CFD Toolbox           |
|  \\    /   O peration     | Version:  2.4.0                                 |
|   \\  /    A nd           | Web:      www.OpenFOAM.org                      |
|    \\/     M anipulation  |                                                 |
\*---------------------------------------------------------------------------*/
FoamFile
{
    version     2.0;
    format      ascii;
    class       volScalarField;
    location    "1.77";
    object      k;
}
// * * * * * * * * * * * * * * * * * * * * * * * * * * * * * * * * * * * * * //

dimensions      [0 2 -2 0 0 0 0];

internalField   nonuniform List<scalar> 
6000
(
0.168239
0.013239
0.000994923
0.00361321
0.00251889
0.00295796
0.00246419
0.00247336
0.00233644
0.00240947
0.00220827
0.00164717
0.000742438
0.000391277
0.00115233
0.0016254
0.00138271
0.00117601
0.0043899
0.0099647
0.01686
0.0236692
0.0290206
0.0318657
0.0315832
0.0281533
0.0222727
0.0150968
0.0079895
0.00259749
0.000933684
0.00284195
0.00454792
0.00561055
0.00612822
0.00630219
0.00632456
0.00634567
0.00646731
0.00675329
0.00724298
0.00796011
0.00891795
0.010123
0.0115739
0.0132656
0.0151809
0.0173123
0.0196255
0.0221596
0.0248373
0.0279122
0.0310359
0.0352859
0.0388923
0.0462526
0.049342
0.0657848
0.063813
0.10416
0.0762099
0.0101355
0.000956231
0.00240104
0.00172283
0.00194192
0.00163641
0.00162411
0.00153624
0.00156063
0.00141729
0.001057
0.000510323
0.00036791
0.000833381
0.00108665
0.000968704
0.00111944
0.00304351
0.00579348
0.00876392
0.0113695
0.013159
0.0138618
0.0133648
0.0117868
0.00938817
0.00652516
0.00361192
0.00132032
0.000801317
0.00176918
0.00254625
0.00302016
0.00325515
0.00334513
0.0033753
0.00341218
0.00350036
0.00366752
0.00393029
0.00429746
0.00477297
0.00535777
0.00604979
0.00684593
0.00773918
0.00872745
0.00979952
0.0109743
0.0122277
0.0136647
0.0151615
0.0171451
0.0189521
0.0222999
0.0241223
0.0312792
0.0315215
0.0482338
0.0412234
0.008022
0.000982144
0.00168641
0.00122987
0.00132661
0.00112777
0.00110804
0.00105025
0.00105207
0.000946829
0.000709202
0.000378188
0.000341755
0.000632058
0.000783274
0.000766179
0.00107137
0.00228093
0.0037382
0.0050918
0.00608968
0.00660268
0.00660713
0.00614464
0.00533644
0.00427027
0.00304966
0.00179577
0.000798189
0.000677961
0.00114876
0.00151197
0.00173605
0.00185309
0.0019062
0.0019348
0.00196949
0.00203105
0.00213276
0.0022817
0.00248135
0.0027329
0.00303629
0.00339034
0.0037937
0.00424382
0.00474058
0.00528082
0.00587403
0.00651367
0.00724528
0.008026
0.00903212
0.0100117
0.0116616
0.0127787
0.0161344
0.0168589
0.02419
0.0260626
0.00677011
0.00107773
0.0012669
0.000921678
0.000944842
0.000806929
0.00078523
0.000746385
0.000738729
0.000661044
0.000503297
0.000305876
0.000319213
0.000507453
0.000616346
0.000675772
0.00102232
0.00181028
0.00261369
0.00323251
0.00357378
0.00363548
0.00346842
0.00314591
0.00272752
0.00222779
0.00166902
0.00108729
0.000617969
0.000589092
0.000796414
0.000961732
0.00106926
0.00113046
0.00116357
0.00118684
0.00121437
0.00125643
0.00131968
0.00140724
0.00152061
0.00166022
0.00182604
0.00201765
0.00223473
0.00247665
0.00274392
0.00303614
0.00335821
0.00370928
0.00410978
0.00454631
0.0050939
0.00565879
0.00653015
0.0072346
0.00891381
0.00961518
0.012978
0.0187961
0.00609016
0.00123813
0.00103398
0.000731924
0.000705336
0.000601388
0.000579389
0.000552864
0.000542718
0.000486581
0.000383573
0.000270179
0.000304272
0.000434285
0.000530917
0.000642708
0.000974638
0.0015003
0.0019513
0.00222614
0.00231494
0.00226153
0.00212389
0.00195788
0.00175717
0.0015094
0.00121398
0.000888306
0.000607268
0.000553643
0.00061175
0.000670439
0.000714786
0.000743969
0.000763086
0.000779488
0.000799125
0.000827106
0.000866656
0.00091919
0.000985408
0.00106556
0.00115975
0.00126801
0.00139052
0.0015274
0.00167934
0.00184676
0.00203229
0.00223663
0.00246925
0.00272716
0.0030431
0.00338447
0.00387285
0.00432656
0.00521695
0.00577255
0.00737403
0.0150484
0.00576547
0.00145364
0.000927772
0.000622444
0.000556454
0.000469594
0.000447228
0.000429052
0.000420336
0.000382021
0.000317878
0.000257495
0.000298276
0.000396578
0.000494342
0.000637616
0.00093281
0.00129265
0.0015559
0.00168736
0.00171724
0.00169527
0.00166035
0.0016273
0.00155002
0.00140812
0.00119847
0.000940762
0.000692872
0.000577272
0.000538032
0.000527629
0.000529545
0.0005353
0.000542157
0.000550956
0.000563117
0.000580769
0.00060512
0.000636758
0.000675988
0.00072298
0.000777906
0.000840993
0.000912593
0.000993105
0.00108317
0.00118338
0.00129523
0.00141962
0.0015611
0.00171999
0.00191097
0.00212456
0.00241231
0.00270888
0.00320649
0.00361477
0.00440318
0.0130157
0.00565577
0.00171283
0.000913755
0.000571215
0.000468242
0.00038704
0.000363384
0.000351109
0.000346101
0.000323013
0.000287022
0.000259823
0.000301187
0.000383354
0.000487049
0.000646141
0.000901984
0.00116202
0.00133959
0.00144178
0.00151147
0.00158338
0.0016683
0.00173069
0.0017169
0.00160562
0.00139821
0.00112185
0.000840758
0.000655907
0.000541532
0.000476263
0.000442683
0.000427207
0.000421653
0.000422275
0.000427482
0.000437214
0.000451428
0.000470135
0.000493357
0.000521158
0.000553684
0.000591184
0.000634016
0.000682615
0.000737531
0.000799313
0.000868855
0.000946943
0.00103584
0.00113664
0.00125619
0.00139316
0.00156966
0.00176555
0.00205704
0.00234599
0.00274774
0.0118773
0.00567237
0.00200343
0.00097042
0.00056597
0.000423135
0.000338984
0.000312594
0.000304594
0.000304601
0.000294702
0.000279255
0.000272498
0.000312278
0.000387111
0.000497315
0.000662652
0.000887306
0.00109694
0.00125709
0.00139823
0.0015576
0.00174261
0.00193125
0.0020517
0.00205944
0.00193847
0.00169622
0.0013663
0.00103191
0.000779835
0.000600184
0.000484827
0.000417002
0.000379789
0.000360797
0.000352579
0.000351072
0.000354382
0.000361507
0.000371929
0.000385386
0.00040178
0.000421154
0.000443671
0.000469606
0.000499325
0.000533265
0.000571893
0.000615792
0.000665576
0.000722439
0.000787474
0.00086399
0.000953199
0.00106473
0.00119501
0.00137274
0.00157305
0.00178583
0.0112298
0.0057591
0.00231267
0.0010838
0.000598886
0.000410955
0.000316502
0.000285499
0.000280512
0.000286203
0.000287755
0.000287304
0.000292884
0.000330625
0.000402806
0.000518595
0.000686253
0.00089319
0.00109098
0.00128097
0.00150206
0.00177242
0.00206426
0.00232502
0.00246975
0.00247067
0.00232011
0.00203064
0.0016396
0.00125309
0.000937426
0.000697817
0.000534093
0.000431421
0.000371038
0.000337246
0.0003194
0.000311115
0.000308864
0.000310712
0.000315601
0.000322946
0.000332437
0.000343953
0.000357511
0.000373255
0.00039143
0.000412361
0.000436426
0.00046405
0.000495717
0.000532126
0.000574171
0.000623558
0.000681976
0.000753749
0.000840656
0.00095245
0.00108966
0.0012074
0.0108616
0.0058806
0.00262798
0.0012428
0.000665121
0.000426182
0.000314303
0.00027633
0.000273148
0.000284739
0.000296227
0.000306738
0.000319633
0.000355444
0.000427287
0.000547794
0.000718298
0.000922903
0.00113942
0.00139246
0.00171684
0.0021004
0.00247848
0.00277795
0.0029211
0.0028974
0.00270835
0.00237044
0.00192494
0.00149225
0.001118
0.000822106
0.000611083
0.000472813
0.000387818
0.000337879
0.00030956
0.000294239
0.000286828
0.000284433
0.000285411
0.00028881
0.00029407
0.000300864
0.000309037
0.000318567
0.000329559
0.000342221
0.000356847
0.000373775
0.000393418
0.000416248
0.000442981
0.000474571
0.000512561
0.000558971
0.000616812
0.000688603
0.000781863
0.000850219
0.0106566
0.00601507
0.00293786
0.00143724
0.000761301
0.000466008
0.000329474
0.000281598
0.000278846
0.000296212
0.000316376
0.000335023
0.00035225
0.00038632
0.000458874
0.000584041
0.000760963
0.000978619
0.0012383
0.00157769
0.00201572
0.00250204
0.00294168
0.00325227
0.00337477
0.00331424
0.0030821
0.00269825
0.00221163
0.00173968
0.00131281
0.000963997
0.000706701
0.000532375
0.000421651
0.000354427
0.000314828
0.00029211
0.000279648
0.000273547
0.000271539
0.000272272
0.000274901
0.00027888
0.000283858
0.000289639
0.000296175
0.00030355
0.000311977
0.00032174
0.000333214
0.000346777
0.000363032
0.000382573
0.000406681
0.000436342
0.00047445
0.000520958
0.000583952
0.000625654
0.0105484
0.00614967
0.00323272
0.00165693
0.000884961
0.000528499
0.000360761
0.000299341
0.000295312
0.000318062
0.000345982
0.000370932
0.000390859
0.000423316
0.00049697
0.000627815
0.000816563
0.00106172
0.0013842
0.00182536
0.00237729
0.00294976
0.00342861
0.00372832
0.00381466
0.00370726
0.00342868
0.00300225
0.00249132
0.00198669
0.0015146
0.00111694
0.000814694
0.000604111
0.000466838
0.000381417
0.000329826
0.000299311
0.000281726
0.000272147
0.000267647
0.000266444
0.000267397
0.000269726
0.000272883
0.000276492
0.000280347
0.000284406
0.000288797
0.000293755
0.000299638
0.000306793
0.000315766
0.000326978
0.000341492
0.0003598
0.00038437
0.000414359
0.000456622
0.000483344
0.0104982
0.00627736
0.00350543
0.00189162
0.00103321
0.000612197
0.000408168
0.000328683
0.000321185
0.000348709
0.000383885
0.000414134
0.00043605
0.000467002
0.000542055
0.000680367
0.000887269
0.00117304
0.00157381
0.00212521
0.00278427
0.00342511
0.00392422
0.00419427
0.00423063
0.00406723
0.00373917
0.00327566
0.00275439
0.0022249
0.00171672
0.00127581
0.000930749
0.000684037
0.000519583
0.000415202
0.000350987
0.000312265
0.000289381
0.000276364
0.000269596
0.000266848
0.000266671
0.000268053
0.00027025
0.000272709
0.000275067
0.000277153
0.000279004
0.000280807
0.000282909
0.00028565
0.000289555
0.000294969
0.000302807
0.000313308
0.000328542
0.000347487
0.000375618
0.000393601
0.0104825
0.00639483
0.00375148
0.00213138
0.00120224
0.00071625
0.000471709
0.000369578
0.000355791
0.000387242
0.000429508
0.000464895
0.00048877
0.000518401
0.000595235
0.000743341
0.000974995
0.00131294
0.00180343
0.00246736
0.00322295
0.00391533
0.00441746
0.00464156
0.00461522
0.00438748
0.00400694
0.00351555
0.00299052
0.00244623
0.00191268
0.00143601
0.0010516
0.000769506
0.000577449
0.00045343
0.000376
0.000328655
0.000300239
0.000283706
0.000274727
0.000270609
0.00026959
0.000270427
0.000272188
0.000274151
0.0002758
0.000276834
0.000277197
0.000277026
0.000276652
0.00027642
0.000276857
0.000278271
0.000281497
0.000286631
0.000295457
0.000306955
0.000325546
0.000338307
0.0104868
0.00650099
0.00396883
0.00236715
0.00138711
0.000839604
0.000551313
0.000422673
0.000398988
0.000433211
0.000482743
0.000523839
0.000550214
0.000578889
0.000658013
0.000818499
0.00108129
0.00148105
0.00206855
0.00284232
0.00368239
0.00441082
0.00489742
0.00506304
0.00496256
0.00466319
0.0042274
0.00371936
0.00319224
0.00264324
0.00209604
0.00159296
0.00117436
0.000858585
0.000638887
0.000494666
0.000403465
0.000347061
0.000312837
0.000292641
0.000281406
0.000275956
0.000274212
0.000274707
0.000276326
0.000278192
0.000279642
0.000280248
0.000279858
0.000278556
0.000276655
0.000274508
0.000272654
0.000271391
0.000271513
0.00027303
0.000277553
0.00028408
0.000296379
0.000306041
0.0105024
0.00659601
0.00415749
0.0025913
0.00158191
0.000980471
0.000646997
0.000488704
0.000451094
0.00048647
0.000543689
0.000591764
0.000621709
0.000650051
0.00073206
0.000907506
0.00120715
0.00167613
0.0023638
0.00324118
0.00415334
0.00490349
0.00535813
0.00545244
0.00526792
0.00489115
0.00440162
0.0038823
0.00335422
0.00280962
0.00226068
0.00174197
0.00129608
0.000949588
0.000702825
0.000538055
0.000432583
0.000366678
0.000326346
0.000302296
0.000288693
0.000281863
0.000279403
0.000279622
0.000281238
0.000283226
0.000284787
0.000285369
0.000284727
0.000282884
0.000280139
0.000276851
0.000273579
0.000270622
0.000268767
0.000267958
0.000269735
0.000273069
0.000281432
0.000289383
0.0105237
0.00668069
0.00431898
0.00279803
0.00178013
0.00113608
0.000758586
0.000568184
0.000512871
0.000547095
0.000612475
0.000669483
0.00070459
0.000733534
0.000819017
0.00101172
0.00135291
0.00189593
0.00268315
0.00365555
0.00462744
0.00538561
0.00579288
0.00580407
0.00552757
0.00506957
0.00453356
0.00400049
0.00347318
0.00294052
0.00240113
0.00187836
0.00141363
0.00104078
0.000768354
0.000583057
0.00046292
0.000387098
0.000340345
0.000312223
0.000296103
0.000287791
0.00028455
0.000284471
0.000286112
0.000288315
0.000290154
0.00029096
0.000290393
0.000288413
0.000285304
0.000281428
0.000277378
0.000273455
0.000270467
0.000268306
0.000268509
0.000269973
0.000276156
0.000283384
0.0105473
0.00675607
0.00445581
0.00298349
0.00197519
0.00130258
0.000885235
0.000661512
0.000585262
0.000615349
0.00068915
0.000757694
0.000800072
0.000830895
0.000920318
0.00113205
0.00151807
0.00213723
0.00302017
0.00407746
0.00509666
0.00584946
0.00619477
0.00611279
0.00573871
0.00520021
0.00462513
0.00407332
0.00354796
0.00303292
0.00251299
0.00199773
0.00152376
0.00113026
0.000834528
0.000629248
0.000494227
0.000408142
0.000354656
0.000322238
0.00030343
0.000293502
0.000289372
0.000288913
0.000290532
0.00029295
0.000295131
0.000296296
0.000296007
0.000294159
0.000291014
0.000286942
0.000282569
0.000278213
0.00027472
0.000271936
0.000271461
0.00027206
0.000277405
0.000284662
0.0105712
0.00682323
0.00457103
0.00314579
0.00216102
0.00147523
0.0010252
0.000768767
0.000669179
0.000691709
0.000773609
0.000856877
0.000909119
0.000943474
0.00103706
0.00126882
0.00170129
0.00239601
0.00336828
0.00449919
0.00555303
0.00628713
0.00655696
0.00637402
0.00589935
0.00529027
0.00467497
0.00410212
0.00357926
0.00308564
0.0025932
0.00209629
0.00162324
0.00121594
0.000900268
0.000676223
0.000526304
0.000429725
0.000369225
0.00033229
0.000310621
0.000298929
0.000293778
0.000292819
0.00029432
0.000296893
0.000299406
0.00030098
0.000301083
0.00029954
0.000296581
0.000292582
0.000288207
0.000283798
0.000280257
0.000277394
0.000276922
0.000277423
0.000282978
0.000290868
0.0105941
0.00688316
0.00466783
0.00328467
0.00233254
0.00164862
0.00117572
0.000889402
0.000765129
0.000777085
0.000865594
0.00096685
0.00103231
0.0010723
0.00116993
0.00142176
0.00190055
0.00266776
0.00372089
0.00491323
0.00598853
0.00669052
0.00687273
0.00658382
0.00601252
0.00534245
0.00468417
0.00408959
0.00356938
0.0030993
0.00264024
0.0021711
0.00170905
0.00129565
0.000964338
0.000723241
0.000558891
0.000451751
0.000384035
0.000342389
0.000317693
0.00030409
0.000297777
0.000296185
0.000297441
0.000300067
0.000302848
0.00030482
0.000305364
0.000304229
0.000301605
0.000297864
0.000293711
0.000289513
0.000286252
0.000283703
0.000283747
0.000284734
0.000291324
0.000300338
0.0106153
0.00693673
0.00474929
0.0034012
0.002486
0.0018172
0.00133302
0.00102204
0.000873217
0.000872209
0.000965069
0.0010862
0.00116969
0.00121802
0.00131922
0.00159012
0.00211331
0.00294773
0.00407167
0.00531229
0.0063951
0.00705128
0.00713558
0.00673883
0.00608624
0.00535599
0.00465502
0.00403932
0.00352185
0.00307607
0.00265412
0.0022203
0.00177867
0.00136723
0.00102539
0.000769587
0.000591653
0.000474092
0.000399058
0.000352551
0.000324686
0.000309036
0.00030143
0.000299066
0.000299941
0.000302492
0.000305441
0.000307755
0.000308738
0.000308061
0.000305868
0.000302513
0.000298736
0.000294934
0.00029218
0.000290226
0.00029116
0.000293072
0.000301341
0.000311881
0.0106345
0.00698467
0.00481821
0.00349742
0.00261916
0.00197571
0.00149253
0.00116435
0.000992941
0.000977254
0.00107256
0.00121354
0.00132064
0.00138079
0.00148492
0.00177281
0.00233685
0.00323128
0.00441466
0.00568936
0.00676466
0.0073608
0.00733929
0.00684594
0.00611946
0.00533174
0.00459053
0.00395541
0.003441
0.00301937
0.00263626
0.00224322
0.00183019
0.00142874
0.00108202
0.000814442
0.000624165
0.000496559
0.000414229
0.000362772
0.000331628
0.000313821
0.000304803
0.000301543
0.000301902
0.000304243
0.000307238
0.000309804
0.000311183
0.000310975
0.000309268
0.000306386
0.000303093
0.000299815
0.000297723
0.000296556
0.000298649
0.000301803
0.000312245
0.000324628
0.0106516
0.0070276
0.00487702
0.00357587
0.00273125
0.00211966
0.00164916
0.00131299
0.00112299
0.00109199
0.00118773
0.00134812
0.00148375
0.00155963
0.00166685
0.00196871
0.00256864
0.0035143
0.00474459
0.00603788
0.0070891
0.00761018
0.00748496
0.00690652
0.00611228
0.0052715
0.00449403
0.00384226
0.00333165
0.00293348
0.0025893
0.00224031
0.00186249
0.00147852
0.00113288
0.00085691
0.000655922
0.000518895
0.000429436
0.000373014
0.000338525
0.000318479
0.000307958
0.000303695
0.000303417
0.000305417
0.000308328
0.000311037
0.000312739
0.000312976
0.000311774
0.000309421
0.000306689
0.000304023
0.000302699
0.000302447
0.000305878
0.000310497
0.000323473
0.000337937
0.0106666
0.00706603
0.00492774
0.00363937
0.00282279
0.00224572
0.00179773
0.00146375
0.00126112
0.0012156
0.00130988
0.00148882
0.00165663
0.00175356
0.00186472
0.00217695
0.00280684
0.00379368
0.00505714
0.00635191
0.00735823
0.00779406
0.00757502
0.00692102
0.00606578
0.00517769
0.00436908
0.00370432
0.00319882
0.00282321
0.00251679
0.00221311
0.00187527
0.00151537
0.00117676
0.000896061
0.000686356
0.000540787
0.000444525
0.000383202
0.000345351
0.000323019
0.000310932
0.000305588
0.000304575
0.000306117
0.000308819
0.00031155
0.000313482
0.00031411
0.000313407
0.000311611
0.00030949
0.000307498
0.000307008
0.000307753
0.000312635
0.000318861
0.000334619
0.000351329
0.0106797
0.00710041
0.00497198
0.00369067
0.00289532
0.00235187
0.00193349
0.00161179
0.00140409
0.00134652
0.00143792
0.00163376
0.0018359
0.00196066
0.0020782
0.00239727
0.00305083
0.00406801
0.00534481
0.0066195
0.00756652
0.00791483
0.00761138
0.00689063
0.0059818
0.00505309
0.00421932
0.00354597
0.00304748
0.00269363
0.00242291
0.00216402
0.00186902
0.00153859
0.00121223
0.000930964
0.000714875
0.000561882
0.000459309
0.000393229
0.000352052
0.000327424
0.00031374
0.000307265
0.000305446
0.000306437
0.000308818
0.000311454
0.000313509
0.000314454
0.000314215
0.000312981
0.000311499
0.000310222
0.00031061
0.000312397
0.000318791
0.000326705
0.000345387
0.000364444
0.010691
0.00713112
0.00501105
0.00373234
0.00295112
0.00243748
0.00205252
0.00175199
0.00154778
0.0014823
0.00157024
0.00178079
0.00201828
0.00217802
0.0023064
0.00262847
0.00329646
0.00432906
0.00560041
0.00683766
0.00771453
0.00797504
0.00759622
0.00681737
0.00586279
0.00490077
0.00404842
0.00337148
0.0028824
0.00254972
0.00231215
0.00209611
0.00184499
0.001548
0.00123862
0.000960855
0.000740909
0.000581812
0.000473539
0.000402962
0.000358551
0.000331656
0.000316373
0.000308746
0.00030608
0.000306454
0.000308422
0.000310854
0.000312926
0.0003141
0.000314271
0.000313581
0.000312747
0.000312208
0.000313494
0.000316346
0.000324271
0.000333905
0.000355566
0.000377012
0.0107006
0.00715851
0.00504589
0.00376663
0.00299281
0.00250317
0.00215204
0.00187947
0.00168739
0.00161958
0.00170459
0.0019274
0.00219997
0.00240127
0.00254621
0.00286728
0.00353902
0.00457159
0.00582011
0.00700497
0.00780379
0.00797758
0.00753232
0.00670392
0.00571168
0.00472399
0.00386002
0.0031849
0.00270806
0.00239626
0.00218909
0.00201291
0.00180505
0.00154396
0.00125559
0.000985138
0.000763946
0.000600217
0.000486982
0.000412253
0.000364754
0.000335657
0.000318804
0.000310031
0.000306503
0.000306221
0.00030771
0.000309849
0.000311836
0.000313145
0.000313656
0.000313474
0.000313278
0.000313484
0.000315676
0.000319596
0.000329038
0.000340386
0.00036501
0.000388835
0.0107088
0.00718289
0.00507726
0.00379541
0.00302316
0.00255058
0.00223065
0.00199001
0.00181782
0.00175419
0.00183801
0.00207073
0.00237679
0.00262513
0.00279385
0.0031107
0.00377461
0.00479166
0.00600154
0.0071214
0.00783678
0.00792676
0.00742319
0.00655359
0.00553173
0.00452613
0.00365774
0.00299009
0.0025286
0.00223767
0.00205813
0.00191811
0.00175151
0.00152727
0.00126308
0.00100341
0.000783562
0.000616769
0.000499408
0.00042095
0.000370563
0.000339361
0.000320992
0.000311103
0.000306725
0.000305773
0.000306743
0.000308521
0.000310333
0.000311685
0.00031246
0.000312734
0.000313151
0.000314095
0.000317184
0.00032216
0.000333084
0.000346112
0.000373621
0.000399776
0.0107157
0.00720456
0.00510568
0.00382017
0.00304482
0.00258211
0.00228831
0.00208045
0.00193413
0.00188136
0.00196685
0.00220753
0.00254429
0.00284349
0.00304453
0.00335586
0.00400039
0.00498678
0.00614378
0.00718829
0.00781691
0.00782744
0.007273
0.00637015
0.00532645
0.00431065
0.00344509
0.00279064
0.00234772
0.0020779
0.00192338
0.00181544
0.001687
0.00149911
0.00126137
0.00101547
0.000799438
0.000631188
0.00051061
0.000428911
0.000375879
0.000342702
0.000322891
0.000311937
0.000306738
0.000305128
0.000305562
0.000306932
0.000308499
0.00030981
0.000310767
0.000311438
0.000312429
0.00031409
0.000318057
0.000324067
0.00033642
0.00035107
0.00038134
0.000409747
0.0107215
0.00722378
0.00513157
0.00384205
0.00306016
0.00260054
0.00232621
0.00214898
0.00203201
0.00199611
0.00208685
0.00233417
0.00269788
0.00304966
0.00329235
0.00359978
0.00421454
0.00515596
0.00624739
0.00720828
0.0077485
0.00768475
0.00708642
0.00615766
0.00509942
0.00408099
0.00322549
0.00258989
0.00216873
0.00192037
0.00178848
0.00170842
0.0016143
0.001461
0.00125112
0.00102135
0.000811384
0.000643259
0.000520414
0.000436008
0.000380614
0.000345616
0.000324458
0.000312502
0.000306529
0.000304288
0.000304192
0.000305131
0.000306401
0.000307598
0.000308662
0.000309662
0.00031118
0.000313527
0.000318342
0.000325354
0.000339068
0.00035527
0.000388145
0.0004187
0.0107264
0.0072408
0.00515521
0.00386191
0.00307122
0.0026088
0.00234654
0.00219524
0.00210822
0.00209369
0.00219344
0.00244672
0.00283295
0.00323659
0.00353012
0.0038389
0.00441603
0.00529959
0.00631437
0.00718523
0.00763673
0.00750427
0.00686846
0.00592028
0.00485426
0.00384058
0.00300224
0.00239091
0.0019945
0.00176801
0.00165657
0.00160029
0.00153617
0.00141524
0.00123324
0.00102131
0.000819339
0.000652841
0.000528687
0.000442138
0.000384694
0.000348051
0.000325654
0.000312771
0.000306081
0.00030325
0.000302645
0.000303149
0.000304088
0.000305115
0.000306215
0.00030748
0.000309469
0.000312464
0.000318089
0.000326064
0.000341066
0.000358737
0.000394038
0.000426623
0.0107305
0.00725587
0.00517685
0.0038803
0.00307962
0.00260972
0.00235215
0.00222025
0.00216091
0.00217005
0.00228207
0.0025411
0.00294508
0.00339731
0.00374949
0.00406856
0.00460411
0.00541919
0.00634797
0.00712404
0.00748749
0.00729189
0.00662419
0.00566209
0.00459448
0.00359273
0.00277845
0.00219645
0.00182746
0.00162318
0.00153027
0.00149387
0.00145521
0.0013637
0.00120884
0.00101575
0.000823372
0.000659871
0.000535342
0.000447228
0.000388065
0.000349969
0.000326452
0.000312724
0.000305378
0.000302007
0.000300926
0.000301006
0.0003016
0.000302415
0.000303492
0.000304958
0.000307363
0.00031096
0.000317353
0.000326245
0.000342456
0.000361507
0.000399045
0.00043353
0.0107338
0.0072692
0.00519665
0.00389763
0.00308663
0.0026058
0.00234621
0.00222621
0.00218981
0.00222236
0.00234868
0.00261338
0.00303016
0.0035253
0.00394133
0.00428257
0.00477759
0.0055168
0.00635233
0.00703041
0.0073071
0.00705354
0.0063585
0.00538694
0.00432344
0.00334066
0.00255704
0.00200894
0.00166963
0.00148777
0.00141163
0.00139154
0.00137383
0.00130829
0.00117914
0.00100526
0.000823668
0.000664363
0.000540342
0.000451236
0.000390695
0.000351348
0.000326835
0.000312347
0.000304411
0.000300552
0.000299035
0.000298714
0.000298962
0.000299538
0.000300546
0.000302156
0.00030492
0.000309072
0.000316186
0.000325948
0.000343286
0.000363626
0.000403205
0.000439458
0.0107366
0.007281
0.00521478
0.0039141
0.00309311
0.0025992
0.00233196
0.00221616
0.00219612
0.00224926
0.00239015
0.00266008
0.0030847
0.00361494
0.00409628
0.00447303
0.00493413
0.00559436
0.00633194
0.00691037
0.00710194
0.00679488
0.00607578
0.00509824
0.00404427
0.00308745
0.00234071
0.00183047
0.00152259
0.00136317
0.00130223
0.00129521
0.00129412
0.00125088
0.00114541
0.000990529
0.000820516
0.000666405
0.000543696
0.000454142
0.000392572
0.000352182
0.000326804
0.000311642
0.000303179
0.000298884
0.000296974
0.000296282
0.000296194
0.000296519
0.000297422
0.000299127
0.000302198
0.000306855
0.000314642
0.000325223
0.000343607
0.000365145
0.000406572
0.000444457
0.0107389
0.00729144
0.00523138
0.00392986
0.00309968
0.0025916
0.00231238
0.00219363
0.00218236
0.00225103
0.00240471
0.00267862
0.00310603
0.00366189
0.00420559
0.00463049
0.00506953
0.00565281
0.00629089
0.00676964
0.00687783
0.00652082
0.00577968
0.00479893
0.00375994
0.00283603
0.00213189
0.0016628
0.00138758
0.00125037
0.00120315
0.00120634
0.00121784
0.00119317
0.00110893
0.000972323
0.000814289
0.000666149
0.000545461
0.000455965
0.000393706
0.000352484
0.000326369
0.000310618
0.000301689
0.000297006
0.000294744
0.000293713
0.000293308
0.00029338
0.000294156
0.000295915
0.000299246
0.000304361
0.000312771
0.000324121
0.000343472
0.000366119
0.000409207
0.000448591
0.0107407
0.0073007
0.00524657
0.00394496
0.00310666
0.00258426
0.00229011
0.00216229
0.002152
0.00222958
0.00239223
0.00266769
0.00309267
0.0036635
0.00426194
0.00474458
0.00517739
0.00569129
0.00623206
0.0066129
0.0066394
0.00623509
0.00547285
0.00449145
0.00347323
0.00258917
0.00193275
0.00150733
0.00126544
0.00115001
0.00111513
0.00112598
0.00114643
0.00113666
0.00107096
0.000951446
0.00080542
0.000663801
0.00054573
0.000456754
0.000394128
0.000352278
0.000325554
0.000309295
0.000299957
0.000294929
0.000292352
0.000291015
0.000290315
0.000290141
0.000290775
0.000292559
0.000296107
0.000301635
0.000310621
0.000322691
0.000342933
0.000366602
0.000411176
0.000451931
0.0107422
0.00730892
0.00526047
0.00395943
0.00311422
0.00257805
0.00226728
0.00212561
0.00210909
0.00218812
0.00235427
0.00262754
0.00304457
0.00361903
0.00426032
0.00480511
0.00524911
0.00570652
0.00615626
0.006443
0.00638925
0.00593993
0.0051569
0.00417778
0.00318682
0.00234951
0.00174519
0.00136515
0.00115673
0.00106241
0.00103853
0.00105484
0.00108098
0.00108268
0.00103264
0.000928703
0.000794384
0.000659611
0.000544632
0.000456582
0.000393885
0.000351603
0.000324394
0.000307705
0.000298007
0.000292671
0.000289812
0.000288197
0.000287226
0.000286818
0.000287306
0.000289092
0.000292821
0.000298721
0.000308237
0.000320978
0.000342041
0.000366651
0.000412548
0.000454551
0.0107435
0.00731625
0.0052732
0.00397325
0.00312238
0.00257348
0.0022455
0.00208668
0.00205778
0.00213086
0.00229397
0.00256012
0.00296332
0.00352992
0.00419867
0.00480339
0.0052746
0.00569249
0.00606165
0.00626028
0.00613096
0.00563588
0.00483241
0.00385971
0.00290342
0.00211952
0.00157078
0.00123705
0.00106176
0.000987671
0.000973499
0.000993302
0.00102233
0.00103229
0.00099498
0.000904864
0.00078167
0.000653858
0.000542323
0.000455541
0.00039304
0.000350509
0.000322932
0.000305883
0.00029587
0.000290257
0.000287139
0.000285271
0.000284052
0.000283425
0.000283768
0.000285541
0.000289423
0.000295658
0.000305661
0.000319027
0.000340844
0.00036632
0.000413389
0.000456526
0.0107445
0.00732279
0.00528486
0.00398643
0.00313108
0.00257079
0.00222592
0.002048
0.00200204
0.00206246
0.0022157
0.00246901
0.00285223
0.00339975
0.00407832
0.00473362
0.00524354
0.00564076
0.00594338
0.00606211
0.00586222
0.00532144
0.00449928
0.00353904
0.0026258
0.00190148
0.00141081
0.00112351
0.0009806
0.000925714
0.000919976
0.00094153
0.000971349
0.000986339
0.000958843
0.000880643
0.000767768
0.00064684
0.000538978
0.000453742
0.000391666
0.000349052
0.000321215
0.000303874
0.000293584
0.000287716
0.000284357
0.000282253
0.000280805
0.000279975
0.000280179
0.00028193
0.000285941
0.000292479
0.000302931
0.000316879
0.000339388
0.00036566
0.000413767
0.000457931
0.0107452
0.00732866
0.00529555
0.00399897
0.00314023
0.00257003
0.00220922
0.00201151
0.00194531
0.00198762
0.00212458
0.0023591
0.00271624
0.00323421
0.00390405
0.00459414
0.00514712
0.00554146
0.00579392
0.00584293
0.00557788
0.0049937
0.00415726
0.00321797
0.00235687
0.00169749
0.00126626
0.0010248
0.000913191
0.000876349
0.000877779
0.000899506
0.000928235
0.000945341
0.000924928
0.00085668
0.000753148
0.000638861
0.000534784
0.000451302
0.000389846
0.000347295
0.000319296
0.000301721
0.000291187
0.000285081
0.000281491
0.000279164
0.000277501
0.000276483
0.000276557
0.000278281
0.000282405
0.000289217
0.000300082
0.000314571
0.000337717
0.000364721
0.000413745
0.000458838
0.0107459
0.00733394
0.00530538
0.00401086
0.00314968
0.00257109
0.00219573
0.00197854
0.00189041
0.00191069
0.00202597
0.00223618
0.00256153
0.00304073
0.00368389
0.00438811
0.00497997
0.005385
0.00560405
0.00559486
0.00527165
0.00464945
0.0038067
0.00289937
0.00209969
0.00150939
0.00113781
0.000940985
0.000859346
0.000839321
0.000846653
0.00086709
0.000892875
0.000909652
0.000893796
0.000833541
0.000738255
0.000630223
0.000529935
0.00044835
0.000387667
0.000345306
0.000317231
0.000299475
0.000288723
0.000282389
0.000278573
0.000276027
0.00027416
0.000272966
0.000272918
0.000274616
0.000278839
0.000285901
0.000297145
0.000312139
0.000335871
0.000363547
0.000413381
0.000459314
0.0107464
0.00733871
0.00531443
0.00402212
0.00315931
0.00257378
0.0021855
0.00194989
0.00183941
0.00183532
0.001925
0.00210632
0.00239509
0.00282798
0.0034284
0.00412364
0.0047418
0.00516421
0.00536464
0.0053091
0.00493731
0.00428642
0.00344932
0.00258695
0.00185736
0.00133871
0.00102586
0.000871942
0.000818819
0.000814361
0.000826322
0.000844073
0.000865212
0.0008795
0.000865883
0.000811707
0.000723493
0.000621217
0.000524625
0.000445014
0.00038522
0.000343151
0.000315075
0.000297183
0.000286234
0.000279678
0.000275634
0.000272869
0.000270803
0.000269443
0.000269283
0.000270955
0.000275266
0.000282557
0.000294152
0.000309615
0.000333887
0.000362181
0.000412733
0.000459423
0.0107468
0.00734306
0.00532278
0.00403276
0.00316899
0.00257786
0.00217839
0.00192589
0.00179372
0.0017644
0.0018261
0.00197537
0.00222408
0.00260519
0.00314989
0.00381319
0.00443844
0.00487661
0.00506896
0.00497791
0.00457053
0.00390463
0.00308883
0.00228527
0.00163289
0.00118663
0.000930505
0.000817432
0.00079134
0.000801227
0.000816535
0.000830222
0.000845137
0.000855007
0.000841512
0.000791578
0.000709226
0.000612117
0.000519044
0.000441424
0.000382595
0.0003409
0.000312884
0.000294894
0.000283765
0.000276988
0.00027271
0.000269719
0.000267454
0.000265935
0.000265669