/*--------------------------------*- C++ -*----------------------------------*\
| =========                 |                                                 |
| \\      /  F ield         | OpenFOAM: The Open Source CFD Toolbox           |
|  \\    /   O peration     | Version:  2.4.0                                 |
|   \\  /    A nd           | Web:      www.OpenFOAM.org                      |
|    \\/     M anipulation  |                                                 |
\*---------------------------------------------------------------------------*/
FoamFile
{
    version     2.0;
    format      ascii;
    class       volScalarField;
    location    "2.16";
    object      p;
}
// * * * * * * * * * * * * * * * * * * * * * * * * * * * * * * * * * * * * * //

dimensions      [0 2 -2 0 0 0 0];

internalField   nonuniform List<scalar> 
6000
(
0.304684
0.29927
0.296776
0.295909
0.295025
0.293936
0.292852
0.291849
0.290907
0.29
0.289125
0.288283
0.287472
0.286688
0.285928
0.285188
0.284465
0.283756
0.28306
0.282375
0.281698
0.281029
0.280367
0.279711
0.279061
0.278417
0.277778
0.277146
0.276522
0.275907
0.275302
0.27471
0.274133
0.273576
0.273043
0.27254
0.272074
0.271655
0.271294
0.271008
0.270813
0.270735
0.270804
0.271057
0.271544
0.272324
0.273474
0.275089
0.27729
0.280223
0.284071
0.289055
0.295437
0.303512
0.313622
0.326007
0.34107
0.358058
0.378627
0.393303
0.300745
0.298486
0.296729
0.295904
0.295091
0.294075
0.293022
0.292024
0.291075
0.290156
0.289267
0.288409
0.287584
0.286788
0.286017
0.285267
0.284536
0.28382
0.283118
0.282427
0.281745
0.281072
0.280406
0.279746
0.279093
0.278446
0.277804
0.27717
0.276544
0.275926
0.27532
0.274726
0.274148
0.27359
0.273056
0.272551
0.272084
0.271664
0.271302
0.271013
0.270816
0.270735
0.2708
0.271049
0.27153
0.272303
0.273444
0.275048
0.277234
0.280149
0.283975
0.288929
0.295276
0.303308
0.313368
0.325705
0.340749
0.357741
0.378611
0.393138
0.300593
0.29898
0.297042
0.295933
0.295056
0.294038
0.292974
0.291969
0.291023
0.290112
0.28923
0.288381
0.287563
0.286774
0.286008
0.285263
0.284536
0.283824
0.283125
0.282437
0.281758
0.281086
0.280422
0.279764
0.279112
0.278466
0.277826
0.277193
0.276567
0.275949
0.275343
0.274748
0.274169
0.27361
0.273074
0.272568
0.272098
0.271675
0.27131
0.271017
0.270815
0.270728
0.270786
0.271026
0.271496
0.272254
0.273378
0.274959
0.277116
0.279993
0.283768
0.288657
0.294916
0.30283
0.312732
0.324856
0.339622
0.356259
0.376776
0.390659
0.29994
0.298544
0.296802
0.295729
0.294911
0.293962
0.292941
0.291964
0.291038
0.290142
0.28927
0.288424
0.287607
0.286815
0.286046
0.285297
0.284565
0.283848
0.283145
0.282452
0.281769
0.281095
0.280428
0.279767
0.279114
0.278466
0.277825
0.277191
0.276564
0.275947
0.27534
0.274746
0.274168
0.273608
0.273072
0.272565
0.272094
0.271669
0.271301
0.271003
0.270796
0.270701
0.270748
0.270974
0.271426
0.272162
0.273256
0.274799
0.276907
0.279721
0.283415
0.288197
0.294315
0.302044
0.311699
0.323496
0.337815
0.353881
0.373551
0.386539
0.299383
0.298299
0.296799
0.295726
0.294888
0.293957
0.292952
0.291979
0.291055
0.290161
0.289289
0.288443
0.287624
0.286832
0.286062
0.285311
0.284578
0.283861
0.283156
0.282463
0.281779
0.281104
0.280436
0.279775
0.27912
0.278472
0.27783
0.277195
0.276568
0.27595
0.275342
0.274746
0.274166
0.273604
0.273066
0.272556
0.272081
0.271651
0.271277
0.270973
0.270756
0.27065
0.270683
0.270891
0.271319
0.272024
0.273079
0.274573
0.276616
0.279346
0.282931
0.287572
0.293505
0.300991
0.310325
0.321703
0.335461
0.350833
0.369433
0.381522
0.298914
0.298059
0.296733
0.295657
0.294807
0.293903
0.292927
0.291969
0.291054
0.290168
0.289302
0.28846
0.287643
0.286852
0.286081
0.28533
0.284596
0.283877
0.28317
0.282475
0.28179
0.281113
0.280444
0.279782
0.279126
0.278477
0.277834
0.277198
0.27657
0.275951
0.275342
0.274745
0.274163
0.273599
0.273058
0.272545
0.272067
0.271632
0.271251
0.270939
0.270711
0.270592
0.270607
0.270792
0.271191
0.271859
0.272866
0.274298
0.276262
0.27889
0.282342
0.28681
0.292516
0.299706
0.30865
0.319522
0.33261
0.34717
0.364555
0.375822
0.29851
0.297817
0.296642
0.295592
0.294742
0.293864
0.292915
0.291969
0.291062
0.290181
0.289319
0.288479
0.287663
0.286871
0.2861
0.285347
0.284612
0.283891
0.283183
0.282486
0.2818
0.281121
0.280451
0.279788
0.279131
0.278481
0.277837
0.277201
0.276572
0.275951
0.275341
0.274743
0.274159
0.273593
0.27305
0.272533
0.27205
0.27161
0.271222
0.2709
0.27066
0.270525
0.270521
0.270681
0.271048
0.271675
0.272628
0.273992
0.275867
0.278381
0.281683
0.285956
0.291407
0.298261
0.306762
0.317055
0.329379
0.343016
0.359059
0.369583
0.298158
0.297584
0.296541
0.295531
0.294683
0.293825
0.292898
0.291966
0.291065
0.29019
0.289332
0.288495
0.28768
0.286888
0.286117
0.285363
0.284626
0.283904
0.283195
0.282497
0.281809
0.28113
0.280458
0.279794
0.279136
0.278485
0.27784
0.277203
0.276573
0.275951
0.27534
0.27474
0.274154
0.273586
0.273039
0.272519
0.272031
0.271584
0.271188
0.270856
0.270603
0.270451
0.270425
0.270557
0.270889
0.271471
0.272366
0.273655
0.275434
0.277823
0.280965
0.285028
0.290206
0.296701
0.30473
0.314407
0.325913
0.338557
0.353174
0.36298
0.297847
0.297364
0.296435
0.295471
0.294627
0.293784
0.292879
0.291961
0.291068
0.290198
0.289345
0.28851
0.287697
0.286905
0.286133
0.285378
0.28464
0.283917
0.283206
0.282507
0.281818
0.281137
0.280465
0.279799
0.279141
0.278489
0.277843
0.277204
0.276573
0.275951
0.275338
0.274736
0.274149
0.273578
0.273028
0.272503
0.27201
0.271556
0.271151
0.270807
0.27054
0.270369
0.27032
0.270422
0.270715
0.271248
0.272081
0.273289
0.274964
0.27722
0.28019
0.284031
0.28892
0.295042
0.302583
0.311629
0.322301
0.333937
0.347112
0.356149
0.297573
0.297158
0.296327
0.295409
0.294575
0.293745
0.29286
0.291956
0.29107
0.290205
0.289356
0.288524
0.287712
0.28692
0.286148
0.285392
0.284653
0.283929
0.283217
0.282516
0.281826
0.281144
0.280471
0.279804
0.279145
0.278492
0.277845
0.277206
0.276573
0.275949
0.275335
0.274732
0.274142
0.273568
0.273014
0.272485
0.271986
0.271524
0.27111
0.270754
0.270471
0.270281
0.270206
0.270276
0.270528
0.271008
0.271773
0.272895
0.27446
0.276573
0.279361
0.282968
0.287556
0.29329
0.300331
0.308738
0.318578
0.329223
0.340997
0.349176
0.29733
0.296969
0.296219
0.295347
0.294525
0.293708
0.292841
0.29195
0.291071
0.290211
0.289366
0.288536
0.287725
0.286934
0.286161
0.285406
0.284666
0.28394
0.283227
0.282525
0.281834
0.281151
0.280476
0.279809
0.279148
0.278494
0.277847
0.277206
0.276573
0.275948
0.275332
0.274726
0.274134
0.273557
0.272999
0.272465
0.27196
0.27149
0.271066
0.270697
0.270398
0.270186
0.270084
0.27012
0.270327
0.270751
0.271445
0.272475
0.273923
0.275887
0.278483
0.281845
0.28612
0.291454
0.297983
0.305744
0.31476
0.324435
0.334878
0.342126
0.297114
0.296794
0.296114
0.295286
0.294478
0.293672
0.292821
0.291943
0.291072
0.290216
0.289375
0.288548
0.287738
0.286947
0.286174
0.285418
0.284677
0.28395
0.283236
0.282533
0.281841
0.281157
0.280481
0.279813
0.279152
0.278497
0.277848
0.277207
0.276572
0.275945
0.275327
0.27472
0.274125
0.273545
0.272983
0.272444
0.271932
0.271454
0.271018
0.270635
0.270319
0.270084
0.269954
0.269953
0.270114
0.270479
0.271097
0.27203
0.273355
0.275162
0.277558
0.280665
0.284616
0.289538
0.295546
0.302658
0.310857
0.319584
0.328775
0.33506
0.296922
0.296635
0.296013
0.295227
0.294434
0.293639
0.292802
0.291936
0.291072
0.290221
0.289383
0.288558
0.287749
0.286959
0.286186
0.285429
0.284687
0.28396
0.283245
0.282541
0.281847
0.281163
0.280486
0.279817
0.279154
0.278499
0.277849
0.277206
0.276571
0.275942
0.275323
0.274713
0.274116
0.273532
0.272966
0.272421
0.271901
0.271414
0.270967
0.27057
0.270235
0.269977
0.269816
0.269777
0.269889
0.270191
0.27073
0.271563
0.272759
0.274402
0.27659
0.279433
0.283049
0.28755
0.293029
0.299489
0.30688
0.314679
0.322696
0.328025
0.296751
0.296491
0.295917
0.295169
0.294393
0.293607
0.292784
0.291929
0.291071
0.290225
0.28939
0.288567
0.28776
0.286969
0.286196
0.285439
0.284697
0.283968
0.283252
0.282548
0.281853
0.281168
0.28049
0.27982
0.279157
0.2785
0.27785
0.277206
0.276569
0.275939
0.275317
0.274706
0.274105
0.273518
0.272947
0.272396
0.271869
0.271373
0.270914
0.270501
0.270146
0.269864
0.269672
0.269592
0.269653
0.26989
0.270346
0.271073
0.272136
0.273609
0.275582
0.278152
0.281425
0.285496
0.29044
0.296245
0.302838
0.309729
0.316643
0.32105
0.2966
0.296361
0.295827
0.295114
0.294354
0.293578
0.292766
0.291922
0.291071
0.290228
0.289396
0.288575
0.287769
0.286979
0.286206
0.285448
0.284705
0.283976
0.283259
0.282554
0.281858
0.281172
0.280494
0.279823
0.279159
0.278501
0.27785
0.277205
0.276566
0.275935
0.275312
0.274697
0.274094
0.273503
0.272927
0.27237
0.271836
0.271329
0.270858
0.270429
0.270054
0.269746
0.26952
0.269399
0.269407
0.269576
0.269946
0.270564
0.271488
0.272786
0.274536
0.276827
0.279748
0.283382
0.287785
0.292935
0.29874
0.304743
0.310618
0.314148
0.296466
0.296245
0.295745
0.295062
0.294319
0.293552
0.292749
0.291914
0.29107
0.290231
0.289401
0.288582
0.287777
0.286988
0.286215
0.285457
0.284713
0.283983
0.283266
0.282559
0.281863
0.281176
0.280497
0.279825
0.27916
0.278502
0.277849
0.277203
0.276563
0.27593
0.275305
0.274688
0.274082
0.273487
0.272906
0.272343
0.2718
0.271284
0.270799
0.270354
0.269958
0.269622
0.269363
0.269198
0.269151
0.269251
0.269531
0.270037
0.270818
0.271935
0.273457
0.275461
0.278024
0.281213
0.285071
0.289565
0.294592
0.299728
0.304621
0.307322
0.296349
0.296142
0.29567
0.295015
0.294286
0.293528
0.292734
0.291907
0.291068
0.290233
0.289406
0.288589
0.287785
0.286996
0.286222
0.285464
0.28472
0.28399
0.283271
0.282564
0.281867
0.28118
0.2805
0.279827
0.279161
0.278502
0.277849
0.277201
0.27656
0.275925
0.275298
0.274679
0.274069
0.27347
0.272884
0.272314
0.271763
0.271236
0.270738
0.270276
0.269858
0.269495
0.2692
0.268991
0.268887
0.268914
0.269104
0.269493
0.270127
0.271058
0.272348
0.274059
0.276257
0.278996
0.282305
0.286143
0.290401
0.294687
0.29865
0.300567
0.296247
0.296052
0.295604
0.294971
0.294257
0.293506
0.29272
0.291901
0.291067
0.290235
0.28941
0.288594
0.287791
0.287003
0.286229
0.285471
0.284726
0.283995
0.283276
0.282569
0.281871
0.281182
0.280502
0.279829
0.279162
0.278502
0.277847
0.277199
0.276556
0.27592
0.27529
0.274669
0.274055
0.273452
0.272861
0.272284
0.271725
0.271187
0.270675
0.270195
0.269755
0.269363
0.269032
0.268777
0.268615
0.268568
0.268664
0.268934
0.269418
0.27016
0.271211
0.272624
0.274453
0.276736
0.279493
0.282675
0.286171
0.289625
0.292701
0.293877
0.296159
0.295973
0.295545
0.294932
0.294231
0.293487
0.292707
0.291895
0.291066
0.290236
0.289413
0.288599
0.287797
0.287008
0.286235
0.285476
0.284732
0.284
0.283281
0.282572
0.281874
0.281185
0.280504
0.27983
0.279162
0.278501
0.277846
0.277196
0.276552
0.275914
0.275282
0.274658
0.274041
0.273434
0.272837
0.272253
0.271685
0.271136
0.27061
0.270112
0.269648
0.269228
0.26886
0.268558
0.268336
0.268214
0.268213
0.268363
0.268693
0.269242
0.270051
0.271162
0.272615
0.274439
0.27664
0.279166
0.281907
0.284544
0.286769
0.287241
0.296085
0.295907
0.295494
0.294899
0.294208
0.293471
0.292697
0.291889
0.291064
0.290237
0.289416
0.288603
0.287802
0.287014
0.28624
0.285481
0.284736
0.284004
0.283284
0.282575
0.281877
0.281187
0.280505
0.27983
0.279162
0.2785
0.277844
0.277193
0.276548
0.275908
0.275274
0.274647
0.274026
0.273415
0.272812
0.272222
0.271645
0.271084
0.270543
0.270027
0.26954
0.26909
0.268684
0.268334
0.268051
0.267852
0.267754
0.26778
0.267955
0.268308
0.268871
0.269676
0.27075
0.27211
0.273752
0.275622
0.277614
0.279445
0.280848
0.280646
0.296024
0.295852
0.295452
0.29487
0.294189
0.293457
0.292687
0.291885
0.291063
0.290238
0.289418
0.288606
0.287805
0.287018
0.286244
0.285485
0.28474
0.284007
0.283287
0.282578
0.281879
0.281188
0.280506
0.27983
0.279162
0.278499
0.277842
0.277189
0.276543
0.275901
0.275265
0.274635
0.274011
0.273395
0.272787
0.272189
0.271603
0.271031
0.270475
0.26994
0.269429
0.268949
0.268505
0.268106
0.267762
0.267484
0.267287
0.267188
0.267205
0.26736
0.267674
0.268169
0.268861
0.269755
0.270836
0.272048
0.273294
0.274327
0.274931
0.27408
0.295976
0.295809
0.295418
0.294847
0.294173
0.293446
0.29268
0.291881
0.291062
0.290239
0.28942
0.288609
0.287808
0.287021
0.286247
0.285488
0.284743
0.28401
0.283289
0.28258
0.28188
0.281189
0.280506
0.27983
0.279161
0.278497
0.277839
0.277186
0.276537
0.275894
0.275256
0.274623
0.273996
0.273375
0.272761
0.272156
0.27156
0.270976
0.270406
0.269851
0.269317
0.268806
0.268323
0.267875
0.267468
0.267111
0.266814
0.266589
0.266446
0.266401
0.266465
0.266648
0.266954
0.267378
0.267896
0.268449
0.268951
0.269191
0.26901
0.267527
0.29594
0.295776
0.295393
0.29483
0.294162
0.293438
0.292674
0.291878
0.291061
0.290239
0.289421
0.288611
0.287811
0.287023
0.28625
0.28549
0.284745
0.284012
0.283291
0.282581
0.281881
0.281189
0.280506
0.279829
0.279159
0.278495
0.277836
0.277181
0.276532
0.275887
0.275246
0.27461
0.273979
0.273354
0.272735
0.272122
0.271517
0.270921
0.270335
0.269762
0.269203
0.268661
0.268139
0.267641
0.267171
0.266735
0.266337
0.265984
0.265681
0.265434
0.265245
0.265114
0.265033
0.264985
0.264937
0.26483
0.264586
0.264035
0.263078
0.260972
0.295916
0.295755
0.295376
0.294818
0.294154
0.293433
0.292671
0.291876
0.291061
0.290239
0.289422
0.288612
0.287812
0.287025
0.286251
0.285492
0.284746
0.284013
0.283292
0.282581
0.281881
0.281189
0.280505
0.279828
0.279158
0.278493
0.277832
0.277177
0.276526
0.275879
0.275236
0.274597
0.273963
0.273333
0.272708
0.272088
0.271473
0.270865
0.270264
0.269671
0.269088
0.268515
0.267953
0.267405
0.266872
0.266356
0.265856
0.265375
0.264911
0.264462
0.26402
0.263573
0.263104
0.262582
0.261965
0.261194
0.260201
0.258857
0.257125
0.254398
0.295905
0.295744
0.295368
0.294812
0.29415
0.29343
0.292669
0.291875
0.29106
0.29024
0.289422
0.288612
0.287813
0.287025
0.286252
0.285492
0.284746
0.284013
0.283292
0.282581
0.28188
0.281188
0.280504
0.279827
0.279156
0.27849
0.277829
0.277172
0.27652
0.275871
0.275226
0.274584
0.273946
0.273312
0.27268
0.272053
0.271429
0.270809
0.270193
0.26958
0.268972
0.268368
0.267767
0.267169
0.266572
0.265975
0.265374
0.264765
0.26414
0.263487
0.262791
0.26203
0.26117
0.260172
0.258985
0.257546
0.2558
0.253654
0.251141
0.247788
0.295904
0.295744
0.295368
0.294812
0.29415
0.29343
0.292669
0.291875
0.29106
0.29024
0.289422
0.288612
0.287813
0.287025
0.286252
0.285492
0.284746
0.284013
0.283291
0.28258
0.28188
0.281187
0.280503
0.279825
0.279153
0.278487
0.277825
0.277167
0.276513
0.275863
0.275215
0.274571
0.273929
0.27329
0.272653
0.272018
0.271384
0.270752
0.270121
0.269489
0.268856
0.268221
0.26758
0.266932
0.266272
0.265595
0.264892
0.264155
0.263368
0.262513
0.261564
0.260487
0.259238
0.257763
0.256003
0.253891
0.251383
0.248425
0.245118
0.241124
0.295916
0.295755
0.295376
0.294818
0.294154
0.293433
0.292671
0.291876
0.29106
0.290239
0.289422
0.288612
0.287812
0.287024
0.286251
0.285491
0.284745
0.284011
0.28329
0.282579
0.281878
0.281186
0.280501
0.279823
0.27915
0.278483
0.277821
0.277162
0.276507
0.275854
0.275205
0.274557
0.273912
0.273268
0.272625
0.271983
0.27134
0.270696
0.270049
0.269398
0.268741
0.268074
0.267394
0.266696
0.265973
0.265215
0.264412
0.263547
0.2626
0.261543
0.260341
0.258949
0.25731
0.255359
0.253023
0.250233
0.246953
0.243166
0.239044
0.234388
0.29594
0.295776
0.295393
0.29483
0.294162
0.293438
0.292674
0.291878
0.291061
0.290239
0.289421
0.28861
0.28781
0.287022
0.286249
0.285489
0.284743
0.28401
0.283288
0.282577
0.281876
0.281183
0.280498
0.27982
0.279147
0.278479
0.277816
0.277156
0.2765
0.275846
0.275194
0.274544
0.273895
0.273246
0.272597
0.271947
0.271295
0.270639
0.269977
0.269307
0.268625
0.267928
0.267209
0.266461
0.265675
0.264838
0.263935
0.262943
0.261837
0.260579
0.259126
0.257421
0.255394
0.252965
0.250052
0.246577
0.242511
0.237876
0.232909
0.227559
0.295976
0.295809
0.295418
0.294847
0.294173
0.293446
0.29268
0.29188
0.291062
0.290238
0.289419
0.288608
0.287808
0.28702
0.286246
0.285486
0.28474
0.284007
0.283285
0.282575
0.281874
0.281181
0.280496
0.279817
0.279144
0.278475
0.277811
0.27715
0.276493
0.275837
0.275183
0.27453
0.273877
0.273224
0.27257
0.271912
0.271251
0.270583
0.269906
0.269217
0.268511
0.267783
0.267025
0.266228
0.26538
0.264465
0.263462
0.262345
0.261081
0.259625
0.257923
0.255907
0.253493
0.250588
0.247094
0.242927
0.238062
0.232551
0.226702
0.220618
0.296024
0.295852
0.295452
0.29487
0.294189
0.293457
0.292687
0.291884
0.291063
0.290238
0.289417
0.288605
0.287804
0.287016
0.286242
0.285483
0.284737
0.284003
0.283282
0.282571
0.28187
0.281178
0.280492
0.279813
0.27914
0.278471
0.277806
0.277144
0.276485
0.275828
0.275172
0.274516
0.27386
0.273202
0.272542
0.271877
0.271207
0.270527
0.269835
0.269127
0.268398
0.267639
0.266843
0.265998
0.265089
0.264096
0.262995
0.261755
0.260335
0.258683
0.256735
0.25441
0.251613
0.248233
0.244157
0.239291
0.233607
0.227189
0.220411
0.213541
0.296085
0.295907
0.295494
0.294898
0.294208
0.293471
0.292696
0.291889
0.291064
0.290237
0.289415
0.288602
0.2878
0.287012
0.286238
0.285478
0.284732
0.283999
0.283278
0.282568
0.281867
0.281174
0.280489
0.27981
0.279136
0.278467
0.277801
0.277138
0.276478
0.275819
0.27516
0.274502
0.273842
0.27318
0.272514
0.271843
0.271163
0.270472
0.269765
0.269039
0.268286
0.267498
0.266664
0.265772
0.264802
0.263733
0.262536
0.261174
0.2596
0.257756
0.255565
0.252936
0.249759
0.245905
0.241246
0.235672
0.22915
0.22179
0.214024
0.206305
0.296159
0.295973
0.295545
0.294932
0.294231
0.293487
0.292707
0.291894
0.291065
0.290235
0.289412
0.288598
0.287795
0.287006
0.286232
0.285473
0.284727
0.283994
0.283274
0.282563
0.281863
0.28117
0.280485
0.279805
0.279131
0.278462
0.277795
0.277132
0.27647
0.27581
0.275149
0.274488
0.273825
0.273159
0.272487
0.271809
0.27112
0.270417
0.269697
0.268952
0.268176
0.267359
0.266489
0.265549
0.264521
0.263377
0.262086
0.260605
0.258881
0.256847
0.254418
0.251489
0.247935
0.243612
0.238369
0.232079
0.224697
0.216353
0.20753
0.198886
0.296246
0.296051
0.295603
0.294971
0.294257
0.293506
0.292719
0.2919
0.291066
0.290234
0.289408
0.288593
0.287789
0.287
0.286226
0.285467
0.284721
0.283989
0.283268
0.282558
0.281858
0.281165
0.28048
0.279801
0.279127
0.278457
0.27779
0.277125
0.276462
0.2758
0.275138
0.274474
0.273808
0.273137
0.272461
0.271775
0.271077
0.270364
0.269629
0.268867
0.268069
0.267223
0.266317
0.265332
0.264246
0.263029
0.261646
0.260048
0.258178
0.255959
0.253296
0.250073
0.246149
0.241359
0.235533
0.228518
0.220252
0.210877
0.200916
0.191257
0.296348
0.296142
0.29567
0.295014
0.294286
0.293528
0.292733
0.291907
0.291068
0.290232
0.289404
0.288587
0.287783
0.286993
0.286219
0.28546
0.284715
0.283983
0.283262
0.282553
0.281853
0.28116
0.280475
0.279796
0.279122
0.278451
0.277784
0.277119
0.276455
0.275791
0.275127
0.274461
0.273791
0.273116
0.272434
0.271742
0.271036
0.270312
0.269563
0.268784
0.267964
0.267091
0.266149
0.26512
0.263978
0.262691
0.261218
0.259507
0.257494
0.255094
0.252203
0.248692
0.244404
0.239154
0.232744
0.224999
0.215822
0.205366
0.194171
0.18339
0.296466
0.296245
0.295745
0.295062
0.294319
0.293552
0.292749
0.291914
0.291069
0.290229
0.2894
0.288581
0.287775
0.286985
0.286211
0.285452
0.284707
0.283975
0.283256
0.282547
0.281847
0.281155
0.28047
0.279791
0.279116
0.278446
0.277778
0.277112
0.276447
0.275782
0.275116
0.274447
0.273774
0.273096
0.272408
0.27171
0.270995
0.270261
0.269499
0.268703
0.267862
0.266962
0.265987
0.264915
0.263719
0.262363
0.260803
0.258983
0.25683
0.254255
0.251143
0.247352
0.242706
0.237002
0.230013
0.221529
0.211417
0.199822
0.187284
0.175257
0.2966
0.296361
0.295827
0.295114
0.294354
0.293578
0.292765
0.291921
0.29107
0.290227
0.289394
0.288573
0.287767
0.286976
0.286202
0.285443
0.284699
0.283968
0.283248
0.28254
0.281841
0.281149
0.280464
0.279785
0.279111
0.27844
0.277771
0.277105
0.276439
0.275772
0.275105
0.274434
0.273758
0.273075
0.272383
0.271678
0.270956
0.270211
0.269437
0.268625
0.267763
0.266838
0.26583
0.264717
0.263468
0.262046
0.260402
0.258476
0.25619
0.253446
0.250119
0.246055
0.241062
0.234912
0.227347
0.21812
0.207045
0.194252
0.180242
0.166825
0.296751
0.296491
0.295917
0.295169
0.294393
0.293607
0.292783
0.291928
0.29107
0.290223
0.289388
0.288565
0.287757
0.286966
0.286192
0.285433
0.284689
0.283959
0.28324
0.282533
0.281834
0.281143
0.280458
0.279779
0.279105
0.278434
0.277765
0.277098
0.276431
0.275763
0.275094
0.27442
0.273742
0.273056
0.272359
0.271648
0.270918
0.270164
0.269377
0.268549
0.267668
0.266718
0.265679
0.264526
0.263227
0.261742
0.260018
0.25799
0.255575
0.252668
0.249134
0.244806
0.239476
0.23289
0.224757
0.214784
0.202719
0.188664
0.173038
0.158063
0.296922
0.296635
0.296012
0.295226
0.294434
0.293638
0.292802
0.291935
0.291071
0.29022
0.289381
0.288556
0.287747
0.286955
0.286181
0.285423
0.284679
0.28395
0.283232
0.282525
0.281826
0.281136
0.280452
0.279773
0.279099
0.278428
0.277759
0.277091
0.276423
0.275754
0.275083
0.274407
0.273726
0.273036
0.272335
0.271618
0.270881
0.270118
0.26932
0.268477
0.267577
0.266603
0.265534
0.264344
0.262997
0.261451
0.25965
0.257525
0.254987
0.251924
0.248192
0.243611
0.237954
0.230944
0.222251
0.211533
0.198454
0.183071
0.165662
0.148938
0.297114
0.296794
0.296114
0.295286
0.294478
0.293672
0.292821
0.291942
0.29107
0.290215
0.289373
0.288545
0.287735
0.286943
0.286169
0.285411
0.284669
0.28394
0.283223
0.282516
0.281819
0.281129
0.280445
0.279767
0.279092
0.278421
0.277752
0.277083
0.276415
0.275745
0.275072
0.274395
0.273711
0.273018
0.272312
0.27159
0.270846
0.270074
0.269264
0.268408
0.26749
0.266494
0.265396
0.26417
0.262778
0.261174
0.2593
0.257082
0.254428
0.251216
0.247295
0.242472
0.236502
0.229082
0.219841
0.208381
0.194267
0.177488
0.15811
0.139413
0.29733
0.296968
0.296219
0.295347
0.294524
0.293707
0.29284
0.291949
0.29107
0.29021
0.289364
0.288534
0.287722
0.28693
0.286156
0.285399
0.284657
0.283929
0.283213
0.282507
0.28181
0.281121
0.280438
0.27976
0.279086
0.278415
0.277745
0.277076
0.276407
0.275736
0.275062
0.274383
0.273696
0.273
0.27229
0.271563
0.270812
0.270032
0.269212
0.268342
0.267407
0.26639
0.265266
0.264006
0.262571
0.260912
0.258969
0.256664
0.253899
0.250547
0.246447
0.241394
0.235125
0.227312
0.217539
0.205346
0.190178
0.171939
0.150382
0.129456
0.297573
0.297158
0.296327
0.295409
0.294574
0.293744
0.29286
0.291955
0.291068
0.290204
0.289354
0.288521
0.287708
0.286916
0.286142
0.285385
0.284644
0.283917
0.283202
0.282497
0.281801
0.281113
0.280431
0.279753
0.279079
0.278408
0.277738
0.277069
0.276399
0.275727
0.275052
0.274371
0.273682
0.272983
0.272269
0.271537
0.27078
0.269992
0.269162
0.26828
0.267329
0.266292
0.265143
0.263851
0.262376
0.260667
0.258659
0.256272
0.253403
0.249919
0.245651
0.240381
0.23383
0.225641
0.215355
0.202444
0.186213
0.16645
0.142483
0.11903
0.297847
0.297363
0.296435
0.29547
0.294627
0.293784
0.292879
0.29196
0.291066
0.290196
0.289343
0.288507
0.287693
0.2869
0.286127
0.285371
0.284631
0.283905
0.283191
0.282487
0.281792
0.281104
0.280423
0.279746
0.279072
0.278401
0.277731
0.277062
0.276391
0.275718
0.275042
0.274359
0.273668
0.272966
0.272249
0.271512
0.27075
0.269954
0.269115
0.268221
0.267257
0.266201
0.265028
0.263707
0.262195
0.260438
0.25837
0.255907
0.252941
0.249335
0.24491
0.239437
0.232621
0.224078
0.213303
0.199694
0.182399
0.161058
0.13443
0.1081
0.298157
0.297584
0.296541
0.295531
0.294683
0.293824
0.292897
0.291965
0.291064
0.290188
0.28933
0.288492
0.287677
0.286884
0.286111
0.285356
0.284616
0.283891
0.283179
0.282476
0.281782
0.281096
0.280415
0.279738
0.279065
0.278394
0.277724
0.277055
0.276384
0.27571
0.275032
0.274348
0.273655
0.27295
0.27223
0.271489
0.270722
0.269919
0.269072
0.268167
0.267189
0.266116
0.264922
0.263574
0.262027
0.260227
0.258103
0.25557
0.252515
0.248795
0.244225
0.238566
0.231504
0.222632
0.211395
0.197118
0.17877
0.155808
0.126253
0.0966327
0.29851
0.297817
0.296641
0.295592
0.294741
0.293864
0.292914
0.291968
0.29106
0.290179
0.289317
0.288476
0.28766
0.286866
0.286094
0.285339
0.284601
0.283878
0.283166
0.282465
0.281772
0.281086
0.280406
0.27973
0.279058
0.278387
0.277717
0.277047
0.276376
0.275702
0.275023
0.274337
0.273643
0.272936
0.272212
0.271468
0.270695
0.269887
0.269032
0.268117
0.267126
0.266038
0.264825
0.263452
0.261874
0.260034
0.25786
0.255263
0.252127
0.248304
0.243602
0.237773
0.230486
0.221311
0.209647
0.194741
0.175369
0.150761
0.118013
0.0845944
0.298913
0.298059
0.296732
0.295656
0.294806
0.293902
0.292926
0.291967
0.291053
0.290166
0.2893
0.288457
0.28764
0.286847
0.286075
0.285322
0.284585
0.283863
0.283153
0.282453
0.281762
0.281077
0.280398
0.279723
0.27905
0.27838
0.277711
0.27704
0.276369
0.275694
0.275014
0.274327
0.273631
0.272922
0.272196
0.271448
0.270671
0.269857
0.268995
0.268072
0.26707
0.265968
0.264737
0.263342
0.261737
0.259861
0.257641
0.254987
0.251779
0.247863
0.243044
0.237061
0.229574
0.220126
0.208074
0.192588
0.172242
0.14599
0.109802
0.0719708
0.299382
0.298298
0.296799
0.295725
0.294888
0.293956
0.292951
0.291978
0.291054
0.290159
0.289286
0.28844
0.28762
0.286827
0.286055
0.285303
0.284568
0.283847
0.283138
0.28244
0.28175
0.281067
0.280388
0.279714
0.279043
0.278373
0.277704
0.277034
0.276362
0.275686
0.275006
0.274318
0.27362
0.272909
0.272181
0.27143
0.270649
0.26983
0.268962
0.268031
0.267019
0.265905
0.264659
0.263245
0.261615
0.259708
0.257448
0.254743
0.251472
0.247476
0.242552
0.236436
0.228772
0.219085
0.206691
0.190684
0.169441
0.141581
0.101751
0.0587332
0.299939
0.298543
0.296801
0.295728
0.29491
0.293961
0.292941
0.291963
0.291037
0.29014
0.289267
0.288421
0.287603
0.28681
0.286039
0.285288
0.284554
0.283834
0.283127
0.282429
0.28174
0.281057
0.280379
0.279705
0.279034
0.278365
0.277696
0.277026
0.276354
0.275678
0.274997
0.274309
0.27361
0.272898
0.272168
0.271414
0.27063
0.269807
0.268934
0.267996
0.266976
0.265851
0.264592
0.263161
0.261511
0.259578
0.257284
0.254537
0.251212
0.247148
0.242139
0.235913
0.228103
0.218218
0.20554
0.189095
0.167078
0.137719
0.0941673
0.0447759
0.300592
0.298979
0.297042
0.295932
0.295056
0.294037
0.292973
0.291968
0.291021
0.29011
0.289228
0.288378
0.287559
0.286769
0.286001
0.285255
0.284525
0.28381
0.283107
0.282413
0.281727
0.281048
0.280373
0.279701
0.279032
0.278363
0.277695
0.277025
0.276352
0.275676
0.274993
0.274303
0.273602
0.272887
0.272154
0.271397
0.270609
0.269782
0.268903
0.267959
0.266931
0.265798
0.264529
0.263085
0.261419
0.259465
0.25715
0.254373
0.25101
0.246899
0.241829
0.235524
0.22761
0.217581
0.204696
0.187925
0.165318
0.134706
0.0876556
0.0299151
0.300744
0.298485
0.296729
0.295903
0.29509
0.294074
0.293021
0.292023
0.291073
0.290154
0.289264
0.288406
0.28758
0.286783
0.28601
0.285258
0.284524
0.283806
0.283099
0.282403
0.281715
0.281033
0.280356
0.279683
0.279011
0.278341
0.277671
0.277
0.276327
0.27565
0.274967
0.274276
0.273575
0.27286
0.272127
0.271369
0.27058
0.269752
0.268871
0.267925
0.266895
0.265758
0.264485
0.263036
0.261361
0.259397
0.257069
0.254275
0.25089
0.246752
0.241648
0.235297
0.227323
0.21721
0.204201
0.18723
0.164263
0.132768
0.0830359
0.0144727
0.304684
0.299269
0.296776
0.295908
0.295025
0.293935
0.292851
0.291848
0.290905
0.289998
0.289123
0.288279
0.287467
0.286683
0.285921
0.285179
0.284453
0.283742
0.283042
0.282351
0.281667
0.28099
0.280317
0.279647
0.278979
0.278312
0.277644
0.276975
0.276304
0.275628
0.274947
0.274257
0.273557
0.272842
0.272109
0.271351
0.270562
0.269732
0.268851
0.267903
0.266871
0.265732
0.264457
0.263011
0.261339
0.259375
0.257043
0.254245
0.250855
0.24671
0.241597
0.235235
0.227244
0.217106
0.204059
0.187019
0.163918
0.132063
0.0808895
0.00395155
0.449671
0.37048
0.311395
0.281888
0.261207
0.241695
0.22535
0.213632
0.205618
0.199934
0.195943
0.193331
0.192012
0.191984
0.193374
0.196718
0.202615
0.214154
0.213855
0.188054
0.170389
0.161419
0.153847
0.144736
0.133954
0.121086
0.10458
0.0818006
0.0486154
-0.00319081
-0.0922486
-0.27586
-0.704431
-0.746756
-0.329933
-0.360392
-0.308519
-0.279252
-0.237176
-0.197896
-0.159587
-0.125449
-0.0961533
-0.0720977
-0.0529656
-0.0381239
-0.0268364
-0.0183757
-0.0120955
-0.00746222
-0.00405563
-0.00155559
0.00027549
0.00160994
0.00257046
0.00324308
0.00367752
0.0039154
0.00378957
0.00312361
0.445183
0.364392
0.30621
0.278671
0.258799
0.239676
0.223771
0.212478
0.204761
0.199348
0.195572
0.193095
0.191892
0.191957
0.193436
0.196868
0.202769
0.212356
0.210182
0.185872
0.168923
0.160355
0.152885
0.143702
0.132789
0.119696
0.102783
0.0793105
0.0449441
-0.00891077
-0.101155
-0.277372
-0.600017
-0.672445
-0.349038
-0.361418
-0.313037
-0.283767
-0.242233
-0.203039
-0.164597
-0.130111
-0.100325
-0.0757169
-0.0560362
-0.0406888
-0.028957
-0.0201193
-0.0135267
-0.00863855
-0.00502582
-0.00235965
-0.000394596
0.00104839
0.00209744
0.00284373
0.00333922
0.00363894
0.00353809
0.00311285
0.437729
0.359882
0.303354
0.276963
0.257473
0.238611
0.22303
0.212007
0.204488
0.199187
0.195353
0.192949
0.191807
0.191918
0.193427
0.196821
0.20229
0.210067
0.207156
0.185003
0.168541
0.159992
0.152489
0.143259
0.132292
0.119099
0.101994
0.0781934
0.0432791
-0.0112786
-0.103159
-0.262791
-0.518822
-0.600317
-0.362209
-0.359451
-0.314158
-0.285854
-0.244975
-0.206142
-0.167838
-0.133265
-0.10326
-0.0783444
-0.058329
-0.0426552
-0.0306249
-0.0215253
-0.0147093
-0.00963403
-0.0058662
-0.00307218
-0.00100184
0.000528111
0.00164931
0.00245652
0.00300295
0.00335689
0.00328149
0.0031036
0.42851
0.355277
0.300075
0.274433
0.255467
0.237026
0.221829
0.211112
0.203798
0.198613
0.194993
0.192709
0.191636
0.191789
0.193299
0.196567
0.201506
0.207717
0.204144
0.183707
0.167767
0.159294
0.151863
0.14268
0.13172
0.118479
0.101246
0.0772139
0.0419669
-0.0127759
-0.102228
-0.247537
-0.452036
-0.542815
-0.369921
-0.355709
-0.314756
-0.28684
-0.247111
-0.208514
-0.17037
-0.135731
-0.105569
-0.0804211
-0.0601495
-0.0442242
-0.0319629
-0.0226599
-0.0156698
-0.0104482
-0.00655849
-0.00366344
-0.00150935
9.02373e-05
0.0012697
0.00212645
0.00271579
0.00311629
0.00308726
0.00308506
0.418053
0.350163
0.29654
0.271585
0.253277
0.235374
0.220613
0.210234
0.203168
0.198182
0.194679
0.192458
0.191438