/*--------------------------------*- C++ -*----------------------------------*\
| =========                 |                                                 |
| \\      /  F ield         | OpenFOAM: The Open Source CFD Toolbox           |
|  \\    /   O peration     | Version:  2.4.0                                 |
|   \\  /    A nd           | Web:      www.OpenFOAM.org                      |
|    \\/     M anipulation  |                                                 |
\*---------------------------------------------------------------------------*/
FoamFile
{
    version     2.0;
    format      ascii;
    class       surfaceScalarField;
    location    "265";
    object      phi;
}
// * * * * * * * * * * * * * * * * * * * * * * * * * * * * * * * * * * * * * //

dimensions      [0 3 -1 0 0 0 0];

internalField   nonuniform List<scalar> 
19800
(
0.000192347
2.0591e-08
0.00019231
3.62304e-08
0.00019226
4.99787e-08
0.000192199
6.10848e-08
0.000192128
7.0979e-08
0.000192049
7.97978e-08
0.000191961
8.79102e-08
0.000191865
9.55694e-08
0.000191762
1.03035e-07
0.000191652
1.10587e-07
0.000191533
1.1855e-07
0.000191406
1.27329e-07
0.000191268
1.37454e-07
0.000191119
1.49667e-07
0.000190954
1.64989e-07
0.000190768
1.85144e-07
0.000190555
2.13082e-07
0.000190295
2.59941e-07
0.000189903
3.92595e-07
1.11976e-06
0.000188783
0.000197681
4.14495e-08
0.000197644
7.31682e-08
0.000197593
1.00574e-07
0.000197532
1.22953e-07
0.00019746
1.42745e-07
0.000197379
1.6041e-07
0.000197291
1.76651e-07
0.000197194
1.91989e-07
0.00019709
2.06942e-07
0.000196979
2.22063e-07
0.000196859
2.37985e-07
0.000196731
2.55485e-07
0.000196593
2.75566e-07
0.000196443
2.9962e-07
0.000196279
3.29641e-07
0.000196095
3.69157e-07
0.000195882
4.25222e-07
0.000195622
5.20835e-07
0.000195292
7.22536e-07
1.19182e-06
0.00019522
0.000203163
6.26734e-08
0.000203126
1.10727e-07
0.000203074
1.5189e-07
0.000203012
1.85599e-07
0.000202939
2.153e-07
0.000202858
2.41799e-07
0.000202768
2.66139e-07
0.000202671
2.89108e-07
0.000202567
3.11474e-07
0.000202455
3.34043e-07
0.000202335
3.57709e-07
0.000202207
3.8355e-07
0.00020207
4.12907e-07
0.000201922
4.47568e-07
0.000201761
4.89995e-07
0.000201586
5.44268e-07
0.000201394
6.17735e-07
0.000201186
7.28704e-07
0.000200999
9.09683e-07
1.19879e-06
0.000200992
0.000208797
8.42881e-08
0.000208759
1.48944e-07
0.000208707
2.03963e-07
0.000208644
2.49053e-07
0.00020857
2.88651e-07
0.000208488
3.23938e-07
0.000208398
3.56295e-07
0.000208301
3.86774e-07
0.000208196
4.16375e-07
0.000208084
4.46116e-07
0.000207964
4.77095e-07
0.000207837
5.10572e-07
0.000207702
5.48035e-07
0.000207558
5.91327e-07
0.000207406
6.42753e-07
0.000207244
7.05656e-07
0.000207077
7.85034e-07
0.000206915
8.90481e-07
0.000206793
1.03143e-06
1.20769e-06
0.000206784
0.000214588
1.063e-07
0.000214549
1.87835e-07
0.000214496
2.5681e-07
0.000214432
3.13318e-07
0.000214358
3.62783e-07
0.000214275
4.06777e-07
0.000214184
4.47021e-07
0.000214086
4.84818e-07
0.000213981
5.2137e-07
0.00021387
5.57862e-07
0.000213751
5.95506e-07
0.000213626
6.35615e-07
0.000213495
6.79608e-07
0.000213357
7.2904e-07
0.000213214
7.85531e-07
0.000213069
8.50907e-07
0.000212927
9.27002e-07
0.000212801
1.01622e-06
0.000212716
1.11688e-06
1.21955e-06
0.000212704
0.000220539
1.28729e-07
0.000220499
2.27427e-07
0.000220446
3.10458e-07
0.000220381
3.7842e-07
0.000220306
4.37698e-07
0.000220222
4.90285e-07
0.000220131
5.38231e-07
0.000220033
5.83074e-07
0.000219928
6.26187e-07
0.000219817
6.68857e-07
0.0002197
7.12324e-07
0.000219578
7.57807e-07
0.000219451
8.06459e-07
0.000219321
8.59281e-07
0.00021919
9.16903e-07
0.000219061
9.79441e-07
0.000218942
1.04602e-06
0.000218844
1.11467e-06
0.000218781
1.17984e-06
1.23239e-06
0.000218768
0.000226655
1.51566e-07
0.000226615
2.67716e-07
0.00022656
3.64905e-07
0.000226494
4.4434e-07
0.000226419
5.13362e-07
0.000226335
5.74394e-07
0.000226243
6.29808e-07
0.000226145
6.81355e-07
0.000226041
7.30538e-07
0.000225931
7.78679e-07
0.000225816
8.26953e-07
0.000225698
8.76361e-07
0.000225576
9.27635e-07
0.000225455
9.81068e-07
0.000225335
1.03624e-06
0.000225223
1.09178e-06
0.000225124
1.14505e-06
0.000225046
1.19215e-06
0.000224999
1.22732e-06
1.24445e-06
0.000224987
0.000232941
1.74827e-07
0.0002329
3.08717e-07
0.000232845
4.20164e-07
0.000232778
5.11088e-07
0.000232702
5.89759e-07
0.000232617
6.59053e-07
0.000232525
7.21645e-07
0.000232427
7.79477e-07
0.000232323
8.34135e-07
0.000232215
8.86917e-07
0.000232103
9.38844e-07
0.000231989
9.90603e-07
0.000231874
1.04241e-06
0.000231762
1.09383e-06
0.000231654
1.14352e-06
0.000231557
1.18909e-06
0.000231475
1.22708e-06
0.000231414
1.25337e-06
0.000231377
1.26356e-06
1.25471e-06
0.000231367
0.000239401
1.98492e-07
0.000239359
3.50406e-07
0.000239303
4.76204e-07
0.000239236
5.78619e-07
0.000239159
6.66827e-07
0.000239074
7.44163e-07
0.000238982
8.13595e-07
0.000238884
8.77225e-07
0.000238781
9.36678e-07
0.000238675
9.93168e-07
0.000238566
1.0475e-06
0.000238457
1.09998e-06
0.000238349
1.1503e-06
0.000238246
1.19736e-06
0.00023815
1.23915e-06
0.000238066
1.27281e-06
0.000237999
1.29486e-06
0.00023795
1.30189e-06
0.000237922
1.29132e-06
1.26275e-06
0.000237914
0.00024604
2.2257e-07
0.000245998
3.92787e-07
0.000245941
5.33023e-07
0.000245873
6.46917e-07
0.000245795
7.4452e-07
0.00024571
8.29643e-07
0.000245618
9.05518e-07
0.000245521
9.74388e-07
0.000245419
1.03787e-06
0.000245315
1.09706e-06
0.00024521
1.15247e-06
0.000245106
1.20405e-06
0.000245006
1.25099e-06
0.000244911
1.29171e-06
0.000244827
1.32383e-06
0.000244755
1.34449e-06
0.000244699
1.35075e-06
0.000244661
1.34036e-06
0.00024464
1.31247e-06
1.26851e-06
0.000244634
0.000252863
2.47025e-07
0.00025282
4.35814e-07
0.000252763
5.90562e-07
0.000252694
7.15903e-07
0.000252616
8.22738e-07
0.00025253
9.15352e-07
0.000252438
9.97232e-07
0.000252342
1.07072e-06
0.000252243
1.13741e-06
0.000252141
1.19822e-06
0.00025204
1.2534e-06
0.000251942
1.30251e-06
0.000251849
1.34439e-06
0.000251763
1.37715e-06
0.000251689
1.39839e-06
0.000251628
1.40562e-06
0.000251582
1.39675e-06
0.000251551
1.37081e-06
0.000251535
1.32841e-06
1.27213e-06
0.000251532
0.000259876
2.71866e-07
0.000259832
4.79479e-07
0.000259774
6.48798e-07
0.000259705
7.85535e-07
0.000259626
9.01405e-07
0.00025954
1.00117e-06
0.000259449
1.08856e-06
0.000259354
1.166e-06
0.000259256
1.23501e-06
0.000259158
1.29633e-06
0.000259061
1.34996e-06
0.000258969
1.39517e-06
0.000258883
1.43053e-06
0.000258806
1.4541e-06
0.00025874
1.46374e-06
0.000258688
1.45757e-06
0.000258651
1.43452e-06
0.000258627
1.3948e-06
0.000258615
1.34013e-06
1.27382e-06
0.000258613
0.000267083
2.97041e-07
0.000267039
5.23712e-07
0.00026698
7.07642e-07
0.00026691
8.55696e-07
0.000266831
9.80376e-07
0.000266745
1.08693e-06
0.000266655
1.17929e-06
0.000266561
1.25995e-06
0.000266465
1.33037e-06
0.000266371
1.3911e-06
0.000266279
1.44193e-06
0.000266192
1.48191e-06
0.000266113
1.50955e-06
0.000266044
1.52306e-06
0.000265987
1.52077e-06
0.000265943
1.50157e-06
0.000265912
1.46542e-06
0.000265893
1.41354e-06
0.000265885
1.34845e-06
1.27384e-06
0.000265885
0.00027449
3.22555e-07
0.000274445
5.68496e-07
0.000274386
7.67051e-07
0.000274316
9.26318e-07
0.000274236
1.05954e-06
0.000274151
1.17246e-06
0.000274061
1.26921e-06
0.000273969
1.35234e-06
0.000273876
1.42322e-06
0.000273785
1.48227e-06
0.000273697
1.52911e-06
0.000273617
1.56273e-06
0.000273544
1.58171e-06
0.000273483
1.5846e-06
0.000273433
1.57034e-06
0.000273396
1.53871e-06
0.000273371
1.49056e-06
0.000273357
1.42796e-06
0.000273351
1.35396e-06
1.27241e-06
0.000273353
0.000282103
3.4834e-07
0.000282057
6.13737e-07
0.000281998
8.26906e-07
0.000281927
9.97248e-07
0.000281848
1.13873e-06
0.000281762
1.25755e-06
0.000281674
1.35807e-06
0.000281583
1.44288e-06
0.000281493
1.51328e-06
0.000281406
1.5696e-06
0.000281323
1.61139e-06
0.000281248
1.63768e-06
0.000281183
1.64729e-06
0.000281128
1.63927e-06
0.000281085
1.61327e-06
0.000281054
1.56991e-06
0.000281034
1.51086e-06
0.000281023
1.43881e-06
0.00028102
1.35717e-06
1.26977e-06
0.000281022
0.000289926
3.74401e-07
0.000289881
6.59406e-07
0.00028982
8.87149e-07
0.000289749
1.06839e-06
0.00028967
1.21779e-06
0.000289586
1.34203e-06
0.000289498
1.44567e-06
0.00028941
1.53134e-06
0.000289323
1.60033e-06
0.00028924
1.65293e-06
0.000289162
1.68871e-06
0.000289093
1.70688e-06
0.000289034
1.70665e-06
0.000288985
1.68764e-06
0.000288948
1.65028e-06
0.000288922
1.59597e-06
0.000288906
1.52706e-06
0.000288898
1.4467e-06
0.000288897
1.35845e-06
1.26609e-06
0.000288901
0.000297967
4.00653e-07
0.000297921
7.05387e-07
0.000297861
9.47628e-07
0.000297789
1.13957e-06
0.000297711
1.29651e-06
0.000297627
1.42565e-06
0.000297541
1.53172e-06
0.000297455
1.61746e-06
0.000297371
1.68414e-06
0.000297292
1.7321e-06
0.00029722
1.76105e-06
0.000297156
1.77049e-06
0.000297103
1.76013e-06
0.00029706
1.73025e-06
0.000297028
1.68203e-06
0.000297007
1.61757e-06
0.000296994
1.53978e-06
0.000296989
1.45208e-06
0.000296989
1.35813e-06
1.26154e-06
0.000296993
0.000306231
4.271e-07
0.000306184
7.5164e-07
0.000306124
1.00827e-06
0.000306053
1.21066e-06
0.000305975
1.37473e-06
0.000305892
1.50821e-06
0.000305808
1.61602e-06
0.000305724
1.701e-06
0.000305644
1.76452e-06
0.000305569
1.80701e-06
0.000305502
1.82844e-06
0.000305443
1.82871e-06
0.000305395
1.8081e-06
0.000305358
1.76761e-06
0.000305331
1.70911e-06
0.000305313
1.6353e-06
0.000305304
1.54951e-06
0.0003053
1.45536e-06
0.000305302
1.35646e-06
1.25626e-06
0.000305307
0.000314723
4.53637e-07
0.000314677
7.98027e-07
0.000314616
1.0689e-06
0.000314546
1.28144e-06
0.000314468
1.45222e-06
0.000314387
1.58945e-06
0.000314305
1.6983e-06
0.000314224
1.78174e-06
0.000314147
1.84128e-06
0.000314077
1.87758e-06
0.000314014
1.89093e-06
0.000313961
1.88174e-06
0.000313918
1.85093e-06
0.000313886
1.80019e-06
0.000313863
1.73202e-06
0.000313849
1.64964e-06
0.000313841
1.55668e-06
0.00031384
1.45684e-06
0.000313843
1.35366e-06
1.25037e-06
0.000313849
0.000323452
4.8027e-07
0.000323405
8.44502e-07
0.000323345
1.12943e-06
0.000323275
1.3518e-06
0.000323198
1.5288e-06
0.000323118
1.66918e-06
0.000323038
1.77835e-06
0.000322961
1.85948e-06
0.000322888
1.9143e-06
0.000322822
1.94377e-06
0.000322764
1.94861e-06
0.000322716
1.92982e-06
0.000322678
1.88897e-06
0.00032265
1.8284e-06
0.00032263
1.75122e-06
0.000322619
1.66101e-06
0.000322614
1.56162e-06
0.000322614
1.45677e-06
0.000322618
1.34988e-06
1.24396e-06
0.000322624
0.000332422
5.06878e-07
0.000332376
8.90899e-07
0.000332316
1.18965e-06
0.000332246
1.4215e-06
0.000332171
1.60423e-06
0.000332093
1.74712e-06
0.000332015
1.85592e-06
0.000331941
1.93402e-06
0.000331872
1.98345e-06
0.00033181
2.00557e-06
0.000331757
2.00161e-06
0.000331714
1.97319e-06
0.00033168
1.92255e-06
0.000331656
1.85266e-06
0.00033164
1.76709e-06
0.000331631
1.66977e-06
0.000331628
1.56463e-06
0.00033163
1.45537e-06
0.000331634
1.34526e-06
1.2371e-06
0.000331641
0.000341642
5.33467e-07
0.000341596
9.37171e-07
0.000341536
1.24947e-06
0.000341467
1.49039e-06
0.000341393
1.67831e-06
0.000341317
1.82309e-06
0.000341242
1.93081e-06
0.000341171
2.0052e-06
0.000341106
2.04866e-06
0.000341048
2.063e-06
0.000341
2.05006e-06
0.000340961
2.01209e-06
0.000340932
1.95199e-06
0.000340911
1.87329e-06
0.000340898
1.77998e-06
0.000340892
1.6762e-06
0.00034089
1.56594e-06
0.000340893
1.45281e-06
0.000340898
1.33992e-06
1.22987e-06
0.000340906
0.000351117
5.59896e-07
0.000351071
9.8313e-07
0.000351012
1.30868e-06
0.000350944
1.55823e-06
0.000350872
1.7508e-06
0.000350798
1.89684e-06
0.000350726
2.00282e-06
0.000350658
2.07288e-06
0.000350597
2.10985e-06
0.000350544
2.1161e-06
0.0003505
2.09409e-06
0.000350465
2.04675e-06
0.00035044
1.97758e-06
0.000350422
1.89063e-06
0.000350412
1.79019e-06
0.000350408
1.68057e-06
0.000350408
1.56575e-06
0.000350412
1.44923e-06
0.000350418
1.33395e-06
1.2223e-06
0.000350425
0.000360855
5.86178e-07
0.000360809
1.02873e-06
0.000360751
1.36716e-06
0.000360684
1.62487e-06
0.000360614
1.82151e-06
0.000360542
1.96818e-06
0.000360473
2.07179e-06
0.000360409
2.13694e-06
0.000360352
2.167e-06
0.000360304
2.16494e-06
0.000360264
2.13388e-06
0.000360233
2.07741e-06
0.000360211
1.99961e-06
0.000360197
1.90495e-06
0.000360189
1.79798e-06
0.000360186
1.68309e-06
0.000360188
1.56422e-06
0.000360192
1.44475e-06
0.000360199
1.32743e-06
1.21444e-06
0.000360207
0.000370863
6.12156e-07
0.000370818
1.07375e-06
0.000370761
1.42468e-06
0.000370695
1.69005e-06
0.000370627
1.8902e-06
0.000370558
2.03688e-06
0.000370492
2.13752e-06
0.000370432
2.19727e-06
0.000370379
2.22008e-06
0.000370334
2.20958e-06
0.000370299
2.16958e-06
0.000370272
2.10429e-06
0.000370253
2.01833e-06
0.000370241
1.9165e-06
0.000370236
1.80357e-06
0.000370235
1.68394e-06
0.000370238
1.5615e-06
0.000370243
1.43947e-06
0.00037025
1.32041e-06
1.20633e-06
0.000370258
0.000381149
6.37844e-07
0.000381104
1.11815e-06
0.000381048
1.48113e-06
0.000380984
1.75364e-06
0.000380918
1.95671e-06
0.000380852
2.10279e-06
0.00038079
2.19991e-06
0.000380733
2.25382e-06
0.000380684
2.26912e-06
0.000380644
2.25014e-06
0.000380612
2.20137e-06
0.000380589
2.12762e-06
0.000380573
2.03396e-06
0.000380564
1.92552e-06
0.00038056
1.80716e-06
0.000380561
1.6833e-06
0.000380565
1.55771e-06
0.000380571
1.43346e-06
0.000380578
1.31294e-06
1.19798e-06
0.000380587
0.00039172
6.63069e-07
0.000391676
1.16171e-06
0.000391621
1.53627e-06
0.000391559
1.81539e-06
0.000391495
2.02079e-06
0.000391432
2.1657e-06
0.000391373
2.2588e-06
0.000391321
2.30651e-06
0.000391276
2.31413e-06
0.000391239
2.28672e-06
0.000391211
2.22941e-06
0.000391191
2.14759e-06
0.000391179
2.04673e-06
0.000391172
1.93219e-06
0.00039117
1.80893e-06
0.000391172
1.6813e-06
0.000391177
1.55295e-06
0.000391184
1.4268e-06
0.000391191
1.30508e-06
1.18942e-06
0.0003912
0.000402584
6.87857e-07
0.000402541
1.20439e-06
0.000402488
1.59001e-06
0.000402428
1.87514e-06
0.000402366
2.0823e-06
0.000402307
2.22549e-06
0.000402251
2.31412e-06
0.000402203
2.35533e-06
0.000402162
2.35518e-06
0.000402129
2.31942e-06
0.000402104
2.25387e-06
0.000402088
2.1644e-06
0.000402078
2.05684e-06
0.000402073
1.93672e-06
0.000402073
1.80902e-06
0.000402076
1.67804e-06
0.000402082
1.5473e-06
0.000402089
1.41955e-06
0.000402097
1.29684e-06
1.18067e-06
0.000402106
0.000413749
7.12021e-07
0.000413708
1.24593e-06
0.000413656
1.64209e-06
0.000413598
1.93268e-06
0.00041354
2.14102e-06
0.000413483
2.28199e-06
0.000413432
2.36576e-06
0.000413387
2.40025e-06
0.00041335
2.3923e-06
0.000413321
2.34838e-06
0.0004133
2.27491e-06
0.000413286
2.17823e-06
0.000413278
2.06446e-06
0.000413276
1.93925e-06
0.000413277
1.80758e-06
0.000413281
1.67365e-06
0.000413288
1.54085e-06
0.000413296
1.41175e-06
0.000413304
1.28827e-06
1.17174e-06
0.000413313
0.000425225
7.35593e-07
0.000425184
1.28632e-06
0.000425134
1.69242e-06
0.000425079
1.98787e-06
0.000425023
2.19685e-06
0.00042497
2.33511e-06
0.000424922
2.41369e-06
0.000424881
2.44131e-06
0.000424848
2.4256e-06
0.000424823
2.37373e-06
0.000424805
2.2927e-06
0.000424794
2.18926e-06
0.000424789
2.06976e-06
0.000424788
1.93993e-06
0.000424791
1.80472e-06
0.000424796
1.66821e-06
0.000424803
1.53365e-06
0.000424812
1.40345e-06
0.000424821
1.27939e-06
1.16264e-06
0.00042483
0.000437018
7.58374e-07
0.000436979
1.3253e-06
0.000436931
1.74076e-06
0.000436878
2.04049e-06
0.000436826
2.24957e-06
0.000436776
2.38471e-06
0.000436732
2.45783e-06
0.000436695
2.47849e-06
0.000436665
2.45513e-06
0.000436643
2.39559e-06
0.000436629
2.30739e-06
0.00043662
2.19765e-06
0.000436617
2.0729e-06
0.000436618
1.9389e-06
0.000436622
1.80054e-06
0.000436629
1.6618e-06
0.000436637
1.52575e-06
0.000436646
1.39469e-06
0.000436655
1.27021e-06
1.15338e-06
0.000436664
0.000449139
7.80412e-07
0.000449101
1.36286e-06
0.000449055
1.78704e-06
0.000449005
2.09045e-06
0.000448956
2.29912e-06
0.00044891
2.43075e-06
0.000448869
2.49819e-06
0.000448836
2.51187e-06
0.00044881
2.481e-06
0.000448792
2.41409e-06
0.00044878
2.31914e-06
0.000448774
2.20355e-06
0.000448773
2.074e-06
0.000448776
1.93626e-06
0.000448781
1.79515e-06
0.000448788
1.65449e-06
0.000448797
1.51722e-06
0.000448806
1.38549e-06
0.000448816
1.26075e-06
1.14397e-06
0.000448825
0.000461596
8.015e-07
0.00046156
1.39875e-06
0.000461516
1.83102e-06
0.000461469
2.13753e-06
0.000461423
2.34533e-06
0.00046138
2.47312e-06
0.000461344
2.53473e-06
0.000461314
2.54147e-06
0.000461292
2.5033e-06
0.000461277
2.42936e-06
0.000461268
2.32808e-06
0.000461264
2.2071e-06
0.000461265
2.07321e-06
0.000461269
1.93214e-06
0.000461276
1.78862e-06
0.000461284
1.64634e-06
0.000461293
1.50809e-06
0.000461303
1.37588e-06
0.000461312
1.25104e-06
1.1344e-06
0.000461322
0.000474398
8.217e-07
0.000474364
1.43297e-06
0.000474322
1.87265e-06
0.000474278
2.18168e-06
0.000474235
2.38815e-06
0.000474197
2.51182e-06
0.000474164
2.56749e-06
0.000474138
2.56737e-06
0.000474119
2.52216e-06
0.000474107
2.44155e-06
0.000474101
2.33435e-06
0.0004741
2.20844e-06
0.000474102
2.07063e-06
0.000474108
1.92662e-06
0.000474115
1.78102e-06
0.000474124
1.6374e-06
0.000474134
1.4984e-06
0.000474144
1.36588e-06
0.000474154
1.24107e-06
1.12469e-06
0.000474164
0.000487555
8.40798e-07
0.000487523
1.46529e-06
0.000487484
1.91172e-06
0.000487443
2.22271e-06
0.000487404
2.42745e-06
0.000487369
2.54677e-06
0.00048734
2.59648e-06
0.000487318
2.58963e-06
0.000487302
2.53765e-06
0.000487293
2.45076e-06
0.000487289
2.3381e-06
0.00048729
2.20769e-06
0.000487294
2.06637e-06
0.000487301
1.91979e-06
0.00048731
1.77244e-06
0.000487319
1.62773e-06
0.00048733
1.48818e-06
0.00048734
1.35553e-06
0.00048735
1.23087e-06
1.11483e-06
0.00048736
0.000501078
8.58881e-07
0.000501047
1.49571e-06
0.000501011
1.94819e-06
0.000500973
2.26059e-06
0.000500937
2.46322e-06
0.000500906
2.57801e-06
0.000500881
2.62174e-06
0.000500862
2.60835e-06
0.00050085
2.54992e-06
0.000500844
2.45714e-06
0.000500842
2.33944e-06
0.000500845
2.20496e-06
0.000500851
2.06054e-06
0.000500859
1.91174e-06
0.000500869
1.76292e-06
0.000500879
1.61737e-06
0.00050089
1.47747e-06
0.0005009
1.34482e-06
0.000500911
1.22043e-06
1.10483e-06
0.000500921
0.000514975
8.75727e-07
0.000514947
1.52402e-06
0.000514913
1.98187e-06
0.000514879
2.29517e-06
0.000514847
2.49537e-06
0.000514819
2.60548e-06
0.000514798
2.64332e-06
0.000514782
2.6236e-06
0.000514773
2.55905e-06
0.00051477
2.46079e-06
0.00051477
2.33849e-06
0.000514775
2.20036e-06
0.000514782
2.05321e-06
0.000514792
1.90252e-06
0.000514802
1.75252e-06
0.000514813
1.60636e-06
0.000514824
1.46628e-06
0.000514835
1.33378e-06
0.000514846
1.20977e-06
1.09469e-06
0.000514856
0.000529258
8.91445e-07
0.000529232
1.55025e-06
0.000529201
2.01277e-06
0.00052917
2.32645e-06
0.000529141
2.52391e-06
0.000529117
2.62927e-06
0.0005291
2.66129e-06
0.000529088
2.6355e-06
0.000529082
2.56519e-06
0.000529081
2.46186e-06
0.000529084
2.33537e-06
0.00052909
2.19399e-06
0.000529099
2.04449e-06
0.000529109
1.89222e-06
0.00052912
1.74129e-06
0.000529132
1.59473e-06
0.000529144
1.45464e-06
0.000529155
1.32242e-06
0.000529166
1.19889e-06
1.08441e-06
0.000529176
0.000543937
9.05811e-07
0.000543913
1.57419e-06
0.000543885
2.0407e-06
0.000543857
2.3543e-06
0.000543832
2.54879e-06
0.000543812
2.64935e-06
0.000543798
2.6757e-06
0.000543789
2.64411e-06
0.000543786
2.56842e-06
0.000543787
2.46044e-06
0.000543793
2.33018e-06
0.000543801
2.18595e-06
0.000543811
2.03443e-06
0.000543822
1.88088e-06
0.000543834
1.72928e-06
0.000543846
1.58251e-06
0.000543858
1.44257e-06
0.00054387
1.31076e-06
0.000543881
1.1878e-06
1.07399e-06
0.000543892
0.000559023
9.18961e-07
0.000559001
1.59591e-06
0.000558976
2.06571e-06
0.000558952
2.37877e-06
0.000558931
2.57006e-06
0.000558914
2.66581e-06
0.000558903
2.68666e-06
0.000558898
2.64958e-06
0.000558897
2.56887e-06
0.000558901
2.45665e-06
0.000558908
2.32303e-06
0.000558918
2.17632e-06
0.000558929
2.02312e-06
0.000558942
1.86857e-06
0.000558954
1.71652e-06
0.000558967
1.56973e-06
0.00055898
1.43009e-06
0.000558992
1.2988e-06
0.000559003
1.17651e-06
1.06343e-06
0.000559013
0.000574527
9.30666e-07
0.000574508
1.61521e-06
0.000574486
2.08765e-06
0.000574465
2.39977e-06
0.000574447
2.58768e-06
0.000574434
2.67868e-06
0.000574427
2.69424e-06
0.000574424
2.65198e-06
0.000574427
2.56665e-06
0.000574433
2.4506e-06
0.000574442
2.31402e-06
0.000574453
2.16518e-06
0.000574465
2.01061e-06
0.000574479
1.85533e-06
0.000574492
1.70305e-06
0.000574506
1.55641e-06
0.000574518
1.41721e-06
0.000574531
1.28655e-06
0.000574542
1.165e-06
1.05273e-06
0.000574553
0.000590461
9.41091e-07
0.000590444
1.6322e-06
0.000590426
2.10659e-06
0.000590408
2.41736e-06
0.000590394
2.60176e-06
0.000590385
2.68805e-06
0.00059038
2.69854e-06
0.000590381
2.65144e-06
0.000590386
2.56189e-06
0.000590394
2.4424e-06
0.000590405
2.30323e-06
0.000590417
2.15262e-06
0.000590431
1.99698e-06
0.000590445
1.84121e-06
0.000590459
1.6889e-06
0.000590473
1.54258e-06
0.000590486
1.40395e-06
0.000590499
1.27401e-06
0.000590511
1.15329e-06
1.04188e-06
0.000590521
0.000606837
9.50014e-07
0.000606823
1.64669e-06
0.000606807
2.12241e-06
0.000606793
2.4315e-06
0.000606783
2.61228e-06
0.000606777
2.69398e-06
0.000606776
2.69965e-06
0.000606779
2.64806e-06
0.000606786
2.55466e-06
0.000606796
2.43214e-06
0.000606809
2.29076e-06
0.000606823
2.1387e-06
0.000606838
1.98228e-06
0.000606853
1.82626e-06
0.000606867
1.67411e-06
0.000606882
1.52827e-06
0.000606895
1.39031e-06
0.000606908
1.2612e-06
0.00060692
1.14138e-06
1.03089e-06
0.000606931
0.000623668
9.57615e-07
0.000623656
1.65881e-06
0.000623643
2.13522e-06
0.000623632
2.44228e-06
0.000623625
2.61937e-06
0.000623623
2.69659e-06
0.000623625
2.69771e-06
0.000623631
2.64197e-06
0.00062364
2.54511e-06
0.000623652
2.41993e-06
0.000623667
2.27669e-06
0.000623682
2.1235e-06
0.000623698
1.96655e-06
0.000623713
1.8105e-06
0.000623729
1.65871e-06
0.000623743
1.51348e-06
0.000623757
1.37633e-06
0.000623771
1.24813e-06
0.000623783
1.12927e-06
1.01975e-06
0.000623794
0.000640965
9.63684e-07
0.000640955
1.66842e-06
0.000640945
2.14492e-06
0.000640938
2.44967e-06
0.000640934
2.62303e-06
0.000640935
2.69593e-06
0.00064094
2.69278e-06
0.000640949
2.63326e-06
0.00064096
2.53332e-06
0.000640975
2.40585e-06
0.00064099
2.2611e-06
0.000641007
2.10707e-06
0.000641023
1.94986e-06
0.00064104
1.79399e-06
0.000641056
1.64271e-06
0.000641071
1.49823e-06
0.000641085
1.36199e-06
0.000641099
1.23478e-06
0.000641111
1.11696e-06
1.00846e-06
0.000641122
0.000658741
9.68431e-07
0.000658734
1.67568e-06
0.000658727
2.15167e-06
0.000658723
2.45382e-06
0.000658723
2.62342e-06
0.000658727
2.69215e-06
0.000658735
2.68502e-06
0.000658746
2.62205e-06
0.00065876
2.5194e-06
0.000658776
2.39e-06
0.000658793
2.24406e-06
0.00065881
2.08948e-06
0.000658828
1.93224e-06
0.000658845
1.77675e-06
0.000658862
1.62615e-06
0.000658877
1.48255e-06
0.000658892
1.34731e-06
0.000658906
1.22118e-06
0.000658918
1.10445e-06
9.97021e-07
0.00065893
0.000677011
9.71652e-07
0.000677006
1.68045e-06
0.000677002
2.15538e-06
0.000677001
2.4547e-06
0.000677004
2.62056e-06
0.000677011
2.68533e-06
0.000677022
2.6745e-06
0.000677035
2.60845e-06
0.000677051
2.50346e-06
0.000677069
2.37247e-06
0.000677087
2.22565e-06
0.000677106
2.07079e-06
0.000677124
1.91375e-06
0.000677142
1.75882e-06
0.000677159
1.60904e-06
0.000677176
1.46645e-06
0.000677191
1.33231e-06
0.000677204
1.20733e-06
0.000677217
1.09174e-06
9.85429e-07
0.000677229
0.000695787
9.73585e-07
0.000695784
1.68292e-06
0.000695784
2.15624e-06
0.000695786
2.4525e-06
0.000695792
2.61462e-06
0.000695802
2.6756e-06
0.000695815
2.66138e-06
0.000695831
2.59258e-06
0.000695849
2.48559e-06
0.000695868
2.35335e-06
0.000695887
2.20594e-06
0.000695907
2.05104e-06
0.000695927
1.89442e-06
0.000695945
1.74023e-06
0.000695963
1.59142e-06
0.000695979
1.44993e-06
0.000695995
1.31699e-06
0.000696009
1.19322e-06
0.000696022
1.07884e-06
9.73683e-07
0.000696033
0.000715083
9.74026e-07
0.000715083
1.68299e-06
0.000715085
2.15419e-06
0.000715091
2.44722e-06
0.0007151
2.60566e-06
0.000715112
2.66307e-06
0.000715128
2.64575e-06
0.000715146
2.57454e-06
0.000715166
2.46588e-06
0.000715186
2.33271e-06
0.000715207
2.18499e-06
0.000715228
2.0303e-06
0.000715248
1.87429e-06
0.000715268
1.72101e-06
0.000715286
1.57329e-06
0.000715303
1.43302e-06
0.000715318
1.30135e-06
0.000715333
1.17887e-06
0.000715346
1.06574e-06
9.61782e-07
0.000715358
0.000734915
9.73236e-07
0.000734917
1.68087e-06
0.000734922
2.14944e-06
0.000734931
2.43904e-06
0.000734942
2.59384e-06
0.000734958
2.64787e-06
0.000734976
2.62774e-06
0.000734996
2.55444e-06
0.000735017
2.44445e-06
0.000735039
2.31063e-06
0.000735061
2.16286e-06
0.000735083
2.00862e-06
0.000735104
1.8534e-06
0.000735124
1.70117e-06
0.000735143
1.55468e-06
0.00073516
1.41572e-06
0.000735176
1.2854e-06
0.00073519
1.16427e-06
0.000735204
1.05245e-06
9.49723e-07
0.000735216
0.000755297
9.71012e-07
0.000755301
1.67646e-06
0.000755309
2.14195e-06
0.00075532
2.42798e-06
0.000755335
2.57924e-06
0.000755352
2.6301e-06
0.000755373
2.60746e-06
0.000755395
2.53238e-06
0.000755418
2.42136e-06
0.000755441
2.28718e-06
0.000755465
2.13963e-06
0.000755487
1.98603e-06
0.000755509
1.83179e-06
0.000755529
1.68076e-06
0.000755548
1.5356e-06
0.000755566
1.39806e-06
0.000755582
1.26916e-06
0.000755597
1.14943e-06
0.000755611
1.03896e-06
9.37505e-07
0.000755623
0.000776244
9.6764e-07
0.00077625
1.67e-06
0.00077626
2.13195e-06
0.000776274
2.41426e-06
0.000776291
2.56202e-06
0.000776312
2.60993e-06
0.000776334
2.58504e-06
0.000776358
2.50848e-06
0.000776383
2.39672e-06
0.000776407
2.26246e-06
0.000776432
2.11534e-06
0.000776455
1.96258e-06
0.000776478
1.80948e-06
0.000776499
1.65979e-06
0.000776518
1.51608e-06
0.000776536
1.38003e-06
0.000776553
1.25263e-06
0.000776568
1.13435e-06
0.000776581
1.02527e-06
9.25128e-07
0.000776594
0.000797771
9.62909e-07
0.00079778
1.6614e-06
0.000797792
2.11942e-06
0.000797809
2.39791e-06
0.000797829
2.54227e-06
0.000797851
2.58743e-06
0.000797876
2.56057e-06
0.000797901
2.48283e-06
0.000797928
2.37062e-06
0.000797953
2.23651e-06
0.000797979
2.09005e-06
0.000798003
1.93833e-06
0.000798026
1.78652e-06
0.000798048
1.63829e-06
0.000798067
1.49613e-06
0.000798086
1.36165e-06
0.000798103
1.23581e-06
0.000798118
1.11904e-06
0.000798132
1.0114e-06
9.12591e-07
0.000798144
0.000819896
9.57129e-07
0.000819906
1.65091e-06
0.000819921
2.10459e-06
0.00081994
2.37913e-06
0.000819962
2.52017e-06
0.000819987
2.56278e-06
0.000820013
2.53419e-06
0.000820041
2.45554e-06
0.000820068
2.34312e-06
0.000820095
2.20941e-06
0.000820122
2.06382e-06
0.000820147
1.9133e-06
0.00082017
1.76294e-06
0.000820192
1.61628e-06
0.000820213
1.47576e-06
0.000820231
1.34294e-06
0.000820249
1.21871e-06
0.000820264
1.1035e-06
0.000820278
9.97326e-07
8.99892e-07
0.000820291
0.000842634
9.50086e-07
0.000842646
1.63846e-06
0.000842663
2.08745e-06
0.000842685
2.35798e-06
0.000842709
2.49579e-06
0.000842736
2.53605e-06
0.000842764
2.506e-06
0.000842793
2.42669e-06
0.000842822
2.31432e-06
0.00084285
2.18123e-06
0.000842877
2.03669e-06
0.000842903
1.88755e-06
0.000842927
1.73875e-06
0.00084295
1.59378e-06
0.00084297
1.45499e-06
0.000842989
1.3239e-06
0.000843007
1.20135e-06
0.000843023
1.08773e-06
0.000843037
9.83068e-07
8.87033e-07
0.00084305
0.000866002
9.42106e-07
0.000866017
1.62432e-06
0.000866036
2.06825e-06
0.000866059
2.33466e-06
0.000866086
2.46932e-06
0.000866114
2.50741e-06
0.000866144
2.47611e-06
0.000866175
2.39639e-06
0.000866205
2.2843e-06
0.000866234
2.15203e-06
0.000866262
2.00873e-06
0.000866288
1.8611e-06
0.000866313
1.714e-06
0.000866336
1.57082e-06
0.000866357
1.43384e-06
0.000866377
1.30453e-06
0.000866394
1.18371e-06
0.00086641
1.07174e-06
0.000866425
9.68619e-07
8.74011e-07
0.000866438
0.000890019
9.32972e-07
0.000890035
1.6084e-06
0.000890056
2.04698e-06
0.000890081
2.30922e-06
0.00089011
2.44084e-06
0.00089014
2.47695e-06
0.000890172
2.44463e-06
0.000890204
2.36472e-06
0.000890235
2.25312e-06
0.000890265
2.12188e-06
0.000890294
1.97997e-06
0.000890321
1.83401e-06
0.000890346
1.68871e-06
0.00089037
1.54741e-06
0.000890391
1.41233e-06
0.000890411
1.28487e-06
0.000890429
1.16582e-06
0.000890445
1.05554e-06
0.00089046
9.53986e-07
8.60831e-07
0.000890473
0.000914701
9.23025e-07
0.000914719
1.59099e-06
0.000914742
2.0239e-06
0.000914769
2.28188e-06
0.0009148
2.41052e-06
0.000914832
2.44481e-06
0.000914865
2.41168e-06
0.000914898
2.33178e-06
0.00091493
2.22088e-06
0.000914961
2.09082e-06
0.000914991
1.95047e-06
0.000915018
1.80629e-06
0.000915044
1.66292e-06
0.000915068
1.52358e-06
0.00091509
1.39046e-06
0.00091511
1.2649e-06
0.000915128
1.14768e-06
0.000915144
1.03912e-06
0.000915159
9.39167e-07
8.47491e-07
0.000915173
0.000940068
9.12041e-07
0.000940087
1.57201e-06
0.000940112
1.999e-06
0.000940141
2.25269e-06
0.000940173
2.37845e-06
0.000940207
2.41109e-06
0.000940241
2.37733e-06
0.000940275
2.29766e-06
0.000940309
2.18762e-06
0.00094034
2.05893e-06
0.000940371
1.92027e-06
0.000940399
1.77799e-06
0.000940425
1.63663e-06
0.00094045
1.49935e-06
0.000940472
1.36825e-06
0.000940492
1.24465e-06
0.00094051
1.1293e-06
0.000940527
1.02249e-06
0.000940542
9.2417e-07
8.33994e-07
0.000940556
0.000966138
9.00372e-07
0.000966158
1.55174e-06
0.000966185
1.97252e-06
0.000966216
2.22185e-06
0.000966249
2.3448e-06
0.000966285
2.37591e-06
0.00096632
2.3417e-06
0.000966356
2.26243e-06
0.00096639
2.15343e-06
0.000966422
2.02625e-06
0.000966453
1.88941e-06
0.000966482
1.74915e-06
0.000966509
1.60989e-06
0.000966534
1.47473e-06
0.000966556
1.34571e-06
0.000966577
1.22413e-06
0.000966595
1.11068e-06
0.000966612
1.00565e-06
0.000966627
9.08993e-07
8.2034e-07
0.000966641
0.000992931
8.87786e-07
0.000992953
1.5301e-06
0.000992981
1.94447e-06
0.000993013
2.18941e-06
0.000993048
2.30963e-06
0.000993085
2.33938e-06
0.000993122
2.30489e-06
0.000993158
2.22617e-06
0.000993193
2.11837e-06
0.000993226
1.99284e-06
0.000993258
1.85794e-06
0.000993287
1.71979e-06
0.000993314
1.58272e-06
0.000993339
1.44975e-06
0.000993362
1.32287e-06
0.000993383
1.20334e-06
0.000993402
1.09183e-06
0.000993419
9.88625e-07
0.000993434
8.93646e-07
8.06537e-07
0.000993448
0.00102047
8.7463e-07
0.00102049
1.50737e-06
0.00102052
1.91507e-06
0.00102055
2.15557e-06
0.00102059
2.27311e-06
0.00102063
2.3016e-06