/*--------------------------------*- C++ -*----------------------------------*\
| =========                 |                                                 |
| \\      /  F ield         | OpenFOAM: The Open Source CFD Toolbox           |
|  \\    /   O peration     | Version:  2.4.0                                 |
|   \\  /    A nd           | Web:      www.OpenFOAM.org                      |
|    \\/     M anipulation  |                                                 |
\*---------------------------------------------------------------------------*/
FoamFile
{
    version     2.0;
    format      ascii;
    class       volVectorField;
    location    "2.79";
    object      U;
}
// * * * * * * * * * * * * * * * * * * * * * * * * * * * * * * * * * * * * * //

dimensions      [0 1 -1 0 0 0 0];

internalField   nonuniform List<vector> 
6000
(
(0.513473 -0.0430624 -6.06501e-18)
(-0.317806 0.0668507 0)
(0.112403 -0.0274708 1.01587e-17)
(0.00737731 -0.00141497 0)
(0.0063215 -3.29864e-05 0)
(-0.0294334 0.00559855 0)
(-0.00435412 0.000820413 4.34611e-18)
(-0.0168952 0.00299595 1.64584e-23)
(-0.0109766 0.00247354 0)
(-0.0318407 0.00648807 0)
(-0.0593318 0.0112096 3.57361e-18)
(-0.0933261 0.0150066 -6.77753e-18)
(-0.104083 0.0138285 0)
(-0.0730206 0.00468986 0)
(0.020543 -0.0113528 -1.70856e-18)
(0.170819 -0.0311993 0)
(0.322806 -0.0398478 0)
(0.36826 -0.0316013 -1.21306e-18)
(0.239461 -0.0151231 -1.27069e-18)
(0.129862 -0.0115983 0)
(0.165244 -0.014181 1.47505e-18)
(0.10828 0.00158738 6.79532e-19)
(-0.139537 0.0260814 -5.09813e-19)
(-0.37341 0.0352596 0)
(-0.531385 0.0320471 0)
(-0.61975 0.0261333 0)
(-0.665799 0.0197792 -8.04808e-21)
(-0.682195 0.0131234 2.55257e-21)
(-0.674638 0.00583036 0)
(-0.651243 -0.000632822 0)
(-0.613263 -0.00649182 1.6247e-20)
(-0.561361 -0.0114911 0)
(-0.495817 -0.0153762 2.88074e-19)
(-0.416839 -0.0178724 -3.78868e-19)
(-0.325046 -0.0186803 0)
(-0.222163 -0.017505 0)
(-0.111459 -0.0141232 1.276e-18)
(0.00251885 -0.0083536 0)
(0.113089 -0.000355488 1.44043e-18)
(0.213958 0.00907379 0)
(0.299243 0.0191099 0)
(0.364463 0.0288557 2.75408e-18)
(0.407645 0.0380213 -5.34539e-18)
(0.421705 0.0450995 0)
(0.405546 0.0476477 0)
(0.374531 0.0470592 2.59592e-18)
(0.345025 0.0455378 0)
(0.325348 0.0448625 0)
(0.316454 0.0456866 -5.44015e-18)
(0.316329 0.0479392 -5.54913e-18)
(0.32298 0.0514441 -5.64783e-18)
(0.334962 0.0560105 -3.35933e-21)
(0.350999 0.0614908 5.76732e-18)
(0.371743 0.0677244 0)
(0.396532 0.0750916 -6.5424e-21)
(0.429444 0.084242 -5.5067e-18)
(0.462348 0.0945873 5.11722e-18)
(0.521277 0.109296 4.5807e-18)
(0.545959 0.120734 1.76655e-20)
(0.685086 0.151708 0)
(0.726722 -0.10854 4.57963e-18)
(-0.209268 0.0626316 5.90043e-18)
(0.0923176 -0.0316706 -4.92917e-18)
(-0.0249311 0.00927377 -5.23323e-18)
(0.00608895 0.0010637 0)
(-0.0405248 0.00815157 0)
(-0.0109708 0.00169899 -4.26982e-18)
(-0.0254094 0.00469408 8.21766e-18)
(-0.0217158 0.00504021 0)
(-0.0472785 0.0106234 0)
(-0.0769737 0.0161604 -3.45337e-18)
(-0.107786 0.0189545 3.24886e-18)
(-0.113783 0.0150094 1.55346e-18)
(-0.0825341 0.00180645 0)
(0.0083863 -0.0198426 1.568e-18)
(0.157889 -0.0446912 0)
(0.309331 -0.0503236 0)
(0.39788 -0.0330779 0)
(0.333024 -0.0114703 0)
(0.208213 -0.00957319 0)
(0.176189 -0.00841774 3.0538e-21)
(0.0184529 0.027944 0)
(-0.327265 0.062653 -4.80827e-19)
(-0.551196 0.0625337 0)
(-0.647404 0.047516 0)
(-0.689923 0.03483 9.16907e-21)
(-0.707236 0.0243039 7.56095e-21)
(-0.707201 0.0146553 1.43637e-21)
(-0.694139 0.00567646 1.04073e-20)
(-0.666212 -0.00289865 0)
(-0.62391 -0.0107799 -1.50233e-20)
(-0.567815 -0.017704 -9.27756e-20)
(-0.49822 -0.0233801 -2.34105e-21)
(-0.41534 -0.0274702 3.4572e-19)
(-0.319816 -0.0295489 -4.25896e-19)
(-0.213395 -0.0291418 0)
(-0.0994009 -0.0258672 0)
(0.0175935 -0.0194869 0)
(0.131202 -0.0101535 0)
(0.235275 0.00142002 0)
(0.324039 0.0142369 -2.6145e-18)
(0.393406 0.0271894 0)
(0.441117 0.0394603 2.53357e-18)
(0.469824 0.0502953 2.50652e-18)
(0.481623 0.0587463 0)
(0.475474 0.0631799 0)
(0.456156 0.0640444 0)
(0.433011 0.0632535 0)
(0.41453 0.0627458 5.3383e-18)
(0.405109 0.0636379 0)
(0.405314 0.0662679 0)
(0.41403 0.0705346 -5.64866e-18)
(0.430071 0.0763172 -5.69481e-18)
(0.452817 0.0839871 0)
(0.481009 0.0931962 -1.12044e-17)
(0.518369 0.104628 0)
(0.556937 0.117324 -1.00745e-17)
(0.622603 0.135653 -4.47238e-18)
(0.655151 0.149538 3.19536e-18)
(0.815456 0.188332 2.25459e-18)
(0.798612 -0.0913386 -3.36067e-19)
(-0.0778776 0.0480291 -5.51447e-18)
(0.067165 -0.0275727 0)
(-0.0564588 0.0173754 5.18718e-18)
(0.00318035 0.00213098 0)
(-0.044678 0.00908227 0)
(-0.0157737 0.00237189 0)
(-0.0303132 0.00577318 -4.01895e-18)
(-0.0281071 0.00733902 0)
(-0.0538763 0.0139265 -3.57337e-18)
(-0.0824915 0.0196414 0)
(-0.111849 0.021048 0)
(-0.118593 0.0143435 -1.46671e-18)
(-0.0893942 -0.00302152 0)
(-0.00320211 -0.0297806 0)
(0.140886 -0.0580069 0)
(0.29094 -0.0604937 0)
(0.377787 -0.0324709 0)
(0.341613 -0.00334038 0)
(0.232127 -0.00259328 1.34621e-18)
(0.157015 0.00782894 -1.39301e-18)
(-0.0843005 0.0650107 0)
(-0.417364 0.0975138 5.42515e-21)
(-0.572925 0.0790825 -2.46489e-19)
(-0.639757 0.0539709 0)
(-0.678643 0.0374539 -1.59715e-20)
(-0.697217 0.0246273 0)
(-0.698789 0.0131312 -3.51644e-21)
(-0.685291 0.00261202 -9.51369e-21)
(-0.656657 -0.00741518 0)
(-0.61379 -0.0167058 0)
(-0.557213 -0.0249794 8.404e-20)
(-0.487204 -0.0319583 -2.38673e-21)
(-0.40396 -0.037286 0)
(-0.308105 -0.0404522 7.63963e-19)
(-0.201377 -0.0408354 0)
(-0.0870918 -0.0378971 1.02431e-18)
(0.0301722 -0.0312725 0)
(0.144076 -0.0211111 0)
(0.248376 -0.00809956 0)
(0.337357 0.00663292 2.40137e-18)
(0.407023 0.0217731 0)
(0.455488 0.0361491 0)
(0.484784 0.0487864 -2.382e-18)
(0.498607 0.0592763 0)
(0.499618 0.0661955 0)
(0.490518 0.0695259 2.49865e-18)
(0.475799 0.070301 -2.56412e-18)
(0.461552 0.0701293 -2.63273e-18)
(0.452982 0.0704752 0)
(0.452589 0.0722331 0)
(0.460609 0.0757549 0)
(0.476241 0.0812187 5.65777e-18)
(0.499212 0.0883808 5.65088e-18)
(0.528349 0.0972468 5.57521e-18)
(0.567123 0.108288 0)
(0.608391 0.121168 5.01378e-18)
(0.676452 0.138517 8.89739e-18)
(0.71385 0.154314 0)
(0.879557 0.1895 -2.24198e-18)
(0.836441 -0.0599271 -2.63431e-19)
(0.0438514 0.0394992 5.07484e-18)
(0.0470697 -0.0202468 -4.78928e-18)
(-0.0764531 0.0223594 0)
(0.00014151 0.00251114 0)
(-0.0468001 0.00977883 0)
(-0.0198237 0.00289464 0)
(-0.0340493 0.00669062 0)
(-0.0328087 0.00927828 0)
(-0.0578502 0.0167145 3.4738e-18)
(-0.0854249 0.0226333 3.21181e-18)
(-0.11428 0.0230213 0)
(-0.122371 0.0139497 0)
(-0.0960708 -0.007521 0)
(-0.0152207 -0.0395044 1.32488e-18)
(0.122316 -0.0711789 0)
(0.271074 -0.0706278 1.15732e-18)
(0.356623 -0.0325892 -1.06274e-18)
(0.330927 0.00480991 0)
(0.234376 0.00757862 -1.31147e-18)
(0.123104 0.0307358 0)
(-0.168732 0.103269 -5.91979e-19)
(-0.453611 0.125671 8.50563e-19)
(-0.561793 0.0901898 2.31415e-19)
(-0.62409 0.0593336 0)
(-0.663873 0.0403302 6.90038e-21)
(-0.683442 0.0255172 0)
(-0.685505 0.0123454 -5.89923e-21)
(-0.671838 -1.06658e-05 0)
(-0.643115 -0.0116329 0)
(-0.600243 -0.0224319 0)
(-0.543709 -0.0321641 7.5221e-20)
(-0.473777 -0.0405629 -4.28519e-19)
(-0.390628 -0.04725 0)
(-0.294867 -0.0516252 -3.50805e-19)
(-0.188219 -0.0529102 0)
(-0.0739881 -0.0503968 -9.4754e-19)
(0.0431818 -0.0435596 0)
(0.156871 -0.0324424 0)
(0.260806 -0.017827 0)
(0.349295 -0.00100337 2.23228e-18)
(0.418376 0.0164698 0)
(0.466376 0.0331257 2.23244e-18)
(0.495044 0.0478745 -2.2589e-18)
(0.508368 0.0596136 0)
(0.510455 0.0676857 -2.35531e-18)
(0.504905 0.0721858 -4.86175e-18)
(0.495205 0.0739719 2.51249e-18)
(0.485321 0.0743802 5.18442e-18)
(0.479119 0.0748304 -5.33351e-18)
(0.479173 0.0764366 -5.46358e-18)
(0.486509 0.0797942 0)
(0.500994 0.0850108 -5.62624e-18)
(0.522834 0.0917496 -5.62168e-18)
(0.551163 0.100411 -5.52806e-18)
(0.589287 0.1112 0)
(0.630752 0.12437 0)
(0.698324 0.140871 -4.40264e-18)
(0.738034 0.15847 0)
(0.900764 0.188924 2.15397e-18)
(0.86146 -0.0344663 -2.4648e-19)
(0.153284 0.0355877 -8.9888e-20)
(0.0539085 -0.0144045 4.74523e-18)
(-0.0865831 0.0249843 5.12576e-18)
(-0.00289078 0.00247883 0)
(-0.0481967 0.0103678 -4.38635e-18)
(-0.0233538 0.00335813 0)
(-0.0371777 0.00752963 0)
(-0.0365227 0.0110141 0)
(-0.0605535 0.019248 3.39426e-18)
(-0.087245 0.0254177 -3.12114e-18)
(-0.116008 0.0249756 0)
(-0.125791 0.0136967 0)
(-0.102944 -0.011677 0)
(-0.0279104 -0.0487451 -1.27055e-18)
(0.102181 -0.0839938 0)
(0.249466 -0.0807926 -1.12038e-18)
(0.335011 -0.0332426 1.03788e-18)
(0.314642 0.0125235 0)
(0.22629 0.0199765 0)
(0.0813179 0.0581102 6.53171e-19)
(-0.231261 0.138903 5.69395e-19)
(-0.462385 0.146483 -7.92361e-19)
(-0.54623 0.0987207 -2.04412e-19)
(-0.608366 0.0646443 0)
(-0.648128 0.0432922 4.00047e-21)
(-0.667873 0.0263948 0)
(-0.669975 0.0113715 5.51995e-21)
(-0.656207 -0.00268477 5.93851e-21)
(-0.62751 -0.0159222 0)
(-0.584735 -0.0282542 0)
(-0.52835 -0.0394696 -1.40404e-19)
(-0.458604 -0.0493144 2.00618e-19)
(-0.375658 -0.0573877 0)
(-0.280092 -0.0629959 -3.27367e-19)
(-0.173612 -0.0651988 0)
(-0.0595132 -0.0631108 8.91368e-19)
(0.0574355 -0.0560334 0)
(0.170731 -0.0439309 0)
(0.274084 -0.0276704 0)
(0.361808 -0.00871064 -2.13067e-18)
(0.429951 0.0111322 -2.12791e-18)
(0.476962 0.0300748 -2.14325e-18)
(0.504481 0.0466844 4.81208e-21)
(0.516598 0.0597564 -2.21321e-18)
(0.518071 0.0687254 2.27951e-18)
(0.513108 0.0738488 4.72039e-18)
(0.505134 0.0760743 0)
(0.497265 0.0766791 -2.54315e-18)
(0.492418 0.0769994 5.25499e-18)
(0.492816 0.0781552 5.39942e-18)
(0.499705 0.0807858 0)
(0.513395 0.0850435 0)
(0.534281 0.0912948 0)
(0.561777 0.0994702 5.47761e-18)
(0.599152 0.109688 0)
(0.640339 0.122395 0)
(0.707236 0.138006 4.29128e-18)
(0.747936 0.155362 -3.00571e-18)
(0.907388 0.18291 -2.08611e-18)
(0.880243 -0.0137287 -2.28012e-19)
(0.251001 0.0348279 -4.67611e-18)
(0.0812228 -0.00954369 0)
(-0.0879269 0.0266389 -5.1035e-18)
(-0.00589592 0.00228213 -4.59457e-18)
(-0.0491945 0.0108997 4.73811e-22)
(-0.0263864 0.00377334 0)
(-0.0398283 0.00829723 0)
(-0.0394809 0.0125764 0)
(-0.0624042 0.0215834 -3.32636e-18)
(-0.0883135 0.0280569 0)
(-0.117202 0.0269424 0)
(-0.128906 0.0136475 1.31133e-18)
(-0.109917 -0.015366 0)
(-0.0411026 -0.0572614 0)
(0.0807852 -0.0961901 0)
(0.226109 -0.0908076 0)
(0.312498 -0.0342103 -1.00586e-18)
(0.295927 0.0198674 0)
(0.212407 0.0342877 1.2521e-18)
(0.0373358 0.0877941 -6.32285e-19)
(-0.274862 0.170803 -5.35309e-19)
(-0.458031 0.162325 7.344e-19)
(-0.530617 0.106215 3.78852e-19)
(-0.592203 0.0699219 0)
(-0.631291 0.0462255 -3.78068e-21)
(-0.650783 0.0272458 0)
(-0.652717 0.0103659 0)
(-0.638844 -0.005389 -1.04654e-20)
(-0.610179 -0.0202263 0)
(-0.567514 -0.0340807 0)
(-0.511304 -0.0467693 1.32222e-19)
(-0.44178 -0.0580512 0)
(-0.359079 -0.0675033 0)
(-0.263747 -0.0743373 3.14255e-19)
(-0.15747 -0.0774497 0)
(-0.0435311 -0.0757682 -8.58367e-19)
(0.0731109 -0.0684208 0)
(0.185917 -0.0553113 0)
(0.288571 -0.0373859 0)
(0.375371 -0.016274 0)
(0.442369 0.00594374 2.06109e-18)
(0.488091 0.0271609 2.06905e-18)
(0.51414 0.045618 4.95525e-21)
(0.524684 0.059975 2.15402e-18)
(0.524881 0.0697009 2.21378e-18)
(0.519365 0.0752183 -2.30152e-18)
(0.511625 0.0776063 0)
(0.504359 0.0781714 -2.49276e-18)
(0.499925 0.0782319 2.5835e-18)
(0.500267 0.0789377 -5.32188e-18)
(0.506709 0.0810442 0)
(0.519754 0.0849631 0)
(0.540024 0.0906751 -5.49917e-18)
(0.567039 0.0982885 -5.39599e-18)
(0.604048 0.107932 5.18138e-18)
(0.645084 0.120263 4.7741e-18)
(0.711739 0.135059 -4.19498e-18)
(0.752881 0.152486 2.91924e-18)
(0.910219 0.177471 0)
(0.895311 0.00501587 -2.04965e-19)
(0.337864 0.0365119 0)
(0.120044 -0.00431147 4.52606e-18)
(-0.0779491 0.0273725 5.04106e-18)
(-0.00863406 0.00217152 -4.36499e-22)
(-0.0498716 0.0113738 4.30267e-18)
(-0.0288957 0.00413792 0)
(-0.0420192 0.00898792 0)
(-0.0417668 0.0139747 0)
(-0.0635516 0.0237405 1.63557e-18)
(-0.0887263 0.0305758 1.49459e-18)
(-0.117849 0.0289352 0)
(-0.131615 0.0138195 -1.28737e-18)
(-0.116776 -0.0185707 1.21309e-18)
(-0.054518 -0.0650255 0)
(0.0585769 -0.107729 0)
(0.201072 -0.100655 0)
(0.288924 -0.0353917 7.57688e-21)
(0.275758 0.0269189 0)
(0.194816 0.0502365 -2.4548e-18)
(-0.00551224 0.118387 6.07485e-19)
(-0.303571 0.198814 5.17204e-19)
(-0.447678 0.175012 -1.13595e-20)
(-0.515094 0.113204 -1.76771e-19)
(-0.575281 0.0750775 0)
(-0.613321 0.0490639 0)
(-0.632297 0.0280351 0)
(-0.633939 0.00931797 -4.73181e-21)
(-0.619928 -0.00811655 8.43299e-21)
(-0.591272 -0.0245301 0)
(-0.548708 -0.0398871 0)
(-0.492675 -0.0540303 -1.25799e-19)
(-0.423389 -0.066733 -9.00869e-20)
(-0.340956 -0.077551 0)
(-0.245881 -0.0856013 0)
(-0.139828 -0.0896151 0)
(-0.0260747 -0.0883211 0)
(0.0901942 -0.0806781 0)
(0.202444 -0.0665377 0)
(0.304315 -0.0469253 0)
(0.390078 -0.0236432 0)
(0.455784 0.000958903 0)
(0.500012 0.0244497 -5.74171e-21)
(0.52437 0.0447555 2.05962e-18)
(0.533098 0.0603659 0)
(0.531659 0.0707689 -4.33172e-18)
(0.525053 0.0765563 -2.25097e-18)
(0.516882 0.0789693 0)
(0.509584 0.079386 2.45238e-18)
(0.505114 0.0791316 -2.54707e-18)
(0.505189 0.0793795 5.25683e-18)
(0.511176 0.0809587 -5.37574e-18)
(0.523745 0.0842813 0)
(0.54363 0.0894258 6.0407e-21)
(0.570392 0.0965791 5.33429e-18)
(0.607265 0.10576 -1.02079e-17)
(0.648312 0.11767 -1.35336e-20)
(0.714918 0.131854 -4.06946e-18)
(0.756495 0.148892 2.78969e-18)
(0.912248 0.172067 1.87314e-18)
(0.90762 0.0223076 -6.65651e-19)
(0.414774 0.0400894 0)
(0.166228 0.00160824 9.85697e-21)
(-0.0563607 0.0275628 -3.26268e-21)
(-0.0104409 0.00235513 4.61799e-18)
(-0.0502147 0.0117895 4.27841e-18)
(-0.0308479 0.00444587 0)
(-0.0437337 0.00959559 3.74677e-18)
(-0.0434045 0.0152112 0)
(-0.0640429 0.0257272 -1.61102e-18)
(-0.0884859 0.0329834 -5.44977e-23)
(-0.117875 0.0309561 -1.34885e-18)
(-0.133759 0.0142158 0)
(-0.123261 -0.0212951 -2.3851e-18)
(-0.0678306 -0.0720437 0)
(0.0360704 -0.118611 0)
(0.174419 -0.110329 0)
(0.264281 -0.0368108 9.84351e-19)
(0.254584 0.0337332 0)
(0.174619 0.0675245 1.20492e-18)
(-0.0454858 0.148897 -1.17548e-18)
(-0.320997 0.223123 0)
(-0.434629 0.185478 -1.1522e-20)
(-0.499355 0.119859 0)
(-0.55749 0.0800424 0)
(-0.594243 0.0517752 1.30934e-21)
(-0.612525 0.0287474 0)
(-0.613784 0.00822611 9.96449e-21)
(-0.599599 -0.0108634 -3.67581e-21)
(-0.570923 -0.0288303 -4.23777e-21)
(-0.528443 -0.0456704 9.05245e-21)
(-0.472584 -0.0612504 6.06777e-20)
(-0.403546 -0.0753593 1.74499e-19)
(-0.321397 -0.0875332 0)
(-0.226597 -0.096794 2.93153e-19)
(-0.120785 -0.101705 0)
(-0.00724952 -0.100782 0)
(0.108587 -0.0928172 0)
(0.220224 -0.0776202 9.37551e-19)
(0.321247 -0.0562929 0)
(0.405881 -0.030814 0)
(0.470177 -0.00380792 1.95611e-18)
(0.51276 0.0219683 -1.97898e-18)
(0.535262 0.0441303 0)
(0.542 0.0609758 0)
(0.538686 0.0720001 2.12621e-18)
(0.530669 0.0779664 2.21357e-18)
(0.521713 0.0803104 -2.31228e-18)
(0.514084 0.0805144 0)
(0.509392 0.0799174 0)
(0.509129 0.0796984 0)
(0.514667 0.0807287 3.21788e-21)
(0.526812 0.0834834 0)
(0.546394 0.088108 5.39608e-18)
(0.573011 0.0947766 0)
(0.609861 0.103483 5.0426e-18)
(0.651005 0.114936 -4.61182e-18)
(0.717647 0.12859 7.98289e-18)
(0.759648 0.14508 -2.72534e-18)
(0.91408 0.166849 -1.82308e-18)
(0.917657 0.0379416 1.70957e-19)
(0.482608 0.045024 -4.08762e-18)
(0.217004 0.00818824 -4.27458e-18)
(-0.0259446 0.0279322 -3.25972e-21)
(-0.0101808 0.00296727 -4.63308e-18)
(-0.0501402 0.0121673 -4.26795e-18)
(-0.0322099 0.00469292 0)
(-0.0449473 0.0101155 -3.71182e-18)
(-0.0443919 0.0162851 0)
(-0.0638801 0.0275457 -1.59064e-18)
(-0.0875566 0.0352793 -1.44824e-18)
(-0.11718 0.0329978 1.32993e-18)
(-0.135162 0.0148276 -1.24529e-18)
(-0.1291 -0.0235491 1.17715e-18)
(-0.0807319 -0.0782994 -1.14547e-18)
(0.0137775 -0.128832 1.13294e-18)
(0.146229 -0.1198 0)
(0.238665 -0.0385124 0)
(0.232691 0.0403484 0)
(0.152402 0.0858455 5.86359e-19)
(-0.0817169 0.178608 5.69692e-19)
(-0.329989 0.24402 0)
(-0.420333 0.194279 -2.95653e-19)
(-0.483166 0.126226 0)
(-0.538816 0.0847744 0)
(-0.574118 0.0543419 -1.26642e-21)
(-0.591578 0.0293732 1.49154e-20)
(-0.592387 0.00708574 -5.2366e-21)
(-0.577992 -0.0136308 0)
(-0.54927 -0.0331295 8.02672e-21)
(-0.506861 -0.0514343 -1.74204e-20)
(-0.451172 -0.0684347 0)
(-0.382387 -0.0839365 -8.49268e-20)
(-0.300536 -0.0974585 2.26058e-19)
(-0.206026 -0.107927 -2.8802e-19)
(-0.100469 -0.113732 0)
(0.0128065 -0.113165 0)
(0.128158 -0.104852 0)
(0.239136 -0.0885719 -9.23494e-19)
(0.339252 -0.065499 0)
(0.422682 -0.0377923 0)
(0.485471 -0.00835655 -1.9268e-18)
(0.52629 0.0197232 0)
(0.546811 0.0437518 1.97742e-18)
(0.551423 0.0618242 -2.02127e-18)
(0.546064 0.0734271 0)
(0.53641 0.0794966 2.17593e-18)
(0.526437 0.0816908 4.56103e-18)
(0.518311 0.081629 -2.38636e-18)
(0.513325 0.0806724 0)
(0.512722 0.0799876 0)
(0.517836 0.0804705 2.64305e-18)
(0.529578 0.0826599 0)
(0.548887 0.0867449 5.35137e-18)
(0.575397 0.0929125 0)
(0.612266 0.101149 4.98422e-18)
(0.653541 0.112126 4.54075e-18)
(0.720249 0.125301 -3.93464e-18)
(0.762658 0.14114 0)
(0.915911 0.161781 1.75768e-18)
(0.925833 0.0519238 -3.08553e-20)
(0.542212 0.0508658 7.40656e-20)
(0.270203 0.0153187 4.17855e-18)
(0.011432 0.0289404 -3.43269e-21)
(-0.00680185 0.00408329 -5.65518e-22)
(-0.0494647 0.0125495 0)
(-0.0329478 0.0048792 0)
(-0.0456378 0.0105446 0)
(-0.0447177 0.0171946 -1.70369e-18)
(-0.0630461 0.0291944 3.14391e-18)
(-0.0858887 0.0374566 0)
(-0.115661 0.0350467 1.31079e-18)
(-0.135647 0.0156394 4.32735e-21)
(-0.13403 -0.0253457 -1.15443e-18)
(-0.0929032 -0.0838154 8.70551e-21)
(-0.00786484 -0.138321 -1.12528e-18)
(0.116695 -0.129023 0)
(0.212259 -0.0405571 0)
(0.2103 0.0467982 0)
(0.128381 0.104892 -5.77436e-19)
(-0.113683 0.207017 0)
(-0.332695 0.261827 4.28905e-19)
(-0.405392 0.201811 2.63218e-19)
(-0.466393 0.132306 -1.31734e-19)
(-0.519286 0.0892492 0)
(-0.553022 0.0567534 0)
(-0.569568 0.0299066 -1.45105e-20)
(-0.569878 0.00589428 0)
(-0.555245 -0.0164207 9.74006e-22)
(-0.526458 -0.0374298 -3.81178e-21)
(-0.484107 -0.0571816 8.4098e-21)
(-0.428584 -0.0755866 -5.54109e-20)
(-0.360057 -0.0924689 0)
(-0.278515 -0.107332 -2.22472e-19)
(-0.18431 -0.119006 0)
(-0.07902 -0.125703 0)
(0.0339454 -0.125475 7.82579e-19)
(0.148767 -0.116789 0)
(0.259047 -0.0994009 0)
(0.358207 -0.0745503 0)
(0.440369 -0.0445827 0)
(0.501571 -0.0126887 0)
(0.540529 0.0177157 0)
(0.558965 0.0436236 -3.90009e-18)
(0.561349 0.0629197 1.99346e-18)
(0.553814 0.0750673 2.05282e-18)
(0.542353 0.0811728 -4.2908e-18)
(0.531189 0.083141 -2.25178e-18)
(0.522451 0.0827611 2.36059e-18)
(0.517151 0.0814297 -2.46295e-18)
(0.516245 0.0802869 0)
(0.520978 0.0802319 1.31191e-21)
(0.532342 0.0818527 -5.31897e-18)
(0.551385 0.0853857 -5.32493e-18)
(0.57779 0.0910389 -5.19901e-18)
(0.614687 0.0988016 -9.90525e-18)
(0.656102 0.109289 -4.50947e-18)
(0.722879 0.122014 3.87249e-18)
(0.765671 0.137151 2.58982e-18)
(0.917824 0.156841 -1.73547e-18)
(0.932516 0.0644566 -1.49092e-19)
(0.59439 0.057271 3.90565e-18)
(0.324131 0.0228758 2.34651e-21)
(0.054969 0.0306466 -3.81294e-21)
(0.000657271 0.00604838 4.57329e-18)
(-0.0478448 0.0129939 4.28549e-18)
(-0.0330169 0.00501148 -3.90015e-18)
(-0.0457892 0.0108819 1.82737e-18)
(-0.044371 0.0179375 -6.23118e-22)
(-0.0615175 0.0306697 -1.55524e-18)
(-0.0834306 0.0395051 -1.41313e-18)
(-0.113221 0.0370851 -1.29698e-18)
(-0.135053 0.0166304 2.43871e-18)
(-0.13781 -0.0267007 7.69474e-21)
(-0.104032 -0.0886141 1.12392e-18)
(-0.028514 -0.146988 0)
(0.0862615 -0.137969 1.03862e-18)
(0.18535 -0.0430114 0)
(0.187586 0.0531333 -1.00149e-18)
(0.102479 0.124496 -5.59424e-19)
(-0.140835 0.233624 -5.23209e-19)
(-0.330709 0.276875 -1.17092e-20)
(-0.390036 0.208356 -2.54925e-19)
(-0.448967 0.13808 1.27993e-19)
(-0.498949 0.0934532 0)
(-0.53104 0.0590036 6.75557e-21)
(-0.546607 0.0303445 0)
(-0.546384 0.00465059 0)
(-0.531492 -0.0192337 -9.52383e-22)
(-0.502626 -0.0417324 0)
(-0.460325 -0.0629143 0)
(-0.404965 -0.0827085 5.44447e-20)
(-0.336699 -0.100959 0)
(-0.255476 -0.117158 0)
(-0.161586 -0.130037 2.75804e-19)
(-0.0565734 -0.137622 0)
(0.0560216 -0.137716 -7.76062e-19)
(0.17028 -0.128634 0)
(0.27983 -0.110113 8.96345e-19)
(0.377994 -0.0834519 0)
(0.458832 -0.0511887 0)
(0.518378 -0.016806 0)
(0.555394 0.0159456 0)
(0.571664 0.0437472 1.92712e-18)
(0.571736 0.0642666 0)
(0.561926 0.0769309 -4.04836e-18)
(0.548522 0.0830118 2.11718e-18)
(0.536022 0.0846792 -2.22229e-18)
(0.526582 0.0839252 2.33415e-18)
(0.520964 0.0822004 2.44117e-18)
(0.519816 0.0806086 0)
(0.524237 0.0800292 2.60449e-18)
(0.535259 0.0810827 7.93526e-18)
(0.554044 0.0840554 -5.29241e-18)
(0.580337 0.0891823 5.18018e-18)
(0.617253 0.0964644 4.92844e-18)
(0.658799 0.106452 0)
(0.725632 0.118738 -3.85055e-18)
(0.768771 0.133151 -5.1208e-18)
(0.919868 0.152004 0)
(0.938017 0.0757427 6.21598e-19)
(0.639894 0.0639739 0)
(0.377463 0.0307363 7.54278e-23)
(0.102865 0.0332097 -4.30614e-21)
(0.0148634 0.00848552 -4.49698e-18)
(-0.0446768 0.0135921 -8.61424e-18)
(-0.03234 0.00510936 7.79974e-18)
(-0.0453894 0.0111293 -1.81593e-18)
(-0.0433474 0.0185121 1.6739e-18)
(-0.0592738 0.0319669 0)
(-0.0801374 0.0414125 1.06574e-22)
(-0.109777 0.0390934 0)
(-0.133245 0.0177783 -2.41283e-18)
(-0.140235 -0.0276315 1.13672e-18)
(-0.113839 -0.0927106 0)
(-0.0479073 -0.154748 0)
(0.0556916 -0.14664 -1.03608e-18)
(0.158308 -0.0459302 0)
(0.164692 0.0594123 1.00061e-18)
(0.075411 0.144252 5.50025e-19)
(-0.163184 0.258162 7.30645e-21)
(-0.325204 0.289491 -3.93582e-19)
(-0.374331 0.21411 -2.27561e-19)
(-0.430865 0.14353 0)
(-0.477861 0.0973801 0)
(-0.508255 0.0610892 -6.6001e-21)
(-0.5228 0.0306854 0)
(-0.522021 0.00335463 -8.24163e-21)
(-0.506858 -0.0220699 8.21925e-22)
(-0.477906 -0.046038 3.00101e-21)
(-0.43565 -0.0686335 -7.43032e-21)
(-0.380452 -0.0898024 5.1744e-20)
(-0.312451 -0.10941 -7.73926e-20)
(-0.231552 -0.126939 2.11642e-19)
(-0.137987 -0.141025 -2.73537e-19)
(-0.0332597 -0.149491 0)
(0.0788985 -0.149889 0)
(0.192571 -0.140393 0)
(0.301366 -0.120713 -3.57081e-21)
(0.398498 -0.0922084 9.12615e-19)
(0.47797 -0.0576136 0)
(0.535803 -0.0207104 0)
(0.570809 0.0144123 0)
(0.584841 0.0441225 0)
(0.582537 0.0658662 0)
(0.570374 0.0790238 4.33783e-21)
(0.55492 0.0850249 0)
(0.540959 0.0863178 4.39425e-18)
(0.530733 0.0851287 -4.62175e-18)
(0.524797 0.0829851 -2.41873e-18)
(0.523477 0.080951 0)
(0.527672 0.079864 0)
(0.538414 0.0803584 -5.25963e-18)
(0.556961 0.0827679 4.3662e-21)
(0.583137 0.0873583 -5.15117e-18)
(0.620053 0.0941511 4.8958e-18)
(0.661711 0.103631 4.43766e-18)
(0.728572 0.115481 -3.80821e-18)
(0.772022 0.129164 5.05908e-18)
(0.922077 0.147254 1.67246e-18)
(0.942589 0.0859314 1.3184e-19)
(0.679433 0.0707654 -3.63204e-18)
(0.429182 0.0387844 -7.85839e-18)
(0.153675 0.0366851 -4.93485e-21)
(0.0359196 0.0113518 4.40461e-18)
(-0.0389739 0.0144638 4.32422e-18)
(-0.0307753 0.00521373 -1.95399e-18)
(-0.0444251 0.0112924 0)
(-0.041653 0.0189173 0)
(-0.056303 0.0330809 1.52779e-18)
(-0.0759759 0.0431661 1.38536e-18)
(-0.105271 0.0410513 0)
(-0.130119 0.01906 1.19663e-18)
(-0.141144 -0.0281563 0)
(-0.122098 -0.0961145 0)
(-0.0658484 -0.161583 0)
(0.0259431 -0.155013 0)
(0.131495 -0.0493301 9.70047e-19)
(0.141735 0.065676 4.95574e-19)
(0.0479948 0.163811 -5.33114e-19)
(-0.181028 0.280478 7.45113e-21)
(-0.317036 0.299972 0)
(-0.358279 0.219207 2.21903e-19)
(-0.412089 0.148639 0)
(-0.456082 0.101028 0)
(-0.484749 0.0630092 -1.03322e-20)
(-0.498247 0.0309293 2.04805e-20)
(-0.496897 0.00200713 8.08417e-21)
(-0.481457 -0.0249287 -8.06862e-22)
(-0.452417 -0.0503464 -5.67095e-21)
(-0.410207 -0.0743399 1.43957e-20)
(-0.355171 -0.0968697 -5.10451e-20)
(-0.287436 -0.117824 7.6525e-20)
(-0.206866 -0.136679 -2.01125e-21)
(-0.113631 -0.151971 -2.67952e-19)
(-0.00920927 -0.161311 0)
(0.102458 -0.161998 0)
(0.215527 -0.152071 0)
(0.323543 -0.131207 -1.76618e-18)
(0.419618 -0.100824 -9.09885e-19)
(0.497686 -0.0638608 0)
(0.55376 -0.0244038 0)
(0.586699 0.0131148 -1.84e-18)
(0.598434 0.0447489 0)
(0.5937 0.0677188 0)
(0.579127 0.0813497 3.93839e-18)
(0.561535 0.0872205 -2.06016e-18)
(0.546006 0.0880664 -4.34475e-18)
(0.534911 0.0863763 1.06989e-21)
(0.528651 0.083781 4.79686e-18)
(0.52723 0.0813066 2.49459e-18)
(0.5313 0.0797299 0)
(0.541842 0.0796793 2.61569e-18)
(0.560189 0.0815277 5.2448e-18)
(0.586251 0.0855752 5.13531e-18)
(0.623149 0.0918706 -4.88126e-18)
(0.664893 0.100836 -4.42418e-18)
(0.731746 0.112247 3.79684e-18)
(0.775465 0.125202 -2.51171e-18)
(0.924473 0.14258 -1.66734e-18)
(0.946438 0.0951445 1.24595e-19)
(0.713669 0.077486 3.6008e-18)
(0.478532 0.0469087 3.71184e-21)
(0.206227 0.0410268 -5.64491e-21)
(0.0630005 0.0148868 0)
(-0.029331 0.0155708 0)
(-0.0280715 0.00539211 1.91925e-22)
(-0.0428693 0.0113838 0)
(-0.0393046 0.0191541 0)
(-0.0526046 0.0340066 7.10436e-22)
(-0.0709286 0.0447533 0)
(-0.0996633 0.042939 0)
(-0.12561 0.0204525 1.18005e-18)
(-0.140425 -0.0282922 0)
(-0.128641 -0.0988304 0)
(-0.0821944 -0.167498 0)
(-0.00208419 -0.163072 0)
(0.105098 -0.0531702 2.70056e-21)
(0.118792 0.0719396 -4.95401e-19)
(0.020916 0.182896 1.046e-18)
(-0.194728 0.300479 7.37029e-21)
(-0.306824 0.30858 3.41159e-19)
(-0.341854 0.223737 0)
(-0.392656 0.153394 9.50482e-20)
(-0.43367 0.1044 0)
(-0.460597 0.0647644 1.01339e-20)
(-0.473035 0.0310774 1.79187e-21)
(-0.47111 0.000609405 0)
(-0.455393 -0.0278089 0)
(-0.426268 -0.0546571 2.28832e-22)
(-0.384106 -0.080034 -2.36183e-22)
(-0.329235 -0.103912 2.42501e-20)
(-0.261768 -0.126203 0)
(-0.18153 -0.146379 -2.06308e-19)
(-0.0886272 -0.16288 2.66757e-19)
(0.0154569 -0.173084 0)
(0.126592 -0.174045 -7.49175e-19)
(0.239042 -0.163671 0)
(0.346261 -0.141598 4.15035e-21)
(0.441254 -0.109304 0)
(0.517892 -0.069934 9.07338e-19)
(0.572169 -0.0278887 9.07452e-19)
(0.602994 0.0120518 9.31898e-21)
(0.612383 0.0456252 -1.86092e-18)
(0.605176 0.0698234 0)
(0.588149 0.0839099 -4.75424e-21)
(0.568354 0.0896044 2.03851e-18)
(0.551161 0.0899331 1.83082e-21)
(0.539117 0.0876723 2.26696e-18)
(0.532517 0.0845841 -5.71857e-22)
(0.531057 0.0816649 -4.98598e-22)
(0.535108 0.0796158 0)
(0.545545 0.079038 0)
(0.56375 0.0803332 0)
(0.589713 0.0838355 0)
(0.626577 0.0896275 0)
(0.668381 0.0980716 4.391e-18)
(0.735182 0.10904 0)
(0.779128 0.121276 0)
(0.927069 0.137977 -1.64015e-18)
(0.949734 0.103495 -6.27907e-19)
(0.743221 0.0840201 0)
(0.524971 0.055002 5.20787e-21)
(0.259526 0.0461302 -6.37585e-21)
(0.0954621 0.019149 0)
(-0.0146254 0.0169802 2.14041e-18)
(-0.0238236 0.00572879 -1.97253e-18)
(-0.0406635 0.0114257 0)
(-0.036328 0.0192258 0)
(-0.048192 0.0347395 -1.50434e-18)
(-0.0649956 0.0461622 0)
(-0.0929453 0.0447379 0)
(-0.11969 0.0219343 -1.17339e-18)
(-0.138018 -0.0280554 0)
(-0.133349 -0.100861 -1.05839e-18)
(-0.0967735 -0.172501 0)
(-0.0279059 -0.170772 0)
(0.078975 -0.0573486 5.11662e-21)
(0.0958707 0.0781859 0)
(-0.00527844 0.201265 -5.13425e-19)
(-0.204644 0.318135 4.5962e-19)
(-0.295014 0.315539 -6.56687e-19)
(-0.325022 0.227766 1.86826e-19)
(-0.372593 0.157787 -9.32951e-20)
(-0.41068 0.107501 0)
(-0.435869 0.0663569 1.37638e-20)
(-0.447246 0.0311314 -4.48257e-20)
(-0.444746 -0.000836767 0)
(-0.428756 -0.0307091 1.70528e-21)
(-0.399553 -0.0589692 2.41482e-21)
(-0.357446 -0.0857157 -6.65945e-21)
(-0.302743 -0.110929 -2.39916e-20)
(-0.235549 -0.134548 0)
(-0.155645 -0.156043 -2.00954e-19)
(-0.0630744 -0.173751 2.61762e-19)
(0.0406274 -0.18481 0)
(0.151202 -0.18603 7.47503e-19)
(0.263018 -0.175197 0)
(0.36942 -0.151891 8.76335e-19)
(0.463313 -0.117651 0)
(0.538499 -0.0758369 -9.08093e-19)
(0.590953 -0.0311676 -9.0747e-19)
(0.61963 0.0112216 1.00571e-20)
(0.626631 0.0467498 1.85594e-18)
(0.616915 0.0721783 0)
(0.597403 0.0867047 -1.92407e-18)
(0.575356 0.0921808 0)
(0.556421 0.0919249 2.12756e-18)
(0.543347 0.0890209 0)
(0.53638 0.0853913 -2.3599e-18)
(0.534932 0.0820153 -4.91877e-18)
(0.539065 0.0795081 0)
(0.549504 0.0784231 0)
(0.567638 0.0791777 0)
(0.593531 0.0821372 2.54307e-18)
(0.630352 0.0874226 0)
(0.67219 0.0953414 -9.85664e-21)
(0.738892 0.105861 0)
(0.783025 0.117388 2.45396e-18)
(0.929867 0.13344 1.63869e-18)
(0.952616 0.111088 0)
(0.768666 0.0902892 3.3988e-18)
(0.568138 0.0629639 3.75192e-18)
(0.312705 0.0518613 -7.07614e-21)
(0.13256 0.0241011 0)
(0.00546201 0.0188104 -2.11121e-18)
(-0.01748 0.00631551 0)
(-0.0376888 0.0114536 1.80362e-18)
(-0.0327524 0.0191403 1.63672e-18)
(-0.043093 0.0352753 1.49568e-18)
(-0.0581952 0.0473822 1.35257e-18)
(-0.0851324 0.0464318 1.23596e-18)
(-0.112369 0.0234859 0)
(-0.133909 -0.0274616 0)
(-0.136151 -0.102211 1.05445e-18)
(-0.109427 -0.176614 0)
(-0.0514236 -0.177978 0)
(0.0526295 -0.0617321 -9.85173e-19)
(0.0728951 0.084342 0)
(-0.0301408 0.218708 -5.02011e-19)
(-0.211123 0.333464 0)
(-0.281925 0.321047 3.16511e-19)
(-0.307751 0.231337 -1.83508e-19)
(-0.351932 0.161815 0)
(-0.387165 0.110336 0)
(-0.410627 0.0677898 1.86349e-21)
(-0.420949 0.0310936 2.29352e-20)
(-0.417879 -0.00232931 0)
(-0.401625 -0.0336274 -1.68084e-21)
(-0.372354 -0.0632814 1.93038e-21)
(-0.330312 -0.0913845 -6.11138e-21)
(-0.275784 -0.117923 0)
(-0.208866 -0.142861 0)
(-0.129298 -0.165673 2.17616e-21)
(-0.0370611 -0.184586 -2.21465e-21)
(0.0661999 -0.196488 0)
(0.176198 -0.197957 0)
(0.287362 -0.186653 8.17073e-19)
(0.392926 -0.16209 0)
(0.485702 -0.125871 0)
(0.559421 -0.0815738 0)
(0.610036 -0.0342441 0)
(0.636539 0.0106219 1.81353e-18)
(0.641123 0.0481209 1.83362e-18)
(0.628871 0.0747815 0)
(0.606853 0.089733 0)
(0.58252 0.0949522 1.99032e-18)
(0.561778 0.0940475 0)
(0.547599 0.0904267 0)
(0.540227 0.0862005 -2.34149e-18)
(0.538824 0.082348 2.44281e-18)
(0.543134 0.0793924 0)
(0.553683 0.0778208 0)
(0.571827 0.078051 0)
(0.59769 0.0804743 -2.53466e-18)
(0.634467 0.0852528 2.40385e-18)
(0.676315 0.092644 -8.70336e-18)
(0.742875 0.102711 0)
(0.787154 0.11354 -2.4492e-18)
(0.932862 0.128962 -1.61488e-18)
(0.955192 0.118016 0)
(0.790538 0.0962432 -3.38044e-18)
(0.607822 0.0707053 0)
(0.365001 0.0580754 -5.97742e-18)
(0.173471 0.0296762 0)
(0.0309554 0.0211486 -2.07346e-18)
(-0.0084139 0.00730554 0)
(-0.0337263 0.0115187 -1.81044e-18)
(-0.028601 0.0189124 -1.63243e-18)
(-0.0373485 0.0356114 -1.4869e-18)
(-0.0505642 0.0484041 -1.34365e-18)
(-0.0762648 0.0480065 -1.22811e-18)
(-0.103692 0.02509 0)
(-0.128126 -0.0265263 0)
(-0.137013 -0.102889 0)
(-0.12005 -0.179851 0)
(-0.0727498 -0.184571 0)
(0.0254587 -0.0662151 5.00799e-19)