/*--------------------------------*- C++ -*----------------------------------*\
| =========                 |                                                 |
| \\      /  F ield         | OpenFOAM: The Open Source CFD Toolbox           |
|  \\    /   O peration     | Version:  2.4.0                                 |
|   \\  /    A nd           | Web:      www.OpenFOAM.org                      |
|    \\/     M anipulation  |                                                 |
\*---------------------------------------------------------------------------*/
FoamFile
{
    version     2.0;
    format      ascii;
    class       volScalarField;
    location    "3.18";
    object      nut;
}
// * * * * * * * * * * * * * * * * * * * * * * * * * * * * * * * * * * * * * //

dimensions      [0 2 -1 0 0 0 0];

internalField   nonuniform List<scalar> 
6000
(
4.70154e-05
1.44389e-05
4.25325e-06
8.77497e-06
7.79043e-06
8.93235e-06
8.58008e-06
8.96148e-06
8.84692e-06
9.06083e-06
9.10436e-06
9.35277e-06
9.61998e-06
1.00602e-05
1.05389e-05
1.10234e-05
1.13724e-05
1.15575e-05
1.16195e-05
1.17371e-05
1.21233e-05
1.29751e-05
1.44034e-05
1.63945e-05
1.88112e-05
2.14605e-05
2.41587e-05
2.67655e-05
2.91855e-05
3.1352e-05
3.32099e-05
3.47004e-05
3.57506e-05
3.62648e-05
3.61118e-05
3.51412e-05
3.31804e-05
3.00642e-05
2.56803e-05
2.00715e-05
1.57892e-05
2.14818e-05
2.69371e-05
3.14806e-05
3.49276e-05
3.72812e-05
3.86202e-05
3.91028e-05
3.8863e-05
3.81547e-05
3.70441e-05
3.59363e-05
3.45432e-05
3.37906e-05
3.23133e-05
3.26917e-05
3.06743e-05
3.31882e-05
2.95134e-05
3.4948e-05
2.94898e-05
9.50503e-06
3.17122e-06
7.01423e-06
6.32431e-06
7.02167e-06
6.78499e-06
7.02532e-06
6.96188e-06
7.11425e-06
7.17472e-06
7.3781e-06
7.61374e-06
7.97077e-06
8.36344e-06
8.76552e-06
9.10061e-06
9.37518e-06
9.65852e-06
1.01002e-05
1.08244e-05
1.18791e-05
1.32434e-05
1.48542e-05
1.6616e-05
1.84199e-05
2.0171e-05
2.18042e-05
2.32822e-05
2.45861e-05
2.5706e-05
2.66343e-05
2.73641e-05
2.78891e-05
2.82076e-05
2.8365e-05
2.84999e-05
2.89969e-05
3.08993e-05
3.67264e-05
3.76116e-05
2.8722e-05
2.6202e-05
2.58655e-05
2.61534e-05
2.64839e-05
2.66245e-05
2.65027e-05
2.61045e-05
2.55023e-05
2.47226e-05
2.39364e-05
2.30455e-05
2.24532e-05
2.15857e-05
2.15931e-05
2.0544e-05
2.16508e-05
1.98488e-05
2.23165e-05
2.14309e-05
8.15881e-06
2.81819e-06
5.88992e-06
5.32852e-06
5.68657e-06
5.50685e-06
5.64769e-06
5.61856e-06
5.73952e-06
5.82778e-06
6.02764e-06
6.27857e-06
6.62981e-06
7.03273e-06
7.47534e-06
7.94028e-06
8.48242e-06
9.22285e-06
1.03155e-05
1.1796e-05
1.35213e-05
1.53059e-05
1.70555e-05
1.87474e-05
2.03646e-05
2.18843e-05
2.32912e-05
2.45864e-05
2.57885e-05
2.69331e-05
2.80749e-05
2.92979e-05
3.07329e-05
3.25402e-05
3.50748e-05
3.90355e-05
4.59125e-05
5.9138e-05
8.47009e-05
8.46529e-05
5.354e-05
3.82688e-05
3.07513e-05
2.67325e-05
2.4376e-05
2.28348e-05
2.16818e-05
2.07049e-05
1.97907e-05
1.88921e-05
1.80283e-05
1.71884e-05
1.64914e-05
1.57851e-05
1.5451e-05
1.48076e-05
1.50674e-05
1.41978e-05
1.50362e-05
1.78745e-05
7.96853e-06
2.99119e-06
5.2616e-06
4.70633e-06
4.77237e-06
4.60346e-06
4.66717e-06
4.66145e-06
4.77348e-06
4.90367e-06
5.13839e-06
5.45277e-06
5.87483e-06
6.39097e-06
7.01666e-06
7.80434e-06
8.88727e-06
1.04814e-05
1.27788e-05
1.56804e-05
1.87464e-05
2.15904e-05
2.41433e-05
2.65151e-05
2.87996e-05
3.10366e-05
3.32441e-05
3.54536e-05
3.77289e-05
4.01796e-05
4.29755e-05
4.63754e-05
5.07265e-05
5.63614e-05
6.41699e-05
7.5599e-05
9.33211e-05
0.000122304
0.000165809
0.000155992
0.000104303
7.12864e-05
5.16458e-05
3.96936e-05
3.2139e-05
2.71643e-05
2.37213e-05
2.12249e-05
1.92864e-05
1.76894e-05
1.62913e-05
1.50816e-05
1.3997e-05
1.31016e-05
1.23491e-05
1.17357e-05
1.13814e-05
1.08911e-05
1.07902e-05
1.67545e-05
8.4446e-06
3.53814e-06
5.04076e-06
4.40932e-06
4.19052e-06
3.99072e-06
3.98597e-06
3.99643e-06
4.11866e-06
4.31055e-06
4.6229e-06
5.06045e-06
5.64693e-06
6.41196e-06
7.42231e-06
8.83229e-06
1.09064e-05
1.40089e-05
1.8353e-05
2.35519e-05
2.87511e-05
3.3452e-05
3.77678e-05
4.20233e-05
4.6436e-05
5.10876e-05
5.59994e-05
6.12086e-05
6.68172e-05
7.30214e-05
8.0134e-05
8.86392e-05
9.87672e-05
0.000111025
0.000126619
0.000147126
0.000175051
0.00021409
0.00026022
0.000238979
0.000177495
0.000129139
9.47699e-05
7.08225e-05
5.4199e-05
4.2633e-05
3.44893e-05
2.86602e-05
2.43872e-05
2.11251e-05
1.84759e-05
1.63225e-05
1.44269e-05
1.29427e-05
1.15521e-05
1.06317e-05
9.66903e-06
9.17695e-06
8.45767e-06
1.71084e-05
9.39766e-06
4.39452e-06
5.1498e-06
4.41534e-06
3.89635e-06
3.62302e-06
3.54751e-06
3.56911e-06
3.72028e-06
4.00191e-06
4.44632e-06
5.08943e-06
5.97012e-06
7.18244e-06
8.88444e-06
1.13867e-05
1.51427e-05
2.06577e-05
2.79896e-05
3.62273e-05
4.41862e-05
5.15783e-05
5.89052e-05
6.67519e-05
7.54321e-05
8.50028e-05
9.53917e-05
0.00010653
0.000118438
0.000131271
0.000145325
0.000161084
0.000177907
0.00019668
0.000218334
0.000243927
0.000275028
0.000313552
0.000349914
0.000321339
0.000259535
0.000203562
0.000157738
0.000121507
9.35636e-05
7.24805e-05
5.68011e-05
4.51706e-05
3.6644e-05
3.0279e-05
2.53175e-05
2.14025e-05
1.80735e-05
1.54615e-05
1.30417e-05
1.14081e-05
9.64539e-06
8.80532e-06
7.54671e-06
1.83892e-05
1.07092e-05
5.51931e-06
5.50854e-06
4.70152e-06
3.87457e-06
3.48211e-06
3.32415e-06
3.35293e-06
3.55385e-06
3.96487e-06
4.61536e-06
5.58157e-06
6.94301e-06
8.89343e-06
1.17365e-05
1.59928e-05
2.22975e-05
3.11143e-05
4.20102e-05
5.35067e-05
6.45362e-05
7.54114e-05
8.7112e-05
0.00010043
0.000115662
0.00013267
0.000151068
0.000170445
0.000190512
0.000211164
0.000232459
0.000254422
0.000275888
0.000297979
0.000321277
0.00034637
0.000374145
0.000405403
0.000428028
0.000396227
0.000338504
0.000281349
0.000229741
0.000184806
0.000146855
0.000115804
9.11165e-05
7.17725e-05
5.71488e-05
4.61428e-05
3.76785e-05
3.1072e-05
2.55915e-05
2.12181e-05
1.72588e-05
1.43941e-05
1.14667e-05
9.86377e-06
7.96266e-06
2.02058e-05
1.22754e-05
6.86924e-06
6.06463e-06
5.21343e-06
4.12299e-06
3.56861e-06
3.30979e-06
3.34233e-06
3.61813e-06
4.21342e-06
5.17122e-06
6.62401e-06
8.72333e-06
1.18053e-05
1.63664e-05
2.31322e-05
3.27609e-05
4.5324e-05
5.96883e-05
7.41947e-05
8.84535e-05
0.000103546
0.000120842
0.000141182
0.000164636
0.000190604
0.000218125
0.000246244
0.000274237
0.000301684
0.000328411
0.000353784
0.000376934
0.000399
0.000420351
0.000441338
0.000462525
0.000484034
0.000493747
0.000460935
0.000408176
0.000353071
0.000300054
0.000250748
0.000206198
0.000167217
0.000134214
0.000106836
8.5197e-05
6.85016e-05
5.56098e-05
4.55552e-05
3.73425e-05
3.06786e-05
2.47346e-05
2.01107e-05
1.55865e-05
1.26996e-05
9.9211e-06
2.2247e-05
1.39958e-05
8.39229e-06
6.81079e-06
5.86868e-06
4.62749e-06
3.8902e-06
3.51274e-06
3.54713e-06
3.92917e-06
4.78107e-06
6.17805e-06
8.32773e-06
1.14845e-05
1.61577e-05
2.30364e-05
3.29318e-05
4.62344e-05
6.23455e-05
7.96206e-05
9.68114e-05
0.000114497
0.000134432
0.000158187
0.000186443
0.000218784
0.00025392
0.000290184
0.000326064
0.000360472
0.000392772
0.000422726
0.000448973
0.000471562
0.000491414
0.000508809
0.00052403
0.000537554
0.000549074
0.000548065
0.000514935
0.000466425
0.000414328
0.000362274
0.000311821
0.000264108
0.000220218
0.000181067
0.000146878
0.000118504
9.58706e-05
7.81275e-05
6.42164e-05
5.29675e-05
4.37514e-05
3.56233e-05
2.89061e-05
2.24875e-05
1.7786e-05
1.38543e-05
2.42784e-05
1.57763e-05
1.00294e-05
7.74981e-06
6.60956e-06
5.33741e-06
4.4419e-06
3.94385e-06
3.98333e-06
4.51022e-06
5.7062e-06
7.69826e-06
1.07839e-05
1.53383e-05
2.20374e-05
3.16856e-05
4.49677e-05
6.17559e-05
8.08104e-05
0.000100433
0.000120176
0.000141546
0.000166761
0.000197399
0.000233766
0.000274774
0.000318351
0.00036217
0.000404293
0.0004434
0.00047875
0.000510036
0.000535621
0.000556259
0.000572679
0.000585155
0.000594004
0.00059976
0.00060195
0.00059227
0.000558671
0.000513182
0.000463916
0.000413775
0.000364074
0.00031575
0.00026975
0.00022704
0.000188129
0.000154239
0.000126185
0.000103689
8.58646e-05
7.15282e-05
5.97524e-05
4.94983e-05
4.06616e-05
3.23359e-05
2.54805e-05
2.02083e-05
2.61485e-05
1.75364e-05
1.17196e-05
8.86786e-06
7.42997e-06
6.17213e-06
5.18623e-06
4.59719e-06
4.65657e-06
5.37333e-06
7.00656e-06
9.75345e-06
1.40046e-05
2.02491e-05
2.92736e-05
4.18608e-05
5.83728e-05
7.81178e-05
9.9504e-05
0.000121174
0.000143548
0.000168846
0.000199552
0.000237086
0.000281235
0.000330155
0.000381046
0.000431058
0.000477972
0.000520348
0.000557395
0.000588677
0.00061271
0.000630581
0.000642921
0.000650047
0.000652381
0.000650603
0.000644385
0.000627528
0.000592946
0.000549232
0.000502181
0.000454122
0.000406108
0.000358789
0.000312795
0.000268848
0.000227474
0.000189791
0.000157399
0.000130696
0.0001092
9.19066e-05
7.77175e-05
6.55404e-05
5.48025e-05
4.48055e-05
3.5801e-05
2.91866e-05
2.77813e-05
1.92138e-05
1.34057e-05
1.01316e-05
8.35254e-06
7.06793e-06
6.05669e-06
5.43335e-06
5.54217e-06
6.49568e-06
8.64899e-06
1.22851e-05
1.78767e-05
2.59936e-05
3.74415e-05
5.28455e-05
7.21655e-05
9.42999e-05
0.000117635
0.000141328
0.000166518
0.00019591
0.0002321
0.000276244
0.000327535
0.000383403
0.000440436
0.00049541
0.000545932
0.000590496
0.000628296
0.000658709
0.00068063
0.000695249
0.000703158
0.000704752
0.000700603
0.000691666
0.000677868
0.00065481
0.000618646
0.00057562
0.000530071
0.000483906
0.000437941
0.00039254
0.00034797
0.000304585
0.000262696
0.000223098
0.000187766
0.000157732
0.000133055
0.000113079
9.67026e-05
8.28478e-05
7.05344e-05
5.92282e-05
4.83833e-05
4.0612e-05
2.91565e-05
2.0766e-05
1.50387e-05
1.14955e-05
9.39216e-06
8.00907e-06
6.99165e-06
6.38578e-06
6.57797e-06
7.80618e-06
1.05339e-05
1.51414e-05
2.21628e-05
3.21986e-05
4.59806e-05
6.38944e-05
8.55454e-05
0.000109653
0.000134805
0.000160662
0.000188865
0.000222414
0.00026391
0.000314189
0.000371853
0.000433687
0.000495808
0.000554725
0.000607936
0.000653893
0.000691788
0.000720762
0.000740203
0.000751268
0.000754548
0.00075054
0.000740015
0.000724325
0.000703577
0.000674922
0.000636617
0.000593398
0.000548691
0.000504099
0.000460242
0.000417222
0.000374956
0.0003334
0.000292542
0.000252724
0.000215927
0.000183636
0.000156463
0.000134201
0.000115919
0.000100631
8.70741e-05
7.48271e-05
6.26127e-05
5.39817e-05
3.02875e-05
2.2169e-05
1.65807e-05
1.29091e-05
1.05446e-05
9.01265e-06
7.96465e-06
7.39284e-06
7.68488e-06
9.20044e-06
1.25132e-05
1.81077e-05
2.65567e-05
3.84419e-05
5.43524e-05
7.4419e-05
9.80089e-05
0.00012386
0.000150864
0.000179082
0.000210457
0.000248129
0.000294636
0.000350482
0.000413728
0.000480623
0.000546927
0.000608964
0.000664153
0.000710909
0.000748433
0.000775575
0.00079228
0.000799592
0.000798125
0.000788489
0.000771789
0.000749665
0.000722434
0.000688536
0.000647628
0.000603532
0.000559111
0.000515756
0.000473921
0.000433476
0.000394024
0.000355138
0.000316443
0.000277798
0.000240913
0.000207506
0.000178645
0.000154606
0.000134751
0.000118271
0.000103766
9.08928e-05
7.78042e-05
6.86343e-05
3.12039e-05
2.34136e-05
1.80053e-05
1.43238e-05
1.17886e-05
1.00977e-05
8.98269e-06
8.42564e-06
8.80218e-06
1.05798e-05
1.44371e-05
2.09668e-05
3.07639e-05
4.43545e-05
6.21499e-05
8.40544e-05
0.000109318
0.000136824
0.000165783
0.000196548
0.000231194
0.00027288
0.000324035
0.000384851
0.000452921
0.000524071
0.000593798
0.000658287
0.000714894
0.000761988
0.000798755
0.000823819
0.000837604
0.000841025
0.000834729
0.000819491
0.000796867
0.000768528
0.000735155
0.000696224
0.000652362
0.000606877
0.0005623
0.000519879
0.000479925
0.000442104
0.000405737
0.000370047
0.000334303
0.000297894
0.00026211
0.000228684
0.000198997
0.000173765
0.000152722
0.000135302
0.000120108
0.000106857
9.33306e-05
8.3907e-05
3.19398e-05
2.45016e-05
1.92973e-05
1.56962e-05
1.30913e-05
1.12697e-05
1.00648e-05
9.48943e-06
9.90768e-06
1.18856e-05
1.61996e-05
2.35544e-05
3.45634e-05
4.96795e-05
6.91285e-05
9.26316e-05
0.000119411
0.000148558
0.000179578
0.000213023
0.000250977
0.000296519
0.000351931
0.000417126
0.000489323
0.000564021
0.000636525
0.000702914
0.000760483
0.000807547
0.000843207
0.000866056
0.000876777
0.000876202
0.000865021
0.000844329
0.00081594
0.000781572
0.000742314
0.000698484
0.00065142
0.000604184
0.000559121
0.000517383
0.000479159
0.000443934
0.000410773
0.000378591
0.000346318
0.000312919
0.000279194
0.000246732
0.00021707
0.000191274
0.000169469
0.000151378
0.000135728
0.000122295
0.00010868
9.92283e-05
3.25281e-05
2.54423e-05
2.0451e-05
1.69917e-05
1.44142e-05
1.25186e-05
1.12259e-05
1.06061e-05
1.10126e-05
1.31075e-05
1.77566e-05
2.57837e-05
3.78301e-05
5.42786e-05
7.51811e-05
0.000100114
0.000128321
0.000159115
0.000192264
0.000228457
0.000269703
0.000318912
0.000378185
0.000447203
0.000522893
0.000600516
0.000675242
0.000743064
0.000801213
0.000847942
0.000882222
0.000902729
0.000910271
0.000905619
0.000889568
0.000863597
0.000829549
0.000789314
0.000744377
0.000695759
0.000645346
0.000596121
0.000550341
0.000509093
0.000472461
0.000439764
0.000409842
0.00038133
0.000352853
0.000322995
0.00029207
0.000261404
0.000232555
0.000206828
0.000184715
0.000166244
0.000150357
0.000136904
0.000123463
0.000114151
3.29976e-05
2.6249e-05
2.14679e-05
1.81849e-05
1.57177e-05
1.38217e-05
1.24687e-05
1.1795e-05
1.21486e-05
1.42695e-05
1.91177e-05
2.76396e-05
4.05246e-05
5.81085e-05
8.02927e-05
0.000106535
0.000136116
0.000168555
0.000203846
0.000242788
0.00028726
0.000339931
0.000402686
0.00047501
0.000553621
0.000633619
0.000710083
0.000778931
0.000837329
0.000883461
0.000916132
0.000934185
0.000938448
0.000929655
0.000908884
0.000877719
0.000838119
0.000792171
0.000741741
0.000688447
0.000634629
0.00058329
0.000536655
0.000495763
0.000460606
0.000430351
0.000403639
0.000378858
0.000354359
0.000328389
0.000300805
0.000272612
0.000245271
0.000220217
0.000198255
0.000179712
0.000163805
0.000150471
0.000137399
0.000128347
3.33724e-05
2.6937e-05
2.23549e-05
1.92604e-05
1.69653e-05
1.51477e-05
1.3783e-05
1.30657e-05
1.33512e-05
1.54116e-05
2.03256e-05
2.91568e-05
4.26689e-05
6.11881e-05
8.44991e-05
0.000111957
0.000142869
0.000176928
0.000214317
0.000255941
0.000303527
0.00035945
0.00042533
0.000500493
0.00058151
0.000663393
0.000741162
0.000810676
0.000869029
0.000914328
0.000945197
0.000960687
0.00096158
0.000948711
0.000923304
0.000887033
0.000841993
0.000790488
0.000734749
0.000676919
0.000619727
0.000566249
0.000518706
0.000478095
0.000444319
0.000416411
0.000392838
0.000371775
0.000351326
0.000329447
0.000305584
0.000280386
0.000255138
0.00023131
0.000209947
0.000191647
0.000175937
0.000162855
0.000150297
0.000141591
3.36721e-05
2.75216e-05
2.31226e-05
2.02111e-05
1.81261e-05
1.64605e-05
1.51478e-05
1.44164e-05
1.46384e-05
1.65901e-05
2.14369e-05
3.03982e-05
4.4322e-05
6.35723e-05
8.78592e-05
0.000116447
0.000148643
0.000184268
0.000223662
0.000267837
0.000318384
0.000377344
0.000446023
0.000523602
0.000606565
0.000689892
0.000768577
0.000838429
0.000896463
0.000940715
0.000969608
0.000982431
0.000979942
0.000963064
0.000933093
0.00089181
0.000841455
0.00078456
0.000723713
0.000661528
0.000601076
0.000545529
0.000497107
0.000456761
0.000424299
0.000398637
0.000378095
0.000360673
0.000344263
0.000326564
0.000306666
0.000284849
0.00026217
0.00024005
0.000219705
0.000201962
0.000186664
0.000173963
0.000162031
0.000153735
3.39121e-05
2.80172e-05
2.37834e-05
2.10374e-05
1.91774e-05
1.77234e-05
1.65331e-05
1.58341e-05
1.60143e-05
1.7852e-05
2.25169e-05
3.14376e-05
4.55622e-05
6.5334e-05
9.04391e-05
0.000120066
0.000153485
0.000190601
0.000231861
0.000278406
0.000331717
0.00039349
0.00046467
0.000544289
0.000628784
0.000713158
0.000792402
0.000862287
0.000919749
0.00096273
0.000989506
0.000999601
0.000993758
0.000972924
0.000938466
0.000892274
0.000836746
0.000774648
0.000708923
0.000642613
0.0005791
0.000521645
0.000472458
0.000432418
0.000401231
0.000377707
0.000360056
0.000346141
0.000333682
0.000320161
0.000304357
0.000286188
0.000266448
0.000246444
0.000227494
0.000210607
0.000195932
0.000183741
0.000172526
0.000164694
3.41048e-05
2.84372e-05
2.435e-05
2.17454e-05
2.01046e-05
1.89027e-05
1.79032e-05
1.72956e-05
1.74718e-05
1.9208e-05
2.36584e-05
3.235e-05
4.64757e-05
6.65551e-05
9.23063e-05
0.000122863
0.00015743
0.000195942
0.000238901
0.000287588
0.000343424
0.000407775
0.000481178
0.000562506
0.000648161
0.000733218
0.00081269
0.000882324
0.000938968
0.000980443
0.001005
0.00101237
0.0010032
0.000978461
0.000939601
0.000888618
0.000828077
0.000760995
0.000690658
0.000620514
0.000554219
0.00049511
0.000445352
0.000405719
0.000375799
0.000354304
0.000339368
0.000328771
0.000320103
0.000310675
0.000298999
0.000284639
0.000268105
0.000250548
0.000233321
0.000217567
0.00020372
0.000192166
0.000181745
0.000174424
3.42599e-05
2.8793e-05
2.48354e-05
2.23448e-05
2.09015e-05
1.99699e-05
1.92202e-05
1.87696e-05
1.89928e-05
2.06568e-05
2.48933e-05
3.32646e-05
4.71505e-05
6.7322e-05
9.35293e-05
0.000124885
0.000160502
0.000200299
0.000244772
0.000295343
0.000353423
0.000420097
0.000495461
0.000578199
0.000664678
0.000750087
0.000829477
0.000898586
0.000954146
0.000993926
0.00101624
0.00102086
0.00100839
0.000979817
0.000936649
0.000881011
0.000815645
0.000743827
0.000669193
0.000595568
0.000526858
0.000466439
0.000416388
0.000377325
0.000348695
0.000329119
0.000316692
0.000309164
0.000304055
0.000298557
0.000290955
0.00028047
0.000267319
0.000252461
0.000237233
0.00022286
0.00021003
0.000199238
0.000189681
0.000182917
3.4385e-05
2.90947e-05
2.52512e-05
2.28477e-05
2.15693e-05
2.09046e-05
2.0447e-05
2.02182e-05
2.05496e-05
2.21853e-05
2.62284e-05
3.42507e-05
4.77438e-05
6.77241e-05
9.41791e-05
0.000126174
0.000162718
0.000203679
0.000249474
0.000301651
0.000361661
0.000430375
0.000507438
0.000591317
0.000678314
0.000763768
0.000842746
0.000911041
0.000965335
0.00100329
0.00102333
0.0010252
0.00100946
0.000977117
0.000929749
0.00086961
0.000799635
0.00072337
0.000644804
0.000568125
0.00049745
0.000436155
0.000386166
0.000347897
0.000320616
0.000302852
0.000292697
0.000287935
0.000286082
0.000284272
0.000280605
0.000273975
0.000264298
0.000252318
0.000239307
0.000226529
0.000214888
0.000204978
0.000196349
0.000190189
3.44861e-05
2.93508e-05
2.56083e-05
2.32672e-05
2.2115e-05
2.16947e-05
2.15506e-05
2.16007e-05
2.21061e-05
2.37692e-05
2.76565e-05
3.53267e-05
4.83531e-05
6.79547e-05
9.43328e-05
0.000126776
0.000164097
0.000206091
0.000253016
0.000306516
0.000368114
0.000438555
0.000517048
0.000601812
0.00068899
0.000774145
0.00085247
0.000919745
0.000972603
0.00100864
0.00102636
0.00102548
0.00100651
0.000970469
0.000919025
0.000854566
0.000780229
0.000699851
0.000617777
0.000538543
0.000466439
0.000404784
0.000355288
0.000318095
0.000292256
0.000276206
0.000268065
0.000265715
0.000266739
0.000268302
0.000268347
0.000265466
0.000259276
0.00025028
0.000239648
0.000228642
0.000218341
0.000209423
0.000201781
0.000196272
3.4568e-05
2.95683e-05
2.59157e-05
2.36164e-05
2.25502e-05
2.23367e-05
2.25053e-05
2.28764e-05
2.36201e-05
2.53744e-05
2.91579e-05
3.64957e-05
4.90121e-05
6.81021e-05
9.42043e-05
0.000126779
0.000164661
0.000207543
0.000255412
0.000309962
0.000372797
0.00044462
0.000524243
0.000609475
0.000696589
0.000781217
0.000858676
0.000924743
0.000976003
0.00101003
0.00102541
0.00102179
0.000999624
0.000959979
0.000904601
0.000836027
0.000757615
0.000673505
0.000588411
0.000507195
0.000434279
0.000372858
0.000324346
0.000288557
0.000264288
0.000249869
0.000243475
0.00024314
0.0002466
0.000251141
0.000254595
0.000255276
0.000252505
0.000246531
0.000238384
0.000229286
0.000220453
0.000212626
0.000206026
0.000201212
3.46344e-05
2.97534e-05
2.61815e-05
2.39076e-05
2.28889e-05
2.28348e-05
2.32938e-05
2.40082e-05
2.5046e-05
2.69585e-05
3.07007e-05
3.77453e-05
4.97377e-05
6.82135e-05
9.38542e-05
0.000126341
0.000164572
0.000208048
0.000256683
0.000312032
0.000375754
0.000448492
0.00052882
0.000614256
0.000701079
0.000784979
0.000861379
0.000926065
0.000975579
0.00100755
0.00102055
0.00101419
0.000988895
0.000945751
0.000886603
0.000814148
0.000731985
0.000644579
0.000557018
0.000474471
0.000401435
0.0003409
0.000293908
0.000259884
0.000237339
0.00022449
0.000219578
0.000220842
0.000226244
0.000233299
0.000239776
0.000243751
0.000244256
0.000241273
0.000235662
0.000228567
0.0002213
0.000214651
0.00020914
0.000205069
3.46883e-05
2.9911e-05
2.64123e-05
2.41519e-05
2.31465e-05
2.31998e-05
2.39086e-05
2.49657e-05
2.63384e-05
2.8473e-05
3.22426e-05
3.90488e-05
5.05297e-05
6.83214e-05
9.33361e-05
0.000125508
0.000163858
0.000207728
0.000256911
0.000312757
0.000376937
0.000450121
0.000530764
0.000616125
0.000702437
0.000785422
0.00086059
0.000923733
0.000971379
0.00100123
0.00101185
0.00100278
0.000974413
0.000927892
0.000865161
0.000789092
0.000703546
0.000613337
0.000523932
0.000440777
0.000368373
0.000309417
0.000264501
0.000232614
0.000211962
0.000200644
0.000196973
0.000199419
0.00020624
0.00021529
0.000224329
0.00023125
0.000234814
0.000234724
0.000231644
0.000226605
0.000220977
0.000215574
0.000211192
0.000207906
3.47321e-05
3.00453e-05
2.66135e-05
2.43586e-05
2.33386e-05
2.3447e-05
2.43513e-05
2.57278e-05
2.74561e-05
2.98667e-05
3.37331e-05
4.03666e-05
5.13709e-05
6.84413e-05
9.2694e-05
0.000124331
0.000162549
0.000206591
0.000256099
0.000312164
0.000376405
0.000449564
0.000530101
0.000615082
0.000700656
0.000782547
0.000856317
0.000917763
0.000963453
0.000991156
0.000999374
0.000987619
0.000956273
0.000906517
0.000840416
0.000761035
0.000672522
0.000580062
0.000489507
0.000406534
0.000335558
0.000278886
0.000236589
0.000207195
0.000188606
0.000178804
0.00017617
0.000179413
0.00018713
0.000197621
0.000208697
0.000218143
0.000224475
0.000227116
0.000226506
0.000223534
0.000219586
0.00021548
0.000212259
0.000209799
3.47677e-05
3.01599e-05
2.67895e-05
2.45358e-05
2.34795e-05
2.35946e-05
2.46324e-05
2.6284e-05
2.83649e-05
3.10895e-05
3.51164e-05
4.16482e-05
5.22283e-05
6.85712e-05
9.19587e-05
0.000122857
0.000160686
0.000204654
0.000254255
0.000310283
0.000374226
0.000446907
0.000526897
0.00061116
0.000695752
0.000776362
0.000848575
0.000908174
0.000951852
0.000977373
0.0009832
0.000968809
0.00093458
0.000881753
0.000812522
0.00073017
0.000639156
0.000545063
0.000454121
0.000372172
0.000303441
0.000249736
0.000210558
0.00018397
0.000167596
0.000159313
0.000157561
0.000161273
0.000169403
0.000180772
0.000193318
0.000204803
0.000213544
0.000218691
0.000220437
0.000219499
0.000217242
0.000214465
0.000212424
0.000210824
3.47967e-05
3.02577e-05
2.69442e-05
2.46897e-05
2.35825e-05
2.3662e-05
2.47685e-05
2.66349e-05
2.90412e-05
3.20964e-05
3.63354e-05
4.28354e-05
5.30553e-05
6.86909e-05
9.11454e-05
0.000121128
0.000158311
0.000201943
0.000251394
0.000307145
0.000370479
0.000442262
0.000521258
0.000604433
0.000687771
0.000766901
0.000837391
0.000894998
0.000936637
0.000959958
0.00096341
0.000946446
0.000909452
0.000853741
0.000781653
0.00069671
0.000603717
0.000508676
0.000418174
0.00033813
0.000272447
0.000222337
0.000186701
0.000163168
0.000149126
0.000142375
0.000141404
0.000145332
0.000153467
0.000165178
0.000178607
0.000191599
0.000202333
0.000209699
0.000213634
0.000214656
0.000214067
0.000212629
0.000211778
0.000211061
3.48202e-05
3.03413e-05
2.70804e-05
2.48255e-05
2.36584e-05
2.36684e-05
2.47815e-05
2.67915e-05
2.94734e-05
3.28513e-05
3.73357e-05
4.38662e-05
5.37946e-05
6.87642e-05
9.02523e-05
0.000119175
0.000155472
0.000198497
0.000247541
0.000302784
0.00036524
0.000435758
0.000513326
0.00059502
0.0006768
0.000754225
0.000822812
0.000878342
0.000917889
0.000939001
0.000940108
0.000920647
0.000881027
0.000822643
0.000748002
0.000660892
0.000566501
0.000471266
0.000382087
0.000304841
0.000242962
0.000196987
0.000165214
0.000144902
0.000133266
0.000128062
0.000127817
0.000131797
0.000139649
0.000151202
0.000164943
0.000178888
0.00019115
0.000200397
0.000206304
0.000209167
0.000210194
0.000210082
0.000210416
0.000210602
3.48394e-05
3.04128e-05
2.72006e-05
2.49468e-05
2.37163e-05
2.36316e-05
2.46953e-05
2.67733e-05
2.96632e-05
3.33303e-05
3.80706e-05
4.46793e-05
5.43827e-05
6.87411e-05
8.92598e-05
0.000117016
0.000152211
0.000194358
0.000242729
0.000297237
0.000358585
0.000427526
0.000503267
0.000583078
0.000662965
0.000738431
0.000804913
0.000858304
0.000895714
0.000914612
0.000913415
0.000891551
0.000849461
0.000788641
0.000711785
0.000622983
0.000527837
0.000433229
0.000346296
0.00027272
0.000215322
0.000173901
0.000146199
0.000129186
0.000119981
0.000116333
0.000116801
0.000120748
0.000128116
0.000139116
0.000152652
0.000167
0.000180298
0.000191042
0.000198657
0.000203203
0.000205761
0.000206941
0.000208439
0.000209541
3.48549e-05
3.04739e-05
2.73068e-05
2.50566e-05
2.37634e-05
2.35674e-05
2.45347e-05
2.66065e-05
2.96243e-05
3.3524e-05
3.85046e-05
4.5219e-05
5.47543e-05
6.85621e-05
8.81328e-05
0.000114656
0.000148565
0.000189575
0.000237
0.000290541
0.000350579
0.000417695
0.000491261
0.000568799
0.000646437
0.000719657
0.000783802
0.000835019
0.000870245
0.000886932
0.00088348
0.00085932
0.000814937
0.000751943
0.000673248
0.00058328
0.000488092
0.000394992
0.000311245
0.000242158
0.000189798
0.000153213
0.000129673
0.000115955
0.000109161
0.000107068
0.000108264
0.000112165
0.000118938
0.000129101
0.000141994
0.000156229
0.000170063
0.000181888
0.000190908
0.00019694
0.000200912
0.000203326
0.000205955
0.000207976
3.48675e-05
3.05263e-05
2.74009e-05
2.51568e-05
2.38047e-05
2.34887e-05
2.43235e-05
2.63211e-05
2.93811e-05
3.34377e-05
3.86173e-05
4.54405e-05
5.48482e-05
6.81637e-05
8.68243e-05
0.00011208
0.000144562
0.000184198
0.000230405
0.000282742
0.000341285
0.000406381
0.000477487
0.000552393
0.000627421
0.00069808
0.000759717
0.000808662
0.000841654
0.00085613
0.000850481
0.000824144
0.000777662
0.000712783
0.000632665
0.000542116
0.000447666
0.000357006
0.000277373
0.000213497
0.000166588
0.000134982
0.000115581
0.000105087
0.000100649
0.000100104
0.000102063
0.000105955
0.000112104
0.00012125
0.000133157
0.000146822
0.000160705
0.000173181
0.000183271
0.000190558
0.000195798
0.000199364
0.000203073
0.00020601
3.48777e-05
3.05711e-05
2.74842e-05
2.52488e-05
2.38438e-05
2.34059e-05
2.40828e-05
2.59483e-05
2.89661e-05
3.30914e-05
3.84051e-05
4.53136e-05
5.46128e-05
6.74839e-05
8.52798e-05
0.000109264
0.000140216
0.000178272
0.000222999
0.00027389
0.000330759
0.000393682
0.000462115
0.00053408
0.000606147
0.000673913
0.000732917
0.000779454
0.000810148
0.000822412
0.000814625
0.00078624
0.000737871
0.000671426
0.000590347
0.000499865
0.000407002
0.000319742
0.000245097
0.000187023
0.000145817
0.000119192
0.000103821
9.64296e-05
9.42727e-05
9.52656e-05
9.80328e-05
0.000101988
0.000107544
0.000115587
0.00012626
0.00013897
0.000152455
0.000165151
0.000175954
0.000184238
0.000190572
0.000195188
0.00019991
0.000203747
3.48859e-05
3.06096e-05
2.7558e-05
2.53337e-05
2.38831e-05
2.33269e-05
2.38309e-05
2.55186e-05
2.84167e-05
3.25173e-05
3.78819e-05
4.48264e-05
5.40111e-05
6.64691e-05
8.34444e-05
0.000106172
0.000135529
0.000171839
0.000214842
0.000264042
0.000319055
0.000379681
0.000445288
0.000514067
0.000582855
0.000647433
0.00070367
0.00074765
0.00077597
0.000786015
0.000776151
0.000745855
0.000695828
0.000628168
0.000546641
0.000456944
0.000366574
0.000283678
0.000214799
0.000162951
0.000127535
0.000105776
9.42559e-05
8.98174e-05
8.98596e-05
9.23825e-05
9.6014e-05
0.000100124
0.000105163
0.000112082
0.000121361
0.000132814
0.000145503
0.000158005
0.000169159
0.00017816
0.00018539
0.000190931
0.000196586
0.000201298
3.48925e-05
3.06427e-05
2.76235e-05
2.54122e-05
2.39237e-05
2.32567e-05
2.35825e-05
2.50599e-05
2.77722e-05
3.17566e-05
3.70777e-05
4.39866e-05
5.3025e-05
6.50794e-05
8.1269e-05
0.000102765
0.000130495
0.00016493
0.000205994
0.000253263
0.000306232
0.000364449
0.000427127
0.000492537
0.000557774
0.00061903
0.000672272
0.000713538
0.000739396
0.000747206
0.000735326
0.000703265
0.000651829
0.00058334
0.000501937
0.000413813
0.000326891
0.000249278
0.000186802
0.00014142
0.000111726
9.46202e-05
8.67331e-05
8.50895e-05
8.72541e-05
9.13072e-05
9.58654e-05
0.000100235
0.000104853
0.000110679
0.000118473
0.000128441
0.000139999
0.000151927
0.000163073
0.000172497
0.000180408
0.000186732
0.000193223
0.000198775
3.48979e-05
3.06713e-05
2.76817e-05
2.54849e-05
2.39661e-05
2.31988e-05
2.33485e-05
2.4596e-05
2.70708e-05
3.08564e-05
3.6036e-05
4.28218e-05
5.16579e-05
6.32943e-05
7.87174e-05
9.90099e-05
0.000125102
0.000157572
0.000196516
0.000241627
0.000292354
0.000348049
0.000407725
0.00046964
0.000531209
0.000588989
0.00063903
0.000677421
0.000700723
0.000706279
0.000692442
0.000658769
0.000606197
0.000537312
0.000456671
0.000370977
0.000288473
0.000216974
0.000161355
0.000122491
9.83149e-05
8.55873e-05
8.10972e-05
8.2098e-05
8.63222e-05
9.19165e-05
9.74697e-05
0.000102207
0.000106517
0.000111312
0.00011758
0.0001259
0.000136054
0.00014707
0.000157865
0.000167418
0.000175781
0.000182732
0.000189949
0.000196295
3.49022e-05
3.06959e-05
2.77333e-05
2.5552e-05
2.40104e-05
2.31545e-05
2.31366e-05
2.41465e-05
2.63473e-05
2.98649e-05
3.481e-05
4.13768e-05
4.99357e-05
6.1116e-05
7.57725e-05
9.48814e-05
0.00011934
0.000149789
0.000186469
0.000229213
0.000277499
0.000330545
0.000387157
0.000445538
0.000503418
0.00055757
0.000604239
0.000639608
0.000660263
0.000663541
0.000647812
0.000612694
0.000559291
0.000490495
0.000411327
0.00032898
0.000251839
0.000187141
0.000138625
0.000106148
8.71857e-05
7.85246e-05
7.72001e-05
8.07131e-05
8.69522e-05
9.41109e-05
0.000100731
0.000105944
0.00011006
0.000113908
0.00011865
0.000125209
0.000133741
0.000143556
0.000153684
0.000163078
0.000171658
0.000179068
0.000186893
0.000193978
3.49056e-05
3.07172e-05
2.77792e-05
2.56141e-05
2.40561e-05
2.31242e-05
2.29514e-05
2.37257e-05
2.56316e-05
2.88288e-05
3.34577e-05
3.97099e-05
4.79049e-05
5.85715e-05
7.24403e-05
9.03739e-05
0.000113208
0.000141605
0.000175915
0.000216111
0.000261757
0.000312014
0.000365488
0.000420397
0.000474562
0.000524999
0.000568172
0.000600398
0.000618323
0.000619311
0.000601762
0.00056539
0.000511502
0.000443347
0.000366441
0.00028839
0.00021748
0.000160075
0.000118687
9.23156e-05
7.8192e-05
7.32781e-05
7.49071e-05
8.08244e-05
8.90529e-05
9.78096e-05
0.000105571
0.000111364
0.000115399
0.000118393
0.000121639