/*--------------------------------*- C++ -*----------------------------------*\
| =========                 |                                                 |
| \\      /  F ield         | OpenFOAM: The Open Source CFD Toolbox           |
|  \\    /   O peration     | Version:  2.4.0                                 |
|   \\  /    A nd           | Web:      www.OpenFOAM.org                      |
|    \\/     M anipulation  |                                                 |
\*---------------------------------------------------------------------------*/
FoamFile
{
    version     2.0;
    format      ascii;
    class       volScalarField;
    location    "0.58";
    object      nut;
}
// * * * * * * * * * * * * * * * * * * * * * * * * * * * * * * * * * * * * * //

dimensions      [0 2 -1 0 0 0 0];

internalField   nonuniform List<scalar> 
6000
(
1.24102e-05
9.76851e-06
4.90949e-06
5.1522e-06
7.03166e-06
8.29229e-06
8.11212e-06
7.35468e-06
6.44226e-06
5.67502e-06
5.11362e-06
4.96285e-06
5.75028e-06
6.84721e-06
7.84713e-06
8.72228e-06
9.44779e-06
1.00163e-05
1.0445e-05
1.0768e-05
1.10195e-05
1.12237e-05
1.13943e-05
1.15395e-05
1.16658e-05
1.17792e-05
1.18826e-05
1.19682e-05
1.20372e-05
1.20916e-05
1.21332e-05
1.21634e-05
1.21836e-05
1.21948e-05
1.21977e-05
1.21932e-05
1.21819e-05
1.21643e-05
1.2141e-05
1.21123e-05
1.20785e-05
1.20397e-05
1.19961e-05
1.19485e-05
1.18979e-05
1.18448e-05
1.17908e-05
1.17429e-05
1.16996e-05
1.16598e-05
1.16225e-05
1.15874e-05
1.15532e-05
1.15223e-05
1.1488e-05
1.14708e-05
1.14184e-05
1.14567e-05
1.12833e-05
1.15439e-05
2.33347e-05
3.10106e-05
1.14581e-05
7.5904e-06
6.96267e-06
7.72411e-06
1.09182e-05
1.3755e-05
1.58851e-05
1.7417e-05
1.8337e-05
1.82072e-05
1.74456e-05
1.6798e-05
1.63947e-05
1.6343e-05
1.66223e-05
1.70503e-05
1.74041e-05
1.75729e-05
1.75831e-05
1.75119e-05
1.74131e-05
1.73049e-05
1.71888e-05
1.70661e-05
1.69404e-05
1.68144e-05
1.66887e-05
1.65623e-05
1.64332e-05
1.62993e-05
1.61585e-05
1.60089e-05
1.58489e-05
1.56769e-05
1.54919e-05
1.5293e-05
1.50798e-05
1.48529e-05
1.46125e-05
1.43584e-05
1.40886e-05
1.38031e-05
1.35031e-05
1.31895e-05
1.28635e-05
1.25255e-05
1.21757e-05
1.18159e-05
1.14487e-05
1.10776e-05
1.07066e-05
1.03384e-05
9.97884e-06
9.62292e-06
9.27989e-06
8.89594e-06
8.56536e-06
8.22974e-06
2.88813e-05
4.53797e-05
1.69053e-05
1.2507e-05
1.29986e-05
1.8977e-05
2.64372e-05
2.90599e-05
2.95206e-05
2.93056e-05
2.92196e-05
2.90657e-05
2.8719e-05
2.80791e-05
2.71229e-05
2.60556e-05
2.5185e-05
2.46774e-05
2.44531e-05
2.43365e-05
2.42277e-05
2.4119e-05
2.40292e-05
2.39648e-05
2.39203e-05
2.38881e-05
2.38624e-05
2.38382e-05
2.3811e-05
2.37759e-05
2.37283e-05
2.36641e-05
2.35796e-05
2.34718e-05
2.33379e-05
2.31757e-05
2.29829e-05
2.27576e-05
2.2498e-05
2.2202e-05
2.18668e-05
2.14884e-05
2.10616e-05
2.05878e-05
2.00698e-05
1.95086e-05
1.89042e-05
1.82568e-05
1.75657e-05
1.68311e-05
1.6054e-05
1.52381e-05
1.43867e-05
1.35123e-05
1.2609e-05
1.17318e-05
1.07675e-05
9.91418e-06
8.78572e-06
8.00756e-06
3.21801e-05
5.2026e-05
2.02898e-05
2.1955e-05
2.43143e-05
3.17378e-05
3.60629e-05
3.67984e-05
3.61531e-05
3.52425e-05
3.49419e-05
3.51077e-05
3.53323e-05
3.52816e-05
3.47761e-05
3.38433e-05
3.27305e-05
3.17534e-05
3.10809e-05
3.06844e-05
3.04633e-05
3.03474e-05
3.03027e-05
3.03081e-05
3.03465e-05
3.04035e-05
3.04681e-05
3.05322e-05
3.05895e-05
3.06348e-05
3.06643e-05
3.06746e-05
3.06634e-05
3.06284e-05
3.05679e-05
3.04799e-05
3.03627e-05
3.02142e-05
3.00321e-05
2.98134e-05
2.95543e-05
2.92493e-05
2.88914e-05
2.84801e-05
2.80138e-05
2.74893e-05
2.69029e-05
2.62498e-05
2.55247e-05
2.47225e-05
2.38375e-05
2.28661e-05
2.18031e-05
2.06557e-05
1.94053e-05
1.81292e-05
1.66491e-05
1.53455e-05
1.34746e-05
1.26365e-05
3.39434e-05
5.44179e-05
2.71724e-05
3.2393e-05
3.52054e-05
3.96515e-05
4.08e-05
4.021e-05
3.90098e-05
3.77599e-05
3.72469e-05
3.74233e-05
3.78608e-05
3.81911e-05
3.81635e-05
3.76921e-05
3.69068e-05
3.60699e-05
3.53997e-05
3.49638e-05
3.47185e-05
3.45978e-05
3.45544e-05
3.45589e-05
3.45922e-05
3.46414e-05
3.46974e-05
3.47538e-05
3.48059e-05
3.48504e-05
3.48849e-05
3.49077e-05
3.49175e-05
3.49132e-05
3.48939e-05
3.48587e-05
3.48064e-05
3.47359e-05
3.46454e-05
3.45329e-05
3.43951e-05
3.42278e-05
3.40273e-05
3.37915e-05
3.35173e-05
3.32006e-05
3.28362e-05
3.24181e-05
3.19387e-05
3.13899e-05
3.07621e-05
3.00457e-05
2.92283e-05
2.83051e-05
2.72514e-05
2.61182e-05
2.47466e-05
2.35009e-05
2.16364e-05
2.11823e-05
3.4893e-05
5.44107e-05
3.38409e-05
4.10191e-05
4.39853e-05
4.48514e-05
4.369e-05
4.18662e-05
4.00681e-05
3.84619e-05
3.76287e-05
3.7628e-05
3.80904e-05
3.86358e-05
3.89559e-05
3.88779e-05
3.84438e-05
3.7862e-05
3.73483e-05
3.7001e-05
3.68072e-05
3.6715e-05
3.66812e-05
3.66797e-05
3.66962e-05
3.67224e-05
3.67531e-05
3.67848e-05
3.68147e-05
3.68413e-05
3.68631e-05
3.68794e-05
3.68897e-05
3.68934e-05
3.68902e-05
3.68797e-05
3.68615e-05
3.68349e-05
3.67992e-05
3.67532e-05
3.66952e-05
3.66226e-05
3.65344e-05
3.64292e-05
3.63048e-05
3.61587e-05
3.59876e-05
3.57873e-05
3.55526e-05
3.52773e-05
3.49541e-05
3.45744e-05
3.41278e-05
3.36055e-05
3.29893e-05
3.22991e-05
3.14461e-05
3.0634e-05
2.94901e-05
2.94892e-05
3.54064e-05
5.30867e-05
3.94495e-05
4.64646e-05
5.13326e-05
4.92788e-05
4.6136e-05
4.29505e-05
4.03759e-05
3.83554e-05
3.71554e-05
3.69141e-05
3.73272e-05
3.80087e-05
3.86022e-05
3.88552e-05
3.8728e-05
3.8381e-05
3.80254e-05
3.77807e-05
3.76546e-05
3.76062e-05
3.75969e-05
3.76042e-05
3.76182e-05
3.76348e-05
3.76521e-05
3.76689e-05
3.76845e-05
3.76983e-05
3.771e-05
3.77194e-05
3.77264e-05
3.77308e-05
3.77326e-05
3.77316e-05
3.77279e-05
3.77212e-05
3.77112e-05
3.76975e-05
3.76794e-05
3.76561e-05
3.76271e-05
3.75921e-05
3.75503e-05
3.75009e-05
3.74425e-05
3.73735e-05
3.72919e-05
3.7195e-05
3.70797e-05
3.6942e-05
3.67772e-05
3.65805e-05
3.6345e-05
3.60762e-05
3.57504e-05
3.54278e-05
3.51204e-05
3.54996e-05
3.56686e-05
5.10998e-05
4.36859e-05
4.94564e-05
5.79698e-05
5.38016e-05
4.87255e-05
4.39851e-05
4.04346e-05
3.79583e-05
3.63972e-05
3.59067e-05
3.62332e-05
3.69994e-05
3.78173e-05
3.83641e-05
3.85186e-05
3.83899e-05
3.81817e-05
3.80314e-05
3.79675e-05
3.79604e-05
3.79766e-05
3.79971e-05
3.8015e-05
3.80293e-05
3.80404e-05
3.80494e-05
3.80566e-05
3.80626e-05
3.80677e-05
3.80719e-05
3.80755e-05
3.80785e-05
3.8081e-05
3.80831e-05
3.80848e-05
3.80862e-05
3.80872e-05
3.80879e-05
3.80878e-05
3.80873e-05
3.80863e-05
3.8085e-05
3.80835e-05
3.80819e-05
3.80803e-05
3.8079e-05
3.8078e-05
3.80775e-05
3.80779e-05
3.80795e-05
3.80831e-05
3.80893e-05
3.81028e-05
3.81239e-05
3.81811e-05
3.82448e-05
3.85977e-05
3.92807e-05
3.57811e-05
4.88483e-05
4.66144e-05
5.21354e-05
6.41764e-05
5.87324e-05
5.16763e-05
4.51811e-05
4.04562e-05
3.74819e-05
3.55908e-05
3.487e-05
3.5086e-05
3.5894e-05
3.68931e-05
3.77032e-05
3.81232e-05
3.82048e-05
3.8138e-05
3.80759e-05
3.8067e-05
3.80949e-05
3.81326e-05
3.81647e-05
3.81872e-05
3.82012e-05
3.82093e-05
3.82137e-05
3.82159e-05
3.8217e-05
3.82178e-05
3.82185e-05
3.82195e-05
3.8221e-05
3.82231e-05
3.82259e-05
3.82295e-05
3.82341e-05
3.82398e-05
3.82467e-05
3.8255e-05
3.82648e-05
3.82766e-05
3.8291e-05
3.83084e-05
3.83296e-05
3.83554e-05
3.83871e-05
3.84261e-05
3.84743e-05
3.85343e-05
3.86093e-05
3.87041e-05
3.88238e-05
3.89811e-05
3.91784e-05
3.94755e-05
3.97981e-05
4.05935e-05
4.14999e-05
3.58057e-05
4.65706e-05
4.83828e-05
5.50744e-05
6.98167e-05
6.41062e-05
5.50112e-05
4.65952e-05
4.05242e-05
3.69921e-05
3.48129e-05
3.38891e-05
3.39836e-05
3.47983e-05
3.59382e-05
3.69824e-05
3.76541e-05
3.79414e-05
3.80139e-05
3.80367e-05
3.80783e-05
3.81366e-05
3.81922e-05
3.8234e-05
3.82606e-05
3.82752e-05
3.82817e-05
3.82834e-05
3.82826e-05
3.82809e-05
3.8279e-05
3.82776e-05
3.8277e-05
3.82774e-05
3.8279e-05
3.82818e-05
3.82861e-05
3.8292e-05
3.82996e-05
3.83092e-05
3.83211e-05
3.83357e-05
3.83534e-05
3.8375e-05
3.84012e-05
3.84332e-05
3.84721e-05
3.85197e-05
3.85783e-05
3.86505e-05
3.87404e-05
3.88528e-05
3.8995e-05
3.91749e-05
3.94109e-05
3.97079e-05
4.01443e-05
4.06261e-05
4.1692e-05
4.27477e-05
3.57798e-05
4.44023e-05
4.91727e-05
5.81678e-05
7.43637e-05
6.97962e-05
5.8637e-05
4.81955e-05
4.06687e-05
3.6504e-05
3.40826e-05
3.29773e-05
3.29515e-05
3.37479e-05
3.49922e-05
3.62415e-05
3.71515e-05
3.76417e-05
3.78535e-05
3.79605e-05
3.80507e-05
3.8137e-05
3.82087e-05
3.82592e-05
3.82897e-05
3.83053e-05
3.83113e-05
3.83116e-05
3.83093e-05
3.83059e-05
3.83027e-05
3.83001e-05
3.82986e-05
3.82984e-05
3.82996e-05
3.83024e-05
3.83068e-05
3.83132e-05
3.83216e-05
3.83324e-05
3.83459e-05
3.83625e-05
3.83829e-05
3.84078e-05
3.84381e-05
3.8475e-05
3.85201e-05
3.85754e-05
3.86434e-05
3.87275e-05
3.88322e-05
3.89634e-05
3.91299e-05
3.93413e-05
3.96191e-05
3.99705e-05
4.04847e-05
4.10595e-05
4.22783e-05
4.34254e-05
3.57262e-05
4.24141e-05
4.91727e-05
6.11199e-05
7.74059e-05
7.5564e-05
6.23881e-05
4.98905e-05
4.08906e-05
3.60508e-05
3.3393e-05
3.21253e-05
3.19901e-05
3.27531e-05
3.4071e-05
3.54969e-05
3.66305e-05
3.73211e-05
3.7674e-05
3.78664e-05
3.80051e-05
3.81188e-05
3.82058e-05
3.82646e-05
3.82992e-05
3.83163e-05
3.83224e-05
3.83223e-05
3.83191e-05
3.8315e-05
3.83111e-05
3.83079e-05
3.8306e-05
3.83054e-05
3.83064e-05
3.83091e-05
3.83137e-05
3.83202e-05
3.83289e-05
3.83402e-05
3.83544e-05
3.83719e-05
3.83934e-05
3.84197e-05
3.84519e-05
3.84911e-05
3.8539e-05
3.85978e-05
3.86704e-05
3.87602e-05
3.88722e-05
3.9013e-05
3.91918e-05
3.94195e-05
3.97193e-05
4.01001e-05
4.06565e-05
4.1284e-05
4.2584e-05
4.37807e-05
3.56586e-05
4.06362e-05
4.85637e-05
6.35681e-05
7.95595e-05
8.10763e-05
6.60599e-05
5.15498e-05
4.11628e-05
3.5675e-05
3.27311e-05
3.13201e-05
3.10912e-05
3.18147e-05
3.31816e-05
3.47567e-05
3.6098e-05
3.69857e-05
3.74818e-05
3.7762e-05
3.79504e-05
3.80918e-05
3.81943e-05
3.82615e-05
3.83004e-05
3.83193e-05
3.8326e-05
3.83258e-05
3.83224e-05
3.83179e-05
3.83136e-05
3.83101e-05
3.8308e-05
3.83073e-05
3.83082e-05
3.83108e-05
3.83154e-05
3.8322e-05
3.83308e-05
3.83423e-05
3.83567e-05
3.83746e-05
3.83966e-05
3.84236e-05
3.84565e-05
3.84967e-05
3.85459e-05
3.86064e-05
3.8681e-05
3.87736e-05
3.88893e-05
3.90347e-05
3.92199e-05
3.94561e-05
3.97674e-05
4.0164e-05
4.07431e-05
4.13998e-05
4.27395e-05
4.39581e-05
3.55853e-05
3.90741e-05
4.75095e-05
6.52778e-05
8.12745e-05
8.58533e-05
6.94329e-05
5.30258e-05
4.15236e-05
3.5346e-05
3.20902e-05
3.05508e-05
3.02456e-05
3.09301e-05
3.23274e-05
3.4026e-05
3.55579e-05
3.6638e-05
3.72795e-05
3.76505e-05
3.78904e-05
3.80604e-05
3.81789e-05
3.82547e-05
3.82981e-05
3.83191e-05
3.83266e-05
3.83266e-05
3.83231e-05
3.83184e-05
3.83139e-05
3.83104e-05
3.83081e-05
3.83073e-05
3.83082e-05
3.83108e-05
3.83153e-05
3.83219e-05
3.83309e-05
3.83424e-05
3.83569e-05
3.8375e-05
3.83972e-05
3.84244e-05
3.84576e-05
3.84983e-05
3.85481e-05
3.86094e-05
3.8685e-05
3.87789e-05
3.88964e-05
3.90442e-05
3.92326e-05
3.94732e-05
3.97907e-05
4.01958e-05
4.0787e-05
4.14596e-05
4.28157e-05
4.40393e-05
3.55115e-05
3.77192e-05
4.6152e-05
6.61304e-05
8.27392e-05
8.94464e-05
7.22663e-05
5.43168e-05
4.18797e-05
3.50202e-05
3.14626e-05
2.98092e-05
2.94448e-05
3.00952e-05
3.15098e-05
3.3309e-05
3.50133e-05
3.62796e-05
3.7068e-05
3.75328e-05
3.78265e-05
3.80264e-05
3.81615e-05
3.82464e-05
3.82944e-05
3.83177e-05
3.83261e-05
3.83264e-05
3.83229e-05
3.83182e-05
3.83136e-05
3.831e-05
3.83076e-05
3.83068e-05
3.83076e-05
3.83102e-05
3.83147e-05
3.83214e-05
3.83303e-05
3.83419e-05
3.83565e-05
3.83746e-05
3.83969e-05
3.84242e-05
3.84576e-05
3.84985e-05
3.85486e-05
3.86102e-05
3.86864e-05
3.8781e-05
3.88993e-05
3.90484e-05
3.92385e-05
3.94815e-05
3.98024e-05
4.02122e-05
4.08097e-05
4.14909e-05
4.28506e-05
4.40694e-05
3.54402e-05
3.65556e-05
4.46097e-05
6.61022e-05
8.38959e-05
9.17122e-05
7.44154e-05
5.52935e-05
4.20549e-05
3.46526e-05
3.08379e-05
2.90895e-05
2.8682e-05
2.93054e-05
3.0729e-05
3.26087e-05
3.4467e-05
3.59118e-05
3.68476e-05
3.74093e-05
3.77593e-05
3.79905e-05
3.81428e-05
3.82372e-05
3.82901e-05
3.83158e-05
3.83253e-05
3.83259e-05
3.83225e-05
3.83177e-05
3.83131e-05
3.83094e-05
3.8307e-05
3.83061e-05
3.83069e-05
3.83095e-05
3.8314e-05
3.83206e-05
3.83296e-05
3.83412e-05
3.83558e-05
3.8374e-05
3.83963e-05
3.84237e-05
3.84572e-05
3.84982e-05
3.85485e-05
3.86103e-05
3.86867e-05
3.87817e-05
3.89006e-05
3.90504e-05
3.92415e-05
3.94859e-05
3.98087e-05
4.02212e-05
4.08221e-05
4.15078e-05
4.28643e-05
4.4073e-05
3.53732e-05
3.55638e-05
4.29777e-05
6.52427e-05
8.45637e-05
9.27944e-05
7.56852e-05
5.57363e-05
4.19566e-05
3.42007e-05
3.02039e-05
2.83872e-05
2.79521e-05
2.85565e-05
2.99842e-05
3.19274e-05
3.39217e-05
3.55359e-05
3.66187e-05
3.72801e-05
3.76887e-05
3.79527e-05
3.81233e-05
3.82275e-05
3.82856e-05
3.83138e-05
3.83243e-05
3.83253e-05
3.8322e-05
3.83172e-05
3.83125e-05
3.83087e-05
3.83063e-05
3.83054e-05
3.83061e-05
3.83087e-05
3.83132e-05
3.83199e-05
3.83288e-05
3.83404e-05
3.83551e-05
3.83733e-05
3.83957e-05
3.84231e-05
3.84567e-05
3.84978e-05
3.85482e-05
3.86101e-05
3.86868e-05
3.8782e-05
3.89013e-05
3.90516e-05
3.92433e-05
3.94887e-05
3.98126e-05
4.02269e-05
4.08295e-05
4.15175e-05
4.28675e-05
4.40634e-05
3.53114e-05
3.47236e-05
4.13306e-05
6.36523e-05
8.45353e-05
9.28124e-05
7.59731e-05
5.55614e-05
4.15374e-05
3.36335e-05
2.95496e-05
2.76991e-05
2.72517e-05
2.78449e-05
2.92743e-05
3.1267e-05
3.33798e-05
3.51533e-05
3.63817e-05
3.7145e-05
3.76147e-05
3.79132e-05
3.81027e-05
3.82173e-05
3.82808e-05
3.83116e-05
3.83232e-05
3.83247e-05
3.83214e-05
3.83166e-05
3.83119e-05
3.8308e-05
3.83056e-05
3.83046e-05
3.83054e-05
3.8308e-05
3.83125e-05
3.83191e-05
3.83281e-05
3.83397e-05
3.83544e-05
3.83726e-05
3.8395e-05
3.84225e-05
3.84561e-05
3.84973e-05
3.85478e-05
3.86099e-05
3.86867e-05
3.87822e-05
3.89017e-05
3.90524e-05
3.92446e-05
3.94906e-05
3.98155e-05
4.02309e-05
4.08345e-05
4.15236e-05
4.28655e-05
4.40475e-05
3.52553e-05
3.40155e-05
3.9724e-05
6.14631e-05
8.36456e-05
9.18159e-05
7.52561e-05
5.47519e-05
4.07862e-05
3.29369e-05
2.88683e-05
2.70233e-05
2.65788e-05
2.71677e-05
2.85978e-05
3.06286e-05
3.28436e-05
3.47654e-05
3.6137e-05
3.70042e-05
3.75373e-05
3.78717e-05
3.80813e-05
3.82067e-05
3.82758e-05
3.83093e-05
3.83221e-05
3.8324e-05
3.83209e-05
3.83161e-05
3.83113e-05
3.83074e-05
3.83049e-05
3.83039e-05
3.83046e-05
3.83072e-05
3.83117e-05
3.83183e-05
3.83273e-05
3.8339e-05
3.83536e-05
3.83719e-05
3.83943e-05
3.84219e-05
3.84556e-05
3.84968e-05
3.85474e-05
3.86096e-05
3.86866e-05
3.87822e-05
3.8902e-05
3.9053e-05
3.92457e-05
3.94923e-05
3.98179e-05
4.02343e-05
4.08384e-05
4.15279e-05
4.28611e-05
4.40289e-05
3.52047e-05
3.34214e-05
3.8198e-05
5.88221e-05
8.1809e-05
8.9801e-05
7.35558e-05
5.33352e-05
3.97228e-05
3.21142e-05
2.8159e-05
2.63596e-05
2.59324e-05
2.65228e-05
2.79533e-05
3.00129e-05
3.23151e-05
3.43739e-05
3.58853e-05
3.68576e-05
3.74564e-05
3.78284e-05
3.80589e-05
3.81956e-05
3.82705e-05
3.83069e-05
3.8321e-05
3.83234e-05
3.83204e-05
3.83155e-05
3.83107e-05
3.83068e-05
3.83042e-05
3.83032e-05
3.83039e-05
3.83065e-05
3.8311e-05
3.83176e-05
3.83266e-05
3.83382e-05
3.83529e-05
3.83712e-05
3.83937e-05
3.84213e-05
3.8455e-05
3.84963e-05
3.8547e-05
3.86093e-05
3.86864e-05
3.87823e-05
3.89023e-05
3.90536e-05
3.92468e-05
3.94939e-05
3.98201e-05
4.02372e-05
4.08417e-05
4.15313e-05
4.28556e-05
4.40095e-05
3.51595e-05
3.29248e-05
3.67792e-05
5.5878e-05
7.90317e-05
8.67585e-05
7.09276e-05
5.13743e-05
3.83915e-05
3.1184e-05
2.74271e-05
2.57099e-05
2.53128e-05
2.59091e-05
2.73395e-05
2.94202e-05
3.1796e-05
3.39802e-05
3.56271e-05
3.67054e-05
3.73719e-05
3.77831e-05
3.80354e-05
3.8184e-05
3.82651e-05
3.83045e-05
3.83199e-05
3.83227e-05
3.83199e-05
3.8315e-05
3.83101e-05
3.83061e-05
3.83035e-05
3.83025e-05
3.83032e-05
3.83057e-05
3.83103e-05
3.83169e-05
3.83259e-05
3.83375e-05
3.83523e-05
3.83706e-05
3.83931e-05
3.84207e-05
3.84545e-05
3.84959e-05
3.85466e-05
3.86091e-05
3.86863e-05
3.87823e-05
3.89026e-05
3.90542e-05
3.92477e-05
3.94953e-05
3.98221e-05
4.024e-05
4.08447e-05
4.15341e-05
4.28497e-05
4.39901e-05
3.51194e-05
3.25114e-05
3.54835e-05
5.27714e-05
7.54062e-05
8.27226e-05
6.7469e-05
4.8963e-05
3.68544e-05
3.01756e-05
2.6683e-05
2.50777e-05
2.47209e-05
2.53259e-05
2.67554e-05
2.88508e-05
3.12878e-05
3.35858e-05
3.53632e-05
3.65479e-05
3.72839e-05
3.77358e-05
3.8011e-05
3.81719e-05
3.82595e-05
3.83019e-05
3.83187e-05
3.83221e-05
3.83193e-05
3.83145e-05
3.83095e-05
3.83055e-05
3.83029e-05
3.83018e-05
3.83025e-05
3.8305e-05
3.83095e-05
3.83162e-05
3.83252e-05
3.83369e-05
3.83516e-05
3.83699e-05
3.83925e-05
3.84201e-05
3.8454e-05
3.84954e-05
3.85462e-05
3.86088e-05
3.86862e-05
3.87824e-05
3.89029e-05
3.90548e-05
3.92486e-05
3.94967e-05
3.98241e-05
4.02426e-05
4.08474e-05
4.15366e-05
4.28438e-05
4.39712e-05
3.50839e-05
3.21684e-05
3.43184e-05
4.96279e-05
7.10939e-05
7.78033e-05
6.33299e-05
4.62208e-05
3.51835e-05
2.9124e-05
2.59404e-05
2.44678e-05
2.41583e-05
2.47731e-05
2.62001e-05
2.83046e-05
3.07917e-05
3.31921e-05
3.50944e-05
3.63852e-05
3.71924e-05
3.76866e-05
3.79854e-05
3.81594e-05
3.82536e-05
3.82993e-05
3.83175e-05
3.83214e-05
3.83188e-05
3.8314e-05
3.8309e-05
3.83049e-05
3.83022e-05
3.83011e-05
3.83018e-05
3.83043e-05
3.83088e-05
3.83155e-05
3.83245e-05
3.83362e-05
3.8351e-05
3.83693e-05
3.83919e-05
3.84196e-05
3.84535e-05
3.8495e-05
3.85459e-05
3.86085e-05
3.8686e-05
3.87824e-05
3.89031e-05
3.90553e-05
3.92495e-05
3.9498e-05
3.9826e-05
4.02451e-05
4.085e-05
4.15389e-05
4.28378e-05
4.3953e-05
3.50527e-05
3.18849e-05
3.32849e-05
4.65528e-05
6.63024e-05
7.21946e-05
5.87133e-05
4.32849e-05
3.34543e-05
2.80656e-05
2.5214e-05
2.38856e-05
2.36269e-05
2.42509e-05
2.56731e-05
2.77814e-05
3.03087e-05
3.28006e-05
3.48216e-05
3.62176e-05
3.70974e-05
3.76352e-05
3.79589e-05
3.81463e-05
3.82475e-05
3.82966e-05
3.83162e-05
3.83208e-05
3.83183e-05
3.83135e-05
3.83085e-05
3.83043e-05
3.83016e-05
3.83005e-05
3.83011e-05
3.83037e-05
3.83082e-05
3.83148e-05
3.83238e-05
3.83355e-05
3.83503e-05
3.83687e-05
3.83913e-05
3.8419e-05
3.8453e-05
3.84945e-05
3.85455e-05
3.86083e-05
3.86859e-05
3.87824e-05
3.89033e-05
3.90558e-05
3.92504e-05
3.94993e-05
3.98277e-05
4.02474e-05
4.08524e-05
4.15409e-05
4.28321e-05
4.39355e-05
3.50253e-05
3.16515e-05
3.23791e-05
4.36298e-05
6.126e-05
6.61608e-05
5.38612e-05
4.02988e-05
3.17387e-05
2.70338e-05
2.45179e-05
2.33362e-05
2.31286e-05
2.37597e-05
2.51741e-05
2.72811e-05
2.98397e-05
3.24125e-05
3.45456e-05
3.60455e-05
3.6999e-05
3.75819e-05
3.79312e-05
3.81326e-05
3.82411e-05
3.82937e-05
3.8315e-05
3.83201e-05
3.83178e-05
3.8313e-05
3.83079e-05
3.83037e-05
3.8301e-05
3.82999e-05
3.83005e-05
3.8303e-05
3.83075e-05
3.83142e-05
3.83232e-05
3.83349e-05
3.83497e-05
3.83681e-05
3.83907e-05
3.84185e-05
3.84525e-05
3.84941e-05
3.85452e-05
3.8608e-05
3.86858e-05
3.87825e-05
3.89036e-05
3.90563e-05
3.92512e-05
3.95006e-05
3.98295e-05
4.02497e-05
4.08547e-05
4.15427e-05
4.28264e-05
4.39189e-05
3.50013e-05
3.14601e-05
3.1594e-05
4.09198e-05
5.61912e-05
6.00042e-05
4.90233e-05
3.73969e-05
3.00988e-05
2.60567e-05
2.38639e-05
2.28242e-05
2.26649e-05
2.32999e-05
2.47026e-05
2.68036e-05
2.93853e-05
3.20289e-05
3.42673e-05
3.58693e-05
3.68974e-05
3.75266e-05
3.79024e-05
3.81184e-05
3.82345e-05
3.82908e-05
3.83137e-05
3.83194e-05
3.83174e-05
3.83125e-05
3.83074e-05
3.83032e-05
3.83004e-05
3.82992e-05
3.82999e-05
3.83024e-05
3.83069e-05
3.83135e-05
3.83226e-05
3.83343e-05
3.83491e-05
3.83675e-05
3.83902e-05
3.8418e-05
3.8452e-05
3.84937e-05
3.85448e-05
3.86078e-05
3.86856e-05
3.87825e-05
3.89038e-05
3.90568e-05
3.9252e-05
3.95017e-05
3.98311e-05
4.02519e-05
4.08569e-05
4.15444e-05
4.2821e-05
4.3903e-05
3.49803e-05
3.13037e-05
3.09203e-05
3.84622e-05
5.12967e-05
5.40223e-05
4.4424e-05
3.46899e-05
2.85824e-05
2.51551e-05
2.32611e-05
2.23531e-05
2.2237e-05
2.28717e-05
2.42586e-05
2.63486e-05
2.8946e-05
3.16509e-05
3.39875e-05
3.56894e-05
3.67926e-05
3.74692e-05
3.78726e-05
3.81037e-05
3.82276e-05
3.82878e-05
3.83123e-05
3.83187e-05
3.83169e-05
3.83121e-05
3.83069e-05
3.83026e-05
3.82998e-05
3.82986e-05
3.82992e-05
3.83017e-05
3.83063e-05
3.83129e-05
3.8322e-05
3.83337e-05
3.83485e-05
3.8367e-05
3.83897e-05
3.84175e-05
3.84516e-05
3.84933e-05
3.85445e-05
3.86075e-05
3.86855e-05
3.87825e-05
3.8904e-05
3.90572e-05
3.92527e-05
3.95029e-05
3.98327e-05
4.02539e-05
4.08589e-05
4.15459e-05
4.28157e-05
4.38879e-05
3.4962e-05
3.11766e-05
3.03476e-05
3.62777e-05
4.67372e-05
4.84668e-05
4.02468e-05
3.22551e-05
2.72207e-05
2.43423e-05
2.27152e-05
2.19249e-05
2.18453e-05
2.24751e-05
2.38416e-05
2.59157e-05
2.85221e-05
3.12795e-05
3.37072e-05
3.55062e-05
3.66849e-05
3.741e-05
3.78417e-05
3.80884e-05
3.82205e-05
3.82846e-05
3.8311e-05
3.83181e-05
3.83164e-05
3.83116e-05
3.83064e-05
3.83021e-05
3.82992e-05
3.8298e-05
3.82986e-05
3.83011e-05
3.83056e-05
3.83123e-05
3.83214e-05
3.83331e-05
3.8348e-05
3.83664e-05
3.83891e-05
3.8417e-05
3.84511e-05
3.84929e-05
3.85442e-05
3.86073e-05
3.86854e-05
3.87825e-05
3.89042e-05
3.90576e-05
3.92534e-05
3.9504e-05
3.98342e-05
4.02559e-05
4.08608e-05
4.15473e-05
4.28106e-05
4.38735e-05
3.4946e-05
3.10738e-05
2.98651e-05
3.43705e-05
4.26261e-05
4.35134e-05
3.66022e-05
3.01345e-05
2.60285e-05
2.36244e-05
2.22286e-05
2.15401e-05
2.14897e-05
2.21096e-05
2.34513e-05
2.55048e-05
2.81138e-05
3.09154e-05
3.34272e-05
3.53203e-05
3.65744e-05
3.73489e-05
3.78097e-05
3.80726e-05
3.82132e-05
3.82814e-05
3.83096e-05
3.83174e-05
3.83159e-05
3.83112e-05
3.8306e-05
3.83016e-05
3.82987e-05
3.82975e-05
3.82981e-05
3.83006e-05
3.83051e-05
3.83117e-05
3.83208e-05
3.83326e-05
3.83474e-05
3.83659e-05
3.83887e-05
3.84166e-05
3.84507e-05
3.84926e-05
3.85439e-05
3.86071e-05
3.86853e-05
3.87825e-05
3.89044e-05
3.9058e-05
3.92541e-05
3.9505e-05
3.98356e-05
4.02578e-05
4.08626e-05
4.15486e-05
4.28058e-05
4.386e-05
3.4932e-05
3.09911e-05
2.94623e-05
3.27327e-05
3.9027e-05
3.92527e-05
3.35282e-05
2.83386e-05
2.50078e-05
2.30018e-05
2.18013e-05
2.11983e-05
2.11694e-05
2.17747e-05
2.30872e-05
2.51154e-05
2.77213e-05
3.05594e-05
3.31482e-05
3.5132e-05
3.64612e-05
3.7286e-05
3.77767e-05
3.80562e-05
3.82055e-05
3.82781e-05
3.83081e-05
3.83167e-05
3.83155e-05
3.83108e-05
3.83055e-05
3.83011e-05
3.82982e-05
3.82969e-05
3.82975e-05
3.83e-05
3.83045e-05
3.83112e-05
3.83203e-05
3.8332e-05
3.83469e-05
3.83654e-05
3.83882e-05
3.84161e-05
3.84503e-05
3.84922e-05
3.85436e-05
3.86069e-05
3.86852e-05
3.87826e-05
3.89046e-05
3.90584e-05
3.92548e-05
3.9506e-05
3.9837e-05
4.02595e-05
4.08643e-05
4.15497e-05
4.28011e-05
4.38471e-05
3.49198e-05
3.09251e-05
2.91287e-05
3.13472e-05
3.59587e-05
3.56981e-05
3.10066e-05
2.68548e-05
2.41513e-05
2.24706e-05
2.14311e-05
2.08977e-05
2.0883e-05
2.14692e-05
2.27485e-05
2.47472e-05
2.73445e-05
3.0212e-05
3.28709e-05
3.49419e-05
3.63458e-05
3.72214e-05
3.77427e-05
3.80394e-05
3.81977e-05
3.82746e-05
3.83067e-05
3.8316e-05
3.83151e-05
3.83103e-05
3.83051e-05
3.83006e-05
3.82976e-05
3.82964e-05
3.8297e-05
3.82994e-05
3.83039e-05
3.83106e-05
3.83197e-05
3.83315e-05
3.83464e-05
3.83649e-05
3.83877e-05
3.84157e-05
3.84499e-05
3.84919e-05
3.85433e-05
3.86067e-05
3.86851e-05
3.87826e-05
3.89047e-05
3.90588e-05
3.92554e-05
3.95069e-05
3.98383e-05
4.02612e-05
4.08659e-05
4.15507e-05
4.27966e-05
4.3835e-05
3.49092e-05
3.08727e-05
2.88549e-05
3.01914e-05
3.34041e-05
3.28065e-05
2.89827e-05
2.5654e-05
2.34457e-05
2.20244e-05
2.11144e-05
2.0636e-05
2.06286e-05
2.1192e-05
2.24346e-05
2.43997e-05
2.69834e-05
2.98736e-05
3.25962e-05
3.47504e-05
3.62281e-05
3.71551e-05
3.77077e-05
3.8022e-05
3.81896e-05
3.82711e-05
3.83052e-05
3.83153e-05
3.83146e-05
3.831e-05
3.83046e-05
3.83002e-05
3.82971e-05
3.82959e-05
3.82964e-05
3.82989e-05
3.83034e-05
3.83101e-05
3.83192e-05
3.8331e-05
3.83459e-05
3.83645e-05
3.83873e-05
3.84153e-05
3.84496e-05
3.84915e-05
3.8543e-05
3.86065e-05
3.8685e-05
3.87826e-05
3.89049e-05
3.90591e-05
3.9256e-05
3.95078e-05
3.98395e-05
4.02628e-05
4.08673e-05
4.15517e-05
4.27923e-05
4.38236e-05
3.48999e-05
3.08315e-05
2.86322e-05
2.92396e-05
3.13207e-05
3.05016e-05
2.73829e-05
2.46962e-05
2.28724e-05
2.16543e-05
2.08463e-05
2.041e-05
2.04042e-05
2.09415e-05
2.21444e-05
2.40724e-05
2.66378e-05
2.95447e-05
3.23245e-05
3.45582e-05
3.61086e-05
3.70873e-05
3.76717e-05
3.80041e-05
3.81812e-05
3.82674e-05
3.83036e-05
3.83146e-05
3.83142e-05
3.83096e-05
3.83042e-05
3.82997e-05
3.82967e-05
3.82954e-05
3.82959e-05
3.82984e-05
3.83029e-05
3.83096e-05
3.83187e-05
3.83305e-05
3.83455e-05
3.8364e-05
3.83869e-05
3.84149e-05
3.84492e-05
3.84912e-05
3.85428e-05
3.86063e-05
3.86848e-05
3.87826e-05
3.8905e-05
3.90595e-05
3.92565e-05
3.95087e-05
3.98407e-05
4.02643e-05
4.08687e-05
4.15525e-05
4.27882e-05
4.38129e-05
3.48918e-05
3.07995e-05
2.84528e-05
2.84653e-05
2.96517e-05
2.86936e-05
2.61314e-05
2.39382e-05
2.24102e-05
2.13499e-05
2.06214e-05
2.02164e-05
2.02074e-05
2.07161e-05
2.18769e-05
2.37645e-05
2.63076e-05
2.92256e-05
3.20565e-05
3.43655e-05
3.59875e-05
3.70181e-05
3.76349e-05
3.79857e-05
3.81727e-05
3.82637e-05
3.83021e-05
3.83139e-05
3.83138e-05
3.83092e-05
3.83038e-05
3.82993e-05
3.82962e-05
3.82949e-05
3.82954e-05
3.82979e-05
3.83024e-05
3.83091e-05
3.83183e-05
3.83301e-05
3.8345e-05
3.83636e-05
3.83865e-05
3.84145e-05
3.84489e-05
3.84909e-05
3.85425e-05
3.86061e-05
3.86847e-05
3.87826e-05
3.89052e-05
3.90598e-05
3.92571e-05
3.95095e-05
3.98418e-05
4.02657e-05
4.087e-05
4.15533e-05
4.27843e-05
4.38029e-05
3.48848e-05
3.07748e-05
2.83098e-05
2.7843e-05
2.83351e-05
2.72931e-05
2.51605e-05
2.33424e-05
2.20402e-05
2.11015e-05
2.04343e-05
2.00518e-05
2.00357e-05
2.05141e-05
2.1631e-05
2.34755e-05
2.59925e-05
2.89164e-05
3.17927e-05
3.41729e-05
3.58649e-05
3.69476e-05
3.75972e-05
3.79669e-05
3.81639e-05
3.82599e-05
3.83005e-05
3.83132e-05
3.83134e-05
3.83089e-05
3.83035e-05
3.82989e-05
3.82958e-05
3.82944e-05
3.8295e-05
3.82974e-05
3.8302e-05
3.83087e-05
3.83178e-05
3.83296e-05
3.83446e-05
3.83632e-05
3.83861e-05
3.84142e-05
3.84485e-05
3.84906e-05
3.85423e-05
3.86059e-05
3.86847e-05
3.87826e-05
3.89053e-05
3.90601e-05
3.92576e-05
3.95102e-05
3.98428e-05
4.0267e-05
4.08712e-05
4.1554e-05
4.27807e-05
4.37935e-05
3.48786e-05
3.07562e-05
2.81971e-05
2.73485e-05
2.73102e-05
2.62191e-05
2.44127e-05
2.28772e-05
2.17461e-05
2.09004e-05
2.02799e-05
1.99129e-05
1.98867e-05
2.03336e-05
2.14054e-05
2.32047e-05
2.56921e-05
2.86173e-05
3.15334e-05
3.39808e-05
3.57413e-05
3.68759e-05
3.75587e-05
3.79476e-05
3.81549e-05
3.8256e-05
3.82989e-05
3.83125e-05
3.8313e-05
3.83085e-05
3.83031e-05
3.82985e-05
3.82953e-05
3.8294e-05
3.82945e-05
3.8297e-05
3.83015e-05
3.83082e-05
3.83174e-05
3.83292e-05
3.83442e-05
3.83628e-05
3.83857e-05
3.84138e-05
3.84482e-05
3.84904e-05
3.85421e-05
3.86058e-05
3.86846e-05
3.87826e-05
3.89054e-05
3.90604e-05
3.9258e-05
3.95109e-05
3.98438e-05
4.02682e-05
4.08723e-05
4.15546e-05
4.27772e-05
4.37849e-05
3.48732e-05
3.07424e-05
2.81094e-05
2.69604e-05
2.65215e-05
2.54024e-05
2.38406e-05
2.25167e-05
2.15144e-05
2.07392e-05
2.01536e-05
1.97965e-05
1.97581e-05
2.01728e-05
2.11989e-05
2.29512e-05
2.54062e-05
2.83283e-05
3.12792e-05
3.37897e-05
3.56168e-05
3.68032e-05
3.75195e-05
3.79279e-05
3.81457e-05
3.8252e-05
3.82973e-05
3.83119e-05
3.83126e-05
3.83082e-05
3.83028e-05
3.82981e-05
3.82949e-05
3.82936e-05
3.82941e-05
3.82966e-05
3.83011e-05
3.83078e-05
3.8317e-05
3.83288e-05
3.83438e-05
3.83624e-05
3.83854e-05
3.84135e-05
3.84479e-05
3.84901e-05
3.85419e-05
3.86056e-05
3.86845e-05
3.87826e-05
3.89055e-05
3.90606e-05
3.92585e-05
3.95116e-05
3.98447e-05
4.02694e-05
4.08733e-05
4.15551e-05
4.2774e-05
4.37769e-05
3.48685e-05
3.07325e-05
2.80423e-05
2.66595e-05
2.59212e-05
2.47861e-05
2.34058e-05
2.22395e-05
2.13333e-05
2.0611e-05
2.00513e-05
1.96997e-05
1.96477e-05
2.00301e-05
2.10102e-05
2.27143e-05
2.51343e-05
2.80495e-05
3.10304e-05
3.35999e-05
3.54917e-05
3.67296e-05
3.74797e-05
3.79078e-05
3.81363e-05
3.82479e-05
3.82956e-05
3.83112e-05
3.83123e-05
3.83079e-05
3.83025e-05
3.82978e-05
3.82946e-05
3.82932e-05
3.82937e-05
3.82962e-05
3.83007e-05
3.83074e-05
3.83166e-05
3.83285e-05
3.83435e-05
3.83621e-05
3.83851e-05
3.84132e-05
3.84477e-05
3.84899e-05
3.85417e-05
3.86055e-05
3.86844e-05
3.87826e-05
3.89056e-05
3.90608e-05
3.92589e-05
3.95122e-05
3.98455e-05
4.02704e-05
4.08742e-05
4.15556e-05
4.27709e-05
4.37695e-05
3.48644e-05
3.07257e-05
2.79919e-05
2.64293e-05
2.5469e-05
2.43245e-05
2.30778e-05
2.20281e-05
2.11933e-05
2.05102e-05
1.99692e-05
1.96199e-05
1.95533e-05
1.99038e-05
2.08381e-05
2.24932e-05
2.48761e-05
2.77808e-05
3.07871e-05
3.34117e-05
3.53663e-05
3.66551e-05
3.74392e-05
3.78874e-05
3.81268e-05
3.82438e-05
3.82939e-05
3.83105e-05
3.83119e-05
3.83077e-05
3.83022e-05
3.82974e-05
3.82942e-05
3.82928e-05
3.82933e-05
3.82958e-05
3.83003e-05
3.83071e-05
3.83162e-05
3.83281e-05
3.83431e-05
3.83618e-05
3.83848e-05
3.84129e-05
3.84474e-05
3.84896e-05
3.85415e-05
3.86053e-05
3.86843e-05
3.87826e-05
3.89057e-05
3.90611e-05
3.92592e-05
3.95128e-05
3.98463e-05
4.02714e-05
4.0875e-05
4.15561e-05
4.27681e-05
4.37628e-05
3.48608e-05
3.07213e-05
2.7955e-05
2.62559e-05
2.51322e-05
2.39819e-05
2.28326e-05
2.18687e-05
2.10864e-05
2.04319e-05
1.99042e-05
1.95548e-05
1.94732e-05
1.97923e-05
2.06813e-05
2.2287e-05
2.4631e-05
2.75221e-05
3.05497e-05
3.32256e-05
3.52408e-05
3.65801e-05
3.73982e-05
3.78667e-05
3.81171e-05
3.82396e-05
3.82923e-05
3.83098e-05
3.83116e-05
3.83074e-05
3.83019e-05
3.82971e-05
3.82939e-05
3.82924e-05
3.82929e-05
3.82954e-05
3.83e-05
3.83067e-05
3.83159e-05
3.83278e-05
3.83428e-05
3.83615e-05
3.83845e-05
3.84127e-05
3.84472e-05
3.84894e-05
3.85413e-05
3.86052e-05
3.86842e-05
3.87826e-05
3.89058e-05
3.90613e-05
3.92596e-05
3.95133e-05
3.9847e-05
4.02723e-05
4.08758e-05
4.15565e-05
4.27655e-05
4.37568e-05
3.48576e-05
3.07189e-05
2.79289e-05
2.61276e-05
2.48845e-05
2.37303e-05
2.26516e-05
2.17502e-05
2.10059e-05
2.03721e-05
1.98535e-05
1.95023e-05
1.94056e-05
1.9694e-05
2.05388e-05
2.2095e-05
2.43986e-05
2.72734e-05
3.03184e-05
3.30418e-05
3.51154e-05
3.65045e-05
3.73568e-05
3.78457e-05
3.81072e-05
3.82353e-05
3.82906e-05
3.83092e-05
3.83113e-05
3.83072e-05
3.83016e-05
3.82968e-05
3.82936e-05
3.82921e-05
3.82926e-05
3.82951e-05
3.82996e-05
3.83064e-05
3.83156e-05
3.83275e-05
3.83425e-05
3.83612e-05
3.83842e-05
3.84124e-05
3.8447e-05
3.84892e-05
3.85412e-05
3.86051e-05
3.86842e-05