/*--------------------------------*- C++ -*----------------------------------*\
| =========                 |                                                 |
| \\      /  F ield         | OpenFOAM: The Open Source CFD Toolbox           |
|  \\    /   O peration     | Version:  2.4.0                                 |
|   \\  /    A nd           | Web:      www.OpenFOAM.org                      |
|    \\/     M anipulation  |                                                 |
\*---------------------------------------------------------------------------*/
FoamFile
{
    version     2.0;
    format      ascii;
    class       volScalarField;
    location    "0.81";
    object      epsilon;
}
// * * * * * * * * * * * * * * * * * * * * * * * * * * * * * * * * * * * * * //

dimensions      [0 2 -3 0 0 0 0];

internalField   nonuniform List<scalar> 
6000
(
0.994548
0.372462
0.0437112
0.016594
0.0153816
0.0175541
0.0536096
0.0822469
0.0791042
0.055697
0.0329103
0.0183328
0.0100496
0.00575391
0.0037362
0.00333067
0.00493038
0.00711142
0.00945158
0.0117792
0.013919
0.0157334
0.0171622
0.0182314
0.0190207
0.0196199
0.0201019
0.0205173
0.0209025
0.0212861
0.0216928
0.0221443
0.0226602
0.0232583
0.0239557
0.0247705
0.0257224
0.0268346
0.0281347
0.0296561
0.03144
0.0335373
0.0360113
0.0389419
0.0424305
0.0466078
0.0516436
0.0577611
0.0652607
0.0745564
0.0862204
0.101065
0.120228
0.1455
0.179191
0.226175
0.289989
0.391121
0.515497
0.793025
0.55832
0.339706
0.0216397
0.0105307
0.012527
0.0243322
0.025649
0.0197919
0.0117739
0.006242
0.00428402
0.00296619
0.00216599
0.00177775
0.00168886
0.00186183
0.00220525
0.00260575
0.00307225
0.0036086
0.00419376
0.00477208
0.00527071
0.00563852
0.00587154
0.00600231
0.00607087
0.00610574
0.00612224
0.00612898
0.0061332
0.00614229
0.00616314
0.00620145
0.00626173
0.00634777
0.00646319
0.00661187
0.00679829
0.00702785
0.00730716
0.00764445
0.00805013
0.00853755
0.00912366
0.00982977
0.0106834
0.0117206
0.0129899
0.014556
0.0165054
0.01896
0.0220977
0.0261618
0.0315717
0.0388282
0.0491516
0.0632734
0.0861395
0.120365
0.417204
0.396653
0.0286271
0.0084263
0.0111979
0.0133788
0.0104652
0.00685127
0.00376899
0.00279537
0.00248535
0.00201288
0.00163151
0.00144337
0.00139379
0.00142498
0.00148274
0.00155184
0.00163962
0.00175762
0.0019126
0.0020951
0.0022766
0.00242328
0.00251655
0.00256013
0.00257006
0.00256162
0.00254388
0.00252128
0.0024966
0.00247259
0.00245201
0.00243718
0.0024298
0.00243107
0.0024419
0.00246315
0.00249572
0.00254071
0.00259947
0.00267374
0.00276575
0.0028783
0.00301489
0.00317995
0.00337917
0.00362007
0.00391271
0.0042696
0.00470834
0.00525269
0.00593722
0.00680562
0.00794063
0.00940313
0.0114876
0.014049
0.0185609
0.0227403
0.367977
0.395004
0.0485145
0.00566327
0.00716278
0.00746505
0.0058746
0.00390703
0.00273096
0.00265696
0.00254103
0.00205652
0.00161096
0.00137435
0.00127849
0.00124799
0.00123902
0.00123307
0.00122671
0.0012245
0.00123489
0.00126312
0.00130475
0.00134662
0.00137593
0.00138807
0.00138636
0.00137662
0.00136312
0.00134801
0.0013324
0.00131723
0.00130349
0.00129211
0.00128374
0.00127884
0.00127768
0.00128048
0.00128747
0.00129892
0.00131517
0.00133668
0.00136404
0.001398
0.0014395
0.00148969
0.00155007
0.00162281
0.00171037
0.001816
0.00194418
0.00210074
0.00229416
0.0025341
0.0028413
0.00322187
0.00376184
0.00436481
0.0055072
0.00613929
0.34364
0.369185
0.0714189
0.00443778
0.00483487
0.0052226
0.00439148
0.00324252
0.00289607
0.00312377
0.00300766
0.00235548
0.00173626
0.00139636
0.00124422
0.0011798
0.00114978
0.0011254
0.00109593
0.00105986
0.00102287
0.000993369
0.0009762
0.000969379
0.00096674
0.000963176
0.000957118
0.000949349
0.000940998
0.000932686
0.000924662
0.000917129
0.000910372
0.000904705
0.000900382
0.000897577
0.000896396
0.000896917
0.000899216
0.000903388
0.000909563
0.00091791
0.000928651
0.000942066
0.000958501
0.000978408
0.00100246
0.00103147
0.0010663
0.00110818
0.00115876
0.00122015
0.00129541
0.00138782
0.00150488
0.0016476
0.0018481
0.00206824
0.00248479
0.00271196
0.330027
0.336398
0.0949908
0.00518312
0.00414791
0.00456445
0.00398157
0.00333924
0.00343296
0.00382507
0.00366602
0.00279845
0.00195385
0.00147675
0.00125458
0.00115563
0.0011102
0.00107916
0.00104591
0.00100355
0.00095396
0.000904958
0.000864547
0.000836062
0.000817699
0.000805604
0.000796776
0.000789747
0.000783929
0.000779003
0.000774739
0.000771011
0.000767806
0.000765185
0.000763222
0.000761977
0.000761493
0.000761803
0.000762945
0.000764968
0.000767939
0.00077195
0.000777118
0.000783597
0.00079158
0.000801296
0.000813108
0.000827406
0.000844696
0.000865641
0.00089112
0.00092226
0.000960684
0.00100819
0.00106863
0.0011432
0.00124772
0.00136494
0.0015897
0.00174898
0.321791
0.304174
0.112964
0.00934797
0.00437184
0.00458159
0.00406722
0.00378208
0.00416245
0.00468392
0.00446486
0.00336298
0.00225863
0.0016125
0.00130166
0.00115841
0.0010922
0.0010532
0.00101956
0.000979185
0.000929573
0.000876338
0.000828055
0.000790553
0.000764693
0.000747984
0.000737281
0.000730229
0.000725388
0.000721909
0.000719286
0.00071723
0.000715603
0.000714354
0.000713478
0.000712983
0.000712882
0.000713195
0.000713945
0.000715164
0.000716898
0.000719208
0.000722171
0.000725885
0.000730482
0.000736162
0.000743114
0.000751593
0.000761957
0.000774672
0.000790361
0.000809824
0.000834215
0.000864899
0.000904563
0.000954372
0.00102554
0.00110691
0.00126948
0.00140719
0.316297
0.275494
0.125149
0.0164696
0.00507457
0.00494556
0.00444692
0.00442881
0.00502446
0.00565596
0.00535827
0.00401755
0.00263939
0.00180013
0.00138303
0.00118488
0.00108975
0.00103745
0.00100115
0.000963766
0.000918031
0.000866453
0.000816892
0.000776278
0.000747118
0.000728045
0.00071618
0.000708897
0.000704365
0.000701453
0.000699501
0.000698137
0.000697165
0.000696487
0.000696064
0.000695882
0.000695942
0.000696254
0.000696836
0.000697713
0.000698919
0.000700498
0.000702507
0.000705022
0.000708136
0.000711996
0.000716772
0.000722664
0.000729948
0.000738991
0.000750288
0.000764492
0.000782563
0.00080563
0.000836034
0.000874795
0.000931746
0.000998108
0.00113655
0.00126411
0.312304
0.251204
0.132641
0.0257217
0.00608192
0.00554945
0.00503903
0.00522428
0.00599418
0.00671245
0.00630496
0.00472206
0.00307588
0.00203191
0.00149549
0.00123461
0.00110219
0.0010305
0.000987446
0.000951253
0.000909799
0.000861823
0.000813643
0.00077254
0.000742106
0.000721865
0.000709308
0.000701785
0.000697304
0.000694588
0.00069289
0.000691793
0.000691073
0.000690616
0.000690367
0.000690303
0.000690421
0.000690728
0.000691238
0.000691974
0.000692964
0.000694247
0.000695872
0.000697906
0.000700437
0.000703557
0.000707406
0.000712171
0.000718094
0.000725493
0.000734803
0.000746601
0.000761743
0.000781267
0.000807292
0.00084103
0.000891212
0.000950193
0.00107759
0.00119898
0.309251
0.231202
0.136287
0.0363668
0.00742408
0.0063616
0.00581058
0.00614985
0.00706741
0.00784353
0.00727781
0.00543794
0.00354219
0.00229635
0.00163512
0.00130546
0.00112904
0.00103257
0.00097839
0.000940605
0.000902434
0.000858394
0.000812583
0.000772098
0.000741297
0.000720456
0.00070745
0.000699707
0.000695173
0.000692496
0.000690875
0.000689866
0.000689231
0.000688847
0.000688655
0.00068863
0.000688765
0.000689066
0.000689547
0.000690229
0.000691138
0.00069231
0.000693789
0.000695633
0.000697916
0.000700741
0.000704229
0.000708546
0.000713911
0.000720618
0.00072907
0.000739803
0.000753621
0.000771504
0.000795475
0.000826701
0.000873643
0.000928989
0.0010508
0.00116804
0.306851
0.215007
0.13692
0.0473477
0.00959704
0.00737485
0.00675259
0.00720648
0.00825583
0.00905675
0.00826709
0.00613724
0.00401177
0.00257994
0.00179778
0.00139365
0.00116882
0.00104353
0.000974402
0.000932039
0.000895565
0.00085512
0.000811984
0.000772588
0.000741818
0.000720626
0.000707276
0.000699315
0.00069468
0.000691971
0.00069035
0.000689354
0.000688735
0.000688366
0.000688186
0.000688167
0.000688303
0.000688599
0.000689069
0.000689731
0.000690613
0.000691747
0.000693177
0.000694958
0.000697163
0.000699883
0.000703239
0.00070739
0.000712545
0.000718987
0.0007271
0.000737399
0.000750661
0.000767834
0.000790891
0.000820976
0.000866402
0.000919979
0.00103876
0.00115292
0.304929
0.202031
0.135334
0.0576984
0.0128416
0.00859221
0.00786947
0.00840652
0.00958086
0.0103686
0.00927539
0.00680654
0.00446242
0.00286832
0.00198026
0.00149439
0.00121904
0.0010626
0.000975642
0.000925941
0.000889354
0.000851825
0.000811376
0.000773286
0.000742738
0.000721306
0.000707652
0.000699468
0.000694702
0.000691926
0.000690272
0.000689257
0.000688627
0.00068825
0.000688064
0.00068804
0.000688171
0.000688462
0.000688926
0.000689581
0.000690453
0.000691576
0.000692992
0.000694756
0.000696938
0.000699628
0.000702946
0.000707046
0.000712137
0.000718492
0.00072649
0.000736637
0.000749696
0.000766599
0.000789296
0.000818914
0.000863685
0.000916463
0.0010334
0.00114513
0.303367
0.191702
0.132243
0.066723
0.0171261
0.0100268
0.00917284
0.00976765
0.011066
0.0117941
0.0103086
0.0074448
0.0048802
0.00315798
0.00216912
0.00160216
0.0012766
0.00108837
0.000981869
0.000922576
0.000884054
0.000848569
0.000810652
0.000773977
0.000743766
0.000722152
0.000708209
0.000699794
0.000694881
0.00069202
0.000690316
0.000689269
0.000688616
0.000688223
0.000688025
0.000687992
0.000688116
0.000688402
0.000688862
0.000689513
0.000690383
0.000691504
0.000692917
0.000694678
0.000696856
0.000699542
0.000702853
0.000706945
0.000712023
0.000718361
0.000726334
0.000736444
0.000749451
0.000766279
0.000788867
0.000818338
0.000862866
0.00091533
0.00103095
0.00114064
0.302083
0.183514
0.128246
0.073993
0.0222364
0.0117477
0.0106765
0.0113079
0.0127298
0.0133386
0.0113681
0.00805707
0.00525983
0.0034484
0.00235443
0.00171152
0.00133812
0.00111903
0.000992478
0.000922014
0.000879891
0.000845472
0.000809815
0.000774599
0.000744809
0.000723057
0.000708834
0.000700181
0.00069511
0.000692152
0.000690391
0.000689306
0.000688626
0.000688214
0.000688001
0.000687958
0.000688075
0.000688356
0.000688812
0.000689461
0.00069033
0.00069145
0.000692864
0.000694626
0.000696806
0.000699495
0.00070281
0.000706907
0.00071199
0.000718333
0.000726312
0.000736429
0.000749441
0.000766272
0.000788858
0.00081832
0.000862787
0.00091516
0.00102969
0.00113756
0.30102
0.177043
0.123813
0.0793425
0.0278977
0.0138231
0.0123913
0.013042
0.0145811
0.0149938
0.0124465
0.00864818
0.00562011
0.00371964
0.00252863
0.00181757
0.00140036
0.00115263
0.0010066
0.000924132
0.000877021
0.000842658
0.000808897
0.000775136
0.000745834
0.000723982
0.00070949
0.000700595
0.000695357
0.000692297
0.000690472
0.000689347
0.000688639
0.000688205
0.000687977
0.000687924
0.000688033
0.000688309
0.000688762
0.00068941
0.000690278
0.000691398
0.000692814
0.000694578
0.000696761
0.000699455
0.000702776
0.00070688
0.000711973
0.000718329
0.000726324
0.00073646
0.000749496
0.000766358
0.000788981
0.000818488
0.000862966
0.000915338
0.00102888
0.00113506
0.300135
0.171942
0.119288
0.0828126
0.0338373
0.0162913
0.0143193
0.0149785
0.0166165
0.0167373
0.0135281
0.00921954
0.00597711
0.00396331
0.00268656
0.00191637
0.00146054
0.00118727
0.00102323
0.000928647
0.000875523
0.000840247
0.000807943
0.000775586
0.000746828
0.000724915
0.000710162
0.000701024
0.000695614
0.000692447
0.000690556
0.000689387
0.00068865
0.000688195
0.000687952
0.000687888
0.000687991
0.000688262
0.000688712
0.000689358
0.000690226
0.000691347
0.000692763
0.00069453
0.000696717
0.000699415
0.000702742
0.000706855
0.000711958
0.000718328
0.00072634
0.000736499
0.000749565
0.000766465
0.000789137
0.000818705
0.000863216
0.000915614
0.00102822
0.00113279
0.299396
0.167929
0.114909
0.0845867
0.0397689
0.0191649
0.016458
0.0171184
0.0188203
0.018535
0.0145907
0.00976949
0.00633786
0.00417959
0.00282545
0.00200515
0.00151646
0.0012213
0.00104133
0.000935156
0.000875396
0.000838335
0.000807007
0.000775958
0.000747783
0.000725847
0.000710847
0.000701464
0.000695878
0.000692599
0.000690639
0.000689427
0.00068866
0.000688184
0.000687926
0.000687851
0.000687947
0.000688214
0.000688661
0.000689306
0.000690173
0.000691294
0.000692713
0.000694482
0.000696672
0.000699375
0.000702708
0.000706829
0.000711942
0.000718325
0.000726355
0.000736536
0.000749633
0.000766572
0.000789293
0.000818926
0.000863472
0.000915898
0.00102759
0.00113063
0.298775
0.164779
0.110829
0.08493
0.0454079
0.0224292
0.0187884
0.0194554
0.0211647
0.0203442
0.0156079
0.0103248
0.00667521
0.00436947
0.00294447
0.00208234
0.0015666
0.00125339
0.00105994
0.000943194
0.000876568
0.000836998
0.000806143
0.000776262
0.000748696
0.000726772
0.00071154
0.000701913
0.000696148
0.000692754
0.000690724
0.000689466
0.000688668
0.000688172
0.000687899
0.000687814
0.000687903
0.000688165
0.00068861
0.000689254
0.00069012
0.000691243
0.000692662
0.000694434
0.000696627
0.000699334
0.000702674
0.000706802
0.000711926
0.000718321
0.000726368
0.000736571
0.000749696
0.000766675
0.000789444
0.000819139
0.000863716
0.000916161
0.00102696
0.00112855
0.298254
0.162313
0.107133
0.0841416
0.0504918
0.0260501
0.0212644
0.0219763
0.023609
0.0221166
0.0165541
0.010887
0.00698419
0.0045341
0.00304406
0.00214739
0.00161014
0.00128263
0.00107825
0.000952279
0.00087891
0.00083628
0.000805403
0.000776516
0.000749565
0.000727688
0.000712239
0.00070237
0.000696423
0.000692911
0.000690808
0.000689505
0.000688676
0.000688158
0.000687871
0.000687776
0.000687859
0.000688117
0.000688559
0.000689202
0.000690068
0.000691191
0.000692612
0.000694386
0.000696583
0.000699295
0.00070264
0.000706775
0.000711909
0.000718317
0.000726379
0.000736604
0.000749757
0.000766772
0.000789588
0.000819341
0.000863944
0.000916398
0.00102634
0.00112653
0.297814
0.16039
0.103858
0.0825189
0.054803
0.0299568
0.0238501
0.0246272
0.0260911
0.0237963
0.0174423
0.0114318
0.00725885
0.00467391
0.00312531
0.00220055
0.0016468
0.00130846
0.00109563
0.000961955
0.000882256
0.000836201
0.000804837
0.00077674
0.00075039
0.00072859
0.00071294
0.000702833
0.000696703
0.00069307
0.000690892
0.000689542
0.000688683
0.000688144
0.000687843
0.000687738
0.000687814
0.000688068
0.000688508
0.00068915
0.000690017
0.00069114
0.000692563
0.000694339
0.000696539
0.000699255
0.000702606
0.000706749
0.000711891
0.000718312
0.00072639
0.000736635
0.000749815
0.000766865
0.000789725
0.000819533
0.000864158
0.000916612
0.00102572
0.00112459
0.297442
0.158895
0.10101
0.0803338
0.0581882
0.0340412
0.0265268
0.0273222
0.028513
0.0253015
0.0183207
0.0119096
0.00749234
0.00478858
0.00318947
0.00224259
0.00167679
0.00133068
0.00111166
0.000971826
0.000886417
0.000836753
0.000804486
0.000776955
0.000751176
0.000729476
0.000713643
0.000703301
0.000696986
0.000693231
0.000690977
0.000689579
0.000688689
0.000688129
0.000687813
0.000687699
0.000687769
0.00068802
0.000688458
0.000689099
0.000689966
0.00069109
0.000692514
0.000694293
0.000696496
0.000699216
0.000702573
0.000706722
0.000711874
0.000718306
0.000726399
0.000736665
0.00074987
0.000766955
0.000789856
0.000819717
0.000864359
0.000916804
0.00102511
0.00112272
0.297128
0.15774
0.0985714
0.0778198
0.0605683
0.0381634
0.0292877
0.0299693
0.0307409
0.0267141
0.0191262
0.0123059
0.007679
0.00487749
0.00323777
0.00227453
0.00170059
0.00134936
0.0011261
0.000981572
0.0008912
0.000837904
0.000804385
0.000777186
0.000751927
0.000730346
0.000714345
0.000703773
0.000697273
0.000693393
0.000691061
0.000689616
0.000688694
0.000688114
0.000687784
0.00068766
0.000687724
0.000687971
0.000688408
0.000689048
0.000689915
0.000691041
0.000692467
0.000694247
0.000696454
0.000699178
0.00070254
0.000706696
0.000711857
0.0007183
0.000726408
0.000736693
0.000749923
0.000767041
0.000789983
0.000819893
0.000864547
0.000916978
0.00102452
0.00112093
0.296861
0.156855
0.0965128
0.0751665
0.0619397
0.0421606
0.0321275
0.0324929
0.0327622
0.0280079
0.0198028
0.0126109
0.00781467
0.00494008
0.00327131
0.00229753
0.00171892
0.00136475
0.00113887
0.00099096
0.000896421
0.000839609
0.000804557
0.000777454
0.000752649
0.000731198
0.000715044
0.000704249
0.000697562
0.000693556
0.000691145
0.000689651
0.000688698
0.000688097
0.000687753
0.000687621
0.000687679
0.000687923
0.000688358
0.000688997
0.000689865
0.000690992
0.000692419
0.000694203
0.000696412
0.00069914
0.000702507
0.000706671
0.00071184
0.000718294
0.000726416
0.000736719
0.000749974
0.000767123
0.000790104
0.000820061
0.000864725
0.000917135
0.00102394
0.00111922
0.296634
0.156184
0.0947974
0.0725193
0.0623652
0.0458584
0.0350331
0.0348553
0.0345818
0.029143
0.0203331
0.0128185
0.00789698
0.0049762
0.00329119
0.00231275
0.00173257
0.00137726
0.00115002
0.000999838
0.00090192
0.000841806
0.000805019
0.000777784
0.00075335
0.000732032
0.00071574
0.000704726
0.000697854
0.00069372
0.000691229
0.000689685
0.000688702
0.00068808
0.000687723
0.000687581
0.000687634
0.000687875
0.000688308
0.000688948
0.000689816
0.000690944
0.000692373
0.000694158
0.000696371
0.000699104
0.000702476
0.000706645
0.000711823
0.000718288
0.000726424
0.000736745
0.000750023
0.000767203
0.00079022
0.000820221
0.000864893
0.000917277
0.00102339
0.00111759
0.29644
0.155682
0.0933862
0.0699831
0.0619596
0.0490859
0.0379741
0.0370567
0.036209
0.0300977
0.0207075
0.0129256
0.00792541
0.00498635
0.00329852
0.00232131
0.00174234
0.00138734
0.00115972
0.00100813
0.000907559
0.00084443
0.000805774
0.000778193
0.000754039
0.00073285
0.000716432
0.000705205
0.000698147
0.000693885
0.000691313
0.000689719
0.000688704
0.000688062
0.000687691
0.000687542
0.000687589
0.000687827
0.000688259
0.000688898
0.000689767
0.000690896
0.000692327
0.000694115
0.000696331
0.000699067
0.000702444
0.000706621
0.000711806
0.000718281
0.000726431
0.000736769
0.00075007
0.000767279
0.000790331
0.000820374
0.000865051
0.000917406
0.00102284
0.00111604
0.296275
0.155314
0.0922403
0.0676286
0.0608711
0.0516911
0.0408951
0.0391243
0.0376611
0.0308603
0.0209196
0.0129321
0.00790118
0.00497174
0.00329453
0.00232431
0.00174903
0.0013955
0.00116816
0.00101583
0.000913233
0.000847412
0.000806822
0.000778701
0.000754725
0.000733652
0.000717119
0.000705684
0.000698442
0.00069405
0.000691396
0.000689752
0.000688705
0.000688043
0.000687659
0.000687502
0.000687544
0.000687779
0.00068821
0.000688849
0.000689719
0.000690849
0.000692282
0.000694073
0.000696292
0.000699032
0.000702414
0.000706596
0.000711789
0.000718275
0.000726437
0.000736792
0.000750115
0.000767352
0.000790437
0.00082052
0.000865199
0.000917523
0.00102232
0.00111456
0.296133
0.155054
0.0913229
0.0654979
0.0592635
0.0535571
0.0437107
0.0410928
0.0389605
0.0314232
0.0209657
0.0128399
0.00782711
0.00493432
0.00328061
0.00232281
0.0017534
0.00140221
0.00117559
0.00102296
0.000918863
0.000850685
0.00080815
0.000779321
0.000755419
0.000734443
0.0007178
0.000706164
0.000698739
0.000694216
0.000691479
0.000689783
0.000688706
0.000688024
0.000687627
0.000687461
0.000687499
0.000687732
0.000688162
0.000688801
0.000689671
0.000690803
0.000692238
0.000694031
0.000696253
0.000698997
0.000702384
0.000706572
0.000711773
0.000718268
0.000726442
0.000736814
0.000750157
0.000767421
0.000790539
0.000820659
0.000865338
0.000917628
0.00102182
0.00111316
0.296011
0.154878
0.0906003
0.0636109
0.0573004
0.0546147
0.0463076
0.0429815
0.0401237
0.0317775
0.020844
0.0126535
0.00770741
0.00487668
0.00325833
0.00231784
0.00175612
0.00140791
0.00118226
0.0010296
0.000924401
0.000854188
0.000809745
0.000780066
0.000756129
0.000735223
0.000718476
0.000706643
0.000699036
0.000694382
0.000691561
0.000689815
0.000688705
0.000688004
0.000687595
0.000687421
0.000687454
0.000687685
0.000688114
0.000688754
0.000689625
0.000690758
0.000692195
0.000693991
0.000696216
0.000698963
0.000702354
0.000706548
0.000711757
0.000718261
0.000726447
0.000736834
0.000750198
0.000767488
0.000790636
0.000820791
0.000865469
0.000917722
0.00102134
0.00111183
0.295906
0.154769
0.0900421
0.0619716
0.0551324
0.0548496
0.0485507
0.0447756
0.041146
0.0319072
0.0205539
0.0123792
0.00754746
0.00480196
0.00322937
0.00231036
0.00175781
0.00141301
0.00118841
0.00103583
0.000929819
0.000857865
0.000811584
0.000780942
0.000756865
0.000735996
0.000719147
0.000707122
0.000699333
0.000694549
0.000691643
0.000689845
0.000688704
0.000687983
0.000687562
0.00068738
0.00068741
0.000687638
0.000688067
0.000688707
0.000689579
0.000690714
0.000692153
0.000693951
0.000696179
0.00069893
0.000702326
0.000706525
0.000711741
0.000718254
0.000726452
0.000736853
0.000750236
0.000767551
0.000790728
0.000820916
0.000865591
0.000917807
0.00102087
0.00111057
0.295815
0.154713
0.0896216
0.0605722
0.0528897
0.0543029
0.0502972
0.0464154
0.0419888
0.0317873
0.0200966
0.0120251
0.00735368
0.00471373
0.00319553
0.00230134
0.00175902
0.00141784
0.00119424
0.00104175
0.000935108
0.000861668
0.000813646
0.000781954
0.000757635
0.000736766
0.000719814
0.000707599
0.000699631
0.000694715
0.000691724
0.000689874
0.000688702
0.000687961
0.000687528
0.00068734
0.000687365
0.000687592
0.00068802
0.00068866
0.000689534
0.000690671
0.000692112
0.000693912
0.000696143
0.000698898
0.000702298
0.000706503
0.000711725
0.000718247
0.000726456
0.000736872
0.000750273
0.000767611
0.000790815
0.000821035
0.000865706
0.000917883
0.00102043
0.00110938
0.295736
0.154698
0.0893159
0.0593974
0.0506773
0.0530655
0.0514138
0.047795
0.0425746
0.0313846
0.0194758
0.0116017
0.00713328
0.0046158
0.00315864
0.00229164
0.00176021
0.00142269
0.00119996
0.00104746
0.000940274
0.000865559
0.000815904
0.000783103
0.000758446
0.000737536
0.000720476
0.000708076
0.00069993
0.000694882
0.000691805
0.000689903
0.000688699
0.00068794
0.000687495
0.000687299
0.000687321
0.000687546
0.000687974
0.000688615
0.00068949
0.000690628
0.000692072
0.000693874
0.000696108
0.000698866
0.000702271
0.000706481
0.000711709
0.000718239
0.000726459
0.000736888
0.000750307
0.000767668
0.000790898
0.000821147
0.000865812
0.000917951
0.00102
0.00110826
0.295667
0.154715
0.0891048
0.0584274
0.0485742
0.0512654
0.0517977
0.0487726
0.0427927
0.0306646
0.0187001
0.0111216
0.00689407
0.0045121
0.00312045
0.00228205
0.00176177
0.0014278
0.00120571
0.00105304
0.000945332
0.000869507
0.000818334
0.000784387
0.000759305
0.000738309
0.000721135
0.000708552
0.000700228
0.000695048
0.000691886
0.000689931
0.000688696
0.000687917
0.000687461
0.000687259
0.000687277
0.000687501
0.000687928
0.00068857
0.000689447
0.000690587
0.000692032
0.000693838
0.000696074
0.000698836
0.000702244
0.000706459
0.000711694
0.000718232
0.000726462
0.000736904
0.000750339
0.000767721
0.000790976
0.000821252
0.000865911
0.000918012
0.0010196
0.0011072
0.295607
0.154756
0.0889713
0.0576404
0.0466349
0.0490527
0.0513949
0.049192
0.0425166
0.0296016
0.0177854
0.0105995
0.00664428
0.00440649
0.00308264
0.00227325
0.001764
0.00143332
0.00121162
0.00105857
0.000950301
0.000873487
0.00082091
0.000785802
0.000760217
0.00073909
0.000721792
0.000709027
0.000700527
0.000695215
0.000691966
0.000689959
0.000688692
0.000687895
0.000687427
0.000687219
0.000687233
0.000687456
0.000687884
0.000688527
0.000689404
0.000690547
0.000691994
0.000693802
0.000696041
0.000698806
0.000702218
0.000706439
0.000711679
0.000718225
0.000726464
0.000736919
0.00075037
0.000767772
0.00079105
0.000821351
0.000866003
0.000918066
0.00101921
0.00110621
0.295554
0.154815
0.0889011
0.0570139
0.0448925
0.0465836
0.0502132
0.0489119
0.0416317
0.0281916
0.0167569
0.0100526
0.00639219
0.00430258
0.00304663
0.0022658
0.00176712
0.00143937
0.00121777
0.00106412
0.000955205
0.000877481
0.000823609
0.000787342
0.000761186
0.000739881
0.000722448
0.0007095
0.000700825
0.000695381
0.000692046
0.000689986
0.000688688
0.000687872
0.000687393
0.000687179
0.00068719
0.000687411
0.00068784
0.000688484
0.000689363
0.000690507
0.000691957
0.000693767
0.000696009
0.000698777
0.000702194
0.000706418
0.000711665
0.000718217
0.000726466
0.000736932
0.000750398
0.000767819
0.000791119
0.000821444
0.000866089
0.000918113
0.00101885
0.00110528
0.295508
0.154888
0.0888816
0.0565263
0.0433623
0.0440054
0.0483252
0.0478388
0.0400688
0.0264629
0.0156495
0.00949924
0.00614573
0.00420353
0.00301362
0.0022601
0.00177127
0.00144603
0.00122422
0.00106974
0.000960067
0.000881477
0.000826409
0.000788998
0.000762214
0.000740687
0.000723104
0.000709974
0.000701123
0.000695548
0.000692126
0.000690012
0.000688683
0.000687848
0.000687359
0.000687139
0.000687148
0.000687368
0.000687796
0.000688442
0.000689323
0.000690469
0.000691921
0.000693734
0.000695979
0.00069875
0.00070217
0.000706399
0.000711651
0.00071821
0.000726467
0.000736945
0.000750425
0.000767864
0.000791183
0.00082153
0.000866167
0.000918156
0.0010185
0.00110442
0.295468
0.154969
0.0889025
0.0561572
0.0420459
0.0414462
0.0458609
0.0459551
0.0378341
0.0244816
0.0145067
0.00895808
0.00591203
0.00411193
0.00298445
0.00225639
0.00177653
0.00145332
0.001231
0.00107547
0.000964909
0.000885468
0.00082929
0.000790761
0.000763304
0.000741509
0.000723761
0.000710446
0.000701422
0.000695715
0.000692206
0.000690039
0.000688678
0.000687825
0.000687325
0.000687099
0.000687105
0.000687325
0.000687754
0.000688401
0.000689284
0.000690432
0.000691886
0.000693701
0.000695949
0.000698723
0.000702146
0.00070638
0.000711637
0.000718203
0.000726468
0.000736956
0.000750449
0.000767905
0.000791243
0.000821611
0.000866239
0.000918193
0.00101818
0.00110362
0.295432
0.155057
0.0889549
0.055888
0.0409351
0.0390075
0.0429911
0.0433345
0.0350257
0.0223481
0.0133763
0.00844651
0.0056969
0.00402964
0.00295966
0.0022548
0.00178288
0.00146124
0.00123813
0.00108133
0.000969747
0.000889446
0.000832233
0.00079262
0.000764455
0.00074235
0.000724421
0.000710919
0.00070172
0.000695881
0.000692285
0.000690065
0.000688673
0.000687802
0.000687292
0.00068706
0.000687064
0.000687283
0.000687713
0.000688361
0.000689246
0.000690396
0.000691852
0.00069367
0.00069592
0.000698698
0.000702124
0.000706362
0.000711624
0.000718196
0.000726468
0.000736966
0.000750472
0.000767943
0.000791299
0.000821685
0.000866305
0.000918226
0.00101787
0.00110288
0.2954
0.155147
0.0890314
0.0557021
0.040015
0.0367623
0.0399043
0.0401387
0.0318265
0.0201832
0.0123047
0.0079789
0.00550444
0.00395774
0.00293946
0.00225529
0.00179027
0.00146973
0.00124559
0.00108733
0.000974599
0.000893411
0.000835222
0.000794567
0.000765667
0.000743212
0.000725084
0.000711391
0.000702018
0.000696048
0.000692365
0.000690091
0.000688667
0.000687778
0.000687258
0.000687022
0.000687023
0.000687242
0.000687672
0.000688322
0.000689209
0.000690361
0.00069182
0.00069364
0.000695893
0.000698673
0.000702103
0.000706344
0.000711611
0.000718188
0.000726468
0.000736975
0.000750492
0.000767978
0.000791351
0.000821754
0.000866365
0.000918255
0.00101759
0.0011022
0.295373
0.155239
0.0891256
0.055585
0.0392667
0.0347554
0.0367834
0.0365942
0.0284731
0.0181085
0.0113306
0.00756519
0.00533687
0.00389657
0.0029238
0.00225776
0.00179862
0.00147876
0.00125337
0.00109349
0.000979474
0.00089736
0.000838245
0.000796589
0.000766938
0.000744098
0.000725752
0.000711864
0.000702317
0.000696215
0.000692444
0.000690117
0.000688662
0.000687755
0.000687225
0.000686984
0.000686983
0.000687202
0.000687633
0.000688284
0.000689173
0.000690327
0.000691789
0.000693611
0.000695867
0.00069865
0.000702083
0.000706327
0.000711598
0.000718181
0.000726468
0.000736983
0.000750511
0.000768011
0.000791398
0.000821816
0.000866419
0.00091828
0.00101732
0.00110158
0.295348
0.155331
0.0892324
0.0555238
0.03867
0.0330078
0.0337854
0.032954
0.0252075
0.0162251
0.0104801
0.00721024
0.00519454
0.00384583
0.00291238
0.00226201
0.00180781
0.00148826
0.00126143
0.0010998
0.000984381
0.000901294
0.000841288
0.000798676
0.000768266
0.000745009
0.000726425
0.000712338
0.000702615
0.000696382
0.000692524
0.000690143
0.000688657
0.000687732
0.000687193
0.000686946
0.000686944
0.000687162
0.000687595
0.000688248
0.000689138
0.000690295
0.000691759
0.000693584
0.000695842
0.000698627
0.000702063
0.000706311
0.000711586
0.000718174
0.000726467
0.00073699
0.000750528
0.00076804
0.00079144
0.000821873
0.000866468
0.000918302
0.00101707
0.00110102
0.295327
0.155421
0.0893475
0.0555075
0.0382042
0.0315209
0.0310288
0.0294547
0.0222296
0.0145991
0.00976482
0.00691394
0.00507626
0.00380473
0.00290478
0.00226782
0.00181771
0.00149814
0.00126974
0.00110624
0.000989323
0.000905211
0.000844343
0.000800818
0.000769647
0.000745945
0.000727106
0.000712813
0.000702914
0.00069655
0.000692604
0.00069017
0.000688652
0.00068771
0.000687161
0.00068691
0.000686905
0.000687124
0.000687558
0.000688212
0.000689105
0.000690264
0.00069173
0.000693557
0.000695818
0.000698606
0.000702045
0.000706296
0.000711575
0.000718167
0.000726466
0.000736996
0.000750542
0.000768066
0.000791479
0.000821925
0.000866512
0.000918321
0.00101685
0.00110051
0.295308
0.155509
0.0894673
0.0555265
0.0378498
0.0302821
0.0285887
0.0262813
0.0196669
0.0132568
0.00918245
0.00667223
0.00497975
0.00377221
0.00290052
0.00227496
0.00182819
0.00150834
0.00127826
0.00111281
0.000994301
0.000909114
0.000847399
0.000803006
0.000771079
0.000746908
0.000727794
0.000713289
0.000703214
0.000696717
0.000692685
0.000690197
0.000688648
0.000687688
0.00068713
0.000686874
0.000686868
0.000687087
0.000687522
0.000688178
0.000689073
0.000690234
0.000691703
0.000693532
0.000695795
0.000698586
0.000702027
0.000706282
0.000711564
0.00071816
0.000726464
0.000737001
0.000750555
0.000768089
0.000791513
0.000821971
0.00086655
0.000918337
0.00101664
0.00110007
0.295291
0.155593
0.0895892
0.0555729
0.0375887
0.02927
0.0264996
0.0235471
0.0175682
0.0121899
0.00872066
0.00647853
0.00490214
0.00374707
0.00289909
0.00228318
0.00183912
0.00151879
0.00128694
0.00111948
0.000999314
0.000913
0.000850451
0.000805229
0.000772557
0.000747897
0.000728491
0.000713768
0.000703513
0.000696885
0.000692766
0.000690224
0.000688644
0.000687667
0.000687099
0.000686839
0.000686832
0.000687051
0.000687487
0.000688146
0.000689043
0.000690206
0.000691677
0.000693509
0.000695774
0.000698567
0.000702011
0.000706268
0.000711554
0.000718154
0.000726462
0.000737005
0.000750566
0.000768109
0.000791543
0.000822011
0.000866583
0.000918352
0.00101646
0.00109968
0.295277
0.155675
0.0897109
0.0556398
0.0374047
0.0284584
0.0247624
0.0212939
0.0159184
0.0113671
0.00836148
0.00632518