/*--------------------------------*- C++ -*----------------------------------*\
| =========                 |                                                 |
| \\      /  F ield         | OpenFOAM: The Open Source CFD Toolbox           |
|  \\    /   O peration     | Version:  2.4.0                                 |
|   \\  /    A nd           | Web:      www.OpenFOAM.org                      |
|    \\/     M anipulation  |                                                 |
\*---------------------------------------------------------------------------*/
FoamFile
{
    version     2.0;
    format      ascii;
    class       volScalarField;
    location    "0.56";
    object      k;
}
// * * * * * * * * * * * * * * * * * * * * * * * * * * * * * * * * * * * * * //

dimensions      [0 2 -2 0 0 0 0];

internalField   nonuniform List<scalar> 
6000
(
0.00510096
0.00645279
0.00771268
0.00881052
0.00970875
0.0103982
0.0108902
0.0112092
0.0113856
0.011451
0.0114343
0.0113601
0.0112485
0.0111152
0.0109719
0.010827
0.0106865
0.0105544
0.010433
0.0103233
0.0102255
0.0101387
0.0100616
0.00999266
0.00993017
0.00987255
0.00981854
0.00976719
0.00971792
0.00967039
0.00962445
0.00958005
0.00953721
0.00949599
0.00945649
0.00941882
0.00938313
0.00934955
0.00931813
0.0092888
0.00926131
0.00923513
0.00920946
0.00918319
0.00915488
0.00912278
0.00908476
0.00903824
0.00898011
0.00890649
0.00881254
0.00869203
0.00853693
0.0083366
0.00807754
0.0077403
0.00730736
0.00673766
0.00608427
0.00515523
0.0035494
0.00344488
0.00340553
0.00341541
0.00345867
0.0035224
0.00359884
0.0036841
0.00377661
0.00387611
0.0039831
0.00409825
0.00422213
0.00435489
0.00449619
0.0046451
0.0048001
0.00495912
0.00511966
0.00527893
0.00543404
0.00558227
0.00572123
0.00584906
0.00596447
0.00606672
0.00615551
0.00623086
0.00629301
0.00634233
0.00637925
0.00640429
0.006418
0.006421
0.006414
0.00639788
0.00637378
0.00634314
0.00630783
0.00627002
0.00623214
0.00619663
0.00616573
0.00614136
0.00612496
0.00611759
0.00612003
0.00613304
0.00615765
0.00619551
0.00624938
0.00632365
0.00642521
0.00656495
0.00676011
0.0070393
0.00744972
0.00807442
0.00901299
0.0112398
0.00348321
0.00325648
0.00306425
0.00290018
0.00275854
0.00263419
0.00252331
0.00242363
0.00233401
0.00225408
0.00218396
0.00212401
0.00207466
0.00203629
0.00200921
0.0019936
0.00198948
0.00199675
0.00201512
0.00204411
0.00208308
0.00213116
0.00218729
0.00225021
0.00231852
0.00239071
0.00246525
0.00254063
0.0026154
0.00268823
0.00275794
0.00282346
0.0028839
0.0029385
0.00298662
0.00302775
0.00306148
0.00308759
0.00310606
0.00311721
0.00312175
0.00312083
0.00311596
0.00310896
0.00310173
0.00309614
0.00309389
0.00309652
0.00310551
0.00312245
0.00314946
0.00318964
0.00324793
0.00333242
0.00345683
0.00364519
0.0039411
0.00442629
0.00525456
0.0070142
0.00347969
0.00324256
0.00303442
0.00285067
0.00268758
0.00254191
0.00241089
0.0022922
0.00218399
0.0020848
0.0019935
0.00190927
0.00183151
0.00175978
0.0016938
0.00163336
0.00157835
0.00152869
0.00148432
0.00144523
0.00141137
0.0013827
0.00135914
0.00134053
0.00132669
0.00131733
0.0013121
0.0013106
0.00131235
0.00131687
0.00132364
0.00133219
0.00134202
0.00135268
0.00136373
0.00137474
0.00138527
0.00139489
0.0014032
0.00140989
0.0014148
0.00141798
0.00141973
0.00142058
0.00142125
0.0014226
0.00142554
0.00143106
0.00144022
0.00145423
0.00147464
0.00150356
0.00154416
0.00160141
0.00168352
0.00180464
0.00199183
0.00229425
0.00283456
0.00387742
0.00347951
0.00324163
0.00303199
0.00284603
0.00268015
0.00253139
0.00239731
0.00227586
0.00216532
0.00206426
0.00197148
0.00188596
0.00180687
0.00173352
0.00166531
0.00160176
0.00154247
0.00148711
0.0014354
0.00138709
0.001342
0.00129996
0.00126081
0.00122444
0.00119072
0.00115954
0.00113078
0.00110432
0.00108004
0.00105782
0.00103756
0.00101915
0.0010025
0.000987526
0.000974155
0.00096232
0.000951945
0.000942939
0.000935199
0.000928607
0.000923046
0.000918413
0.000914639
0.000911698
0.000909621
0.000908501
0.000908498
0.000909852
0.000912897
0.000918107
0.000926162
0.000938076
0.000955424
0.000980745
0.00101837
0.00107588
0.00116832
0.00132344
0.00161776
0.00218111
0.0034795
0.00324152
0.00303169
0.00284546
0.00267923
0.00253007
0.00239557
0.00227374
0.00216291
0.00206168
0.00196888
0.0018835
0.00180468
0.00173171
0.00166394
0.00160084
0.00154195
0.00148687
0.00143525
0.00138678
0.00134121
0.00129831
0.00125787
0.00121974
0.00118374
0.00114976
0.00111766
0.00108736
0.00105875
0.00103177
0.00100636
0.000982476
0.000960092
0.000939195
0.000919785
0.000901869
0.000885457
0.000870557
0.000857165
0.000845268
0.00083483
0.000825801
0.000818113
0.000811685
0.000806435
0.000802284
0.000799172
0.000797071
0.000795999
0.000796046
0.000797403
0.00080042
0.000805713
0.000814348
0.000828239
0.000850896
0.000889446
0.000958321
0.00109728
0.00138203
0.00347949
0.00324148
0.00303159
0.00284531
0.00267901
0.00252977
0.0023952
0.0022733
0.00216243
0.00206119
0.00196842
0.00188313
0.00180446
0.00173169
0.00166418
0.0016014
0.00154286
0.00148816
0.00143694
0.00138888
0.00134369
0.00130113
0.001261
0.00122309
0.00118723
0.00115329
0.00112113
0.00109065
0.00106175
0.00103437
0.00100844
0.000983928
0.000960808
0.000939071
0.00091872
0.000899764
0.000882217
0.000866095
0.000851404
0.000838144
0.000826299
0.000815839
0.000806714
0.00079886
0.000792196
0.000786633
0.00078208
0.000778454
0.000775689
0.000773753
0.000772662
0.000772512
0.00077353
0.000776161
0.000781242
0.000790356
0.000806629
0.000836999
0.000898796
0.00103757
0.00347949
0.00324145
0.00303152
0.0028452
0.00267887
0.0025296
0.00239499
0.00227306
0.00216217
0.00206092
0.00196815
0.00188288
0.00180424
0.00173153
0.0016641
0.00160142
0.00154301
0.00148847
0.00143741
0.00138954
0.00134456
0.00130223
0.00126232
0.00122463
0.00118901
0.00115529
0.00112334
0.00109305
0.00106433
0.0010371
0.00101131
0.000986902
0.000963861
0.000942171
0.00092183
0.000902846
0.000885227
0.000868983
0.000854119
0.000840631
0.000828505
0.000817711
0.000808205
0.00079993
0.000792812
0.00078677
0.000781713
0.000777554
0.000774211
0.000771621
0.000769751
0.000768615
0.00076831
0.00076906
0.000771306
0.000775881
0.000784282
0.000800004
0.000829448
0.000898666
0.00347949
0.00324143
0.00303147
0.00284512
0.00267876
0.00252946
0.00239482
0.00227288
0.00216196
0.0020607
0.00196792
0.00188264
0.00180401
0.0017313
0.00166389
0.00160123
0.00154285
0.00148835
0.00143735
0.00138954
0.00134463
0.00130237
0.00126255
0.00122496
0.00118944
0.00115583
0.00112399
0.00109382
0.00106522
0.00103811
0.00101243
0.00098814
0.00096521
0.000943626
0.000923383
0.000904486
0.000886941
0.000870755
0.000855929
0.000842457
0.000830323
0.000819495
0.000809931
0.000801573
0.000794352
0.000788188
0.000782996
0.000778689
0.000775185
0.000772416
0.000770337
0.000768942
0.000768284
0.000768515
0.00076994
0.000773122
0.000778963
0.000789548
0.000807018
0.000845768
0.00347949
0.00324142
0.00303143
0.00284505
0.00267866
0.00252934
0.00239469
0.00227272
0.00216179
0.00206051
0.00196772
0.00188243
0.00180379
0.00173108
0.00166366
0.00160101
0.00154264
0.00148814
0.00143715
0.00138935
0.00134446
0.00130223
0.00126243
0.00122488
0.00118939
0.00115581
0.00112402
0.00109389
0.00106534
0.00103828
0.00101266
0.000988421
0.000965547
0.00094402
0.000923835
0.000904994
0.000887503
0.000871367
0.000856586
0.000843153
0.000831049
0.000820244
0.000810692
0.000802337
0.000795109
0.00078893
0.000783716
0.000779383
0.00077585
0.000773048
0.000770931
0.000769487
0.000768759
0.000768876
0.000770093
0.000772874
0.000777911
0.0007867
0.000800078
0.000826246
0.00347949
0.00324141
0.0030314
0.002845
0.00267859
0.00252924
0.00239457
0.00227258
0.00216164
0.00206035
0.00196755
0.00188225
0.0018036
0.00173088
0.00166346
0.0016008
0.00154243
0.00148793
0.00143695
0.00138915
0.00134426
0.00130204
0.00126225
0.0012247
0.00118922
0.00115566
0.00112388
0.00109376
0.00106523
0.00103819
0.00101258
0.000988366
0.000965516
0.000944014
0.000923855
0.00090504
0.000887577
0.000871468
0.000856715
0.000843308
0.000831229
0.000820445
0.000810913
0.000802573
0.000795358
0.000789188
0.00078398
0.00077965
0.00077612
0.00077332
0.000771204
0.000769759
0.000769027
0.000769126
0.000770294
0.000772949
0.0007777
0.000785762
0.000797679
0.000818585
0.00347949
0.0032414
0.00303137
0.00284495
0.00267852
0.00252916
0.00239447
0.00227247
0.00216151
0.00206021
0.0019674
0.00188209
0.00180343
0.00173071
0.00166329
0.00160063
0.00154225
0.00148775
0.00143676
0.00138897
0.00134408
0.00130185
0.00126206
0.00122452
0.00118904
0.00115548
0.0011237
0.0010936
0.00106507
0.00103803
0.00101243
0.000988227
0.000965387
0.000943896
0.000923749
0.000904948
0.000887499
0.000871406
0.000856668
0.000843278
0.000831215
0.000820448
0.000810931
0.000802606
0.000795403
0.000789244
0.000784045
0.000779724
0.0007762
0.000773407
0.000771297
0.000769858
0.000769128
0.000769223
0.000770369
0.000772958
0.000777555
0.000785202
0.000796414
0.000814753
0.00347949
0.00324139
0.00303135
0.00284491
0.00267847
0.00252909
0.00239438
0.00227237
0.0021614
0.00206009
0.00196727
0.00188195
0.00180329
0.00173056
0.00166313
0.00160047
0.00154209
0.00148759
0.0014366
0.0013888
0.00134391
0.00130169
0.0012619
0.00122435
0.00118888
0.00115532
0.00112354
0.00109344
0.00106491
0.00103788
0.00101228
0.000988082
0.000965247
0.000943762
0.000923623
0.00090483
0.00088739
0.000871307
0.00085658
0.000843201
0.000831151
0.000820396
0.000810891
0.000802577
0.000795384
0.000789235
0.000784045
0.000779731
0.000776214
0.000773425
0.00077132
0.000769884
0.000769154
0.000769242
0.000770364
0.000772894
0.000777361
0.000784682
0.000795374
0.000812076
0.00347948
0.00324138
0.00303134
0.00284488
0.00267842
0.00252903
0.00239431
0.00227228
0.0021613
0.00205998
0.00196715
0.00188183
0.00180316
0.00173043
0.001663
0.00160033
0.00154195
0.00148745
0.00143646
0.00138866
0.00134377
0.00130154
0.00126175
0.00122421
0.00118873
0.00115517
0.0011234
0.0010933
0.00106477
0.00103774
0.00101215
0.00098795
0.000965118
0.000943638
0.000923504
0.000904718
0.000887285
0.000871209
0.000856491
0.000843122
0.000831081
0.000820336
0.000810841
0.000802537
0.000795353
0.000789212
0.000784029
0.000779721
0.000776209
0.000773424
0.000771321
0.000769886
0.000769153
0.000769231
0.000770327
0.000772796
0.000777137
0.000784163
0.000794378
0.00080979
0.00347948
0.00324138
0.00303132
0.00284486
0.00267838
0.00252897
0.00239424
0.00227221
0.00216122
0.00205989
0.00196706
0.00188173
0.00180306
0.00173032
0.00166288
0.00160021
0.00154183
0.00148732
0.00143633
0.00138853
0.00134364
0.00130141
0.00126163
0.00122408
0.00118861
0.00115505
0.00112327
0.00109317
0.00106465
0.00103762
0.00101203
0.000987833
0.000965005
0.000943528
0.000923399
0.000904618
0.000887191
0.000871122
0.000856412
0.00084305
0.000831017
0.000820281
0.000810794
0.000802499
0.000795323
0.000789189
0.000784012
0.000779709
0.000776201
0.000773419
0.000771318
0.000769882
0.000769145
0.000769212
0.000770281
0.00077269
0.000776909
0.000783661
0.00079342
0.000807721
0.00347948
0.00324138
0.00303131
0.00284483
0.00267835
0.00252893
0.00239419
0.00227214
0.00216115
0.00205981
0.00196697
0.00188163
0.00180296
0.00173022
0.00166278
0.00160011
0.00154172
0.00148722
0.00143622
0.00138842
0.00134353
0.0013013
0.00126152
0.00122397
0.00118849
0.00115494
0.00112316
0.00109306
0.00106454
0.00103751
0.00101192
0.000987731
0.000964906
0.000943433
0.000923307
0.000904531
0.000887109
0.000871047
0.000856342
0.000842988
0.000830963
0.000820234
0.000810755
0.000802466
0.000795297
0.000789169
0.000783998
0.0007797
0.000776195
0.000773415
0.000771315
0.000769878
0.000769137
0.000769192
0.000770236
0.000772588
0.000776691
0.000783193
0.000792525
0.000805853
0.00347948
0.00324137
0.0030313
0.00284481
0.00267832
0.00252889
0.00239414
0.00227209
0.00216108
0.00205974
0.0019669
0.00188156
0.00180288
0.00173013
0.00166269
0.00160002
0.00154163
0.00148712
0.00143613
0.00138833
0.00134344
0.00130121
0.00126142
0.00122387
0.0011884
0.00115484
0.00112307
0.00109297
0.00106444
0.00103742
0.00101183
0.000987642
0.00096482
0.00094335
0.000923228
0.000904456
0.000887039
0.000870981
0.000856283
0.000842935
0.000830916
0.000820194
0.000810721
0.000802439
0.000795276
0.000789154
0.000783987
0.000779693
0.000776191
0.000773414
0.000771314
0.000769876
0.000769131
0.000769174
0.000770194
0.000772493
0.000776492
0.000782769
0.000791709
0.00080419
0.00347948
0.00324137
0.00303129
0.0028448
0.00267829
0.00252886
0.0023941
0.00227204
0.00216103
0.00205968
0.00196683
0.00188149
0.00180281
0.00173006
0.00166262
0.00159994
0.00154155
0.00148704
0.00143604
0.00138824
0.00134335
0.00130112
0.00126134
0.00122379
0.00118832
0.00115476
0.00112299
0.00109289
0.00106436
0.00103734
0.00101175
0.000987566
0.000964746
0.000943279
0.00092316
0.000904392
0.000886979
0.000870926
0.000856233
0.00084289
0.000830877
0.00082016
0.000810694
0.000802417
0.00079526
0.000789142
0.00078398
0.000779689
0.00077619
0.000773414
0.000771315
0.000769876
0.000769126
0.000769159
0.000770157
0.000772409
0.000776313
0.000782392
0.000790983
0.000802735
0.00347948
0.00324137
0.00303129
0.00284479
0.00267828
0.00252883
0.00239407
0.002272
0.00216098
0.00205963
0.00196678
0.00188143
0.00180275
0.00172999
0.00166255
0.00159987
0.00154148
0.00148697
0.00143597
0.00138817
0.00134328
0.00130105
0.00126126
0.00122372
0.00118824
0.00115469
0.00112292
0.00109282
0.0010643
0.00103727
0.00101169
0.000987502
0.000964684
0.000943219
0.000923103
0.000904337
0.000886928
0.00087088
0.000856191
0.000842853
0.000830845
0.000820133
0.000810672
0.0008024
0.000795248
0.000789134
0.000783976
0.000779688
0.000776191
0.000773417
0.000771318
0.000769878
0.000769123
0.000769148
0.000770125
0.000772336
0.000776157
0.000782064
0.00079035
0.000801482
0.00347948
0.00324137
0.00303128
0.00284478
0.00267826
0.00252881
0.00239404
0.00227197
0.00216095
0.00205959
0.00196673
0.00188138
0.00180269
0.00172994
0.0016625
0.00159982
0.00154143
0.00148691
0.00143592
0.00138811
0.00134322
0.00130099
0.0012612
0.00122366
0.00118819
0.00115463
0.00112286
0.00109276
0.00106424
0.00103722
0.00101163
0.000987448
0.000964632
0.000943169
0.000923055
0.000904292
0.000886886
0.000870841
0.000856156
0.000842822
0.000830819
0.000820112
0.000810655
0.000802388
0.000795239
0.00078913
0.000783974
0.000779689
0.000776194
0.000773421
0.000771323
0.000769881
0.000769123
0.000769139
0.000770099
0.000772274
0.000776024
0.000781784
0.000789808
0.000800421
0.00347948
0.00324137
0.00303128
0.00284477
0.00267825
0.00252879
0.00239402
0.00227194
0.00216092
0.00205956
0.0019667
0.00188134
0.00180265
0.0017299
0.00166245
0.00159977
0.00154138
0.00148687
0.00143587
0.00138806
0.00134317
0.00130094
0.00126116
0.00122361
0.00118814
0.00115458
0.00112281
0.00109271
0.00106419
0.00103717
0.00101159
0.000987404
0.000964589
0.000943128
0.000923016
0.000904256
0.000886853
0.000870811
0.000856129
0.000842799
0.000830799
0.000820096
0.000810643
0.000802379
0.000795234
0.000789128
0.000783976
0.000779693
0.000776199
0.000773427
0.000771329
0.000769886
0.000769124
0.000769133
0.000770078
0.000772224
0.000775914
0.000781552
0.000789357
0.00079954
0.00347948
0.00324137
0.00303128
0.00284476
0.00267824
0.00252878
0.002394
0.00227192
0.00216089
0.00205953
0.00196667
0.00188131
0.00180262
0.00172986
0.00166242
0.00159973
0.00154134
0.00148683
0.00143583
0.00138803
0.00134314
0.00130091
0.00126112
0.00122357
0.0011881
0.00115454
0.00112277
0.00109267
0.00106415
0.00103713
0.00101155
0.00098737
0.000964556
0.000943096
0.000922986
0.000904228
0.000886827
0.000870788
0.000856109
0.000842781
0.000830784
0.000820085
0.000810635
0.000802375
0.000795233
0.000789129
0.000783979
0.000779698
0.000776206
0.000773435
0.000771336
0.000769892
0.000769128
0.00076913
0.000770063
0.000772184
0.000775826
0.000781367
0.000788995
0.000798831
0.00347948
0.00324137
0.00303127
0.00284476
0.00267823
0.00252877
0.00239399
0.00227191
0.00216088
0.00205951
0.00196665
0.00188129
0.0018026
0.00172984
0.00166239
0.00159971
0.00154131
0.0014868
0.0014358
0.001388
0.00134311
0.00130088
0.00126109
0.00122354
0.00118807
0.00115451
0.00112274
0.00109265
0.00106413
0.00103711
0.00101153
0.000987345
0.000964532
0.000943073
0.000922965
0.000904208
0.000886809
0.000870771
0.000856095
0.000842769
0.000830775
0.000820078
0.000810631
0.000802374
0.000795234
0.000789133
0.000783985
0.000779706
0.000776215
0.000773444
0.000771345
0.0007699
0.000769133
0.00076913
0.000770053
0.000772156
0.000775762
0.000781228
0.000788719
0.000798284
0.00347948
0.00324137
0.00303127
0.00284475
0.00267822
0.00252876
0.00239398
0.0022719
0.00216086
0.0020595
0.00196663
0.00188127
0.00180258
0.00172982
0.00166237
0.00159969
0.0015413
0.00148678
0.00143578
0.00138798
0.00134309
0.00130086
0.00126107
0.00122353
0.00118805
0.0011545
0.00112273
0.00109263
0.00106411
0.00103709
0.00101151
0.000987328
0.000964516
0.000943059
0.000922951
0.000904196
0.000886798
0.000870762
0.000856087
0.000842763
0.000830771
0.000820076
0.000810631
0.000802376
0.000795239
0.000789139
0.000783993
0.000779715
0.000776225
0.000773455
0.000771355
0.000769909
0.000769139
0.000769132
0.000770049
0.000772139
0.00077572
0.000781136
0.000788529
0.000797894
0.00347948
0.00324137
0.00303127
0.00284475
0.00267822
0.00252876
0.00239398
0.00227189
0.00216086
0.00205949
0.00196662
0.00188127
0.00180257
0.00172981
0.00166236
0.00159968
0.00154129
0.00148677
0.00143577
0.00138797
0.00134308
0.00130085
0.00126106
0.00122352
0.00118804
0.00115449
0.00112272
0.00109262
0.0010641
0.00103708
0.0010115
0.000987321
0.000964509
0.000943052
0.000922945
0.000904191
0.000886794
0.000870759
0.000856085
0.000842763
0.000830772
0.000820079
0.000810635
0.000802382
0.000795246
0.000789148
0.000784003
0.000779725
0.000776236
0.000773466
0.000771366
0.000769918
0.000769147
0.000769138
0.00077005
0.000772132
0.000775701
0.000781089
0.000788425
0.000797657
0.00347948
0.00324137
0.00303127
0.00284475
0.00267822
0.00252876
0.00239398
0.00227189
0.00216086
0.00205949
0.00196662
0.00188127
0.00180257
0.00172981
0.00166236
0.00159968
0.00154129
0.00148677
0.00143577
0.00138797
0.00134308
0.00130085
0.00126106
0.00122352
0.00118804
0.00115449
0.00112272
0.00109262
0.0010641
0.00103708
0.0010115
0.000987322
0.000964511
0.000943054
0.000922948
0.000904194
0.000886797
0.000870763
0.000856089
0.000842768
0.000830778
0.000820086
0.000810643
0.00080239
0.000795256
0.000789159
0.000784014
0.000779738
0.000776248
0.000773478
0.000771378
0.000769929
0.000769157
0.000769145
0.000770056
0.000772137
0.000775705
0.000781089
0.000788405
0.000797572
0.00347948
0.00324137
0.00303127
0.00284475
0.00267822
0.00252876
0.00239398
0.0022719
0.00216086
0.0020595
0.00196663
0.00188127
0.00180258
0.00172982
0.00166237
0.00159969
0.0015413
0.00148678
0.00143578
0.00138798
0.00134309
0.00130086
0.00126107
0.00122353
0.00118805
0.0011545
0.00112273
0.00109263
0.00106411
0.00103709
0.00101151
0.000987332
0.000964521
0.000943064
0.000922958
0.000904204
0.000886807
0.000870773
0.0008561
0.000842779
0.000830789
0.000820097
0.000810655
0.000802403
0.000795268
0.000789171
0.000784027
0.000779751
0.000776262
0.000773491
0.00077139
0.00076994
0.000769167
0.000769155
0.000770067
0.000772153
0.000775733
0.000781135
0.000788473
0.00079764
0.00347948
0.00324137
0.00303127
0.00284476
0.00267823
0.00252877
0.00239399
0.00227191
0.00216088
0.00205951
0.00196665
0.00188129
0.0018026
0.00172984
0.00166239
0.00159971
0.00154132
0.0014868
0.0014358
0.001388
0.00134311
0.00130088
0.00126109
0.00122355
0.00118807
0.00115452
0.00112275
0.00109265
0.00106413
0.00103711
0.00101153
0.000987351
0.000964539
0.000943083
0.000922976
0.000904221
0.000886825
0.00087079
0.000856117
0.000842795
0.000830805
0.000820113
0.00081067
0.000802418
0.000795283
0.000789187
0.000784042
0.000779766
0.000776276
0.000773505
0.000771403
0.000769953
0.000769178
0.000769167
0.000770082
0.00077218
0.000775783
0.00078123
0.000788628
0.000797864
0.00347948
0.00324137
0.00303128
0.00284476
0.00267824
0.00252878
0.002394
0.00227192
0.00216089
0.00205953
0.00196667
0.00188131
0.00180262
0.00172986
0.00166242
0.00159973
0.00154134
0.00148683
0.00143583
0.00138803
0.00134314
0.00130091
0.00126112
0.00122357
0.0011881
0.00115455
0.00112278
0.00109268
0.00106416
0.00103714
0.00101156
0.000987379
0.000964567
0.000943109
0.000923002
0.000904247
0.000886849
0.000870814
0.00085614
0.000842817
0.000830826
0.000820133
0.00081069
0.000802437
0.000795301
0.000789204
0.000784059
0.000779782
0.000776291
0.000773519
0.000771416
0.000769965
0.000769191
0.000769181
0.000770103
0.000772217
0.000775857
0.000781373
0.000788875
0.000798252
0.00347948
0.00324137
0.00303128
0.00284477
0.00267825
0.00252879
0.00239402
0.00227194
0.00216092
0.00205956
0.0019667
0.00188134
0.00180265
0.0017299
0.00166245
0.00159977
0.00154138
0.00148687
0.00143587
0.00138807
0.00134317
0.00130095
0.00126116
0.00122361
0.00118814
0.00115458
0.00112281
0.00109272
0.0010642
0.00103718
0.0010116
0.000987415
0.000964603
0.000943145
0.000923036
0.00090428
0.000886881
0.000870845
0.000856169
0.000842845
0.000830852
0.000820158
0.000810713
0.000802458
0.000795322
0.000789223
0.000784077
0.000779799
0.000776307
0.000773534
0.00077143
0.000769978
0.000769204
0.000769197
0.000770128
0.000772266
0.000775955
0.000781567
0.000789217
0.000798814
0.00347948
0.00324137
0.00303128
0.00284478
0.00267826
0.00252881
0.00239404
0.00227197
0.00216095
0.00205959
0.00196673
0.00188138
0.00180269
0.00172994
0.0016625
0.00159982
0.00154143
0.00148691
0.00143592
0.00138811
0.00134322
0.001301
0.00126121
0.00122366
0.00118819
0.00115463
0.00112286
0.00109277
0.00106425
0.00103722
0.00101164
0.000987462
0.000964648
0.000943189
0.000923079
0.000904322
0.000886921
0.000870882
0.000856205
0.000842879
0.000830884
0.000820187
0.00081074
0.000802484
0.000795345
0.000789245
0.000784097
0.000779817
0.000776324
0.000773549
0.000771444
0.000769991
0.000769218
0.000769215
0.000770157
0.000772325
0.000776076
0.000781813
0.000789659
0.000799564
0.00347948
0.00324137
0.00303129
0.00284479
0.00267828
0.00252883
0.00239407
0.002272
0.00216098
0.00205963
0.00196678
0.00188143
0.00180275
0.00172999
0.00166255
0.00159987
0.00154148
0.00148697
0.00143598
0.00138817
0.00134328
0.00130105
0.00126127
0.00122372
0.00118825
0.00115469
0.00112292
0.00109282
0.0010643
0.00103728
0.0010117
0.000987518
0.000964703
0.000943243
0.000923131
0.000904372
0.000886969
0.000870928
0.000856248
0.000842919
0.000830921
0.000820222
0.000810772
0.000802513
0.000795371
0.000789269
0.000784119
0.000779836
0.000776341
0.000773565
0.000771459
0.000770005
0.000769232
0.000769234
0.000770191
0.000772394
0.000776223
0.000782115
0.000790208
0.000800522
0.00347948
0.00324137
0.00303129
0.0028448
0.00267829
0.00252886
0.0023941
0.00227204
0.00216103
0.00205968
0.00196683
0.00188149
0.00180281
0.00173006
0.00166262
0.00159994
0.00154155
0.00148704
0.00143605
0.00138824
0.00134335
0.00130113
0.00126134
0.00122379
0.00118832
0.00115476
0.00112299
0.0010929
0.00106437
0.00103735
0.00101177
0.000987585
0.000964769
0.000943306
0.000923193
0.000904431
0.000887026
0.000870982
0.000856298
0.000842966
0.000830965
0.000820261
0.000810808
0.000802545
0.000795401
0.000789295
0.000784142
0.000779857
0.00077636
0.000773581
0.000771473
0.000770019
0.000769247
0.000769254
0.000770229
0.000772474
0.000776394
0.000782475
0.000790871
0.000801712
0.00347948
0.00324137
0.0030313
0.00284481
0.00267832
0.00252889
0.00239414
0.00227209
0.00216108
0.00205974
0.0019669
0.00188156
0.00180288
0.00173013
0.00166269
0.00160002
0.00154163
0.00148712
0.00143613
0.00138833
0.00134344
0.00130121
0.00126142
0.00122388
0.0011884
0.00115485
0.00112308
0.00109298
0.00106446
0.00103743
0.00101185
0.000987663
0.000964845
0.00094338
0.000923265
0.0009045
0.000887091
0.000871044
0.000856356
0.00084302
0.000831015
0.000820307
0.000810849
0.000802582
0.000795433
0.000789323
0.000784167
0.000779879
0.000776379
0.000773598
0.000771488
0.000770032
0.000769262
0.000769276
0.00077027
0.000772564
0.00077659
0.000782897
0.000791657
0.000803167
0.00347948
0.00324138
0.00303131
0.00284483
0.00267835
0.00252893
0.00239419
0.00227214
0.00216115
0.00205981
0.00196697
0.00188164
0.00180296
0.00173022
0.00166278
0.00160011
0.00154172
0.00148722
0.00143622
0.00138842
0.00134353
0.00130131
0.00126152
0.00122397
0.0011885
0.00115494
0.00112317
0.00109307
0.00106455
0.00103753
0.00101194
0.000987753
0.000964933
0.000943466
0.000923348
0.00090458
0.000887167
0.000871116
0.000856424
0.000843082
0.000831072
0.000820359
0.000810896
0.000802623
0.000795469
0.000789355
0.000784194
0.000779902
0.000776398
0.000773614
0.000771502
0.000770046
0.000769277
0.000769299
0.000770314
0.000772664
0.000776811
0.000783385
0.000792577
0.000804931
0.00347948
0.00324138
0.00303132
0.00284486
0.00267838
0.00252897
0.00239424
0.00227221
0.00216122
0.00205989
0.00196706
0.00188173
0.00180306
0.00173032
0.00166288
0.00160021
0.00154183
0.00148733
0.00143633
0.00138853
0.00134364
0.00130142
0.00126163
0.00122409
0.00118861
0.00115505
0.00112328
0.00109318
0.00106466
0.00103763
0.00101205
0.000987858
0.000965035
0.000943565
0.000923443
0.000904671
0.000887254
0.000871198
0.0008565
0.000843153
0.000831137
0.000820417
0.000810948
0.000802669
0.000795509
0.000789389
0.000784223
0.000779926
0.000776419
0.000773631
0.000771517
0.000770059
0.000769292
0.000769322
0.000770362
0.000772773
0.000777057
0.000783944
0.000793644
0.00080706
0.00347948
0.00324138
0.00303134
0.00284488
0.00267842
0.00252903
0.00239431
0.00227228
0.0021613
0.00205998
0.00196715
0.00188183
0.00180317
0.00173043
0.001663
0.00160033
0.00154195
0.00148745
0.00143646
0.00138866
0.00134377
0.00130155
0.00126176
0.00122421
0.00118874
0.00115518
0.00112341
0.00109331
0.00106478
0.00103776
0.00101217
0.000987976
0.000965151
0.000943678
0.000923552
0.000904775
0.000887354
0.000871291
0.000856587
0.000843234
0.00083121
0.000820483
0.000811006
0.00080272
0.000795553
0.000789426
0.000784254
0.000779951
0.000776439
0.000773648
0.00077153
0.000770072
0.000769306
0.000769345
0.000770411
0.00077289
0.000777329
0.000784579
0.000794871
0.000809627
0.00347949
0.00324139
0.00303135
0.00284491
0.00267847
0.00252909
0.00239438
0.00227237
0.0021614
0.00206009
0.00196727
0.00188195
0.00180329
0.00173056
0.00166314
0.00160047
0.00154209
0.00148759
0.0014366
0.0013888
0.00134392
0.00130169
0.0012619
0.00122436
0.00118888
0.00115533
0.00112355
0.00109345
0.00106492
0.0010379
0.00101231
0.000988111
0.000965282
0.000943805
0.000923674
0.000904892
0.000887464
0.000871395
0.000856684
0.000843322
0.000831289
0.000820554
0.000811068
0.000802773
0.000795597
0.000789462
0.000784283
0.000779974
0.000776456
0.000773661
0.00077154
0.00077008
0.000769317
0.000769366
0.000770458
0.000773013
0.000777623
0.000785294
0.000796274
0.000812732
0.00347949
0.0032414
0.00303137
0.00284495
0.00267852
0.00252916
0.00239447
0.00227247
0.00216151
0.00206021
0.0019674
0.00188209
0.00180344
0.00173071
0.00166329
0.00160063
0.00154225
0.00148775
0.00143676
0.00138897
0.00134408
0.00130186
0.00126207
0.00122452
0.00118905
0.00115549
0.00112371
0.00109361
0.00106508
0.00103805
0.00101246
0.000988258
0.000965425
0.000943942
0.000923804
0.000905015
0.000887579
0.000871501
0.00085678
0.000843408
0.000831365
0.000820618
0.000811122
0.000802816
0.000795631
0.000789486
0.000784299
0.000779983
0.000776459
0.000773659
0.000771536
0.000770075
0.000769314
0.000769373
0.000770496
0.000773131
0.000777931
0.000786089
0.000797867
0.000816507
0.00347949
0.00324141
0.0030314
0.002845
0.00267859
0.00252924
0.00239457
0.00227258
0.00216164
0.00206035
0.00196755
0.00188225
0.0018036
0.00173088
0.00166346
0.00160081
0.00154243
0.00148794
0.00143695
0.00138915
0.00134427
0.00130204
0.00126225
0.00122471
0.00118923
0.00115567
0.00112389
0.00109378
0.00106524
0.00103821
0.00101261
0.000988399
0.000965557
0.000944063
0.000923915
0.000905113
0.000887664
0.000871572
0.000856838
0.000843452
0.000831395
0.000820634
0.000811125
0.000802807
0.00079561
0.000789456
0.00078426
0.000779937
0.000776409
0.000773605
0.00077148
0.00077002
0.000769263
0.000769335
0.000770491
0.000773213
0.000778225
0.000786944
0.000799654
0.000821127
0.00347949
0.00324142
0.00303143
0.00284505
0.00267866
0.00252934
0.00239469
0.00227272
0.00216179
0.00206051
0.00196772
0.00188243
0.00180379
0.00173108
0.00166366
0.00160101
0.00154264
0.00148814
0.00143715
0.00138936
0.00134447
0.00130223
0.00126244
0.00122488
0.0011894
0.00115582
0.00112403
0.00109391
0.00106536
0.00103831
0.00101269
0.000988458
0.000965593
0.000944076
0.000923903
0.000905077
0.000887602
0.000871486
0.000856728
0.00084332
0.000831243
0.000820465
0.00081094
0.00080261
0.000795403
0.000789242
0.000784042
0.000779718
0.00077619
0.000773389
0.000771269
0.000769814
0.000769067
0.000769157
0.000770352
0.000773172
0.00077842
0.000787786
0.000801592
0.000826795
0.00347949
0.00324143
0.00303147
0.00284512
0.00267876
0.00252946
0.00239482
0.00227288
0.00216196
0.0020607
0.00196792
0.00188264
0.00180401
0.0017313
0.00166389
0.00160123
0.00154286
0.00148835
0.00143735
0.00138954
0.00134463
0.00130238
0.00126255
0.00122497
0.00118945
0.00115584
0.00112401
0.00109384
0.00106524
0.00103814
0.00101246
0.000988183
0.000965263
0.000943692
0.000923464
0.000904585
0.000887061
0.0008709
0.000856102
0.00084266
0.000830559
0.000819765
0.000810231
0.0008019
0.0007947
0.000788551
0.000783368
0.000779064
0.000775558
0.000772778
0.000770678
0.000769243
0.000768517
0.000768633
0.000769874
0.000772798
0.000778307
0.000788408
0.000803519
0.000833709
0.00347949
0.00324145
0.00303152
0.0028452
0.00267887
0.0025296
0.00239499
0.00227306
0.00216217
0.00206092
0.00196815
0.00188288
0.00180424
0.00173153
0.0016641
0.00160142
0.00154301
0.00148847
0.00143742
0.00138954
0.00134457
0.00130223
0.00126232
0.00122464
0.00118902
0.0011553
0.00112336
0.00109307
0.00106436
0.00103714
0.00101135
0.000986954
0.000963925
0.00094225
0.000921927
0.000902963
0.000885368
0.000869151
0.000854316
0.000840857
0.000828758
0.000817988
0.0008085
0.000800232
0.00079311
0.000787047
0.000781953
0.000777735
0.000774306
0.000771592
0.000769544
0.000768147
0.000767445
0.000767577