/*--------------------------------*- C++ -*----------------------------------*\
| =========                 |                                                 |
| \\      /  F ield         | OpenFOAM: The Open Source CFD Toolbox           |
|  \\    /   O peration     | Version:  2.4.0                                 |
|   \\  /    A nd           | Web:      www.OpenFOAM.org                      |
|    \\/     M anipulation  |                                                 |
\*---------------------------------------------------------------------------*/
FoamFile
{
    version     2.0;
    format      ascii;
    class       volScalarField;
    location    "0.9";
    object      p;
}
// * * * * * * * * * * * * * * * * * * * * * * * * * * * * * * * * * * * * * //

dimensions      [0 2 -2 0 0 0 0];

internalField   nonuniform List<scalar> 
6000
(
0.0846869
0.267702
0.284953
0.310465
0.316476
0.326145
0.329822
0.335439
0.332914
0.324075
0.312656
0.302788
0.308525
0.335271
0.370185
0.405391
0.435822
0.459251
0.476725
0.489772
0.499853
0.508098
0.515179
0.521496
0.527104
0.532007
0.536017
0.539134
0.541251
0.542592
0.543131
0.543145
0.542545
0.541603
0.540141
0.538433
0.536215
0.533787
0.530792
0.527591
0.523711
0.519607
0.514647
0.509425
0.503077
0.496411
0.488216
0.479626
0.468865
0.457616
0.443136
0.428087
0.407894
0.387356
0.357559
0.329774
0.28076
0.248901
0.147649
0.157233
0.0987503
0.267224
0.284918
0.310308
0.316387
0.326033
0.329725
0.335391
0.333056
0.324363
0.313
0.30297
0.308327
0.334744
0.369539
0.4048
0.435346
0.458896
0.476464
0.489579
0.499704
0.50798
0.515082
0.521414
0.527035
0.531951
0.535974
0.539102
0.541226
0.542572
0.543114
0.543127
0.542526
0.541581
0.540116
0.538403
0.536179
0.533743
0.530741
0.52753
0.523639
0.519522
0.514547
0.509308
0.50294
0.496253
0.488032
0.479412
0.468621
0.457327
0.44281
0.427697
0.407456
0.386819
0.35697
0.329004
0.279989
0.247692
0.146814
0.154722
0.111213
0.267043
0.284917
0.310195
0.316305
0.325944
0.329636
0.335364
0.333218
0.324672
0.313341
0.303079
0.307975
0.334177
0.368888
0.404223
0.434901
0.458578
0.476235
0.489409
0.499571
0.50787
0.514988
0.521334
0.526968
0.531897
0.535933
0.539071
0.541202
0.542552
0.543095
0.543108
0.542505
0.541557
0.540087
0.538369
0.53614
0.533698
0.530689
0.527469
0.523569
0.519441
0.514454
0.5092
0.502818
0.49611
0.48787
0.479223
0.468406
0.457075
0.44252
0.427354
0.40706
0.386341
0.356424
0.328309
0.279251
0.246614
0.145914
0.152475
0.121284
0.267031
0.284974
0.310111
0.316243
0.325869
0.329561
0.335367
0.333411
0.324982
0.313621
0.30304
0.307444
0.333529
0.368199
0.403664
0.43451
0.458315
0.476052
0.489271
0.49946
0.507773
0.514903
0.521259
0.526906
0.531849
0.535898
0.539046
0.541182
0.542534
0.543076
0.543087
0.542481
0.541529
0.540055
0.538332
0.536097
0.533649
0.530632
0.527404
0.523495
0.519357
0.514358
0.509091
0.502694
0.495968
0.487708
0.479037
0.468193
0.456829
0.442237
0.427023
0.406679
0.385884
0.355905
0.327653
0.278555
0.24562
0.145067
0.150564
0.129788
0.267079
0.285074
0.310058
0.316197
0.325805
0.329498
0.3354
0.333642
0.325294
0.313829
0.302834
0.306783
0.33271
0.367443
0.403106
0.43415
0.458088
0.475899
0.489156
0.499362
0.507682
0.514819
0.521185
0.526844
0.531802
0.535864
0.539023
0.541162
0.542515
0.543054
0.543062
0.542451
0.541495
0.540015
0.538287
0.536046
0.533592
0.530567
0.527332
0.523413
0.519265
0.514254
0.508975
0.502561
0.495819
0.487539
0.478845
0.467973
0.456578
0.441949
0.426689
0.406296
0.385428
0.355391
0.327002
0.277873
0.244653
0.14426
0.148853
0.137327
0.267136
0.285209
0.310028
0.316166
0.325749
0.329445
0.335458
0.333914
0.325611
0.313962
0.302461
0.306019
0.331692
0.366616
0.402526
0.433795
0.457881
0.475765
0.489053
0.499269
0.507591
0.514732
0.521106
0.526779
0.531752
0.535827
0.538996
0.541138
0.54249
0.543026
0.543029
0.542413
0.541452
0.539966
0.538233
0.535985
0.533525
0.530493
0.527249
0.523321
0.519163
0.51414
0.508848
0.502419
0.49566
0.48736
0.478643
0.467745
0.456318
0.441653
0.426347
0.405906
0.384966
0.354875
0.326347
0.277198
0.243675
0.143504
0.147266
0.144145
0.267186
0.285379
0.310014
0.316154
0.325701
0.329403
0.335542
0.334226
0.32593
0.314024
0.301926
0.30513
0.330515
0.365707
0.401903
0.433433
0.457683
0.47564
0.488955
0.499175
0.507494
0.514636
0.521018
0.526705
0.531694
0.535784
0.538963
0.541107
0.542457
0.542989
0.542986
0.542365
0.541398
0.539907
0.538168
0.535914
0.533446
0.530407
0.527156
0.523218
0.51905
0.514016
0.508711
0.502267
0.495491
0.487171
0.478432
0.467508
0.456049
0.441349
0.425997
0.405511
0.384498
0.354357
0.325689
0.276527
0.242687
0.142792
0.145782
0.150372
0.267224
0.285585
0.310015
0.316157
0.325662
0.329372
0.335652
0.334575
0.326248
0.314017
0.301248
0.30412
0.329192
0.364713
0.401237
0.433061
0.457489
0.47552
0.488857
0.499075
0.507387
0.514529
0.520918
0.526619
0.531626
0.535733
0.538922
0.541067
0.542415
0.542942
0.542934
0.542305
0.541333
0.539836
0.538091
0.53583
0.533357
0.530309
0.527051
0.523104
0.518927
0.51388
0.508563
0.502104
0.495312
0.486972
0.478211
0.467261
0.455772
0.441038
0.425641
0.405112
0.384026
0.353836
0.32503
0.275858
0.241712
0.142111
0.14439
0.156126
0.267254
0.285829
0.31003
0.316173
0.325633
0.32935
0.335786
0.33496
0.326562
0.31395
0.300458
0.302979
0.327737
0.363642
0.400532
0.432678
0.457295
0.475401
0.488754
0.498967
0.507269
0.514408
0.520804
0.526521
0.531547
0.53567
0.538871
0.541017
0.542362
0.542884
0.54287
0.542235
0.541257
0.539754
0.538003
0.535736
0.533256
0.530201
0.526936
0.522979
0.518793
0.513735
0.508405
0.501932
0.495124
0.486765
0.477982
0.467007
0.455487
0.44072
0.425279
0.404707
0.38355
0.353313
0.324373
0.275194
0.240755
0.141455
0.143079
0.161433
0.267366
0.286112
0.310057
0.316204
0.325612
0.329338
0.335941
0.335376
0.326871
0.313835
0.299625
0.301665
0.326177
0.362515
0.3998
0.432287
0.457102
0.47528
0.488646
0.498849
0.507137
0.514272
0.520674
0.526407
0.531454
0.535596
0.53881
0.540957
0.542299
0.542815
0.542795
0.542154
0.54117
0.539661
0.537905
0.535631
0.533146
0.530083
0.526811
0.522845
0.51865
0.513581
0.508239
0.501751
0.494927
0.48655
0.477746
0.466746
0.455197
0.440398
0.424912
0.4043
0.383071
0.352789
0.323718
0.274534
0.239816
0.140826
0.141841
0.166298
0.267659
0.286421
0.310092
0.316244
0.325601
0.329336
0.336116
0.335818
0.327176
0.313686
0.298818
0.300152
0.32454
0.361349
0.399055
0.431896
0.456912
0.475158
0.488533
0.498721
0.506991
0.514119
0.520528
0.526278
0.531347
0.535509
0.538738
0.540887
0.542226
0.542737
0.542711
0.542064
0.541074
0.539558
0.537798
0.535518
0.533027
0.529957
0.526677
0.522703
0.518499
0.513419
0.508066
0.501564
0.494725
0.486329
0.477504
0.466481
0.454902
0.440072
0.424542
0.40389
0.382592
0.352266
0.323068
0.27388
0.238897
0.140222
0.14067
0.170811
0.268122
0.28674
0.310133
0.316295
0.325598
0.329343
0.336307
0.33628
0.327475
0.313513
0.298008
0.298507
0.322849
0.36016
0.398305
0.431509
0.456726
0.475037
0.488415
0.498584
0.506833
0.513952
0.520366
0.526134
0.531228
0.535412
0.538656
0.540807
0.542144
0.54265
0.542617
0.541964
0.540969
0.539448
0.537682
0.535396
0.5329
0.529823
0.526537
0.522554
0.518342
0.513251
0.507887
0.501371
0.494517
0.486104
0.477258
0.466212
0.454603
0.439744
0.42417
0.403479
0.382113
0.351745
0.322423
0.273232
0.237998
0.139642
0.13956
0.175087
0.268699
0.287055
0.310177
0.316353
0.325604
0.329359
0.336508
0.336755
0.327769
0.313323
0.297152
0.296794
0.32112
0.358955
0.397557
0.431129
0.456546
0.474917
0.488294
0.498439
0.506662
0.51377
0.520188
0.525976
0.531095
0.535303
0.538565
0.540718
0.542054
0.542555
0.542517
0.541858
0.540857
0.539331
0.53756
0.535269
0.532768
0.529684
0.526392
0.522401
0.51818
0.513078
0.507704
0.501174
0.494306
0.485876
0.477009
0.465941
0.454303
0.439414
0.423798
0.40307
0.381637
0.351227
0.321786
0.272592
0.237119
0.139084
0.138506
0.179219
0.269344
0.287358
0.310222
0.316418
0.325618
0.329386
0.336712
0.337235
0.328055
0.313123
0.296256
0.295037
0.319366
0.357741
0.396812
0.430758
0.456375
0.474801
0.488172
0.498289
0.506482
0.513574
0.519996
0.525803
0.53095
0.535184
0.538466
0.540623
0.541957
0.542453
0.542409
0.541745
0.54074
0.539208
0.537434
0.535137
0.532631
0.529541
0.526243
0.522244
0.518015
0.512903
0.507519
0.500976
0.494093
0.485646
0.476759
0.46567
0.454002
0.439085
0.423427
0.402662
0.381164
0.350714
0.321156
0.271962
0.236261
0.138545
0.137505
0.183265
0.270023
0.287645
0.310267
0.31649
0.325641
0.32942
0.336918
0.337712
0.328333
0.312916
0.295338
0.29325
0.317599
0.356528
0.39608
0.430396
0.456214
0.474689
0.48805
0.498134
0.506292
0.513367
0.51979
0.525617
0.530794
0.535057
0.538361
0.540521
0.541855
0.542346
0.542298
0.541628
0.540618
0.539082
0.537303
0.535001
0.532491
0.529395
0.526091
0.522084
0.517848
0.512727
0.507332
0.500776
0.493879
0.485417
0.476509
0.465399
0.453703
0.438759
0.423059
0.402259
0.380697
0.350207
0.320537
0.271342
0.235425
0.138025
0.136552
0.187268
0.270715
0.287917
0.310311
0.316567
0.325671
0.32946
0.337121
0.338178
0.328597
0.312704
0.294416
0.291454
0.315836
0.355324
0.395362
0.430046
0.456063
0.474584
0.487929
0.497976
0.506096
0.51315
0.519572
0.525419
0.530628
0.534922
0.538251
0.540415
0.541749
0.542236
0.542182
0.541508
0.540493
0.538953
0.53717
0.534864
0.53235
0.529248
0.525939
0.521925
0.517681
0.51255
0.507145
0.500578
0.493666
0.485189
0.476261
0.465131
0.453407
0.438436
0.422695
0.40186
0.380236
0.349707
0.319928
0.270733
0.234611
0.137523
0.135645
0.191252
0.271403
0.288177
0.310354
0.316648
0.325708
0.329505
0.337317
0.338626
0.328847
0.312492
0.293507
0.289669
0.314092
0.354143
0.394661
0.42971
0.455924
0.474484
0.48781
0.497818
0.505895
0.512923
0.519343
0.525209
0.530452
0.534779
0.538136
0.540306
0.54164
0.542123
0.542064
0.541385
0.540367
0.538822
0.537036
0.534725
0.532207
0.5291
0.525786
0.521765
0.517514
0.512375
0.50696
0.500381
0.493456
0.484963
0.476017
0.464866
0.453115
0.438117
0.422338
0.401468
0.379783
0.349217
0.319331
0.270136
0.233819
0.137036
0.134779
0.195233
0.272077
0.288432
0.310396
0.316734
0.325753
0.329556
0.337501
0.339044
0.329084
0.312285
0.292627
0.287916
0.312387
0.352997
0.393985
0.429391
0.455797
0.474391
0.487695
0.497659
0.50569
0.512689
0.519104
0.524989
0.530268
0.534631
0.538019
0.540194
0.541529
0.542009
0.541946
0.541262
0.540239
0.538691
0.536902
0.534587
0.532065
0.528953
0.525634
0.521607
0.517349
0.512201
0.506777
0.500187
0.493248
0.484741
0.475776
0.464606
0.452829
0.437805
0.421987
0.401084
0.379339
0.348736
0.318747
0.269553
0.233051
0.136565
0.133954
0.19922
0.272731
0.288689
0.310438
0.316823
0.325804
0.329612
0.33767
0.33943
0.329298
0.312088
0.291789
0.286216
0.310746
0.351896
0.393339
0.429088
0.455681
0.474304
0.487583
0.497502
0.505484
0.512449
0.518856
0.524759
0.530076
0.534477
0.5379
0.540081
0.541418
0.541895
0.541827
0.541139
0.540112
0.53856
0.536768
0.534449
0.531924
0.528808
0.525484
0.52145
0.517186
0.51203
0.506597
0.499996
0.493044
0.484523
0.47554
0.464351
0.452548
0.4375
0.421643
0.400709
0.378905
0.348267
0.318179
0.268985
0.232306
0.13611
0.133166
0.203212
0.273361
0.288957
0.310483
0.316917
0.325863
0.329674
0.337821
0.339778
0.32949
0.311902
0.291012
0.284598
0.309186
0.350853
0.392729
0.428803
0.455576
0.474222
0.487475
0.497347
0.505276
0.512205
0.5186
0.52452
0.529876
0.534319
0.53778
0.539968
0.541307
0.541781
0.541708
0.541016
0.539986
0.53843
0.536636
0.534313
0.531785
0.528664
0.525336
0.521296
0.517025
0.511863
0.50642
0.499809
0.492845
0.48431
0.475309
0.464103
0.452274
0.437202
0.421309
0.400343
0.378483
0.347811
0.317625
0.268433
0.231585
0.135671
0.132415
0.207208
0.273971
0.289244
0.310533
0.317015
0.325928
0.329741
0.337951
0.340082
0.329655
0.311727
0.290296
0.2831
0.307726
0.349885
0.392162
0.428535
0.455479
0.474145
0.487369
0.497195
0.50507
0.511959
0.51834
0.524274
0.52967
0.534156
0.537659
0.539855
0.541197
0.541669
0.541591
0.540895
0.539861
0.538302
0.536505
0.534179
0.531648
0.528523
0.525191
0.521146
0.516869
0.511699
0.506247
0.499626
0.49265
0.484103
0.475084
0.463861
0.452008
0.436912
0.420984
0.399987
0.378072
0.347367
0.317089
0.267899
0.23089
0.135248
0.131699
0.21117
0.274596
0.289558
0.310591
0.317119
0.326001
0.329814
0.33806
0.340337
0.329793
0.311559
0.289658
0.281749
0.30639
0.349004
0.391643
0.428286
0.455389
0.474069
0.487267
0.497046
0.504867
0.511712
0.518075
0.524021
0.529458
0.533989
0.537539
0.539743
0.541089
0.541558
0.541476
0.540776
0.539738
0.538176
0.536377
0.534048
0.531514
0.528385
0.525048
0.520998
0.516715
0.511539
0.506079
0.499449
0.492461
0.483901
0.474866
0.463626
0.451749
0.436631
0.420668
0.399643
0.377674
0.346938
0.31657
0.267382
0.23022
0.134842
0.131017
0.215061
0.275273
0.289904
0.31066
0.317231
0.326082
0.329892
0.338146
0.34054
0.329901
0.311389
0.28912
0.280568
0.305201
0.348225
0.39118
0.428058
0.455305
0.473993
0.487166
0.496901
0.504667
0.511468
0.517808
0.523762
0.52924
0.533819
0.53742
0.539633
0.540983
0.54145
0.541363
0.540659
0.539618
0.538053
0.536251
0.53392
0.531383
0.52825
0.52491
0.520855
0.516566
0.511384
0.505915
0.499276
0.492277
0.483705
0.474654
0.463398
0.451499
0.436359
0.420363
0.399309
0.37729
0.346522
0.316068
0.266883
0.229577
0.134453
0.130369
0.218872
0.276007
0.290283
0.310743
0.317351
0.326172
0.329976
0.338211
0.34069
0.329977
0.311218
0.288693
0.27958
0.304178
0.347559
0.390778
0.42785
0.455224
0.473915
0.487065
0.496759
0.504471
0.511227
0.517541
0.5235
0.529019
0.533647
0.537302
0.539524
0.54088
0.541345
0.541254
0.540546
0.539501
0.537933
0.536129
0.533794
0.531255
0.528119
0.524775
0.520716
0.516421
0.511233
0.505757
0.499109
0.492099
0.483516
0.474449
0.463178
0.451256
0.436095
0.420068
0.398987
0.376918
0.346121
0.315585
0.266403
0.228959
0.134082
0.129753
0.222611
0.276792
0.290698
0.310844
0.317482
0.326271
0.330067
0.338254
0.340785
0.33002
0.311058
0.288378
0.278806
0.303339
0.347018
0.390442
0.427663
0.455144
0.473831
0.486962
0.49662
0.50428
0.510988
0.51728
0.523235
0.528796
0.533472
0.537187
0.539418
0.54078
0.541243
0.541147
0.540435
0.539386
0.537816
0.53601
0.533673
0.531131
0.527992
0.524644
0.520581
0.516281
0.511087
0.505603
0.498947
0.491927
0.483332
0.474251
0.462965
0.451023
0.435841
0.419783
0.398676
0.37656
0.345735
0.31512
0.265943
0.228368
0.133729
0.129168
0.22628
0.277622
0.291148
0.310963
0.317625
0.326381
0.330167
0.338279
0.340826
0.330033
0.310911
0.288183
0.278264
0.302703
0.346612
0.390175
0.427499
0.455064
0.473738
0.486856
0.496484
0.504096
0.510741
0.51703
0.522975
0.528571
0.533296
0.537075
0.539314
0.540684
0.541145
0.541044
0.540328
0.539276
0.537702
0.535894
0.533554
0.531011
0.527868
0.524517
0.52045
0.516145
0.510946
0.505455
0.498791
0.491761
0.483156
0.47406
0.462759
0.450797
0.435597
0.419509
0.398377
0.376215
0.345364
0.314673
0.265501
0.227802
0.133393
0.128613
0.229881
0.278493
0.291633
0.311104
0.317782
0.326502
0.330275
0.338286
0.340816
0.330017
0.310779
0.288115
0.277967
0.302284
0.346348
0.389978
0.427358
0.454986
0.473635
0.486745
0.49635
0.503922
0.51049
0.516783
0.522726
0.528346
0.533119
0.536966
0.539214
0.540591
0.54105
0.540945
0.540225
0.539168
0.537592
0.535782
0.53344
0.530895
0.527749
0.524395
0.520324
0.516015
0.510809
0.505312
0.49864
0.491601
0.482985
0.473877
0.462562
0.45058
0.435361
0.419245
0.398089
0.375884
0.345008
0.314244
0.265077
0.227263
0.133073
0.128088
0.233418
0.279401
0.292149
0.31127
0.317955
0.326638
0.330395
0.33828
0.340759
0.329977
0.310662
0.288183
0.27793
0.302095
0.346235
0.389851
0.427245
0.454905
0.473519
0.486625
0.496216
0.503753
0.510258
0.516515
0.522494
0.528122
0.532945
0.536861
0.539117
0.540503
0.54096
0.54085
0.540125
0.539065
0.537486
0.535674
0.53333
0.530782
0.527634
0.524277
0.520202
0.515889
0.510678
0.505174
0.498496
0.491447
0.482822
0.4737
0.462372
0.450372
0.435135
0.418992
0.397813
0.375566
0.344666
0.313834
0.264673
0.226748
0.132771
0.127591
0.236891
0.280342
0.29269
0.311471
0.318145
0.326787
0.330527
0.338264
0.340661
0.32992
0.310562
0.288395
0.278162
0.302146
0.346276
0.389813
0.427177
0.454784
0.473386
0.486495
0.496081
0.50359
0.51005
0.516228
0.522273
0.52791
0.53277
0.536761
0.539024
0.540418
0.540874
0.540758
0.54003
0.538965
0.537384
0.535569
0.533223
0.530674
0.527523
0.524163
0.520086
0.515768
0.510552
0.505042
0.498357
0.4913
0.482665
0.473531
0.46219
0.450172
0.434919
0.418749
0.397549
0.375262
0.344339
0.313442
0.264286
0.226259
0.132484
0.127121
0.240304
0.281312
0.293253
0.311707
0.318351
0.326953
0.330672
0.338242
0.340527
0.329853
0.310487
0.288755
0.278669
0.302446
0.346476
0.389928
0.427123
0.454589
0.473234
0.486353
0.495944
0.503433
0.509853
0.515966
0.522033
0.527714
0.532588
0.536669
0.538934
0.540337
0.540792
0.540671
0.539938
0.538869
0.537286
0.535469
0.533121
0.53057
0.527417
0.524054
0.519974
0.515652
0.510432
0.504916
0.498224
0.491159
0.482515
0.473369
0.462017
0.449981
0.434712
0.418517
0.397296
0.374971
0.344027
0.313068
0.263919
0.225794
0.132213
0.126678
0.243658
0.282307
0.293848
0.311971
0.318575
0.327135
0.330834
0.33822
0.340368
0.329784
0.310465
0.289247
0.279453
0.302998
0.346841
0.390197
0.427052
0.454341
0.473062
0.486197
0.495803
0.50328
0.509665
0.515736
0.521774
0.527533
0.532399
0.536587
0.538849
0.540261
0.540714
0.540588
0.539851
0.538778
0.537191
0.535373
0.533023
0.53047
0.527315
0.52395
0.519866
0.515541
0.510316
0.504795
0.498097
0.491024
0.482372
0.473215
0.461851
0.449799
0.434514
0.418296
0.397056
0.374694
0.34373
0.312712
0.263569
0.225353
0.131957
0.126259
0.246956
0.283323
0.29448
0.312254
0.318816
0.327335
0.331014
0.338201
0.340193
0.329724
0.310522
0.28986
0.280513
0.303804
0.347369
0.390568
0.426976
0.454073
0.472869
0.486026
0.495657
0.503132
0.509486
0.515521
0.521522
0.527361
0.532222
0.536503
0.538769
0.54019
0.540641
0.540509
0.539768
0.53869
0.537101
0.535281
0.532929
0.530375
0.527218
0.52385
0.519764
0.515435
0.510206
0.504679
0.497976
0.490896
0.482235
0.473068
0.461693
0.449626
0.434327
0.418086
0.396826
0.37443
0.343447
0.312374
0.263237
0.224936
0.131716
0.125865
0.250202
0.28436
0.295149
0.312553
0.319075
0.327553
0.331213
0.338192
0.340012
0.329684
0.310673
0.290596
0.281843
0.304861
0.348051
0.391035
0.426873
0.453814
0.472652
0.485838
0.495505
0.502987
0.509316
0.515319
0.521288
0.52719
0.532068
0.536403
0.538696
0.540123
0.540572
0.540435
0.539689
0.538607
0.537015
0.535193
0.53284
0.530284
0.527125
0.523755
0.519667
0.515334
0.510102
0.50457
0.497861
0.490774
0.482106
0.472928
0.461543
0.449461
0.434148
0.417886
0.396609
0.37418
0.343179
0.312053
0.262923
0.224543
0.131489
0.125495
0.253399
0.285416
0.295847
0.312868
0.319354
0.327789
0.331432
0.338197
0.339834
0.329674
0.310933
0.291459
0.283436
0.306164
0.348879
0.391588
0.426727
0.453586
0.472414
0.485633
0.495344
0.502844
0.509155
0.515127
0.521077
0.527024
0.531934
0.536285
0.538633
0.54006
0.540508
0.540365
0.539615
0.538527
0.536933
0.535109
0.532754
0.530198
0.527036
0.523664
0.519574
0.515239
0.510002
0.504466
0.497752
0.490659
0.481983
0.472796
0.461401
0.449306
0.43398
0.417697
0.396404
0.373944
0.342926
0.311751
0.262627
0.224173
0.131276
0.125148
0.256548
0.286489
0.296568
0.313205
0.319652
0.328045
0.331674
0.338221
0.339672
0.329706
0.311318
0.292453
0.285279
0.307702
0.34984
0.392159
0.426594
0.453396
0.472155
0.485411
0.495174
0.502702
0.509003
0.514948
0.520882
0.526864
0.53182
0.536156
0.538582
0.540003
0.540449
0.5403
0.539544
0.538452
0.536856
0.535029
0.532674
0.530116
0.526953
0.523579
0.519487
0.515148
0.509909
0.504368
0.49765
0.49055
0.481867
0.472672
0.461267
0.449159
0.433821
0.417519
0.39621
0.373722
0.342688
0.311467
0.262349
0.223825
0.131076
0.124824
0.259654
0.287576
0.297307
0.313562
0.319968
0.328318
0.33194
0.338268
0.339536
0.329791
0.311846
0.293581
0.287354
0.309464
0.350928
0.392688
0.426554
0.45321
0.471878
0.48517
0.494993
0.502561
0.50886
0.514781
0.520702
0.526708
0.531729
0.536019
0.538545
0.539949
0.540394
0.540239
0.539478
0.538381
0.536782
0.534954
0.532597
0.530038
0.526874
0.523498
0.519404
0.515063
0.50982
0.504276
0.497553
0.490448
0.481759
0.472555
0.461142
0.449021
0.433672
0.417352
0.396029
0.373513
0.342464
0.3112
0.262088
0.223501
0.13089
0.124521
0.26272
0.288675
0.298065
0.313939
0.320303
0.328609
0.332229
0.338343
0.339436
0.329938
0.312529
0.294851
0.289637
0.311433
0.352135
0.393191
0.426601
0.453002
0.471582
0.484911
0.494802
0.50242
0.508725
0.514627
0.520539
0.526555
0.531665
0.535871
0.538522
0.539901
0.540344
0.540182
0.539417
0.538314
0.536713
0.534883
0.532525
0.529965
0.526799
0.523422
0.519327
0.514983
0.509737
0.50419
0.497463
0.490352
0.481657
0.472446
0.461024
0.448893
0.433532
0.417196
0.395859
0.373318
0.342255
0.310951
0.261845
0.223199
0.130717
0.124241
0.265748
0.289785
0.29884
0.314333
0.320655
0.328919
0.332542
0.338448
0.339379
0.330157
0.313373
0.296278
0.292099
0.313587
0.35345
0.393711
0.426675
0.452774
0.471267
0.484633
0.4946
0.502277
0.508599
0.514486
0.52039
0.526408
0.531636
0.535724
0.538497
0.539857
0.540299
0.54013
0.53936
0.538251
0.536648
0.534816
0.532457
0.529896
0.526729
0.523351
0.519254
0.514909
0.50966
0.504109
0.497379
0.490263
0.481563
0.472344
0.460915
0.448773
0.433403
0.417051
0.395701
0.373136
0.342061
0.31072
0.261619
0.222919
0.130557
0.123981
0.268741
0.290903
0.29963
0.314744
0.321023
0.329245
0.332878
0.338587
0.339374
0.330453
0.314355
0.297902
0.294704
0.315905
0.35486
0.394269
0.426743
0.452526
0.470932
0.484337
0.494386
0.502132
0.50848
0.514359
0.520258
0.52628
0.531621
0.535601
0.538457
0.539818
0.540259
0.540082
0.539307
0.538192
0.536588
0.534754
0.532394
0.529832
0.526664
0.523285
0.519187
0.51484
0.509588
0.504034
0.497301
0.490181
0.481475
0.47225
0.460814
0.448662
0.433283
0.416917
0.395555
0.372969
0.341882
0.310507
0.261411
0.222661
0.13041
0.123743
0.271702
0.292028
0.300434
0.31517
0.321406
0.329588
0.333236
0.338762
0.339425
0.330832
0.315449
0.299759
0.297418
0.31836
0.356348
0.394856
0.426802
0.452258
0.470577
0.484022
0.494159
0.501985
0.508368
0.514245
0.520141
0.526174
0.531606
0.535507
0.538408
0.539785
0.540224
0.540039
0.539258
0.538138
0.536532
0.534695
0.532336
0.529773
0.526603
0.523224
0.519124
0.514776
0.509522
0.503966
0.497229
0.490105
0.481395
0.472164
0.460722
0.448561
0.433173
0.416793
0.395421
0.372815
0.341717
0.310312
0.26122
0.222425
0.130275
0.123525
0.274634
0.293159
0.301251
0.31561
0.321803
0.329946
0.333616
0.338975
0.339537
0.331296
0.316651
0.301854
0.300203
0.320926
0.357899
0.395466
0.426851
0.451971
0.470202
0.483688
0.493921
0.501834
0.508264
0.514145
0.520041
0.526085
0.531601
0.535437
0.538353
0.539759
0.540193
0.54
0.539214
0.538088
0.53648
0.534642
0.532281
0.529718
0.526548
0.523168
0.519067
0.514717
0.509461
0.503903
0.497163
0.490036
0.481322
0.472085
0.460637
0.448468
0.433073
0.416681
0.3953
0.372675
0.341568
0.310134
0.261047
0.222211
0.130153
0.123327
0.277541
0.294294
0.302078
0.316063
0.322215
0.330319
0.334017
0.339224
0.33971
0.331847
0.317957
0.304158
0.30305
0.323576
0.359498
0.396091
0.426888
0.451663
0.469806
0.483336
0.49367
0.501681
0.508165
0.514059
0.519957
0.526011
0.531611
0.535389
0.538294
0.539739
0.540168
0.539966
0.539174
0.538042
0.536432
0.534592
0.532232
0.529668
0.526497
0.523117
0.519014
0.514664
0.509406
0.503846
0.497104
0.489974
0.481255
0.472015
0.460561
0.448385
0.432982
0.41658
0.39519
0.372549
0.341433
0.309974
0.260891
0.222019
0.130044
0.12315
0.280423
0.295432
0.302915
0.316529
0.322638
0.330707
0.334438
0.339511
0.339948
0.332483
0.319362
0.306599
0.305981
0.326287
0.36113
0.396724
0.426913
0.451335
0.469389
0.482965
0.493407
0.501524
0.508073
0.513986
0.51989
0.525951
0.531633
0.535368
0.538231
0.539726
0.540148
0.539936
0.539139
0.538
0.536389
0.534547
0.532187
0.529623
0.52645
0.523071
0.518967
0.514616
0.509356
0.503795
0.497051
0.489918
0.481196
0.471952
0.460493
0.448311
0.432902
0.41649
0.395092
0.372437
0.341313
0.309832
0.260752
0.221848
0.129947
0.122993
0.283285
0.296571
0.303761
0.317005
0.323074
0.331108
0.334879
0.339835
0.340248
0.333198
0.320857
0.309124
0.309004
0.329034
0.362782
0.397362
0.426922
0.450986
0.468951
0.482576
0.493132
0.501364
0.507987
0.513927
0.519841
0.525907
0.531635
0.535401
0.538172
0.539719
0.540133
0.539911
0.539108
0.537963
0.53635
0.534507
0.532146
0.529582
0.526409
0.523029
0.518925
0.514574
0.509313
0.50375
0.497004
0.489869
0.481145
0.471896
0.460434
0.448246
0.432832
0.416412
0.395007
0.372339
0.341208
0.309707
0.260631
0.221699
0.129862
0.122856
0.286127
0.29771
0.304614
0.317492
0.323522
0.331522
0.335337
0.340195
0.34061
0.333989
0.322431
0.311712
0.312088
0.331798
0.364442
0.397998
0.426916
0.450616
0.46849
0.482169
0.492844
0.5012
0.507907
0.513883
0.51981
0.52588
0.531612
0.535474
0.538134
0.539717
0.540123
0.539891
0.539082
0.53793
0.536316
0.53447
0.532111
0.529546
0.526372
0.522993
0.518887
0.514537
0.509274
0.503711
0.496964
0.489827
0.4811
0.471848
0.460383
0.44819
0.432771
0.416344
0.394934
0.372254
0.341118
0.309601
0.260527
0.221572
0.129789
0.122739
0.288954
0.298847
0.305472
0.317989
0.32398
0.331949
0.335812
0.34059
0.341031
0.334848
0.324073
0.314349
0.315208
0.334558
0.366099
0.398629
0.426894
0.450224
0.468006
0.481742
0.492545
0.501032
0.507832
0.513852
0.519797
0.525873
0.531595
0.535545
0.538129
0.539722
0.540119
0.539875
0.53906
0.537901
0.536286
0.534439
0.53208
0.529515
0.52634
0.522962
0.518855
0.514506
0.509242
0.503678
0.49693
0.489792
0.481062
0.471809
0.46034
0.448143
0.432721
0.416288
0.394872
0.372184
0.341044
0.309512
0.26044
0.221465
0.129729
0.122641
0.291766
0.299981
0.306335
0.318495
0.324449
0.332387
0.336305
0.341018
0.341506
0.335771
0.325771
0.317016
0.318339
0.337299
0.367745
0.399252
0.426853
0.449809
0.467499
0.481296
0.492233
0.500861
0.507763
0.513835
0.519802
0.525885
0.531595
0.535599
0.538161
0.539734
0.54012
0.539863
0.539042
0.537876
0.53626
0.534411
0.532053
0.529489
0.526313
0.522936
0.518828
0.514479
0.509215
0.503651
0.496902
0.489763
0.481032
0.471777
0.460306
0.448106
0.432681
0.416243
0.394823
0.372128
0.340984
0.309441
0.260371
0.22138
0.12968
0.122563
0.294567
0.301111
0.307201
0.319008
0.324928
0.332837
0.336813
0.341479
0.342034
0.336749
0.327516
0.319695
0.321462
0.340008
0.369373
0.399864
0.426794
0.44937
0.466967
0.48083
0.49191
0.500686
0.5077
0.513832
0.519825
0.525918
0.531614
0.535642
0.53822
0.539753
0.540125
0.539856
0.539029
0.537856
0.536239
0.534388
0.532031
0.529468
0.52629
0.522915
0.518807
0.514459
0.509194
0.50363
0.49688
0.489741
0.481009
0.471752
0.46028
0.448078
0.43265
0.416209
0.394787
0.372086
0.340938
0.309387
0.260319
0.221317
0.129644
0.122505
0.297358
0.302235
0.308069
0.319529
0.325417
0.333299
0.337336
0.341971
0.342611
0.337777
0.329297
0.322374
0.324559
0.342675
0.370978
0.400462
0.426715
0.448906
0.46641
0.480343
0.491574
0.500509
0.507644
0.513843
0.519868
0.52597
0.531651
0.535694
0.538288
0.539778
0.540136
0.539854
0.53902
0.53784
0.536223
0.53437
0.532015
0.529451
0.526272
0.522898
0.51879
0.514444
0.509178
0.503616
0.496865
0.489726
0.480993
0.471736
0.460262
0.448059
0.43263
0.416186
0.394762
0.372058
0.340908
0.309352
0.260284
0.221274
0.12962
0.122466
0.300141
0.303352
0.308937
0.320057
0.325914
0.333771
0.337875
0.342493
0.343234
0.33885
0.331105
0.32504
0.327619
0.345293
0.372556
0.401045
0.426616
0.448416
0.465825
0.479836
0.491226
0.500328
0.507593
0.51387
0.51993
0.526043
0.531707
0.53576
0.53836
0.53981
0.540152
0.539855
0.539015
0.537828
0.536211
0.534355
0.532003
0.52944
0.526259
0.522887
0.518779
0.514434
0.509169
0.503607
0.496857
0.489717
0.480985
0.471727
0.460253
0.448049
0.432619
0.416175
0.39475
0.372044
0.340893
0.309334
0.260267
0.221253
0.129608
0.122447
0.302919
0.30446
0.309805
0.320591
0.32642
0.334254
0.338428
0.343044
0.3439
0.339963
0.332934
0.327684
0.330631
0.347856
0.374105
0.401612
0.426495
0.447899
0.465211
0.479306
0.490866
0.500145
0.507549
0.513911
0.520013
0.526136
0.531782
0.535839
0.538436
0.539848
0.540172
0.539862
0.539015
0.537821
0.536203
0.534346
0.531996
0.529433
0.526251
0.522881
0.518773
0.51443
0.509165
0.503604
0.496854
0.489716
0.480983
0.471726
0.460252
0.448049
0.432619
0.416174
0.39475
0.372044
0.340893
0.309334
0.260267
0.221253
0.129608
0.122447
0.305694
0.305557
0.31067
0.32113
0.326935
0.334749
0.338997
0.343622
0.344606
0.341111
0.334776
0.330301
0.333589
0.350362
0.375623
0.402162
0.426352
0.447351
0.464567
0.478753
0.490494
0.499959
0.507512
0.513967
0.520115
0.52625
0.531874
0.535931
0.538516
0.539892
0.540197
0.539872
0.539019
0.537817
0.5362
0.534341
0.531994
0.529431
0.526247
0.52288
0.518772
0.514431
0.509166
0.503607
0.496858
0.489721
0.480989
0.471733
0.46026
0.448057
0.432629
0.416185
0.394762
0.372057
0.340908
0.309352
0.260284
0.221274
0.12962
0.122466
0.308468
0.306643
0.311531
0.321673
0.327457
0.335253
0.339579
0.344226
0.34535
0.342291
0.336627
0.332885
0.336489
0.35281
0.37711
0.402693
0.426184
0.446772
0.46389
0.478176
0.490109
0.499771
0.507483
0.514039
0.520237
0.526384
0.531984
0.536034
0.538602
0.539941
0.540227
0.539887
0.539028
0.537818
0.536201
0.53434
0.531997
0.529433
0.526248
0.522884
0.518776
0.514438
0.509174
0.503617
0.496868
0.489733
0.481002
0.471747
0.460276
0.448075
0.432648
0.416208
0.394786
0.372085
0.340938
0.309387
0.260319
0.221317
0.129644
0.122505
0.311242
0.307715
0.312388
0.32222
0.327987
0.335768
0.340176
0.344856
0.346129
0.3435
0.338485
0.335434
0.339329
0.3552
0.378565
0.403205
0.42599
0.446159
0.463178
0.477574
0.48971
0.499581
0.507461
0.514127
0.52038
0.526539
0.532111
0.536148
0.538693
0.539996
0.540261
0.539906
0.539041
0.537823
0.536207
0.534344
0.532005
0.52944
0.526254
0.522894
0.518786
0.51445
0.509187
0.503632
0.496885
0.489751
0.481022
0.47177
0.4603
0.448103
0.432678
0.416241
0.394822
0.372128
0.340983
0.309441
0.260371
0.22138
0.12968
0.122563
0.314019
0.308772
0.313239
0.32277
0.328524
0.336293
0.340788
0.34551
0.346943
0.344735
0.340346
0.337947
0.34211
0.357534
0.37999
0.403698
0.425769
0.445508
0.462429
0.476944
0.489299
0.499389
0.507448
0.514231
0.520543
0.526713
0.532255
0.536272
0.538789
0.540055
0.540299
0.539929
0.539058
0.537833
0.536218
0.534353
0.532017