/*--------------------------------*- C++ -*----------------------------------*\
| =========                 |                                                 |
| \\      /  F ield         | OpenFOAM: The Open Source CFD Toolbox           |
|  \\    /   O peration     | Version:  2.4.0                                 |
|   \\  /    A nd           | Web:      www.OpenFOAM.org                      |
|    \\/     M anipulation  |                                                 |
\*---------------------------------------------------------------------------*/
FoamFile
{
    version     2.0;
    format      ascii;
    class       surfaceScalarField;
    location    "0.9";
    object      phi;
}
// * * * * * * * * * * * * * * * * * * * * * * * * * * * * * * * * * * * * * //

dimensions      [0 3 -1 0 0 0 0];

internalField   nonuniform List<scalar> 
11840
(
8.81917e-07
9.11808e-06
3.48824e-08
8.47034e-07
-4.99293e-08
8.48117e-08
-7.23377e-08
2.24083e-08
-9.11777e-08
1.884e-08
-8.91208e-08
-2.05693e-09
-7.63786e-08
-1.27422e-08
-3.32312e-08
-4.31475e-08
-3.82991e-08
5.06793e-09
-1.4499e-07
1.0669e-07
-3.63317e-07
2.18327e-07
-6.74135e-07
3.10819e-07
-9.33305e-07
2.59169e-07
-9.98987e-07
6.56822e-08
-9.0729e-07
-9.16965e-08
-7.30451e-07
-1.76839e-07
-5.28553e-07
-2.01898e-07
-3.49444e-07
-1.7911e-07
-2.05028e-07
-1.44416e-07
-9.27086e-08
-1.12319e-07
-4.58515e-09
-8.81234e-08
7.06861e-08
-7.52712e-08
1.37747e-07
-6.70607e-08
2.02066e-07
-6.43197e-08
2.64514e-07
-6.2448e-08
3.25699e-07
-6.11844e-08
3.82453e-07
-5.6754e-08
4.34198e-07
-5.1745e-08
4.77931e-07
-4.37328e-08
5.16162e-07
-3.82311e-08
5.47123e-07
-3.09607e-08
5.748e-07
-2.76777e-08
5.96922e-07
-2.2122e-08
6.17945e-07
-2.10226e-08
6.34591e-07
-1.6646e-08
6.51653e-07
-1.70622e-08
6.64909e-07
-1.32558e-08
6.79595e-07
-1.46858e-08
6.90539e-07
-1.09439e-08
7.03752e-07
-1.32136e-08
7.12981e-07
-9.22897e-09
7.25327e-07
-1.23455e-08
7.33218e-07
-7.89092e-09
7.45082e-07
-1.18646e-08
7.51834e-07
-6.75171e-09
7.63557e-07
-1.17226e-08
7.69304e-07
-5.74767e-09
7.81277e-07
-1.19732e-08
7.86072e-07
-4.79483e-09
7.98624e-07
-1.25518e-08
8.02408e-07
-3.78409e-09
8.15899e-07
-1.34911e-08
8.1819e-07
-2.2904e-09
8.33464e-07
-1.52748e-08
8.32277e-07
1.18762e-09
8.53339e-07
-2.10625e-08
8.39619e-07
1.37207e-08
8.79242e-07
-3.96234e-08
8.49876e-07
2.93662e-08
-2.67258e-07
2.08812e-06
1.703e-05
2.55674e-07
2.67948e-06
-6.14726e-08
4.01958e-07
-1.70873e-07
1.31808e-07
-2.22378e-07
7.03449e-08
-2.33737e-07
9.30257e-09
-1.98448e-07
-4.80317e-08
-1.20323e-07
-1.21272e-07
-1.8032e-07
6.50649e-08
-5.01094e-07
4.27464e-07
-1.0696e-06
7.86831e-07
-1.75736e-06
9.98583e-07
-2.24814e-06
7.49951e-07
-2.3184e-06
1.35937e-07
-2.05128e-06
-3.58812e-07
-1.61413e-06
-6.13987e-07
-1.13547e-06
-6.80567e-07
-7.07589e-07
-6.06986e-07
-3.54739e-07
-4.97265e-07
-7.18546e-08
-3.95204e-07
1.59801e-07
-3.19779e-07
3.57041e-07
-2.72512e-07
5.35066e-07
-2.45085e-07
7.03333e-07
-2.32587e-07
8.63543e-07
-2.22658e-07
1.0155e-06
-2.1314e-07
1.15364e-06
-1.94891e-07
1.27624e-06
-1.7435e-07
1.37981e-06
-1.47298e-07
1.46849e-06
-1.2692e-07
1.5414e-06
-1.03863e-07
1.60486e-06
-9.11404e-08
1.6571e-06
-7.4363e-08
1.70468e-06
-6.85985e-08
1.74411e-06
-5.60804e-08
1.78202e-06
-5.49663e-08
1.81345e-06
-4.46925e-08
1.84528e-06
-4.65162e-08
1.87129e-06
-3.69476e-08
1.89913e-06
-4.10549e-08
1.92123e-06
-3.13295e-08
1.94647e-06
-3.75912e-08
1.96567e-06
-2.70864e-08
1.98921e-06
-3.54055e-08
2.00614e-06
-2.36856e-08
2.02873e-06
-3.43127e-08
2.044e-06
-2.10135e-08
2.06637e-06
-3.43409e-08
2.08043e-06
-1.88569e-08
2.10307e-06
-3.51905e-08
2.11628e-06
-1.69945e-08
2.13946e-06
-3.66721e-08
2.15191e-06
-1.47387e-08
2.17594e-06
-3.93084e-08
2.18694e-06
-9.81365e-09
2.21538e-06
-4.94985e-08
2.21635e-06
1.27538e-08
2.25863e-06
-8.19099e-08
2.27947e-06
8.5239e-09
-6.81428e-07
3.11929e-06
2.39107e-05
5.98329e-07
5.20043e-06
8.2382e-09
9.92049e-07
-2.19636e-07
3.59682e-07
-3.12965e-07
1.63673e-07
-3.48083e-07
4.44206e-08
-3.02058e-07
-9.40566e-08
-2.23104e-07
-2.00226e-07
-3.65866e-07
2.07827e-07
-8.96155e-07
9.57754e-07
-1.75332e-06
1.644e-06
-2.68365e-06
1.92891e-06
-3.27077e-06
1.33707e-06
-3.27474e-06
1.39905e-07
-2.82354e-06
-8.10004e-07
-2.16184e-06
-1.2757e-06
-1.46107e-06
-1.38133e-06
-8.37903e-07
-1.23016e-06
-3.20736e-07
-1.01443e-06
1.01223e-07
-8.17163e-07
4.51391e-07
-6.69946e-07
7.54742e-07
-5.75864e-07
1.03055e-06
-5.20894e-07
1.28978e-06
-4.91813e-07
1.53409e-06
-4.66968e-07
1.76192e-06
-4.40973e-07
1.96676e-06
-3.99729e-07
2.14613e-06
-3.53718e-07
2.29748e-06
-2.98653e-07
2.42574e-06
-2.55177e-07
2.53184e-06
-2.09965e-07
2.6229e-06
-1.822e-07
2.69878e-06
-1.50248e-07
2.76632e-06
-1.36137e-07
2.82337e-06
-1.1313e-07
2.87637e-06
-1.0796e-07
2.92154e-06
-8.98651e-08
2.96517e-06
-9.01429e-08
3.00227e-06
-7.40503e-08
3.03958e-06
-7.83607e-08
3.07098e-06
-6.27358e-08
3.10401e-06
-7.06209e-08
3.13129e-06
-5.43689e-08
3.16137e-06
-6.54837e-08
3.18564e-06
-4.79558e-08
3.21389e-06
-6.25636e-08
3.23621e-06
-4.33323e-08
3.26365e-06
-6.17798e-08
3.28493e-06
-4.01356e-08
3.31216e-06
-6.24202e-08
3.33327e-06
-3.81102e-08
3.3604e-06
-6.37994e-08
3.38226e-06
-3.65988e-08
3.40934e-06
-6.63865e-08
3.43312e-06
-3.35981e-08
3.46308e-06
-7.94541e-08
3.48399e-06
-8.15821e-09
3.51809e-06
-1.16009e-07
3.59801e-06
-7.13965e-08
-1.12253e-06
4.01201e-06
2.98987e-05
1.03802e-06
8.17443e-06
1.43058e-07
1.88701e-06
-2.13819e-07
7.16559e-07
-3.63349e-07
3.13203e-07
-4.30183e-07
1.11254e-07
-3.89207e-07
-1.35032e-07
-3.33369e-07
-2.56064e-07
-5.72032e-07
4.4649e-07
-1.28976e-06
1.67548e-06
-2.35863e-06
2.71287e-06
-3.41701e-06
2.98729e-06
-4.0055e-06
1.92556e-06
-3.90233e-06
3.67374e-08
-3.27972e-06
-1.43262e-06
-2.43704e-06
-2.11838e-06
-1.56794e-06
-2.25043e-06
-7.97229e-07
-2.00087e-06
-1.52283e-07
-1.65938e-06
3.81711e-07
-1.35116e-06
8.31372e-07
-1.11961e-06
1.22619e-06
-9.70685e-07
1.58699e-06
-8.81693e-07
1.92469e-06
-8.29506e-07
2.24035e-06
-7.82632e-07
2.53123e-06
-7.31856e-07
2.79044e-06
-6.58936e-07
3.01527e-06
-5.7855e-07
3.20438e-06
-4.87762e-07
3.36341e-06
-4.14206e-07
3.49501e-06
-3.41562e-07
3.60683e-06
-2.94027e-07
3.70024e-06
-2.4365e-07
3.78213e-06
-2.18032e-07
3.85161e-06
-1.82606e-07
3.9148e-06
-1.71155e-07
3.96907e-06
-1.44137e-07
4.02005e-06
-1.41122e-07
4.06399e-06
-1.17983e-07
4.10661e-06
-1.20987e-07
4.1433e-06
-9.94222e-08
4.18019e-06
-1.07508e-07
4.21169e-06
-8.58718e-08
4.24455e-06
-9.8343e-08
4.27241e-06
-7.58133e-08
4.3027e-06
-9.28583e-08
4.3284e-06
-6.9031e-08
4.35742e-06
-9.08041e-08
4.38226e-06
-6.49762e-08
4.41079e-06
-9.09455e-08
4.43606e-06
-6.33762e-08
4.46433e-06
-9.20723e-08
4.49141e-06
-6.36806e-08
4.52061e-06
-9.55845e-08
4.5512e-06
-6.41923e-08
4.58344e-06
-1.1169e-07
4.61728e-06
-4.20032e-08
4.6513e-06
-1.50025e-07
4.7627e-06
-1.82796e-07
-1.55082e-06
4.80185e-06
3.50968e-05
1.54686e-06
1.14294e-05
3.55566e-07
3.07831e-06
-1.52362e-07
1.22449e-06
-3.72411e-07
5.33252e-07
-4.79891e-07
2.18734e-07
-4.58349e-07
-1.56573e-07
-4.42284e-07
-2.72129e-07
-7.78409e-07
7.82615e-07
-1.65055e-06
2.54762e-06
-2.85224e-06
3.91456e-06
-3.95056e-06
4.08562e-06
-4.48061e-06
2.45561e-06
-4.25324e-06
-1.90633e-07
-3.48675e-06
-2.19911e-06
-2.50928e-06
-3.09585e-06
-1.5167e-06
-3.24301e-06
-6.35548e-07
-2.88202e-06
1.08215e-07
-2.40314e-06
7.31122e-07
-1.97406e-06
1.26404e-06
-1.65253e-06
1.73705e-06
-1.4437e-06
2.17097e-06
-1.31561e-06
2.57585e-06
-1.23439e-06
2.95196e-06
-1.15874e-06
3.29547e-06
-1.07536e-06
3.59936e-06
-9.62829e-07
3.86089e-06
-8.40081e-07
4.07991e-06
-7.06782e-07
4.26273e-06
-5.97024e-07
4.41357e-06
-4.92404e-07
4.54051e-06
-4.20968e-07
4.64627e-06
-3.49411e-07
4.73775e-06
-3.09513e-07
4.81521e-06
-2.60064e-07
4.88442e-06
-2.40365e-07
4.94383e-06
-2.03547e-07
4.99839e-06
-1.95684e-07
5.04554e-06
-1.6513e-07
5.09003e-06
-1.65478e-07
5.12862e-06
-1.3801e-07
5.16613e-06
-1.45025e-07
5.19865e-06
-1.18385e-07
5.23123e-06
-1.30924e-07
5.25957e-06
-1.04153e-07
5.28898e-06
-1.22269e-07
5.31499e-06
-9.50393e-08
5.34278e-06
-1.18604e-07
5.36807e-06
-9.02614e-08
5.39526e-06
-1.18136e-07
5.42135e-06
-8.94662e-08
5.44866e-06
-1.19383e-07
5.4771e-06
-9.21228e-08
5.5074e-06
-1.25879e-07
5.53963e-06
-9.64228e-08
5.57313e-06
-1.45194e-07
5.61472e-06
-8.35937e-08
5.65209e-06
-1.87397e-07
5.775e-06
-3.05703e-07
-1.9436e-06
5.5102e-06
3.95866e-05
2.10401e-06
1.48356e-05
6.38052e-07
4.54427e-06
-3.60983e-08
1.89864e-06
-3.38974e-07
8.36128e-07
-4.96594e-07
3.76354e-07
-5.07047e-07
-1.46121e-07
-5.41068e-07
-2.38108e-07
-9.67196e-07
1.20874e-06
-1.95532e-06
3.53574e-06
-3.21807e-06
5.17731e-06
-4.29642e-06
5.16397e-06
-4.73571e-06
2.8949e-06
-4.38707e-06
-5.39277e-07
-3.51205e-06
-3.07413e-06
-2.43669e-06
-4.1712e-06
-1.35622e-06
-4.32348e-06
-3.95586e-07
-3.84265e-06
4.22943e-07
-3.22167e-06
1.1169e-06
-2.66802e-06
1.71861e-06
-2.25424e-06
2.25757e-06
-1.98265e-06
2.75379e-06
-1.81183e-06
3.21615e-06
-1.69674e-06
3.64385e-06
-1.58644e-06
4.03198e-06
-1.4635e-06
4.37337e-06
-1.30422e-06
4.66515e-06
-1.13186e-06
4.90823e-06
-9.49863e-07
5.10952e-06
-7.98317e-07
5.27474e-06
-6.57615e-07
5.41231e-06
-5.58545e-07
5.52629e-06
-4.63384e-07
5.62351e-06
-4.06734e-07
5.70535e-06
-3.41903e-07
5.7772e-06
-3.12222e-07
5.83858e-06
-2.6492e-07
5.89375e-06
-2.50853e-07
5.94126e-06
-2.12646e-07
5.98496e-06
-2.09175e-07
6.02285e-06
-1.75897e-07
6.05857e-06
-1.80747e-07
6.08966e-06
-1.49479e-07
6.11971e-06
-1.60975e-07
6.14619e-06
-1.30633e-07
6.17259e-06
-1.48669e-07
6.19658e-06
-1.19023e-07
6.22114e-06
-1.43164e-07
6.24444e-06
-1.1356e-07
6.26845e-06
-1.42149e-07
6.29267e-06
-1.13689e-07
6.3177e-06
-1.44413e-07
6.34426e-06
-1.18684e-07
6.37376e-06
-1.55377e-07
6.40432e-06
-1.26983e-07
6.43763e-06
-1.78507e-07
6.48127e-06
-1.27228e-07
6.52561e-06
-2.31744e-07
6.64484e-06
-4.24931e-07
-2.29138e-06
6.15067e-06
4.34359e-05
2.69428e-06
1.8292e-05
9.84929e-07
6.25362e-06
1.41728e-07
2.74184e-06
-2.61805e-07
1.23966e-06
-4.79441e-07
5.93989e-07
-5.3244e-07
-9.3122e-08
-6.21527e-07
-1.49021e-07
-1.12399e-06
1.7112e-06
-2.18764e-06
4.59939e-06
-3.45484e-06
6.44451e-06
-4.47504e-06
6.18417e-06
-4.81378e-06
3.23363e-06
-4.35991e-06
-9.93141e-07
-3.40667e-06
-4.02737e-06
-2.26522e-06
-5.31266e-06
-1.12594e-06
-5.46275e-06
-1.10378e-07
-4.85822e-06
7.63804e-07
-4.09585e-06
1.51306e-06
-3.41728e-06
2.17012e-06
-2.9113e-06
2.76353e-06
-2.57606e-06
3.3123e-06
-2.36061e-06
3.82386e-06
-2.2083e-06
4.29622e-06
-2.05881e-06
4.72313e-06
-1.8904e-06
5.09697e-06
-1.67806e-06
5.41451e-06
-1.4494e-06
5.67752e-06
-1.21287e-06
5.89345e-06
-1.01424e-06
6.0694e-06
-8.33572e-07
6.21424e-06
-7.03378e-07
6.33325e-06
-5.82396e-07
6.43326e-06
-5.06747e-07
6.51672e-06
-4.25365e-07
6.58868e-06
-3.84177e-07
6.64963e-06
-3.25869e-07
6.70322e-06
-3.0445e-07
6.74903e-06
-2.58453e-07
6.79006e-06
-2.50203e-07
6.82542e-06
-2.11252e-07
6.85771e-06
-2.13039e-07
6.88572e-06
-1.77493e-07
6.91178e-06
-1.87035e-07
6.93482e-06
-1.53676e-07
6.95688e-06
-1.70725e-07
6.97725e-06
-1.39389e-07
6.99734e-06
-1.63256e-07
7.01694e-06
-1.33158e-07
7.0367e-06
-1.61913e-07
7.05709e-06
-1.34084e-07
7.07911e-06
-1.66429e-07
7.10139e-06
-1.40958e-07
7.12787e-06
-1.8186e-07
7.155e-06
-1.54116e-07
7.18663e-06
-2.10139e-07
7.22895e-06
-1.69545e-07
7.27676e-06
-2.79557e-07
7.38917e-06
-5.3734e-07
-2.59008e-06
6.73205e-06
4.67039e-05
3.30652e-06
2.17175e-05
1.39007e-06
8.17007e-06
3.74186e-07
3.75772e-06
-1.39622e-07
1.75347e-06
-4.26741e-07
8.81109e-07
-5.31433e-07
1.15695e-08
-6.76546e-07
-3.90839e-09
-1.23813e-06
2.27279e-06
-2.33887e-06
5.70013e-06
-3.56976e-06
7.6754e-06
-4.51119e-06
7.1256e-06
-4.75425e-06
3.4767e-06
-4.21731e-06
-1.53008e-06
-3.21241e-06
-5.03227e-06
-2.03001e-06
-6.49506e-06
-8.54078e-07
-6.63869e-06
1.99166e-07
-5.91146e-06
1.11091e-06
-5.00759e-06
1.9008e-06
-4.20717e-06
2.60024e-06
-3.61074e-06
3.23708e-06
-3.2129e-06
3.82937e-06
-2.9529e-06
4.38301e-06
-2.76194e-06
4.89456e-06
-2.57035e-06
5.35605e-06
-2.3519e-06
5.75898e-06
-2.08099e-06
6.09938e-06
-1.7898e-06
6.37959e-06
-1.49307e-06
6.60754e-06
-1.24219e-06
6.7917e-06
-1.01773e-06
6.94137e-06
-8.53055e-07
7.06312e-06
-7.04145e-07
7.1638e-06
-6.0742e-07
7.24689e-06
-5.08455e-07
7.31714e-06
-4.54428e-07
7.37599e-06
-3.84721e-07
7.42655e-06
-3.5501e-07
7.46926e-06
-3.01169e-07
7.50645e-06
-2.87385e-07
7.53813e-06
-2.42937e-07
7.56605e-06
-2.40964e-07
7.59001e-06
-2.01452e-07
7.61132e-06
-2.08344e-07
7.63003e-06
-1.72382e-07
7.64711e-06
-1.87802e-07
7.66294e-06
-1.55221e-07
7.67803e-06
-1.7835e-07
7.6929e-06
-1.48019e-07
7.70802e-06
-1.77041e-07
7.72337e-06
-1.49431e-07
7.74138e-06
-1.84437e-07
7.75837e-06
-1.57947e-07
7.78047e-06
-2.03959e-07
7.80296e-06
-1.76607e-07
7.83161e-06
-2.38791e-07
7.86996e-06
-2.07896e-07
7.91922e-06
-3.28816e-07
8.02162e-06
-6.39739e-07
-2.8415e-06
7.26034e-06
4.94435e-05
3.93395e-06
2.50439e-05
1.84686e-06
1.02572e-05
6.60566e-07
4.94401e-06
2.90958e-08
2.38494e-06
-3.36978e-07
1.24718e-06
-5.00817e-07
1.75409e-07
-7.00249e-07
1.95524e-07
-1.30259e-06
2.87513e-06
-2.40665e-06
6.80419e-06
-3.57453e-06
8.84329e-06
-4.43373e-06
7.98479e-06
-4.59546e-06
3.63843e-06
-3.99567e-06
-2.12987e-06
-2.95953e-06
-6.06841e-06
-1.75436e-06
-7.70023e-06
-5.58095e-07
-7.83495e-06
5.16773e-07
-6.98633e-06
1.45207e-06
-5.94289e-06
2.26847e-06
-5.02358e-06
2.99756e-06
-4.33982e-06
3.66699e-06
-3.88234e-06
4.29415e-06
-3.58006e-06
4.88342e-06
-3.35121e-06
5.42961e-06
-3.11654e-06
5.9226e-06
-2.84489e-06
6.35243e-06
-2.51081e-06
6.71394e-06
-2.15132e-06
7.00968e-06
-1.78881e-06
7.24802e-06
-1.48054e-06
7.43872e-06
-1.20844e-06
7.59164e-06
-1.00597e-06
7.71456e-06
-8.27067e-07
7.81446e-06
-7.07313e-07
7.89583e-06
-5.89831e-07
7.96321e-06
-5.21801e-07
8.0189e-06
-4.40412e-07
8.06555e-06
-4.0166e-07
8.10436e-06
-3.39985e-07
8.1371e-06
-3.20116e-07
8.16453e-06
-2.70371e-07
8.18771e-06
-2.64148e-07
8.2072e-06
-2.2094e-07
8.22357e-06
-2.2471e-07
8.2376e-06
-1.86415e-07
8.24964e-06
-1.99837e-07
8.26059e-06
-1.66172e-07
8.27072e-06
-1.88482e-07
8.28041e-06
-1.57709e-07
8.29103e-06
-1.87664e-07
8.30075e-06
-1.59144e-07
8.3138e-06
-1.9749e-07
8.32548e-06
-1.69631e-07
8.34256e-06
-2.21034e-07
8.35972e-06
-1.93772e-07
8.38443e-06
-2.63495e-07
8.41727e-06
-2.40737e-07
8.46582e-06
-3.77366e-07
8.5567e-06
-7.30627e-07
-3.0496e-06
7.73863e-06
5.17049e-05
4.57623e-06
2.82063e-05
2.34832e-06
1.24851e-05
9.98932e-07
6.2934e-06
2.41741e-07
3.14213e-06
-2.08511e-07
1.69743e-06
-4.37808e-07
4.04706e-07
-6.88249e-07
4.45965e-07
-1.31358e-06
3.50046e-06
-2.39342e-06
7.88403e-06
-3.48301e-06
9.93289e-06
-4.25994e-06
8.76172e-06
-4.35883e-06
3.73732e-06
-3.72005e-06
-2.76865e-06
-2.66642e-06
-7.12204e-06
-1.45084e-06
-8.91581e-06
-2.46566e-07
-9.03922e-06
8.36866e-07
-8.06976e-06
1.78185e-06
-6.88787e-06
2.61109e-06
-5.85282e-06
3.35722e-06
-5.08595e-06
4.04844e-06
-4.57355e-06
4.70189e-06
-4.23351e-06
5.32052e-06
-3.96984e-06
5.89719e-06
-3.69321e-06
6.41914e-06
-3.36684e-06
6.87433e-06
-2.96601e-06
7.25592e-06
-2.53291e-06
7.56626e-06
-2.09914e-06
7.81407e-06
-1.72835e-06
8.01034e-06
-1.40471e-06
8.16552e-06
-1.16115e-06
8.28864e-06
-9.5018e-07
8.38686e-06
-8.0554e-07
8.46571e-06
-6.68672e-07
8.52954e-06
-5.85632e-07
8.58147e-06
-4.92348e-07
8.6238e-06
-4.43993e-07
8.65836e-06
-3.74545e-07
8.68647e-06
-3.48226e-07
8.7095e-06
-2.93397e-07
8.72798e-06
-2.82632e-07
8.743e-06
-2.35958e-07
8.75464e-06
-2.36352e-07
8.76408e-06
-1.95856e-07
8.77143e-06
-2.07179e-07
8.77759e-06
-1.72337e-07
8.78321e-06
-1.94103e-07
8.78779e-06
-1.62285e-07
8.79388e-06
-1.93757e-07
8.79829e-06
-1.63555e-07
8.80623e-06
-2.05434e-07
8.81278e-06
-1.76174e-07
8.82469e-06
-2.32945e-07
8.83635e-06
-2.05434e-07
8.85653e-06
-2.83671e-07
8.88315e-06
-2.67361e-07
8.92916e-06
-4.23374e-07
9.008e-06
-8.09462e-07
-3.21896e-06
8.16636e-06
5.35386e-05
5.2163e-06
3.11564e-05
2.88633e-06
1.48151e-05
1.38645e-06
7.79328e-06
5.01958e-07
4.02662e-06
-4.09269e-08
2.24032e-06
-3.39822e-07
7.03601e-07
-6.37525e-07
7.43668e-07
-1.27004e-06
4.13298e-06
-2.30455e-06
8.91854e-06
-3.31328e-06
1.09416e-05
-4.01174e-06
9.46018e-06
-4.06233e-06
3.7879e-06
-3.40395e-06
-3.42702e-06
-2.34154e-06
-8.18446e-06
-1.12418e-06
-1.01332e-05
7.87638e-08
-1.02422e-05
1.15851e-06
-9.14951e-06
2.10014e-06
-7.82949e-06
2.92906e-06
-6.68173e-06
3.67987e-06
-5.83677e-06
4.38204e-06
-5.27572e-06
5.05304e-06
-4.90451e-06
5.69464e-06
-4.61144e-06
6.29757e-06
-4.29614e-06
6.84604e-06
-3.9153e-06
7.32528e-06
-3.44525e-06
7.72626e-06
-2.93388e-06
8.05067e-06
-2.42356e-06
8.3075e-06
-1.98518e-06
8.50882e-06
-1.60602e-06
8.66574e-06
-1.31807e-06
8.78849e-06
-1.07293e-06
8.88458e-06
-9.01628e-07
8.96046e-06
-7.44549e-07
9.02046e-06
-6.45632e-07
9.06839e-06
-5.40285e-07
9.10633e-06
-4.81932e-07
9.1366e-06
-4.04808e-07
9.16021e-06
-3.71842e-07
9.17897e-06
-3.1215e-07
9.19307e-06
-2.96732e-07
9.20389e-06
-2.46779e-07
9.21128e-06
-2.43748e-07
9.2165e-06
-2.0107e-07
9.21976e-06
-2.10438e-07
9.22154e-06
-1.74123e-07
9.22326e-06
-1.95816e-07
9.22318e-06
-1.62205e-07
9.22485e-06
-1.95431e-07
9.22471e-06
-1.63421e-07
9.2279e-06
-2.08617e-07
9.2297e-06
-1.77972e-07
9.23666e-06
-2.39913e-07
9.24305e-06
-2.11818e-07
9.2585e-06
-2.99121e-07
9.2788e-06
-2.8766e-07
9.32093e-06
-4.65503e-07
9.38774e-06
-8.76273e-07
-3.35406e-06
8.54477e-06
5.49938e-05
5.83884e-06
3.38623e-05
3.45197e-06
1.72019e-05
1.81934e-06
9.42591e-06
8.08423e-07
5.03753e-06
1.70163e-07
2.87858e-06
-2.04684e-07
1.07845e-06
-5.46508e-07
1.08549e-06
-1.17308e-06
4.75955e-06
-2.14704e-06
9.8925e-06
-3.07751e-06
1.18721e-05
-3.70673e-06
1.00894e-05
-3.7191e-06
3.80027e-06
-3.05269e-06
-4.09343e-06
-1.98736e-06
-9.24979e-06
-7.74817e-07
-1.13457e-05
4.18326e-07
-1.14353e-05
1.48407e-06
-1.02153e-05
2.4104e-06
-8.75583e-06
3.22663e-06
-7.49797e-06
3.97017e-06
-6.58031e-06
4.67249e-06
-5.97804e-06
5.35213e-06
-5.58415e-06
6.00997e-06
-5.26929e-06
6.63461e-06
-4.92078e-06
7.20687e-06
-4.48756e-06
7.70875e-06
-3.94713e-06
8.12844e-06
-3.35358e-06
8.46658e-06
-2.7617e-06
8.7322e-06
-2.2508e-06
8.93833e-06
-1.81215e-06
9.09676e-06
-1.4765e-06
9.2189e-06
-1.19508e-06
9.31268e-06
-9.95401e-07
9.38544e-06
-8.17311e-07
9.44158e-06
-7.01776e-07
9.48553e-06
-5.84229e-07
9.51922e-06
-5.15629e-07
9.54536e-06
-4.30943e-07
9.5648e-06
-3.91278e-07
9.57959e-06
-3.26943e-07
9.58978e-06
-3.06921e-07
9.59684e-06
-2.53838e-07
9.60061e-06
-2.47518e-07
9.60213e-06
-2.02589e-07
9.60205e-06
-2.10363e-07
9.60004e-06
-1.72116e-07
9.59827e-06
-1.94046e-07
9.5944e-06
-1.58336e-07
9.5922e-06
-1.93221e-07
9.58826e-06
-1.59483e-07
9.58728e-06
-2.0764e-07
9.58493e-06
-1.75624e-07
9.58743e-06
-2.42406e-07
9.58905e-06
-2.13439e-07
9.59988e-06
-3.09957e-07
9.61416e-06
-3.01941e-07
9.65157e-06
-5.02913e-07
9.70675e-06
-9.31455e-07
-3.45902e-06
8.87671e-06
5.61171e-05
6.4335e-06
3.63055e-05
4.03614e-06
1.95993e-05
2.29299e-06
1.11691e-05
1.16018e-06
6.17035e-06
4.22664e-07
3.61609e-06
-2.86445e-08
1.52976e-06
-4.14639e-07
1.47149e-06
-1.02534e-06
5.37025e-06
-1.92892e-06
1.07961e-05
-2.7842e-06
1.27274e-05
-3.35508e-06
1.06603e-05
-3.3368e-06
3.78199e-06
-2.66762e-06
-4.76261e-06
-1.60386e-06
-1.03136e-05
-4.01376e-07
-1.25482e-05
7.74604e-07
-1.26113e-05
1.81748e-06
-1.12581e-05
2.71804e-06
-9.65639e-06
3.51035e-06
-8.29028e-06
4.2353e-06
-7.30526e-06
4.92716e-06
-6.66991e-06
5.60632e-06
-6.2633e-06
6.27332e-06
-5.93629e-06
6.91466e-06
-5.56212e-06
7.50756e-06
-5.08047e-06
8.0303e-06
-4.46987e-06
8.46786e-06
-3.79113e-06
8.81932e-06
-3.11316e-06
9.09356e-06
-2.52504e-06
9.30438e-06
-2.02297e-06
9.46427e-06
-1.63639e-06
9.58576e-06
-1.31658e-06
9.67724e-06
-1.08688e-06
9.74693e-06
-8.86999e-07
9.79937e-06
-7.54218e-07
9.83949e-06
-6.24349e-07
9.86924e-06
-5.45376e-07
9.89155e-06
-4.5325e-07
9.90722e-06
-4.06955e-07
9.91846e-06
-3.38182e-07
9.92528e-06
-3.13738e-07
9.92909e-06
-2.57644e-07
9.92989e-06
-2.48324e-07
9.92833e-06
-2.01028e-07
9.92559e-06
-2.07615e-07
9.92051e-06
-1.6704e-07
9.91574e-06
-1.8928e-07
9.90898e-06
-1.51574e-07
9.9036e-06
-1.87837e-07
9.89661e-06
-1.52497e-07
9.89218e-06
-2.03204e-07
9.8864e-06
-1.69849e-07
9.88503e-06
-2.41037e-07
9.88257e-06
-2.10978e-07
9.88913e-06
-3.16516e-07
9.89797e-06
-3.1078e-07
9.93024e-06
-5.35183e-07
9.97446e-06
-9.75671e-07
-3.53743e-06
9.16576e-06
5.69513e-05
6.9935e-06
3.84778e-05
4.63e-06
2.19628e-05
2.80206e-06
1.2997e-05
1.55563e-06
7.41678e-06
7.17691e-07
4.45403e-06
1.81773e-07
2.06567e-06
-2.42137e-07
1.8954e-06
-8.30424e-07
5.95854e-06
-1.65855e-06
1.16242e-05
-2.44133e-06
1.35102e-05
-2.96206e-06
1.1181e-05
-2.91859e-06
3.73853e-06
-2.24883e-06
-5.43237e-06
-1.1905e-06
-1.13719e-05
-2.8505e-09
-1.37358e-05
1.1502e-06
-1.37643e-05
2.16299e-06
-1.22709e-05
3.02896e-06
-1.05224e-05
3.78749e-06
-9.04881e-06
4.48348e-06
-8.00125e-06
5.1547e-06
-7.34113e-06
5.82424e-06
-6.93284e-06
6.49297e-06
-6.60502e-06
7.14554e-06
-6.21468e-06
7.75543e-06
-5.69036e-06
8.29683e-06
-5.01126e-06
8.75107e-06
-4.24538e-06
9.11525e-06
-3.47733e-06
9.39787e-06
-2.80766e-06
9.6133e-06
-2.23841e-06
9.77467e-06
-1.79776e-06
9.89557e-06
-1.43747e-06
9.9849e-06
-1.17622e-06
1.00517e-05
-9.53773e-07
1.01007e-05
-8.03222e-07
1.01372e-05
-6.60915e-07
1.01634e-05
-5.71545e-07
1.01823e-05
-4.72104e-07
1.01947e-05
-4.19336e-07
1.02028e-05
-3.46321e-07
1.02068e-05
-3.17733e-07
1.02079e-05
-2.58728e-07
1.02064e-05
-2.46816e-07
1.02023e-05
-1.97011e-07
1.01974e-05
-2.02678e-07
1.01901e-05
-1.59692e-07
1.01829e-05
-1.82151e-07
1.0174e-05
-1.42674e-07
1.01662e-05
-1.79995e-07
1.01569e-05
-1.43205e-07
1.01497e-05
-1.9603e-07
1.01413e-05
-1.61395e-07
1.01367e-05
-2.36475e-07
1.01309e-05
-2.05192e-07
1.01337e-05
-3.19271e-07
1.01378e-05
-3.14904e-07
1.01648e-05
-5.62211e-07
1.01989e-05
-1.00977e-06
-3.59241e-06
9.41583e-06
5.75355e-05
7.5147e-06
4.03789e-05
5.22532e-06
2.42522e-05
3.34061e-06
1.48817e-05
1.99243e-06
8.76495e-06
1.0555e-06
5.39095e-06
4.34888e-07
2.68629e-06
-2.92922e-08
2.35958e-06
-5.92241e-07
6.52149e-06
-1.34375e-06
1.23757e-05
-2.05539e-06
1.42218e-05
-2.53021e-06
1.16558e-05
-2.46574e-06
3.67405e-06
-1.79619e-06
-6.10193e-06
-7.46755e-07
-1.24213e-05
4.20347e-07
-1.49029e-05
1.54705e-06
-1.4891e-05
2.52425e-06
-1.32481e-05
3.34857e-06
-1.13467e-05
4.06506e-06
-9.76529e-06
4.72295e-06
-8.65914e-06
5.36399e-06
-7.98216e-06
6.01489e-06
-7.58374e-06
6.67773e-06
-7.26786e-06
7.33568e-06
-6.87263e-06
7.95847e-06
-6.31316e-06
8.51587e-06
-5.56867e-06
8.98524e-06
-4.71474e-06
9.36126e-06
-3.85335e-06
9.65184e-06
-3.09825e-06
9.87174e-06
-2.45831e-06
1.00346e-05
-1.96063e-06
1.0155e-05
-1.55787e-06
1.02424e-05
-1.26362e-06
1.03065e-05
-1.01786e-06
1.03524e-05
-8.49109e-07
1.03857e-05
-6.94252e-07
1.04087e-05
-5.94539e-07
1.04245e-05
-4.8791e-07
1.04341e-05
-4.28894e-07
1.04396e-05
-3.51817e-07
1.04413e-05
-3.1943e-07
1.04402e-05
-2.57612e-07
1.04369e-05
-2.43565e-07
1.0431e-05
-1.9112e-07
1.04243e-05
-1.95973e-07
1.04154e-05
-1.50799e-07
1.04066e-05
-1.73291e-07
1.03962e-05
-1.32286e-07
1.03865e-05
-1.70358e-07
1.03756e-05
-1.32295e-07
1.03664e-05
-1.86798e-07
1.0356e-05
-1.50977e-07
1.03489e-05
-2.2938e-07
1.03405e-05
-1.96832e-07
1.034e-05
-3.18754e-07
1.03402e-05
-3.15099e-07
1.03621e-05
-5.84106e-07
1.03871e-05
-1.03474e-06
-3.62663e-06
9.63083e-06
5.79047e-05
7.99484e-06
4.20149e-05
5.8146e-06
2.64324e-05
3.90231e-06
1.6794e-05
2.46747e-06
1.01998e-05
1.43564e-06
6.42279e-06
7.29617e-07
3.39231e-06
2.2213e-07
2.86706e-06
-3.1456e-07
7.05818e-06
-9.90453e-07
1.30516e-05
-1.63138e-06
1.48627e-05
-2.06168e-06
1.20861e-05
-1.97884e-06
3.59122e-06
-1.30969e-06
-6.77108e-06
-2.71609e-07
-1.34594e-05
8.7038e-07
-1.60449e-05
1.96617e-06
-1.59868e-05
2.90377e-06
-1.41857e-05
3.68113e-06
-1.2124e-05
4.34899e-06
-1.04332e-05
4.96108e-06
-9.27123e-06
5.56332e-06
-8.5844e-06
6.18694e-06
-8.20736e-06
6.83622e-06
-7.91714e-06
7.49345e-06
-7.52985e-06
8.12468e-06
-6.94439e-06
8.69504e-06
-6.13903e-06
9.1776e-06
-5.1973e-06
9.56429e-06
-4.24005e-06
9.86224e-06
-3.39619e-06
1.00863e-05
-2.6824e-06
1.02507e-05
-2.12499e-06
1.03707e-05
-1.67788e-06
1.04564e-05
-1.3493e-06
1.0518e-05
-1.07953e-06
1.05611e-05
-8.92225e-07
1.05916e-05
-7.24707e-07
1.06118e-05
-6.14763e-07
1.0625e-05
-5.01079e-07
1.06322e-05
-4.36085e-07
1.06355e-05
-3.55115e-07
1.06354e-05
-3.1931e-07
1.06325e-05
-2.54794e-07
1.0628e-05
-2.38986e-07
1.06208e-05
-1.83926e-07
1.06128e-05
-1.87974e-07
1.06029e-05
-1.40916e-07
1.05929e-05
-1.63259e-07
1.05815e-05
-1.20976e-07
1.05707e-05
-1.59508e-07
1.05588e-05
-1.20368e-07
1.05481e-05
-1.76115e-07
1.05363e-05
-1.39236e-07
1.05273e-05
-2.20364e-07
1.05171e-05
-1.86592e-07
1.05138e-05
-3.15497e-07
1.05109e-05
-3.12132e-07
1.05279e-05
-6.01106e-07
1.05447e-05
-1.0516e-06
-3.64235e-06
9.81458e-06
5.80901e-05
8.43311e-06
4.33964e-05
6.39122e-06
2.84743e-05
4.48061e-06
1.87046e-05
2.9769e-06
1.17035e-05
1.85696e-06
7.54273e-06
1.06589e-06
4.18338e-06
5.12251e-07
3.4207e-06
-3.17146e-09
7.5736e-06
-6.03067e-07
1.36515e-05
-1.17334e-06
1.5433e-05
-1.55867e-06
1.24715e-05
-1.45839e-06
3.49094e-06
-7.89408e-07
-7.44006e-06
2.31611e-07
-1.44804e-05
1.34624e-06
-1.71596e-05
2.40761e-06
-1.70482e-05
3.30279e-06
-1.50809e-05
4.02948e-06
-1.28507e-05
4.64378e-06
-1.10474e-05
5.20396e-06
-9.83141e-06
5.75997e-06
-9.14042e-06
6.3482e-06
-8.79558e-06
6.97637e-06
-8.54532e-06
7.62667e-06
-8.18016e-06
8.26167e-06
-7.57939e-06
8.84166e-06
-6.71901e-06
9.33517e-06
-5.69081e-06
9.73108e-06
-4.63596e-06
1.00355e-05
-3.70066e-06
1.02634e-05
-2.91026e-06
1.04291e-05
-2.2907e-06
1.05488e-05
-1.79754e-06
1.0633e-05
-1.43347e-06
1.06924e-05
-1.13901e-06
1.07331e-05
-9.32903e-07
1.0761e-05
-7.52623e-07
1.07789e-05
-6.32601e-07
1.07898e-05
-5.11999e-07
1.0795e-05
-4.41327e-07
1.07965e-05
-3.5663e-07
1.0795e-05
-3.17808e-07
1.0791e-05
-2.50717e-07
1.07854e-05
-2.33408e-07
1.07774e-05
-1.75917e-07
1.07685e-05
-1.7913e-07
1.07581e-05
-1.30489e-07
1.07474e-05
-1.52526e-07
1.07356e-05
-1.09216e-07
1.0724e-05
-1.47939e-07
1.07116e-05
-1.07928e-07
1.07e-05
-1.64507e-07
1.06875e-05
-1.26721e-07
1.06771e-05
-2.09968e-07
1.06656e-05
-1.7508e-07
1.06601e-05
-3.10003e-07
1.06547e-05
-3.06709e-07
1.06671e-05
-6.13519e-07
1.06769e-05
-1.0614e-06
-3.64151e-06
9.9707e-06
5.81194e-05
8.82976e-06
4.45373e-05
6.94945e-06
3.03546e-05
5.0689e-06
2.05852e-05
3.5162e-06
1.32562e-05
2.3176e-06
8.74133e-06
1.44346e-06
5.05753e-06
8.40192e-07
4.02396e-06
3.46813e-07
8.06698e-06
-1.85317e-07
1.41836e-05
-6.84757e-07
1.59324e-05
-1.0232e-06
1.28099e-05
-9.04946e-07
3.37269e-06
-2.32774e-07
-8.11223e-06
7.64968e-07
-1.54782e-05
1.84706e-06
-1.82417e-05
2.87048e-06
-1.80716e-05
3.72128e-06
-1.59317e-05
4.39501e-06
-1.35245e-05
4.95235e-06
-1.16048e-05
5.45613e-06
-1.03352e-05
5.9599e-06
-9.64418e-06
6.5054e-06
-9.34108e-06
7.10514e-06
-9.14505e-06
7.74233e-06
-8.81735e-06
8.37634e-06
-8.2134e-06
8.96243e-06
-7.3051e-06
9.46443e-06
-6.19281e-06
9.86786e-06
-5.03939e-06
1.01778e-05
-4.01061e-06
1.04089e-05
-3.14134e-06
1.05758e-05
-2.45757e-06
1.06951e-05
-1.91685e-06
1.07779e-05
-1.51628e-06
1.08354e-05
-1.19653e-06
1.08739e-05
-9.71446e-07
1.08996e-05
-7.78322e-07
1.09154e-05
-6.48401e-07
1.09245e-05
-5.21027e-07
1.09281e-05
-4.4499e-07
1.09282e-05
-3.56737e-07
1.09257e-05
-3.15299e-07
1.09208e-05
-2.45753e-07
1.09145e-05
-2.271e-07
1.0906e-05
-1.67501e-07
1.08967e-05
-1.69829e-07
1.08861e-05
-1.19882e-07
1.08751e-05
-1.4148e-07
1.08633e-05
-9.73903e-08
1.08514e-05
-1.36064e-07
1.08388e-05
-9.53898e-08
1.08267e-05
-1.52411e-07
1.08139e-05
-1.13885e-07
1.08026e-05
-1.98658e-07
1.07903e-05
-1.62808e-07
1.07831e-05
-3.02726e-07
1.07758e-05
-2.99445e-07
1.0784e-05
-6.21684e-07
1.07877e-05
-1.06511e-06
-3.62574e-06
1.01026e-05
5.80168e-05
9.18588e-06
4.5454e-05
7.48448e-06
3.2056e-05
5.66067e-06
2.2409e-05
4.08029e-06
1.48366e-05
2.815e-06
1.00066e-05
1.86167e-06
6.01086e-06
1.20538e-06
4.68026e-06
7.25489e-07
8.54687e-06
2.60274e-07
1.46488e-05
-1.70844e-07
1.63635e-05
-4.57437e-07
1.30965e-05
-3.18076e-07
3.23333e-06
3.47294e-07
-8.7776e-06
1.32702e-06
-1.64579e-05
2.3716e-06
-1.92862e-05
3.35329e-06
-1.90533e-05
4.15816e-06
-1.67366e-05
4.77782e-06
-1.41441e-05
5.27617e-06
-1.21031e-05
5.72058e-06
-1.07796e-05
6.16762e-06
-1.00912e-05
6.66408e-06
-9.83755e-06
7.22844e-06
-9.70941e-06
7.84644e-06
-9.43535e-06
8.47471e-06
-8.84167e-06
9.06334e-06
-7.89374e-06
9.57122e-06
-6.70069e-06
9.98032e-06
-5.44849e-06
1.02946e-05
-4.32485e-06
1.05281e-05
-3.37491e-06
1.06958e-05
-2.62525e-06
1.08147e-05
-2.03572e-06
1.08962e-05
-1.59783e-06
1.0952e-05
-1.25226e-06
1.09886e-05
-1.00811e-06
1.10124e-05
-8.02094e-07
1.10265e-05
-6.62472e-07
1.10339e-05
-5.28477e-07
1.10363e-05
-4.47393e-07
1.10354e-05
-3.5577e-07
1.10321e-05
-3.12061e-07
1.10266e-05
-2.40228e-07
1.10198e-05
-2.20335e-07
1.10113e-05
-1.58969e-07
1.10019e-05
-1.60382e-07
1.09914e-05
-1.09388e-07
1.09803e-05
-1.30435e-07
1.09687e-05
-8.58041e-08
1.09569e-05
-1.24213e-07
1.09446e-05
-8.30809e-08
1.09324e-05
-1.40189e-07
1.09196e-05
-1.01097e-07
1.09077e-05
-1.86827e-07
1.08951e-05
-1.50196e-07
1.08865e-05
-2.94069e-07
1.08779e-05
-2.90851e-07
1.08821e-05
-6.25954e-07
1.08806e-05
-1.06359e-06
-3.59647e-06
1.02134e-05
5.78034e-05
9.50323e-06
4.61642e-05
7.99239e-06
3.35668e-05
6.24965e-06
2.41517e-05
4.66364e-06
1.64226e-05
3.34583e-06
1.13244e-05
2.31938e-06
7.03731e-06
1.60736e-06
5.39227e-06
1.13364e-06
9.02059e-06
7.3075e-07
1.50517e-05
3.75202e-07
1.67191e-05
1.36146e-07
1.33355e-05
2.96152e-07
3.07332e-06
9.59443e-07
-9.4409e-06
1.91608e-06
-1.74145e-05
2.9184e-06
-2.02886e-05
3.85411e-06
-1.9989e-05
4.61157e-06
-1.7494e-05
5.17693e-06
-1.47095e-05
5.61541e-06
-1.25416e-05
5.99882e-06
-1.1163e-05
6.38626e-06
-1.04787e-05
6.82857e-06
-1.02799e-05
7.35112e-06
-1.0232e-05
7.94401e-06
-1.00282e-05
8.5619e-06
-9.45956e-06
9.14955e-06
-8.48139e-06
9.66067e-06
-7.21181e-06
1.00735e-05
-5.86129e-06
1.03907e-05
-4.64206e-06
1.06259e-05
-3.61017e-06
1.0794e-05
-2.79332e-06
1.09123e-05
-2.15399e-06
1.09926e-05
-1.67815e-06
1.10467e-05
-1.30633e-06
1.10817e-05
-1.04312e-06
1.11038e-05
-8.24186e-07
1.11164e-05
-6.75074e-07
1.11225e-05
-5.34619e-07
1.11239e-05
-4.48804e-07
1.11222e-05
-3.54011e-07
1.11184e-05
-3.08307e-07
1.11126e-05
-2.34401e-07
1.11056e-05
-2.13352e-07
1.10972e-05
-1.50543e-07
1.10878e-05
-1.51028e-07