/*--------------------------------*- C++ -*----------------------------------*\
| =========                 |                                                 |
| \\      /  F ield         | OpenFOAM: The Open Source CFD Toolbox           |
|  \\    /   O peration     | Version:  2.4.0                                 |
|   \\  /    A nd           | Web:      www.OpenFOAM.org                      |
|    \\/     M anipulation  |                                                 |
\*---------------------------------------------------------------------------*/
FoamFile
{
    version     2.0;
    format      ascii;
    class       volScalarField;
    location    "3.32";
    object      epsilon;
}
// * * * * * * * * * * * * * * * * * * * * * * * * * * * * * * * * * * * * * //

dimensions      [0 2 -3 0 0 0 0];

internalField   nonuniform List<scalar> 
6000
(
54.174
1.09701
0.0203643
0.134391
0.0725879
0.086498
0.0618732
0.057955
0.0466025
0.0424879
0.0370537
0.0348859
0.0332527
0.0336619
0.0347716
0.0365105
0.0377414
0.038274
0.0382775
0.038863
0.0413547
0.0473206
0.0584742
0.0766813
0.103534
0.139904
0.185643
0.23966
0.300147
0.364748
0.43051
0.493687
0.549485
0.591865
0.613385
0.605961
0.562819
0.481155
0.366898
0.237882
0.12179
0.105708
0.243998
0.476012
0.794576
1.17517
1.58403
1.99351
2.37821
2.7441
3.07391
3.4477
3.78583
4.3839
4.81742
6.2228
6.68869
10.776
10.5502
23.4562
17.7232
0.975256
0.0254166
0.0741754
0.041844
0.0474722
0.0345107
0.0318232
0.025745
0.0232914
0.0203271
0.019014
0.018037
0.0180765
0.0184725
0.0191555
0.0195916
0.0197032
0.0195999
0.0198176
0.0209797
0.0237865
0.028936
0.0370776
0.0486174
0.0635863
0.0816215
0.102086
0.124198
0.147099
0.169829
0.191248
0.209948
0.224172
0.231687
0.230182
0.217402
0.192005
0.154776
0.109739
0.0649877
0.0641131
0.121715
0.207158
0.315665
0.439847
0.571028
0.702728
0.829063
0.952593
1.06963
1.20346
1.33421
1.54795
1.72884
2.21184
2.44985
3.80696
3.9491
8.0988
7.13606
0.711072
0.0303414
0.0435209
0.0253017
0.0273545
0.0201507
0.0183125
0.0149004
0.0133966
0.011717
0.010919
0.0103431
0.0103068
0.0104705
0.0107801
0.0109724
0.0110172
0.0109911
0.011181
0.0119203
0.0135727
0.0164755
0.0208883
0.0268967
0.0343798
0.043049
0.0525364
0.0624642
0.07247
0.08219
0.0912241
0.0990977
0.105219
0.108858
0.109232
0.105416
0.096682
0.0827981
0.0644808
0.0445538
0.0478327
0.0757058
0.112348
0.154916
0.201114
0.248836
0.296744
0.343565
0.390485
0.436888
0.490071
0.545158
0.629606
0.71036
0.894777
1.01597
1.51735
1.65929
3.1358
3.42006
0.518203
0.0345632
0.0274454
0.0160712
0.0165095
0.0122747
0.010998
0.00899683
0.00805197
0.00707132
0.00658757
0.00625744
0.00623273
0.00633156
0.0065147
0.00664633
0.00671668
0.0067822
0.00701538
0.00762236
0.00882648
0.0108217
0.0137258
0.0175276
0.02209
0.0271961
0.0326122
0.0381269
0.0435603
0.0487513
0.0535381
0.0577373
0.0611069
0.0634574
0.064386
0.0634806
0.0603501
0.0547075
0.0465215
0.0369927
0.0409703
0.0560559
0.0741118
0.0935548
0.113518
0.133444
0.153147
0.172475
0.192106
0.212185
0.235146
0.259983
0.296197
0.334356
0.411346
0.474395
0.677209
0.773902
1.34572
1.89782
0.395514
0.0386739
0.0190381
0.0107964
0.0104437
0.00779205
0.00687932
0.00565437
0.00504689
0.00446151
0.00417252
0.00399444
0.00400114
0.00409112
0.00423635
0.00436326
0.00447096
0.00460483
0.00488415
0.00545728
0.00648263
0.00808661
0.0103225
0.0131422
0.0164133
0.0199654
0.0236357
0.0272928
0.0308384
0.0341963
0.0372999
0.0400785
0.0424462
0.0443532
0.0455767
0.0459116
0.0451288
0.0429829
0.0392311
0.0345841
0.0381661
0.0469593
0.0566869
0.0665962
0.0764112
0.0859916
0.0953202
0.104403
0.113594
0.123146
0.133907
0.145846
0.162521
0.181489
0.216217
0.250011
0.338851
0.399225
0.638031
1.19136
0.318416
0.0429976
0.0149656
0.00777595
0.00695444
0.00516269
0.00448182
0.00369746
0.00329783
0.00294339
0.00277681
0.0026937
0.00273018
0.00282702
0.00296393
0.0030992
0.00323715
0.00341894
0.0037394
0.00431852
0.00527925
0.00670854
0.00862333
0.010958
0.0135904
0.0163843
0.0192235
0.0220248
0.0247347
0.0273193
0.0297536
0.032013
0.0340801
0.0359141
0.0373823
0.0383598
0.0386902
0.0381708
0.0365285
0.0343511
0.0372611
0.0426026
0.048053
0.0533108
0.0583985
0.0633785
0.0682981
0.0731651
0.0781022
0.0832884
0.0889414
0.0952179
0.103526
0.113525
0.130365
0.149203
0.191069
0.228199
0.335456
0.829176
0.268834
0.0475871
0.0135415
0.0061306
0.00491838
0.00358658
0.00304819
0.00251931
0.00224936
0.00203324
0.00194432
0.0019208
0.00198006
0.00208587
0.00222337
0.0023687
0.00253075
0.00275032
0.00311038
0.0037145
0.00466283
0.00601642
0.00777055
0.0098539
0.0121589
0.0145788
0.0170307
0.0194599
0.0218346
0.0241365
0.0263537
0.0284744
0.030499
0.0323728
0.0340117
0.0353291
0.0362109
0.0364954
0.0359415
0.0350689
0.0372933
0.0405523
0.0435599
0.0462391
0.0487429
0.0512402
0.0538467
0.056606
0.0595505
0.0627688
0.0662014
0.0699594
0.0745728
0.0802909
0.0891028
0.100166
0.121366
0.144573
0.196375
0.628411
0.235883
0.0523499
0.013851
0.00541246
0.00374668
0.00263421
0.00217487
0.00179459
0.00160549
0.0014735
0.00143398
0.00144799
0.00152336
0.00163699
0.00177823
0.00193443
0.00211874
0.00237281
0.0027726
0.00341073
0.00437194
0.00570059
0.00738082
0.00934402
0.0114995
0.0137633
0.0160724
0.0183841
0.0206716
0.0229177
0.0251103
0.0272405
0.0292954
0.0312261
0.0329731
0.0344725
0.0356386
0.036341
0.0363806
0.0361916
0.03779
0.0396855
0.0411691
0.0422772
0.0432098
0.0441773
0.0453386
0.0467843
0.0485455
0.0506762
0.0530171
0.055594
0.0585314
0.0621743
0.0672187
0.0741489
0.0856791
0.100689
0.127487
0.510212
0.21325
0.05713
0.0153709
0.00537361
0.00312829
0.00207015
0.00164059
0.00134354
0.00120344
0.0011227
0.00111455
0.00115246
0.00123932
0.00135996
0.00150729
0.00167632
0.00188372
0.00217159
0.002611
0.00328712
0.00427488
0.00560915
0.00727073
0.00919837
0.0113162
0.0135546
0.0158582
0.0181852
0.0205052
0.0227962
0.0250424
0.0272308
0.0293358
0.0313179
0.0331316
0.0347275
0.0360394
0.0369572
0.0373144
0.0374478
0.038494
0.0394339
0.0398937
0.0399698
0.039874
0.0398248
0.0399973
0.0405115
0.0414212
0.0427842
0.0444393
0.0463569
0.0484715
0.0510676
0.0542786
0.0589469
0.0656862
0.0758127
0.0905143
0.437365
0.197245
0.0617564
0.0177588
0.00588042
0.00290363
0.00176513
0.00132206
0.00106476
0.000951652
0.00090139
0.000913018
0.000966596
0.00106239
0.0011903
0.00134631
0.0015308
0.00176285
0.00208433
0.00256279
0.00327881
0.00430199
0.00566335
0.00734536
0.00929518
0.0114473
0.0137383
0.0161122
0.0185223
0.0209313
0.0233112
0.025642
0.0279012
0.0300583
0.032081
0.0339322
0.035572
0.0369462
0.0379551
0.0384562
0.038689
0.0392507
0.0394825
0.0392118
0.0385677
0.0377607
0.0370036
0.0364712
0.0362944
0.0365439
0.0372893
0.0384067
0.0398493
0.0414761
0.0434826
0.0457533
0.0491292
0.0533756
0.0605041
0.0689535
0.390898
0.185657
0.0660747
0.0207598
0.00685346
0.00299657
0.00165059
0.00115074
0.000900664
0.000798019
0.000764401
0.000788192
0.000852543
0.000956167
0.00109243
0.0012598
0.00146235
0.00172049
0.00207543
0.00259231
0.00334952
0.00441492
0.00581977
0.00755076
0.00956227
0.0117943
0.0141833
0.0166683
0.019195
0.0217185
0.0242048
0.0266306
0.0289586
0.0311625
0.0332127
0.0350774
0.0367221
0.0381003
0.0391102
0.0396374
0.0398266
0.0399604
0.039642
0.0388237
0.0376532
0.0363344
0.0350693
0.0340247
0.0333304
0.033064
0.0333
0.0339577
0.0349953
0.0362572
0.0378655
0.0396036
0.0421899
0.0450753
0.0502921
0.0553276
0.360492
0.17712
0.0699671
0.024161
0.00824294
0.00336716
0.00169433
0.00108991
0.000819023
0.000712945
0.000685921
0.000716581
0.000788739
0.000899975
0.00104602
0.00122729
0.0014502
0.00173566
0.00212397
0.0026789
0.00347851
0.00459172
0.00605266
0.00785309
0.0099524
0.0122918
0.014804
0.0174204
0.0200784
0.022726
0.025323
0.0278412
0.0302321
0.0324731
0.034536
0.0363919
0.0380088
0.039342
0.0402846
0.0407519
0.0408045
0.0405543
0.0397906
0.0385451
0.0369763
0.0352799
0.0336449
0.0322266
0.0311471
0.0304827
0.0303062
0.0305706
0.0312473
0.0321946
0.0334848
0.0348733
0.0369327
0.0390314
0.0429783
0.0460698
0.340223
0.170761
0.0733618
0.0277719
0.0100027
0.00399531
0.00188799
0.00112221
0.000802744
0.000680034
0.00065136
0.000684776
0.000762779
0.000881799
0.00103914
0.00123658
0.00148188
0.0017958
0.00221765
0.00281057
0.00365377
0.00481919
0.00634542
0.0082291
0.0104322
0.0128942
0.0155415
0.0182974
0.0210907
0.0238626
0.0265674
0.0291695
0.0316135
0.0338792
0.0359385
0.0377638
0.0393228
0.0405643
0.0413893
0.0417305
0.0415851
0.040984
0.0398463
0.0382562
0.0363787
0.0344006
0.0324969
0.0308094
0.0294487
0.0284853
0.0279844
0.027922
0.0282828
0.0289482
0.0299609
0.0310837
0.032758
0.034369
0.0374378
0.039387
0.326531
0.166001
0.0762336
0.0314204
0.012079
0.0048734
0.00223172
0.00124299
0.000844283
0.000690927
0.000652836
0.000685299
0.000767581
0.000894641
0.00106468
0.00128035
0.00154995
0.00189357
0.00234942
0.00298054
0.00386829
0.00508904
0.00668657
0.00866164
0.0109768
0.0135678
0.0163536
0.019249
0.0221749
0.0250658
0.027871
0.0305447
0.0330298
0.035306
0.0373445
0.039117
0.0405883
0.0416957
0.0423642
0.0425274
0.0421432
0.041215
0.0397525
0.0378765
0.0357558
0.0335681
0.031474
0.0295999
0.0280426
0.0268633
0.0261173
0.0257935
0.0258873
0.026304
0.0270698
0.0279706
0.0293426
0.0306258
0.0330652
0.0343269
0.317202
0.162443
0.0785971
0.0349566
0.0144044
0.00599608
0.00272885
0.0014571
0.000942674
0.000742511
0.000686722
0.000714362
0.000799349
0.000934584
0.00111857
0.00135435
0.00165014
0.00202494
0.00251558
0.00318524
0.00411815
0.00539587
0.00706763
0.00913746
0.011567
0.0142869
0.0172085
0.0202385
0.0232897
0.0262906
0.0291861
0.0319171
0.0344295
0.0367009
0.0387002
0.040398
0.041748
0.0426905
0.0431686
0.0431126
0.0424625
0.0412239
0.039471
0.0373516
0.0350375
0.032697
0.0304754
0.0284822
0.0267988
0.0254748
0.0245539
0.0240307
0.0239082
0.0241126
0.0246618
0.0253702
0.0264938
0.0275394
0.0295135
0.0303536
0.310813
0.159804
0.0804961
0.0382593
0.0168976
0.00735157
0.00338601
0.0017734
0.0011021
0.000835471
0.000752344
0.000770671
0.000856477
0.000999752
0.0011987
0.00145636
0.00178032
0.00218804
0.00271457
0.00342321
0.00440134
0.00573613
0.0074822
0.00964614
0.0121875
0.0150317
0.0180821
0.0212378
0.0244042
0.0275038
0.0304777
0.0332501
0.0357752
0.0380256
0.0399673
0.041566
0.0427638
0.0435175
0.0437753
0.043468
0.0425333
0.0409956
0.0389769
0.0366461
0.0341776
0.0317302
0.0294332
0.0273779
0.0256285
0.0242212
0.0231871
0.0225215
0.0222326
0.0222634
0.022628
0.0231693
0.0240848
0.024947
0.0265683
0.0271459
0.306429
0.157874
0.0819925
0.0412406
0.0194672
0.00891678
0.00421108
0.0021999
0.00133139
0.00097364
0.000851336
0.000854801
0.000938966
0.00108974
0.00130438
0.00158557
0.00193981
0.0023825
0.00294634
0.00369442
0.00471722
0.00610763
0.00792553
0.0101795
0.0128266
0.0157868
0.0189559
0.0222261
0.0254951
0.0286804
0.0317172
0.0345169
0.0370396
0.0392526
0.0411179
0.042588
0.0436134
0.0441561
0.0441678
0.0435838
0.0423517
0.0405229
0.0382564
0.0357391
0.0331477
0.0306315
0.028303
0.0262341
0.0244704
0.0230332
0.0219399
0.0211842
0.020776
0.0206719
0.0208849
0.0212837
0.0220244
0.0227393
0.0240876
0.0244997
0.303424
0.156496
0.0831562
0.0438481
0.0220184
0.0106547
0.005207
0.00274597
0.00164102
0.00116379
0.00098737
0.000968893
0.00104812
0.00120532
0.00143602
0.00174222
0.00212892
0.00260897
0.00321186
0.00399987
0.00506617
0.00650932
0.00839428
0.0107315
0.0134751
0.0165403
0.0198157
0.0231871
0.0265451
0.0298018
0.032885
0.0356979
0.0382027
0.0403617
0.0421262
0.0434472
0.0442824
0.0445939
0.0443374
0.0434571
0.0419191
0.0398052
0.0373051
0.0346218
0.0319338
0.029381
0.027058
0.0250169
0.0232833
0.0218625
0.0207578
0.0199583
0.0194745
0.019273
0.0193671
0.0196483
0.0202434
0.0208376
0.0219717
0.0222783
0.301374
0.155547
0.0840569
0.046062
0.0244616
0.0125145
0.00636825
0.00342157
0.00203985
0.00141572
0.00116612
0.00111655
0.0011864
0.00134824
0.00159489
0.00192734
0.00234874
0.00286882
0.00351286
0.00434134
0.00544946
0.00694121
0.00888653
0.0112978
0.0141265
0.0172838
0.0206511
0.0241093
0.0275412
0.0308547
0.0339675
0.036779
0.0392505
0.0413346
0.0429771
0.044134
0.0447626
0.0448249
0.0442818
0.0430901
0.0412409
0.0388477
0.0361268
0.0332955
0.030534
0.0279719
0.0256859
0.0237073
0.0220415
0.0206768
0.0196021
0.0188
0.0182802
0.0180164
0.0180231
0.0182112
0.0186874
0.0191824
0.0201466
0.0203858
0.299985
0.154929
0.0847588
0.0478911
0.0267203
0.0144338
0.00767824
0.00423291
0.00253812
0.00173901
0.00139534
0.00130284
0.00135741
0.00152119
0.00178304
0.00214262
0.00260087
0.00316394
0.0038516
0.00472126
0.00586916
0.00740433
0.00940176
0.0118761
0.0147766
0.0180114
0.0214551
0.0249845
0.0284747
0.0318297
0.0349554
0.0377508
0.0401699
0.0421583
0.0436653
0.044644
0.0450507
0.044848
0.0440032
0.0424894
0.0403268
0.0376611
0.0347323
0.0317706
0.0289567
0.026409
0.0241862
0.0222988
0.0207317
0.0194563
0.0184464
0.0176779
0.0171572
0.0168636
0.0168124
0.016931
0.0173128
0.0177272
0.0185562
0.0187525
0.299054
0.154566
0.0853173
0.0493651
0.028737
0.016344
0.00910786
0.00517974
0.00314545
0.00214249
0.00168466
0.00153436
0.00156587
0.00172779
0.00200331
0.00239037
0.00288738
0.00349653
0.00423068
0.00514256
0.00632804
0.00790073
0.00994085
0.0124659
0.0154234
0.0187199
0.0222233
0.0258079
0.02934
0.0327213
0.0358431
0.038603
0.0409503
0.0428302
0.0441889
0.0449763
0.0451473
0.0446659
0.0435074
0.0416647
0.0391898
0.0362606
0.0331387
0.0300652
0.0272193
0.0247073
0.0225692
0.0207954
0.0193512
0.0181915
0.0172749
0.0165704
0.0160798
0.0157852
0.0157031
0.0157747
0.0160846
0.0164351
0.0171567
0.0173263
0.298441
0.154395
0.0857773
0.0505274
0.0304763
0.0181768
0.0106159
0.00625301
0.00386809
0.002636
0.00204262
0.00181936
0.0018177
0.00197259
0.00225926
0.00267341
0.00321067
0.00386903
0.00465291
0.00560849
0.00682951
0.00843344
0.0105061
0.0130685
0.0160672
0.0194088
0.0229542
0.0265773
0.0301345
0.0335258
0.0366208
0.0393285
0.0415914
0.0433508
0.044549
0.0451328
0.0450558
0.044284
0.042803
0.0406281
0.0378458
0.0346656
0.0313686
0.0282042
0.0253471
0.0228899
0.0208539
0.0192103
0.0179064
0.0168816
0.0160801
0.0154645
0.0150299
0.0147596
0.0146707
0.0147161
0.0149745
0.0152763
0.0159132
0.0160674
0.298046
0.154367
0.0861734
0.0514285
0.0319255
0.0198702
0.0121517
0.00743316
0.00470674
0.00322766
0.0024782
0.00216633
0.00212007
0.00226107
0.00255521
0.00299514
0.00357345
0.00428395
0.00512115
0.00612253
0.00737747
0.00900641
0.011101
0.0136868
0.0167102
0.0200797
0.0236487
0.0272932
0.0308561
0.0342322
0.0372865
0.0399291
0.0420955
0.0437226
0.0447488
0.0451175
0.0447813
0.0437097
0.0419002
0.039394
0.0363134
0.0328991
0.0294494
0.0262181
0.023372
0.0209875
0.0190672
0.0175646
0.0164113
0.0155335
0.0148621
0.0143539
0.0139962
0.0137715
0.0136969
0.0137346
0.0139598
0.014227
0.0147983
0.0149447
0.2978
0.154441
0.086531
0.0521202
0.0330915
0.0213751
0.0136588
0.00868967
0.00565445
0.00392215
0.00299966
0.00258347
0.00248116
0.00259969
0.00289625
0.00335952
0.00397872
0.00474381
0.00563809
0.00668811
0.00797617
0.00962432
0.0117304
0.0143254
0.0173567
0.0207361
0.0243098
0.0279492
0.0314998
0.0348434
0.0378436
0.0404083
0.0424664
0.0439499
0.0447929
0.0449358
0.0443306
0.0429514
0.0408107
0.0379779
0.0346131
0.0309869
0.0274121
0.0241418
0.0213306
0.019036
0.0172417
0.0158855
0.0148865
0.0141603
0.0136272
0.0132386
0.0129729
0.0128109
0.0127681
0.0128146
0.0130228
0.0132679
0.0137896
0.0139339
0.297654
0.154586
0.0868672
0.0526511
0.0339971
0.0226586
0.0150812
0.00998215
0.00669503
0.00471881
0.00361293
0.0030783
0.00290855
0.00299634
0.0032882
0.00377103
0.00442974
0.00525105
0.00620614
0.00730839
0.00862989
0.0102924
0.0124001
0.0149903
0.0180124
0.0213757
0.024933
0.028549
0.0320696
0.0353644
0.0382969
0.0407711
0.0427092
0.0440379
0.0446871
0.0445939
0.0437107
0.0420184
0.0395468
0.0363968
0.0327671
0.0289574
0.0252905
0.0220135
0.0192632
0.0170753
0.0154145
0.0142053
0.0133578
0.0127807
0.0123868
0.0121232
0.0119593
0.0118722
0.0118753
0.0119441
0.0121495
0.0123836
0.0128695
0.0130172
0.297576
0.154779
0.0871926
0.0530642
0.0346757
0.0237057
0.0163684
0.0112632
0.0078023
0.00560977
0.00432006
0.00365663
0.00340877
0.00345755
0.00373887
0.00423513
0.00493
0.00580793
0.00682716
0.00798593
0.00934263
0.0110161
0.0131168
0.0156835
0.0186748
0.0220022
0.0255235
0.0290979
0.0325713
0.0358009
0.0386523
0.0410234
0.0428298
0.0439926
0.0444372
0.0440981
0.0429292
0.0409201
0.0381214
0.0346684
0.0307994
0.0268408
0.0231207
0.0198731
0.0172113
0.0151464
0.0136243
0.0125586
0.0118541
0.0114171
0.0111565
0.0110167
0.0109584
0.0109538
0.0110129
0.011115
0.0113291
0.0115621
0.0120237
0.0121809
0.297541
0.155
0.087513
0.0533954
0.0351665
0.0245184
0.0174807
0.0124826
0.0089408
0.00657853
0.00511743
0.00432118
0.0039868
0.00398865
0.00425318
0.004758
0.00548559
0.00641682
0.00750232
0.00872238
0.0101177
0.011799
0.0138793
0.0164069
0.0193491
0.0226218
0.0260875
0.0296023
0.0330106
0.0361599
0.0389163
0.0411716
0.0428344
0.0438199
0.0440491
0.0434547
0.0419931
0.0396658
0.0365475
0.0328111
0.028735
0.0246689
0.0209395
0.0177606
0.015216
0.0132897
0.0119093
0.0109801
0.0104058
0.010094
0.00995478
0.00993143
0.0099766
0.0100571
0.0101784
0.0103218
0.010554
0.0107941
0.0112412
0.0114124
0.297533
0.155235
0.0878307
0.053673
0.03551
0.0251134
0.0183927
0.0135923
0.0100679
0.0075994
0.00599414
0.00506998
0.00464485
0.00459334
0.00483511
0.00534307
0.00609884
0.00708091
0.00823324
0.00951777
0.010954
0.0126406
0.0146915
0.0171658
0.0200417
0.023241
0.0266321
0.0300695
0.0333945
0.0364485
0.0390959
0.0412222
0.042729
0.0435254
0.0435283
0.0426691
0.0409092
0.0382646
0.0348386
0.0308446
0.0266002
0.0224741
0.0187837
0.0157143
0.0133154
0.0115419
0.0103044
0.00950256
0.00904231
0.00883692
0.00880192
0.00888184
0.00902294
0.00918633
0.00937211
0.00956163
0.00981884
0.0100725
0.0105132
0.0107021
0.297542
0.155474
0.0881455
0.0539184
0.0357444
0.0255176
0.0190946
0.0145519
0.0111372
0.00863806
0.00693095
0.00589486
0.00538097
0.00527262
0.00548678
0.00599252
0.00677115
0.00780017
0.00901841
0.01037
0.0118506
0.0135419
0.0155568
0.0179652
0.0207586
0.0238668
0.0271649
0.0305071
0.0337307
0.036674
0.0391979
0.0411815
0.042519
0.043114
0.0428792
0.0417462
0.0396834
0.0367255
0.0330086
0.0287892
0.0244225
0.0202893
0.0166887
0.0137695
0.0115426
0.00993396
0.00883873
0.00815373
0.00778991
0.00766951
0.0077181
0.00788358
0.00810815
0.00834768
0.00859623
0.00883368
0.00912027
0.00939249
0.00983313
0.0100425
0.29756
0.155711
0.0884561
0.0541464
0.0359035
0.0257644
0.0195919
0.015332
0.0121036
0.00965362
0.00789996
0.00678012
0.0061876
0.00602346
0.00620743
0.00670646
0.00750237
0.00857322
0.00985486
0.0112752
0.0128043
0.014502
0.0164769
0.0188094
0.0215057
0.0245061
0.0276932
0.0309227
0.0340265
0.0368431
0.0392284
0.0410546
0.0422091
0.0425894
0.0421052
0.0406896
0.0383212
0.0350575
0.0310722
0.0266666
0.0222301
0.0181467
0.0146871
0.0119562
0.00992394
0.00848891
0.00753362
0.00695442
0.0066695
0.00661226
0.006722
0.00695216
0.00724386
0.00754877
0.00785475
0.00813889
0.00845681
0.00875065
0.00919606
0.00942798
0.297583
0.15594
0.0887605
0.0543669
0.0360155
0.0258894
0.0199023
0.0159177
0.0129276
0.010602
0.0088656
0.00770192
0.00705032
0.00683752
0.00699222
0.00748189
0.00828995
0.00939675
0.0107378
0.0122273
0.0138093
0.0155175
0.0174516
0.0197008
0.0222875
0.0251645
0.0282236
0.031322
0.0342885
0.0369617
0.0391922
0.0408456
0.0418021
0.0419538
0.0412081
0.0395018
0.0368272
0.0332697
0.0290449
0.0244999
0.0200519
0.0160774
0.0128076
0.010298
0.00847756
0.00722076
0.00640124
0.00591715
0.00569506
0.00568064
0.00582926
0.00610185
0.00644167
0.00679797
0.00715282
0.0074796
0.00782841
0.00814523
0.00859869
0.00885442
0.297606
0.156159
0.0890565
0.0545855
0.0361024
0.025927
0.020053
0.0163085
0.0135798
0.0114402
0.00978684
0.00862853
0.00794707
0.0077
0.00783106
0.00831159
0.00912807
0.0102648
0.0116598
0.0132175
0.0148567
0.0165815
0.0184772
0.0206392
0.0231063
0.0258461
0.0287611
0.0317096
0.0345214
0.0370341
0.0390929
0.0405568
0.0412995
0.0412078
0.0401885
0.0381845
0.0352062
0.0313721
0.0269441
0.0223136
0.017917
0.01411
0.0110739
0.00881112
0.0072128
0.00613432
0.00544463
0.00504575
0.00487298
0.00488406
0.00505131
0.00534451
0.00571229
0.00610381
0.00649634
0.00685919
0.00723623
0.00757567
0.00803898
0.00831905
0.297629
0.156365
0.0893425
0.0548049
0.0361805
0.0259084
0.0200763
0.0165173
0.014044
0.012131
0.0106207
0.00952186
0.00884813
0.00858883
0.00870753
0.00918302
0.0100065
0.0111679
0.0126107
0.0142339
0.0159338
0.017683
0.0195461
0.0216207
0.0239616
0.0265526
0.0293088
0.0320886
0.0347279
0.0370621
0.0389314
0.0401883
0.0407001
0.0403499
0.039045
0.0367383
0.0334628
0.0293761
0.0247891
0.020134
0.0158541
0.0122695
0.00950302
0.00750391
0.00613071
0.00522611
0.00465878
0.00433629
0.00420235
0.00422565
0.00439475
0.00468884
0.00506482
0.00547434
0.00589149
0.00628175
0.00668236
0.00704246
0.00751599
0.0078202
0.29765
0.156558
0.0896169
0.0550256
0.0362605
0.0258593
0.0200059
0.0165676
0.0143185
0.0126475
0.0113267
0.0103402
0.00971725
0.00947467
0.00959825
0.0100774
0.0109097
0.012092
0.0135763
0.0152608
0.017024
0.0188059
0.0206455
0.0226367
0.0248483
0.0272819
0.029864
0.0324585
0.0349078
0.0370451
0.0387061
0.0397375
0.0400009
0.0393765
0.0377752
0.0351634
0.0316026
0.0272948
0.0226018
0.0179887
0.0138904
0.0105767
0.00810573
0.00637735
0.00522523
0.0044862
0.0040326
0.00377886
0.00367632
0.00370288
0.00386131
0.00414001
0.00450618
0.00491662
0.00534435
0.0057518
0.00616963
0.00654694
0.00702976
0.00735713
0.297669
0.156739
0.0898788
0.0552472
0.0363493
0.0258003
0.019874
0.0164897
0.0144148
0.0129756
0.0118713
0.0110421
0.0105138
0.0103218
0.0104729
0.0109692
0.0118159
0.0130179
0.0145378
0.0162785
0.0181057
0.0199288
0.0217566
0.0236726
0.0257563
0.0280269
0.0304209
0.0328152
0.035057
0.0369788
0.0384122
0.0391988
0.0391956
0.038282
0.0363753
0.0334602
0.0296328
0.0251446
0.0204067
0.015906
0.0120506
0.00904651
0.0068858
0.00542605
0.00448511
0.00390047
0.00355142
0.00335998
0.00328408
0.00330894
0.00344861
0.00369972
0.00404088
0.0044364
0.00486049
0.00527396
0.00570134
0.00609114
0.00658111
0.00692999
0.297686
0.156907
0.0901276
0.0554681
0.03645
0.0257461
0.0197088
0.016317
0.0143558
0.0131155
0.0122321
0.0115907
0.0111965
0.0110901
0.0112952
0.0118263
0.0126971
0.0139204
0.0154717
0.0172625
0.0191526
0.0210247
0.0228539
0.0247069
0.0266686
0.0287723
0.0309683
0.033149
0.0351669
0.0368545
0.0380409
0.0385633
0.0382757
0.037059
0.0348409
0.03163
0.0275631
0.0229449
0.0182311
0.013914
0.0103555
0.00768804
0.00584095
0.00463978
0.00389588
0.00345292
0.00319938
0.00306496
0.00301307
0.00303455
0.00315133
0.00336679
0.00367113
0.0040379
0.00444478
0.00485275
0.00528108
0.00567762
0.00617156
0.00653962
0.297699
0.157063
0.0903634
0.055687
0.0365634
0.0257066
0.0195336
0.0160823
0.0141719
0.0130812
0.0124001
0.0119585
0.011727
0.0117384
0.0120249
0.0126113
0.0135189
0.0147687
0.0163487
0.0181835
0.0201337
0.0220605
0.023905
0.0257103
0.0275604
0.0294958
0.0314887
0.0334449
0.0352236
0.0366592
0.0375793
0.0378184
0.0372297
0.0356986
0.0331677
0.0296759
0.0254068
0.0207194
0.0161044
0.0120393
0.00882118
0.00650419
0.00496379
0.00400528
0.00344193
0.00312767
0.00296129
0.00287982
0.00285096
0.0028698
0.0029626
0.003138
0.00339717
0.00372387
0.00410123
0.00449238
0.00491258
0.00530937
0.00580322
0.00618753
0.297711
0.157209
0.0905863
0.0559022
0.0366887
0.0256875
0.0193657
0.0158154
0.0138969
0.0128976
0.0123812
0.0121304
0.0120751
0.0122282
0.0126207
0.0132831
0.0142425
0.0155263
0.0171347
0.0190078
0.0210132
0.0229981
0.0248706
0.026646
0.0283944
0.0301684
0.0319573
0.0336809
0.0352073
0.0363744
0.0370102
0.0369484
0.036044
0.0341912
0.0313529
0.0276045
0.0231819
0.0184961
0.0140574
0.0103055
0.00745771
0.00549224
0.00424329
0.00350787
0.00310799
0.00291028
0.00282399
0.00279261
0.002787
0.00280575
0.00287533
0.00300916
0.00321788
0.00349579
0.00383297
0.00419667
0.00459958
0.00498963
0.00547866
0.00587583
0.29772
0.157344
0.0907967
0.0561126
0.0368242
0.0256911
0.0192175
0.0155412
0.0135647
0.012597
0.0121945
0.0121061
0.0122225
0.0125284
0.0130446
0.0138008
0.0148266
0.0161532
0.0177914
0.0196974
0.0217516
0.0237946
0.0257058
0.0274662
0.0291292
0.0307531
0.0323412
0.0338279
0.0350917
0.0359763
0.0363119
0.0359343
0.0347037
0.0325276
0.0293958
0.0254268
0.0209118
0.0163066
0.0121204
0.00873153
0.00626915
0.00464478
0.00366624
0.00313293
0.00288027
0.00278862
0.00277695
0.00279406
0.00281279
0.00283458
0.00288313
0.00297591
0.00313141
0.0033542
0.00364236
0.00396898
0.00434571
0.00472186
0.0052009
0.00560712
0.297728
0.15747
0.0909954
0.0563171
0.0369675
0.0257172
0.0190964
0.0152789
0.0132062
0.0122151
0.0118693
0.0118997
0.0121649
0.0126194
0.0132659
0.0141271
0.0152306
0.0166082
0.0182781
0.0202122
0.022307
0.0244044
0.0263609
0.0281202
0.0297164
0.0312051
0.0326001
0.03385
0.0348448
0.0354361
0.0354591
0.034755
0.0331934
0.0307008
0.0273004
0.0231602
0.0186262
0.0141857
0.0103215
0.0073305
0.00525374
0.00395097
0.00321867
0.00286689
0.00274715
0.00275321
0.00281249
0.00287769
0.00292252
0.00295042
0.00298094
0.00303437
0.00313564
0.00329903
0.00353113
0.00381224
0.00415447
0.00450965
0.00497328
0.00538447
0.297734
0.157588
0.0911831
0.056515
0.0371164
0.0257643
0.0190058
0.015042
0.0128472
0.011787
0.0114417
0.0115382
0.0119139
0.012496
0.0132658
0.0142333
0.0154193
0.0168527
0.0185551
0.0205117
0.0226371
0.0247812
0.0267837
0.028554
0.0301018
0.031473
0.0326869
0.0337046
0.0344287
0.0347207
0.0344238
0.0333885
0.0314991
0.0287074
0.0250769
0.0208293
0.0163605
0.012169
0.00868422
0.0061088
0.00440466
0.00339792
0.00288692
0.00269796
0.0026994
0.00279723
0.00292559
0.00303953
0.00311266
0.00314965
0.00316518
0.00318139
0.00322857
0.00332988
0.00350053
0.00372901
0.00402922
0.00435665
0.00479945
0.00521139
0.297738
0.157699
0.0913606
0.0567059
0.0372687
0.0258297
0.0189463
0.0148388
0.0125074
0.011344
0.0109495
0.0110571
0.0114948
0.012169
0.0130405
0.0141031
0.0153673
0.0168548
0.0185871
0.0205587
0.0227022
0.0248806
0.026924
0.0287131
0.030229
0.0315015
0.0325498
0.0333449
0.033802
0.0337945
0.0331773
0.0318145
0.0296109
0.0265507
0.0227441
0.0184674
0.0141549
0.0102905
0.00722581
0.00506619
0.00371131
0.00297198
0.00265856
0.00261646
0.00273029
0.00291634
0.0031135
0.00327764
0.00338144
0.00343014
0.00343329
0.00341443
0.0034083
0.00344613
0.00355145
0.00372152
0.00397315
0.00426657
0.00468329
0.00509171
0.297742
0.157803
0.0915288
0.0568896
0.0374224
0.0259102
0.0189164
0.0146733
0.0122006
0.0109119
0.0104288
0.0104966
0.0109435
0.0116642
0.0126024
0.0137361
0.0150627
0.0165943
0.0183478
0.0203232
0.0224689
0.0246644
0.0267376
0.0285464
0.0300427
0.0312346
0.0321354
0.0327221
0.0329219
0.032622
0.0316925
0.0300164
0.0275255
0.0242432
0.0203308
0.0161158
0.012052
0.00857983
0.00595576
0.00419656
0.00316073
0.00265984
0.00252285
0.002615
0.00283539
0.0031083
0.00337524
0.00359142
0.00372806
0.00379048
0.00378319
0.00373113
0.00367294
0.00364691
0.00368444
0.00379167
0.00398928
0.00424312
0.00462893
0.00502957
0.297744
0.157901
0.0916885
0.0570662
0.0375759
0.0260029
0.0189131
0.0145462
0.0119351
0.0105101
0.00991065
0.00989659
0.0103025
0.0110193
0.0119801
0.0131491
0.0145111
0.0160665
0.0178249
0.0197874
0.0219151
0.0241049
0.0261898
0.0280115
0.0294943
0.030621
0.0313932
0.0317897
0.0317484
0.0311717
0.0299485
0.0279862
0.0252501
0.0218091
0.0178772
0.0138225
0.0100933
0.00705899
0.00487556
0.00348917
0.00273893
0.00244929
0.0024711
0.0026884
0.00301234
0.00337253
0.00371093
0.00398083
0.0041519
0.00422907
0.00421248
0.00412882
0.00402021
0.00393096
0.00389964
0.00394103
0.00408045
0.00428997
0.0046406
0.00502934
0.297746
0.157994
0.0918404
0.0572359
0.037728
0.0261048
0.0189329
0.0144558
0.0117144
0.0101511
0.00941953
0.0092928
0.00961503
0.0102795
0.0112146
0.0123755
0.0137359
0.0152851
0.0170234
0.0189497
0.0210339
0.0231896
0.0252606
0.0270798
0.0285475
0.0296198
0.0302816
0.0305093
0.0302494
0.0294206
0.0279343
0.0257276
0.0228057
0.0192869
0.0154344
0.0116394
0.00831522
0.00574083
0.00397938
0.00293026
0.00243205
0.00232979
0.00249677
0.00283362
0.00326052
0.00370958
0.00412109
0.00444558
0.00465159
0.0047433
0.00471776
0.00460395
0.0044471
0.00429636
0.00419666
0.00417074
0.00424922
0.00441067
0.00472263
0.00509549
0.297747
0.158083
0.0919854
0.057399
0.0378778
0.0262132
0.018972
0.0143986
0.0115386
0.009842
0.0089726
0.00871442
0.00892124
0.00949192
0.0103552
0.0114617
0.0127777
0.0142829
0.0159686
0.0178287
0.0198384
0.021926
0.0239504
0.0257429
0.0271851
0.0282071
0.0287743
0.0288565
0.0284067
0.0273603
0.0256545
0.0232613
0.0202304
0.0167297
0.013062
0.00961684
0.00674498
0.0046281
0.00325557
0.00250461
0.00222729
0.00229282
0.00259549
0.00304947
0.00358059
0.00412046
0.0046059
0.00498428
0.00522426
0.00532885
0.00529405
0.00515165
0.00494953
0.00474032
0.00457434
0.00448134
0.00449778
0.00460855
0.00487933
0.00523249
0.297748
0.158168
0.0921243
0.0575559
0.0380246
0.026326
0.0190266
0.0143706
0.0114052
0.00958495
0.00858016
0.00818268
0.00825439
0.00870048
0.00945296
0.010462
0.0116899
0.0131099
0.0147051
0.016464
0.0183637
0.0203449
0.0222841
0.0240177
0.025415
0.0263835
0.0268678
0.0268284
0.0262226
0.025003
0.0231348
0.0206286
0.0175808
0.0142042
0.0108232
0.00779819
0.00539785
0.0037142
0.00268853
0.00219694
0.00211353
0.002332
0.00276492
0.00333633
0.00397397
0.00460601
0.00516439
0.00559378
0.00586495
0.00597921
0.00593445
0.00576548
0.00552212
0.00525894
0.00503068
0.00487266
0.0048278
0.00488657
0.0051148
0.00544466
0.297749
0.158249
0.0922577
0.057707
0.0381681
0.0264413
0.0190935
0.0143673
0.0113103
0.00937866
0.00824665
0.00771097
0.00763924
0.0079421
0.00855577
0.00943226
0.0105332
0.011828
0.0132942
0.014915
0.0166677
0.0185023
0.0203137
0.0219502
0.0232755
0.0241797
0.0245881
0.0244505
0.023727
0.0223871
0.0204259
0.0178939
0.0149315
0.0117853
0.0087777
0.00621436
0.00427611
0.00298514
0.00226074
0.00199301
0.00208171
0.00244317
0.0030046
0.00369571
0.00444222
0.00516609
0.00579374
0.00626851
0.0065662
0.00668548
0.0066301
0.0064374
0.00615819
0.00584723
0.00556264
0.00534367