/*--------------------------------*- C++ -*----------------------------------*\
| =========                 |                                                 |
| \\      /  F ield         | OpenFOAM: The Open Source CFD Toolbox           |
|  \\    /   O peration     | Version:  2.4.0                                 |
|   \\  /    A nd           | Web:      www.OpenFOAM.org                      |
|    \\/     M anipulation  |                                                 |
\*---------------------------------------------------------------------------*/
FoamFile
{
    version     2.0;
    format      ascii;
    class       volScalarField;
    location    "0.94";
    object      epsilon;
}
// * * * * * * * * * * * * * * * * * * * * * * * * * * * * * * * * * * * * * //

dimensions      [0 2 -3 0 0 0 0];

internalField   nonuniform List<scalar> 
6000
(
0.0973386
0.138493
0.180973
0.220958
0.255594
0.283296
0.303639
0.317075
0.324589
0.327384
0.326656
0.323466
0.318686
0.312993
0.30689
0.300733
0.29476
0.289123
0.283908
0.279155
0.274869
0.271033
0.267614
0.264572
0.261861
0.259432
0.257239
0.255237
0.253386
0.25165
0.249998
0.248405
0.246848
0.245311
0.24378
0.242246
0.240698
0.239131
0.237535
0.235903
0.234221
0.232474
0.230642
0.228696
0.2266
0.224307
0.221754
0.218865
0.215542
0.21166
0.207067
0.20157
0.194938
0.186887
0.177118
0.165237
0.15119
0.134258
0.117303
0.0955223
0.0250664
0.0270522
0.0301034
0.0338734
0.0379301
0.0418889
0.045528
0.0487672
0.0516128
0.0541207
0.0563698
0.0584423
0.0604115
0.0623359
0.064257
0.0662
0.0681753
0.070181
0.0722051
0.0742285
0.0762267
0.0781731
0.0800401
0.0818021
0.0834361
0.0849236
0.086251
0.0874101
0.0883984
0.0892182
0.0898765
0.090384
0.0907544
0.0910034
0.0911477
0.0912047
0.0911913
0.0911241
0.0910188
0.0908901
0.0907522
0.0906191
0.0905048
0.0904244
0.0903944
0.0904346
0.0905685
0.0908261
0.0912456
0.0918777
0.0927901
0.0940765
0.095868
0.0983562
0.101821
0.106706
0.113652
0.123783
0.137978
0.170892
0.0219104
0.0195999
0.0179097
0.0167133
0.0158962
0.0153459
0.0149704
0.0147045
0.0145063
0.0143524
0.0142332
0.0141487
0.0141044
0.0141082
0.0141686
0.0142934
0.0144894
0.0147616
0.0151135
0.0155473
0.0160632
0.0166604
0.0173364
0.0180874
0.0189083
0.0197929
0.0207337
0.0217226
0.0227503
0.0238074
0.0248839
0.0259699
0.0270558
0.0281325
0.0291914
0.0302252
0.0312278
0.0321942
0.0331211
0.0340068
0.0348511
0.0356555
0.0364233
0.0371597
0.0378718
0.0385693
0.039265
0.0399753
0.0407222
0.0415356
0.0424569
0.0435452
0.0448889
0.0466239
0.0489673
0.052287
0.0572016
0.064917
0.0773134
0.104507
0.0217582
0.0190981
0.0169124
0.0151094
0.0136187
0.0123813
0.011348
0.0104783
0.00973956
0.00910585
0.00855708
0.00807804
0.00765753
0.00728741
0.00696191
0.00667701
0.00643
0.00621906
0.00604307
0.00590136
0.00579359
0.00571967
0.00567963
0.00567363
0.00570186
0.00576456
0.00586192
0.00599412
0.00616129
0.00636344
0.0066005
0.00687229
0.00717846
0.00751853
0.00789185
0.00829761
0.00873488
0.00920262
0.00969974
0.0102252
0.0107781
0.0113578
0.0119643
0.012598
0.0132606
0.0139551
0.0146866
0.0154628
0.0162951
0.0172002
0.0182024
0.019337
0.0206564
0.0222404
0.0242157
0.0267943
0.03035
0.0356178
0.0440666
0.0611183
0.0217509
0.019066
0.0168344
0.0149634
0.0133833
0.0120402
0.0108917
0.00990394
0.00904968
0.00830685
0.00765745
0.00708677
0.0065828
0.00613572
0.00573748
0.00538152
0.00506245
0.00477586
0.00451814
0.00428631
0.00407794
0.00389102
0.00372392
0.0035753
0.00344408
0.00332938
0.00323052
0.00314698
0.00307838
0.00302446
0.00298507
0.00296018
0.00294987
0.0029543
0.00297372
0.00300851
0.00305916
0.00312626
0.00321058
0.00331308
0.00343495
0.00357772
0.00374333
0.0039343
0.00415394
0.00440661
0.00469812
0.00503634
0.00543197
0.00589976
0.0064603
0.00714277
0.00798938
0.0090625
0.0104579
0.0123261
0.0149259
0.0187081
0.0246627
0.0354872
0.0217506
0.0190635
0.0168276
0.0149497
0.0133592
0.0120023
0.0108367
0.00982909
0.0089531
0.00818746
0.00751493
0.00692144
0.0063954
0.00592722
0.00550894
0.00513388
0.00479645
0.00449193
0.00421633
0.00396626
0.00373884
0.00353161
0.00334246
0.00316958
0.00301144
0.00286668
0.00273417
0.00261292
0.00250208
0.00240093
0.00230885
0.00222532
0.00214991
0.00208228
0.00202216
0.00196934
0.00192373
0.00188529
0.00185409
0.00183033
0.00181431
0.00180654
0.00180776
0.00181899
0.00184171
0.00187796
0.00193063
0.00200379
0.00210325
0.00223741
0.00241856
0.00266496
0.00300442
0.00347998
0.00416066
0.00515809
0.00666889
0.00901911
0.0129366
0.0198586
0.0217505
0.019063
0.0168264
0.0149476
0.0133559
0.0119972
0.0108293
0.00981882
0.00893941
0.00816985
0.00749299
0.00689486
0.00636398
0.00589085
0.00546756
0.00508752
0.00474514
0.00443572
0.00415525
0.00390031
0.00366798
0.00345573
0.00326137
0.00308303
0.00291906
0.00276803
0.00262869
0.00249994
0.00238082
0.0022705
0.00216823
0.00207335
0.00198529
0.00190355
0.00182768
0.00175731
0.0016921
0.00163178
0.00157612
0.00152495
0.00147817
0.00143573
0.00139768
0.00136419
0.00133557
0.00131236
0.00129539
0.00128599
0.00128619
0.00129913
0.00132976
0.00138602
0.00148088
0.00163613
0.00188953
0.00230743
0.00301536
0.00423526
0.00648042
0.0106328
0.0217505
0.0190628
0.0168258
0.0149465
0.0133545
0.0119955
0.0108272
0.00981625
0.00893631
0.00816614
0.00748859
0.00688968
0.00635793
0.00588386
0.00545958
0.00507848
0.00473501
0.00442446
0.00414284
0.00388672
0.00365317
0.00343968
0.00324403
0.00306435
0.00289898
0.00274647
0.00260554
0.00247509
0.00235413
0.0022418
0.00213731
0.00203999
0.00194922
0.00186447
0.00178525
0.00171114
0.00164173
0.0015767
0.00151575
0.0014586
0.00140502
0.00135484
0.00130789
0.00126406
0.00122332
0.00118569
0.00115131
0.00112048
0.00109375
0.00107208
0.00105711
0.00105169
0.00106082
0.00109353
0.00116686
0.00131343
0.00160046
0.00215939
0.00331013
0.00561496
0.0217505
0.0190626
0.0168253
0.0149458
0.0133535
0.0119943
0.0108258
0.00981472
0.00893466
0.00816437
0.0074867
0.00688766
0.00635578
0.00588157
0.00545713
0.00507586
0.00473221
0.00442146
0.00413963
0.00388329
0.0036495
0.00343575
0.00323985
0.00305989
0.00289422
0.00274139
0.00260013
0.00246931
0.00234796
0.00223519
0.00213023
0.00203239
0.00194104
0.00185565
0.00177571
0.00170079
0.00163048
0.00156442
0.0015023
0.00144382
0.00138873
0.00133679
0.00128779
0.00124155
0.00119794
0.00115682
0.00111814
0.00108188
0.00104812
0.0010171
0.000989295
0.000965638
0.000947913
0.000939571
0.000947557
0.000986277
0.00108772
0.00132174
0.00186791
0.00307736
0.0217505
0.0190624
0.0168249
0.0149451
0.0133527
0.0119933
0.0108246
0.00981349
0.00893335
0.008163
0.00748529
0.00688622
0.00635432
0.0058801
0.00545565
0.00507437
0.00473071
0.00441996
0.00413811
0.00388175
0.00364795
0.00343418
0.00323825
0.00305826
0.00289255
0.00273968
0.00259837
0.0024675
0.00234609
0.00223325
0.00212821
0.00203028
0.00193884
0.00185333
0.00177326
0.00169819
0.0016277
0.00156144
0.00149909
0.00144034
0.00138493
0.00133262
0.00128317
0.00123641
0.00119214
0.00115022
0.00111051
0.00107293
0.0010374
0.00100395
0.000972671
0.000943866
0.000918162
0.00089687
0.000882753
0.000881898
0.000908534
0.00099728
0.00124103
0.00185108
0.0217504
0.0190623
0.0168246
0.0149446
0.013352
0.0119925
0.0108237
0.00981245
0.00893224
0.00816185
0.0074841
0.00688502
0.00635311
0.00587889
0.00545445
0.00507319
0.00472954
0.0044188
0.00413698
0.00388064
0.00364686
0.00343311
0.00323719
0.00305722
0.00289153
0.00273867
0.00259738
0.00246652
0.00234512
0.00223229
0.00212725
0.00202932
0.00193788
0.00185237
0.00177229
0.0016972
0.0016267
0.00156042
0.00149804
0.00143926
0.0013838
0.00133142
0.0012819
0.00123504
0.00119065
0.00114857
0.00110865
0.00107078
0.00103485
0.00100081
0.000968665
0.000938499
0.000910564
0.000885408
0.000864204
0.000849585
0.000847733
0.000875191
0.000977222
0.00127505
0.0217504
0.0190622
0.0168243
0.0149442
0.0133514
0.0119917
0.0108229
0.00981155
0.00893128
0.00816085
0.00748307
0.00688398
0.00635207
0.00587784
0.00545341
0.00507217
0.00472854
0.00441782
0.00413601
0.0038797
0.00364594
0.00343221
0.00323632
0.00305637
0.00289071
0.00273787
0.0025966
0.00246576
0.00234438
0.00223157
0.00212655
0.00202864
0.00193721
0.00185171
0.00177165
0.00169658
0.00162609
0.00155982
0.00149745
0.00143867
0.00138322
0.00133085
0.00128133
0.00123447
0.00119007
0.00114798
0.00110803
0.00107012
0.00103412
0.00099998
0.000967653
0.000937175
0.000908675
0.00088245
0.000859103
0.000839919
0.000827693
0.000830319
0.000868993
0.00101013
0.0217504
0.0190622
0.0168241
0.0149439
0.0133509
0.0119911
0.0108222
0.00981078
0.00893045
0.00815998
0.00748218
0.00688307
0.00635115
0.00587693
0.00545251
0.00507127
0.00472766
0.00441696
0.00413518
0.00387888
0.00364514
0.00343144
0.00323557
0.00305564
0.00288999
0.00273718
0.00259592
0.00246511
0.00234374
0.00223095
0.00212595
0.00202806
0.00193665
0.00185117
0.00177112
0.00169607
0.00162559
0.00155934
0.00149698
0.00143822
0.00138278
0.00133043
0.00128092
0.00123408
0.00118969
0.00114761
0.00110769
0.00106979
0.0010338
0.000999662
0.000967325
0.000936805
0.000908198
0.000881719
0.000857774
0.000837142
0.000821267
0.000814097
0.00082536
0.000890238
0.0217504
0.0190621
0.0168239
0.0149436
0.0133505
0.0119906
0.0108216
0.00981011
0.00892974
0.00815922
0.0074814
0.00688228
0.00635035
0.00587614
0.00545172
0.00507049
0.00472689
0.00441621
0.00413444
0.00387816
0.00364445
0.00343076
0.00323491
0.003055
0.00288937
0.00273657
0.00259534
0.00246454
0.00234319
0.00223042
0.00212544
0.00202756
0.00193616
0.0018507
0.00177067
0.00169562
0.00162516
0.00155892
0.00149658
0.00143783
0.00138241
0.00133007
0.00128058
0.00123375
0.00118939
0.00114733
0.00110742
0.00106954
0.00103359
0.000999472
0.000967162
0.000936666
0.000908068
0.000881557
0.000857472
0.0008364
0.000819262
0.000808256
0.00080786
0.000836408
0.0217504
0.0190621
0.0168238
0.0149433
0.0133502
0.0119902
0.0108211
0.00980954
0.00892911
0.00815857
0.00748073
0.00688159
0.00634966
0.00587544
0.00545103
0.00506981
0.00472622
0.00441555
0.0041338
0.00387753
0.00364383
0.00343016
0.00323433
0.00305444
0.00288882
0.00273604
0.00259482
0.00246404
0.00234271
0.00222995
0.00212498
0.00202712
0.00193573
0.00185028
0.00177026
0.00169523
0.00162479
0.00155856
0.00149623
0.0014375
0.00138209
0.00132976
0.00128029
0.00123347
0.00118913
0.00114709
0.0011072
0.00106935
0.00103342
0.000999335
0.000967059
0.0009366
0.000908038
0.000881553
0.000857456
0.000836258
0.000818672
0.00080612
0.000800742
0.000812121
0.0217504
0.019062
0.0168237
0.0149431
0.0133499
0.0119898
0.0108206
0.00980904
0.00892858
0.008158
0.00748014
0.00688099
0.00634905
0.00587483
0.00545042
0.00506921
0.00472563
0.00441497
0.00413323
0.00387698
0.0036433
0.00342964
0.00323382
0.00305394
0.00288835
0.00273558
0.00259437
0.00246361
0.00234229
0.00222954
0.00212458
0.00202673
0.00193536
0.00184992
0.00176992
0.0016949
0.00162446
0.00155825
0.00149593
0.00143721
0.00138181
0.0013295
0.00128004
0.00123324
0.00118891
0.00114689
0.00110702
0.00106919
0.00103329
0.000999238
0.000966998
0.000936578
0.000908058
0.000881612
0.000857538
0.000836309
0.00081855
0.000805316
0.000797725
0.000800893
0.0217504
0.019062
0.0168236
0.0149429
0.0133496
0.0119895
0.0108203
0.00980861
0.00892811
0.00815751
0.00747963
0.00688046
0.00634852
0.00587431
0.0054499
0.0050687
0.00472512
0.00441447
0.00413274
0.00387651
0.00364283
0.00342919
0.00323338
0.00305352
0.00288793
0.00273518
0.00259398
0.00246323
0.00234192
0.00222918
0.00212424
0.0020264
0.00193504
0.00184961
0.00176961
0.00169461
0.00162418
0.00155798
0.00149567
0.00143696
0.00138158
0.00132927
0.00127983
0.00123304
0.00118873
0.00114672
0.00110688
0.00106907
0.0010332
0.000999177
0.000966972
0.000936593
0.000908116
0.000881713
0.000857673
0.000836446
0.000818607
0.000805022
0.000796359
0.000795443
0.0217504
0.019062
0.0168235
0.0149428
0.0133494
0.0119892
0.0108199
0.00980825
0.00892772
0.00815709
0.00747919
0.00688002
0.00634807
0.00587385
0.00544945
0.00506825
0.00472468
0.00441404
0.00413232
0.00387609
0.00364243
0.0034288
0.003233
0.00305315
0.00288757
0.00273483
0.00259365
0.0024629
0.0023416
0.00222888
0.00212394
0.00202611
0.00193476
0.00184934
0.00176936
0.00169436
0.00162394
0.00155775
0.00149545
0.00143675
0.00138138
0.00132908
0.00127965
0.00123288
0.00118858
0.00114659
0.00110677
0.00106899
0.00103314
0.000999149
0.00096698
0.000936641
0.000908209
0.000881852
0.000857852
0.000836639
0.00081876
0.000804961
0.000795704
0.000792607
0.0217504
0.019062
0.0168235
0.0149427
0.0133492
0.011989
0.0108197
0.00980794
0.00892738
0.00815673
0.00747882
0.00687964
0.00634769
0.00587347
0.00544906
0.00506787
0.00472431
0.00441367
0.00413196
0.00387574
0.00364209
0.00342846
0.00323268
0.00305283
0.00288727
0.00273453
0.00259336
0.00246262
0.00234133
0.00222861
0.00212369
0.00202587
0.00193453
0.00184911
0.00176914
0.00169414
0.00162374
0.00155755
0.00149526
0.00143657
0.00138121
0.00132893
0.00127951
0.00123275
0.00118847
0.0011465
0.00110669
0.00106893
0.00103311
0.000999152
0.000967019
0.000936721
0.000908335
0.000882025
0.000858069
0.000836882
0.000818985
0.000805042
0.000795406
0.00079103
0.0217504
0.019062
0.0168234
0.0149426
0.0133491
0.0119888
0.0108194
0.00980769
0.0089271
0.00815644
0.00747851
0.00687932
0.00634736
0.00587314
0.00544874
0.00506755
0.00472399
0.00441337
0.00413166
0.00387545
0.0036418
0.00342818
0.00323241
0.00305257
0.00288701
0.00273429
0.00259312
0.00246239
0.00234111
0.0022284
0.00212348
0.00202566
0.00193433
0.00184892
0.00176895
0.00169397
0.00162357
0.00155739
0.00149511
0.00143643
0.00138108
0.00132881
0.0012794
0.00123265
0.00118838
0.00114643
0.00110665
0.00106891
0.00103311
0.000999183
0.000967086
0.00093683
0.00090849
0.00088223
0.000858322
0.00083717
0.000819274
0.000805234
0.000795335
0.000790134
0.0217504
0.019062
0.0168234
0.0149425
0.013349
0.0119887
0.0108193
0.00980748
0.00892687
0.00815619
0.00747826
0.00687906
0.0063471
0.00587288
0.00544848
0.00506729
0.00472374
0.00441311
0.00413141
0.00387521
0.00364156
0.00342795
0.00323218
0.00305235
0.0028868
0.00273408
0.00259292
0.0024622
0.00234092
0.00222822
0.00212331
0.0020255
0.00193417
0.00184877
0.00176881
0.00169383
0.00162344
0.00155727
0.00149499
0.00143632
0.00138097
0.00132871
0.00127931
0.00123258
0.00118833
0.00114639
0.00110662
0.00106891
0.00103314
0.000999241
0.00096718
0.000936966
0.000908673
0.000882465
0.00085861
0.000837502
0.000819624
0.000805526
0.000795442
0.000789674
0.0217504
0.0190619
0.0168234
0.0149424
0.0133489
0.0119885
0.0108191
0.00980732
0.0089267
0.008156
0.00747806
0.00687886
0.00634689
0.00587267
0.00544827
0.00506708
0.00472353
0.00441291
0.00413121
0.00387502
0.00364138
0.00342777
0.00323201
0.00305218
0.00288664
0.00273392
0.00259277
0.00246205
0.00234078
0.00222808
0.00212317
0.00202537
0.00193404
0.00184865
0.00176869
0.00169372
0.00162333
0.00155717
0.0014949
0.00143623
0.0013809
0.00132864
0.00127926
0.00123254
0.00118829
0.00114637
0.00110663
0.00106893
0.00103319
0.000999324
0.000967299
0.000937127
0.000908883
0.000882729
0.000858931
0.000837876
0.000820034
0.000805914
0.00079571
0.000789546
0.0217504
0.0190619
0.0168233
0.0149424
0.0133488
0.0119885
0.010819
0.0098072
0.00892656
0.00815586
0.00747791
0.0068787
0.00634674
0.00587251
0.00544812
0.00506693
0.00472338
0.00441277
0.00413107
0.00387487
0.00364124
0.00342764
0.00323188
0.00305206
0.00288651
0.0027338
0.00259265
0.00246194
0.00234067
0.00222798
0.00212307
0.00202527
0.00193395
0.00184856
0.00176861
0.00169364
0.00162326
0.0015571
0.00149484
0.00143618
0.00138085
0.00132861
0.00127923
0.00123252
0.00118829
0.00114638
0.00110666
0.00106898
0.00103326
0.00099943
0.000967441
0.000937311
0.000909117
0.000883019
0.000859283
0.000838291
0.000820502
0.000806396
0.000796133
0.000789702
0.0217504
0.0190619
0.0168233
0.0149424
0.0133488
0.0119884
0.0108189
0.00980712
0.00892648
0.00815577
0.00747781
0.0068786
0.00634664
0.00587241
0.00544802
0.00506683
0.00472328
0.00441267
0.00413097
0.00387478
0.00364115
0.00342755
0.00323179
0.00305197
0.00288643
0.00273373
0.00259258
0.00246187
0.0023406
0.00222791
0.00212301
0.00202521
0.0019339
0.00184851
0.00176856
0.00169359
0.00162322
0.00155706
0.00149481
0.00143615
0.00138083
0.00132859
0.00127922
0.00123252
0.00118831
0.00114642
0.00110671
0.00106906
0.00103336
0.000999558
0.000967605
0.000937519
0.000909374
0.000883335
0.000859665
0.000838745
0.000821027
0.000806971
0.000796708
0.000790123
0.0217504
0.0190619
0.0168233
0.0149423
0.0133488
0.0119884
0.0108189
0.00980708
0.00892643
0.00815572
0.00747777
0.00687855
0.00634659
0.00587236
0.00544796
0.00506678
0.00472323
0.00441262
0.00413093
0.00387473
0.0036411
0.00342751
0.00323175
0.00305193
0.0028864
0.00273369
0.00259254
0.00246183
0.00234057
0.00222788
0.00212298
0.00202518
0.00193387
0.00184849
0.00176854
0.00169358
0.0016232
0.00155705
0.0014948
0.00143615
0.00138083
0.0013286
0.00127924
0.00123255
0.00118835
0.00114647
0.00110678
0.00106915
0.00103348
0.000999708
0.000967791
0.000937747
0.000909654
0.000883674
0.000860076
0.000839237
0.00082161
0.00080764
0.000797435
0.000790802
0.0217504
0.0190619
0.0168233
0.0149423
0.0133488
0.0119884
0.0108189
0.00980708
0.00892643
0.00815572
0.00747777
0.00687855
0.00634659
0.00587236
0.00544797
0.00506678
0.00472324
0.00441262
0.00413093
0.00387474
0.00364111
0.00342751
0.00323175
0.00305193
0.0028864
0.00273369
0.00259254
0.00246183
0.00234057
0.00222788
0.00212299
0.00202519
0.00193388
0.00184849
0.00176855
0.00169359
0.00162322
0.00155707
0.00149482
0.00143617
0.00138086
0.00132864
0.00127929
0.00123261
0.00118841
0.00114655
0.00110688
0.00106927
0.00103362
0.000999878
0.000967997
0.000937996
0.000909954
0.000884037
0.000860513
0.000839766
0.000822249
0.000808402
0.000798316
0.000791738
0.0217504
0.0190619
0.0168233
0.0149424
0.0133488
0.0119884
0.0108189
0.00980712
0.00892648
0.00815577
0.00747781
0.0068786
0.00634664
0.00587241
0.00544802
0.00506683
0.00472329
0.00441267
0.00413098
0.00387478
0.00364115
0.00342755
0.00323179
0.00305198
0.00288644
0.00273373
0.00259258
0.00246187
0.00234061
0.00222792
0.00212302
0.00202523
0.00193392
0.00184853
0.00176859
0.00169363
0.00162326
0.00155711
0.00149487
0.00143623
0.00138092
0.0013287
0.00127936
0.00123268
0.0011885
0.00114665
0.00110699
0.0010694
0.00103378
0.00100007
0.000968223
0.000938264
0.000910274
0.000884421
0.000860977
0.000840331
0.000822944
0.000809259
0.000799355
0.000792937
0.0217504
0.0190619
0.0168233
0.0149424
0.0133488
0.0119885
0.010819
0.0098072
0.00892656
0.00815586
0.00747791
0.0068787
0.00634674
0.00587252
0.00544812
0.00506693
0.00472339
0.00441277
0.00413107
0.00387488
0.00364124
0.00342764
0.00323188
0.00305206
0.00288652
0.00273381
0.00259266
0.00246195
0.00234069
0.002228
0.0021231
0.0020253
0.00193399
0.00184861
0.00176866
0.0016937
0.00162333
0.00155719
0.00149494
0.0014363
0.001381
0.00132879
0.00127945
0.00123278
0.00118861
0.00114678
0.00110713
0.00106956
0.00103397
0.00100028
0.000968468
0.000938552
0.000910614
0.000884826
0.000861466
0.000840932
0.000823695
0.000810212
0.000800556
0.000794407
0.0217504
0.0190619
0.0168234
0.0149424
0.0133489
0.0119885
0.0108191
0.00980732
0.0089267
0.008156
0.00747806
0.00687886
0.0063469
0.00587267
0.00544827
0.00506708
0.00472354
0.00441292
0.00413122
0.00387502
0.00364138
0.00342778
0.00323202
0.00305219
0.00288665
0.00273394
0.00259278
0.00246207
0.0023408
0.00222811
0.00212321
0.00202541
0.00193409
0.00184871
0.00176876
0.0016938
0.00162343
0.00155729
0.00149505
0.00143641
0.00138111
0.0013289
0.00127957
0.00123291
0.00118875
0.00114692
0.00110729
0.00106974
0.00103417
0.00100051
0.000968732
0.000938858
0.000910973
0.000885251
0.00086198
0.000841567
0.000824502
0.000811264
0.000801926
0.000796165
0.0217504
0.019062
0.0168234
0.0149425
0.013349
0.0119887
0.0108193
0.00980748
0.00892687
0.00815619
0.00747826
0.00687906
0.0063471
0.00587288
0.00544848
0.00506729
0.00472374
0.00441312
0.00413141
0.00387521
0.00364157
0.00342796
0.00323219
0.00305236
0.00288682
0.0027341
0.00259294
0.00246222
0.00234095
0.00222825
0.00212335
0.00202555
0.00193423
0.00184884
0.00176889
0.00169393
0.00162356
0.00155742
0.00149518
0.00143654
0.00138124
0.00132904
0.00127971
0.00123306
0.00118891
0.00114709
0.00110748
0.00106994
0.00103439
0.00100076
0.000969015
0.000939183
0.00091135
0.000885697
0.000862517
0.000842237
0.000825365
0.000812418
0.000803472
0.00079823
0.0217504
0.019062
0.0168234
0.0149426
0.0133491
0.0119888
0.0108194
0.00980769
0.0089271
0.00815644
0.00747851
0.00687932
0.00634737
0.00587314
0.00544875
0.00506755
0.004724
0.00441337
0.00413166
0.00387545
0.00364181
0.00342819
0.00323242
0.00305258
0.00288703
0.00273431
0.00259314
0.00246242
0.00234114
0.00222844
0.00212353
0.00202572
0.0019344
0.00184901
0.00176906
0.0016941
0.00162372
0.00155758
0.00149534
0.0014367
0.0013814
0.0013292
0.00127988
0.00123323
0.00118909
0.00114728
0.00110768
0.00107016
0.00103463
0.00100103
0.000969317
0.000939525
0.000911745
0.000886161
0.000863078
0.00084294
0.000826285
0.000813677
0.000805206
0.000800632
0.0217504
0.019062
0.0168235
0.0149427
0.0133492
0.011989
0.0108197
0.00980794
0.00892738
0.00815673
0.00747882
0.00687964
0.00634769
0.00587347
0.00544907
0.00506787
0.00472431
0.00441368
0.00413197
0.00387575
0.0036421
0.00342847
0.00323269
0.00305285
0.00288729
0.00273456
0.00259339
0.00246266
0.00234137
0.00222866
0.00212375
0.00202594
0.00193461
0.00184922
0.00176926
0.00169429
0.00162392
0.00155777
0.00149553
0.00143689
0.00138159
0.0013294
0.00128007
0.00123343
0.0011893
0.0011475
0.00110791
0.00107041
0.0010349
0.00100132
0.000969639
0.000939887
0.000912158
0.000886644
0.000863661
0.000843676
0.000827262
0.000815048
0.000807139
0.000803406
0.0217504
0.019062
0.0168235
0.0149428
0.0133494
0.0119892
0.0108199
0.00980825
0.00892772
0.00815709
0.00747919
0.00688002
0.00634807
0.00587385
0.00544945
0.00506825
0.00472469
0.00441405
0.00413233
0.0038761
0.00364244
0.00342881
0.00323302
0.00305317
0.0028876
0.00273486
0.00259368
0.00246294
0.00234165
0.00222893
0.00212401
0.00202619
0.00193486
0.00184946
0.0017695
0.00169453
0.00162415
0.001558
0.00149575
0.00143711
0.00138182
0.00132962
0.0012803
0.00123366
0.00118953
0.00114774
0.00110817
0.00107068
0.00103519
0.00100163
0.000969981
0.000940268
0.00091259
0.000887147
0.000864267
0.000844446
0.000828297
0.000816535
0.000809286
0.0008066
0.0217504
0.019062
0.0168236
0.0149429
0.0133496
0.0119895
0.0108203
0.00980861
0.00892811
0.00815751
0.00747963
0.00688047
0.00634853
0.00587431
0.00544991
0.0050687
0.00472513
0.00441448
0.00413275
0.00387652
0.00364284
0.0034292
0.0032334
0.00305354
0.00288796
0.00273521
0.00259402
0.00246327
0.00234197
0.00222925
0.00212432
0.00202649
0.00193515
0.00184974
0.00176977
0.0016948
0.00162441
0.00155826
0.00149601
0.00143737
0.00138207
0.00132987
0.00128055
0.00123392
0.00118979
0.00114802
0.00110845
0.00107097
0.0010355
0.00100196
0.000970345
0.00094067
0.000913042
0.000887669
0.000864895
0.000845248
0.00082939
0.000818146
0.000811664
0.000810275
0.0217504
0.019062
0.0168237
0.0149431
0.0133499
0.0119898
0.0108206
0.00980904
0.00892858
0.008158
0.00748014
0.00688099
0.00634905
0.00587484
0.00545043
0.00506922
0.00472564
0.00441498
0.00413324
0.003877
0.00364331
0.00342966
0.00323384
0.00305397
0.00288838
0.00273562
0.00259442
0.00246366
0.00234234
0.00222961
0.00212467
0.00202683
0.00193549
0.00185007
0.00177009
0.00169511
0.00162472
0.00155856
0.00149631
0.00143766
0.00138236
0.00133016
0.00128084
0.00123421
0.00119009
0.00114832
0.00110876
0.00107129
0.00103584
0.00100232
0.000970732
0.000941093
0.000913514
0.000888212
0.000865547
0.000846084
0.000830544
0.000819889
0.000814295
0.000814511
0.0217504
0.0190621
0.0168238
0.0149433
0.0133502
0.0119902
0.0108211
0.00980954
0.00892912
0.00815857
0.00748073
0.00688159
0.00634966
0.00587544
0.00545103
0.00506982
0.00472623
0.00441556
0.00413381
0.00387755
0.00364385
0.00343018
0.00323435
0.00305446
0.00288886
0.00273608
0.00259487
0.0024641
0.00234277
0.00223002
0.00212507
0.00202723
0.00193587
0.00185044
0.00177046
0.00169547
0.00162507
0.0015589
0.00149664
0.00143799
0.00138269
0.00133049
0.00128117
0.00123454
0.00119042
0.00114865
0.0011091
0.00107165
0.0010362
0.00100271
0.000971144
0.000941539
0.000914008
0.000888775
0.000866221
0.000846953
0.000831758
0.000821773
0.000817201
0.000819413
0.0217504
0.0190621
0.0168239
0.0149436
0.0133505
0.0119906
0.0108216
0.00981011
0.00892974
0.00815923
0.00748141
0.00688228
0.00635036
0.00587614
0.00545173
0.0050705
0.0047269
0.00441622
0.00413445
0.00387818
0.00364446
0.00343078
0.00323493
0.00305503
0.00288941
0.00273662
0.00259539
0.0024646
0.00234326
0.0022305
0.00212554
0.00202768
0.00193631
0.00185087
0.00177088
0.00169587
0.00162547
0.00155929
0.00149703
0.00143837
0.00138306
0.00133085
0.00128153
0.0012349
0.00119078
0.00114902
0.00110947
0.00107203
0.0010366
0.00100313
0.000971583
0.000942012
0.000914526
0.000889362
0.00086692
0.000847856
0.000833035
0.000823811
0.00082041
0.000825121
0.0217504
0.0190622
0.0168241
0.0149439
0.0133509
0.0119911
0.0108222
0.00981078
0.00893046
0.00815998
0.00748218
0.00688307
0.00635116
0.00587694
0.00545252
0.00507128
0.00472767
0.00441697
0.00413519
0.0038789
0.00364516
0.00343146
0.00323559
0.00305567
0.00289003
0.00273722
0.00259598
0.00246517
0.00234382
0.00223104
0.00212606
0.00202819
0.00193681
0.00185136
0.00177135
0.00169634
0.00162592
0.00155973
0.00149746
0.0014388
0.00138348
0.00133127
0.00128194
0.00123531
0.00119119
0.00114943
0.00110989
0.00107245
0.00103703
0.00100357
0.000972055
0.000942514
0.000915073
0.000889976
0.000867646
0.000848794
0.000834375
0.000826015
0.000823954
0.000831827
0.0217504
0.0190622
0.0168243
0.0149442
0.0133514
0.0119917
0.0108229
0.00981155
0.00893128
0.00816085
0.00748308
0.00688398
0.00635207
0.00587785
0.00545342
0.00507217
0.00472855
0.00441783
0.00413603
0.00387972
0.00364596
0.00343224
0.00323635
0.00305641
0.00289075
0.00273792
0.00259665
0.00246583
0.00234446
0.00223166
0.00212667
0.00202878
0.00193738
0.00185191
0.00177189
0.00169687
0.00162644
0.00156024
0.00149796
0.00143928
0.00138396
0.00133174
0.00128241
0.00123577
0.00119165
0.00114989
0.00111035
0.00107293
0.00103752
0.00100407
0.000972576
0.000943064
0.000915665
0.000890633
0.000868415
0.000849781
0.000835792
0.000828408
0.000827878
0.000839796
0.0217504
0.0190623
0.0168246
0.0149446
0.013352
0.0119925
0.0108237
0.00981245
0.00893224
0.00816185
0.00748411
0.00688502
0.00635312
0.00587889
0.00545446
0.0050732
0.00472955
0.00441882
0.00413699
0.00388066
0.00364688
0.00343313
0.00323722
0.00305725
0.00289157
0.00273872
0.00259744
0.00246659
0.0023452
0.00223239
0.00212737
0.00202947
0.00193805
0.00185258
0.00177254
0.00169751
0.00162707
0.00156086
0.00149857
0.00143989
0.00138456
0.00133234
0.00128301
0.00123637
0.00119225
0.0011505
0.00111097
0.00107355
0.00103816
0.00100473
0.000973255
0.000943771
0.000916409
0.000891436
0.000869321
0.000850901
0.000837357
0.00083106
0.000832266
0.000849429
0.0217505
0.0190624
0.0168249
0.0149451
0.0133527
0.0119933
0.0108247
0.0098135
0.00893335
0.00816301
0.00748529
0.00688623
0.00635433
0.0058801
0.00545566
0.00507438
0.00473072
0.00441997
0.00413812
0.00388177
0.00364797
0.0034342
0.00323828
0.00305829
0.00289259
0.00273973
0.00259843
0.00246758
0.00234618
0.00223336
0.00212834
0.00203043
0.00193902
0.00185354
0.00177351
0.00169849
0.00162806
0.00156187
0.0014996
0.00144094
0.00138564
0.00133345
0.00128415
0.00123754
0.00119346
0.00115174
0.00111225
0.00107487
0.00103952
0.00100613
0.000974688
0.000945235
0.000917902
0.000892962
0.000870909
0.000852645
0.000839497
0.000834334
0.000837434
0.000861443
0.0217505
0.0190626
0.0168253
0.0149458
0.0133535
0.0119943
0.0108258
0.00981472
0.00893466
0.00816437
0.0074867
0.00688766
0.00635578
0.00588157
0.00545714
0.00507587
0.00473222
0.00442148
0.00413964
0.00388331
0.00364953
0.00343578
0.00323988
0.00305993
0.00289426
0.00274144
0.00260019
0.00246938
0.00234804
0.00223529
0.00213034
0.00203252
0.0019412
0.00185583
0.00177592
0.00170102
0.00163074
0.00156471
0.00150261
0.00144415
0.00138904
0.00133705
0.00128796
0.00124155
0.00119766
0.00115613
0.00111684
0.00107965
0.00104447
0.00101123
0.000979905
0.00095052
0.000923196
0.000898199
0.000876035
0.000857663
0.000844571
0.00084022
0.000844987
0.000877741
0.0217505
0.0190628
0.0168258
0.0149465
0.0133545
0.0119955
0.0108272
0.00981625
0.00893631
0.00816614
0.00748859
0.00688968
0.00635793
0.00588386
0.00545958
0.00507849
0.00473502
0.00442448
0.00414285
0.00388674
0.0036532
0.0034397
0.00324406
0.00306439
0.00289902
0.00274651
0.00260559
0.00247514
0.00235419
0.00224185
0.00213736
0.00204004
0.00194926
0.00186449
0.00178522
0.00171104
0.00164153
0.00157634
0.00151514
0.00145763
0.00140353
0.00135258
0.00130454
0.00125916
0.0012162
0.00117561
0.00113725
0.00110097
0.00106663
0.00103414
0.00100341
0.000974399
0.00094716
0.000921878
0.000898994
0.00087945
0.000864868
0.000859349
0.000863553
0.000905886
0.0217505
0.019063
0.0168264
0.0149476
0.0133559
0.0119972
0.0108293
0.00981883
0.00893942
0.00816985
0.007493
0.00689487
0.00636398
0.00589085
0.00546757
0.00508752
0.00474515
0.00443572
0.00415526
0.00390032
0.00366799
0.00345574
0.00326138
0.00308304
0.00291906
0.00276802
0.00262866
0.00249989
0.00238074
0.00227037
0.00216802
0.00207303
0.00198481
0.00190284
0.00182665
0.00175581
0.00168994
0.00162869
0.00157173
0.00151873
0.00146938
0.00142337
0.00138035
0.00133996
0.00130177
0.0012656
0.00123175
0.00119998
0.00117005
0.00114164
0.00111441
0.00108799
0.00106203
0.00103626
0.00101065
0.000985739
0.000962944
0.000946817
0.000938484
0.000982034
0.0217506
0.0190635
0.0168276
0.0149497
0.0133592
0.0120023
0.0108367
0.00982909
0.0089531
0.00818746
0.00751494
0.00692144
0.0063954
0.00592723
0.00550894
0.00513388
0.00479645
0.00449192
0.00421631
0.00396624
0.00373881
0.00353156
0.00334238
0.00316948
0.00301128
0.00286646
0.00273385
0.00261246
0.00250143
0.00240001
0.00230755
0.00222349
0.00214735
0.00207867
0.0020171
0.00196226
0.00191384
0.00187151
0.00183492
0.00180371
0.00177743
0.00175557
0.00173748
0.00172232
0.00170906
0.00169587
0.00168593
0.00167881
0.00167344
0.00166835
0.0016617