/*--------------------------------*- C++ -*----------------------------------*\
| =========                 |                                                 |
| \\      /  F ield         | OpenFOAM: The Open Source CFD Toolbox           |
|  \\    /   O peration     | Version:  2.4.0                                 |
|   \\  /    A nd           | Web:      www.OpenFOAM.org                      |
|    \\/     M anipulation  |                                                 |
\*---------------------------------------------------------------------------*/
FoamFile
{
    version     2.0;
    format      ascii;
    class       surfaceScalarField;
    location    "2.55";
    object      phi;
}
// * * * * * * * * * * * * * * * * * * * * * * * * * * * * * * * * * * * * * //

dimensions      [0 3 -1 0 0 0 0];

internalField   nonuniform List<scalar> 
11840
(
7.85241e-07
9.21476e-06
-2.01284e-08
8.0537e-07
-4.7934e-08
2.78057e-08
-7.3021e-08
2.50869e-08
-8.39098e-08
1.08888e-08
-8.55197e-08
1.60994e-09
-8.97306e-08
4.21091e-09
-8.94504e-08
-2.80267e-10
-9.20757e-08
2.62528e-09
-9.33645e-08
1.28885e-09
-9.81147e-08
4.75024e-09
-1.03936e-07
5.82086e-09
-1.1117e-07
7.23457e-09
-1.14455e-07
3.28483e-09
-1.08666e-07
-5.78912e-09
-8.86755e-08
-1.99904e-08
-5.63737e-08
-3.23017e-08
-2.04787e-08
-3.58951e-08
6.30034e-09
-2.6779e-08
1.03111e-08
-4.01075e-09
-2.41597e-08
3.44707e-08
-1.12235e-07
8.8075e-08
-2.59006e-07
1.46771e-07
-4.53468e-07
1.94462e-07
-6.73634e-07
2.20166e-07
-8.95767e-07
2.22133e-07
-1.09991e-06
2.04142e-07
-1.27016e-06
1.70252e-07
-1.39229e-06
1.22128e-07
-1.45154e-06
5.92528e-08
-1.43237e-06
-1.91682e-08
-1.32151e-06
-1.10866e-07
-1.11462e-06
-2.0689e-07
-8.22567e-07
-2.9205e-07
-4.7233e-07
-3.50238e-07
-1.05409e-07
-3.66921e-07
2.35171e-07
-3.40581e-07
5.23916e-07
-2.88744e-07
7.41216e-07
-2.173e-07
8.76448e-07
-1.35233e-07
9.33419e-07
-5.69711e-08
9.27662e-07
5.75743e-09
8.79654e-07
4.80081e-08
8.10292e-07
6.93621e-08
7.35865e-07
7.44272e-08
6.67109e-07
6.8756e-08
6.09654e-07
5.74545e-08
5.66901e-07
4.27528e-08
5.39603e-07
2.72986e-08
5.29706e-07
9.89689e-09
5.33568e-07
-3.86257e-09
5.53881e-07
-2.03124e-08
5.78571e-07
-2.46899e-08
6.20975e-07
-4.24039e-08
6.4903e-07
-2.80551e-08
7.12244e-07
-6.32142e-08
7.20833e-07
-8.58901e-09
8.28431e-07
-1.07598e-07
7.78844e-07
4.95866e-08
-3.07744e-07
1.91844e-06
1.72963e-05
1.02867e-07
2.62095e-06
-7.38346e-08
2.04508e-07
-1.77667e-07
1.28919e-07
-2.09942e-07
4.31637e-08
-2.28042e-07
1.97105e-08
-2.3918e-07
1.53484e-08
-2.44663e-07
5.20241e-09
-2.51664e-07
9.62621e-09
-2.58633e-07
8.25867e-09
-2.71788e-07
1.79052e-08
-2.88892e-07
2.29245e-08
-3.0703e-07
2.53728e-08
-3.13714e-07
9.969e-09
-2.94798e-07
-2.47053e-08
-2.39738e-07
-7.50506e-08
-1.553e-07
-1.1674e-07
-6.71982e-08
-1.23997e-07
-1.2333e-08
-8.16442e-08
-3.15421e-08
1.51983e-08
-1.64937e-07
1.67866e-07
-4.40811e-07
3.63949e-07
-8.5321e-07
5.59171e-07
-1.35785e-06
6.99104e-07
-1.89266e-06
7.54971e-07
-2.40056e-06
7.30038e-07
-2.83874e-06
6.42322e-07
-3.17574e-06
5.07246e-07
-3.38458e-06
3.30975e-07
-3.43818e-06
1.12854e-07
-3.3093e-06
-1.48053e-07
-2.97714e-06
-4.43028e-07
-2.43899e-06
-7.45036e-07
-1.72048e-06
-1.01056e-06
-8.7728e-07
-1.19344e-06
-4.94569e-09
-1.23925e-06
7.9576e-07
-1.14129e-06
1.46584e-06
-9.58829e-07
1.96616e-06
-7.17611e-07
2.2772e-06
-4.46277e-07
2.40816e-06
-1.87928e-07
2.39192e-06
2.19993e-08
2.27499e-06
1.6493e-07
2.10479e-06
2.39568e-07
1.92089e-06
2.58327e-07
1.7503e-06
2.39344e-07
1.60836e-06
1.99395e-07
1.50335e-06
1.47763e-07
1.43847e-06
9.21759e-08
1.41509e-06
3.32766e-08
1.42853e-06
-1.72987e-08
1.47609e-06
-6.78717e-08
1.54418e-06
-9.27778e-08
1.63652e-06
-1.34746e-07
1.72598e-06
-1.17513e-07
1.84496e-06
-1.82195e-07
1.92442e-06
-8.80549e-08
2.09001e-06
-2.73182e-07
2.1135e-06
2.60914e-08
-8.11724e-07
2.9177e-06
2.43786e-05
3.97477e-07
5.14117e-06
-3.95505e-08
6.41535e-07
-2.38824e-07
3.28192e-07
-3.02584e-07
1.06925e-07
-3.4521e-07
6.23365e-08
-3.66288e-07
3.64264e-08
-3.8125e-07
2.01643e-08
-3.93976e-07
2.23519e-08
-4.08445e-07
2.27272e-08
-4.30275e-07
3.97354e-08
-4.58384e-07
5.10336e-08
-4.8568e-07
5.26685e-08
-4.93993e-07
1.82822e-08
-4.61961e-07
-5.67372e-08
-3.76754e-07
-1.60258e-07
-2.51542e-07
-2.41952e-07
-1.28771e-07
-2.46767e-07
-6.84185e-08
-1.41997e-07
-1.35341e-07
8.21206e-08
-3.89419e-07
4.21944e-07
-8.61468e-07
8.35997e-07
-1.5244e-06
1.2221e-06
-2.29643e-06
1.47113e-06
-3.07841e-06
1.53695e-06
-3.78705e-06
1.43868e-06
-4.36437e-06
1.21964e-06
-4.77038e-06
9.13258e-07
-4.97249e-06
5.33087e-07
-4.93956e-06
7.99233e-08
-4.64322e-06
-4.44396e-07
-4.06708e-06
-1.01916e-06
-3.21986e-06
-1.59226e-06
-2.14608e-06
-2.08434e-06
-9.30549e-07
-2.40897e-06
2.94682e-07
-2.46449e-06
1.42027e-06
-2.26688e-06
2.37491e-06
-1.91347e-06
3.09651e-06
-1.43921e-06
3.55268e-06
-9.02452e-07
3.74993e-06
-3.85176e-07
3.72938e-06
4.25476e-08
3.5547e-06
3.39609e-07
3.29552e-06
4.98748e-07
3.01258e-06
5.41271e-07
2.74898e-06
5.02938e-07
2.53017e-06
4.18205e-07
2.3691e-06
3.08838e-07
2.27102e-06
1.90257e-07
2.2356e-06
6.86951e-08
2.25754e-06
-3.9239e-08
2.32725e-06
-1.37582e-07
2.43357e-06
-1.99097e-07
2.56546e-06
-2.66634e-07
2.7121e-06
-2.64152e-07
2.87042e-06
-3.40522e-07
3.02501e-06
-2.42638e-07
3.21617e-06
-4.64347e-07
3.34492e-06
-1.02659e-07
-1.38809e-06
3.8096e-06
3.0569e-05
8.14611e-07
8.13616e-06
5.37845e-08
1.40236e-06
-2.52314e-07
6.34291e-07
-3.61777e-07
2.16388e-07
-4.34802e-07
1.35362e-07
-4.70754e-07
7.23781e-08
-4.97872e-07
4.72818e-08
-5.18549e-07
4.30288e-08
-5.41704e-07
4.58829e-08
-5.72765e-07
7.07965e-08
-6.1134e-07
8.96085e-08
-6.46676e-07
8.80046e-08
-6.55946e-07
2.75521e-08
-6.12842e-07
-9.98413e-08
-5.0434e-07
-2.6876e-07
-3.50737e-07
-3.95555e-07
-2.09982e-07
-3.87523e-07
-1.62944e-07
-1.89035e-07
-2.9576e-07
2.14937e-07
-6.81264e-07
8.07448e-07
-1.34326e-06
1.498e-06
-2.22461e-06
2.10345e-06
-3.20405e-06
2.45057e-06
-4.15103e-06
2.48393e-06
-4.9655e-06
2.25315e-06
-5.58405e-06
1.83819e-06
-5.96702e-06
1.29623e-06
-6.08464e-06
6.50702e-07
-5.91063e-06
-9.4089e-08
-5.42475e-06
-9.30274e-07
-4.62226e-06
-1.82165e-06
-3.52625e-06
-2.68826e-06
-2.19833e-06
-3.41226e-06
-7.45028e-07
-3.86228e-06
7.02663e-07
-3.91218e-06
2.05223e-06
-3.61644e-06
3.21627e-06
-3.07751e-06
4.11004e-06
-2.33298e-06
4.6882e-06
-1.48061e-06
4.94955e-06
-6.46523e-07
4.93528e-06
5.68198e-08
4.71828e-06
5.5661e-07
4.38475e-06
8.32272e-07
4.01434e-06
9.11688e-07
3.66631e-06
8.50967e-07
3.37686e-06
7.07649e-07
3.16407e-06
5.21628e-07
3.03476e-06
3.1957e-07
2.98696e-06
1.16495e-07
3.01376e-06
-6.60394e-08
3.10055e-06
-2.24373e-07
3.23624e-06
-3.34786e-07
3.40083e-06
-4.31223e-07
3.5916e-06
-4.54923e-07
3.78527e-06
-5.34187e-07
3.99613e-06
-4.53499e-07
4.21469e-06
-6.82905e-07
4.42596e-06
-3.13936e-07
-1.99443e-06
4.61614e-06
3.59529e-05
1.32595e-06
1.14264e-05
2.14421e-07
2.51389e-06
-2.16958e-07
1.06567e-06
-3.8632e-07
3.85749e-07
-4.95982e-07
2.45023e-07
-5.51845e-07
1.28242e-07
-5.93956e-07
8.93925e-08
-6.24804e-07
7.38765e-08
-6.57801e-07
7.88802e-08
-6.98548e-07
1.11544e-07
-7.4714e-07
1.382e-07
-7.89874e-07
1.30739e-07
-8.00484e-07
3.81619e-08
-7.49749e-07
-1.50576e-07
-6.25892e-07
-3.92617e-07
-4.56238e-07
-5.65209e-07
-3.12414e-07
-5.31347e-07
-2.93552e-07
-2.07897e-07
-5.03093e-07
4.24479e-07
-1.02005e-06
1.3244e-06
-1.85188e-06
2.32983e-06
-2.90461e-06
3.15618e-06
-4.01916e-06
3.56512e-06
-5.04265e-06
3.50742e-06
-5.87012e-06
3.08062e-06
-6.44364e-06
2.4117e-06
-6.73285e-06
1.58545e-06
-6.71842e-06
6.36268e-07
-6.38569e-06
-4.26817e-07
-5.72674e-06
-1.58922e-06
-4.74878e-06
-2.79962e-06
-3.48566e-06
-3.95137e-06
-2.00787e-06
-4.89005e-06
-4.25889e-07
-5.44426e-06
1.15405e-06
-5.49211e-06
2.65344e-06
-5.11583e-06
3.96661e-06
-4.39068e-06
4.99416e-06
-3.36054e-06
5.67824e-06
-2.16469e-06
6.0061e-06
-9.74385e-07
6.01211e-06
5.081e-08
5.77094e-06
7.97779e-07
5.37962e-06
1.22359e-06
4.93405e-06
1.35726e-06
4.5097e-06
1.27532e-06
4.15455e-06
1.0628e-06
3.89266e-06
7.83518e-07
3.73243e-06
4.79806e-07
3.67043e-06
1.78488e-07
3.69758e-06
-9.31832e-08
3.79563e-06
-3.22429e-07
3.95202e-06
-4.91174e-07
4.14196e-06
-6.2116e-07
4.36501e-06
-6.7798e-07
4.58875e-06
-7.57926e-07
4.83966e-06
-7.04403e-07
5.08495e-06
-9.28196e-07
5.35707e-06
-5.86054e-07
-2.60166e-06
5.34772e-06
4.06051e-05
1.90404e-06
1.487e-05
4.50266e-07
3.96766e-06
-1.31616e-07
1.64755e-06
-3.75045e-07
6.29178e-07
-5.2791e-07
3.97888e-07
-6.08858e-07
2.0919e-07
-6.68976e-07
1.4951e-07
-7.12226e-07
1.17127e-07
-7.562e-07
1.22854e-07
-8.07025e-07
1.62368e-07
-8.65307e-07
1.96482e-07
-9.15262e-07
1.80694e-07
-9.28471e-07
5.13711e-08
-8.74486e-07
-2.04561e-07
-7.4356e-07
-5.23544e-07
-5.69333e-07
-7.39436e-07
-4.34899e-07
-6.65781e-07
-4.54537e-07
-1.88259e-07
-7.44495e-07
7.14437e-07
-1.38274e-06
1.96265e-06
-2.35192e-06
3.29901e-06
-3.51796e-06
4.32223e-06
-4.69008e-06
4.73724e-06
-5.70564e-06
4.52298e-06
-6.46818e-06
3.84316e-06
-6.93591e-06
2.87943e-06
-7.0949e-06
1.74444e-06
-6.9403e-06
4.81661e-07
-6.46945e-06
-8.97665e-07
-5.68317e-06
-2.3755e-06
-4.59411e-06
-3.88868e-06
-3.23866e-06
-5.30682e-06
-1.68608e-06
-6.44263e-06
-3.69339e-08
-7.09341e-06
1.62174e-06
-7.15079e-06
3.21378e-06
-6.70787e-06
4.62375e-06
-5.80065e-06
5.7493e-06
-4.48608e-06
6.52367e-06
-2.93905e-06
6.92089e-06
-1.37161e-06
6.96253e-06
9.16961e-09
6.71736e-06
1.04295e-06
6.28682e-06
1.65413e-06
5.77969e-06
1.86438e-06
5.2873e-06
1.76771e-06
4.87063e-06
1.47947e-06
4.56105e-06
1.09309e-06
4.36906e-06
6.71798e-07
4.29016e-06
2.57383e-07
4.31284e-06
-1.15858e-07
4.41621e-06
-4.25803e-07
4.58536e-06
-6.6032e-07
4.79339e-06
-8.29189e-07
5.03863e-06
-9.23225e-07
5.28651e-06
-1.0058e-06
5.56459e-06
-9.82488e-07
5.83378e-06
-1.19738e-06
6.14849e-06
-9.00772e-07
-3.19144e-06
6.00985e-06
4.45953e-05
2.52596e-06
1.83539e-05
7.59722e-07
5.7339e-06
5.13545e-10
2.40676e-06
-3.26776e-07
9.56468e-07
-5.29671e-07
6.00782e-07
-6.4105e-07
3.2057e-07
-7.22383e-07
2.30843e-07
-7.80307e-07
1.75052e-07
-8.36401e-07
1.78947e-07
-8.97665e-07
2.23632e-07
-9.65449e-07
2.64267e-07
-1.02285e-06
2.38094e-07
-1.04055e-06
6.90728e-08
-9.88151e-07
-2.56961e-07
-8.58168e-07
-6.53527e-07
-6.89413e-07
-9.08191e-07
-5.73974e-07
-7.81219e-07
-6.37853e-07
-1.2438e-07
-1.00524e-06
1.08183e-06
-1.74567e-06
2.70307e-06
-2.81043e-06
4.36377e-06
-4.02677e-06
5.53856e-06
-5.18311e-06
5.89359e-06
-6.1225e-06
5.46236e-06
-6.77014e-06
4.49081e-06
-7.10744e-06
3.21673e-06
-7.1379e-06
1.7749e-06
-6.86765e-06
2.11407e-07
-6.29896e-06
-1.46636e-06
-5.43367e-06
-3.24079e-06
-4.28351e-06
-5.03884e-06
-2.88196e-06
-6.70837e-06
-1.293e-06
-8.03159e-06
3.93371e-07
-8.77978e-06
2.10067e-06
-8.85809e-06
3.74357e-06
-8.35077e-06
5.20766e-06
-7.26475e-06
6.39577e-06
-5.67419e-06
7.23885e-06
-3.78213e-06
7.7012e-06
-1.83396e-06
7.78956e-06
-7.9191e-08
7.55986e-06
1.27265e-06
7.11019e-06
2.1038e-06
6.55701e-06
2.41756e-06
6.006e-06
2.31872e-06
5.53216e-06
1.95331e-06
5.17583e-06
1.44943e-06
4.95066e-06
8.9696e-07
4.85175e-06
3.56293e-07
4.86524e-06
-1.29344e-07
4.96826e-06
-5.28819e-07
5.14319e-06
-8.3525e-07
5.36256e-06
-1.04857e-06
5.62168e-06
-1.18234e-06
5.88765e-06
-1.27177e-06
6.18315e-06
-1.27798e-06
6.47205e-06
-1.48629e-06
6.81494e-06
-1.24366e-06
-3.75364e-06
6.60637e-06
4.79889e-05
3.1727e-06
2.17876e-05
1.13914e-06
7.76747e-06
1.97159e-07
3.34874e-06
-2.40249e-07
1.39388e-06
-5.00231e-07
8.60764e-07
-6.47595e-07
4.67934e-07
-7.53558e-07
3.36805e-07
-8.28505e-07
2.49999e-07
-8.97903e-07
2.48345e-07
-9.69975e-07
2.95705e-07
-1.04721e-06
3.41501e-07
-1.11258e-06
3.03461e-07
-1.13703e-06
9.35229e-08
-1.09107e-06
-3.02915e-07
-9.69324e-07
-7.75275e-07
-8.1431e-07
-1.06321e-06
-7.24489e-07
-8.7104e-07
-8.34048e-07
-1.48223e-08
-1.27e-06
1.51778e-06
-2.08659e-06
3.51967e-06
-3.20053e-06
5.47771e-06
-4.40697e-06
6.74501e-06
-5.48874e-06
6.97535e-06
-6.31019e-06
6.28382e-06
-6.82633e-06
5.00695e-06
-7.04054e-06
3.43094e-06
-6.96684e-06
1.70119e-06
-6.61385e-06
-1.41579e-07
-5.98185e-06
-2.09836e-06
-5.06965e-06
-4.15299e-06
-3.8859e-06
-6.22258e-06
-2.46025e-06
-8.13402e-06
-8.51608e-07
-9.64024e-06
8.58372e-07
-1.04898e-05
2.59277e-06
-1.05925e-05
4.25838e-06
-1.00164e-05
5.74598e-06
-8.75235e-06
6.9662e-06
-6.89441e-06
7.85278e-06
-4.66871e-06
8.36639e-06
-2.34756e-06
8.50247e-06
-2.15278e-07
8.30168e-06
1.47344e-06
7.85152e-06
2.55396e-06
7.26904e-06
3.00004e-06
6.67056e-06
2.9172e-06
6.14495e-06
2.47893e-06
5.74308e-06
1.8513e-06
5.48333e-06
1.15671e-06
5.36131e-06
4.78313e-07
5.36125e-06
-1.29284e-07
5.45875e-06
-6.26322e-07
5.63352e-06
-1.01002e-06
5.85825e-06
-1.27329e-06
6.12453e-06
-1.44863e-06
6.4029e-06
-1.55014e-06
6.70852e-06
-1.5836e-06
7.01246e-06
-1.79023e-06
7.3725e-06
-1.6037e-06
-4.28375e-06
7.14086e-06
5.08481e-05
3.82842e-06
2.51e-05
1.58169e-06
1.00142e-05
4.43074e-07
4.48736e-06
-1.13535e-07
1.95049e-06
-4.38409e-07
1.18564e-06
-6.27559e-07
6.57085e-07
-7.61785e-07
4.71031e-07
-8.56222e-07
3.44436e-07
-9.40192e-07
3.32316e-07
-1.02349e-06
3.78999e-07
-1.11024e-06
4.28254e-07
-1.18429e-06
3.77511e-07
-1.21785e-06
1.27089e-07
-1.18291e-06
-3.37865e-07
-1.07567e-06
-8.82507e-07
-9.40727e-07
-1.19815e-06
-8.80256e-07
-9.3151e-07
-1.03312e-06
1.38043e-07
-1.52401e-06
2.00867e-06
-2.38663e-06
4.38228e-06
-3.50403e-06
6.59511e-06
-4.65072e-06
7.8917e-06
-5.62045e-06
7.94508e-06
-6.30967e-06
6.97303e-06
-6.70213e-06
5.39941e-06
-6.81464e-06
3.54345e-06
-6.6628e-06
1.54935e-06
-6.25164e-06
-5.52733e-07
-5.57721e-06
-2.77279e-06
-4.63504e-06
-5.09516e-06
-3.43074e-06
-7.42687e-06
-1.99073e-06
-9.57404e-06
-3.70127e-07
-1.12608e-05
1.35411e-06
-1.2214e-05
3.10086e-06
-1.23392e-05
4.77104e-06
-1.16865e-05
6.26182e-06
-1.02431e-05
7.49139e-06
-8.12399e-06
8.3984e-06
-5.57571e-06
8.94449e-06
-2.89365e-06
9.11953e-06
-3.90325e-07
8.95143e-06
1.64155e-06
8.51379e-06
2.9916e-06
7.91747e-06
3.59636e-06
7.28372e-06
3.55095e-06
6.71315e-06
3.04949e-06
6.26791e-06
2.29654e-06
5.97268e-06
1.45194e-06
5.82485e-06
6.26145e-07
5.80744e-06
-1.1188e-07
5.89495e-06
-7.13829e-07
6.06461e-06
-1.17967e-06
6.28954e-06
-1.49823e-06
6.55768e-06
-1.71677e-06
6.84334e-06
-1.83579e-06
7.15371e-06
-1.89398e-06
7.46805e-06
-2.10457e-06
7.837e-06
-1.97264e-06
-4.78073e-06
7.61712e-06
5.32309e-05
4.47995e-06
2.82372e-05
2.07857e-06
1.24156e-05
7.43875e-07
5.82206e-06
5.5383e-08
2.63898e-06
-3.42885e-07
1.58391e-06
-5.79895e-07
8.94094e-07
-7.46235e-07
6.37371e-07
-8.62792e-07
4.60992e-07
-9.62733e-07
4.32257e-07
-1.05775e-06
4.74016e-07
-1.1542e-06
5.24706e-07
-1.23774e-06
4.61044e-07
-1.2827e-06
1.72053e-07
-1.26279e-06
-3.57772e-07
-1.17517e-06
-9.70129e-07
-1.06466e-06
-1.30866e-06
-1.03465e-06
-9.61524e-07
-1.22526e-06
3.28655e-07
-1.75417e-06
2.53758e-06
-2.63165e-06
5.25976e-06
-3.71234e-06
7.6758e-06
-4.76418e-06
8.94354e-06
-5.60542e-06
8.78632e-06
-6.16697e-06
7.53458e-06
-6.45319e-06
5.68564e-06
-6.48476e-06
3.57502e-06
-6.2734e-06
1.33799e-06
-5.81881e-06
-1.00732e-06
-5.11316e-06
-3.47843e-06
-4.14941e-06
-6.05892e-06
-2.93065e-06
-8.64563e-06
-1.48087e-06
-1.10238e-05
1.47195e-07
-1.28889e-05
1.87854e-06
-1.39453e-05
3.62707e-06
-1.40878e-05
5.29017e-06
-1.33496e-05
6.77093e-06
-1.17239e-05
7.99388e-06
-9.34694e-06
8.90296e-06
-6.48479e-06
9.46322e-06
-3.45392e-06
9.66348e-06
-5.90585e-07
9.52349e-06
1.78154e-06
9.10379e-06
3.4113e-06
8.50496e-06
4.1952e-06
7.84736e-06
4.20855e-06
7.23956e-06
3.65729e-06
6.75425e-06
2.78185e-06
6.42353e-06
1.78266e-06
6.24787e-06
8.01805e-07
6.21004e-06
-7.40459e-08
6.28382e-06
-7.87616e-07
6.44438e-06
-1.34023e-06
6.66527e-06
-1.71912e-06
6.93112e-06
-1.98262e-06
7.2197e-06
-2.12437e-06
7.53086e-06
-2.20514e-06
7.85137e-06
-2.42508e-06
8.22316e-06
-2.34442e-06
-5.24543e-06
8.03924e-06
5.51917e-05
5.11654e-06
3.11599e-05
2.61964e-06
1.49125e-05
1.09911e-06
7.34258e-06
2.67951e-07
3.47014e-06
-2.12234e-07
2.06409e-06
-5.03438e-07
1.1853e-06
-7.05958e-07
8.3989e-07
-8.47474e-07
6.02509e-07
-9.64967e-07
5.4975e-07
-1.07235e-06
5.81398e-07
-1.17879e-06
6.31149e-07
-1.27262e-06
5.54873e-07
-1.33103e-06
2.30466e-07
-1.32953e-06
-3.59271e-07
-1.26534e-06
-1.03433e-06
-1.18178e-06
-1.39222e-06
-1.18109e-06
-9.6221e-07
-1.40145e-06
5.49012e-07
-1.94979e-06
3.08592e-06
-2.81286e-06
6.12283e-06
-3.8253e-06
8.68823e-06
-4.76215e-06
9.8804e-06
-5.47365e-06
9.49782e-06
-5.92043e-06
7.98137e-06
-6.1177e-06
5.88291e-06
-6.08368e-06
3.54099e-06
-5.82442e-06
1.07873e-06
-5.33475e-06
-1.49699e-06
-4.60389e-06
-4.20929e-06
-3.62276e-06
-7.04004e-06
-2.39248e-06
-9.87591e-06
-9.3536e-07
-1.24809e-05
6.96926e-07
-1.45212e-05
2.42974e-06
-1.56781e-05
4.17248e-06
-1.58305e-05
5.82094e-06
-1.49981e-05
7.283e-06
-1.3186e-05
8.48829e-06
-1.05522e-05
9.38572e-06
-7.38223e-06
9.94468e-06
-4.01287e-06
1.01557e-05
-8.01602e-07
1.00346e-05
1.90263e-06
9.63179e-06
3.81412e-06
9.03652e-06
4.79046e-06
8.36401e-06
4.88106e-06
7.72645e-06
4.29485e-06
7.20514e-06
3.30316e-06
6.83985e-06
2.14795e-06
6.63519e-06
1.00647e-06
6.57464e-06
-1.35013e-08
6.63179e-06
-8.44764e-07
6.78015e-06
-1.4886e-06
6.9936e-06
-1.93256e-06
7.25398e-06
-2.243e-06
7.54188e-06
-2.41227e-06
7.85094e-06
-2.51419e-06
8.17396e-06
-2.7481e-06
8.54418e-06
-2.71465e-06
-5.67962e-06
8.41145e-06
5.67803e-05
5.72969e-06
3.38417e-05
3.19409e-06
1.74481e-05
1.50681e-06
9.02985e-06
5.26998e-07
4.44996e-06
-4.51397e-08
2.63623e-06
-3.96906e-07
1.53707e-06
-6.39869e-07
1.08285e-06
-8.09439e-07
7.72079e-07
-9.46301e-07
6.86612e-07
-1.06689e-06
7.01984e-07
-1.18374e-06
7.47998e-07
-1.28863e-06
6.59765e-07
-1.36219e-06
3.04031e-07
-1.38168e-06
-3.39784e-07
-1.34345e-06
-1.07256e-06
-1.28773e-06
-1.44794e-06
-1.31346e-06
-9.36479e-07
-1.55395e-06
7.89506e-07
-2.10303e-06
3.635e-06
-2.92643e-06
6.94623e-06
-3.84864e-06
9.61044e-06
-4.66248e-06
1.06942e-05
-5.25137e-06
1.00867e-05
-5.59772e-06
8.32772e-06
-5.71985e-06
6.00504e-06
-5.63066e-06
3.4518e-06
-5.33063e-06
7.78704e-07
-4.8107e-06
-2.01693e-06
-4.05789e-06
-4.9621e-06
-3.06153e-06
-8.03641e-06
-1.82117e-06
-1.11163e-05
-3.58141e-07
-1.3944e-05
1.27592e-06
-1.61553e-05
3.00566e-06
-1.74079e-05
4.73723e-06
-1.75621e-05
6.36602e-06
-1.66269e-05
7.80356e-06
-1.46235e-05
8.9835e-06
-1.17322e-05
9.85923e-06
-8.25796e-06
1.04046e-05
-4.55824e-06
1.06133e-05
-1.01034e-06
1.05004e-05
2.01553e-06
1.01094e-05
4.20514e-06
9.51918e-06
5.38068e-06
8.83747e-06
5.56277e-06
8.17638e-06
4.95594e-06
7.62325e-06
3.8563e-06
7.22498e-06
2.54621e-06
6.99093e-06
1.24052e-06
6.90618e-06
7.12474e-08
6.94455e-06
-8.83135e-07
7.07843e-06
-1.62247e-06
7.28182e-06
-2.13595e-06
7.5344e-06
-2.49559e-06
7.81873e-06
-2.6966e-06
8.12359e-06
-2.81905e-06
8.44605e-06
-3.07056e-06
8.81159e-06
-3.08019e-06
-6.08532e-06
8.73802e-06
5.80422e-05
6.31291e-06
3.62668e-05
3.79102e-06
1.997e-05
1.96341e-06
1.08575e-05
8.33711e-07
5.57965e-06
1.61179e-07
3.30876e-06
-2.58882e-07
1.95713e-06
-5.46738e-07
1.37071e-06
-7.47753e-07
9.73093e-07
-9.06092e-07
8.44951e-07
-1.04098e-06
8.36869e-07
-1.16878e-06
8.75802e-07
-1.28541e-06
7.76393e-07
-1.37539e-06
3.94012e-07
-1.4176e-06
-2.97571e-07
-1.40671e-06
-1.08345e-06
-1.37842e-06
-1.47623e-06
-1.42637e-06
-8.88526e-07
-1.67663e-06
1.03976e-06
-2.209e-06
4.16738e-06
-2.97262e-06
7.70984e-06
-3.79134e-06
1.04292e-05
-4.48234e-06
1.13852e-05
-4.95909e-06
1.05635e-05
-5.21782e-06
8.58645e-06
-5.27511e-06
6.06233e-06
-5.13779e-06
3.31447e-06
-4.80149e-06
4.4241e-07
-4.25419e-06
-2.56423e-06
-3.48128e-06
-5.73501e-06
-2.47073e-06
-9.04696e-06
-1.22096e-06
-1.2366e-05
2.46931e-07
-1.54119e-05
1.88078e-06
-1.77891e-05
3.60402e-06
-1.91311e-05
5.32059e-06
-1.92786e-05
6.92624e-06
-1.82325e-05
8.33526e-06
-1.60325e-05
9.48449e-06
-1.28814e-05
1.03312e-05
-9.10467e-06
1.08535e-05
-5.08056e-06
1.1049e-05
-1.20583e-06
1.09339e-05
2.13068e-06
1.05477e-05
4.59135e-06
9.96076e-06
5.96757e-06
9.27261e-06
6.25092e-06
8.59254e-06
5.636e-06
8.01133e-06
4.43751e-06
7.58198e-06
2.97557e-06
7.31872e-06
1.50378e-06
7.20893e-06
1.81033e-07
7.22708e-06
-9.01285e-07
7.34488e-06
-1.74027e-06
7.53631e-06
-2.32738e-06
7.77945e-06
-2.73872e-06
8.05798e-06
-2.97514e-06
8.35718e-06
-3.11825e-06
8.67655e-06
-3.38993e-06
9.03527e-06
-3.43892e-06
-6.46442e-06
9.0232e-06
5.9019e-05
6.86149e-06
3.84285e-05
4.39987e-06
2.24316e-05
2.46385e-06
1.27935e-05
1.18859e-06
6.85491e-06
4.07602e-07
4.08975e-06
-8.75766e-08
2.4523e-06
-4.25162e-07
1.70829e-06
-6.6134e-07
1.20927e-06
-8.43593e-07
1.0272e-06
-9.94181e-07
9.87457e-07
-1.13364e-06
1.01526e-06
-1.26254e-06
9.05292e-07
-1.36971e-06
5.01177e-07
-1.43557e-06
-2.3171e-07
-1.45243e-06
-1.06659e-06
-1.45019e-06
-1.47847e-06
-1.5154e-06
-8.23319e-07
-1.76506e-06
1.28943e-06
-2.26547e-06
4.66779e-06
-2.95455e-06
8.39892e-06
-3.66353e-06
1.11381e-05
-4.23661e-06
1.19583e-05
-4.61219e-06
1.0939e-05
-4.79382e-06
8.76808e-06
-4.79387e-06
6.06238e-06
-4.61332e-06
3.13392e-06
-4.24378e-06
7.28715e-08
-3.67094e-06
-3.13707e-06
-2.87894e-06
-6.52701e-06
-1.85466e-06
-1.00712e-05
-5.95729e-07
-1.3625e-05
8.76197e-07
-1.68838e-05
2.50819e-06
-1.94211e-05
4.22236e-06
-2.08453e-05
5.92114e-06
-2.09774e-05
7.50114e-06
-1.98126e-05
8.87884e-06
-1.74102e-05
9.99363e-06
-1.39962e-05
1.08061e-05
-9.91711e-06
1.12982e-05
-5.57271e-06
1.14716e-05
-1.37925e-06
1.13449e-05
2.25738e-06
1.0956e-05
4.98025e-06
1.03688e-05
6.55477e-06
9.67475e-06
6.94501e-06
8.9786e-06
6.33215e-06
8.37237e-06
5.04374e-06
7.91381e-06
3.43413e-06
7.62189e-06
1.79571e-06
7.48671e-06
3.1621e-07
7.48374e-06
-8.98315e-07
7.58444e-06
-1.84097e-06
7.76259e-06
-2.50554e-06
7.99518e-06
-2.97131e-06
8.26623e-06
-3.24619e-06
8.55881e-06
-3.41084e-06
8.87302e-06
-3.70414e-06
9.22356e-06
-3.78945e-06
-6.8185e-06
9.2711e-06
5.97479e-05
7.37233e-06
4.03273e-05
5.01078e-06
2.47932e-05
3.00178e-06
1.48025e-05
1.59103e-06
8.26566e-06
6.96001e-07
4.98478e-06
1.18848e-07
3.02946e-06
-2.73563e-07
2.10071e-06
-5.48949e-07
1.48466e-06
-7.57902e-07
1.23616e-06
-9.25946e-07
1.1555e-06
-1.07793e-06
1.16724e-06
-1.21949e-06
1.04686e-06
-1.34411e-06
6.258e-07
-1.43382e-06
-1.42006e-07
-1.4781e-06
-1.02231e-06
-1.49995e-06
-1.45662e-06
-1.57716e-06
-7.46106e-07
-1.81654e-06
1.52881e-06
-2.27243e-06
5.12368e-06
-2.87714e-06
9.00363e-06
-3.47511e-06
1.17361e-05
-3.93752e-06
1.24207e-05
-4.22207e-06
1.12236e-05
-4.33507e-06
8.88108e-06
-4.28358e-06
6.01088e-06
-4.06339e-06
2.91374e-06
-3.66275e-06
-3.27767e-07
-3.06558e-06
-3.73424e-06
-2.25507e-06
-7.33752e-06
-1.21716e-06
-1.11092e-05
5.09179e-08
-1.4893e-05
1.52617e-06
-1.8359e-05
3.15493e-06
-2.10499e-05
4.85802e-06
-2.25484e-05
6.53688e-06
-2.26563e-05
8.08932e-06
-2.1365e-05
9.43367e-06
-1.87546e-05
1.05115e-05
-1.5074e-05
1.1286e-05
-1.06917e-05
1.17428e-05
-6.02949e-06
1.18872e-05
-1.52367e-06
1.1741e-05
2.40355e-06
1.13422e-05
5.37906e-06
1.07502e-05
7.14682e-06
1.00491e-05
7.6461e-06
9.3384e-06
7.04285e-06
8.70947e-06
5.67267e-06
8.22345e-06
3.92015e-06
7.9036e-06
2.11556e-06
7.743e-06
4.76802e-07
7.71841e-06
-8.73724e-07
7.80138e-06
-1.92393e-06
7.96539e-06
-2.66955e-06
8.18673e-06
-3.19265e-06
8.44907e-06
-3.50852e-06
8.73445e-06
-3.69621e-06
9.04181e-06
-4.01151e-06
9.38341e-06
-4.13105e-06
-7.14877e-06
9.48567e-06
6.02623e-05
7.84366e-06
4.19693e-05
5.61484e-06
2.7022e-05
3.56984e-06
1.68475e-05
2.03923e-06
9.79627e-06
1.02778e-06
5.99622e-06
3.62478e-07
3.69476e-06
-9.02494e-08
2.55343e-06
-4.09144e-07
1.80355e-06
-6.47914e-07
1.47493e-06
-8.35541e-07
1.34313e-06
-1.0011e-06
1.3328e-06
-1.1556e-06
1.20136e-06
-1.29751e-06
7.67713e-07
-1.41065e-06
-2.88655e-08
-1.4815e-06
-9.51458e-07
-1.52521e-06
-1.41291e-06
-1.60935e-06
-6.61965e-07
-1.82991e-06
1.74936e-06
-2.23156e-06
5.52533e-06
-2.74616e-06
9.51823e-06
-3.23518e-06
1.22251e-05
-3.59492e-06
1.27805e-05
-3.79736e-06
1.1426e-05
-3.84849e-06
8.93221e-06
-3.74986e-06
5.91225e-06
-3.49279e-06
2.65666e-06
-3.06267e-06
-7.57888e-07
-2.44203e-06
-4.35487e-06
-1.61329e-06
-8.16626e-06
-5.61667e-07
-1.21608e-05
7.15262e-07
-1.617e-05
2.19347e-06
-1.98372e-05
3.81791e-06
-2.26743e-05
5.50826e-06
-2.42387e-05
7.16543e-06
-2.43135e-05
8.68867e-06
-2.28882e-05
9.99816e-06
-2.00641e-05
1.10373e-05
-1.61131e-05
1.17716e-05
-1.1426e-05
1.21894e-05
-6.44729e-06
1.22996e-05
-1.63391e-06
1.21275e-05
2.57569e-06
1.17122e-05
5.79429e-06
1.11105e-05
7.74855e-06
1.04004e-05
8.35619e-06
9.67564e-06
7.76762e-06
9.02567e-06
6.32263e-06
8.51374e-06
4.43209e-06
8.1668e-06
2.4625e-06
7.98101e-06
6.626e-07
7.93459e-06
-8.27306e-07
7.99948e-06
-1.98883e-06
8.1488e-06
-2.81886e-06
8.35849e-06
-3.40235e-06
8.61123e-06
-3.76126e-06
8.88906e-06
-3.97405e-06
9.18821e-06
-4.31066e-06
9.52055e-06
-4.46338e-06
-7.456e-06
9.67064e-06
6.05916e-05
8.27487e-06
4.3365e-05
6.20424e-06
2.90926e-05
4.15999e-06
1.88917e-05
2.53004e-06
1.14262e-05
1.4037e-06
7.12256e-06
6.45322e-07
4.45314e-06
1.26736e-07
3.07202e-06
-2.40313e-07
2.1706e-06
-5.12303e-07
1.74692e-06
-7.22023e-07
1.55285e-06
-9.02446e-07
1.51322e-06
-1.0701e-06
1.36901e-06
-1.22878e-06
9.26393e-07
-1.36448e-06
1.06831e-07
-1.46072e-06
-8.55212e-07
-1.52409e-06
-1.34954e-06
-1.61064e-06
-5.7542e-07
-1.80529e-06
1.94402e-06
-2.14568e-06
5.86572e-06
-2.56764e-06
9.94019e-06
-2.95173e-06
1.26092e-05
-3.21672e-06
1.30455e-05
-3.34469e-06
1.1554e-05
-3.33943e-06
8.92695e-06
-3.19718e-06
5.77e-06
-2.90539e-06
2.36488e-06
-2.4471e-06
-1.21619e-06
-1.80366e-06
-4.99831e-06
-9.56805e-07
-9.01311e-06
1.08719e-07
-1.32263e-05
1.39443e-06
-1.74557e-05
2.87499e-06
-2.13178e-05
4.49418e-06
-2.42935e-05
6.17029e-06
-2.59148e-05
7.80407e-06
-2.59472e-05
9.2966e-06
-2.43808e-05
1.057e-05
-2.13375e-05
1.15693e-05
-1.71124e-05
1.22621e-05
-1.21187e-05
1.26387e-05
-6.82388e-06
1.2711e-05
-1.70629e-06
1.25079e-05
2.77887e-06
1.20705e-05
6.2316e-06
1.14544e-05
8.36466e-06
1.07328e-05
9.07785e-06
9.9937e-06
8.5067e-06
9.32382e-06
6.99252e-06
8.78732e-06
4.96858e-06
8.41422e-06
2.8356e-06
8.20361e-06
8.73209e-07
8.13538e-06
-7.59077e-07
8.18207e-06
-2.03552e-06
8.31639e-06
-2.95318e-06
8.51419e-06
-3.60015e-06
8.75671e-06
-4.00379e-06
9.0268e-06
-4.24413e-06
9.31663e-06
-4.60049e-06
9.63965e-06
-4.7864e-06
-7.74074e-06
9.82953e-06
6.07621e-05
8.66626e-06
4.45283e-05
6.77241e-06
3.09865e-05
4.76389e-06
2.09003e-05
3.05907e-06
1.3131e-05
1.82365e-06
8.35799e-06
9.69022e-07
5.30776e-06
3.79245e-07
3.6618e-06
-4.05914e-08
2.59044e-06
-3.49524e-07
2.05585e-06
-5.8423e-07
1.78755e-06
-7.81083e-07
1.71007e-06
-9.62142e-07
1.55007e-06
-1.13683e-06
1.10108e-06
-1.29386e-06
2.63859e-07
-1.41416e-06
-7.34912e-07
-1.49525e-06
-1.26845e-06
-1.58053e-06
-4.90147e-07
-1.74384e-06
2.10733e-06
-2.01836e-06
6.14024e-06
-2.34748e-06
1.02693e-05
-2.6317e-06
1.28934e-05
-2.80933e-06
1.32231e-05
-2.86929e-06
1.1614e-05
-2.81213e-06
8.86979e-06
-2.62915e-06
5.58702e-06
-2.30447e-06
2.04019e-06
-1.81907e-06
-1.70158e-06
-1.15334e-06
-5.66404e-06
-2.88373e-07
-9.87808e-06
7.91102e-07
-1.43058e-05
2.08546e-06
-1.87501e-05
3.56794e-06
-2.28003e-05
5.18097e-06
-2.59065e-05
6.84129e-06
-2.75752e-05
8.44991e-06
-2.75559e-05
9.91014e-06
-2.5841e-05
1.11464e-05
-2.25737e-05
1.21054e-05
-1.80715e-05
1.27561e-05
-1.27693e-05
1.30904e-05
-7.15816e-06
1.31226e-05
-1.7385e-06
1.28846e-05
3.01685e-06
1.24205e-05
6.69564e-06
1.17857e-05
8.99949e-06
1.10497e-05
9.81382e-06
1.02956e-05
9.26086e-06
9.60645e-06
7.68164e-06
9.04655e-06
5.52848e-06
8.64825e-06
3.2339e-06
8.41337e-06
1.10808e-06
8.32354e-06
-6.69244e-07
8.35204e-06
-2.06401e-06
8.47123e-06
-3.07237e-06
8.657e-06
-3.78592e-06
8.88892e-06
-4.2357e-06
9.15107e-06
-4.50629e-06
9.43077e-06
-4.88018e-06
9.74452e-06
-5.10015e-06
-8.00339e-06
9.96559e-06
6.07965e-05
9.01892e-06
4.5475e-05
7.31401e-06
3.26914e-05
5.37319e-06
2.28411e-05
3.62078e-06
1.48834e-05
2.2865e-06
9.69227e-06
1.33476e-06
6.25949e-06
6.69109e-07
4.32745e-06
1.91892e-07
3.06765e-06
-1.5785e-07
2.40559e-06
-4.20779e-07
2.05048e-06
-6.35947e-07
1.92524e-06
-8.30798e-07
1.74492e-06
-1.02062e-06
1.2909e-06
-1.19752e-06
4.40763e-07
-1.34047e-06
-5.91961e-07
-1.43777e-06
-1.17115e-06
-1.51916e-06
-4.0876e-07
-1.64738e-06
2.23555e-06
-1.85349e-06
6.34635e-06
-2.09123e-06
1.0507e-05
-2.28101e-06
1.30832e-05
-2.37797e-06
1.33201e-05
-2.37539e-06
1.16114e-05
-2.27006e-06
8.76446e-06
-2.04878e-06
5.36574e-06
-1.69274e-06
1.68415e-06
-1.18117e-06
-2.21315e-06
-4.93539e-07
-6.35168e-06
3.89571e-07
-1.07612e-05
1.483e-06
-1.53992e-05
2.78583e-06
-2.00529e-05
4.26986e-06
-2.42843e-05
5.87569e-06
-2.75124e-05
7.51852e-06
-2.9218e-05
9.09997e-06
-2.91373e-05
1.05261e-05
-2.72672e-05
1.17242e-05
-2.37717e-05
1.26427e-05
-1.899e-05
1.32515e-05
-1.33781e-05
1.35434e-05
-7.45008e-06
1.35343e-05
-1.72946e-06
1.3259e-05
3.29216e-06
1.27646e-05
7.19009e-06
1.21072e-05
9.65686e-06
1.13542e-05
1.05669e-05
1.05838e-05
1.00312e-05
9.87582e-06
8.38967e-06
9.2935e-06
6.1108e-06
8.87097e-06
3.65643e-06
8.61248e-06
1.36656e-06
8.50141e-06
-5.58167e-07
8.51186e-06
-2.07447e-06
8.61595e-06
-3.17645e-06
8.78961e-06
-3.95958e-06
9.01069e-06
-4.45678e-06
9.26473e-06
-4.76032e-06
9.53372e-06
-5.14918e-06
9.83818e-06
-5.4046e-06
-8.24443e-06
1.00818e-05
6.07147e-05
9.33452e-06
4.62223e-05
7.82492e-06
3.4201e-05
5.97986e-06
2.46861e-05
4.20866e-06
1.66546e-05
2.78996e-06
1.1111e-05
1.74312e-06
7.30633e-06
9.98051e-07
5.07253e-06
4.59266e-07
3.60644e-06
6.45932e-08
2.80026e-06
-2.30094e-07
2.34517e-06
-4.65803e-07
2.16095e-06
-6.75081e-07
1.9542e-06
-8.79169e-07
1.49499e-06
-1.07436e-06
6.35957e-07
-1.23856e-06
-4.27768e-07
-1.35103e-06
-1.05868e-06
-1.4271e-06
-3.32697e-07
-1.51818e-06
2.32664e-06
-1.65508e-06
6.48325e-06
-1.80396e-06
1.06559e-05
-1.90476e-06
1.3184e-05
-1.92697e-06
1.33423e-05
-1.86647e-06
1.15509e-05
-1.7161e-06
8.61408e-06
-1.4586e-06
5.10824e-06
-1.07254e-06
1.2981e-06
-5.35572e-07
-2.75012e-06
1.7367e-07
-7.06092e-06
1.07487e-06
-1.16624e-05
2.18217e-06
-1.65065e-05
3.49337e-06
-2.13641e-05
4.97854e-06
-2.57695e-05
6.57597e-06
-2.91098e-05
8.19927e-06
-3.08413e-05
9.75123e-06
-3.06893e-05
1.11413e-05
-2.86573e-05
1.23e-05
-2.49304e-05
1.3178e-05
-1.98679e-05
1.37456e-05
-1.39458e-05
1.3996e-05
-7.70042e-06
1.39457e-05
-1.67918e-06
1.36317e-05
3.60612e-06
1.31042e-05
7.7176e-06
1.24211e-05
1.034e-05
1.16484e-05
1.13396e-05
1.08607e-05
1.08189e-05
1.01339e-05
9.11652e-06
9.52996e-06
6.71471e-06
9.08414e-06