/*--------------------------------*- C++ -*----------------------------------*\
| =========                 |                                                 |
| \\      /  F ield         | OpenFOAM: The Open Source CFD Toolbox           |
|  \\    /   O peration     | Version:  2.4.0                                 |
|   \\  /    A nd           | Web:      www.OpenFOAM.org                      |
|    \\/     M anipulation  |                                                 |
\*---------------------------------------------------------------------------*/
FoamFile
{
    version     2.0;
    format      ascii;
    class       volVectorField;
    location    "2.55";
    object      U;
}
// * * * * * * * * * * * * * * * * * * * * * * * * * * * * * * * * * * * * * //

dimensions      [0 1 -1 0 0 0 0];

internalField   nonuniform List<vector> 
6000
(
(0.165122 -0.00671406 1.30097e-18)
(-0.0097282 0.00185433 0)
(0.000842776 -0.000237301 7.23815e-18)
(-0.00662675 0.00128599 0)
(-0.00500893 0.000987919 0)
(-0.0060914 0.00114281 0)
(-0.00537357 0.000989409 4.01711e-18)
(-0.00555055 0.000969525 3.35359e-22)
(-0.00517425 0.000874559 0)
(-0.00518887 0.000832373 0)
(-0.00507804 0.000779824 3.91835e-18)
(-0.00524376 0.000762813 -7.76075e-18)
(-0.00541734 0.000748333 0)
(-0.00560514 0.00072619 0)
(-0.00544842 0.000653395 -1.88687e-18)
(-0.00473819 0.000511146 0)
(-0.00336779 0.000315829 0)
(-0.00165512 0.000119697 -1.84812e-18)
(-0.000111625 -1.96468e-05 -1.83027e-18)
(0.000706213 -6.25249e-05 0)
(0.000199057 2.36851e-05 1.77847e-18)
(-0.00230967 0.000254701 8.70547e-19)
(-0.00725874 0.000599337 -8.49183e-19)
(-0.0144241 0.000968304 0)
(-0.0230012 0.00125913 0)
(-0.0320012 0.00140095 0)
(-0.0405638 0.00136651 4.02289e-19)
(-0.0480326 0.00116094 -4.09005e-19)
(-0.0538696 0.000807999 0)
(-0.0575396 0.000343798 0)
(-0.0584412 -0.000179262 5.84701e-20)
(-0.0559557 -0.000686918 0)
(-0.0496593 -0.00109346 5.34295e-19)
(-0.0396117 -0.00129299 -5.70719e-19)
(-0.0265208 -0.00120619 0)
(-0.011619 -0.000799708 0)
(0.0030185 -0.000155234 1.31283e-18)
(0.0162911 0.000661324 0)
(0.0272612 0.00156367 1.34275e-18)
(0.0351542 0.00243202 0)
(0.0397334 0.00316113 0)
(0.0413335 0.00369805 2.61793e-18)
(0.0406749 0.00397217 -5.16336e-18)
(0.0386221 0.00409238 0)
(0.0359763 0.00410246 0)
(0.0333409 0.0040642 2.48908e-18)
(0.0310711 0.00402926 0)
(0.0294253 0.00404207 0)
(0.0284832 0.00413559 -4.84904e-18)
(0.0285121 0.00436456 -4.8121e-18)
(0.0293044 0.00471531 -4.76401e-18)
(0.0314435 0.00527283 -1.60386e-21)
(0.0337979 0.00594946 4.60233e-18)
(0.0384175 0.00700133 0)
(0.041293 0.00794587 -2.91614e-21)
(0.0498282 0.00980108 -4.03447e-18)
(0.0505217 0.0106206 3.4211e-18)
(0.0680404 0.0142978 3.22775e-18)
(0.0604176 0.0138703 5.10948e-21)
(0.0972861 0.0215689 0)
(0.360307 -0.0164554 -1.8072e-18)
(0.00306679 0.00649386 4.29102e-18)
(0.00553629 -0.000902645 -4.34086e-18)
(-0.0149269 0.00337086 -4.60521e-18)
(-0.0124283 0.00258033 0)
(-0.0158008 0.00306758 0)
(-0.0143525 0.00268022 -4.58599e-18)
(-0.0149842 0.00264593 9.08462e-18)
(-0.0141582 0.00240595 0)
(-0.0142716 0.00230493 0)
(-0.0140736 0.00218646 -4.34676e-18)
(-0.014553 0.00215574 4.28149e-18)
(-0.0150189 0.00211465 2.10875e-18)
(-0.0154272 0.00201368 0)
(-0.014862 0.00173666 2.05594e-18)
(-0.0128279 0.00125364 0)
(-0.00915353 0.000651195 0)
(-0.00475664 0.000121793 0)
(-0.00111909 -0.000146788 0)
(0.000101927 -2.87641e-05 0)
(-0.00278004 0.000560615 5.42701e-22)
(-0.0112866 0.00161204 0)
(-0.0258498 0.00291489 -9.06059e-19)
(-0.0451118 0.00410953 0)
(-0.0665678 0.00488533 0)
(-0.0877008 0.00509669 4.24629e-19)
(-0.106603 0.0047409 -4.2454e-19)
(-0.12197 0.00388536 1.17895e-23)
(-0.132793 0.00261764 2.22287e-19)
(-0.138089 0.00103465 0)
(-0.136772 -0.000732084 -6.15895e-20)
(-0.127788 -0.00249604 -2.62852e-19)
(-0.110502 -0.00400056 -1.85259e-22)
(-0.0852169 -0.00492898 6.02454e-19)
(-0.0534066 -0.00501505 -6.39372e-19)
(-0.0176262 -0.00407528 0)
(0.0172471 -0.00220943 0)
(0.0483558 0.000215323 0)
(0.0738091 0.00291179 0)
(0.0920977 0.00557314 0)
(0.102786 0.00787385 -2.82356e-18)
(0.106578 0.00960373 0)
(0.105035 0.0106388 2.76262e-18)
(0.100112 0.0111327 2.73279e-18)
(0.0936858 0.0112382 0)
(0.0872506 0.0111468 0)
(0.0817388 0.0110225 0)
(0.0778199 0.0110011 0)
(0.0757353 0.0111777 5.3128e-18)
(0.0760793 0.0116901 0)
(0.0784012 0.0125375 0)
(0.0839346 0.013939 -5.24104e-18)
(0.0902236 0.0156583 -5.16149e-18)
(0.101666 0.0183408 0)
(0.109632 0.0207852 -9.64667e-18)
(0.130068 0.0254926 0)
(0.133969 0.0277505 -7.94445e-18)
(0.17447 0.036847 -3.76424e-18)
(0.161297 0.0364617 1.91624e-18)
(0.245549 0.0543974 2.39453e-18)
(0.500838 -0.0113724 -1.73819e-19)
(0.0413598 0.00904072 -4.2542e-18)
(0.0142021 -0.0013083 0)
(-0.0188124 0.00482511 4.61255e-18)
(-0.0174879 0.00374153 0)
(-0.0234811 0.00458357 0)
(-0.0219105 0.0040584 0)
(-0.0231553 0.00404069 -4.54783e-18)
(-0.022137 0.00371195 0)
(-0.0224361 0.00358299 -4.4189e-18)
(-0.0222685 0.00344564 0)
(-0.0230723 0.00342368 0)
(-0.0238109 0.00335592 -2.11007e-18)
(-0.0243526 0.00313034 0)
(-0.023338 0.00257663 0)
(-0.0200907 0.00168822 0)
(-0.0144996 0.000674346 0)
(-0.00808449 -8.57868e-05 0)
(-0.00323677 -0.000256704 0)
(-0.00264354 0.000372012 1.94129e-18)
(-0.00893853 0.0018972 -1.90216e-18)
(-0.0241281 0.0041845 0)
(-0.0481842 0.00670863 -4.91017e-22)
(-0.0783112 0.00875441 -8.77542e-19)
(-0.110323 0.00982423 0)
(-0.140431 0.00978436 -8.45817e-19)
(-0.166 0.00874275 0)
(-0.185366 0.00688208 4.29717e-19)
(-0.197313 0.00437466 -2.21726e-19)
(-0.200688 0.00138098 0)
(-0.194284 -0.00189189 0)
(-0.177068 -0.00515425 2.61952e-19)
(-0.148667 -0.00797455 -3.27095e-22)
(-0.109928 -0.00984227 0)
(-0.0631541 -0.0103058 1.26396e-18)
(-0.0123057 -0.00898354 0)
(0.0365112 -0.00593937 1.36586e-18)
(0.0807512 -0.00188578 0)
(0.117384 0.00272162 0)
(0.144123 0.00737625 0)
(0.16011 0.011506 2.81843e-18)
(0.166054 0.0146822 0)
(0.163969 0.0167429 0)
(0.156621 0.0177632 -2.73105e-18)
(0.146829 0.0180162 0)
(0.136935 0.0178452 0)
(0.128472 0.0175554 2.67493e-18)
(0.122512 0.0173901 -2.6652e-18)
(0.119465 0.0175167 -2.6576e-18)
(0.120142 0.0181362 0)
(0.123926 0.0193043 0)
(0.132423 0.0213262 0)
(0.142344 0.0238773 5.16564e-18)
(0.159533 0.0278315 5.06944e-18)
(0.172485 0.0315812 4.83569e-18)
(0.202526 0.03848 0)
(0.21089 0.0422702 3.98529e-18)
(0.268952 0.0552331 7.56141e-18)
(0.255355 0.0560373 0)
(0.375758 0.0803149 -2.4155e-18)
(0.605065 0.00024379 -1.44305e-19)
(0.0971029 0.0109758 4.12964e-18)
(0.0280184 -0.00124993 -4.32929e-18)
(-0.0182303 0.00582948 0)
(-0.0200573 0.00456394 0)
(-0.0290691 0.00578575 0)
(-0.0279769 0.00517381 0)
(-0.0300195 0.0052084 0)
(-0.0290627 0.00482531 0)
(-0.0296423 0.00469997 4.42149e-18)
(-0.0296148 0.00457116 4.35127e-18)
(-0.0307536 0.00457506 0)
(-0.031752 0.00447562 0)
(-0.0323781 0.00409327 0)
(-0.0309452 0.00321209 2.05603e-18)
(-0.0266901 0.00188109 0)
(-0.0196433 0.000478559 2.01196e-18)
(-0.0118843 -0.000396427 -1.98954e-18)
(-0.00662483 -0.000248958 0)
(-0.00748541 0.00120534 -1.93555e-18)
(-0.0178574 0.00403186 0)
(-0.039905 0.00786469 -9.23869e-19)
(-0.0726871 0.0117366 1.79458e-18)
(-0.111733 0.0145255 8.71509e-19)
(-0.151309 0.0156026 0)
(-0.186716 0.0149469 4.19962e-19)
(-0.21501 0.0128585 0)
(-0.234521 0.00967699 4.26583e-19)
(-0.244146 0.00567185 0)
(-0.242888 0.00106641 0)
(-0.229778 -0.00387076 0)
(-0.204158 -0.00874582 2.5884e-19)
(-0.166147 -0.0129748 -1.10496e-18)
(-0.117163 -0.0158571 0)
(-0.060207 -0.0167267 -6.17377e-19)
(-0.000245532 -0.0150195 0)
(0.0578933 -0.0110012 -1.33126e-18)
(0.111658 -0.0054267 0)
(0.156811 0.00114119 0)
(0.19043 0.00793758 0)
(0.211161 0.0141245 2.80039e-18)
(0.219432 0.0190304 0)
(0.217356 0.0223249 2.7482e-18)
(0.2082 0.0240322 -2.72068e-18)
(0.195554 0.0245035 0)
(0.182566 0.0242395 -2.68199e-18)
(0.171404 0.023712 -5.34065e-18)
(0.163554 0.0232957 2.66253e-18)
(0.159616 0.0232439 5.31173e-18)
(0.160527 0.0238284 -5.30078e-18)
(0.165579 0.0251442 -5.27863e-18)
(0.17653 0.0275657 0)
(0.189646 0.0307247 -5.16748e-18)
(0.211492 0.0356384 -5.0724e-18)
(0.229095 0.0404604 -4.82708e-18)
(0.26658 0.0490306 0)
(0.280139 0.0542445 0)
(0.350862 0.0699571 -3.78189e-18)
(0.340754 0.0723411 0)
(0.486965 0.100296 2.36549e-18)
(0.684233 0.0143534 -1.25483e-19)
(0.163012 0.0131106 -3.18879e-20)
(0.048026 -0.000638326 4.30338e-18)
(-0.0131356 0.00651822 4.6059e-18)
(-0.0200176 0.00513022 0)
(-0.032518 0.00672249 -4.6452e-18)
(-0.0324913 0.00605944 0)
(-0.0355465 0.00617223 0)
(-0.0348987 0.00576306 0)
(-0.0358617 0.00566699 4.42222e-18)
(-0.036074 0.00556962 -4.3518e-18)
(-0.0375602 0.0056117 0)
(-0.0388155 0.0054749 0)
(-0.0395164 0.00491164 0)
(-0.037759 0.00367378 -2.05482e-18)
(-0.0327683 0.0018934 0)
(-0.024755 0.000149204 -2.00701e-18)
(-0.0162873 -0.000717453 1.98358e-18)
(-0.0112913 -4.41066e-05 0)
(-0.0141936 0.00251317 0)
(-0.0289324 0.00692879 9.42131e-19)
(-0.0574942 0.0124907 9.17048e-19)
(-0.0976152 0.0176786 -1.78016e-18)
(-0.143052 0.0209607 -8.63886e-19)
(-0.186805 0.021674 0)
(-0.223756 0.0200228 4.1548e-19)
(-0.251114 0.0165699 0)
(-0.267592 0.0118367 -4.21989e-19)
(-0.272501 0.00618843 2.17378e-19)
(-0.265271 -9.77163e-05 0)
(-0.245414 -0.00670415 0)
(-0.212733 -0.0131475 -5.06796e-19)
(-0.16778 -0.0187123 5.3887e-19)
(-0.112338 -0.0225203 0)
(-0.0496998 -0.023708 -5.95887e-19)
(0.0151632 -0.0216848 0)
(0.079461 -0.0169418 1.28692e-18)
(0.139836 -0.010058 0)
(0.191376 -0.00161392 0)
(0.230668 0.00736809 0)
(0.255816 0.0157625 -2.77116e-18)
(0.266753 0.0226157 -2.75837e-18)
(0.265373 0.0273667 -2.73138e-18)
(0.255142 0.0299408 1.11423e-21)
(0.240226 0.0307266 -2.68546e-18)
(0.224522 0.0303769 2.67214e-18)
(0.210873 0.0295503 5.32354e-18)
(0.201216 0.0287796 0)
(0.196368 0.0284222 -2.65147e-18)
(0.197344 0.0288255 5.29611e-18)
(0.20339 0.0301236 5.27551e-18)
(0.216268 0.0327457 0)
(0.232074 0.0363046 0)
(0.257579 0.0418986 0)
(0.279336 0.04756 4.82397e-18)
(0.322441 0.0573585 0)
(0.341375 0.0638245 0)
(0.420889 0.0814112 3.75244e-18)
(0.416606 0.0854844 -1.88064e-18)
(0.58035 0.115249 -2.36542e-18)
(0.745584 0.0290922 -1.12243e-19)
(0.233573 0.0159558 -3.95594e-18)
(0.0747749 0.00053938 0)
(-0.00345151 0.00704888 -4.59585e-18)
(-0.0172575 0.00552138 -4.62023e-18)
(-0.0337779 0.0074413 5.15337e-22)
(-0.0353954 0.00674869 0)
(-0.0397078 0.0069561 0)
(-0.0396112 0.00654245 0)
(-0.0410692 0.00649539 -4.42249e-18)
(-0.0416128 0.0064473 0)
(-0.0434625 0.006536 0)
(-0.0449826 0.00635746 2.10872e-18)
(-0.0457852 0.0055989 0)
(-0.0438454 0.00399484 0)
(-0.0384294 0.00178104 0)
(-0.0299286 -0.000243734 0)
(-0.0213154 -0.000981701 -1.97623e-18)
(-0.0171099 0.000402703 0)
(-0.0223948 0.00429294 1.91879e-18)
(-0.0414347 0.0105013 -9.35355e-19)
(-0.0756763 0.0178471 -9.09744e-19)
(-0.121229 0.0241751 1.76197e-18)
(-0.170165 0.0275937 1.70726e-18)
(-0.214678 0.0275368 0)
(-0.249807 0.0245481 -4.09574e-19)
(-0.273409 0.0195053 0)
(-0.284905 0.0131142 0)
(-0.284224 0.00581936 -4.26032e-19)
(-0.271314 -0.00207138 0)
(-0.246094 -0.0102143 0)
(-0.20861 -0.0180714 4.90432e-19)
(-0.159563 -0.0248236 0)
(-0.100748 -0.0294467 0)
(-0.0353253 -0.0309311 5.74475e-19)
(0.0323647 -0.0287565 0)
(0.10056 -0.0234558 -1.24471e-18)
(0.165092 -0.0154382 0)
(0.221074 -0.00529254 0)
(0.264874 0.00578971 0)
(0.294116 0.0164372 0)
(0.308094 0.0253979 2.72666e-18)
(0.308178 0.0318221 2.70282e-18)
(0.29771 0.0354631 1.34283e-21)
(0.281197 0.0366923 2.66825e-18)
(0.263201 0.0362934 2.65641e-18)
(0.247267 0.0351258 -2.65063e-18)
(0.235843 0.0339074 0)
(0.230008 0.0331238 -2.64369e-18)
(0.230838 0.0332062 2.64197e-18)
(0.237565 0.0343337 -5.2648e-18)
(0.251867 0.036978 0)
(0.269835 0.0407493 0)
(0.298137 0.046779 -5.04774e-18)
(0.323453 0.0530605 -4.80586e-18)
(0.370729 0.0637163 4.60748e-18)
(0.394789 0.0712337 3.94841e-18)
(0.480262 0.0900235 -3.7495e-18)
(0.482791 0.095696 1.87897e-18)
(0.657969 0.126031 0)
(0.793874 0.0436617 -1.01281e-19)
(0.304914 0.0197362 0)
(0.108184 0.00228679 4.23074e-18)
(0.010943 0.0075821 4.57951e-18)
(-0.0116755 0.00581552 -5.82622e-23)
(-0.0327901 0.00798938 4.64444e-18)
(-0.036629 0.007275 0)
(-0.0424719 0.00758426 0)
(-0.043167 0.00718061 0)
(-0.0452406 0.00719665 2.21066e-18)
(-0.0462009 0.00721033 2.17453e-18)
(-0.0484346 0.00735125 0)
(-0.050239 0.00712915 -2.10696e-18)
(-0.0511998 0.00617123 2.07736e-18)
(-0.0492515 0.004208 0)
(-0.0437302 0.00159213 0)
(-0.0351826 -0.000646642 0)
(-0.0268946 -0.00114628 -2.78298e-23)
(-0.0238474 0.00110493 0)
(-0.0316204 0.00650414 -3.81401e-18)
(-0.0545697 0.0146194 9.28549e-19)
(-0.0932436 0.0236794 9.00053e-19)
(-0.141984 0.0308549 2.67947e-22)
(-0.191483 0.0339964 -8.41087e-19)
(-0.233753 0.0327902 0)
(-0.264622 0.0282224 0)
(-0.28299 0.0215053 0)
(-0.289114 0.0135006 2.01425e-19)
(-0.283458 0.0046897 4.13657e-19)
(-0.266269 -0.00463423 0)
(-0.237522 -0.0141397 0)
(-0.19725 -0.0232612 -4.71804e-19)
(-0.146063 -0.0310957 -2.49592e-19)
(-0.0855922 -0.0364901 0)
(-0.0187315 -0.0383145 0)
(0.0508334 -0.0361081 0)
(0.121319 -0.0303426 0)
(0.188154 -0.0213028 0)
(0.246836 -0.00962286 0)
(0.293823 0.00339786 0)
(0.326509 0.016225 0)
(0.343638 0.0273555 0)
(0.345856 0.0356273 -1.91401e-21)
(0.33603 0.0405427 2.65338e-18)
(0.318695 0.042378 0)
(0.298916 0.0420044 -5.27504e-18)
(0.280938 0.0404823 -2.6346e-18)
(0.267782 0.0387407 0)
(0.260859 0.0374224 2.6361e-18)
(0.261318 0.0370561 -2.63669e-18)
(0.268407 0.0378751 5.25716e-18)
(0.283673 0.0403832 -5.21718e-18)
(0.303293 0.0442002 0)
(0.333663 0.0504551 4.71693e-21)
(0.361917 0.0571574 4.79723e-18)
(0.412243 0.0683643 -9.19132e-18)
(0.440909 0.0767239 -8.69106e-21)
(0.530363 0.0962111 -3.71437e-18)
(0.539739 0.103276 1.85193e-18)
(0.722087 0.133391 2.2916e-18)
(0.832293 0.057627 3.12034e-18)
(0.374453 0.0244782 0)
(0.14761 0.00462178 2.61745e-21)
(0.0301835 0.00824017 -2.81359e-22)
(-0.00317509 0.00611557 4.60697e-18)
(-0.0294838 0.00841488 4.6407e-18)
(-0.0361275 0.00767315 0)
(-0.043801 0.00808197 4.5526e-18)
(-0.0455307 0.00769531 0)
(-0.0483498 0.00778288 -2.20983e-18)
(-0.0498098 0.00786543 -7.0915e-23)
(-0.0524534 0.00806211 -2.13815e-18)
(-0.0545716 0.00779788 0)
(-0.0557678 0.00664645 -4.14747e-18)
(-0.0539992 0.00434421 0)
(-0.0486797 0.00136719 0)
(-0.0404715 -0.00102036 0)
(-0.0328746 -0.00118876 1.95855e-18)
(-0.0311969 0.00205019 0)
(-0.0413534 0.00907523 1.89364e-18)
(-0.0675392 0.0191183 -1.84017e-18)
(-0.109113 0.0297126 0)
(-0.158715 0.037368 1.82808e-22)
(-0.206183 0.039827 0)
(-0.244079 0.0371904 0)
(-0.269538 0.0309527 -3.90792e-19)
(-0.282595 0.022629 0)
(-0.284112 0.013166 -3.90339e-19)
(-0.274735 0.00301984 -1.99971e-19)
(-0.254681 -0.00757173 -5.14483e-20)
(-0.223762 -0.01831 5.37606e-20)
(-0.181902 -0.0286047 2.27452e-19)
(-0.129559 -0.03747 4.8215e-19)
(-0.0681912 -0.0436237 0)
(-0.000462416 -0.0458227 5.38005e-19)
(0.0703932 -0.0436317 0)
(0.142079 -0.0374443 0)
(0.209976 -0.0274577 0)
(0.27002 -0.0143733 1.2498e-18)
(0.318912 0.000423345 0)
(0.354079 0.0152892 0)
(0.373986 0.0285434 2.62003e-18)
(0.378629 0.0387497 -2.61908e-18)
(0.37017 0.0451154 0)
(0.352815 0.0477372 0)
(0.331858 0.047502 2.61312e-18)
(0.312155 0.0456481 2.61648e-18)
(0.297342 0.0433338 -2.62016e-18)
(0.289237 0.0413896 0)
(0.289112 0.040462 0)
(0.296256 0.0408499 0)
(0.312078 0.0430841 2.82613e-21)
(0.332878 0.0468009 0)
(0.364714 0.0531034 5.02412e-18)
(0.395308 0.0600498 0)
(0.447828 0.0715603 4.58254e-18)
(0.480448 0.080558 -3.92536e-18)
(0.572535 0.10037 7.40098e-18)
(0.588226 0.108565 -1.84852e-18)
(0.774862 0.137984 -2.28611e-18)
(0.86306 0.0707255 8.44182e-20)
(0.440553 0.0300809 -3.63828e-18)
(0.192015 0.00756708 -4.1256e-18)
(0.0542811 0.00913481 -1.88456e-22)
(0.00841877 0.00651193 -4.59459e-18)
(-0.0237766 0.00876793 -4.63567e-18)
(-0.0338211 0.00797927 0)
(-0.0436501 0.00847504 -4.5506e-18)
(-0.0466629 0.00810483 0)
(-0.0503686 0.00826657 -2.2083e-18)
(-0.0524115 0.00841999 -2.17111e-18)
(-0.0554971 0.00867446 2.13534e-18)
(-0.0579664 0.00837294 -2.1001e-18)
(-0.0594875 0.00704246 2.06858e-18)
(-0.0580858 0.00443114 -2.03426e-18)
(-0.0532474 0.0011387 1.99975e-18)
(-0.0457007 -0.00133892 0)
(-0.0390525 -0.00110401 0)
(-0.038813 0.0032053 0)
(-0.0510684 0.0119118 9.40291e-19)
(-0.0796041 0.0238151 9.10837e-19)
(-0.122428 0.0356801 0)
(-0.17076 0.0434276 -8.43343e-19)
(-0.214276 0.0448736 0)
(-0.246751 0.0406704 0)
(-0.266794 0.0328207 3.80042e-19)
(-0.275276 0.0230527 -3.75052e-19)
(-0.27324 0.012313 1.8889e-19)
(-0.261217 0.000986952 0)
(-0.23921 -0.0107563 9.94058e-20)
(-0.206878 -0.0226452 -1.03998e-19)
(-0.164017 -0.0340577 0)
(-0.110959 -0.0439208 -2.343e-19)
(-0.0490239 -0.0508217 4.98029e-19)
(0.0192876 -0.0534117 -5.26657e-19)
(0.0909706 -0.0512432 0)
(0.163143 -0.0446401 0)
(0.231316 -0.0337534 0)
(0.291802 -0.0193608 -1.21889e-18)
(0.34157 -0.00292388 0)
(0.378218 0.0138296 0)
(0.400183 0.0290944 -2.56245e-18)
(0.407068 0.0412263 0)
(0.40034 0.0491483 2.566e-18)
(0.383624 0.0527192 -2.57186e-18)
(0.362118 0.0527587 0)
(0.341089 0.0506323 2.59134e-18)
(0.324762 0.0477267 5.20517e-18)
(0.315424 0.0450876 -2.6112e-18)
(0.31453 0.0435037 0)
(0.321457 0.0433547 0)
(0.337483 0.0451966 2.59808e-18)
(0.359046 0.0486882 0)
(0.391856 0.0548904 5.00366e-18)
(0.424243 0.0619279 0)
(0.478304 0.0735442 4.55634e-18)
(0.514202 0.0829914 3.8998e-18)
(0.608007 0.102855 -3.6858e-18)
(0.629209 0.111908 0)
(0.818217 0.140365 2.24453e-18)
(0.887785 0.0828226 -3.37157e-18)
(0.502239 0.0363766 1.99914e-20)
(0.240156 0.0111338 4.0713e-18)
(0.0831291 0.0103762 -1.67436e-22)
(0.0232893 0.00707131 -6.57394e-22)
(-0.0155721 0.00910072 0)
(-0.0296342 0.008231 0)
(-0.041965 0.00878975 0)
(-0.0465196 0.00842804 -2.23984e-18)
(-0.0512655 0.00866068 4.41266e-18)
(-0.0539791 0.00888219 0)
(-0.0575458 0.0091952 2.13147e-18)
(-0.0604093 0.00886436 1.43258e-22)
(-0.0623484 0.00737636 -2.06141e-18)
(-0.0614895 0.00449252 3.70343e-22)
(-0.0573745 0.00093111 -1.98893e-18)
(-0.0507407 -0.00158794 0)
(-0.045196 -0.000900909 0)
(-0.0463403 0.0045225 0)
(-0.0602659 0.0149054 -9.3227e-19)
(-0.0901394 0.0285257 0)
(-0.132618 0.041352 8.66624e-19)
(-0.177972 0.0488384 8.28377e-19)
(-0.216425 0.0490596 -7.90999e-19)
(-0.243339 0.0432954 0)
(-0.25857 0.0339826 0)
(-0.263354 0.022952 3.64023e-19)
(-0.258604 0.0110901 0)
(-0.244616 -0.00130291 1.86511e-19)
(-0.221167 -0.0141186 -4.82405e-20)
(-0.187808 -0.0271 5.05696e-20)
(-0.144227 -0.039589 -2.13985e-19)
(-0.0906526 -0.0504226 0)
(-0.0283092 -0.0580573 -4.88754e-19)
(0.0403955 -0.061042 0)
(0.112525 -0.0588857 0)
(0.18472 -0.0518494 1.12703e-18)
(0.252678 -0.0400831 0)
(0.312996 -0.0244472 0)
(0.362889 -0.00647452 0)
(0.400172 0.0120323 0)
(0.423395 0.0291747 0)
(0.432018 0.0431572 0)
(0.426992 0.0526632 -5.03635e-18)
(0.411297 0.057297 2.53071e-18)
(0.389774 0.0577432 2.54477e-18)
(0.367846 0.0554283 -5.12609e-18)
(0.350213 0.0519439 -2.58087e-18)
(0.339647 0.0485662 2.59558e-18)
(0.337852 0.0462506 -2.60617e-18)
(0.344332 0.0454753 0)
(0.360269 0.0468252 1.32467e-21)
(0.382241 0.0499855 -5.08908e-18)
(0.415627 0.0559656 -4.99114e-18)
(0.44933 0.0629646 -4.74265e-18)
(0.504433 0.0745292 -9.08287e-18)
(0.54297 0.0842595 -3.89075e-18)
(0.637869 0.103975 3.64912e-18)
(0.663701 0.113633 1.8074e-18)
(0.853815 0.140991 -2.23889e-18)
(0.90768 0.0938753 -7.31953e-20)
(0.559001 0.0431728 3.49885e-18)
(0.290736 0.0153093 2.26123e-21)
(0.116461 0.0120467 -2.06345e-22)
(0.0416159 0.00786185 4.55362e-18)
(-0.00476235 0.00946651 4.61497e-18)
(-0.0234862 0.00846743 -4.58359e-18)
(-0.0386828 0.00905287 2.27122e-18)
(-0.0450514 0.00868458 3.74446e-23)
(-0.0510059 0.00897892 -2.20377e-18)
(-0.054486 0.0092612 -2.16489e-18)
(-0.0585814 0.00963225 -2.1268e-18)
(-0.0618867 0.00928266 4.17722e-18)
(-0.0643348 0.0076639 2.71467e-22)
(-0.0641748 0.00454785 2.01533e-18)
(-0.0609829 0.000761396 0)
(-0.0554409 -0.00176286 1.94819e-18)
(-0.0510642 -0.000598857 0)
(-0.0534376 0.00594449 -1.90306e-18)
(-0.0685027 0.0179424 -9.25137e-19)
(-0.0986719 0.0330816 -8.92136e-19)
(-0.139412 0.0465534 4.4431e-22)
(-0.180609 0.0535001 -8.12893e-19)
(-0.213597 0.0524093 7.73316e-19)
(-0.235338 0.0451864 0)
(-0.246492 0.034587 -3.57988e-19)
(-0.24829 0.0224539 0)
(-0.241382 0.00958839 0)
(-0.225823 -0.00378904 -1.81743e-19)
(-0.201215 -0.0176176 0)
(-0.167027 -0.031646 0)
(-0.122859 -0.045178 2.09928e-19)
(-0.068863 -0.0569591 0)
(-0.00620352 -0.0653134 0)
(0.0627435 -0.0686858 5.08639e-19)
(0.135018 -0.0665207 0)
(0.206937 -0.0590224 -1.11295e-18)
(0.274365 -0.046378 0)
(0.334113 -0.0295366 1.17212e-18)
(0.383601 -0.0101028 0)
(0.420862 0.0100483 0)
(0.444624 0.0289412 0)
(0.45437 0.0446694 0)
(0.450744 0.0557274 2.47157e-18)
(0.43616 0.0614809 0)
(0.414972 0.062439 -5.01275e-18)
(0.392523 0.0600257 2.53089e-18)
(0.373824 0.0559979 -2.55373e-18)
(0.36209 0.0518618 2.57457e-18)
(0.359313 0.0487593 2.59199e-18)
(0.36517 0.0472852 0)
(0.380785 0.0480606 2.57902e-18)
(0.402873 0.0508009 7.60891e-18)
(0.436518 0.0564595 -4.96763e-18)
(0.471138 0.0633116 4.72934e-18)
(0.5269 0.0746999 4.52523e-18)
(0.567511 0.084571 0)
(0.663069 0.10399 -3.64024e-18)
(0.692687 0.114034 -3.59562e-18)
(0.883067 0.140232 0)
(0.923683 0.103897 3.59904e-18)
(0.610639 0.0502786 0)
(0.342517 0.0200528 2.05101e-21)
(0.153843 0.0142031 -2.84666e-22)
(0.0635414 0.00894453 -4.52703e-18)
(0.00877387 0.0099242 -9.20041e-18)
(-0.015291 0.00872928 9.15391e-18)
(-0.033731 0.00929171 -2.26846e-18)
(-0.0422031 0.00889507 2.23515e-18)
(-0.0495512 0.00923595 0)
(-0.0539064 0.00956734 1.28106e-23)
(-0.0585887 0.00999456 0)
(-0.0623863 0.00963852 -4.16252e-18)
(-0.0654274 0.00791916 2.04411e-18)
(-0.0660969 0.00461236 0)
(-0.0639806 0.000639916 0)
(-0.0596422 -0.00186686 -1.93747e-18)
(-0.0564236 -0.000224419 0)
(-0.0597954 0.00740854 1.88914e-18)
(-0.075415 0.0209135 9.16467e-19)
(-0.104895 0.0373422 -7.49244e-22)
(-0.142793 0.0511697 -8.40887e-19)
(-0.179167 0.0573894 -7.97454e-19)
(-0.206772 0.054999 0)
(-0.223917 0.0464658 0)
(-0.23164 0.0347467 3.49251e-19)
(-0.230961 0.0216414 0)
(-0.222247 0.00786341 1.73469e-19)
(-0.205349 -0.00643529 -1.77045e-19)
(-0.17974 -0.0212293 4.58598e-20)
(-0.144828 -0.0362679 -4.82888e-20)
(-0.100138 -0.0508156 2.05871e-19)
(-0.045765 -0.0635232 -2.21e-19)
(0.0171459 -0.0725808 4.73447e-19)
(0.0862113 -0.076325 -5.03204e-19)
(0.158404 -0.0741225 0)
(0.229847 -0.0661296 0)
(0.296541 -0.0525969 0)
(0.355448 -0.0345671 -1.70355e-21)
(0.40416 -0.0137215 1.17552e-18)
(0.440908 0.00799055 0)
(0.46462 0.0285237 0)
(0.474894 0.0458869 0)
(0.472239 0.0584305 0)
(0.45864 0.0653119 0)
(0.437946 0.0668513 1.66331e-21)
(0.415254 0.0644206 0)
(0.395714 0.0598965 5.04997e-18)
(0.382905 0.0550015 -5.10318e-18)
(0.379113 0.051075 -2.57293e-18)
(0.384222 0.0488454 0)
(0.399336 0.048979 0)
(0.421309 0.0512261 -5.05008e-18)
(0.454967 0.0564827 4.419e-21)
(0.490179 0.0630987 -4.70282e-18)
(0.546309 0.0742123 4.49514e-18)
(0.588512 0.0841055 3.84394e-18)
(0.68442 0.103119 -3.60234e-18)
(0.717075 0.113369 3.56527e-18)
(0.907155 0.138388 2.18066e-18)
(0.936534 0.112932 6.5518e-20)
(0.657167 0.0575201 -3.3574e-18)
(0.394386 0.0252978 -7.79652e-18)
(0.194697 0.0168774 -3.92447e-22)
(0.0891304 0.0103731 4.49451e-18)
(0.0251746 0.0105312 4.58001e-18)
(-0.00495772 0.00906101 -2.28298e-18)
(-0.0270264 0.00953418 0)
(-0.0379122 0.00908134 0)
(-0.046858 0.00944759 2.19725e-18)
(-0.0522136 0.00981226 2.15641e-18)
(-0.0575535 0.010292 0)
(-0.0618966 0.00994241 2.07345e-18)
(-0.065603 0.00815406 0)
(-0.0672026 0.00469701 0)
(-0.0662674 0.000571384 0)
(-0.0631879 -0.00190866 0)
(-0.0610613 0.000191879 1.90653e-18)
(-0.0651505 0.00885182 9.38443e-19)
(-0.0807314 0.0237207 -9.09191e-19)
(-0.108659 0.0412007 -7.81204e-22)
(-0.142932 0.0551413 0)
(-0.174227 0.0605328 7.82707e-19)
(-0.19679 0.0569204 0)
(-0.209918 0.0472361 0)
(-0.214715 0.0345429 3.40654e-19)
(-0.211914 0.0205696 -3.36506e-19)
(-0.201623 0.00595016 -1.70276e-19)
(-0.183528 -0.00921961 1.73821e-19)
(-0.157014 -0.0249402 -9.01305e-20)
(-0.121431 -0.0409588 9.51174e-20)
(-0.0762461 -0.0564989 -2.03482e-19)
(-0.0215163 -0.0701134 2.18807e-19)
(0.0415923 -0.0798539 -8.58939e-22)
(0.110675 -0.0839468 -4.97492e-19)
(0.182622 -0.0816741 0)
(0.253452 -0.0731537 0)
(0.319274 -0.0587155 0)
(0.377158 -0.0395007 -2.29537e-18)
(0.424833 -0.0172729 -1.16512e-18)
(0.460708 0.00593966 0)
(0.483906 0.0280227 0)
(0.494186 0.0469169 -2.38325e-18)
(0.492048 0.0608637 0)
(0.479186 0.0688476 0)
(0.458987 0.0710044 4.85493e-18)
(0.436218 0.0686202 -2.45909e-18)
(0.416021 0.0636489 -4.98808e-18)
(0.402236 0.058007 6.99371e-22)
(0.397429 0.0532344 5.10466e-18)
(0.401706 0.050206 2.56722e-18)
(0.41619 0.049644 0)
(0.437869 0.0513379 2.51272e-18)
(0.471355 0.0561276 4.92469e-18)
(0.506901 0.0624346 4.68381e-18)
(0.563178 0.0731967 -4.47801e-18)
(0.606579 0.083014 -3.83018e-18)
(0.702612 0.10154 3.59021e-18)
(0.737669 0.111851 -1.77178e-18)
(0.927063 0.135698 -2.1736e-18)
(0.946829 0.121046 6.2543e-20)
(0.698742 0.0647474 3.31816e-18)
(0.445394 0.0309575 -1.60659e-21)
(0.238331 0.020078 -5.24804e-22)
(0.118342 0.0121923 0)
(0.0445551 0.0113462 0)
(0.00763585 0.00950514 1.70325e-22)
(-0.0184742 0.00980927 0)
(-0.0321077 0.00926649 0)
(-0.0428754 0.00963084 1.75198e-23)
(-0.0493772 0.0100089 0)
(-0.0554599 0.0105351 0)
(-0.0604039 0.0102042 2.06545e-18)
(-0.0648334 0.00837797 0)
(-0.0674314 0.00480866 0)
(-0.0677404 0.000556108 0)
(-0.0659318 -0.00190019 0)
(-0.0647932 0.000618432 4.67725e-22)
(-0.0692944 0.0102155 -9.3116e-19)
(-0.0842761 0.0262824 1.80153e-18)
(-0.109951 0.0445844 -8.0893e-22)
(-0.14011 0.058451 8.16669e-19)
(-0.166355 0.0629831 0)
(-0.184317 0.0582614 7.24247e-19)
(-0.193935 0.0475781 0)
(-0.19619 0.0340334 -3.34158e-19)
(-0.191518 0.0192759 5.77339e-22)
(-0.179806 0.00387221 0)
(-0.160608 -0.012128 0)
(-0.133245 -0.028743 1.05006e-22)
(-0.0970177 -0.0457161 -1.1323e-22)
(-0.0513463 -0.0622282 1.00366e-19)
(0.00373158 -0.0767295 0)
(0.066991 -0.0871289 -4.64442e-19)
(0.136011 -0.0915429 4.94398e-19)
(0.207593 -0.0891652 0)
(0.277714 -0.0800848 -1.08433e-18)
(0.342566 -0.0647203 0)
(0.399301 -0.0443146 1.96996e-21)
(0.44576 -0.0207198 0)
(0.480502 0.00395121 1.16593e-18)
(0.50283 0.0275129 1.1779e-18)
(0.512684 0.0478462 3.89834e-21)
(0.510633 0.0631102 -2.35105e-18)
(0.498204 0.0721504 0)
(0.478401 0.0749333 -1.83418e-21)
(0.455625 0.0726409 2.42561e-18)
(0.434901 0.0672678 8.15009e-22)
(0.420233 0.060898 2.49891e-18)
(0.414427 0.0552683 -5.90675e-22)
(0.41782 0.0514091 -7.34112e-22)
(0.431581 0.0501086 0)
(0.452835 0.0511999 0)
(0.486009 0.0554706 0)
(0.521692 0.0614089 0)
(0.57795 0.07176 0)
(0.622235 0.0814213 3.7964e-18)
(0.718226 0.0994014 0)
(0.755164 0.109658 0)
(0.943602 0.132356 -2.13766e-18)
(0.955055 0.12831 -1.93171e-18)
(0.735614 0.0718372 0)
(0.49476 0.0369324 -1.42291e-21)
(0.283987 0.0237896 -6.75954e-22)
(0.151013 0.0144357 0)
(0.0670004 0.0124269 2.26456e-18)
(0.0226259 0.0101032 -2.26802e-18)
(-0.00796857 0.0101471 0)
(-0.0247091 0.00947502 0)
(-0.0375423 0.00980388 -2.19021e-18)
(-0.0453598 0.0101713 0)
(-0.0522871 0.0107348 0)
(-0.0578895 0.0104325 -2.05809e-18)
(-0.0630843 0.00859764 0)
(-0.0667183 0.00495071 -1.97733e-18)
(-0.0682991 0.000591432 0)
(-0.0677443 -0.00185463 0)
(-0.0674699 0.00102508 5.22463e-22)
(-0.0720782 0.011448 0)
(-0.0859631 0.0285356 -8.92411e-19)
(-0.108855 0.0474515 8.51714e-19)
(-0.134654 0.061111 -1.60999e-18)
(-0.156052 0.0648035 7.55852e-19)
(-0.169865 0.0590994 -7.11487e-19)
(-0.176393 0.0475551 0)
(-0.176398 0.0332612 -3.27644e-19)
(-0.170039 0.0177877 6.49548e-19)
(-0.157021 0.00164527 0)
(-0.136785 -0.0151512 -8.39065e-20)
(-0.108609 -0.0326334 4.3818e-20)
(-0.0717476 -0.0505395 -4.64406e-20)
(-0.0255861 -0.068005 -9.96771e-20)
(0.029831 -0.0833712 0)
(0.0932039 -0.0944036 -4.59805e-19)
(0.162097 -0.0991076 4.90453e-19)
(0.233225 -0.0965891 0)
(0.30256 -0.0869174 1.08161e-18)
(0.36637 -0.0706042 0)
(0.421871 -0.0489965 1.13653e-18)
(0.466994 -0.0240399 0)
(0.500421 0.00206226 -1.1608e-18)
(0.521615 0.0270485 -1.17089e-18)
(0.530696 0.0487429 4.17384e-21)
(0.528354 0.0652411 2.32565e-18)
(0.516045 0.0752799 0)
(0.496475 0.0786776 -2.35831e-18)
(0.473688 0.0765053 0)
(0.452519 0.0707689 2.43248e-18)
(0.437045 0.0636935 0)
(0.430267 0.0572038 -2.50574e-18)
(0.432747 0.0524903 -5.05573e-18)
(0.445722 0.0504172 0)
(0.466453 0.0508651 0)
(0.499213 0.054575 0)
(0.534884 0.0600953 2.30842e-18)
(0.590999 0.0699898 0)
(0.635922 0.079429 -8.34722e-21)
(0.731744 0.0968227 0)
(0.770147 0.106935 1.72647e-18)
(0.957437 0.128515 2.12672e-18)
(0.961611 0.134802 0)
(0.768093 0.078693 3.22983e-18)
(0.541874 0.0431175 3.7479e-18)
(0.330885 0.0279753 -8.37284e-22)
(0.186858 0.0171239 0)
(0.0925511 0.0138243 -2.2492e-18)
(0.0401484 0.0108969 0)
(0.00460467 0.0105802 2.25095e-18)
(-0.0156262 0.00973293 2.22277e-18)
(-0.030786 0.00998601 2.18695e-18)
(-0.0401138 0.0103148 2.14352e-18)
(-0.0480057 0.0109022 2.09788e-18)
(-0.0543279 0.0106352 0)
(-0.0603159 0.00881737 0)
(-0.0649967 0.00512383 1.97034e-18)
(-0.0678495 0.000673134 0)
(-0.0685145 -0.00178457 0)
(-0.0689781 0.00138516 -1.87363e-18)
(-0.0734105 0.012507 0)
(-0.0857826 0.0304361 -8.85639e-19)
(-0.105525 0.0497848 0)
(-0.126902 0.0631514 7.94095e-19)
(-0.143741 0.0660574 -7.44282e-19)
(-0.153823 0.0595 0)
(-0.157605 0.0472162 0)
(-0.155589 0.0322586 4.4307e-22)
(-0.147685 0.0161252 -3.2035e-19)
(-0.133449 -0.00071834 0)
(-0.112223 -0.0182824 8.29927e-20)
(-0.0832562 -0.0366089 4.32215e-20)
(-0.0457616 -0.0554296 -4.58983e-20)
(0.000899847 -0.0738319 0)
(0.0566411 -0.0900378 0)
(0.120101 -0.101676 9.18041e-22)
(0.188813 -0.106637 -9.16321e-22)
(0.259415 -0.103942 0)
(0.327899 -0.0936486 0)
(0.390607 -0.0763642 1.10974e-18)
(0.444815 -0.0535409 0)
(0.488527 -0.027221 0)
(0.520522 0.000296086 0)
(0.540393 0.0266673 0)
(0.548432 0.0496589 2.31623e-18)
(0.545479 0.067315 2.29795e-18)
(0.532992 0.0782899 0)
(0.513464 0.0822771 0)
(0.490612 0.080238 2.36102e-18)
(0.46904 0.0741692 0)
(0.45282 0.0664112 0)
(0.445104 0.0590642 -2.4814e-18)
(0.446658 0.0534801 2.50684e-18)
(0.458805 0.0506072 0)
(0.478942 0.0503779 0)
(0.511215 0.0534928 0)
(0.54676 0.0585543 -2.29248e-18)
(0.602642 0.0679576 2.18495e-18)
(0.64801 0.0771197 -7.4743e-18)