/*--------------------------------*- C++ -*----------------------------------*\
| =========                 |                                                 |
| \\      /  F ield         | OpenFOAM: The Open Source CFD Toolbox           |
|  \\    /   O peration     | Version:  2.4.0                                 |
|   \\  /    A nd           | Web:      www.OpenFOAM.org                      |
|    \\/     M anipulation  |                                                 |
\*---------------------------------------------------------------------------*/
FoamFile
{
    version     2.0;
    format      ascii;
    class       surfaceScalarField;
    location    "1.61";
    object      phi;
}
// * * * * * * * * * * * * * * * * * * * * * * * * * * * * * * * * * * * * * //

dimensions      [0 3 -1 0 0 0 0];

internalField   nonuniform List<scalar> 
4456
(
2.43929e-06
6.07087e-08
2.25982e-06
1.79471e-07
2.53068e-06
-2.70857e-07
2.30109e-06
2.29587e-07
2.54415e-06
-2.43059e-07
2.39791e-06
1.46242e-07
2.55784e-06
-1.59937e-07
2.39962e-06
1.58225e-07
2.411e-06
-1.13782e-08
2.5225e-06
-1.11502e-07
2.5049e-06
1.75996e-08
2.65147e-06
-1.46573e-07
2.64163e-06
9.84209e-09
2.61299e-06
2.86425e-08
2.26298e-06
3.50012e-07
2.77132e-06
-5.08347e-07
2.40061e-06
3.70716e-07
2.53897e-06
-1.38365e-07
2.9069e-06
-3.67929e-07
6.27763e-07
2.27914e-06
2.46172e-06
9.8985e-08
2.50957e-06
1.31625e-07
2.5019e-06
-2.63186e-07
2.44198e-06
2.89506e-07
2.47686e-06
-2.77942e-07
2.47744e-06
1.45662e-07
2.56311e-06
-2.45608e-07
2.51097e-06
2.10371e-07
2.53807e-06
-3.84781e-08
2.51748e-06
-9.09151e-08
2.38375e-06
1.51331e-07
2.51429e-06
-2.77111e-07
2.56461e-06
-4.04774e-08
2.60581e-06
-1.25616e-08
2.47598e-06
4.79842e-07
2.56103e-06
-5.93402e-07
2.41635e-06
5.15405e-07
2.43763e-06
-1.59651e-07
2.55347e-06
-4.83762e-07
6.0602e-07
2.57521e-06
2.48218e-06
1.16802e-07
2.49151e-06
1.22298e-07
2.53312e-06
-3.04798e-07
2.56665e-06
2.5598e-07
2.49538e-06
-2.06677e-07
2.46052e-06
1.80522e-07
2.39649e-06
-1.8157e-07
2.53567e-06
7.11844e-08
2.44236e-06
5.48342e-08
2.53426e-06
-1.82817e-07
2.47367e-06
2.11927e-07
2.39575e-06
-1.99198e-07
2.44741e-06
-9.21385e-08
2.45391e-06
-1.90574e-08
2.56556e-06
3.68193e-07
2.45117e-06
-4.79016e-07
2.4936e-06
4.72978e-07
2.52897e-06
-1.95025e-07
2.32282e-06
-2.77606e-07
4.13634e-07
2.5152e-06
2.53024e-06
8.65581e-08
2.48584e-06
1.667e-07
2.4836e-06
-3.02557e-07
2.56437e-06
1.75209e-07
2.53231e-06
-1.74618e-07
2.52864e-06
1.84198e-07
2.41951e-06
-7.24392e-08
2.52135e-06
-3.06563e-08
2.48012e-06
9.60645e-08
2.52279e-06
-2.25492e-07
2.5418e-06
1.92917e-07
2.48638e-06
-1.43778e-07
2.40919e-06
-1.4951e-08
2.46694e-06
-7.67985e-08
2.544e-06
2.91124e-07
2.45387e-06
-3.8888e-07
2.57914e-06
3.47711e-07
2.48545e-06
-1.01337e-07
2.40291e-06
-1.9507e-07
3.39639e-07
2.47691e-06
2.53434e-06
5.22172e-08
2.54354e-06
1.57499e-07
2.46268e-06
-2.21692e-07
2.52355e-06
1.1434e-07
2.51066e-06
-1.61736e-07
2.54929e-06
1.45572e-07
2.49519e-06
-1.83379e-08
2.5088e-06
-4.42691e-08
2.5202e-06
8.46675e-08
2.50905e-06
-2.14347e-07
2.49728e-06
2.0469e-07
2.5114e-06
-1.57902e-07
2.46925e-06
2.72009e-08
2.47273e-06
-8.02756e-08
2.54796e-06
2.15893e-07
2.45055e-06
-2.91466e-07
2.58317e-06
2.15083e-07
2.51895e-06
-3.71096e-08
2.45531e-06
-1.31437e-07
2.41242e-07
2.55371e-06
2.51859e-06
3.36244e-08
2.54562e-06
1.30474e-07
2.49398e-06
-1.70056e-07
2.52648e-06
8.18455e-08
2.49105e-06
-1.26315e-07
2.51018e-06
1.26444e-07
2.4866e-06
5.24781e-09
2.52103e-06
-7.87007e-08
2.51063e-06
9.50623e-08
2.49425e-06
-1.97963e-07
2.51002e-06
1.8892e-07
2.48489e-06
-1.32768e-07
2.49462e-06
1.74685e-08
2.49326e-06
-7.89192e-08
2.5417e-06
1.67456e-07
2.46668e-06
-2.16443e-07
2.55119e-06
1.30568e-07
2.52236e-06
-8.27335e-09
2.46136e-06
-7.04407e-08
1.52154e-07
2.55045e-06
2.51467e-06
1.8953e-08
2.54735e-06
9.77939e-08
2.49431e-06
-1.1701e-07
2.51635e-06
5.97971e-08
2.47755e-06
-8.75133e-08
2.52095e-06
8.3046e-08
2.48931e-06
3.68866e-08
2.52024e-06
-1.09632e-07
2.51505e-06
1.00256e-07
2.46976e-06
-1.52671e-07
2.51757e-06
1.4111e-07
2.47878e-06
-9.39769e-08
2.49211e-06
4.13726e-09
2.49501e-06
-8.182e-08
2.50679e-06
1.55673e-07
2.49153e-06
-2.01186e-07
2.55033e-06
7.17725e-08
2.48232e-06
5.97399e-08
2.46375e-06
-5.18745e-08
8.15917e-08
2.53431e-06
2.51688e-06
2.06969e-09
2.54423e-06
7.04518e-08
2.49532e-06
-6.81036e-08
2.49575e-06
5.93664e-08
2.4888e-06
-8.05603e-08
2.52212e-06
4.97223e-08
2.50442e-06
5.45858e-08
2.51555e-06
-1.20763e-07
2.50251e-06
1.13298e-07
2.46675e-06
-1.16908e-07
2.50366e-06
1.04196e-07
2.5037e-06
-9.40212e-08
2.48902e-06
1.88208e-08
2.46308e-06
-5.58802e-08
2.51268e-06
1.0607e-07
2.48283e-06
-1.71327e-07
2.52544e-06
2.91619e-08
2.48001e-06
1.05162e-07
2.47304e-06
-4.48958e-08
1.77498e-08
2.53688e-06
2.51311e-06
-1.10436e-08
2.53784e-06
4.57299e-08
2.50566e-06
-3.593e-08
2.48841e-06
7.66184e-08
2.49487e-06
-8.70243e-08
2.52656e-06
1.80349e-08
2.49987e-06
8.12758e-08
2.50896e-06
-1.29847e-07
2.50873e-06
1.13525e-07
2.46536e-06
-7.35389e-08
2.51187e-06
5.76891e-08
2.51723e-06
-9.93836e-08
2.4759e-06
6.01477e-08
2.47423e-06
-5.42046e-08
2.51293e-06
6.73702e-08
2.49846e-06
-1.56857e-07
2.51613e-06
1.14902e-08
2.49511e-06
1.26178e-07
2.50009e-06
-4.98783e-08
-6.80628e-09
2.52465e-06
2.49941e-06
-1.04536e-08
2.51961e-06
2.55275e-08
2.50181e-06
-1.81314e-08
2.49446e-06
8.39728e-08
2.49343e-06
-8.5994e-08
2.52293e-06
-1.14611e-08
2.51462e-06
8.95775e-08
2.50061e-06
-1.15829e-07
2.52081e-06
9.33227e-08
2.4729e-06
-2.56283e-08
2.51666e-06
1.39246e-08
2.50528e-06
-8.7998e-08
2.48415e-06
8.12761e-08
2.47401e-06
-4.40644e-08
2.5111e-06
3.028e-08
2.49656e-06
-1.42319e-07
2.48995e-06
1.80962e-08
2.51076e-06
1.05366e-07
2.50343e-06
-4.25459e-08
-8.64387e-09
2.50527e-06
2.48458e-06
4.96786e-09
2.50515e-06
4.95913e-09
2.49922e-06
-1.22036e-08
2.52374e-06
5.94568e-08
2.48618e-06
-4.84386e-08
2.51257e-06
-3.7851e-08
2.51926e-06
8.28826e-08
2.49243e-06
-8.89969e-08
2.52414e-06
6.16125e-08
2.49379e-06
4.71927e-09
2.51864e-06
-1.09235e-08
2.48751e-06
-5.6866e-08
2.48473e-06
8.40562e-08
2.47036e-06
-2.96944e-08
2.51333e-06
-1.26878e-08
2.47336e-06
-1.02352e-07
2.47259e-06
1.88721e-08
2.52653e-06
5.14192e-08
2.49569e-06
-1.17026e-08
-1.35738e-08
2.50062e-06
2.50102e-06
3.95163e-09
2.49702e-06
8.95463e-09
2.50479e-06
-1.99718e-08
2.54364e-06
2.06102e-08
2.48139e-06
1.38023e-08
2.50569e-06
-6.21436e-08
2.5224e-06
6.61664e-08
2.49279e-06
-5.93858e-08
2.50506e-06
4.93466e-08
2.52368e-06
-1.39009e-08
2.51408e-06
-1.32085e-09
2.4812e-06
-2.39888e-08
2.51059e-06
5.46664e-08
2.48026e-06
6.32615e-10
2.51655e-06
-4.89773e-08
2.46548e-06
-5.12779e-08
2.47776e-06
6.5927e-09
2.51311e-06
1.60631e-08
2.5076e-06
-6.1932e-09
-9.21822e-09
2.50325e-06
2.51401e-06
-1.00548e-08
2.50017e-06
2.27875e-08
2.50717e-06
-2.69703e-08
2.5329e-06
-5.12258e-09
2.49669e-06
5.00142e-08
2.49351e-06
-5.8957e-08
2.52088e-06
3.87928e-08
2.49482e-06
-3.33236e-08
2.48515e-06
5.90176e-08
2.52802e-06
-5.67708e-08
2.49738e-06
2.93133e-08
2.48553e-06
-1.21347e-08
2.50289e-06
3.73023e-08
2.51051e-06
-6.98155e-09
2.50257e-06
-4.10375e-08
2.46496e-06
-1.36742e-08
2.48419e-06
-1.26389e-08
2.50124e-06
-9.82402e-10
2.50564e-06
-1.05885e-08
-1.70981e-08
2.51352e-06
2.51299e-06
-2.30399e-08
2.51554e-06
2.02318e-08
2.51264e-06
-2.40699e-08
2.49767e-06
9.85107e-09
2.50693e-06
4.07504e-08
2.48777e-06
-3.97995e-08
2.50542e-06
2.11506e-08
2.49658e-06
-2.4491e-08
2.4871e-06
6.84977e-08
2.50456e-06
-7.4233e-08
2.49012e-06
4.37607e-08
2.48849e-06
-1.05088e-08
2.50074e-06
2.50585e-08
2.52086e-06
-2.71109e-08
2.49618e-06
-1.6352e-08
2.47203e-06
1.04778e-08
2.48466e-06
-2.52742e-08
2.49635e-06
-1.26657e-08
2.49332e-06
-7.56709e-09
-3.03741e-08
2.5066e-06
2.50122e-06
-2.42576e-08
2.51609e-06
5.36048e-09
2.51672e-06
-2.46993e-08
2.48565e-06
4.09161e-08
2.50775e-06
1.8653e-08
2.4935e-06
-2.55473e-08
2.49135e-06
2.3301e-08
2.49578e-06
-2.89219e-08
2.50249e-06
6.17854e-08
2.49068e-06
-6.24195e-08
2.48207e-06
5.23716e-08
2.4943e-06
-2.27446e-08
2.49433e-06
2.50299e-08
2.51602e-06
-4.87989e-08
2.49391e-06
5.75742e-09
2.488e-06
1.639e-08
2.48547e-06
-2.2743e-08
2.49786e-06
-2.50579e-08
2.48733e-06
2.96551e-09
-3.50291e-08
2.49198e-06
2.49671e-06
-2.09689e-08
2.5047e-06
-2.63232e-09
2.50359e-06
-2.35819e-08
2.48267e-06
6.1834e-08
2.50819e-06
-6.86792e-09
2.48941e-06
-6.76674e-09
2.49577e-06
1.69361e-08
2.49045e-06
-2.35987e-08
2.51644e-06
3.57925e-08
2.48757e-06
-3.3546e-08
2.49169e-06
4.8251e-08
2.49972e-06
-3.07723e-08
2.49848e-06
2.62653e-08
2.5029e-06
-5.32109e-08
2.487e-06
2.1654e-08
2.50638e-06
-2.99299e-09
2.48748e-06
-3.83915e-09
2.50929e-06
-4.68732e-08
2.49034e-06
2.19176e-08
-3.63791e-08
2.49169e-06
2.49519e-06
-1.61588e-08
2.49953e-06
-6.97158e-09
2.48883e-06
-1.28844e-08
2.48953e-06
6.11315e-08
2.50381e-06
-2.11453e-08
2.49121e-06
5.83089e-09
2.49789e-06
1.02597e-08
2.49168e-06
-1.73864e-08
2.51199e-06
1.54784e-08
2.48671e-06
-8.26824e-09
2.50437e-06
3.05955e-08
2.50303e-06
-2.94337e-08
2.51069e-06
1.86063e-08
2.4963e-06
-3.88198e-08
2.48985e-06
2.81018e-08
2.50651e-06
-1.96533e-08
2.49505e-06
7.62135e-09
2.50248e-06
-5.4304e-08
2.49121e-06
3.31911e-08
-3.4031e-08
2.48886e-06
2.49706e-06
-1.32179e-08
2.48984e-06
2.47579e-10
2.4824e-06
-5.44384e-09
2.49919e-06
4.43433e-08
2.5049e-06
-2.68558e-08
2.49865e-06
1.20758e-08
2.51109e-06
-2.17307e-09
2.49259e-06
1.10864e-09
2.51289e-06
-4.82333e-09
2.48806e-06
1.65642e-08
2.51145e-06
7.20479e-09
2.50021e-06
-1.81942e-08
2.51242e-06
6.39289e-09
2.49297e-06
-1.93654e-08
2.5007e-06
2.03699e-08
2.5011e-06
-2.00524e-08
2.50832e-06
4.05697e-10
2.49176e-06
-3.77516e-08
2.49637e-06
2.85889e-08
-2.42898e-08
2.48663e-06
2.49179e-06
-5.01142e-09
2.48967e-06
2.37203e-09
2.48193e-06
2.29734e-09
2.50796e-06
1.8309e-08
2.49776e-06
-1.66535e-08
2.50051e-06
9.32858e-09
2.51074e-06
-1.24055e-08
2.49793e-06
1.39164e-08
2.50837e-06
-1.52616e-08
2.50312e-06
2.18169e-08
2.51686e-06
-6.53304e-09
2.49841e-06
2.54235e-10
2.51458e-06
-9.77542e-09
2.49222e-06
2.98844e-09
2.51188e-06
7.12787e-10
2.49624e-06
-4.41189e-09
2.50667e-06
-1.0029e-08
2.47982e-06
-1.08958e-08
2.49342e-06
1.49841e-08
-8.50645e-09
2.47764e-06
2.49499e-06
2.49736e-06
2.49966e-06
2.51797e-06
2.50131e-06
2.51064e-06
2.49824e-06
2.51215e-06
2.49689e-06
2.51871e-06
2.51218e-06
2.51243e-06
2.50265e-06
2.50564e-06
2.50636e-06
2.50194e-06
2.49191e-06
2.48102e-06
2.496e-06
2.4875e-06
2.58858e-06
-3.09441e-07
2.51989e-06
6.86853e-08
2.2112e-06
3.08694e-07
2.64863e-06
-4.37429e-07
2.60581e-06
4.28181e-08
1.92823e-06
6.77581e-07
2.65877e-06
-7.30538e-07
6.28061e-07
2.03071e-06
2.556e-06
-2.90237e-07
2.50379e-06
1.20902e-07
2.47753e-06
3.34956e-07
2.42319e-06
-3.83096e-07
2.5797e-06
-1.1369e-07
2.41939e-06
8.37895e-07
2.63758e-06
-9.48727e-07
4.70754e-07
2.79488e-06
2.39067e-06
-1.65703e-07
2.43454e-06
7.70299e-08
2.49602e-06
2.73479e-07
2.31578e-06
-2.02855e-07
2.46938e-06
-2.6729e-07
2.66223e-06
6.45041e-07
2.30664e-06
-5.93136e-07
2.28278e-07
2.54912e-06
2.4534e-06
-1.42194e-07
2.51071e-06
1.97213e-08
2.50444e-06
2.79745e-07
2.51976e-06
-2.18172e-07
2.4493e-06
-1.96831e-07
2.62661e-06
4.67734e-07
2.46446e-06
-4.30993e-07
2.78321e-07
2.41442e-06
2.55565e-06
-1.44131e-07
2.55751e-06
1.78607e-08
2.64384e-06
1.93411e-07
2.54763e-06
-1.21962e-07
2.52232e-06
-1.71522e-07
2.7008e-06
2.89261e-07
2.52379e-06
-2.53985e-07
1.91311e-07
2.6108e-06
2.54028e-06
-1.33966e-07
2.55142e-06
6.71878e-09
2.5994e-06
1.45431e-07
2.50589e-06
-2.84506e-08
2.52152e-06
-1.87153e-07
2.66278e-06
1.48005e-07
2.5031e-06
-9.4304e-08
5.00537e-08
2.64436e-06
2.50828e-06
-1.07933e-07
2.50988e-06
5.1202e-09
2.52243e-06
1.32877e-07
2.53393e-06
-3.9946e-08
2.49511e-06
-1.48334e-07
2.55752e-06
8.55892e-08
2.50345e-06
-4.02263e-08
1.94228e-08
2.53408e-06
2.50724e-06
-7.82986e-08
2.49535e-06
1.70172e-08
2.5217e-06
1.0652e-07
2.55408e-06
-7.23211e-08
2.51429e-06
-1.08547e-07
2.51463e-06
8.52549e-08
2.4889e-06
-1.44957e-08
-3.45199e-08
2.54284e-06
2.50699e-06
-6.06343e-08
2.47413e-06
4.98756e-08
2.51861e-06
6.20384e-08
2.55576e-06
-1.09475e-07
2.50464e-06
-5.74282e-08
2.53875e-06
5.11504e-08
2.49697e-06
2.72865e-08
-7.6179e-08
2.53863e-06
2.48556e-06
-4.09195e-08
2.47264e-06
6.2793e-08
2.52551e-06
9.17039e-09
2.51702e-06
-1.00987e-07
2.51582e-06
-5.62253e-08
2.50803e-06
5.89329e-08
2.51842e-06
1.68986e-08
-9.20425e-08
2.53428e-06
2.45937e-06
3.34335e-10
2.49257e-06
2.95913e-08
2.52422e-06
-2.24832e-08
2.49047e-06
-6.72345e-08
2.49564e-06
-6.13942e-08
2.50838e-06
4.61957e-08
2.52463e-06
6.47937e-10
-7.93827e-08
2.51197e-06
2.47132e-06
3.2265e-08
2.50699e-06
-6.08262e-09
2.51265e-06
-2.8141e-08
2.49689e-06
-5.1473e-08
2.47251e-06
-3.7017e-08
2.49315e-06
2.55524e-08
2.53996e-06
-4.61613e-08
-4.70483e-08
2.50763e-06
2.50151e-06
4.42748e-08
2.52602e-06
-3.05926e-08
2.50834e-06
-1.0468e-08
2.50628e-06
-4.9411e-08
2.46949e-06
-2.26358e-10
2.49261e-06
2.43528e-09
2.5173e-06
-7.08495e-08
-5.03367e-08
2.52058e-06
2.50986e-06
4.10152e-08
2.52624e-06
-4.69735e-08
2.50098e-06
1.47936e-08
2.51423e-06
-6.26607e-08
2.48035e-06
3.36525e-08
2.49898e-06
-1.61898e-08
2.5107e-06
-8.25721e-08
-5.66448e-08
2.51701e-06
2.49836e-06
3.46359e-08
2.51757e-06
-6.61798e-08
2.48561e-06
4.67466e-08
2.51059e-06
-8.76322e-08
2.4803e-06
6.3942e-08
2.51088e-06
-4.67693e-08
2.48583e-06
-5.75308e-08
-8.74474e-08
2.51664e-06
2.48548e-06
4.08512e-08
2.51152e-06
-9.22225e-08
2.48322e-06
7.50428e-08
2.50073e-06
-1.05139e-07
2.48074e-06
8.39362e-08
2.5153e-06
-8.13373e-08
2.47193e-06
-1.41541e-08
-1.17076e-07
2.50156e-06
2.47493e-06
5.47837e-08
2.50255e-06
-1.19843e-07
2.48199e-06
9.55988e-08
2.5036e-06
-1.26745e-07
2.46906e-06
1.18479e-07
2.5189e-06
-1.3118e-07
2.45014e-06
5.46009e-08
-1.67449e-07
2.50052e-06
2.474e-06
6.74101e-08
2.49609e-06
-1.41935e-07
2.47793e-06
1.13762e-07
2.50719e-06
-1.5601e-07
2.45616e-06
1.69513e-07
2.50431e-06
-1.79333e-07
2.426e-06
1.32917e-07
-2.41495e-07
2.50004e-06
2.49152e-06
5.35292e-08
2.47271e-06
-1.23124e-07
2.47687e-06
1.09605e-07
2.48264e-06
-1.61784e-07
2.41979e-06
2.32363e-07
2.44849e-06
-2.0803e-07
2.37515e-06
2.06256e-07
-3.30605e-07
2.46426e-06
2.48067e-06
6.03569e-08
2.43884e-06
-8.12946e-08
2.4597e-06
8.87426e-08
2.37804e-06
-8.0123e-08
2.38027e-06
2.30131e-07
2.32585e-06
-1.5361e-07
2.272e-06
2.60104e-07
2.26571e-06
-3.24308e-07
2.02919e-06
1.52073e-09
2.79816e-06
-7.68972e-07
2.49281e-06
3.05345e-07
2.29058e-06
2.02228e-07
2.78948e-06
-4.98896e-07
2.19925e-06
5.90226e-07
2.24319e-06
-4.39359e-08
3.01495e-06
-7.71761e-07
2.51029e-06
5.04657e-07
2.98906e-06
-4.78761e-07
3.01921e-06
-3.01541e-08
3.22542e-06
-2.06214e-07
3.7007e-06
-4.75278e-07
4.15092e-06
-4.50215e-07
4.09684e-06
5.40744e-08
4.6545e-06
-5.57662e-07
4.70826e-06
-5.37581e-08
5.45353e-06
-7.45262e-07
5.77382e-06
-3.20294e-07
6.36458e-06
-5.90763e-07
6.69439e-06
-3.29812e-07
7.14193e-06
-4.47533e-07
7.23717e-06
-9.52454e-08
7.44652e-06
-2.09346e-07
7.27828e-06
1.68241e-07
7.23206e-06
4.62165e-08
6.6992e-06
5.32858e-07
4.47952e-07
6.25125e-06
2.46658e-06
3.29818e-07
2.60924e-06
-9.1163e-07
2.70928e-06
2.05309e-07
2.48008e-06
4.31427e-07
2.79807e-06
-8.1689e-07
3.09913e-06
2.89173e-07
2.78657e-06
2.68626e-07
2.92173e-06
-9.06927e-07
2.90459e-06
5.218e-07
2.86842e-06
-4.42594e-07
2.73751e-06
1.00762e-07
2.88804e-06
-3.56746e-07
3.31179e-06
-8.99032e-07
3.48897e-06
-6.2739e-07
3.77558e-06
-2.32535e-07
4.26972e-06
-1.05181e-06
4.56666e-06
-3.50698e-07
5.13875e-06
-1.31735e-06
5.4969e-06
-6.78446e-07
5.956e-06
-1.04986e-06
6.32392e-06
-6.97733e-07
6.61857e-06
-7.42191e-07
6.8445e-06
-3.21167e-07
6.88461e-06
-2.49461e-07
6.95027e-06
1.02583e-07
6.70811e-06
2.88377e-07
6.5562e-06
6.84767e-07
9.04519e-07
6.09963e-06
2.64579e-06
2.3315e-07
2.34648e-06
-6.12324e-07
2.68232e-06
-1.30529e-07
2.80073e-06
3.13012e-07
2.39237e-06
-4.08527e-07
2.70663e-06
-2.50852e-08
2.90897e-06
6.62836e-08
2.86029e-06
-8.58248e-07
2.70457e-06
6.77523e-07
3.01075e-06
-7.48777e-07
3.06601e-06
4.54988e-08
3.25262e-06
-5.43353e-07
3.60511e-06
-1.25152e-06
3.57299e-06
-5.95274e-07
4.01771e-06
-6.77253e-07
4.40518e-06
-1.43928e-06
4.88776e-06
-8.33272e-07
5.37271e-06
-1.8023e-06
5.86409e-06
-1.16983e-06
6.27232e-06
-1.45809e-06
6.67788e-06
-1.10329e-06
6.8717e-06
-9.36019e-07
7.09568e-06
-5.45142e-07
7.12073e-06
-2.74509e-07
7.15865e-06
6.4659e-08
6.95004e-06
4.96983e-07
6.83384e-06
8.00976e-07
1.38799e-06
6.35037e-06
2.6321e-06
1.54697e-08
2.42205e-06
-4.02277e-07
2.4847e-06
-1.9317e-07
2.67687e-06
1.20836e-07
2.45917e-06
-1.90829e-07
2.73047e-06
-2.96385e-07
2.66212e-06
1.34641e-07
2.62296e-06
-8.19094e-07
2.90797e-06
3.92511e-07
2.99225e-06
-8.33057e-07
3.13363e-06
-9.58766e-08
3.39147e-06
-8.01191e-07
3.39704e-06
-1.25709e-06
3.66244e-06
-8.60678e-07
4.08391e-06
-1.09872e-06
4.29296e-06
-1.64833e-06
4.90083e-06
-1.44114e-06
5.29996e-06
-2.20143e-06
5.82181e-06
-1.69168e-06
6.21433e-06
-1.85061e-06
6.64997e-06
-1.53893e-06
6.84545e-06
-1.1315e-06
7.14843e-06
-8.48123e-07
7.19167e-06
-3.17742e-07
7.24908e-06
7.24076e-09
7.09179e-06
6.54275e-07
6.96507e-06
9.27702e-07
1.74907e-06
6.60398e-06
2.60398e-06
2.22834e-08
2.59323e-06
-3.91526e-07
2.51593e-06
-1.15868e-07
2.58057e-06
5.61997e-08
2.57391e-06
-1.84168e-07
2.66835e-06
-3.9083e-07
2.73049e-06
7.25051e-08
2.65191e-06
-7.40518e-07
2.92959e-06
1.14828e-07
2.80733e-06
-7.10791e-07
3.20071e-06
-4.89261e-07
3.37356e-06
-9.74042e-07
3.28617e-06
-1.1697e-06
3.70144e-06
-1.27595e-06
3.91048e-06
-1.30776e-06
4.22515e-06
-1.963e-06
4.9029e-06
-2.11889e-06
5.26037e-06
-2.55889e-06
5.83763e-06
-2.26894e-06
6.29472e-06
-2.3077e-06
6.72043e-06
-1.96464e-06
6.99049e-06
-1.40156e-06
7.27969e-06
-1.13733e-06
7.34451e-06
-3.82557e-07
7.38797e-06
-3.62181e-08
7.24778e-06
7.94462e-07
7.05598e-06
1.1195e-06
2.05787e-06
6.74719e-06
2.64557e-06
2.10733e-08
2.56489e-06
-3.10848e-07
2.51807e-06
-6.90459e-08
2.64157e-06
-6.73076e-08
2.59922e-06
-1.41811e-07
2.57227e-06
-3.63884e-07
2.75959e-06
-1.1481e-07
2.66816e-06
-6.49093e-07
2.84906e-06
-6.60721e-08
2.88575e-06
-7.47479e-07
3.06455e-06
-6.68068e-07
3.09613e-06
-1.00561e-06
3.35318e-06
-1.42675e-06
3.57949e-06
-1.50226e-06
3.84771e-06
-1.57597e-06
4.29475e-06
-2.41005e-06
4.82641e-06
-2.65056e-06
5.21018e-06
-2.94266e-06
5.8695e-06
-2.92826e-06
6.36116e-06
-2.79936e-06
6.80529e-06
-2.40878e-06
7.12609e-06
-1.72236e-06
7.39553e-06
-1.40677e-06
7.47434e-06
-4.61364e-07
7.51765e-06
-7.95271e-08
7.39768e-06
9.14433e-07
7.20297e-06
1.31421e-06
2.33857e-06
6.92227e-06
2.5988e-06
-4.36474e-08
2.54176e-06
-2.53814e-07
2.50533e-06
-3.26153e-08
2.54358e-06
-1.05555e-07
2.58062e-06
-1.78855e-07
2.61812e-06
-4.01381e-07
2.63771e-06
-1.344e-07
2.56629e-06
-5.77671e-07
2.77594e-06
-2.75722e-07
2.7652e-06
-7.36737e-07
2.90733e-06
-8.10205e-07
3.09926e-06
-1.19754e-06
3.21315e-06
-1.54064e-06
3.41799e-06
-1.70709e-06
3.86326e-06
-2.02125e-06
4.18241e-06
-2.7292e-06
4.69016e-06
-3.1583e-06
5.28757e-06
-3.54007e-06
5.95749e-06
-3.59818e-06
6.41154e-06
-3.25341e-06
6.7917e-06
-2.78894e-06
7.10262e-06
-2.03327e-06
7.30177e-06
-1.60592e-06
7.35723e-06
-5.1682e-07
7.38833e-06
-1.10628e-07
7.29873e-06
1.00403e-06
7.1403e-06
1.47264e-06
2.52763e-06
6.95124e-06
2.55582e-06
-5.66307e-08
2.51725e-06
-2.15243e-07
2.54029e-06
-5.56556e-08
2.52228e-06
-8.75472e-08
2.55466e-06
-2.11235e-07
2.54184e-06
-3.88561e-07
2.6355e-06
-2.28054e-07
2.59119e-06
-5.33361e-07
2.66212e-06
-3.46659e-07
2.68285e-06
-7.57461e-07
2.84132e-06
-9.68681e-07
2.92115e-06
-1.27736e-06
3.12026e-06
-1.73975e-06
3.4378e-06
-2.02464e-06
3.72367e-06
-2.30712e-06
4.05486e-06
-3.06039e-06
4.74998e-06
-3.85341e-06
5.39073e-06
-4.18082e-06
5.87306e-06
-4.08051e-06
6.2178e-06
-3.59815e-06
6.50895e-06
-3.08009e-06
6.74216e-06
-2.26649e-06
6.81889e-06
-1.68265e-06
6.88082e-06
-5.78748e-07
6.88127e-06
-1.11079e-07
6.83214e-06
1.05315e-06
6.73094e-06
1.57384e-06
2.59736e-06
6.66122e-06
2.56915e-06
-8.71573e-08
2.52301e-06
-1.69101e-07
2.52684e-06
-5.94853e-08
2.53081e-06
-9.15136e-08
2.5611e-06
-2.41524e-07
2.52223e-06
-3.49692e-07
2.58985e-06
-2.95675e-07
2.5505e-06
-4.94013e-07
2.65554e-06
-4.51703e-07
2.68798e-06
-7.89896e-07
2.70449e-06
-9.85191e-07
2.82581e-06
-1.39869e-06
3.04435e-06
-1.95828e-06
3.20775e-06
-2.18805e-06
3.54889e-06
-2.64826e-06
4.12423e-06
-3.63572e-06
4.74442e-06
-4.47361e-06
5.1756e-06
-4.612e-06
5.4709e-06
-4.37581e-06
5.71359e-06
-3.84084e-06
5.89029e-06
-3.25679e-06
6.00317e-06
-2.37937e-06
5.99718e-06
-1.67666e-06
6.06903e-06
-6.50603e-07
6.02818e-06
-7.02309e-08
6.00604e-06
1.0753e-06
5.94752e-06
1.63236e-06
2.56734e-06
5.97754e-06
2.51488e-06
-6.77548e-08
2.51268e-06
-1.66899e-07
2.5244e-06
-7.1204e-08
2.53225e-06
-9.93699e-08
2.51054e-06
-2.19807e-07
2.49118e-06
-3.30335e-07
2.55907e-06
-3.63566e-07
2.50545e-06
-4.40392e-07
2.59569e-06
-5.41943e-07
2.5972e-06
-7.91406e-07
2.62488e-06
-1.01287e-06
2.77462e-06
-1.54843e-06
2.85948e-06
-2.04315e-06
3.04587e-06
-2.37444e-06
3.52827e-06
-3.13066e-06
4.02584e-06
-4.13329e-06
4.39843e-06
-4.8462e-06
4.68671e-06
-4.90027e-06
4.85636e-06
-4.54545e-06
4.9536e-06
-3.93808e-06
4.98371e-06
-3.28691e-06
5.0155e-06
-2.41116e-06
5.00621e-06
-1.66737e-06
5.09354e-06
-7.37934e-07
5.03643e-06
-1.31206e-08
5.04863e-06
1.0631e-06
5.02394e-06
1.65705e-06
2.52455e-06
5.06672e-06
2.52713e-06
-8.29148e-08
2.48369e-06
-1.23459e-07
2.49731e-06
-8.48258e-08
2.55054e-06
-1.52597e-07
2.48779e-06
-1.57065e-07
2.49054e-06
-3.33079e-07
2.47932e-06
-3.52353e-07
2.48707e-06
-4.48137e-07
2.56856e-06
-6.2343e-07
2.52749e-06
-7.50341e-07
2.59377e-06
-1.07914e-06
2.65118e-06
-1.60584e-06
2.67793e-06
-2.0699e-06
2.94828e-06
-2.6448e-06
3.3884e-06
-3.57078e-06
3.73618e-06
-4.48106e-06
3.96737e-06
-5.07739e-06
4.06534e-06
-4.99824e-06
4.02349e-06
-4.5036e-06
4.00682e-06
-3.92141e-06
3.97941e-06
-3.2595e-06
3.98053e-06
-2.41227e-06
3.97035e-06
-1.65719e-06
3.98344e-06
-7.5103e-07
3.91796e-06
5.23643e-08
3.98035e-06
1.00071e-06
3.99922e-06
1.63818e-06
2.46097e-06
4.0628e-06
2.52925e-06
-1.04536e-07
2.47824e-06
-7.24502e-08
2.50827e-06
-1.14856e-07
2.52018e-06
-1.64504e-07
2.49715e-06
-1.34033e-07
2.48902e-06
-3.24948e-07
2.44942e-06
-3.12757e-07
2.47264e-06
-4.71357e-07
2.46732e-06
-6.18108e-07
2.47785e-06
-7.60875e-07
2.53059e-06
-1.13188e-06
2.49793e-06
-1.57318e-06
2.53469e-06
-2.10666e-06
2.7833e-06
-2.89341e-06
3.11611e-06
-3.90359e-06
3.31293e-06
-4.67789e-06
3.317e-06
-5.08146e-06
3.20941e-06
-4.89065e-06
3.08215e-06
-4.37634e-06
2.98484e-06
-3.8241e-06
2.85576e-06
-3.13042e-06
2.76723e-06
-2.32374e-06
2.70021e-06
-1.59017e-06
2.67579e-06
-7.26611e-07
2.6554e-06
7.27575e-08
2.77791e-06
8.7819e-07
2.81858e-06
1.59752e-06
2.35911e-06
2.92044e-06
2.51561e-06
-9.95613e-08
2.48869e-06
-4.55325e-08
2.50705e-06
-1.33218e-07
2.48338e-06
-1.4083e-07
2.50388e-06
-1.54535e-07
2.45344e-06
-2.74508e-07
2.41967e-06
-2.78985e-07
2.43383e-06
-4.85514e-07
2.39243e-06
-5.76713e-07
2.38939e-06
-7.57831e-07
2.37473e-06
-1.11722e-06
2.32698e-06
-1.52543e-06
2.37821e-06
-2.15789e-06
2.5774e-06
-3.09259e-06
2.7632e-06
-4.08939e-06
2.72882e-06
-4.64351e-06
2.53158e-06
-4.88421e-06
2.30856e-06
-4.66764e-06
2.05337e-06
-4.12115e-06
1.79975e-06
-3.57048e-06
1.5963e-06
-2.92696e-06
1.51128e-06
-2.23873e-06
1.4276e-06
-1.50649e-06
1.38554e-06
-6.84556e-07
1.40556e-06
5.27368e-08
1.48123e-06
8.02523e-07
1.55886e-06
1.51989e-06
2.19783e-06
1.72014e-06
2.49844e-06
-8.09904e-08
2.49755e-06
-4.4647e-08
2.50346e-06
-1.39127e-07
2.4651e-06
-1.02475e-07
2.47095e-06
-1.60381e-07
2.43982e-06
-2.43379e-07
2.40547e-06
-2.44635e-07
2.36907e-06
-4.4911e-07
2.32573e-06
-5.3338e-07
2.31922e-06
-7.51312e-07
2.25458e-06
-1.05259e-06
2.15959e-06
-1.43044e-06
2.17892e-06
-2.17722e-06
2.2773e-06
-3.19098e-06
2.23914e-06
-4.05123e-06
2.02253e-06
-4.42689e-06
1.66809e-06
-4.52978e-06
1.28852e-06
-4.28807e-06
9.41321e-07
-3.77395e-06
6.47003e-07
-3.27616e-06
3.82058e-07
-2.66202e-06
1.49634e-07
-2.0063e-06
5.95301e-09
-1.36281e-06
2.9758e-09
-6.81579e-07
3.92778e-08
1.64348e-08
7.84599e-08
7.63341e-07
2.57444e-07
1.34091e-06
1.94047e-06
5.14808e-07
2.50273e-06
-6.70834e-08
2.4995e-06
-4.1421e-08
2.49756e-06
-1.37182e-07
2.46461e-06
-6.95222e-08
2.46473e-06
-1.60506e-07
2.40849e-06
-1.87143e-07
2.39144e-06
-2.27583e-07
2.34307e-06
-4.00739e-07
2.26422e-06
-4.54526e-07
2.23137e-06
-7.18462e-07
2.12476e-06
-9.45975e-07
2.01091e-06
-1.31659e-06
1.96762e-06
-2.13393e-06
1.89945e-06
-3.12281e-06
1.64959e-06
-3.80137e-06
1.24996e-06
-4.02726e-06
7.31114e-07
-4.01093e-06
2.45146e-07
-3.8021e-06
-1.95165e-07
-3.33364e-06
-5.92893e-07
-2.87844e-06
-9.05311e-07
-2.3496e-06
-1.1354e-06
-1.77621e-06
-1.30277e-06
-1.19543e-06
-1.37504e-06
-6.09312e-07
-1.38087e-06
2.22691e-08
-1.2499e-06
6.32373e-07
-1.06683e-06
1.15783e-06
1.72533e-06
-8.51694e-07
2.5029e-06
-6.84243e-08
2.51628e-06
-5.48047e-08
2.48467e-06
-1.05571e-07
2.45787e-06
-4.27192e-08
2.44722e-06
-1.49863e-07
2.40254e-06
-1.42458e-07
2.36628e-06
-1.91329e-07
2.29014e-06
-3.24599e-07
2.22679e-06
-3.91169e-07
2.14419e-06
-6.35871e-07
2.00893e-06
-8.1071e-07
1.84109e-06
-1.14875e-06
1.6802e-06
-1.97304e-06
1.41203e-06
-2.85464e-06
9.15713e-07
-3.30506e-06
3.84274e-07
-3.49583e-06
-1.98126e-07
-3.42853e-06
-7.86973e-07
-3.21325e-06
-1.31082e-06
-2.80979e-06
-1.78608e-06
-2.40318e-06
-2.17295e-06
-1.96274e-06
-2.46584e-06
-1.48332e-06
-2.65193e-06
-1.00934e-06
-2.73517e-06
-5.26071e-07
-2.72633e-06
1.34334e-08
-2.60174e-06
5.0778e-07
-2.41524e-06
9.71337e-07
1.41382e-06
-2.10373e-06
2.50619e-06
-7.41009e-08
2.50558e-06
-5.41968e-08
2.48298e-06
-8.29706e-08
2.46471e-06
-2.44429e-08
2.42686e-06
-1.12018e-07
2.38965e-06
-1.05244e-07
2.35689e-06
-1.58574e-07
2.26517e-06
-2.32871e-07
2.1733e-06
-2.99299e-07
2.05672e-06
-5.19291e-07
1.90576e-06
-6.59749e-07
1.69974e-06
-9.4273e-07
1.37876e-06
-1.65206e-06
8.72602e-07
-2.34848e-06
2.09855e-07
-2.64231e-06
-4.83797e-07
-2.80217e-06
-1.1668e-06
-2.74553e-06
-1.8352e-06
-2.54485e-06
-2.41754e-06
-2.22745e-06
-2.94484e-06
-1.87588e-06
-3.37865e-06
-1.52893e-06
-3.70492e-06
-1.15705e-06
-3.91908e-06
-7.95178e-07
-4.03333e-06
-4.1183e-07
-4.02466e-06
4.76934e-09
-3.90148e-06
3.84603e-07
-3.6719e-06
7.41755e-07
1.09709e-06
-3.35518e-06
2.50225e-06
-7.63119e-08
2.49346e-06
-4.53998e-08
2.45618e-06
-4.56962e-08
2.45621e-06
-2.44757e-08
2.42029e-06
-7.60936e-08
2.36424e-06
-4.91976e-08
2.33024e-06
-1.24572e-07
2.24459e-06
-1.47218e-07
2.13926e-06
-1.93969e-07
1.97847e-06
-3.58508e-07
1.77324e-06
-4.54519e-07
1.53041e-06
-6.99896e-07
1.09575e-06
-1.2174e-06
4.12252e-07
-1.66499e-06
-4.04584e-07
-1.82547e-06
-1.22812e-06
-1.97864e-06
-2.04237e-06
-1.93127e-06
-2.83457e-06
-1.75266e-06
-3.50787e-06
-1.55414e-06
-4.08191e-06
-1.30184e-06
-4.55424e-06
-1.05659e-06
-4.91031e-06
-8.0098e-07
-5.1506e-06
-5.54886e-07
-5.27226e-06
-2.9017e-07
-5.27003e-06
2.53476e-09
-5.13951e-06
2.54086e-07
-4.90667e-06
5.08917e-07
7.66088e-07
-4.57567e-06
2.44186e-06
-5.3908e-08
2.42563e-06
-2.91777e-08
2.39955e-06
-1.9608e-08
2.39054e-06
-1.54733e-08
2.35356e-06
-3.91095e-08
2.31497e-06
-1.06052e-08
2.25324e-06
-6.2842e-08
2.17253e-06
-6.65158e-08
2.06592e-06
-8.73498e-08
1.88344e-06
-1.76036e-07
1.64401e-06
-2.15082e-07
1.31607e-06
-3.71956e-07
7.75832e-07
-6.77163e-07
-1.73619e-08
-8.71792e-07
-9.41862e-07
-9.00975e-07
-1.90374e-06
-1.01676e-06
-2.8377e-06
-9.97311e-07
-3.69252e-06
-8.97836e-07
-4.44319e-06
-8.03482e-07
-5.0687e-06
-6.76329e-07
-5.57354e-06
-5.51752e-07
-5.9572e-06
-4.17319e-07
-6.21698e-06
-2.95103e-07
-6.35287e-06
-1.54283e-07
-6.3428e-06
-7.53513e-09
-6.21524e-06
1.26523e-07
-5.9666e-06
2.60277e-07
3.94923e-07
-5.59543e-06
2.2118e-06
2.18262e-06
2.16301e-06
2.14754e-06
2.10843e-06
2.09783e-06
2.03498e-06
1.96847e-06
1.88112e-06
1.70508e-06
1.49e-06
1.11804e-06
4.4088e-07
-4.30912e-07
-1.33189e-06
-2.34865e-06
-3.34596e-06
-4.24379e-06
-5.04728e-06
-5.72361e-06
-6.27536e-06
-6.69268e-06
-6.98778e-06
-7.14206e-06
-7.1496e-06
-7.02307e-06
-6.7628e-06
-6.36787e-06
5.54725e-06
1.79392e-06
-1.08992e-06
4.43815e-06
1.64352e-06
-5.34423e-07
3.51272e-06
1.92357e-06
-9.98139e-07
3.02827e-06
2.1337e-06
-1.64926e-06
2.93051e-06
4.55959e-07
-3.58201e-07
3.10188e-06
-8.25503e-07
6.5414e-07
1.73543e-06
-3.06364e-06
4.43009e-06
-4.29187e-06
-6.25154e-07
6.65245e-06
6.11884e-06
1.77471e-06
5.33743e-06
2.42494e-06
5.5381e-06
1.7229e-06
5.0634e-06
2.60841e-06
4.61441e-06
9.04943e-07
4.08083e-06
-2.91918e-07
3.13117e-06
-2.11398e-06
-3.72668e-06
2.56598e-06
6.34181e-06
1.78327e-06
5.99052e-06
2.77622e-06
5.77661e-06
1.93682e-06
5.80841e-06
2.5766e-06
5.40351e-06
1.30985e-06
4.60382e-06
5.07776e-07
3.74299e-06
-1.25316e-06
-1.06435e-06
1.08067e-06
6.47082e-06
1.91643e-06
6.29091e-06
2.95612e-06
5.81765e-06
2.41008e-06
5.77053e-06
2.62373e-06
5.15778e-06
1.92259e-06
4.52403e-06
1.14152e-06
2.95574e-06
3.15139e-07
5.15356e-07
1.37603e-06
6.45804e-06
2.20558e-06
6.26791e-06
3.14625e-06
5.86897e-06
2.80903e-06
5.56798e-06
2.92472e-06
5.05261e-06
2.43796e-06
4.464e-06
1.73013e-06
3.33837e-06
1.44077e-06
9.99453e-07
2.85428e-06
6.57337e-06
2.55448e-06
6.28793e-06
3.43169e-06
5.83925e-06
3.25771e-06
5.4844e-06
3.27956e-06
4.94906e-06
2.9733e-06
4.30794e-06
2.37125e-06
3.59352e-06
2.15519e-06
1.66884e-06
2.92413e-06
6.637e-06
2.86872e-06
6.34304e-06
3.72564e-06
5.82645e-06
3.7743e-06
5.41868e-06
3.68734e-06
4.84185e-06
3.55012e-06
4.31407e-06
2.89903e-06
3.66396e-06
2.8053e-06
2.17082e-06
3.16199e-06
6.42711e-06
3.10283e-06
6.25746e-06
3.89529e-06
5.79498e-06
4.23678e-06
5.36141e-06
4.1209e-06
4.7902e-06
4.12134e-06
4.27203e-06
3.4172e-06
3.68251e-06
3.39482e-06
2.53632e-06
3.317e-06
5.85678e-06
3.22358e-06
5.82691e-06
3.92517e-06
5.5605e-06
4.50318e-06
5.23546e-06
4.44594e-06
4.76069e-06
4.59611e-06
4.29633e-06
3.88156e-06
3.82233e-06
3.86882e-06
3.01843e-06
3.34022e-06
5.05057e-06
3.23974e-06
5.10263e-06
3.87311e-06
5.01279e-06
4.59302e-06
4.88753e-06
4.5712e-06
4.5715e-06
4.91215e-06
4.22396e-06
4.2291e-06
3.88997e-06
4.20281e-06
3.39223e-06
3.51617e-06
4.11015e-06
3.19239e-06
4.23994e-06
3.74333e-06
4.2838e-06
4.54916e-06
4.36459e-06
4.49041e-06
4.27819e-06
4.99855e-06
4.05451e-06
4.45278e-06
3.8059e-06
4.45142e-06
3.6803e-06
3.51783e-06
3.07571e-06
3.03711e-06
3.25471e-06
3.56433e-06
3.38622e-06
4.41765e-06
3.59886e-06