/*--------------------------------*- C++ -*----------------------------------*\
| =========                 |                                                 |
| \\      /  F ield         | OpenFOAM: The Open Source CFD Toolbox           |
|  \\    /   O peration     | Version:  2.4.0                                 |
|   \\  /    A nd           | Web:      www.OpenFOAM.org                      |
|    \\/     M anipulation  |                                                 |
\*---------------------------------------------------------------------------*/
FoamFile
{
    version     2.0;
    format      ascii;
    class       volScalarField;
    location    "7.09";
    object      k;
}
// * * * * * * * * * * * * * * * * * * * * * * * * * * * * * * * * * * * * * //

dimensions      [0 2 -2 0 0 0 0];

internalField   nonuniform List<scalar> 
6000
(
0.168224
0.0132713
0.000978396
0.00362165
0.00250563
0.00292587
0.00242115
0.00239035
0.00212352
0.00204752
0.00191193
0.00187101
0.00182966
0.00184579
0.00188134
0.00195764
0.00205932
0.00219441
0.00235691
0.00254988
0.00277076
0.00302001
0.00329537
0.00359493
0.00391497
0.00425122
0.00459818
0.00494936
0.00529667
0.00563053
0.00593997
0.00621271
0.00643543
0.00659404
0.00667375
0.00666099
0.00654397
0.00631257
0.00596272
0.00549476
0.00492424
0.00427502
0.00360055
0.00295693
0.00395881
0.00523608
0.00675837
0.00867395
0.0108056
0.0135443
0.0162771
0.0201931
0.0233628
0.0293851
0.0323492
0.0430167
0.0436353
0.0660845
0.0588492
0.110383
0.0762047
0.0101514
0.000944412
0.00240532
0.00171405
0.00192194
0.00160821
0.00156862
0.00140051
0.00134362
0.00125727
0.00122703
0.00119994
0.00120736
0.00122816
0.00127334
0.00133429
0.00141477
0.0015113
0.00162506
0.00175442
0.00189931
0.00205836
0.00223045
0.00241368
0.00260603
0.00280504
0.00300794
0.00321143
0.00341168
0.00360448
0.00378525
0.00394916
0.00409104
0.00420584
0.00428905
0.00433722
0.00434799
0.00432192
0.00426222
0.0041792
0.00408756
0.00401
0.00393688
0.00442644
0.00499826
0.00566508
0.00649495
0.00742389
0.00861313
0.00982489
0.0115359
0.0129966
0.0156245
0.0171362
0.0217231
0.0225571
0.0319765
0.0301855
0.0511503
0.0412217
0.00803009
0.000973257
0.0016881
0.00122335
0.00131291
0.00110711
0.0010668
0.000956919
0.000914742
0.000859413
0.000839341
0.000824445
0.000832036
0.000850204
0.000884768
0.000930947
0.00099064
0.00106197
0.00114555
0.00124058
0.00134709
0.00146452
0.00159244
0.00173014
0.00187691
0.00203191
0.00219428
0.00236299
0.00253692
0.00271493
0.00289594
0.00307895
0.00326287
0.00344669
0.00363003
0.00381339
0.00399816
0.00418748
0.004386
0.00460128
0.00484135
0.00510782
0.00533945
0.00563677
0.00590284
0.00617485
0.00649032
0.00684129
0.00729417
0.00777368
0.00846395
0.00909476
0.0102114
0.0109582
0.0129557
0.0136003
0.0176934
0.0175842
0.0265149
0.0260623
0.00677425
0.00107062
0.0012668
0.000916187
0.000934292
0.000789866
0.000751168
0.000676577
0.000645577
0.000610758
0.000599892
0.000595674
0.000607792
0.000629539
0.000664123
0.000709032
0.000765428
0.000832545
0.000910965
0.00100062
0.00110187
0.00121483
0.00133974
0.00147669
0.00162585
0.00178739
0.00196153
0.00214845
0.00234838
0.00256165
0.00278872
0.00303026
0.00328628
0.00355683
0.00384286
0.00414567
0.00446702
0.00480954
0.00517622
0.00557047
0.00599361
0.00643352
0.00680778
0.00708842
0.00728081
0.00742351
0.00753774
0.00763769
0.00774958
0.00786818
0.00805624
0.00824423
0.00861966
0.00890836
0.00968951
0.0100529
0.0117809
0.0120563
0.015971
0.0187963
0.00609218
0.00123204
0.00103246
0.000726697
0.000696154
0.000585674
0.000548438
0.000495577
0.000473064
0.000452533
0.000450071
0.000455648
0.000474775
0.00050376
0.000544544
0.000596036
0.000659222
0.000734153
0.000821646
0.000922237
0.00103672
0.00116578
0.00131017
0.00147058
0.00164776
0.00184244
0.00205539
0.00228734
0.002539
0.00281112
0.00310451
0.00341994
0.00375595
0.00411285
0.00449097
0.00489061
0.00531215
0.00575638
0.00622392
0.00671522
0.0072281
0.00774404
0.00818403
0.0085113
0.00873375
0.00888196
0.00896587
0.00900295
0.00899957
0.00897485
0.0089404
0.00890669
0.00891487
0.00892709
0.00909801
0.00920595
0.00980075
0.0100257
0.011769
0.015049
0.00576629
0.00144806
0.000925005
0.000616975
0.000547568
0.000453883
0.000416871
0.000377368
0.000361314
0.000351316
0.000356727
0.000371729
0.00039953
0.000438234
0.000489213
0.000552325
0.000628644
0.000718845
0.000824062
0.000945326
0.0010838
0.00124059
0.0014168
0.00161343
0.00183148
0.00207185
0.00233541
0.00262287
0.00293483
0.00327173
0.00363396
0.00402095
0.00442971
0.00486028
0.00531187
0.00578349
0.00627413
0.00678321
0.00730986
0.00785354
0.00841126
0.0089602
0.00943687
0.00981773
0.0100952
0.0102921
0.0104121
0.0104712
0.0104656
0.0104202
0.0103236
0.0102137
0.0100707
0.00994738
0.00982572
0.00975858
0.00979497
0.00987124
0.0106533
0.0130163
0.00565589
0.00170745
0.000909826
0.000565126
0.000458966
0.000370484
0.000331945
0.000300356
0.000289198
0.000287411
0.000300395
0.000324786
0.00036251
0.000412752
0.000476677
0.000554779
0.00064832
0.000758431
0.000886531
0.00103399
0.00120221
0.00139251
0.00160611
0.0018441
0.00210739
0.0023968
0.00271298
0.00305631
0.00342694
0.00382475
0.0042495
0.00469819
0.00516794
0.00565804
0.00616675
0.00669214
0.00723222
0.00778564
0.00835083
0.00892717
0.00951118
0.0100766
0.0105785
0.0110029
0.01133
0.0115771
0.0117441
0.0118465
0.0118755
0.0118579
0.0117714
0.0116636
0.0114877
0.0113297
0.011099
0.0109538
0.0107382
0.0107043
0.0110596
0.011878
0.00567207
0.00199805
0.000965349
0.000558995
0.000412993
0.000321029
0.000278899
0.000251436
0.000243901
0.000248824
0.000269218
0.000303127
0.000351731
0.000414854
0.000493596
0.000588867
0.000702104
0.000834732
0.000988358
0.00116453
0.00136475
0.00159038
0.0018426
0.00212238
0.00243047
0.00276742
0.00313355
0.00352884
0.00395293
0.00440512
0.0048844
0.00538547
0.00590647
0.00644573
0.00700077
0.00756899
0.00814773
0.00873518
0.00932936
0.00992989
0.0105315
0.0111072
0.0116279
0.0120835
0.012448
0.0127345
0.0129408
0.0130822
0.0131478
0.0131657
0.0131087
0.0130298
0.0128689
0.0127278
0.0124815
0.0123321
0.0120331
0.0119647
0.0121333
0.0112304
0.00575859
0.00230722
0.00107759
0.000590833
0.000399589
0.000296778
0.000248712
0.000222489
0.000217451
0.00022803
0.000255711
0.000299294
0.000359471
0.000436391
0.000531119
0.000644796
0.000778974
0.000935235
0.00111528
0.00132072
0.00155307
0.00181365
0.00210353
0.00242352
0.00277413
0.00315562
0.00356801
0.00401085
0.0044833
0.00498414
0.00551108
0.0060581
0.00662363
0.00720522
0.00779984
0.00840437
0.00901557
0.00963138
0.0102495
0.0108699
0.0114831
0.0120666
0.0126011
0.0130773
0.0134674
0.0137813
0.0140154
0.0141854
0.0142789
0.0143258
0.0142963
0.0142474
0.0141124
0.0140031
0.0137766
0.0136589
0.013357
0.0133128
0.013398
0.0108621
0.00587999
0.00262249
0.00123551
0.000655854
0.00041329
0.000292554
0.00023587
0.000208441
0.000204803
0.000220185
0.000254992
0.000308338
0.000380518
0.00047177
0.000583086
0.000715699
0.000871209
0.00105126
0.00125761
0.00149188
0.00175557
0.00204991
0.00237588
0.00273408
0.0031248
0.00354802
0.00400341
0.00449014
0.00500694
0.00555217
0.00612172
0.00671014
0.00731553
0.00793481
0.00856445
0.00920088
0.00984042
0.0104808
0.0111194
0.0117561
0.0123766
0.012966
0.0135098
0.0139981
0.0144039
0.014735
0.0149866
0.0151748
0.0152865
0.0153529
0.015343
0.0153172
0.0152048
0.0151256
0.0149256
0.0148488
0.014573
0.0145807
0.0146214
0.010657
0.00601446
0.00293242
0.00142896
0.000750676
0.000451405
0.000305521
0.0002371
0.000206148
0.000202746
0.000222123
0.000263798
0.000326877
0.000411249
0.000517055
0.000645158
0.000796778
0.000973527
0.00117708
0.00140921
0.00167156
0.0019656
0.0022925
0.00265308
0.00304777
0.00347661
0.00393925
0.00443508
0.0049629
0.005521
0.00610741
0.00671582
0.00734224
0.00798398
0.00863743
0.0092986
0.00996356
0.0106282
0.01129
0.0119464
0.0125952
0.0132204
0.0138135
0.0143623
0.0148561
0.0152698
0.0156097
0.0158704
0.0160681
0.0161895
0.0162669
0.0162686
0.0162577
0.0161611
0.016105
0.0159283
0.0158891
0.0156445
0.0157097
0.0157177
0.0105488
0.0061491
0.00322744
0.00164783
0.000872903
0.000512044
0.000334472
0.000250633
0.000213756
0.000209278
0.000231783
0.000279932
0.000352577
0.000449136
0.000569503
0.000714351
0.000884828
0.00108254
0.00130916
0.00156652
0.00185626
0.00217981
0.00253825
0.00293227
0.00336207
0.00382743
0.00432771
0.00486196
0.00542864
0.00602563
0.00665018
0.00729494
0.00795661
0.00863183
0.00931652
0.0100063
0.0106969
0.0113837
0.0120643
0.0127358
0.0133918
0.0140199
0.0146145
0.0151644
0.0156582
0.0160735
0.0164157
0.0166788
0.0168791
0.0170035
0.0170848
0.0170914
0.0170882
0.0170009
0.0169607
0.0168014
0.0167931
0.0165759
0.0166943
0.0166716
0.0104986
0.00627688
0.00350043
0.00188194
0.00101974
0.000593805
0.000379425
0.000275763
0.000230312
0.000223238
0.000247869
0.000301949
0.000383859
0.00049246
0.00062727
0.000788723
0.000977847
0.00119623
0.00144556
0.00172769
0.00204427
0.00239667
0.00278589
0.00321241
0.00367623
0.00417683
0.00471325
0.00528425
0.00588794
0.00652183
0.00718194
0.00786086
0.00855534
0.00926152
0.00997483
0.0106905
0.011404
0.0121104
0.0128072
0.0134901
0.0141499
0.014779
0.0153725
0.01592
0.0164095
0.0168214
0.0171605
0.0174206
0.017618
0.0177401
0.0178198
0.017826
0.0178246
0.0177413
0.0177107
0.0175632
0.0175789
0.0173833
0.0175474
0.0174934
0.0104827
0.00639444
0.00374687
0.00212139
0.00118746
0.000695816
0.000440499
0.000312593
0.000255537
0.000244078
0.000269652
0.000328956
0.00041971
0.000540113
0.000689197
0.000867101
0.00107469
0.00131354
0.00158531
0.00189188
0.00223489
0.00261565
0.00303501
0.00349328
0.00399018
0.00452492
0.00509618
0.00570246
0.00634152
0.00701056
0.0077039
0.00841493
0.00913999
0.00987475
0.0106142
0.0113533
0.0120872
0.0128106
0.013521
0.0142106
0.0148719
0.0154999
0.0160899
0.0166315
0.017113
0.0175174
0.0178491
0.018102
0.0182922
0.0184077
0.0184814
0.018483
0.018479
0.0183954
0.0183695
0.0182292
0.0182629
0.0180834
0.0182855
0.0181996
0.010487
0.00650068
0.0039647
0.00235717
0.00137126
0.000817127
0.0005176
0.000361878
0.000289685
0.000271732
0.000296838
0.000360483
0.000459545
0.000591447
0.000754621
0.000948848
0.00117478
0.00143395
0.00172799
0.00205878
0.00242792
0.00283663
0.0032856
0.00377494
0.00430408
0.00487194
0.00547684
0.00611704
0.00678994
0.00749245
0.00821686
0.00895801
0.00971151
0.0104726
0.0112358
0.0119958
0.0127476
0.0134853
0.0142058
0.0148984
0.0155592
0.0161839
0.0167678
0.0173006
0.017771
0.0181644
0.0184851
0.0187273
0.0189068
0.0190123
0.0190766
0.0190704
0.0190603
0.0189732
0.0189479
0.0188112
0.0188582
0.0186903
0.0189233
0.0188053
0.0105025
0.00659577
0.00415389
0.00258164
0.00156532
0.000956081
0.000610676
0.000424467
0.000333456
0.000306526
0.000329483
0.000396392
0.000503103
0.000646145
0.000823222
0.00103368
0.00127789
0.00155732
0.00187351
0.00222835
0.00262337
0.00305967
0.00353777
0.00405752
0.00461811
0.00521811
0.0058555
0.00652828
0.00723352
0.00796744
0.00872121
0.00949054
0.0102703
0.0110554
0.0118401
0.0126185
0.0133857
0.0141352
0.014861
0.0155543
0.0162126
0.0168316
0.0174068
0.0179281
0.0183846
0.0187641
0.0190709
0.0192995
0.0194655
0.0195583
0.0196106
0.019594
0.0195751
0.019482
0.0194543
0.0193184
0.0193746
0.0192149
0.0194726
0.0193231
0.0105238
0.0066805
0.00431593
0.00278897
0.00176323
0.00111005
0.000719666
0.000500739
0.000387958
0.000349128
0.000367942
0.000436811
0.000550368
0.000704126
0.000894907
0.00112152
0.00138399
0.00168365
0.00202193
0.00240068
0.00282135
0.00328489
0.00379163
0.00434116
0.00493237
0.00556354
0.00623224
0.00693627
0.00767239
0.0084357
0.00921705
0.0100126
0.0108165
0.0116233
0.012427
0.0132214
0.0140014
0.0147589
0.0154866
0.0161784
0.0168319
0.0174429
0.018007
0.0185141
0.0189544
0.0193175
0.0196079
0.0198205
0.0199707
0.0200486
0.0200867
0.0200578
0.020028
0.019927
0.0198945
0.0197575
0.0198197
0.0196655
0.0199426
0.0197629
0.0105474
0.00675592
0.00445329
0.00297526
0.00195846
0.00127535
0.000843878
0.000590988
0.000454295
0.00040052
0.00041284
0.0004821
0.00060152
0.00076548
0.000969735
0.00121245
0.00149317
0.00181306
0.00217338
0.00257591
0.00302198
0.0035124
0.00404727
0.00462592
0.00524691
0.00590824
0.00660705
0.00734097
0.00810648
0.00889711
0.0097042
0.0105239
0.0113498
0.012176
0.0129963
0.0138042
0.014594
0.015355
0.0160823
0.0167704
0.0174167
0.0180175
0.0185681
0.0190587
0.0194805
0.0198251
0.0200969
0.0202914
0.0204239
0.0204853
0.0205075
0.0204648
0.0204225
0.0203122
0.0202732
0.0201335
0.0201991
0.0200485
0.0203404
0.0201324
0.0105712
0.0068231
0.00456899
0.00313854
0.00214494
0.00144736
0.000981754
0.000695415
0.000533118
0.000461975
0.000465055
0.000532828
0.000656904
0.000830425
0.00104787
0.00130662
0.00160557
0.00194572
0.00232801
0.00275418
0.0032254
0.0037423
0.00430476
0.00491181
0.0055617
0.00625214
0.0069798
0.00774219
0.0085356
0.00935141
0.0101823
0.0110241
0.0118697
0.012713
0.0135474
0.0143661
0.015161
0.015923
0.0166476
0.0173296
0.0179664
0.0185545
0.0190893
0.0195613
0.0199627
0.0202866
0.020538
0.0207128
0.020826
0.0208695
0.0208746
0.020817
0.0207612
0.0206406
0.0205936
0.0204502
0.020517
0.0203688
0.0206715
0.0204375
0.0105941
0.00688304
0.00466622
0.0032785
0.00231757
0.00162081
0.00113074
0.000813636
0.000624972
0.000534661
0.000525712
0.000589769
0.000717018
0.000899291
0.00112954
0.00140422
0.0017214
0.0020818
0.002486
0.00293564
0.00343172
0.00397467
0.00456411
0.0051988
0.00587664
0.00659507
0.00735028
0.00813966
0.00895899
0.00979817
0.0106509
0.0115126
0.0123755
0.0132334
0.0140794
0.0149047
0.0157015
0.016462
0.0171815
0.017855
0.01848
0.0190531
0.0195698
0.020021
0.0204002
0.0207019
0.0209313
0.0210849
0.0211776
0.0212021
0.0211891
0.0211158
0.0210456
0.020914
0.0208582
0.0207104
0.0207767
0.0206301
0.0209402
0.0206831
0.0106153
0.0069366
0.00474805
0.00339613
0.00247252
0.00179018
0.00128728
0.00094448
0.000730107
0.000619435
0.000596168
0.000653904
0.000782518
0.000972511
0.00121506
0.00150551
0.00184085
0.00222149
0.00264751
0.00312042
0.00364104
0.00420955
0.00482533
0.00548682
0.00619159
0.00693682
0.00771818
0.00853302
0.00937614
0.0102368
0.0111092
0.0119886
0.0128665
0.0137364
0.01459
0.0154184
0.0162146
0.0169711
0.0176829
0.0183455
0.0189563
0.019512
0.0200085
0.0204371
0.0207924
0.0210702
0.0212762
0.0214074
0.0214786
0.0214832
0.0214516
0.0213621
0.021277
0.0211342
0.0210688
0.0209162
0.0209807
0.0208353
0.0211499
0.0208729
0.0106345
0.00698453
0.00481726
0.0034934
0.00260744
0.00195023
0.00144697
0.00108584
0.000848174
0.000716856
0.000677785
0.00072641
0.000854215
0.00105062
0.00130477
0.00161075
0.00196415
0.00236499
0.0028127
0.00330865
0.00385342
0.00444695
0.00508835
0.00577574
0.00650634
0.00727712
0.00808315
0.00892183
0.00978655
0.0106668
0.0115566
0.0124513
0.0133417
0.0142198
0.0150773
0.0159062
0.0166992
0.017449
0.0181507
0.0187998
0.0193939
0.01993
0.0204042
0.0208083
0.0211381
0.0213908
0.0215721
0.0216798
0.0217288
0.021713
0.0216624
0.0215564
0.0214562
0.0213021
0.0212268
0.0210694
0.021131
0.0209868
0.0213035
0.02101
0.0106516
0.00702745
0.00487629
0.00357282
0.00272146
0.00209642
0.00160484
0.00123463
0.000978046
0.000827025
0.000771416
0.000808922
0.000933086
0.00113424
0.00139909
0.00172022
0.00209151
0.00251247
0.0029817
0.00350042
0.00406891
0.00468686
0.00535308
0.00606539
0.00682063
0.00761562
0.00844475
0.00930561
0.0101896
0.0110872
0.0119921
0.0128998
0.0137985
0.0146814
0.0155403
0.0163669
0.017154
0.0178945
0.0185834
0.0192165
0.0197915
0.0203057
0.0207556
0.0211335
0.0214363
0.0216625
0.0218181
0.0219016
0.0219277
0.0218912
0.0218213
0.0216989
0.0215838
0.0214184
0.0213332
0.0211711
0.0212291
0.0210863
0.0214032
0.021097
0.0106666
0.00706586
0.00492717
0.00363715
0.00281497
0.00222526
0.00175579
0.00138687
0.00111768
0.000949406
0.000877426
0.000902679
0.00102074
0.00122412
0.00149848
0.00183421
0.00222311
0.00266406
0.0031546
0.00369575
0.00428748
0.00492918
0.00561937
0.00635554
0.00713414
0.00795191
0.00880249
0.00968345
0.0105845
0.0114974
0.0124149
0.0133311
0.0142353
0.0151203
0.0159776
0.0167992
0.0175776
0.018306
0.0189794
0.019594
0.0201475
0.0206376
0.0210611
0.0214111
0.0216857
0.0218842
0.0220132
0.0220719
0.0220747
0.0220174
0.0219283
0.0217897
0.0216599
0.0214838
0.0213888
0.0212223
0.0212764
0.0211353
0.021451
0.021136
0.0106796
0.00710023
0.00497152
0.00368915
0.00288941
0.00233459
0.00189501
0.00153787
0.00126404
0.00108265
0.000995631
0.00100815
0.0011187
0.0013218
0.00160341
0.001953
0.00235909
0.00281983
0.00333141
0.00389464
0.00450906
0.00517379
0.005887
0.00664588
0.00744645
0.00828549
0.00915575
0.0100545
0.0109705
0.0118953
0.012822
0.0137439
0.0146508
0.0155349
0.0163879
0.0172015
0.0179684
0.0186819
0.0193372
0.0199306
0.0204602
0.020924
0.0213192
0.0216399
0.021885
0.0220548
0.0221564
0.0221898
0.0221692
0.022091
0.021983
0.0218287
0.0216846
0.0214984
0.0213941
0.0212239
0.0212737
0.0211353
0.0214486
0.0211287
0.0106909
0.00713092
0.00501065
0.00373137
0.00294696
0.00242358
0.00201843
0.00168263
0.0014132
0.00122447
0.00112512
0.00112532
0.00122738
0.0014286
0.00171563
0.0020768
0.00249954
0.00297978
0.00351207
0.00409694
0.00473347
0.00542041
0.00615563
0.00693598
0.00775705
0.00861576
0.00950386
0.0104172
0.011345
0.012279
0.0132121
0.014137
0.0150436
0.015924
0.0167696
0.0175723
0.0183248
0.0190206
0.019655
0.0202247
0.020728
0.0211633
0.0215284
0.0218182
0.0220326
0.0221729
0.0222465
0.0222542
0.0222101
0.0221114
0.0219849
0.0218156
0.0216581
0.0214626
0.0213495
0.0211765
0.0212221
0.0210872
0.0213974
0.0210768
0.0107005
0.0071583
0.00504553
0.00376607
0.00299019
0.00249266
0.00212308
0.00181622
0.00156049
0.00137161
0.0012641
0.00125353
0.00134682
0.00154478
0.00183567
0.00220718
0.00264522
0.00314374
0.00369635
0.00430239
0.00496037
0.00566867
0.00642481
0.0072253
0.00806529
0.00894087
0.00984455
0.0107697
0.0117067
0.0126473
0.013584
0.0145089
0.0154123
0.0162859
0.0171211
0.0179099
0.018645
0.0193202
0.019931
0.0204744
0.020949
0.0213537
0.0216869
0.0219444
0.0221271
0.0222371
0.0222823
0.0222642
0.0221967
0.0220778
0.0219336
0.0217501
0.0215801
0.0213764
0.0212555
0.0210806
0.0211223
0.0209921
0.0212988
0.0209817
0.0107087
0.00718268
0.00507691
0.00379513
0.00302182
0.00254331
0.00220725
0.00193423
0.00170083
0.00151989
0.0014098
0.00139129
0.00147639
0.00167018
0.00196345
0.00234391
0.00279619
0.0033122
0.00388437
0.00451075
0.00518919
0.00591764
0.00669326
0.00751221
0.00836917
0.0092596
0.0101763
0.0111107
0.0120543
0.0129987
0.0139359
0.0148579
0.0157551
0.0166188
0.0174406
0.0182123
0.0189271
0.0195787
0.0201632
0.0206777
0.0211214
0.0214935
0.0217931
0.022017
0.022167
0.0222461
0.0222626
0.0222186
0.0221281
0.0219897
0.0218286
0.021632
0.0214506
0.02124
0.0211122
0.0209368
0.020975
0.0208507
0.021154
0.0208446
0.0107156
0.00720434
0.00510534
0.00382007
0.00304448
0.00257777
0.00227061
0.00203323
0.00182915
0.00166443
0.00155848
0.00153616
0.00161474
0.00180407
0.00209846
0.00248643
0.00295175
0.00348432
0.00407519
0.00472103
0.00541889
0.00616622
0.00695979
0.00779545
0.00866742
0.00957058
0.0104976
0.0114387
0.0123861
0.0133315
0.0142663
0.0151824
0.0160701
0.0169208
0.017726
0.0184776
0.019169
0.0197943
0.0203496
0.0208328
0.0212432
0.0215807
0.0218451
0.0220343
0.0221508
0.0221985
0.022186
0.0221165
0.0220034
0.0218463
0.0216693
0.0214608
0.0212693
0.0210533
0.02092
0.0207453
0.020781
0.0206641
0.0209642
0.0206666
0.0107215
0.00722356
0.00513121
0.00384205
0.00306056
0.00259872
0.00231406
0.002111
0.00194084
0.00179997
0.00170551
0.00168469
0.00175957
0.00194502
0.00223968
0.00263379
0.00311086
0.00365892
0.00426755
0.00493188
0.00564805
0.00641295
0.00722295
0.00807351
0.00895842
0.00987215
0.0108065
0.0117518
0.0127004
0.0136437
0.0145731
0.0154801
0.0163553
0.0171898
0.0179751
0.0187036
0.0193685
0.0199645
0.0204882
0.0209374
0.0213124
0.0216135
0.0218413
0.0219946
0.0220769
0.0220928
0.0220515
0.0219567
0.0218218
0.0216468
0.0214552
0.0212362
0.0210363
0.0208164
0.0206791
0.0205068
0.0205407
0.020433
0.0207303
0.0204488
0.0107263
0.00724059
0.00515485
0.00386193
0.00307212
0.00260904
0.00233952
0.00216673
0.00203222
0.00192127
0.00184564
0.0018325
0.00190761
0.0020907
0.00238536
0.00278446
0.00327196
0.00383437
0.00445974
0.00514154
0.00587489
0.00665602
0.00748085
0.00834449
0.00924026
0.0101624
0.0111013
0.0120481
0.0129949
0.0139332
0.0148541
0.0157489
0.0166083
0.0174233
0.0181857
0.0188878
0.0195234
0.0200873
0.0205765
0.0209896
0.021327
0.0215899
0.0217797
0.0218963
0.0219439
0.0219279
0.0218579
0.0217382
0.0215823
0.0213908
0.0211859
0.0209582
0.0207514
0.0205295
0.0203897
0.0202216
0.020255
0.0201581
0.0204536
0.0201923
0.0107304
0.00725566
0.00517647
0.00388031
0.00308082
0.00261152
0.00234963
0.00220098
0.00210084
0.00202364
0.00197334
0.00197441
0.0020546
0.00223785
0.00253296
0.00293622
0.00343291
0.00400849
0.0046495
0.00534772
0.00609711
0.00689312
0.00773119
0.00860605
0.00951057
0.0104385
0.0113794
0.0123249
0.0132672
0.0141974
0.0151067
0.0159861
0.0168264
0.0176188
0.0183551
0.0190278
0.0196311
0.0201602
0.0206124
0.020987
0.0212849
0.0215081
0.0216587
0.0217378
0.0217503
0.0217024
0.021604
0.0214603
0.0212844
0.0210776
0.0208611
0.0206263
0.0204147
0.0201928
0.0200524
0.0198902
0.0199246
0.0198404
0.0201351
0.0198979
0.0107337
0.007269
0.00519627
0.00389758
0.00308794
0.00260872
0.00234744
0.00221552
0.00214572
0.00210334
0.00208328
0.00210479
0.00219545
0.00238227
0.00267903
0.0030861
0.0035909
0.00417844
0.00483397
0.00554754
0.00631182
0.0071214
0.00797114
0.00885539
0.00976656
0.0106977
0.011638
0.0125796
0.0135144
0.0144336
0.0153281
0.016189
0.017007
0.0177736
0.0184805
0.0191209
0.019689
0.0201805
0.0205934
0.0209274
0.0211841
0.0213661
0.0214766
0.0215175
0.0214947
0.0214151
0.021289
0.0211222
0.0209275
0.020707
0.0204805
0.0202407
0.0200263
0.0198065
0.0196675
0.0195133
0.0195501
0.0194807
0.0197758
0.0195668
0.0107365
0.0072808
0.0052144
0.003914
0.00309442
0.00260281
0.00233612
0.00221306
0.00216739
0.00215802
0.00217083
0.00221793
0.00232447
0.00251889
0.00281926
0.00323029
0.00374235
0.00434071
0.00500964
0.00573747
0.00651551
0.00733735
0.00819725
0.0090891
0.0100049
0.0109367
0.0118739
0.0128089
0.0137333
0.0146384
0.015515
0.0163542
0.0171468
0.0178844
0.0185591
0.0191642
0.0196943
0.0201459
0.0205171
0.0208085
0.0210223
0.021162
0.0212315
0.0212339
0.0211759
0.0210651
0.020912
0.0207231
0.0205112
0.0202786
0.0200442
0.0198015
0.0195864
0.019371
0.0192355
0.0190916
0.0191324
0.0190799
0.0193768
0.0191998
0.0107388
0.00729126
0.005231
0.00392969
0.00310088
0.00259554
0.00231868
0.00219688
0.00216773
0.00218689
0.0022325
0.00230861
0.00243581
0.00264203
0.00294852
0.00336421
0.00388295
0.00449106
0.00517224
0.00591325
0.00670395
0.00753683
0.00840542
0.00930316
0.0102215
0.0111515
0.0120833
0.013009
0.0139202
0.0148083
0.015664
0.0164784
0.0172425
0.0179481
0.0185876
0.0191546
0.0196442
0.0200534
0.0203809
0.020628
0.0207977
0.020894
0.020922
0.0208858
0.0207929
0.0206515
0.0204725
0.0202629
0.0200353
0.0197925
0.0195522
0.0193089
0.0190955
0.0188868
0.0187571
0.0186257
0.0186725
0.018639
0.0189394
0.0187981
0.0107407
0.00730053
0.00524619
0.00394473
0.0031077
0.00258825
0.00229777
0.00217054
0.00214971
0.00219078
0.00226637
0.00237256
0.00252387
0.00274577
0.00306113
0.00348256
0.00400768
0.00462456
0.00531682
0.00606992
0.00687219
0.00771494
0.00859087
0.00949289
0.0104119
0.0113378
0.0122617
0.0131756
0.014071
0.0149391
0.015771
0.0165576
0.0172904
0.0179611
0.0185626
0.0190889
0.0195357
0.0199003
0.0201824
0.0203837
0.020508
0.0205604
0.0205466
0.020472
0.0203447
0.0201736
0.0199699
0.0197412
0.0194998
0.0192489
0.019005
0.0187634
0.0185542
0.0183548
0.0182333
0.0181167
0.0181713
0.0181592
0.0184648
0.0183627
0.0107422
0.00730876
0.00526011
0.00395913
0.00311506
0.00258187
0.00227565
0.0021375
0.00211701
0.00217201
0.00227223
0.00240696
0.0025839
0.0028244
0.00315121
0.00357963
0.004111
0.0047357
0.00543784
0.00620183
0.00701459
0.00786608
0.0087481
0.0096529
0.0105706
0.0114905
0.0124044
0.013304
0.014181
0.0150265
0.0158317
0.0165878
0.0172864
0.0179196
0.0184806
0.0189638
0.0193655
0.0196838
0.0199188
0.0200732
0.0201515
0.0201595
0.020104
0.0199915
0.0198307
0.0196311
0.0194044
0.0191584
0.0189052
0.0186484
0.0184033
0.0181659
0.0179634
0.0177759
0.017665
0.0175657
0.0176303
0.0176417
0.0179542
0.0178947
0.0107434
0.00731609
0.00527284
0.00397291
0.00312301
0.00257697
0.00225404
0.00210092
0.00207364
0.00213408
0.00225166
0.00241075
0.00261252
0.00287297
0.00321307
0.00364957
0.00418707
0.00481857
0.00552924
0.00630283
0.0071249
0.00798402
0.00887093
0.00977716
0.0106917
0.011604
0.0125058
0.0133889
0.014245
0.0150655
0.0158415
0.0165645
0.0172264
0.0178196
0.0183377
0.0187759
0.0191307
0.0194011
0.0195879
0.0196945
0.0197263
0.0196901
0.0195934
0.0194437
0.0192506
0.0190241
0.0187761
0.0185148
0.0182521
0.0179919
0.0177481
0.0175175
0.0173243
0.0171514
0.0170536
0.016974
0.0170506
0.0170879
0.0174092
0.0173955
0.0107444
0.00732265
0.00528452
0.00398606
0.00313151
0.00257387
0.0022342
0.00206347
0.00202355
0.00208124
0.00220775
0.00238482
0.00260808
0.00288783
0.00324184
0.0036869
0.00423012
0.0048672
0.00558478
0.0063664
0.00719643
0.00806199
0.00895264
0.00985904
0.010769
0.011672
0.0125599
0.0134246
0.0142577
0.0150508
0.0157953
0.016483
0.0171058
0.0176569
0.0181303
0.0185216
0.0188281
0.0190494
0.0191873
0.0192458
0.0192312
0.019151
0.0190139
0.0188284
0.0186045
0.018353
0.0180858
0.0178116
0.0175418
0.0172807
0.0170408
0.0168198
0.0166386
0.0164827
0.0164006
0.0163431
0.016434
0.0164992
0.0168314
0.0168662
0.0107452
0.00732852
0.00529523
0.00399857
0.00314047
0.00257265
0.00221693
0.00202726
0.00197037
0.00201807
0.00214482
0.00233187
0.00257099
0.0028671
0.00323391
0.00368699
0.00423493
0.00487591
0.00559835
0.00638602
0.00722232
0.00809292
0.00898607
0.00989144
0.0107955
0.0116879
0.0125604
0.0134049
0.0142132
0.014977
0.015688
0.0163382
0.0169202
0.0174274
0.0178545
0.0181975
0.0184547
0.0186263
0.0187149
0.0187253
0.0186648
0.0185417
0.0183655
0.0181458
0.0178932
0.0176188
0.0173348
0.0170503
0.0167761
0.0165168
0.0162835
0.0160747
0.0159081
0.015772
0.015708
0.0156749
0.0157822
0.0158776
0.0162224
0.0163083
0.0107458
0.00733381
0.00530508
0.00401045
0.00314976
0.00257325
0.00220268
0.00199384
0.00191717
0.00194905
0.00206787
0.00225617
0.0025037
0.002811
0.00318755
0.00364664
0.00419734
0.00483982
0.00556442
0.00635553
0.00719588
0.00806976
0.00896397
0.00986706
0.0107641
0.0116447
0.0125005
0.0133233
0.0141052
0.0148381
0.015514
0.0161252
0.0166649
0.0171269
0.0175064
0.0178004
0.0180078
0.0181294
0.0181689
0.018132
0.0180265
0.0178619
0.0176485
0.0173967
0.0171177
0.0168232
0.0165252
0.0162331
0.0159572
0.0157025
0.0154786
0.0152847
0.0151354
0.0150215
0.014978
0.0149717
0.0150974
0.0152248
0.0155843
0.0157236
0.0107463
0.0073386
0.00531415
0.00402171
0.00315925
0.00257548
0.00219159
0.0019642
0.00186636
0.00187822
0.00198214
0.00216307
0.00241047
0.00272197
0.00310317
0.00356457
0.0041148
0.00475539
0.00547856
0.00626967
0.00711109
0.00798587
0.00887931
0.00977864
0.0106676
0.0115353
0.0123732
0.0131733
0.0139276
0.0146283
0.0152679
0.015839
0.0163353
0.0167512
0.0170827
0.0173273
0.0174848
0.0175569
0.0175481
0.017465
0.0173163
0.0171122
0.016864
0.0165827
0.0162802
0.0159685
0.0156596
0.0153629
0.0150885
0.0148412
0.0146294
0.014453
0.0143235
0.0142341
0.0142134
0.0142359
0.014382
0.0145433
0.0149191
0.0151137
0.0107467
0.00734295
0.00532253
0.00403236
0.00316883
0.00257915
0.00218357
0.00193887
0.00181968
0.00180895
0.0018926
0.00205844
0.00229702
0.00260449
0.00298353
0.00344182
0.00398686
0.00462096
0.00533803
0.00612461
0.00696312
0.00783557
0.00872575
0.00961946
0.010499
0.0113528
0.012172
0.0129484
0.0136743
0.014342
0.0149444
0.0154748
0.0159272
0.0162967
0.0165801
0.0167756
0.0168839
0.0169076
0.016852
0.0167245
0.0165349
0.016294
0.0160139
0.0157064
0.0153837
0.0150582
0.0147417
0.0144438
0.0141738
0.0139369
0.01374
0.0135834
0.0134761
0.0134133
0.0134175
0.0134705
0.0136389
0.0138354
0.0142293
0.0144807
0.010747
0.00734693
0.0053303
0.00404243
0.00317839
0.002584
0.00217842
0.00191804
0.00177824
0.00174384
0.00180358
0.00194813
0.00216983
0.00246472
0.00283364
0.00328187
0.00381556
0.00443725
0.00514229
0.00591859
0.00674898
0.00761475
0.00849827
0.00938379
0.0102523
0.011091
0.0118906
0.0126426
0.0133395
0.0139738
0.0145388
0.0150283
0.0154368
0.0157603
0.0159961
0.0161435
0.0162039
0.0161809
0.0160807
0.0159115
0.0156839
0.0154097
0.0151013
0.0147713
0.0144323
0.0140968
0.0137764
0.0134807
0.0132184
0.0129946
0.0128151
0.0126807
0.0125976
0.0125633
0.0125942
0.0126792
0.0128713
0.0131043
0.0135177
0.0138267
0.0107473
0.0073506
0.00533752
0.00405196
0.00318783
0.00258978
0.00217581
0.00190157
0.00174257
0.00168468
0.00171861
0.00183744
0.00203559
0.00230985
0.0026603
0.00309058
0.00360554
0.00420767
0.00489352
0.00565246
0.00646814
0.00732154
0.00819379
0.00906761
0.00992288
0.010745
0.0115239
0.012251
0.0129185
0.0135193
0.014047
0.0144959
0.0148612
0.0151395
0.0153291
0.0154301
0.0154447
0.0153775
0.0152356
0.0150282
0.0147665
0.0144628
0.0141305
0.0137824
0.0134315
0.0130901
0.0127697
0.0124798
0.0122284
0.0120206
0.0118608
0.0117506
0.0116934
0.0116888
0.0117478
0.0118658
0.0120829
0.0123531
0.0127872
0.0131542
0.0107475
0.00735399
0.00534426
0.00406097
0.00319711
0.00259629
0.00217539
0.00188918
0.00171281
0.00163253
0.00164026
0.00173083
0.00190055
0.0021474
0.00247155
0.00287576
0.00336392
0.00393844
0.00459686
0.00533015
0.00612314
0.00695697
0.00781192
0.0086693
0.00950807
0.0103114
0.0110683
0.0117697
0.0124077
0.0129752
0.0134662
0.0138753
0.0141986
0.0144334
0.0145788
0.0146358
0.0146075
0.0144995
0.0143198
0.0140783
0.013787
0.0134588
0.0131075
0.0127463
0.0123882
0.0120455
0.0117294
0.0114489
0.0112115
0.0110221
0.0108843
0.0107997
0.0107697
0.0107958
0.0108837
0.0110352
0.0112781
0.0115856
0.0120413
0.0124661
0.0107476
0.00735716
0.00535058
0.0040695
0.00320616
0.00260331
0.0021768
0.00188043
0.00168873
0.00158783
0.00157016
0.00163166
0.00177006
0.00198455
0.00227584
0.00264647
0.00309984