/*--------------------------------*- C++ -*----------------------------------*\
| =========                 |                                                 |
| \\      /  F ield         | OpenFOAM: The Open Source CFD Toolbox           |
|  \\    /   O peration     | Version:  2.4.0                                 |
|   \\  /    A nd           | Web:      www.OpenFOAM.org                      |
|    \\/     M anipulation  |                                                 |
\*---------------------------------------------------------------------------*/
FoamFile
{
    version     2.0;
    format      ascii;
    class       volScalarField;
    location    "1";
    object      p;
}
// * * * * * * * * * * * * * * * * * * * * * * * * * * * * * * * * * * * * * //

dimensions      [0 2 -2 0 0 0 0];

internalField   nonuniform List<scalar> 
2320
(
1.92734
1.92733
1.92732
1.9273
1.92728
1.92724
1.92719
1.92712
1.92703
1.92689
1.9267
1.92644
1.9261
1.92563
1.92503
1.92424
1.92325
1.92201
1.9205
1.9187
1.92734
1.92733
1.92732
1.92731
1.92728
1.92725
1.9272
1.92713
1.92704
1.9269
1.92672
1.92647
1.92613
1.92567
1.92507
1.9243
1.92331
1.92207
1.92057
1.91878
1.92734
1.92734
1.92733
1.92731
1.92729
1.92726
1.92721
1.92715
1.92706
1.92693
1.92675
1.92651
1.92618
1.92574
1.92516
1.9244
1.92343
1.92221
1.92071
1.91892
1.92735
1.92734
1.92733
1.92732
1.9273
1.92727
1.92723
1.92717
1.92709
1.92697
1.92681
1.92658
1.92627
1.92586
1.9253
1.92456
1.92361
1.92241
1.92092
1.91914
1.92735
1.92735
1.92734
1.92733
1.92731
1.92729
1.92725
1.9272
1.92713
1.92703
1.92688
1.92667
1.92639
1.926
1.92548
1.92478
1.92386
1.92268
1.92121
1.91943
1.92736
1.92736
1.92735
1.92734
1.92733
1.92731
1.92728
1.92724
1.92718
1.92709
1.92696
1.92679
1.92654
1.92619
1.9257
1.92505
1.92417
1.92302
1.92156
1.91978
1.92737
1.92737
1.92736
1.92736
1.92735
1.92733
1.92731
1.92728
1.92724
1.92717
1.92707
1.92692
1.92671
1.9264
1.92598
1.92538
1.92455
1.92344
1.922
1.9202
1.92738
1.92738
1.92738
1.92737
1.92737
1.92736
1.92735
1.92733
1.9273
1.92725
1.92718
1.92707
1.9269
1.92665
1.92629
1.92576
1.925
1.92394
1.92252
1.9207
1.92739
1.92739
1.92739
1.92739
1.92739
1.92739
1.92739
1.92738
1.92737
1.92734
1.9273
1.92723
1.92712
1.92694
1.92665
1.92621
1.92553
1.92454
1.92313
1.92126
1.9274
1.9274
1.9274
1.92741
1.92741
1.92742
1.92743
1.92743
1.92744
1.92744
1.92743
1.92741
1.92735
1.92724
1.92705
1.92671
1.92614
1.92523
1.92385
1.92192
1.92741
1.92741
1.92742
1.92742
1.92744
1.92745
1.92747
1.92749
1.92752
1.92754
1.92757
1.92759
1.9276
1.92758
1.92749
1.92727
1.92684
1.92605
1.92472
1.92269
1.92743
1.92743
1.92743
1.92744
1.92746
1.92748
1.92751
1.92754
1.92759
1.92764
1.92771
1.92778
1.92786
1.92793
1.92796
1.92789
1.92763
1.927
1.92575
1.92362
1.92744
1.92744
1.92745
1.92746
1.92748
1.92751
1.92755
1.9276
1.92766
1.92775
1.92785
1.92797
1.92812
1.92829
1.92846
1.92857
1.92852
1.92811
1.927
1.92478
1.92745
1.92745
1.92746
1.92748
1.9275
1.92754
1.92759
1.92765
1.92773
1.92784
1.92798
1.92816
1.92838
1.92866
1.92897
1.92929
1.92951
1.92941
1.92855
1.92627
1.92746
1.92746
1.92747
1.92749
1.92752
1.92756
1.92762
1.9277
1.9278
1.92793
1.9281
1.92833
1.92863
1.92901
1.92949
1.93004
1.9306
1.93091
1.93047
1.92828
1.92746
1.92747
1.92748
1.9275
1.92754
1.92759
1.92765
1.92774
1.92785
1.92801
1.92822
1.92849
1.92886
1.92934
1.92998
1.9308
1.93175
1.93264
1.93286
1.93106
1.92747
1.92748
1.92749
1.92751
1.92755
1.9276
1.92768
1.92777
1.9279
1.92808
1.92831
1.92862
1.92905
1.92963
1.93043
1.93152
1.93293
1.93458
1.93582
1.93491
1.92748
1.92748
1.9275
1.92752
1.92756
1.92762
1.9277
1.9278
1.92794
1.92813
1.92838
1.92873
1.92921
1.92987
1.93081
1.93214
1.93405
1.93668
1.93951
1.94031
1.92748
1.92748
1.9275
1.92753
1.92757
1.92763
1.92771
1.92782
1.92797
1.92816
1.92843
1.92881
1.92932
1.93004
1.93108
1.93261
1.93495
1.93871
1.9441
1.94977
1.92748
1.92749
1.9275
1.92753
1.92757
1.92763
1.92772
1.92783
1.92798
1.92818
1.92846
1.92884
1.92937
1.93013
1.93122
1.93287
1.93543
1.9401
1.94825
1.96796
1.9166
1.91418
1.91137
1.90804
1.90394
1.89864
1.89152
1.88175
1.91668
1.91427
1.9115
1.90823
1.90424
1.89909
1.89216
1.88261
1.91684
1.91446
1.91175
1.90862
1.90483
1.89997
1.89342
1.88433
1.91707
1.91472
1.91211
1.90917
1.9057
1.90128
1.89529
1.88687
1.91736
1.91506
1.91256
1.90986
1.9068
1.90298
1.89774
1.89021
1.91771
1.91543
1.91305
1.91065
1.90811
1.90504
1.90074
1.89429
1.9181
1.91582
1.91356
1.91148
1.90957
1.90742
1.90425
1.89907
1.91853
1.9162
1.91402
1.91229
1.91111
1.91006
1.90823
1.9045
1.91898
1.91653
1.91436
1.91299
1.91266
1.91292
1.91264
1.91053
1.91945
1.91677
1.91449
1.91346
1.91413
1.91595
1.91746
1.9171
1.91995
1.91686
1.9143
1.91356
1.9154
1.9191
1.92269
1.92419
1.9205
1.91675
1.91362
1.91309
1.91634
1.92234
1.92836
1.9318
1.92114
1.91639
1.91225
1.91179
1.91678
1.92566
1.93456
1.94001
1.92197
1.91568
1.90988
1.90933
1.91653
1.92906
1.94142
1.94896
1.92317
1.91448
1.90601
1.90529
1.91541
1.93259
1.94917
1.95885
1.92519
1.91276
1.89978
1.89877
1.91318
1.93668
1.95869
1.9707
1.92853
1.91077
1.89113
1.8884
1.90838
1.94013
1.96948
1.98493
1.93291
1.90588
1.87945
1.87766
1.9031
1.94515
1.98493
2.00526
1.94126
1.89227
1.85235
1.85433
1.89216
1.9497
2.0051
2.03136
1.98182
1.89427
1.82811
1.82557
1.87556
1.9528
2.03702
2.06435
1.86829
1.84983
1.82465
1.79041
1.74381
1.6802
1.59307
1.47337
1.30871
1.08253
0.773619
0.35688
-0.193745
-0.898909
-1.7642
-2.77002
-3.86576
-4.97218
-5.99175
-6.82396
-7.38099
-7.59929
-7.44671
-6.91871
-6.04413
-4.86618
-3.46506
-1.78443
1.86943
1.8513
1.82654
1.79284
1.74691
1.68411
1.59789
1.47915
1.31535
1.08963
0.780306
0.361548
-0.193584
-0.906477
-1.78281
-2.80216
-3.91244
-5.03272
-6.06408
-6.90531
-7.46856
-7.69089
-7.54132
-7.01566
-6.14417
-4.98333
-3.62929
-2.20635
1.87168
1.85421
1.83029
1.79767
1.75309
1.6919
1.60753
1.49073
1.32867
1.10392
0.793781
0.37096
-0.193308
-0.921942
-1.82081
-2.86781
-4.00777
-5.15624
-6.21149
-7.0708
-7.64634
-7.87639
-7.73244
-7.21082
-6.34494
-5.20481
-3.90273
-2.61465
1.87501
1.85852
1.83585
1.80483
1.76226
1.70351
1.62191
1.50807
1.34872
1.12553
0.81429
0.385409
-0.192836
-0.945905
-1.87999
-2.97026
-4.15655
-5.34879
-6.44076
-7.32752
-7.92147
-8.16264
-8.02601
-7.50872
-6.647
-5.51825
-4.24076
-2.98136
1.87938
1.86416
1.84312
1.81421
1.77432
1.71881
1.64097
1.53115
1.37556
1.15469
0.842235
0.405284
-0.192363
-0.979929
-1.96383
-3.11484
-4.36526
-5.61688
-6.75745
-7.67955
-8.29654
-8.55132
-8.42328
-7.91006
-7.04846
-5.91716
-4.6345
-3.35758
1.88472
1.87103
1.85197
1.82568
1.78912
1.73766
1.66455
1.55991
1.40929
1.1917
0.878113
0.430931
-0.192398
-1.02597
-2.07542
-3.30434
-4.63427
-5.95672
-7.15279
-8.11343
-8.75459
-9.02389
-8.9054
-8.39688
-7.53258
-6.38783
-5.07831
-3.75608
1.89094
1.87901
1.86226
1.83905
1.80645
1.75985
1.69247
1.59424
1.44996
1.23691
0.922457
0.462776
-0.193024
-1.08424
-2.21312
-3.5322
-4.94962
-6.34601
-7.59702
-8.59363
-9.25616
-9.53867
-9.43034
-8.92827
-8.06145
-6.89833
-5.549
-4.16073
1.89796
1.88794
1.87379
1.8541
1.82607
1.78511
1.72448
1.63395
1.49761
1.29062
0.975912
0.501853
-0.192578
-1.15063
-2.36685
-3.77924
-5.28209
-6.74691
-8.04628
-9.07264
-9.75151
-10.0443
-9.94581
-9.45186
-8.58447
-7.40291
-6.00918
-4.54504
1.90566
1.89766
1.88632
1.87057
1.84768
1.8131
1.76022
1.67877
1.55219
1.3531
1.03952
0.550349
-0.186747
-1.21552
-2.51805
-4.01686
-5.59485
-7.11759
-8.4564
-9.50547
-10.1953
-10.4946
-10.4046
-9.91933
-9.05314
-7.85525
-6.41894
-4.8802
1.91393
1.90796
1.89959
1.88815
1.87093
1.8434
1.79921
1.7283
1.61346
1.42465
1.11485
0.611485
-0.168853
-1.26496
-2.64365
-4.2146
-5.8537
-7.42317
-8.79288
-9.85821
-10.554
-10.8562
-10.7722
-10.2949
-9.43048
-8.21848
-6.74485
-5.14007
1.92264
1.91859
1.9133
1.90653
1.89542
1.87549
1.84086
1.78197
1.68101
1.5056
1.20366
0.688538
-0.131108
-1.28367
-2.72166
-4.34724
-6.03311
-7.63888
-9.03199
-10.1084
-10.8065
-11.109
-11.0288
-10.5575
-9.69371
-8.46893
-6.96434
-5.3055
1.93165
1.92924
1.92709
1.92535
1.9207
1.90877
1.88443
1.83902
1.75417
1.59609
1.30672
0.783645
-0.0662052
-1.25839
-2.7359
-4.39823
-6.11658
-7.74771
-9.15843
-10.2433
-10.9436
-11.2463
-11.1682
-10.7
-9.83397
-8.59648
-7.06707
-5.36706
1.94084
1.93957
1.9406
1.94424
1.94626
1.94249
1.92906
1.89848
1.83192
1.69528
1.42258
0.896952
0.0308042
-1.18111
-2.67873
-4.36097
-6.09806
-7.74453
-9.16975
-10.2645
-10.971
-11.2766
-11.1989
-10.7284
-9.85524
-8.60382
-7.05431
-5.32561
1.95002
1.94911
1.95342
1.96277
1.97144
1.97585
1.97389
1.9591
1.91234
1.80022
1.54645
1.02609
0.160272
-1.05196
-2.55291
-4.24128
-5.98722
-7.64494
-9.08088
-10.1865
-10.9028
-11.2137
-11.1353
-10.6573
-9.77244
-8.50766
-6.94013
-5.19324
1.95884
1.95729
1.9653
1.98073
1.99581
2.00829
2.01805
2.01892
1.99157
1.90469
1.67053
1.16602
0.316535
-0.880765
-2.37078
-4.05347
-5.79852
-7.46065
-8.90409
-10.0209
-10.7487
-11.0665
-10.9851
-10.4958
-9.5964
-8.31874
-6.74123
-4.98869
1.96694
1.96341
1.97624
1.99826
2.01926
2.03937
2.06002
2.07409
2.06307
1.99926
1.7865
1.30966
0.489385
-0.681306
-2.15022
-3.81837
-5.55537
-7.21641
-8.66472
-9.79196
-10.532
-10.8577
-10.7729
-10.2709
-9.35621
-8.06681
-6.48514
-4.73705
1.97253
1.96535
1.98505
2.01436
2.04083
2.0677
2.09655
2.11876
2.11928
2.07501
1.88949
1.44685
0.663855
-0.473455
-1.91576
-3.5647
-5.28966
-6.946
-8.39669
-9.53248
-10.2834
-10.6168
-10.5294
-10.0165
-9.08877
-7.79067
-6.20905
-4.47221
1.9759
1.96413
1.99212
2.02815
2.05893
2.09065
2.12334
2.14818
2.1559
2.12937
1.97304
1.56632
0.821798
-0.280944
-1.69607
-3.32557
-5.03811
-6.68872
-8.14023
-9.28235
-10.0418
-10.3811
-10.2917
-9.77036
-8.83333
-7.53034
-5.9524
-4.23036
1.9727
1.9676
2.00576
2.04261
2.07284
2.10536
2.13798
2.16259
2.17457
2.16421
2.03197
1.65493
0.942988
-0.130064
-1.52205
-3.13549
-4.83815
-6.48434
-7.93646
-9.08317
-9.84868
-10.1921
-10.1009
-9.57374
-8.63076
-7.32579
-5.753
-4.04499
1.91804
1.94596
2.00814
2.04602
2.07509
2.10839
2.14161
2.16678
2.1809
2.18153
2.06214
1.70124
1.00831
-0.0466797
-1.42422
-3.02744
-4.72371
-6.36693
-7.81923
-8.96856
-9.73762
-10.0834
-9.99191
-9.4621
-8.51647
-7.21125
-5.64241
-3.94339
-0.421305
-0.386071
-0.475771
-0.521904
-0.480448
-0.473046
-0.42111
-0.883843
-1.02365
-0.625944
-0.550029
-0.529331
-0.48427
-0.496121
-0.490054
-0.602295
-1.54075
-0.953728
-0.690468
-0.560795
-0.487238
-0.489922
-0.446073
-0.414766
-1.9124
-1.21876
-0.824008
-0.591551
-0.46663
-0.438637
-0.354575
-0.147012
-2.24954
-1.45402
-0.937086
-0.598183
-0.393215
-0.301391
-0.148976
0.172191
-2.57896
-1.66982
-1.02403
-0.570298
-0.263665
-0.0778975
0.15012
0.513083
-2.88833
-1.85232
-1.0747
-0.507051
-0.0993997
0.181177
0.467004
0.822724
-3.16484
-1.99639
-1.08828
-0.413923
0.0793647
0.433068
0.750733
1.08206
-3.39449
-2.09951
-1.0682
-0.296909
0.264191
0.665574
0.992601
1.2918
-3.56086
-2.15459
-1.01464
-0.15924
0.453713
0.882071
1.20246
1.46533
-3.65006
-2.15364
-0.925586
-0.00258936
0.647629
1.08756
1.39119
1.61641
-3.65507
-2.09272
-0.800619
0.170781
0.844316
1.2845
1.56577
1.75408
-3.57714
-1.97385
-0.642794
0.356875
1.0405
1.4727
1.72912
1.88262
-3.42619
-1.80521
-0.459072
0.549572
1.23132
1.64969
1.88089
2.00258
-3.22032
-1.60129
-0.260164
0.740532
1.4105
1.81123
2.01831
2.11194
-2.9813
-1.37999
-0.0592598
0.920407
1.57081
1.95224
2.13749
2.2075
-2.73805
-1.16448
0.127099
1.07946
1.70627
2.06765
2.23446
2.28616
-2.52107
-0.978216
0.282096
1.20677
1.81083
2.15473
2.30617
2.34563
-2.35764
-0.841278
0.392396
1.29425
1.88064
2.21066
2.35234
2.38487
-2.26944
-0.768958
0.448999
1.3378
1.91433
2.23616
2.37436
2.4042
0.338786
1.4365
2.10638
2.19963
2.07819
1.7005
1.38835
1.42925
1.4804
1.44147
1.34165
1.23141
1.11281
0.974399
0.81693
0.646923
0.467614
0.272366
0.0451391
-0.310434
0.791497
1.68727
2.18093
2.17523
1.99696
1.66281
1.42244
1.47591
1.50634
1.44828
1.34183
1.22955
1.10989
0.971512
0.814855
0.645724
0.46712
0.27277
0.0697214
-0.183286
1.02236
1.78382
2.14188
2.10809
1.93456
1.663
1.4701
1.49939
1.50754
1.44324
1.33912
1.22746
1.10781
0.969939
0.814195
0.646008
0.468709
0.278683
0.0963591
-0.119331
1.23209
1.85889
2.08638
2.044
1.89012
1.66918
1.50805
1.51567
1.51444
1.44781
1.34188
1.22834
1.10735
0.969251
0.814096
0.646877
0.471301
0.286626
0.116279
-0.0730734
1.38291
1.88381
2.01896
1.98195
1.85887
1.68314
1.54757
1.53941
1.52354
1.44989
1.34217
1.22768
1.10572
0.967779
0.813674
0.64791
0.474505
0.29509
0.132635
-0.0358623
1.49684
1.88496
1.9696
1.94022
1.84415
1.70338
1.58462
1.55847
1.5284
1.4505
1.34281
1.22834
1.10543
0.967467
0.814316
0.65002
0.478797
0.30406
0.146942
-0.00716982
1.56748
1.87515
1.94285
1.91794
1.84073
1.72583
1.61797
1.57635
1.53429
1.45277
1.34479
1.22864
1.10522
0.967174
0.814969
0.65222
0.483162
0.312621
0.158821
0.014548
1.61392
1.87172
1.93871
1.91381
1.84664
1.74914
1.64792
1.59305
1.54007
1.45472
1.34609
1.22892
1.10443
0.967213
0.816146
0.654996
0.488033
0.32101
0.169118
0.0314082
1.65908
1.88168
1.9507
1.92267
1.85879
1.77172
1.67419
1.60811
1.54543
1.45645
1.34735
1.22951
1.10438
0.967413
0.817513
0.657985
0.492953
0.328851
0.177815
0.0444579
1.71636
1.90629
1.97306
1.94034
1.87523
1.79306
1.69706
1.62168
1.55052
1.45811
1.34852
1.23011
1.10433
0.967673
0.819023
0.661153
0.497964
0.336248
0.185331
0.0546604
1.78755
1.94328
2.0015
1.96314
1.89407
1.81272
1.71668
1.63372
1.5552
1.45955
1.34941
1.23057
1.10436
0.968122
0.820735
0.664493
0.502998
0.34316
0.191779
0.0626636
1.86881
1.98935
2.03321
1.98829
1.91385
1.8306
1.73354
1.6445
1.55943
1.46071
1.35
1.23088
1.10443
0.968694
0.822563
0.667908
0.507955
0.349567
0.197307
0.0689419
1.95514
2.04107
2.06593
2.01189
1.93329
1.84667
1.74695
1.65383
1.56293
1.46146
1.35024
1.23098
1.10449
0.969348
0.824479
0.67137
0.512827
0.35554
0.202112
0.0739248
2.04193
2.09526
2.09801
2.03533
1.95054
1.8605
1.75864
1.66113
1.56549
1.46179
1.35008
1.23078
1.10443
0.969967
0.826371
0.674753
0.517464
0.360964
0.206146
0.0777369
2.12512
2.14745
2.12764
2.05608
1.9663
1.87188
1.76746
1.66639
1.5672
1.46171
1.34954
1.23035
1.10435
0.97069
0.828372
0.678249
0.522134
0.366182
0.209847
0.080852
2.20065
2.19428
2.15317
2.07349
1.97928
1.88051
1.77352
1.6698
1.56785
1.4608
1.34819
1.22922
1.10374
0.970975
0.829949
0.681198
0.526092
0.370507
0.212605
0.0829513
2.26451
2.23283
2.17347
2.08703
1.98889
1.88619
1.77736
1.67183
1.56789
1.45969
1.34689
1.22838
1.10366
0.971986
0.832325
0.68488
0.530609
0.375102
0.215494
0.0847591
2.31339
2.26121
2.18784
2.09618
1.99451
1.88807
1.77755
1.67099
1.56551
1.45638
1.34337
1.22534
1.10152
0.971114
0.833001
0.687031
0.533735
0.378435
0.217389
0.0858277
2.34531
2.27881
2.19627
2.10108
1.99686
1.88868
1.77855
1.67104
1.5645
1.45504
1.34239
1.22516
1.10223
0.972705
0.835525
0.690442
0.537495
0.38176
0.218865
0.0862424
2.35973
2.28524
2.19744
2.0989
1.99066
1.87959
1.77062
1.66477
1.55707
1.44712
1.33507
1.21924
1.09824
0.970976
0.835993
0.692808
0.541535
0.38594
0.221109
0.0868034
-0.473525
-0.814779
-0.875878
-0.411109
-0.615443
-0.1559
-0.0823616
-0.0935653
-0.588688
-0.805402
-0.826672
-0.663703
-0.581779
-0.330786
-0.250684
-0.231152
-0.494161
-0.762169
-0.774016
-0.714975
-0.721683
-0.556548
-0.441805
-0.403781
-0.56789
-0.740196
-0.793591
-0.850572
-0.857879
-0.744572
-0.620065
-0.566526
-0.679868
-0.770065
-0.88414
-0.996793
-0.979864
-0.896395
-0.779818
-0.722356
-0.757677
-0.835619
-0.996743
-1.10885
-1.08895
-1.02233
-0.917925
-0.864528
-0.819308
-0.915591
-1.10531
-1.2007
-1.18429
-1.13161
-1.0376
-0.992498
-0.893153
-1.00601
-1.20649
-1.28485
-1.26691
-1.22791
-1.14205
-1.10623
-0.983979
-1.1048
-1.30006
-1.36323
-1.34067
-1.31397
-1.23433
-1.20691
-1.08262
-1.20527
-1.38463
-1.4353
-1.40828
-1.39164
-1.31673
-1.29591
-1.18041
-1.30091
-1.4601
-1.50162
-1.47147
-1.46223
-1.39083
-1.37454
-1.27306
-1.38842
-1.52775
-1.56321
-1.53111
-1.5266
-1.4576
-1.44378
-1.35838
-1.46672
-1.58862
-1.62048
-1.58717
-1.58504
-1.51749
-1.50425
-1.43442
-1.53522
-1.64274
-1.67301
-1.63889
-1.63723
-1.57044
-1.55638
-1.49939
-1.59329
-1.68922
-1.71966
-1.68493
-1.68227
-1.61578
-1.60051
-1.55208
-1.64038
-1.72692
-1.75899
-1.72383
-1.71922
-1.65206
-1.63662
-1.59184
-1.67599
-1.75507
-1.78961
-1.75433
-1.74807
-1.67777
-1.66361
-1.61841
-1.69949
-1.77365
-1.81056
-1.77544
-1.76925
-1.6928
-1.68046
-1.63187
-1.70985
-1.78373
-1.82137
-1.78704
-1.78098
-1.69926
-1.68721
-1.63257
-1.70587
-1.78558
-1.82139
-1.79056
-1.78084
-1.69534
-1.68361
-1.62003
-1.68703
-1.77521
-1.81032
-1.78324
-1.76936
-1.67987
-1.66936
-1.59305
-1.65463
-1.74953
-1.78651
-1.76264
-1.7463
-1.65215
-1.64426
-1.55263
-1.60954
-1.70836
-1.74849
-1.72772
-1.71117
-1.612
-1.60835
-1.50028
-1.55281
-1.65297
-1.69664
-1.67874
-1.66395
-1.55968
-1.56206
-1.43742
-1.48589
-1.58516
-1.63231
-1.61677
-1.60519
-1.49583
-1.50617
-1.36559
-1.41055
-1.50697
-1.55717
-1.54333
-1.536
-1.42146
-1.44189
-1.28659
-1.32872
-1.42066
-1.47314
-1.46025
-1.45794
-1.3379
-1.37089
-1.20249
-1.24239
-1.32861
-1.38239
-1.36962
-1.37288
-1.24679
-1.29531
-1.11543
-1.15357
-1.23328
-1.2873
-1.27369
-1.28294
-1.14993
-1.21747
-1.02754
-1.0643
-1.13719
-1.19037
-1.17483
-1.19031
-1.04898
-1.13923
-0.940798
-0.976521
-1.04275
-1.09409
-1.07547
-1.09722
-0.945414
-1.06233
-0.856904
-0.892012
-0.952173
-1.00085
-0.977948
-1.00575
-0.840928
-0.990389
-0.777187
-0.812274
-0.867335
-0.912751
-0.884466
-0.917584
-0.737928
-0.930584
-0.70253
-0.738491
-0.789687
-0.8315
-0.797056
-0.833906
-0.638597
-0.888551
-0.633507
-0.671586
-0.720187
-0.758279
-0.717625
-0.755682
-0.542568
-0.857039
-0.570232
-0.61241
-0.65959
-0.694068
-0.647891
-0.684058
-0.447745
-0.819964
-0.513516
-0.561752
-0.607485
-0.638802
-0.588769
-0.619814
-0.355774
-0.802071
-0.462149
-0.522043
-0.56569
-0.59437
-0.543872
-0.562429
-0.271583
-0.935012
-0.423357
-0.491019
-0.526079
-0.557443
-0.509995
-0.510037
-0.225341
-1.29452
-0.380963
-0.497833
-0.506432
-0.532865
-0.486514
-0.473127
-0.274828
-1.50472
1.94899
1.88507
1.81728
1.80601
1.85524
1.94205
2.05317
2.14082
1.90176
1.86374
1.79919
1.78237
1.82639
1.91092
2.01192
2.09954
1.8365
1.8154
1.75941
1.74082
1.78386
1.87054
1.96752
2.06564
1.76906
1.75854
1.71357
1.69653
1.73542
1.82367
1.92053
2.02426
1.70434
1.69889
1.6633
1.64722
1.68266
1.76984
1.86597
1.97065
1.6462
1.64251
1.61445
1.59916
1.62945
1.71159
1.80525
1.90998
1.59597
1.59259
1.57086
1.5558
1.58013
1.65382
1.74293
1.84749
1.55379
1.55046
1.53445
1.5197
1.53807
1.60082
1.6827
1.78558
1.51892
1.5159
1.50501
1.49096
1.50427
1.55505
1.62703
1.72574
1.49027
1.48784
1.4812
1.46838
1.47783
1.5172
1.57758
1.6697
1.46668
1.4649
1.46159
1.45035
1.45705
1.48673
1.53522
1.61901
1.44713
1.44584
1.44501
1.43555
1.44033
1.46247
1.49991
1.57449
1.43077
1.42967
1.43066
1.42306
1.42652
1.4432
1.47104
1.53624
1.41695
1.41567
1.41804
1.41226
1.41487
1.42792
1.44769
1.50393
1.40523
1.40328
1.40681
1.40273
1.40487
1.41586
1.42896
1.47699
1.3953
1.39214
1.39674
1.39414
1.39617
1.40635
1.41399
1.45476
1.38704
1.38198
1.38755
1.38613
1.38845
1.39861
1.40205
1.43655
1.38043
1.37274
1.37897
1.37836
1.38133
1.39188
1.39248
1.42167
1.37558
1.36455
1.37081
1.37061
1.37449
1.3856
1.38471
1.40951
1.37308
1.35773
1.36311
1.36295
1.36776
1.37953
1.37835
1.39956
1.3742
1.3525
1.35607
1.35571
1.36123
1.37377
1.3732
1.39153
1.38005
1.34913
1.35012
1.34938
1.35519
1.36865
1.36941
1.38528
1.39068
1.349
1.34611
1.34475
1.35011
1.36437
1.36738
1.38084
1.40739
1.35437
1.34488
1.34292
1.3471
1.36173
1.36696
1.37845
1.43113
1.36555
1.3488
1.34495
1.34729
1.36236
1.36841
1.37892
1.46276
1.38331
1.35823
1.35145
1.35179
1.36702
1.37266
1.38262
1.50294
1.40845
1.37303
1.36225
1.36074
1.37596
1.38054
1.38989
1.55206
1.44184
1.39322
1.37692
1.37365
1.38899
1.39259
1.40124
1.61005
1.48438
1.41938
1.39538
1.3902
1.40583
1.40924
1.41724
1.67602
1.53676
1.45263
1.41828
1.41068
1.42657
1.43105
1.43855
1.74779
1.5992
1.49433
1.44696
1.43616
1.45198
1.45888
1.466
1.82116
1.67054
1.54561
1.48326
1.46807
1.48351
1.49395
1.50062
1.88906
1.74714
1.60657
1.52877
1.50779
1.52273
1.53752
1.54355
1.94199
1.8219
1.6755
1.58368
1.55561
1.57033
1.59038
1.59574
1.9717
1.8845
1.74833
1.64633
1.61044
1.62526
1.65204
1.65755
1.97657
1.92491
1.81878
1.71421
1.66971
1.68443
1.72033
1.72829
1.96214
1.94085
1.87906
1.78521
1.7313
1.74391
1.79107
1.80548
1.94921
1.94196
1.92109
1.85535
1.79332
1.79921
1.85736
1.88398
1.9489
1.94172
1.94153
1.91087
1.85283
1.84888
1.90956
1.95397
1.95383
1.94427
1.94618
1.93383
1.88637
1.87145
1.92977
1.99985
)
;

boundaryField
{
    wall
    {
        type            zeroGradient;
    }
    inlet1
    {
        type            zeroGradient;
    }
    inlet2
    {
        type            zeroGradient;
    }
    outlet1
    {
        type            fixedValue;
        value           uniform 0;
    }
    outlet2
    {
        type            outletInlet;
        outletValue     uniform 0;
        value           nonuniform List<scalar> 8(0 -0.814779 -0.875878 0 -0.615443 0 0 0);
    }
    defaultFaces
    {
        type            empty;
    }
}


// ************************************************************************* //
