/*--------------------------------*- C++ -*----------------------------------*\
| =========                 |                                                 |
| \\      /  F ield         | OpenFOAM: The Open Source CFD Toolbox           |
|  \\    /   O peration     | Version:  2.4.0                                 |
|   \\  /    A nd           | Web:      www.OpenFOAM.org                      |
|    \\/     M anipulation  |                                                 |
\*---------------------------------------------------------------------------*/
FoamFile
{
    version     2.0;
    format      ascii;
    class       volScalarField;
    location    "2.02";
    object      nut;
}
// * * * * * * * * * * * * * * * * * * * * * * * * * * * * * * * * * * * * * //

dimensions      [0 2 -1 0 0 0 0];

internalField   nonuniform List<scalar> 
6000
(
1.24046e-05
1.01651e-05
5.70856e-06
2.96897e-06
2.2491e-06
2.88513e-06
3.03582e-06
3.89111e-06
5.344e-06
7.84446e-06
1.02547e-05
1.14915e-05
1.18001e-05
1.11371e-05
1.05716e-05
1.09719e-05
1.09924e-05
1.40956e-05
1.72191e-05
1.89799e-05
1.94404e-05
1.89002e-05
1.76825e-05
1.61519e-05
1.4542e-05
1.29314e-05
1.14016e-05
9.78672e-06
7.97101e-06
6.14445e-06
5.33284e-06
6.28597e-06
7.14413e-06
7.81313e-06
8.29118e-06
8.61762e-06
8.84211e-06
9.00882e-06
9.15001e-06
9.28565e-06
9.42576e-06
9.57349e-06
9.72791e-06
9.88613e-06
1.00447e-05
1.02001e-05
1.03496e-05
1.04908e-05
1.06217e-05
1.07408e-05
1.0847e-05
1.09398e-05
1.10183e-05
1.10845e-05
1.11341e-05
1.11827e-05
1.11942e-05
1.12778e-05
1.11417e-05
1.14453e-05
2.33576e-05
3.48359e-05
1.70124e-05
8.96506e-06
7.85576e-06
1.14516e-05
1.89328e-05
2.38997e-05
3.26135e-05
4.358e-05
5.33711e-05
4.89539e-05
3.40997e-05
2.76704e-05
2.8338e-05
3.28627e-05
3.27807e-05
2.42561e-05
1.79213e-05
1.64241e-05
1.83718e-05
2.35261e-05
3.04801e-05
3.66611e-05
4.25711e-05
4.71733e-05
4.94214e-05
4.91323e-05
4.57765e-05
3.79041e-05
2.53427e-05
1.70175e-05
1.24723e-05
1.02249e-05
9.21526e-06
8.82222e-06
8.72528e-06
8.76576e-06
8.86703e-06
8.993e-06
9.12691e-06
9.26071e-06
9.38984e-06
9.51084e-06
9.62036e-06
9.71496e-06
9.79118e-06
9.84569e-06
9.87543e-06
9.87764e-06
9.85004e-06
9.79039e-06
9.69804e-06
9.5698e-06
9.41219e-06
9.2075e-06
9.00626e-06
8.6727e-06
8.41805e-06
8.04235e-06
2.88994e-05
5.03496e-05
2.42008e-05
1.19185e-05
1.63535e-05
2.14059e-05
3.16455e-05
3.93522e-05
5.27199e-05
6.98729e-05
8.67764e-05
8.71971e-05
6.95711e-05
5.50013e-05
4.82807e-05
4.55058e-05
3.19894e-05
2.04942e-05
2.10447e-05
3.13073e-05
4.8213e-05
6.60435e-05
7.83515e-05
8.62927e-05
9.1113e-05
9.23193e-05
8.96575e-05
8.32516e-05
7.3498e-05
6.08044e-05
4.66356e-05
3.59455e-05
2.77384e-05
2.19833e-05
1.83222e-05
1.61302e-05
1.48442e-05
1.40793e-05
1.36018e-05
1.32773e-05
1.30308e-05
1.28229e-05
1.2634e-05
1.24554e-05
1.22832e-05
1.21144e-05
1.19456e-05
1.17722e-05
1.15885e-05
1.13879e-05
1.11638e-05
1.0909e-05
1.06176e-05
1.02826e-05
9.90324e-06
9.46554e-06
8.99667e-06
8.4185e-06
7.71527e-06
6.91287e-06
3.21947e-05
5.72327e-05
2.74796e-05
1.40122e-05
2.32272e-05
2.87289e-05
3.99507e-05
4.91739e-05
6.43047e-05
8.23737e-05
0.000100771
0.000106961
9.27042e-05
7.59223e-05
6.18503e-05
4.89471e-05
2.78648e-05
2.32124e-05
3.84418e-05
6.3973e-05
8.70041e-05
0.000102056
0.000110379
0.000115075
0.000116492
0.000114334
0.000108376
9.87268e-05
8.62045e-05
7.20779e-05
5.82575e-05
4.80455e-05
4.0031e-05
3.39565e-05
2.95092e-05
2.64075e-05
2.43329e-05
2.29558e-05
2.20044e-05
2.1286e-05
2.06756e-05
2.00989e-05
1.9518e-05
1.89189e-05
1.83022e-05
1.76749e-05
1.70452e-05
1.64197e-05
1.58017e-05
1.51911e-05
1.45848e-05
1.39769e-05
1.33597e-05
1.27249e-05
1.20627e-05
1.13676e-05
1.06278e-05
9.85465e-06
8.8578e-06
8.12224e-06
3.39567e-05
5.945e-05
3.38822e-05
1.54365e-05
2.80218e-05
3.4054e-05
4.54839e-05
5.53404e-05
7.0395e-05
8.67309e-05
0.000103721
0.000115933
0.000106092
8.94793e-05
7.08047e-05
4.6351e-05
2.61594e-05
3.36895e-05
6.50282e-05
9.46103e-05
0.000112556
0.000122786
0.000128852
0.000131926
0.000131737
0.000127909
0.000120146
0.000108531
9.40723e-05
7.86366e-05
6.47074e-05
5.43588e-05
4.63231e-05
4.0679e-05
3.68128e-05
3.41047e-05
3.22197e-05
3.09401e-05
3.00667e-05
2.9426e-05
2.88835e-05
2.83458e-05
2.77552e-05
2.70824e-05
2.63197e-05
2.54734e-05
2.4558e-05
2.35913e-05
2.25915e-05
2.15747e-05
2.05541e-05
1.95391e-05
1.8534e-05
1.75422e-05
1.65557e-05
1.55882e-05
1.45918e-05
1.37056e-05
1.25082e-05
1.23386e-05
3.49046e-05
5.9043e-05
4.11941e-05
1.53804e-05
3.06465e-05
3.816e-05
4.92271e-05
5.90343e-05
7.29055e-05
8.65092e-05
0.000100286
0.000118487
0.000113718
9.85494e-05
7.49568e-05
4.19001e-05
2.79906e-05
5.09305e-05
9.11611e-05
0.000116129
0.000129261
0.000137434
0.000142842
0.000145224
0.0001441
0.000139115
0.000129982
0.000116741
0.000100424
8.3331e-05
6.91848e-05
5.85867e-05
4.99367e-05
4.392e-05
4.02751e-05
3.81061e-05
3.67337e-05
3.5851e-05
3.53021e-05
3.49615e-05
3.47179e-05
3.44816e-05
3.41868e-05
3.37907e-05
3.32697e-05
3.26159e-05
3.18322e-05
3.09296e-05
2.99243e-05
2.88365e-05
2.76881e-05
2.65022e-05
2.52999e-05
2.41033e-05
2.29228e-05
2.17981e-05
2.06854e-05
1.98227e-05
1.87165e-05
1.94237e-05
3.54158e-05
5.72004e-05
4.67229e-05
1.68768e-05
3.08198e-05
4.15477e-05
5.19246e-05
6.11269e-05
7.32689e-05
8.39794e-05
9.35211e-05
0.000116696
0.000117668
0.000104632
7.4978e-05
3.82489e-05
3.35514e-05
7.17443e-05
0.000112177
0.000131862
0.000142861
0.000150666
0.000156013
0.000157917
0.000155921
0.000149803
0.000139363
0.000124607
0.00010647
8.73697e-05
7.27508e-05
6.20602e-05
5.29194e-05
4.60473e-05
4.18571e-05
3.97047e-05
3.86429e-05
3.81002e-05
3.785e-05
3.77863e-05
3.78265e-05
3.78961e-05
3.79329e-05
3.789e-05
3.77353e-05
3.74499e-05
3.70251e-05
3.64602e-05
3.57611e-05
3.49394e-05
3.40123e-05
3.30022e-05
3.1936e-05
3.08454e-05
2.97616e-05
2.87371e-05
2.77838e-05
2.7127e-05
2.65086e-05
2.79945e-05
3.56754e-05
5.46505e-05
5.04491e-05
2.29564e-05
2.88304e-05
4.44722e-05
5.42005e-05
6.24077e-05
7.26666e-05
8.0733e-05
8.59416e-05
0.000111628
0.000119066
0.000108249
7.18616e-05
3.623e-05
4.28013e-05
9.24828e-05
0.000128736
0.000145312
0.000156075
0.000164267
0.000169684
0.000171008
0.000167946
0.000160515
0.000148678
0.000132447
0.000112605
9.13858e-05
7.58079e-05
6.49381e-05
5.57107e-05
4.81447e-05
4.30192e-05
4.02991e-05
3.91301e-05
3.87049e-05
3.86235e-05
3.87368e-05
3.897e-05
3.92609e-05
3.9553e-05
3.97993e-05
3.9964e-05
4.00233e-05
3.9963e-05
3.97766e-05
3.94637e-05
3.90294e-05
3.8484e-05
3.7844e-05
3.71335e-05
3.63825e-05
3.56346e-05
3.49381e-05
3.43731e-05
3.4076e-05
3.42153e-05
3.62208e-05
3.57855e-05
5.1841e-05
5.2618e-05
3.06554e-05
2.62441e-05
4.6909e-05
5.65597e-05
6.36301e-05
7.2157e-05
7.81779e-05
7.95064e-05
0.000103854
0.000118543
0.000109364
6.66825e-05
3.60498e-05
5.52589e-05
0.000111111
0.000142783
0.000158442
0.000170067
0.000178963
0.000184376
0.00018487
0.000180425
0.000171396
0.000157986
0.000140261
0.000118857
9.56702e-05
7.87094e-05
6.72617e-05
5.81377e-05
5.03346e-05
4.43774e-05
4.07823e-05
3.91101e-05
3.85236e-05
3.84446e-05
3.8622e-05
3.89546e-05
3.93797e-05
3.98422e-05
4.02934e-05
4.06941e-05
4.10164e-05
4.12432e-05
4.13664e-05
4.13848e-05
4.13027e-05
4.11292e-05
4.08785e-05
4.05729e-05
4.02387e-05
3.99271e-05
3.96721e-05
3.96227e-05
3.9776e-05
4.07794e-05
4.31153e-05
3.58078e-05
4.9041e-05
5.34937e-05
3.82086e-05
2.49902e-05
4.84725e-05
5.92943e-05
6.5437e-05
7.2583e-05
7.7186e-05
7.51416e-05
9.39154e-05
0.000116429
0.000107422
6.08663e-05
3.77298e-05
6.99406e-05
0.000127358
0.000155864
0.000172237
0.000185365
0.00019508
0.000200319
0.00019966
0.000193448
0.000182472
0.000167252
0.000147958
0.00012511
0.000100254
8.17529e-05
6.9231e-05
6.00446e-05
5.23718e-05
4.59659e-05
4.15242e-05
3.91228e-05
3.81279e-05
3.78792e-05
3.80078e-05
3.83552e-05
3.88411e-05
3.9405e-05
3.99934e-05
4.05611e-05
4.10743e-05
4.15115e-05
4.18626e-05
4.21272e-05
4.23118e-05
4.24293e-05
4.24965e-05
4.25392e-05
4.25839e-05
4.26896e-05
4.28777e-05
4.33555e-05
4.39799e-05
4.58077e-05
4.84091e-05
3.57801e-05
4.64042e-05
5.33452e-05
4.45761e-05
2.67429e-05
4.84697e-05
6.23996e-05
6.82267e-05
7.44341e-05
7.80872e-05
7.294e-05
8.29608e-05
0.000112766
0.000102239
5.58419e-05
4.12723e-05
8.56509e-05
0.000141801
0.000168956
0.000187191
0.00020222
0.000212773
0.000217617
0.000215443
0.000207049
0.000193742
0.000176435
0.000155449
0.00013122
0.000105023
8.50815e-05
7.11174e-05
6.14697e-05
5.40201e-05
4.75711e-05
4.25383e-05
3.93871e-05
3.78313e-05
3.72653e-05
3.72394e-05
3.75248e-05
3.80091e-05
3.86189e-05
3.9293e-05
3.99783e-05
4.06326e-05
4.1227e-05
4.17467e-05
4.21898e-05
4.25648e-05
4.28892e-05
4.31856e-05
4.34865e-05
4.38238e-05
4.42666e-05
4.4831e-05
4.57709e-05
4.68309e-05
4.93831e-05
5.22256e-05
3.57252e-05
4.40096e-05
5.24289e-05
4.94974e-05
3.2112e-05
4.6593e-05
6.55891e-05
7.20813e-05
7.78369e-05
8.09037e-05
7.28362e-05
7.30601e-05
0.000107143
9.48985e-05
5.1954e-05
4.6672e-05
0.000101373
0.00015517
0.000182636
0.000203541
0.000220733
0.000232091
0.000236296
0.000232235
0.000221232
0.000205198
0.000185507
0.000162671
0.000137069
0.000109819
8.86801e-05
7.31327e-05
6.25921e-05
5.51915e-05
4.89577e-05
4.36679e-05
3.9906e-05
3.77518e-05
3.67722e-05
3.65039e-05
3.66594e-05
3.70875e-05
3.76963e-05
3.84145e-05
3.91804e-05
3.9942e-05
4.06607e-05
4.13134e-05
4.18937e-05
4.24092e-05
4.288e-05
4.33345e-05
4.38129e-05
4.4355e-05
4.50416e-05
4.58909e-05
4.71936e-05
4.86186e-05
5.17614e-05
5.48269e-05
3.56565e-05
4.18887e-05
5.09742e-05
5.29501e-05
3.85043e-05
4.33553e-05
6.8385e-05
7.68111e-05
8.26457e-05
8.54424e-05
7.4667e-05
6.5791e-05
9.84754e-05
8.6513e-05
4.93663e-05
5.3874e-05
0.000116491
0.000168085
0.000197224
0.000221383
0.000240915
0.000253011
0.000256327
0.000250015
0.000235982
0.000216826
0.00019445
0.000169588
0.000142577
0.000114507
9.24364e-05
7.53699e-05
6.3623e-05
5.59436e-05
4.99753e-05
4.47207e-05
4.05722e-05
3.7882e-05
3.64545e-05
3.58848e-05
3.58561e-05
3.61815e-05
3.67487e-05
3.74752e-05
3.82908e-05
3.91338e-05
3.99549e-05
4.07207e-05
4.14166e-05
4.20459e-05
4.26284e-05
4.31962e-05
4.37957e-05
4.4475e-05
4.53259e-05
4.63738e-05
4.79377e-05
4.96441e-05
5.32344e-05
5.64956e-05
3.55826e-05
4.00438e-05
4.91757e-05
5.5043e-05
4.46495e-05
4.00317e-05
7.01929e-05
8.20624e-05
8.85735e-05
9.14177e-05
7.83694e-05
6.1453e-05
8.76827e-05
7.8116e-05
4.81414e-05
6.27288e-05
0.000130785
0.000180993
0.000212882
0.00024072
0.000262702
0.000275451
0.000277635
0.000268726
0.000251262
0.000228605
0.000203251
0.000176183
0.000147704
0.000118993
9.6208e-05
7.78133e-05
6.47253e-05
5.64193e-05
5.0585e-05
4.55425e-05
4.12456e-05
3.81489e-05
3.62971e-05
3.54013e-05
3.51523e-05
3.53394e-05
3.58313e-05
3.65348e-05
3.73722e-05
3.82738e-05
3.91799e-05
4.00458e-05
4.08463e-05
4.15775e-05
4.22558e-05
4.29137e-05
4.36018e-05
4.43747e-05
4.53339e-05
4.65133e-05
4.82529e-05
5.01615e-05
5.40667e-05
5.74861e-05
3.55085e-05
3.84605e-05
4.71909e-05
5.59494e-05
5.00038e-05
4.01136e-05
7.04281e-05
8.74068e-05
9.53035e-05
9.85431e-05
8.38737e-05
5.98553e-05
7.6474e-05
7.04832e-05
4.83015e-05
7.29766e-05
0.000144305
0.000194196
0.000229666
0.000261488
0.000285981
0.000299284
0.000300104
0.000288277
0.00026701
0.000240497
0.000211891
0.000182447
0.00015243
0.000123232
9.98684e-05
8.03807e-05
6.59808e-05
5.67802e-05
5.08399e-05
4.60478e-05
4.17992e-05
3.84565e-05
3.62493e-05
3.5036e-05
3.45511e-05
3.45771e-05
3.49684e-05
3.5623e-05
3.64573e-05
3.73958e-05
3.83701e-05
3.93248e-05
4.02231e-05
4.10514e-05
4.18198e-05
4.25586e-05
4.33201e-05
4.41632e-05
4.51965e-05
4.64622e-05
4.83149e-05
5.03606e-05
5.44704e-05
5.80062e-05
3.54371e-05
3.71156e-05
4.5142e-05
5.58684e-05
5.43475e-05
4.35052e-05
6.86973e-05
9.23804e-05
0.000102546
0.000106561
9.10146e-05
6.07679e-05
6.65606e-05
6.41932e-05
4.98577e-05
8.42745e-05
0.000157231
0.000207877
0.000247558
0.000283575
0.000310599
0.000324352
0.000323592
0.000308554
0.000283143
0.000252451
0.000220346
0.000188371
0.000156752
0.000127204
0.000103324
8.29671e-05
6.73952e-05
5.71581e-05
5.08482e-05
4.62237e-05
4.21437e-05
3.87126e-05
3.6247e-05
3.47531e-05
3.40366e-05
3.3892e-05
3.41671e-05
3.47533e-05
3.55635e-05
3.65186e-05
3.75444e-05
3.85759e-05
3.95653e-05
4.04878e-05
4.13452e-05
4.21632e-05
4.2993e-05
4.38962e-05
4.49858e-05
4.63111e-05
4.82357e-05
5.03711e-05
5.4602e-05
5.82145e-05
3.53703e-05
3.59822e-05
4.31197e-05
5.50027e-05
5.7587e-05
4.86915e-05
6.50491e-05
9.64791e-05
0.000110003
0.00011524
9.9573e-05
6.40278e-05
5.9259e-05
5.95902e-05
5.2816e-05
9.62531e-05
0.000169777
0.000222134
0.00026649
0.000306836
0.00033638
0.000350471
0.000347929
0.00032942
0.000299563
0.000264404
0.000228583
0.000193946
0.000160674
0.000130907
0.000106513
8.54743e-05
6.89238e-05
5.76324e-05
5.07324e-05
4.61152e-05
4.22363e-05
3.88443e-05
3.62276e-05
3.45101e-05
3.35838e-05
3.3272e-05
3.34246e-05
3.39301e-05
3.47001e-05
3.5654e-05
3.67146e-05
3.78101e-05
3.88824e-05
3.98958e-05
4.0842e-05
4.174e-05
4.26384e-05
4.35989e-05
4.47376e-05
4.61087e-05
4.80813e-05
5.0275e-05
5.45689e-05
5.82247e-05
3.53088e-05
3.5033e-05
4.11875e-05
5.35455e-05
5.9713e-05
5.43313e-05
6.1965e-05
9.91594e-05
0.000117194
0.000124359
0.000109331
6.94899e-05
5.51423e-05
5.68262e-05
5.71695e-05
0.000108577
0.000182137
0.000236997
0.000286358
0.000331104
0.00036313
0.000377446
0.000372933
0.000350722
0.000316154
0.000276281
0.000236564
0.000199158
0.000164203
0.000134347
0.000109398
8.78238e-05
7.04974e-05
5.82295e-05
5.05996e-05
4.58034e-05
4.20798e-05
3.88063e-05
3.61391e-05
3.42661e-05
3.31645e-05
3.26998e-05
3.27325e-05
3.31522e-05
3.38709e-05
3.48093e-05
3.58894e-05
3.70354e-05
3.81813e-05
3.92805e-05
4.03144e-05
4.12939e-05
4.22627e-05
4.32816e-05
4.44677e-05
4.58791e-05
4.78872e-05
5.01204e-05
5.44398e-05
5.8114e-05
3.52529e-05
3.42422e-05
3.93871e-05
5.16718e-05
6.07798e-05
5.95962e-05
6.14444e-05
9.98663e-05
0.000123743
0.000133688
0.000120077
7.69926e-05
5.41561e-05
5.59291e-05
6.28832e-05
0.000120987
0.000194458
0.000252446
0.000307027
0.000356197
0.000390648
0.000405072
0.00039841
0.000372292
0.000332788
0.000288
0.000244242
0.00020399
0.000167458
0.00013742
0.000111952
8.99597e-05
7.20442e-05
5.89346e-05
5.05237e-05
4.53808e-05
4.17133e-05
3.85834e-05
3.59453e-05
3.39864e-05
3.27525e-05
3.21572e-05
3.20797e-05
3.24146e-05
3.30765e-05
3.39888e-05
3.50753e-05
3.62588e-05
3.74676e-05
3.86461e-05
3.97652e-05
4.08266e-05
4.18681e-05
4.29475e-05
4.41823e-05
4.56327e-05
4.76708e-05
4.99335e-05
5.42565e-05
5.79321e-05
3.52027e-05
3.3586e-05
3.77428e-05
4.95344e-05
6.08868e-05
6.4026e-05
6.34802e-05
9.8586e-05
0.000129258
0.000142982
0.000131593
8.63547e-05
5.59797e-05
5.68612e-05
6.98819e-05
0.000133313
0.00020684
0.000268423
0.000328347
0.000381923
0.000418725
0.000433138
0.000424159
0.000393955
0.000349332
0.000299471
0.000251572
0.000208423
0.00017048
0.000140109
0.000114162
9.18455e-05
7.3501e-05
5.97085e-05
5.05414e-05
4.49314e-05
4.1198e-05
3.81883e-05
3.56289e-05
3.3646e-05
3.23255e-05
3.16273e-05
3.14545e-05
3.17108e-05
3.23149e-05
3.31945e-05
3.42768e-05
3.54858e-05
3.67468e-05
3.79968e-05
3.9197e-05
4.03397e-05
4.14552e-05
4.25976e-05
4.38831e-05
4.53735e-05
4.74402e-05
4.97275e-05
5.40425e-05
5.77092e-05
3.51579e-05
3.30436e-05
3.62652e-05
4.72615e-05
6.01638e-05
6.7384e-05
6.70768e-05
9.65769e-05
0.000133324
0.000151973
0.000143642
9.73824e-05
6.02704e-05
5.95512e-05
7.80448e-05
0.000145462
0.000219335
0.00028484
0.000350151
0.000408083
0.000447152
0.000461432
0.000449973
0.000415527
0.000365641
0.000310602
0.0002585
0.000212439
0.00017329
0.000142409
0.000116021
9.34583e-05
7.48183e-05
6.05022e-05
5.06572e-05
4.45181e-05
4.06023e-05
3.76527e-05
3.51906e-05
3.32311e-05
3.18674e-05
3.1096e-05
3.08461e-05
3.10334e-05
3.15827e-05
3.24265e-05
3.3497e-05
3.47212e-05
3.60238e-05
3.73368e-05
3.86129e-05
3.98348e-05
4.10248e-05
4.22321e-05
4.35705e-05
4.51027e-05
4.71983e-05
4.95087e-05
5.38106e-05
5.7463e-05
3.51182e-05
3.25967e-05
3.49558e-05
4.49567e-05
5.87572e-05
6.95778e-05
7.1301e-05
9.52369e-05
0.000135559
0.000160365
0.00015597
0.000109871
6.67344e-05
6.39039e-05
8.72116e-05
0.0001574
0.000231953
0.000301588
0.000372264
0.000434474
0.000475714
0.000489734
0.000475641
0.00043682
0.000381566
0.000321295
0.000264977
0.000216026
0.000175903
0.000144315
0.000117523
9.47852e-05
7.59608e-05
6.12679e-05
5.08531e-05
4.41777e-05
3.99864e-05
3.70226e-05
3.46468e-05
3.27396e-05
3.13688e-05
3.05531e-05
3.02457e-05
3.03759e-05
3.08758e-05
3.16837e-05
3.27375e-05
3.39685e-05
3.5303e-05
3.66702e-05
3.80159e-05
3.93139e-05
4.05779e-05
4.18513e-05
4.32446e-05
4.48205e-05
4.69463e-05
4.92798e-05
5.35671e-05
5.72033e-05
3.50831e-05
3.22295e-05
3.38088e-05
4.27e-05
5.68187e-05
7.06127e-05
7.54366e-05
9.51015e-05
0.000136296
0.000167824
0.000168306
0.000123603
7.5097e-05
6.97975e-05
9.71973e-05
0.000169125
0.000244672
0.000318539
0.000394502
0.000460888
0.000504193
0.000517825
0.000500948
0.00045764
0.000396957
0.000331455
0.000270954
0.000219189
0.000178319
0.000145822
0.000118664
9.58195e-05
7.69048e-05
6.19642e-05
5.10986e-05
4.39228e-05
3.94007e-05
3.63493e-05
3.4024e-05
3.21795e-05
3.08276e-05
2.99928e-05
2.96468e-05
2.97327e-05
3.01905e-05
3.09646e-05
3.19989e-05
3.32302e-05
3.45881e-05
3.60009e-05
3.74094e-05
3.87792e-05
4.01158e-05
4.14557e-05
4.29054e-05
4.45268e-05
4.66843e-05
4.90417e-05
5.33151e-05
5.69352e-05
3.50522e-05
3.19289e-05
3.28143e-05
4.05504e-05
5.44968e-05
7.05613e-05
7.89825e-05
9.61587e-05
0.000136188
0.000173965
0.000180367
0.000138333
8.50928e-05
7.70822e-05
0.000107811
0.000180649
0.000257441
0.000335554
0.000416676
0.000487112
0.000532365
0.000545475
0.000525673
0.00047779
0.000411658
0.000340981
0.000276383
0.000222146
0.000180327
0.00014692
0.000119444
9.65588e-05
7.76365e-05
6.25588e-05
5.13597e-05
4.37476e-05
3.88781e-05
3.56776e-05
3.33554e-05
3.15664e-05
3.02479e-05
2.94135e-05
2.90458e-05
2.90997e-05
2.95233e-05
3.02672e-05
3.12812e-05
3.25082e-05
3.38821e-05
3.53324e-05
3.67965e-05
3.82333e-05
3.964e-05
4.10462e-05
4.25532e-05
4.42217e-05
4.64124e-05
4.87949e-05
5.3056e-05
5.66613e-05
3.50251e-05
3.16833e-05
3.19597e-05
3.8548e-05
5.19292e-05
6.95428e-05
8.16158e-05
9.80448e-05
0.000135851
0.000178572
0.000191851
0.000153779
9.64358e-05
8.55844e-05
0.000118869
0.000191981
0.000270191
0.000352483
0.000438594
0.00051293
0.000560002
0.000572453
0.000549594
0.000497071
0.000425518
0.000349776
0.000281218
0.000224961
0.000181885
0.000147604
0.000119865
9.70038e-05
7.81487e-05
6.30286e-05
5.16039e-05
4.36343e-05
3.84295e-05
3.50397e-05
3.26756e-05
3.09208e-05
2.96388e-05
2.88174e-05
2.84414e-05
2.84743e-05
2.88717e-05
2.95897e-05
3.05839e-05
3.18035e-05
3.31874e-05
3.46677e-05
3.61803e-05
3.76787e-05
3.91524e-05
4.06239e-05
4.21887e-05
4.39055e-05
4.61308e-05
4.85395e-05
5.27903e-05
5.63828e-05
3.50014e-05
3.14835e-05
3.12312e-05
3.67174e-05
4.92381e-05
6.77055e-05
8.31566e-05
0.000100261
0.000135612
0.00018169
0.000202434
0.000169607
0.000108935
9.5119e-05
0.000130208
0.000203121
0.000282833
0.000369171
0.00046006
0.000538119
0.000586867
0.000598518
0.000572482
0.000515279
0.000438384
0.000357743
0.000285411
0.000227669
0.000182976
0.000147871
0.000119928
9.71578e-05
7.84392e-05
6.33583e-05
5.18041e-05
4.35597e-05
3.80528e-05
3.44555e-05
3.20118e-05
3.02642e-05
2.90122e-05
2.82097e-05
2.78348e-05
2.78557e-05
2.82339e-05
2.89306e-05
2.99065e-05
3.11167e-05
3.25058e-05
3.40095e-05
3.55637e-05
3.71178e-05
3.86549e-05
4.019e-05
4.18126e-05
4.35784e-05
4.58395e-05
4.82758e-05
5.25185e-05
5.61006e-05
3.49806e-05
3.13214e-05
3.06148e-05
3.50706e-05
4.65269e-05
6.52137e-05
8.35382e-05
0.000102319
0.000135596
0.000183479
0.000211746
0.000185434
0.000122419
0.000105505
0.000141689
0.000214055
0.000295268
0.00038546
0.000480874
0.000562453
0.000612716
0.000623426
0.000594103
0.000532212
0.000450113
0.000364789
0.000289342
0.000229896
0.00018358
0.000147721
0.000119639
9.7026e-05
7.85097e-05
6.35393e-05
5.19389e-05
4.35e-05
3.77372e-05
3.39328e-05
3.13834e-05
2.96154e-05
2.83814e-05
2.75972e-05
2.72287e-05
2.72444e-05
2.76093e-05
2.82888e-05
2.92483e-05
3.04481e-05
3.18387e-05
3.33599e-05
3.49491e-05
3.65532e-05
3.81493e-05
3.97458e-05
4.14255e-05
4.3241e-05
4.5539e-05
4.80038e-05
5.22408e-05
5.58149e-05
3.49625e-05
3.11904e-05
3.00969e-05
3.36095e-05
4.38792e-05
6.22359e-05
8.27836e-05
0.00010381
0.000135741
0.000184242
0.000219469
0.00020085
0.000136748
0.000116582
0.0001532
0.000224756
0.000307393
0.000401189
0.000500835
0.000585697
0.000637294
0.000646919
0.000614219
0.000547666
0.000460566
0.000370826
0.000293151
0.000231529
0.000183683
0.000147155
0.000119007
9.6616e-05
7.83645e-05
6.35678e-05
5.19931e-05
4.34334e-05
3.74671e-05
3.34706e-05
3.08017e-05
2.8989e-05
2.77586e-05
2.69878e-05
2.66272e-05
2.66417e-05
2.69978e-05
2.76639e-05
2.86089e-05
2.9798e-05
3.1187e-05
3.27208e-05
3.43389e-05
3.59872e-05
3.76377e-05
3.92928e-05
4.10287e-05
4.28938e-05
4.52294e-05
4.77239e-05
5.19574e-05
5.55259e-05
3.49467e-05
3.1085e-05
2.96645e-05
3.23291e-05
4.1359e-05
5.8935e-05
8.09833e-05
0.000104433
0.000135852
0.000184203
0.00022549
0.000215448
0.000151808
0.000128226
0.00016466
0.000235195
0.000319104
0.000416197
0.000519733
0.000607609
0.000660336
0.000668731
0.000632589
0.000561441
0.000469614
0.000376251
0.000296434
0.000232522
0.000183273
0.000146178
0.000118039
9.5937e-05
7.801e-05
6.34441e-05
5.19571e-05
4.33421e-05
3.72254e-05
3.30618e-05
3.02708e-05
2.83972e-05
2.71543e-05
2.63891e-05
2.60348e-05
2.60498e-05
2.64001e-05
2.70556e-05
2.79879e-05
2.91663e-05
3.05516e-05
3.20936e-05
3.37351e-05
3.54217e-05
3.71221e-05
3.88326e-05
4.06229e-05
4.25376e-05
4.49113e-05
4.74364e-05
5.16684e-05
5.5234e-05
3.49329e-05
3.10006e-05
2.93059e-05
3.12193e-05
3.90115e-05
5.54611e-05
7.82772e-05
0.000104002
0.000135665
0.000183435
0.000229745
0.000228842
0.000167473
0.000140372
0.000176036
0.000245355
0.000330307
0.000430325
0.000537349
0.000627934
0.000681564
0.000688585
0.000648966
0.000573341
0.000477159
0.000381363
0.000298915
0.000232843
0.000182347
0.000144797
0.000116749
9.50001e-05
7.74547e-05
6.31712e-05
5.18253e-05
4.32123e-05
3.69961e-05
3.26959e-05
2.97891e-05
2.78456e-05
2.65764e-05
2.58078e-05
2.5456e-05
2.54712e-05
2.58172e-05
2.64641e-05
2.73852e-05
2.8553e-05
2.99329e-05
3.14796e-05
3.31394e-05
3.48589e-05
3.66041e-05
3.83665e-05
4.02094e-05
4.2173e-05
4.45851e-05
4.71416e-05
5.13743e-05
5.49392e-05
3.49208e-05
3.09334e-05
2.90104e-05
3.02668e-05
3.68656e-05
5.19457e-05
7.4837e-05
0.000102436
0.000134905
0.000181968
0.000232282
0.000240646
0.000183552
0.000153024
0.000187393
0.000255268
0.000340941
0.000443414
0.000553448
0.000646401
0.000700686
0.000706201
0.000663104
0.000583181
0.000483846
0.000385565
0.000300488
0.000232471
0.000180904
0.000143022
0.000115149
9.38183e-05
7.67082e-05
6.27544e-05
5.1596e-05
4.30344e-05
3.67653e-05
3.23611e-05
2.93515e-05
2.73355e-05
2.60299e-05
2.52491e-05
2.48948e-05
2.49087e-05
2.52506e-05
2.58899e-05
2.68009e-05
2.79583e-05
2.93314e-05
3.08796e-05
3.25532e-05
3.43004e-05
3.60857e-05
3.78963e-05
3.97894e-05
4.18008e-05
4.42514e-05
4.684e-05
5.10751e-05
5.46418e-05
3.49102e-05
3.08803e-05
2.87686e-05
2.94567e-05
3.49361e-05
4.84986e-05
7.085e-05
9.97475e-05
0.000133334
0.000179775
0.000233137
0.000250687
0.000199674
0.00016628
0.000199016
0.000265072
0.000350991
0.000455311
0.000567771
0.000662717
0.00071739
0.00072128
0.00067475
0.000591363
0.000489459
0.000388593
0.000301103
0.000231394
0.000178946
0.000140866
0.000113256
9.2406e-05
7.57818e-05
6.22007e-05
5.12703e-05
4.28021e-05
3.65217e-05
3.2046e-05
2.89509e-05
2.68652e-05
2.55172e-05
2.47167e-05
2.43547e-05
2.43644e-05
2.47016e-05
2.53338e-05
2.62352e-05
2.73822e-05
2.87474e-05
3.02946e-05
3.19779e-05
3.3748e-05
3.55684e-05
3.74232e-05
3.93639e-05
4.14219e-05
4.39108e-05
4.65319e-05
5.07713e-05
5.43421e-05
3.4901e-05
3.08385e-05
2.8572e-05
2.87735e-05
3.32263e-05
4.52063e-05
6.65059e-05
9.60265e-05
0.000130773
0.000176783
0.000232323
0.000258712
0.000215167
0.000180335
0.000210684
0.000274667
0.000360569
0.000466212
0.000580383
0.00067656
0.000731343
0.000733531
0.000684112
0.000597922
0.000493634
0.000390329
0.000300732
0.000229607
0.000176485
0.000138344
0.000111088
9.07792e-05
7.46879e-05
6.15183e-05
5.0851e-05
4.25123e-05
3.62568e-05
3.17405e-05
2.85793e-05
2.6431e-05
2.50383e-05
2.42128e-05
2.3838e-05
2.38406e-05
2.41716e-05
2.47963e-05
2.56883e-05
2.68248e-05
2.81812e-05
2.9725e-05
3.14145e-05
3.32029e-05
3.50539e-05
3.69488e-05
3.89343e-05
4.10372e-05
4.35638e-05
4.62178e-05
5.0463e-05
5.40401e-05
3.48929e-05
3.0806e-05
2.84135e-05
2.8202e-05
3.17308e-05
4.21323e-05
6.19843e-05
9.14237e-05
0.000127125
0.000172898
0.000229809
0.000264484
0.00022914
0.000195015
0.000222248
0.000284046
0.000369621
0.00047604
0.000591216
0.000687997
0.000742512
0.000743037
0.000691198
0.00060266
0.000496177
0.000390716
0.000299364
0.000227116
0.000173533
0.000135477
0.000108665
8.89554e-05
7.34398e-05
6.07166e-05
5.0343e-05
4.21643e-05
3.59649e-05
3.14363e-05
2.82289e-05
2.60279e-05
2.45912e-05
2.37379e-05
2.33465e-05
2.33388e-05
2.36619e-05
2.42782e-05
2.51605e-05
2.62864e-05
2.7633e-05
2.91714e-05
3.08638e-05
3.26664e-05
3.45435e-05
3.64746e-05
3.85017e-05
4.06476e-05
4.32112e-05
4.58982e-05
5.01508e-05
5.37362e-05
3.48859e-05
3.0781e-05
2.82868e-05
2.77276e-05
3.04382e-05
3.93187e-05
5.74465e-05
8.61312e-05
0.000122377
0.000168025
0.000225598
0.000268021
0.000241315
0.000209733
0.000233652
0.000293186
0.000378099
0.000484737
0.000600235
0.000697036
0.000750953
0.000749872
0.000695991
0.000605431
0.000496992
0.000389731
0.000296998
0.000223932
0.000170111
0.000132286
0.000106007
8.6953e-05
7.20518e-05
5.98056e-05
4.97522e-05
4.1759e-05
3.56423e-05
3.11267e-05
2.78928e-05
2.56506e-05
2.41739e-05
2.32916e-05
2.28808e-05
2.28602e-05
2.31733e-05
2.37802e-05
2.46522e-05
2.57669e-05
2.71029e-05
2.86343e-05
3.03267e-05
3.21396e-05
3.40385e-05
3.60016e-05
3.80672e-05
4.02542e-05
4.28537e-05
4.55736e-05
4.98348e-05
5.34306e-05
3.48797e-05
3.0762e-05
2.81864e-05
2.73368e-05
2.93329e-05
3.67886e-05
5.30283e-05
8.03635e-05
0.000116597
0.000162098
0.00022002
0.000269313
0.000251736
0.000223788
0.000244792
0.000302048
0.000385959
0.00049226
0.000607426
0.000703706
0.000756728
0.000754098
0.000698468
0.000606148
0.00049604
0.000387375
0.000293648
0.000220076
0.000166241
0.000128797
0.00010314
8.47917e-05
7.05389e-05
5.8796e-05
4.90851e-05
4.12991e-05
3.52875e-05
3.08069e-05
2.75649e-05
2.5294e-05
2.37835e-05
2.28729e-05
2.2441e-05
2.24052e-05
2.27065e-05
2.33028e-05
2.41636e-05
2.52665e-05
2.65911e-05
2.81138e-05
2.98037e-05
3.16234e-05
3.35401e-05
3.55314e-05
3.7632e-05
3.98577e-05
4.24921e-05
4.52446e-05
4.95155e-05
5.31236e-05
3.48743e-05
3.07478e-05
2.81078e-05
2.70176e-05
2.8397e-05
3.45493e-05
4.88373e-05
7.43398e-05
0.000109926
0.000155098
0.000213065
0.000268293
0.000260472
0.00023658
0.000255497
0.000310567
0.000393159
0.000498584
0.000612796
0.000708051
0.000759905
0.000755767
0.000698611
0.00060477
0.00049332
0.000383668
0.00028934
0.000215574
0.000161954
0.000125036
0.000100087
8.24919e-05
6.89167e-05
5.76991e-05
4.83494e-05
4.07882e-05
3.49002e-05
3.04735e-05
2.72404e-05
2.49534e-05
2.34163e-05
2.24798e-05
2.20266e-05
2.19742e-05
2.22621e-05
2.28462e-05
2.36951e-05
2.47854e-05
2.60976e-05
2.76101e-05
2.92953e-05
3.11187e-05
3.30493e-05
3.50649e-05
3.71973e-05
3.94592e-05
4.2127e-05
4.49117e-05
4.91934e-05
5.28155e-05
3.48695e-05
3.07376e-05
2.8047e-05
2.67589e-05
2.76119e-05
3.25954e-05
4.49519e-05
6.82683e-05
0.00010256
0.000147063
0.00020476
0.000264843
0.000267513
0.000247708
0.000265531
0.000318647
0.000399654
0.000503693
0.000616371
0.00071013
0.000760559
0.000754934
0.000696424
0.000601295
0.000488857
0.000378644
0.000284109
0.000210463
0.000157281
0.000121035
9.68738e-05
8.00748e-05
6.72013e-05
5.65265e-05
4.75528e-05
4.02307e-05
3.44815e-05
3.01249e-05
2.69157e-05
2.46246e-05
2.30692e-05
2.21104e-05
2.16367e-05
2.15669e-05
2.184e-05
2.24109e-05
2.32466e-05
2.43235e-05
2.56225e-05
2.71236e-05
2.88019e-05
3.0626e-05
3.2567e-05
3.46032e-05
3.67641e-05
3.90597e-05
4.17594e-05
4.45756e-05
4.88688e-05
5.25065e-05
3.48654e-05
3.07304e-05
2.80007e-05
2.65511e-05
2.6959e-05
3.09125e-05
4.14226e-05
6.23332e-05
9.47336e-05
0.000138101
0.000195167
0.000259174
0.000272759
0.000257005
0.000274624
0.000326159
0.000405393
0.000507579
0.000618187
0.000710011
0.000758768
0.000751655
0.000691926
0.000595751
0.000482699
0.000372356
0.000278002
0.000204784
0.000152261
0.000116825
9.35282e-05
7.75619e-05
6.54091e-05
5.52899e-05
4.67036e-05
3.96316e-05
3.40334e-05
2.97603e-05
2.65884e-05
2.43045e-05
2.27389e-05
2.17625e-05
2.127e-05
2.11828e-05
2.14403e-05
2.19967e-05
2.28183e-05
2.38809e-05
2.51657e-05
2.66541e-05
2.83237e-05
3.01459e-05
3.20941e-05
3.41473e-05
3.63334e-05
3.866e-05
4.13899e-05
4.4237e-05
4.85422e-05
5.2197e-05
3.48617e-05
3.07256e-05
2.79663e-05
2.63859e-05
2.64207e-05
2.94799e-05
3.82752e-05
5.66864e-05
8.66986e-05
0.000128385
0.000184387
0.000251372
0.000275995
0.00026451
0.000282518
0.000332935
0.000410311
0.000510241
0.000618291
0.00070777
0.000754619
0.000745993
0.000685162
0.000588194
0.000474915
0.000364869
0.000271077
0.000198585
0.000146933
0.00011244
9.00773e-05
7.49751e-05
6.35566e-05
5.40014e-05
4.58101e-05
3.89962e-05
3.35587e-05
2.938e-05
2.62567e-05
2.39905e-05
2.24229e-05
2.1434e-05
2.09252e-05
2.08212e-05
2.10626e-05
2.16036e-05
2.241e-05
2.34574e-05
2.47271e-05
2.62018e-05
2.78609e-05
2.96789e-05
3.16312e-05
3.36981e-05
3.59061e-05
3.82611e-05
4.10193e-05
4.38963e-05
4.82142e-05
5.18874e-05
3.48585e-05
3.07228e-05
2.79413e-05
2.6256e-05
2.59807e-05
2.82735e-05
3.55146e-05
5.14425e-05
7.87012e-05
0.000118142
0.00017257
0.00024152
0.000276964
0.000270373
0.000289004
0.000338788
0.000414327
0.000511673
0.000616732
0.000703489
0.000748202
0.000738022
0.000676194
0.000578699
0.000465589
0.000356261
0.000263395
0.000191917
0.000141341
0.000107914
8.65492e-05
7.23364e-05
6.16603e-05
5.2673e-05
4.48808e-05
3.83301e-05
3.30605e-05
2.89852e-05
2.59202e-05
2.36809e-05
2.2119e-05
2.1123e-05
2.06009e-05
2.04811e-05
2.07063e-05
2.12312e-05
2.20217e-05
2.3053e-05
2.43067e-05
2.57665e-05
2.74137e-05
2.92253e-05