/*--------------------------------*- C++ -*----------------------------------*\
| =========                 |                                                 |
| \\      /  F ield         | OpenFOAM: The Open Source CFD Toolbox           |
|  \\    /   O peration     | Version:  2.4.0                                 |
|   \\  /    A nd           | Web:      www.OpenFOAM.org                      |
|    \\/     M anipulation  |                                                 |
\*---------------------------------------------------------------------------*/
FoamFile
{
    version     2.0;
    format      ascii;
    class       volScalarField;
    location    "0.54";
    object      pMean;
}
// * * * * * * * * * * * * * * * * * * * * * * * * * * * * * * * * * * * * * //

dimensions      [0 2 -2 0 0 0 0];

internalField   nonuniform List<scalar> 
2320
(
4.77483
4.77306
4.75803
4.75923
4.73955
4.74171
4.71928
4.72511
4.69819
4.70734
4.67372
4.68883
4.64522
4.6689
4.60517
4.63779
4.55028
4.59135
4.4636
4.50387
4.77371
4.76998
4.75521
4.75635
4.73623
4.73921
4.71649
4.72154
4.69464
4.70329
4.66974
4.68456
4.64093
4.6629
4.60019
4.63
4.54303
4.57776
4.44634
4.48082
4.77282
4.7667
4.75224
4.75144
4.73382
4.73398
4.71436
4.71654
4.69028
4.69667
4.66721
4.67792
4.63769
4.65695
4.60104
4.62825
4.54975
4.58178
4.46544
4.49095
4.77107
4.76658
4.75167
4.75126
4.73349
4.7337
4.71323
4.71412
4.68846
4.69419
4.66546
4.67457
4.63659
4.65277
4.60031
4.62126
4.54734
4.57469
4.46377
4.48792
4.7708
4.76408
4.75015
4.74733
4.73327
4.73042
4.7121
4.70929
4.68949
4.68927
4.66556
4.66809
4.6397
4.64426
4.60362
4.6161
4.55733
4.57113
4.48308
4.49349
4.76799
4.75848
4.74322
4.74
4.7282
4.72425
4.70502
4.70118
4.68215
4.68102
4.65909
4.65915
4.63157
4.63346
4.59799
4.60172
4.55178
4.55593
4.48246
4.48318
4.76855
4.75424
4.74235
4.73672
4.72899
4.71909
4.70472
4.69505
4.68173
4.67335
4.65987
4.65149
4.63521
4.62566
4.60409
4.59315
4.56161
4.54938
4.49638
4.48535
4.76801
4.75481
4.74504
4.73919
4.73047
4.72104
4.70732
4.69574
4.68443
4.67358
4.66221
4.6493
4.63965
4.6231
4.61211
4.58996
4.57651
4.54712
4.52252
4.48662
4.77214
4.75437
4.75016
4.74087
4.73548
4.72057
4.71142
4.6928
4.68871
4.67058
4.66875
4.64781
4.64959
4.62169
4.62531
4.58646
4.5967
4.54512
4.54954
4.48685
4.77384
4.75784
4.75403
4.74514
4.73804
4.72501
4.71446
4.69842
4.69192
4.67647
4.67368
4.65599
4.65787
4.63449
4.64027
4.60555
4.62237
4.5707
4.59971
4.51431
4.77942
4.75729
4.75793
4.74502
4.74141
4.72189
4.71714
4.69238
4.6947
4.67026
4.68013
4.6521
4.66959
4.6315
4.65923
4.60107
4.65257
4.56864
4.64332
4.53303
4.78014
4.76203
4.76153
4.75302
4.74411
4.72703
4.7187
4.69872
4.69387
4.67731
4.68046
4.6641
4.67259
4.6503
4.66651
4.63376
4.66812
4.623
4.67688
4.59004
4.78523
4.7641
4.76753
4.75481
4.74846
4.7279
4.72139
4.69569
4.69618
4.67149
4.68472
4.6596
4.67978
4.64179
4.6754
4.61474
4.69229
4.59292
4.74787
4.5694
4.78603
4.76934
4.76876
4.75956
4.74893
4.73179
4.71621
4.69689
4.68803
4.67511
4.67915
4.67253
4.67728
4.66685
4.67067
4.65298
4.68347
4.65947
4.75636
4.71206
4.79033
4.76974
4.77358
4.76128
4.75379
4.73004
4.71441
4.68771
4.68469
4.66465
4.68079
4.66443
4.68071
4.6576
4.67578
4.63414
4.69016
4.61281
4.77944
4.60674
4.79025
4.77487
4.7765
4.76854
4.75493
4.73238
4.70586
4.68469
4.67042
4.66333
4.67743
4.67764
4.68183
4.68677
4.66448
4.66788
4.64599
4.66563
4.73153
4.75622
4.7957
4.77641
4.78368
4.7725
4.7623
4.73107
4.70193
4.67472
4.66085
4.64712
4.67582
4.66889
4.68482
4.6834
4.67361
4.67066
4.66969
4.6489
4.67038
4.59231
4.79736
4.78211
4.79126
4.78182
4.77034
4.73655
4.7012
4.67196
4.65511
4.64337
4.68092
4.668
4.69552
4.69996
4.67171
4.67057
4.64208
4.73906
4.69562
4.70434
4.80126
4.78625
4.80003
4.79021
4.77723
4.74252
4.70227
4.67741
4.64836
4.63767
4.67567
4.66492
4.69368
4.70909
4.66003
4.67801
4.61119
4.69268
4.55683
4.79105
4.80338
4.79117
4.80787
4.80371
4.79143
4.76045
4.72791
4.70127
4.67628
4.66581
4.70123
4.69112
4.72973
4.73183
4.70775
4.70407
4.66981
4.82415
4.71852
5.12511
4.32051
4.32637
4.11058
4.00957
3.78682
3.55178
3.24663
2.92909
4.29715
4.30548
4.09058
3.99458
3.76027
3.50711
3.20154
2.87577
4.32095
4.31883
4.09974
4.00815
3.77359
3.53532
3.23149
2.90043
4.32292
4.32108
4.09889
4.01478
3.76978
3.53064
3.22458
2.87915
4.3494
4.33529
4.11121
4.02855
3.76895
3.53663
3.23717
2.87381
4.36254
4.3397
4.12499
4.04469
3.7636
3.5483
3.22186
2.84986
4.38186
4.35561
4.1454
4.06185
3.75483
3.55015
3.2013
2.82075
4.41731
4.36429
4.1735
4.09359
3.75004
3.54797
3.16814
2.77226
4.44526
4.36179
4.18967
4.11839
3.76315
3.5423
3.11446
2.71257
4.51683
4.36875
4.19383
4.06307
3.74206
3.52022
3.04854
2.64795
4.5743
4.39778
4.27646
3.98997
3.69606
3.48435
2.97767
2.58731
4.65367
4.42004
4.3801
3.93543
3.6451
3.42411
2.90019
2.5379
4.71063
4.36128
4.43364
3.88603
3.60047
3.33769
2.82162
2.50642
4.84449
4.31573
4.43982
3.85414
3.58202
3.24612
2.74635
2.48011
5.0121
4.28128
4.40915
3.82982
3.58113
3.17089
2.6913
2.43131
5.19736
4.31205
4.35817
3.81084
3.58731
3.12026
2.67573
2.33941
5.26504
4.35207
4.28806
3.78331
3.58667
3.07794
2.69909
2.20231
5.21186
4.39156
4.21389
3.75572
3.57813
3.05486
2.75647
2.03354
4.92756
4.33094
4.12912
3.72318
3.5636
3.05561
2.8423
1.88618
4.65927
4.2536
4.0661
3.71339
3.56458
3.1042
2.96193
1.87525
2.5197
2.08088
1.56279
1.02592
0.425587
-0.212569
-0.880457
-1.5485
-2.19039
-2.78827
-3.29604
-3.69155
-3.94492
-4.0426
-3.98306
-3.77657
-3.43889
-3.00198
-2.49608
-1.96168
-1.43081
-0.936855
-0.500742
-0.144159
0.128854
0.274318
0.294196
-0.000959943
2.46854
2.02284
1.50727
0.974153
0.373228
-0.259675
-0.925165
-1.59213
-2.24091
-2.83764
-3.35105
-3.74494
-3.9999
-4.09402
-4.03396
-3.81878
-3.47998
-3.03357
-2.52818
-1.9825
-1.45598
-0.949364
-0.523546
-0.147852
0.101326
0.308482
0.323036
0.346901
2.50401
2.04773
1.52694
0.972683
0.359371
-0.285291
-0.961381
-1.64336
-2.30355
-2.9118
-3.42974
-3.83042
-4.08392
-4.17682
-4.10881
-3.889
-3.53694
-3.0818
-2.55823
-2.00433
-1.45764
-0.947272
-0.496515
-0.123498
0.167831
0.368679
0.469698
0.493977
2.47018
2.01029
1.49153
0.930498
0.304158
-0.34989
-1.04707
-1.74061
-2.42235
-3.04285
-3.57582
-3.97992
-4.23382
-4.32184
-4.24436
-4.00813
-3.64083
-3.16629
-2.62519
-2.05029
-1.48832
-0.96153
-0.49926
-0.107342
0.196208
0.419035
0.568057
0.655121
2.4636
1.99048
1.46784
0.881983
0.245495
-0.429651
-1.14805
-1.86458
-2.57212
-3.21187
-3.76105
-4.17302
-4.42706
-4.50642
-4.41358
-4.15981
-3.77127
-3.27243
-2.70374
-2.10471
-1.51566
-0.966207
-0.479599
-0.0669666
0.260497
0.515132
0.695988
0.83508
2.42837
1.94235
1.40793
0.802356
0.154398
-0.546721
-1.28956
-2.03733
-2.77667
-3.44266
-4.01435
-4.43183
-4.68654
-4.75235
-4.64285
-4.36203
-3.94383
-3.41094
-2.81045
-2.17973
-1.56066
-0.982761
-0.472234
-0.0362353
0.313126
0.587654
0.796266
0.967178
2.38449
1.88488
1.33006
0.709446
0.0445385
-0.685502
-1.45609
-2.24285
-3.01495
-3.71326
-4.30203
-4.7247
-4.97623
-5.02621
-4.89254
-4.58395
-4.13105
-3.5619
-2.92373
-2.25869
-1.60276
-0.994101
-0.450979
0.010683
0.385528
0.681903
0.913406
1.10892
2.31991
1.80608
1.2336
0.603321
-0.0805526
-0.839608
-1.64486
-2.47589
-3.28475
-4.01998
-4.62358
-5.05356
-5.29867
-5.33259
-5.1715
-4.82838
-4.33387
-3.723
-3.04628
-2.34222
-1.64921
-1.00397
-0.429743
0.0586506
0.457918
0.771877
1.02715
1.23277
2.24239
1.71868
1.13599
0.496371
-0.209948
-1.00248
-1.84913
-2.72777
-3.58147
-4.35309
-4.96912
-5.40339
-5.63217
-5.64251
-5.45046
-5.06976
-4.53344
-3.87974
-3.16359
-2.4155
-1.68772
-1.00409
-0.397569
0.118956
0.537413
0.868605
1.13661
1.35782
2.15987
1.62834
1.03695
0.388525
-0.34656
-1.17717
-2.07027
-2.99784
-3.89705
-4.69442
-5.31726
-5.74735
-5.95378
-5.93791
-5.71162
-5.28761
-4.71089
-4.02127
-3.27072
-2.47889
-1.71689
-0.999895
-0.359271
0.182506
0.622671
0.968837
1.2444
1.47531
2.07742
1.53576
0.937181
0.279538
-0.484861
-1.35256
-2.28879
-3.26183
-4.2022
-5.01456
-5.63669
-6.05293
-6.23098
-6.18863
-5.92991
-5.46554
-4.84496
-4.11995
-3.34397
-2.52298
-1.72613
-0.976581
-0.309247
0.249938
0.709853
1.06735
1.3484
1.58048
1.99499
1.43914
0.832224
0.171068
-0.618275
-1.51804
-2.48715
-3.50583
-4.47495
-5.29404
-5.90937
-6.30453
-6.45731
-6.37956
-6.08682
-5.58948
-4.93651
-4.17687
-3.36798
-2.53084
-1.71537
-0.93265
-0.241894
0.33053
0.802968
1.16549
1.44873
1.67928
1.90914
1.33228
0.723345
0.0718273
-0.740038
-1.65935
-2.65667
-3.70807
-4.69337
-5.50517
-6.10458
-6.47546
-6.59488
-6.4909
-6.18085
-5.64195
-4.95425
-4.19079
-3.35696
-2.50016
-1.67081
-0.871765
-0.168684
0.414531
0.898043
1.26107
1.54089
1.76706
1.7972
1.21212
0.62187
-0.0153931
-0.844686
-1.77213
-2.78163
-3.85045
-4.83825
-5.63967
-6.21596
-6.5578
-6.65089
-6.50793
-6.18953
-5.63487
-4.9168
-4.13669
-3.30185
-2.44374
-1.5982
-0.784653
-0.0836606
0.502347
0.988574
1.34987
1.62738
1.84824
1.64732
1.08528
0.539701
-0.0592443
-0.895529
-1.81653
-2.82569
-3.89857
-4.8804
-5.67731
-6.23383
-6.54381
-6.61504
-6.45109
-6.1118
-5.54139
-4.83067
-4.04256
-3.20122
-2.35479
-1.50193
-0.687471
0.00938987
0.592239
1.07665
1.42559
1.69987
1.91036
1.45979
0.962055
0.493488
-0.0461964
-0.898423
-1.81345
-2.79051
-3.8552
-4.8297
-5.613
-6.14816
-6.44867
-6.4961
-6.31714
-5.97273
-5.39908
-4.69875
-3.91005
-3.07978
-2.24338
-1.39082
-0.585399
0.100394
0.678046
1.15154
1.49242
1.76296
1.96159
1.25412
0.876907
0.476012
-0.00193575
-0.840581
-1.73411
-2.71979
-3.74217
-4.69134
-5.47642
-6.00026
-6.2935
-6.32778
-6.14653
-5.78623
-5.23098
-4.5468
-3.76305
-2.94314
-2.12524
-1.27684
-0.487371
0.189566
0.74857
1.21643
1.54
1.8128
1.99916
1.05011
0.821901
0.524361
0.109888
-0.742673
-1.61655
-2.58024
-3.5819
-4.51553
-5.2729
-5.81104
-6.09769
-6.13926
-5.96725
-5.59986
-5.06104
-4.39836
-3.62709
-2.82099
-2.00761
-1.16801
-0.405562
0.257567
0.804889
1.26235
1.5738
1.84673
2.02124
1.01366
0.860138
0.520186
0.189334
-0.605325
-1.49593
-2.45731
-3.43933
-4.35293
-5.10592
-5.64458
-5.93489
-5.98058
-5.81869
-5.45282
-4.93372
-4.27759
-3.52732
-2.72992
-1.92382
-1.09101
-0.352488
0.302878
0.834389
1.28896
1.58403
1.86539
2.02943
0.527149
0.944042
0.583319
0.279177
-0.491587
-1.37033
-2.34878
-3.32651
-4.23568
-4.98816
-5.53209
-5.83007
-5.87907
-5.7263
-5.36181
-4.85221
-4.20882
-3.47215
-2.67466
-1.8724
-1.04725
-0.324315
0.32715
0.852077
1.29757
1.59265
1.87742
2.03518
-0.563939
-0.477774
0.135546
0.643959
1.37131
2.09222
2.83612
3.23537
0.117716
0.102158
0.484876
1.00278
1.63952
2.31368
2.96923
3.402
0.439105
0.514642
0.886029
1.36444
1.97163
2.50624
3.11689
3.48436
0.764213
0.920775
1.25803
1.66827
2.26047
2.73416
2.87115
3.39512
0.969439
1.12786
1.39595
1.79888
2.28289
2.83251
3.15426
3.29771
1.13598
1.34476
1.65796
2.04295
2.42438
2.86789
3.07768
3.24437
1.29197
1.50852
1.75554
2.07232
2.41559
2.79278
3.08918
3.27512
1.43345
1.64466
1.89648
2.21862
2.5435
2.83253
3.02243
3.06747
1.56369
1.77083
1.99834
2.24038
2.48109
2.72401
2.94686
3.05228
1.6762
1.87577
2.07903
2.30436
2.54355
2.75919
2.9127
2.97419
1.77629
1.96337
2.14763
2.33463
2.51518
2.67586
2.82046
2.91335
1.8671
2.04267
2.20635
2.36555
2.52546
2.67416
2.79275
2.8597
1.94461
2.11037
2.25484
2.3884
2.51885
2.63012
2.71722
2.77966
2.01488
2.17091
2.29392
2.40607
2.51408
2.60891
2.67973
2.7403
2.07214
2.22064
2.32735
2.41425
2.50996
2.58003
2.63258
2.68565
2.11862
2.25489
2.35342
2.42526
2.50714
2.55231
2.59985
2.6518
2.15667
2.28443
2.36722
2.42569
2.51013
2.53455
2.57629
2.6159
2.17924
2.29469
2.38618
2.43551
2.50279
2.51823
2.56597
2.6093
2.19259
2.3054
2.3819
2.42906
2.50989
2.51433
2.55574
2.59182
2.20247
2.30626
2.39107
2.43148
2.50561
2.51678
2.56375
2.60426
4.02254
4.19969
4.0506
3.56869
2.97774
2.21488
1.87114
1.87885
1.89912
1.86586
1.75607
1.62565
1.45124
1.28484
1.05442
0.858423
0.567875
0.339519
-0.0750466
-0.376044
4.22664
4.08534
3.84635
3.33608
2.80992
2.23736
1.96386
1.96939
1.94711
1.88562
1.76149
1.62515
1.44907
1.28008
1.05496
0.850925
0.577808
0.329559
0.0469764
-0.194986
3.95022
3.94215
3.73787
3.24428
2.7997
2.30499
2.01232
1.98801
1.94703
1.8777
1.75515
1.62018
1.44589
1.27704
1.05431
0.848912
0.586249
0.339796
0.10056
-0.148174
4.10283
3.78607
3.55485
3.10112
2.69935
2.28919
2.04173
2.02124
1.97559
1.894
1.76547
1.62314
1.44972
1.27331
1.0606
0.843439
0.599577
0.354483
0.138018
-0.0761982
3.70375
3.56827
3.37701
2.99947
2.66919
2.33998
2.10545
2.05529
1.98892
1.89404
1.76244
1.61759
1.44748
1.26764
1.06359
0.841686
0.612664
0.37008
0.173126
-0.0285276
3.63828
3.46276
3.27422
2.93167
2.63364
2.34539
2.12702
2.06641
1.99886
1.90032
1.77014
1.62069
1.45202
1.26804
1.0691
0.846744
0.623639
0.389876
0.199559
0.00720203
3.50219
3.27782
3.06684
2.80873
2.57431
2.34741
2.1609
2.08649
2.00876
1.90302
1.77004
1.61609
1.4505
1.26435
1.07117
0.848569
0.632769
0.405656
0.219386
0.032714
3.28676
3.19501
3.01663
2.78693
2.58267
2.37912
2.19803
2.1038
2.02061
1.91138
1.77724
1.62067
1.45476
1.26786
1.07573
0.85679
0.643058
0.42372
0.238288
0.0520846
3.13853
3.05799
2.89871
2.70474
2.52715
2.35322
2.19556
2.10277
2.0205
1.90899
1.77497
1.6165
1.45325
1.26623
1.077
0.861025
0.650248
0.436916
0.251675
0.0655754
2.97934
2.91079
2.82172
2.6781
2.53816
2.38969
2.24166
2.13127
2.03576
1.91715
1.78057
1.62174
1.457
1.27092
1.08123
0.869503
0.660215
0.451028
0.264697
0.0761881
2.9739
2.87677
2.7754
2.64152
2.51023
2.3717
2.23195
2.12273
2.02972
1.91273
1.77779
1.61845
1.45471
1.2704
1.08207
0.874576
0.667221
0.461494
0.273963
0.0836385
2.87386
2.79889
2.6875
2.58042
2.48157
2.3769
2.25988
2.14764
2.04405
1.92088
1.78334
1.62406
1.45842
1.27516
1.0867
0.882978
0.677289
0.472897
0.283416
0.0899888
2.80869
2.775
2.69367
2.59691
2.50038
2.38933
2.26456
2.14528
2.04046
1.91746
1.78081
1.62224
1.4567
1.27554
1.08807
0.88801
0.68433
0.481421
0.290076
0.094359
2.7485
2.71777
2.63846
2.55233
2.46903
2.37411
2.26527
2.15378
2.04601
1.92008
1.78119
1.62398
1.45854
1.27897
1.09225
0.894841
0.692993
0.490779
0.297118
0.0982008
2.68921
2.68082
2.62319
2.56486
2.4937
2.39994
2.28566
2.16372
2.04978
1.9213
1.78173
1.62511
1.45944
1.28133
1.09554
0.90021
0.69978
0.49797
0.302042
0.100866
2.65125
2.65877
2.59922
2.54946
2.47649
2.38411
2.27822
2.16211
2.04746
1.91805
1.77781
1.62252
1.45815
1.28219
1.09836
0.905242
0.706252
0.504949
0.307067
0.103047
2.61675
2.63429
2.58164
2.55389
2.48602
2.39974
2.29502
2.17264
2.05323
1.9213
1.78003
1.62529
1.46091
1.2859
1.10302
0.911105
0.712794
0.511053
0.310642
0.10467
2.60807
2.63531
2.57778
2.55434
2.47896
2.39026
2.28713
2.16638
2.04651
1.91402
1.77299
1.61952
1.45718
1.28477
1.1045
0.914926
0.718265
0.516914
0.314568
0.105948
2.60382
2.62762
2.57539
2.55727
2.48156
2.39618
2.29419
2.17122
2.04932
1.91542
1.77429
1.62143
1.45953
1.28774
1.10828
0.91943
0.722835
0.520621
0.316171
0.10648
2.60599
2.63407
2.57831
2.55459
2.47435
2.38566
2.28392
2.16164
2.0386
1.90423
1.76409
1.6131
1.45416
1.28578
1.10969
0.923998
0.729404
0.527127
0.319564
0.106914
-0.898221
-0.540421
-0.883498
-0.691037
-0.160761
-0.207402
-0.0998483
-0.126933
-0.810304
-1.03211
-1.26015
-1.17444
-0.647584
-0.585104
-0.428211
-0.411124
-1.16921
-1.17017
-1.42252
-1.41546
-1.06227
-0.971254
-0.751216
-0.712368
-1.232
-1.52206
-1.84143
-1.87631
-1.5452
-1.3522
-1.10616
-1.02746
-1.5789
-1.89361
-2.119
-2.23216
-1.95486
-1.73392
-1.45449
-1.35113
-1.87941
-2.21118
-2.49511
-2.64026
-2.35209
-2.10654
-1.80711
-1.67668
-2.22165
-2.58678
-2.82869
-2.95031
-2.70874
-2.46593
-2.14551
-1.99879
-2.54825
-2.89177
-3.12943
-3.29734
-3.0425
-2.80473
-2.47359
-2.30966
-2.87043
-3.20847
-3.42273
-3.57326
-3.35632
-3.11896
-2.7786
-2.60549
-3.1617
-3.47717
-3.67277
-3.84753
-3.63888
-3.40798
-3.06391
-2.88033
-3.43801
-3.75091
-3.92058
-4.10083
-3.89764
-3.66668
-3.32068
-3.1319
-3.6788
-3.97495
-4.12297
-4.29039
-4.12245
-3.89754
-3.55153
-3.35606
-3.89127
-4.18731
-4.32368
-4.51387
-4.31389
-4.09462
-3.75021
-3.55185
-4.06975
-4.35387
-4.47257
-4.62852
-4.47117
-4.26074
-3.91893
-3.71682
-4.21766
-4.50311
-4.62378
-4.81356
-4.59993
-4.3908
-4.05249
-3.85095
-4.33397
-4.61813
-4.71807
-4.8678
-4.69893
-4.48875
-4.15516
-3.95253
-4.42126
-4.70992
-4.81492
-4.99644
-4.77677
-4.55284
-4.22389
-4.02167
-4.47683
-4.7703
-4.8585
-5.00782
-4.82198
-4.5894
-4.26215
-4.05719
-4.50299
-4.8032
-4.8966
-5.05253
-4.85294
-4.59507
-4.26667
-4.06016
-4.49932
-4.80777
-4.89593
-5.0399
-4.84732
-4.57527
-4.24077
-4.02984
-4.46905
-4.78574
-4.8917
-5.01239
-4.82562
-4.52359
-4.18039
-3.96685
-4.41154
-4.73899
-4.84241
-4.96855
-4.75955
-4.44547
-4.08989
-3.86989
-4.32582
-4.66331
-4.78534
-4.88357
-4.67612
-4.33145
-3.96475
-3.73982
-4.21339
-4.55632
-4.67937
-4.77657
-4.54172
-4.18771
-3.80973
-3.57567
-4.06937
-4.41648
-4.54846
-4.63237
-4.39953
-4.01423
-3.61925
-3.37879
-3.90027
-4.23739
-4.38368
-4.45112
-4.20635
-3.80631
-3.40008
-3.14801
-3.6981
-4.02512
-4.18805
-4.2497
-4.00558
-3.57513
-3.14592
-2.88354
-3.47884
-3.77665
-3.97681
-4.00324
-3.76063
-3.30962
-2.86118
-2.58531
-3.23358
-3.51603
-3.74514
-3.74254
-3.49981
-3.01751
-2.54254
-2.25379
-2.99095
-3.24201
-3.49733
-3.47381
-3.19565
-2.69691
-2.19289
-1.88995
-2.72998
-2.96952
-3.27432
-3.21567
-2.88777
-2.3509
-1.8084
-1.49385
-2.47381
-2.7129
-3.00302
-2.97201
-2.53182
-1.97396
-1.39672
-1.06625
-2.21196
-2.46057
-2.79149
-2.71853
-2.17684
-1.57984
-0.955128
-0.608936
-1.94818
-2.27735
-2.53735
-2.47802
-1.79779
-1.15377
-0.492328
-0.126595
-1.71517
-2.10707
-2.28474
-2.23179
-1.4235
-0.712325
-0.00577305
0.373829
-1.51238
-2.00073
-1.99019
-1.90904
-0.981589
-0.2302
0.490054
0.876394
-1.32238
-1.85555
-1.61323
-1.4164
-0.528354
0.231209
0.995752
1.36102
-1.38791
-1.72788
-1.30787
-0.930517
-0.0458982
0.734207
1.50556
1.78895
-1.17215
-1.44277
-0.905426
-0.398581
0.454972
1.19258
2.00553
2.16266
-1.26107
-1.33256
-0.428468
0.101944
0.907254
1.67515
2.49477
2.4843
4.45375
4.1912
4.02525
3.72155
3.59346
3.19674
3.11631
2.3012
4.25603
4.11709
3.98582
3.7294
3.61978
3.28448
3.22159
2.67501
4.11791
4.04384
3.94395
3.72992
3.63674
3.35964
3.31685
2.91891
3.99917
3.97185
3.90145
3.72671
3.64692
3.42053
3.37035
3.10869
3.92089
3.90801
3.85982
3.7182
3.65164
3.46679
3.42931
3.22556
3.85017
3.8528
3.82135
3.70807
3.65173
3.50271
3.45729
3.32273
3.80611
3.80581
3.78702
3.69546
3.65013
3.52821
3.49619
3.38189
3.76259
3.76777
3.75698
3.68343
3.64593
3.54719
3.51043
3.43565
3.73812
3.7357
3.73191
3.67059
3.64256
3.55947
3.53506
3.46475
3.71084
3.71114
3.71069
3.65972
3.63755
3.56907
3.54261
3.49803
3.69795
3.69023
3.69388
3.64881
3.6342
3.57382
3.55917
3.51043
3.68095
3.67532
3.68028
3.6404
3.62997
3.57891
3.56207
3.53451
3.67541
3.66247
3.67034
3.63218
3.62752
3.58016
3.57063
3.53609
3.66556
3.65426
3.66273
3.62643
3.62519
3.58299
3.57244
3.55506
3.66544
3.64722
3.65831
3.62073
3.62456
3.58223
3.57913
3.55222
3.6613
3.64389
3.65581
3.6175
3.62439
3.58529
3.58014
3.56753
3.66585
3.64129
3.65597
3.61406
3.62573
3.58418
3.58589
3.56432
3.66686
3.64185
3.65789
3.61291
3.62775
3.5867
3.58748
3.57676
3.67588
3.64305
3.66208
3.61139
3.63126
3.58554
3.59215
3.57365
3.68215
3.64737
3.66827
3.61209
3.63546
3.58825
3.59418
3.58316
3.69616
3.65234
3.67689
3.61222
3.64116
3.58733
3.59912
3.58258
3.70836
3.66043
3.68769
3.61469
3.64755
3.58998
3.60052
3.58811
3.72834
3.66949
3.70134
3.61643
3.65565
3.58963
3.60592
3.58972
3.74775
3.68186
3.71757
3.62093
3.66419
3.5928
3.60693
3.59346
3.77561
3.6957
3.73707
3.62486
3.67449
3.59312
3.61258
3.59611
3.80462
3.7134
3.7597
3.63234
3.68512
3.59706
3.61314
3.59941
3.84367
3.73363
3.78627
3.63972
3.69743
3.59796
3.61858
3.60143
3.88675
3.75905
3.81697
3.65205
3.71012
3.60263
3.61855
3.60447
3.94243
3.78927
3.85279
3.66543
3.72423
3.60468
3.62082
3.60405
4.00611
3.82734
3.89453
3.68579
3.7387
3.61127
3.61801
3.60451
4.0862
3.87387
3.94246
3.70894
3.75425
3.61656
3.61601
3.6003
4.17875
3.93087
3.99768
3.74103
3.76982
3.62628
3.60978
3.59627
4.29139
3.99842
4.05888
3.77743
3.78641
3.63499
3.60368
3.58546
4.41948
4.07604
4.1271
3.82473
3.80267
3.64582
3.59421
3.57117
4.57145
4.1624
4.19908
3.87957
3.82175
3.65497
3.58439
3.54586
4.74587
4.25937
4.27751
3.94985
3.84431
3.6667
3.57149
3.51553
4.97132
4.3773
4.36275
4.03359
3.87825
3.68154
3.55975
3.47635
5.27752
4.54755
4.46391
4.13601
3.92567
3.70855
3.55059
3.42369
5.74069
4.8018
4.5781
4.24361
3.9885
3.74914
3.55229
3.25381
6.34893
5.13279
4.69901
4.33998
4.04869
3.80298
3.56874
2.93933
)
;

boundaryField
{
    wall
    {
        type            calculated;
        value           nonuniform List<scalar> 
312
(
4.80338
4.79117
4.80787
4.80371
4.79143
4.76045
4.72791
4.70127
4.67628
4.66581
4.70123
4.69112
4.72973
4.73183
4.70775
4.70407
4.66981
4.82415
4.71852
5.12511
4.45375
4.25603
4.11791
3.99917
3.92089
3.85017
3.80611
3.76259
3.73812
3.71084
3.69795
3.68095
3.67541
3.66556
3.66544
3.6613
3.66585
3.66686
3.67588
3.68215
3.69616
3.70836
3.72834
3.74775
3.77561
3.80462
3.84367
3.88675
3.94243
4.00611
4.0862
4.17875
4.29139
4.41948
4.57145
4.74587
4.97132
5.27752
5.74069
6.34893
2.3012
2.67501
2.91891
3.10869
3.22556
3.32273
3.38189
3.43565
3.46475
3.49803
3.51043
3.53451
3.53609
3.55506
3.55222
3.56753
3.56432
3.57676
3.57365
3.58316
3.58258
3.58811
3.58972
3.59346
3.59611
3.59941
3.60143
3.60447
3.60405
3.60451
3.6003
3.59627
3.58546
3.57117
3.54586
3.51553
3.47635
3.42369
3.25381
2.93933
0.527149
0.944042
0.583319
0.279177
-0.491587
-1.37033
-2.34878
-3.32651
-4.23568
-4.98816
-5.53209
-5.83007
-5.87907
-5.7263
-5.36181
-4.85221
-4.20882
-3.47215
-2.67466
-1.8724
-1.04725
-0.324315
0.32715
0.852077
1.29757
1.59265
1.87742
2.03518
2.20247
2.30626
2.39107
2.43148
2.50561
2.51678
2.56375
2.60426
2.60599
2.63407
2.57831
2.55459
2.47435
2.38566
2.28392
2.16164
2.0386
1.90423
1.76409
1.6131
1.45416
1.28578
1.10969
0.923998
0.729404
0.527127
0.319564
0.106914
4.02254
4.19969
4.0506
3.56869
2.97774
2.21488
1.87114
1.87885
1.89912
1.86586
1.75607
1.62565
1.45124
1.28484
1.05442
0.858423
0.567875
0.339519
-0.0750466
-0.376044
-0.126933
-0.411124
-0.712368
-1.02746
-1.35113
-1.67668
-1.99879
-2.30966
-2.60549
-2.88033
-3.1319
-3.35606
-3.55185
-3.71682
-3.85095
-3.95253
-4.02167
-4.05719
-4.06016
-4.02984
-3.96685
-3.86989
-3.73982
-3.57567
-3.37879
-3.14801
-2.88354
-2.58531
-2.25379
-1.88995
-1.49385
-1.06625
-0.608936
-0.126595
0.373829
0.876394
1.36102
1.78895
2.16266
2.4843
-0.898221
-0.810304
-1.16921
-1.232
-1.5789
-1.87941
-2.22165
-2.54825
-2.87043
-3.1617
-3.43801
-3.6788
-3.89127
-4.06975
-4.21766
-4.33397
-4.42126
-4.47683
-4.50299
-4.49932
-4.46905
-4.41154
-4.32582
-4.21339
-4.06937
-3.90027
-3.6981
-3.47884
-3.23358
-2.99095
-2.72998
-2.47381
-2.21196
-1.94818
-1.71517
-1.51238
-1.32238
-1.38791
-1.17215
-1.26107
2.5197
2.08088
1.56279
1.02592
0.425587
-0.212569
-0.880457
-1.5485
-2.19039
-2.78827
-3.29604
-3.69155
-3.94492
-4.0426
-3.98306
-3.77657
-3.43889
-3.00198
-2.49608
-1.96168
-1.43081
-0.936855
-0.500742
-0.144159
0.128854
0.274318
0.294196
-0.000959943
4.32051
4.32637
4.11058
4.00957
3.78682
3.55178
3.24663
2.92909
4.77483
4.77306
4.75803
4.75923
4.73955
4.74171
4.71928
4.72511
4.69819
4.70734
4.67372
4.68883
4.64522
4.6689
4.60517
4.63779
4.55028
4.59135
4.4636
4.50387
)
;
    }
    inlet1
    {
        type            calculated;
        value           nonuniform List<scalar> 
20
(
4.77483
4.77371
4.77282
4.77107
4.7708
4.76799
4.76855
4.76801
4.77214
4.77384
4.77942
4.78014
4.78523
4.78603
4.79033
4.79025
4.7957
4.79736
4.80126
4.80338
)
;
    }
    inlet2
    {
        type            calculated;
        value           nonuniform List<scalar> 8(6.34893 5.13279 4.69901 4.33998 4.04869 3.80298 3.56874 2.93933);
    }
    outlet1
    {
        type            calculated;
        value           uniform 0;
    }
    outlet2
    {
        type            calculated;
        value           nonuniform List<scalar> 8(-0.91453 0 -0.862896 -0.410942 0.032749 0.0152012 0 0);
    }
    defaultFaces
    {
        type            empty;
    }
}


// ************************************************************************* //
