/*--------------------------------*- C++ -*----------------------------------*\
| =========                 |                                                 |
| \\      /  F ield         | OpenFOAM: The Open Source CFD Toolbox           |
|  \\    /   O peration     | Version:  2.4.0                                 |
|   \\  /    A nd           | Web:      www.OpenFOAM.org                      |
|    \\/     M anipulation  |                                                 |
\*---------------------------------------------------------------------------*/
FoamFile
{
    version     2.0;
    format      ascii;
    class       volVectorField;
    location    "2.78";
    object      U;
}
// * * * * * * * * * * * * * * * * * * * * * * * * * * * * * * * * * * * * * //

dimensions      [0 1 -1 0 0 0 0];

internalField   nonuniform List<vector> 
6000
(
(0.513472 -0.0430623 -6.02501e-18)
(-0.317806 0.0668507 0)
(0.112414 -0.0274727 1.01959e-17)
(0.00735096 -0.00140914 0)
(0.00634344 -3.77035e-05 0)
(-0.0294125 0.00559305 0)
(-0.00419643 0.000786837 4.36099e-18)
(-0.0167239 0.00297026 1.10447e-23)
(-0.0109382 0.00248057 0)
(-0.0320624 0.00653655 0)
(-0.0596607 0.0112427 3.58468e-18)
(-0.0931136 0.0148741 -6.80243e-18)
(-0.102014 0.0133395 0)
(-0.0683774 0.00381131 0)
(0.0293589 -0.0126602 -1.71973e-18)
(0.182061 -0.0324157 0)
(0.332504 -0.0402275 0)
(0.367088 -0.0310572 -1.2086e-18)
(0.231968 -0.0147019 -1.27785e-18)
(0.130481 -0.012014 0)
(0.168736 -0.0141279 1.47253e-18)
(0.101742 0.00253423 6.73464e-19)
(-0.14965 0.026904 -4.98135e-19)
(-0.382406 0.0355574 0)
(-0.537977 0.0321338 0)
(-0.624693 0.0261798 0)
(-0.66947 0.0197917 -1.02582e-20)
(-0.684667 0.0131195 3.43734e-21)
(-0.675764 0.00573569 0)
(-0.651316 -0.000710267 0)
(-0.612195 -0.00656456 1.66641e-20)
(-0.559113 -0.0115399 0)
(-0.492362 -0.0153837 2.93613e-19)
(-0.41219 -0.0178194 -3.85071e-19)
(-0.319312 -0.0185466 0)
(-0.215595 -0.0172735 0)
(-0.104476 -0.0137869 1.28582e-18)
(0.00935596 -0.00791056 0)
(0.119121 0.000137352 1.44261e-18)
(0.218592 0.00954614 0)
(0.301992 0.0194875 0)
(0.365068 0.0290798 2.75433e-18)
(0.405911 0.0381117 -5.35391e-18)
(0.416692 0.0446724 0)
(0.398583 0.0468497 0)
(0.367882 0.0461251 2.61006e-18)
(0.340097 0.0447425 0)
(0.322367 0.0443333 0)
(0.314926 0.0453951 -5.46859e-18)
(0.315708 0.0478077 -5.57481e-18)
(0.322859 0.0514093 -5.67007e-18)
(0.335041 0.0560118 -3.40346e-21)
(0.351156 0.0614957 5.78225e-18)
(0.371941 0.0677338 0)
(0.396795 0.0751139 -6.57084e-21)
(0.429797 0.0842896 -5.51432e-18)
(0.462832 0.0946699 5.12355e-18)
(0.521832 0.109406 4.58534e-18)
(0.54666 0.120881 1.76934e-20)
(0.685728 0.151859 0)
(0.726722 -0.10854 4.54374e-18)
(-0.209266 0.0626308 5.91858e-18)
(0.092326 -0.0316711 -4.94724e-18)
(-0.0249784 0.00928308 -5.25057e-18)
(0.00612743 0.00105246 0)
(-0.0404756 0.00813551 0)
(-0.0108059 0.00165767 -4.28437e-18)
(-0.0252461 0.00467197 8.24551e-18)
(-0.0217105 0.00506192 0)
(-0.047503 0.010678 0)
(-0.0771581 0.0161565 -3.46394e-18)
(-0.107303 0.0187351 3.26055e-18)
(-0.111729 0.0143947 1.56119e-18)
(-0.0779886 0.000644446 0)
(0.0170159 -0.0214928 1.5779e-18)
(0.169338 -0.046112 0)
(0.319109 -0.0502276 0)
(0.401688 -0.0321875 0)
(0.327803 -0.0110433 0)
(0.206257 -0.0102293 0)
(0.17703 -0.00785142 3.14958e-21)
(0.00574702 0.0299377 0)
(-0.341327 0.0637077 -4.69589e-19)
(-0.560293 0.062549 0)
(-0.653305 0.0473755 0)
(-0.694266 0.0347339 5.82968e-21)
(-0.710362 0.0241953 9.64319e-21)
(-0.709296 0.0144973 1.45005e-21)
(-0.695346 0.00547715 1.06662e-20)
(-0.666253 -0.00310677 0)
(-0.622775 -0.0109936 -1.54154e-20)
(-0.565474 -0.0178998 -9.49014e-20)
(-0.494659 -0.0235334 -2.35196e-21)
(-0.410587 -0.0275513 3.51552e-19)
(-0.31399 -0.0295215 -4.31953e-19)
(-0.206762 -0.0289705 0)
(-0.0923943 -0.025531 0)
(0.0244133 -0.018987 0)
(0.137184 -0.00953488 0)
(0.239823 0.00207304 0)
(0.326706 0.0148279 -2.62006e-18)
(0.394005 0.0276385 0)
(0.439686 0.0397431 2.54448e-18)
(0.467142 0.0504076 2.52031e-18)
(0.477596 0.0584447 0)
(0.470298 0.0624728 0)
(0.450705 0.0631334 0)
(0.428326 0.062401 0)
(0.411204 0.0621145 5.37067e-18)
(0.403145 0.0632552 0)
(0.404351 0.0660816 0)
(0.413675 0.0704596 -5.66862e-18)
(0.430005 0.0763184 -5.7107e-18)
(0.452897 0.0840184 0)
(0.481208 0.093247 -1.12244e-17)
(0.518692 0.104701 0)
(0.557419 0.117429 -1.00877e-17)
(0.623183 0.135786 -4.47714e-18)
(0.655884 0.149706 3.19929e-18)
(0.816174 0.188517 2.25457e-18)
(0.798612 -0.0913386 -3.36067e-19)
(-0.077875 0.0480279 -5.53143e-18)
(0.0671677 -0.0275706 0)
(-0.0564993 0.0173823 5.2043e-18)
(0.00321676 0.00211633 0)
(-0.0446275 0.00906166 0)
(-0.0156294 0.00233047 0)
(-0.0301746 0.00576404 -4.03273e-18)
(-0.0281276 0.0073811 0)
(-0.0541003 0.0139849 -3.58449e-18)
(-0.0826674 0.0195999 0)
(-0.111433 0.0207512 0)
(-0.116696 0.0135779 -1.47367e-18)
(-0.0850981 -0.00444276 0)
(0.00500954 -0.0317293 0)
(0.152082 -0.0594872 0)
(0.300595 -0.0599434 0)
(0.382058 -0.0309203 0)
(0.338364 -0.00279196 0)
(0.229665 -0.00334497 1.35267e-18)
(0.153951 0.00936985 -1.39046e-18)
(-0.100569 0.067896 0)
(-0.430557 0.0982033 5.67845e-21)
(-0.580322 0.0785341 -2.36087e-19)
(-0.645264 0.053584 0)
(-0.682979 0.037195 -9.76253e-21)
(-0.700484 0.0243709 0)
(-0.701043 0.0127992 -4.29432e-21)
(-0.686504 0.00229522 -9.75624e-21)
(-0.656722 -0.00775743 0)
(-0.612684 -0.0170544 0)
(-0.554908 -0.0253105 8.60242e-20)
(-0.483686 -0.0322448 -2.39656e-21)
(-0.399258 -0.0374911 0)
(-0.30234 -0.040527 7.7559e-19)
(-0.194817 -0.0407285 0)
(-0.0801675 -0.0375718 1.03488e-18)
(0.0368972 -0.0307266 0)
(0.149941 -0.0203851 0)
(0.252781 -0.00729002 0)
(0.339861 0.00740544 2.41257e-18)
(0.407453 0.0223977 0)
(0.454004 0.0365559 0)
(0.481996 0.0490251 -2.40299e-18)
(0.495005 0.0591093 0)
(0.495469 0.065664 0)
(0.486098 0.0687275 2.52062e-18)
(0.471622 0.0694107 -2.58456e-18)
(0.458167 0.0693268 -2.65118e-18)
(0.450644 0.0698684 0)
(0.451185 0.0718378 0)
(0.459851 0.0755322 0)
(0.475856 0.0811149 5.67481e-18)
(0.499044 0.0883182 5.66421e-18)
(0.528347 0.0972144 5.58578e-18)
(0.56728 0.108291 0)
(0.608744 0.121214 5.02058e-18)
(0.676945 0.138609 8.90714e-18)
(0.714538 0.154448 0)
(0.880288 0.189681 -2.24199e-18)
(0.836441 -0.059927 -2.63431e-19)
(0.0438537 0.0394981 5.09099e-18)
(0.0470674 -0.0202427 -4.80681e-18)
(-0.0764741 0.0223611 0)
(0.000165313 0.0024963 0)
(-0.0467578 0.00975681 0)
(-0.0197078 0.00285526 0)
(-0.0339396 0.00669288 0)
(-0.0328551 0.00933917 0)
(-0.0580929 0.0167812 3.48474e-18)
(-0.0856482 0.0225707 3.22172e-18)
(-0.113987 0.0226559 0)
(-0.120684 0.0130276 0)
(-0.0920821 -0.00919923 0)
(-0.00748746 -0.0417562 1.33332e-18)
(0.133125 -0.0727197 0)
(0.280602 -0.0696391 1.15006e-18)
(0.360842 -0.0304196 -1.0609e-18)
(0.32864 0.00559431 0)
(0.231645 0.0070085 -1.31823e-18)
(0.115869 0.0334615 0)
(-0.186142 0.106608 -5.85592e-19)
(-0.464682 0.125706 8.29985e-19)
(-0.568398 0.089196 2.21653e-19)
(-0.629558 0.0587912 0)
(-0.668256 0.0399478 4.02452e-21)
(-0.68678 0.0251486 0)
(-0.687809 0.0119282 -6.63888e-21)
(-0.673065 -0.00045541 0)
(-0.643208 -0.0121076 0)
(-0.59917 -0.0229167 0)
(-0.541443 -0.0326339 7.70967e-20)
(-0.470304 -0.0409875 -4.37823e-19)
(-0.385975 -0.0475855 0)
(-0.289155 -0.0518089 -3.56531e-19)
(-0.181717 -0.0528735 0)
(-0.0671247 -0.0500858 -9.58552e-19)
(0.0498278 -0.0429586 0)
(0.162634 -0.0315933 0)
(0.265083 -0.0168403 0)
(0.351644 -2.54023e-05 2.24746e-18)
(0.418623 0.0172931 0)
(0.46471 0.0336937 2.25409e-18)
(0.492039 0.0481261 -2.28479e-18)
(0.504646 0.0594809 0)
(0.506466 0.0672001 -2.38277e-18)
(0.500901 0.0714411 -4.9141e-18)
(0.491421 0.0731049 2.53639e-18)
(0.482047 0.0735453 5.22676e-18)
(0.476565 0.0741516 -5.3698e-18)
(0.477347 0.075965 -5.49359e-18)
(0.485254 0.079503 0)
(0.500125 0.0848073 -5.64478e-18)
(0.522214 0.0916098 -5.63553e-18)
(0.550753 0.100308 -5.53862e-18)
(0.589086 0.111134 0)
(0.6308 0.12435 0)
(0.698577 0.140911 -4.40697e-18)
(0.738529 0.158559 0)
(0.901395 0.189088 2.15361e-18)
(0.861459 -0.0344663 -2.4648e-19)
(0.153286 0.0355867 -8.98881e-20)
(0.053905 -0.0143998 4.76258e-18)
(-0.0865853 0.0249819 5.14261e-18)
(-0.00288317 0.00246534 0)
(-0.0481661 0.010345 -4.4014e-18)
(-0.0232676 0.00332174 0)
(-0.0370973 0.00754307 0)
(-0.0365974 0.011094 0)
(-0.060829 0.0193271 3.40517e-18)
(-0.087541 0.0253433 -3.13125e-18)
(-0.115862 0.0245498 0)
(-0.124345 0.0126323 0)
(-0.0993034 -0.0135993 0)
(-0.0206997 -0.0512961 -1.27903e-18)
(0.112487 -0.0856033 0)
(0.258866 -0.0793912 -1.11421e-18)
(0.339167 -0.0304466 1.03868e-18)
(0.312855 0.0136034 0)
(0.223152 0.0198366 0)
(0.0707057 0.0618685 6.50742e-19)
(-0.248284 0.142293 5.63365e-19)
(-0.471477 0.145798 -7.72174e-19)
(-0.552609 0.097446 -1.95325e-19)
(-0.613813 0.0639778 0)
(-0.652522 0.0427863 1.26779e-21)
(-0.671227 0.0259062 0)
(-0.672287 0.0108449 6.21631e-21)
(-0.657435 -0.00326 6.11994e-21)
(-0.627613 -0.0165327 0)
(-0.583677 -0.0288787 0)
(-0.526104 -0.0400819 -1.44043e-19)
(-0.455156 -0.049881 2.05167e-19)
(-0.371033 -0.057857 0)
(-0.27441 -0.063291 -3.33101e-19)
(-0.167143 -0.0652336 0)
(-0.0526822 -0.0628117 9.02462e-19)
(0.0640247 -0.0553742 0)
(0.176415 -0.0429527 0)
(0.278253 -0.0264991 0)
(0.364015 -0.00751913 -2.14787e-18)
(0.430019 0.0121615 -2.14792e-18)
(0.475082 0.030801 -2.16716e-18)
(0.501212 0.0470065 4.67055e-21)
(0.512631 0.0596445 -2.24264e-18)
(0.513959 0.0682322 2.30987e-18)
(0.509141 0.0730938 4.77937e-18)
(0.501446 0.07519 0)
(0.493984 0.0757965 -2.56715e-18)
(0.489676 0.0762317 5.29594e-18)
(0.490656 0.0775628 5.43298e-18)
(0.498053 0.0803546 0)
(0.512125 0.084728 0)
(0.533293 0.0910628 0)
(0.56104 0.0992849 5.48774e-18)
(0.598674 0.109549 0)
(0.640157 0.122309 0)
(0.707314 0.137996 4.29433e-18)
(0.748287 0.155402 -3.0081e-18)
(0.907939 0.183058 -2.08526e-18)
(0.880242 -0.0137287 -2.28013e-19)
(0.251002 0.0348272 -4.69126e-18)
(0.081219 -0.00953907 0)
(-0.0879153 0.026634 -5.12029e-18)
(-0.00590327 0.00227051 -4.61008e-18)
(-0.0491765 0.0108766 4.75778e-22)
(-0.026328 0.00374033 0)
(-0.0397765 0.00832151 0)
(-0.0395858 0.0126759 0)
(-0.062721 0.0216784 -3.33738e-18)
(-0.0886951 0.0279774 0)
(-0.117215 0.0264648 0)
(-0.12772 0.0124537 1.31744e-18)
(-0.106654 -0.0175151 0)
(-0.0344452 -0.0600957 0)
(0.0904836 -0.0978824 0)
(0.235415 -0.0890309 0)
(0.316602 -0.030793 -1.00848e-18)
(0.294443 0.0212881 0)
(0.2087 0.034771 1.25923e-18)
(0.0242283 0.0924427 -6.29836e-19)
(-0.290687 0.173908 -5.28602e-19)
(-0.465686 0.161 7.14623e-19)
(-0.536933 0.104765 3.61847e-19)
(-0.597596 0.0691382 0)
(-0.635658 0.0455967 -1.19886e-21)
(-0.654115 0.0266345 0)
(-0.655008 0.00971418 0)
(-0.640053 -0.0060952 -1.08058e-20)
(-0.61027 -0.0209727 0)
(-0.56645 -0.0348451 0)
(-0.509057 -0.0475239 1.35782e-19)
(-0.438336 -0.0587593 0)
(-0.354461 -0.0681056 0)
(-0.258073 -0.0747424 3.1999e-19)
(-0.151011 -0.0775537 0)
(-0.0367137 -0.0754771 -8.69692e-19)
(0.079663 -0.0676986 0)
(0.191539 -0.0541988 0)
(0.292647 -0.0360242 0)
(0.377446 -0.014863 0)
(0.442263 0.00718441 2.08223e-18)
(0.485986 0.0280487 2.09445e-18)
(0.510589 0.0460242 4.83445e-21)
(0.520424 0.0598747 2.18495e-18)
(0.520549 0.0691775 2.24624e-18)
(0.515295 0.0744248 -2.3333e-18)
(0.507902 0.0766839 0)
(0.501008 0.0772384 -2.51918e-18)
(0.497011 0.0773926 2.60609e-18)
(0.497847 0.0782615 -5.35879e-18)
(0.504766 0.0805424 0)
(0.518207 0.0846038 0)
(0.538801 0.0903878 -5.5132e-18)
(0.566114 0.0980476 -5.40545e-18)
(0.603424 0.107745 5.18736e-18)
(0.644789 0.120133 4.77784e-18)
(0.711732 0.13502 -4.19691e-18)
(0.753167 0.152489 2.92074e-18)
(0.910729 0.177612 0)
(0.89531 0.00501585 -2.04965e-19)
(0.337865 0.0365113 0)
(0.120039 -0.00430731 4.54246e-18)
(-0.0779311 0.0273667 5.05771e-18)
(-0.0086522 0.0021617 -4.35322e-22)
(-0.0498658 0.0113506 4.31761e-18)
(-0.0288616 0.00410828 0)
(-0.0419932 0.00902264 0)
(-0.0419018 0.0140945 0)
(-0.0639136 0.0238544 1.64115e-18)
(-0.0891985 0.030497 1.49987e-18)
(-0.118028 0.0284138 0)
(-0.1307 0.0125079 -1.29361e-18)
(-0.113907 -0.0209299 1.22077e-18)
(-0.0484322 -0.0681174 0)
(0.0675818 -0.109533 0)
(0.210355 -0.098548 0)
(0.293001 -0.0313936 7.83174e-21)
(0.274485 0.0287212 0)
(0.1904 0.0514812 -2.46807e-18)
(-0.0203618 0.123765 6.0473e-19)
(-0.317849 0.201423 5.10685e-19)
(-0.454405 0.173157 -1.14417e-20)
(-0.521357 0.11164 -1.68776e-19)
(-0.580586 0.0741769 0)
(-0.61763 0.0483131 0)
(-0.635578 0.0273004 0)
(-0.636183 0.00853934 -5.09654e-21)
(-0.621097 -0.00895336 8.74168e-21)
(-0.59133 -0.0254118 0)
(-0.547616 -0.0407903 0)
(-0.490407 -0.0549258 -1.29298e-19)
(-0.419931 -0.0675812 -9.23013e-20)
(-0.336327 -0.078285 0)
(-0.240198 -0.0861148 0)
(-0.133362 -0.0897864 0)
(-0.0192592 -0.0880356 0)
(0.0967195 -0.0798878 0)
(0.20801 -0.0652864 0)
(0.308301 -0.0453684 0)
(0.392021 -0.0220075 0)
(0.455499 0.00241621 0)
(0.497675 0.0255047 -5.64146e-21)
(0.520526 0.0452505 2.09005e-18)
(0.52852 0.0602724 0)
(0.527058 0.0702025 -4.3994e-18)
(0.520819 0.075709 -2.28457e-18)
(0.513079 0.0780007 0)
(0.506155 0.0784072 2.4807e-18)
(0.502059 0.0782348 -2.57145e-18)
(0.502567 0.0786358 5.29684e-18)
(0.509013 0.080389 -5.40671e-18)
(0.522007 0.0838487 0)
(0.542256 0.0890843 6.11096e-21)
(0.569357 0.0962967 5.34334e-18)
(0.606562 0.105539 -1.02183e-17)
(0.647961 0.117508 -1.35796e-20)
(0.71487 0.131794 -4.07061e-18)
(0.75675 0.148869 2.79066e-18)
(0.912734 0.172204 1.87158e-18)
(0.907619 0.0223076 -6.37406e-19)
(0.414774 0.0400891 0)
(0.166224 0.00161185 9.85599e-21)
(-0.0563426 0.0275576 -3.26274e-21)
(-0.0104643 0.00234699 4.63351e-18)
(-0.0502195 0.0117664 4.29324e-18)
(-0.0308334 0.00441929 0)
(-0.0437293 0.00964026 3.76075e-18)
(-0.0435671 0.0153517 0)
(-0.0644495 0.0258626 -1.61668e-18)
(-0.0890477 0.0329103 -9.87657e-23)
(-0.118217 0.0303984 -1.35491e-18)
(-0.133116 0.0127973 0)
(-0.120796 -0.0238489 -2.40047e-18)
(-0.0623268 -0.0753725 0)
(0.044325 -0.120555 0)
(0.183772 -0.107942 0)
(0.268376 -0.0322416 9.87099e-19)
(0.253471 0.035963 0)
(0.169353 0.0696244 1.21082e-18)
(-0.0614507 0.154829 -1.16996e-18)
(-0.333638 0.225117 0)
(-0.440784 0.183197 -1.15567e-20)
(-0.505532 0.118217 0)
(-0.562681 0.0790242 0)
(-0.598467 0.0509036 3.74856e-21)
(-0.615731 0.0278899 0)
(-0.615962 0.00732124 1.06868e-20)
(-0.600709 -0.0118301 -3.82095e-21)
(-0.570929 -0.0298462 -4.40372e-21)
(-0.527307 -0.0467114 9.3525e-21)
(-0.470281 -0.0622857 6.24032e-20)
(-0.40006 -0.0763464 1.78886e-19)
(-0.316745 -0.0883978 0)
(-0.220894 -0.0974149 2.98887e-19)
(-0.114303 -0.101942 0)
(-0.000431492 -0.1005 0)
(0.115088 -0.0919552 0)
(0.225736 -0.0762262 9.46782e-19)
(0.325139 -0.0545363 0)
(0.407687 -0.0289491 0)
(0.469707 -0.00212874 1.97781e-18)
(0.510183 0.0231966 -2.00506e-18)
(0.531119 0.0447182 0)
(0.537087 0.0608876 0)
(0.533786 0.0713808 2.16098e-18)
(0.526236 0.0770524 2.2484e-18)
(0.517809 0.0792885 -2.34533e-18)
(0.510585 0.0794927 0)
(0.506229 0.0789725 0)
(0.506346 0.0788952 0)
(0.512326 0.0800947 3.30492e-21)
(0.524917 0.0829938 0)
(0.544905 0.0877206 5.41187e-18)
(0.5719 0.0944557 0)
(0.609111 0.10323 5.04741e-18)
(0.650623 0.114744 -4.61425e-18)
(0.717575 0.12851 7.98452e-18)
(0.759884 0.145032 -2.7261e-18)
(0.914546 0.166983 -1.82151e-18)
(0.917657 0.0379416 1.70957e-19)
(0.482608 0.0450239 -4.10193e-18)
(0.217 0.00819132 -4.29004e-18)
(-0.025929 0.0279282 -3.25982e-21)
(-0.0102045 0.00296046 -4.64866e-18)
(-0.0501536 0.0121444 -4.28266e-18)
(-0.03221 0.00466887 0)
(-0.0449587 0.0101695 -3.72579e-18)
(-0.044577 0.0164466 0)
(-0.064327 0.0277046 -1.59635e-18)
(-0.088202 0.035216 -1.4538e-18)
(-0.117677 0.0324106 1.33623e-18)
(-0.134785 0.0133124 -1.25131e-18)
(-0.127039 -0.0262834 1.18484e-18)
(-0.0758015 -0.0818713 -1.1549e-18)
(0.0212613 -0.130931 1.13842e-18)
(0.155713 -0.117183 0)
(0.24282 -0.0333745 0)
(0.231705 0.0430606 0)
(0.146104 0.0888521 5.88676e-19)
(-0.098234 0.184923 5.66959e-19)
(-0.341044 0.24534 0)
(-0.426133 0.191666 -2.86762e-19)
(-0.489217 0.124524 0)
(-0.54387 0.0836387 0)
(-0.578235 0.0533514 -3.62714e-21)
(-0.59469 0.0283937 1.65598e-20)
(-0.594482 0.00605574 -5.59564e-21)
(-0.579029 -0.0147266 0)
(-0.549211 -0.0342786 8.34982e-21)
(-0.505669 -0.0526118 -1.80093e-20)
(-0.448822 -0.0696084 0)
(-0.378864 -0.0850614 -8.7101e-20)
(-0.295854 -0.0984528 2.31202e-19)
(-0.200298 -0.108654 -2.93742e-19)
(-0.0939662 -0.114033 0)
(0.0196257 -0.112883 0)
(0.134633 -0.103915 0)
(0.244589 -0.0870313 -9.32571e-19)
(0.343045 -0.0635382 0)
(0.424343 -0.0356933 0)
(0.484808 -0.00645036 -1.94812e-18)
(0.523466 0.0211308 0)
(0.542361 0.0444374 2.00837e-18)
(0.546165 0.0617415 -2.05418e-18)
(0.540839 0.072747 0)
(0.531747 0.0785029 2.21187e-18)
(0.522417 0.0806067 4.62943e-18)
(0.514753 0.0805652 -2.41746e-18)
(0.510087 0.0796871 0)
(0.509816 0.0791331 0)
(0.515344 0.0797777 2.66074e-18)
(0.527545 0.0821148 0)
(0.547297 0.0863109 5.36895e-18)
(0.574223 0.0925527 0)
(0.611481 0.100864 4.98887e-18)
(0.65314 0.111906 4.54295e-18)
(0.720162 0.125204 -3.93534e-18)
(0.762883 0.14107 0)
(0.916358 0.161911 1.75596e-18)
(0.925832 0.0519238 -5.82461e-20)
(0.542212 0.0508658 7.40664e-20)
(0.270198 0.0153214 4.19362e-18)
(0.0114441 0.0289377 -3.43286e-21)
(-0.00682209 0.00407694 -5.6486e-22)
(-0.0494843 0.0125269 0)
(-0.0329576 0.00485697 0)
(-0.0456581 0.0106071 0)
(-0.0449176 0.0173769 -1.71004e-18)
(-0.0635252 0.0293782 3.15545e-18)
(-0.086607 0.0374066 0)
(-0.1163 0.034436 1.31708e-18)
(-0.135523 0.0140368 4.52032e-21)
(-0.132367 -0.0282464 -1.16181e-18)
(-0.0885448 -0.0876092 8.73196e-21)
(-0.00114582 -0.140618 -1.13054e-18)
(0.126259 -0.126218 0)
(0.216489 -0.0348475 0)
(0.209403 0.0500633 0)
(0.120726 0.108908 -5.7894e-19)
(-0.130103 0.213481 0)
(-0.342288 0.262454 4.2124e-19)
(-0.410959 0.198947 2.54737e-19)
(-0.472281 0.13055 -1.24892e-19)
(-0.524186 0.0879974 0)
(-0.557014 0.0556461 0)
(-0.572571 0.0288065 -1.61157e-20)
(-0.571879 0.0047404 0)
(-0.556198 -0.0176444 1.07567e-21)
(-0.526324 -0.0387111 -3.96923e-21)
(-0.48285 -0.0584944 8.69907e-21)
(-0.426181 -0.0768974 -5.70734e-20)
(-0.356491 -0.0937304 0)
(-0.273799 -0.108455 -2.27594e-19)
(-0.178554 -0.11984 0)
(-0.0724944 -0.126067 0)
(0.040761 -0.125191 7.93855e-19)
(0.155211 -0.115774 0)
(0.264436 -0.0977096 0)
(0.361894 -0.0723808 0)
(0.441875 -0.0422447 0)
(0.500704 -0.0105504 0)
(0.53745 0.0193083 0)
(0.554206 0.0444124 -3.96147e-18)
(0.555739 0.0628441 2.02618e-18)
(0.548247 0.0743201 2.0888e-18)
(0.537434 0.0800872 -4.36406e-18)
(0.527035 0.081984 -2.28689e-18)
(0.518842 0.0816531 2.39267e-18)
(0.513866 0.0804103 -2.49104e-18)
(0.51325 0.0793896 0)
(0.518362 0.0794858 1.35976e-21)
(0.530185 0.0812526 -5.34655e-18)
(0.5497 0.084903 -5.344e-18)
(0.576558 0.0906388 -5.20862e-18)
(0.613871 0.0984854 -9.91518e-18)
(0.655686 0.109042 -4.51183e-18)
(0.72278 0.121899 3.87318e-18)
(0.765885 0.137058 2.5906e-18)
(0.918252 0.156967 -1.73386e-18)
(0.932515 0.0644566 -1.49092e-19)
(0.594389 0.0572711 3.91958e-18)
(0.324127 0.0228781 2.34621e-21)
(0.0549776 0.030645 -3.81308e-21)
(0.000642148 0.00604208 4.5888e-18)
(-0.0478682 0.0129717 4.3e-18)
(-0.0330321 0.00499049 -3.91419e-18)
(-0.0458105 0.0109519 1.83428e-18)
(-0.0445757 0.0181401 -6.32077e-22)
(-0.0620179 0.0308793 -1.56104e-18)
(-0.0842075 0.0394712 -1.41879e-18)
(-0.113984 0.0364564 -1.30344e-18)
(-0.135163 0.0149506 2.45506e-18)
(-0.136532 -0.0297535 7.90753e-21)
(-0.100244 -0.0926115 1.13331e-18)
(-0.022541 -0.14952 0)
(0.0956899 -0.135002 1.03653e-18)
(0.189625 -0.0367251 0)
(0.186731 0.0570308 -1.00751e-18)
(0.0935189 0.129477 -5.60009e-19)
(-0.156673 0.240057 -5.19309e-19)
(-0.338997 0.276832 -1.19846e-20)
(-0.39543 0.205312 -2.46781e-19)
(-0.454663 0.136272 1.21379e-19)
(-0.503681 0.0920878 0)
(-0.534893 0.0577819 9.05942e-21)
(-0.549491 0.0291255 0)
(-0.54828 0.00337433 0)
(-0.532354 -0.0205841 -1.05201e-21)
(-0.502412 -0.0431447 0)
(-0.458998 -0.064361 0)
(-0.402505 -0.084155 5.60917e-20)
(-0.333089 -0.102356 0)
(-0.250724 -0.118409 0)
(-0.155802 -0.130976 2.81484e-19)
(-0.0500259 -0.138046 0)
(0.0628271 -0.137427 -7.86906e-19)
(0.176689 -0.127538 0)
(0.285148 -0.108267 9.04962e-19)
(0.381566 -0.081069 0)
(0.460176 -0.0486068 0)
(0.517301 -0.0144305 0)
(0.552055 0.0177287 0)
(0.566592 0.0446447 1.95739e-18)
(0.565771 0.0642004 0)
(0.556004 0.0761117 -4.12054e-18)
(0.543324 0.0818222 2.15429e-18)
(0.531716 0.0834371 -2.25824e-18)
(0.522924 0.0827683 2.36709e-18)
(0.517659 0.0811512 2.47012e-18)
(0.516767 0.0796769 0)
(0.521524 0.0792359 2.62403e-18)
(0.532994 0.0804293 7.97939e-18)
(0.552271 0.083523 -5.31298e-18)
(0.57905 0.0887403 5.19074e-18)
(0.616407 0.0961153 4.93405e-18)
(0.65837 0.106178 0)
(0.725521 0.118605 -3.8516e-18)
(0.768975 0.133037 -5.12276e-18)
(0.920275 0.152125 0)
(0.938017 0.0757427 6.48423e-19)
(0.639894 0.0639742 0)
(0.377459 0.0307383 7.51323e-23)
(0.10287 0.0332088 -4.30608e-21)
(0.0148525 0.00847965 -4.51228e-18)
(-0.0447015 0.0135702 -8.64317e-18)
(-0.0323577 0.00508896 7.82763e-18)
(-0.0454045 0.0112056 -1.82275e-18)
(-0.0435453 0.0187341 1.68022e-18)
(-0.0597821 0.0322028 0)
(-0.0809555 0.0413968 1.59202e-22)
(-0.110643 0.0384516 0)
(-0.133565 0.0160307 -2.43101e-18)
(-0.139325 -0.0308221 1.14394e-18)
(-0.110616 -0.0968956 0)
(-0.0426628 -0.157534 0)
(0.0646248 -0.143522 -1.0349e-18)
(0.162563 -0.0390717 0)
(0.163828 0.0640112 1.00592e-18)
(0.0654046 0.150109 5.5018e-19)
(-0.178174 0.26444 7.71531e-21)
(-0.332353 0.288822 -3.85855e-19)
(-0.379578 0.210942 -2.19809e-19)
(-0.436345 0.14167 0)
(-0.482414 0.0959043 0)
(-0.51196 0.0597559 -8.85258e-21)
(-0.525558 0.0293497 0)
(-0.523808 0.0019577 -8.63345e-21)
(-0.507624 -0.0235457 7.51307e-22)
(-0.477607 -0.0475798 3.14416e-21)
(-0.434252 -0.0702127 -7.70361e-21)
(-0.377932 -0.091383 5.33533e-20)
(-0.308793 -0.110941 -7.94888e-20)
(-0.226764 -0.128317 2.16684e-19)
(-0.132174 -0.142068 -2.79209e-19)
(-0.0266953 -0.149973 0)
(0.08569 -0.149592 0)
(0.198941 -0.139212 0)
(0.306609 -0.118708 -3.58229e-21)
(0.401951 -0.089607 9.20397e-19)
(0.479145 -0.0547825 0)
(0.534507 -0.0180925 0)
(0.567204 0.0163912 0)
(0.579455 0.0451341 0)
(0.576215 0.0658127 0)
(0.56409 0.0781295 4.15135e-21)
(0.549423 0.0837206 0)
(0.53648 0.0849774 4.4673e-18)
(0.527024 0.0839157 -4.68901e-18)
(0.521491 0.0819083 -2.4484e-18)
(0.520408 0.0799927 0)
(0.524895 0.0790307 0)
(0.536061 0.0796551 -5.29073e-18)
(0.555108 0.0821857 4.47868e-21)
(0.581795 0.0868729 -5.16268e-18)
(0.619177 0.0937678 4.9022e-18)
(0.661267 0.103329 4.44106e-18)
(0.72845 0.11533 -3.80968e-18)
(0.772214 0.129029 5.06177e-18)
(0.922463 0.147371 1.67089e-18)
(0.942589 0.0859315 1.3184e-19)
(0.679432 0.0707659 -3.64567e-18)
(0.429178 0.0387862 -7.88671e-18)
(0.153678 0.0366849 -4.93459e-21)
(0.0359116 0.0113467 4.41963e-18)
(-0.0389979 0.014442 4.33867e-18)
(-0.030794 0.00519323 -1.96088e-18)
(-0.0444274 0.0113737 0)
(-0.0418314 0.0191576 0)
(-0.0568037 0.0333431 1.53358e-18)
(-0.0768159 0.0431703 1.39109e-18)
(-0.106215 0.0404007 0)
(-0.130624 0.0172538 1.20574e-18)
(-0.140582 -0.0314695 0)
(-0.119431 -0.100471 0)
(-0.0613175 -0.164603 0)
(0.0339997 -0.151768 0)
(0.13567 -0.0419237 9.71786e-19)
(0.140814 0.0710255 4.97726e-19)
(0.0372258 0.170469 -5.32709e-19)
(-0.195 0.286487 7.85308e-21)
(-0.323203 0.298734 0)
(-0.363382 0.215961 2.14404e-19)
(-0.417334 0.146724 0)
(-0.460449 0.0994464 0)
(-0.488297 0.0615674 -1.25833e-20)
(-0.500873 0.0294793 2.20981e-20)
(-0.498572 0.000491467 8.46941e-21)
(-0.482126 -0.0265283 -7.3763e-22)
(-0.452033 -0.0520164 -5.94978e-21)
(-0.408735 -0.0760503 1.49329e-20)
(-0.352591 -0.098583 -5.26415e-20)
(-0.283732 -0.119488 7.86108e-20)
(-0.202043 -0.138182 -2.03012e-21)
(-0.10779 -0.153118 -2.73597e-19)
(-0.00263343 -0.16185 0)
(0.109233 -0.16169 0)
(0.221854 -0.150801 0)
(0.328708 -0.129038 -1.78242e-18)
(0.422948 -0.0979991 -9.17354e-19)
(0.498688 -0.0607751 0)
(0.552241 -0.0215383 0)
(0.582824 0.0152948 -1.86381e-18)
(0.592732 0.0458797 0)
(0.587023 0.0676813 0)
(0.572475 0.0803781 4.01044e-18)
(0.555725 0.0857916 -2.09809e-18)
(0.541335 0.086614 -4.41883e-18)
(0.531143 0.0850976 1.03094e-21)
(0.525362 0.0826761 4.85745e-18)
(0.524173 0.0803282 2.52037e-18)
(0.528494 0.0788646 0)
(0.539425 0.0789311 2.63205e-18)
(0.558269 0.080897 5.26879e-18)
(0.58486 0.0850456 5.14803e-18)
(0.622244 0.0914518 -4.88877e-18)
(0.664435 0.100504 -4.42852e-18)
(0.731609 0.112077 3.79909e-18)
(0.775643 0.125046 -2.51354e-18)
(0.924835 0.142692 -1.6661e-18)
(0.946438 0.0951446 1.24595e-19)
(0.713668 0.0774865 3.61431e-18)
(0.478528 0.0469105 3.7122e-21)
(0.206228 0.041027 -5.64448e-21)
(0.0629945 0.0148823 0)
(-0.0293529 0.0155491 0)
(-0.0280916 0.00537099 1.95656e-22)
(-0.0428544 0.0114685 0)
(-0.0394506 0.019411 0)
(-0.0530814 0.0342949 6.99661e-22)
(-0.0717698 0.0447785 0)
(-0.10066 0.0422839 0)
(-0.12627 0.0185974 1.18878e-18)
(-0.140189 -0.0317123 0)
(-0.12652 -0.103341 0)
(-0.0783699 -0.170726 0)
(0.00484429 -0.15972 0)
(0.109209 -0.0452625 2.63599e-21)
(0.117763 0.0780709 -4.97158e-19)
(0.0096488 0.190276 1.04454e-18)
(-0.207577 0.306128 7.75958e-21)
(-0.312151 0.306834 3.33085e-19)
(-0.346805 0.22045 0)
(-0.397654 0.151422 8.88861e-20)
(-0.437845 0.102717 0)
(-0.463984 0.0632175 1.2343e-20)
(-0.475527 0.0295157 1.81864e-21)
(-0.472671 -0.00102289 0)
(-0.455963 -0.0295307 0)
(-0.425798 -0.0564538 2.32351e-22)
(-0.382561 -0.0818739 -2.39637e-22)
(-0.326594 -0.105756 2.50293e-20)
(-0.258017 -0.127997 0)
(-0.176671 -0.148007 -2.11311e-19)
(-0.0827595 -0.164128 2.72402e-19)
(0.0220389 -0.173676 0)
(0.133349 -0.173721 -7.59608e-19)
(0.245325 -0.16231 0)
(0.351345 -0.139261 4.1656e-21)
(0.444459 -0.106249 0)
(0.518718 -0.0665879 9.14829e-19)
(0.570424 -0.0247701 9.16506e-19)
(0.598847 0.0144381 9.16565e-21)
(0.606366 0.0468802 -1.88962e-18)
(0.598145 0.0698057 0)
(0.581129 0.0828604 -4.53265e-21)
(0.562218 0.0880426 2.07645e-18)
(0.546279 0.0883551 1.73193e-21)
(0.535279 0.0863165 2.3017e-18)
(0.529253 0.083448 -5.74316e-22)
(0.528043 0.0806716 -5.33314e-22)
(0.532308 0.0787265 0)
(0.543096 0.0782511 0)
(0.561782 0.0796566 0)
(0.588281 0.083262 0)
(0.625645 0.0891726 0)
(0.667906 0.0977112 4.39628e-18)
(0.73503 0.108851 0)
(0.77929 0.121099 0)
(0.927404 0.138084 -1.639e-18)
(0.949734 0.103495 -6.41066e-19)
(0.74322 0.0840208 0)
(0.524967 0.0550037 5.20828e-21)
(0.259525 0.0461307 -6.37529e-21)
(0.095457 0.019145 0)
(-0.0146446 0.0169587 2.14756e-18)
(-0.023847 0.00570663 -1.97939e-18)
(-0.0406297 0.011512 0)
(-0.0364296 0.0194974 0)
(-0.0486283 0.0350532 -1.51004e-18)
(-0.0658169 0.0462092 0)
(-0.0939689 0.0440824 0)
(-0.120479 0.0200401 -1.18214e-18)
(-0.138086 -0.0315659 0)
(-0.131764 -0.105508 -1.06663e-18)
(-0.0936641 -0.175913 0)
(-0.0221204 -0.167353 0)
(0.0831479 -0.0489991 5.22686e-21)
(0.0946793 0.0851179 0)
(-0.0168069 0.209282 -5.12453e-19)
(-0.216318 0.32336 4.5487e-19)
(-0.299626 0.313348 -6.40714e-19)
(-0.329806 0.224465 1.79858e-19)
(-0.377337 0.155758 -8.72544e-20)
(-0.41466 0.105721 0)
(-0.439092 0.0647084 1.59789e-20)
(-0.449602 0.0294609 -4.80364e-20)
(-0.446192 -0.00258346 0)
(-0.429228 -0.0325512 1.69276e-21)
(-0.398998 -0.0608911 2.54549e-21)
(-0.355827 -0.0876836 -6.91759e-21)
(-0.300042 -0.112903 -2.47657e-20)
(-0.231751 -0.136472 0)
(-0.15075 -0.157795 -2.05909e-19)
(-0.0571798 -0.1751 2.67381e-19)
(0.0472109 -0.185452 0)
(0.15794 -0.185689 7.57837e-19)
(0.269257 -0.173741 0)
(0.374424 -0.149381 8.83981e-19)
(0.466392 -0.114362 0)
(0.539148 -0.0722246 -9.15215e-19)
(0.588981 -0.0277904 -9.16108e-19)
(0.615208 0.0138194 9.88419e-21)
(0.620299 0.0481339 1.8816e-18)
(0.609535 0.0721843 0)
(0.590017 0.0855771 -1.95949e-18)
(0.568887 0.0904789 0)
(0.551311 0.0902079 2.16531e-18)
(0.539427 0.0875751 0)
(0.533147 0.0842185 -2.3912e-18)
(0.531985 0.08101 -4.9724e-18)
(0.536307 0.0786022 0)
(0.547055 0.0776045 0)
(0.565644 0.0784592 0)
(0.592069 0.0815213 2.55044e-18)
(0.629396 0.0869313 0)
(0.671698 0.0949516 -9.93391e-21)
(0.738722 0.105652 0)
(0.783168 0.117192 2.45712e-18)
(0.930174 0.133539 1.63802e-18)
(0.952615 0.111088 0)
(0.768665 0.0902899 3.41212e-18)
(0.568134 0.0629656 3.76548e-18)
(0.312703 0.0518621 -7.07549e-21)
(0.132555 0.0240975 0)
(0.00544565 0.0187894 -2.11827e-18)
(-0.0175088 0.0062919 0)
(-0.0376379 0.0115396 1.80989e-18)
(-0.0327993 0.0194242 1.64268e-18)
(-0.0434725 0.0356138 1.50129e-18)
(-0.0589764 0.0474518 1.35809e-18)
(-0.0861589 0.0457798 1.24199e-18)
(-0.113261 0.0215631 0)
(-0.134259 -0.0310449 0)
(-0.135089 -0.106974 1.06241e-18)
(-0.107028 -0.180185 0)
(-0.0466658 -0.174575 0)
(0.0570632 -0.0529828 -9.87358e-19)
(0.0714606 0.0920834 0)
(-0.0417093 0.227277 -5.00483e-19)
(-0.221601 0.338222 0)
(-0.285927 0.318475 3.0862e-19)
(-0.312351 0.228044 -1.76692e-19)
(-0.356418 0.159728 0)
(-0.390947 0.108465 0)
(-0.413684 0.0660432 1.88554e-21)
(-0.423167 0.0293174 2.45301e-20)
(-0.41921 -0.00418807 0)
(-0.401999 -0.035588 -1.66859e-21)
(-0.371714 -0.065327 2.05236e-21)
(-0.32862 -0.093479 -6.36004e-21)
(-0.273023 -0.120025 0)
(-0.205021 -0.144913 0)
(-0.124367 -0.167547 2.20059e-21)
(-0.0311395 -0.186033 -2.23268e-21)
(0.0727822 -0.197177 0)
(0.182917 -0.197597 0)
(0.293557 -0.185098 8.25919e-19)
(0.397851 -0.159402 0)
(0.488656 -0.122342 0)
(0.559896 -0.0776892 0)
(0.607837 -0.0306025 0)
(0.631843 0.0134364 1.83511e-18)
(0.634476 0.0496386 1.85674e-18)
(0.621145 0.0748148 0)
(0.599104 0.088528 0)
(0.575713 0.0931045 2.02851e-18)
(0.556425 0.0921791 0)
(0.54358 0.0888773 0)
(0.537023 0.0849832 -2.37318e-18)
(0.535964 0.0813314 2.47005e-18)
(0.540452 0.0784764 0)
(0.551269 0.0769777 0)
(0.569833 0.0772958 0)
(0.596212 0.0798185 -2.54255e-18)
(0.633493 0.084726 2.40913e-18)
(0.675808 0.092225 -8.71817e-18)
(0.742685 0.102481 0)
(0.787275 0.113324 -2.45307e-18)
(0.933139 0.129055 -1.61433e-18)
(0.955192 0.118016 0)
(0.790538 0.096244 -3.39369e-18)
(0.607818 0.070707 0)
(0.364998 0.0580764 -5.99757e-18)
(0.173466 0.0296732 0)
(0.0309408 0.0211283 -2.0804e-18)
(-0.00844931 0.00728002 0)
(-0.0336639 0.0116028 -1.81659e-18)
(-0.0285861 0.0192059 -1.63822e-18)
(-0.037656 0.0359734 -1.49241e-18)
(-0.0512861 0.0484968 -1.34911e-18)
(-0.0772716 0.0473622 -1.23411e-18)
(-0.104662 0.0231492 0)
(-0.128736 -0.0301645 0)
(-0.136459 -0.107749 0)
(-0.118341 -0.183562 0)
(-0.0688574 -0.181246 0)
(0.0302867 -0.0570953 5.02587e-19)