/*--------------------------------*- C++ -*----------------------------------*\
| =========                 |                                                 |
| \\      /  F ield         | OpenFOAM: The Open Source CFD Toolbox           |
|  \\    /   O peration     | Version:  2.4.0                                 |
|   \\  /    A nd           | Web:      www.OpenFOAM.org                      |
|    \\/     M anipulation  |                                                 |
\*---------------------------------------------------------------------------*/
FoamFile
{
    version     2.0;
    format      ascii;
    class       volSymmTensorField;
    location    "1.1";
    object      UPrime2Mean;
}
// * * * * * * * * * * * * * * * * * * * * * * * * * * * * * * * * * * * * * //

dimensions      [0 2 -2 0 0 0 0];

internalField   nonuniform List<symmTensor> 
2320
(
(0.0735986 0.000357342 0 0.00125405 0 0)
(0.0909345 0.000866165 0 0.0039092 0 0)
(0.0974971 0.00192019 0 0.0043404 0 0)
(0.0850783 0.000300391 0 0.00406775 0 0)
(0.0983385 0.000654581 0 0.00300683 0 0)
(0.0917941 0.000242425 0 0.00412308 0 0)
(0.116996 0.00137025 0 0.00472819 0 0)
(0.1013 -0.000106575 0 0.0061868 0 0)
(0.119105 0.00124805 0 0.00514671 0 0)
(0.11206 -0.00018827 0 0.0067129 0 0)
(0.136892 0.00123952 0 0.00677611 0 0)
(0.129534 -1.42672e-05 0 0.00913853 0 0)
(0.15335 0.00134398 0 0.0081504 0 0)
(0.147447 -0.0013709 0 0.010998 0 0)
(0.191085 0.00278528 0 0.00998444 0 0)
(0.157067 -0.00170041 0 0.0136579 0 0)
(0.245347 0.00221398 0 0.0140961 0 0)
(0.177806 -0.00339912 0 0.0203167 0 0)
(0.292853 -0.00138875 0 0.0215036 0 0)
(0.197054 -0.00248209 0 0.0304504 0 0)
(0.0285932 0.000423501 0 0.00233991 0 0)
(0.0426373 0.000214484 0 0.00587405 0 0)
(0.0376029 0.00371761 0 0.00662855 0 0)
(0.038447 0.00214673 0 0.00618269 0 0)
(0.0421142 0.00268454 0 0.00580226 0 0)
(0.0326335 0.00200937 0 0.00653079 0 0)
(0.0494447 0.00357827 0 0.00676055 0 0)
(0.0332443 0.00203055 0 0.00745196 0 0)
(0.0523124 0.00400454 0 0.00744939 0 0)
(0.0396451 0.00336138 0 0.00995687 0 0)
(0.0535642 0.0043873 0 0.0103204 0 0)
(0.0409084 0.00313187 0 0.0115216 0 0)
(0.0585786 0.00260809 0 0.0109749 0 0)
(0.053048 0.00199146 0 0.0146494 0 0)
(0.0671725 0.00217993 0 0.0145226 0 0)
(0.0642824 9.07784e-05 0 0.0188653 0 0)
(0.0714286 -0.000947527 0 0.0191358 0 0)
(0.0857108 -0.00283427 0 0.024515 0 0)
(0.0851641 -0.00498949 0 0.0223014 0 0)
(0.099768 -0.00782986 0 0.0304108 0 0)
(0.0307498 0.000605118 0 0.0024375 0 0)
(0.0387536 0.00204754 0 0.00593839 0 0)
(0.034934 0.00222358 0 0.00658662 0 0)
(0.0394756 0.00253945 0 0.00483741 0 0)
(0.0353357 0.0021335 0 0.00480639 0 0)
(0.0449671 0.00175924 0 0.00523586 0 0)
(0.039813 0.00190687 0 0.00602296 0 0)
(0.0475312 0.00185408 0 0.00538956 0 0)
(0.0420839 0.00167157 0 0.0061578 0 0)
(0.0577436 0.0041485 0 0.00672212 0 0)
(0.0417721 0.00185325 0 0.00686261 0 0)
(0.0797064 0.00386149 0 0.00672912 0 0)
(0.0394793 0.00150728 0 0.00815276 0 0)
(0.0950186 0.00330499 0 0.00879749 0 0)
(0.0462516 0.00545047 0 0.00976324 0 0)
(0.114232 0.00694051 0 0.009157 0 0)
(0.0556562 0.00490552 0 0.0111421 0 0)
(0.132841 0.00691877 0 0.0114453 0 0)
(0.0711638 0.00293591 0 0.0123668 0 0)
(0.142081 0.00671057 0 0.0173454 0 0)
(0.0128897 8.2475e-06 0 0.00294413 0 0)
(0.0320052 0.00145928 0 0.00602211 0 0)
(0.0183187 0.00219302 0 0.00712803 0 0)
(0.029438 0.00271941 0 0.00600678 0 0)
(0.0182106 0.00180301 0 0.0066234 0 0)
(0.0277475 0.00168355 0 0.00712233 0 0)
(0.0194767 0.000491491 0 0.00744426 0 0)
(0.0310574 0.00321607 0 0.00795286 0 0)
(0.0205088 -0.000244822 0 0.00946212 0 0)
(0.0309444 0.00520264 0 0.00992519 0 0)
(0.0223477 -0.000414282 0 0.0103939 0 0)
(0.0353729 0.00567668 0 0.0110628 0 0)
(0.0243811 -0.0010619 0 0.0132505 0 0)
(0.0284933 0.00475192 0 0.0139461 0 0)
(0.0261071 0.00206988 0 0.0145802 0 0)
(0.034861 0.00632792 0 0.0169395 0 0)
(0.0279773 0.00200102 0 0.0168399 0 0)
(0.0292099 0.0057027 0 0.0204837 0 0)
(0.0340702 0.00168635 0 0.014125 0 0)
(0.0283454 0.00144563 0 0.025538 0 0)
(0.00911129 0.00095668 0 0.00220496 0 0)
(0.0340527 0.000705198 0 0.0041288 0 0)
(0.011678 0.00263825 0 0.00617272 0 0)
(0.0294613 0.00203563 0 0.00485972 0 0)
(0.00995087 0.00250411 0 0.00527027 0 0)
(0.0290841 0.00136049 0 0.00426007 0 0)
(0.0110639 0.00193798 0 0.00620178 0 0)
(0.0323759 0.00261594 0 0.00554252 0 0)
(0.0131617 0.00200371 0 0.00660021 0 0)
(0.0321601 0.00289901 0 0.00653352 0 0)
(0.0152144 0.00148633 0 0.00830305 0 0)
(0.0334306 0.00238254 0 0.00763806 0 0)
(0.0202751 0.00177823 0 0.00902192 0 0)
(0.0358084 0.00258466 0 0.0105657 0 0)
(0.0266479 0.00247847 0 0.0104998 0 0)
(0.0347052 0.00435003 0 0.0111378 0 0)
(0.0364365 0.00404989 0 0.0101602 0 0)
(0.0327432 0.00521108 0 0.0135298 0 0)
(0.0422544 0.00397189 0 0.0086987 0 0)
(0.0293146 0.00156561 0 0.0196403 0 0)
(0.0144506 0.000920222 0 0.00404424 0 0)
(0.0243675 0.00348961 0 0.00945251 0 0)
(0.0178571 0.00553684 0 0.0129463 0 0)
(0.0262546 0.00363492 0 0.0105709 0 0)
(0.0142457 0.0035532 0 0.00906206 0 0)
(0.0261165 0.00385626 0 0.00928807 0 0)
(0.0173028 0.00389568 0 0.0123798 0 0)
(0.0248395 0.00536137 0 0.0119896 0 0)
(0.0182303 0.00264366 0 0.0127456 0 0)
(0.0251951 0.00691303 0 0.013053 0 0)
(0.0190253 0.00260879 0 0.0149533 0 0)
(0.028663 0.00625507 0 0.0149577 0 0)
(0.0190475 0.00277978 0 0.01676 0 0)
(0.0309623 0.00572163 0 0.0197735 0 0)
(0.0220857 0.00276013 0 0.0193355 0 0)
(0.0389335 0.00801117 0 0.022994 0 0)
(0.029636 0.00239163 0 0.0208753 0 0)
(0.0456598 0.00923778 0 0.031007 0 0)
(0.045031 0.00142801 0 0.0191224 0 0)
(0.0493141 0.0102438 0 0.0395669 0 0)
(0.0173413 0.00108386 0 0.00357604 0 0)
(0.0258251 0.0021416 0 0.00843378 0 0)
(0.019145 0.00489104 0 0.0113685 0 0)
(0.0312142 0.00434892 0 0.0100747 0 0)
(0.0179075 0.00334124 0 0.00807757 0 0)
(0.0342893 0.00263325 0 0.00762802 0 0)
(0.0178385 0.00146719 0 0.011102 0 0)
(0.0283272 0.00412401 0 0.0115085 0 0)
(0.0171237 0.00208174 0 0.0126636 0 0)
(0.0275123 0.0048102 0 0.0113385 0 0)
(0.0192877 0.00145978 0 0.0140643 0 0)
(0.0243674 0.00503723 0 0.0135924 0 0)
(0.0228833 0.00173508 0 0.0156868 0 0)
(0.0243072 0.00357185 0 0.0173203 0 0)
(0.0238737 0.00201777 0 0.0174585 0 0)
(0.0283912 0.0030927 0 0.0212726 0 0)
(0.0258307 0.00341802 0 0.0192775 0 0)
(0.033695 0.00257153 0 0.0291096 0 0)
(0.0315102 0.00456558 0 0.0189582 0 0)
(0.0425387 -0.00296753 0 0.0403524 0 0)
(0.0261243 0.00253348 0 0.00406244 0 0)
(0.0134648 0.00433012 0 0.00985676 0 0)
(0.0247884 0.00685331 0 0.0129159 0 0)
(0.0147007 0.00567932 0 0.0120149 0 0)
(0.0204662 0.00589415 0 0.0108451 0 0)
(0.0153634 0.00324939 0 0.0109438 0 0)
(0.0204639 0.00360296 0 0.0137139 0 0)
(0.0198545 0.00554698 0 0.0124288 0 0)
(0.0207039 0.00562755 0 0.0135368 0 0)
(0.0200978 0.00690546 0 0.014759 0 0)
(0.0203884 0.00387449 0 0.017819 0 0)
(0.0236076 0.00487234 0 0.0178461 0 0)
(0.0204174 0.00443103 0 0.018803 0 0)
(0.024829 0.00556491 0 0.023202 0 0)
(0.0210104 0.00351552 0 0.0217964 0 0)
(0.0265047 0.00749363 0 0.0274812 0 0)
(0.0265559 0.00646309 0 0.0210698 0 0)
(0.0286429 0.00689006 0 0.0394114 0 0)
(0.0371741 0.00658125 0 0.0215313 0 0)
(0.0345086 0.00488258 0 0.0563689 0 0)
(0.0290116 0.00201064 0 0.00358623 0 0)
(0.0140378 0.00306966 0 0.0076326 0 0)
(0.0280566 0.0056488 0 0.00948329 0 0)
(0.013201 0.0041304 0 0.00989473 0 0)
(0.0203412 0.00430094 0 0.00911674 0 0)
(0.0162949 0.00326318 0 0.00847209 0 0)
(0.0174664 0.0048859 0 0.00994443 0 0)
(0.0204074 0.00541436 0 0.00951856 0 0)
(0.0158299 0.00410192 0 0.0112242 0 0)
(0.023142 0.00523059 0 0.0108509 0 0)
(0.0178848 0.00343195 0 0.0133828 0 0)
(0.0251218 0.00460841 0 0.0129583 0 0)
(0.0177109 0.00273223 0 0.0144258 0 0)
(0.0282031 0.00368646 0 0.0174902 0 0)
(0.0190773 0.00434797 0 0.017258 0 0)
(0.0286031 0.00524132 0 0.0235444 0 0)
(0.0213194 0.00487982 0 0.0193704 0 0)
(0.0323629 0.00413557 0 0.036319 0 0)
(0.0288789 0.00802305 0 0.0206065 0 0)
(0.0365059 -0.00203745 0 0.0595101 0 0)
(0.0396944 0.00436707 0 0.00327827 0 0)
(0.0172925 0.00354223 0 0.00646673 0 0)
(0.0411565 0.00728812 0 0.00896029 0 0)
(0.0170483 0.00391 0 0.00902641 0 0)
(0.0378841 0.00716517 0 0.00914153 0 0)
(0.0200885 0.00400994 0 0.00798966 0 0)
(0.0353746 0.0073132 0 0.0109779 0 0)
(0.0245925 0.00389497 0 0.0101609 0 0)
(0.0349299 0.0063037 0 0.0125135 0 0)
(0.0279783 0.0046517 0 0.0118978 0 0)
(0.0381123 0.00546213 0 0.0150226 0 0)
(0.0299117 0.00426301 0 0.0148737 0 0)
(0.0335443 0.00424494 0 0.016787 0 0)
(0.0306597 0.0054496 0 0.0182319 0 0)
(0.0320097 0.00458132 0 0.0195881 0 0)
(0.0254216 0.00856044 0 0.0245271 0 0)
(0.0316372 0.00571112 0 0.0201795 0 0)
(0.0206992 0.00793852 0 0.0365339 0 0)
(0.0385868 0.00732318 0 0.0210087 0 0)
(0.0209168 0.000129075 0 0.0636781 0 0)
(0.0433829 0.00251381 0 0.00344242 0 0)
(0.0110705 0.00329284 0 0.00737872 0 0)
(0.0532218 0.00648943 0 0.00830051 0 0)
(0.0116729 0.00320798 0 0.00958517 0 0)
(0.0520867 0.00361084 0 0.00819151 0 0)
(0.0178201 0.00299928 0 0.00845432 0 0)
(0.046687 0.00386025 0 0.00990629 0 0)
(0.0233341 0.00080764 0 0.0104712 0 0)
(0.0416641 0.00214239 0 0.0107513 0 0)
(0.0331727 0.00159447 0 0.0109029 0 0)
(0.044495 0.00396619 0 0.0117454 0 0)
(0.0400323 0.00176421 0 0.0129169 0 0)
(0.0443506 0.0032843 0 0.0109725 0 0)
(0.0470646 0.00242761 0 0.0142115 0 0)
(0.0407497 0.00443904 0 0.0118327 0 0)
(0.047621 0.00232148 0 0.0189058 0 0)
(0.0374215 0.00595697 0 0.0127272 0 0)
(0.0479382 0.000316787 0 0.029978 0 0)
(0.032596 0.00955991 0 0.0158824 0 0)
(0.0458916 -7.81684e-05 0 0.0561229 0 0)
(0.0225813 0.00497276 0 0.00373384 0 0)
(0.0247927 0.00241503 0 0.00594909 0 0)
(0.0341901 0.00811586 0 0.00860208 0 0)
(0.0213164 0.00309189 0 0.00811964 0 0)
(0.0396178 0.00770699 0 0.00923722 0 0)
(0.017677 0.00276485 0 0.00840722 0 0)
(0.0400467 0.00770676 0 0.011416 0 0)
(0.0197179 0.00257697 0 0.0102052 0 0)
(0.0434837 0.00677564 0 0.0131505 0 0)
(0.0226362 0.00490336 0 0.0120425 0 0)
(0.0492158 0.00796879 0 0.0152708 0 0)
(0.031412 0.00742586 0 0.0138449 0 0)
(0.0567272 0.00905587 0 0.0147962 0 0)
(0.0398189 0.00900322 0 0.0165926 0 0)
(0.0634238 0.0104515 0 0.0163435 0 0)
(0.0507648 0.00997377 0 0.0192745 0 0)
(0.0802684 0.0123139 0 0.0145551 0 0)
(0.0586289 0.0082722 0 0.0268507 0 0)
(0.109798 0.0121472 0 0.0142501 0 0)
(0.0637497 -0.0112293 0 0.0623007 0 0)
(0.0232344 0.0035827 0 0.00314813 0 0)
(0.0322216 0.00320922 0 0.00493228 0 0)
(0.0246346 0.00622007 0 0.00772002 0 0)
(0.0337695 0.00415573 0 0.00742832 0 0)
(0.0254525 0.00646359 0 0.00870245 0 0)
(0.0301158 0.00216656 0 0.00807744 0 0)
(0.0282259 0.0073354 0 0.00854087 0 0)
(0.0329404 0.00216769 0 0.00754149 0 0)
(0.0330986 0.00501058 0 0.00913882 0 0)
(0.0372635 0.0021108 0 0.00982763 0 0)
(0.0387095 0.00234643 0 0.0123951 0 0)
(0.0378306 0.00541693 0 0.0110604 0 0)
(0.0501819 -0.00163211 0 0.0126811 0 0)
(0.0378624 0.0060434 0 0.0128029 0 0)
(0.0643157 -0.00273789 0 0.013547 0 0)
(0.036542 0.00641797 0 0.0147268 0 0)
(0.0787917 -0.00374113 0 0.0141664 0 0)
(0.0421452 0.00615671 0 0.0223108 0 0)
(0.122532 0.00113116 0 0.0145452 0 0)
(0.0455949 -0.00169697 0 0.0538592 0 0)
(0.0312038 0.0058523 0 0.00367221 0 0)
(0.0255871 0.00198187 0 0.0058074 0 0)
(0.0328914 0.00826812 0 0.00969487 0 0)
(0.0309678 0.0025305 0 0.00815192 0 0)
(0.0335857 0.00968799 0 0.0112972 0 0)
(0.0289586 0.00107162 0 0.00798071 0 0)
(0.0320257 0.00957483 0 0.0132722 0 0)
(0.0329799 0.000685646 0 0.00997396 0 0)
(0.0347088 0.00637174 0 0.0163147 0 0)
(0.0391243 0.000926065 0 0.0146983 0 0)
(0.0372532 0.00598853 0 0.0193517 0 0)
(0.0403458 0.00490386 0 0.0161184 0 0)
(0.0421536 0.00595377 0 0.0199661 0 0)
(0.0387891 0.00549115 0 0.0192559 0 0)
(0.0414986 0.0058314 0 0.0247313 0 0)
(0.0354776 0.00459279 0 0.0228703 0 0)
(0.0406548 0.00138148 0 0.0284965 0 0)
(0.036627 0.00542009 0 0.0345323 0 0)
(0.0532999 0.00579428 0 0.0280284 0 0)
(0.0401431 0.00288497 0 0.0616459 0 0)
(0.0336576 0.00360764 0 0.00278048 0 0)
(0.0330371 0.00360767 0 0.00467428 0 0)
(0.0364092 0.00614882 0 0.00740048 0 0)
(0.0350376 0.00451472 0 0.0072985 0 0)
(0.0362233 0.00716803 0 0.00907055 0 0)
(0.0331108 0.00179043 0 0.0103367 0 0)
(0.0397313 0.00677801 0 0.0102571 0 0)
(0.0365965 -0.00104904 0 0.0116734 0 0)
(0.0394318 0.00518663 0 0.0122187 0 0)
(0.0413022 0.000870319 0 0.0149938 0 0)
(0.0382427 0.00448547 0 0.0159407 0 0)
(0.0416026 0.00525551 0 0.0148287 0 0)
(0.0393731 -0.00113599 0 0.0170642 0 0)
(0.0424851 0.00562973 0 0.0177228 0 0)
(0.0449107 -0.00448444 0 0.0184781 0 0)
(0.0444029 0.00137664 0 0.0178087 0 0)
(0.0547922 -0.0105463 0 0.0221469 0 0)
(0.05445 -0.000914675 0 0.0213793 0 0)
(0.0648405 -0.00883586 0 0.0229941 0 0)
(0.0645791 0.00242198 0 0.0354704 0 0)
(0.0326984 0.00585267 0 0.00360006 0 0)
(0.0227032 0.00259344 0 0.00542576 0 0)
(0.0348452 0.00975866 0 0.00896413 0 0)
(0.0243006 0.00442517 0 0.00790252 0 0)
(0.0335584 0.0099905 0 0.0141375 0 0)
(0.025745 0.000335823 0 0.0111508 0 0)
(0.0317416 0.00904507 0 0.0189116 0 0)
(0.0248061 -0.000112296 0 0.0130403 0 0)
(0.0309224 0.00841039 0 0.0206956 0 0)
(0.0280434 0.00439133 0 0.0186326 0 0)
(0.0332059 0.00936978 0 0.0223786 0 0)
(0.0269731 0.00481619 0 0.0227075 0 0)
(0.0363579 0.00451282 0 0.0283772 0 0)
(0.0340866 0.00213068 0 0.025131 0 0)
(0.0379619 -0.000275212 0 0.037594 0 0)
(0.0443908 -0.00324161 0 0.0295909 0 0)
(0.0476666 -0.0171096 0 0.0616453 0 0)
(0.0597249 -0.0040179 0 0.0563302 0 0)
(0.0605866 -0.0275775 0 0.0797512 0 0)
(0.0515977 0.00456445 0 0.167791 0 0)
(0.0324024 0.00141709 0 0.00196736 0 0)
(0.0212911 0.00316671 0 0.00418264 0 0)
(0.0364602 0.00434651 0 0.00515935 0 0)
(0.0217591 0.00587452 0 0.00935576 0 0)
(0.0360108 0.00419392 0 0.0109411 0 0)
(0.0203802 0.00429547 0 0.0153818 0 0)
(0.0315576 0.00425477 0 0.0119148 0 0)
(0.0184208 0.0046333 0 0.0152863 0 0)
(0.0330337 0.00475223 0 0.0135648 0 0)
(0.0195961 0.00431587 0 0.0200868 0 0)
(0.0390355 0.00446367 0 0.0168401 0 0)
(0.0237085 0.00171094 0 0.0210241 0 0)
(0.0457107 0.00437014 0 0.0181582 0 0)
(0.040447 0.00826337 0 0.0254069 0 0)
(0.0421505 0.00316603 0 0.0170846 0 0)
(0.0371351 0.00577037 0 0.0262488 0 0)
(0.0618858 0.000818688 0 0.0244089 0 0)
(0.0604936 0.0132858 0 0.0230074 0 0)
(0.0781383 -0.0180408 0 0.0318581 0 0)
(0.0499798 0.00691114 0 0.025049 0 0)
(0.0303601 0.00590435 0 0.00265973 0 0)
(0.0256828 0.00359718 0 0.00458238 0 0)
(0.0371112 0.00998748 0 0.00667926 0 0)
(0.026626 0.00749264 0 0.0107216 0 0)
(0.0350452 0.0139638 0 0.0135503 0 0)
(0.0283685 0.0128852 0 0.0137409 0 0)
(0.0419847 0.018494 0 0.0149831 0 0)
(0.0346242 0.00830546 0 0.0160199 0 0)
(0.0451262 0.0161288 0 0.0183702 0 0)
(0.042294 4.92028e-05 0 0.0224601 0 0)
(0.0479063 0.0110999 0 0.0211948 0 0)
(0.0496512 0.000147007 0 0.022648 0 0)
(0.0607235 0.0110304 0 0.0254634 0 0)
(0.0495258 0.00308625 0 0.0246923 0 0)
(0.0599217 0.00969895 0 0.0297603 0 0)
(0.0582928 -0.00514711 0 0.0312546 0 0)
(0.065912 0.00631833 0 0.0437887 0 0)
(0.0404898 0.00732382 0 0.0583548 0 0)
(0.0566064 -0.0235241 0 0.0806652 0 0)
(0.114028 -0.0784017 0 0.378847 0 0)
(0.0210976 -0.000406457 0 0.00106465 0 0)
(0.0293299 0.00303564 0 0.00223718 0 0)
(0.0263565 0.00214289 0 0.00366227 0 0)
(0.0344684 0.0106031 0 0.00955271 0 0)
(0.0520411 0.0129617 0 0.00827515 0 0)
(0.104256 0.0197873 0 0.0115098 0 0)
(0.135291 0.0151096 0 0.0107502 0 0)
(0.151557 0.0152326 0 0.0151361 0 0)
(0.189312 0.00675459 0 0.0130769 0 0)
(0.17952 0.00734782 0 0.0174026 0 0)
(0.174418 -0.0023123 0 0.0118535 0 0)
(0.186949 0.00241065 0 0.0196882 0 0)
(0.139943 -0.00724795 0 0.0157401 0 0)
(0.130925 0.013715 0 0.0264216 0 0)
(0.180183 -0.0172769 0 0.0160272 0 0)
(0.0966441 -0.000553365 0 0.0442147 0 0)
(0.1891 -0.0352 0 0.0313572 0 0)
(0.0733099 -0.0151115 0 0.0572054 0 0)
(0.079817 -0.00507058 0 0.0139515 0 0)
(0.209324 0.015583 0 0.0234396 0 0)
(0.0248287 0.00231199 0 0.00123316 0 0)
(0.029441 -0.00041966 0 0.00191798 0 0)
(0.0367656 0.00548903 0 0.00311875 0 0)
(0.0797805 0.0028409 0 0.00300242 0 0)
(0.141805 0.000983639 0 0.00426047 0 0)
(0.186971 0.000634477 0 0.00595549 0 0)
(0.310667 0.00744094 0 0.00511586 0 0)
(0.332979 -0.00788448 0 0.00614631 0 0)
(0.447677 0.00723836 0 0.00698546 0 0)
(0.448359 -0.0184435 0 0.00796558 0 0)
(0.482037 -0.00355166 0 0.00914066 0 0)
(0.480257 -0.0231105 0 0.00942573 0 0)
(0.486843 0.00210544 0 0.0102558 0 0)
(0.493338 -0.0375574 0 0.0110746 0 0)
(0.573507 0.0240867 0 0.0164795 0 0)
(0.554532 -0.0602531 0 0.0152865 0 0)
(0.651647 0.0705917 0 0.0279041 0 0)
(0.511104 -0.0794245 0 0.0290574 0 0)
(0.697179 -0.0552858 0 0.0214936 0 0)
(0.252338 -0.189176 0 0.347428 0 0)
(0.378456 0.00587724 0 0.0334535 0 0)
(0.21839 0.00351003 0 0.0432871 0 0)
(0.417662 0.000354439 0 0.0348629 0 0)
(0.202317 -0.00509481 0 0.0303983 0 0)
(0.566941 -0.0206562 0 0.0319866 0 0)
(0.280523 -0.005687 0 0.043296 0 0)
(0.741404 -0.0193671 0 0.0442323 0 0)
(0.35773 -0.00568684 0 0.0428731 0 0)
(0.111297 0.00208252 0 0.0285843 0 0)
(0.116476 -0.00268108 0 0.0352982 0 0)
(0.151475 -0.00287133 0 0.0287683 0 0)
(0.157643 -0.0193159 0 0.036713 0 0)
(0.200322 -0.0225088 0 0.0376388 0 0)
(0.229562 -0.0330708 0 0.048668 0 0)
(0.306128 -0.0242339 0 0.0409763 0 0)
(0.308635 -0.0278664 0 0.0556022 0 0)
(0.0920732 0.00125782 0 0.0192779 0 0)
(0.14911 -0.00357968 0 0.0272091 0 0)
(0.127241 -0.0126787 0 0.0231563 0 0)
(0.14351 -0.0126076 0 0.0253596 0 0)
(0.163368 -0.0186821 0 0.0278153 0 0)
(0.192773 -0.0168553 0 0.0295486 0 0)
(0.240873 -0.0341953 0 0.036563 0 0)
(0.296843 -0.0279168 0 0.0302269 0 0)
(0.049797 0.00149316 0 0.0177534 0 0)
(0.0570802 -0.00157947 0 0.0356577 0 0)
(0.0741784 -0.00667724 0 0.020733 0 0)
(0.0977305 -0.0169707 0 0.0357014 0 0)
(0.127853 -0.0220114 0 0.0308478 0 0)
(0.187007 -0.0308187 0 0.0373937 0 0)
(0.246802 -0.044606 0 0.0340844 0 0)
(0.272315 -0.0550149 0 0.0425925 0 0)
(0.0491655 -0.000700727 0 0.00966638 0 0)
(0.0435796 -0.00858997 0 0.0340754 0 0)
(0.0708917 -0.00968581 0 0.0176243 0 0)
(0.0924007 -0.0394816 0 0.039597 0 0)
(0.0903504 -0.0294023 0 0.029328 0 0)
(0.212353 -0.0676066 0 0.0406372 0 0)
(0.169489 -0.060416 0 0.0420589 0 0)
(0.326906 -0.0881348 0 0.046101 0 0)
(0.0714098 -0.00758054 0 0.0168765 0 0)
(0.0535241 0.00340287 0 0.0482853 0 0)
(0.11346 -0.0285012 0 0.0212941 0 0)
(0.0687747 -0.0292709 0 0.053425 0 0)
(0.141138 -0.0558357 0 0.0387364 0 0)
(0.172144 -0.0790404 0 0.0584835 0 0)
(0.182578 -0.0715711 0 0.0449794 0 0)
(0.382779 -0.133577 0 0.0652923 0 0)
(0.0450204 -0.00207117 0 0.0160766 0 0)
(0.0428568 -0.00722211 0 0.0577905 0 0)
(0.0796195 -0.025566 0 0.0240438 0 0)
(0.0569126 -0.0346525 0 0.0668043 0 0)
(0.151265 -0.0768065 0 0.0581268 0 0)
(0.109985 -0.0618406 0 0.0604363 0 0)
(0.28512 -0.133509 0 0.0812097 0 0)
(0.380169 -0.158849 0 0.0893154 0 0)
(0.052093 0.00239603 0 0.016232 0 0)
(0.0419787 -0.0034859 0 0.0814483 0 0)
(0.0831826 -0.0249495 0 0.0223953 0 0)
(0.0559247 -0.0460347 0 0.094878 0 0)
(0.1123 -0.0563818 0 0.0491626 0 0)
(0.208476 -0.128976 0 0.111837 0 0)
(0.394565 -0.198418 0 0.119773 0 0)
(0.486918 -0.229043 0 0.131291 0 0)
(0.0475867 0.00624303 0 0.0193847 0 0)
(0.0493503 -0.0163189 0 0.100275 0 0)
(0.124056 -0.0410455 0 0.0340715 0 0)
(0.0541869 -0.0186997 0 0.0949827 0 0)
(0.231552 -0.124817 0 0.0908856 0 0)
(0.292033 -0.205677 0 0.176921 0 0)
(0.442003 -0.249494 0 0.164279 0 0)
(0.528706 -0.273222 0 0.170137 0 0)
(0.0480822 0.00936032 0 0.0217333 0 0)
(0.0372245 -0.0305937 0 0.137915 0 0)
(0.0688555 -2.47152e-05 0 0.0184435 0 0)
(0.104838 -0.0899942 0 0.210543 0 0)
(0.370901 -0.231742 0 0.172121 0 0)
(0.273661 -0.225698 0 0.228988 0 0)
(0.471072 -0.274772 0 0.190123 0 0)
(0.560114 -0.314768 0 0.210988 0 0)
(0.0464176 0.0048677 0 0.0333673 0 0)
(0.0392929 -0.00339935 0 0.116249 0 0)
(0.130819 -0.0194137 0 0.0395027 0 0)
(0.181046 -0.201532 0 0.328872 0 0)
(0.399515 -0.242662 0 0.188704 0 0)
(0.244189 -0.22572 0 0.254896 0 0)
(0.558131 -0.335112 0 0.242114 0 0)
(0.571885 -0.338223 0 0.240651 0 0)
(0.103716 0.0167071 0 0.0214908 0 0)
(0.0701691 -0.031644 0 0.155683 0 0)
(0.128729 -0.0843958 0 0.12294 0 0)
(0.191599 -0.250599 0 0.430014 0 0)
(0.356881 -0.234359 0 0.202879 0 0)
(0.270386 -0.285568 0 0.362932 0 0)
(0.620755 -0.38216 0 0.284789 0 0)
(0.417643 -0.279656 0 0.235481 0 0)
(0.29811 0.0493129 0 0.0255387 0 0)
(0.0678017 -0.065121 0 0.235849 0 0)
(0.136322 -0.128131 0 0.224202 0 0)
(0.203669 -0.27273 0 0.478395 0 0)
(0.357765 -0.246144 0 0.236948 0 0)
(0.309997 -0.33219 0 0.434914 0 0)
(0.550694 -0.321889 0 0.251078 0 0)
(0.325886 -0.231501 0 0.226409 0 0)
(0.149383 0.0296925 0 0.0319651 0 0)
(0.105784 -0.126174 0 0.32809 0 0)
(0.168887 -0.188538 0 0.315027 0 0)
(0.192496 -0.271364 0 0.503703 0 0)
(0.324998 -0.245812 0 0.263447 0 0)
(0.263717 -0.333822 0 0.506799 0 0)
(0.497805 -0.284221 0 0.234603 0 0)
(0.305675 -0.266016 0 0.299265 0 0)
(0.150732 0.0799201 0 0.0957741 0 0)
(0.164161 -0.220165 0 0.477098 0 0)
(0.160741 -0.193411 0 0.406123 0 0)
(0.169506 -0.253494 0 0.501777 0 0)
(0.305691 -0.243431 0 0.30397 0 0)
(0.262793 -0.344196 0 0.543675 0 0)
(0.427876 -0.230003 0 0.211258 0 0)
(0.327848 -0.307846 0 0.382811 0 0)
(0.0753959 0.0402852 0 0.105565 0 0)
(0.188637 -0.254097 0 0.510726 0 0)
(0.166441 -0.191397 0 0.425881 0 0)
(0.170509 -0.25287 0 0.501347 0 0)
(0.302804 -0.248248 0 0.339419 0 0)
(0.204846 -0.303455 0 0.547815 0 0)
(0.373606 -0.200307 0 0.209591 0 0)
(0.466575 -0.474948 0 0.596142 0 0)
(0.0669929 0.0339366 0 0.387343 0 0)
(0.189913 -0.297762 0 0.653849 0 0)
(0.136989 -0.184974 0 0.511771 0 0)
(0.167966 -0.241945 0 0.513501 0 0)
(0.249915 -0.22635 0 0.374874 0 0)
(0.195706 -0.281031 0 0.557113 0 0)
(0.434484 -0.262598 0 0.29678 0 0)
(0.525549 -0.569813 0 0.772182 0 0)
(0.0732459 -0.0815623 0 0.4403 0 0)
(0.173214 -0.246315 0 0.562321 0 0)
(0.113749 -0.163556 0 0.487439 0 0)
(0.16954 -0.23618 0 0.501359 0 0)
(0.216194 -0.224239 0 0.4152 0 0)
(0.212567 -0.285893 0 0.573003 0 0)
(0.404267 -0.28616 0 0.374304 0 0)
(0.535355 -0.646696 0 0.974939 0 0)
(0.100855 -0.149353 0 1.09207 0 0)
(0.128903 -0.2373 0 0.728514 0 0)
(0.102412 -0.152304 0 0.608305 0 0)
(0.173334 -0.238501 0 0.538226 0 0)
(0.190631 -0.204492 0 0.466186 0 0)
(0.225237 -0.280389 0 0.585548 0 0)
(0.449219 -0.345102 0 0.499182 0 0)
(0.47722 -0.642299 0 1.10441 0 0)
(0.132402 -0.199565 0 0.970972 0 0)
(0.12284 -0.194768 0 0.54421 0 0)
(0.108527 -0.150852 0 0.539024 0 0)
(0.176496 -0.250726 0 0.511079 0 0)
(0.212921 -0.231974 0 0.494436 0 0)
(0.282874 -0.339956 0 0.609629 0 0)
(0.403642 -0.37292 0 0.584183 0 0)
(0.461252 -0.584444 0 1.03646 0 0)
(0.954023 -0.0187298 0 0.0372891 0 0)
(0.46607 -0.00839146 0 0.0377894 0 0)
(1.13535 -0.0298738 0 0.0291266 0 0)
(0.581447 -0.0202351 0 0.0251668 0 0)
(1.2393 -0.0460366 0 0.0153535 0 0)
(0.720808 -0.0268001 0 0.0136556 0 0)
(1.40808 -0.0414589 0 0.0133899 0 0)
(0.897933 -0.0315745 0 0.0122506 0 0)
(1.47063 -0.0395184 0 0.0084466 0 0)
(1.12036 -0.0309742 0 0.0107331 0 0)
(1.49366 -0.0340396 0 0.00733256 0 0)
(1.31056 -0.0299006 0 0.00915108 0 0)
(1.45618 -0.0235533 0 0.00692068 0 0)
(1.43043 -0.0301101 0 0.00886747 0 0)
(1.34377 -0.0108142 0 0.00670533 0 0)
(1.45686 -0.0278558 0 0.0095633 0 0)
(1.16414 0.00082035 0 0.0074649 0 0)
(1.37957 -0.0260495 0 0.0102873 0 0)
(0.931489 0.00815881 0 0.0106256 0 0)
(1.22156 -0.0223655 0 0.0118177 0 0)
(0.710181 0.00863515 0 0.0152089 0 0)
(1.00403 -0.0216873 0 0.0146254 0 0)
(0.560665 0.00781951 0 0.0221815 0 0)
(0.797794 -0.0234365 0 0.0200886 0 0)
(0.488679 -0.000588804 0 0.0314617 0 0)
(0.633555 -0.0269441 0 0.0291073 0 0)
(0.512668 -0.0521931 0 0.0524105 0 0)
(0.515525 -0.0169553 0 0.0325425 0 0)
(0.429633 -0.0182207 0 0.0456056 0 0)
(0.428973 -0.0285972 0 0.0551351 0 0)
(0.587673 -0.0227707 0 0.0510956 0 0)
(0.580316 -0.0332729 0 0.0498604 0 0)
(0.774364 -0.0248031 0 0.037655 0 0)
(0.775692 -0.0305851 0 0.0359978 0 0)
(0.966328 -0.0228403 0 0.0276472 0 0)
(0.97534 -0.0273118 0 0.0201327 0 0)
(1.16773 -0.0180306 0 0.0204099 0 0)
(1.15883 -0.0139774 0 0.0163793 0 0)
(1.3205 -0.0056017 0 0.017233 0 0)
(1.29056 0.00328683 0 0.0149942 0 0)
(1.37958 0.0112372 0 0.0166228 0 0)
(1.34063 0.0245301 0 0.0146225 0 0)
(1.32263 0.0293768 0 0.0161428 0 0)
(1.29724 0.0427343 0 0.0158906 0 0)
(1.16706 0.0428955 0 0.0170107 0 0)
(1.16265 0.0567052 0 0.0179036 0 0)
(0.945418 0.0468708 0 0.0179117 0 0)
(0.961514 0.0624537 0 0.0214852 0 0)
(0.706934 0.0420372 0 0.018861 0 0)
(0.743631 0.0558051 0 0.0245447 0 0)
(0.494904 0.0332836 0 0.0212726 0 0)
(0.548109 0.0442959 0 0.0315749 0 0)
(0.363545 0.0243192 0 0.0293927 0 0)
(0.388479 0.0310578 0 0.0396283 0 0)
(0.334258 -0.00523671 0 0.0509442 0 0)
(0.318821 -0.000139583 0 0.0710793 0 0)
(0.358321 -0.0539333 0 0.0359923 0 0)
(0.429699 -0.0441023 0 0.0336241 0 0)
(0.543502 -0.0786775 0 0.0387261 0 0)
(0.597933 -0.0561066 0 0.0425669 0 0)
(0.711651 -0.0773238 0 0.0352995 0 0)
(0.812634 -0.0650913 0 0.0388245 0 0)
(0.883548 -0.0837173 0 0.0386217 0 0)
(1.0362 -0.0678343 0 0.0453107 0 0)
(1.06878 -0.0783035 0 0.0350768 0 0)
(1.24932 -0.0568594 0 0.0428202 0 0)
(1.24139 -0.0584378 0 0.0318183 0 0)
(1.37808 -0.0327662 0 0.0388992 0 0)
(1.35501 -0.0269117 0 0.0272629 0 0)
(1.38725 -0.00257725 0 0.0356608 0 0)
(1.36437 0.0131645 0 0.0233179 0 0)
(1.29942 0.0208724 0 0.0309946 0 0)
(1.2507 0.0507143 0 0.0224965 0 0)
(1.13171 0.0412104 0 0.0265152 0 0)
(1.04351 0.0741107 0 0.0232191 0 0)
(0.912503 0.0501324 0 0.0253395 0 0)
(0.786618 0.0801268 0 0.026598 0 0)
(0.689087 0.0476831 0 0.0244742 0 0)
(0.546003 0.0722679 0 0.0323444 0 0)
(0.49961 0.0382541 0 0.0279581 0 0)
(0.358666 0.0533359 0 0.0453427 0 0)
(0.368657 0.0256323 0 0.0440661 0 0)
(0.27834 0.0207604 0 0.0804501 0 0)
(0.344419 -0.025589 0 0.0996569 0 0)
(0.400504 -0.0630492 0 0.0443354 0 0)
(0.41432 -0.0661058 0 0.0402449 0 0)
(0.599633 -0.0859849 0 0.0378938 0 0)
(0.616128 -0.0761938 0 0.0376465 0 0)
(0.846522 -0.0979551 0 0.039417 0 0)
(0.842402 -0.0830862 0 0.0457546 0 0)
(1.10113 -0.0960499 0 0.0486761 0 0)
(1.09575 -0.0744893 0 0.0499113 0 0)
(1.28764 -0.0791588 0 0.053294 0 0)
(1.34226 -0.0553982 0 0.055994 0 0)
(1.38396 -0.033845 0 0.0530481 0 0)
(1.51061 -0.0136535 0 0.0544918 0 0)
(1.40897 0.0117284 0 0.053845 0 0)
(1.52512 0.0431768 0 0.0542071 0 0)
(1.35761 0.0558079 0 0.0514846 0 0)
(1.41445 0.087733 0 0.0548916 0 0)
(1.21278 0.0930655 0 0.0494211 0 0)
(1.21763 0.115166 0 0.0552562 0 0)
(0.989351 0.113392 0 0.0498678 0 0)
(0.974889 0.121602 0 0.0558511 0 0)
(0.73589 0.109829 0 0.0524424 0 0)
(0.723303 0.10603 0 0.0574684 0 0)
(0.51812 0.0926423 0 0.0562847 0 0)
(0.51041 0.0764274 0 0.0586052 0 0)
(0.363596 0.0664965 0 0.0691014 0 0)
(0.366312 0.0445681 0 0.0711199 0 0)
(0.295139 0.0268027 0 0.112842 0 0)
(0.318619 -0.0134315 0 0.129331 0 0)
(0.361074 -0.0969445 0 0.0495901 0 0)
(0.502338 -0.105793 0 0.0502512 0 0)
(0.620818 -0.128596 0 0.055574 0 0)
(0.728407 -0.122748 0 0.0643946 0 0)
(0.915666 -0.143479 0 0.067176 0 0)
(0.976964 -0.131614 0 0.0785966 0 0)
(1.22788 -0.147442 0 0.0805419 0 0)
(1.19867 -0.123055 0 0.0938429 0 0)
(1.494 -0.1257 0 0.0918134 0 0)
(1.38633 -0.0933243 0 0.101835 0 0)
(1.5863 -0.0613351 0 0.0903578 0 0)
(1.54811 -0.0479231 0 0.100379 0 0)
(1.50561 0.0121601 0 0.0880629 0 0)
(1.58435 0.0167401 0 0.0928792 0 0)
(1.37451 0.0664165 0 0.0810472 0 0)
(1.47778 0.0776384 0 0.0842514 0 0)
(1.20321 0.10683 0 0.0745682 0 0)
(1.27338 0.120551 0 0.0758897 0 0)
(0.984866 0.128341 0 0.0717755 0 0)
(1.00894 0.136632 0 0.073892 0 0)
(0.751169 0.128658 0 0.0726166 0 0)
(0.740774 0.123144 0 0.0717941 0 0)
(0.545317 0.106576 0 0.0803655 0 0)
(0.519859 0.0975224 0 0.0746682 0 0)
(0.416545 0.066949 0 0.0977435 0 0)
(0.361444 0.0658947 0 0.0961993 0 0)
(0.367855 0.00912089 0 0.143763 0 0)
(0.313178 0.0177809 0 0.164031 0 0)
(0.362129 -0.114281 0 0.0580144 0 0)
(0.652427 -0.169262 0 0.0712745 0 0)
(0.678691 -0.160711 0 0.0698241 0 0)
(0.925851 -0.181278 0 0.0804832 0 0)
(1.00198 -0.169986 0 0.0814913 0 0)
(1.17665 -0.178499 0 0.0992595 0 0)
(1.25665 -0.146559 0 0.103426 0 0)
(1.36443 -0.146654 0 0.118947 0 0)
(1.46659 -0.103139 0 0.121332 0 0)
(1.45251 -0.0747282 0 0.130523 0 0)
(1.61197 -0.0335337 0 0.127279 0 0)
(1.47275 0.0075902 0 0.135581 0 0)
(1.5471 0.0581454 0 0.127445 0 0)
(1.448 0.0819029 0 0.130743 0 0)
(1.37614 0.12271 0 0.125139 0 0)
(1.31267 0.14572 0 0.124345 0 0)
(1.19442 0.165543 0 0.118445 0 0)
(1.09882 0.182781 0 0.119495 0 0)
(0.989496 0.187004 0 0.11356 0 0)
(0.844569 0.181124 0 0.118802 0 0)
(0.774444 0.184608 0 0.114004 0 0)
(0.61988 0.147446 0 0.118115 0 0)
(0.573205 0.152662 0 0.119479 0 0)
(0.458867 0.105056 0 0.121859 0 0)
(0.439317 0.0996992 0 0.13474 0 0)
(0.36623 0.0618817 0 0.144165 0 0)
(0.395251 0.0336058 0 0.175485 0 0)
(0.346524 0.0173732 0 0.209539 0 0)
(0.518525 -0.192635 0 0.0949635 0 0)
(0.741426 -0.226963 0 0.106 0 0)
(0.795174 -0.227085 0 0.108387 0 0)
(1.02508 -0.220168 0 0.117625 0 0)
(1.03644 -0.218489 0 0.128851 0 0)
(1.20516 -0.179307 0 0.142952 0 0)
(1.22268 -0.177922 0 0.156411 0 0)
(1.37 -0.133342 0 0.174671 0 0)
(1.3483 -0.10605 0 0.178208 0 0)
(1.46269 -0.0548792 0 0.192885 0 0)
(1.42621 -0.0171512 0 0.184841 0 0)
(1.38809 0.0471491 0 0.195068 0 0)
(1.40728 0.072378 0 0.177609 0 0)
(1.2668 0.112536 0 0.18786 0 0)
(1.25494 0.148373 0 0.166381 0 0)
(1.13004 0.159968 0 0.163021 0 0)
(1.07029 0.192988 0 0.150451 0 0)
(0.93862 0.188856 0 0.145081 0 0)
(0.870569 0.210558 0 0.142509 0 0)
(0.723364 0.180728 0 0.139369 0 0)
(0.66453 0.195352 0 0.142758 0 0)
(0.543149 0.146942 0 0.143404 0 0)
(0.489859 0.147099 0 0.147361 0 0)
(0.419704 0.10072 0 0.154447 0 0)
(0.389983 0.0847981 0 0.165071 0 0)
(0.36638 0.0479606 0 0.18889 0 0)
(0.36328 0.0202592 0 0.203966 0 0)
(0.380447 -0.0110784 0 0.263444 0 0)
(0.682331 -0.261361 0 0.129874 0 0)
(0.787295 -0.273318 0 0.136825 0 0)
(0.864638 -0.24028 0 0.122451 0 0)
(0.985958 -0.233642 0 0.137684 0 0)
(0.993815 -0.189765 0 0.141569 0 0)
(1.12411 -0.171711 0 0.168001 0 0)
(1.15964 -0.145139 0 0.186184 0 0)
(1.28262 -0.0953978 0 0.203299 0 0)
(1.30264 -0.0692008 0 0.216268 0 0)
(1.38329 0.00763216 0 0.22545 0 0)
(1.31019 0.0528588 0 0.225719 0 0)
(1.32522 0.118611 0 0.227818 0 0)
(1.23896 0.152225 0 0.227585 0 0)