/*--------------------------------*- C++ -*----------------------------------*\
| =========                 |                                                 |
| \\      /  F ield         | OpenFOAM: The Open Source CFD Toolbox           |
|  \\    /   O peration     | Version:  2.4.0                                 |
|   \\  /    A nd           | Web:      www.OpenFOAM.org                      |
|    \\/     M anipulation  |                                                 |
\*---------------------------------------------------------------------------*/
FoamFile
{
    version     2.0;
    format      ascii;
    class       volSymmTensorField;
    location    "0.2";
    object      UPrime2Mean;
}
// * * * * * * * * * * * * * * * * * * * * * * * * * * * * * * * * * * * * * //

dimensions      [0 2 -2 0 0 0 0];

internalField   nonuniform List<symmTensor> 
2320
(
(0.00255843 -5.09657e-05 0 3.55048e-06 0 0)
(0.00115735 -7.22969e-05 0 7.24305e-06 0 0)
(0.00161319 -8.76702e-05 0 5.86295e-06 0 0)
(0.0018504 -0.000110496 0 8.96168e-06 0 0)
(0.00218656 -9.29013e-05 0 9.20008e-06 0 0)
(0.0027445 -0.000113567 0 1.13128e-05 0 0)
(0.0029259 -0.000115327 0 1.35571e-05 0 0)
(0.00334903 -0.00017445 0 2.30042e-05 0 0)
(0.0029541 -0.000148497 0 3.19699e-05 0 0)
(0.00344234 -0.00014172 0 7.52114e-05 0 0)
(0.00455857 -1.94528e-06 0 5.88399e-05 0 0)
(0.0057783 -3.98238e-05 0 0.000108708 0 0)
(0.00720354 0.000260408 0 0.000126609 0 0)
(0.00767068 0.000536902 0 0.000501251 0 0)
(0.00933331 0.00185558 0 0.00145803 0 0)
(0.0184167 0.00434707 0 0.00250131 0 0)
(0.0271741 0.00259651 0 0.00280518 0 0)
(0.0463205 0.00210073 0 0.00443271 0 0)
(0.0515525 -0.00254987 0 0.00550477 0 0)
(0.0544262 0.00161849 0 0.00610288 0 0)
(0.00243106 -0.000140245 0 3.17314e-05 0 0)
(0.000955487 -0.000195077 0 6.61982e-05 0 0)
(0.00117934 -0.000253663 0 5.70889e-05 0 0)
(0.00116512 -0.000319775 0 8.99875e-05 0 0)
(0.00112896 -0.00032892 0 9.98267e-05 0 0)
(0.00111033 -0.000371367 0 0.000152702 0 0)
(0.00104158 -0.000407466 0 0.000247225 0 0)
(0.00101767 -0.000227927 0 0.000490123 0 0)
(0.00108604 -0.00012072 0 0.000851391 0 0)
(0.00212788 0.000798024 0 0.00141026 0 0)
(0.00230129 0.000816377 0 0.00169413 0 0)
(0.00550328 0.00196286 0 0.00209119 0 0)
(0.00384156 0.00119023 0 0.00211182 0 0)
(0.00800467 0.00235675 0 0.00273137 0 0)
(0.0046372 0.00148255 0 0.00247393 0 0)
(0.0106474 0.00233599 0 0.00364806 0 0)
(0.00769709 0.000813658 0 0.00360792 0 0)
(0.0155902 0.000568469 0 0.00523171 0 0)
(0.0127558 0.00125309 0 0.00378583 0 0)
(0.0220013 -0.00267157 0 0.00627905 0 0)
(0.00221508 -0.000203456 0 0.00010282 0 0)
(0.000706206 -0.000254695 0 0.000222867 0 0)
(0.000682876 -0.000357295 0 0.000207932 0 0)
(0.000649381 -0.000374257 0 0.000336098 0 0)
(0.000541389 -0.000349271 0 0.000375882 0 0)
(0.000731003 -0.000212144 0 0.000533223 0 0)
(0.000760512 -0.000151255 0 0.000707242 0 0)
(0.0014808 0.00035622 0 0.0010223 0 0)
(0.00139324 0.000548086 0 0.00150155 0 0)
(0.00307296 0.0015156 0 0.00199901 0 0)
(0.00207756 0.00150882 0 0.00260667 0 0)
(0.00446543 0.00245563 0 0.00283914 0 0)
(0.00269045 0.00216523 0 0.0032675 0 0)
(0.00565744 0.00332939 0 0.00376487 0 0)
(0.00446253 0.00282279 0 0.00408435 0 0)
(0.00936778 0.00571283 0 0.00616872 0 0)
(0.00989877 0.00431262 0 0.004316 0 0)
(0.0213373 0.00723472 0 0.008563 0 0)
(0.0163795 0.00380291 0 0.00289603 0 0)
(0.0214097 0.00443187 0 0.0104229 0 0)
(0.00202683 -0.00021231 0 0.00022526 0 0)
(0.000567984 -0.000218946 0 0.000493378 0 0)
(0.000418034 -0.00039087 0 0.000499791 0 0)
(0.000430365 -0.000311146 0 0.000781966 0 0)
(0.000334876 -0.000350958 0 0.000965009 0 0)
(0.000498625 -4.06144e-05 0 0.00129927 0 0)
(0.000454785 -9.44486e-05 0 0.00190432 0 0)
(0.00109493 0.000771372 0 0.00248678 0 0)
(0.00117259 0.000954081 0 0.00380431 0 0)
(0.00354923 0.00273708 0 0.0045665 0 0)
(0.00291839 0.00244936 0 0.00576525 0 0)
(0.00706902 0.00404075 0 0.00635725 0 0)
(0.003813 0.00324172 0 0.00723032 0 0)
(0.00797921 0.00470289 0 0.00852945 0 0)
(0.00506415 0.00409907 0 0.00966493 0 0)
(0.00827972 0.00716935 0 0.015132 0 0)
(0.00788514 0.00744587 0 0.0137257 0 0)
(0.00707566 0.00825374 0 0.0203066 0 0)
(0.0121379 0.00838197 0 0.00993651 0 0)
(0.0034092 0.00467956 0 0.0244605 0 0)
(0.00187454 -0.000100367 0 0.000393891 0 0)
(0.000567582 3.53194e-05 0 0.000846479 0 0)
(0.000203267 -0.000173947 0 0.00085084 0 0)
(0.000470021 0.0001268 0 0.00126278 0 0)
(0.000288075 4.94796e-05 0 0.00151997 0 0)
(0.00096256 0.00069217 0 0.00191222 0 0)
(0.000641053 0.000555494 0 0.00269165 0 0)
(0.00244759 0.00207041 0 0.00341539 0 0)
(0.00173505 0.00205897 0 0.00511133 0 0)
(0.00600621 0.00489013 0 0.00620147 0 0)
(0.00322706 0.00390586 0 0.00778503 0 0)
(0.00845523 0.00657677 0 0.00873239 0 0)
(0.00410922 0.00510669 0 0.00962763 0 0)
(0.0089202 0.00789984 0 0.0119794 0 0)
(0.00589518 0.00636642 0 0.0128937 0 0)
(0.0106363 0.0114225 0 0.0197185 0 0)
(0.00857962 0.00909996 0 0.0149769 0 0)
(0.0115382 0.0125002 0 0.024502 0 0)
(0.0137382 0.00915875 0 0.00980402 0 0)
(0.0117651 0.00686845 0 0.0301921 0 0)
(0.00188679 0.000134682 0 0.000642519 0 0)
(0.000760724 0.000459433 0 0.00134881 0 0)
(0.000191518 0.000180568 0 0.00142027 0 0)
(0.000630025 0.000715971 0 0.00201667 0 0)
(0.000337252 0.000539616 0 0.00258769 0 0)
(0.00124938 0.00156421 0 0.00314939 0 0)
(0.000702519 0.00130308 0 0.00473287 0 0)
(0.00304421 0.00361849 0 0.00577155 0 0)
(0.00194241 0.00329854 0 0.00870932 0 0)
(0.00668365 0.00694687 0 0.00973746 0 0)
(0.00318928 0.00495887 0 0.0121015 0 0)
(0.00823684 0.00818413 0 0.0136102 0 0)
(0.00370285 0.00613698 0 0.0151636 0 0)
(0.00740346 0.00916307 0 0.0190964 0 0)
(0.00522237 0.00886928 0 0.0210064 0 0)
(0.00852573 0.0143267 0 0.0329777 0 0)
(0.00932569 0.0131392 0 0.0244683 0 0)
(0.00798943 0.0147237 0 0.0399613 0 0)
(0.0158395 0.0134341 0 0.0168518 0 0)
(0.00791207 0.0123237 0 0.0487866 0 0)
(0.00217825 0.000524586 0 0.000893452 0 0)
(0.00128352 0.00107368 0 0.00177037 0 0)
(0.000500237 0.000773739 0 0.00190557 0 0)
(0.00127742 0.00154297 0 0.00252875 0 0)
(0.000782666 0.00134913 0 0.00332603 0 0)
(0.00252683 0.0027901 0 0.00381152 0 0)
(0.00145649 0.00252885 0 0.00583358 0 0)
(0.00561557 0.0056813 0 0.00679706 0 0)
(0.00294812 0.00495968 0 0.0103494 0 0)
(0.00980142 0.00953456 0 0.0110955 0 0)
(0.00364972 0.00649546 0 0.013957 0 0)
(0.0108369 0.0112553 0 0.0155066 0 0)
(0.00408581 0.00763003 0 0.0169816 0 0)
(0.00965106 0.0127942 0 0.0222701 0 0)
(0.00526594 0.0104703 0 0.0245753 0 0)
(0.00836092 0.0160952 0 0.0380229 0 0)
(0.00803351 0.0142029 0 0.0284177 0 0)
(0.00747541 0.0147981 0 0.0479452 0 0)
(0.013857 0.0152318 0 0.0215616 0 0)
(0.0151658 0.00805863 0 0.0574365 0 0)
(0.00286343 0.00105388 0 0.00115887 0 0)
(0.00217998 0.00181937 0 0.00213905 0 0)
(0.00119322 0.00156576 0 0.00256388 0 0)
(0.0022049 0.00251944 0 0.00319612 0 0)
(0.00154199 0.00242887 0 0.00465799 0 0)
(0.00391011 0.0043119 0 0.0051566 0 0)
(0.00248521 0.00424641 0 0.00836565 0 0)
(0.007697 0.00815152 0 0.00922479 0 0)
(0.00408072 0.00708443 0 0.0139572 0 0)
(0.0113354 0.0120741 0 0.0140509 0 0)
(0.00449612 0.00835508 0 0.0176369 0 0)
(0.0118979 0.0136177 0 0.0194193 0 0)
(0.00461966 0.00922695 0 0.0209579 0 0)
(0.0110408 0.0158049 0 0.0282901 0 0)
(0.00578404 0.0123549 0 0.0292874 0 0)
(0.00861944 0.0187538 0 0.0475118 0 0)
(0.00748474 0.0147829 0 0.033345 0 0)
(0.00495495 0.0153899 0 0.0627137 0 0)
(0.0126987 0.0160092 0 0.0280197 0 0)
(0.00579511 0.0117943 0 0.0794467 0 0)
(0.00417121 0.00165403 0 0.00129573 0 0)
(0.00385018 0.00257771 0 0.00218766 0 0)
(0.00252491 0.00243267 0 0.00284434 0 0)
(0.00404612 0.00353491 0 0.00337703 0 0)
(0.00304244 0.00367265 0 0.005368 0 0)
(0.00653016 0.00584767 0 0.00570248 0 0)
(0.00446295 0.00616014 0 0.00961644 0 0)
(0.0114327 0.0102721 0 0.00973126 0 0)
(0.00615542 0.00916799 0 0.0151343 0 0)
(0.0149667 0.013919 0 0.0137335 0 0)
(0.00639172 0.0102807 0 0.0182994 0 0)
(0.0157615 0.015764 0 0.0184033 0 0)
(0.00664747 0.0111469 0 0.0210901 0 0)
(0.015426 0.018856 0 0.027118 0 0)
(0.00765365 0.013988 0 0.028868 0 0)
(0.0114754 0.0206555 0 0.0449721 0 0)
(0.00832867 0.0156014 0 0.0332128 0 0)
(0.00754764 0.0169918 0 0.0664216 0 0)
(0.0121428 0.0172894 0 0.0320945 0 0)
(0.0107225 0.00356545 0 0.0948125 0 0)
(0.00618848 0.00239283 0 0.00154457 0 0)
(0.00643938 0.0034228 0 0.00236187 0 0)
(0.00462215 0.00340898 0 0.00317022 0 0)
(0.00680609 0.00464688 0 0.00374376 0 0)
(0.00536295 0.00517293 0 0.00655743 0 0)
(0.0098272 0.00756517 0 0.00706773 0 0)
(0.00714202 0.00839507 0 0.0118202 0 0)
(0.0150508 0.0123181 0 0.011311 0 0)
(0.00890146 0.0114107 0 0.0170409 0 0)
(0.0183594 0.0156271 0 0.0146016 0 0)
(0.00942491 0.0125677 0 0.0195527 0 0)
(0.0199338 0.0174429 0 0.0189478 0 0)
(0.0103783 0.0130906 0 0.0216758 0 0)
(0.0209182 0.0210166 0 0.026973 0 0)
(0.0111377 0.0146024 0 0.0271227 0 0)
(0.0169694 0.0218761 0 0.0420822 0 0)
(0.0105302 0.0148204 0 0.0312976 0 0)
(0.0108144 0.0180232 0 0.0634689 0 0)
(0.0092564 0.0151068 0 0.0337252 0 0)
(0.0120621 0.00221802 0 0.101984 0 0)
(0.00884445 0.00306006 0 0.00174306 0 0)
(0.00996059 0.00406511 0 0.00247755 0 0)
(0.00759224 0.00428077 0 0.00326334 0 0)
(0.010801 0.00557149 0 0.00377805 0 0)
(0.00874958 0.00667235 0 0.00721254 0 0)
(0.0143241 0.00889719 0 0.007771 0 0)
(0.010941 0.0104071 0 0.0127598 0 0)
(0.019624 0.0132776 0 0.0112157 0 0)
(0.0128004 0.0132486 0 0.0171042 0 0)
(0.0226399 0.0161795 0 0.0136909 0 0)
(0.0135264 0.0142525 0 0.0184463 0 0)
(0.0245234 0.0184281 0 0.0171009 0 0)
(0.0152857 0.0147929 0 0.0190879 0 0)
(0.0263586 0.0221257 0 0.023197 0 0)
(0.0163598 0.0151306 0 0.0209913 0 0)
(0.0247386 0.0235189 0 0.0345866 0 0)
(0.0158074 0.014529 0 0.0239337 0 0)
(0.0184862 0.0223504 0 0.0549769 0 0)
(0.0125398 0.0124931 0 0.0329961 0 0)
(0.0127221 0.00992845 0 0.0933529 0 0)
(0.0120388 0.0038903 0 0.00224006 0 0)
(0.0141848 0.00470899 0 0.00300559 0 0)
(0.0114701 0.00523847 0 0.00367472 0 0)
(0.0158545 0.00657106 0 0.00414213 0 0)
(0.0131086 0.00834988 0 0.00838353 0 0)
(0.0193386 0.0100019 0 0.00903297 0 0)
(0.0154332 0.0123241 0 0.0141196 0 0)
(0.0236382 0.0137284 0 0.0120345 0 0)
(0.0172065 0.0146254 0 0.0173749 0 0)
(0.0257801 0.0160481 0 0.0138894 0 0)
(0.0182655 0.015501 0 0.0178969 0 0)
(0.0275383 0.0183166 0 0.016715 0 0)
(0.0206756 0.0155435 0 0.0178006 0 0)
(0.0288791 0.0213609 0 0.0211514 0 0)
(0.0219872 0.0146225 0 0.0176986 0 0)
(0.0310817 0.0232056 0 0.0295695 0 0)
(0.0245486 0.0136489 0 0.0196922 0 0)
(0.0356884 0.0245561 0 0.0468191 0 0)
(0.0238663 0.0145077 0 0.0280838 0 0)
(0.0334233 0.00935901 0 0.0873547 0 0)
(0.0154892 0.0043943 0 0.00259121 0 0)
(0.0184791 0.00473965 0 0.00332134 0 0)
(0.0161336 0.0056896 0 0.0038971 0 0)
(0.0217863 0.00696959 0 0.0041308 0 0)
(0.0184291 0.0093854 0 0.00876192 0 0)
(0.0248353 0.0100468 0 0.0093226 0 0)
(0.0205057 0.0131145 0 0.0144099 0 0)
(0.0275534 0.0126014 0 0.0115473 0 0)
(0.0220203 0.014728 0 0.0167561 0 0)
(0.0292794 0.0143472 0 0.012937 0 0)
(0.0230743 0.0154462 0 0.0167917 0 0)
(0.0308493 0.0165351 0 0.0151376 0 0)
(0.0243994 0.0156488 0 0.0163583 0 0)
(0.032046 0.0193296 0 0.0185729 0 0)
(0.0244481 0.0149066 0 0.0159564 0 0)
(0.0328161 0.0226328 0 0.0248642 0 0)
(0.0249867 0.0144895 0 0.0186952 0 0)
(0.0383474 0.0269834 0 0.0386949 0 0)
(0.0373086 0.0170682 0 0.028997 0 0)
(0.053325 0.0151029 0 0.0748914 0 0)
(0.0199141 0.00517931 0 0.0032639 0 0)
(0.0223789 0.00482313 0 0.00388848 0 0)
(0.0217122 0.00626285 0 0.00446356 0 0)
(0.0269482 0.00721158 0 0.00427168 0 0)
(0.0248262 0.0102557 0 0.00902379 0 0)
(0.0295059 0.00926502 0 0.00888231 0 0)
(0.0262165 0.0132099 0 0.0137624 0 0)
(0.0305088 0.0104975 0 0.0103358 0 0)
(0.0277692 0.0140977 0 0.0151812 0 0)
(0.0327724 0.0119895 0 0.0112659 0 0)
(0.0291716 0.0147619 0 0.0149597 0 0)
(0.0350934 0.0137561 0 0.0129475 0 0)
(0.0300418 0.0150398 0 0.014749 0 0)
(0.0389282 0.0160891 0 0.0155334 0 0)
(0.0297565 0.0146524 0 0.0152735 0 0)
(0.04115 0.0188432 0 0.0208462 0 0)
(0.0262951 0.0156872 0 0.0216829 0 0)
(0.0458512 0.0235375 0 0.0342928 0 0)
(0.0320174 0.0233461 0 0.0375869 0 0)
(0.0672577 0.021407 0 0.0677255 0 0)
(0.0249599 0.0052316 0 0.00307117 0 0)
(0.0252661 0.0040954 0 0.0032972 0 0)
(0.0268465 0.00613031 0 0.00422645 0 0)
(0.0297064 0.00626059 0 0.00354704 0 0)
(0.0305853 0.00990499 0 0.00766304 0 0)
(0.0319281 0.00759252 0 0.00699277 0 0)
(0.0315052 0.011981 0 0.0111313 0 0)
(0.0326541 0.00821589 0 0.00774773 0 0)
(0.0331412 0.0125219 0 0.0118225 0 0)
(0.0337409 0.00937083 0 0.0085862 0 0)
(0.0346825 0.0133812 0 0.0118371 0 0)
(0.0387777 0.0116986 0 0.0101207 0 0)
(0.0390765 0.0141241 0 0.0116299 0 0)
(0.0516507 0.0147675 0 0.0122424 0 0)
(0.0438852 0.0112977 0 0.0120385 0 0)
(0.057862 0.016205 0 0.0164722 0 0)
(0.0448956 0.004394 0 0.0233853 0 0)
(0.0554277 0.0194701 0 0.0272095 0 0)
(0.0418452 0.00744786 0 0.0505643 0 0)
(0.0938352 0.0215316 0 0.0544474 0 0)
(0.0301968 0.00543939 0 0.00272942 0 0)
(0.0278014 0.00382994 0 0.00279811 0 0)
(0.0307229 0.00612448 0 0.00369872 0 0)
(0.0302695 0.00522407 0 0.00281946 0 0)
(0.0347863 0.00896337 0 0.00591311 0 0)
(0.031006 0.00581601 0 0.0046991 0 0)
(0.0354609 0.0104204 0 0.00745123 0 0)
(0.0306777 0.00625535 0 0.00512585 0 0)
(0.0368668 0.010984 0 0.00785579 0 0)
(0.0307761 0.0073914 0 0.00597091 0 0)
(0.0402544 0.0128066 0 0.00881821 0 0)
(0.0340368 0.00957041 0 0.00748268 0 0)
(0.0438575 0.0130938 0 0.00872372 0 0)
(0.0365362 0.011297 0 0.00894061 0 0)
(0.0453658 0.0108752 0 0.0105811 0 0)
(0.0405608 0.013615 0 0.0122811 0 0)
(0.0466752 0.00515669 0 0.0278414 0 0)
(0.0463874 0.0115941 0 0.0244682 0 0)
(0.0529225 -0.00254421 0 0.0979453 0 0)
(0.0619517 -0.00406347 0 0.10682 0 0)
(0.0301188 0.00423383 0 0.00143398 0 0)
(0.0251044 0.00283689 0 0.00148136 0 0)
(0.0294277 0.00503529 0 0.00212771 0 0)
(0.0258457 0.00372274 0 0.0015419 0 0)
(0.033557 0.00712942 0 0.00312458 0 0)
(0.0249902 0.00431757 0 0.00265963 0 0)
(0.0342266 0.00837542 0 0.00406139 0 0)
(0.0233704 0.00447769 0 0.00292064 0 0)
(0.035752 0.00922741 0 0.00449111 0 0)
(0.0225365 0.00515372 0 0.00377723 0 0)
(0.0380159 0.0104988 0 0.0051933 0 0)
(0.0225227 0.00554783 0 0.00453948 0 0)
(0.0376979 0.00960382 0 0.00468521 0 0)
(0.0248595 0.00669149 0 0.00541831 0 0)
(0.0357042 0.00740343 0 0.00515199 0 0)
(0.0257323 0.00814149 0 0.00718854 0 0)
(0.0319693 0.00382434 0 0.0120572 0 0)
(0.0317431 0.00971455 0 0.0122313 0 0)
(0.0309589 -0.00676309 0 0.0672943 0 0)
(0.0389106 0.00572788 0 0.0432795 0 0)
(0.023846 0.0024126 0 0.000593408 0 0)
(0.0181096 0.00151241 0 0.000762207 0 0)
(0.022961 0.0028721 0 0.000867792 0 0)
(0.0179727 0.00198095 0 0.000714642 0 0)
(0.0269581 0.00387435 0 0.00125876 0 0)
(0.016707 0.00231731 0 0.00115344 0 0)
(0.0275098 0.00468181 0 0.00155529 0 0)
(0.0150886 0.00223853 0 0.00128519 0 0)
(0.0277749 0.004928 0 0.00177607 0 0)
(0.0136348 0.0022098 0 0.00158579 0 0)
(0.0270456 0.00467093 0 0.00181444 0 0)
(0.0140686 0.00226002 0 0.00188926 0 0)
(0.0242168 0.0035036 0 0.00165351 0 0)
(0.0158616 0.00330055 0 0.00238585 0 0)
(0.020245 0.00235399 0 0.00265577 0 0)
(0.0181026 0.00504524 0 0.00337985 0 0)
(0.0163474 0.00382923 0 0.00951374 0 0)
(0.030702 0.00662106 0 0.00709947 0 0)
(0.00973634 0.00802155 0 0.0754362 0 0)
(0.191336 -0.139973 0 0.200304 0 0)
(0.0166219 0.00107499 0 0.000198394 0 0)
(0.011804 0.000915079 0 0.000385875 0 0)
(0.0148388 0.00121966 0 0.000380974 0 0)
(0.0121475 0.00135247 0 0.000379222 0 0)
(0.0174799 0.00184557 0 0.000471071 0 0)
(0.01187 0.00167823 0 0.000643021 0 0)
(0.0182224 0.00246253 0 0.000698965 0 0)
(0.0110971 0.00179884 0 0.000715856 0 0)
(0.0183954 0.00279217 0 0.000960033 0 0)
(0.0107176 0.00195587 0 0.00112288 0 0)
(0.0174919 0.00275398 0 0.00106986 0 0)
(0.0121964 0.00217414 0 0.00139047 0 0)
(0.0154396 0.00237065 0 0.000932124 0 0)
(0.0155402 0.0030142 0 0.00163623 0 0)
(0.0131345 0.00179857 0 0.000817464 0 0)
(0.0221358 0.00467513 0 0.00235813 0 0)
(0.0122844 0.00150317 0 0.000991645 0 0)
(0.0441201 0.0105338 0 0.0048497 0 0)
(0.00620962 0.00295593 0 0.0142948 0 0)
(0.147699 0.0144776 0 0.0113709 0 0)
(0.012207 0.000294068 0 0.000131896 0 0)
(0.0099436 0.000302694 0 0.000297259 0 0)
(0.0115736 0.000391274 0 0.000262097 0 0)
(0.0095875 0.000312201 0 0.000198017 0 0)
(0.0128034 0.000470915 0 0.000299503 0 0)
(0.0109537 0.000467704 0 0.000335387 0 0)
(0.0128653 0.000610191 0 0.000334811 0 0)
(0.0102165 0.000404985 0 0.000348434 0 0)
(0.0131907 0.000496987 0 0.000427641 0 0)
(0.0121536 0.000409615 0 0.000417183 0 0)
(0.0140736 0.000411254 0 0.000463566 0 0)
(0.0184922 0.00075519 0 0.00052574 0 0)
(0.0169384 0.000739804 0 0.000559065 0 0)
(0.0257152 0.0011565 0 0.000644489 0 0)
(0.0267476 0.00164222 0 0.000763544 0 0)
(0.0367189 0.00176636 0 0.000831826 0 0)
(0.0591932 0.00530127 0 0.00144413 0 0)
(0.0563696 0.0019025 0 0.00110517 0 0)
(0.172244 0.0458841 0 0.0156912 0 0)
(0.250745 -0.107289 0 0.187196 0 0)
(0.0831854 -0.00335641 0 0.00686894 0 0)
(0.0525421 -0.000213139 0 0.00775856 0 0)
(0.125649 -0.00722918 0 0.00994262 0 0)
(0.0719669 0.00233127 0 0.00879715 0 0)
(0.234263 -0.0207469 0 0.00947771 0 0)
(0.089962 -0.00397565 0 0.00489073 0 0)
(0.412814 -0.0291968 0 0.00696787 0 0)
(0.168952 -0.00402687 0 0.00470824 0 0)
(0.0215274 0.00107225 0 0.00277652 0 0)
(0.0411834 -0.00991989 0 0.00750441 0 0)
(0.0388111 0.000415509 0 0.0029561 0 0)
(0.100038 -0.0171562 0 0.00583523 0 0)
(0.0841226 -0.00674195 0 0.00154346 0 0)
(0.188847 -0.0300038 0 0.00667732 0 0)
(0.183569 -0.0122056 0 0.00465035 0 0)
(0.282411 -0.0338615 0 0.00702217 0 0)
(0.0272792 -5.84235e-05 0 0.00177453 0 0)
(0.0168446 -0.00469639 0 0.0110149 0 0)
(0.0406872 -0.00955195 0 0.00626553 0 0)
(0.0438024 -0.0167021 0 0.0110085 0 0)
(0.0684328 -0.0220442 0 0.0154588 0 0)
(0.160327 -0.0324183 0 0.00846858 0 0)
(0.128471 -0.031847 0 0.0128232 0 0)
(0.34157 -0.0495338 0 0.0109858 0 0)
(0.0269669 0.00428179 0 0.00572058 0 0)
(0.00787024 -0.00345843 0 0.0277632 0 0)
(0.0617024 -0.00738582 0 0.00816306 0 0)
(0.0290327 -0.0151792 0 0.0223479 0 0)
(0.126598 -0.0372599 0 0.0150283 0 0)
(0.0845265 -0.0306426 0 0.0155485 0 0)
(0.252176 -0.0624432 0 0.0183282 0 0)
(0.185237 -0.0529735 0 0.0210608 0 0)
(0.0178347 0.00632288 0 0.00483769 0 0)
(0.019188 -0.00763257 0 0.0384809 0 0)
(0.0282957 -0.00221702 0 0.0099803 0 0)
(0.0617666 -0.035099 0 0.0363148 0 0)
(0.0632084 -0.0333687 0 0.0257007 0 0)
(0.141653 -0.0578306 0 0.0275568 0 0)
(0.175877 -0.0729436 0 0.0347958 0 0)
(0.230191 -0.0760951 0 0.031467 0 0)
(0.0303919 0.00575738 0 0.00929642 0 0)
(0.00987733 0.00310862 0 0.0612379 0 0)
(0.0607442 -0.0141026 0 0.0171572 0 0)
(0.0291631 -0.0314991 0 0.0567277 0 0)
(0.100676 -0.0498881 0 0.0304688 0 0)
(0.143523 -0.0746853 0 0.0455199 0 0)
(0.154919 -0.0745154 0 0.0423428 0 0)
(0.376652 -0.140428 0 0.0590549 0 0)
(0.0208125 0.0104676 0 0.0105864 0 0)
(0.021166 -0.00296596 0 0.0746537 0 0)
(0.0451833 -0.0107911 0 0.015682 0 0)
(0.0402375 -0.0465142 0 0.0821498 0 0)
(0.139549 -0.0801865 0 0.0536499 0 0)
(0.0924795 -0.0665851 0 0.0581214 0 0)
(0.313889 -0.154946 0 0.0843878 0 0)
(0.330789 -0.146722 0 0.0739334 0 0)
(0.0290078 0.011423 0 0.0142271 0 0)
(0.0156299 0.00220808 0 0.0962575 0 0)
(0.0586231 -0.0174428 0 0.0168959 0 0)
(0.0677854 -0.0685735 0 0.116532 0 0)
(0.0744337 -0.0475906 0 0.0402486 0 0)
(0.219354 -0.148386 0 0.118969 0 0)
(0.354622 -0.18649 0 0.107836 0 0)
(0.339619 -0.173534 0 0.0983803 0 0)
(0.0375983 0.010625 0 0.0191836 0 0)
(0.0230082 -0.00911202 0 0.132144 0 0)
(0.157096 -0.0586077 0 0.0370204 0 0)
(0.0252759 -0.0234815 0 0.10849 0 0)
(0.193947 -0.114437 0 0.0772188 0 0)
(0.316161 -0.215027 0 0.172832 0 0)
(0.304606 -0.182394 0 0.12072 0 0)
(0.499895 -0.251834 0 0.13899 0 0)
(0.0174702 0.0149771 0 0.0232853 0 0)
(0.0411417 -0.0449151 0 0.190778 0 0)
(0.0650671 -0.0166544 0 0.0219851 0 0)
(0.0525532 -0.0621187 0 0.195376 0 0)
(0.382573 -0.233524 0 0.15316 0 0)
(0.234328 -0.192729 0 0.197461 0 0)
(0.385536 -0.226312 0 0.146089 0 0)
(0.570989 -0.316345 0 0.188987 0 0)
(0.0177102 0.00253494 0 0.0381686 0 0)
(0.0278621 -0.0257315 0 0.187271 0 0)
(0.0467557 -0.0113869 0 0.0337099 0 0)
(0.153836 -0.170477 0 0.311034 0 0)
(0.427241 -0.25683 0 0.168144 0 0)
(0.212541 -0.185665 0 0.211605 0 0)
(0.501842 -0.295869 0 0.190148 0 0)
(0.526366 -0.327974 0 0.221675 0 0)
(0.0131193 0.00636151 0 0.0354724 0 0)
(0.0292807 -0.0218186 0 0.196608 0 0)
(0.124646 -0.0912349 0 0.100799 0 0)
(0.213444 -0.237722 0 0.403696 0 0)
(0.425363 -0.260336 0 0.174935 0 0)
(0.203235 -0.202858 0 0.266532 0 0)
(0.573286 -0.359751 0 0.240696 0 0)
(0.508483 -0.35214 0 0.264605 0 0)
(0.0887038 0.0202807 0 0.0459294 0 0)
(0.0485261 -0.0377479 0 0.223955 0 0)
(0.17576 -0.170149 0 0.207565 0 0)
(0.225716 -0.254057 0 0.444114 0 0)
(0.359789 -0.227293 0 0.168633 0 0)
(0.235828 -0.252451 0 0.347597 0 0)
(0.679428 -0.443319 0 0.306721 0 0)
(0.355661 -0.283121 0 0.246272 0 0)
(0.114825 0.0397287 0 0.0506082 0 0)
(0.121509 -0.103345 0 0.309051 0 0)
(0.227164 -0.239368 0 0.320156 0 0)
(0.179147 -0.216902 0 0.43021 0 0)
(0.345687 -0.236506 0 0.197353 0 0)
(0.311046 -0.338861 0 0.455218 0 0)
(0.5595 -0.370238 0 0.268096 0 0)
(0.152084 -0.15945 0 0.198749 0 0)
(0.133735 0.0783256 0 0.0874384 0 0)
(0.226117 -0.190866 0 0.406782 0 0)
(0.188943 -0.192561 0 0.362472 0 0)
(0.156595 -0.192912 0 0.412407 0 0)
(0.353947 -0.272116 0 0.278163 0 0)
(0.244423 -0.308162 0 0.463559 0 0)
(0.359016 -0.229766 0 0.189732 0 0)
(0.187795 -0.218699 0 0.287441 0 0)
(0.148997 0.105066 0 0.144332 0 0)
(0.257551 -0.24643 0 0.485626 0 0)
(0.178323 -0.143645 0 0.403421 0 0)
(0.161796 -0.199438 0 0.425672 0 0)
(0.311155 -0.241925 0 0.320107 0 0)
(0.147499 -0.239866 0 0.441912 0 0)
(0.346008 -0.216 0 0.193004 0 0)
(0.324721 -0.372247 0 0.469495 0 0)
(0.0890033 0.0746305 0 0.315085 0 0)
(0.237946 -0.265856 0 0.556928 0 0)
(0.0958839 -0.120881 0 0.428967 0 0)
(0.178004 -0.199501 0 0.423341 0 0)
(0.239084 -0.228028 0 0.36911 0 0)
(0.135714 -0.212962 0 0.418203 0 0)
(0.31605 -0.229153 0 0.236899 0 0)
(0.350125 -0.444622 0 0.605517 0 0)
(0.0552787 -0.0451 0 0.637327 0 0)
(0.199234 -0.233818 0 0.593163 0 0)
(0.0589665 -0.116576 0 0.489849 0 0)
(0.213533 -0.246138 0 0.471265 0 0)
(0.142053 -0.186764 0 0.407499 0 0)
(0.13552 -0.206385 0 0.411949 0 0)
(0.352846 -0.27681 0 0.352899 0 0)
(0.284068 -0.429442 0 0.679106 0 0)
(0.0525874 -0.12686 0 0.982405 0 0)
(0.170043 -0.23883 0 0.600804 0 0)
(0.0718796 -0.142816 0 0.530641 0 0)
(0.250041 -0.280986 0 0.446065 0 0)
(0.0840028 -0.130965 0 0.429836 0 0)
(0.218651 -0.264287 0 0.392668 0 0)
(0.18745 -0.218061 0 0.494936 0 0)
(0.158977 -0.291741 0 0.58018 0 0)
(0.0737093 -0.187521 0 1.31508 0 0)
(0.142545 -0.195394 0 0.658613 0 0)
(0.0424204 -0.0919021 0 0.593456 0 0)
(0.192143 -0.23385 0 0.447598 0 0)
(0.0896311 -0.0993779 0 0.43449 0 0)
(0.182599 -0.251332 0 0.386393 0 0)
(0.0670857 -0.0900561 0 0.410409 0 0)
(0.110166 -0.196492 0 0.392326 0 0)
(0.588018 -0.0387439 0 0.00657964 0 0)
(0.283187 -0.00665976 0 0.00387019 0 0)
(0.791171 -0.0401621 0 0.00658281 0 0)
(0.418506 -0.00750204 0 0.00332764 0 0)
(0.974836 -0.0383793 0 0.00421913 0 0)
(0.565485 -0.00794514 0 0.00347896 0 0)
(1.10909 -0.0309563 0 0.00397074 0 0)
(0.640548 -0.00351762 0 0.00376351 0 0)
(1.17722 -0.0209026 0 0.00411745 0 0)
(0.624021 0.000396574 0 0.0040443 0 0)
(1.14505 -0.0133632 0 0.00453899 0 0)
(0.534795 0.001559 0 0.00509316 0 0)
(1.04877 -0.0106961 0 0.00519316 0 0)
(0.411545 -0.00227707 0 0.00581399 0 0)
(0.952406 -0.0140533 0 0.00606733 0 0)
(0.313183 -0.00418706 0 0.00674212 0 0)
(0.892884 -0.0192822 0 0.00730047 0 0)
(0.249251 -0.00497381 0 0.00848035 0 0)
(0.873597 -0.0293305 0 0.0091513 0 0)
(0.208015 -0.00563501 0 0.0110981 0 0)
(0.884021 -0.0413756 0 0.0124804 0 0)
(0.19204 -0.00485636 0 0.014248 0 0)
(0.9018 -0.0487232 0 0.0149851 0 0)
(0.205947 -0.00830038 0 0.0178758 0 0)
(0.912317 -0.055118 0 0.0189312 0 0)
(0.250046 -0.016946 0 0.022808 0 0)
(0.941344 -0.0685385 0 0.0334593 0 0)
(0.290671 -0.0158666 0 0.0297085 0 0)
(0.356582 -0.0178627 0 0.00287746 0 0)
(0.398208 -0.0368385 0 0.00596765 0 0)
(0.575 -0.0208648 0 0.00345783 0 0)
(0.531206 -0.0334652 0 0.00415835 0 0)
(0.789936 -0.0156932 0 0.00359243 0 0)
(0.641129 -0.0245145 0 0.00360331 0 0)
(0.940164 0.0024026 0 0.0031131 0 0)
(0.708861 -0.0130247 0 0.00261084 0 0)
(0.988896 0.020552 0 0.00443631 0 0)
(0.699032 0.00183042 0 0.00286655 0 0)
(0.936624 0.0331658 0 0.00459303 0 0)
(0.615147 0.0107466 0 0.003788 0 0)
(0.809544 0.0391046 0 0.00600634 0 0)
(0.506499 0.0115988 0 0.00404992 0 0)
(0.661971 0.0340612 0 0.00596683 0 0)
(0.422046 0.00620842 0 0.00437485 0 0)
(0.562748 0.0278625 0 0.00604968 0 0)
(0.373383 -0.00143197 0 0.00534109 0 0)
(0.500293 0.0224975 0 0.00650163 0 0)
(0.34351 -0.00882204 0 0.00533255 0 0)
(0.474984 0.01651 0 0.00632534 0 0)
(0.318892 -0.0125419 0 0.00640495 0 0)
(0.490506 0.00812472 0 0.0076815 0 0)
(0.289741 -0.0104103 0 0.00787194 0 0)
(0.534793 -0.0049746 0 0.00959097 0 0)
(0.257969 -0.00728076 0 0.0123555 0 0)
(0.593592 -0.0118372 0 0.0138762 0 0)
(0.225848 -0.00581903 0 0.0155024 0 0)
(0.223195 -0.0432535 0 0.0134184 0 0)
(0.572779 -0.0643458 0 0.0106043 0 0)
(0.355457 -0.0494924 0 0.0128194 0 0)
(0.790137 -0.0614538 0 0.00770351 0 0)
(0.513354 -0.0463129 0 0.00825969 0 0)
(0.955789 -0.0416777 0 0.00429393 0 0)
(0.639726 -0.0285186 0 0.00448649 0 0)
(1.03658 -0.00771569 0 0.0043327 0 0)
(0.677917 -0.00304128 0 0.00253615 0 0)
(1.00995 0.0255942 0 0.00397137 0 0)
(0.621865 0.0202695 0 0.00315342 0 0)
(0.90048 0.0415623 0 0.00525592 0 0)
(0.503464 0.0314549 0 0.00478676 0 0)
(0.766734 0.0401149 0 0.00565618 0 0)
(0.383471 0.0260395 0 0.00455476 0 0)
(0.665529 0.0275486 0 0.0042226 0 0)
(0.302176 0.0164035 0 0.00558522 0 0)
(0.613338 0.0201348 0 0.00458353 0 0)
(0.247227 0.00919805 0 0.00487175 0 0)
(0.592956 0.0119364 0 0.00451197 0 0)
(0.211634 0.00506733 0 0.00557477 0 0)
(0.60273 0.00222864 0 0.00525421 0 0)
(0.186364 0.0049507 0 0.00575929 0 0)
(0.632974 -0.00846568 0 0.0076538 0 0)
(0.180439 0.00611606 0 0.00786868 0 0)
(0.6496 -0.0210227 0 0.00936713 0 0)
(0.211572 0.00610082 0 0.014281 0 0)
(0.64178 -0.0427825 0 0.0170297 0 0)
(0.395625 -0.0744275 0 0.0176678 0 0)
(0.383607 -0.0755603 0 0.0181908 0 0)
(0.540051 -0.0755754 0 0.0147625 0 0)
(0.642002 -0.0818476 0 0.013242 0 0)
(0.677388 -0.0584854 0 0.00949987 0 0)
(0.876672 -0.0604017 0 0.00866921 0 0)
(0.773471 -0.0225757 0 0.0044239 0 0)
(0.998099 -0.0159484 0 0.00514013 0 0)
(0.800809 0.0189672 0 0.00478285 0 0)
(0.960313 0.0310002 0 0.0049469 0 0)
(0.737557 0.0493228 0 0.0073693 0 0)
(0.806726 0.053763 0 0.00780678 0 0)
(0.626372 0.060759 0 0.0103241 0 0)
(0.625234 0.0530684 0 0.00832907 0 0)
(0.511723 0.0503367 0 0.00899981 0 0)
(0.484052 0.0357815 0 0.00629701 0 0)
(0.439771 0.0352924 0 0.00655593 0 0)
(0.409632 0.0234422 0 0.00636942 0 0)
(0.401014 0.0256997 0 0.0061345 0 0)
(0.366311 0.0102708 0 0.00325046 0 0)
(0.387176 0.015874 0 0.00392666 0 0)
(0.345488 0.00410719 0 0.0039912 0 0)
(0.385708 0.00750422 0 0.00512757 0 0)
(0.345981 -0.000595363 0 0.00571995 0 0)
(0.380606 0.00605837 0 0.0071606 0 0)
(0.381937 -0.0130915 0 0.00959664 0 0)
(0.354386 0.00772416 0 0.0157654 0 0)
(0.484539 -0.043609 0 0.017908 0 0)
(0.417675 -0.116286 0 0.0377975 0 0)
(0.368477 -0.0939811 0 0.029928 0 0)
(0.697692 -0.134936 0 0.0323049 0 0)
(0.548236 -0.0948026 0 0.0222194 0 0)
(0.942748 -0.114831 0 0.0187828 0 0)
(0.730909 -0.0690184 0 0.0118492 0 0)
(1.09716 -0.0573683 0 0.00821933 0 0)
(0.829852 -0.0201071 0 0.00797419 0 0)
(1.1323 0.0165168 0 0.00504392 0 0)
(0.796039 0.0340573 0 0.00811139 0 0)
(1.02868 0.0723715 0 0.0103709 0 0)
(0.649711 0.0580484 0 0.0122092 0 0)
(0.84472 0.0878222 0 0.0140707 0 0)
(0.495129 0.0586763 0 0.01375 0 0)
(0.661532 0.0659325 0 0.0113433 0 0)
(0.390978 0.0382639 0 0.00830934 0 0)
(0.538563 0.0360221 0 0.00928198 0 0)
(0.341342 0.0269862 0 0.00660203 0 0)
(0.475685 0.0173389 0 0.00662571 0 0)
(0.312134 0.0129599 0 0.00395297 0 0)
(0.448884 0.000569827 0 0.00431421 0 0)
(0.29197 0.00341093 0 0.00319889 0 0)
(0.453164 -0.0106126 0 0.00555642 0 0)
(0.267863 -0.000146996 0 0.00367379 0 0)
(0.488 -0.0243707 0 0.00734603 0 0)
(0.247179 -0.00209714 0 0.00745208 0 0)
(0.547528 -0.0478146 0 0.0132837 0 0)
(0.240173 -0.00687524 0 0.0156535 0 0)
(0.330115 -0.112137 0 0.0452791 0 0)
(0.586379 -0.162554 0 0.0505315 0 0)
(0.61105 -0.141376 0 0.0380017 0 0)
(0.779537 -0.150828 0 0.0342415 0 0)
(0.912874 -0.12752 0 0.0235127 0 0)
(0.946123 -0.102712 0 0.0183763 0 0)
(1.12583 -0.0595972 0 0.00959638 0 0)
(1.01979 -0.0227453 0 0.00803531 0 0)
(1.17139 0.0331042 0 0.00937222 0 0)
(0.971604 0.0581996 0 0.0100181 0 0)
(1.01758 0.0998301 0 0.0166531 0 0)
(0.83633 0.0980711 0 0.0193971 0 0)
(0.745785 0.109676 0 0.0216909 0 0)
(0.69405 0.100171 0 0.023047 0 0)
(0.493604 0.0768142 0 0.0182184 0 0)
(0.591032 0.0701033 0 0.0152139 0 0)
(0.340254 0.0437966 0 0.0103364 0 0)
(0.537856 0.0430489 0 0.0104515 0 0)
(0.26696 0.0290643 0 0.0106463 0 0)
(0.514135 0.0176946 0 0.00534553 0 0)
(0.233677 0.0166372 0 0.00646244 0 0)
(0.502397 -0.0015829 0 0.00504947 0 0)
(0.227885 0.012972 0 0.00627277 0 0)
(0.490649 -0.0171608 0 0.00566042 0 0)
(0.23836 0.0106906 0 0.0103337 0 0)
(0.475539 -0.0315574 0 0.00802022 0 0)
(0.285231 0.000444532 0 0.0141379 0 0)
(0.42475 -0.0383269 0 0.0171696 0 0)
(0.451358 -0.171672 0 0.0731105 0 0)
(0.667028 -0.207944 0 0.0719229 0 0)
(0.65367 -0.186665 0 0.0611889 0 0)
(0.983831 -0.207605 0 0.0510545 0 0)
(0.897558 -0.163142 0 0.0380873 0 0)
(1.2233 -0.141911 0 0.0255816 0 0)
(1.06572 -0.0770927 0 0.0156573 0 0)
(1.33124 -0.0303852 0 0.013208 0 0)
(1.07704 0.0343041 0 0.0122948 0 0)
(1.28097 0.0915682 0 0.0173678 0 0)
(0.894789 0.107639 0 0.0236922 0 0)
(1.1032 0.152526 0 0.0292987 0 0)
(0.641425 0.115243 0 0.0294303 0 0)
(0.891555 0.152717 0 0.03508 0 0)
(0.445276 0.0863752 0 0.025287 0 0)
(0.693648 0.100173 0 0.0207723 0 0)
(0.333118 0.049912 0 0.0170203 0 0)
(0.556987 0.0558499 0 0.0112993 0 0)
(0.288279 0.0298567 0 0.00973388 0 0)
(0.487803 0.0267119 0 0.00846549 0 0)
(0.257161 0.0156042 0 0.00585538 0 0)
(0.461516 0.00463183 0 0.00455105 0 0)