/*--------------------------------*- C++ -*----------------------------------*\
| =========                 |                                                 |
| \\      /  F ield         | OpenFOAM: The Open Source CFD Toolbox           |
|  \\    /   O peration     | Version:  2.4.0                                 |
|   \\  /    A nd           | Web:      www.OpenFOAM.org                      |
|    \\/     M anipulation  |                                                 |
\*---------------------------------------------------------------------------*/
FoamFile
{
    version     2.0;
    format      ascii;
    class       volVectorField;
    location    "0.47";
    object      U;
}
// * * * * * * * * * * * * * * * * * * * * * * * * * * * * * * * * * * * * * //

dimensions      [0 1 -1 0 0 0 0];

internalField   nonuniform List<vector> 
2320
(
(0.580525 -6.30131e-06 0)
(0.579003 -2.63551e-05 0)
(0.574992 -5.01969e-05 0)
(0.574259 -7.71478e-05 0)
(0.575465 -0.000111999 0)
(0.576571 -0.00015981 0)
(0.577292 -0.000224816 0)
(0.578168 -0.000312381 0)
(0.579567 -0.000430692 0)
(0.581596 -0.000591386 0)
(0.584366 -0.000810219 0)
(0.588123 -0.00110851 0)
(0.593254 -0.00151547 0)
(0.600277 -0.00207118 0)
(0.609885 -0.00283046 0)
(0.623019 -0.0038668 0)
(0.640963 -0.00527677 0)
(0.665435 -0.00717963 0)
(0.698672 -0.0097138 0)
(0.743477 -0.013015 0)
(0.580524 -2.18252e-05 0)
(0.578997 -7.90316e-05 0)
(0.574983 -0.000147031 0)
(0.574246 -0.000227775 0)
(0.575443 -0.00033298 0)
(0.576535 -0.00047577 0)
(0.577237 -0.00066896 0)
(0.578087 -0.000929292 0)
(0.57945 -0.00128134 0)
(0.581429 -0.00175955 0)
(0.58413 -0.00241066 0)
(0.587792 -0.00329808 0)
(0.592793 -0.00450878 0)
(0.599638 -0.00616212 0)
(0.609003 -0.00842165 0)
(0.621808 -0.011507 0)
(0.639314 -0.0157082 0)
(0.663218 -0.0213847 0)
(0.69575 -0.0289585 0)
(0.739733 -0.0388435 0)
(0.580523 -3.90672e-05 0)
(0.578991 -0.000129513 0)
(0.574972 -0.00023764 0)
(0.574225 -0.000371336 0)
(0.575403 -0.000545972 0)
(0.576468 -0.000780518 0)
(0.577134 -0.00109664 0)
(0.577933 -0.00152299 0)
(0.579225 -0.00210005 0)
(0.581107 -0.00288395 0)
(0.583674 -0.00395101 0)
(0.587153 -0.00540514 0)
(0.591903 -0.00738892 0)
(0.598402 -0.0100982 0)
(0.607293 -0.0138024 0)
(0.619457 -0.0188643 0)
(0.636105 -0.0257688 0)
(0.65889 -0.0351192 0)
(0.690028 -0.0476417 0)
(0.732364 -0.0640458 0)
(0.580522 -5.4276e-05 0)
(0.578985 -0.000176189 0)
(0.574956 -0.00032267 0)
(0.574192 -0.000506391 0)
(0.575344 -0.00074608 0)
(0.576371 -0.00106634 0)
(0.576983 -0.00149745 0)
(0.577708 -0.00207933 0)
(0.578896 -0.00286728 0)
(0.580636 -0.00393754 0)
(0.583006 -0.00539408 0)
(0.586216 -0.00737853 0)
(0.590595 -0.0100855 0)
(0.596586 -0.0137825 0)
(0.604781 -0.0188392 0)
(0.615995 -0.0257562 0)
(0.631367 -0.0352136 0)
(0.652477 -0.0480642 0)
(0.681503 -0.065368 0)
(0.721327 -0.0881827 0)
(0.580521 -6.78466e-05 0)
(0.578978 -0.000218888 0)
(0.574936 -0.000400362 0)
(0.57415 -0.000629115 0)
(0.575268 -0.000927646 0)
(0.576246 -0.00132579 0)
(0.576788 -0.0018614 0)
(0.577416 -0.00258455 0)
(0.578471 -0.00356397 0)
(0.580025 -0.00489415 0)
(0.582142 -0.00670393 0)
(0.585003 -0.0091689 0)
(0.588903 -0.0125306 0)
(0.594236 -0.0171208 0)
(0.601526 -0.0234023 0)
(0.6115 -0.0320022 0)
(0.625193 -0.0437989 0)
(0.644083 -0.0598887 0)
(0.670231 -0.0817311 0)
(0.706748 -0.110796 0)
(0.58052 -7.96274e-05 0)
(0.57897 -0.000256269 0)
(0.574912 -0.000468292 0)
(0.5741 -0.000736247 0)
(0.575177 -0.00108626 0)
(0.576095 -0.00155267 0)
(0.576554 -0.00217972 0)
(0.577065 -0.00302634 0)
(0.577958 -0.00417312 0)
(0.579291 -0.00573036 0)
(0.581103 -0.00784846 0)
(0.583545 -0.0107322 0)
(0.586871 -0.0146634 0)
(0.591411 -0.0200287 0)
(0.597611 -0.0273734 0)
(0.606079 -0.0374336 0)
(0.617721 -0.0512918 0)
(0.633836 -0.07025 0)
(0.656365 -0.0963483 0)
(0.688707 -0.131258 0)
(0.580519 -8.93924e-05 0)
(0.578961 -0.000287346 0)
(0.574885 -0.000524778 0)
(0.574042 -0.000825313 0)
(0.575072 -0.0012182 0)
(0.575923 -0.00174143 0)
(0.576285 -0.00244454 0)
(0.576663 -0.00339382 0)
(0.577372 -0.00467973 0)
(0.578452 -0.00642565 0)
(0.579915 -0.00879964 0)
(0.581879 -0.01203 0)
(0.584548 -0.0164313 0)
(0.588184 -0.0224328 0)
(0.593139 -0.0306483 0)
(0.599867 -0.0418986 0)
(0.609137 -0.0574662 0)
(0.621886 -0.078815 0)
(0.640249 -0.108797 0)
(0.666776 -0.148719 0)
(0.580518 -9.6932e-05 0)
(0.578951 -0.000311351 0)
(0.574855 -0.000568407 0)
(0.573978 -0.000894118 0)
(0.574957 -0.00132017 0)
(0.575733 -0.00188738 0)
(0.57599 -0.0026493 0)
(0.576221 -0.00367794 0)
(0.576727 -0.00507143 0)
(0.577527 -0.00696312 0)
(0.578607 -0.00953448 0)
(0.580046 -0.0130311 0)
(0.581996 -0.0177916 0)
(0.584641 -0.0242736 0)
(0.588229 -0.0331415 0)
(0.593031 -0.0452694 0)
(0.599656 -0.0621088 0)
(0.6085 -0.0852946 0)
(0.622208 -0.118442 0)
(0.640381 -0.162675 0)
(0.580517 -0.000102075 0)
(0.578941 -0.000327694 0)
(0.574823 -0.000598082 0)
(0.57391 -0.000940953 0)
(0.574834 -0.00138968 0)
(0.57553 -0.00198693 0)
(0.575674 -0.00278897 0)
(0.575748 -0.00387175 0)
(0.576038 -0.00533866 0)
(0.57654 -0.00732976 0)
(0.577212 -0.0100355 0)
(0.578093 -0.013712 0)
(0.57928 -0.0187134 0)
(0.580874 -0.0255077 0)
(0.583014 -0.0347939 0)
(0.585776 -0.0474416 0)
(0.58951 -0.0650565 0)
(0.594175 -0.0893916 0)
(0.602127 -0.124528 0)
(0.610592 -0.173388 0)
(0.580516 -0.000104703 0)
(0.57893 -0.000335973 0)
(0.57479 -0.000613054 0)
(0.573839 -0.000964649 0)
(0.574706 -0.001425 0)
(0.575319 -0.00203762 0)
(0.575347 -0.00286009 0)
(0.575258 -0.00397046 0)
(0.575322 -0.0054749 0)
(0.575514 -0.00751675 0)
(0.575764 -0.010291 0)
(0.576066 -0.0140574 0)
(0.576468 -0.0191783 0)
(0.576983 -0.0261093 0)
(0.577645 -0.0355803 0)
(0.578328 -0.0483352 0)
(0.578997 -0.0662539 0)
(0.579544 -0.0906388 0)
(0.579593 -0.126745 0)
(0.581091 -0.18053 0)
(0.580515 -0.000104754 0)
(0.578919 -0.000335983 0)
(0.574757 -0.00061294 0)
(0.573767 -0.000964607 0)
(0.574576 -0.00142526 0)
(0.575106 -0.00203818 0)
(0.575015 -0.00286088 0)
(0.57476 -0.00397161 0)
(0.574597 -0.00547678 0)
(0.574476 -0.0075196 0)
(0.574297 -0.0102955 0)
(0.574016 -0.0140605 0)
(0.57363 -0.0191807 0)
(0.573064 -0.0260721 0)
(0.572284 -0.035514 0)
(0.570896 -0.0479094 0)
(0.56858 -0.0657949 0)
(0.565069 -0.0883014 0)
(0.554989 -0.125666 0)
(0.555433 -0.180135 0)
(0.580514 -0.000102228 0)
(0.578909 -0.000327722 0)
(0.574724 -0.000597732 0)
(0.573696 -0.000940812 0)
(0.574447 -0.00139043 0)
(0.574894 -0.00198857 0)
(0.574687 -0.00279128 0)
(0.574269 -0.00387508 0)
(0.573879 -0.00534418 0)
(0.573448 -0.0073382 0)
(0.572848 -0.010049 0)
(0.571989 -0.0137226 0)
(0.570836 -0.0187261 0)
(0.569205 -0.0254092 0)
(0.567102 -0.0346452 0)
(0.563645 -0.0461991 0)
(0.55899 -0.0639468 0)
(0.550804 -0.0815958 0)
(0.531183 -0.122573 0)
(0.532248 -0.162898 0)
(0.580513 -9.71904e-05 0)
(0.578898 -0.000311392 0)
(0.574692 -0.00056779 0)
(0.573627 -0.000893831 0)
(0.574324 -0.00132134 0)
(0.574691 -0.00188997 0)
(0.57437 -0.00265293 0)
(0.573795 -0.00368316 0)
(0.573188 -0.00508017 0)
(0.572458 -0.00697675 0)
(0.57145 -0.00955728 0)
(0.570033 -0.0130524 0)
(0.56815 -0.0178291 0)
(0.565479 -0.0241517 0)
(0.562259 -0.0330465 0)
(0.556652 -0.043351 0)
(0.551226 -0.0611593 0)
(0.536374 -0.070354 0)
(0.515322 -0.119505 0)
(0.504982 -0.117798 0)
(0.580512 -8.97716e-05 0)
(0.578889 -0.000287396 0)
(0.574662 -0.000523832 0)
(0.573563 -0.000824805 0)
(0.574208 -0.0012197 0)
(0.5745 -0.0017448 0)
(0.574074 -0.00244916 0)
(0.573351 -0.00340044 0)
(0.572539 -0.00469099 0)
(0.571527 -0.00644368 0)
(0.570137 -0.00883138 0)
(0.56819 -0.0120652 0)
(0.565631 -0.0165091 0)
(0.561946 -0.0223428 0)
(0.557873 -0.0307848 0)
(0.549874 -0.0396313 0)
(0.546288 -0.0579573 0)
(0.520848 -0.0558717 0)
(0.518804 -0.11964 0)
(0.46912 -0.0422497 0)
(0.580512 -8.01679e-05 0)
(0.57888 -0.000256323 0)
(0.574635 -0.000466912 0)
(0.573505 -0.000735411 0)
(0.574102 -0.00108799 0)
(0.574327 -0.00155661 0)
(0.573805 -0.00218496 0)
(0.572947 -0.00303377 0)
(0.571949 -0.00418592 0)
(0.57068 -0.00575151 0)
(0.568941 -0.00788734 0)
(0.566503 -0.010783 0)
(0.563329 -0.0147885 0)
(0.558656 -0.02003 0)
(0.553982 -0.0278837 0)
(0.543198 -0.0353903 0)
(0.544532 -0.0546528 0)
(0.502777 -0.0412266 0)
(0.550633 -0.126357 0)
(0.427022 0.0521044 0)
(0.580511 -6.86453e-05 0)
(0.578873 -0.000218939 0)
(0.574612 -0.000398414 0)
(0.573454 -0.000627845 0)
(0.57401 -0.00092942 0)
(0.574175 -0.00132993 0)
(0.573569 -0.0018667 0)
(0.572593 -0.00259202 0)
(0.571432 -0.00357707 0)
(0.569937 -0.00491661 0)
(0.56789 -0.00674625 0)
(0.565014 -0.00923325 0)
(0.56129 -0.0126925 0)
(0.555678 -0.0172573 0)
(0.550514 -0.0242964 0)
(0.536602 -0.030957 0)
(0.54482 -0.0508567 0)
(0.481262 -0.0311576 0)
(0.607717 -0.142398 0)
(0.376456 0.155032 0)
(0.58051 -5.55506e-05 0)
(0.578867 -0.0001761 0)
(0.574593 -0.000320024 0)
(0.573411 -0.000504951 0)
(0.573933 -0.000748103 0)
(0.57405 -0.00107044 0)
(0.573373 -0.00150224 0)
(0.572299 -0.00208602 0)
(0.571002 -0.00287928 0)
(0.569318 -0.00395905 0)
(0.567011 -0.0054346 0)
(0.563765 -0.00744978 0)
(0.559553 -0.0102556 0)
(0.553114 -0.0140581 0)
(0.547304 -0.0199355 0)
(0.530449 -0.026401 0)
(0.543731 -0.045162 0)
(0.458096 -0.0307565 0)
(0.669751 -0.167557 0)
(0.308205 0.225028 0)
(0.58051 -4.14674e-05 0)
(0.578863 -0.00012859 0)
(0.574578 -0.000233126 0)
(0.573378 -0.000369443 0)
(0.573873 -0.000548487 0)
(0.573952 -0.000784669 0)
(0.573222 -0.00110066 0)
(0.572072 -0.00152831 0)
(0.570669 -0.00210978 0)
(0.568838 -0.00290216 0)
(0.566328 -0.0039844 0)
(0.562795 -0.00547241 0)
(0.558162 -0.00753183 0)
(0.551102 -0.010451 0)
(0.544221 -0.0147932 0)
(0.525623 -0.0211952 0)
(0.536376 -0.0362656 0)
(0.441482 -0.0388391 0)
(0.6908 -0.196499 0)
(0.194665 0.322258 0)
(0.580511 -2.74362e-05 0)
(0.578862 -7.85843e-05 0)
(0.574569 -0.000140263 0)
(0.573356 -0.00022418 0)
(0.573833 -0.000334721 0)
(0.573887 -0.000479105 0)
(0.57312 -0.000671589 0)
(0.571918 -0.000932403 0)
(0.570442 -0.00128734 0)
(0.568512 -0.00177168 0)
(0.565859 -0.00243209 0)
(0.562135 -0.00334761 0)
(0.557175 -0.00459692 0)
(0.549755 -0.00647347 0)
(0.541477 -0.00901507 0)
(0.522662 -0.0144048 0)
(0.521788 -0.0232838 0)
(0.435939 -0.0480406 0)
(0.616813 -0.181859 0)
(0.0526572 0.191022 0)
(0.580512 -1.02911e-05 0)
(0.578864 -2.66917e-05 0)
(0.574566 -4.64169e-05 0)
(0.573345 -7.47666e-05 0)
(0.573813 -0.000112393 0)
(0.573854 -0.00016106 0)
(0.573068 -0.00022565 0)
(0.571838 -0.000313237 0)
(0.570325 -0.000432541 0)
(0.568343 -0.000595516 0)
(0.565615 -0.000817392 0)
(0.561796 -0.00112682 0)
(0.556641 -0.00154391 0)
(0.54911 -0.0021964 0)
(0.539658 -0.00300955 0)
(0.521632 -0.00518399 0)
(0.50523 -0.0081085 0)
(0.431874 -0.0247391 0)
(0.410545 -0.0919409 0)
(-0.253355 0.396949 0)
(0.803148 -0.0171825 0)
(0.881258 -0.0222369 0)
(0.981227 -0.0280596 0)
(1.10575 -0.0344359 0)
(1.25651 -0.0410896 0)
(1.43414 -0.0476662 0)
(1.6378 -0.0537466 0)
(1.86443 -0.0588943 0)
(0.798515 -0.0513481 0)
(0.875811 -0.0665547 0)
(0.9751 -0.0840642 0)
(1.09905 -0.103176 0)
(1.24989 -0.123263 0)
(1.42874 -0.143564 0)
(1.63359 -0.162531 0)
(1.85916 -0.178055 0)
(0.789401 -0.0849064 0)
(0.86506 -0.110354 0)
(0.962778 -0.139573 0)
(1.08629 -0.171803 0)
(1.23846 -0.20638 0)
(1.41666 -0.240679 0)
(1.61481 -0.270293 0)
(1.83095 -0.292317 0)
(0.775751 -0.117408 0)
(0.848532 -0.153119 0)
(0.944524 -0.194591 0)
(1.06904 -0.241209 0)
(1.21785 -0.289179 0)
(1.38258 -0.332316 0)
(1.57115 -0.368919 0)
(1.80609 -0.402413 0)
(0.757266 -0.148223 0)
(0.826167 -0.194704 0)
(0.922433 -0.249918 0)
(1.04268 -0.308806 0)
(1.17207 -0.363038 0)
(1.3296 -0.415717 0)
(1.56822 -0.479157 0)
(1.91552 -0.554128 0)
(0.733341 -0.176825 0)
(0.800038 -0.235888 0)
(0.894112 -0.30308 0)
(0.991415 -0.365673 0)
(1.11001 -0.430636 0)
(1.34158 -0.527801 0)
(1.73746 -0.659994 0)
(2.24808 -0.790736 0)
(0.704795 -0.203641 0)
(0.771419 -0.275575 0)
(0.845392 -0.345491 0)
(0.918484 -0.414694 0)
(1.11369 -0.535345 0)
(1.53225 -0.728664 0)
(2.10735 -0.93387 0)
(2.70549 -1.08224 0)
(0.674743 -0.229079 0)
(0.732071 -0.307114 0)
(0.767249 -0.375239 0)
(0.889316 -0.496042 0)
(1.2842 -0.73683 0)
(1.90066 -1.02739 0)
(2.55488 -1.25242 0)
(3.11025 -1.3591 0)
(0.643681 -0.249848 0)
(0.665609 -0.323719 0)
(0.694847 -0.419524 0)
(1.00066 -0.671165 0)
(1.62141 -1.04406 0)
(2.32941 -1.37025 0)
(2.92795 -1.54525 0)
(3.34087 -1.56724 0)
(0.602274 -0.258207 0)
(0.571113 -0.333374 0)
(0.714191 -0.536415 0)
(1.27576 -0.962463 0)
(2.02691 -1.40707 0)
(2.68863 -1.68752 0)
(3.13259 -1.76154 0)
(3.3677 -1.68736 0)
(0.534025 -0.249509 0)
(0.49387 -0.371818 0)
(0.886038 -0.771517 0)
(1.6448 -1.33334 0)
(2.38742 -1.7572 0)
(2.89677 -1.92756 0)
(3.14926 -1.88367 0)
(3.23569 -1.73421 0)
(0.432032 -0.233695 0)
(0.516337 -0.498764 0)
(1.18332 -1.11608 0)
(2.01011 -1.71976 0)
(2.62425 -2.03833 0)
(2.93191 -2.06935 0)
(3.01803 -1.92617 0)
(3.02871 -1.74531 0)
(0.321564 -0.242275 0)
(0.677689 -0.755623 0)
(1.53167 -1.52209 0)
(2.29237 -2.06021 0)
(2.70502 -2.22018 0)
(2.82194 -2.12269 0)
(2.8113 -1.92555 0)
(2.8277 -1.7628 0)
(0.270489 -0.322174 0)
(0.942187 -1.12504 0)
(1.85634 -1.92867 0)
(2.44554 -2.31155 0)
(2.63992 -2.30138 0)
(2.62558 -2.11994 0)
(2.60097 -1.9228 0)
(2.67658 -1.81557 0)
(0.333428 -0.505924 0)
(1.25234 -1.55362 0)
(2.10059 -2.27895 0)
(2.45718 -2.45486 0)
(2.47143 -2.30532 0)
(2.40756 -2.10112 0)
(2.43021 -1.94456 0)
(2.57063 -1.90903 0)
(0.497628 -0.797091 0)
(1.5553 -1.98417 0)
(2.22822 -2.53123 0)
(2.34534 -2.49688 0)
(2.25865 -2.27059 0)
(2.21441 -2.09788 0)
(2.30387 -1.99396 0)
(2.47118 -2.02507 0)
(0.731886 -1.1907 0)
(1.80431 -2.36797 0)
(2.22186 -2.66657 0)
(2.15303 -2.46778 0)
(2.05615 -2.23709 0)
(2.06112 -2.12422 0)
(2.20197 -2.05893 0)
(2.33554 -2.13657 0)
(1.00501 -1.68686 0)
(1.95789 -2.67481 0)
(2.08886 -2.695 0)
(1.93889 -2.41183 0)
(1.89339 -2.23007 0)
(1.9355 -2.17485 0)
(2.09914 -2.12515 0)
(2.14103 -2.23798 0)
(1.27529 -2.2885 0)
(1.98607 -2.87533 0)
(1.8719 -2.65124 0)
(1.75925 -2.36878 0)
(1.7673 -2.2493 0)
(1.8159 -2.22633 0)
(1.96693 -2.17163 0)
(1.87508 -2.34669 0)
(1.49603 -2.89907 0)
(1.88907 -2.92469 0)
(1.64534 -2.58634 0)
(1.64316 -2.35426 0)
(1.65626 -2.27351 0)
(1.69147 -2.24672 0)
(1.77236 -2.16235 0)
(1.50779 -2.4017 0)
(2.10869 -0.0627165 0)
(2.36387 -0.0649708 0)
(2.6233 -0.0656995 0)
(2.88158 -0.0652504 0)
(3.13541 -0.0641373 0)
(3.38371 -0.0628596 0)
(3.62721 -0.0617823 0)
(3.86768 -0.0610811 0)
(4.10714 -0.0607383 0)
(4.34706 -0.060578 0)
(4.58789 -0.0603297 0)
(4.8287 -0.0596915 0)
(5.06722 -0.0583765 0)
(5.29998 -0.0561398 0)
(5.52256 -0.0527922 0)
(5.72986 -0.0482116 0)
(5.91642 -0.0423551 0)
(6.0768 -0.0352701 0)
(6.20593 -0.0271001 0)
(6.29953 -0.0180773 0)
(6.35439 -0.00852666 0)
(6.36862 0.00122064 0)
(6.34154 0.0110323 0)
(6.27451 0.0206903 0)
(6.16714 0.029489 0)
(6.02898 0.0394625 0)
(5.8293 0.047991 0)
(5.66925 0.0816372 0)
(2.09926 -0.188487 0)
(2.34862 -0.193376 0)
(2.60306 -0.193532 0)
(2.85925 -0.190581 0)
(3.11484 -0.186334 0)
(3.36887 -0.182309 0)
(3.62167 -0.179495 0)
(3.87452 -0.178281 0)
(4.12888 -0.178463 0)
(4.38567 -0.179367 0)
(4.64465 -0.180037 0)
(4.90418 -0.179436 0)
(5.16122 -0.176591 0)
(5.41158 -0.170678 0)
(5.65019 -0.161075 0)
(5.87149 -0.147391 0)
(6.06973 -0.129504 0)
(6.23928 -0.107583 0)
(6.37503 -0.0820977 0)
(6.47273 -0.0537847 0)
(6.52918 -0.0236124 0)
(6.54268 0.00726709 0)
(6.51351 0.0379047 0)
(6.44258 0.0674624 0)
(6.3322 0.0948397 0)
(6.18429 0.122728 0)
(6.00964 0.150436 0)
(5.7977 0.21202 0)
(2.06841 -0.306655 0)
(2.3298 -0.314589 0)
(2.61212 -0.317597 0)
(2.90775 -0.317237 0)
(3.20836 -0.3152 0)
(3.50793 -0.313118 0)
(3.80357 -0.312248 0)
(4.09481 -0.313139 0)
(4.38235 -0.315466 0)
(4.66671 -0.318137 0)
(4.94748 -0.319607 0)
(5.22302 -0.318222 0)
(5.49052 -0.312477 0)
(5.74637 -0.301157 0)
(5.98641 -0.283398 0)
(6.20617 -0.258722 0)
(6.40103 -0.227062 0)
(6.56644 -0.188789 0)
(6.69816 -0.144716 0)
(6.79254 -0.0960464 0)
(6.84682 -0.04428 0)
(6.85934 0.00885935 0)
(6.82896 0.0614912 0)
(6.75629 0.112097 0)
(6.64386 0.159561 0)
(6.49495 0.204389 0)
(6.31987 0.24962 0)
(6.12453 0.300281 0)
(2.10105 -0.43425 0)
(2.44709 -0.460934 0)
(2.81991 -0.478227 0)
(3.19462 -0.485179 0)
(3.55441 -0.484204 0)
(3.89176 -0.479149 0)
(4.20598 -0.473486 0)
(4.49998 -0.469237 0)
(4.77773 -0.46667 0)
(5.04265 -0.464618 0)
(5.29678 -0.461121 0)
(5.54085 -0.45404 0)
(5.77446 -0.441469 0)
(5.99634 -0.42191 0)
(6.20445 -0.394306 0)
(6.39592 -0.358032 0)
(6.56715 -0.312929 0)
(6.71399 -0.259374 0)
(6.83219 -0.19832 0)
(6.91789 -0.131277 0)
(6.96812 -0.0601875 0)
(6.98101 0.0128695 0)
(6.95521 0.0856494 0)
(6.89125 0.155963 0)
(6.7913 0.222006 0)
(6.65925 0.282889 0)
(6.5021 0.339177 0)
(6.32976 0.388255 0)
(2.34562 -0.624437 0)
(2.8056 -0.672465 0)
(3.24876 -0.691823 0)
(3.64852 -0.687176 0)
(3.99681 -0.6681 0)
(4.29716 -0.643929 0)
(4.55845 -0.621285 0)
(4.79082 -0.603381 0)
(5.00347 -0.590389 0)
(5.20372 -0.580434 0)
(5.39688 -0.570715 0)
(5.58647 -0.558371 0)
(5.77426 -0.540913 0)
(5.96013 -0.516287 0)
(6.14191 -0.482811 0)
(6.31552 -0.439206 0)
(6.47547 -0.384759 0)
(6.61571 -0.319538 0)
(6.73038 -0.244522 0)
(6.81453 -0.161569 0)
(6.86453 -0.0732329 0)
(6.87851 0.0175656 0)
(6.85689 0.108026 0)
(6.80076 0.1952 0)
(6.71283 0.27657 0)
(6.5975 0.350285 0)
(6.46118 0.414977 0)
(6.3121 0.467225 0)
(2.78383 -0.88162 0)
(3.27481 -0.917627 0)
(3.68736 -0.906332 0)
(4.01699 -0.865746 0)
(4.27551 -0.813748 0)
(4.48063 -0.763366 0)
(4.65012 -0.722009 0)
(4.79952 -0.692145 0)
(4.94146 -0.672607 0)
(5.08573 -0.660174 0)
(5.23919 -0.650895 0)
(5.40533 -0.640829 0)
(5.5837 -0.626247 0)
(5.77004 -0.603659 0)
(5.95736 -0.569984 0)
(6.13754 -0.522908 0)
(6.30266 -0.461255 0)
(6.44585 -0.38519 0)
(6.56159 -0.296204 0)
(6.64575 -0.196893 0)
(6.69558 -0.0906182 0)
(6.70972 0.0187055 0)
(6.68842 0.127168 0)
(6.63296 0.230957 0)
(6.5466 0.3267 0)
(6.43446 0.411636 0)
(6.30343 0.483503 0)
(6.1612 0.539048 0)
(3.2295 -1.14512 0)
(3.63931 -1.1311 0)
(3.9365 -1.06752 0)
(4.14383 -0.98326 0)
(4.28988 -0.899751 0)
(4.40069 -0.829642 0)
(4.49732 -0.778544 0)
(4.59625 -0.746869 0)
(4.71009 -0.731581 0)
(4.84706 -0.727721 0)
(5.00952 -0.729314 0)
(5.19304 -0.729889 0)
(5.38789 -0.723112 0)
(5.58265 -0.70364 0)
(5.76759 -0.667789 0)
(5.93603 -0.613738 0)
(6.08393 -0.541354 0)
(6.20861 -0.451877 0)
(6.30791 -0.347679 0)
(6.37987 -0.232026 0)
(6.42296 -0.108786 0)
(6.43624 0.0179112 0)
(6.41818 0.14363 0)
(6.36911 0.263891 0)
(6.29118 0.374289 0)
(6.18833 0.470921 0)
(6.06618 0.550662 0)
(5.93105 0.610397 0)
(3.5161 -1.35407 0)
(3.78169 -1.27313 0)
(3.94303 -1.15754 0)
(4.04077 -1.03969 0)
(4.10922 -0.93876 0)
(4.17318 -0.863793 0)
(4.24984 -0.817271 0)
(4.35119 -0.797049 0)
(4.48356 -0.797494 0)
(4.64492 -0.810191 0)
(4.82389 -0.824929 0)
(5.00424 -0.83178 0)
(5.17238 -0.823481 0)
(5.32214 -0.796405 0)
(5.45402 -0.749715 0)
(5.57116 -0.683916 0)
(5.67565 -0.59991 0)
(5.76705 -0.498943 0)
(5.84287 -0.383018 0)
(5.89993 -0.255167 0)
(5.93558 -0.119331 0)
(5.94835 0.0201758 0)
(5.93763 0.158925 0)
(5.90338 0.29199 0)
(5.84665 0.414362 0)
(5.76961 0.521386 0)
(5.67549 0.60927 0)
(5.56774 0.674973 0)
(3.58402 -1.48143 0)
(3.71121 -1.34165 0)
(3.777 -1.1926 0)
(3.82276 -1.06207 0)
(3.87463 -0.962441 0)
(3.94639 -0.8976 0)
(4.04461 -0.866696 0)
(4.17006 -0.864286 0)
(4.31429 -0.880059 0)
(4.45914 -0.9002 0)
(4.58527 -0.911595 0)
(4.68406 -0.906546 0)
(4.76131 -0.883742 0)
(4.8304 -0.84508 0)
(4.90246 -0.791778 0)
(4.98106 -0.723023 0)
(5.06285 -0.636971 0)
(5.14098 -0.53257 0)
(5.20844 -0.410797 0)
(5.25991 -0.274773 0)
(5.29226 -0.129105 0)
(5.30439 0.0208088 0)
(5.29749 0.16986 0)
(5.27228 0.312466 0)
(5.23079 0.443236 0)
(5.17597 0.557334 0)
(5.11098 0.651105 0)
(5.03793 0.722233 0)
(3.47111 -1.53629 0)
(3.51911 -1.36445 0)
(3.55963 -1.20845 0)
(3.61603 -1.08538 0)
(3.69477 -0.998964 0)
(3.79222 -0.948631 0)
(3.89987 -0.930458 0)
(4.00258 -0.934323 0)
(4.07854 -0.944813 0)
(4.11226 -0.947806 0)
(4.11056 -0.937873 0)
(4.10054 -0.91838 0)
(4.1101 -0.893973 0)
(4.15114 -0.864034 0)
(4.21814 -0.822496 0)
(4.29729 -0.762258 0)
(4.37548 -0.678799 0)
(4.44405 -0.571433 0)
(4.49861 -0.442889 0)
(4.53774 -0.298101 0)
(4.56162 -0.142902 0)
(4.5711 0.0168708 0)
(4.56568 0.17532 0)
(4.54522 0.326502 0)
(4.5117 0.464134 0)
(4.46899 0.582721 0)
(4.42206 0.678975 0)
(4.37466 0.752092 0)
(3.26958 -1.5533 0)
(3.3153 -1.38125 0)
(3.38856 -1.23811 0)
(3.48271 -1.12913 0)
(3.58049 -1.05126 0)
(3.66064 -1.00192 0)
(3.70107 -0.974511 0)
(3.68052 -0.956032 0)
(3.59537 -0.935492 0)
(3.47933 -0.91408 0)
(3.38931 -0.901868 0)
(3.36284 -0.902852 0)
(3.39572 -0.907274 0)
(3.45859 -0.899121 0)
(3.5239 -0.866266 0)
(3.5777 -0.804119 0)
(3.61727 -0.713325 0)
(3.64484 -0.597189 0)
(3.6634 -0.460513 0)
(3.67553 -0.308953 0)
(3.6835 -0.14832 0)
(3.68914 0.016429 0)
(3.6913 0.17987 0)
(3.68727 0.336519 0)
(3.67487 0.479091 0)
(3.65476 0.600566 0)
(3.63114 0.697091 0)
(3.60936 0.768949 0)
(3.07365 -1.57288 0)
(3.17095 -1.42075 0)
(3.28976 -1.29172 0)
(3.39298 -1.18338 0)
(3.44385 -1.09003 0)
(3.41218 -1.01117 0)
(3.28017 -0.941851 0)
(3.06274 -0.880106 0)
(2.8308 -0.839908 0)
(2.6782 -0.840728 0)
(2.64116 -0.878467 0)
(2.67745 -0.922762 0)
(2.72495 -0.94409 0)
(2.74994 -0.930999 0)
(2.74937 -0.884906 0)
(2.73309 -0.811171 0)
(2.71126 -0.713449 0)
(2.68997 -0.594199 0)
(2.67191 -0.45671 0)
(2.65862 -0.305678 0)
(2.65168 -0.146564 0)
(2.65337 0.0161681 0)
(2.66516 0.178441 0)
(2.68371 0.335721 0)
(2.70344 0.480322 0)
(2.72025 0.603639 0)
(2.73441 0.700288 0)
(2.74971 0.770362 0)
(2.93657 -1.62093 0)
(3.09139 -1.48613 0)
(3.21472 -1.35049 0)
(3.24653 -1.21023 0)
(3.14572 -1.06267 0)
(2.90035 -0.919936 0)
(2.54762 -0.796082 0)
(2.20328 -0.725363 0)
(2.00445 -0.741093 0)
(1.97196 -0.822179 0)
(2.00706 -0.904932 0)
(2.01998 -0.947325 0)
(1.98598 -0.945574 0)
(1.92006 -0.912837 0)
(1.84307 -0.857836 0)
(1.76738 -0.783874 0)
(1.69898 -0.689599 0)
(1.64039 -0.574508 0)
(1.59312 -0.441166 0)
(1.55857 -0.294765 0)
(1.53929 -0.141664 0)
(1.53666 0.0141039 0)
(1.55275 0.169567 0)
(1.58672 0.321844 0)
(1.63371 0.463797 0)
(1.6878 0.586083 0)
(1.74548 0.681909 0)
(1.80663 0.750379 0)
(2.8569 -1.70122 0)
(3.02685 -1.55702 0)
(3.06852 -1.3724 0)
(2.91545 -1.15416 0)
(2.56609 -0.914993 0)
(2.08142 -0.705318 0)
(1.62797 -0.585122 0)
(1.39321 -0.60939 0)
(1.36884 -0.731687 0)
(1.38829 -0.846829 0)
(1.35282 -0.904516 0)
(1.25951 -0.912965 0)
(1.13709 -0.893427 0)
(1.00763 -0.857885 0)
(0.879494 -0.805855 0)
(0.756937 -0.736166 0)
(0.645525 -0.64626 0)
(0.549699 -0.536144 0)
(0.473397 -0.408957 0)
(0.41891 -0.270565 0)
(0.391345 -0.127627 0)
(0.385589 0.0165439 0)
(0.402221 0.161004 0)
(0.446273 0.302687 0)
(0.513865 0.435486 0)
(0.599776 0.550812 0)
(0.698805 0.64165 0)
(0.807303 0.706493 0)
(2.79542 -1.79801 0)
(2.89918 -1.59535 0)
(2.74403 -1.29815 0)
(2.29579 -0.960805 0)
(1.69698 -0.632686 0)
(1.12772 -0.440223 0)
(0.863765 -0.455699 0)
(0.844714 -0.607923 0)
(0.833867 -0.744049 0)
(0.744476 -0.81654 0)
(0.602344 -0.840569 0)
(0.437114 -0.837114 0)
(0.262126 -0.815853 0)
(0.0837876 -0.779951 0)
(-0.0949755 -0.73029 0)
(-0.265059 -0.664241 0)
(-0.418464 -0.581249 0)
(-0.549386 -0.480909 0)
(-0.652485 -0.366006 0)
(-0.724407 -0.241482 0)
(-0.764548 -0.112065 0)
(-0.775028 0.0186295 0)
(-0.754676 0.150115 0)
(-0.700596 0.277378 0)
(-0.614489 0.396052 0)
(-0.500069 0.499099 0)
(-0.363264 0.580565 0)
(-0.210536 0.639089 0)
(2.70209 -1.86753 0)
(2.61976 -1.54072 0)
(2.16096 -1.06451 0)
(1.37705 -0.620997 0)
(0.748889 -0.302603 0)
(0.417041 -0.300643 0)
(0.421522 -0.459273 0)
(0.36492 -0.600343 0)
(0.226868 -0.685082 0)
(0.044058 -0.731618 0)
(-0.158645 -0.747429 0)
(-0.376685 -0.738456 0)
(-0.602559 -0.713526 0)
(-0.829284 -0.677609 0)
(-1.05167 -0.632373 0)
(-1.26137 -0.57363 0)
(-1.45118 -0.501401 0)
(-1.6138 -0.415031 0)
(-1.74317 -0.316299 0)
(-1.8352 -0.208861 0)
(-1.88781 -0.0969567 0)
(-1.90076 0.0165122 0)
(-1.87541 0.130115 0)
(-1.80968 0.239613 0)
(-1.70472 0.340893 0)
(-1.56423 0.428438 0)
(-1.39491 0.497829 0)
(-1.2049 0.548243 0)
(2.5355 -1.82588 0)
(2.09058 -1.32015 0)
(1.32334 -0.653411 0)
(0.337226 -0.245557 0)
(0.159515 -0.129223 0)
(0.0693399 -0.308758 0)
(0.020694 -0.427369 0)
(-0.169702 -0.518179 0)
(-0.380829 -0.585161 0)
(-0.626722 -0.619867 0)
(-0.890341 -0.626631 0)
(-1.16099 -0.613711 0)
(-1.43192 -0.589022 0)
(-1.69846 -0.556169 0)
(-1.95582 -0.516024 0)
(-2.19727 -0.466491 0)
(-2.41544 -0.406824 0)
(-2.6029 -0.336577 0)
(-2.75296 -0.256877 0)
(-2.86069 -0.170217 0)
(-2.92303 -0.0796246 0)
(-2.93869 0.012317 0)
(-2.90856 0.103464 0)
(-2.83225 0.191303 0)
(-2.71151 0.272267 0)
(-2.55087 0.342197 0)
(-2.35776 0.398016 0)
(-2.14097 0.439318 0)
(2.27354 -1.6023 0)
(1.19963 -0.909678 0)
(0.40978 -0.168739 0)
(-0.350959 -0.0954521 0)
(-0.00702297 -0.162911 0)
(-0.259354 -0.244942 0)
(-0.397236 -0.335732 0)
(-0.645273 -0.405611 0)
(-0.927304 -0.453273 0)
(-1.23815 -0.47612 0)
(-1.55889 -0.478573 0)
(-1.87941 -0.466135 0)
(-2.19261 -0.444624 0)
(-2.49423 -0.417259 0)
(-2.78021 -0.3848 0)
(-3.0453 -0.346194 0)
(-3.28319 -0.300789 0)
(-3.48709 -0.248272 0)
(-3.6506 -0.189341 0)
(-3.76852 -0.125614 0)
(-3.83728 -0.059102 0)
(-3.8551 0.00829467 0)
(-3.82243 0.074715 0)
(-3.73961 0.138652 0)
(-3.60925 0.197443 0)
(-3.43654 0.248275 0)
(-3.22918 0.289137 0)
(-2.99588 0.3198 0)
(1.93183 -1.26176 0)
(-0.105961 -0.401139 0)
(-0.114918 0.132915 0)
(-0.434533 -0.12642 0)
(-0.298972 -0.111897 0)
(-0.521266 -0.158992 0)
(-0.719613 -0.217829 0)
(-1.02422 -0.260059 0)
(-1.3656 -0.289504 0)
(-1.73499 -0.303318 0)
(-2.11098 -0.304133 0)
(-2.48128 -0.295587 0)
(-2.83752 -0.281203 0)
(-3.17487 -0.263062 0)
(-3.48936 -0.241753 0)
(-3.77653 -0.216856 0)
(-4.03112 -0.187984 0)
(-4.24738 -0.154985 0)
(-4.41987 -0.118269 0)
(-4.54411 -0.0787921 0)
(-4.61695 -0.0377829 0)
(-4.63682 0.00365036 0)
(-4.60398 0.0446782 0)
(-4.51869 0.0837182 0)
(-4.38411 0.119503 0)
(-4.20568 0.150428 0)
(-3.99102 0.175399 0)
(-3.7486 0.194335 0)
(1.62516 -0.862823 0)
(-1.37186 -0.0170999 0)
(0.209453 0.117185 0)
(-0.517537 -0.0597216 0)
(-0.409434 -0.0414834 0)
(-0.673789 -0.056854 0)
(-0.905631 -0.076191 0)
(-1.24604 -0.0908045 0)
(-1.62778 -0.100754 0)
(-2.03961 -0.1054 0)
(-2.45864 -0.105539 0)
(-2.8709 -0.10239 0)
(-3.26663 -0.0971578 0)
(-3.63998 -0.0905709 0)
(-3.98645 -0.0828624 0)
(-4.30147 -0.0739465 0)
(-4.5798 -0.0637236 0)
(-4.81583 -0.0521751 0)
(-5.00423 -0.0394659 0)
(-5.14062 -0.0259411 0)
(-5.22186 -0.0120375 0)
(-5.24638 0.00192081 0)
(-5.21523 0.0158682 0)
(-5.13077 0.0288966 0)
(-4.99569 0.0408135 0)
(-4.81574 0.0511007 0)
(-4.59847 0.0594326 0)
(-4.35221 0.0658006 0)
(5.19991 0.187818 0)
(4.86042 0.193043 0)
(4.6978 0.0773419 0)
(4.68499 -0.216502 0)
(4.6978 -0.734303 0)
(4.33038 -1.44228 0)
(3.29645 -1.884 0)
(1.23472 -1.73391 0)
(5.73217 0.337987 0)
(5.71271 0.350106 0)
(5.65589 0.201073 0)
(5.51011 -0.120136 0)
(5.18543 -0.580526 0)
(4.50911 -1.05594 0)
(3.45608 -1.22175 0)
(1.96746 -0.921993 0)
(5.95739 0.358887 0)
(5.84583 0.34209 0)
(5.73223 0.203591 0)
(5.5262 -0.0456455 0)
(5.15761 -0.355389 0)
(4.53266 -0.624923 0)
(3.66697 -0.64464 0)
(2.52811 -0.304176 0)
(6.15749 0.42369 0)
(5.99968 0.405903 0)
(5.83256 0.304963 0)
(5.59592 0.131045 0)
(5.22498 -0.0773211 0)
(4.66156 -0.238724 0)
(3.93706 -0.181121 0)
(3.05419 0.151269 0)
(6.15975 0.500703 0)
(6.00637 0.491897 0)
(5.83008 0.419281 0)
(5.58622 0.289899 0)
(5.23083 0.147093 0)
(4.73523 0.0654162 0)
(4.12715 0.176933 0)
(3.44973 0.49013 0)
(6.01468 0.5729 0)
(5.86312 0.57108 0)
(5.68766 0.521358 0)
(5.45408 0.43391 0)
(5.13126 0.350158 0)
(4.70612 0.330177 0)
(4.20311 0.466466 0)
(3.701 0.758279 0)
(5.78801 0.646233 0)
(5.63622 0.651241 0)
(5.46248 0.621536 0)
(5.24292 0.569404 0)
(4.95552 0.529785 0)
(4.59724 0.548781 0)
(4.18582 0.696001 0)
(3.82402 0.962132 0)
(5.44846 0.715962 0)
(5.31564 0.729743 0)
(5.15974 0.717628 0)
(4.96524 0.692441 0)
(4.71813 0.683386 0)
(4.42354 0.72644 0)
(4.09172 0.873376 0)
(3.84068 1.11113 0)
(4.9563 0.769607 0)
(4.86171 0.793361 0)
(4.74489 0.797394 0)
(4.59444 0.794081 0)
(4.40119 0.807768 0)
(4.17572 0.866367 0)
(3.92085 1.00692 0)
(3.76365 1.21633 0)
(4.32676 0.803119 0)
(4.27333 0.83456 0)
(4.20473 0.851867 0)
(4.11083 0.866394 0)
(3.98369 0.897805 0)
(3.83588 0.967069 0)
(3.662 1.09926 0)
(3.59362 1.2833 0)
(3.59204 0.819538 0)
(3.57661 0.854014 0)
(3.55536 0.879437 0)
(3.51992 0.90629 0)
(3.46253 0.950065 0)
(3.39607 1.02599 0)
(3.30622 1.14934 0)
(3.32657 1.31275 0)
(2.76972 0.818698 0)
(2.7946 0.852754 0)
(2.82 0.881291 0)
(2.84082 0.914493 0)
(2.85047 0.96473 0)
(2.86274 1.04303 0)
(2.85488 1.15668 0)
(2.96228 1.30417 0)
(1.87259 0.796494 0)
(1.94385 0.82893 0)
(2.01822 0.857593 0)
(2.09397 0.892599 0)
(2.1663 0.944203 0)
(2.2514 1.02076 0)
(2.31912 1.12309 0)
(2.50774 1.25808 0)
(0.922781 0.749798 0)
(1.04408 0.780246 0)
(1.16931 0.807758 0)
(1.29902 0.841977 0)
(1.42956 0.891413 0)
(1.58098 0.962923 0)
(1.71558 1.05238 0)
(1.97665 1.1764 0)
(-0.0476193 0.678405 0)
(0.122472 0.706445 0)
(0.296452 0.732091 0)
(0.477217 0.764096 0)
(0.660687 0.809674 0)
(0.87135 0.873684 0)
(1.06241 0.949144 0)
(1.38702 1.06199 0)
(-1.00169 0.583028 0)
(-0.790403 0.608697 0)
(-0.573556 0.632739 0)
(-0.349824 0.66217 0)
(-0.121767 0.701386 0)
(0.147368 0.757704 0)
(0.379053 0.819997 0)
(0.760054 0.918039 0)
(-1.90858 0.46873 0)
(-1.66608 0.491056 0)
(-1.41555 0.511853 0)
(-1.15611 0.536348 0)
(-0.883898 0.56938 0)
(-0.591495 0.616784 0)
(-0.317655 0.665565 0)
(0.124995 0.749879 0)
(-2.74455 0.342072 0)
(-2.48068 0.35935 0)
(-2.20668 0.3759 0)
(-1.92229 0.396239 0)
(-1.62497 0.423923 0)
(-1.31008 0.458803 0)
(-0.959624 0.49572 0)
(-0.515701 0.548883 0)
(-3.48607 0.208333 0)
(-3.2087 0.219434 0)
(-2.91866 0.230184 0)
(-2.615 0.242969 0)
(-2.29384 0.258635 0)
(-1.94707 0.27583 0)
(-1.56118 0.295947 0)
(-1.14274 0.320444 0)
(-4.08447 0.0705738 0)
(-3.80048 0.0744233 0)
(-3.50242 0.078193 0)
(-3.18969 0.0826914 0)
(-2.85927 0.088294 0)
(-2.50458 0.095093 0)
(-2.11699 0.104639 0)
(-1.70187 0.116076 0)
(-0.196733 -0.324454 0)
(1.42377 0.622085 0)
(2.61819 1.27701 0)
(3.22907 1.74504 5.30423e-17)
(3.71788 1.91212 3.01416e-18)
(4.26257 1.7138 0)