/*--------------------------------*- C++ -*----------------------------------*\
| =========                 |                                                 |
| \\      /  F ield         | OpenFOAM: The Open Source CFD Toolbox           |
|  \\    /   O peration     | Version:  2.4.0                                 |
|   \\  /    A nd           | Web:      www.OpenFOAM.org                      |
|    \\/     M anipulation  |                                                 |
\*---------------------------------------------------------------------------*/
FoamFile
{
    version     2.0;
    format      ascii;
    class       volScalarField;
    location    "2.26";
    object      nut;
}
// * * * * * * * * * * * * * * * * * * * * * * * * * * * * * * * * * * * * * //

dimensions      [0 2 -1 0 0 0 0];

internalField   nonuniform List<scalar> 
6000
(
4.7016e-05
1.44331e-05
4.26527e-06
8.77066e-06
7.79516e-06
8.94857e-06
8.61166e-06
8.99817e-06
8.89878e-06
9.19518e-06
9.42577e-06
9.84261e-06
9.96462e-06
9.50189e-06
7.8639e-06
5.30803e-06
5.29293e-06
7.97101e-06
9.07792e-06
8.16042e-06
9.21668e-06
1.69412e-05
2.48511e-05
3.2074e-05
3.81684e-05
4.29362e-05
4.6286e-05
4.81243e-05
4.82839e-05
4.65525e-05
4.27534e-05
3.67331e-05
2.83201e-05
1.73642e-05
1.19209e-05
2.0407e-05
2.58663e-05
2.89148e-05
3.01819e-05
3.01971e-05
2.94221e-05
2.82345e-05
2.69177e-05
2.56863e-05
2.46987e-05
2.40622e-05
2.38129e-05
2.3951e-05
2.44016e-05
2.51538e-05
2.60298e-05
2.71509e-05
2.80874e-05
2.94315e-05
2.99593e-05
3.17218e-05
3.10776e-05
3.42397e-05
3.11415e-05
3.71545e-05
2.94901e-05
9.49979e-06
3.18395e-06
7.01231e-06
6.32896e-06
7.03481e-06
6.81069e-06
7.05805e-06
7.0141e-06
7.23367e-06
7.41958e-06
7.69729e-06
7.74067e-06
7.34884e-06
6.22069e-06
4.91622e-06
5.56423e-06
7.23836e-06
8.10795e-06
8.29324e-06
1.01928e-05
1.49198e-05
1.94831e-05
2.33616e-05
2.63977e-05
2.85716e-05
2.99034e-05
3.04005e-05
3.00151e-05
2.87648e-05
2.66509e-05
2.36963e-05
2.00359e-05
1.68092e-05
1.47409e-05
1.62308e-05
1.8192e-05
1.94407e-05
1.99596e-05
1.98893e-05
1.94212e-05
1.87423e-05
1.8003e-05
1.73232e-05
1.67911e-05
1.64632e-05
1.63544e-05
1.64572e-05
1.67325e-05
1.71676e-05
1.76707e-05
1.82934e-05
1.88274e-05
1.95493e-05
1.98779e-05
2.0782e-05
2.0533e-05
2.20859e-05
2.06411e-05
2.34047e-05
2.1431e-05
8.15543e-06
2.82792e-06
5.89011e-06
5.33386e-06
5.69878e-06
5.53093e-06
5.68268e-06
5.6796e-06
5.85906e-06
6.02702e-06
6.22771e-06
6.24493e-06
5.96245e-06
5.33755e-06
5.16888e-06
5.97082e-06
7.05616e-06
8.07309e-06
9.49905e-06
1.15714e-05
1.44375e-05
1.70664e-05
1.9121e-05
2.05602e-05
2.14452e-05
2.18616e-05
2.18929e-05
2.16058e-05
2.11293e-05
2.05909e-05
2.02614e-05
2.10525e-05
2.68312e-05
2.16249e-05
1.58095e-05
1.46615e-05
1.4419e-05
1.42851e-05
1.40428e-05
1.36662e-05
1.32082e-05
1.27372e-05
1.23173e-05
1.19966e-05
1.18031e-05
1.17403e-05
1.17983e-05
1.1957e-05
1.22044e-05
1.24949e-05
1.2845e-05
1.31613e-05
1.35578e-05
1.37824e-05
1.42478e-05
1.42044e-05
1.49329e-05
1.43442e-05
1.54297e-05
1.78745e-05
7.96637e-06
2.99886e-06
5.26381e-06
4.71312e-06
4.78543e-06
4.62953e-06
4.71024e-06
4.73973e-06
4.90648e-06
5.08066e-06
5.25558e-06
5.30134e-06
5.19093e-06
5.13254e-06
6.0289e-06
6.69628e-06
7.51978e-06
9.03974e-06
1.15967e-05
1.34943e-05
1.52551e-05
1.68075e-05
1.79756e-05
1.88024e-05
1.94096e-05
1.99412e-05
2.05702e-05
2.14533e-05
2.27372e-05
2.47601e-05
2.82857e-05
3.57933e-05
5.25089e-05
3.68311e-05
2.10532e-05
1.5298e-05
1.28477e-05
1.16379e-05
1.0926e-05
1.03974e-05
9.94581e-06
9.55244e-06
9.22869e-06
8.9889e-06
8.83975e-06
8.7763e-06
8.78754e-06
8.86234e-06
8.99013e-06
9.1498e-06
9.34181e-06
9.53014e-06
9.74901e-06
9.90869e-06
1.01466e-05
1.01978e-05
1.05073e-05
1.03395e-05
1.05827e-05
1.67544e-05
8.44328e-06
3.54469e-06
5.04496e-06
4.4184e-06
4.20611e-06
4.02231e-06
4.04328e-06
4.10162e-06
4.27963e-06
4.48727e-06
4.68812e-06
4.82915e-06
4.98686e-06
5.63547e-06
7.4904e-06
7.91033e-06
8.76175e-06
1.10712e-05
1.44137e-05
1.61636e-05
1.74732e-05
1.87457e-05
2.00101e-05
2.14226e-05
2.31844e-05
2.55347e-05
2.88333e-05
3.30024e-05
3.83129e-05
4.5259e-05
5.49606e-05
7.05678e-05
9.01617e-05
6.30427e-05
3.57341e-05
2.20195e-05
1.52391e-05
1.17712e-05
9.92882e-06
8.85733e-06
8.16193e-06
7.67488e-06
7.32526e-06
7.08039e-06
6.92063e-06
6.82964e-06
6.79268e-06
6.80137e-06
6.84622e-06
6.91821e-06
7.01135e-06
7.11671e-06
7.23258e-06
7.34364e-06
7.46125e-06
7.54374e-06
7.64647e-06
7.66695e-06
7.5158e-06
1.71083e-05
9.39698e-06
4.40057e-06
5.1558e-06
4.42752e-06
3.91628e-06
3.66391e-06
3.62624e-06
3.71329e-06
3.92752e-06
4.2041e-06
4.49287e-06
4.81982e-06
5.39218e-06
6.95553e-06
9.54184e-06
9.75797e-06
1.09047e-05
1.41078e-05
1.79185e-05
1.98596e-05
2.14946e-05
2.35903e-05
2.65032e-05
3.06064e-05
3.62298e-05
4.36615e-05
5.3195e-05
6.35824e-05
7.50632e-05
8.76229e-05
0.000101718
0.000118831
0.000129094
9.70656e-05
6.20066e-05
3.80446e-05
2.36318e-05
1.55652e-05
1.12466e-05
8.90527e-06
7.5672e-06
6.75908e-06
6.24885e-06
5.91772e-06
5.70057e-06
5.55948e-06
5.46991e-06
5.42062e-06
5.40148e-06
5.40835e-06
5.43314e-06
5.47815e-06
5.52811e-06
5.59737e-06
5.64765e-06
5.72662e-06
5.73133e-06
5.8169e-06
5.51035e-06
1.83891e-05
1.0709e-05
5.52527e-06
5.51609e-06
4.71735e-06
3.90078e-06
3.53655e-06
3.43297e-06
3.55175e-06
3.83207e-06
4.22702e-06
4.68685e-06
5.32965e-06
6.52839e-06
9.19959e-06
1.21582e-05
1.2325e-05
1.39739e-05
1.79853e-05
2.22184e-05
2.49342e-05
2.79675e-05
3.25932e-05
3.9714e-05
4.99627e-05
6.3446e-05
7.96531e-05
9.73833e-05
0.000113746
0.000128985
0.000142615
0.000154614
0.000165255
0.000163548
0.000132185
9.55538e-05
6.38765e-05
4.02345e-05
2.47874e-05
1.58107e-05
1.09049e-05
8.22747e-06
6.73021e-06
5.86253e-06
5.33837e-06
5.00654e-06
4.78672e-06
4.63369e-06
4.52636e-06
4.45072e-06
4.40271e-06
4.37333e-06
4.36827e-06
4.3689e-06
4.39825e-06
4.40471e-06
4.46144e-06
4.41975e-06
4.50851e-06
4.1668e-06
2.02058e-05
1.22758e-05
6.87539e-06
6.07368e-06
5.23284e-06
4.1573e-06
3.64121e-06
3.45905e-06
3.61587e-06
4.0009e-06
4.58394e-06
5.33064e-06
6.47049e-06
8.55218e-06
1.23513e-05
1.53038e-05
1.56107e-05
1.78734e-05
2.25648e-05
2.74871e-05
3.17778e-05
3.76656e-05
4.72128e-05
6.19142e-05
8.19655e-05
0.0001058
0.000130729
0.000153301
0.000171088
0.000184876
0.000194552
0.000200387
0.000202454
0.000192372
0.00016362
0.000129082
9.46087e-05
6.40877e-05
4.05155e-05
2.48457e-05
1.56222e-05
1.05119e-05
7.72629e-06
6.18685e-06
5.30574e-06
4.77369e-06
4.43079e-06
4.19285e-06
4.01856e-06
3.88467e-06
3.7831e-06
3.70317e-06
3.65009e-06
3.60571e-06
3.59311e-06
3.56244e-06
3.58582e-06
3.51751e-06
3.58007e-06
3.25631e-06
2.22472e-05
1.39965e-05
8.39876e-06
6.82149e-06
5.89122e-06
4.67094e-06
3.98512e-06
3.71375e-06
3.91951e-06
4.4599e-06
5.32603e-06
6.51431e-06
8.37417e-06
1.15516e-05
1.6226e-05
1.89348e-05
1.95397e-05
2.24422e-05
2.78099e-05
3.39074e-05
4.07586e-05
5.12694e-05
6.8405e-05
9.35062e-05
0.000124568
0.000157026
0.000186509
0.00020864
0.000223611
0.00023267
0.000236377
0.000235502
0.000230293
0.000215647
0.000189564
0.000158153
0.000124278
9.07728e-05
6.12083e-05
3.86357e-05
2.37673e-05
1.49626e-05
1.00559e-05
7.37254e-06
5.88233e-06
5.01734e-06
4.48082e-06
4.12052e-06
3.85924e-06
3.65617e-06
3.49432e-06
3.35912e-06
3.25311e-06
3.15932e-06
3.09822e-06
3.02649e-06
3.00706e-06
2.91384e-06
2.93591e-06
2.64637e-06
2.42787e-05
1.57774e-05
1.00362e-05
7.76226e-06
6.63482e-06
5.38967e-06
4.56132e-06
4.20641e-06
4.47959e-06
5.23939e-06
6.50762e-06
8.32098e-06
1.11167e-05
1.54349e-05
2.05636e-05
2.30041e-05
2.40112e-05
2.75527e-05
3.37604e-05
4.16343e-05
5.21422e-05
6.90784e-05
9.58597e-05
0.000132049
0.000172065
0.000208999
0.000238524
0.000257084
0.000267184
0.000270422
0.000267984
0.000261119
0.000250512
0.000233658
0.000209822
0.0001815
0.000149723
0.000116084
8.35391e-05
5.57528e-05
3.52517e-05
2.194e-05
1.40704e-05
9.65635e-06
7.20954e-06
5.81884e-06
4.98258e-06
4.44092e-06
4.05878e-06
3.76543e-06
3.52827e-06
3.32515e-06
3.15411e-06
2.99852e-06
2.87633e-06
2.75104e-06
2.67666e-06
2.54891e-06
2.52063e-06
2.26227e-06
2.61489e-05
1.75377e-05
1.17267e-05
8.88198e-06
7.45791e-06
6.23161e-06
5.32886e-06
4.92557e-06
5.29613e-06
6.34979e-06
8.15055e-06
1.07677e-05
1.46321e-05
1.99265e-05
2.51545e-05
2.74685e-05
2.89445e-05
3.31605e-05
4.04795e-05
5.07687e-05
6.60092e-05
9.07973e-05
0.000127917
0.000173679
0.000219246
0.000257054
0.000283806
0.000297628
0.000302164
0.000299446
0.0002912
0.000279128
0.000264703
0.000246761
0.000224759
0.000199277
0.000170156
0.000137946
0.000104735
7.39528e-05
4.89955e-05
3.12408e-05
1.99266e-05
1.32518e-05
9.46057e-06
7.30302e-06
6.02558e-06
5.22027e-06
4.66859e-06
4.25364e-06
3.91806e-06
3.62672e-06
3.3708e-06
3.13244e-06
2.9283e-06
2.72775e-06
2.57961e-06
2.39841e-06
2.30754e-06
2.06735e-06
2.77817e-05
1.92153e-05
1.3413e-05
1.01472e-05
8.38314e-06
7.13298e-06
6.21792e-06
5.82318e-06
6.33112e-06
7.75375e-06
1.02054e-05
1.37552e-05
1.86893e-05
2.46927e-05
2.98856e-05
3.22941e-05
3.42978e-05
3.92707e-05
4.80192e-05
6.13351e-05
8.22048e-05
0.000115567
0.000162334
0.00021517
0.000263346
0.000299834
0.000322543
0.000331214
0.000330037
0.000321483
0.000307785
0.000291169
0.000273946
0.000255354
0.000234867
0.000212011
0.000185777
0.000155828
0.000123413
9.14457e-05
6.35531e-05
4.21099e-05
2.74084e-05
1.81998e-05
1.27515e-05
9.58856e-06
7.71392e-06
6.54829e-06
5.76851e-06
5.19421e-06
4.73221e-06
4.32721e-06
3.96007e-06
3.6095e-06
3.29255e-06
2.98388e-06
2.73259e-06
2.46848e-06
2.29526e-06
2.05428e-06
2.9157e-05
2.07677e-05
1.5046e-05
1.15122e-05
9.42527e-06
8.07855e-06
7.16533e-06
6.82473e-06
7.50549e-06
9.35549e-06
1.25387e-05
1.70727e-05
2.29773e-05
2.94773e-05
3.47168e-05
3.74589e-05
4.00629e-05
4.59085e-05
5.64019e-05
7.32683e-05
0.000100351
0.000142239
0.000197146
0.000254674
0.000303471
0.000337491
0.000355649
0.000359051
0.000352181
0.000337944
0.000319065
0.000298506
0.000278998
0.000259865
0.000240634
0.000220238
0.000197015
0.000169837
0.000139146
0.000107267
7.77681e-05
5.36214e-05
3.59898e-05
2.42947e-05
1.70512e-05
1.27178e-05
1.01161e-05
8.5017e-06
7.43906e-06
6.67114e-06
6.0581e-06
5.5161e-06
5.01073e-06
4.51404e-06
4.04501e-06
3.58369e-06
3.1865e-06
2.79685e-06
2.50963e-06
2.24372e-06
3.0288e-05
2.21707e-05
1.65878e-05
1.29266e-05
1.05799e-05
9.08591e-06
8.14542e-06
7.86437e-06
8.72585e-06
1.10243e-05
1.49663e-05
2.04675e-05
2.72231e-05
3.41474e-05
3.96427e-05
4.29484e-05
4.62498e-05
5.30973e-05
6.56124e-05
8.64141e-05
0.000119921
0.000169699
0.000231034
0.000291399
0.000339596
0.000370585
0.000384007
0.000382129
0.00036963
0.000349843
0.000325996
0.000302122
0.000280459
0.000260739
0.000242532
0.000224439
0.000204294
0.000180244
0.000151929
0.000121041
9.09588e-05
6.5021e-05
4.50642e-05
3.11531e-05
2.21606e-05
1.66069e-05
1.32128e-05
1.10971e-05
9.71963e-06
8.74158e-06
7.96865e-06
7.28037e-06
6.62076e-06
5.95017e-06
5.28961e-06
4.6246e-06
4.02709e-06
3.45518e-06
3.00792e-06
2.68668e-06
3.12043e-05
2.34153e-05
1.80122e-05
1.43415e-05
1.18255e-05
1.01741e-05
9.16711e-06
8.91289e-06
9.92313e-06
1.26408e-05
1.73133e-05
2.37273e-05
3.12581e-05
3.86644e-05
4.46658e-05
4.87491e-05
5.2871e-05
6.08459e-05
7.55954e-05
0.000100547
0.000140349
0.000197054
0.000263244
0.000325116
0.000371976
0.000399663
0.000408296
0.000401163
0.000383115
0.000357905
0.000329489
0.000302615
0.000278846
0.000258436
0.000241024
0.000225057
0.000207992
0.000187324
0.000161886
0.000132676
0.000102802
7.58287e-05
5.41311e-05
3.83586e-05
2.77795e-05
2.10563e-05
1.68772e-05
1.42584e-05
1.257e-05
1.13943e-05
1.04792e-05
9.66138e-06
8.8566e-06
8.00641e-06
7.13091e-06
6.21869e-06
5.36511e-06
4.54555e-06
3.88016e-06
3.46631e-06
3.19402e-05
2.45033e-05
1.93038e-05
1.57137e-05
1.31292e-05
1.13486e-05
1.0251e-05
9.97895e-06
1.10724e-05
1.41326e-05
1.94608e-05
2.67225e-05
3.50129e-05
4.30355e-05
4.97819e-05
5.48416e-05
5.99292e-05
6.91414e-05
8.62581e-05
0.000115398
0.000161103
0.000223663
0.000293389
0.000355825
0.000400893
0.000425145
0.000428989
0.000416648
0.000393144
0.000362651
0.000330296
0.000300477
0.000274631
0.000253417
0.000236577
0.000222522
0.000208462
0.00019133
0.000169163
0.000142193
0.000113172
8.57855e-05
6.2856e-05
4.557e-05
3.36044e-05
2.58137e-05
2.09047e-05
1.7822e-05
1.58596e-05
1.45271e-05
1.3515e-05
1.26145e-05
1.17073e-05
1.0708e-05
9.62922e-06
8.45521e-06
7.30875e-06
6.18291e-06
5.24035e-06
4.69192e-06
3.25285e-05
2.54439e-05
2.0457e-05
1.70084e-05
1.44523e-05
1.2599e-05
1.14123e-05
1.10898e-05
1.21865e-05
1.54812e-05
2.13559e-05
2.93992e-05
3.84767e-05
4.72777e-05
5.49752e-05
6.11938e-05
6.74083e-05
7.79474e-05
9.7478e-05
0.000130687
0.000181732
0.000249093
0.00032128
0.0003836
0.000426574
0.000447326
0.000446404
0.000428919
0.000400071
0.000364675
0.00032885
0.000296122
0.000268243
0.000246139
0.000229661
0.000217268
0.000206055
0.000192508
0.000173903
0.000149643
0.000122031
9.47664e-05
7.10449e-05
5.25563e-05
3.93949e-05
3.06446e-05
2.50726e-05
2.15793e-05
1.93941e-05
1.79597e-05
1.69119e-05
1.59962e-05
1.50583e-05
1.39791e-05
1.27548e-05
1.13528e-05
9.92001e-06
8.46021e-06
7.20134e-06
6.47921e-06
3.2998e-05
2.62505e-05
2.14732e-05
1.82006e-05
1.5755e-05
1.39024e-05
1.2654e-05
1.22683e-05
1.33053e-05
1.67073e-05
2.2997e-05
3.17515e-05
4.166e-05
5.13986e-05
6.02157e-05
6.77577e-05
7.52677e-05
8.72036e-05
0.000109114
0.000146142
0.000201873
0.000273052
0.000346823
0.000408515
0.000449181
0.000466336
0.000460744
0.000438199
0.000404144
0.000364578
0.000325421
0.000289902
0.000260078
0.000237044
0.000220744
0.000209742
0.000201139
0.000191114
0.00017625
0.000155087
0.000129376
0.000102715
7.85953e-05
5.91809e-05
4.49922e-05
3.53747e-05
2.9193e-05
2.53316e-05
2.29662e-05
2.14783e-05
2.04522e-05
1.95909e-05
1.87055e-05
1.76402e-05
1.63679e-05
1.48245e-05
1.3171e-05
1.14038e-05
9.83445e-06
8.91523e-06
3.33728e-05
2.69384e-05
2.23597e-05
1.92746e-05
1.70009e-05
1.52274e-05
1.39657e-05
1.35252e-05
1.44758e-05
1.78519e-05
2.44125e-05
3.37953e-05
4.4571e-05
5.53895e-05
6.5459e-05
7.4467e-05
8.34395e-05
9.68282e-05
0.000121014
0.000161514
0.000221236
0.000295337
0.000369968
0.000430628
0.000468814
0.000482262
0.000472128
0.000444634
0.000405814
0.000362606
0.000320246
0.000282118
0.000250492
0.000226547
0.000210285
0.000200397
0.000194101
0.000187425
0.000176366
0.000158594
0.000135218
0.000109604
8.54544e-05
6.53711e-05
5.03067e-05
3.98972e-05
3.31383e-05
2.8928e-05
2.64019e-05
2.48869e-05
2.39196e-05
2.31651e-05
2.24042e-05
2.14474e-05
2.02414e-05
1.868e-05
1.69253e-05
1.494e-05
1.31277e-05
1.20175e-05
3.36724e-05
2.75228e-05
2.31269e-05
2.02237e-05
1.81594e-05
1.65377e-05
1.53261e-05
1.48595e-05
1.57204e-05
1.89882e-05
2.56457e-05
3.55534e-05
4.72069e-05
5.92027e-05
7.06459e-05
8.12383e-05
9.18282e-05
0.00010672
0.000133026
0.000176585
0.000239596
0.000315808
0.000390683
0.000449967
0.000485529
0.000495194
0.000480618
0.000448359
0.000405526
0.000358876
0.00031352
0.000273027
0.0002398
0.000215029
0.000198721
0.000189687
0.000185349
0.000181747
0.000174435
0.000160248
0.000139577
0.000115421
9.15934e-05
7.109e-05
5.52951e-05
4.41595e-05
3.68408e-05
3.22789e-05
2.95862e-05
2.80433e-05
2.71439e-05
2.65203e-05
2.59292e-05
2.51535e-05
2.41171e-05
2.26677e-05
2.09595e-05
1.88939e-05
1.69647e-05
1.57067e-05
3.39124e-05
2.80184e-05
2.3787e-05
2.10484e-05
1.92075e-05
1.77967e-05
1.6705e-05
1.62585e-05
1.70464e-05
2.01741e-05
2.67655e-05
3.70504e-05
4.95546e-05
6.27872e-05
7.5704e-05
8.79729e-05
0.000100311
0.000116762
0.000145003
0.000191169
0.000256784
0.000334366
0.000408944
0.000466542
0.000499336
0.000505161
0.000486231
0.000449807
0.000403344
0.000353493
0.000305412
0.000262848
0.000228275
0.000202828
0.000186451
0.000178048
0.0001753
0.000174414
0.000170671
0.000160158
0.000142486
0.000120159
9.69939e-05
7.63181e-05
5.99398e-05
4.81438e-05
4.02774e-05
3.53483e-05
3.24638e-05
3.08692e-05
3.00209e-05
2.95234e-05
2.91157e-05
2.85605e-05
2.77657e-05
2.65363e-05
2.50164e-05
2.30256e-05
2.11404e-05
1.98105e-05
3.41051e-05
2.84383e-05
2.43532e-05
2.17546e-05
2.01311e-05
1.89704e-05
1.80666e-05
1.7699e-05
1.84489e-05
2.14288e-05
2.78767e-05
3.83174e-05
5.15961e-05
6.60826e-05
8.05486e-05
9.4561e-05
0.000108738
0.000126821
0.000156809
0.000205117
0.000272678
0.000350944
0.000424731
0.00048034
0.000510215
0.000512146
0.000489225
0.00044911
0.000399329
0.000346556
0.000296069
0.000251771
0.000216155
0.000190236
0.000173832
0.00016589
0.000164367
0.000165778
0.000165318
0.000158457
0.000143993
0.000123824
0.000101642
8.10424e-05
6.42347e-05
5.18511e-05
4.34519e-05
3.81369e-05
3.50265e-05
3.33422e-05
3.25099e-05
3.21115e-05
3.18727e-05
3.15437e-05
3.10242e-05
3.00848e-05
2.88626e-05
2.70867e-05
2.54072e-05
2.40994e-05
3.42601e-05
2.8794e-05
2.48381e-05
2.23523e-05
2.0924e-05
2.0031e-05
1.93727e-05
1.91491e-05
1.99113e-05
2.27581e-05
2.90108e-05
3.94748e-05
5.33156e-05
6.90234e-05
8.50858e-05
0.000100885
0.000116967
0.000136754
0.000168321
0.000218318
0.000287203
0.0003655
0.000438024
0.000491333
0.000518115
0.000516262
0.000489763
0.000446323
0.000393537
0.000338159
0.000285621
0.000239962
0.000203642
0.000177501
0.00016117
0.000153576
0.000152945
0.000156201
0.000158645
0.000155307
0.000144171
0.000126427
0.00010553
8.52524e-05
6.81773e-05
5.52889e-05
4.63807e-05
4.06659e-05
3.72948e-05
3.5478e-05
3.46178e-05
3.42775e-05
3.4174e-05
3.40507e-05
3.38055e-05
3.3185e-05
3.23259e-05
3.08682e-05
2.95283e-05
2.8337e-05
3.43852e-05
2.90956e-05
2.52536e-05
2.28537e-05
2.15878e-05
2.0958e-05
2.05864e-05
2.05712e-05
2.14063e-05
2.41545e-05
3.01867e-05
4.05668e-05
5.48025e-05
7.15458e-05
8.9216e-05
0.000106824
0.000124847
0.000146408
0.000179433
0.000230702
0.000300328
0.000378019
0.000448808
0.000499443
0.000523018
0.000517657
0.000487928
0.000441499
0.00038603
0.000328392
0.000274192
0.000227571
0.000190913
0.00016483
0.000148717
0.00014142
0.000141396
0.000146041
0.000150941
0.000150897
0.000143109
0.000127996
0.000108654
8.89385e-05
7.17644e-05
5.84651e-05
4.90832e-05
4.29652e-05
3.93034e-05
3.73131e-05
3.63795e-05
3.60514e-05
3.60394e-05
3.60842e-05
3.60869e-05
3.578e-05
3.53061e-05
3.42264e-05
3.33169e-05
3.23224e-05
3.44863e-05
2.93516e-05
2.56103e-05
2.3272e-05
2.21296e-05
2.17397e-05
2.16749e-05
2.19241e-05
2.28979e-05
2.55981e-05
3.14102e-05
4.16161e-05
5.60999e-05
7.3692e-05
9.28207e-05
0.000112256
0.000132228
0.000155629
0.00019005
0.000242244
0.000312068
0.000388484
0.000456861
0.000504655
0.000525068
0.000516452
0.000483798
0.000434696
0.000376877
0.000317352
0.000261903
0.000214741
0.000178124
0.000152396
0.000136674
0.000129677
0.000130035
0.000135636
0.000142503
0.000145436
0.000140923
0.000128573
0.000111016
9.20928e-05
7.49915e-05
6.13852e-05
5.15766e-05
4.50626e-05
4.10897e-05
3.88916e-05
3.78429e-05
3.74819e-05
3.75145e-05
3.76817e-05
3.78906e-05
3.7868e-05
3.77673e-05
3.70849e-05
3.66512e-05
3.59122e-05
3.45682e-05
2.95691e-05
2.59175e-05
2.36201e-05
2.25611e-05
2.2373e-05
2.26129e-05
2.31674e-05
2.4344e-05
2.70576e-05
3.26729e-05
4.26375e-05
5.72166e-05
7.54942e-05
9.58916e-05
0.000117059
0.000138972
0.000164266
0.000200096
0.000252959
0.000322149
0.00039666
0.000462288
0.000507106
0.00052439
0.000512754
0.000477449
0.000425981
0.000366158
0.000305142
0.000248877
0.000201608
0.000165415
0.00014034
0.000125199
0.000118545
0.000119122
0.000125293
0.000133624
0.000139151
0.000137747
0.000128218
0.000112632
9.47101e-05
7.78527e-05
6.4051e-05
5.38734e-05
4.69805e-05
4.26879e-05
4.02563e-05
3.90578e-05
3.86234e-05
3.8656e-05
3.88986e-05
3.92651e-05
3.94832e-05
3.97202e-05
3.94235e-05
3.94715e-05
3.90235e-05
3.46345e-05
2.97541e-05
2.61831e-05
2.39104e-05
2.28964e-05
2.28626e-05
2.33837e-05
2.42642e-05
2.56989e-05
2.84923e-05
3.39531e-05
4.36354e-05
5.81627e-05
7.6934e-05
9.84402e-05
0.000121211
0.000144955
0.000172184
0.000209375
0.00026248
0.000330469
0.000402589
0.000465196
0.00050693
0.000521102
0.000506666
0.000468962
0.000415434
0.000353967
0.000291874
0.000235244
0.000188306
0.000152914
0.000128779
0.000114407
0.000108167
0.000108862
0.000115275
0.00012459
0.000132275
0.000133731
0.000127002
0.000113523
9.67899e-05
8.03423e-05
6.64614e-05
5.59815e-05
4.8737e-05
4.4126e-05
4.14446e-05
4.00695e-05
3.95282e-05
3.95215e-05
3.97951e-05
4.02701e-05
4.06794e-05
4.12052e-05
4.12616e-05
4.17676e-05
4.1625e-05
3.46884e-05
2.99116e-05
2.64137e-05
2.41539e-05
2.31512e-05
2.32194e-05
2.39804e-05
2.5185e-05
2.69177e-05
2.98549e-05
3.52168e-05
4.46028e-05
5.89473e-05
7.80038e-05
0.000100417
0.000124652
0.000150118
0.000179157
0.000217597
0.000270644
0.000336981
0.000406326
0.000465697
0.000504256
0.000515327
0.000498291
0.00045843
0.000403148
0.00034041
0.000277673
0.00022114
0.000174969
0.00014074
0.00011781
0.000104383
9.86404e-05
9.93996e-05
0.000105797
0.00011568
0.000125038
0.000129037
0.000125016
0.000113724
9.83374e-05
8.24558e-05
6.86134e-05
5.79042e-05
5.03443e-05
4.54253e-05
4.24868e-05
4.09165e-05
4.02422e-05
4.01635e-05
4.04293e-05
4.09671e-05
4.1518e-05
4.22782e-05
4.26427e-05
4.35631e-05
4.37232e-05
3.47322e-05
3.00459e-05
2.66148e-05
2.43601e-05
2.33409e-05
2.34592e-05
2.44053e-05
2.59093e-05
2.79595e-05
3.10952e-05
3.64197e-05
4.55198e-05
5.95752e-05
7.87051e-05
0.00010179
0.000127297
0.000154356
0.000185024
0.000224553
0.000277304
0.000341656
0.000407936
0.000463902
0.000499208
0.000507213
0.000487739
0.000445954
0.000389233
0.000325611
0.000262678
0.00020671
0.000161733
0.000129
0.000107509
9.51814e-05
9.00222e-05
9.08298e-05
9.70199e-05
0.000107095
0.000117654
0.000123831
0.00012236
0.00011328
9.93644e-05
8.41912e-05
7.05031e-05
5.96421e-05
5.18099e-05
4.66008e-05
4.34057e-05
4.16295e-05
4.08035e-05
4.06273e-05
4.08532e-05
4.14138e-05
4.20598e-05
4.30002e-05
4.36223e-05
4.49026e-05
4.53501e-05
3.47678e-05
3.01605e-05
2.67908e-05
2.45369e-05
2.34801e-05
2.36003e-05
2.46694e-05
2.64279e-05
2.87914e-05
3.21638e-05
3.7511e-05
4.63544e-05
6.00437e-05
7.90456e-05
0.000102544
0.00012909
0.000157581
0.000189665
0.000230071
0.00028233
0.000344469
0.000407482
0.000459918
0.000491908
0.000496891
0.000475127
0.000431652
0.000373814
0.000309712
0.000247041
0.000192106
0.000148728
0.000117793
9.79398e-05
8.68381e-05
8.23385e-05
8.32033e-05
8.90566e-05
9.90065e-05
0.00011032
0.000118279
0.000119142
0.000112247
9.98899e-05
8.55498e-05
7.21271e-05
6.11935e-05
5.31371e-05
4.76624e-05
4.4218e-05
4.2232e-05
4.12425e-05
4.09505e-05
4.11112e-05
4.16612e-05
4.23616e-05
4.34313e-05
4.42601e-05
4.58411e-05
4.65519e-05
3.47968e-05
3.02583e-05
2.69453e-05
2.46906e-05
2.35816e-05
2.36623e-05
2.47902e-05
2.67423e-05
2.9391e-05
3.30172e-05
3.84376e-05
4.70648e-05
6.03407e-05
7.90351e-05
0.000102679
0.000129995
0.000159722
0.000192999
0.000234024
0.000285614
0.000345399
0.000405024
0.000453848
0.00048247
0.000484489
0.00046058
0.000415657
0.000357037
0.000292867
0.000230927
0.000177483
0.000136083
0.000107204
8.91481e-05
7.9369e-05
7.55918e-05
7.65362e-05
8.19734e-05
9.1546e-05
0.000103206
0.00011254
0.000115476
0.000110687
9.99401e-05
8.65374e-05
7.34832e-05
6.25559e-05
5.43267e-05
4.86158e-05
4.49351e-05
4.27414e-05
4.15829e-05
4.11629e-05
4.12398e-05
4.17528e-05
4.24731e-05
4.36272e-05
4.46144e-05
4.6437e-05
4.73817e-05
3.48203e-05
3.03418e-05
2.70815e-05
2.48263e-05
2.36566e-05
2.36645e-05
2.47895e-05
2.68647e-05
2.97486e-05
3.36209e-05
3.91484e-05
4.76028e-05
6.04444e-05
7.8682e-05
0.000102208
0.000129997
0.000160728
0.000194976
0.000236335
0.000287072
0.000344427
0.000400612
0.000445784
0.000471005
0.000470133
0.000444235
0.000398118
0.000339063
0.00027525
0.000214508
0.000162999
0.000123915
9.73067e-05
8.1166e-05
7.27764e-05
6.97679e-05
7.0819e-05
7.57997e-05
8.48054e-05
9.64543e-05
0.000106764
0.000111478
0.000108671
9.95481e-05
8.71643e-05
7.45715e-05
6.37271e-05
5.53782e-05
4.9464e-05
4.55646e-05
4.31704e-05
4.18426e-05
4.12882e-05
4.12687e-05
4.17249e-05
4.24372e-05
4.36372e-05
4.47389e-05
4.67477e-05
4.78943e-05
3.48394e-05
3.04132e-05
2.72016e-05
2.49476e-05
2.37141e-05
2.36245e-05
2.46919e-05
2.68154e-05
2.98672e-05
3.39532e-05
3.95999e-05
4.79189e-05
6.03247e-05
7.79898e-05
0.000101151
0.0001291
0.000160565
0.000195568
0.000236982
0.00028666
0.000341542
0.000394292
0.000435812
0.000457615
0.000453956
0.000426244
0.000379201
0.000320071
0.000257047
0.000197969
0.00014881
0.000112335
8.81601e-05
7.40123e-05
6.7051e-05
6.48409e-05
6.60247e-05
7.05353e-05
7.88404e-05
9.01766e-05
0.000101081
0.000107262
0.000106275
9.8753e-05
8.74455e-05
7.5395e-05
6.47056e-05
5.62902e-05
5.02082e-05
4.61112e-05
4.35277e-05
4.20348e-05
4.13446e-05
4.12216e-05
4.1607e-05
4.22898e-05
4.3504e-05
4.46821e-05
4.68265e-05
4.81424e-05
3.4855e-05
3.04743e-05
2.73078e-05
2.50573e-05
2.37609e-05
2.35581e-05
2.45222e-05
2.66214e-05
2.97625e-05
3.40068e-05
3.97601e-05
4.79673e-05
5.99465e-05
7.69565e-05
9.95349e-05
0.000127326
0.000159223
0.000194764
0.000235982
0.000284381
0.000336752
0.000386109
0.000424013
0.000442401
0.000436097
0.000406772
0.000359091
0.000300254
0.000238455
0.000181494
0.000135064
0.000101436
7.9808e-05
6.76933e-05
6.21752e-05
6.07783e-05
6.21161e-05
6.61598e-05
7.36759e-05
8.44552e-05
9.5607e-05
0.000102935
0.000103576
9.7599e-05
8.74009e-05
7.59597e-05
6.54916e-05
5.70618e-05
5.08486e-05
4.6578e-05
4.38197e-05
4.21697e-05
4.13462e-05
4.11171e-05
4.14229e-05
4.20604e-05
4.32637e-05
4.44858e-05
4.67217e-05
4.81754e-05
3.48676e-05
3.05266e-05
2.74018e-05
2.51575e-05
2.38022e-05
2.34782e-05
2.43041e-05
2.63132e-05
2.94603e-05
3.37901e-05
3.96122e-05
4.77114e-05
5.92747e-05
7.55751e-05
9.73867e-05
0.000124714
0.000156709
0.000192562
0.000233384
0.00028029
0.000330096
0.000376119
0.000410475
0.000425464
0.00041671
0.000386004
0.000337988
0.000279821
0.000219681
0.000165271
0.000121898
9.12975e-05
7.22792e-05
6.22049e-05
5.8125e-05
5.75445e-05
5.90513e-05
6.26398e-05
6.93138e-05
7.93453e-05
9.0435e-05
9.85966e-05
0.000100651
9.61344e-05
8.70545e-05
7.62747e-05
6.60871e-05
5.76927e-05
5.13854e-05
4.69668e-05
4.4051e-05
4.22548e-05
4.13039e-05
4.09698e-05
4.11918e-05
4.17731e-05
4.29464e-05
4.41859e-05
4.64757e-05
4.80376e-05
3.48777e-05
3.05715e-05
2.74851e-05
2.52496e-05
2.38415e-05
2.33949e-05
2.40587e-05
2.59221e-05
2.89942e-05
3.33251e-05
3.91566e-05
4.7129e-05
5.82801e-05
7.38362e-05
9.47343e-05
0.000121313
0.000153058
0.000188972
0.000229247
0.000274484
0.000321656
0.000364401
0.000395295
0.000406911
0.000395974
0.000364144
0.000316108
0.000258988
0.000200936
0.000149477
0.000109436
8.19806e-05
6.55884e-05
5.75338e-05
5.48731e-05
5.51038e-05
5.67886e-05
5.99359e-05
6.57392e-05
7.48791e-05
8.56398e-05
9.43345e-05
9.75757e-05
9.44098e-05
8.64343e-05
7.63527e-05
6.64966e-05
5.8184e-05
5.18192e-05
4.72793e-05
4.42249e-05
4.22958e-05
4.12263e-05
4.07915e-05
4.09289e-05
4.14477e-05
4.2577e-05
4.38127e-05
4.61251e-05
4.77683e-05
3.4886e-05
3.06099e-05
2.75589e-05
2.53345e-05
2.38811e-05
2.3316e-05
2.38041e-05
2.54787e-05
2.84023e-05
3.26463e-05
3.84108e-05
4.62153e-05
5.69446e-05
7.17332e-05
9.16056e-05
0.000117185
0.000148325
0.000184018
0.000223627
0.000267086
0.00031156
0.000351074
0.000378601
0.000386994
0.000374099
0.000341412
0.000293675
0.00023798
0.000182431
0.000134285
9.77819e-05
7.35281e-05
5.97372e-05
5.36603e-05
5.23909e-05
5.3423e-05
5.529e-05
5.80081e-05
6.29275e-05
7.10706e-05
8.12777e-05
9.02264e-05
9.44224e-05
9.24773e-05
8.55712e-05
7.62092e-05
6.67267e-05
5.85382e-05
5.21511e-05
4.75172e-05
4.43446e-05
4.22977e-05
4.11203e-05
4.05914e-05
4.06466e-05
4.10998e-05
4.21756e-05
4.33912e-05
4.5701e-05
4.74017e-05
3.48926e-05
3.0643e-05
2.76243e-05
2.54131e-05
2.39221e-05
2.32464e-05
2.35546e-05
2.50105e-05
2.7724e-05
3.17963e-05
3.74082e-05
4.49845e-05
5.52659e-05
6.92668e-05
8.80307e-05
0.000112397
0.00014259
0.000177746
0.000216574
0.000258221
0.000299967
0.000336293
0.000360551
0.000365983
0.000351313
0.000318039
0.000270918
0.00021702
0.000164372
0.000119847
8.70197e-05
6.59653e-05
5.47157e-05
5.05599e-05
5.06507e-05
5.24738e-05
5.45234e-05
5.68201e-05
6.08495e-05
6.79206e-05
7.73885e-05
8.63373e-05
9.12574e-05
9.03887e-05
8.44985e-05
7.58627e-05
6.67865e-05
5.87596e-05
5.23836e-05
4.76827e-05
4.4413e-05
4.22646e-05
4.09917e-05
4.03773e-05
4.03548e-05
4.07422e-05
4.17588e-05
4.29421e-05
4.52296e-05
4.69671e-05
3.48979e-05
3.06715e-05
2.76824e-05
2.54857e-05
2.39649e-05
2.31893e-05
2.33208e-05
2.45411e-05
2.69974e-05
3.08229e-05
3.61952e-05
4.34699e-05
5.32612e-05
6.64506e-05
8.40457e-05
0.000107027
0.000135954
0.000170228
0.000208137
0.000247998
0.000287048
0.000320243
0.000341328
0.000344064
0.00032785
0.000294259
0.000248065
0.000196333
0.000146957
0.000106299
7.72108e-05
5.93002e-05
5.0505e-05
4.8206e-05
4.96274e-05
5.22339e-05
5.44653e-05
5.63423e-05
5.94769e-05
6.5421e-05
7.39986e-05
8.27208e-05
8.81414e-05
8.81949e-05
8.32512e-05
7.5334e-05
6.66874e-05
5.88542e-05
5.25202e-05
4.77787e-05
4.44333e-05
4.22005e-05
4.08454e-05
4.01554e-05
4.00616e-05
4.03853e-05
4.13399e-05
4.24825e-05
4.47324e-05
4.64893e-05
3.49022e-05
3.06961e-05
2.77339e-05
2.55529e-05
2.40096e-05
2.31462e-05
2.31101e-05
2.40892e-05
2.62568e-05
2.97745e-05
3.48263e-05
4.17209e-05
5.09672e-05
6.33151e-05
7.96965e-05
0.000101158
0.000128536
0.000161572
0.000198374
0.000236499
0.000272954
0.000303117
0.000321128
0.000321443
0.000303935
0.000270294
0.000225337
0.000176138
0.00013037
9.37506e-05
6.83943e-05
5.35261e-05
4.70791e-05
4.65718e-05
4.93006e-05
5.26885e-05
5.51017e-05
5.6555e-05
5.87856e-05
6.35598e-05
7.1124e-05
7.94197e-05
8.5128e-05
8.59446e-05
8.18649e-05
7.46458e-05
6.64426e-05
5.88298e-05
5.25658e-05
4.78088e-05
4.44091e-05
4.21094e-05
4.06862e-05
3.99314e-05
3.97737e-05
4.00375e-05
4.09297e-05
4.20259e-05
4.42275e-05
4.5989e-05
3.49056e-05
3.07174e-05
2.77798e-05
2.5615e-05
2.40557e-05
2.3117e-05
2.29269e-05
2.36688e-05
2.5531e-05
2.86968e-05
3.336e-05
3.97988e-05
4.8439e-05
5.99093e-05
7.50424e-05
9.48872e-05
0.000120478
0.000151918
0.00018737
0.000223789
0.000257804
0.000285084
0.000300128
0.000298322
0.000279779
0.000246353
0.000202951
0.000156649
0.000114777
8.22887e-05
6.05874e-05
4.86229e-05
4.44077e-05
4.56323e-05
4.96551e-05
5.38312e-05
5.64293e-05
5.74492e-05
5.8759e-05
6.23244e-05
6.87731e-05
7.64674e-05
8.22645e-05
8.36834e-05
8.03754e-05
7.38222e-05
6.60673e-05
5.86957e-05