/*--------------------------------*- C++ -*----------------------------------*\
| =========                 |                                                 |
| \\      /  F ield         | OpenFOAM: The Open Source CFD Toolbox           |
|  \\    /   O peration     | Version:  2.4.0                                 |
|   \\  /    A nd           | Web:      www.OpenFOAM.org                      |
|    \\/     M anipulation  |                                                 |
\*---------------------------------------------------------------------------*/
FoamFile
{
    version     2.0;
    format      ascii;
    class       volScalarField;
    location    "2.7";
    object      p;
}
// * * * * * * * * * * * * * * * * * * * * * * * * * * * * * * * * * * * * * //

dimensions      [0 2 -2 0 0 0 0];

internalField   nonuniform List<scalar> 
6000
(
0.0740813
0.257375
0.274825
0.299855
0.305644
0.314552
0.317355
0.321602
0.32346
0.325878
0.327319
0.328953
0.330165
0.331554
0.332817
0.334314
0.335794
0.337407
0.338973
0.340522
0.342008
0.343448
0.344915
0.346548
0.348464
0.35092
0.354192
0.358416
0.363806
0.370795
0.379368
0.389819
0.402159
0.416281
0.431652
0.448437
0.465375
0.481128
0.493412
0.501323
0.503961
0.502061
0.495623
0.485935
0.473461
0.459979
0.446205
0.432799
0.418841
0.404753
0.390617
0.376709
0.36176
0.346028
0.323238
0.304453
0.260893
0.243736
0.137997
0.175618
0.0881454
0.256893
0.274791
0.299699
0.305557
0.314457
0.317299
0.321545
0.323423
0.325841
0.327294
0.328932
0.330149
0.331539
0.332802
0.334299
0.33578
0.337397
0.338969
0.340526
0.34202
0.343467
0.34494
0.346577
0.348495
0.350949
0.354218
0.358437
0.363819
0.370802
0.379372
0.389822
0.402148
0.416255
0.431603
0.448344
0.465232
0.480927
0.493245
0.501179
0.503815
0.501899
0.495447
0.485741
0.473266
0.459788
0.446021
0.432612
0.41864
0.404534
0.390372
0.376432
0.361431
0.345611
0.322787
0.303811
0.260277
0.242607
0.13732
0.173026
0.100605
0.256709
0.27479
0.299587
0.305479
0.314385
0.317248
0.3215
0.323389
0.325812
0.327271
0.328913
0.330133
0.331524
0.332786
0.334282
0.335765
0.337387
0.338967
0.340533
0.342036
0.343492
0.344971
0.346611
0.348529
0.350978
0.35424
0.358449
0.363816
0.370787
0.379351
0.389778
0.402076
0.416154
0.431453
0.44813
0.464942
0.480545
0.492915
0.500923
0.503599
0.501697
0.495251
0.485551
0.473087
0.459592
0.445827
0.432422
0.418439
0.404318
0.390134
0.376174
0.361138
0.345239
0.322369
0.303222
0.259674
0.241585
0.13656
0.170707
0.110666
0.256693
0.274848
0.299505
0.305422
0.314327
0.317205
0.321461
0.323359
0.325786
0.32725
0.328895
0.330117
0.331509
0.33277
0.334265
0.335749
0.337376
0.338965
0.340541
0.342054
0.34352
0.345004
0.346647
0.348562
0.351002
0.354253
0.358443
0.363783
0.37074
0.379289
0.389661
0.401918
0.415945
0.431169
0.447756
0.464478
0.479983
0.492376
0.500492
0.503263
0.50142
0.495012
0.485335
0.472906
0.459374
0.445613
0.432225
0.418236
0.404104
0.389905
0.375921
0.36086
0.344887
0.321975
0.302672
0.259106
0.240652
0.135831
0.168756
0.119153
0.256734
0.274949
0.299453
0.305382
0.314279
0.317169
0.321427
0.323332
0.325762
0.327231
0.328879
0.330102
0.331493
0.332752
0.334246
0.335732
0.337365
0.338964
0.340552
0.342077
0.343553
0.345043
0.346689
0.348599
0.351025
0.354259
0.35842
0.363724
0.370662
0.379165
0.389465
0.401658
0.415612
0.430736
0.447215
0.463863
0.479296
0.49165
0.499851
0.502742
0.500998
0.494669
0.485046
0.472696
0.459117
0.445364
0.432009
0.418022
0.403884
0.389676
0.375665
0.360588
0.344539
0.321595
0.302134
0.25856
0.239755
0.135141
0.167027
0.126668
0.256779
0.275085
0.299426
0.305358
0.314241
0.317139
0.321398
0.323308
0.32574
0.327214
0.328864
0.330087
0.331476
0.332732
0.334224
0.335712
0.337353
0.338965
0.340567
0.342107
0.343595
0.345091
0.346738
0.34864
0.351049
0.354259
0.35838
0.363649
0.370548
0.378976
0.389194
0.401306
0.415168
0.430183
0.446565
0.463168
0.478558
0.490829
0.499058
0.502041
0.500404
0.494182
0.484649
0.472395
0.458843
0.445068
0.431763
0.41779
0.403655
0.38944
0.37541
0.360322
0.344192
0.321221
0.301601
0.258028
0.238853
0.134499
0.165432
0.133454
0.256812
0.275256
0.299416
0.305353
0.314213
0.317115
0.321372
0.323287
0.325721
0.327197
0.328849
0.330071
0.331459
0.33271
0.334201
0.335692
0.337342
0.338969
0.340587
0.342144
0.343644
0.345147
0.346795
0.348686
0.351074
0.354252
0.358328
0.363556
0.370392
0.378741
0.388866
0.400891
0.414662
0.429572
0.445877
0.462455
0.477818
0.489999
0.498208
0.501234
0.499676
0.493557
0.484136
0.471973
0.458554
0.444716
0.43148
0.417537
0.403417
0.389196
0.375162
0.360061
0.343846
0.320854
0.301072
0.257504
0.237948
0.133897
0.163945
0.139644
0.256826
0.275462
0.299422
0.305364
0.314195
0.317098
0.321352
0.323269
0.325704
0.327183
0.328835
0.330056
0.331441
0.332686
0.334176
0.33567
0.337332
0.338976
0.340612
0.342186
0.343699
0.345207
0.346855
0.348731
0.35109
0.354233
0.358265
0.363437
0.370206
0.378477
0.388508
0.400448
0.414135
0.428951
0.445191
0.46175
0.47709
0.489198
0.497371
0.500399
0.498881
0.492836
0.483519
0.471455
0.458215
0.444317
0.431155
0.417263
0.40317
0.388946
0.374918
0.359812
0.343505
0.320495
0.300548
0.256988
0.237057
0.133318
0.162552
0.145352
0.256825
0.275704
0.299441
0.305389
0.314185
0.317087
0.321336
0.323255
0.325689
0.32717
0.328822
0.330042
0.331423
0.332662
0.33415
0.335649
0.337323
0.338986
0.34064
0.342231
0.343757
0.345267
0.346911
0.348767
0.351093
0.354199
0.358186
0.363299
0.370001
0.378195
0.388136
0.399998
0.41361
0.428336
0.444517
0.461054
0.476374
0.488431
0.49657
0.499578
0.49807
0.492064
0.482828
0.470857
0.457785
0.44391
0.430789
0.416968
0.402917
0.388694
0.374669
0.35958
0.34317
0.320144
0.30003
0.256477
0.236182
0.132758
0.161242
0.150604
0.256904
0.275984
0.299473
0.305428
0.314183
0.317083
0.321324
0.323243
0.325677
0.327158
0.328811
0.330028
0.331405
0.332637
0.334124
0.335628
0.337316
0.338998
0.340671
0.342278
0.343813
0.345323
0.346957
0.348793
0.351086
0.354153
0.358094
0.363148
0.369785
0.377905
0.38776
0.39955
0.413091
0.427728
0.443849
0.46036
0.475664
0.48769
0.495801
0.498781
0.497265
0.491271
0.482087
0.4702
0.457254
0.443502
0.430391
0.416653
0.40266
0.388445
0.374411
0.359368
0.342843
0.319801
0.299517
0.255972
0.23532
0.132216
0.160004
0.155402
0.257162
0.276286
0.299512
0.305478
0.314188
0.317087
0.321317
0.323236
0.325668
0.32715
0.328802
0.330016
0.331388
0.332613
0.334099
0.335609
0.337311
0.339012
0.340703
0.342324
0.343866
0.345374
0.346999
0.348812
0.35107
0.354099
0.357993
0.362988
0.369563
0.377612
0.387383
0.399105
0.412576
0.427123
0.44318
0.459663
0.474955
0.486964
0.495054
0.498001
0.496469
0.490469
0.481315
0.469497
0.456658
0.443065
0.42997
0.416322
0.402402
0.3882
0.374146
0.359176
0.342525
0.319467
0.299009
0.255471
0.234471
0.131687
0.158829
0.159843
0.257583
0.276593
0.299555
0.305537
0.314202
0.317098
0.321315
0.323232
0.325661
0.327143
0.328795
0.330006
0.331373
0.332591
0.334076
0.335592
0.337307
0.339027
0.340734
0.342369
0.343918
0.345422
0.347038
0.348826
0.351047
0.354039
0.357885
0.362822
0.369337
0.377318
0.387007
0.398663
0.412065
0.426517
0.442506
0.458958
0.47424
0.48624
0.494314
0.497227
0.495674
0.489658
0.480518
0.468756
0.456016
0.442574
0.429538
0.415978
0.402148
0.387965
0.37388
0.359
0.342218
0.319141
0.298506
0.254971
0.233631
0.131166
0.157709
0.164046
0.25811
0.27689
0.2996
0.305603
0.314221
0.317116
0.321318
0.323232
0.325657
0.32714
0.328791
0.329997
0.33136
0.33257
0.334054
0.335575
0.337304
0.339043
0.340766
0.342415
0.34397
0.345469
0.347074
0.348836
0.35102
0.353975
0.357775
0.362654
0.36911
0.377025
0.386633
0.398225
0.411556
0.425907
0.441825
0.458242
0.473515
0.485512
0.493571
0.496446
0.494868
0.488831
0.479695
0.467982
0.455339
0.442029
0.429098
0.415624
0.401898
0.387742
0.373626
0.358834
0.341924
0.318822
0.298007
0.25447
0.232797
0.130646
0.156635
0.1681
0.258697
0.277168
0.299642
0.305675
0.314247
0.31714
0.321325
0.323237
0.325657
0.327139
0.328789
0.329992
0.331349
0.332551
0.334034
0.335561
0.337304
0.339061
0.3408
0.342462
0.344022
0.345515
0.347108
0.348844
0.350992
0.353909
0.357664
0.362485
0.368884
0.376734
0.386261
0.39779
0.411048
0.425294
0.441136
0.457515
0.472777
0.48477
0.492813
0.495647
0.494041
0.487978
0.478844
0.467174
0.454629
0.441444
0.42864
0.415261
0.401656
0.387533
0.373395
0.358673
0.341647
0.318512
0.297511
0.25397
0.231966
0.130121
0.155598
0.172065
0.259312
0.277422
0.299681
0.305751
0.314277
0.31717
0.321336
0.323245
0.32566
0.327142
0.328791
0.32999
0.331342
0.332535
0.334016
0.33555
0.337306
0.339081
0.340836
0.342511
0.344074
0.345562
0.347144
0.348852
0.350963
0.353845
0.357554
0.362317
0.368661
0.376446
0.385893
0.397359
0.410543
0.424676
0.440439
0.456774
0.472022
0.48401
0.492031
0.494817
0.49318
0.487091
0.477957
0.46633
0.453886
0.440828
0.428162
0.414891
0.401423
0.387341
0.373199
0.358514
0.34139
0.318213
0.297022
0.253469
0.231139
0.129584
0.15459
0.175982
0.259934
0.277652
0.299712
0.305828
0.314311
0.317206
0.321352
0.323258
0.325667
0.327149
0.328796
0.329992
0.331337
0.332522
0.334002
0.335541
0.33731
0.339104
0.340874
0.342561
0.344129
0.34561
0.347181
0.348862
0.350936
0.353784
0.357448
0.362153
0.368442
0.376163
0.38553
0.396934
0.410041
0.424056
0.439735
0.45602
0.471249
0.483223
0.491216
0.493948
0.492276
0.486158
0.477027
0.465447
0.453107
0.440181
0.427663
0.414515
0.401198
0.387166
0.373049
0.35835
0.341158
0.31793
0.296542
0.252972
0.230317
0.129035
0.153606
0.179877
0.260548
0.277862
0.299736
0.305906
0.314348
0.317246
0.321371
0.323276
0.325677
0.327158
0.328804
0.329997
0.331337
0.332512
0.333991
0.335535
0.337317
0.33913
0.340915
0.342614
0.344186
0.34566
0.34722
0.348875
0.350912
0.353727
0.357346
0.361993
0.368229
0.375886
0.385172
0.396516
0.409543
0.423434
0.439026
0.455254
0.470455
0.482406
0.490363
0.493032
0.49132
0.485171
0.476045
0.464519
0.452291
0.439504
0.427144
0.414134
0.400983
0.38701
0.372951
0.358181
0.340953
0.317666
0.296075
0.252484
0.229506
0.128478
0.152646
0.183766
0.261143
0.278055
0.29975
0.305983
0.314386
0.317291
0.321395
0.323297
0.325691
0.327172
0.328816
0.330005
0.33134
0.332506
0.333983
0.335532
0.337327
0.339159
0.340958
0.342671
0.344245
0.345713
0.347264
0.348893
0.350893
0.353677
0.35725
0.36184
0.368024
0.375618
0.384822
0.396107
0.409051
0.422814
0.438314
0.454478
0.469639
0.481555
0.489465
0.492062
0.490303
0.484123
0.475005
0.463541
0.451436
0.438796
0.426607
0.413748
0.400779
0.386871
0.372895
0.35802
0.340779
0.317424
0.295627
0.252008
0.22871
0.127919
0.15171
0.187656
0.261714
0.278241
0.299757
0.306057
0.314425
0.31734
0.321423
0.323323
0.325708
0.327189
0.328831
0.330018
0.331347
0.332505
0.333979
0.335534
0.337341
0.339192
0.341006
0.342732
0.344308
0.345771
0.347313
0.348916
0.350881
0.353633
0.357162
0.361694
0.367828
0.375359
0.384482
0.395709
0.408566
0.422197
0.4376
0.453692
0.468799
0.480668
0.488519
0.49103
0.489218
0.483004
0.473899
0.462507
0.450538
0.438054
0.426052
0.413359
0.400587
0.386752
0.372871
0.35788
0.340637
0.317208
0.2952
0.25155
0.227936
0.127368
0.150804
0.191549
0.262259
0.278427
0.299756
0.306127
0.314463
0.317393
0.321455
0.323353
0.325729
0.32721
0.328851
0.330035
0.33136
0.332507
0.33398
0.33554
0.33736
0.339228
0.341057
0.342796
0.344376
0.345834
0.347368
0.348945
0.350875
0.353599
0.357083
0.361558
0.367643
0.375112
0.384153
0.395325
0.40809
0.421586
0.436886
0.452897
0.467934
0.479741
0.487519
0.489931
0.488056
0.481805
0.472719
0.461412
0.449592
0.437278
0.425479
0.412968
0.400406
0.386652
0.372876
0.357766
0.340529
0.317018
0.294799
0.251113
0.227189
0.126831
0.149931
0.195442
0.262782
0.278623
0.299749
0.306194
0.3145
0.317449
0.32149
0.323387
0.325754
0.327234
0.328873
0.330056
0.331376
0.332515
0.333985
0.33555
0.337382
0.33927
0.341113
0.342865
0.344449
0.345902
0.347429
0.348982
0.350878
0.353574
0.357014
0.361433
0.36747
0.374878
0.383837
0.394955
0.407625
0.420982
0.436175
0.452096
0.467046
0.478772
0.48646
0.488757
0.486809
0.48052
0.471457
0.460249
0.448596
0.436466
0.424887
0.412574
0.400238
0.386573
0.372912
0.357677
0.340455
0.316856
0.294425
0.250701
0.22647
0.126316
0.149094
0.199304
0.263311
0.278836
0.299738
0.306256
0.314535
0.317507
0.321529
0.323426
0.325783
0.327262
0.3289
0.330082
0.331398
0.332528
0.333996
0.335566
0.337409
0.339316
0.341174
0.342939
0.344527
0.345976
0.347498
0.349027
0.350891
0.353561
0.356957
0.36132
0.367312
0.374659
0.383536
0.394602
0.407173
0.420388
0.43547
0.451289
0.466132
0.477757
0.485337
0.487503
0.485469
0.479138
0.470106
0.459011
0.447544
0.435614
0.424276
0.412178
0.400083
0.386515
0.372981
0.357618
0.340416
0.316723
0.29408
0.250314
0.225783
0.125824
0.148293
0.203099
0.263882
0.279072
0.299727
0.306315
0.314567
0.317568
0.321571
0.32347
0.325816
0.327295
0.32893
0.330112
0.331426
0.332546
0.334012
0.335587
0.33744
0.339367
0.34124
0.343018
0.344612
0.346057
0.347575
0.349082
0.350914
0.35356
0.356913
0.361221
0.36717
0.374457
0.383253
0.394267
0.406737
0.419806
0.434773
0.450476
0.465193
0.476694
0.484147
0.486161
0.484029
0.477652
0.468658
0.457694
0.446432
0.434721
0.423645
0.411782
0.399942
0.386479
0.373082
0.357591
0.340411
0.316618
0.293765
0.249954
0.225128
0.125358
0.147527
0.206815
0.264506
0.279335
0.299718
0.306371
0.314598
0.31763
0.321616
0.323519
0.325854
0.327331
0.328964
0.330146
0.331459
0.332571
0.334034
0.335614
0.337477
0.339424
0.341312
0.343104
0.344703
0.346146
0.347661
0.349147
0.350949
0.353573
0.356884
0.361137
0.367044
0.374274
0.382989
0.393951
0.406317
0.41924
0.434085
0.44966
0.464228
0.47558
0.482884
0.484726
0.48248
0.476053
0.467105
0.456289
0.445256
0.433785
0.422991
0.411384
0.399816
0.386466
0.373216
0.357598
0.340439
0.316543
0.293482
0.249621
0.224505
0.124919
0.146796
0.210456
0.265179
0.279625
0.299713
0.306425
0.314625
0.317694
0.321665
0.323573
0.325896
0.327372
0.329002
0.330186
0.331498
0.332602
0.334062
0.335645
0.33752
0.339486
0.34139
0.343196
0.344802
0.346243
0.347757
0.349223
0.350996
0.3536
0.35687
0.361069
0.366938
0.374112
0.382747
0.393655
0.405918
0.418691
0.433411
0.44884
0.463236
0.474414
0.481545
0.483192
0.480815
0.474333
0.465441
0.454792
0.444014
0.432802
0.422316
0.410984
0.399705
0.386477
0.373384
0.357645
0.340499
0.316497
0.29323
0.249317
0.223915
0.124505
0.146095
0.214026
0.265895
0.279945
0.299716
0.306479
0.314651
0.317759
0.321716
0.323632
0.325943
0.327418
0.329045
0.33023
0.331543
0.33264
0.334098
0.335683
0.337568
0.339555
0.341475
0.343295
0.344908
0.346349
0.347864
0.349311
0.351058
0.353644
0.356873
0.36102
0.366853
0.373972
0.38253
0.393382
0.40554
0.418161
0.43275
0.448017
0.462218
0.473194
0.480124
0.481554
0.479027
0.472484
0.463657
0.453198
0.4427
0.43177
0.421617
0.410581
0.39961
0.386513
0.373586
0.357735
0.340589
0.316481
0.293012
0.249042
0.223358
0.124117
0.145422
0.217528
0.26665
0.280293
0.29973
0.306534
0.314676
0.317825
0.321771
0.323696
0.325996
0.32747
0.329092
0.330279
0.331594
0.332685
0.33414
0.335728
0.337623
0.33963
0.341566
0.343403
0.345023
0.346465
0.347982
0.349413
0.351134
0.353706
0.356895
0.36099
0.366791
0.373856
0.382338
0.393133
0.405185
0.417653
0.432106
0.447193
0.461174
0.471916
0.47862
0.479807
0.477111
0.4705
0.461748
0.451502
0.44131
0.430687
0.420894
0.410177
0.399532
0.386575
0.373823
0.357873
0.340709
0.316494
0.292827
0.248795
0.222833
0.123753
0.144775
0.220963
0.26744
0.280663
0.299762
0.306592
0.3147
0.317892
0.321829
0.323766
0.326054
0.327527
0.329145
0.330334
0.331652
0.332738
0.334191
0.33578
0.337683
0.339712
0.341664
0.343518
0.345147
0.346591
0.348113
0.349528
0.351227
0.353786
0.356937
0.360983
0.366752
0.373768
0.382175
0.392911
0.404856
0.417168
0.431478
0.446369
0.460103
0.470582
0.477028
0.477948
0.475061
0.468376
0.45971
0.449701
0.439842
0.42955
0.420146
0.409773
0.399469
0.386664
0.374096
0.35806
0.34086
0.316538
0.292676
0.248577
0.22234
0.123413
0.144153
0.224335
0.268262
0.281051
0.299823
0.306653
0.314724
0.317961
0.321891
0.323842
0.326118
0.327591
0.329204
0.330395
0.331717
0.3328
0.334249
0.335839
0.33775
0.339801
0.341769
0.343642
0.34528
0.346729
0.348257
0.349659
0.351337
0.353887
0.357
0.360998
0.36674
0.373709
0.382039
0.392718
0.404555
0.416709
0.430868
0.445544
0.459007
0.469189
0.475347
0.475976
0.472878
0.466112
0.457543
0.447794
0.438292
0.428357
0.419371
0.409368
0.399423
0.386781
0.374405
0.358291
0.341049
0.316612
0.292559
0.248388
0.22188
0.123097
0.143551
0.227645
0.26911
0.281461
0.299911
0.306717
0.314751
0.318032
0.321957
0.323924
0.326188
0.327663
0.329269
0.330461
0.331789
0.33287
0.334317
0.335906
0.337823
0.339896
0.341881
0.343776
0.345424
0.346879
0.348416
0.349805
0.351466
0.354009
0.357086
0.361038
0.366756
0.373681
0.381935
0.392555
0.404285
0.416279
0.430276
0.444719
0.457886
0.467738
0.473576
0.473893
0.470565
0.463711
0.455247
0.445781
0.43666
0.427104
0.418568
0.408962
0.399395
0.386926
0.374752
0.358562
0.341282
0.316718
0.292479
0.248228
0.221452
0.122804
0.142971
0.230896
0.269981
0.281902
0.300019
0.306786
0.31478
0.318106
0.322028
0.324011
0.326267
0.327743
0.329343
0.330535
0.331869
0.33295
0.334394
0.335983
0.337905
0.339996
0.342003
0.343919
0.345579
0.347042
0.34859
0.34997
0.351615
0.354154
0.357197
0.361105
0.366802
0.373687
0.381864
0.392424
0.404046
0.41588
0.429706
0.443897
0.456741
0.466232
0.471718
0.471702
0.468127
0.461178
0.45283
0.443664
0.434944
0.425791
0.417738
0.408556
0.399388
0.387099
0.375138
0.358875
0.34156
0.316857
0.292434
0.248097
0.221056
0.122533
0.142408
0.234091
0.270872
0.282378
0.300139
0.306859
0.314814
0.318184
0.322104
0.324105
0.326353
0.327832
0.329424
0.330617
0.331957
0.333039
0.334482
0.336069
0.337995
0.340101
0.342133
0.344071
0.345744
0.347218
0.34878
0.350152
0.351786
0.354324
0.357333
0.361201
0.366882
0.373726
0.381828
0.392328
0.403838
0.415516
0.429158
0.443077
0.455575
0.464672
0.469776
0.469412
0.465577
0.458528
0.450303
0.441451
0.433149
0.424415
0.41688
0.408148
0.399401
0.387303
0.375566
0.35923
0.341883
0.317029
0.292426
0.247996
0.220691
0.122285
0.141864
0.237233
0.271782
0.282891
0.300268
0.306941
0.314853
0.318267
0.322186
0.324207
0.326449
0.32793
0.329516
0.330709
0.332054
0.333139
0.334581
0.336167
0.338094
0.340215
0.342268
0.344234
0.345922
0.347408
0.348987
0.350355
0.351979
0.354519
0.357498
0.361327
0.366997
0.373801
0.381831
0.39227
0.403664
0.415189
0.428635
0.442261
0.454388
0.463064
0.467758
0.467033
0.462926
0.455772
0.447677
0.439151
0.431277
0.422979
0.415992
0.407741
0.399436
0.387538
0.376035
0.35963
0.342253
0.317235
0.292455
0.247924
0.220359
0.122058
0.141336
0.240325
0.272711
0.283435
0.300407
0.307031
0.314899
0.318355
0.322274
0.324318
0.326554
0.328039
0.329618
0.330811
0.332161
0.333249
0.334692
0.336276
0.338203
0.340341
0.342405
0.344411
0.346112
0.347612
0.349212
0.350578
0.352198
0.354742
0.357692
0.361487
0.367149
0.373913
0.381874
0.39225
0.403527
0.414899
0.428139
0.44145
0.453182
0.461413
0.465674
0.464576
0.460192
0.452929
0.44497
0.436776
0.429337
0.421484
0.415076
0.407334
0.399492
0.387805
0.376547
0.360076
0.34267
0.317476
0.292523
0.247883
0.220058
0.121852
0.140825
0.24337
0.273656
0.284
0.300561
0.307133
0.314953
0.31845
0.32237
0.324438
0.32667
0.32816
0.329733
0.330925
0.332279
0.333371
0.334816
0.336398
0.338325
0.340477
0.342543
0.3446
0.346316
0.347831
0.349455
0.350822
0.352442
0.354993
0.357917
0.361683
0.367341
0.374066
0.381959
0.392271
0.403429
0.414649
0.427673
0.440643
0.451961
0.459728
0.463534
0.462056
0.457391
0.450012
0.442196
0.43434
0.427337
0.419935
0.41413
0.406929
0.399571
0.388106
0.377103
0.360568
0.343135
0.317754
0.292629
0.247871
0.219789
0.121668
0.140329
0.24637
0.274615
0.284584
0.300733
0.307246
0.315016
0.318552
0.322474
0.324569
0.326797
0.328294
0.329862
0.331053
0.33241
0.333507
0.334954
0.336536
0.338459
0.340625
0.34269
0.344798
0.346535
0.348066
0.349716
0.35109
0.352714
0.355275
0.358175
0.361918
0.367573
0.374262
0.382089
0.392334
0.403372
0.414442
0.427238
0.439841
0.450731
0.458018
0.46135
0.459484
0.454537
0.447038
0.439373
0.431857
0.425288
0.418339
0.413158
0.406525
0.399673
0.388442
0.377705
0.361108
0.343649
0.318068
0.292775
0.247891
0.219552
0.121505
0.139848
0.24933
0.275586
0.285185
0.300921
0.307371
0.315088
0.318663
0.322588
0.32471
0.326936
0.328442
0.330006
0.331196
0.332555
0.333657
0.335107
0.336689
0.338608
0.340785
0.342856
0.344995
0.346769
0.348318
0.349997
0.351382
0.353015
0.355588
0.358467
0.362195
0.367849
0.374502
0.382269
0.392443
0.403356
0.414282
0.426836
0.439044
0.449496
0.456289
0.459134
0.456875
0.451638
0.444041
0.436526
0.429343
0.423201
0.416702
0.412162
0.406124
0.3998
0.388812
0.378354
0.361697
0.344213
0.318421
0.292961
0.247941
0.219348
0.121363
0.139382
0.252251
0.276568
0.285802
0.301125
0.307507
0.31517
0.318782
0.322712
0.324864
0.327089
0.328607
0.330166
0.331356
0.332716
0.333823
0.335278
0.336859
0.338774
0.34096
0.343042
0.345195
0.347017
0.348586
0.350297
0.351698
0.353346
0.355934
0.358797
0.362516
0.368171
0.374789
0.3825
0.3926
0.403385
0.414172
0.426465
0.438255
0.448264
0.454552
0.4569
0.454239
0.44872
0.441036
0.433671
0.426819
0.421086
0.415032
0.41115
0.405726
0.399952
0.389218
0.379052
0.362336
0.344828
0.318812
0.293187
0.248023
0.219175
0.121242
0.13893
0.255138
0.277558
0.286434
0.301342
0.307654
0.315262
0.31891
0.322846
0.32503
0.327257
0.328788
0.330344
0.331535
0.332895
0.334008
0.335466
0.337048
0.338959
0.34115
0.343244
0.345409
0.347276
0.348874
0.350618
0.352041
0.35371
0.356313
0.359165
0.362885
0.368542
0.375125
0.382785
0.392806
0.403461
0.414113
0.426124
0.437479
0.447041
0.452814
0.454658
0.451586
0.445831
0.438031
0.43082
0.4243
0.418965
0.413339
0.410128
0.405332
0.400132
0.38966
0.3798
0.363025
0.345495
0.319242
0.293454
0.248136
0.219034
0.121141
0.138493
0.257992
0.278556
0.28708
0.301574
0.307812
0.315364
0.319047
0.322991
0.32521
0.327441
0.328988
0.330542
0.331734
0.333094
0.334212
0.335675
0.337258
0.339165
0.34136
0.343464
0.345646
0.347544
0.349182
0.35096
0.352411
0.354107
0.356729
0.359576
0.363303
0.368964
0.375513
0.383128
0.393063
0.403587
0.414105
0.425812
0.436721
0.445831
0.451082
0.452421
0.448949
0.442966
0.43505
0.427993
0.421799
0.416855
0.411631
0.409099
0.404947
0.400338
0.390138
0.380599
0.363765
0.346214
0.319714
0.293762
0.248281
0.218926
0.121061
0.13807
0.260817
0.279558
0.287737
0.301818
0.307982
0.315476
0.319194
0.323148
0.325404
0.327643
0.329206
0.33076
0.331956
0.333316
0.334439
0.335906
0.337491
0.339394
0.341591
0.343703
0.345904
0.347825
0.349512
0.351325
0.352809
0.35454
0.35718
0.360032
0.363775
0.369438
0.375958
0.383532
0.393374
0.403768
0.414146
0.425531
0.435987
0.44464
0.449358
0.450192
0.446358
0.440125
0.432108
0.425206
0.419333
0.414753
0.409919
0.408073
0.404575
0.400573
0.390652
0.38145
0.364558
0.346988
0.320227
0.294112
0.248457
0.21885
0.121002
0.137662
0.263616
0.280565
0.288405
0.302074
0.308161
0.315598
0.31935
0.323317
0.325612
0.327862
0.329444
0.331001
0.332202
0.333562
0.334691
0.336162
0.337749
0.339649
0.341846
0.343965
0.346184
0.348128
0.349862
0.351714
0.353239
0.35501
0.35767
0.360536
0.364304
0.369967
0.376461
0.384
0.393742
0.404004
0.414233
0.425285
0.43528
0.443471
0.447651
0.448004
0.443799
0.437336
0.429225
0.422476
0.416914
0.412679
0.408217
0.40706
0.404222
0.400836
0.391202
0.382353
0.365403
0.347815
0.320782
0.294504
0.248666
0.218806
0.120963
0.137269
0.266391
0.281574
0.289083
0.302342
0.308351
0.31573
0.319515
0.323498
0.325833
0.3281
0.329702
0.331265
0.332475
0.333834
0.334971
0.336445
0.338035
0.339933
0.342128
0.344252
0.346488
0.348458
0.350234
0.35213
0.353702
0.355519
0.3582
0.36109
0.364893
0.370555
0.377025
0.384535
0.394168
0.404296
0.414364
0.425077
0.434599
0.442326
0.445979
0.445871
0.441284
0.434618
0.426415
0.419815
0.414557
0.410646
0.40653
0.406043
0.403897
0.40113
0.391786
0.383311
0.366301
0.348696
0.32138
0.294938
0.248908
0.218795
0.120944
0.13689
0.269144
0.282585
0.289768
0.30262
0.308551
0.315871
0.319688
0.32369
0.326067
0.328356
0.329981
0.331553
0.332774
0.334136
0.335281
0.336759
0.338351
0.340247
0.34244
0.34457
0.346821
0.348817
0.350633
0.352575
0.354202
0.356069
0.358774
0.361699
0.365545
0.371204
0.377654
0.38514
0.394656
0.404642
0.41454
0.424908
0.433939
0.441209
0.444403
0.443733
0.438837
0.431983
0.423695
0.417236
0.41227
0.408666
0.404872
0.405023
0.403601
0.401458
0.392415
0.384323
0.367254
0.349631
0.322023
0.295414
0.249181
0.218816
0.120945
0.136527
0.271878
0.283595
0.29046
0.302907
0.308759
0.316022
0.319871
0.323893
0.326316
0.32863
0.330282
0.331867
0.333102
0.334467
0.335623
0.337105
0.3387
0.340596
0.342785
0.344919
0.347185
0.349207
0.351063
0.353052
0.35474
0.356661
0.359394
0.362365
0.366259
0.371917
0.378351
0.385815
0.395205
0.40504
0.414763
0.42478
0.433297
0.440137
0.442986
0.441562
0.436468
0.429443
0.421074
0.414748
0.410061
0.406749
0.40325
0.404036
0.403259
0.401826
0.393138
0.38539
0.368261
0.35062
0.322709
0.295933
0.249486
0.21887
0.120966
0.136179
0.274596
0.284604
0.291158
0.303203
0.308977
0.316181
0.320062
0.324106
0.326577
0.32892
0.330603
0.332206
0.333458
0.334831
0.335999
0.337487
0.339085
0.340981
0.343167
0.345306
0.347584
0.349633
0.351529
0.353566
0.355322
0.357297
0.360064
0.363096
0.367039
0.372696
0.37912
0.386562
0.395815
0.405489
0.415034
0.424688
0.432698
0.439135
0.441657
0.439388
0.434187
0.427007
0.418562
0.412357
0.407938
0.404902
0.401671
0.403078
0.402847
0.402226
0.393994
0.386508
0.369323
0.351663
0.323441
0.296494
0.249824
0.218956
0.121007
0.135846
0.277299
0.28561
0.291859
0.303506
0.309203
0.316349
0.320261
0.324329
0.326851
0.329226
0.330945
0.332569
0.333842
0.335226
0.33641
0.337906
0.339508
0.341406
0.343588
0.345731
0.348022
0.350098
0.352034
0.35412
0.355949
0.357981
0.360788
0.363893
0.367886
0.373541
0.379961
0.387379
0.396484
0.40599
0.41535
0.42463
0.432226
0.438193
0.440281
0.437286
0.432002
0.42468
0.416164
0.410069
0.405904
0.40313
0.400143
0.402147
0.402446
0.402628
0.394976
0.38767
0.37044
0.35276
0.324218
0.297097
0.250193
0.219075
0.121067
0.13553
0.279991
0.286611
0.292564
0.303817
0.309437
0.316525
0.320469
0.324561
0.327136
0.329548
0.331306
0.332956
0.334255
0.335655
0.336858
0.338364
0.339972
0.341872
0.344052
0.3462
0.348504
0.350607
0.352583
0.354719
0.356623
0.358716
0.36157
0.364759
0.368804
0.374455
0.380877
0.388262
0.397211
0.406541
0.415708
0.424607
0.43192
0.437281
0.438819
0.435348
0.429922
0.422468
0.413886
0.407888
0.403962
0.401438
0.398674
0.40125
0.402081
0.403009
0.39607
0.388872
0.371611
0.353911
0.325041
0.297742
0.250594
0.219226
0.121146
0.13523
0.282672
0.287608
0.293269
0.304135
0.309679
0.316709
0.320684
0.324802
0.327432
0.329884
0.331685
0.333366
0.334696
0.336116
0.337343
0.338861
0.340478
0.342382
0.344561
0.346716
0.349032
0.351164
0.35318
0.355368
0.357348
0.359507
0.362416
0.365692
0.369792
0.37544
0.381863
0.389207
0.397993
0.407139
0.416102
0.424619
0.431711
0.436377
0.437268
0.433632
0.427958
0.420375
0.411728
0.405813
0.402112
0.399828
0.39727
0.400396
0.401759
0.403365
0.397274
0.390114
0.372837
0.355114
0.32591
0.29843
0.251026
0.219409
0.121243
0.134947
0.285346
0.288597
0.293975
0.304458
0.309928
0.316901
0.320907
0.325052
0.327737
0.330233
0.332081
0.333798
0.335164
0.336607
0.337864
0.339398
0.341028
0.342938
0.345118
0.34728
0.34961
0.351772
0.353828
0.356071
0.358126
0.360358
0.36333
0.366693
0.370849
0.376497
0.382917
0.390211
0.398827
0.407779
0.416529
0.424665
0.431512
0.43553
0.435754
0.43208
0.426114
0.4184
0.409692
0.403847
0.400356
0.398302
0.395938
0.399592
0.401488
0.403699
0.398536
0.391418
0.374115
0.35637
0.326823
0.299159
0.251489
0.219624
0.121359
0.134681
0.288014
0.289577
0.294679
0.304786
0.310183
0.3171
0.321137
0.32531
0.328051
0.330595
0.332493
0.33425
0.335657
0.337129
0.33842
0.339975
0.34162
0.34354
0.345724
0.347895
0.350241
0.352435
0.354533
0.356831
0.358962
0.361271
0.364313
0.367763
0.371975
0.377626
0.384034
0.391268
0.399708
0.408456
0.416979
0.42475
0.431273
0.434747
0.434418
0.430621
0.424391
0.416543
0.407775
0.401988
0.398693
0.39686
0.394681
0.398847
0.401301
0.404002
0.399793
0.39281
0.375444
0.357677
0.327781
0.299929
0.251983
0.219871
0.121492
0.134433
0.290679
0.290548
0.295381
0.305118
0.310445
0.317305
0.321375
0.325575
0.328375
0.330967
0.332919
0.33472
0.336172
0.337679
0.339009
0.340588
0.342255
0.344188
0.346379
0.348563
0.350925
0.353155
0.355297
0.357649
0.359858
0.362251
0.365365
0.3689
0.373169
0.378821
0.385209
0.392373
0.40063
0.409165
0.417447
0.424863
0.431024
0.433968
0.433295
0.429257
0.422786
0.414803
0.405977
0.400234
0.39712
0.395502
0.393503
0.398156
0.401198
0.404346
0.400998
0.394289
0.376822
0.359034
0.328782
0.30074
0.252507
0.22015
0.121643
0.134203
0.293343
0.291508
0.296078
0.305454
0.310712
0.317518
0.321619
0.325849
0.328706
0.331349
0.333358
0.335207
0.336709
0.338256
0.339629
0.341238
0.34293
0.34488
0.347083
0.349282
0.351664
0.353932
0.356122
0.358527
0.360818
0.363298
0.366485
0.370104
0.374428
0.380078
0.386435
0.39352
0.401586
0.409903
0.417929
0.424993
0.430802
0.433205
0.432349
0.428
0.421298
0.413176
0.404293
0.398585
0.395637
0.394227
0.392404
0.397522
0.401144
0.404848
0.402081
0.395828
0.378247
0.360439
0.329827
0.30159
0.25306
0.22046
0.12181
0.133991
0.296007
0.292454
0.296771
0.305792
0.310985
0.317737
0.32187
0.326129
0.329045
0.331741
0.333808
0.335709
0.337264
0.338857
0.340277
0.34192
0.343644
0.345615
0.347834
0.350053
0.352457
0.354766
0.357007
0.359467
0.361842
0.364412
0.367669
0.371371
0.375748
0.38139
0.387708
0.394704
0.402572
0.410666
0.418419
0.425143
0.430598
0.432532
0.431501
0.426851
0.419922
0.411657
0.40272
0.397038
0.394241
0.393034
0.391385
0.396947
0.401127
0.405514
0.403067
0.397413
0.37972
0.361891
0.330914
0.302478
0.253642
0.220801
0.121994
0.133799
0.298675
0.293386
0.297457
0.306133
0.311262
0.317962
0.322128
0.326418
0.329392
0.332142
0.334269
0.336225
0.337837
0.339479
0.34095
0.342633
0.344394
0.34639
0.34863
0.350873
0.353302
0.355655
0.35795
0.360467
0.362928
0.365588
0.368916
0.372696
0.377122
0.38275
0.38902
0.395918
0.403583
0.411452
0.418909
0.425324
0.430381
0.431997
0.430715
0.425806