/*--------------------------------*- C++ -*----------------------------------*\
| =========                 |                                                 |
| \\      /  F ield         | OpenFOAM: The Open Source CFD Toolbox           |
|  \\    /   O peration     | Version:  2.4.0                                 |
|   \\  /    A nd           | Web:      www.OpenFOAM.org                      |
|    \\/     M anipulation  |                                                 |
\*---------------------------------------------------------------------------*/
FoamFile
{
    version     2.0;
    format      ascii;
    class       volVectorField;
    location    "3.4";
    object      U;
}
// * * * * * * * * * * * * * * * * * * * * * * * * * * * * * * * * * * * * * //

dimensions      [0 1 -1 0 0 0 0];

internalField   nonuniform List<vector> 
5625
(
(0.237126 0.00539743 5.61935e-19)
(0.00911348 -0.00204589 -3.90658e-18)
(0.00354379 -0.00136467 0)
(-0.00657573 0.000976447 0)
(-0.00609923 0.00106558 0)
(-0.00761485 0.00134826 0)
(-0.00707315 0.00127416 4.84068e-18)
(-0.00723443 0.00126795 2.41475e-18)
(-0.00683702 0.00118392 2.39699e-18)
(-0.00672146 0.00112608 0)
(-0.00644104 0.00105306 2.35111e-18)
(-0.00629239 0.000993007 -2.3248e-18)
(-0.00610786 0.000934218 -2.29715e-18)
(-0.00599381 0.00088188 0)
(-0.00586609 0.000829103 0)
(-0.00573578 0.000774141 0)
(-0.00554433 0.000714624 0)
(-0.00529663 0.000644827 0)
(-0.00499565 0.000573856 2.14365e-18)
(-0.00468998 0.000510031 2.12069e-18)
(-0.00442578 0.000458173 -1.04924e-18)
(-0.00422035 0.000414047 0)
(-0.00398264 0.000359361 -1.02858e-18)
(-0.00346325 0.000262224 -1.01958e-18)
(-0.00228043 9.26677e-05 0)
(-0.000137576 -0.000141608 -1.00488e-18)
(0.0028935 -0.000390138 0)
(0.00627118 -0.000578054 0)
(0.00936131 -0.000675765 0)
(0.0119019 -0.000704526 4.86033e-19)
(0.0140594 -0.0007127 0)
(0.0160682 -0.000704099 0)
(0.0173059 -0.000667168 0)
(0.0155591 -0.000264075 4.54091e-19)
(0.00790707 0.000467933 -4.37202e-19)
(-0.00727698 0.00113258 0)
(-0.02837 0.00167339 4.97131e-20)
(-0.051276 0.0016553 0)
(-0.0717971 0.00107068 -4.81117e-20)
(-0.0874464 0.000153565 -9.91383e-20)
(-0.0975979 -0.000930752 4.19512e-19)
(-0.102928 -0.00188256 -4.51524e-19)
(-0.104195 -0.00287766 0)
(-0.101363 -0.00341556 0)
(-0.0941417 -0.00391539 0)
(-0.0826166 -0.00407925 -6.41173e-19)
(-0.0655704 -0.0039564 1.388e-18)
(-0.0463064 -0.00339027 0)
(-0.0240533 -0.00235281 -3.12156e-18)
(-0.00370956 -0.00115491 1.62021e-18)
(0.0161904 0.000362601 1.65753e-18)
(0.0320525 0.00185801 1.67823e-18)
(0.0464727 0.00351725 1.68331e-18)
(0.0571023 0.00496922 0)
(0.0666506 0.00646726 1.66193e-18)
(0.0728677 0.00771662 -3.27975e-18)
(0.0785102 0.0089808 -3.22799e-18)
(0.0809693 0.00984306 0)
(0.0833671 0.0107001 2.03162e-21)
(0.0824322 0.0111628 3.0272e-18)
(0.082045 0.0116085 0)
(0.0782566 0.0115815 -2.879e-18)
(0.0764263 0.0117661 0)
(0.0712514 0.0114405 0)
(0.069831 0.0116076 2.66484e-18)
(0.0646686 0.0111753 0)
(0.0652395 0.0116293 -2.49804e-18)
(0.0609825 0.0112718 2.38687e-18)
(0.0645987 0.012154 0)
(0.0615709 0.0119666 2.11746e-18)
(0.0689706 0.0136446 -1.95468e-18)
(0.0671351 0.0136702 0)
(0.0794465 0.0164916 0)
(0.0781442 0.0166355 0)
(0.0999169 0.0213813 9.91226e-19)
(0.482368 -0.00974489 0)
(0.07398 -0.00386603 0)
(0.0247482 -0.00363583 0)
(-0.00911692 0.00228162 2.70769e-18)
(-0.0123126 0.00267021 -2.73541e-18)
(-0.0181297 0.00358025 -2.7532e-18)
(-0.0178645 0.00344489 -9.02437e-22)
(-0.0189128 0.00348635 -7.62831e-22)
(-0.018282 0.00327744 -2.66712e-18)
(-0.0182299 0.00314144 2.62726e-18)
(-0.0176684 0.00294745 0)
(-0.0173929 0.00279063 2.54384e-18)
(-0.0169905 0.00262845 5.00574e-18)
(-0.0167424 0.00248522 0)
(-0.0164362 0.00233711 0)
(-0.016106 0.00217516 2.38911e-18)
(-0.0156154 0.00198806 0)
(-0.0149902 0.0017873 0)
(-0.0142528 0.00159314 0)
(-0.0135306 0.00142636 -3.39382e-18)
(-0.0129157 0.00129279 2.2344e-18)
(-0.0123908 0.00116145 -1.10383e-18)
(-0.0116383 0.000953995 7.61745e-23)
(-0.0099619 0.00055958 1.08035e-18)
(-0.00642268 -9.50083e-05 0)
(-0.000387668 -0.000927563 0)
(0.00781068 -0.00172243 0)
(0.0167364 -0.00222899 0)
(0.024773 -0.0023989 0)
(0.0311459 -0.00235239 -5.11866e-19)
(0.0359445 -0.00222273 5.05938e-19)
(0.0390359 -0.00189759 0)
(0.0378408 -0.000934048 -4.90547e-19)
(0.0261723 0.0013998 -4.77718e-19)
(-0.00238723 0.00483649 2.2981e-19)
(-0.0485524 0.00783391 -1.09799e-19)
(-0.10449 0.00939292 -5.23659e-20)
(-0.1585 0.00852183 0)
(-0.201634 0.00565888 5.05684e-20)
(-0.230564 0.00200101 2.08247e-19)
(-0.246126 -0.0018561 -2.20417e-19)
(-0.250572 -0.00508354 4.74448e-19)
(-0.245922 -0.00814118 5.16821e-19)
(-0.232072 -0.0101919 0)
(-0.208813 -0.0122157 -6.19241e-19)
(-0.177466 -0.0132331 6.75243e-19)
(-0.134425 -0.013384 0)
(-0.0898524 -0.0121584 -1.56212e-18)
(-0.0378734 -0.00939122 3.29426e-18)
(0.00770171 -0.00599789 0)
(0.054131 -0.00154373 -1.75401e-18)
(0.0909812 0.00270681 -1.77828e-18)
(0.126269 0.00743017 -1.5864e-21)
(0.152494 0.0116027 0)
(0.177461 0.0159975 -1.76969e-18)
(0.193974 0.0197061 5.24706e-18)
(0.210021 0.023535 0)
(0.217485 0.0264691 -3.38684e-18)
(0.225554 0.0293556 4.00684e-21)
(0.22427 0.0310335 3.25711e-18)
(0.224918 0.0327619 0)
(0.21566 0.0330883 3.46423e-21)
(0.21196 0.0338378 0)
(0.198159 0.0330795 0)
(0.194973 0.033516 0)
(0.180448 0.0322547 2.84472e-18)
(0.182411 0.033324 2.77981e-18)
(0.169795 0.0321578 0)
(0.180115 0.0346714 2.56996e-18)
(0.170447 0.0339443 0)
(0.191392 0.0387024 4.48726e-18)
(0.184586 0.038528 0)
(0.219178 0.0465637 -1.65581e-18)
(0.213633 0.0466828 0)
(0.271549 0.0596047 -1.19173e-18)
(0.637812 0.00429615 0)
(0.16154 -0.000732703 0)
(0.0593513 -0.00454871 0)
(-0.00106493 0.00279277 -1.98714e-22)
(-0.0122224 0.00343924 2.73626e-18)
(-0.0236613 0.00497578 5.50722e-18)
(-0.0250318 0.00490642 -5.98408e-22)
(-0.0275737 0.0050692 -2.70515e-18)
(-0.0272848 0.00482585 -2.66656e-18)
(-0.0276187 0.00467358 -2.6277e-18)
(-0.0270692 0.00441948 0)
(-0.0268556 0.00421243 -2.54417e-18)
(-0.0263978 0.00398971 -2.50301e-18)
(-0.0261254 0.00378644 0)
(-0.0257364 0.00356503 -2.42518e-18)
(-0.0252929 0.00331387 -1.69032e-22)
(-0.0246093 0.00300473 0)
(-0.0237392 0.00269043 -2.32262e-18)
(-0.022733 0.00240387 0)
(-0.0217758 0.00217367 2.26254e-18)
(-0.0209729 0.00199091 -2.45679e-23)
(-0.0202405 0.00176846 3.53075e-23)
(-0.0190474 0.00133314 1.09144e-18)
(-0.0163506 0.000476145 0)
(-0.0108351 -0.000891888 0)
(-0.00166771 -0.00252994 0)
(0.0106171 -0.00395621 0)
(0.0239436 -0.00469353 0)
(0.0358987 -0.00471784 5.17165e-19)
(0.0450899 -0.00431419 0)
(0.0511177 -0.00367044 -5.0594e-19)
(0.0529129 -0.00237743 4.99416e-19)
(0.0456088 0.00101943 -4.05428e-22)
(0.0198372 0.00731328 2.3901e-19)
(-0.031815 0.015393 0)
(-0.105693 0.0217192 1.09799e-19)
(-0.18604 0.0234975 5.2366e-20)
(-0.25557 0.0199863 0)
(-0.304967 0.013015 -1.43717e-22)
(-0.33342 0.00534165 -1.04099e-19)
(-0.344264 -0.00204369 0)
(-0.341136 -0.00785402 -2.37156e-19)
(-0.326523 -0.0132679 -7.72199e-22)
(-0.300961 -0.0172866 -5.64396e-19)
(-0.263537 -0.0213303 6.19239e-19)
(-0.218244 -0.0238911 0)
(-0.157656 -0.0249064 -7.30345e-19)
(-0.0992063 -0.0237179 8.03471e-22)
(-0.0291822 -0.0198151 -3.29264e-18)
(0.0298042 -0.014687 0)
(0.0926109 -0.00768203 0)
(0.141776 -0.00105252 0)
(0.191343 0.00638511 -1.78481e-18)
(0.228044 0.0129884 0)
(0.265018 0.0200929 0)
(0.289575 0.0261615 -3.49372e-18)
(0.315107 0.0325889 3.44148e-18)
(0.327556 0.0378121 4.20819e-21)
(0.342152 0.043176 3.32514e-18)
(0.342156 0.0464727 -4.03254e-21)
(0.345921 0.0500178 -3.1879e-18)
(0.333583 0.0512611 3.12185e-18)
(0.330068 0.0529649 0)
(0.309652 0.0521068 0)
(0.305852 0.0528351 0)
(0.283068 0.0507515 -2.84541e-18)
(0.286469 0.0520729 0)
(0.265731 0.0498404 0)
(0.281825 0.0534267 -4.98211e-21)
(0.264988 0.0517422 0)
(0.29756 0.058905 -2.24046e-18)
(0.284685 0.0579122 0)
(0.33824 0.0699401 1.6567e-18)
(0.327402 0.0693059 0)
(0.413313 0.0876555 0)
(0.746126 0.0288479 0)
(0.256099 0.00587988 2.35629e-18)
(0.105866 -0.00373886 0)
(0.0173259 0.00332637 -2.7093e-18)
(-0.0056338 0.00386293 -2.73657e-18)
(-0.024112 0.00587764 -2.75399e-18)
(-0.0284789 0.00589664 -2.73199e-18)
(-0.0331654 0.00620029 0)
(-0.0338002 0.00597333 5.33374e-18)
(-0.0348609 0.0058412 0)
(-0.0346189 0.00557052 0)
(-0.0346629 0.00534709 0)
(-0.0343133 0.0050981 0)
(-0.0341337 0.00485843 0)
(-0.0337644 0.00457954 1.72347e-22)
(-0.0333033 0.00425632 -1.68461e-22)
(-0.0325397 0.00384657 -2.35496e-18)
(-0.0315586 0.00343715 1.18125e-22)
(-0.0304399 0.00308209 1.14595e-18)
(-0.0294103 0.00281558 -2.26259e-18)
(-0.0285719 0.0026021 -1.11724e-18)
(-0.0277743 0.00228122 2.20771e-18)
(-0.0263223 0.0015688 0)
(-0.0229412 0.000155079 0)
(-0.0160755 -0.00204919 0)
(-0.00473226 -0.00461267 -1.06114e-18)
(0.0105102 -0.00672818 0)
(0.0271984 -0.00765385 0)
(0.0422378 -0.0073683 -5.17169e-19)
(0.0534669 -0.00631421 0)
(0.0596229 -0.00467638 5.06092e-19)
(0.0583313 -0.00151315 2.89337e-22)
(0.0424295 0.00550442 4.90955e-19)
(0.000527477 0.017288 0)
(-0.0731505 0.0308575 0)
(-0.167912 0.0398555 0)
(-0.260213 0.040058 0)
(-0.330999 0.0320894 0)
(-0.374728 0.0199046 -5.04245e-20)
(-0.394602 0.00777841 0)
(-0.395884 -0.00320066 0)
(-0.383188 -0.0114012 0)
(-0.358404 -0.0192418 -5.16045e-19)
(-0.32354 -0.0251207 1.10801e-21)
(-0.275535 -0.0309956 0)
(-0.222398 -0.0352376 0)
(-0.151237 -0.0371186 1.45993e-18)
(-0.0868964 -0.0362493 1.56135e-18)
(-0.00694148 -0.0316203 1.11053e-21)
(0.0576318 -0.0251949 1.70886e-18)
(0.129775 -0.0161966 0)
(0.184944 -0.0075557 0)
(0.243669 0.00228386 0)
(0.286503 0.0110162 -1.77745e-18)
(0.33235 0.0205748 0)
(0.362593 0.0287971 3.48958e-18)
(0.396349 0.0377425 -5.16008e-18)
(0.413326 0.0450823 3.38333e-18)
(0.434857 0.0531661 0)
(0.437359 0.0582741 -5.12223e-21)
(0.44606 0.0640002 3.18835e-18)
(0.432944 0.0665421 0)
(0.431743 0.0696534 0)
(0.406932 0.0690092 0)
(0.40386 0.070295 -2.92004e-18)
(0.374183 0.067428 0)
(0.379143 0.068961 -2.76957e-18)
(0.350728 0.0654386 2.65983e-18)
(0.371628 0.069585 -2.56662e-18)
(0.347434 0.0665381 0)
(0.389559 0.0754179 2.2267e-18)
(0.370027 0.0731577 0)
(0.438929 0.0880759 0)
(0.422713 0.0861874 0)
(0.528937 0.107968 -5.32975e-19)
(0.824812 0.0526306 1.16597e-18)
(0.349818 0.0149465 -2.35712e-18)
(0.162008 -0.00111072 0)
(0.0455138 0.0042582 0)
(0.00762266 0.00425677 2.73733e-18)
(-0.0193725 0.00650666 0)
(-0.0280943 0.00656897 0)
(-0.035622 0.00701029 0)
(-0.037779 0.00681197 -2.66716e-18)
(-0.0399264 0.00672419 0)
(-0.0402956 0.00645803 0)
(-0.040801 0.00624251 -2.54408e-18)
(-0.0407287 0.00598508 -2.50293e-18)
(-0.0407648 0.00572676 0)
(-0.0405241 0.00540389 2.42542e-18)
(-0.0401494 0.00501338 -2.38932e-18)
(-0.0394201 0.0045292 2.35511e-18)
(-0.0384568 0.00404723 2.32276e-18)
(-0.0373675 0.00365058 -1.14601e-18)
(-0.0364116 0.0033751 2.26265e-18)
(-0.0356877 0.00315105 0)
(-0.0350027 0.00273652 -3.28219e-23)
(-0.0335665 0.00173093 -1.09124e-18)
(-0.0299785 -0.000274424 1.07978e-18)
(-0.0225289 -0.00336532 1.06969e-18)
(-0.0100376 -0.00692275 1.06115e-18)
(0.00706799 -0.00977634 1.0525e-18)
(0.0261949 -0.0108924 -1.04377e-18)
(0.0436419 -0.0101786 0)
(0.0563297 -0.00818625 0)
(0.0618449 -0.00501728 -5.06095e-19)
(0.0562436 0.000978925 3.32262e-22)
(0.0304062 0.0127648 -4.92041e-19)
(-0.0275866 0.0310573 0)
(-0.119469 0.0499484 0)
(-0.226074 0.0599364 0)
(-0.31817 0.0564089 0)
(-0.379677 0.0426282 0)
(-0.41127 0.0248902 0)
(-0.41961 0.00851359 0)
(-0.410559 -0.0057054 0)
(-0.389323 -0.0160166 0)
(-0.356308 -0.0259361 5.13282e-19)
(-0.31561 -0.0335237 1.45748e-21)
(-0.260619 -0.0409418 0)
(-0.20432 -0.0468189 0)
(-0.127506 -0.0494726 -7.29584e-19)
(-0.0618174 -0.0489844 0)
(0.0229597 -0.0438566 1.6449e-18)
(0.0886249 -0.0363641 -1.7089e-18)
(0.165566 -0.0257753 0)
(0.222565 -0.0154906 0)
(0.286699 -0.00367499 1.77918e-18)
(0.332254 0.00678178 2.66318e-21)
(0.384212 0.0184035 -1.76115e-18)
(0.417808 0.0284163 -3.48435e-18)
(0.458209 0.0395812 1.71843e-18)
(0.478718 0.0488178 -3.37183e-18)
(0.506917 0.0594161 0)
(0.512317 0.0665224 -6.21693e-21)
(0.52709 0.0746596 0)
(0.51494 0.0788184 3.10872e-18)
(0.517917 0.0837445 0)
(0.490848 0.0836888 0)
(0.489981 0.0858517 5.83699e-18)
(0.454996 0.0823851 0)
(0.461854 0.0841587 2.77023e-18)
(0.426519 0.0792706 -2.66054e-18)
(0.451329 0.0837162 0)
(0.419973 0.0790631 0)
(0.469588 0.088904 -2.22753e-18)
(0.443398 0.0852579 0)
(0.523919 0.10209 0)
(0.502974 0.0989056 -1.08377e-18)
(0.62277 0.122385 5.31139e-19)
(0.883333 0.0734005 -1.16648e-18)
(0.438928 0.0258636 0)
(0.225162 0.00331668 0)
(0.0826986 0.00589175 0)
(0.0276676 0.00488204 -2.73904e-18)
(-0.00930863 0.00704162 0)
(-0.0237305 0.00705409 0)
(-0.034851 0.00758908 -2.70535e-18)
(-0.0391496 0.00741458 0)
(-0.0427695 0.00737733 0)
(-0.0440653 0.00712755 0)
(-0.0452473 0.00693451 5.08859e-18)
(-0.0456273 0.00668265 1.5551e-22)
(-0.0460093 0.00641944 0)
(-0.0460131 0.00606523 0)
(-0.0458318 0.00561697 2.3892e-18)
(-0.04525 0.00508363 0)
(-0.0444271 0.00454624 0)
(-0.0434945 0.00413296 1.14601e-18)
(-0.0427443 0.00387568 -2.26274e-18)
(-0.0422852 0.00366673 0)
(-0.0419202 0.00317908 -3.15955e-23)
(-0.0408359 0.00189817 1.09127e-18)
(-0.0375905 -0.000685827 -2.39617e-22)
(-0.0303627 -0.00466831 -3.52485e-22)
(-0.0177213 -0.00926498 0)
(0.000236969 -0.0129351 -1.05251e-18)
(0.020985 -0.0142876 1.56556e-18)
(0.0402757 -0.0130671 -5.17046e-19)
(0.0539935 -0.00985214 5.11889e-19)
(0.058368 -0.00458169 0)
(0.0478165 0.00509076 -5.00043e-19)
(0.0118622 0.0227324 4.92043e-19)
(-0.0604044 0.0479464 2.40025e-19)
(-0.164808 0.0711691 0)
(-0.273731 0.0799556 0)
(-0.355857 0.0707761 0)
(-0.402356 0.0505558 0)
(-0.42007 0.0275528 0)
(-0.417367 0.00747903 0)
(-0.39948 -0.00943006 0)
(-0.371987 -0.0215686 -2.34124e-19)
(-0.333197 -0.0331435 -5.13284e-19)
(-0.289775 -0.042282 5.61838e-19)
(-0.230594 -0.0509874 0)
(-0.173969 -0.0583874 -6.70486e-19)
(-0.0946288 -0.0617704 0)
(-0.0296751 -0.0616478 7.77804e-19)
(0.0569511 -0.0561334 0)
(0.121511 -0.0476963 0)
(0.200528 -0.0357625 0)
(0.256887 -0.0241015 0)
(0.323863 -0.0106677 -1.77925e-18)
(0.369706 0.0011674 1.77494e-18)
(0.425519 0.0144901 3.47154e-21)
(0.460391 0.0259397 3.47793e-18)
(0.505731 0.0389975 -1.7117e-18)
(0.528391 0.0498574 3.37209e-18)
(0.56242 0.0625347 0)
(0.57036 0.0717015 -7.42246e-21)
(0.591473 0.0822744 3.17085e-18)
(0.581239 0.0881925 -3.10912e-18)
(0.589696 0.0952157 0)
(0.562156 0.0960835 0)
(0.564903 0.0994565 -4.66635e-21)
(0.526292 0.0956634 0)
(0.535581 0.0977953 0)
(0.494393 0.0916071 0)
(0.522399 0.0961637 0)
(0.484484 0.0898199 0)
(0.539612 0.100052 0)
(0.507334 0.094992 1.91926e-18)
(0.595885 0.112808 -1.61634e-18)
(0.571297 0.108513 1.08434e-18)
(0.699128 0.132231 0)
(0.927276 0.091414 0)
(0.521563 0.0380216 0)
(0.292772 0.00941517 -2.53352e-18)
(0.127828 0.00846761 0)
(0.0545187 0.00596217 2.73972e-18)
(0.00623164 0.00766431 -2.75564e-18)
(-0.0152003 0.00748243 0)
(-0.0307191 0.0080329 6.60102e-23)
(-0.0378074 0.00785653 0)
(-0.0433179 0.00785893 0)
(-0.0458736 0.00762674 0)
(-0.0479632 0.0074616 -2.54449e-18)
(-0.0489802 0.00722316 1.28495e-22)
(-0.0498471 0.00696456 0)
(-0.0502173 0.00659008 0)
(-0.0503389 0.00610045 -2.38936e-18)
(-0.0500174 0.00553268 -1.17751e-18)
(-0.0494482 0.00495933 -1.16138e-18)
(-0.0487841 0.00455257 -1.14606e-18)
(-0.048358 0.00434208 2.26285e-18)
(-0.0483107 0.00418184 0)
(-0.0484854 0.00365793 -1.10388e-18)
(-0.0481086 0.00215132 1.09105e-18)
(-0.0457565 -0.000959833 -1.07959e-18)
(-0.0395086 -0.00580846 -1.06939e-18)
(-0.0276182 -0.0114807 0)
(-0.00970757 -0.01608 -1.05176e-18)
(0.011934 -0.0177549 -1.04344e-18)
(0.0325733 -0.0159875 5.17051e-19)
(0.0469934 -0.0112776 -1.02388e-18)
(0.0499669 -0.00333508 5.06713e-19)
(0.0343932 0.0108104 0)
(-0.0108198 0.0350604 0)
(-0.0942116 0.066974 -2.40026e-19)
(-0.204635 0.09295 2.29035e-19)
(-0.307353 0.0982534 0)
(-0.373271 0.0821074 0)
(-0.403415 0.0555813 0)
(-0.408513 0.0280067 0)
(-0.396893 0.0048917 0)
(-0.372378 -0.0141542 -2.15296e-19)
(-0.340957 -0.0277903 2.34125e-19)
(-0.298419 -0.0406564 0)
(-0.254415 -0.0512112 0)
(-0.19292 -0.0610291 -6.12524e-19)
(-0.137305 -0.0698111 6.70494e-19)
(-0.0572761 -0.0739223 0)
(0.00619143 -0.0741321 -1.65982e-21)
(0.0930165 -0.0682653 0)
(0.15557 -0.0589528 0)
(0.235105 -0.0458073 0)
(0.289552 -0.0329347 0)
(0.357736 -0.0181172 -1.7724e-18)
(0.402326 -0.00514475 0)
(0.460319 0.00959762 3.51157e-18)
(0.494852 0.0221906 -3.47027e-18)
(0.543554 0.0368307 1.7118e-18)
(0.566937 0.0490179 1.67795e-18)
(0.605596 0.0635115 1.64703e-18)
(0.615208 0.0744593 -3.23616e-18)
(0.642196 0.0873139 -3.17118e-18)
(0.634029 0.0949591 0)
(0.648556 0.104198 0)
(0.62178 0.106223 0)
(0.629265 0.111091 -2.91275e-18)
(0.588639 0.107278 -2.82796e-18)
(0.600983 0.109941 2.75969e-18)
(0.555248 0.102634 0)
(0.585939 0.107183 0)
(0.542434 0.0992067 0)
(0.601279 0.109421 -2.20996e-18)
(0.563924 0.102848 -1.91999e-18)
(0.657252 0.120966 9.46912e-21)
(0.63025 0.115784 0)
(0.761818 0.138667 -4.85684e-19)
(0.9601 0.106959 0)
(0.596805 0.0508033 0)
(0.36254 0.0169649 2.53423e-18)
(0.179641 0.0121247 0)
(0.088036 0.00768752 2.74223e-18)
(0.027386 0.0085482 2.75623e-18)
(-0.00228683 0.00798838 0)
(-0.0230526 0.0084402 2.70625e-18)
(-0.0336115 0.00821322 0)
(-0.0414685 0.00822733 0)
(-0.0456411 0.00800255 0)
(-0.0488893 0.00786166 0)
(-0.0507418 0.00763832 2.50339e-18)
(-0.0522437 0.00738954 0)
(-0.053109 0.00700349 2.42542e-18)
(-0.0536466 0.00648442 0)
(-0.0536963 0.00588244 1.17757e-18)
(-0.0534815 0.00531292 1.16143e-18)
(-0.0531838 0.00493099 -1.14611e-18)
(-0.0531847 0.00479564 -2.26298e-18)
(-0.0536851 0.00471691 1.11743e-18)
(-0.0546072 0.0042184 -1.10385e-18)
(-0.0552684 0.00256149 -1.09107e-18)
(-0.0543002 -0.000997749 -1.07897e-18)
(-0.0496804 -0.00666756 -1.06844e-18)
(-0.0393029 -0.0134515 0)
(-0.0222228 -0.0191069 1.05177e-18)
(-0.000349145 -0.0212299 5.21661e-19)
(0.0211807 -0.0189107 -5.17027e-19)
(0.0360414 -0.0124601 5.11994e-19)
(0.0375691 -0.00131861 -5.06716e-19)
(0.0174185 0.0179603 5.01753e-19)
(-0.0353632 0.0491739 -2.4707e-19)
(-0.125939 0.0870682 0)
(-0.235994 0.113873 -2.29035e-19)
(-0.325928 0.113673 0)
(-0.373045 0.0900291 4.99274e-20)
(-0.388506 0.0579387 0)
(-0.383544 0.0266385 -4.81287e-20)
(-0.365458 0.00108879 0)
(-0.3363 -0.0196177 2.15297e-19)
(-0.302749 -0.034465 0)
(-0.257791 -0.0483221 0)
(-0.214349 -0.0601796 0)
(-0.151683 -0.0710192 1.22292e-18)
(-0.0974956 -0.081045 0)
(-0.0177772 -0.0858757 7.23125e-19)
(0.0439886 -0.086395 -1.55035e-18)
(0.130084 -0.0801679 1.63375e-18)
(0.190318 -0.0700208 0)
(0.269464 -0.0557263 0)
(0.321441 -0.0417369 0)
(0.389848 -0.0256768 1.77246e-18)
(0.432348 -0.0117205 1.76305e-18)
(0.491389 0.00424432 -1.7538e-18)
(0.5245 0.0177658 3.46131e-18)
(0.5753 0.0337326 1.70267e-18)
(0.598202 0.0469816 -1.67806e-18)
(0.640247 0.06306 -1.64715e-18)
(0.650452 0.07546 0)
(0.682383 0.0903297 0)
(0.675831 0.099539 0)
(0.696326 0.110952 0)
(0.670936 0.114237 0)
(0.683832 0.120785 0)
(0.642566 0.11724 4.54975e-21)
(0.658549 0.120615 -2.76026e-18)
(0.609689 0.11245 0)
(0.642738 0.116937 0)
(0.594869 0.1075 0)
(0.655911 0.11734 2.21068e-18)
(0.614728 0.109277 0)
(0.71011 0.1272 9.15301e-21)
(0.681829 0.121313 0)
(0.813996 0.142632 4.84852e-19)
(0.98413 0.120182 0)
(0.664262 0.0636731 -2.39482e-18)
(0.432496 0.0256849 0)
(0.236734 0.0169052 0)
(0.127884 0.0102048 1.08864e-21)
(0.0542371 0.00985286 2.75762e-18)
(0.0152371 0.00870522 0)
(-0.0116437 0.00891114 0)
(-0.0263832 0.00856093 -2.66832e-18)
(-0.0370838 0.00854165 0)
(-0.0432593 0.00830211 0)
(-0.0479426 0.00817262 -2.54474e-18)
(-0.0508464 0.00795969 0)
(-0.0531466 0.0077214 0)
(-0.0546439 0.00732971 -2.4256e-18)
(-0.055716 0.00679116 0)
(-0.056241 0.00615953 0)
(-0.0564737 0.00560692 1.16143e-18)
(-0.0566279 0.00527654 1.14616e-18)
(-0.0571406 0.0052399 2.26313e-18)
(-0.0582975 0.00529368 -1.11747e-18)
(-0.0601367 0.00489529 1.10388e-18)
(-0.0621044 0.00318115 -1.09076e-18)
(-0.0629046 -0.000729911 4.15301e-22)
(-0.0604147 -0.00716334 6.47014e-22)
(-0.0521589 -0.0150913 0)
(-0.0365837 -0.0219356 0)
(-0.0150941 -0.0246609 5.21348e-19)
(0.00689206 -0.0218173 5.17032e-19)
(0.0219813 -0.0134255 0)
(0.0222167 0.00134304 5.07726e-19)
(-0.0016124 0.0262431 -5.01756e-19)
(-0.0597101 0.064376 2.47071e-19)
(-0.153286 0.107177 2.39524e-19)
(-0.257368 0.132813 0)
(-0.330249 0.125605 1.05078e-19)
(-0.359035 0.0947127 -9.91172e-20)
(-0.362899 0.0581352 0)
(-0.350554 0.0239106 9.56948e-20)
(-0.328089 -0.0035545 -9.91638e-20)
(-0.295694 -0.0255692 0)
(-0.261189 -0.0414409 -2.30727e-19)
(-0.214559 -0.0560656 0)
(-0.172087 -0.0691173 0)
(-0.108888 -0.0809434 -1.21849e-18)
(-0.0561083 -0.0920916 0)
(0.0228082 -0.0976001 -7.23136e-19)
(0.0828089 -0.0984124 2.30887e-21)
(0.167605 -0.0917979 -2.44836e-18)
(0.225406 -0.0808453 0)
(0.303571 -0.0654316 0)
(0.352876 -0.0503866 0)
(0.420908 -0.0331717 1.76266e-18)
(0.460946 -0.0183268 -1.76311e-18)
(0.520326 -0.001269 -1.74362e-18)
(0.551413 0.01304 -3.45106e-18)
(0.603407 0.0301476 -1.70276e-18)
(0.624978 0.0442624 0)
(0.669342 0.0616899 0)
(0.679141 0.0752849 -1.60352e-18)
(0.714904 0.0918664 0)
(0.709196 0.10241 -3.07743e-18)
(0.735024 0.115828 0)
(0.711099 0.120356 0)
(0.729567 0.128641 -2.89727e-18)
(0.688692 0.125596 4.65722e-21)
(0.708732 0.12983 0)
(0.658151 0.121106 -2.64404e-18)
(0.693368 0.125517 0)
(0.642488 0.114871 0)
(0.70454 0.124056 2.20114e-18)
(0.660815 0.114758 0)
(0.756183 0.131869 1.59973e-18)
(0.727532 0.125531 0)
(0.858151 0.144831 0)
(1.00108 0.131258 0)
(0.723846 0.0762104 4.79878e-18)
(0.500992 0.0352631 0)
(0.297635 0.0227688 0)
(0.173517 0.0136106 -2.74448e-18)
(0.0867711 0.0117224 -2.75814e-18)
(0.0375816 0.00975774 0)
(0.00374002 0.00954753 -2.70752e-18)
(-0.0159097 0.00897802 5.33752e-18)
(-0.029991 0.0088631 0)
(-0.0385881 0.00857397 0)
(-0.0450121 0.00843336 5.08995e-18)
(-0.0492046 0.00821928 0)
(-0.0524827 0.0079871 0)
(-0.0547588 0.00759229 0)
(-0.0564875 0.00704183 0)
(-0.0575927 0.00639602 0)
(-0.0583598 0.00585061 -2.32295e-18)
(-0.0590345 0.00559256 0)
(-0.0601189 0.00568827 -1.13163e-18)
(-0.062004 0.00593388 -1.11761e-18)
(-0.064875 0.00570965 -1.10388e-18)
(-0.0683254 0.00403945 1.09079e-18)
(-0.0711461 -0.000117577 2.15673e-18)
(-0.0711287 -0.00724705 2.13489e-18)
(-0.0654554 -0.0163396 -1.05776e-18)
(-0.0519664 -0.0245026 0)
(-0.0314476 -0.0280009 -5.21355e-19)
(-0.00941602 -0.0246928 0)
(0.00573926 -0.0142244 0)
(0.00501615 0.00447867 -1.01631e-18)
(-0.0212669 0.0352705 0)
(-0.0821395 0.0799537 0)
(-0.174719 0.126373 -4.50154e-22)
(-0.268382 0.148988 0)
(-0.322203 0.133925 -1.05078e-19)
(-0.335215 0.0966586 4.91898e-20)
(-0.330681 0.0567301 0)
(-0.313182 0.0202257 -4.75662e-20)
(-0.287864 -0.00878412 9.9164e-20)
(-0.253089 -0.0318482 0)
(-0.218297 -0.0486204 1.14427e-21)
(-0.17041 -0.0638679 0)
(-0.128896 -0.078007 0)
(-0.0654806 -0.090804 1.21382e-18)
(-0.0139285 -0.102951 0)
(0.0639928 -0.10911 0)
(0.122175 -0.110163 7.71895e-19)
(0.205281 -0.103124 2.65699e-21)
(0.260574 -0.0913892 1.6873e-18)
(0.337311 -0.0748773 0)
(0.383884 -0.0588295 -1.75019e-18)
(0.451147 -0.0405235 -1.76271e-18)
(0.488613 -0.024854 1.75156e-18)
(0.547893 -0.00678958 3.48124e-18)
(0.576697 0.0082197 1.72285e-18)
(0.629294 0.0263423 0)
(0.649046 0.0411915 0)
(0.694922 0.0597908 0)
(0.703568 0.07442 1.60364e-18)
(0.742106 0.0923967 -1.56638e-18)
(0.736424 0.104036 1.0511e-20)
(0.766644 0.119217 0)
(0.743879 0.124879 0)
(0.767608 0.134838 2.89768e-18)
(0.727773 0.132443 2.82021e-18)
(0.752039 0.13762 0)
(0.700997 0.128636 2.64459e-18)
(0.738276 0.13298 0)
(0.685737 0.121416 -2.3681e-18)
(0.747953 0.129745 -2.2018e-18)
(0.702895 0.119501 0)
(0.79684 0.13514 -1.58353e-18)
(0.768472 0.128737 0)
(0.896177 0.14578 -4.49998e-19)
(1.01234 0.140432 0)
(0.775669 0.0881014 -2.40396e-18)
(0.566678 0.0453804 0)
(0.360867 0.0296079 2.71876e-18)
(0.224189 0.0179481 0)
(0.124839 0.0142737 0)
(0.0649076 0.0112637 0)
(0.0233373 0.0104515 5.41613e-18)
(-0.00194973 0.00954643 -2.66918e-18)
(-0.0199832 0.00925594 -2.62942e-18)
(-0.0314546 0.00886906 0)
(-0.0399572 0.00868453 -2.5452e-18)
(-0.0457008 0.00845021 -2.50381e-18)
(-0.0501558 0.00821409 0)
(-0.0533697 0.00781453 1.21283e-18)
(-0.0558835 0.00725582 0)
(-0.0576754 0.00660342 0)
(-0.0590579 0.00607468 1.16152e-18)
(-0.0603082 0.00589549 0)
(-0.0619975 0.00615712 1.13181e-18)
(-0.0646398 0.00663944 1.11764e-18)
(-0.0685839 0.00666638 1.10391e-18)
(-0.073585 0.0051426 1.09039e-18)
(-0.0785369 0.000849422 -2.15573e-18)
(-0.08118 -0.00689748 -1.06708e-18)
(-0.0784167 -0.0171549 1.05778e-18)
(-0.0675171 -0.0267511 0)
(-0.0485377 -0.0312043 5.20955e-19)
(-0.0268446 -0.0275349 0)
(-0.0117219 -0.014921 5.13528e-19)
(-0.0129205 0.00789403 5.0858e-19)
(-0.040247 0.0445952 -5.05577e-19)
(-0.101318 0.0952423 0)
(-0.189387 0.143912 -5.29928e-22)
(-0.269472 0.161957 -2.22183e-19)
(-0.304166 0.138877 0)
(-0.304985 0.0964861 -4.77544e-20)
(-0.294621 0.0542016 0)
(-0.273605 0.0158863 4.65097e-20)
(-0.24645 -0.0144724 0)
(-0.209778 -0.0383643 2.09966e-19)
(-0.175033 -0.0559437 1.12008e-21)
(-0.126172 -0.0717328 0)
(-0.085432 -0.0868692 5.49235e-19)
(-0.0219312 -0.100608 -6.05718e-19)
(0.0285751 -0.113635 -6.59057e-19)
(0.105449 -0.120417 7.15482e-19)
(0.161786 -0.121627 0)
(0.24291 -0.114119 1.62092e-18)
(0.295615 -0.101619 -1.68734e-18)
(0.370556 -0.0840323 0)
(0.414385 -0.0670362 1.75024e-18)
(0.480581 -0.0476968 -1.7499e-18)
(0.515491 -0.031255 -3.49636e-18)
(0.57438 -0.0122485 -1.73762e-18)
(0.600851 0.0034054 -1.70993e-18)
(0.653675 0.0224571 0)
(0.671403 0.037959 -1.65487e-18)
(0.718237 0.0576037 0)
(0.725281 0.0731288 0)
(0.765707 0.0922852 1.5665e-18)
(0.759381 0.104813 3.06749e-18)
(0.79296 0.121496 0)
(0.77086 0.128134 0)
(0.79918 0.139604 2.88554e-18)
(0.760684 0.137929 0)
(0.789066 0.144057 2.74755e-18)
(0.738599 0.13508 0)
(0.777856 0.139369 0)
(0.724901 0.127184 2.36869e-18)
(0.786751 0.134535 2.19498e-18)
(0.741411 0.1236 0)
(0.833072 0.137371 3.16135e-18)
(0.805456 0.131171 -1.03316e-18)
(0.929475 0.145838 4.49564e-19)
(1.01904 0.14797 0)
(0.819983 0.0991226 0)
(0.628469 0.0557296 -2.55764e-18)
(0.424992 0.0372633 2.68608e-22)
(0.27898 0.0232074 0)
(0.168127 0.0175898 0)
(0.0972912 0.0133293 0)
(0.0473699 0.0117241 3.72588e-22)
(0.0157532 0.0103511 -2.67e-18)
(-0.00682418 0.00978833 5.25959e-18)
(-0.0216532 0.00924119 0)
(-0.0326063 0.00896938 -2.54549e-18)
(-0.0401914 0.00868744 2.504e-18)
(-0.0460444 0.00843084 0)
(-0.0503701 0.00801998 -2.39801e-23)
(-0.0538064 0.00745237 0)
(-0.0563952 0.00679536 0)
(-0.0584734 0.00628873 -1.16157e-18)
(-0.0603444 0.00619561 -1.14642e-18)
(-0.0626472 0.00664017 -2.2638e-18)
(-0.0660261 0.00740178 0)
(-0.0710049 0.00775334 0)
(-0.0775129 0.00647673 -2.1806e-18)
(-0.0845695 0.00215651 1.07761e-18)
(-0.0899193 -0.00611491 0)
(-0.0902751 -0.0175087 0)
(-0.0823996 -0.0286261 0)
(-0.0655189 -0.0342237 -5.20961e-19)
(-0.0445191 -0.0303448 5.17618e-19)
(-0.0294509 -0.0155942 8.61425e-22)
(-0.0305463 0.0113633 -5.11266e-19)
(-0.057444 0.0537802 5.0558e-19)
(-0.116298 0.109651 0)
(-0.196991 0.15925 -4.76536e-19)
(-0.261579 0.171572 2.22183e-19)
(-0.278562 0.140927 0)
(-0.27085 0.0947837 4.77544e-20)
(-0.256401 0.0508971 0)
(-0.232941 0.0111086 -4.65098e-20)
(-0.20461 -0.0205 0)
(-0.166343 -0.0450714 -2.09967e-19)
(-0.131792 -0.0633706 4.55848e-19)
(-0.0822053 -0.0796618 0)
(-0.0420363 -0.0957363 -5.4924e-19)
(0.0215054 -0.11037 6.00767e-19)
(0.0711398 -0.124184 2.68919e-21)
(0.146951 -0.131516 -7.15492e-19)
(0.201409 -0.132788 -7.63331e-19)
(0.280322 -0.124761 -3.30485e-21)
(0.330344 -0.111503 0)
(0.403183 -0.0928717 0)
(0.444271 -0.0749861 0)
(0.509159 -0.0546736 3.49235e-18)
(0.541581 -0.0375083 1.74479e-18)
(0.59986 -0.0176165 -1.72341e-18)
(0.624056 -0.00135881 3.41255e-18)
(0.67685 0.0185577 1.67729e-18)
(0.692535 0.0346623 1.65495e-18)
(0.73995 0.0552699 0)
(0.745224 0.0714298 0)
(0.786854 0.0917701 0)
(0.779436 0.105047 0)
(0.815412 0.122985 0)
(0.793463 0.130435 0)
(0.825499 0.143194 -5.76516e-18)
(0.788366 0.142239 2.80672e-18)
(0.8205 0.14925 -2.748e-18)
(0.771371 0.140494 2.63842e-18)
(0.812504 0.14473 -2.54097e-18)
(0.76019 0.132203 0)
(0.8214 0.138513 -2.19557e-18)
(0.776647 0.127109 1.88796e-18)
(0.865588 0.138939 -3.14928e-18)
(0.839041 0.133079 1.03357e-18)
(0.959049 0.145263 0)
(1.02218 0.154134 0)
(0.857155 0.109127 -2.43333e-18)
(0.68552 0.0660283 2.55826e-18)
(0.488654 0.0455396 -5.44045e-18)
(0.336834 0.0293286 -2.74997e-18)
(0.216147 0.0217155 0)
(0.134689 0.0160428 0)
(0.0760127 0.0134621 -2.7093e-18)
(0.0374538 0.0114778 -3.38256e-22)
(0.00974315 0.0105327 -2.63015e-18)
(-0.00894936 0.00974738 0)
(-0.0227566 0.0093345 2.5457e-18)
(-0.032503 0.00896847 0)
(-0.0400003 0.00866762 0)
(-0.0456297 0.00823318 -1.21295e-18)
(-0.050138 0.00765125 -1.19477e-18)
(-0.0536412 0.00698683 0)
(-0.0564988 0.00649924 1.16161e-18)
(-0.0590316 0.00649154 1.14646e-18)
(-0.0619353 0.00712885 -1.18511e-22)
(-0.0659829 0.00820376 -1.11802e-18)
(-0.071881 0.00894371 0)
(-0.0797463 0.00800733 1.0902e-18)
(-0.0887564 0.00376834 0)
(-0.0967305 -0.0049161 -5.31979e-19)
(-0.100305 -0.0173818 0)
(-0.0958199 -0.030072 5.23247e-19)
(-0.0815934 -0.0370077 0)
(-0.0616324 -0.0331222 -5.17623e-19)
(-0.0465624 -0.0163388 -1.02991e-18)
(-0.0469299 0.0146501 5.11269e-19)
(-0.0719717 0.0624313 2.5502e-19)
(-0.126485 0.122692 -2.50107e-19)
(-0.19764 0.172036 5.21859e-22)
(-0.245906 0.17792 0)
(-0.247584 0.140633 -9.97419e-20)
(-0.2344 0.0920282 0)
(-0.21694 0.0470387 0)
(-0.191647 0.00602986 0)
(-0.162574 -0.0267824 9.60504e-20)
(-0.122982 -0.0519376 0)
(-0.0886883 -0.0708698 -1.03765e-21)
(-0.0386259 -0.0876457 2.48206e-19)
(0.00113629 -0.104616 -2.72308e-19)
(0.0647078 -0.120125 -6.00773e-19)
(0.113594 -0.134622 1.31002e-18)
(0.188321 -0.142403 -7.09515e-19)
(0.240845 -0.14363 1.52334e-18)
(0.317356 -0.135027 -8.05691e-19)
(0.364593 -0.121011 0)
(0.43508 -0.101375 0)
(0.473437 -0.0826628 -1.72768e-18)
(0.53682 -0.0614422 -1.74245e-18)
(0.566842 -0.0436024 1.72897e-18)
(0.624331 -0.0228802 3.43883e-18)
(0.646351 -0.00605371 -8.06774e-21)
(0.69892 0.0146723 -1.67737e-18)
(0.712645 0.0313467 0)
(0.760357 0.0528608 0)
(0.763882 0.0695189 0)
(0.80625 0.0910054 0)