/*--------------------------------*- C++ -*----------------------------------*\
| =========                 |                                                 |
| \\      /  F ield         | OpenFOAM: The Open Source CFD Toolbox           |
|  \\    /   O peration     | Version:  2.4.0                                 |
|   \\  /    A nd           | Web:      www.OpenFOAM.org                      |
|    \\/     M anipulation  |                                                 |
\*---------------------------------------------------------------------------*/
FoamFile
{
    version     2.0;
    format      ascii;
    class       volVectorField;
    location    "0.5";
    object      U;
}
// * * * * * * * * * * * * * * * * * * * * * * * * * * * * * * * * * * * * * //

dimensions      [0 1 -1 0 0 0 0];

internalField   nonuniform List<vector> 
5625
(
(0.272561 -0.0161213 5.14408e-18)
(0.0739087 -0.0136729 -5.993e-18)
(0.0327351 -0.00805655 0)
(0.0191823 -0.00482873 0)
(0.0111422 -0.00289422 0)
(0.00605242 -0.00171835 0)
(0.00282521 -0.00100134 9.26437e-18)
(0.000423387 -0.000404235 4.76878e-18)
(-0.00356933 0.000430416 4.85956e-18)
(-0.00967016 0.00146569 0)
(-0.0148651 0.00205502 5.10002e-18)
(-0.0161009 0.00181676 -5.31313e-18)
(-0.0130744 0.0010474 -5.5452e-18)
(-0.00737371 6.20148e-05 0)
(-0.000926702 -0.000860607 0)
(0.00508546 -0.00157199 0)
(0.0102389 -0.00208306 0)
(0.0145087 -0.00243421 0)
(0.0180139 -0.00266004 6.30427e-18)
(0.020887 -0.00278713 6.3347e-18)
(0.0232452 -0.00283736 -3.17676e-18)
(0.0251919 -0.00282917 0)
(0.0268184 -0.00277731 -3.18213e-18)
(0.0282016 -0.0026926 -3.18041e-18)
(0.0294019 -0.00258254 0)
(0.0304638 -0.00245217 -3.17218e-18)
(0.0314192 -0.00230497 0)
(0.0322909 -0.00214345 0)
(0.0330952 -0.00196952 0)
(0.0338447 -0.00178467 1.57365e-18)
(0.0345489 -0.00159007 0)
(0.0352155 -0.00138671 0)
(0.035851 -0.00117546 0)
(0.0364608 -0.000957333 1.56148e-18)
(0.0370498 -0.000733449 -1.55886e-18)
(0.0376219 -0.000504304 0)
(0.038181 -0.000270097 1.94285e-19)
(0.0387305 -3.09734e-05 0)
(0.0392739 0.000213771 -1.93831e-19)
(0.0398135 0.000465011 -3.87287e-19)
(0.040354 0.000722781 1.54793e-18)
(0.0408951 0.000987829 -1.54689e-18)
(0.0414462 0.00125907 0)
(0.0419986 0.00153925 0)
(0.0425783 0.00182391 0)
(0.0431463 0.00212267 -1.54425e-18)
(0.0437809 0.00241879 3.08795e-18)
(0.044357 0.00273201 0)
(0.0450938 0.00303832 -6.17183e-18)
(0.0456476 0.00337108 3.08396e-18)
(0.0465655 0.00369243 3.08246e-18)
(0.0470341 0.00405416 3.07831e-18)
(0.0482381 0.00439311 3.0761e-18)
(0.0485559 0.00478575 0)
(0.0501578 0.00515565 3.06423e-18)
(0.0502753 0.0055661 -6.10298e-18)
(0.0523715 0.00599731 -6.08825e-18)
(0.0522742 0.00640505 0)
(0.0549358 0.00693586 1.70151e-21)
(0.0546675 0.00732403 5.96095e-18)
(0.0579126 0.00798892 0)
(0.057591 0.00835957 -5.8233e-18)
(0.0614481 0.00918461 0)
(0.061115 0.00955702 0)
(0.0658118 0.0105765 5.49479e-18)
(0.0654081 0.0109538 0)
(0.0712457 0.0122379 -5.12129e-18)
(0.0707554 0.0126105 4.85613e-18)
(0.0782281 0.0142842 0)
(0.0775203 0.0146255 4.18743e-18)
(0.087461 0.0168872 -3.77849e-18)
(0.0863884 0.0171616 0)
(0.10057 0.020402 0)
(0.0988572 0.0205414 0)
(0.123651 0.0257629 1.69709e-18)
(0.558536 -0.0356323 0)
(0.237376 -0.0360387 0)
(0.119929 -0.0232346 0)
(0.0742862 -0.0147624 4.91173e-18)
(0.0476116 -0.0093071 -5.20783e-18)
(0.030713 -0.00586478 -5.41996e-18)
(0.0196942 -0.00370023 -2.35673e-21)
(0.0109495 -0.00175435 -1.40226e-21)
(-0.00076762 0.000908448 -5.75673e-18)
(-0.0150615 0.00357631 5.8137e-18)
(-0.0246276 0.00444268 0)
(-0.0239195 0.00301753 6.14432e-18)
(-0.0138542 6.11968e-05 1.27677e-17)
(0.00144011 -0.00279664 0)
(0.0177272 -0.00514665 0)
(0.0326064 -0.00681289 6.89568e-18)
(0.0452786 -0.00793041 0)
(0.0557498 -0.0086364 0)
(0.0643075 -0.00902888 0)
(0.0712746 -0.00917878 -1.062e-17)
(0.0769501 -0.00914392 7.07983e-18)
(0.0816033 -0.00897244 -3.53507e-18)
(0.0854689 -0.0087015 5.1133e-22)
(0.0887392 -0.00835703 3.51812e-18)
(0.0915619 -0.00795602 0)
(0.0940449 -0.00750949 0)
(0.0962656 -0.00702491 0)
(0.0982793 -0.00650775 0)
(0.100127 -0.0059622 0)
(0.101839 -0.00539164 -1.72433e-18)
(0.103441 -0.0047988 1.719e-18)
(0.104951 -0.00418591 0)
(0.106387 -0.00355539 -1.70961e-18)
(0.107763 -0.00290957 -1.70556e-18)
(0.10909 -0.00224997 8.50983e-19)
(0.11038 -0.00157727 -4.24683e-19)
(0.111643 -0.000891865 -2.12004e-19)
(0.112887 -0.000194026 0)
(0.114121 0.000516667 2.11507e-19)
(0.115353 0.00124128 8.4541e-19)
(0.116593 0.00198001 -8.45027e-19)
(0.117842 0.00273579 1.68963e-18)
(0.119121 0.0035056 1.68962e-18)
(0.120413 0.0042973 0)
(0.121778 0.00509859 -1.69091e-18)
(0.123126 0.00593534 1.69221e-18)
(0.124643 0.00676521 0)
(0.126027 0.00765486 -3.39019e-18)
(0.127819 0.00850677 6.78918e-18)
(0.129157 0.00947667 0)
(0.131443 0.0103404 -3.40312e-18)
(0.132552 0.0114073 -3.40548e-18)
(0.135646 0.0122925 -8.43076e-22)
(0.136302 0.0134541 0)
(0.14056 0.0144143 -3.41529e-18)
(0.140563 0.0156383 1.02325e-17)
(0.14631 0.016768 0)
(0.145563 0.0179935 -6.80354e-18)
(0.153029 0.0194146 3.46119e-21)
(0.151633 0.0205884 6.75855e-18)
(0.160851 0.0224104 0)
(0.15919 0.0235175 4.91962e-21)
(0.170135 0.0258062 0)
(0.168426 0.0268752 0)
(0.18169 0.0297503 0)
(0.17967 0.0308129 6.23038e-18)
(0.196228 0.0344719 6.06789e-18)
(0.193741 0.0354934 0)
(0.21497 0.0403086 5.50912e-18)
(0.211607 0.0411996 0)
(0.239813 0.0477464 9.29893e-18)
(0.235074 0.0483817 0)
(0.274894 0.0577544 -3.27103e-18)
(0.26804 0.0578788 0)
(0.3333 0.0723353 -2.17868e-18)
(0.731786 -0.0355155 0)
(0.394955 -0.0483678 0)
(0.222541 -0.0355004 0)
(0.144013 -0.0244063 4.30651e-22)
(0.097255 -0.0163519 5.20993e-18)
(0.0673107 -0.0110123 1.08422e-17)
(0.0473772 -0.00748995 -1.75488e-21)
(0.0315046 -0.00402314 -5.69845e-18)
(0.0131488 0.000439202 -5.75622e-18)
(-0.00598188 0.00384244 -5.81517e-18)
(-0.016335 0.00358835 0)
(-0.0122225 -0.000193096 -6.1455e-18)
(0.00396575 -0.00553354 -6.37992e-18)
(0.026429 -0.00993491 0)
(0.0496762 -0.0130237 -6.76511e-18)
(0.0707628 -0.0149368 -4.23544e-21)
(0.0887183 -0.0160383 0)
(0.103567 -0.0165821 -7.03258e-18)
(0.115681 -0.0167202 0)
(0.125498 -0.0165539 7.07805e-18)
(0.133437 -0.0161647 -6.47623e-22)
(0.139889 -0.0156191 5.31427e-22)
(0.145197 -0.0149659 3.52748e-18)
(0.149641 -0.0142365 0)
(0.153436 -0.0134492 0)
(0.156741 -0.0126147 0)
(0.159668 -0.0117401 0)
(0.1623 -0.0108306 0)
(0.164696 -0.00989029 1.72967e-18)
(0.166902 -0.00892292 0)
(0.168955 -0.00793144 -1.71899e-18)
(0.170884 -0.00691833 1.71398e-18)
(0.172714 -0.00588631 1.09163e-22)
(0.174465 -0.00483778 8.5276e-19)
(0.176157 -0.00377354 0)
(0.177804 -0.0026939 4.24681e-19)
(0.179422 -0.0015992 2.12004e-19)
(0.181024 -0.000489483 0)
(0.182622 0.000634714 -1.69222e-23)
(0.184227 0.00177418 -4.22696e-19)
(0.185855 0.00292918 0)
(0.187506 0.00410453 -8.44796e-19)
(0.189213 0.00529577 -1.76976e-22)
(0.190948 0.00651526 -1.68991e-18)
(0.192802 0.00774476 1.69096e-18)
(0.194638 0.0090229 0)
(0.196737 0.0102884 -1.69337e-18)
(0.198644 0.011652 5.43191e-22)
(0.201176 0.0129412 -6.78846e-18)
(0.203013 0.0144415 0)
(0.206314 0.0157194 0)
(0.207791 0.0173728 0)
(0.212367 0.018656 -3.4102e-18)
(0.213096 0.0204499 0)
(0.219549 0.0218335 0)
(0.219147 0.0237262 -6.81976e-18)
(0.228041 0.0253583 6.82252e-18)
(0.226291 0.0272441 3.03427e-21)
(0.238021 0.0293255 6.7979e-18)
(0.235057 0.0311113 -3.81615e-21)
(0.249634 0.0338148 -6.72928e-18)
(0.246113 0.035482 6.66974e-18)
(0.263395 0.0389266 0)
(0.259712 0.0404832 0)
(0.280629 0.0448359 0)
(0.276262 0.0463052 -6.23284e-18)
(0.302421 0.0519021 0)
(0.297029 0.0532265 0)
(0.330552 0.0606503 -1.18745e-20)
(0.323462 0.0616617 0)
(0.367838 0.071787 -4.64415e-18)
(0.358265 0.0722559 0)
(0.420133 0.0866494 3.27381e-18)
(0.407369 0.0861625 0)
(0.503431 0.106638 0)
(0.843556 -0.0288204 0)
(0.536011 -0.0542323 3.9441e-18)
(0.333322 -0.044939 0)
(0.225904 -0.0332424 -4.91618e-18)
(0.159061 -0.0235114 -5.20984e-18)
(0.115314 -0.0167239 -5.42207e-18)
(0.0856042 -0.0120062 -5.58608e-18)
(0.0622071 -0.00706418 0)
(0.0382824 -0.00119336 1.15137e-17)
(0.0165875 0.00220716 0)
(0.00714519 0.000153675 0)
(0.0145336 -0.00642 0)
(0.0351538 -0.0136486 0)
(0.0622241 -0.0191367 0)
(0.0898373 -0.0225032 5.16818e-21)
(0.114855 -0.0242577 -3.9708e-21)
(0.136229 -0.0249993 -6.97536e-18)
(0.153961 -0.0250991 2.51405e-21)
(0.168429 -0.0247553 3.53096e-18)
(0.180103 -0.0240908 -7.07663e-18)
(0.189462 -0.0232038 -3.53902e-18)
(0.19697 -0.0221734 7.06873e-18)
(0.203048 -0.0210551 0)
(0.208048 -0.0198809 0)
(0.212243 -0.0186663 0)
(0.215834 -0.0174186 -3.49429e-18)
(0.218967 -0.0161416 0)
(0.221745 -0.0148383 0)
(0.224247 -0.0135116 -1.72966e-18)
(0.226531 -0.012164 0)
(0.228643 -0.0107979 1.71869e-18)
(0.23062 -0.0094153 -1.76422e-22)
(0.232495 -0.00801792 1.70947e-18)
(0.234292 -0.00660719 0)
(0.236035 -0.00518377 0)
(0.237744 -0.00374775 0)
(0.239436 -0.00229911 0)
(0.241128 -0.000837371 0)
(0.242836 0.000637501 -2.11491e-19)
(0.244571 0.00212746 0)
(0.246353 0.00363263 0)
(0.248183 0.00515865 0)
(0.250101 0.00670021 -1.68951e-18)
(0.252069 0.00827341 2.70676e-22)
(0.254203 0.0098556 0)
(0.256329 0.0114961 0)
(0.258806 0.0131179 3.38654e-18)
(0.261043 0.0148579 3.38996e-18)
(0.264102 0.0165058 7.45646e-22)
(0.266257 0.0184089 3.3965e-18)
(0.270331 0.020038 0)
(0.272016 0.0221132 0)
(0.277776 0.023757 0)
(0.278442 0.0260041 -3.40828e-18)
(0.286723 0.0277688 0)
(0.285791 0.030128 6.81801e-18)
(0.2974 0.0322074 -1.02338e-17)
(0.294499 0.0345269 6.80271e-18)
(0.309993 0.037182 0)
(0.30528 0.0393386 -4.04283e-21)
(0.324616 0.0427767 6.73073e-18)
(0.319019 0.044764 0)
(0.341922 0.0491831 0)
(0.335933 0.0509717 0)
(0.363676 0.0565792 -6.39213e-18)
(0.356503 0.0581633 0)
(0.391224 0.0653861 -6.04581e-18)
(0.382372 0.0666605 5.77219e-18)
(0.426781 0.0762814 -5.50304e-18)
(0.415364 0.0770002 0)
(0.4738 0.0900977 4.61516e-18)
(0.458956 0.089954 0)
(0.539163 0.108316 0)
(0.520932 0.10692 0)
(0.639221 0.130777 -9.70687e-19)
(0.916226 -0.0222463 3.60228e-18)
(0.656298 -0.0561817 -3.94597e-18)
(0.444927 -0.0516963 0)
(0.316261 -0.0408835 0)
(0.231211 -0.0304089 5.21161e-18)
(0.173731 -0.0226622 0)
(0.133815 -0.0169844 0)
(0.102738 -0.0108112 0)
(0.0740203 -0.00401249 -5.75737e-18)
(0.0510038 -0.00116012 0)
(0.0428835 -0.00524698 0)
(0.0525463 -0.0144721 -6.11782e-18)
(0.0755462 -0.0233563 -6.35543e-18)
(0.104798 -0.0294944 0)
(0.134453 -0.032774 6.76121e-18)
(0.161402 -0.0340671 -6.88916e-18)
(0.184571 -0.0342061 6.97578e-18)
(0.203903 -0.0336684 7.03077e-18)
(0.219714 -0.0326876 -3.53109e-18)
(0.23243 -0.0314007 7.0751e-18)
(0.242519 -0.0299175 0)
(0.250473 -0.0283276 -7.06267e-22)
(0.256764 -0.0266905 -3.52594e-18)
(0.2618 -0.0250367 3.51631e-18)
(0.265906 -0.0233763 3.50537e-18)
(0.269325 -0.0217105 3.49429e-18)
(0.272234 -0.0200378 3.48183e-18)
(0.274758 -0.0183572 -3.46999e-18)
(0.276992 -0.0166687 0)
(0.279005 -0.0149727 0)
(0.280852 -0.0132699 -1.71868e-18)
(0.282577 -0.011561 -2.54634e-22)
(0.284215 -0.0098464 -1.70903e-18)
(0.285797 -0.00812612 0)
(0.287349 -0.00640013 0)
(0.288893 -0.00466782 0)
(0.290449 -0.00292842 0)
(0.292035 -0.00118056 0)
(0.293668 0.000576809 0)
(0.295361 0.00234681 0)
(0.297137 0.00412949 0)
(0.298994 0.00593151 0)
(0.300979 0.00774715 1.68894e-18)
(0.303045 0.00959512 3.52513e-22)
(0.305329 0.0114502 0)
(0.30762 0.0133687 0)
(0.310349 0.0152646 -1.69317e-18)
(0.312803 0.017291 0)
(0.31626 0.0192162 3.39353e-18)
(0.318634 0.0214253 -3.39668e-18)
(0.323325 0.0233263 0)
(0.325147 0.0257022 0)
(0.331888 0.0276444 3.40781e-18)
(0.332452 0.0302161 1.30787e-21)
(0.342288 0.032294 -3.41182e-18)
(0.340814 0.0349769 -6.81587e-18)
(0.354793 0.0374326 3.41074e-18)
(0.350734 0.0400342 -6.79673e-18)
(0.369567 0.0431713 0)
(0.363104 0.0455579 -4.34618e-21)
(0.386653 0.0495933 0)
(0.378976 0.0517517 6.65767e-18)
(0.406863 0.0569545 0)
(0.398451 0.0587759 0)
(0.432308 0.0654715 1.2781e-17)
(0.422112 0.0669699 0)
(0.464447 0.0755576 6.04811e-18)
(0.451911 0.0765542 -5.77463e-18)
(0.505861 0.0880105 0)
(0.489979 0.0881982 0)
(0.560373 0.103705 -4.61788e-18)
(0.540492 0.102764 0)
(0.635354 0.124088 0)
(0.612931 0.121786 -2.09591e-18)
(0.746274 0.147328 9.65242e-19)
(0.962294 -0.0171894 -3.60451e-18)
(0.754948 -0.0555397 0)
(0.551154 -0.0559212 0)
(0.410611 -0.0470184 0)
(0.311086 -0.036669 -5.21092e-18)
(0.24102 -0.0284924 0)
(0.191065 -0.0221725 0)
(0.152385 -0.0151075 -5.69929e-18)
(0.119321 -0.00784772 0)
(0.0954286 -0.00592953 0)
(0.0882495 -0.0120587 0)
(0.0987948 -0.0236853 1.22276e-17)
(0.122154 -0.0338826 8.30969e-21)
(0.151377 -0.0403238 0)
(0.180988 -0.0432353 0)
(0.208055 -0.0438506 6.88179e-18)
(0.231532 -0.0432239 0)
(0.251295 -0.0419244 0)
(0.267548 -0.0402086 3.52892e-18)
(0.280602 -0.0382197 -7.07335e-18)
(0.29085 -0.0360767 0)
(0.298757 -0.0338793 -8.51489e-22)
(0.304813 -0.0316918 3.52599e-18)
(0.309469 -0.0295425 -7.55677e-22)
(0.313095 -0.0274349 -7.27241e-22)
(0.315977 -0.025362 0)
(0.318321 -0.0233149 -3.48184e-18)
(0.320277 -0.021287 5.20464e-18)
(0.321953 -0.0192735 -1.72888e-18)
(0.32343 -0.0172719 1.72333e-18)
(0.32477 -0.01528 0)
(0.32602 -0.0132966 -1.71352e-18)
(0.32722 -0.0113202 1.70902e-18)
(0.328402 -0.00934938 8.52305e-19)
(0.329593 -0.00738256 0)
(0.330818 -0.00541794 0)
(0.332096 -0.00345361 0)
(0.333447 -0.00148707 0)
(0.334888 0.00048372 0)
(0.336431 0.00246278 0)
(0.338101 0.00445074 0)
(0.339893 0.00645542 -8.44261e-19)
(0.34186 0.00847121 -1.68896e-18)
(0.343945 0.0105187 1.68938e-18)
(0.346303 0.0125716 0)
(0.34869 0.0146905 -1.69083e-18)
(0.3516 0.0167853 0)
(0.354213 0.0190182 1.69381e-18)
(0.357991 0.0211458 0)
(0.360541 0.0235625 0)
(0.365748 0.0256833 0)
(0.367692 0.0282604 0)
(0.375271 0.0304462 -3.40805e-18)
(0.375753 0.0332224 3.40755e-18)
(0.386939 0.0355679 1.45123e-21)
(0.38498 0.0384395 6.81338e-18)
(0.401052 0.0412287 -3.40787e-18)
(0.395921 0.0439703 6.79761e-18)
(0.417725 0.0475198 0)
(0.409641 0.0500169 -4.58015e-21)
(0.43691 0.0545199 6.7195e-18)
(0.42729 0.0567565 -6.65903e-18)
(0.459605 0.0625763 0)
(0.448807 0.0643077 0)
(0.488161 0.0719274 -7.25208e-21)
(0.474948 0.0731669 0)
(0.524014 0.08292 0)
(0.50787 0.0835077 0)
(0.570069 0.0964635 0)
(0.549995 0.0960226 0)
(0.63029 0.113401 0)
(0.606126 0.111678 3.9034e-18)
(0.712166 0.135021 -3.19377e-18)
(0.687165 0.132043 2.09753e-18)
(0.83006 0.158008 0)
(0.989834 -0.0134485 0)
(0.832801 -0.0532338 0)
(0.647408 -0.0579108 -4.54378e-18)
(0.504317 -0.051481 0)
(0.395416 -0.0419687 5.21247e-18)
(0.315045 -0.0338864 -5.42029e-18)
(0.255947 -0.0272947 0)
(0.210054 -0.0197216 1.39825e-21)
(0.172884 -0.0124316 0)
(0.14805 -0.0117052 0)
(0.14101 -0.0198868 0)
(0.151005 -0.0334616 -6.10968e-18)
(0.172905 -0.0446093 7.65951e-21)
(0.200168 -0.0510644 0)
(0.227884 -0.0534007 0)
(0.253416 -0.053198 -6.88226e-18)
(0.275807 -0.0517137 -3.48327e-18)
(0.294892 -0.0495913 -3.51142e-18)
(0.310743 -0.0470957 -3.52906e-18)
(0.323502 -0.0443677 7.07131e-18)
(0.333422 -0.0415336 0)
(0.340887 -0.0387053 -3.53271e-18)
(0.346366 -0.0359552 3.5243e-18)
(0.350331 -0.0333108 -3.51563e-18)
(0.353193 -0.0307687 -3.5047e-18)
(0.355275 -0.0283123 0)
(0.356815 -0.0259236 -3.48033e-18)
(0.357986 -0.023588 -3.46891e-18)
(0.35891 -0.0212951 1.72888e-18)
(0.359677 -0.0190375 -3.44626e-18)
(0.360353 -0.0168099 1.71768e-18)
(0.36099 -0.014608 0)
(0.361628 -0.012428 0)
(0.362301 -0.0102666 -8.52302e-19)
(0.363035 -0.00812043 8.50283e-19)
(0.363854 -0.00598616 0)
(0.364778 -0.0038605 0)
(0.365824 -0.00173968 0)
(0.36701 0.000379382 0)
(0.368348 0.0025017 0)
(0.369861 0.00462882 -8.44248e-19)
(0.371542 0.00676963 8.44268e-19)
(0.373448 0.00891907 0)
(0.375513 0.0110989 0)
(0.377906 0.013283 -1.6893e-18)
(0.380356 0.0155341 1.69087e-18)
(0.383407 0.0177616 0)
(0.386151 0.0201306 -5.59728e-22)
(0.390203 0.0223958 0)
(0.392918 0.02493 0)
(0.39857 0.0272245 0)
(0.400646 0.0299225 0)
(0.408953 0.0322862 -3.40556e-18)
(0.409398 0.0351836 0)
(0.421768 0.0377412 6.82034e-18)
(0.419409 0.0407047 -6.81059e-18)
(0.437341 0.0437682 3.40823e-18)
(0.431265 0.0465594 3.39524e-18)
(0.455715 0.0504268 3.39167e-18)
(0.446199 0.0529795 -6.74778e-18)
(0.476747 0.0578082 -6.72062e-18)
(0.465395 0.0600829 0)
(0.501649 0.0663923 0)
(0.488605 0.0679489 0)
(0.532889 0.0763479 -6.38319e-18)
(0.516845 0.0772184 -6.2e-18)
(0.571807 0.0879513 6.02494e-18)
(0.552366 0.0880668 0)
(0.621568 0.10221 0)
(0.597884 0.101143 0)
(0.686123 0.119885 -4.57641e-18)
(0.658737 0.117519 -3.90566e-18)
(0.772879 0.142042 2.02912e-20)
(0.746825 0.138777 0)
(0.895349 0.164199 -8.84027e-19)
(1.00457 -0.010727 0)
(0.891691 -0.0500143 0)
(0.730763 -0.0580811 4.5456e-18)
(0.593147 -0.0542683 0)
(0.480581 -0.0460875 5.21023e-18)
(0.393142 -0.0385604 5.42165e-18)
(0.326562 -0.0320765 0)
(0.274264 -0.0243885 5.70026e-18)
(0.233219 -0.0174536 0)
(0.207113 -0.0180811 0)
(0.199281 -0.0283611 0)
(0.207441 -0.0432998 0)
(0.226331 -0.0550597 6.34151e-18)
(0.250024 -0.0612922 0)
(0.274267 -0.0629086 6.74355e-18)
(0.296797 -0.0618101 0)
(0.316819 -0.0594356 3.48348e-18)
(0.334175 -0.0564836 3.5116e-18)
(0.348815 -0.0532109 -3.52628e-18)
(0.360689 -0.0497454 -7.06896e-18)
(0.369854 -0.0462182 3.53462e-18)
(0.37656 -0.0427574 -3.53063e-18)
(0.381214 -0.0394485 -3.52437e-18)
(0.384281 -0.0363219 -3.51374e-18)
(0.386198 -0.0333684 -3.50287e-18)
(0.387322 -0.0305609 0)
(0.38792 -0.0278703 3.48035e-18)
(0.388186 -0.0252727 1.73426e-18)
(0.388255 -0.0227499 -1.72802e-18)
(0.388226 -0.0202889 1.72293e-18)
(0.388167 -0.01788 -1.71768e-18)
(0.388131 -0.0155152 1.71234e-18)
(0.388159 -0.0131882 -8.53919e-19)
(0.388282 -0.0108933 0)
(0.388525 -0.00862509 -8.50282e-19)
(0.38891 -0.00637862 0)
(0.389456 -0.00414911 2.11777e-19)
(0.390178 -0.00193151 0)
(0.391093 0.000278411 -2.11273e-19)
(0.392208 0.00248671 0)
(0.393549 0.00469588 8.44252e-19)
(0.395106 0.00691572 0)
(0.396936 0.009142 0)
(0.398966 0.0113971 0)
(0.401378 0.0136558 3.37812e-18)
(0.403874 0.0159812 0)
(0.407044 0.0182851 1.6913e-18)
(0.409905 0.0207321 -3.38609e-18)
(0.414192 0.0230822 3.38958e-18)
(0.41707 0.0256713 0)
(0.423112 0.0280607 0)
(0.425328 0.030836 0)
(0.434275 0.0332871 3.40576e-18)
(0.434723 0.0362703 3.40343e-18)
(0.448136 0.0389523 -3.40963e-18)
(0.445455 0.0419676 6.80759e-18)
(0.465043 0.0452127 3.40482e-18)
(0.458155 0.0480233 -3.3956e-18)
(0.484945 0.0521112 -3.39208e-18)
(0.474213 0.0546999 0)
(0.507625 0.0597331 0)
(0.494784 0.0620193 0)
(0.534533 0.0686859 0)
(0.519445 0.0700364 0)
(0.568125 0.0790181 0)
(0.549544 0.0795568 8.52313e-21)
(0.6096 0.0910495 -6.02679e-18)
(0.587334 0.0907042 0)
(0.662347 0.105749 0)
(0.635818 0.104127 0)
(0.730206 0.123768 4.57863e-18)
(0.700745 0.120954 0)
(0.820438 0.145963 1.96759e-20)
(0.79456 0.142744 0)
(0.946074 0.167023 8.81984e-19)
(1.01082 -0.00881577 0)
(0.934089 -0.0464358 -4.08682e-18)
(0.799833 -0.0568853 0)
(0.673701 -0.0555142 0)
(0.562996 -0.0489258 -2.48557e-21)
(0.472301 -0.0423044 5.41828e-18)
(0.400567 -0.0362736 0)
(0.343158 -0.0288414 0)
(0.298644 -0.0225936 -5.74927e-18)
(0.270899 -0.024669 0)
(0.261424 -0.0368609 0)
(0.266646 -0.052785 -6.08849e-18)
(0.281278 -0.0648618 0)
(0.300138 -0.0706879 0)
(0.319652 -0.0714943 -6.74405e-18)
(0.337964 -0.0694742 0)
(0.3545 -0.0662264 0)
(0.369169 -0.0624851 3.5082e-18)
(0.38184 -0.0584805 3.52644e-18)
(0.392273 -0.0543148 7.06631e-18)
(0.400301 -0.0501205 -3.53474e-18)
(0.405993 -0.0460456 3.53072e-18)
(0.409647 -0.0421956 -3.52215e-18)
(0.411695 -0.0386095 1.15152e-21)
(0.412579 -0.0352745 1.10534e-21)
(0.412679 -0.0321532 0)
(0.412288 -0.029204 0)
(0.411616 -0.0263917 1.73329e-18)
(0.410811 -0.0236892 1.72803e-18)
(0.409976 -0.0210763 0)
(0.409182 -0.0185379 1.71675e-18)
(0.40848 -0.0160624 -1.71234e-18)
(0.407908 -0.01364 8.53919e-19)
(0.407495 -0.0112626 8.51637e-19)
(0.407264 -0.00892276 0)
(0.407233 -0.00661382 4.24111e-19)
(0.407418 -0.00432952 -4.23492e-19)
(0.407831 -0.00206353 0)
(0.408488 0.000189459 4.22485e-19)
(0.409394 0.00243646 -4.22094e-19)
(0.410571 0.00468089 0)
(0.412009 0.00693325 -8.43541e-19)
(0.413765 0.00919024 0)
(0.415759 0.0114745 0)
(0.418183 0.0137621 -3.37706e-18)
(0.420719 0.0161151 0)
(0.423991 0.0184497 -1.69133e-18)
(0.426958 0.0209304 6.12084e-22)
(0.431448 0.0233172 -5.08387e-18)
(0.434475 0.0259161 0)
(0.440859 0.0283304 0)
(0.443214 0.0311497 0)
(0.452717 0.0336321 3.40288e-18)
(0.453193 0.0366544 -3.40363e-18)
(0.467517 0.039401 -3.40645e-18)
(0.464579 0.0424223 -6.80443e-18)
(0.485619 0.0457827 -3.40512e-18)
(0.478055 0.0485811 0)
(0.506877 0.0527915 0)
(0.495145 0.0554164 -3.36753e-18)
(0.531027 0.06056 0)
(0.51693 0.0628301 -6.63978e-18)
(0.559762 0.0697206 0)
(0.542864 0.0708713 0)
(0.595407 0.0802626 -6.364e-18)
(0.574672 0.0805253 8.49166e-21)
(0.63904 0.0925194 0)
(0.614502 0.0918186 -5.72996e-18)
(0.694213 0.107443 0)
(0.665653 0.105431 0)
(0.764618 0.125564 4.55105e-18)
(0.734147 0.122506 0)
(0.857399 0.147462 3.15964e-18)
(0.832557 0.144516 0)
(0.985388 0.16734 0)
(1.01186 -0.00752885 0)
(0.962829 -0.0428615 8.20377e-18)
(0.854547 -0.0547543 0)
(0.74365 -0.0554488 0)
(0.63949 -0.0505008 -5.21061e-18)
(0.549441 -0.0449994 -5.41953e-18)
(0.475313 -0.0396963 0)
(0.41454 -0.0328389 -5.69586e-18)
(0.367265 -0.0275471 1.14981e-17)
(0.337676 -0.031111 0)
(0.325865 -0.0448756 0)
(0.327247 -0.0615712 1.21745e-17)
(0.336694 -0.0737191 0)
(0.349818 -0.0790076 0)
(0.363699 -0.0789632 0)
(0.376888 -0.0760404 0)
(0.389056 -0.0719776 0)
(0.400233 -0.067527 -7.01483e-18)
(0.410265 -0.0628734 0)
(0.418753 -0.0580779 -3.53253e-18)
(0.425302 -0.0532685 -3.53196e-18)
(0.429767 -0.048617 -3.52815e-18)
(0.432305 -0.0442564 3.52224e-18)
(0.433279 -0.0402414 7.02422e-18)
(0.433113 -0.0365595 7.00257e-18)
(0.432197 -0.0331638 -3.48916e-18)
(0.43084 -0.0299998 0)
(0.429267 -0.0270192 -1.73331e-18)
(0.427632 -0.0241844 0)
(0.426041 -0.0214672 0)
(0.424564 -0.0188465 -3.433e-18)
(0.42325 -0.0163062 0)
(0.422133 -0.0138332 0)
(0.421237 -0.0114168 -2.49273e-22)
(0.420582 -0.00904749 0)
(0.420181 -0.00671696 -4.24111e-19)
(0.420048 -0.00441761 2.11716e-19)
(0.42019 -0.00214195 0)
(0.420622 0.000116311 -2.11212e-19)
(0.421345 0.00236495 4.22094e-19)
(0.422382 0.0046082 0)
(0.423716 0.00685705 2.66246e-22)
(0.425409 0.00910914 0)
(0.427373 0.0113869 0)
(0.429808 0.0136681 3.37596e-18)
(0.432379 0.0160128 0)
(0.435739 0.0183428 0)
(0.438799 0.0208198 1.69221e-18)
(0.443457 0.0231979 6.58473e-22)
(0.446616 0.02578 3.38991e-18)
(0.45329 0.0281861 0)
(0.455776 0.0310038 -3.39636e-18)
(0.465747 0.0334978 -3.40304e-18)
(0.466261 0.0364957 3.40051e-18)
(0.481363 0.0392902 6.81162e-18)
(0.478219 0.0422497 3.40153e-18)
(0.500504 0.0457001 0)
(0.492389 0.0484346 0)
(0.522936 0.0526906 0)
(0.510409 0.0553479 3.36792e-18)
(0.54838 0.0604929 -3.35159e-18)
(0.533238 0.0627479 5.72429e-21)
(0.578748 0.0697927 0)
(0.5603 0.0707214 0)
(0.616154 0.0804292 6.36536e-18)
(0.593681 0.0804222 6.18776e-18)
(0.661611 0.0927109 0)
(0.635375 0.0917384 5.7317e-18)
(0.718769 0.107644 0)
(0.68896 0.105424 -4.99393e-18)
(0.791174 0.125711 -4.55302e-18)
(0.760572 0.122587 0)
(0.885923 0.147083 -3.12388e-18)
(0.862627 0.14455 0)
(1.01578 0.165795 -8.22231e-19)
(1.01013 -0.0066906 0)
(0.980854 -0.039503 -4.11696e-18)
(0.895863 -0.0520623 0)
(0.801804 -0.0543535 4.92565e-18)
(0.707611 -0.0509273 0)
(0.621729 -0.0466209 0)
(0.548078 -0.0422267 0)
(0.485995 -0.036188 1.1391e-17)
(0.437001 -0.0320467 -5.74873e-18)
(0.405619 -0.037089 -5.78428e-18)
(0.390989 -0.0521464 0)
(0.387882 -0.0693747 -6.08594e-18)
(0.391523 -0.081396 -6.32513e-18)
(0.398349 -0.0860675 0)
(0.40606 -0.0851776 3.36651e-18)
(0.413566 -0.0814092 0)
(0.420771 -0.0766229 0)
(0.427862 -0.0715743 3.50663e-18)
(0.434721 -0.0663849 0)
(0.440839 -0.0610583 3.52933e-18)
(0.445613 -0.05571 3.53209e-18)
(0.448679 -0.0505373 3.52826e-18)
(0.450024 -0.0457087 3.51968e-18)
(0.449913 -0.0413021 -7.02187e-18)
(0.448729 -0.037311 -3.50076e-18)
(0.446857 -0.033681 3.48921e-18)
(0.444609 -0.0303441 0)
(0.442217 -0.0272383 1.73224e-18)
(0.439838 -0.0243144 0)
(0.437578 -0.0215351 1.72097e-18)
(0.435504 -0.0188729 1.71625e-18)
(0.433661 -0.0163067 -1.71085e-18)
(0.432077 -0.0138203 0)
(0.430772 -0.0114002 -2.52432e-22)
(0.429761 -0.00903506 -8.49315e-19)
(0.429052 -0.00671506 0)
(0.428655 -0.00443138 -2.1159e-19)
(0.428576 -0.0021756 0)
(0.428824 5.93848e-05 2.11084e-19)
(0.429399 0.00228195 0)
(0.430322 0.00449697 8.43237e-19)
(0.431574 0.00671572 2.66589e-22)
(0.433217 0.0089367 0)
(0.435157 0.0111819 1.68637e-18)
(0.437603 0.0134308 -1.68771e-18)
(0.440205 0.0157407 -1.68814e-18)
(0.443637 0.0180395 1.68958e-18)
(0.446775 0.0204791 0)
(0.45157 0.0228156 3.38659e-18)
(0.45484 0.0253658 -3.39e-18)
(0.461752 0.0277454 0)
(0.464348 0.0305201 3.39649e-18)
(0.474706 0.0330085 -3.40012e-18)
(0.475256 0.035934 -6.79973e-18)
(0.491001 0.0387671 -3.40516e-18)
(0.487696 0.0416078 -3.39806e-18)
(0.51101 0.0451369 0)
(0.502464 0.0477574 -3.38812e-18)
(0.534423 0.0520304 0)
(0.521285 0.0546834 0)
(0.560986 0.0597555 3.352e-18)
(0.54499 0.06198 6.63598e-18)
(0.592774 0.0691395 0)
(0.573046 0.0698199 0)
(0.631657 0.0797402 6.3524e-18)
(0.607863 0.0794926 0)
(0.678636 0.0919454 5.99571e-18)
(0.651252 0.0907244 0)
(0.73742 0.10672 0)
(0.707046 0.104402 4.99575e-18)
(0.811443 0.124562 4.5265e-18)
(0.781358 0.121521 0)
(0.907798 0.145259 6.23333e-18)
(0.88628 0.143214 -1.99891e-18)
(1.0392 0.162871 8.21598e-19)
(1.00731 -0.00615107 0)
(0.990981 -0.0364636 0)
(0.92547 -0.0491088 -4.58611e-18)
(0.848043 -0.0525207 -5.80761e-22)
(0.765807 -0.0503889 0)
(0.686859 -0.0472309 0)
(0.616323 -0.0438254 0)
(0.555071 -0.0387605 -2.61384e-21)
(0.505658 -0.035881 -5.74736e-18)
(0.472829 -0.0423394 1.15715e-17)
(0.455157 -0.0584372 0)
(0.447184 -0.0759653 -6.08673e-18)
(0.444688 -0.087714 6.32563e-18)
(0.444974 -0.0917398 0)
(0.44632 -0.0900521 -1.51692e-21)
(0.447925 -0.0855272 0)
(0.449884 -0.0801327 0)
(0.452544 -0.0746186 -3.50287e-18)
(0.45587 -0.0690283 -3.51972e-18)
(0.459301 -0.063291 -7.05722e-18)
(0.46207 -0.0574998 0)
(0.463601 -0.0518774 0)
(0.463705 -0.0466342 -7.03817e-18)
(0.462525 -0.0418799 3.51038e-18)
(0.460386 -0.0376195 0)
(0.457645 -0.0337943 0)
(0.454608 -0.0303237 0)
(0.451504 -0.0271315 -1.73226e-18)
(0.448489 -0.0241561 1.72597e-18)
(0.445666 -0.0213506 -5.27492e-22)
(0.443096 -0.0186807 -1.71522e-18)
(0.440817 -0.0161204 1.71086e-18)
(0.438854 -0.0136501 0)
(0.43722 -0.0112539 -1.70202e-18)
(0.435924 -0.00891876 8.49315e-19)
(0.434972 -0.00663347 0)
(0.434369 -0.00438827 2.1159e-19)
(0.434117 -0.00217399 0)
(0.434223 1.70989e-05 -2.11084e-19)
(0.434685 0.00219376 0)
(0.435521 0.00436134 -8.43238e-19)
(0.436712 0.0065312 1.68577e-18)
(0.438317 0.0087026 0)
(0.440243 0.0108968 -1.68638e-18)
(0.442698 0.0130952 1.6866e-18)
(0.445326 0.0153516 5.78186e-22)
(0.448817 0.0176002 -1.6896e-18)
(0.452014 0.0199766 -1.69038e-18)
(0.456919 0.0222578 -6.3856e-22)
(0.460277 0.0247574 0)
(0.467377 0.0270946 0)
(0.470062 0.0297976 0)
(0.480725 0.0322664 6.79901e-18)
(0.481305 0.0350849 3.3992e-18)
(0.497565 0.0379455 -3.40201e-18)
(0.494137 0.0406285 6.79474e-18)
(0.518267 0.0442187 3.39832e-18)
(0.509404 0.046696 3.38839e-18)
(0.542473 0.0509486 0)
(0.528886 0.0535778 0)
(0.569976 0.0585446 0)
(0.553301 0.0607024 0)
(0.602967 0.0679275 0)
(0.58222 0.0683581 0)
(0.643049 0.0783864 -1.27004e-17)
(0.618322 0.0779424 6.16591e-18)
(0.691281 0.0904259 -5.99716e-18)
(0.663229 0.0890045 5.70425e-18)
(0.751391 0.104932 -5.41722e-18)
(0.720994 0.1026 0)
(0.82676 0.122374 -4.52827e-18)
(0.797617 0.119549 3.8175e-18)
(0.924479 0.142354 -6.20175e-18)
(0.904778 0.140805 2.00002e-18)
(1.05719 0.158929 0)
(1.00444 -0.00579359 0)
(0.995714 -0.0337711 -4.19419e-18)
(0.945467 -0.0461127 4.58801e-18)
(0.883132 -0.0502214 -9.85639e-18)
(0.813466 -0.0491054 -5.2024e-18)
(0.743258 -0.0469591 0)
(0.677958 -0.0445283 0)
(0.619506 -0.0405011 -5.69332e-18)
(0.571083 -0.0389079 -4.57361e-22)
(0.537406 -0.0466634 -5.78723e-18)
(0.51675 -0.0635521 0)
(0.503813 -0.0811754 6.08725e-18)
(0.495134 -0.0925542 0)
(0.488929 -0.095953 0)
(0.484016 -0.0935528 -3.36544e-18)
(0.479816 -0.088385 -3.42874e-18)
(0.476542 -0.0825127 0)
(0.474681 -0.0766763 3.50305e-18)
(0.474307 -0.0708309 3.51989e-18)
(0.474863 -0.0648165 1.71472e-21)
(0.475469 -0.0586925 -3.52761e-18)
(0.475373 -0.0527044 0)
(0.47421 -0.0471095 3.5185e-18)
(0.471997 -0.0420565 0)
(0.468976 -0.0375685 -1.74861e-18)
(0.465464 -0.033586 0)
(0.461748 -0.0300175 1.73704e-18)
(0.458047 -0.0267729 0)
(0.454509 -0.0237778 -1.72598e-18)
(0.451229 -0.0209758 -3.4404e-18)
(0.448263 -0.0183254 1.71523e-18)
(0.445642 -0.015796 8.54923e-19)
(0.443383 -0.0133646 -8.52678e-19)
(0.441496 -0.011013 2.46772e-22)
(0.439984 -0.00872693 0)
(0.438848 -0.00649391 -4.23613e-19)
(0.43809 -0.00430347 0)
(0.43771 -0.0021459 0)
(0.437712 -1.3068e-05 0)
(0.438091 0.00210403 4.21584e-19)
(0.438865 0.00421107 0)
(0.440011 0.00631928 -2.57087e-22)
(0.441592 0.0084286 8.42487e-19)
(0.443507 0.0105594 -8.42654e-19)
(0.445972 0.0126948 -1.68661e-18)
(0.448621 0.0148852 3.37462e-18)
(0.452157 0.0170703 -1.68845e-18)
(0.455401 0.0193686 3.38021e-18)
(0.460389 0.0215891 -1.69239e-18)
(0.463814 0.0240184 0)
(0.471058 0.026301 0)
(0.473809 0.0289127 -3.39238e-18)
(0.484709 0.0313511 -3.39888e-18)
(0.485311 0.0340383 3.39619e-18)
(0.501965 0.0369159 6.80275e-18)
(0.498454 0.0394158 -1.74969e-21)
(0.523198 0.0430479 -3.39854e-18)
(0.514128 0.045366 0)
(0.548021 0.0495629 0)
(0.534131 0.0521575 0)
(0.5763 0.0569855 0)
(0.559095 0.0590547 0)
(0.610274 0.0662991 0)
(0.588757 0.0664914 0)
(0.651297 0.0765286 6.34789e-18)
(0.62598 0.0759351 -6.16716e-18)
(0.700546 0.0883279 0)
(0.672215 0.086769 -5.70572e-18)
(0.761728 0.102477 1.0245e-20)
(0.731698 0.100198 0)
(0.838231 0.119407 0)
(0.810273 0.11687 -7.62399e-18)
(0.937136 0.138648 3.09384e-18)
(0.919172 0.137562 0)
(1.07094 0.154239 0)
(1.00206 -0.00553331 0)
(0.997106 -0.0314041 8.41485e-18)
(0.958076 -0.0432159 -4.60439e-18)
(0.908476 -0.0476821 2.50821e-22)
(0.850836 -0.047301 3.26035e-21)
(0.79017 -0.0459768 0)
(0.731529 -0.0444327 0)
(0.677456 -0.0414247 0)
(0.631351 -0.0410605 5.74929e-18)
(0.597583 -0.0499384 5.79802e-18)
(0.574262 -0.0673672 0)
(0.556546 -0.084908 -3.0492e-18)