/*--------------------------------*- C++ -*----------------------------------*\
| =========                 |                                                 |
| \\      /  F ield         | OpenFOAM: The Open Source CFD Toolbox           |
|  \\    /   O peration     | Version:  2.4.0                                 |
|   \\  /    A nd           | Web:      www.OpenFOAM.org                      |
|    \\/     M anipulation  |                                                 |
\*---------------------------------------------------------------------------*/
FoamFile
{
    version     2.0;
    format      ascii;
    class       surfaceScalarField;
    location    "205";
    object      phi;
}
// * * * * * * * * * * * * * * * * * * * * * * * * * * * * * * * * * * * * * //

dimensions      [0 3 -1 0 0 0 0];

internalField   nonuniform List<scalar> 
19800
(
0.000192438
-7.0998e-08
0.000192404
3.38986e-08
0.000192409
-4.49299e-09
0.000192391
1.74476e-08
0.000192384
7.6481e-09
0.000192368
1.58314e-08
0.000192354
1.38783e-08
0.000192338
1.61049e-08
0.000192319
1.90215e-08
0.000192302
1.68456e-08
0.000192277
2.46181e-08
0.00019226
1.78071e-08
0.000192227
3.2069e-08
0.000192208
1.9252e-08
0.000192165
4.34464e-08
0.000192142
2.3106e-08
0.000192079
6.29554e-08
0.00019204
3.83273e-08
0.000191935
1.05842e-07
9.86777e-08
0.000191836
0.000197634
-2.88087e-09
0.000197653
1.46256e-08
0.000197635
1.3428e-08
0.000197632
2.06356e-08
0.000197616
2.38554e-08
0.000197606
2.53925e-08
0.000197588
3.2229e-08
0.000197575
2.91412e-08
0.000197553
4.05817e-08
0.000197537
3.24855e-08
0.000197512
5.03607e-08
0.000197493
3.61244e-08
0.000197462
6.32838e-08
0.00019744
4.1638e-08
0.000197401
8.20274e-08
0.000197371
5.35842e-08
0.000197321
1.12586e-07
0.000197274
8.53597e-08
0.000197207
1.73163e-07
1.71566e-07
0.000197134
0.000203177
4.06732e-09
0.000203168
2.37807e-08
0.000203162
1.92354e-08
0.00020315
3.34006e-08
0.000203139
3.49326e-08
0.000203124
4.03636e-08
0.000203108
4.77706e-08
0.000203091
4.59342e-08
0.000203072
6.03309e-08
0.000203053
5.12305e-08
0.000203029
7.43774e-08
0.000203007
5.77353e-08
0.000202979
9.15932e-08
0.000202952
6.85131e-08
0.00020292
1.14305e-07
0.000202883
9.00466e-08
0.000202848
1.47965e-07
0.000202799
1.34105e-07
0.000202769
2.03577e-07
2.09922e-07
0.00020273
0.000208815
8.47557e-09
0.000208805
3.38039e-08
0.0002088
2.39826e-08
0.000208786
4.73644e-08
0.000208776
4.50976e-08
0.00020876
5.65276e-08
0.000208745
6.24368e-08
0.000208727
6.3894e-08
0.000208708
7.89914e-08
0.000208688
7.12929e-08
0.000208666
9.66358e-08
0.000208643
8.10497e-08
0.000208617
1.16851e-07
0.000208589
9.71809e-08
0.000208561
1.41575e-07
0.000208526
1.25963e-07
0.000208499
1.74861e-07
0.000208459
1.73381e-07
0.000208443
2.20191e-07
2.33745e-07
0.000208419
0.000214601
1.70004e-08
0.000214601
3.39044e-08
0.000214589
3.59579e-08
0.000214581
5.5188e-08
0.000214567
5.96797e-08
0.000214554
6.91166e-08
0.000214537
7.94541e-08
0.000214521
8.02102e-08
0.000214502
9.83297e-08
0.000214482
9.12765e-08
0.00021446
1.1798e-07
0.000214436
1.05466e-07
0.000214413
1.39565e-07
0.000214383
1.26953e-07
0.00021436
1.6479e-07
0.000214326
1.59855e-07
0.000214305
1.96338e-07
0.000214274
2.03806e-07
0.000214262
2.32789e-07
2.46437e-07
0.000214249
0.000220557
2.1523e-08
0.000220561
2.96031e-08
0.000220543
5.44488e-08
0.000220541
5.71883e-08
0.000220519
8.12688e-08
0.000220512
7.61714e-08
0.000220489
1.02908e-07
0.000220477
9.19129e-08
0.000220452
1.22866e-07
0.000220436
1.07857e-07
0.000220411
1.42828e-07
0.000220389
1.27457e-07
0.000220365
1.63929e-07
0.000220337
1.54051e-07
0.000220314
1.87836e-07
0.000220286
1.88665e-07
0.000220266
2.15832e-07
0.000220244
2.26108e-07
0.000220233
2.43111e-07
2.52581e-07
0.000220227
0.000226676
2.37911e-08
0.000226675
3.06981e-08
0.00022666
6.89525e-08
0.000226654
6.33304e-08
0.000226635
1.00008e-07
0.000226625
8.64261e-08
0.000226604
1.2427e-07
0.000226589
1.06082e-07
0.000226567
1.45702e-07
0.000226548
1.26245e-07
0.000226525
1.66088e-07
0.000226502
1.50192e-07
0.000226479
1.86735e-07
0.000226454
1.79749e-07
0.000226432
2.09193e-07
0.000226408
2.12987e-07
0.000226391
2.33071e-07
0.000226375
2.4221e-07
0.000226366
2.51413e-07
2.55655e-07
0.000226363
0.000232961
2.69246e-08
0.000232957
3.44062e-08
0.000232945
8.07659e-08
0.000232936
7.24466e-08
0.00023292
1.16084e-07
0.000232907
9.9629e-08
0.000232888
1.43024e-07
0.000232871
1.2304e-07
0.000232851
1.65925e-07
0.00023283
1.46959e-07
0.00023281
1.86767e-07
0.000232786
1.74078e-07
0.000232765
2.07099e-07
0.000232741
2.04438e-07
0.000232722
2.28089e-07
0.000232701
2.33892e-07
0.000232686
2.47577e-07
0.000232674
2.54293e-07
0.000232668
2.57702e-07
2.57178e-07
0.000232667
0.000239421
3.05729e-08
0.000239416
3.89043e-08
0.000239405
9.18472e-08
0.000239395
8.26841e-08
0.00023938
1.31318e-07
0.000239365
1.14101e-07
0.000239348
1.60773e-07
0.000239329
1.41245e-07
0.00023931
1.84968e-07
0.000239289
1.68505e-07
0.000239269
2.06176e-07
0.000239246
1.97676e-07
0.000239227
2.26125e-07
0.000239204
2.27124e-07
0.000239187
2.45261e-07
0.000239169
2.5148e-07
0.000239157
2.59872e-07
0.000239148
2.63457e-07
0.000239143
2.62378e-07
2.57848e-07
0.000239143
0.00024606
3.43528e-08
0.000246056
4.37059e-08
0.000246045
1.02805e-07
0.000246034
9.34874e-08
0.000246019
1.4627e-07
0.000246004
1.29306e-07
0.000245986
1.78007e-07
0.000245967
1.60158e-07
0.000245949
2.03273e-07
0.000245927
1.90272e-07
0.000245909
2.24727e-07
0.000245886
2.2039e-07
0.000245868
2.44112e-07
0.000245848
2.47574e-07
0.000245832
2.60882e-07
0.000245817
2.6618e-07
0.000245807
2.70229e-07
0.0002458
2.70457e-07
0.000245797
2.65776e-07
2.57981e-07
0.000245797
0.000252884
3.80913e-08
0.000252879
4.88425e-08
0.000252868
1.13666e-07
0.000252857
1.04774e-07
0.000252842
1.61045e-07
0.000252826
1.45051e-07
0.000252809
1.94909e-07
0.00025279
1.79429e-07
0.000252772
2.21116e-07
0.000252751
2.11786e-07
0.000252733
2.42711e-07
0.000252711
2.41817e-07
0.000252694
2.61221e-07
0.000252676
2.65783e-07
0.000252662
2.75035e-07
0.00025265
2.78465e-07
0.000252641
2.78893e-07
0.000252636
2.75854e-07
0.000252633
2.68203e-07
2.57747e-07
0.000252633
0.000259897
4.17395e-08
0.000259892
5.43225e-08
0.000259881
1.24404e-07
0.000259869
1.16559e-07
0.000259855
1.75583e-07
0.000259838
1.61318e-07
0.000259822
2.11431e-07
0.000259802
1.98956e-07
0.000259785
2.38482e-07
0.000259764
2.32861e-07
0.000259747
2.601e-07
0.000259727
2.61859e-07
0.00025971
2.77361e-07
0.000259694
2.81945e-07
0.000259682
2.87691e-07
0.000259671
2.88769e-07
0.000259664
2.86043e-07
0.00025966
2.80015e-07
0.000259658
2.69841e-07
2.57216e-07
0.000259659
0.000267105
4.52981e-08
0.000267099
6.01423e-08
0.000267088
1.35002e-07
0.000267076
1.28788e-07
0.000267062
1.8991e-07
0.000267045
1.77968e-07
0.000267029
2.27653e-07
0.000267009
2.18497e-07
0.000266992
2.55487e-07
0.000266972
2.53241e-07
0.000266955
2.76956e-07
0.000266937
2.80427e-07
0.000266921
2.92519e-07
0.000266907
2.96241e-07
0.000266896
2.98924e-07
0.000266887
2.97423e-07
0.000266881
2.91909e-07
0.000266878
2.83208e-07
0.000266877
2.70883e-07
2.56466e-07
0.000266878
0.000274512
4.87154e-08
0.000274506
6.63277e-08
0.000274496
1.45431e-07
0.000274483
1.41457e-07
0.000274469
2.03994e-07
0.000274452
1.94938e-07
0.000274436
2.43564e-07
0.000274417
2.37925e-07
0.0002744
2.72108e-07
0.00027438
2.72812e-07
0.000274364
2.93194e-07
0.000274347
2.97555e-07
0.000274333
3.06597e-07
0.00027432
3.08878e-07
0.00027431
3.08774e-07
0.000274303
3.0469e-07
0.000274298
2.96654e-07
0.000274296
2.856e-07
0.000274296
2.71424e-07
2.55515e-07
0.000274296
0.000282125
5.2016e-08
0.000282119
7.28487e-08
0.000282108
1.55683e-07
0.000282095
1.545e-07
0.000282081
2.17857e-07
0.000282064
2.12091e-07
0.000282049
2.59215e-07
0.00028203
2.57055e-07
0.000282013
2.88386e-07
0.000281995
2.91445e-07
0.000281979
3.08795e-07
0.000281963
3.13272e-07
0.00028195
3.19589e-07
0.000281939
3.20027e-07
0.000281931
3.17359e-07
0.000281924
3.10776e-07
0.000281921
3.00465e-07
0.000281919
2.87343e-07
0.000281919
2.71579e-07
2.54416e-07
0.00028192
0.000289949
5.51412e-08
0.000289942
7.97212e-08
0.000289932
1.65747e-07
0.000289919
1.67874e-07
0.000289905
2.31499e-07
0.000289888
2.2933e-07
0.000289873
2.74607e-07
0.000289854
2.75769e-07
0.000289838
3.04276e-07
0.00028982
3.09091e-07
0.000289805
3.23664e-07
0.000289791
3.27655e-07
0.000289779
3.3145e-07
0.000289769
3.29843e-07
0.000289762
3.24762e-07
0.000289757
3.15834e-07
0.000289754
3.03459e-07
0.000289753
2.88525e-07
0.000289753
2.71389e-07
2.53167e-07
0.000289754
0.00029799
5.81302e-08
0.000297983
8.68992e-08
0.000297973
1.7562e-07
0.000297959
1.81506e-07
0.000297946
2.44933e-07
0.000297929
2.46531e-07
0.000297914
2.89756e-07
0.000297896
2.93941e-07
0.00029788
3.19758e-07
0.000297863
3.25711e-07
0.000297849
3.37756e-07
0.000297836
3.40772e-07
0.000297825
3.42209e-07
0.000297817
3.38458e-07
0.00029781
3.31107e-07
0.000297806
3.20003e-07
0.000297804
3.05768e-07
0.000297803
2.89245e-07
0.000297804
2.70927e-07
2.5181e-07
0.000297805
0.000306254
6.0924e-08
0.000306247
9.43891e-08
0.000306237
1.85301e-07
0.000306223
1.95332e-07
0.00030621
2.5817e-07
0.000306193
2.63591e-07
0.000306178
3.04653e-07
0.00030616
3.1149e-07
0.000306145
3.34767e-07
0.00030613
3.413e-07
0.000306117
3.51e-07
0.000306105
3.52698e-07
0.000306095
3.51874e-07
0.000306087
3.4598e-07
0.000306082
3.3648e-07
0.000306079
3.23382e-07
0.000306077
3.07468e-07
0.000306077
2.89552e-07
0.000306077
2.70211e-07
2.50334e-07
0.000306079
0.000314747
6.35713e-08
0.00031474
1.02126e-07
0.00031473
1.94797e-07
0.000314716
2.09267e-07
0.000314703
2.71215e-07
0.000314686
2.80402e-07
0.000314672
3.19282e-07
0.000314655
3.28337e-07
0.00031464
3.49255e-07
0.000314626
3.55862e-07
0.000314613
3.63365e-07
0.000314603
3.63503e-07
0.000314594
3.60501e-07
0.000314587
3.52508e-07
0.000314583
3.40991e-07
0.00031458
3.2607e-07
0.000314579
3.0865e-07
0.000314579
2.89514e-07
0.00031458
2.6929e-07
2.4877e-07
0.000314582
0.000323476
6.6018e-08
0.000323468
1.10107e-07
0.000323459
2.04109e-07
0.000323445
2.23241e-07
0.000323432
2.84073e-07
0.000323415
2.96877e-07
0.000323401
3.33613e-07
0.000323385
3.44438e-07
0.000323371
3.63152e-07
0.000323358
3.69415e-07
0.000323346
3.74813e-07
0.000323336
3.73247e-07
0.000323329
3.68128e-07
0.000323323
3.5812e-07
0.000323319
3.44712e-07
0.000323317
3.28135e-07
0.000323317
3.09365e-07
0.000323317
2.89158e-07
0.000323318
2.68172e-07
2.47106e-07
0.00032332
0.000332447
6.83216e-08
0.000332439
1.18263e-07
0.000332429
2.13242e-07
0.000332416
2.37175e-07
0.000332403
2.96731e-07
0.000332387
3.12934e-07
0.000332373
3.47599e-07
0.000332358
3.59757e-07
0.000332344
3.76402e-07
0.000332332
3.81983e-07
0.000332321
3.85337e-07
0.000332312
3.81993e-07
0.000332306
3.74816e-07
0.000332301
3.62901e-07
0.000332298
3.47726e-07
0.000332296
3.29655e-07
0.000332296
3.09675e-07
0.000332297
2.88537e-07
0.000332298
2.66889e-07
2.4537e-07
0.0003323
0.000341666
7.04333e-08
0.000341658
1.26559e-07
0.000341649
2.22218e-07
0.000341635
2.50976e-07
0.000341623
3.09197e-07
0.000341607
3.28492e-07
0.000341594
3.61209e-07
0.000341579
3.7426e-07
0.000341567
3.88957e-07
0.000341555
3.93578e-07
0.000341545
3.94937e-07
0.000341538
3.89781e-07
0.000341532
3.80621e-07
0.000341528
3.66905e-07
0.000341525
3.50097e-07
0.000341524
3.3067e-07
0.000341524
3.09614e-07
0.000341525
2.87661e-07
0.000341527
2.65447e-07
2.43544e-07
0.000341529
0.000351141
7.24149e-08
0.000351133
1.34934e-07
0.000351124
2.31025e-07
0.000351111
2.64586e-07
0.000351098
3.2143e-07
0.000351083
3.43504e-07
0.00035107
3.74376e-07
0.000351057
3.87942e-07
0.000351045
4.00765e-07
0.000351034
4.04235e-07
0.000351025
4.03624e-07
0.000351019
3.96673e-07
0.000351014
3.856e-07
0.00035101
3.70204e-07
0.000351008
3.51885e-07
0.000351008
3.31244e-07
0.000351008
3.09228e-07
0.000351009
2.86571e-07
0.000351011
2.6387e-07
2.41655e-07
0.000351013
0.000360879
7.42242e-08
0.000360871
1.43342e-07
0.000360862
2.39682e-07
0.000360849
2.77916e-07
0.000360837
3.33429e-07
0.000360823
3.57906e-07
0.00036081
3.87063e-07
0.000360797
4.00782e-07
0.000360786
4.118e-07
0.000360776
4.13962e-07
0.000360769
4.11419e-07
0.000360762
4.027e-07
0.000360758
3.89806e-07
0.000360756
3.72839e-07
0.000360754
3.5314e-07
0.000360754
3.31403e-07
0.000360755
3.08541e-07
0.000360756
2.8527e-07
0.000360758
2.62159e-07
2.39686e-07
0.00036076
0.000370887
7.59227e-08
0.000370879
1.51724e-07
0.00037087
2.48171e-07
0.000370857
2.90919e-07
0.000370846
3.45137e-07
0.000370832
3.71671e-07
0.00037082
3.99201e-07
0.000370808
4.12786e-07
0.000370798
4.22029e-07
0.000370789
4.22795e-07
0.000370782
4.18345e-07
0.000370777
4.07918e-07
0.000370773
3.93291e-07
0.000370771
3.74874e-07
0.00037077
3.53908e-07
0.000370771
3.31198e-07
0.000370771
3.07586e-07
0.000370773
2.83793e-07
0.000370775
2.60332e-07
2.37658e-07
0.000370777
0.000381173
7.74754e-08
0.000381164
1.60032e-07
0.000381156
2.56501e-07
0.000381144
3.03522e-07
0.000381132
3.56535e-07
0.000381119
3.84754e-07
0.000381108
4.10753e-07
0.000381096
4.23942e-07
0.000381087
4.31442e-07
0.000381079
4.30743e-07
0.000381073
4.24434e-07
0.000381068
4.12357e-07
0.000381066
3.961e-07
0.000381064
3.7634e-07
0.000381064
3.54229e-07
0.000381064
3.30646e-07
0.000381066
3.06381e-07
0.000381067
2.82136e-07
0.000381069
2.58391e-07
2.35557e-07
0.000381071
0.000391743
7.89366e-08
0.000391735
1.68214e-07
0.000391727
2.64642e-07
0.000391715
3.15687e-07
0.000391704
3.67562e-07
0.000391692
3.97141e-07
0.000391681
4.21661e-07
0.00039167
4.34261e-07
0.000391662
4.40022e-07
0.000391655
4.37842e-07
0.000391649
4.29712e-07
0.000391646
4.16069e-07
0.000391643
3.98278e-07
0.000391643
3.77291e-07
0.000391643
3.54137e-07
0.000391643
3.29789e-07
0.000391645
3.04949e-07
0.000391647
2.8033e-07
0.000391649
2.56349e-07
2.33402e-07
0.000391651
0.000402607
8.0281e-08
0.000402599
1.76218e-07
0.000402591
2.72596e-07
0.00040258
3.27355e-07
0.000402569
3.78191e-07
0.000402557
4.08799e-07
0.000402547
4.31896e-07
0.000402538
4.43733e-07
0.00040253
4.47778e-07
0.000402524
4.441e-07
0.000402519
4.34217e-07
0.000402516
4.19081e-07
0.000402515
3.99865e-07
0.000402514
3.77752e-07
0.000402515
3.53664e-07
0.000402516
3.28637e-07
0.000402517
3.03304e-07
0.000402519
2.78369e-07
0.000402521
2.54205e-07
2.3118e-07
0.000402524
0.000413772
8.15533e-08
0.000413765
1.83993e-07
0.000413757
2.80334e-07
0.000413746
3.38493e-07
0.000413736
3.88365e-07
0.000413725
4.19716e-07
0.000413715
4.41418e-07
0.000413706
4.52369e-07
0.0004137
4.54709e-07
0.000413694
4.49552e-07
0.00041369
4.37979e-07
0.000413688
4.21438e-07
0.000413687
4.00898e-07
0.000413687
3.77765e-07
0.000413688
3.52839e-07
0.000413689
3.27222e-07
0.000413691
3.01466e-07
0.000413693
2.76277e-07
0.000413695
2.51972e-07
2.28907e-07
0.000413698
0.000425247
8.27321e-08
0.00042524
1.91513e-07
0.000425232
2.8783e-07
0.000425221
3.49069e-07
0.000425212
3.98042e-07
0.000425202
4.29879e-07
0.000425193
4.50201e-07
0.000425185
4.60171e-07
0.000425179
4.60825e-07
0.000425174
4.54217e-07
0.000425171
4.41029e-07
0.000425169
4.2317e-07
0.000425169
4.01411e-07
0.000425169
3.77354e-07
0.000425171
3.51684e-07
0.000425172
3.25554e-07
0.000425174
2.99444e-07
0.000425176
2.74051e-07
0.000425179
2.49648e-07
2.26572e-07
0.000425181
0.00043704
8.38511e-08
0.000437033
1.98724e-07
0.000437025
2.95057e-07
0.000437015
3.59052e-07
0.000437006
4.07176e-07
0.000436997
4.39276e-07
0.000436989
4.58222e-07
0.000436982
4.67147e-07
0.000436977
4.66139e-07
0.000436973
4.58124e-07
0.00043697
4.43399e-07
0.000436969
4.24315e-07
0.000436969
4.01436e-07
0.00043697
3.76554e-07
0.000436971
3.50224e-07
0.000436973
3.23659e-07
0.000436976
2.97253e-07
0.000436978
2.71709e-07
0.00043698
2.47245e-07
2.24189e-07
0.000436983
0.00044916
8.48951e-08
0.000449153
2.05601e-07
0.000449146
3.01986e-07
0.000449137
3.68415e-07
0.000449128
4.15732e-07
0.000449119
4.47894e-07
0.000449112
4.6547e-07
0.000449106
4.73301e-07
0.000449102
4.70668e-07
0.000449098
4.61293e-07
0.000449097
4.4512e-07
0.000449096
4.24899e-07
0.000449097
4.01e-07
0.000449098
3.75381e-07
0.000449099
3.48476e-07
0.000449102
3.21544e-07
0.000449104
2.94899e-07
0.000449106
2.69248e-07
0.000449109
2.44757e-07
2.21747e-07
0.000449111
0.000461616
8.5885e-08
0.000461609
2.12116e-07
0.000461603
3.08579e-07
0.000461594
3.77145e-07
0.000461586
4.23667e-07
0.000461578
4.55734e-07
0.000461572
4.7193e-07
0.000461566
4.78652e-07
0.000461563
4.74429e-07
0.00046156
4.6376e-07
0.000461559
4.46219e-07
0.000461559
4.2496e-07
0.00046156
4.00131e-07
0.000461561
3.73868e-07
0.000461563
3.46461e-07
0.000461566
3.19229e-07
0.000461568
2.92397e-07
0.000461571
2.66683e-07
0.000461573
2.42197e-07
2.1926e-07
0.000461576
0.000474417
8.68098e-08
0.000474411
2.18233e-07
0.000474405
3.14817e-07
0.000474397
3.85212e-07
0.00047439
4.30959e-07
0.000474383
4.62779e-07
0.000474377
4.77607e-07
0.000474372
4.83198e-07
0.000474369
4.77446e-07
0.000474367
4.65539e-07
0.000474367
4.4673e-07
0.000474367
4.24516e-07
0.000474369
3.98856e-07
0.000474371
3.72025e-07
0.000474373
3.44192e-07
0.000474375
3.16719e-07
0.000474378
2.8975e-07
0.000474381
2.6401e-07
0.000474383
2.3956e-07
2.16717e-07
0.000474386
0.000487574
8.76783e-08
0.000487568
2.23942e-07
0.000487562
3.20655e-07
0.000487555
3.92612e-07
0.000487548
4.37575e-07
0.000487542
4.69036e-07
0.000487537
4.82496e-07
0.000487533
4.86966e-07
0.000487531
4.79739e-07
0.00048753
4.66666e-07
0.00048753
4.46677e-07
0.000487531
4.23601e-07
0.000487532
3.97197e-07
0.000487535
3.69881e-07
0.000487537
3.41689e-07
0.00048754
3.14033e-07
0.000487543
2.86972e-07
0.000487545
2.61244e-07
0.000487548
2.36858e-07
2.14132e-07
0.000487551
0.000501095
8.84827e-08
0.00050109
2.29222e-07
0.000501084
3.26069e-07
0.000501078
3.99328e-07
0.000501072
4.43496e-07
0.000501066
4.74498e-07
0.000501062
4.86602e-07
0.000501059
4.89963e-07
0.000501058
4.81328e-07
0.000501057
4.67161e-07
0.000501058
4.46086e-07
0.000501059
4.22235e-07
0.000501061
3.95174e-07
0.000501063
3.67445e-07
0.000501066
3.3896e-07
0.000501069
3.11172e-07
0.000501072
2.84063e-07
0.000501075
2.58379e-07
0.000501078
2.34083e-07
2.11493e-07
0.00050108
0.000514991
8.92238e-08
0.000514986
2.34057e-07
0.000514981
3.31032e-07
0.000514975
4.05349e-07
0.00051497
4.48708e-07
0.000514966
4.79168e-07
0.000514962
4.89938e-07
0.00051496
4.9221e-07
0.000514959
4.82242e-07
0.000514959
4.67053e-07
0.00051496
4.44988e-07
0.000514962
4.20444e-07
0.000514964
3.92811e-07
0.000514967
3.6474e-07
0.00051497
3.36024e-07
0.000514973
3.08154e-07
0.000514976
2.81037e-07
0.000514979
2.5543e-07
0.000514982
2.31249e-07
2.08814e-07
0.000514985
0.000529273
8.98947e-08
0.000529268
2.38443e-07
0.000529264
3.35512e-07
0.000529259
4.10671e-07
0.000529254
4.53196e-07
0.00052925
4.83051e-07
0.000529248
4.9251e-07
0.000529246
4.93725e-07
0.000529246
4.82499e-07
0.000529247
4.66366e-07
0.000529248
4.43401e-07
0.00052925
4.18249e-07
0.000529253
3.90122e-07
0.000529256
3.61775e-07
0.000529259
3.32885e-07
0.000529262
3.0498e-07
0.000529266
2.77891e-07
0.000529269
2.52389e-07
0.000529271
2.28346e-07
2.06084e-07
0.000529274
0.000543951
9.04924e-08
0.000543947
2.42363e-07
0.000543943
3.39496e-07
0.000543938
4.15284e-07
0.000543934
4.5696e-07
0.000543931
4.86151e-07
0.000543929
4.94337e-07
0.000543929
4.94528e-07
0.000543929
4.82129e-07
0.00054393
4.65125e-07
0.000543932
4.41354e-07
0.000543935
4.15671e-07
0.000543938
3.87129e-07
0.000543941
3.58569e-07
0.000543944
3.2956e-07
0.000543948
3.01663e-07
0.000543951
2.7464e-07
0.000543954
2.49272e-07
0.000543957
2.25387e-07
2.03314e-07
0.00054396
0.000559035
9.10101e-08
0.000559032
2.45814e-07
0.000559028
3.42964e-07
0.000559024
4.19184e-07
0.000559021
4.59996e-07
0.000559019
4.88475e-07
0.000559018
4.95434e-07
0.000559018
4.94638e-07
0.000559019
4.81152e-07
0.000559021
4.63353e-07
0.000559023
4.38867e-07
0.000559026
4.12727e-07
0.000559029
3.83846e-07
0.000559033
3.55129e-07
0.000559036
3.26056e-07
0.00055904
2.98205e-07
0.000559043
2.71281e-07
0.000559046
2.4607e-07
0.000559049
2.22365e-07
2.00497e-07
0.000559052
0.000574538
9.14422e-08
0.000574535
2.48798e-07
0.000574532
3.45896e-07
0.000574529
4.22378e-07
0.000574527
4.62303e-07
0.000574525
4.90043e-07
0.000574525
4.95817e-07
0.000574525
4.94084e-07
0.000574527
4.79594e-07
0.000574529
4.61077e-07
0.000574532
4.35963e-07
0.000574536
4.09441e-07
0.000574539
3.80289e-07
0.000574543
3.51474e-07
0.000574546
3.22383e-07
0.00057455
2.94619e-07
0.000574553
2.67825e-07
0.000574557
2.42797e-07
0.00057456
2.19291e-07
1.97642e-07
0.000574563
0.000590471
9.17825e-08
0.000590469
2.51306e-07
0.000590466
3.4829e-07
0.000590464
4.24859e-07
0.000590462
4.63892e-07
0.000590461
4.90859e-07
0.000590462
4.9551e-07
0.000590463
4.9288e-07
0.000590465
4.77481e-07
0.000590468
4.58315e-07
0.000590471
4.32664e-07
0.000590475
4.05825e-07
0.000590479
3.76473e-07
0.000590482
3.47609e-07
0.000590486
3.18549e-07
0.00059049
2.90903e-07
0.000590494
2.64271e-07
0.000590497
2.39446e-07
0.0005905
2.16158e-07
1.94741e-07
0.000590503
0.000606846
9.20236e-08
0.000606844
2.53355e-07
0.000606842
3.50126e-07
0.00060684
4.26646e-07
0.00060684
4.64765e-07
0.000606839
4.90952e-07
0.00060684
4.94528e-07
0.000606842
4.91062e-07
0.000606845
4.74832e-07
0.000606848
4.55099e-07
0.000606852
4.28988e-07
0.000606856
4.01903e-07
0.00060686
3.72411e-07
0.000606864
3.43551e-07
0.000606868
3.14565e-07
0.000606872
2.87074e-07
0.000606875
2.6063e-07
0.000606879
2.36031e-07
0.000606882
2.12976e-07
1.91804e-07
0.000606885
0.000623675
9.21625e-08
0.000623673
2.54935e-07
0.000623672
3.5141e-07
0.000623671
4.27735e-07
0.000623671
4.64938e-07
0.000623672
4.90331e-07
0.000623673
4.92896e-07
0.000623676
4.88647e-07
0.000623679
4.71674e-07
0.000623682
4.51444e-07
0.000623686
4.24953e-07
0.000623691
3.97686e-07
0.000623695
3.68115e-07
0.000623699
3.39305e-07
0.000623703
3.10433e-07
0.000623707
2.83127e-07
0.000623711
2.56897e-07
0.000623714
2.32543e-07
0.000623718
2.09739e-07
1.88824e-07
0.000623721
0.000640971
9.2192e-08
0.000640969
2.56063e-07
0.000640969
3.52136e-07
0.000640968
4.28147e-07
0.000640969
4.64425e-07
0.00064097
4.89026e-07
0.000640972
4.90637e-07
0.000640975
4.85665e-07
0.000640979
4.68031e-07
0.000640983
4.47377e-07
0.000640987
4.20581e-07
0.000640992
3.93194e-07
0.000640997
3.63601e-07
0.000641001
3.34885e-07
0.000641005
3.06167e-07
0.000641009
2.79076e-07
0.000641013
2.53086e-07
0.000641017
2.28996e-07
0.00064102
2.06457e-07
1.85811e-07
0.000641023
0.000658746
9.2112e-08
0.000658745
2.56733e-07
0.000658745
3.52315e-07
0.000658745
4.27885e-07
0.000658746
4.63244e-07
0.000658748
4.87051e-07
0.000658751
4.87777e-07
0.000658755
4.82137e-07
0.000658759
4.63925e-07
0.000658763
4.42915e-07
0.000658768
4.15888e-07
0.000658773
3.88438e-07
0.000658778
3.58877e-07
0.000658782
3.30298e-07
0.000658787
3.01769e-07
0.000658791
2.7492e-07
0.000658795
2.49192e-07
0.000658798
2.25382e-07
0.000658802
2.03124e-07
1.82756e-07
0.000658805
0.000677014
9.19183e-08
0.000677014
2.5696e-07
0.000677014
3.51952e-07
0.000677015
4.26971e-07
0.000677017
4.61415e-07
0.00067702
4.84435e-07
0.000677023
4.84341e-07
0.000677027
4.78091e-07
0.000677032
4.59382e-07
0.000677036
4.38083e-07
0.000677041
4.10894e-07
0.000677046
3.83436e-07
0.000677051
3.53958e-07
0.000677056
3.25555e-07
0.000677061
2.9725e-07
0.000677065
2.7067e-07
0.000677069
2.45227e-07
0.000677072
2.21715e-07
0.000677076
1.9975e-07
1.79671e-07
0.000677079
0.000695789
9.16091e-08
0.000695789
2.5675e-07
0.00069579
3.51057e-07
0.000695792
4.25418e-07
0.000695794
4.58961e-07
0.000695797
4.81198e-07
0.000695801
4.80355e-07
0.000695806
4.73548e-07
0.000695811
4.54425e-07
0.000695816
4.32895e-07
0.000695821
4.05615e-07
0.000695826
3.78197e-07
0.000695831
3.48854e-07
0.000695836
3.2066e-07
0.000695841
2.92614e-07
0.000695845
2.66324e-07
0.000695849
2.41187e-07
0.000695853
2.17986e-07
0.000695857
1.96328e-07
1.76547e-07
0.00069586
0.000715084
9.11832e-08
0.000715085
2.56123e-07
0.000715086
3.49641e-07
0.000715089
4.23254e-07
0.000715092
4.55902e-07
0.000715095
4.77376e-07
0.0007151
4.75844e-07
0.000715105
4.68541e-07
0.00071511
4.49074e-07
0.000715116
4.27379e-07
0.000715121
4.00067e-07
0.000715127
3.72742e-07
0.000715132
3.43576e-07
0.000715137
3.15629e-07
0.000715142
2.87871e-07
0.000715146
2.61896e-07
0.00071515
2.37083e-07
0.000715154
2.1421e-07
0.000715158
1.9287e-07
1.73396e-07
0.000715161
0.000734915
9.06393e-08
0.000734916
2.55087e-07
0.000734918
3.47715e-07
0.000734921
4.20499e-07
0.000734924
4.52262e-07
0.000734929
4.72991e-07
0.000734934
4.70834e-07
0.000734939
4.6309e-07
0.000734945
4.43353e-07
0.000734951
4.2155e-07
0.000734956
3.94266e-07
0.000734962
3.67079e-07
0.000734967
3.38134e-07
0.000734973
3.10465e-07
0.000734978
2.83021e-07
0.000734982
2.57381e-07
0.000734986
2.32912e-07
0.00073499
2.10378e-07
0.000734994
1.89369e-07
1.7021e-07
0.000734997
0.000755295
8.99794e-08
0.000755297
2.5366e-07
0.000755299
3.45304e-07
0.000755302
4.17177e-07
0.000755307
4.48072e-07
0.000755312
4.68073e-07
0.000755317
4.65355e-07
0.000755323
4.57225e-07
0.000755329
4.37286e-07
0.000755335
4.15429e-07
0.000755341
3.88231e-07
0.000755347
3.61224e-07
0.000755353
3.3254e-07
0.000755358
3.0518e-07
0.000755363
2.7808e-07
0.000755367
2.52795e-07
0.000755372
2.28686e-07
0.000755376
2.06505e-07
0.000755379
1.85835e-07
1.66999e-07
0.000755382
0.000776241
8.92037e-08
0.000776243
2.51858e-07
0.000776246
3.42418e-07
0.000776249
4.13316e-07
0.000776254
4.43351e-07
0.00077626
4.62652e-07
0.000776266
4.59427e-07
0.000776272
4.5097e-07
0.000776278
4.30889e-07
0.000776285
4.09035e-07
0.000776291
3.81972e-07
0.000776297
3.55188e-07
0.000776303
3.26801e-07
0.000776308
2.99778e-07
0.000776313
2.73043e-07
0.000776318
2.48133e-07
0.000776322
2.24398e-07
0.000776326
2.02581e-07
0.00077633
1.82262e-07
1.63757e-07
0.000776333
0.000797767
8.83123e-08
0.00079777
2.49709e-07
0.000797773
3.39076e-07
0.000797777
4.0895e-07
0.000797783
4.38129e-07
0.000797788
4.56763e-07
0.000797795
4.53081e-07
0.000797801
4.44353e-07
0.000797808
4.24188e-07
0.000797815
4.0239e-07
0.000797821
3.75508e-07
0.000797827
3.48988e-07
0.000797833
3.20932e-07
0.000797839
2.94273e-07
0.000797844
2.67928e-07
0.000797849
2.4341e-07
0.000797853
2.20065e-07
0.000797857
1.98623e-07
0.00079786
1.78662e-07
1.60494e-07
0.000797864
0.000819891
8.73132e-08
0.000819893
2.47209e-07
0.000819897
3.35309e-07
0.000819902
4.04094e-07
0.000819908
4.32438e-07
0.000819914
4.50425e-07
0.000819921
4.46345e-07
0.000819928
4.37394e-07
0.000819935
4.17204e-07
0.000819942
3.95507e-07
0.000819948
3.68852e-07
0.000819955
3.42631e-07
0.000819961
3.14936e-07
0.000819966
2.88667e-07
0.000819971
2.6273e-07
0.000819976
2.3862e-07
0.000819981
2.15677e-07
0.000819985
1.94621e-07
0.000819988
1.75028e-07
1.57204e-07
0.000819992
0.000842628
8.6206e-08
0.000842631
2.44403e-07
0.000842635
3.3113e-07
0.00084264
3.98792e-07
0.000842646
4.26302e-07
0.000842653
4.43681e-07
0.00084266
4.39243e-07
0.000842667
4.30125e-07
0.000842675
4.09955e-07
0.000842682
3.88411e-07
0.000842689
3.6202e-07
0.000842695
3.36136e-07
0.000842701
3.0883e-07
0.000842707
2.82975e-07
0.000842712
2.57466e-07
0.000842717
2.3378e-07
0.000842721
2.11251e-07
0.000842725
1.9059e-07
0.000842729
1.71372e-07
1.53896e-07
0.000842732
0.000865995
8.49976e-08
0.000865998
2.41287e-07
0.000866003
3.26571e-07
0.000866009
3.9306e-07
0.000866015
4.19757e-07
0.000866022
4.36547e-07
0.00086603
4.31805e-07
0.000866037
4.22562e-07
0.000866045
4.02465e-07
0.000866052
3.81111e-07
0.000866059
3.55027e-07
0.000866066
3.29506e-07
0.000866072
3.02618e-07
0.000866078
2.77197e-07
0.000866083
2.52133e-07
0.000866088
2.28884e-07
0.000866093
2.06781e-07
0.000866097
1.86524e-07
0.0008661
1.67687e-07
1.50566e-07
0.000866104
0.000890011
8.36952e-08
0.000890014
2.3789e-07
0.000890019
3.2166e-07
0.000890025
3.86932e-07
0.000890032
4.12834e-07
0.00089004
4.29057e-07
0.000890047
4.2406e-07
0.000890055
4.14731e-07
0.000890063
3.94756e-07
0.00089007
3.73629e-07
0.000890078
3.47889e-07
0.000890084
3.22761e-07
0.000890091
2.96316e-07
0.000890096
2.71348e-07
0.000890102
2.46747e-07
0.000890107
2.23946e-07
0.000890111
2.02279e-07
0.000890115
1.82434e-07
0.000890119
1.63984e-07
1.47223e-07
0.000890122
0.000914692
8.22981e-08
0.000914696
2.34238e-07
0.000914701
3.16407e-07
0.000914708
3.80444e-07
0.000914715
4.0555e-07
0.000914723
4.21244e-07
0.000914731
4.16024e-07
0.000914739
4.06658e-07
0.000914747
3.86841e-07
0.000914754
3.65981e-07
0.000914762
3.40613e-07
0.000914769
3.15906e-07
0.000914775
2.89925e-07
0.000914781
2.65428e-07
0.000914786
2.41303e-07
0.000914791
2.18964e-07
0.000914796
1.97741e-07
0.0009148
1.78315e-07
0.000914804
1.60259e-07
1.43862e-07
0.000914807
0.000940058
8.08184e-08
0.000940062
2.30345e-07
0.000940068
3.10852e-07
0.000940075
3.73618e-07
0.000940082
3.97948e-07
0.00094009
4.13133e-07
0.000940099
4.07734e-07
0.000940107
3.98364e-07
0.000940115
3.78747e-07
0.000940123
3.58184e-07
0.00094013
3.33221e-07
0.000940137
3.08958e-07
0.000940144
2.83462e-07
0.00094015
2.59453e-07
0.000940155
2.35818e-07
0.00094016
2.1395e-07
0.000940165
1.93181e-07
0.000940169
1.74179e-07
0.000940172
1.56522e-07
1.40492e-07
0.000940176
0.000966128
7.92583e-08
0.000966132
2.26227e-07
0.000966138
3.05013e-07
0.000966145
3.66485e-07
0.000966153
3.90049e-07
0.000966161
4.0475e-07
0.00096617
3.99206e-07
0.000966178
3.89869e-07
0.000966186
3.70486e-07
0.000966194
3.50253e-07
0.000966202
3.25719e-07
0.000966209
3.01923e-07
0.000966215
2.7693e-07
0.000966221
2.53422e-07
0.000966227
2.30288e-07
0.000966232
2.089e-07
0.000966236
1.88592e-07
0.000966241
1.70021e-07
0.000966244
1.52767e-07
1.37109e-07
0.000966248
0.00099292
7.76254e-08
0.000992924
2.2192e-07
0.00099293
2.98913e-07
0.000992938
3.59082e-07
0.000992946
3.81881e-07
0.000992955
3.96131e-07
0.000992963
3.90466e-07
0.000992972
3.81202e-07
0.00099298
3.62078e-07
0.000992988
3.42207e-07
0.000992996
3.18124e-07
0.000993003
2.94818e-07
0.00099301
2.70341e-07
0.000993016
2.47352e-07
0.000993021
2.24728e-07
0.000993026
2.0383e-07
0.000993031
1.83988e-07
0.000993035
1.65853e-07
0.000993039
1.49005e-07
1.33721e-07
0.000993042
0.00102046
7.59279e-08
0.00102046
2.17418e-07
0.00102047
2.92588e-07
0.00102047
3.5142e-07
0.00102048
3.73479e-07