/*--------------------------------*- C++ -*----------------------------------*\
| =========                 |                                                 |
| \\      /  F ield         | OpenFOAM: The Open Source CFD Toolbox           |
|  \\    /   O peration     | Version:  2.4.0                                 |
|   \\  /    A nd           | Web:      www.OpenFOAM.org                      |
|    \\/     M anipulation  |                                                 |
\*---------------------------------------------------------------------------*/
FoamFile
{
    version     2.0;
    format      ascii;
    class       volScalarField;
    location    "455";
    object      nut;
}
// * * * * * * * * * * * * * * * * * * * * * * * * * * * * * * * * * * * * * //

dimensions      [0 2 -1 0 0 0 0];

internalField   nonuniform List<scalar> 
6000
(
1.35204e-05
9.80834e-06
5.5618e-06
5.14645e-06
5.25561e-06
5.49358e-06
5.74036e-06
6.01224e-06
6.29354e-06
6.57897e-06
6.86191e-06
7.13891e-06
7.40737e-06
7.6678e-06
7.9221e-06
8.17384e-06
8.42686e-06
8.68478e-06
8.95052e-06
9.22662e-06
9.5157e-06
9.82096e-06
1.01462e-05
1.04954e-05
1.08722e-05
1.12789e-05
1.17175e-05
1.22036e-05
1.27119e-05
1.32247e-05
1.37302e-05
1.42152e-05
1.4666e-05
1.50696e-05
1.54142e-05
1.56904e-05
1.58985e-05
1.6023e-05
1.60622e-05
1.60177e-05
1.58912e-05
1.5688e-05
1.54111e-05
1.507e-05
1.46666e-05
1.42145e-05
1.37205e-05
1.32494e-05
1.29647e-05
1.27313e-05
1.24637e-05
1.22852e-05
1.20264e-05
1.19382e-05
1.16763e-05
1.17339e-05
1.14035e-05
1.16967e-05
1.11713e-05
1.2111e-05
2.16984e-05
1.63837e-05
1.46848e-05
1.58055e-05
2.24401e-05
2.65579e-05
2.99674e-05
3.31894e-05
3.6348e-05
3.94089e-05
4.23048e-05
4.49867e-05
4.73885e-05
4.95077e-05
5.13883e-05
5.31392e-05
5.49074e-05
5.68596e-05
5.91444e-05
6.1875e-05
6.51091e-05
6.88533e-05
7.30594e-05
7.76511e-05
8.25324e-05
8.76083e-05
9.27524e-05
9.77507e-05
0.000102593
0.000107349
0.000112005
0.000116535
0.000120909
0.000125092
0.000129034
0.000132644
0.000135636
0.000137982
0.000139832
0.000141195
0.000142071
0.000142493
0.000142461
0.000142041
0.000141232
0.000140119
0.000138592
0.000134889
0.000127608
0.000120049
0.000112638
0.000105133
9.77784e-05
9.051e-05
8.30134e-05
7.60968e-05
6.75498e-05
6.16404e-05
4.95519e-05
4.74978e-05
2.83902e-05
2.19857e-05
1.99276e-05
2.41165e-05
4.23329e-05
5.6271e-05
6.64442e-05
7.50244e-05
8.29281e-05
9.03433e-05
9.72602e-05
0.000103634
0.000109352
0.000114401
0.00011885
0.000122893
0.000126801
0.00013089
0.000135451
0.000140715
0.000146822
0.000153831
0.000161711
0.000170383
0.000179725
0.000189619
0.00019987
0.0002102
0.000220535
0.000230892
0.000241192
0.000251323
0.000261152
0.00027053
0.000279277
0.00028714
0.000293577
0.000298534
0.000302208
0.000304617
0.00030577
0.000305741
0.000304557
0.00030236
0.000299181
0.000295152
0.000289969
0.000281938
0.000268923
0.000255511
0.00024213
0.000228921
0.000215594
0.000202967
0.000189091
0.000177113
0.000160622
0.000150122
0.000125841
0.000125991
3.19829e-05
2.55932e-05
2.32298e-05
2.86575e-05
5.29032e-05
7.74445e-05
9.65567e-05
0.000112173
0.000126014
0.00013864
0.000150227
0.000160813
0.000170291
0.000178647
0.00018597
0.000192504
0.000198606
0.000204705
0.000211211
0.000218477
0.000226758
0.000236219
0.000246922
0.00025885
0.000271909
0.000285994
0.000300871
0.000316223
0.000331868
0.000347699
0.000363526
0.000379107
0.000394166
0.000408404
0.000421498
0.000433059
0.000442377
0.000449393
0.000454306
0.000457156
0.000457982
0.00045691
0.000454017
0.00044951
0.000443478
0.000436051
0.000426849
0.000414958
0.000397979
0.000380607
0.000363256
0.000346442
0.000329493
0.000313836
0.000296482
0.000281847
0.00026098
0.000247732
0.000217479
0.000218715
3.37102e-05
2.77457e-05
2.52889e-05
3.10464e-05
5.6992e-05
9.02524e-05
0.000118005
0.000141027
0.000161255
0.000179473
0.000196026
0.000211055
0.000224486
0.000236309
0.000246627
0.000255719
0.00026401
0.000272018
0.000280262
0.000289216
0.000299265
0.000310711
0.000323744
0.000338443
0.000354753
0.000372597
0.000391706
0.000411708
0.000432294
0.000453211
0.000474129
0.000494661
0.000514375
0.000532825
0.000549559
0.000564103
0.000575588
0.000584033
0.000589622
0.000592433
0.000592548
0.000590149
0.00058537
0.000578472
0.000569602
0.000558852
0.000545943
0.000530711
0.000510829
0.000490607
0.000470544
0.000451353
0.000432305
0.00041498
0.000396149
0.000380262
0.000357766
0.000342728
0.000310567
0.000311211
3.4566e-05
2.9018e-05
2.65357e-05
3.2054e-05
5.85592e-05
9.73265e-05
0.000132426
0.000162364
0.000188846
0.000212654
0.000234208
0.000253724
0.000271155
0.000286492
0.000299846
0.000311518
0.000321981
0.000331832
0.000341693
0.000352158
0.000363749
0.000376916
0.000391994
0.000409173
0.000428443
0.000449749
0.000472779
0.000497089
0.000522237
0.00054781
0.000573332
0.00059826
0.000622017
0.000644017
0.000663703
0.000680538
0.000693571
0.000702891
0.000708689
0.000711091
0.000710234
0.00070635
0.000699633
0.000690385
0.000678806
0.000664921
0.000648758
0.000630597
0.000608453
0.00058606
0.000564074
0.000543265
0.000523083
0.000504946
0.000485932
0.000469733
0.00044745
0.000431335
0.000399564
0.000398682
3.50092e-05
2.97739e-05
2.72598e-05
3.22067e-05
5.83477e-05
0.000100253
0.000141646
0.000177659
0.000209926
0.00023907
0.000265477
0.000289396
0.000310781
0.000329614
0.000345998
0.000360243
0.000372858
0.000384508
0.000395911
0.00040778
0.00042078
0.000435514
0.000452469
0.000471953
0.000493996
0.000518552
0.000545258
0.000573581
0.000602943
0.000632768
0.000662428
0.000691235
0.00071847
0.000743431
0.000765475
0.000784021
0.000798085
0.00080783
0.000813473
0.00081519
0.000813175
0.00080771
0.000799047
0.000787515
0.000773355
0.000756531
0.000737533
0.000716746
0.000692722
0.000668572
0.000645148
0.000623192
0.000602472
0.000584086
0.000565719
0.000549892
0.000529044
0.000512492
0.000482602
0.000479699
3.52416e-05
3.02249e-05
2.76565e-05
3.1863e-05
5.68461e-05
0.00010027
0.000147008
0.000188263
0.000225706
0.000259789
0.00029079
0.000318942
0.000344178
0.000366446
0.000385827
0.000402625
0.000417371
0.000430788
0.000443684
0.000456892
0.000471216
0.00048742
0.000506144
0.000527819
0.000552518
0.000580176
0.000610366
0.000642454
0.000675722
0.000709439
0.000742825
0.000775053
0.000805282
0.000832709
0.000856625
0.000876417
0.000891105
0.000900926
0.000906134
0.000906961
0.000903656
0.000896545
0.000885935
0.000872174
0.000855531
0.00083596
0.000814426
0.000791244
0.000765554
0.000739887
0.000715301
0.000692474
0.000671564
0.000653289
0.000636089
0.00062115
0.000602555
0.000586163
0.000559118
0.000554056
3.53592e-05
3.04934e-05
2.78536e-05
3.12591e-05
5.43771e-05
9.85864e-05
0.000149275
0.000195219
0.000237235
0.000275803
0.000311076
0.000343244
0.000372188
0.000397806
0.000420138
0.000439465
0.000456324
0.000471486
0.000485844
0.000500345
0.000515937
0.00053354
0.000553959
0.000577743
0.000605022
0.000635672
0.000669197
0.000704844
0.000741757
0.000779053
0.00081581
0.000851074
0.000883895
0.000913387
0.000938789
0.000959465
0.000974463
0.000984093
0.000988657
0.000988441
0.000983746
0.000974941
0.000962378
0.000946421
0.000927352
0.00090522
0.000881338
0.000855932
0.00082868
0.000801619
0.000776004
0.000752446
0.000731515
0.000713567
0.000697837
0.000684181
0.00066839
0.000652712
0.000629142
0.000622021
3.54118e-05
3.06512e-05
2.79321e-05
3.05455e-05
5.13267e-05
9.57113e-05
0.00014856
0.000199231
0.00024534
0.000287948
0.000327151
0.000363093
0.000395583
0.00042445
0.000449679
0.000471512
0.000490473
0.000507371
0.000523172
0.000538937
0.000555751
0.000574697
0.000596744
0.000622571
0.000652371
0.000685933
0.000722676
0.000761714
0.000802052
0.000842663
0.000882493
0.000920473
0.00095556
0.000986798
0.00101339
0.00103467
0.00104974
0.00105898
0.00106274
0.00106136
0.0010552
0.00104466
0.00103013
0.00101199
0.000990516
0.000966013
0.00093988
0.000912372
0.000883593
0.000855181
0.00082857
0.000804323
0.000783416
0.000765899
0.000751793
0.000739716
0.000727101
0.000712651
0.00069297
0.000684043
3.54266e-05
3.07411e-05
2.79429e-05
2.98143e-05
4.80283e-05
9.16165e-05
0.000146111
0.000200697
0.00025063
0.000296896
0.000339696
0.000379161
0.000415024
0.000447034
0.000475105
0.000499422
0.000520485
0.00053912
0.000556361
0.00057337
0.000591367
0.0006116
0.00063521
0.000663016
0.000695282
0.000731691
0.000771561
0.000813855
0.000857437
0.000901143
0.000943799
0.000984234
0.00102133
0.00105406
0.0010816
0.00110328
0.00111824
0.00112694
0.00112978
0.00112715
0.00111946
0.00110714
0.00109062
0.00107029
0.00104646
0.0010197
0.000991387
0.000961862
0.000931549
0.000901777
0.000874142
0.000849178
0.000828252
0.000811183
0.000798742
0.00078846
0.000779271
0.000766521
0.000751008
0.000740616
3.54193e-05
3.07888e-05
2.79171e-05
2.91183e-05
4.47323e-05
8.64897e-05
0.00014251
0.000199679
0.000253505
0.000303157
0.000349256
0.000392002
0.000431066
0.00046611
0.000496965
0.000523751
0.000546921
0.000567309
0.000585998
0.000604243
0.000623392
0.000644855
0.000669955
0.000699664
0.000734332
0.000773538
0.000816461
0.000861902
0.00090858
0.0009552
0.00100048
0.00104316
0.00108204
0.00111608
0.0011444
0.00116631
0.00118102
0.00118906
0.00119089
0.00118694
0.00117766
0.00116353
0.001145
0.00112244
0.00109634
0.0010674
0.00103695
0.00100547
0.000973591
0.000942423
0.000913693
0.000887937
0.000866887
0.000850216
0.000839402
0.000831059
0.000825462
0.000814841
0.000803694
0.000792228
3.53993e-05
3.08102e-05
2.78734e-05
2.84848e-05
4.16078e-05
8.06374e-05
0.000137729
0.000196869
0.000254174
0.000307095
0.000356256
0.000402063
0.000444158
0.000482126
0.000515712
0.000544954
0.000570247
0.000592413
0.00061257
0.000632054
0.000652329
0.000674965
0.000701471
0.000732996
0.000769992
0.000811939
0.000857854
0.000906356
0.00095601
0.0010054
0.00105313
0.00109788
0.0011384
0.00117358
0.00120254
0.00122456
0.00123891
0.00124621
0.00124695
0.00124162
0.00123071
0.00121473
0.00119416
0.00116938
0.0011411
0.00111
0.00107746
0.00104406
0.00101058
0.000977964
0.000948048
0.000921395
0.000900076
0.000883702
0.000874411
0.000868093
0.00086619
0.000858092
0.000851457
0.000839333
3.5372e-05
3.08152e-05
2.78231e-05
2.79252e-05
3.87557e-05
7.43946e-05
0.000131702
0.000192917
0.000252648
0.000308939
0.000361011
0.000409692
0.000454662
0.000495447
0.000531707
0.000563397
0.000590833
0.000614814
0.000636473
0.00065721
0.000678593
0.000702345
0.000730165
0.0007634
0.000802631
0.00084726
0.000896112
0.000947605
0.00100014
0.00105217
0.00110223
0.00114891
0.00119092
0.00122712
0.00125662
0.00127864
0.00129256
0.00129904
0.00129864
0.00129188
0.00127931
0.00126144
0.0012388
0.00121185
0.00118144
0.00114822
0.00111363
0.00107834
0.00104323
0.00100911
0.000977904
0.000950235
0.000928475
0.000912257
0.000904337
0.000900074
0.000901923
0.000896703
0.0008947
0.000882342
3.53409e-05
3.08104e-05
2.77725e-05
2.74415e-05
3.62248e-05
6.80719e-05
0.000124528
0.000187826
0.000249496
0.000308793
0.000363738
0.000415154
0.000462859
0.00050636
0.00054524
0.000579369
0.000608973
0.000634813
0.000658017
0.000680034
0.000702516
0.00072733
0.000756368
0.000791192
0.000832546
0.00087978
0.000931514
0.000985941
0.00104128
0.00109587
0.00114814
0.00119664
0.00124003
0.00127715
0.0013071
0.00132905
0.00134247
0.00134807
0.00134648
0.00133826
0.00132398
0.00130421
0.00127949
0.00125045
0.00121794
0.00118264
0.00114604
0.0011089
0.00107212
0.00103643
0.00100385
0.000975039
0.000952655
0.000936421
0.000929684
0.000927457
0.000933072
0.000931053
0.000933791
0.000921621
3.53083e-05
3.07998e-05
2.77252e-05
2.70298e-05
3.4027e-05
6.19271e-05
0.000116427
0.000181472
0.000245255
0.000306685
0.00036456
0.000418638
0.000468966
0.000515088
0.000556535
0.000593094
0.000624894
0.00065264
0.000677442
0.000700777
0.00072436
0.000750191
0.000780347
0.000816625
0.000859967
0.000909712
0.000964266
0.00102157
0.00107966
0.00113672
0.00119111
0.00124133
0.00128602
0.00132399
0.00135431
0.00137612
0.00138899
0.00139368
0.00139086
0.00138114
0.00136514
0.00134344
0.00131671
0.00128563
0.00125105
0.00121372
0.00117516
0.00113619
0.00109772
0.00106044
0.00102638
0.000996307
0.000973112
0.000956671
0.000950897
0.000950641
0.000960005
0.000961476
0.000969058
0.000957493
3.52754e-05
3.07861e-05
2.7683e-05
2.66839e-05
3.21504e-05
5.61543e-05
0.000107684
0.00017381
0.000239865
0.000303214
0.000363513
0.000420265
0.000473141
0.000521803
0.000565765
0.000604742
0.000638763
0.000668468
0.000694927
0.000719628
0.000744328
0.00077114
0.000802318
0.000839905
0.000885077
0.000937214
0.000994515
0.00105466
0.00111544
0.00117491
0.00123135
0.00128322
0.00132912
0.00136787
0.00139851
0.00142013
0.0014324
0.00143615
0.00143207
0.00142084
0.0014031
0.0013795
0.00135082
0.00131773
0.00128113
0.00124183
0.00120137
0.00116059
0.00112043
0.00108152
0.00104592
0.00101447
0.000990279
0.00097343
0.000968375
0.000969981
0.000983042
0.00098826
0.00100079
0.00099024
3.52433e-05
3.07711e-05
2.76466e-05
2.63963e-05
3.05692e-05
5.08826e-05
9.86147e-05
0.0001649
0.000233229
0.000298601
0.000360892
0.000420091
0.000475488
0.000526629
0.000573056
0.000614441
0.000650706
0.000682421
0.0007106
0.000736725
0.00076257
0.000790341
0.000822451
0.000861198
0.000908024
0.000962408
0.00102236
0.00108528
0.00114871
0.00121055
0.00126899
0.00132244
0.0013695
0.00140896
0.00143988
0.00146125
0.0014729
0.00147568
0.00147033
0.00145757
0.0014381
0.00141268
0.00138208
0.00134703
0.00130847
0.00126726
0.00122495
0.00118242
0.00114057
0.00110001
0.00106282
0.00102989
0.00100453
0.000987069
0.000982475
0.000985795
0.00100247
0.00101166
0.00102924
0.00102011
3.52122e-05
3.07558e-05
2.76162e-05
2.61594e-05
2.92507e-05
4.61827e-05
8.95261e-05
0.000154897
0.00022526
0.000292814
0.000357042
0.000418261
0.000476065
0.000529649
0.000578502
0.00062228
0.00066081
0.000694584
0.000724547
0.000752161
0.000779191
0.000807913
0.000840882
0.000880638
0.000928926
0.000985381
0.00104788
0.00111351
0.00117955
0.00124371
0.0013041
0.00135908
0.00140724
0.00144737
0.00147853
0.00149962
0.00151063
0.00151242
0.00150579
0.00149151
0.00147038
0.00144317
0.00141071
0.00137375
0.00133331
0.00129026
0.00124617
0.00120192
0.0011584
0.00111619
0.00107736
0.00104288
0.00101621
0.000997922
0.000993516
0.000998366
0.00101853
0.00103188
0.00105463
0.0010473
3.51827e-05
3.0741e-05
2.75914e-05
2.59661e-05
2.81607e-05
4.20771e-05
8.06923e-05
0.000144035
0.000215928
0.000285779
0.00035199
0.000415117
0.000474971
0.000530912
0.000582163
0.000628322
0.00066913
0.00070501
0.000736822
0.000765994
0.000794261
0.000823943
0.000857711
0.000898336
0.000947882
0.0010062
0.0010711
0.00113936
0.00120797
0.00127442
0.00133672
0.00139319
0.00144242
0.00148318
0.00151453
0.00153532
0.00154568
0.00154647
0.00153858
0.00152284
0.00150008
0.00147113
0.00143686
0.00139808
0.00135582
0.00131101
0.0012652
0.00121929
0.00117413
0.00113029
0.00108981
0.00105371
0.00102559
0.00100629
0.00100179
0.00100795
0.00103145
0.00104911
0.00107715
0.001072
3.51549e-05
3.07272e-05
2.75719e-05
2.58098e-05
2.72659e-05
3.85522e-05
7.23387e-05
0.000132598
0.000205274
0.000277412
0.000345715
0.000410711
0.000472491
0.000530527
0.000584071
0.000632602
0.000675701
0.000713727
0.000747449
0.000778253
0.000807818
0.000838484
0.000873013
0.000914377
0.000964974
0.00102493
0.00109205
0.00116284
0.00123396
0.00130267
0.00136686
0.00142479
0.00147504
0.0015164
0.00154792
0.00156839
0.00157809
0.00157793
0.00156882
0.00155165
0.00152731
0.00149669
0.00146068
0.00142014
0.00137614
0.00132967
0.00128222
0.0012347
0.00118795
0.0011425
0.00110037
0.00106261
0.00103293
0.00101242
0.00100756
0.00101478
0.00104142
0.0010635
0.00109694
0.00109436
3.51288e-05
3.07145e-05
2.75573e-05
2.56846e-05
2.65357e-05
3.55694e-05
6.4633e-05
0.000120896
0.000193416
0.000267647
0.000338161
0.000405055
0.000468681
0.000528689
0.000584373
0.000635138
0.000680536
0.000720744
0.000756434
0.000788944
0.000819875
0.000851566
0.000886837
0.00092883
0.000980275
0.00104162
0.00111076
0.00118393
0.00125749
0.00132844
0.00139449
0.00145385
0.0015051
0.00154704
0.00157869
0.00159886
0.00160794
0.00160685
0.00159656
0.00157802
0.00155217
0.00151993
0.00148225
0.00144005
0.00139441
0.00134634
0.00129733
0.00124828
0.00119998
0.00115298
0.00110921
0.00106978
0.00103845
0.00101657
0.00101106
0.00101906
0.00104861
0.00107519
0.00111415
0.00111449
3.51044e-05
3.07032e-05
2.75469e-05
2.55857e-05
2.59431e-05
3.30759e-05
5.76834e-05
0.000109241
0.000180548
0.000256462
0.000329253
0.000398126
0.000463567
0.000525452
0.000583164
0.000636075
0.000683685
0.000726055
0.000763764
0.000798052
0.000830423
0.000863194
0.000899211
0.000941747
0.000993847
0.00105631
0.00112723
0.00120262
0.00127854
0.00135167
0.00141956
0.00148035
0.00153259
0.00157509
0.00160686
0.00162677
0.00163525
0.00163328
0.00162186
0.00160201
0.00157471
0.00154093
0.00150168
0.00145789
0.0014107
0.00136114
0.00131064
0.00126013
0.00121035
0.00116184
0.00111648
0.00107537
0.00104233
0.00101893
0.00101251
0.001021
0.00105319
0.00108429
0.00112886
0.0011325
3.50817e-05
3.06932e-05
2.75403e-05
2.55086e-05
2.54646e-05
3.10124e-05
5.15424e-05
9.79191e-05
0.000166921
0.000243896
0.000318922
0.000389874
0.000457148
0.000520845
0.000580487
0.000635456
0.000685215
0.000729725
0.000769466
0.000805552
0.000839438
0.000873356
0.000910143
0.000953164
0.00100574
0.00106907
0.00114145
0.00121887
0.00129704
0.00137232
0.00144204
0.00150426
0.00155749
0.00160056
0.00163245
0.00165211
0.00166005
0.00165724
0.00164476
0.00162365
0.00159498
0.00155975
0.00151902
0.00147375
0.0014251
0.00137412
0.00132224
0.00127033
0.00121914
0.00116919
0.00112228
0.00107953
0.00104473
0.00101969
0.00101211
0.00102078
0.00105528
0.00109089
0.00114117
0.00114848
3.50607e-05
3.06845e-05
2.7537e-05
2.54498e-05
2.50803e-05
2.9319e-05
4.62149e-05
8.71816e-05
0.000152829
0.000230052
0.000307121
0.000380233
0.000449397
0.000514878
0.000576371
0.000633311
0.00068515
0.000731763
0.000773535
0.000811456
0.000846913
0.000882038
0.000919627
0.000963088
0.00101598
0.00107989
0.00115345
0.00123268
0.00131296
0.00139034
0.00146189
0.00152553
0.00157976
0.00162341
0.00165543
0.00167489
0.00168232
0.00167875
0.00166526
0.00164299
0.00161303
0.00157644
0.00153431
0.00148766
0.00143765
0.00138536
0.00133217
0.00127895
0.00122643
0.0011751
0.00112671
0.00108235
0.00104579
0.00101902
0.00101004
0.00101855
0.00105503
0.00109507
0.00115114
0.00116246
3.50413e-05
3.06772e-05
2.75366e-05
2.54061e-05
2.47733e-05
2.79391e-05
4.16678e-05
7.7226e-05
0.00013859
0.000215099
0.000293843
0.000369137
0.000440268
0.00050754
0.000570829
0.000629662
0.000683506
0.000732175
0.000775963
0.000815741
0.000852815
0.000889205
0.000927637
0.000971516
0.00102459
0.00108883
0.00116326
0.00124402
0.00132627
0.00140568
0.00147904
0.00154412
0.00159936
0.00164361
0.00167578
0.00169508
0.00170208
0.0016978
0.00168339
0.00166004
0.00162888
0.00159103
0.0015476
0.00149966
0.0014484
0.00139489
0.00134048
0.00128604
0.00123227
0.00117965
0.00112985
0.00108394
0.00104563
0.00101704
0.00100645
0.00101449
0.00105256
0.00109689
0.0011588
0.0011745
3.50234e-05
3.06711e-05
2.75388e-05
2.53749e-05
2.45298e-05
2.68215e-05
3.78423e-05
6.81919e-05
0.000124523
0.000199268
0.000279132
0.000356531
0.000429701
0.000498802
0.000563858
0.000624519
0.000680296
0.000730964
0.00077674
0.000818382
0.000857107
0.000894815
0.000934136
0.000978432
0.00103158
0.00109591
0.00117089
0.00125292
0.00133694
0.00141829
0.00149343
0.00155996
0.00161625
0.00166111
0.00169348
0.00171267
0.00171929
0.00171438
0.00169915
0.0016748
0.00164254
0.00160353
0.00155892
0.0015098
0.00145738
0.00140275
0.00134721
0.00129164
0.00123671
0.00118288
0.00113175
0.00108435
0.00104432
0.00101389
0.00100151
0.00100873
0.00104797
0.00109641
0.00116419
0.00118461
3.5007e-05
3.06662e-05
2.7543e-05
2.53541e-05
2.43381e-05
2.59209e-05
3.46633e-05
6.0159e-05
0.000110931
0.00018284
0.00026309
0.000342386
0.000417633
0.000488617
0.000555439
0.000617879
0.000675522
0.000728129
0.000775852
0.000819352
0.000859749
0.000898822
0.00093908
0.00098381
0.00103695
0.00110117
0.0011764
0.00125937
0.00134495
0.00142812
0.00150501
0.001573
0.00163035
0.00167587
0.00170847
0.00172762
0.00173395
0.0017285
0.00171252
0.00168728
0.00165403
0.00161396
0.00156827
0.00151808
0.00146461
0.00140896
0.00135239
0.00129577
0.00123976
0.00118481
0.00113245
0.00108365
0.00104196
0.00100965
0.000995331
0.00100142
0.00104138
0.00109368
0.00116731
0.00119281
3.49919e-05
3.06624e-05
2.75491e-05
2.53418e-05
2.41886e-05
2.51989e-05
3.20495e-05
5.31512e-05
9.80803e-05
0.000166132
0.000245882
0.000326712
0.000404009
0.000476931
0.000545539
0.000609731
0.000669181
0.000723665
0.000773288
0.000818625
0.000860703
0.000901175
0.000942421
0.000987613
0.0010407
0.00110463
0.00117981
0.00126339
0.00135026
0.0014351
0.00151369
0.00158315
0.0016416
0.00168781
0.00172071
0.0017399
0.00174601
0.00174012
0.00172351
0.00169748
0.00166335
0.00162233
0.00157568
0.00152453
0.00147011
0.00141352
0.00135602
0.00129844
0.00124146
0.00118549
0.00113198
0.00108188
0.00103859
0.00100442
0.000988035
0.000992689
0.0010329
0.00108875
0.00116818
0.00119909
3.4978e-05
3.06596e-05
2.75568e-05
2.53365e-05
2.40736e-05
2.46227e-05
2.99196e-05
4.71443e-05
8.61874e-05
0.000149478
0.000227731
0.000309565
0.000388792
0.000463686
0.000534116
0.00060005
0.000661263
0.000717564
0.000769034
0.000816176
0.00085993
0.000901828
0.000944107
0.0009898
0.0010428
0.0011063
0.00118116
0.001265
0.00135288
0.00143922
0.00151943
0.00159034
0.00164993
0.00169688
0.00173015
0.00174947
0.00175546
0.00174923
0.00173209
0.00170539
0.00167049
0.00162865
0.00158114
0.00152914
0.00147387
0.00141647
0.00135812
0.00129969
0.00124181
0.00118492
0.00113037
0.00107906
0.00103426
0.000998265
0.000979721
0.000982655
0.00102263
0.00108165
0.00116678
0.00120344
3.49653e-05
3.06577e-05
2.75658e-05
2.5337e-05
2.39866e-05
2.41651e-05
2.81969e-05
4.20771e-05
7.54094e-05
0.000133215
0.000208914
0.00029106
0.000371973
0.00044883
0.000521118
0.000588803
0.000651747
0.000709813
0.000763076
0.000811983
0.000857397
0.000900732
0.000944082
0.000990322
0.00104324
0.0011062
0.0011805
0.00126426
0.00135282
0.00144043
0.00152216
0.00159451
0.00165526
0.001703
0.00173673
0.00175627
0.00176225
0.00175578
0.00173823
0.00171099
0.00167544
0.00163289
0.00158465
0.00153191
0.00147591
0.00141778
0.0013587
0.00129949
0.00124082
0.0011831
0.00112762
0.00107521
0.00102899
0.000991234
0.000970478
0.000971435
0.00101068
0.00107244
0.00116311
0.00120582
3.49537e-05
3.06566e-05
2.75759e-05
2.53422e-05
2.39223e-05
2.38037e-05
2.68126e-05
3.78632e-05
6.5839e-05
0.000117659
0.000189753
0.000271368
0.000353584
0.000432323
0.000506492
0.000575946
0.000640606
0.000700393
0.000755395
0.000806022
0.000853069
0.000897843
0.000942296
0.00098913
0.00104198
0.00110433
0.00117785
0.00126121
0.00135009
0.00143873
0.00152184
0.00159559
0.00165753
0.00170611
0.00174041
0.00176026
0.00176634
0.00175976
0.00174193
0.00171426
0.00167819
0.00163506
0.0015862
0.00153284
0.00147622
0.00141746
0.00135774
0.00129787
0.0012385
0.00118005
0.00112374
0.00107034
0.00102282
0.00098337
0.00096038
0.000959137
0.000997157
0.00106117
0.00115715
0.00120619
3.4943e-05
3.06562e-05
2.75868e-05
2.53512e-05
2.38765e-05
2.35201e-05
2.57065e-05
3.44024e-05
5.75062e-05
0.000103085
0.000170599
0.000250721
0.000333704
0.000414149
0.000490189
0.000561433
0.000627805
0.000689282
0.000745974
0.000798272
0.000846917
0.000893121
0.000938697
0.000986172
0.00103899
0.00110068
0.00117325
0.00125589
0.00134475
0.00143411
0.00151843
0.00159352
0.00165665
0.00170615
0.0017411
0.00176139
0.00176768
0.00176112
0.00174313
0.00171518
0.00167872
0.00163514
0.00158579
0.00153192
0.00147479
0.00141551
0.00135524
0.0012948
0.00123484
0.00117577
0.00111873
0.00106446
0.00101575
0.000974703
0.000949489
0.000945859
0.000982171
0.00104789
0.00114889
0.00120453
3.49333e-05
3.06565e-05
2.75986e-05
2.53633e-05
2.38456e-05
2.32993e-05
2.4827e-05
3.15904e-05
5.03845e-05
8.97169e-05
0.000151812
0.000229405
0.000312465
0.000394327
0.000472173
0.000545215
0.000613305
0.000676449
0.00073479
0.00078871
0.000838914
0.000886528
0.000933237
0.000981396
0.00103423
0.00109524
0.00116672
0.00124838
0.00133684
0.00142661
0.00151193
0.00158826
0.00165257
0.00170306
0.00173877
0.0017596
0.00176623
0.00175983
0.00174182
0.00171371
0.001677
0.0016331
0.00158339
0.00152914
0.0014716
0.00141192
0.00135121
0.00129029
0.00122983
0.00117023
0.00111258
0.00105756
0.00100778
0.000965253
0.000937857
0.000931694
0.000965833
0.00103267
0.00113831
0.00120078
3.49245e-05
3.06574e-05
2.76109e-05
2.53779e-05
2.38268e-05
2.31289e-05
2.41312e-05
2.93263e-05
4.4402e-05
7.77113e-05
0.000133748
0.000207756
0.000290061
0.000372913
0.000452425
0.000527249
0.00059706
0.00066186
0.000721816
0.000777314
0.000829032
0.000878029
0.000925872
0.000974752
0.00102764
0.00108799
0.00115829
0.00123873
0.00132645
0.00141627
0.00150233
0.00157977
0.00164526
0.00169679
0.00173334
0.00175484
0.00176195
0.00175583
0.00173796
0.00170984
0.00167301
0.00162893
0.00157899
0.00152447
0.00146665
0.00140666
0.00134561
0.00128433
0.00122347
0.00116345
0.00110529
0.00104963
0.000998918
0.00095503
0.000925523
0.000916724
0.000948259
0.00101557
0.0011254
0.0011949
3.49164e-05
3.06588e-05
2.76237e-05
2.53945e-05
2.38176e-05
2.29992e-05
2.35833e-05
2.75173e-05
3.94545e-05
6.71526e-05
0.000116733
0.000186146
0.000266744
0.000350017
0.000430958
0.0005075
0.000579028
0.000645477
0.000707022
0.000764058
0.000817246
0.000867593
0.000916562
0.000966191
0.00101919
0.00107892
0.00114798
0.00122699
0.00131366
0.00140316
0.00148968
0.00156807
0.00163468
0.00168728
0.00172478
0.00174706
0.00175478
0.0017491
0.0017315
0.00170352
0.00166673
0.0016226
0.00157255
0.0015179
0.00145991
0.00139973
0.00133845
0.0012769
0.00121574
0.0011554
0.00109684
0.00104066
0.000989149
0.000944037
0.000912516
0.000901025
0.000929562
0.00099669
0.00111018
0.00118683
3.49091e-05
3.06606e-05
2.76369e-05
2.54125e-05
2.38164e-05
2.2902e-05
2.31541e-05
2.60814e-05
3.54193e-05
5.80542e-05
0.000101041
0.000164967
0.000242826
0.000325804
0.00040782
0.000485956
0.000559172
0.000627261
0.000690376
0.000748915
0.000803531
0.000855191
0.000905269
0.000955666
0.00100883
0.00106798
0.00113578
0.00121321
0.00129854
0.00138738
0.00147403
0.00155317
0.00162082
0.00167452
0.00171304
0.00173622
0.00174468
0.00173958
0.0017224
0.00169472
0.00165811
0.00161408
0.00156407
0.00150941
0.00145137
0.00139111
0.0013297
0.00126799
0.00120664
0.00114607
0.00108723
0.00103065
0.000978464
0.000932273
0.000898857
0.000884662
0.000909858
0.000976119
0.00109264
0.00117652
3.49024e-05
3.06628e-05
2.76502e-05
2.54318e-05
2.38213e-05
2.28311e-05
2.28198e-05
2.4948e-05
3.21676e-05
5.03661e-05
8.68825e-05
0.00014461
0.00021867
0.0003005
0.000383106
0.000462626
0.000537464
0.000607175
0.000671844
0.000731857
0.000787862
0.000840796
0.00089196
0.000943133
0.000996519
0.00105515
0.00112169
0.00119744
0.00128118
0.00136902
0.00145548
0.00153513
0.00160371
0.00165848
0.00169809
0.00172227
0.0017316
0.00172724
0.00171064
0.00168341
0.00164713
0.00160335
0.00155351
0.00149897
0.00144101
0.00138077
0.00131935
0.00125758
0.00119614
0.00113546
0.00107643
0.00101957
0.000966847
0.000919727
0.000884559
0.000867691
0.00088926
0.000953969
0.00107282
0.00116393
3.48963e-05
3.06654e-05
2.76638e-05
2.54519e-05
2.38313e-05
2.2781e-05
2.25614e-05
2.40581e-05
2.95737e-05
4.39873e-05
7.43859e-05
0.000125443
0.000194681
0.000274395
0.000356963
0.000437557
0.000513894
0.000585187
0.000651391
0.000712854
0.000770214
0.000824383
0.000876605
0.000928549
0.000982205
0.00104038
0.00110572
0.00117972
0.00126166
0.00134818
0.00143412
0.00151401
0.00158336
0.00163918
0.00167991
0.00170519
0.00171553
0.00171203
0.00169617
0.00166954
0.00163376
0.00159037
0.00154085
0.00148656
0.0014288
0.00136871
0.00130739
0.00124566
0.00118423
0.00112354
0.00106443
0.00100741
0.000954284
0.000906389
0.000869627
0.000850161
0.000867878
0.000930363
0.00105075
0.00114903
3.48908e-05
3.06682e-05
2.76774e-05
2.54727e-05
2.38452e-05
2.27477e-05
2.23633e-05
2.33626e-05
2.75224e-05
3.8782e-05
6.35972e-05
0.000107784
0.000171289
0.00024784
0.000329603
0.00041084
0.00048848
0.00056128
0.000628987
0.000691876
0.000750558
0.000805928
0.000859176
0.000911873
0.00096585
0.00102365
0.00108784
0.00116008
0.00124006
0.00132498
0.00141006
0.0014899
0.00155984
0.00161663
0.0016585
0.00168496
0.00169641
0.00169394
0.00167897
0.0016531
0.00161796
0.00157511
0.00152606
0.00147216
0.00141472
0.00135491
0.00129379
0.00123222
0.0011709
0.0011103
0.00105122
0.00099415
0.000940754
0.000892241
0.000854056
0.000832106
0.000845819
0.000905432
0.0010265
0.00113177
3.48858e-05
3.06712e-05
2.7691e-05
2.54938e-05
2.38622e-05
2.27277e-05
2.22132e-05
2.28217e-05
2.59117e-05
3.45964e-05
5.44816e-05
9.18824e-05
0.000148926
0.000221244
0.0003013
0.000382615
0.000461269
0.00053545
0.000604609
0.000668895
0.000728871
0.000785405
0.000839648
0.00089308
0.000947417
0.00100492
0.00106803
0.00113852
0.00121644
0.00129953
0.00138343
0.00146292
0.00153323
0.00159088
0.00163388
0.00166157
0.00167425
0.00167293
0.001659
0.00163405
0.00159971
0.00155756
0.00150911
0.00145574
0.00139876
0.00133933
0.00127853
0.00121723
0.00115613
0.00109572
0.00103678
0.000979775
0.000926239
0.000877265
0.00083784
0.000813556
0.000823182
0.000879322
0.00100015
0.00111214
3.48813e-05
3.06744e-05
2.77046e-05
2.55152e-05
2.38816e-05
2.27184e-05
2.21012e-05
2.24034e-05
2.46546e-05
3.12728e-05
4.69364e-05
7.78953e-05
0.000127998
0.00019506
0.0002724
0.000353086
0.000432355
0.000507723
0.000578249
0.000643891
0.000705129
0.000762794
0.000818
0.000872151
0.000926869
0.000984132
0.00104627
0.00111506
0.00119087
0.00127193
0.00135436
0.0014332
0.00150364
0.00156201
0.0016061
0.00163505
0.00164904
0.00164899
0.00163624
0.00161236
0.00157898
0.00153768
0.00148998
0.00143728
0.00138088
0.00132196
0.00126161
0.00120068
0.00113991
0.00107979
0.0010211
0.000964265
0.000910718
0.00086144
0.000820965
0.000794528
0.000800057
0.000852183
0.000971801
0.00109014
3.48772e-05
3.06778e-05
2.7718e-05
2.55367e-05
2.39028e-05
2.27175e-05
2.20194e-05
2.20817e-05
2.36788e-05
2.86616e-05
4.08084e-05
6.58826e-05