/*--------------------------------*- C++ -*----------------------------------*\
| =========                 |                                                 |
| \\      /  F ield         | OpenFOAM: The Open Source CFD Toolbox           |
|  \\    /   O peration     | Version:  2.4.0                                 |
|   \\  /    A nd           | Web:      www.OpenFOAM.org                      |
|    \\/     M anipulation  |                                                 |
\*---------------------------------------------------------------------------*/
FoamFile
{
    version     2.0;
    format      ascii;
    class       volScalarField;
    location    "0.22";
    object      p;
}
// * * * * * * * * * * * * * * * * * * * * * * * * * * * * * * * * * * * * * //

dimensions      [0 2 -2 0 0 0 0];

internalField   nonuniform List<scalar> 
2320
(
6.50605
6.50592
6.50561
6.50509
6.50432
6.50324
6.50173
6.49966
6.49681
6.49292
6.48762
6.4804
6.47057
6.4572
6.43902
6.41432
6.3808
6.33539
6.274
6.19138
6.50609
6.50597
6.50566
6.50515
6.5044
6.50335
6.50188
6.49985
6.49707
6.49327
6.48809
6.48103
6.47141
6.4583
6.44047
6.4162
6.3832
6.33837
6.27761
6.19556
6.50617
6.50605
6.50576
6.50528
6.50457
6.50356
6.50216
6.50023
6.49759
6.49397
6.48902
6.48228
6.47307
6.4605
6.44335
6.41994
6.38797
6.34432
6.28483
6.20396
6.50628
6.50617
6.50591
6.50546
6.5048
6.50387
6.50258
6.5008
6.49834
6.49499
6.4904
6.48412
6.47552
6.46376
6.44763
6.42549
6.39507
6.35322
6.29565
6.21661
6.50643
6.50633
6.5061
6.5057
6.50511
6.50428
6.50312
6.50153
6.49933
6.49631
6.49218
6.48651
6.47872
6.46801
6.45323
6.43279
6.40445
6.36502
6.31009
6.23356
6.50661
6.50653
6.50632
6.50598
6.50548
6.50477
6.50378
6.50241
6.50052
6.49792
6.49434
6.48941
6.48261
6.47318
6.46007
6.44174
6.416
6.37964
6.32812
6.25488
6.50681
6.50675
6.50658
6.50631
6.5059
6.50533
6.50453
6.50342
6.50188
6.49976
6.49682
6.49276
6.4871
6.47918
6.46802
6.4522
6.4296
6.39699
6.3497
6.28065
6.50704
6.50699
6.50687
6.50667
6.50637
6.50595
6.50535
6.50453
6.50339
6.5018
6.49958
6.49648
6.4921
6.48588
6.47697
6.46403
6.44507
6.41691
6.37479
6.31094
6.50728
6.50725
6.50718
6.50705
6.50687
6.50661
6.50624
6.50573
6.505
6.50399
6.50255
6.50049
6.49752
6.49317
6.48672
6.47701
6.46221
6.43919
6.40328
6.34579
6.50753
6.50752
6.50749
6.50745
6.50739
6.5073
6.50716
6.50697
6.50669
6.50628
6.50565
6.5047
6.50322
6.50087
6.49709
6.4909
6.48072
6.46354
6.43495
6.38523
6.50778
6.50779
6.50782
6.50786
6.50791
6.50799
6.5081
6.50824
6.50841
6.50861
6.50882
6.50901
6.50908
6.50881
6.50786
6.50542
6.50028
6.48956
6.46949
6.42916
6.50803
6.50806
6.50813
6.50826
6.50844
6.50869
6.50903
6.50949
6.51011
6.51093
6.51198
6.51332
6.51495
6.51682
6.51877
6.52023
6.52045
6.5167
6.50651
6.4771
6.50827
6.50832
6.50844
6.50864
6.50894
6.50935
6.50993
6.51071
6.51176
6.51318
6.51505
6.51752
6.5207
6.52469
6.52955
6.53494
6.54075
6.54415
6.54558
6.52808
6.5085
6.50857
6.50873
6.509
6.50941
6.50998
6.51077
6.51185
6.51332
6.5153
6.51796
6.5215
6.52617
6.53221
6.53994
6.54916
6.56058
6.57082
6.58578
6.58003
6.5087
6.50879
6.50899
6.50933
6.50984
6.51055
6.51153
6.51289
6.51473
6.51723
6.52061
6.52515
6.53122
6.53919
6.54964
6.56249
6.57938
6.59537
6.62507
6.62644
6.50888
6.50898
6.50922
6.50962
6.51021
6.51105
6.51221
6.5138
6.51597
6.51894
6.52295
6.52838
6.5357
6.54542
6.5584
6.57461
6.59667
6.61696
6.66097
6.65339
6.50903
6.50914
6.50941
6.50986
6.51052
6.51146
6.51276
6.51456
6.51701
6.52036
6.52491
6.53109
6.53947
6.55071
6.56593
6.58524
6.61214
6.63609
6.69256
6.65092
6.50915
6.50927
6.50956
6.51004
6.51077
6.51178
6.5132
6.51515
6.51781
6.52146
6.52643
6.5332
6.54242
6.55488
6.57196
6.59407
6.62551
6.65452
6.72071
6.65418
6.50923
6.50935
6.50966
6.51017
6.51093
6.512
6.51349
6.51555
6.51836
6.52221
6.52747
6.53465
6.54445
6.55777
6.57617
6.60058
6.63618
6.67361
6.74952
6.62184
6.50927
6.50939
6.50971
6.51024
6.51101
6.51211
6.51364
6.51575
6.51864
6.5226
6.528
6.53538
6.54548
6.55925
6.57831
6.60412
6.64215
6.69165
6.78326
6.8204
6.08089
5.93458
5.74349
5.49827
5.19001
4.81059
4.35309
3.81307
6.08548
5.93922
5.74764
5.50132
5.19141
4.80983
4.34955
3.80608
6.0947
5.94855
5.75597
5.50741
5.19416
4.80816
4.3422
3.79172
6.10863
5.96267
5.76854
5.51651
5.1981
4.80536
4.33091
3.77033
6.12741
5.98174
5.7854
5.52848
5.20307
4.80165
4.31657
3.74305
6.15121
6.00598
5.80656
5.54322
5.20948
4.79812
4.29966
3.70746
6.18027
6.03563
5.83203
5.56108
5.21827
4.7944
4.27501
3.65131
6.21491
6.07099
5.86204
5.58279
5.22878
4.78416
4.22808
3.55286
6.25556
6.11239
5.89704
5.60799
5.2352
4.75297
4.13754
3.39101
6.30284
6.16031
5.9371
5.63246
5.22455
4.68142
3.98605
3.16392
6.35737
6.21566
5.98056
5.64542
5.17909
4.55457
3.77551
2.89725
6.41956
6.27981
6.02055
5.6305
5.08377
4.37329
3.53034
2.62942
6.49078
6.35107
6.04152
5.5714
4.93556
4.15724
3.28266
2.38677
6.57716
6.41699
6.02205
5.45915
4.74865
3.93673
3.0563
2.16985
6.69064
6.45725
5.94514
5.29892
4.55095
3.74049
2.86653
1.96786
6.84153
6.46329
5.81136
5.11064
4.37045
3.58246
2.72376
1.7959
7.02775
6.43598
5.63466
4.91733
4.21944
3.45163
2.61683
1.68102
7.21438
6.32974
5.41915
4.73193
4.09235
3.32602
2.50716
1.51715
7.28522
6.05269
5.17571
4.56347
3.98654
3.22184
2.41304
1.05609
7.10221
5.65188
4.96933
4.43507
3.92776
3.21249
2.49035
0.607538
3.19081
2.49335
1.7357
0.941185
0.140531
-0.629644
-1.32917
-1.91831
-2.36347
-2.6425
-2.74778
-2.68604
-2.47631
-2.14731
-1.73354
-1.27111
-0.793867
-0.330489
0.0973388
0.475284
0.795251
1.05318
1.24632
1.36988
1.41244
1.34348
1.09013
0.432889
3.17976
2.47776
1.71532
0.915928
0.110378
-0.664583
-1.36836
-1.96062
-2.40724
-2.68588
-2.78891
-2.72322
-2.50822
-2.17294
-1.75233
-1.28294
-0.799122
-0.33
0.102479
0.483988
0.806671
1.06691
1.26256
1.39006
1.43979
1.39255
1.20109
0.851087
3.15733
2.44647
1.67472
0.865846
0.0506932
-0.733762
-1.44605
-2.04456
-2.49418
-2.7723
-2.87146
-2.79839
-2.573
-2.22508
-1.79056
-1.30699
-0.809793
-0.329025
0.112825
0.501443
0.829472
1.09415
1.29459
1.42924
1.49308
1.47705
1.36623
1.17797
3.12439
2.40065
1.61511
0.791893
-0.0380769
-0.837361
-1.56295
-2.17109
-2.6251
-2.90198
-2.99495
-2.91119
-2.67027
-2.3034
-1.84796
-1.34299
-0.825589
-0.327322
0.128498
0.527584
0.863327
1.13422
1.34111
1.48503
1.56559
1.58222
1.53641
1.45659
3.08128
2.33865
1.53204
0.686514
-0.166703
-0.989252
-1.73548
-2.35827
-2.81851
-3.09244
-3.1742
-3.07295
-2.8085
-2.41389
-1.92827
-1.3928
-0.847004
-0.324559
0.150145
0.56299
0.908496
1.18686
1.40107
1.55494
1.65215
1.69821
1.70418
1.70291
3.02058
2.24712
1.40669
0.526531
-0.361541
-1.2178
-1.99284
-2.63505
-3.10261
-3.37108
-3.43561
-3.30716
-3.00811
-2.57318
-2.04374
-1.46418
-0.877805
-0.321465
0.178958
0.609771
0.967269
1.25407
1.47582
1.63929
1.75183
1.82345
1.87049
1.92598
2.92259
2.10074
1.21222
0.28814
-0.640615
-1.53464
-2.34093
-3.00299
-3.4764
-3.73681
-3.78047
-3.61922
-3.27714
-2.79042
-2.20309
-1.56391
-0.921843
-0.318818
0.216707
0.6714
1.04398
1.34035
1.56962
1.74191
1.86806
1.96137
2.04131
2.13886
2.76225
1.87878
0.940275
-0.0216553
-0.984066
-1.91163
-2.74724
-3.42788
-3.90563
-4.1567
-4.17922
-3.98453
-3.59647
-3.05232
-2.39827
-1.68771
-0.976833
-0.314773
0.265742
0.751054
1.14251
1.45
1.68681
1.86693
2.00459
2.11561
2.22183
2.34995
2.52902
1.58975
0.618733
-0.363168
-1.34981
-2.31059
-3.17978
-3.88336
-4.36769
-4.60927
-4.60906
-4.37874
-3.94244
-3.33788
-2.61217
-1.82299
-1.03462
-0.304847
0.328059
0.849391
1.26299
1.58299
1.82728
2.01401
2.16072
2.28458
2.41029
2.55881
2.24193
1.26928
0.288763
-0.701163
-1.71574
-2.7241
-3.64344
-4.38242
-4.87905
-5.10985
-5.08112
-4.80765
-4.31586
-3.64339
-2.83763
-1.96127
-1.0879
-0.284731
0.404407
0.964081
1.40093
1.73353
1.98445
2.17605
2.32916
2.46463
2.59842
2.7578
1.93763
0.950971
-0.028171
-1.02984
-2.09154
-3.17371
-4.16563
-4.95284
-5.46539
-5.68181
-5.61751
-5.29283
-4.73634
-3.98412
-3.08365
-2.10522
-1.13534
-0.252388
0.494868
1.0921
1.55029
1.89323
2.14837
2.34201
2.4976
2.63622
2.77566
2.93795
1.64611
0.647777
-0.334955
-1.36109
-2.4906
-3.66442
-4.73494
-5.56572
-6.08744
-6.28875
-6.18999
-5.81832
-5.20056
-4.36568
-3.35914
-2.2619
-1.17984
-0.207654
0.600097
1.23245
1.70753
2.05607
2.3111
2.50278
2.65675
2.79457
2.93426
3.09368
1.37416
0.35391
-0.639646
-1.69042
-2.88274
-4.13017
-5.25177
-6.0991
-6.61328
-6.79946
-6.68376
-6.29197
-5.64231
-4.74814
-3.64571
-2.42593
-1.22078
-0.149946
0.721511
1.38644
1.87275
2.22056
2.46973
2.65455
2.80263
2.93586
3.0716
3.22468
1.09392
0.0493325
-0.933106
-1.96482
-3.17551
-4.45599
-5.60236
-6.45222
-6.9538
-7.12439
-7.00116
-6.61165
-5.96504
-5.05286
-3.8902
-2.56898
-1.24698
-0.076193
0.859903
1.55482
2.0469
2.38746
2.62469
2.79758
2.93562
3.06084
3.18956
3.3343
0.75362
-0.282188
-1.17204
-2.09358
-3.28801
-4.60057
-5.78438
-6.648
-7.14581
-7.30297
-7.16777
-6.77742
-6.13969
-5.23097
-4.04177
-2.65409
-1.24018
0.0179162
1.01298
1.73396
2.22721
2.55524
2.77554
2.93226
3.05684
3.17139
3.29112
3.42628
0.365849
-0.590091
-1.28755
-2.03445
-3.24729
-4.61503
-5.84597
-6.72752
-7.22968
-7.38237
-7.23865
-6.84113
-6.20183
-5.2918
-4.08707
-2.66126
-1.18802
0.133001
1.17301
1.91335
2.40412
2.7166
2.91737
3.05563
3.16485
3.26732
3.37701
3.50223
0.0932751
-0.739795
-1.256
-1.86264
-3.13511
-4.53539
-5.80146
-6.70036
-7.21604
-7.37491
-7.23352
-6.83379
-6.18696
-5.26549
-4.04153
-2.59357
-1.09126
0.263199
1.32749
2.07714
2.56224
2.85857
3.04033
3.16063
3.25491
3.34566
3.4457
3.56178
-0.0437175
-0.683742
-1.1617
-1.69363
-2.98635
-4.38754
-5.67144
-6.59455
-7.13011
-7.30376
-7.17071
-6.77355
-6.11812
-5.17812
-3.93774
-2.47582
-0.96782
0.394561
1.46132
2.2088
2.68582
2.96715
3.13308
3.23846
3.32045
3.40166
3.49388
3.60259
-0.723998
-0.54144
-1.11277
-1.57915
-2.81857
-4.19904
-5.49376
-6.45172
-7.01888
-7.21378
-7.0896
-6.68982
-6.02164
-5.06195
-3.80735
-2.34244
-0.841503
0.50446
1.56089
2.29544
2.76436
3.03383
3.18949
3.28491
3.359
3.43425
3.52168
3.62618
-2.39825
-0.406374
-1.12157
-1.52587
-2.69353
-4.0448
-5.34244
-6.3245
-6.91879
-7.13286
-7.01781
-6.61966
-5.9428
-4.97038
-3.70848
-2.24685
-0.758212
0.57012
1.61127
2.33716
2.79861
3.05859
3.20982
3.30045
3.37112
3.44384
3.52914
3.63166
-0.765153
-0.263533
0.563185
1.64841
2.94284
4.13156
5.33375
5.77655
0.317725
0.548428
1.26913
2.24241
3.39561
4.54014
5.7093
6.55707
0.935877
1.12953
1.80304
2.70828
3.74786
4.8274
5.95137
6.90455
1.40043
1.62846
2.23032
3.0518
4.00211
5.01387
6.06519
6.99057
1.75507
2.01163
2.55884
3.31453
4.19096
5.12484
6.08097
6.91163
2.04537
2.32667
2.83612
3.5286
4.32837
5.17429
6.02108
6.73713
2.30225
2.59883
3.07481
3.70393
4.42392
5.1756
5.908
6.51029
2.54085
2.84193
3.28362
3.84814
4.48498
5.13976
5.76084
6.25949
2.76388
3.05893
3.46298
3.96219
4.51613
5.07732
5.59669
6.00555
2.96626
3.24686
3.61104
4.0472
4.52317
4.99891
5.42978
5.76327
3.14172
3.40284
3.72765
4.1061
4.5125
4.91369
5.27034
5.54211
3.2879
3.52771
3.81602
4.14387
4.49046
4.82858
5.12437
5.34658
3.40701
3.62584
3.88167
4.16621
4.46232
4.7478
4.99414
5.17732
3.50393
3.70307
3.93045
4.17817
4.43185
4.67357
4.87981
5.03304
3.58324
3.76435
3.967
4.18354
4.40171
4.60728
4.7812
4.91187
3.64724
3.81246
3.99419
4.18491
4.37405
4.55045
4.69893
4.81312
3.6964
3.84862
4.01374
4.1843
4.35101
4.5051
4.63464
4.73718
3.72931
3.87213
4.02571
4.18245
4.33386
4.47265
4.58933
4.68391
3.74812
3.88541
4.03242
4.18146
4.32456
4.45498
4.56501
4.65338
3.75231
3.88806
4.03295
4.17971
4.32054
4.44903
4.55746
4.64234
7.97543
8.02173
7.41819
6.61524
5.61755
4.16886
3.31224
3.45881
3.55005
3.41291
3.15694
2.88713
2.60029
2.27046
1.89804
1.49604
1.07082
0.604207
0.0540999
-0.819328
8.30749
7.83113
7.02686
6.20948
5.31085
4.15823
3.47453
3.59371
3.61917
3.43342
3.1602
2.88511
2.595
2.26474
1.89385
1.49361
1.06976
0.605743
0.118429
-0.486901
8.16464
7.56458
6.71789
5.99447
5.22116
4.25192
3.60433
3.61851
3.6081
3.41841
3.14908
2.87639
2.59023
2.26141
1.89293
1.49497
1.07429
0.620983
0.186619
-0.326497
7.94698
7.29479
6.41574
5.75072
5.07926
4.25993
3.67698
3.64602
3.6173
3.42694
3.15684
2.88142
2.58879
2.25956
1.89268
1.49707
1.08053
0.640515
0.236667
-0.211043
7.6274
6.98286
6.12904
5.53758
4.97082
4.28483
3.76523
3.69438
3.63273
3.43131
3.15688
2.8763
2.5839
2.25658
1.89214
1.49989
1.08868
0.661828
0.278536
-0.117705
7.27395
6.66993
5.87827
5.35673
4.87795
4.30018
3.83151
3.71919
3.63207
3.427
3.15469
2.87441
2.58218
2.25561
1.89345
1.50472
1.09894
0.683963
0.314677
-0.0460654
6.90543
6.36306
5.65889
5.2028
4.79812
4.31001
3.88686
3.74443
3.63612
3.42813
3.15749
2.87563
2.58098
2.25471
1.89502
1.51016
1.10991
0.705566
0.345437
0.008747
6.54336
6.07775
5.47248
5.07561
4.7308
4.31548
3.932
3.76672
3.6391
3.42745
3.15776
2.87421
2.57806
2.25365
1.89703
1.51637
1.12159
0.726419
0.37173
0.0515519
6.20434
5.82117
5.31494
4.97043
4.67348
4.31712
3.96834
3.78596
3.64123
3.42601
3.15782
2.8739
2.57749
2.25392
1.90026
1.52377
1.13416
0.746629
0.39461
0.0856105
5.90036
5.5966
5.18233
4.88395
4.62523
4.31617
3.99744
3.80267
3.64303
3.42432
3.15768
2.87361
2.5762
2.25391
1.9034
1.53119
1.14649
0.765436
0.413978
0.112697
5.63719
5.40355
5.07048
4.81286
4.58483
4.31342
4.02043
3.81706
3.64441
3.42212
3.15686
2.87292
2.575
2.25432
1.90723
1.53941
1.15927
0.783438
0.430946
0.134722
5.41457
5.23939
4.97595
4.75457
4.55133
4.30958
4.0384
3.82937
3.64523
3.41929
3.15528
2.87189
2.574
2.25492
1.91125
1.54771
1.1718
0.800132
0.445351
0.152494
5.22817
5.10075
4.89625
4.70705
4.52382
4.30515
4.05212
3.83966
3.64524
3.41569
3.15284
2.87034
2.57285
2.25563
1.91548
1.55625
1.1843
0.815905
0.457987
0.16708
5.07259
4.98469
4.82975
4.66877
4.50149
4.30037
4.06213
3.84782
3.64421
3.41122
3.14944
2.86808
2.57138
2.25619
1.91966
1.56463
1.19627
0.830334
0.468615
0.178624
4.94383
4.88919
4.77537
4.63852
4.48359
4.2953
4.06867
3.85342
3.64182
3.40581
3.14512
2.86524
2.56985
2.25709
1.9243
1.57339
1.2083
0.844172
0.478352
0.188151
4.84065
4.81333
4.73229
4.61519
4.46934
4.28983
4.07197
3.8559
3.6375
3.39887
3.13916
2.86086
2.56701
2.2568
1.92775
1.58082
1.21871
0.855849
0.485788
0.194784
4.76419
4.75702
4.69987
4.59772
4.45784
4.28355
4.07279
3.8563
3.63264
3.39194
3.1334
2.85744
2.56611
2.25886
1.93338
1.58999
1.23028
0.867974
0.493583
0.20035
4.7148
4.71977
4.6774
4.585
4.44811
4.27403
4.06563
3.85124
3.62393
3.38125
3.1229
2.84847
2.5596
2.25596
1.93484
1.59555
1.23852
0.876795
0.498636
0.203537
4.69065
4.70024
4.66454
4.5764
4.44069
4.26825
4.06375
3.8463
3.61767
3.37545
3.11905
2.84721
2.56071
2.25935
1.94081
1.60413
1.24842
0.885801
0.502805
0.204854
4.68574
4.69383
4.65834
4.56893
4.42757
4.24966
4.04726
3.83217
3.60023
3.3559
3.1004
2.83187
2.55031
2.25479
1.94188
1.6098
1.25803
0.896089
0.50882
0.206421
-2.25635
-1.13555
-0.957643
-0.584269
-0.435805
-0.364832
-0.303681
-0.281278
-2.09797
-2.08971
-1.8809
-1.56367
-1.20415
-0.939137
-0.748245
-0.692523
-2.15802
-2.48977
-2.66106
-2.44681
-1.99813
-1.60031
-1.30932
-1.21205
-2.48712
-3.07683
-3.31864
-3.14021
-2.70118
-2.21217
-1.84005
-1.71011
-2.99116
-3.69068
-3.88048
-3.72848
-3.32218
-2.79034
-2.36009
-2.20468
-3.52504
-4.20209
-4.35821
-4.2316
-3.85884
-3.31625
-2.84918
-2.67683
-4.01392
-4.61704
-4.7571
-4.65382
-4.3179
-3.78819
-3.30323
-3.12171
-4.44289
-4.96085
-5.08154
-5.00006
-4.70467
-4.20435
-3.71677
-3.53289
-4.81308
-5.24581
-5.34377
-5.28189
-5.02703
-4.56659
-4.08767
-3.90682
-5.12597
-5.48012
-5.55696
-5.51184
-5.29375
-4.87816
-4.41521
-4.24124
-5.38538
-5.67279
-5.73195
-5.70085
-5.51352
-5.14334
-4.70003
-4.53525
-5.59836
-5.83249
-5.8772
-5.85767
-5.69419
-5.36667
-4.94352
-4.78878
-5.77265
-5.96636
-5.99921
-5.98924
-5.84247
-5.55245
-5.14747
-5.00238
-5.91444
-6.08005
-6.10281
-6.1009
-5.96382
-5.70416
-5.3139
-5.17692
-6.02778
-6.17776
-6.19131
-6.1965
-6.06195
-5.82418
-5.44456
-5.31323
-6.11467
-6.2614
-6.2662
-6.27822
-6.13764
-5.91483
-5.53956
-5.41161
-6.17557
-6.32854
-6.32594
-6.34493
-6.18883
-5.98003
-5.59602
-5.47176
-6.21002
-6.37067
-6.36521
-6.38839
-6.21548
-6.02077
-5.61184
-5.4934
-6.2179
-6.37678
-6.37782
-6.39588
-6.22265
-6.02007
-5.59755
-5.47576
-6.19233
-6.35274
-6.35916
-6.37168
-6.20389
-5.98372
-5.54906
-5.41824
-6.1315
-6.30217
-6.3119
-6.31971
-6.15613
-5.91425
-5.4616
-5.32044
-6.03708
-6.22457
-6.23687
-6.23995
-6.07753
-5.81103
-5.33267
-5.18075
-5.90908
-6.11678
-6.13174
-6.13
-5.96636
-5.67221
-5.16038
-4.9972
-5.74595
-5.97493
-5.99378
-5.98733
-5.8208
-5.49557
-4.94285
-4.76773
-5.54678
-5.79609
-5.82117
-5.8104
-5.63943
-5.27882
-4.67807
-4.49027
-5.31227
-5.57872
-5.61333
-5.5991
-5.42161
-5.01973
-4.36404
-4.16298
-5.04467
-5.32277
-5.3658
-5.35463
-5.1679
-4.71613
-3.99888
-3.78453
-4.74772
-5.03092
-5.08993
-5.08073
-4.88009
-4.36571
-3.5808
-3.35417
-4.4265
-4.7068
-4.78544
-4.78165
-4.56104
-3.96591
-3.10797
-2.87141
-4.08738
-4.35657
-4.4588
-4.46223
-4.21401
-3.514
-2.57869
-2.33592
-3.73789
-3.98876
-4.1181
-4.12605
-3.84042
-3.00734
-1.99253
-1.74933
-3.38662
-3.61423
-3.774
-3.77546
-3.43626
-2.44286
-1.35161
-1.11869
-3.04248
-3.24673
-3.4393
-3.41572
-2.989
-1.81597
-0.660074
-0.456074
-2.71482
-2.90135
-3.12243
-3.05815
-2.47775
-1.12222
0.0785211
0.233154
-2.41015
-2.59075
-2.81184
-2.70734
-1.87814
-0.365307
0.859378
0.961448
-2.1429
-2.33015
-2.47379
-2.3323
-1.17025
0.435407
1.66436
1.73134
-1.91449
-2.11001
-2.13772
-1.87179
-0.347758
1.25339
2.45555
2.46267
-1.80048
-1.90504
-1.9299
-1.2613
0.570933
2.07026
3.20623
3.002
-1.63746
-1.71277
-1.53569
-0.359318
1.50956
2.86144
3.94556
3.3916
-1.91613
-1.30336
-0.58274
0.741452
2.33198
3.57138
4.6989
4.17424
6.65709
5.42676
4.86612
4.37207
3.94829
3.336
2.79686
1.48292
5.97316
5.29943
4.83209
4.35535
3.99303
3.47523
3.05727
2.18416
5.48747
5.09109
4.75658
4.32415
4.02066
3.5847
3.25845
2.66667
5.10261
4.88219
4.66543
4.28599
4.03654
3.66788
3.41033
2.9976
4.8149
4.68681
4.56076
4.23803
4.03951
3.72666
3.52355
3.22749
4.59191
4.51626
4.45428
4.18417
4.03206
3.76578
3.60652
3.38923
4.41758
4.37052
4.35174
4.12721
4.01617
3.78911
3.66576
3.50353
4.2785
4.24738
4.25692
4.06991
3.9941
3.80012
3.70642
3.58389
4.16596
4.14347
4.17125
4.01412
3.96785
3.80162
3.73252
3.63942
4.07361
4.0556
4.09495
3.96101
3.93905
3.79588
3.74725
3.67645
3.99704
3.98096
4.02755
3.91114
3.90902
3.78471
3.75311
3.6995
3.9331
3.91724
3.9683
3.8647
3.87869
3.76952
3.75208
3.71188
3.87949
3.8626
3.91647
3.82163
3.84873
3.75137
3.74568
3.71604
3.83437
3.81564
3.8714
3.78176
3.81959
3.73107
3.73514
3.71387
3.79661
3.77527
3.83234
3.74484
3.79166
3.70929
3.72137
3.70677
3.76629
3.74011
3.7989
3.71058
3.76533
3.68657
3.7051
3.69585
3.74388
3.70869
3.77206
3.67848
3.74057
3.66328
3.68689
3.68197
3.72856
3.68085
3.75321
3.64779
3.71691
3.63972
3.66727
3.66585
3.71977
3.65655
3.74095
3.61929
3.69487
3.61617
3.64664
3.64807
3.71761
3.63596
3.7345
3.59198
3.67688
3.59261
3.62499
3.62903
3.72236
3.62143
3.7308
3.5677
3.66349
3.56882
3.60227
3.60911
3.73441
3.6129
3.73105
3.54719
3.65109
3.54631
3.57924
3.58873
3.75456
3.61086
3.73559
3.53278
3.63663
3.5253
3.55644
3.56819
3.78392
3.61583
3.7452
3.52426
3.62201
3.50839
3.53136
3.54752
3.824
3.62855
3.76073
3.52135
3.60816
3.49392
3.50586
3.52674
3.87668
3.64998
3.78325
3.52414
3.5959
3.48121
3.47984
3.50567
3.94445
3.68153
3.8141
3.53319
3.58593
3.46926
3.45327
3.48381
4.03054
3.7252
3.855
3.54951
3.579
3.45734
3.42575
3.46048
4.13853
3.78322
3.90766
3.57444
3.57583
3.44516
3.39664
3.43479
4.27166
3.85716
3.97318
3.6093
3.5771
3.43279
3.36504
3.40594
4.43339
3.94827
4.0522
3.65551
3.58359
3.42013
3.32987
3.37328
4.6314
4.06091
4.14692
3.71563
3.59691
3.40749
3.29035
3.33468
4.88175
4.20623
4.26289
3.79376
3.62
3.39699
3.24695
3.28416
5.20037
4.39512
4.40431
3.89265
3.65543
3.39207
3.2019
3.21435
5.57783
4.61787
4.56357
4.0092
3.70165
3.3926
3.15783
3.12757
5.97883
4.84332
4.723
4.13707
3.75326
3.39098
3.11496
3.04025
6.43508
5.08609
4.88644
4.28128
3.81296
3.38408
3.06946
2.94331
7.16807
5.49042
5.10576
4.4639
3.90473
3.40073
3.01769
2.721
8.40209
6.20395
5.4152
4.68654
4.05045
3.49096
2.9698
2.1969
9.68958
6.95594
5.69124
4.86865
4.19617
3.62342
2.946
1.52318
)
;

boundaryField
{
    wall
    {
        type            zeroGradient;
    }
    inlet1
    {
        type            zeroGradient;
    }
    inlet2
    {
        type            zeroGradient;
    }
    outlet1
    {
        type            fixedValue;
        value           uniform 0;
    }
    outlet2
    {
        type            outletInlet;
        outletValue     uniform 0;
        value           nonuniform List<scalar> 8(-2.25635 0 -0.957643 0 0 0 0 0);
    }
    defaultFaces
    {
        type            empty;
    }
}


// ************************************************************************* //
