/*--------------------------------*- C++ -*----------------------------------*\
| =========                 |                                                 |
| \\      /  F ield         | OpenFOAM: The Open Source CFD Toolbox           |
|  \\    /   O peration     | Version:  2.4.0                                 |
|   \\  /    A nd           | Web:      www.OpenFOAM.org                      |
|    \\/     M anipulation  |                                                 |
\*---------------------------------------------------------------------------*/
FoamFile
{
    version     2.0;
    format      ascii;
    class       volScalarField;
    location    "4.65";
    object      epsilon;
}
// * * * * * * * * * * * * * * * * * * * * * * * * * * * * * * * * * * * * * //

dimensions      [0 2 -3 0 0 0 0];

internalField   nonuniform List<scalar> 
6000
(
54.1732
1.09747
0.0203038
0.134462
0.0725485
0.0863518
0.0616456
0.057619
0.046183
0.0420328
0.0366265
0.0343894
0.0324276
0.0322159
0.0326892
0.0343511
0.0367862
0.0402127
0.0445265
0.0498975
0.0563685
0.0640642
0.0730177
0.0832458
0.0946833
0.10723
0.120718
0.134917
0.149513
0.1641
0.178181
0.191157
0.202339
0.210954
0.216152
0.217133
0.213195
0.203798
0.188812
0.168557
0.144253
0.11781
0.0918884
0.0895921
0.138001
0.209047
0.308047
0.449723
0.633903
0.896715
1.20739
1.6841
2.16419
3.08249
3.73445
5.78512
6.34461
11.9709
11.1411
29.0984
17.723
0.975423
0.0253777
0.0742099
0.0418231
0.0473981
0.0343935
0.0316521
0.0255303
0.02306
0.0201091
0.0187612
0.017621
0.0173623
0.0174698
0.0181565
0.0192164
0.0207311
0.0226412
0.025007
0.027834
0.0311597
0.0349832
0.0392964
0.044061
0.0492286
0.0547306
0.0604795
0.0663636
0.072245
0.0779573
0.0833044
0.0880593
0.0919574
0.094718
0.0960487
0.095673
0.0933396
0.0888979
0.0823136
0.0738448
0.0640171
0.0538284
0.0542086
0.0772703
0.109079
0.151026
0.208031
0.279664
0.378075
0.493387
0.664053
0.840571
1.1588
1.40889
2.09678
2.37163
4.19349
4.18932
9.79213
7.136
0.711136
0.0303133
0.0435374
0.0252894
0.0273141
0.0200861
0.0182189
0.0147823
0.01327
0.0115972
0.0107807
0.0101197
0.00993346
0.00996294
0.0103023
0.0108475
0.0116318
0.0126249
0.0138527
0.0153161
0.0170298
0.0189906
0.0211915
0.0236125
0.0262304
0.0290145
0.0319276
0.0349244
0.0379501
0.0409399
0.0438175
0.0464934
0.0488604
0.0508089
0.0522036
0.0529112
0.0527945
0.0517397
0.0496633
0.0465954
0.0426909
0.0384146
0.0397468
0.0528464
0.0700477
0.0915665
0.11919
0.152491
0.196015
0.246131
0.316842
0.391525
0.517323
0.625932
0.886732
1.02728
1.68917
1.8002
3.7474
3.42005
0.518228
0.0345407
0.0274523
0.016063
0.0164856
0.0122363
0.0109426
0.00892662
0.00797682
0.00699981
0.00650626
0.00613053
0.00602839
0.00606518
0.00628443
0.00663271
0.00712558
0.00774916
0.00851723
0.00943201
0.0105014
0.0117237
0.0130944
0.0146024
0.0162347
0.0179748
0.0198035
0.0216981
0.0236317
0.0255737
0.027488
0.0293303
0.0310585
0.0326149
0.0339303
0.0349356
0.0355554
0.0357191
0.0353645
0.0344764
0.0330963
0.0314715
0.0331702
0.0416135
0.0523291
0.0652328
0.0810642
0.0995545
0.122587
0.148659
0.183395
0.220609
0.278361
0.332385
0.444884
0.521537
0.790864
0.887155
1.63598
1.89782
0.395523
0.0386546
0.0190392
0.01079
0.0104282
0.00776738
0.0068437
0.00560879
0.00499792
0.00441477
0.00412102
0.00391854
0.00388501
0.00394805
0.00412886
0.00439979
0.00476957
0.00523295
0.00579915
0.0064715
0.00725529
0.00814995
0.00915218
0.0102547
0.0114487
0.0127239
0.0140683
0.0154689
0.0169111
0.0183786
0.019853
0.0213118
0.0227414
0.0241057
0.0253689
0.0264932
0.0274351
0.0281499
0.0285926
0.0287367
0.0285791
0.0282714
0.0300949
0.0360941
0.0434967
0.052146
0.0623845
0.0741005
0.0881673
0.103994
0.124024
0.145886
0.177004
0.208312
0.264375
0.31056
0.434584
0.504063
0.824784
1.19136
0.318419
0.04298
0.0149627
0.00777016
0.00694324
0.00514537
0.00445669
0.00366495
0.00326258
0.00290971
0.0027415
0.00264584
0.00266187
0.00274937
0.00291947
0.00315804
0.00347117
0.00385822
0.00432651
0.00488003
0.00552292
0.00625518
0.00707433
0.0079752
0.00895172
0.00999698
0.0111037
0.0122644
0.0134712
0.0147157
0.0159886
0.0172804
0.0185844
0.0198778
0.0211394
0.0223457
0.0234677
0.0244741
0.0253302
0.0260092
0.0264928
0.0268858
0.0287348
0.0333282
0.0388558
0.0451467
0.0523616
0.0604784
0.0699391
0.0805823
0.0935355
0.108025
0.127195
0.14789
0.18003
0.211207
0.276166
0.326488
0.48029
0.829184
0.268834
0.0475706
0.0135354
0.0061246
0.00490936
0.00357328
0.0030288
0.00249389
0.00222142
0.00200658
0.00191794
0.00188864
0.00193826
0.0020438
0.00221186
0.00243575
0.00272067
0.00306856
0.00348598
0.00397736
0.00454643
0.00519374
0.00591774
0.00671496
0.00758146
0.00851297
0.00950527
0.0105542
0.0116557
0.0128055
0.0139979
0.0152308
0.016496
0.0177787
0.0190643
0.0203357
0.0215716
0.0227481
0.0238385
0.0248194
0.0256663
0.0264603
0.0282944
0.0320106
0.0363804
0.04124
0.0466558
0.052646
0.059443
0.0670773
0.0760874
0.086394
0.0993137
0.114161
0.134737
0.157622
0.195869
0.233931
0.315667
0.628419
0.235882
0.0523339
0.0138422
0.00540558
0.00373859
0.00262308
0.00215865
0.00177306
0.00158144
0.00145053
0.00141243
0.00142453
0.00149628
0.00161433
0.00178329
0.00200079
0.00227184
0.00259997
0.00299149
0.00345121
0.00398294
0.0045879
0.00526548
0.0060137
0.00683019
0.00771247
0.00865812
0.00966482
0.0107302
0.0118516
0.0130257
0.0142508
0.0155187
0.0168188
0.0181394
0.0194669
0.0207842
0.0220725
0.0233109
0.0244799
0.0255469
0.026587
0.0283898
0.0315189
0.0351182
0.0390392
0.0432976
0.0479276
0.0530508
0.0587755
0.0653562
0.0729999
0.0822101
0.0933194
0.107509
0.125052
0.149759
0.179556
0.226646
0.51022
0.213249
0.0571145
0.0153597
0.0053654
0.00312024
0.00206005
0.00162607
0.00132406
0.00118133
0.00110145
0.0010953
0.00113348
0.00122005
0.00134723
0.00151882
0.00173506
0.00200104
0.00232131
0.00270224
0.00314903
0.00366579
0.00425443
0.00491522
0.00564723
0.00644918
0.00731962
0.00825701
0.00925988
0.0103265
0.011455
0.0126426
0.013886
0.0151783
0.0165105
0.0178725
0.0192526
0.0206359
0.0220074
0.0233502
0.0246458
0.0258555
0.0270545
0.0288186
0.0315312
0.0345846
0.0378486
0.0413113
0.0450123
0.0490121
0.053446
0.0584245
0.064257
0.0710744
0.0795856
0.0898558
0.10356
0.120627
0.144299
0.173157
0.437371
0.197245
0.0617415
0.0177454
0.00587052
0.00289489
0.00175527
0.00130827
0.00104617
0.000930231
0.000880533
0.000894364
0.000949343
0.00104649
0.00118128
0.00135719
0.00157605
0.00184316
0.00216376
0.0025444
0.0029907
0.00350715
0.00409629
0.00475908
0.00549532
0.00630437
0.00718531
0.00813702
0.00915831
0.0102476
0.0114033
0.0126218
0.0138989
0.0152281
0.0166014
0.0180094
0.0194413
0.0208835
0.0223233
0.0237468
0.0251306
0.0264385
0.0277429
0.029465
0.0318675
0.0345135
0.0372917
0.0401755
0.0432055
0.046408
0.0499233
0.0537868
0.0583319
0.0635169
0.0701494
0.0778356
0.0886571
0.101023
0.119926
0.13851
0.390904
0.185658
0.0660607
0.0207445
0.00684153
0.0029866
0.00164033
0.00113697
0.000882131
0.000776339
0.000742892
0.000768807
0.000835019
0.000940495
0.00108256
0.00126451
0.00148919
0.0017621
0.00208901
0.00247668
0.00293115
0.00345731
0.00405823
0.00473539
0.00548906
0.00631897
0.00722446
0.00820451
0.00925799
0.0103832
0.0115784
0.0128384
0.0141586
0.015533
0.0169533
0.0184106
0.0198945
0.0213917
0.0228912
0.0243803
0.0258258
0.0272047
0.0285793
0.030257
0.032419
0.0347476
0.0371497
0.0395917
0.0421134
0.0447217
0.0475534
0.0506043
0.0542002
0.0582213
0.0634619
0.0693578
0.0779892
0.0872706
0.102439
0.114921
0.360497
0.177121
0.0699542
0.0241441
0.00822874
0.00335548
0.00168308
0.00107555
0.00079984
0.00069019
0.000662831
0.000695332
0.000769328
0.000882023
0.00103163
0.0012213
0.00145448
0.00173687
0.00207462
0.00247475
0.00294366
0.00348664
0.00410721
0.00480723
0.00558728
0.00644726
0.00738662
0.00840429
0.00949903
0.0106689
0.0119114
0.0132198
0.0145896
0.0160144
0.0174858
0.0189945
0.0205304
0.02208
0.0236334
0.0251743
0.0266652
0.0280958
0.0295155
0.0311471
0.0331154
0.0351876
0.0372872
0.039378
0.0414986
0.043645
0.0459475
0.0483815
0.0512541
0.0544126
0.0585991
0.063205
0.0701627
0.0773196
0.0895883
0.098284
0.340227
0.170763
0.0733503
0.0277539
0.00998617
0.00398153
0.00187515
0.00110671
0.000782275
0.000655435
0.000625799
0.000660607
0.000740055
0.000859426
0.00101711
0.00121605
0.00146
0.00175486
0.00210703
0.00252378
0.00301187
0.00357694
0.00422288
0.00495187
0.00576463
0.00666116
0.00764089
0.00870261
0.0098449
0.0110655
0.0123602
0.0137219
0.0151454
0.016624
0.0181488
0.0197101
0.0212976
0.0228971
0.0244996
0.026078
0.0276045
0.0290719
0.0305178
0.0321016
0.0339084
0.0357668
0.037615
0.0394169
0.0412097
0.042984
0.0448625
0.0468109
0.0491151
0.0516119
0.0549824
0.0586266
0.064294
0.0699292
0.0799586
0.0862075
0.326535
0.166003
0.0762238
0.0314019
0.0120601
0.00485713
0.00221683
0.00122579
0.000821921
0.000663737
0.000623918
0.000657178
0.000740215
0.000865936
0.0010323
0.00124189
0.00149859
0.00180841
0.00217794
0.00261466
0.00312565
0.00371688
0.00439254
0.00515504
0.00600518
0.00694296
0.00796777
0.00907813
0.0102724
0.011548
0.0128981
0.0143161
0.015796
0.0173303
0.0189097
0.0205237
0.0221616
0.0238084
0.0254518
0.0270587
0.0286122
0.0301042
0.0315612
0.0330952
0.0347631
0.0364382
0.0380712
0.0396282
0.0411453
0.0426102
0.0441389
0.0456929
0.047538
0.0495114
0.052236
0.055141
0.0598013
0.0643091
0.0726073
0.0772109
0.317205
0.162445
0.078589
0.0349383
0.0143835
0.00597706
0.0027115
0.00143761
0.000917822
0.00071199
0.000653546
0.000681245
0.000766064
0.000897802
0.00107339
0.00129487
0.00156604
0.00189299
0.00228236
0.00274185
0.00327879
0.00389942
0.00460821
0.00540773
0.00629878
0.00728131
0.00835463
0.00951694
0.0107664
0.0120995
0.0135072
0.0149833
0.016521
0.0181118
0.0197458
0.0214116
0.0230982
0.0247887
0.0264622
0.0280922
0.0296648
0.0311705
0.0326263
0.0341079
0.0356527
0.0371665
0.038611
0.0399551
0.0412341
0.0424349
0.0436675
0.0448925
0.0463577
0.0479057
0.050108
0.0524294
0.0562917
0.0599391
0.066889
0.0703429
0.310815
0.159806
0.0804896
0.0382419
0.0168752
0.00732969
0.00336573
0.00175117
0.00107416
0.000800881
0.000713984
0.00073148
0.000816019
0.000953288
0.00113853
0.00137299
0.00166016
0.00200615
0.00241755
0.0029022
0.00346765
0.00412036
0.00486502
0.0057043
0.00663896
0.00766884
0.00879318
0.0100098
0.0113166
0.0127085
0.0141751
0.0157102
0.0173059
0.0189531
0.0206408
0.0223565
0.0240892
0.0258153
0.0275122
0.0291597
0.0307437
0.0322533
0.0336971
0.0351234
0.0365561
0.0379245
0.0392001
0.040355
0.0414239
0.0423944
0.0433708
0.0443151
0.0454591
0.0466533
0.0484249
0.0502744
0.0534941
0.0564673
0.0623549
0.0649758
0.306431
0.157876
0.0819876
0.0412246
0.0194439
0.00889216
0.00418754
0.00217447
0.00129977
0.000934248
0.000806835
0.000808411
0.000890089
0.00103212
0.00122725
0.00147563
0.00178017
0.00214692
0.0025823
0.00309423
0.00369038
0.00437741
0.00516014
0.00604136
0.00702169
0.00810084
0.00927798
0.0105505
0.0119161
0.0133672
0.014893
0.016487
0.0181402
0.0198426
0.0215821
0.0233452
0.0251189
0.0268717
0.0285873
0.0302461
0.0318339
0.033338
0.0347601
0.0361279
0.0374555
0.0386903
0.0398115
0.040795
0.0416752
0.0424409
0.0431918
0.0438918
0.0447594
0.0456535
0.0470636
0.0485235
0.0512174
0.0536504
0.058689
0.0606865
0.303426
0.156498
0.0831527
0.0438338
0.021995
0.0106277
0.00517999
0.00271686
0.00160523
0.00111888
0.000935748
0.000914127
0.000989571
0.00113518
0.00134019
0.00160324
0.00192636
0.00231543
0.00277655
0.00331762
0.0039464
0.00466962
0.00549225
0.0064171
0.00744465
0.00857439
0.00980551
0.0111349
0.0125601
0.0140697
0.0156544
0.0173065
0.0190158
0.0207714
0.0225601
0.0243672
0.0261715
0.0279462
0.029675
0.0313387
0.0329224
0.034412
0.0358033
0.0371088
0.038336
0.0394453
0.0404231
0.0412487
0.0419568
0.0425375
0.0430868
0.0435712
0.0441973
0.0448327
0.0459348
0.0470674
0.0493245
0.0513159
0.0556659
0.0571834
0.301375
0.155549
0.0840546
0.0460499
0.0244389
0.0124857
0.00633782
0.00338841
0.00199945
0.0013646
0.00110638
0.00105217
0.00111691
0.00126433
0.00147889
0.00175717
0.0020999
0.00251271
0.00300114
0.00357304
0.0042361
0.00499711
0.00586109
0.00683088
0.00790671
0.0090879
0.0103736
0.0117602
0.0132447
0.0148119
0.0164545
0.0181631
0.0199264
0.0217324
0.0235668
0.0254092
0.0272378
0.029029
0.030765
0.0324264
0.033998
0.0354643
0.0368162
0.0380552
0.0391842
0.0401739
0.0410163
0.0416945
0.0422434
0.042655
0.0430219
0.0433134
0.0437261
0.0441355
0.0449717
0.0458256
0.0477147
0.0493395
0.0531224
0.0542614
0.299986
0.154931
0.0847576
0.0478812
0.0266991
0.0144041
0.00764467
0.00419549
0.00249264
0.00168118
0.00132653
0.00122757
0.00127564
0.00142236
0.00164571
0.00193952
0.00230269
0.00274048
0.00325764
0.00386185
0.00456065
0.00536078
0.00626725
0.0072829
0.0084077
0.0096407
0.0109812
0.0124248
0.0139673
0.015591
0.0172896
0.0190524
0.0208667
0.0227196
0.0245922
0.0264624
0.02831
0.0301115
0.0318478
0.0334995
0.0350507
0.0364848
0.0377889
0.0389567
0.0399883
0.040862
0.0415749
0.0421138
0.0425139
0.0427693
0.0429697
0.0430871
0.0433093
0.0435195
0.0441239
0.0447377
0.0463131
0.0476292
0.0509386
0.0517738
0.299055
0.154568
0.0853168
0.0493573
0.0287179
0.0163144
0.00907174
0.00513811
0.00309456
0.00207741
0.00160599
0.00144691
0.00147044
0.00161294
0.00184377
0.0021531
0.0025373
0.00300115
0.00354828
0.00418608
0.00492185
0.00576216
0.00671197
0.00777408
0.00894815
0.0102329
0.0116279
0.0131279
0.0147265
0.0164047
0.0181571
0.0199709
0.0218327
0.0237253
0.0256282
0.0275205
0.029381
0.0311858
0.0329151
0.0345489
0.0360711
0.037464
0.0387122
0.0398037
0.0407371
0.041497
0.0420847
0.0424905
0.0427504
0.0428603
0.0429074
0.0428668
0.0429178
0.0429514
0.043352
0.0437573
0.0450626
0.0461163
0.0490251
0.0496134
0.298441
0.154397
0.0857773
0.0505217
0.0304599
0.0181482
0.0105782
0.00620751
0.0038117
0.0025633
0.00195342
0.00171845
0.00170716
0.00184063
0.00207692
0.00240137
0.00280693
0.00329769
0.00387582
0.00454831
0.00532205
0.00620337
0.00719705
0.00830588
0.00952914
0.0108652
0.0123139
0.0138694
0.0155212
0.0172514
0.0190545
0.0209158
0.0228176
0.0247423
0.0266696
0.0285776
0.030444
0.0322446
0.0339588
0.0355663
0.0370505
0.0383933
0.0395772
0.040587
0.0414205
0.0420674
0.0425328
0.0428106
0.0429372
0.0429109
0.0428163
0.0426315
0.0425282
0.0424043
0.042625
0.0428483
0.0439191
0.0447483
0.0473144
0.0477003
0.298046
0.154368
0.0861738
0.0514247
0.0319119
0.0198437
0.0121134
0.0073845
0.00464505
0.00314722
0.00237793
0.00205091
0.00199293
0.00211088
0.00234974
0.00268841
0.00311532
0.00363361
0.00424354
0.0049516
0.00576408
0.00668695
0.00772475
0.00888021
0.0101522
0.0115387
0.01304
0.0146487
0.016351
0.01813
0.01998
0.0218807
0.0238159
0.0257667
0.0277118
0.0296283
0.0314929
0.0332811
0.0349715
0.0365436
0.0379806
0.039264
0.0403755
0.0412976
0.0420288
0.0425624
0.0429076
0.0430612
0.0430605
0.0429061
0.0426802
0.0423635
0.0421208
0.0418565
0.0419179
0.0419822
0.0428484
0.0434844
0.0457546
0.0459747
0.2978
0.154442
0.0865315
0.0521178
0.0330809
0.0213516
0.0136213
0.00863892
0.00558806
0.00383418
0.00288806
0.00245265
0.0023359
0.00243004
0.00266746
0.00301887
0.00346672
0.00401288
0.00465516
0.0053994
0.00625114
0.00721583
0.00829768
0.00949931
0.0108192
0.0122548
0.0138071
0.0154657
0.0172155
0.019039
0.0209276
0.022862
0.0248243
0.0267944
0.02875
0.0306671
0.0325216
0.0342885
0.0359458
0.037473
0.0388531
0.0400679
0.0410985
0.0419271
0.0425525
0.0429722
0.0431982
0.0432309
0.0431082
0.0428328
0.042485
0.0420478
0.0416794
0.0412901
0.0412107
0.041136
0.0418231
0.0422931
0.0443059
0.0443904
0.297654
0.154587
0.0868678
0.0526499
0.0339894
0.0226387
0.0150459
0.00993074
0.00662498
0.00462396
0.00349021
0.0029316
0.00274393
0.00280563
0.00303592
0.00339784
0.00386578
0.00443984
0.00511472
0.00589549
0.00678671
0.00779319
0.00891866
0.0101657
0.0115322
0.0130151
0.0146166
0.016321
0.0181119
0.0199738
0.0218953
0.023857
0.0258396
0.0278216
0.0297795
0.0316887
0.0335239
0.0352599
0.0368744
0.0383468
0.0396602
0.0407968
0.0417382
0.0424668
0.0429828
0.043287
0.0433945
0.0433089
0.043069
0.0426795
0.0422185
0.0416716
0.0411901
0.0406903
0.0404866
0.0402911
0.0408214
0.0411489
0.0429368
0.042912
0.297576
0.154779
0.0871932
0.0530639
0.0346707
0.0236897
0.0163365
0.0112128
0.00773009
0.00550919
0.00418693
0.00349407
0.00322397
0.00324464
0.00346252
0.00383069
0.0043174
0.00491902
0.00562647
0.00644382
0.00737444
0.00842237
0.00959068
0.0108818
0.0122935
0.0138215
0.0154676
0.0172113
0.0190384
0.0209328
0.0228811
0.0248632
0.0268584
0.028844
0.0307955
0.0326873
0.0344935
0.0361886
0.03775
0.0391571
0.0403936
0.0414424
0.0422861
0.0429084
0.0433109
0.0434979
0.0434872
0.0432857
0.042933
0.0424359
0.0418702
0.0412239
0.0406413
0.0400445
0.039732
0.0394326
0.0398259
0.0400319
0.0416227
0.0415116
0.297541
0.155
0.0875135
0.0533957
0.0351638
0.0245066
0.0174533
0.0124349
0.00886835
0.00647397
0.00497527
0.00414346
0.00378154
0.00375274
0.00395265
0.00432398
0.00482781
0.005455
0.00619463
0.00704833
0.00801798
0.00910665
0.0103167
0.0116496
0.0131027
0.0146726
0.0163584
0.0181364
0.019994
0.0219146
0.0238826
0.0258774
0.0278768
0.029857
0.0317926
0.033657
0.0354239
0.0370674
0.0385647
0.039896
0.0410453
0.0419966
0.0427342
0.0432435
0.0435284
0.0435961
0.0434674
0.0431523
0.0426911
0.0420927
0.0414307
0.0406949
0.040023
0.0393423
0.0389356
0.038548
0.0388222
0.038926
0.0403439
0.0401673
0.297533
0.155235
0.087831
0.0536737
0.0355091
0.0251055
0.0183705
0.0135492
0.0099974
0.00749315
0.00584508
0.00487864
0.00441966
0.00433417
0.00451065
0.00488182
0.00540091
0.00605262
0.00682355
0.00771266
0.00872018
0.00984802
0.0110976
0.0124696
0.0139611
0.015569
0.0172888
0.0190956
0.0209774
0.0229169
0.0248969
0.0268959
0.0288905
0.0308557
0.0327651
0.0345915
0.036308
0.0378886
0.0393109
0.0405552
0.0416067
0.0424509
0.043074
0.043464
0.043627
0.0435734
0.0433269
0.0429005
0.0423352
0.041642
0.0408919
0.0400767
0.0393269
0.0385751
0.0380882
0.0376272
0.0377991
0.0378183
0.039085
0.0388617
0.297542
0.155474
0.0881457
0.0539192
0.0357449
0.0255133
0.0190781
0.0145148
0.0110711
0.00853294
0.00677787
0.0056924
0.00513734
0.0049907
0.00513912
0.005507
0.00603951
0.00671464
0.00751584
0.00843922
0.00948314
0.0106482
0.0119349
0.0133429
0.014869
0.016511
0.0182579
0.0200873
0.0219863
0.023937
0.0259206
0.0279146
0.0298945
0.0318343
0.0337067
0.0354837
0.0371382
0.0386444
0.0399799
0.0411261
0.0420693
0.0427967
0.0432972
0.0435616
0.0435986
0.043422
0.043058
0.0425227
0.041858
0.0410765
0.0402467
0.0393622
0.038546
0.0377356
0.0371821
0.0366622
0.0367474
0.0366986
0.0378335
0.0375811
0.29756
0.155711
0.0884561
0.0541473
0.035905
0.0257632
0.0195809
0.0153021
0.0120442
0.00955279
0.00774649
0.00657009
0.00592824
0.00572032
0.00583797
0.0062002
0.00674469
0.00744232
0.00827283
0.00922926
0.0103079
0.0115081
0.0128291
0.0142695
0.0158262
0.0174972
0.0192643
0.0211092
0.0230178
0.0249711
0.0269491
0.0289282
0.0308829
0.0327862
0.03461
0.0363259
0.0379064
0.039326
0.040563
0.0415998
0.042424
0.0430253
0.0433953
0.0435281
0.0434355
0.0431343
0.0426535
0.0420122
0.041253
0.0403902
0.0394894
0.0385457
0.0376746
0.0368181
0.0362113
0.0356466
0.0356599
0.0355586
0.0365799
0.0363145
0.297583
0.15594
0.0887604
0.0543677
0.0360176
0.0258906
0.0198966
0.0158955
0.0128769
0.0105087
0.00871593
0.00748888
0.00677927
0.006516
0.00660328
0.00695903
0.00751493
0.00823471
0.00909391
0.0100823
0.0111941
0.012427
0.0137791
0.0152482
0.016831
0.018524
0.0203049
0.0221579
0.0240676
0.0260144
0.0279768
0.0299304
0.0318487
0.0337038
0.0354669
0.0371092
0.0386034
0.0399241
0.0410507
0.0419667
0.0426617
0.0431277
0.0433597
0.0433556
0.04313
0.0427033
0.042107
0.0413632
0.0405149
0.039578
0.0386153
0.0376228
0.0367083
0.0358184
0.0351714
0.0345754
0.0345311
0.0343923
0.0353165
0.0350535
0.297606
0.156158
0.0890563
0.0545861
0.0361048
0.0259301
0.0200519
0.0162942
0.0135393
0.0113576
0.00964549
0.00841794
0.00766974
0.00736447
0.00742615
0.007777
0.00834519
0.00908777
0.00997576
0.0109955
0.012139
0.0134023
0.0147824
0.0162759
0.0178802
0.0195878
0.0213753
0.0232282
0.0251301
0.0270605
0.0289968
0.0309137
0.0327837
0.0345783
0.0362681
0.0378241
0.0392191
0.0404286
0.0414327
0.0422169
0.0427726
0.0430948
0.043182
0.0430361
0.0426751
0.0421226
0.0414127
0.0405705
0.0396392
0.0386361
0.0376207
0.0365903
0.0356442
0.0347332
0.034059
0.0334453
0.0333571
0.0331949
0.0340379
0.0337914
0.297629
0.156365
0.0893422
0.0548053
0.0361829
0.0259127
0.020079
0.0165105
0.0140147
0.0120617
0.0104922
0.00931978
0.00857123
0.00824533
0.00829165
0.00864248
0.0092259
0.00999341
0.0109115
0.0119628
0.013137
0.0144287
0.0158336
0.0173475
0.0189686
0.0206826
0.0224691
0.0243133
0.0261978
0.0281013
0.0300004
0.0318687
0.0336782
0.0353996
0.0370031
0.0384598
0.0397428
0.0408285
0.0416985
0.0423399
0.0427469
0.0429174
0.0428537
0.0425621
0.042064
0.0413864
0.0405659
0.0396301
0.0386226
0.0375618
0.0365036
0.0354463
0.0344803
0.0335608
0.0328724
0.0322539
0.0321352
0.0319633
0.0327398
0.0325234
0.29765
0.156558
0.0896165
0.0550259
0.0362628
0.0258643
0.0200116
0.0165675
0.0143003
0.0125934
0.0112152
0.0101529
0.00944847
0.00913088
0.00917811
0.00953782
0.0101421
0.0109386
0.0118896
0.0129739
0.0141789
0.0154976
0.0169246
0.0184548
0.0200868
0.0218
0.0235776
0.025404
0.0272611
0.0291269
0.030977
0.0327846
0.0345208
0.0361558
0.0376598
0.0390041
0.0401623
0.0411119
0.0418363
0.0423249
0.0425743
0.042586
0.0423665
0.0419264
0.0412908
0.0404899
0.0395627
0.0385392
0.037463
0.0363537
0.0352631
0.0341901
0.0332164
0.0323009
0.0316109
0.0310006
0.0308642
0.0306958
0.0314198
0.0312459
0.297669
0.156739
0.0898783
0.0552472
0.0363513
0.0258055
0.0198817
0.0164952
0.0144073
0.0129376
0.01178
0.0108756
0.0102614
0.00998683
0.010057
0.0104389
0.0110726
0.0119046
0.0128933
0.0140137
0.0152508
0.0165961
0.0180433
0.0195862
0.0212226
0.0229284
0.024689
0.0264884
0.0283078
0.0301247
0.031914
0.0336482
0.0352981
0.0368336
0.0382249
0.0394436
0.0404644
0.0412662
0.0418343
0.0421604
0.0422445
0.0420917
0.0417126
0.0411226
0.0403503
0.0394292
0.0384004
0.0372963
0.0361601
0.0350119
0.0338998
0.0328228
0.0318535
0.0309544
0.0302754
0.0296857
0.0295442
0.0293916
0.0300766
0.0299569
0.297685
0.156907
0.0901272
0.055468
0.0364516
0.0257512
0.0197178
0.0163268
0.0143578
0.0130936
0.0121631
0.0114503
0.0109686
0.010774
0.0108938
0.0113151
0.01199
0.0128664
0.0138997
0.0150614
0.0163337
0.0177067
0.0191729
0.0207258
0.0223607
0.0240528
0.0257885
0.0275516
0.0293229
0.0310796
0.0327961
0.0344444
0.035995
0.0374178
0.0386833
0.0397637
0.040635
0.0412778
0.0416796
0.041835
0.0417473
0.0414254
0.0408846
0.0401449
0.0392384
0.0382017
0.037078
0.0359015
0.0347148
0.0335385
0.0324162
0.031347
0.0303942
0.0295239
0.028868
0.028311
0.0281764
0.0280515
0.0287101
0.0286553
0.297699
0.157063
0.0903629
0.0556867
0.0365646
0.0257114
0.019543
0.0160952
0.0141817
0.0130743
0.0123544
0.0118478
0.0115312
0.0114515
0.0116492
0.0121304
0.0128609
0.0137927
0.0148797
0.0160898
0.0174024
0.0188058
0.0202917
0.0218529
0.0234815
0.0251538
0.0268571
0.0285751
0.0302883
0.0319737
0.0336054
0.0351553
0.0365939
0.0378912
0.0390182
0.0399483
0.0406588
0.0411324
0.0413592
0.0413371
0.0410726
0.0405791
0.0398763
0.0389888
0.0379524
0.0368067
0.0355962
0.034357
0.0331304
0.0319373
0.0308165
0.0297673
0.0288431
0.0280134
0.0273926
0.0268798
0.0267635
0.0266773
0.0273214
0.0273413
0.297711
0.157208
0.0905857
0.0559018
0.0366896
0.0256917
0.0193751
0.0158301
0.0139128
0.0129039
0.012358
0.0120516
0.0119172
0.0119802
0.0122828
0.0128449
0.0136467
0.0146465
0.015798
0.0170656
0.0184256
0.0198641
0.0213719
0.0229415
0.0245601
0.026208
0.0278722
0.0295367
0.0311822
0.0327856
0.0343212
0.0357609
0.0370752
0.0382349
0.0392117
0.0399803
0.0405198
0.0408154
0.0408601
0.0406551
0.0402109
0.0395453
0.0386823
0.0376514
0.0364916
0.0352451
0.0339579
0.0326669
0.0314123
0.0302145
0.0291074
0.0280901
0.0272063
0.0264287
0.0258543
0.0253964
0.0253094
0.025272
0.0259129
0.0260159
0.29772
0.157344
0.0907962
0.0561121
0.0368248
0.0256947
0.0192263
0.0155566
0.0135848
0.012614
0.0121917
0.0120592
0.0121062
0.0123273
0.0127558
0.0134181
0.0143065
0.0153869
0.0166142
0.0179496
0.0193658
0.0208461
0.0223801
0.0239596
0.0255668
0.0271866
0.0288062
0.0304101
0.0319793
0.0334911
0.03492
0.0362383
0.0374172
0.038428
0.0392439
0.0398412
0.0402012
0.0403118
0.0401692
0.0397784
0.039154
0.038318
0.0372994
0.0361318
0.0348574
0.0335208
0.0321685
0.0308384
0.0295685
0.0283787
0.0272978
0.0263241
0.0254922
0.0247776
0.0242601
0.023867
0.0238192
0.0238398
0.0244878
0.0246815
0.297728
0.15747
0.0909949
0.0563165
0.0369678
0.0257202
0.0191044
0.0152942
0.0132288
0.0122402
0.0118841
0.0118829
0.0120915
0.0124709
0.0130361
0.0138121
0.0147995
0.0159713
0.0172847
0.0186983
0.0201803
0.0217108
0.023277
0.0248691
0.0264661
0.0280562
0.0296274
0.031165
0.0326506
0.0340624
0.0353753
0.0365624
0.0375959
0.0384484
0.0390944
0.0395123
0.0396862
0.0396069
0.0392742
0.0386973
0.0378948
0.0368934
0.0357264
0.0344317
0.0330541
0.0316402
0.0302367
0.0288814
0.0276102
0.0264415
0.0253993
0.0244808
0.0237115
0.0230697
0.0226187
0.0222991
0.0222995
0.022386
0.0230506
0.0233411
0.297734
0.157588
0.0911826
0.0565144
0.0371165
0.0257666
0.0190128
0.0150565
0.0128706
0.0118174
0.0114703
0.0115478
0.0118818
0.0124025
0.0131019
0.0139962
0.0150888
0.0163587
0.0177657
0.0192659
0.0208231
0.0224125
0.0240185
0.0256281
0.0272181
0.0287789
0.0302998
0.0317672
0.0331638
0.0344687
0.0356581
0.0367061
0.0375861
0.0382724
0.0387416
0.0389746
0.0389581
0.0386868
0.0381643
0.0374039
0.0364288
0.03527
0.0339652
0.032556
0.0310896
0.0296138
0.0281748
0.0268098
0.0255519
0.0244179
0.0234265
0.0225741
0.0218773
0.0213169
0.0209407
0.0207019
0.0207584
0.0209174
0.021607
0.0219987
0.297738
0.157698
0.0913602
0.0567053
0.0372685
0.0258314
0.0189523
0.014852
0.0125304
0.0113772
0.010988
0.0110885
0.0115
0.0121293
0.0129455
0.0139507
0.015146
0.016514
0.0180165
0.0196081
0.0212472
0.0229036
0.0245572
0.0261908
0.0277786
0.0293126
0.0307835
0.032179
0.0334833
0.0346769
0.0357374
0.0366405
0.0373614
0.0378763
0.0381643
0.0382093
0.0380015
0.0375393
0.0368305
0.035893
0.0347543
0.0334499
0.0320214
0.0305137
0.0289759
0.0274559
0.0259991
0.0246413
0.023412
0.0223263
0.0213975
0.020621
0.0200052
0.0195334
0.0192386
0.0190863
0.0192052
0.0194418
0.0201635
0.0206596
0.297742
0.157802
0.0915284
0.056889
0.0374221
0.0259115
0.0189213
0.0146851
0.0122224
0.0109459
0.0104734
0.0105443
0.0109801
0.0116739
0.0125752
0.0136708
0.0149553
0.0164119
0.0180043
0.0196854
0.0214087
0.0231373
0.0248451
0.0265098
0.0281015
0.0296131
0.0310365
0.0323608
0.033572
0.0346523
0.0355811
0.0363362
0.0368949
0.0372362
0.037342
0.0371995
0.0368028
0.0361546
0.0352671
0.0341629
0.0328738
0.0314396
0.0299054
0.0283188
0.0267298
0.0251861
0.023731
0.0223981
0.0212133
0.0201891
0.0193337
0.0186415
0.0181136
0.0177355
0.0175271
0.017465
0.0176511
0.0179683
0.0187279
0.0193296
0.297744
0.157901
0.0916881
0.0570657
0.0375755
0.0260037
0.0189171
0.0145564
0.011955
0.0105431
0.009958
0.00995505
0.0103633
0.011071
0.0120151
0.013168
0.0145165
0.0160416
0.0177084
0.0194686
0.0212711
0.0230716
0.024837
0.0265387
0.0281407
0.0296355
0.0310157
0.032272
0.0333919
0.0343597
0.0351571
0.0357643
0.0361614
0.0363302
0.0362563
0.0359307
0.0353518
0.0345267
0.0334726
0.0322165
0.0307948
0.0292511
0.0276333
0.0259909
0.0243741
0.0228293
0.021397
0.0201076
0.0189829
0.0180327
0.0172602
0.016659
0.0162237
0.0159422
0.0158229
0.0158524
0.0161083
0.0165075
0.0173092
0.0180158
0.297746
0.157994
0.0918401
0.0572354
0.0377275
0.0261052
0.018936
0.0144643
0.011732
0.0101819
0.00946679
0.00935695
0.00969245
0.010364
0.0113025
0.0124705
0.0138467
0.0154096
0.0171245
0.0189431
0.0208103
0.0226749
0.0244955
0.0262367
0.0278539
0.0293377
0.0306805
0.0318738
0.0329068
0.0337659
0.0344353
0.0348982
0.0351377
0.0351394
0.0348926
0.0343928
0.0336428
0.032655
0.0314511
0.0300631
0.0285315
0.0269029
0.0252277
0.0235564
0.021938
0.0204167
0.0190291
0.0178021
0.0167527
0.0158875
0.0152058
0.0146999
0.0143595
0.0141747
0.0141445
0.0142644
0.0145908
0.0150709
0.0159172
0.016726
0.297747
0.158083
0.0919851
0.0573985
0.0378773
0.0262134
0.0189743
0.0144055
0.0115538
0.00986985
0.00901764
0.00877991
0.00900802
0.00959909
0.0104839
0.0116199
0.0129803
0.0145409
0.0162676
0.0181128
0.0200195
0.0219303
0.0237957
0.025573
0.0272068
0.0286841
0.0299953
0.031132
0.0320846
0.0328416
0.0333899
0.0337158
0.033806
0.0336501
0.0332419
0.0325815
0.031677
0.0305457
0.0292144
0.0277196
0.0261055
0.0244215
0.0227192
0.0210489
0.0194574
0.0179855
0.0166653
0.0155189
0.0145586
0.0137879
0.013202
0.0127931
0.0125471
0.0124562
0.0125123
0.0127188
0.0131138
0.0136715
0.014563
0.015469
0.297748
0.158167
0.092124
0.0575555
0.0380241
0.0263259
0.0190283
0.0143761
0.011418
0.00960943
0.00862154
0.00824613
0.00834421
0.0088205
0.00960931
0.0106674
0.0119655
0.013478
0.0151723
0.0170031
0.0189132
0.0208415
0.0227309
0.0245323
0.0261785
0.0276503
0.0289345
0.0300213
0.0309015
0.0315654
0.0320024
0.0322022
0.0321555
0.0318563
0.031303
0.0305011
0.0294639
0.028214
0.0267832
0.025212
0.023548
0.0218422
0.0201465
0.0185097
0.0169752
0.0155792
0.0143483
0.0132995
0.0124401
0.0117706
0.0112832
0.0109698
0.0108144
0.0108116
0.0109483
0.0112343
0.0116937
0.012323
0.0132585
0.0142543
0.297749
0.158249
0.0922575
0.0577066
0.0381676
0.0264412
0.0190946
0.0143716
0.0113208
0.00939965
0.00828352
0.00776997
0.00772705
0.00806625
0.0087268
0.00966755
0.0108594
0.0122774
0.0138916
0.0156602
0.0175289
0.0194354
0.0213175
0.0231204
0.0247669
0.0262287
0.0274871
0.0285294
0.0293455
0.0299268
0.0302652
0.0303533
0.0301863
0.0297625
0.0290857
0.0281667
0.0270242
0.0256861
0.0241889
0.022577
0.0208999
0.0192097
0.017557
0.0159876
0.0145404
0.0132459
0.0121246
0.0111879
0.0104385
0.00987384
0.00948426
0.00926185
0.00919014
0.00926632
0.00947477
0.00983078
0.0103476
0.0110403
0.0120164
0.0130921
0.297749
0.158328
0.0923862
0.0578525
0.0383076
0.0265576
0.0191702
0.0143876
0.0112574
0.00923707
0.00800397
0.00735874
0.00717381
0.00736551
0.00787756
0.00867192
0.00972149
0.0110034
0.0124913
0.0141487
0.0159263
0.0177639
0.0195976
0.0213687
0.0229937
0.0244337