/*--------------------------------*- C++ -*----------------------------------*\
| =========                 |                                                 |
| \\      /  F ield         | OpenFOAM: The Open Source CFD Toolbox           |
|  \\    /   O peration     | Version:  2.4.0                                 |
|   \\  /    A nd           | Web:      www.OpenFOAM.org                      |
|    \\/     M anipulation  |                                                 |
\*---------------------------------------------------------------------------*/
FoamFile
{
    version     2.0;
    format      ascii;
    class       surfaceScalarField;
    location    "330";
    object      phi;
}
// * * * * * * * * * * * * * * * * * * * * * * * * * * * * * * * * * * * * * //

dimensions      [0 3 -1 0 0 0 0];

internalField   nonuniform List<scalar> 
19800
(
0.000192349
1.79752e-08
0.000192318
3.12395e-08
0.000192275
4.26029e-08
0.000192224
5.16099e-08
0.000192164
5.965e-08
0.000192097
6.69144e-08
0.000192023
7.37878e-08
0.000191943
8.05305e-08
0.000191855
8.73974e-08
0.000191761
9.4656e-08
0.000191658
1.02618e-07
0.000191547
1.11679e-07
0.000191424
1.22368e-07
0.000191289
1.35438e-07
0.000191137
1.51939e-07
0.000190963
1.73651e-07
0.00019076
2.03599e-07
0.000190507
2.52931e-07
0.000190119
3.88024e-07
1.11668e-06
0.000189002
0.000197683
3.63363e-08
0.000197651
6.3407e-08
0.000197608
8.62171e-08
0.000197555
1.04539e-07
0.000197494
1.20779e-07
0.000197425
1.35476e-07
0.000197349
1.49364e-07
0.000197267
1.62975e-07
0.000197178
1.76815e-07
0.000197081
1.9141e-07
0.000196976
2.07367e-07
0.000196862
2.25443e-07
0.000196738
2.46637e-07
0.000196601
2.72358e-07
0.000196448
3.04653e-07
0.000196275
3.47149e-07
0.000196072
4.07015e-07
0.000195817
5.07189e-07
0.000195492
7.13289e-07
1.18526e-06
0.000195423
0.000203166
5.51545e-08
0.000203133
9.63944e-08
0.000203088
1.30902e-07
0.000203034
1.58756e-07
0.000202971
1.83362e-07
0.000202901
2.05628e-07
0.000202824
2.26636e-07
0.000202739
2.47183e-07
0.000202648
2.68016e-07
0.00020255
2.89898e-07
0.000202443
3.13685e-07
0.000202329
3.40418e-07
0.000202204
3.71427e-07
0.000202068
4.08513e-07
0.000201918
4.54196e-07
0.000201753
5.12646e-07
0.000201568
5.91285e-07
0.000201367
7.08197e-07
0.000201186
8.94834e-07
1.1878e-06
0.000201183
0.0002088
7.44327e-08
0.000208766
1.30203e-07
0.00020872
1.76651e-07
0.000208665
2.1424e-07
0.000208601
2.47361e-07
0.000208529
2.77301e-07
0.00020845
3.05488e-07
0.000208364
3.32975e-07
0.000208272
3.60727e-07
0.000208172
3.89703e-07
0.000208065
4.20943e-07
0.000207949
4.55656e-07
0.000207826
4.953e-07
0.000207692
5.41714e-07
0.000207549
5.97232e-07
0.000207397
6.65239e-07
0.000207237
7.50695e-07
0.000207083
8.62841e-07
0.000206967
1.01011e-06
1.19113e-06
0.000206964
0.00021459
9.41652e-08
0.000214556
1.64825e-07
0.000214509
2.23447e-07
0.000214452
2.70963e-07
0.000214387
3.1272e-07
0.000214314
3.50407e-07
0.000214233
3.85783e-07
0.000214146
4.20143e-07
0.000214052
4.54636e-07
0.000213952
4.90367e-07
0.000213844
5.28473e-07
0.00021373
5.70188e-07
0.000213608
6.16878e-07
0.00021348
6.70059e-07
0.000213345
7.31329e-07
0.000213208
8.02471e-07
0.000213074
8.85172e-07
0.000212955
9.81402e-07
0.000212877
1.08866e-06
1.19664e-06
0.000212871
0.000220541
1.14352e-07
0.000220506
2.00254e-07
0.000220458
2.71273e-07
0.0002204
3.28887e-07
0.000220333
3.79378e-07
0.000220259
4.24846e-07
0.000220177
4.67368e-07
0.000220089
5.08456e-07
0.000219994
5.49407e-07
0.000219893
5.91407e-07
0.000219786
6.3559e-07
0.000219673
6.83076e-07
0.000219555
7.34926e-07
0.000219433
7.92054e-07
0.00021931
8.55003e-07
0.000219188
9.2376e-07
0.000219076
9.97205e-07
0.000218985
1.07293e-06
0.000218929
1.14473e-06
1.20291e-06
0.000218922
0.000226657
1.3498e-07
0.000226621
2.3647e-07
0.000226572
3.20097e-07
0.000226513
3.87963e-07
0.000226445
4.47257e-07
0.00022637
5.00499e-07
0.000226287
5.50065e-07
0.000226198
5.97657e-07
0.000226102
6.44675e-07
0.000226002
6.92315e-07
0.000225896
7.41616e-07
0.000225785
7.93445e-07
0.000225672
8.48399e-07
0.000225557
9.06631e-07
0.000225445
9.67563e-07
0.000225339
1.02963e-06
0.000225246
1.08986e-06
0.000225175
1.14397e-06
0.000225134
1.1857e-06
1.20859e-06
0.000225128
0.000232943
1.56046e-07
0.000232906
2.7346e-07
0.000232856
3.69888e-07
0.000232796
4.48137e-07
0.000232727
5.16271e-07
0.00023265
5.77235e-07
0.000232567
6.33682e-07
0.000232477
6.87473e-07
0.000232381
7.40061e-07
0.000232281
7.92585e-07
0.000232177
8.45899e-07
0.00023207
9.00514e-07
0.000231962
9.56469e-07
0.000231855
1.01313e-06
0.000231754
1.06892e-06
0.000231662
1.12121e-06
0.000231586
1.1662e-06
0.000231531
1.19939e-06
0.0002315
1.21603e-06
1.21299e-06
0.000231496
0.000239403
1.7753e-07
0.000239365
3.11191e-07
0.000239315
4.20598e-07
0.000239253
5.09336e-07
0.000239183
5.86312e-07
0.000239106
6.54899e-07
0.000239021
7.18001e-07
0.000238931
7.77606e-07
0.000238836
8.35168e-07
0.000238737
8.91709e-07
0.000238635
9.47824e-07
0.000238532
1.00361e-06
0.00023843
1.05852e-06
0.000238332
1.11121e-06
0.000238241
1.15941e-06
0.000238163
1.19993e-06
0.0002381
1.22897e-06
0.000238057
1.24279e-06
0.000238034
1.23857e-06
1.21582e-06
0.000238031
0.000246042
1.99423e-07
0.000246004
3.4964e-07
0.000245952
4.72181e-07
0.00024589
5.71486e-07
0.000245819
6.57268e-07
0.000245741
7.33328e-07
0.000245656
8.02796e-07
0.000245566
8.67748e-07
0.000245471
9.29599e-07
0.000245374
9.89199e-07
0.000245275
1.04684e-06
0.000245176
1.10218e-06
0.000245081
1.15414e-06
0.000244991
1.20085e-06
0.000244911
1.23962e-06
0.000244843
1.26726e-06
0.000244792
1.2805e-06
0.000244758
1.27683e-06
0.000244741
1.25522e-06
1.21707e-06
0.00024474
0.000252866
2.21699e-07
0.000252826
3.8876e-07
0.000252774
5.24571e-07
0.000252711
6.34491e-07
0.000252639
7.29004e-07
0.00025256
8.12336e-07
0.000252475
8.87815e-07
0.000252386
9.57577e-07
0.000252292
1.02295e-06
0.000252197
1.08459e-06
0.000252101
1.14245e-06
0.000252008
1.19579e-06
0.000251919
1.2431e-06
0.000251837
1.28219e-06
0.000251767
1.31031e-06
0.000251709
1.32462e-06
0.000251667
1.32275e-06
0.00025164
1.30348e-06
0.000251628
1.26731e-06
1.21684e-06
0.000251628
0.000259878
2.44343e-07
0.000259838
4.28517e-07
0.000259785
5.77704e-07
0.000259722
6.98251e-07
0.000259649
8.01378e-07
0.00025957
8.91728e-07
0.000259485
9.72803e-07
0.000259396
1.04677e-06
0.000259304
1.11484e-06
0.000259211
1.17744e-06
0.000259119
1.23423e-06
0.000259031
1.28412e-06
0.000258949
1.32533e-06
0.000258875
1.35554e-06
0.000258813
1.37227e-06
0.000258765
1.3733e-06
0.00025873
1.35728e-06
0.000258709
1.32422e-06
0.000258701
1.27578e-06
1.21528e-06
0.000258702
0.000267085
2.67318e-07
0.000267045
4.68851e-07
0.000266991
6.31493e-07
0.000266927
7.62647e-07
0.000266854
8.74226e-07
0.000266774
9.71288e-07
0.00026669
1.05748e-06
0.000266602
1.13498e-06
0.000266512
1.20488e-06
0.000266422
1.26737e-06
0.000266334
1.32184e-06
0.000266251
1.36697e-06
0.000266176
1.40085e-06
0.00026611
1.42131e-06
0.000266056
1.42631e-06
0.000266015
1.41443e-06
0.000265987
1.38537e-06
0.000265971
1.34018e-06
0.000265965
1.28132e-06
1.21255e-06
0.000265968
0.000274492
2.90607e-07
0.000274452
5.09713e-07
0.000274397
6.85858e-07
0.000274332
8.27557e-07
0.000274259
9.47382e-07
0.00027418
1.0508e-06
0.000274096
1.14158e-06
0.000274009
1.2219e-06
0.000273921
1.29271e-06
0.000273834
1.35401e-06
0.000273751
1.405e-06
0.000273674
1.44422e-06
0.000273605
1.46982e-06
0.000273546
1.47996e-06
0.000273499
1.47321e-06
0.000273465
1.44902e-06
0.000273442
1.40804e-06
0.00027343
1.35218e-06
0.000273427
1.28446e-06
1.20879e-06
0.000273431
0.000282105
3.14161e-07
0.000282064
5.51027e-07
0.000282009
7.4069e-07
0.000281943
8.92836e-07
0.00028187
1.02066e-06
0.000281791
1.13001e-06
0.000281708
1.22481e-06
0.000281622
1.30719e-06
0.000281537
1.37799e-06
0.000281454
1.43708e-06
0.000281376
1.48351e-06
0.000281304
1.51584e-06
0.000281241
1.53245e-06
0.000281189
1.53196e-06
0.000281149
1.51367e-06
0.00028112
1.4779e-06
0.000281102
1.42613e-06
0.000281093
1.3609e-06
0.000281092
1.28558e-06
1.20412e-06
0.000281097
0.000289929
3.37957e-07
0.000289887
5.92734e-07
0.000289832
7.95892e-07
0.000289766
9.58339e-07
0.000289693
1.09386e-06
0.000289614
1.2087e-06
0.000289532
1.30689e-06
0.000289449
1.39054e-06
0.000289366
1.46043e-06
0.000289287
1.5163e-06
0.000289213
1.55721e-06
0.000289147
1.58186e-06
0.000289091
1.58898e-06
0.000289045
1.5778e-06
0.00028901
1.54837e-06
0.000288987
1.5018e-06
0.000288972
1.44028e-06
0.000288966
1.36683e-06
0.000288967
1.285e-06
1.19864e-06
0.000288972
0.000297969
3.61937e-07
0.000297927
6.34739e-07
0.000297872
8.51334e-07
0.000297806
1.0239e-06
0.000297733
1.16677e-06
0.000297655
1.2866e-06
0.000297575
1.38752e-06
0.000297494
1.47166e-06
0.000297414
1.53972e-06
0.000297339
1.59147e-06
0.00029727
1.62603e-06
0.00029721
1.64237e-06
0.000297159
1.63972e-06
0.000297119
1.61795e-06
0.000297089
1.57788e-06
0.00029707
1.52133e-06
0.000297059
1.45106e-06
0.000297056
1.37038e-06
0.000297058
1.28294e-06
1.19244e-06
0.000297064
0.000306233
3.8607e-07
0.000306191
6.7697e-07
0.000306135
9.069e-07
0.00030607
1.08935e-06
0.000305997
1.23919e-06
0.00030592
1.36347e-06
0.000305841
1.46644e-06
0.000305763
1.55025e-06
0.000305687
1.61565e-06
0.000305616
1.66242e-06
0.000305552
1.68993e-06
0.000305497
1.69752e-06
0.000305452
1.68497e-06
0.000305417
1.65287e-06
0.000305392
1.60272e-06
0.000305376
1.53701e-06
0.000305368
1.45888e-06
0.000305367
1.37188e-06
0.00030537
1.2796e-06
1.18559e-06
0.000305377
0.000314726
4.1029e-07
0.000314683
7.19318e-07
0.000314628
9.62443e-07
0.000314563
1.15451e-06
0.000314491
1.31089e-06
0.000314415
1.43905e-06
0.000314339
1.54336e-06
0.000314263
1.62607e-06
0.00031419
1.68797e-06
0.000314124
1.72904e-06
0.000314065
1.74892e-06
0.000314015
1.74746e-06
0.000313975
1.72504e-06
0.000313945
1.68296e-06
0.000313924
1.62338e-06
0.000313912
1.54928e-06
0.000313907
1.46413e-06
0.000313907
1.37157e-06
0.000313911
1.27513e-06
1.17815e-06
0.000313919
0.000323454
4.34559e-07
0.000323412
7.61697e-07
0.000323356
1.01783e-06
0.000323292
1.21919e-06
0.000323221
1.38165e-06
0.000323147
1.51308e-06
0.000323072
1.61804e-06
0.000323
1.69887e-06
0.000322931
1.75653e-06
0.000322869
1.79124e-06
0.000322815
1.80306e-06
0.00032277
1.79238e-06
0.000322735
1.76025e-06
0.000322709
1.70861e-06
0.000322692
1.64024e-06
0.000322683
1.55851e-06
0.00032268
1.46711e-06
0.000322682
1.36968e-06
0.000322687
1.26966e-06
1.17016e-06
0.000322695
0.000332425
4.588e-07
0.000332383
8.03981e-07
0.000332327
1.07289e-06
0.000332263
1.28319e-06
0.000332194
1.45124e-06
0.000332122
1.58532e-06
0.00033205
1.69021e-06
0.00033198
1.76842e-06
0.000331915
1.82116e-06
0.000331858
1.84898e-06
0.000331808
1.85242e-06
0.000331768
1.83248e-06
0.000331737
1.79089e-06
0.000331716
1.7302e-06
0.000331702
1.65367e-06
0.000331696
1.56502e-06
0.000331695
1.46805e-06
0.000331698
1.36638e-06
0.000331705
1.26328e-06
1.16167e-06
0.000331713
0.000341644
4.8297e-07
0.000341602
8.46073e-07
0.000341548
1.12749e-06
0.000341484
1.34632e-06
0.000341416
1.51942e-06
0.000341346
1.65552e-06
0.000341277
1.75964e-06
0.000341211
1.83456e-06
0.00034115
1.88176e-06
0.000341097
1.90225e-06
0.000341052
1.89712e-06
0.000341016
1.86799e-06
0.00034099
1.81725e-06
0.000340972
1.74803e-06
0.000340962
1.664e-06
0.000340958
1.56909e-06
0.000340959
1.46718e-06
0.000340963
1.3618e-06
0.000340971
1.25608e-06
1.15272e-06
0.00034098
0.000351119
5.06981e-07
0.000351078
8.87834e-07
0.000351024
1.18144e-06
0.000350962
1.40837e-06
0.000350895
1.58597e-06
0.000350827
1.72345e-06
0.000350761
1.82613e-06
0.000350698
1.8971e-06
0.000350642
1.93824e-06
0.000350593
1.95106e-06
0.000350553
1.93726e-06
0.000350522
1.89912e-06
0.000350499
1.83962e-06
0.000350485
1.7624e-06
0.000350477
1.67148e-06
0.000350476
1.57095e-06
0.000350478
1.46467e-06
0.000350484
1.35608e-06
0.000350492
1.24814e-06
1.14332e-06
0.000350501
0.000360857
5.30787e-07
0.000360816
9.29157e-07
0.000360763
1.23459e-06
0.000360702
1.46914e-06
0.000360638
1.65067e-06
0.000360572
1.78888e-06
0.000360509
1.88947e-06
0.00036045
1.95591e-06
0.000360398
1.99056e-06
0.000360353
1.99547e-06
0.000360317
1.973e-06
0.000360291
1.92607e-06
0.000360272
1.85824e-06
0.000360261
1.77359e-06
0.000360256
1.67638e-06
0.000360256
1.57079e-06
0.00036026
1.46067e-06
0.000360267
1.34932e-06
0.000360275
1.2395e-06
1.13352e-06
0.000360285
0.000370865
5.54291e-07
0.000370825
9.69891e-07
0.000370773
1.28674e-06
0.000370713
1.52841e-06
0.000370651
1.71328e-06
0.000370588
1.8516e-06
0.000370528
1.94948e-06
0.000370473
2.01088e-06
0.000370425
2.03866e-06
0.000370385
2.03553e-06
0.000370353
2.00448e-06
0.00037033
1.94907e-06
0.000370315
1.87337e-06
0.000370307
1.78182e-06
0.000370305
1.67889e-06
0.000370307
1.56881e-06
0.000370312
1.45532e-06
0.00037032
1.3416e-06
0.000370329
1.23023e-06
1.12334e-06
0.000370339
0.000381151
5.77444e-07
0.000381111
1.00992e-06
0.00038106
1.33775e-06
0.000381003
1.58599e-06
0.000380942
1.7736e-06
0.000380883
1.91141e-06
0.000380826
2.00603e-06
0.000380775
2.06192e-06
0.000380731
2.08257e-06
0.000380695
2.07133e-06
0.000380668
2.03186e-06
0.000380649
1.96831e-06
0.000380637
1.88522e-06
0.000380631
1.78733e-06
0.000380631
1.67923e-06
0.000380635
1.56515e-06
0.000380641
1.44873e-06
0.00038065
1.333e-06
0.00038066
1.22037e-06
1.11278e-06
0.00038067
0.000391722
6.0014e-07
0.000391683
1.04909e-06
0.000391633
1.3874e-06
0.000391578
1.64166e-06
0.00039152
1.83141e-06
0.000391463
1.96812e-06
0.00039141
2.05895e-06
0.000391363
2.10896e-06
0.000391324
2.12229e-06
0.000391292
2.10297e-06
0.000391268
2.0553e-06
0.000391253
1.984e-06
0.000391244
1.89401e-06
0.000391241
1.7903e-06
0.000391243
1.67755e-06
0.000391248
1.55994e-06
0.000391256
1.441e-06
0.000391265
1.32359e-06
0.000391275
1.20996e-06
1.10188e-06
0.000391286
0.000402586
6.22332e-07
0.000402548
1.08729e-06
0.0004025
1.43554e-06
0.000402447
1.69524e-06
0.000402391
1.88654e-06
0.000402338
2.02158e-06
0.000402289
2.10815e-06
0.000402246
2.15196e-06
0.00040221
2.15785e-06
0.000402183
2.13054e-06
0.000402163
2.07496e-06
0.000402151
1.99633e-06
0.000402145
1.89993e-06
0.000402144
1.79092e-06
0.000402148
1.67401e-06
0.000402154
1.5533e-06
0.000402163
1.43221e-06
0.000402173
1.31343e-06
0.000402184
1.19904e-06
1.09064e-06
0.000402195
0.000413752
6.43906e-07
0.000413715
1.12434e-06
0.000413669
1.48198e-06
0.000413617
1.74653e-06
0.000413565
1.93879e-06
0.000413515
2.07163e-06
0.00041347
2.15353e-06
0.000413431
2.19091e-06
0.000413399
2.18932e-06
0.000413376
2.15417e-06
0.00041336
2.091e-06
0.00041335
2.00547e-06
0.000413347
1.90316e-06
0.000413349
1.78935e-06
0.000413354
1.66874e-06
0.000413362
1.54535e-06
0.000413372
1.42244e-06
0.000413383
1.30256e-06
0.000413394
1.18762e-06
1.07909e-06
0.000413406
0.000425227
6.64818e-07
0.000425192
1.16013e-06
0.000425147
1.52658e-06
0.000425098
1.79535e-06
0.000425049
1.988e-06
0.000425002
2.11815e-06
0.000424961
2.19504e-06
0.000424926
2.22581e-06
0.000424899
2.21676e-06
0.000424879
2.17399e-06
0.000424866
2.10358e-06
0.00042486
2.01161e-06
0.000424859
1.90387e-06
0.000424863
1.78573e-06
0.00042487
1.66186e-06
0.000424879
1.53616e-06
0.00042489
1.41176e-06
0.000424901
1.29103e-06
0.000424913
1.17575e-06
1.06723e-06
0.000424925
0.000437021
6.8495e-07
0.000436987
1.19451e-06
0.000436944
1.56912e-06
0.000436898
1.84152e-06
0.000436852
2.03401e-06
0.000436809
2.16103e-06
0.000436771
2.2326e-06
0.000436741
2.25666e-06
0.000436717
2.24025e-06
0.000436701
2.19011e-06
0.000436692
2.11286e-06
0.000436688
2.01489e-06
0.00043669
1.90221e-06
0.000436696
1.78021e-06
0.000436704
1.65349e-06
0.000436714
1.52583e-06
0.000436726
1.40022e-06
0.000436738
1.27889e-06
0.00043675
1.16344e-06
1.05509e-06
0.000436762
0.000449142
7.04264e-07
0.000449109
1.22736e-06
0.000449068
1.60949e-06
0.000449025
1.8849e-06
0.000448982
2.0767e-06
0.000448943
2.20018e-06
0.00044891
2.26621e-06
0.000448883
2.28351e-06
0.000448863
2.25988e-06
0.000448851
2.20268e-06
0.000448844
2.11898e-06
0.000448844
2.01549e-06
0.000448848
1.89833e-06
0.000448855
1.77289e-06
0.000448865
1.64371e-06
0.000448876
1.51444e-06
0.000448889
1.38789e-06
0.000448901
1.26616e-06
0.000448914
1.15073e-06
1.04266e-06
0.000448926
0.000461598
7.22639e-07
0.000461567
1.25852e-06
0.000461529
1.6475e-06
0.000461489
1.92532e-06
0.00046145
2.11594e-06
0.000461414
2.23553e-06
0.000461385
2.29584e-06
0.000461362
2.30641e-06
0.000461346
2.27575e-06
0.000461337
2.21182e-06
0.000461334
2.1221e-06
0.000461336
2.01354e-06
0.000461342
1.89235e-06
0.000461351
1.76391e-06
0.000461362
1.63263e-06
0.000461374
1.50205e-06
0.000461387
1.37482e-06
0.0004614
1.25289e-06
0.000461414
1.13762e-06
1.02997e-06
0.000461426
0.000474401
7.40049e-07
0.000474371
1.28791e-06
0.000474336
1.68305e-06
0.000474299
1.96267e-06
0.000474263
2.15163e-06
0.000474231
2.26704e-06
0.000474206
2.32151e-06
0.000474187
2.32542e-06
0.000474175
2.28797e-06
0.000474169
2.21766e-06
0.000474168
2.12235e-06
0.000474173
2.00918e-06
0.000474181
1.88441e-06
0.000474191
1.75335e-06
0.000474204
1.62033e-06
0.000474217
1.48871e-06
0.000474231
1.36104e-06
0.000474245
1.2391e-06
0.000474258
1.12415e-06
1.01702e-06
0.000474271
0.000487558
7.5637e-07
0.000487531
1.31537e-06
0.000487498
1.71596e-06
0.000487464
1.99681e-06
0.000487432
2.18368e-06
0.000487404
2.29465e-06
0.000487382
2.34323e-06
0.000487367
2.34061e-06
0.000487358
2.29665e-06
0.000487356
2.22035e-06
0.000487358
2.11989e-06
0.000487365
2.00254e-06
0.000487375
1.87461e-06
0.000487387
1.74132e-06
0.0004874
1.60687e-06
0.000487414
1.47451e-06
0.000487429
1.3466e-06
0.000487443
1.22483e-06
0.000487457
1.11032e-06
1.00383e-06
0.00048747
0.000501081
7.71593e-07
0.000501055
1.34083e-06
0.000501025
1.74616e-06
0.000500994
2.02766e-06
0.000500966
2.21206e-06
0.000500942
2.31838e-06
0.000500924
2.36106e-06
0.000500913
2.35207e-06
0.000500908
2.3019e-06
0.000500908
2.22001e-06
0.000500913
2.11483e-06
0.000500922
1.99375e-06
0.000500933
1.86306e-06
0.000500947
1.7279e-06
0.000500961
1.59234e-06
0.000500976
1.45947e-06
0.000500991
1.33154e-06
0.000501006
1.2101e-06
0.00050102
1.09617e-06
9.90397e-07
0.000501034
0.000514978
7.85596e-07
0.000514955
1.36414e-06
0.000514927
1.77351e-06
0.0005149
2.05511e-06
0.000514875
2.23668e-06
0.000514855
2.33821e-06
0.000514841
2.37504e-06
0.000514834
2.35989e-06
0.000514832
2.30385e-06
0.000514835
2.21677e-06
0.000514842
2.10731e-06
0.000514853
1.98293e-06
0.000514866
1.84987e-06
0.000514881
1.71318e-06
0.000514897
1.57679e-06
0.000514913
1.44366e-06
0.000514928
1.31589e-06
0.000514943
1.19493e-06
0.000514958
1.08169e-06
9.76742e-07
0.000514972
0.000529261
7.98384e-07
0.00052924
1.38528e-06
0.000529215
1.79794e-06
0.000529191
2.07912e-06
0.00052917
2.25755e-06
0.000529154
2.35419e-06
0.000529144
2.38524e-06
0.00052914
2.36417e-06
0.000529141
2.30262e-06
0.000529147
2.21077e-06
0.000529157
2.09746e-06
0.00052917
1.97018e-06
0.000529185
1.83513e-06
0.0005292
1.69723e-06
0.000529217
1.56029e-06
0.000529234
1.42712e-06
0.00052925
1.2997e-06
0.000529265
1.17935e-06
0.00052928
1.06692e-06
9.62872e-07
0.000529294
0.00054394
8.09844e-07
0.000543921
1.4041e-06
0.000543899
1.81936e-06
0.000543879
2.09962e-06
0.000543862
2.27464e-06
0.00054385
2.36632e-06
0.000543843
2.39174e-06
0.000543842
2.36503e-06
0.000543847
2.29833e-06
0.000543855
2.20213e-06
0.000543867
2.08539e-06
0.000543882
1.95562e-06
0.000543898
1.81893e-06
0.000543915
1.68013e-06
0.000543933
1.5429e-06
0.00054395
1.40989e-06
0.000543967
1.28298e-06
0.000543983
1.16339e-06
0.000543998
1.05186e-06
9.48797e-07
0.000544012
0.000559026
8.19997e-07
0.000559009
1.4206e-06
0.000558991
1.83773e-06
0.000558974
2.11661e-06
0.000558961
2.28799e-06
0.000558952
2.37469e-06
0.000558949
2.39463e-06
0.000558952
2.36258e-06
0.000558959
2.29111e-06
0.00055897
2.19097e-06
0.000558984
2.07122e-06
0.000559001
1.93934e-06
0.000559018
1.80136e-06
0.000559036
1.66195e-06
0.000559055
1.52466e-06
0.000559072
1.39201e-06
0.00055909
1.26577e-06
0.000559106
1.14706e-06
0.000559121
1.03653e-06
9.34528e-07
0.000559136
0.00057453
8.2874e-07
0.000574516
1.43467e-06
0.000574501
1.85299e-06
0.000574487
2.13005e-06
0.000574478
2.29759e-06
0.000574473
2.37935e-06
0.000574474
2.394e-06
0.000574479
2.35693e-06
0.000574489
2.28109e-06
0.000574503
2.17743e-06
0.000574519
2.05506e-06
0.000574537
1.92145e-06
0.000574556
1.78249e-06
0.000574575
1.64276e-06
0.000574594
1.50563e-06
0.000574612
1.37353e-06
0.00057463
1.24811e-06
0.000574647
1.13038e-06
0.000574662
1.02094e-06
9.20074e-07
0.000574677
0.000590464
8.36114e-07
0.000590453
1.44633e-06
0.000590441
1.86514e-06
0.000590431
2.13997e-06
0.000590425
2.30351e-06
0.000590424
2.38038e-06
0.000590428
2.38998e-06
0.000590436
2.34822e-06
0.000590449
2.26839e-06
0.000590465
2.16161e-06
0.000590483
2.03703e-06
0.000590502
1.90203e-06
0.000590523
1.76241e-06
0.000590543
1.6226e-06
0.000590562
1.48586e-06
0.000590581
1.35448e-06
0.0005906
1.23001e-06
0.000590617
1.11338e-06
0.000590632
1.00512e-06
9.05445e-07
0.000590647
0.00060684
8.42025e-07
0.000606831
1.45548e-06
0.000606822
1.87413e-06
0.000606816
2.14636e-06
0.000606814
2.3058e-06
0.000606816
2.37787e-06
0.000606823
2.38266e-06
0.000606835
2.33655e-06
0.00060685
2.25314e-06
0.000606868
2.14365e-06
0.000606888
2.01722e-06
0.000606909
1.88118e-06
0.00060693
1.74119e-06
0.000606951
1.60156e-06
0.000606972
1.4654e-06
0.000606991
1.3349e-06
0.00060701
1.21151e-06
0.000607027
1.09608e-06
0.000607043
9.89067e-07
8.90653e-07
0.000607058
0.000623671
8.46537e-07
0.000623664
1.46219e-06
0.000623658
1.88002e-06
0.000623655
2.14931e-06
0.000623656
2.30455e-06
0.000623662
2.37194e-06
0.000623673
2.37218e-06
0.000623687
2.32208e-06
0.000623705
2.23547e-06
0.000623725
2.12365e-06
0.000623747
1.99575e-06
0.000623769
1.85898e-06
0.000623791
1.7189e-06
0.000623813
1.57967e-06
0.000623834
1.44429e-06
0.000623854
1.31482e-06
0.000623873
1.19263e-06
0.000623891
1.07849e-06
0.000623907
9.72806e-07
8.75707e-07
0.000623922
0.000640968
8.49564e-07
0.000640963
1.4664e-06
0.000640961
1.88278e-06
0.000640961
2.14882e-06
0.000640966
2.29982e-06
0.000640975
2.36267e-06
0.000640989
2.35865e-06
0.000641006
2.30492e-06
0.000641026
2.2155e-06
0.000641048
2.10173e-06
0.000641071
1.9727e-06
0.000641094
1.83552e-06
0.000641118
1.69561e-06
0.00064114
1.557e-06
0.000641162
1.42257e-06
0.000641182
1.29428e-06
0.000641202
1.17339e-06
0.00064122
1.06064e-06
0.000641236
9.5635e-07
8.60617e-07
0.000641251
0.000658744
8.51198e-07
0.000658742
1.46818e-06
0.000658743
1.88252e-06
0.000658747
2.14502e-06
0.000658755
2.29174e-06
0.000658767
2.35022e-06
0.000658784
2.34222e-06
0.000658803
2.28522e-06
0.000658825
2.19335e-06
0.000658849
2.07801e-06
0.000658874
1.94819e-06
0.000658898
1.81088e-06
0.000658923
1.67139e-06
0.000658946
1.5336e-06
0.000658968
1.40028e-06
0.000658989
1.2733e-06
0.000659009
1.15383e-06
0.000659027
1.04254e-06
0.000659043
9.39712e-07
8.45396e-07
0.000659059
0.000677014
8.5136e-07
0.000677014
1.4675e-06
0.000677018
1.87922e-06
0.000677025
2.13795e-06
0.000677036
2.2804e-06
0.000677052
2.3347e-06
0.000677071
2.32302e-06
0.000677093
2.26309e-06
0.000677117
2.16916e-06
0.000677143
2.05259e-06
0.000677168
1.92229e-06
0.000677194
1.78514e-06
0.000677219
1.6463e-06
0.000677243
1.50953e-06
0.000677266
1.37748e-06
0.000677288
1.25193e-06
0.000677307
1.13397e-06
0.000677326
1.02422e-06
0.000677343
9.22907e-07
8.30054e-07
0.000677358
0.00069579
8.50168e-07
0.000695793
1.46447e-06
0.000695799
1.87303e-06
0.000695809
2.12774e-06
0.000695824
2.26594e-06
0.000695842
2.31625e-06
0.000695864
2.30119e-06
0.000695888
2.23869e-06
0.000695915
2.14305e-06
0.000695942
2.02559e-06
0.000695969
1.89512e-06
0.000695996
1.75838e-06
0.000696021
1.62041e-06
0.000696046
1.48483e-06
0.000696069
1.35419e-06
0.000696091
1.23019e-06
0.000696111
1.11383e-06
0.00069613
1.00569e-06
0.000696147
9.0595e-07
8.14601e-07
0.000696162
0.000715086
8.4755e-07
0.000715092
1.45908e-06
0.000715101
1.86396e-06
0.000715114
2.11448e-06
0.000715132
2.24847e-06
0.000715153
2.295e-06
0.000715177
2.27687e-06
0.000715204
2.21214e-06
0.000715232
2.11513e-06
0.00071526
1.9971e-06
0.000715289
1.86675e-06
0.000715316
1.73067e-06
0.000715343
1.59377e-06
0.000715368
1.45955e-06
0.000715392
1.33047e-06
0.000715414
1.20811e-06
0.000715434
1.09344e-06
0.000715453
9.86971e-07
0.00071547
8.88856e-07
7.99051e-07
0.000715486
0.000734918
8.43644e-07
0.000734926
1.45147e-06
0.000734938
1.85218e-06
0.000734954
2.09831e-06
0.000734974
2.22817e-06
0.000734998
2.27112e-06
0.000735025
2.25021e-06
0.000735053
2.18358e-06
0.000735083
2.08554e-06
0.000735113
1.96724e-06
0.000735142
1.83727e-06
0.000735171
1.70209e-06
0.000735198
1.56644e-06
0.000735224
1.43375e-06
0.000735248
1.30633e-06
0.000735271
1.18572e-06
0.000735291
1.07282e-06
0.00073531
9.68085e-07
0.000735327
8.71639e-07
7.83413e-07
0.000735343
0.0007553
8.38388e-07
0.00075531
1.44164e-06
0.000755324
1.83772e-06
0.000755343
2.07935e-06
0.000755366
2.20513e-06
0.000755393
2.24474e-06
0.000755421
2.22134e-06
0.000755452
2.15314e-06
0.000755483
2.05438e-06
0.000755514
1.93611e-06
0.000755545
1.80678e-06
0.000755574
1.6727e-06
0.000755602
1.5385e-06
0.000755628
1.40746e-06
0.000755653
1.28183e-06
0.000755675
1.16306e-06
0.000755696
1.052e-06
0.000755715
9.49049e-07
0.000755733
8.54315e-07
7.67701e-07
0.000755748
0.000776247
8.31937e-07
0.000776259
1.42975e-06
0.000776276
1.82078e-06
0.000776297
2.05776e-06
0.000776323
2.17956e-06
0.000776351
2.21603e-06
0.000776382
2.19043e-06
0.000776415
2.12096e-06
0.000776447
2.02178e-06
0.00077648
1.90381e-06
0.000776511
1.77535e-06
0.000776541
1.64258e-06
0.00077657
1.50998e-06
0.000776596
1.38074e-06
0.000776621
1.25701e-06
0.000776644
1.14016e-06
0.000776665
1.031e-06
0.000776684
9.29883e-07
0.000776702
8.36898e-07
7.51925e-07
0.000776717
0.000797774
8.24235e-07
0.000797788
1.41584e-06
0.000797808
1.80141e-06
0.000797832
2.03365e-06
0.00079786
2.15157e-06
0.000797891
2.18512e-06
0.000797923
2.1576e-06
0.000797957
2.08716e-06
0.000797991
1.98785e-06
0.000798025
1.87044e-06
0.000798057
1.74308e-06
0.000798088
1.61179e-06
0.000798117
1.48095e-06
0.000798144
1.35363e-06
0.000798169
1.23189e-06
0.000798192
1.11704e-06
0.000798213
1.00983e-06
0.000798232
9.10605e-07
0.00079825
8.19405e-07
7.36099e-07
0.000798266
0.000819899
8.15453e-07
0.000819915
1.40007e-06
0.000819936
1.77981e-06
0.000819963
2.00722e-06
0.000819993
2.12134e-06
0.000820026
2.15219e-06
0.00082006
2.12302e-06
0.000820096
2.05189e-06
0.000820131
1.95271e-06
0.000820165
1.83609e-06
0.000820198
1.71003e-06
0.00082023
1.58041e-06
0.000820259
1.45147e-06
0.000820287
1.32617e-06
0.000820312
1.20651e-06
0.000820335
1.09373e-06
0.000820357
9.88539e-07
0.000820376
8.91234e-07
0.000820393
8.01849e-07
7.20233e-07
0.000820409
0.000842637
8.05539e-07
0.000842654
1.38247e-06
0.000842678
1.75607e-06
0.000842707
1.97857e-06
0.000842739
2.08903e-06
0.000842774
2.11738e-06
0.00084281
2.08682e-06
0.000842847
2.01526e-06
0.000842883
1.91646e-06
0.000842918
1.80087e-06
0.000842952
1.6763e-06
0.000842984
1.5485e-06
0.000843014
1.42158e-06
0.000843041
1.29842e-06
0.000843067
1.18091e-06
0.00084309
1.07027e-06
0.000843112
9.67133e-07
0.000843131
8.7179e-07
0.000843149
7.84246e-07
7.04342e-07
0.000843165
0.000866005
7.94677e-07
0.000866024
1.36325e-06
0.00086605
1.73037e-06
0.000866081
1.94792e-06
0.000866115
2.0548e-06
0.000866151
2.08087e-06
0.000866189
2.04915e-06
0.000866227
1.97741e-06
0.000866264
1.87922e-06
0.0008663
1.76485e-06
0.000866335
1.64195e-06
0.000866367
1.51611e-06
0.000866397
1.39134e-06
0.000866425
1.2704e-06
0.000866451
1.15513e-06
0.000866475
1.04667e-06
0.000866496
9.4564e-07
0.000866516
8.5229e-07
0.000866533
7.66612e-07
6.88437e-07
0.000866549
0.000890021
7.82815e-07
0.000890042
1.34244e-06
0.00089007
1.70282e-06
0.000890102
1.91538e-06
0.000890138
2.01881e-06
0.000890176
2.04278e-06
0.000890215
2.01014e-06
0.000890254
1.93846e-06
0.000890292
1.8411e-06
0.000890329
1.72814e-06
0.000890364
1.60707e-06
0.000890397
1.48333e-06
0.000890427
1.3608e-06
0.000890456
1.24217e-06
0.000890482
1.1292e-06
0.000890505
1.02298e-06
0.000890527
9.24084e-07
0.000890546
8.32753e-07
0.000890564
7.48962e-07
6.7253e-07
0.00089058
0.000914704
7.70147e-07
0.000914726
1.32023e-06
0.000914755
1.67362e-06
0.000914789
1.88115e-06
0.000914827
1.98123e-06
0.000914866
2.00329e-06
0.000914907
1.96994e-06
0.000914947
1.89853e-06
0.000914986
1.8022e-06
0.000915023
1.69082e-06
0.000915058
1.57172e-06
0.000915091
1.4502e-06
0.000915122
1.33002e-06
0.000915151
1.21377e-06
0.000915177
1.10315e-06
0.0009152
9.99203e-07
0.000915222
9.02484e-07
0.000915242
8.13198e-07
0.000915259
7.3131e-07
6.56634e-07
0.000915275
0.00094007
7.56621e-07
0.000940094
1.29669e-06
0.000940125
1.64287e-06
0.00094016
1.84536e-06
0.000940199
1.94221e-06
0.00094024
1.96253e-06
0.000940281
1.92868e-06
0.000940322
1.85773e-06
0.000940362
1.76261e-06
0.0009404
1.65298e-06
0.000940435
1.53599e-06
0.000940469
1.41678e-06
0.0009405
1.29903e-06
0.000940528
1.18523e-06
0.000940555
1.07701e-06
0.000940578
9.75385e-07
0.0009406
8.80866e-07
0.00094062
7.93643e-07
0.000940637
7.13673e-07
6.40761e-07
0.000940653
0.00096614
7.42435e-07
0.000966165
1.272e-06
0.000966197
1.61076e-06
0.000966234
1.8082e-06
0.000966275
1.90191e-06
0.000966317
1.92066e-06
0.000966359
1.88649e-06
0.0009664
1.8162e-06
0.00096644
1.72244e-06
0.000966479
1.6147e-06
0.000966515
1.49993e-06
0.000966548
1.38314e-06
0.00096658
1.26789e-06
0.000966608
1.15659e-06
0.000966634
1.05083e-06
0.000966658
9.51545e-07
0.00096668
8.59248e-07
0.000966699
7.74106e-07
0.000966717
6.96064e-07
6.24924e-07
0.000966733
0.000992933
7.27537e-07
0.000992959
1.2462e-06
0.000992992
1.5774e-06
0.000993031
1.7698e-06
0.000993072
1.86048e-06
0.000993115
1.87782e-06
0.000993158
1.8435e-06
0.0009932
1.77402e-06
0.000993241
1.68179e-06
0.000993279
1.57606e-06
0.000993316
1.46361e-06
0.00099335
1.34933e-06
0.000993381
1.23664e-06
0.00099341
1.1279e-06
0.000993436
1.02462e-06
0.00099346
9.27712e-07
0.000993481
8.37656e-07
0.000993501
7.54606e-07
0.000993518
6.78499e-07
6.09136e-07
0.000993534
0.00102047
7.12122e-07
0.0010205
1.21951e-06
0.00102053
1.54297e-06
0.00102057
1.73033e-06
0.00102061
1.81808e-06
0.00102066
1.83414e-06
0.0010207