/*--------------------------------*- C++ -*----------------------------------*\
| =========                 |                                                 |
| \\      /  F ield         | OpenFOAM: The Open Source CFD Toolbox           |
|  \\    /   O peration     | Version:  2.4.0                                 |
|   \\  /    A nd           | Web:      www.OpenFOAM.org                      |
|    \\/     M anipulation  |                                                 |
\*---------------------------------------------------------------------------*/
FoamFile
{
    version     2.0;
    format      ascii;
    class       volScalarField;
    location    "0.37";
    object      nut;
}
// * * * * * * * * * * * * * * * * * * * * * * * * * * * * * * * * * * * * * //

dimensions      [0 2 -1 0 0 0 0];

internalField   nonuniform List<scalar> 
6000
(
2.40581e-05
2.70589e-05
2.95828e-05
3.16183e-05
3.3191e-05
3.43496e-05
3.51537e-05
3.56664e-05
3.59492e-05
3.60581e-05
3.6042e-05
3.59419e-05
3.57912e-05
3.56163e-05
3.54363e-05
3.52641e-05
3.51063e-05
3.4965e-05
3.48393e-05
3.47267e-05
3.46247e-05
3.45316e-05
3.44469e-05
3.43705e-05
3.4303e-05
3.42449e-05
3.41965e-05
3.41576e-05
3.41275e-05
3.41052e-05
3.40891e-05
3.40779e-05
3.407e-05
3.40641e-05
3.40592e-05
3.40545e-05
3.40494e-05
3.40432e-05
3.40356e-05
3.4026e-05
3.40137e-05
3.3998e-05
3.39778e-05
3.39519e-05
3.39185e-05
3.38754e-05
3.38198e-05
3.37481e-05
3.36554e-05
3.35353e-05
3.33795e-05
3.31766e-05
3.29113e-05
3.25622e-05
3.20991e-05
3.14755e-05
3.06301e-05
2.94382e-05
2.78659e-05
2.52726e-05
4.52336e-05
3.94811e-05
3.46739e-05
3.09941e-05
2.83853e-05
2.6659e-05
2.56041e-05
2.50483e-05
2.48667e-05
2.49708e-05
2.52956e-05
2.579e-05
2.64091e-05
2.71101e-05
2.78496e-05
2.85855e-05
2.92792e-05
2.99001e-05
3.04271e-05
3.08495e-05
3.11642e-05
3.13733e-05
3.14816e-05
3.14967e-05
3.14298e-05
3.1296e-05
3.11145e-05
3.09067e-05
3.06935e-05
3.04923e-05
3.03152e-05
3.01687e-05
3.00539e-05
2.99684e-05
2.99076e-05
2.98663e-05
2.98394e-05
2.9823e-05
2.98141e-05
2.98109e-05
2.98123e-05
2.98177e-05
2.98273e-05
2.98415e-05
2.98613e-05
2.98881e-05
2.99244e-05
2.99733e-05
3.00395e-05
3.013e-05
3.02551e-05
3.04299e-05
3.06782e-05
3.10374e-05
3.15691e-05
3.23785e-05
3.36583e-05
3.57662e-05
3.91966e-05
4.7553e-05
4.98371e-05
4.86949e-05
4.71851e-05
4.52935e-05
4.30849e-05
4.0699e-05
3.82863e-05
3.59677e-05
3.38258e-05
3.1908e-05
3.02344e-05
2.88071e-05
2.76162e-05
2.66442e-05
2.58686e-05
2.52635e-05
2.48015e-05
2.44557e-05
2.42019e-05
2.40195e-05
2.38928e-05
2.38108e-05
2.37661e-05
2.37534e-05
2.3768e-05
2.38043e-05
2.3855e-05
2.39118e-05
2.3966e-05
2.40099e-05
2.40386e-05
2.40499e-05
2.40453e-05
2.40282e-05
2.40031e-05
2.39742e-05
2.39445e-05
2.39155e-05
2.38874e-05
2.38597e-05
2.38309e-05
2.37994e-05
2.37631e-05
2.37198e-05
2.36669e-05
2.36015e-05
2.35202e-05
2.34193e-05
2.32949e-05
2.31431e-05
2.29612e-05
2.27491e-05
2.2512e-05
2.22667e-05
2.2052e-05
2.19535e-05
2.21476e-05
2.3015e-05
2.52805e-05
3.09372e-05
5.00841e-05
4.95483e-05
4.89993e-05
4.84048e-05
4.77344e-05
4.69683e-05
4.61001e-05
4.51352e-05
4.40894e-05
4.2985e-05
4.18471e-05
4.07009e-05
3.95686e-05
3.84687e-05
3.74144e-05
3.64143e-05
3.54733e-05
3.45939e-05
3.37778e-05
3.30279e-05
3.23488e-05
3.17476e-05
3.12338e-05
3.08183e-05
3.05112e-05
3.03185e-05
3.02386e-05
3.026e-05
3.03618e-05
3.05164e-05
3.0694e-05
3.08684e-05
3.10201e-05
3.11389e-05
3.12223e-05
3.12735e-05
3.12984e-05
3.13031e-05
3.12921e-05
3.12682e-05
3.12325e-05
3.11842e-05
3.11211e-05
3.10397e-05
3.09352e-05
3.08011e-05
3.06291e-05
3.04084e-05
3.01255e-05
2.9763e-05
2.92992e-05
2.87072e-05
2.79546e-05
2.70044e-05
2.5819e-05
2.43846e-05
2.27316e-05
2.11714e-05
2.02237e-05
2.16885e-05
5.00958e-05
4.96032e-05
4.91474e-05
4.87184e-05
4.83057e-05
4.78992e-05
4.74897e-05
4.70691e-05
4.66316e-05
4.61738e-05
4.56948e-05
4.51963e-05
4.46816e-05
4.41557e-05
4.3624e-05
4.30924e-05
4.25666e-05
4.20523e-05
4.15558e-05
4.10839e-05
4.06447e-05
4.02474e-05
3.9903e-05
3.96232e-05
3.94196e-05
3.93017e-05
3.92732e-05
3.93304e-05
3.94607e-05
3.96443e-05
3.98572e-05
4.00761e-05
4.02812e-05
4.04597e-05
4.06049e-05
4.0716e-05
4.07959e-05
4.08488e-05
4.08796e-05
4.0892e-05
4.08889e-05
4.08714e-05
4.08398e-05
4.07928e-05
4.07278e-05
4.06406e-05
4.05253e-05
4.03734e-05
4.0173e-05
3.99077e-05
3.95539e-05
3.90776e-05
3.84289e-05
3.75325e-05
3.62719e-05
3.44793e-05
3.18903e-05
2.84242e-05
2.39371e-05
2.10431e-05
5.00963e-05
4.96062e-05
4.91573e-05
4.87436e-05
4.83595e-05
4.80003e-05
4.76613e-05
4.73383e-05
4.70273e-05
4.67249e-05
4.64283e-05
4.61351e-05
4.58442e-05
4.5555e-05
4.52678e-05
4.49839e-05
4.47054e-05
4.44356e-05
4.41788e-05
4.39403e-05
4.37263e-05
4.35437e-05
4.33997e-05
4.33013e-05
4.32542e-05
4.3262e-05
4.3325e-05
4.34389e-05
4.35949e-05
4.37806e-05
4.39813e-05
4.41826e-05
4.43721e-05
4.45411e-05
4.46848e-05
4.48017e-05
4.48929e-05
4.49612e-05
4.501e-05
4.50425e-05
4.50616e-05
4.50696e-05
4.50679e-05
4.50572e-05
4.50374e-05
4.50077e-05
4.49661e-05
4.49095e-05
4.48333e-05
4.47305e-05
4.45907e-05
4.43976e-05
4.41248e-05
4.37276e-05
4.3125e-05
4.21664e-05
4.05316e-05
3.77289e-05
3.25343e-05
2.64825e-05
5.00962e-05
4.96062e-05
4.91577e-05
4.8745e-05
4.83636e-05
4.80094e-05
4.7679e-05
4.73695e-05
4.7078e-05
4.68024e-05
4.65405e-05
4.62905e-05
4.6051e-05
4.58212e-05
4.56006e-05
4.53897e-05
4.51897e-05
4.50029e-05
4.48327e-05
4.46833e-05
4.45599e-05
4.44678e-05
4.4412e-05
4.43965e-05
4.44239e-05
4.44941e-05
4.46044e-05
4.47493e-05
4.49205e-05
4.51078e-05
4.53006e-05
4.54887e-05
4.56638e-05
4.582e-05
4.5954e-05
4.60649e-05
4.61537e-05
4.62225e-05
4.62741e-05
4.63115e-05
4.63374e-05
4.63542e-05
4.63636e-05
4.63672e-05
4.63657e-05
4.63596e-05
4.63488e-05
4.63328e-05
4.63105e-05
4.62802e-05
4.62387e-05
4.61814e-05
4.61e-05
4.59793e-05
4.57886e-05
4.54617e-05
4.48298e-05
4.35198e-05
4.02654e-05
3.44437e-05
5.00962e-05
4.96061e-05
4.91575e-05
4.87448e-05
4.83634e-05
4.80095e-05
4.768e-05
4.73719e-05
4.7083e-05
4.68112e-05
4.65547e-05
4.63121e-05
4.60821e-05
4.58641e-05
4.56578e-05
4.54636e-05
4.52828e-05
4.51175e-05
4.49709e-05
4.48473e-05
4.47512e-05
4.46875e-05
4.46605e-05
4.46732e-05
4.47268e-05
4.48199e-05
4.49485e-05
4.51063e-05
4.52846e-05
4.54741e-05
4.56651e-05
4.58489e-05
4.60185e-05
4.61693e-05
4.62986e-05
4.6406e-05
4.64925e-05
4.65601e-05
4.66117e-05
4.66499e-05
4.66774e-05
4.66966e-05
4.67094e-05
4.67175e-05
4.67219e-05
4.67236e-05
4.67231e-05
4.67208e-05
4.67169e-05
4.67115e-05
4.67044e-05
4.66954e-05
4.66839e-05
4.66679e-05
4.66414e-05
4.65867e-05
4.64438e-05
4.60441e-05
4.46447e-05
4.10615e-05
5.00962e-05
4.9606e-05
4.91573e-05
4.87444e-05
4.8363e-05
4.8009e-05
4.76794e-05
4.73714e-05
4.70827e-05
4.68113e-05
4.65555e-05
4.63139e-05
4.60854e-05
4.58694e-05
4.56656e-05
4.54747e-05
4.52977e-05
4.51371e-05
4.4996e-05
4.48786e-05
4.47894e-05
4.47332e-05
4.47141e-05
4.47348e-05
4.47961e-05
4.48962e-05
4.50307e-05
4.51928e-05
4.53739e-05
4.55646e-05
4.57555e-05
4.59382e-05
4.61063e-05
4.62554e-05
4.63832e-05
4.64893e-05
4.65748e-05
4.66419e-05
4.66932e-05
4.67315e-05
4.67593e-05
4.67791e-05
4.67929e-05
4.68022e-05
4.68084e-05
4.68125e-05
4.68151e-05
4.6817e-05
4.68187e-05
4.6821e-05
4.68247e-05
4.68312e-05
4.68425e-05
4.68614e-05
4.68916e-05
4.69353e-05
4.69822e-05
4.69812e-05
4.65892e-05
4.49892e-05
5.00962e-05
4.96059e-05
4.91571e-05
4.87442e-05
4.83626e-05
4.80085e-05
4.76788e-05
4.73708e-05
4.7082e-05
4.68105e-05
4.65547e-05
4.63131e-05
4.60848e-05
4.5869e-05
4.56657e-05
4.54752e-05
4.5299e-05
4.51393e-05
4.49993e-05
4.48832e-05
4.47956e-05
4.47412e-05
4.47241e-05
4.4747e-05
4.48104e-05
4.49124e-05
4.50486e-05
4.52121e-05
4.53941e-05
4.55852e-05
4.57761e-05
4.59586e-05
4.61264e-05
4.6275e-05
4.64023e-05
4.65079e-05
4.65932e-05
4.66601e-05
4.67112e-05
4.67494e-05
4.67773e-05
4.67973e-05
4.68113e-05
4.6821e-05
4.68276e-05
4.68323e-05
4.68358e-05
4.68388e-05
4.68421e-05
4.68466e-05
4.68534e-05
4.68644e-05
4.68825e-05
4.6912e-05
4.69599e-05
4.70357e-05
4.71482e-05
4.72978e-05
4.7349e-05
4.68965e-05
5.00962e-05
4.96059e-05
4.9157e-05
4.8744e-05
4.83623e-05
4.80081e-05
4.76783e-05
4.73702e-05
4.70813e-05
4.68097e-05
4.65538e-05
4.63122e-05
4.60838e-05
4.5868e-05
4.56647e-05
4.54743e-05
4.52981e-05
4.51386e-05
4.49989e-05
4.48831e-05
4.47959e-05
4.4742e-05
4.47255e-05
4.47489e-05
4.4813e-05
4.49157e-05
4.50524e-05
4.52163e-05
4.53986e-05
4.55899e-05
4.57808e-05
4.59633e-05
4.61309e-05
4.62793e-05
4.64064e-05
4.65119e-05
4.6597e-05
4.66638e-05
4.67149e-05
4.67531e-05
4.6781e-05
4.6801e-05
4.6815e-05
4.68248e-05
4.68315e-05
4.68364e-05
4.68401e-05
4.68434e-05
4.68471e-05
4.68521e-05
4.68597e-05
4.68719e-05
4.68917e-05
4.69241e-05
4.69768e-05
4.70614e-05
4.71933e-05
4.73921e-05
4.76156e-05
4.77082e-05
5.00962e-05
4.96058e-05
4.91569e-05
4.87438e-05
4.8362e-05
4.80078e-05
4.76779e-05
4.73697e-05
4.70807e-05
4.68091e-05
4.65531e-05
4.63114e-05
4.6083e-05
4.58671e-05
4.56637e-05
4.54733e-05
4.52972e-05
4.51376e-05
4.4998e-05
4.48823e-05
4.47953e-05
4.47416e-05
4.47254e-05
4.47491e-05
4.48134e-05
4.49164e-05
4.50534e-05
4.52175e-05
4.53999e-05
4.55913e-05
4.57822e-05
4.59646e-05
4.61321e-05
4.62805e-05
4.64075e-05
4.65129e-05
4.65979e-05
4.66646e-05
4.67157e-05
4.67539e-05
4.67817e-05
4.68017e-05
4.68157e-05
4.68255e-05
4.68323e-05
4.68371e-05
4.68409e-05
4.68443e-05
4.68481e-05
4.68532e-05
4.6861e-05
4.68734e-05
4.68936e-05
4.69265e-05
4.69798e-05
4.70658e-05
4.7201e-05
4.74107e-05
4.76912e-05
4.80081e-05
5.00962e-05
4.96058e-05
4.91568e-05
4.87436e-05
4.83618e-05
4.80075e-05
4.76776e-05
4.73692e-05
4.70802e-05
4.68085e-05
4.65525e-05
4.63107e-05
4.60822e-05
4.58663e-05
4.56629e-05
4.54724e-05
4.52963e-05
4.51368e-05
4.49972e-05
4.48816e-05
4.47947e-05
4.47411e-05
4.4725e-05
4.4749e-05
4.48135e-05
4.49167e-05
4.50538e-05
4.5218e-05
4.54006e-05
4.5592e-05
4.57829e-05
4.59653e-05
4.61327e-05
4.6281e-05
4.64079e-05
4.65133e-05
4.65982e-05
4.66649e-05
4.67159e-05
4.6754e-05
4.67819e-05
4.68018e-05
4.68159e-05
4.68256e-05
4.68324e-05
4.68373e-05
4.6841e-05
4.68444e-05
4.68482e-05
4.68534e-05
4.68612e-05
4.68737e-05
4.68938e-05
4.69265e-05
4.69794e-05
4.70643e-05
4.71978e-05
4.7405e-05
4.76966e-05
4.80881e-05
5.00962e-05
4.96058e-05
4.91567e-05
4.87435e-05
4.83616e-05
4.80073e-05
4.76773e-05
4.73689e-05
4.70798e-05
4.6808e-05
4.65519e-05
4.63101e-05
4.60816e-05
4.58656e-05
4.56621e-05
4.54716e-05
4.52955e-05
4.5136e-05
4.49964e-05
4.48809e-05
4.47941e-05
4.47407e-05
4.47247e-05
4.47488e-05
4.48135e-05
4.49169e-05
4.50542e-05
4.52185e-05
4.54011e-05
4.55925e-05
4.57835e-05
4.59658e-05
4.61332e-05
4.62813e-05
4.64082e-05
4.65135e-05
4.65984e-05
4.6665e-05
4.6716e-05
4.67541e-05
4.67819e-05
4.68019e-05
4.68159e-05
4.68257e-05
4.68325e-05
4.68373e-05
4.6841e-05
4.68444e-05
4.68483e-05
4.68534e-05
4.68612e-05
4.68736e-05
4.68936e-05
4.6926e-05
4.69782e-05
4.70615e-05
4.71917e-05
4.73923e-05
4.76782e-05
4.80804e-05
5.00962e-05
4.96058e-05
4.91567e-05
4.87434e-05
4.83615e-05
4.80071e-05
4.7677e-05
4.73686e-05
4.70794e-05
4.68076e-05
4.65515e-05
4.63096e-05
4.6081e-05
4.5865e-05
4.56615e-05
4.5471e-05
4.52948e-05
4.51354e-05
4.49958e-05
4.48804e-05
4.47936e-05
4.47403e-05
4.47245e-05
4.47487e-05
4.48136e-05
4.4917e-05
4.50545e-05
4.52189e-05
4.54016e-05
4.5593e-05
4.5784e-05
4.59662e-05
4.61336e-05
4.62817e-05
4.64084e-05
4.65137e-05
4.65985e-05
4.66651e-05
4.67161e-05
4.67541e-05
4.6782e-05
4.68019e-05
4.68159e-05
4.68257e-05
4.68325e-05
4.68373e-05
4.68411e-05
4.68445e-05
4.68483e-05
4.68534e-05
4.68612e-05
4.68735e-05
4.68934e-05
4.69254e-05
4.69769e-05
4.70586e-05
4.71853e-05
4.73784e-05
4.76531e-05
4.80416e-05
5.00962e-05
4.96058e-05
4.91566e-05
4.87433e-05
4.83614e-05
4.80069e-05
4.76768e-05
4.73683e-05
4.70791e-05
4.68072e-05
4.6551e-05
4.63092e-05
4.60805e-05
4.58645e-05
4.56609e-05
4.54704e-05
4.52943e-05
4.51348e-05
4.49953e-05
4.48799e-05
4.47932e-05
4.474e-05
4.47243e-05
4.47486e-05
4.48136e-05
4.49172e-05
4.50548e-05
4.52193e-05
4.5402e-05
4.55935e-05
4.57844e-05
4.59666e-05
4.61339e-05
4.62819e-05
4.64087e-05
4.65139e-05
4.65987e-05
4.66652e-05
4.67161e-05
4.67542e-05
4.6782e-05
4.68019e-05
4.68159e-05
4.68257e-05
4.68325e-05
4.68373e-05
4.68411e-05
4.68445e-05
4.68483e-05
4.68534e-05
4.68612e-05
4.68734e-05
4.68931e-05
4.69249e-05
4.69757e-05
4.70558e-05
4.71791e-05
4.73651e-05
4.76277e-05
4.79949e-05
5.00962e-05
4.96057e-05
4.91566e-05
4.87433e-05
4.83613e-05
4.80068e-05
4.76766e-05
4.73681e-05
4.70788e-05
4.68069e-05
4.65507e-05
4.63088e-05
4.60801e-05
4.5864e-05
4.56605e-05
4.54699e-05
4.52938e-05
4.51343e-05
4.49948e-05
4.48795e-05
4.47929e-05
4.47397e-05
4.47241e-05
4.47486e-05
4.48137e-05
4.49174e-05
4.5055e-05
4.52196e-05
4.54024e-05
4.55939e-05
4.57848e-05
4.5967e-05
4.61342e-05
4.62822e-05
4.64089e-05
4.6514e-05
4.65988e-05
4.66653e-05
4.67162e-05
4.67542e-05
4.6782e-05
4.68019e-05
4.68159e-05
4.68257e-05
4.68325e-05
4.68373e-05
4.68411e-05
4.68445e-05
4.68483e-05
4.68534e-05
4.68611e-05
4.68733e-05
4.68929e-05
4.69244e-05
4.69745e-05
4.70532e-05
4.71735e-05
4.7353e-05
4.76042e-05
4.79494e-05
5.00962e-05
4.96057e-05
4.91566e-05
4.87432e-05
4.83612e-05
4.80066e-05
4.76764e-05
4.73679e-05
4.70786e-05
4.68067e-05
4.65504e-05
4.63084e-05
4.60797e-05
4.58637e-05
4.56601e-05
4.54695e-05
4.52934e-05
4.51339e-05
4.49945e-05
4.48791e-05
4.47926e-05
4.47395e-05
4.4724e-05
4.47485e-05
4.48137e-05
4.49175e-05
4.50553e-05
4.52199e-05
4.54027e-05
4.55942e-05
4.57851e-05
4.59673e-05
4.61345e-05
4.62824e-05
4.6409e-05
4.65141e-05
4.65989e-05
4.66654e-05
4.67162e-05
4.67543e-05
4.6782e-05
4.68019e-05
4.6816e-05
4.68257e-05
4.68325e-05
4.68373e-05
4.68411e-05
4.68444e-05
4.68483e-05
4.68534e-05
4.68611e-05
4.68732e-05
4.68927e-05
4.69239e-05
4.69734e-05
4.70508e-05
4.71685e-05
4.73422e-05
4.75831e-05
4.79081e-05
5.00961e-05
4.96057e-05
4.91565e-05
4.87432e-05
4.83611e-05
4.80065e-05
4.76763e-05
4.73677e-05
4.70784e-05
4.68064e-05
4.65501e-05
4.63082e-05
4.60794e-05
4.58633e-05
4.56597e-05
4.54692e-05
4.5293e-05
4.51336e-05
4.49941e-05
4.48788e-05
4.47923e-05
4.47393e-05
4.47239e-05
4.47485e-05
4.48138e-05
4.49177e-05
4.50555e-05
4.52201e-05
4.5403e-05
4.55945e-05
4.57854e-05
4.59675e-05
4.61347e-05
4.62826e-05
4.64092e-05
4.65143e-05
4.6599e-05
4.66654e-05
4.67163e-05
4.67543e-05
4.67821e-05
4.6802e-05
4.6816e-05
4.68257e-05
4.68325e-05
4.68373e-05
4.68411e-05
4.68444e-05
4.68482e-05
4.68534e-05
4.6861e-05
4.68731e-05
4.68925e-05
4.69235e-05
4.69725e-05
4.70487e-05
4.71641e-05
4.73328e-05
4.75646e-05
4.78722e-05
5.00961e-05
4.96057e-05
4.91565e-05
4.87431e-05
4.8361e-05
4.80065e-05
4.76762e-05
4.73676e-05
4.70782e-05
4.68063e-05
4.65499e-05
4.63079e-05
4.60792e-05
4.58631e-05
4.56595e-05
4.54689e-05
4.52927e-05
4.51333e-05
4.49939e-05
4.48786e-05
4.47921e-05
4.47392e-05
4.47238e-05
4.47485e-05
4.48138e-05
4.49178e-05
4.50556e-05
4.52204e-05
4.54032e-05
4.55947e-05
4.57856e-05
4.59678e-05
4.61349e-05
4.62828e-05
4.64093e-05
4.65143e-05
4.6599e-05
4.66655e-05
4.67163e-05
4.67543e-05
4.67821e-05
4.6802e-05
4.6816e-05
4.68257e-05
4.68325e-05
4.68373e-05
4.68411e-05
4.68444e-05
4.68482e-05
4.68533e-05
4.6861e-05
4.68731e-05
4.68923e-05
4.69231e-05
4.69717e-05
4.70469e-05
4.71602e-05
4.73247e-05
4.75488e-05
4.78415e-05
5.00961e-05
4.96057e-05
4.91565e-05
4.87431e-05
4.8361e-05
4.80064e-05
4.76761e-05
4.73675e-05
4.70781e-05
4.68061e-05
4.65498e-05
4.63077e-05
4.6079e-05
4.58629e-05
4.56592e-05
4.54686e-05
4.52925e-05
4.5133e-05
4.49936e-05
4.48784e-05
4.4792e-05
4.47391e-05
4.47237e-05
4.47485e-05
4.48139e-05
4.49179e-05
4.50558e-05
4.52205e-05
4.54034e-05
4.55949e-05
4.57858e-05
4.5968e-05
4.6135e-05
4.62829e-05
4.64094e-05
4.65144e-05
4.65991e-05
4.66655e-05
4.67163e-05
4.67543e-05
4.67821e-05
4.6802e-05
4.6816e-05
4.68257e-05
4.68325e-05
4.68373e-05
4.68411e-05
4.68444e-05
4.68482e-05
4.68533e-05
4.6861e-05
4.6873e-05
4.68922e-05
4.69228e-05
4.6971e-05
4.70454e-05
4.7157e-05
4.7318e-05
4.75356e-05
4.78158e-05
5.00961e-05
4.96057e-05
4.91565e-05
4.87431e-05
4.83609e-05
4.80063e-05
4.7676e-05
4.73674e-05
4.7078e-05
4.6806e-05
4.65496e-05
4.63076e-05
4.60788e-05
4.58627e-05
4.5659e-05
4.54685e-05
4.52923e-05
4.51329e-05
4.49935e-05
4.48782e-05
4.47918e-05
4.4739e-05
4.47236e-05
4.47485e-05
4.48139e-05
4.49179e-05
4.50559e-05
4.52207e-05
4.54036e-05
4.55951e-05
4.5786e-05
4.59681e-05
4.61352e-05
4.6283e-05
4.64095e-05
4.65145e-05
4.65991e-05
4.66655e-05
4.67164e-05
4.67543e-05
4.67821e-05
4.6802e-05
4.6816e-05
4.68257e-05
4.68325e-05
4.68373e-05
4.6841e-05
4.68444e-05
4.68482e-05
4.68533e-05
4.68609e-05
4.68729e-05
4.68921e-05
4.69225e-05
4.69704e-05
4.70442e-05
4.71543e-05
4.73125e-05
4.75248e-05
4.7795e-05
5.00961e-05
4.96057e-05
4.91565e-05
4.87431e-05
4.83609e-05
4.80063e-05
4.7676e-05
4.73673e-05
4.70779e-05
4.68059e-05
4.65495e-05
4.63075e-05
4.60787e-05
4.58626e-05
4.56589e-05
4.54683e-05
4.52922e-05
4.51327e-05
4.49933e-05
4.48781e-05
4.47917e-05
4.47389e-05
4.47236e-05
4.47484e-05
4.48139e-05
4.4918e-05
4.5056e-05
4.52208e-05
4.54037e-05
4.55952e-05
4.57861e-05
4.59682e-05
4.61352e-05
4.62831e-05
4.64096e-05
4.65145e-05
4.65992e-05
4.66656e-05
4.67164e-05
4.67543e-05
4.67821e-05
4.6802e-05
4.6816e-05
4.68257e-05
4.68325e-05
4.68373e-05
4.6841e-05
4.68444e-05
4.68482e-05
4.68533e-05
4.68609e-05
4.68729e-05
4.6892e-05
4.69223e-05
4.69699e-05
4.70432e-05
4.71523e-05
4.73082e-05
4.75164e-05
4.77786e-05
5.00961e-05
4.96057e-05
4.91565e-05
4.8743e-05
4.83609e-05
4.80063e-05
4.7676e-05
4.73673e-05
4.70779e-05
4.68058e-05
4.65495e-05
4.63074e-05
4.60786e-05
4.58625e-05
4.56588e-05
4.54682e-05
4.52921e-05
4.51326e-05
4.49933e-05
4.4878e-05
4.47917e-05
4.47389e-05
4.47236e-05
4.47484e-05
4.48139e-05
4.4918e-05
4.5056e-05
4.52208e-05
4.54038e-05
4.55953e-05
4.57862e-05
4.59683e-05
4.61353e-05
4.62831e-05
4.64096e-05
4.65145e-05
4.65992e-05
4.66656e-05
4.67164e-05
4.67543e-05
4.67821e-05
4.6802e-05
4.6816e-05
4.68257e-05
4.68325e-05
4.68373e-05
4.6841e-05
4.68444e-05
4.68482e-05
4.68533e-05
4.68609e-05
4.68728e-05
4.68919e-05
4.69221e-05
4.69696e-05
4.70425e-05
4.71509e-05
4.73052e-05
4.75103e-05
4.77666e-05
5.00961e-05
4.96057e-05
4.91565e-05
4.8743e-05
4.83609e-05
4.80062e-05
4.76759e-05
4.73672e-05
4.70779e-05
4.68058e-05
4.65494e-05
4.63074e-05
4.60786e-05
4.58624e-05
4.56588e-05
4.54682e-05
4.5292e-05
4.51326e-05
4.49932e-05
4.4878e-05
4.47916e-05
4.47388e-05
4.47236e-05
4.47484e-05
4.48139e-05
4.4918e-05
4.5056e-05
4.52208e-05
4.54038e-05
4.55953e-05
4.57862e-05
4.59682e-05
4.61353e-05
4.62831e-05
4.64096e-05
4.65145e-05
4.65991e-05
4.66655e-05
4.67164e-05
4.67543e-05
4.67821e-05
4.6802e-05
4.6816e-05
4.68257e-05
4.68325e-05
4.68373e-05
4.6841e-05
4.68444e-05
4.68482e-05
4.68533e-05
4.68609e-05
4.68728e-05
4.68918e-05
4.6922e-05
4.69694e-05
4.70421e-05
4.71501e-05
4.73034e-05
4.75066e-05
4.77587e-05
5.00961e-05
4.96057e-05
4.91565e-05
4.8743e-05
4.83609e-05
4.80062e-05
4.76759e-05
4.73672e-05
4.70779e-05
4.68058e-05
4.65494e-05
4.63074e-05
4.60786e-05
4.58624e-05
4.56588e-05
4.54682e-05
4.5292e-05
4.51326e-05
4.49932e-05
4.4878e-05
4.47916e-05
4.47388e-05
4.47236e-05
4.47484e-05
4.48139e-05
4.4918e-05
4.5056e-05
4.52208e-05
4.54037e-05
4.55952e-05
4.57861e-05
4.59682e-05
4.61352e-05
4.6283e-05
4.64095e-05
4.65145e-05
4.65991e-05
4.66655e-05
4.67163e-05
4.67543e-05
4.67821e-05
4.68019e-05
4.68159e-05
4.68257e-05
4.68325e-05
4.68373e-05
4.6841e-05
4.68444e-05
4.68482e-05
4.68533e-05
4.68609e-05
4.68728e-05
4.68918e-05
4.6922e-05
4.69693e-05
4.7042e-05
4.71498e-05
4.73029e-05
4.75052e-05
4.7755e-05
5.00961e-05
4.96057e-05
4.91565e-05
4.8743e-05
4.83609e-05
4.80063e-05
4.7676e-05
4.73673e-05
4.70779e-05
4.68058e-05
4.65495e-05
4.63074e-05
4.60786e-05
4.58625e-05
4.56588e-05
4.54682e-05
4.52921e-05
4.51326e-05
4.49933e-05
4.4878e-05
4.47917e-05
4.47388e-05
4.47236e-05
4.47484e-05
4.48139e-05
4.4918e-05
4.50559e-05
4.52207e-05
4.54036e-05
4.55951e-05
4.57859e-05
4.5968e-05
4.61351e-05
4.62829e-05
4.64094e-05
4.65144e-05
4.6599e-05
4.66654e-05
4.67163e-05
4.67542e-05
4.6782e-05
4.68019e-05
4.68159e-05
4.68257e-05
4.68324e-05
4.68373e-05
4.6841e-05
4.68444e-05
4.68482e-05
4.68533e-05
4.68609e-05
4.68728e-05
4.68918e-05
4.69219e-05
4.69693e-05
4.70421e-05
4.71502e-05
4.73036e-05
4.75062e-05
4.77554e-05
5.00961e-05
4.96057e-05
4.91565e-05
4.87431e-05
4.83609e-05
4.80063e-05
4.7676e-05
4.73673e-05
4.70779e-05
4.68059e-05
4.65495e-05
4.63075e-05
4.60787e-05
4.58626e-05
4.56589e-05
4.54683e-05
4.52922e-05
4.51327e-05
4.49933e-05
4.48781e-05
4.47917e-05
4.47389e-05
4.47236e-05
4.47484e-05
4.48138e-05
4.49179e-05
4.50558e-05
4.52206e-05
4.54035e-05
4.55949e-05
4.57858e-05
4.59678e-05
4.61349e-05
4.62827e-05
4.64092e-05
4.65142e-05
4.65989e-05
4.66653e-05
4.67162e-05
4.67542e-05
4.6782e-05
4.68019e-05
4.68159e-05
4.68256e-05
4.68324e-05
4.68373e-05
4.6841e-05
4.68444e-05
4.68482e-05
4.68533e-05
4.68609e-05
4.68728e-05
4.68918e-05
4.6922e-05
4.69695e-05
4.70426e-05
4.71513e-05
4.73057e-05
4.75095e-05
4.776e-05
5.00961e-05
4.96057e-05
4.91565e-05
4.87431e-05
4.83609e-05
4.80063e-05
4.7676e-05
4.73674e-05
4.7078e-05
4.6806e-05
4.65496e-05
4.63076e-05
4.60788e-05
4.58627e-05
4.5659e-05
4.54685e-05
4.52923e-05
4.51329e-05
4.49935e-05
4.48782e-05
4.47918e-05
4.4739e-05
4.47236e-05
4.47484e-05
4.48138e-05
4.49178e-05
4.50557e-05
4.52204e-05
4.54033e-05
4.55947e-05
4.57855e-05
4.59676e-05
4.61347e-05
4.62825e-05
4.6409e-05
4.65141e-05
4.65987e-05
4.66652e-05
4.67161e-05
4.67541e-05
4.67819e-05
4.68018e-05
4.68159e-05
4.68256e-05
4.68324e-05
4.68373e-05
4.6841e-05
4.68444e-05
4.68482e-05
4.68533e-05
4.68608e-05
4.68728e-05
4.68918e-05
4.69221e-05
4.69698e-05
4.70433e-05
4.71529e-05
4.7309e-05
4.75153e-05
4.7769e-05
5.00961e-05
4.96057e-05
4.91565e-05
4.87431e-05
4.8361e-05
4.80064e-05
4.76761e-05
4.73675e-05
4.70781e-05
4.68061e-05
4.65498e-05
4.63077e-05
4.6079e-05
4.58629e-05
4.56592e-05
4.54686e-05
4.52925e-05
4.51331e-05
4.49936e-05
4.48784e-05
4.4792e-05
4.4739e-05
4.47237e-05
4.47484e-05
4.48137e-05
4.49177e-05
4.50555e-05
4.52202e-05
4.5403e-05
4.55945e-05
4.57853e-05
4.59674e-05
4.61344e-05
4.62823e-05
4.64088e-05
4.65139e-05
4.65986e-05
4.66651e-05
4.6716e-05
4.6754e-05
4.67819e-05
4.68018e-05
4.68158e-05
4.68256e-05
4.68324e-05
4.68372e-05
4.6841e-05
4.68444e-05
4.68482e-05
4.68533e-05
4.68608e-05
4.68728e-05
4.68918e-05
4.69222e-05
4.69702e-05
4.70444e-05
4.71552e-05
4.73136e-05
4.75236e-05
4.77826e-05
5.00961e-05
4.96057e-05
4.91565e-05
4.87431e-05
4.8361e-05
4.80065e-05
4.76762e-05
4.73676e-05
4.70782e-05
4.68063e-05
4.65499e-05
4.63079e-05
4.60792e-05
4.58631e-05
4.56595e-05
4.54689e-05
4.52927e-05
4.51333e-05
4.49939e-05
4.48786e-05
4.47921e-05
4.47392e-05
4.47237e-05
4.47484e-05
4.48137e-05
4.49175e-05
4.50553e-05
4.522e-05
4.54027e-05
4.55942e-05
4.5785e-05
4.59671e-05
4.61341e-05
4.6282e-05
4.64086e-05
4.65137e-05
4.65984e-05
4.6665e-05
4.67159e-05
4.6754e-05
4.67818e-05
4.68017e-05
4.68158e-05
4.68256e-05
4.68324e-05
4.68372e-05
4.6841e-05
4.68444e-05
4.68482e-05
4.68532e-05
4.68608e-05
4.68728e-05
4.68919e-05
4.69224e-05
4.69707e-05
4.70457e-05
4.71581e-05
4.73197e-05
4.75345e-05
4.78011e-05
5.00961e-05
4.96057e-05
4.91565e-05
4.87432e-05
4.83611e-05
4.80065e-05
4.76763e-05
4.73677e-05
4.70784e-05
4.68064e-05
4.65501e-05
4.63082e-05
4.60794e-05
4.58633e-05
4.56597e-05
4.54692e-05
4.5293e-05
4.51336e-05
4.49941e-05
4.48788e-05
4.47923e-05
4.47393e-05
4.47238e-05
4.47484e-05
4.48136e-05
4.49174e-05
4.50551e-05
4.52197e-05
4.54024e-05
4.55938e-05
4.57846e-05
4.59667e-05
4.61338e-05
4.62818e-05
4.64084e-05
4.65135e-05
4.65983e-05
4.66648e-05
4.67158e-05
4.67539e-05
4.67817e-05
4.68017e-05
4.68158e-05
4.68255e-05
4.68323e-05
4.68372e-05
4.6841e-05
4.68444e-05
4.68482e-05
4.68532e-05
4.68608e-05
4.68728e-05
4.6892e-05
4.69227e-05
4.69714e-05
4.70473e-05
4.71617e-05
4.73273e-05
4.75484e-05
4.78251e-05
5.00962e-05
4.96057e-05
4.91566e-05
4.87432e-05
4.83612e-05
4.80066e-05
4.76764e-05
4.73679e-05
4.70786e-05
4.68067e-05
4.65504e-05
4.63084e-05
4.60797e-05
4.58637e-05
4.56601e-05
4.54695e-05
4.52934e-05
4.51339e-05
4.49945e-05
4.48791e-05
4.47926e-05
4.47395e-05
4.47239e-05
4.47484e-05
4.48135e-05
4.49172e-05
4.50548e-05
4.52194e-05
4.54021e-05
4.55934e-05
4.57842e-05
4.59664e-05
4.61335e-05
4.62815e-05
4.64081e-05
4.65133e-05
4.65981e-05
4.66647e-05
4.67157e-05
4.67538e-05
4.67817e-05
4.68016e-05
4.68157e-05
4.68255e-05
4.68323e-05
4.68372e-05
4.6841e-05
4.68444e-05
4.68482e-05
4.68532e-05
4.68608e-05
4.68728e-05
4.68921e-05
4.6923e-05
4.69721e-05
4.70491e-05
4.71659e-05
4.73364e-05
4.75652e-05
4.78553e-05
5.00962e-05
4.96057e-05
4.91566e-05
4.87433e-05
4.83613e-05
4.80068e-05
4.76766e-05
4.73681e-05
4.70788e-05
4.68069e-05
4.65507e-05
4.63088e-05
4.60801e-05
4.5864e-05
4.56605e-05
4.54699e-05
4.52938e-05
4.51343e-05
4.49948e-05
4.48795e-05
4.47928e-05
4.47397e-05
4.4724e-05
4.47484e-05
4.48134e-05
4.4917e-05
4.50546e-05
4.5219e-05
4.54017e-05
4.5593e-05
4.57838e-05
4.5966e-05
4.61331e-05
4.62811e-05
4.64079e-05
4.65131e-05
4.65979e-05
4.66646e-05
4.67156e-05
4.67537e-05
4.67816e-05
4.68016e-05
4.68157e-05
4.68255e-05
4.68323e-05
4.68372e-05
4.6841e-05
4.68444e-05
4.68482e-05
4.68532e-05
4.68609e-05
4.68729e-05
4.68922e-05
4.69233e-05
4.6973e-05
4.70513e-05
4.71708e-05
4.73471e-05
4.75853e-05
4.78923e-05
5.00962e-05
4.96058e-05
4.91566e-05
4.87433e-05
4.83614e-05
4.80069e-05
4.76768e-05
4.73683e-05
4.70791e-05
4.68072e-05
4.6551e-05
4.63092e-05
4.60805e-05
4.58645e-05
4.5661e-05
4.54704e-05
4.52943e-05
4.51348e-05
4.49953e-05
4.48799e-05
4.47932e-05
4.474e-05
4.47242e-05
4.47485e-05
4.48134e-05
4.49168e-05
4.50543e-05
4.52186e-05
4.54012e-05
4.55925e-05
4.57833e-05
4.59655e-05
4.61327e-05
4.62808e-05
4.64076e-05
4.65128e-05
4.65977e-05
4.66644e-05
4.67154e-05
4.67536e-05
4.67815e-05
4.68015e-05
4.68156e-05
4.68255e-05
4.68323e-05
4.68372e-05
4.68409e-05
4.68444e-05
4.68481e-05
4.68532e-05
4.68609e-05
4.68729e-05
4.68923e-05
4.69237e-05
4.6974e-05
4.70537e-05
4.71764e-05
4.73597e-05
4.7609e-05
4.79373e-05
5.00962e-05
4.96058e-05
4.91567e-05
4.87434e-05
4.83615e-05
4.80071e-05
4.7677e-05
4.73686e-05
4.70794e-05
4.68076e-05
4.65515e-05
4.63096e-05
4.6081e-05
4.5865e-05
4.56615e-05
4.5471e-05
4.52948e-05
4.51354e-05
4.49958e-05
4.48803e-05
4.47936e-05
4.47403e-05
4.47244e-05
4.47485e-05
4.48133e-05
4.49166e-05
4.50539e-05
4.52182e-05
4.54007e-05
4.5592e-05
4.57828e-05
4.5965e-05
4.61323e-05
4.62804e-05
4.64072e-05
4.65126e-05
4.65975e-05
4.66642e-05
4.67153e-05
4.67535e-05
4.67815e-05
4.68015e-05
4.68156e-05
4.68254e-05
4.68323e-05
4.68372e-05
4.68409e-05
4.68443e-05
4.68481e-05
4.68532e-05
4.68609e-05
4.6873e-05
4.68924e-05
4.6924e-05
4.6975e-05
4.70564e-05
4.71827e-05
4.73741e-05
4.76365e-05
4.79917e-05
5.00962e-05
4.96058e-05
4.91567e-05
4.87435e-05
4.83616e-05
4.80073e-05
4.76773e-05
4.73689e-05
4.70798e-05
4.6808e-05
4.65519e-05
4.63101e-05
4.60816e-05
4.58656e-05
4.56621e-05
4.54716e-05
4.52955e-05
4.5136e-05
4.49964e-05
4.48809e-05
4.47941e-05
4.47406e-05
4.47246e-05
4.47486e-05
4.48132e-05
4.49164e-05
4.50536e-05
4.52177e-05
4.54002e-05
4.55914e-05
4.57823e-05
4.59645e-05
4.61318e-05
4.628e-05
4.64069e-05
4.65123e-05
4.65973e-05
4.66641e-05
4.67152e-05
4.67534e-05
4.67814e-05
4.68015e-05
4.68156e-05
4.68254e-05
4.68323e-05
4.68371e-05
4.68409e-05
4.68443e-05
4.68481e-05
4.68532e-05
4.68609e-05
4.6873e-05
4.68926e-05
4.69245e-05
4.69761e-05
4.70593e-05
4.71897e-05
4.73905e-05
4.76683e-05
4.80574e-05
5.00962e-05
4.96058e-05
4.91568e-05
4.87436e-05
4.83618e-05
4.80075e-05
4.76776e-05
4.73692e-05
4.70802e-05
4.68085e-05
4.65525e-05
4.63107e-05
4.60822e-05
4.58663e-05
4.56629e-05
4.54724e-05
4.52963e-05
4.51368e-05
4.49972e-05
4.48816e-05
4.47946e-05
4.47411e-05
4.47249e-05
4.47487e-05
4.48132e-05
4.49162e-05
4.50532e-05
4.52172e-05
4.53996e-05
4.55908e-05
4.57816e-05
4.59639e-05
4.61313e-05
4.62795e-05
4.64065e-05
4.6512e-05
4.65971e-05
4.66639e-05
4.67151e-05
4.67533e-05
4.67813e-05
4.68014e-05
4.68155e-05
4.68254e-05
4.68322e-05
4.68371e-05
4.68409e-05
4.68443e-05
4.68481e-05
4.68532e-05
4.68609e-05
4.6873e-05
4.68927e-05
4.69249e-05
4.69773e-05
4.70625e-05
4.71974e-05
4.74092e-05
4.77049e-05
4.81367e-05
5.00962e-05
4.96058e-05
4.91569e-05
4.87438e-05
4.8362e-05
4.80078e-05
4.76779e-05
4.73697e-05
4.70807e-05
4.68091e-05
4.65531e-05
4.63114e-05
4.6083e-05
4.58671e-05
4.56637e-05
4.54733e-05
4.52972e-05
4.51376e-05
4.4998e-05
4.48823e-05
4.47953e-05
4.47416e-05
4.47252e-05
4.47489e-05
4.48131e-05
4.49159e-05
4.50527e-05
4.52166e-05
4.53989e-05
4.559e-05
4.57809e-05
4.59632e-05
4.61306e-05
4.6279e-05
4.6406e-05
4.65116e-05
4.65967e-05
4.66636e-05
4.67148e-05
4.67531e-05
4.67812e-05
4.68012e-05
4.68154e-05
4.68253e-05
4.68321e-05
4.6837e-05
4.68408e-05
4.68442e-05
4.6848e-05
4.68531e-05
4.68608e-05
4.6873e-05
4.68928e-05
4.69253e-05
4.69785e-05
4.70658e-05
4.72057e-05
4.74301e-05
4.77466e-05
4.82331e-05
5.00962e-05
4.96059e-05
4.9157e-05
4.8744e-05
4.83623e-05
4.80081e-05
4.76783e-05
4.73702e-05
4.70813e-05
4.68097e-05
4.65538e-05
4.63122e-05
4.60838e-05
4.5868e-05
4.56647e-05
4.54743e-05
4.52982e-05
4.51386e-05
4.49989e-05
4.48831e-05
4.47959e-05
4.4742e-05
4.47254e-05
4.47487e-05
4.48126e-05
4.49152e-05
4.50517e-05
4.52154e-05
4.53975e-05
4.55886e-05
4.57794e-05
4.59618e-05
4.61293e-05
4.62778e-05
4.6405e-05
4.65106e-05
4.65959e-05
4.66628e-05
4.67141e-05
4.67524e-05
4.67805e-05
4.68006e-05
4.68148e-05
4.68246e-05
4.68315e-05
4.68364e-05
4.68402e-05
4.68436e-05
4.68475e-05
4.68526e-05
4.68603e-05
4.68725e-05
4.68925e-05
4.69253e-05
4.69793e-05
4.70689e-05
4.72144e-05
4.74534e-05
4.77941e-05
4.83509e-05
5.00962e-05
4.96059e-05
4.91571e-05
4.87442e-05
4.83626e-05
4.80085e-05
4.76788e-05
4.73708e-05
4.7082e-05
4.68105e-05
4.65547e-05
4.63131e-05
4.60848e-05
4.5869e-05
4.56657e-05
4.54752e-05
4.5299e-05
4.51393e-05
4.49993e-05
4.48832e-05
4.47956e-05
4.47412e-05
4.4724e-05
4.47467e-05
4.481e-05
4.4912e-05
4.5048e-05
4.52112e-05
4.5393e-05
4.5584e-05
4.57748e-05
4.59572e-05
4.61249e-05
4.62736e-05
4.64009e-05
4.65068e-05
4.65922e-05
4.66592e-05
4.67106e-05
4.6749e-05
4.67771e-05
4.67973e-05
4.68115e-05
4.68214e-05
4.68283e-05
4.68332e-05
4.68371e-05
4.68405e-05
4.68444e-05
4.68496e-05
4.68574e-05
4.68697e-05