/*--------------------------------*- C++ -*----------------------------------*\
| =========                 |                                                 |
| \\      /  F ield         | OpenFOAM: The Open Source CFD Toolbox           |
|  \\    /   O peration     | Version:  2.4.0                                 |
|   \\  /    A nd           | Web:      www.OpenFOAM.org                      |
|    \\/     M anipulation  |                                                 |
\*---------------------------------------------------------------------------*/
FoamFile
{
    version     2.0;
    format      ascii;
    class       volScalarField;
    location    "6.3";
    object      k;
}
// * * * * * * * * * * * * * * * * * * * * * * * * * * * * * * * * * * * * * //

dimensions      [0 2 -2 0 0 0 0];

internalField   nonuniform List<scalar> 
6000
(
0.0117122
0.00656302
0.00175545
0.00044531
0.000122337
0.000314251
0.000244539
0.00038575
0.000426873
0.000543297
0.000621935
0.00072788
0.000821041
0.000933926
0.00105459
0.00119383
0.00134271
0.00150058
0.00166203
0.00182624
0.00199313
0.00217565
0.00235968
0.00254354
0.00272677
0.002909
0.00308985
0.003269
0.00344611
0.0036208
0.00379382
0.00396348
0.00412922
0.00429056
0.00444683
0.00459739
0.00474149
0.00487856
0.00500765
0.0051285
0.00523966
0.00534186
0.00543229
0.00551345
0.00558174
0.0056481
0.00588132
0.00614624
0.00639664
0.00671107
0.00698103
0.00738531
0.00767309
0.00825048
0.00854212
0.00946941
0.00972076
0.0114123
0.0115676
0.0156249
0.0120372
0.0117119
0.00208958
0.00067593
0.000133612
0.000269293
0.000353821
0.000485638
0.000613943
0.000777122
0.000933625
0.00111293
0.00129068
0.00149499
0.00172061
0.0019811
0.00226702
0.00257512
0.00289604
0.00322635
0.00356234
0.00390413
0.00424808
0.00459437
0.00494256
0.00529241
0.00564371
0.00599643
0.00635059
0.00670612
0.00706236
0.00741699
0.00777133
0.00812499
0.00847735
0.00882778
0.0091755
0.00951986
0.0098598
0.010195
0.0105237
0.0108466
0.0111607
0.0114682
0.0117668
0.0120551
0.0123609
0.0126675
0.0129571
0.0132658
0.0135418
0.0138752
0.01414
0.0145452
0.0148022
0.0153719
0.0156217
0.0165476
0.0169945
0.019198
0.011568
0.0151659
0.00288275
0.000647225
0.000182058
0.000317953
0.000445975
0.000603703
0.000772863
0.000976777
0.00117897
0.00140555
0.0016347
0.00189547
0.00218552
0.00251822
0.00288352
0.00327588
0.00368444
0.00410429
0.0045308
0.00496248
0.00539682
0.0058337
0.00627255
0.00671297
0.00715467
0.00759756
0.00804165
0.00848693
0.00893229
0.00937636
0.00981974
0.0102619
0.0107021
0.0111396
0.0115735
0.012003
0.0124268
0.0128445
0.0132543
0.0136565
0.0140487
0.0144319
0.014807
0.0151644
0.0155263
0.0158805
0.016221
0.0165662
0.016891
0.0172467
0.0175659
0.0179728
0.0183068
0.0188454
0.0192384
0.0200692
0.0207822
0.0228337
0.0114637
0.0160714
0.00401137
0.000530556
0.000229183
0.00036593
0.000516834
0.000698667
0.000896815
0.00113194
0.0013681
0.0016295
0.00189713
0.00219957
0.00253693
0.00292157
0.00334341
0.00379539
0.0042659
0.00474901
0.00523965
0.00573558
0.00623444
0.00673579
0.0072389
0.00774327
0.00824851
0.00875448
0.00926117
0.00976874
0.0102755
0.0107808
0.0112847
0.0117865
0.0122854
0.0127806
0.0132711
0.0137558
0.0142336
0.0147036
0.0151643
0.0156156
0.0160557
0.0164848
0.0169057
0.0173026
0.0177
0.0180843
0.0184578
0.018826
0.0191841
0.0195544
0.0199143
0.0203239
0.020721
0.0212433
0.0217582
0.0225358
0.023528
0.0254429
0.0113763
0.0157667
0.00532477
0.000480293
0.000272185
0.000407646
0.000575535
0.000778362
0.00100033
0.0012615
0.00152595
0.0018164
0.00211615
0.00245314
0.00282931
0.00325617
0.00372387
0.0042242
0.00474508
0.00527979
0.00582286
0.00637149
0.00692324
0.00747739
0.0080331
0.00858972
0.00914678
0.00970406
0.0102616
0.0108195
0.0113757
0.0119301
0.0124822
0.0130313
0.0135766
0.0141169
0.0146513
0.0151787
0.0156977
0.0162074
0.0167063
0.017194
0.0176692
0.0181317
0.0185847
0.0190086
0.0194304
0.0198347
0.0202303
0.0206131
0.0209934
0.0213719
0.0217604
0.0221695
0.0226145
0.0231222
0.0237343
0.02447
0.0256823
0.0274659
0.0113034
0.0149418
0.00672762
0.000604698
0.000313444
0.000444511
0.000626698
0.000848085
0.00109091
0.00137502
0.00166447
0.00198071
0.00230885
0.00267616
0.00308601
0.00354938
0.00405666
0.00459888
0.00516357
0.0057433
0.00633222
0.00692705
0.0075252
0.0081257
0.00872754
0.00932995
0.00993239
0.0105345
0.0111364
0.0117381
0.0123373
0.012934
0.0135275
0.0141171
0.0147017
0.0152803
0.0158516
0.0164145
0.0169675
0.0175097
0.0180394
0.0185562
0.0190591
0.0195478
0.020024
0.0204677
0.0209068
0.0213248
0.0217352
0.0221269
0.0225217
0.0229041
0.0233121
0.0237186
0.0241994
0.0246939
0.0253833
0.0260842
0.0274679
0.0291241
0.0112435
0.0139423
0.00776298
0.00113621
0.000361211
0.00047834
0.000672952
0.000910928
0.00117263
0.00147757
0.00178993
0.00212988
0.00248395
0.00287875
0.00331885
0.00381485
0.00435756
0.00493743
0.00554163
0.00616214
0.0067927
0.0074296
0.00807005
0.00871281
0.00935673
0.0100009
0.0106447
0.0112877
0.0119297
0.0125711
0.0132092
0.0138439
0.0144745
0.0151002
0.0157197
0.0163319
0.0169356
0.0175293
0.0181116
0.0186814
0.019237
0.0197779
0.0203035
0.0208132
0.021306
0.0217646
0.0222158
0.022643
0.0230627
0.0234592
0.0238627
0.0242456
0.0246664
0.0250684
0.0255758
0.0260579
0.0268092
0.0274808
0.0289985
0.0305305
0.0111888
0.01294
0.00846384
0.00207116
0.000436491
0.000511181
0.000716112
0.000968909
0.001248
0.00157224
0.00190604
0.00226827
0.00264655
0.0030668
0.00353462
0.00406045
0.00463558
0.00525004
0.00589073
0.00654904
0.00721833
0.00789444
0.00857436
0.00925659
0.00993982
0.010623
0.0113054
0.0119864
0.012666
0.0133442
0.0140182
0.014688
0.0153527
0.0160114
0.0166627
0.0173053
0.0179379
0.0185591
0.0191672
0.0197609
0.0203389
0.0209
0.0214445
0.0219709
0.0224755
0.022945
0.0234043
0.0238368
0.0242616
0.0246595
0.0250671
0.0254477
0.0258757
0.0262717
0.0267982
0.0272685
0.0280693
0.0287155
0.0303379
0.0317487
0.011136
0.0120149
0.00888
0.00319714
0.000585138
0.000545921
0.000757746
0.00102355
0.00131878
0.0016611
0.00201526
0.00239872
0.00279995
0.00324411
0.00373772
0.00429121
0.00489644
0.00554317
0.00621806
0.00691195
0.00761779
0.00833102
0.00904836
0.00976804
0.0104886
0.0112088
0.0119278
0.0126449
0.01336
0.0140729
0.0147807
0.0154834
0.0161799
0.0168692
0.0175499
0.0182206
0.0188796
0.0195255
0.0201566
0.0207714
0.0213686
0.021947
0.0225072
0.0230462
0.0235589
0.0240362
0.0245001
0.0249348
0.0253611
0.0257574
0.0261651
0.026541
0.0269716
0.0273602
0.0278995
0.0283583
0.0291984
0.0298221
0.0315252
0.0328181
0.0110858
0.0111985
0.00905957
0.00433601
0.000896341
0.00058756
0.000799542
0.00107621
0.00138636
0.00174571
0.00211938
0.00252328
0.00294649
0.00341334
0.00393121
0.00451061
0.00514408
0.00582123
0.0065285
0.00725623
0.00799695
0.00874568
0.00949885
0.0102544
0.0110108
0.0117665
0.0125206
0.0132723
0.0140213
0.0147674
0.0155074
0.0162411
0.0169677
0.0176859
0.018394
0.0190905
0.0197738
0.0204422
0.021094
0.0217275
0.0223414
0.0229345
0.0235076
0.0240552
0.0245734
0.0250554
0.025521
0.0259552
0.0263797
0.0267718
0.0271762
0.0275451
0.0279744
0.028354
0.028901
0.0293482
0.0302188
0.0308222
0.0325859
0.0337648
0.0110393
0.0104974
0.0090524
0.00534174
0.00147656
0.000645877
0.000843707
0.00112826
0.00145195
0.00182737
0.00221981
0.0026435
0.00308793
0.00357651
0.00411738
0.00472124
0.0053814
0.00608742
0.00682558
0.00758572
0.00835996
0.00914289
0.00993065
0.0107209
0.0115119
0.012302
0.0130899
0.013875
0.0146567
0.0154345
0.0162053
0.0169689
0.017724
0.0184693
0.0192032
0.0199239
0.0206297
0.0213187
0.0219891
0.0226392
0.0232676
0.0238729
0.0244562
0.025009
0.0255304
0.0260144
0.0264789
0.0269101
0.02733
0.0277155
0.0281136
0.0284734
0.0288979
0.0292671
0.0298171
0.0302525
0.031146
0.0317305
0.033538
0.0346069
0.010997
0.00990585
0.00890707
0.00615862
0.00222912
0.000740337
0.000893576
0.00118132
0.00151681
0.00190728
0.00231779
0.00276074
0.00322574
0.00373525
0.00429806
0.00492515
0.00561065
0.00634422
0.00711199
0.00790333
0.00870994
0.00952598
0.0103473
0.0111713
0.0119958
0.0128193
0.0136402
0.0144576
0.0152709
0.0160794
0.0168798
0.0176718
0.0184542
0.0192254
0.0199836
0.020727
0.0214535
0.0221613
0.0228485
0.0235132
0.024154
0.0247695
0.02536
0.0259153
0.0264376
0.0269212
0.0273823
0.0278079
0.0282208
0.0285973
0.0289863
0.029335
0.0297517
0.0301089
0.030658
0.031081
0.0319909
0.0325575
0.0343942
0.0353577
0.010959
0.00941243
0.00866739
0.00676697
0.00306135
0.000911503
0.000954695
0.00123753
0.0015823
0.00198664
0.00241447
0.00287617
0.00336121
0.00389096
0.0044748
0.00512403
0.00583371
0.00659363
0.00738988
0.00821135
0.00904933
0.00989755
0.0107515
0.0116083
0.0124657
0.0133216
0.0141745
0.0150234
0.0158675
0.0167056
0.0175346
0.018354
0.0191625
0.0199583
0.0207394
0.0215039
0.0222497
0.0229747
0.023677
0.0243544
0.0250056
0.0256293
0.0262237
0.0267796
0.0273007
0.0277815
0.0282369
0.0286548
0.0290582
0.0294236
0.0298011
0.0301367
0.0305427
0.0308864
0.031431
0.031841
0.0327615
0.0333106
0.0351644
0.0360272
0.010925
0.00900424
0.00837015
0.00717198
0.00387537
0.00124374
0.00103688
0.00129987
0.00165007
0.00206679
0.00251105
0.00299098
0.00349555
0.00404493
0.00464899
0.00531938
0.00605216
0.00683737
0.00766105
0.00851168
0.00938013
0.0102597
0.0111455
0.0120344
0.0129237
0.0138113
0.0146956
0.0155751
0.0164491
0.0173159
0.0181725
0.0190183
0.0198517
0.0206709
0.0214737
0.022258
0.0230216
0.0237622
0.0244778
0.0251662
0.0258261
0.0264556
0.0270512
0.0276059
0.0281237
0.0285995
0.029047
0.029455
0.0298467
0.030199
0.0305626
0.0308833
0.0312761
0.0316048
0.0321418
0.0325378
0.0334638
0.0339957
0.0358559
0.0366231
0.010895
0.00866856
0.00804457
0.00739329
0.0046273
0.00176824
0.00115721
0.00137283
0.00172226
0.00214929
0.00260881
0.00310638
0.00362994
0.0041984
0.00482193
0.00551259
0.00626747
0.00707695
0.00792708
0.00880596
0.00970402
0.0106141
0.011531
0.0124512
0.0133718
0.0142905
0.0152053
0.0161147
0.0170179
0.0179124
0.0187957
0.0196668
0.020524
0.0213655
0.0221887
0.0229915
0.0237714
0.0245261
0.0252535
0.0259511
0.0266179
0.0272505
0.0278452
0.0283968
0.0289094
0.0293781
0.0298157
0.0302119
0.0305897
0.0309268
0.0312745
0.0315784
0.0319557
0.032268
0.0327943
0.0331757
0.0341024
0.0346171
0.0364747
0.0371515
0.0108685
0.00839376
0.00771258
0.00745813
0.00528234
0.00244718
0.00134505
0.00146337
0.00180173
0.00223605
0.00270923
0.00322368
0.00376564
0.00435262
0.00499491
0.00570497
0.00648099
0.00731376
0.0081894
0.00909565
0.0100225
0.0109624
0.0119096
0.0128604
0.0138117
0.0147606
0.0157052
0.0166438
0.0175754
0.0184968
0.0194058
0.0203012
0.0211812
0.0220438
0.0228862
0.0237061
0.0245009
0.0252682
0.0260058
0.0267109
0.0273825
0.0280155
0.0286076
0.0291544
0.0296599
0.0301195
0.0305452
0.0309276
0.0312896
0.0316098
0.0319395
0.0322248
0.0325845
0.0328789
0.0333919
0.0337576
0.0346809
0.0351782
0.0370255
0.0376175
0.0108453
0.00816959
0.00738975
0.00739683
0.00581544
0.00320174
0.00165128
0.00158251
0.00189251
0.00232954
0.00281407
0.00334438
0.003904
0.00450889
0.00516923
0.00589785
0.00669406
0.00754916
0.00844936
0.00938208
0.0103369
0.0113057
0.0122827
0.0132634
0.0142445
0.0152231
0.0161968
0.0171637
0.0181229
0.0190702
0.020004
0.0209228
0.0218245
0.022707
0.0235673
0.024403
0.0252113
0.0259896
0.0267357
0.0274468
0.0281208
0.028752
0.0293398
0.02988
0.0303766
0.0308251
0.0312371
0.0316038
0.0319482
0.0322496
0.0325594
0.0328246
0.0331647
0.0334397
0.0339371
0.0342861
0.0352022
0.0356819
0.0375122
0.038025
0.0108249
0.00798729
0.00708637
0.00723983
0.00621295
0.00396185
0.00210504
0.00174754
0.00200038
0.00243297
0.00292548
0.00347023
0.00404652
0.00466863
0.00534625
0.00609257
0.00690801
0.00778445
0.00870825
0.00966654
0.0106485
0.0116455
0.0126513
0.0136612
0.0146716
0.015679
0.016681
0.0176756
0.0186614
0.0196339
0.0205915
0.0215325
0.0224548
0.023356
0.0242329
0.025083
0.0259033
0.0266912
0.0274443
0.0281593
0.028833
0.0294609
0.0300428
0.0305747
0.0310605
0.0314961
0.0318925
0.0322418
0.0325668
0.0328476
0.0331359
0.0333793
0.033698
0.0339523
0.0344319
0.0347632
0.0356686
0.0361305
0.0379382
0.0383775
0.0108072
0.00783944
0.00680858
0.00701549
0.00647213
0.0046741
0.00268954
0.00198456
0.00213376
0.00255066
0.00304618
0.00360331
0.00419496
0.00483341
0.00552745
0.00629056
0.00712423
0.00802099
0.00896737
0.00995027
0.0109584
0.0119829
0.0130167
0.0140551
0.0150938
0.0161294
0.017159
0.0181803
0.0191918
0.0201885
0.0211689
0.0221311
0.0230728
0.0239914
0.0248837
0.0257467
0.0265776
0.0273734
0.0281318
0.0288483
0.0295198
0.0301428
0.0307171
0.0312389
0.0317122
0.0321331
0.0325121
0.0328423
0.0331462
0.0334049
0.03367
0.0338902
0.0341858
0.034418
0.0348777
0.0351904
0.0360821
0.0365257
0.0383063
0.0386778
0.0107918
0.00771987
0.00655939
0.00674879
0.00659944
0.00529886
0.00335563
0.00232714
0.00230497
0.00268847
0.00317961
0.00374616
0.00435132
0.00500502
0.00571447
0.00649335
0.00734417
0.00826014
0.00922804
0.0102345
0.011268
0.0123189
0.01338
0.014446
0.0155123
0.0165752
0.0176314
0.0186786
0.0197148
0.0207347
0.0217368
0.0227191
0.0236789
0.0246137
0.0255199
0.0263945
0.0272343
0.0280364
0.0287981
0.0295138
0.0301815
0.0307979
0.0313629
0.031873
0.032332
0.0327364
0.0330965
0.0334058
0.0336871
0.0339221
0.0341625
0.0343581
0.034629
0.034838
0.035276
0.0355691
0.0364443
0.0368694
0.0386187
0.0389284
0.0107784
0.00762345
0.0063396
0.00646059
0.00660843
0.00580902
0.00405365
0.00279427
0.00253172
0.00285434
0.00333021
0.00390191
0.00451802
0.00518547
0.0059091
0.0067026
0.00756937
0.00850338
0.00949161
0.0105206
0.0115782
0.0126547
0.0137421
0.0148348
0.0159278
0.0170171
0.0180991
0.0191712
0.0202311
0.0212731
0.0222958
0.0232969
0.0242736
0.0252231
0.0261418
0.0270263
0.0278736
0.0286803
0.0294426
0.0301557
0.030818
0.0314262
0.0319802
0.0324769
0.0329199
0.0333061
0.0336456
0.0339326
0.0341897
0.0343997
0.0346139
0.0347836
0.0350284
0.035213
0.0356277
0.0359003
0.0367565
0.0371627
0.0388778
0.0391313
0.0107668
0.00754594
0.00614844
0.00616744
0.00651741
0.00618877
0.00473719
0.00337486
0.00283847
0.00305893
0.00350374
0.00407441
0.00469789
0.00537713
0.00611338
0.00692014
0.00780152
0.00875224
0.00975951
0.0108098
0.0118905
0.0129913
0.0141041
0.0152224
0.0163412
0.0174559
0.0185627
0.0196587
0.020741
0.021804
0.0228461
0.0238646
0.0248568
0.0258198
0.0267493
0.0276423
0.0284953
0.0293041
0.0300651
0.030774
0.0314293
0.0320276
0.032569
0.0330505
0.0334759
0.0338423
0.0341597
0.0344228
0.0346544
0.0348379
0.0350246
0.0351672
0.0353847
0.0355438
0.0359337
0.036185
0.0370198
0.037407
0.0390852
0.0392885
0.0107568
0.00748386
0.00598421
0.00588174
0.00634723
0.00643251
0.00536563
0.00403463
0.00324674
0.00331617
0.00370761
0.0042684
0.00489437
0.00558272
0.00632961
0.00714801
0.00804243
0.00900837
0.0100332
0.0111034
0.012206
0.01333
0.0144669
0.0156098
0.0167533
0.0178922
0.0190227
0.0201415
0.0212451
0.0223278
0.0233879
0.0244226
0.0254288
0.0264036
0.0273425
0.0282422
0.0290986
0.0299074
0.0306654
0.0313685
0.0320149
0.0326017
0.0331288
0.0335936
0.0339997
0.0343447
0.0346385
0.0348764
0.035081
0.0352369
0.0353949
0.0355092
0.0356982
0.0358309
0.0361946
0.0364237
0.0372353
0.0376034
0.0392426
0.0394014
0.0107481
0.00743436
0.00584461
0.00561219
0.00611921
0.00654358
0.0059057
0.00472978
0.00376236
0.00364345
0.00395129
0.00448972
0.00511152
0.00580541
0.00656041
0.00738847
0.00829412
0.00927358
0.0103144
0.011403
0.0125259
0.0136718
0.0148316
0.0159979
0.0171648
0.0183269
0.0194797
0.0206202
0.0217436
0.0228447
0.0239214
0.0249707
0.0259893
0.0269744
0.0279209
0.0288251
0.0296827
0.0304898
0.0312431
0.0319386
0.0325746
0.0331481
0.0336592
0.0341056
0.0344909
0.0348129
0.0350816
0.0352929
0.0354694
0.0355964
0.0357247
0.0358098
0.0359692
0.0360746
0.036411
0.0366173
0.0374039
0.0377527
0.0393515
0.0394715
0.0107405
0.00739511
0.00572713
0.00536436
0.00585362
0.00653277
0.00633253
0.00541563
0.00437135
0.0040566
0.00424684
0.00474539
0.00535419
0.00604884
0.00680874
0.00764403
0.00855877
0.00954979
0.0106047
0.01171
0.0128516
0.014018
0.0151991
0.0163875
0.0175764
0.0187603
0.0199343
0.021095
0.0222368
0.0233547
0.0244465
0.0255089
0.0265384
0.0275319
0.0284837
0.0293902
0.0302473
0.0310509
0.0317977
0.0324839
0.0331077
0.0336661
0.0341597
0.034586
0.0349489
0.0352465
0.0354888
0.0356722
0.0358194
0.0359165
0.036014
0.036069
0.036198
0.0362754
0.0365834
0.0367663
0.0375263
0.0378559
0.0394132
0.0395
0.010734
0.0073642
0.00562916
0.00514126
0.00556844
0.00641648
0.0066304
0.00605107
0.00504439
0.00456149
0.00460881
0.00504391
0.00562805
0.0063172
0.00707794
0.00791749
0.00883877
0.00983907
0.010906
0.0120259
0.0131846
0.0143695
0.0155705
0.0167793
0.0179889
0.0191931
0.0203867
0.0215663
0.0227248
0.023858
0.0249633
0.026037
0.0270755
0.028075
0.0290301
0.0299371
0.0307918
0.0315901
0.0323286
0.0330037
0.0336134
0.0341552
0.0346295
0.0350341
0.0353731
0.0356449
0.0358595
0.0360139
0.0361306
0.0361969
0.0362628
0.0362869
0.0363846
0.0364334
0.0367121
0.0368712
0.0376032
0.0379137
0.0394289
0.039488
0.0107283
0.00734006
0.00554821
0.00494398
0.00527871
0.00621476
0.00679289
0.0066008
0.00574328
0.00515225
0.00504714
0.00539617
0.00594012
0.0066152
0.00737172
0.00821188
0.00913671
0.0101437
0.0112201
0.0123525
0.013526
0.0147278
0.0159468
0.0171744
0.0184029
0.0196257
0.0208374
0.0220342
0.0232077
0.0243545
0.0254715
0.0265544
0.0275996
0.0286031
0.0295597
0.0304653
0.0313156
0.0321067
0.0328351
0.0334972
0.0340912
0.0346145
0.0350678
0.0354492
0.0357628
0.0360074
0.0361931
0.0363173
0.0364026
0.0364372
0.0364707
0.0364633
0.0365292
0.0365488
0.0367974
0.0369323
0.0376353
0.037927
0.0393996
0.0394366
0.0107234
0.00732141
0.00548193
0.00477221
0.00499621
0.00594928
0.00682253
0.00703671
0.00642687
0.00581026
0.00556627
0.00581042
0.00629855
0.00694917
0.00769416
0.00853052
0.00945539
0.0104659
0.0115491
0.0126915
0.0138776
0.0150939
0.016329
0.0175734
0.0188191
0.0200587
0.0212866
0.0224988
0.0236855
0.0248438
0.0259701
0.0270602
0.0281102
0.0291158
0.0300717
0.0309739
0.0318181
0.0326
0.0333163
0.0339635
0.0345399
0.0350432
0.0354739
0.0358305
0.0361173
0.0363333
0.0364889
0.0365819
0.036635
0.0366371
0.0366376
0.0365982
0.0366316
0.0366218
0.0368397
0.0369501
0.0376231
0.0378964
0.0393264
0.0393466
0.0107191
0.00730722
0.00542818
0.00462466
0.00472953
0.00564156
0.00672973
0.00733904
0.00705515
0.00650642
0.00616211
0.0062926
0.00670992
0.00732459
0.00805056
0.00887772
0.009798
0.0108083
0.0118951
0.0130446
0.0142406
0.0154692
0.016718
0.0179771
0.0192379
0.0204924
0.0217345
0.0229596
0.0241575
0.0253251
0.0264588
0.0275541
0.0286067
0.0296123
0.0305657
0.0314624
0.0322982
0.033069
0.0337713
0.0344018
0.0349588
0.0354402
0.0358467
0.036177
0.0364355
0.0366219
0.0367462
0.0368071
0.0368272
0.0367962
0.0367631
0.0366912
0.0366919
0.0366523
0.0368392
0.0369249
0.0375672
0.0378225
0.0392102
0.0392188
0.0107153
0.00729661
0.00538507
0.00449947
0.00448436
0.00531146
0.00653125
0.00749712
0.00759208
0.00720501
0.00682051
0.00684412
0.00717948
0.00774642
0.00844504
0.00925684
0.0101678
0.0111738
0.0122605
0.0134137
0.0146167
0.0158547
0.0171146
0.018386
0.0196595
0.0209267
0.0221807
0.0234164
0.0246233
0.0257983
0.0269371
0.0280354
0.0290885
0.030092
0.0310406
0.0319298
0.0327552
0.0335128
0.0341991
0.034811
0.0353468
0.0358045
0.0361852
0.0364877
0.0367167
0.0368721
0.0369642
0.0369922
0.0369785
0.0369139
0.0368469
0.0367423
0.0367099
0.0366404
0.036796
0.036857
0.0374681
0.0377061
0.0390518
0.0390539
0.0107121
0.00728889
0.00535092
0.00439445
0.00426388
0.0049761
0.00624818
0.00750963
0.00800769
0.00786758
0.0075178
0.00745979
0.00770976
0.00821868
0.0088814
0.0096711
0.0105674
0.0115646
0.0126473
0.0138006
0.0150071
0.0162514
0.0175197
0.0188006
0.0200843
0.0213616
0.0226253
0.0238692
0.0250828
0.0262627
0.0274045
0.0285035
0.0295549
0.030554
0.0314956
0.032375
0.0331879
0.0339302
0.0345986
0.0351899
0.0357026
0.0361351
0.0364883
0.0367617
0.0369599
0.0370832
0.0371422
0.0371364
0.0370884
0.0369897
0.0368885
0.036751
0.0366856
0.0365861
0.0367102
0.0367468
0.0373263
0.0375476
0.0388521
0.0388527
0.0107092
0.00728348
0.00532425
0.00430733
0.00406935
0.00464927
0.00590383
0.00738426
0.0082798
0.00845619
0.00822292
0.00812662
0.00829902
0.00874352
0.00936253
0.0101233
0.0109994
0.0119829
0.0130571
0.0142065
0.015413
0.0166603
0.0179338
0.0192214
0.0205124
0.0217973
0.023068
0.0243176
0.0255355
0.026718
0.0278603
0.0289576
0.0300049
0.0309973
0.0319296
0.032797
0.0335952
0.0343201
0.0349685
0.0355373
0.0360252
0.0364307
0.0367549
0.0369977
0.0371639
0.0372541
0.0372791
0.0372389
0.0371562
0.0370232
0.0368875
0.0367171
0.0366186
0.0364895
0.0365821
0.0365944
0.0371422
0.0373477
0.0386119
0.0386158
0.0107068
0.00727991
0.00530382
0.00423583
0.00390052
0.00434121
0.00552165
0.0071366
0.00839531
0.00893613
0.0089003
0.00882374
0.00893986
0.00932011
0.00988983
0.0106153
0.0114656
0.0124303
0.0134914
0.0146328
0.0158353
0.017082
0.0183573
0.0196485
0.020944
0.0222335
0.0235087
0.0247611
0.0259807
0.0271632
0.0283035
0.0293966
0.0304374
0.0314208
0.0323414
0.0331946
0.0339759
0.0346812
0.0353075
0.0358519
0.0363132
0.03669
0.0369838
0.0371947
0.0373276
0.0373838
0.0373741
0.037299
0.0371811
0.0370136
0.0368434
0.0366404
0.0365089
0.0363504
0.0364118
0.0364003
0.0369163
0.0371069
0.0383317
0.0383437
0.0107046
0.00727779
0.00528853
0.00417781
0.00375612
0.00405878
0.00512336
0.00678844
0.00835108
0.00927824
0.00951269
0.0095235
0.00961841
0.00994355
0.0104624
0.0111477
0.0119671
0.012908
0.0139514
0.0150803
0.0162747
0.017517
0.0187906
0.020082
0.0213788
0.02267
0.0239469
0.0251992
0.0264177
0.0275974
0.0287332
0.0298196
0.0308513
0.0318231
0.0327297
0.0335663
0.0343284
0.0350121
0.0356143
0.0361323
0.0365652
0.0369117
0.0371736
0.0373513
0.03745
0.0374713
0.0374262
0.0373157
0.0371624
0.0369603
0.0367559
0.0365203
0.0363563
0.0361689
0.0361993
0.0361645
0.036649
0.0368257
0.0380124
0.0380369
0.0107027
0.0072768
0.00527746
0.00413132
0.00363424
0.00380587
0.00472765
0.00636555
0.00815397
0.00946087
0.0100239
0.0101934
0.0103143
0.0106039
0.011076
0.0117191
0.0125036
0.0134163
0.0144374
0.0155494
0.0167315
0.0179654
0.0192336
0.0205216
0.0218163
0.0231061
0.0243815
0.0256307
0.0268453
0.0280196
0.0291481
0.0302251
0.0312452
0.0322029
0.033093
0.0339106
0.0346512
0.0353111
0.0358872
0.036377
0.0367797
0.0370944
0.0373231
0.0374664
0.0375299
0.0375155
0.0374344
0.0372882
0.0370994
0.0368628
0.0366243
0.0363567
0.0361605
0.0359448
0.0359447
0.0358874
0.0363407
0.0365048
0.0376546
0.0376961
0.010701
0.00727669
0.00526982
0.00409458
0.00353264
0.00358391
0.00434933
0.00589521
0.00782019
0.00947166
0.0104012
0.0107981
0.0110012
0.0112859
0.0117227
0.0123255
0.0130732
0.0139541
0.0149489
0.0160397
0.0172054
0.0184268
0.0196857
0.0209667
0.0222559
0.0235409
0.0248114
0.0260547
0.0272624
0.0284283
0.0295467
0.0306116
0.0316174
0.0325585
0.0334296
0.0342258
0.0349427
0.0355766
0.0361246
0.0365843
0.0369551
0.0372365
0.0374306
0.0375385
0.0375659
0.0375151
0.0373977
0.0372156
0.0369913
0.0367204
0.0364482
0.0361491
0.0359214
0.0356782
0.0356482
0.0355692
0.0359918
0.0361445
0.0372588
0.0373216
0.0106995
0.00727724
0.00526494
0.00406601
0.00344892
0.0033925
0.00399902
0.00540387
0.00737368
0.0093087
0.0106178
0.0113021
0.0116486
0.0119685
0.0123898
0.0129596
0.0136716
0.0145189
0.0154841
0.01655
0.0176952
0.0189002
0.0201459
0.0214162
0.0226964
0.0239731
0.0252354
0.0264696
0.0276673
0.0288219
0.0299273
0.0309773
0.0319661
0.032888
0.0337377
0.0345101
0.0352011
0.0358068
0.0363247
0.0367525
0.0370899
0.0373366
0.0374949
0.0375663
0.0375568
0.0374691
0.037315
0.0370969
0.0368373
0.0365325
0.036227
0.0358971
0.0356387
0.0353689
0.0353099
0.0352101
0.0356027
0.0357455
0.0368258
0.036914
0.0106983
0.00727829
0.00526227
0.00404425
0.00338076
0.00322997
0.00368336
0.00491503
0.00684383
0.00898098
0.0106548
0.0116718
0.0122228
0.012626
0.0130602
0.0136104
0.0142917
0.0151059
0.0160399
0.0170778
0.0181991
0.0193838
0.0206126
0.0218685
0.023136
0.0244011
0.0256517
0.0268735
0.0280581
0.0291985
0.030288
0.0313203
0.0322893
0.0331894
0.0340151
0.0347614
0.0354242
0.0359997
0.0364856
0.0368798
0.0371822
0.0373928
0.0375142
0.0375482
0.0375012
0.0373763
0.0371853
0.0369313
0.0366365
0.0362983
0.0359603
0.0356004
0.0353123
0.0350168
0.0349298
0.0348105
0.0351738
0.0353081
0.036356
0.0364736
0.0106971
0.0072797
0.00526132
0.00402812
0.00332594
0.00309387
0.0034055
0.00444787
0.00626261
0.0085079
0.0105035
0.0118781
0.0126895
0.0132288
0.0137118
0.0142628
0.0149232
0.0157081
0.0166109
0.0176192
0.0187137
0.019875
0.0210833
0.0223212
0.0235726
0.0248226
0.0260579
0.0272642
0.0284326
0.0295556
0.0306263
0.0316381
0.0325848
0.0334604
0.0342597
0.0349776
0.0356099
0.0361533
0.0366053
0.0369643
0.0372302
0.0374035
0.037487
0.0374829
0.0373978
0.0372353
0.0370073
0.0367176
0.0363881
0.0360171
0.0356475
0.0352587
0.0349418
0.034622
0.034508
0.0343704
0.0347056
0.0348331
0.0358501
0.036001
0.0106961
0.00728137
0.00526173
0.00401657
0.00328243
0.00298131
0.00316579
0.0040164
0.00566162
0.00791775
0.0101662
0.0118986
0.0130157
0.0137447
0.0143187
0.0148975
0.0155524
0.0163154
0.01719
0.0181685
0.0192347
0.0203699
0.0215547
0.0227713
0.0240032
0.0252347
0.0264515
0.027639
0.0287881
0.0298908
0.0309397
0.0319282
0.0328498
0.0336985
0.0344689
0.035156
0.0357559
0.0362652
0.0366816
0.0370038
0.037232
0.0373668
0.0374115
0.0373687
0.0372451
0.0370449
0.0367801
0.036455
0.0360914
0.0356885
0.0352881
0.0348715
0.0345272
0.0341844
0.0340448
0.0338903
0.0341984
0.0343207
0.0353087
0.0354965
0.0106952
0.00728322
0.00526316
0.00400875
0.00324843
0.00288934
0.00296261
0.00362947
0.00506931
0.00724514
0.00965733
0.0117202
0.0131719
0.0141409
0.0148518
0.0154917
0.0161619
0.016915
0.0177671
0.0187182
0.0197557
0.0208632
0.0220221
0.0232147
0.024424
0.0256341
0.0268289
0.0279946
0.0291213
0.0302007
0.0312251
0.0321876
0.0330814
0.0339007
0.03464
0.0352943
0.0358596
0.0363329
0.0367122
0.0369961
0.0371854
0.0372808
0.037286
0.037204
0.0370417
0.0368038
0.0365025
0.0361425
0.0357456
0.0353116
0.0348816
0.0344386
0.0340681
0.033704
0.0335401
0.0333704
0.0336528
0.0337717
0.0347323
0.0349606
0.0106945
0.00728517
0.00526535
0.00400392
0.00322234
0.00281507
0.00279301
0.00329122
0.00450889
0.00652769
0.00900259
0.0113406
0.0131347
0.0143856
0.0152802
0.016019
0.0167308
0.0174905
0.0183298
0.0192581
0.0202688
0.0213484
0.0224799
0.0236462
0.0248304
0.0260161
0.0271862
0.0283271
0.0294286
0.0304819
0.0314791
0.0324129
0.0332766
0.0340641
0.0347699
0.0353893
0.0359183
0.036354
0.0366945
0.036939
0.0370883
0.0371435
0.0371087
0.0369871
0.0367861
0.0365106
0.0361732
0.035779
0.0353497
0.0348858
0.0344276
0.0339596
0.0335646
0.0331808
0.0329942
0.0328111
0.033069
0.0331865
0.0341215
0.0343936
0.0106938
0.00728717
0.00526809
0.00400144
0.00320277
0.00275581
0.00265335
0.00300198
0.0039971
0.00580236
0.00823718
0.0107703
0.0128889
0.0144503
0.0155725
0.0164508
0.0172352
0.0180227
0.0188627
0.0197761
0.0207638
0.0218169
0.0229209
0.0240596
0.0252167
0.0263756
0.0275185
0.028632
0.0297057
0.0307303
0.0316976
0.0326003
0.0334315
0.034185
0.0348554
0.035438
0.035929
0.0363255
0.036626
0.03683
0.0369384
0.0369529
0.0368776
0.0367163
0.0364767
0.0361642
0.0357913
0.0353637
0.034903
0.0344106
0.0339255
0.0334343
0.0330165
0.0326148
0.0324073
0.0322125
0.0324477
0.0325657
0.0334769
0.033796
0.0106932
0.0072892
0.00527121
0.00400081
0.00318852
0.00270913
0.00253977
0.00275932
0.003544
0.00510195
0.00740276
0.0100325
0.0124303
0.014312
0.0156985
0.0167572
0.0176485
0.0184894
0.0193475
0.0202571
0.0212285
0.0222586
0.0233362
0.0244472
0.0255761
0.0267064
0.02782
0.028904
0.0299475
0.0309411
0.0318764
0.0327458
0.0335423
0.0342599
0.034893
0.035437
0.0358884
0.0362445
0.0365039
0.0366664
0.0367333
0.0367067
0.0365908
0.03639
0.0361121
0.035763
0.0353554
0.0348956
0.0344048
0.0338853
0.033375
0.0328623
0.0324236
0.0320061
0.0317796
0.0315752
0.0317892
0.0319098
0.0327991
0.0331683
0.0106927
0.00729121
0.00527459
0.00400159
0.00317858
0.0026729
0.00244848
0.00255908
0.0031536
0.00445242
0.00654335
0.00916232
0.0117674
0.013956
0.0156317
0.0169085
0.0179428
0.018866
0.0197635
0.020684
0.0216485
0.0226611
0.0237154
0.0247999
0.0259006
0.0270013
0.0280844
0.0291371
0.0301486
0.0311092
0.0320104
0.0328446
0.0336046
0.0342844
0.0348786
0.0353827
0.0357932
0.0361078
0.0363253
0.0364457
0.0364707
0.0364027
0.0362463
0.0360062
0.0356906
0.0353057
0.0348645
0.0343737
0.0338543
0.0333093
0.0327757
0.0322436
0.031786
0.0313548
0.0311113
0.0308994
0.0310942
0.0312195
0.0320887
0.0325109
0.0106922
0.00729318
0.00527811
0.00400343
0.00317209
0.00264527
0.00237594
0.00239617
0.00282502
0.00387139
0.00570081
0.00820434
0.0109224
0.0133782
0.0153512
0.0168769
0.0180895
0.0191264
0.0200877
0.021037
0.022007
0.0230104
0.0240463
0.025107
0.0261807
0.027252
0.028304
0.0293244
0.0303025
0.0312287
0.0320943
0.0328915
0.0336136
0.0342542
0.0348082
0.0352711
0.0356398
0.035912
0.0360869
0.0361649
0.0361479
0.0360386
0.035842
0.0355632
0.0352106
0.0347911
0.0343175
0.0337972
0.0332507
0.0326822
0.0321273
0.0315778
0.0311036
0.030661
0.0304028
0.0301857
0.0303631
0.0304954
0.0313464
0.0318242
0.0106918
0.0072951
0.0052817
0.00400606
0.00316831
0.00262464
0.00231898
0.00226532
0.00255396
0.00336797
0.00491058
0.00720836
0.00993127
0.0125875
0.0148442
0.0166386
0.0180612
0.0192435
0.0202956
0.0212946
0.0222855
0.0232903
0.024315
0.0253565
0.0264058
0.0274489
0.0284702
0.0294581
0.0304021
0.0312929
0.0321218
0.0328811
0.033564
0.0341644
0.0346771
0.0350981
0.0354242
0.0356536
0.0357857
0.0358211
0.0357622
0.035612
0.0353758
0.0350592
0.0346707
0.0342177
0.0337132
0.033165
0.0325935
0.0320035
0.0314295
0.030865
0.0303765
0.029925
0.0296544
0.0294345
0.0295967
0.0297381
0.0305727
0.0311088
0.0106915
0.00729696
0.00528528
0.00400925
0.00316666
0.00260965
0.00227485
0.00216144
0.00233416
0.00294385
0.00419865
0.00622421
0.0088414
0.0116074
0.0141092
0.0161758
0.0178329
0.0191907
0.0203617
0.0214337
0.0224634
0.0234829
0.0245059
0.0255346
0.0265637
0.0275814
0.0285735
0.0295295
0.0304396
0.0312947
0.0320864
0.0328071
0.0334502
0.0340097
0.0344807