/*--------------------------------*- C++ -*----------------------------------*\
| =========                 |                                                 |
| \\      /  F ield         | OpenFOAM: The Open Source CFD Toolbox           |
|  \\    /   O peration     | Version:  2.4.0                                 |
|   \\  /    A nd           | Web:      www.OpenFOAM.org                      |
|    \\/     M anipulation  |                                                 |
\*---------------------------------------------------------------------------*/
FoamFile
{
    version     2.0;
    format      ascii;
    class       volVectorField;
    location    "0.98";
    object      UMean;
}
// * * * * * * * * * * * * * * * * * * * * * * * * * * * * * * * * * * * * * //

dimensions      [0 1 -1 0 0 0 0];

internalField   nonuniform List<vector> 
2320
(
(0.863989 0.00165226 0)
(1.02432 -0.00191948 0)
(0.853658 -0.00333697 0)
(1.03617 -0.00653268 0)
(0.851238 -0.00401974 0)
(1.04625 -0.00412794 0)
(0.840882 -0.00604841 0)
(1.05785 -0.0091423 0)
(0.84003 -0.00767153 0)
(1.0662 -0.0086902 0)
(0.834363 -0.00754916 0)
(1.07671 -0.0111638 0)
(0.834132 -0.00962742 0)
(1.08542 -0.0142822 0)
(0.833398 -0.0143732 0)
(1.10352 -0.0211192 0)
(0.847259 -0.0189243 0)
(1.12988 -0.0330583 0)
(0.890278 -0.0259536 0)
(1.17384 -0.0452226 0)
(0.957656 0.00488655 0)
(0.932996 -0.00219109 0)
(0.961539 0.00361664 0)
(0.943187 -0.00350362 0)
(0.957897 0.00551384 0)
(0.95227 -0.00382652 0)
(0.955622 0.0087057 0)
(0.963736 -0.0044621 0)
(0.958982 0.0117354 0)
(0.969945 -0.00495451 0)
(0.965023 0.0125375 0)
(0.98064 -0.00780536 0)
(0.971012 0.0182647 0)
(0.982116 -0.00918197 0)
(0.981672 0.0216217 0)
(0.993132 -0.0145843 0)
(1.00078 0.024544 0)
(1.01121 -0.0239429 0)
(1.03502 0.0266602 0)
(1.0642 -0.0287683 0)
(0.997323 0.00850743 0)
(0.89276 -0.0070658 0)
(1.00172 0.00469578 0)
(0.898489 -0.0106418 0)
(1.00194 0.00491933 0)
(0.902855 -0.0113733 0)
(1.00631 0.00585544 0)
(0.910956 -0.0168233 0)
(1.01226 0.00583747 0)
(0.916536 -0.0206325 0)
(1.02348 0.00998173 0)
(0.913947 -0.0239414 0)
(1.0363 0.0137686 0)
(0.915079 -0.0316439 0)
(1.04943 0.0108232 0)
(0.918022 -0.0447202 0)
(1.06797 0.00976809 0)
(0.928389 -0.0648605 0)
(1.09568 -0.00424242 0)
(0.973435 -0.0895077 0)
(0.993398 0.0104867 0)
(0.89558 -0.0099902 0)
(0.997725 0.00906267 0)
(0.899164 -0.0138627 0)
(1.00389 0.00982117 0)
(0.903781 -0.0161748 0)
(1.0138 0.0129782 0)
(0.904981 -0.0225579 0)
(1.02254 0.017909 0)
(0.908461 -0.0265542 0)
(1.03361 0.0237824 0)
(0.913233 -0.0331724 0)
(1.04733 0.0301391 0)
(0.928255 -0.0396063 0)
(1.06433 0.0346364 0)
(0.946181 -0.0531216 0)
(1.09458 0.0346698 0)
(0.981668 -0.0743946 0)
(1.13481 0.0212084 0)
(1.03491 -0.101255 0)
(0.976162 0.0162546 0)
(0.911932 -0.0162615 0)
(0.978982 0.0127947 0)
(0.912797 -0.0230466 0)
(0.985076 0.0139235 0)
(0.913793 -0.0246599 0)
(0.98776 0.0175968 0)
(0.911008 -0.0305357 0)
(0.991086 0.0203157 0)
(0.913358 -0.0364358 0)
(0.997435 0.024056 0)
(0.916388 -0.0434794 0)
(1.00474 0.0275835 0)
(0.919654 -0.0552036 0)
(1.01576 0.0267044 0)
(0.932495 -0.0752973 0)
(1.03061 0.0239969 0)
(0.957108 -0.104026 0)
(1.05261 0.00782399 0)
(1.00641 -0.147271 0)
(0.989118 0.0164079 0)
(0.903268 -0.0187636 0)
(0.994529 0.0119628 0)
(0.898441 -0.0254445 0)
(0.997063 0.0123595 0)
(0.898315 -0.0275759 0)
(1.00425 0.0176764 0)
(0.906351 -0.0348109 0)
(1.01357 0.0193101 0)
(0.910296 -0.0423288 0)
(1.02341 0.0267984 0)
(0.913622 -0.049146 0)
(1.03768 0.03153 0)
(0.919666 -0.0599667 0)
(1.05743 0.0338379 0)
(0.925856 -0.0818417 0)
(1.0908 0.0302458 0)
(0.941229 -0.112692 0)
(1.13435 0.00894364 0)
(0.975265 -0.15549 0)
(0.95601 0.0228603 0)
(0.939411 -0.0230584 0)
(0.962854 0.0238505 0)
(0.936821 -0.0283315 0)
(0.96378 0.0231185 0)
(0.934434 -0.0341827 0)
(0.975979 0.0251113 0)
(0.948821 -0.0409329 0)
(0.986535 0.0308682 0)
(0.951669 -0.0476694 0)
(0.995913 0.0357553 0)
(0.962022 -0.0582042 0)
(1.0097 0.0406248 0)
(0.972594 -0.0729311 0)
(1.02894 0.0408668 0)
(0.985942 -0.0996007 0)
(1.05845 0.03616 0)
(1.0038 -0.134642 0)
(1.10686 0.0123857 0)
(1.0304 -0.191194 0)
(0.942909 0.0167605 0)
(0.954813 -0.0225182 0)
(0.955534 0.0154791 0)
(0.958729 -0.0276967 0)
(0.968822 0.0125081 0)
(0.96185 -0.0348945 0)
(0.980739 0.0113894 0)
(0.962655 -0.0419496 0)
(0.991692 0.0175385 0)
(0.967284 -0.049028 0)
(1.00636 0.0210425 0)
(0.972803 -0.0589037 0)
(1.0228 0.0248692 0)
(0.983244 -0.0741498 0)
(1.0417 0.0266353 0)
(0.994589 -0.103022 0)
(1.06244 0.0221806 0)
(1.01438 -0.145736 0)
(1.09716 0.00282327 0)
(1.03717 -0.21184 0)
(0.930303 0.0250123 0)
(0.970043 -0.0317494 0)
(0.941733 0.0254104 0)
(0.977759 -0.0371193 0)
(0.95589 0.0248768 0)
(0.982317 -0.0431428 0)
(0.968136 0.0267391 0)
(0.986124 -0.0477865 0)
(0.982323 0.0305544 0)
(0.993668 -0.0555103 0)
(0.995418 0.0342121 0)
(1.00137 -0.0630051 0)
(1.00636 0.0350812 0)
(1.01339 -0.0771702 0)
(1.01966 0.0332266 0)
(1.02851 -0.10397 0)
(1.03582 0.0223859 0)
(1.04713 -0.148562 0)
(1.06658 -0.00350234 0)
(1.07039 -0.227287 0)
(0.920391 0.0121599 0)
(0.978381 -0.0221108 0)
(0.928011 0.00695418 0)
(0.981619 -0.0292297 0)
(0.938914 0.00417611 0)
(0.987618 -0.0330624 0)
(0.952111 0.00343446 0)
(0.998952 -0.0379654 0)
(0.969568 0.00442777 0)
(1.00854 -0.0433767 0)
(0.979956 0.00647849 0)
(1.01469 -0.0506426 0)
(0.993661 0.00492342 0)
(1.01872 -0.0644595 0)
(1.00392 0.00343073 0)
(1.03162 -0.0903675 0)
(1.01132 -0.00271825 0)
(1.04509 -0.137706 0)
(1.01115 -0.0172322 0)
(1.06588 -0.228502 0)
(0.923089 0.0249984 0)
(0.981676 -0.0353565 0)
(0.922716 0.0209165 0)
(0.983247 -0.0435803 0)
(0.927981 0.0186294 0)
(0.987601 -0.0504068 0)
(0.94555 0.0164277 0)
(0.998687 -0.0549577 0)
(0.961939 0.0198644 0)
(1.00277 -0.0579689 0)
(0.967849 0.0236469 0)
(1.00592 -0.0644667 0)
(0.96906 0.0250033 0)
(1.00617 -0.0757137 0)
(0.975136 0.0153512 0)
(1.012 -0.0979369 0)
(0.982276 0.000556208 0)
(1.0086 -0.137326 0)
(0.999749 -0.0355298 0)
(0.994959 -0.213514 0)
(0.941779 0.00346096 0)
(0.961966 -0.0109876 0)
(0.93824 -0.00221746 0)
(0.974138 -0.0201675 0)
(0.935485 -0.00700102 0)
(0.992285 -0.0283242 0)
(0.944668 -0.0131085 0)
(1.00734 -0.0284574 0)
(0.94855 -0.012204 0)
(1.0187 -0.0277587 0)
(0.949321 -0.013188 0)
(1.02942 -0.0302938 0)
(0.93942 -0.0165889 0)
(1.04561 -0.0410434 0)
(0.929604 -0.0261916 0)
(1.06258 -0.0584141 0)
(0.90575 -0.0338039 0)
(1.07473 -0.103386 0)
(0.873479 -0.0434072 0)
(1.07501 -0.215212 0)
(0.97947 0.0221427 0)
(0.921097 -0.0314559 0)
(0.986415 0.0126094 0)
(0.923612 -0.0438783 0)
(0.989132 0.00796497 0)
(0.939883 -0.0533724 0)
(0.994866 0.0044318 0)
(0.955271 -0.0548313 0)
(0.999604 0.0087509 0)
(0.968887 -0.0543021 0)
(1.00224 0.012807 0)
(0.976578 -0.0563606 0)
(0.994906 0.00971779 0)
(0.986813 -0.0683239 0)
(0.981523 -0.00448195 0)
(1.00671 -0.0817997 0)
(0.950571 -0.0208167 0)
(1.03181 -0.117817 0)
(0.866764 -0.0493226 0)
(1.06068 -0.232469 0)
(0.976347 -0.00315347 0)
(0.921318 -0.0043007 0)
(0.981024 -0.0138082 0)
(0.9171 -0.0133024 0)
(0.984498 -0.024532 0)
(0.929885 -0.0209138 0)
(0.996293 -0.0329605 0)
(0.945967 -0.0165617 0)
(1.00911 -0.0344584 0)
(0.955212 -0.0110453 0)
(1.01334 -0.0358913 0)
(0.951187 -0.00458907 0)
(1.00855 -0.0431832 0)
(0.949183 -0.00522695 0)
(1.00898 -0.0635096 0)
(0.960545 -0.00232145 0)
(1.00142 -0.0876023 0)
(0.971399 -0.00530853 0)
(0.95037 -0.112482 0)
(0.972581 -0.0495187 0)
(0.994264 0.0227113 0)
(0.90572 -0.0317427 0)
(1.00034 0.0145754 0)
(0.902166 -0.0447113 0)
(1.00629 0.00316262 0)
(0.9189 -0.0598223 0)
(1.0225 -0.00230364 0)
(0.940781 -0.0616502 0)
(1.0383 0.00347195 0)
(0.948585 -0.0563405 0)
(1.04216 0.0134866 0)
(0.941362 -0.0578734 0)
(1.04436 0.0088604 0)
(0.939344 -0.0749488 0)
(1.04669 -0.0113763 0)
(0.954951 -0.0815134 0)
(1.03472 -0.0322958 0)
(0.981981 -0.0857356 0)
(0.984071 -0.0642444 0)
(1.01588 -0.143379 0)
(0.979568 -0.00905512 0)
(0.919731 0.00214143 0)
(0.985282 -0.0212375 0)
(0.914527 -0.008518 0)
(0.996233 -0.0421332 0)
(0.92832 -0.0209683 0)
(1.01757 -0.0538866 0)
(0.948687 -0.0128947 0)
(1.026 -0.052232 0)
(0.954127 0.00451383 0)
(1.02544 -0.0454921 0)
(0.939637 0.0142178 0)
(1.03054 -0.0566106 0)
(0.903607 0.0164771 0)
(1.04306 -0.0919291 0)
(0.881163 0.036392 0)
(1.05374 -0.143557 0)
(0.869218 0.0749362 0)
(1.03156 -0.191855 0)
(0.873425 0.159611 0)
(0.964373 0.0229305 0)
(0.939006 -0.0341517 0)
(0.966509 0.0164445 0)
(0.936858 -0.0531298 0)
(0.977503 -0.00268443 0)
(0.94697 -0.073576 0)
(0.991628 -0.00984122 0)
(0.949544 -0.0697701 0)
(0.998792 0.000402674 0)
(0.951363 -0.0594779 0)
(1.00748 0.0177181 0)
(0.937638 -0.0664384 0)
(1.01216 0.0288439 0)
(0.899131 -0.0928666 0)
(1.0391 0.0138366 0)
(0.868538 -0.102832 0)
(1.05815 -0.00772903 0)
(0.796686 -0.0859661 0)
(1.06037 -0.0906858 0)
(0.771605 -0.0614402 0)
(0.947929 -0.0159956 0)
(0.954708 0.01073 0)
(0.946271 -0.0275471 0)
(0.956026 -0.00601015 0)
(0.949469 -0.0521822 0)
(0.951951 -0.0194225 0)
(0.93087 -0.0586395 0)
(0.94075 -0.00839744 0)
(0.928269 -0.0590523 0)
(0.935685 0.0163592 0)
(0.931882 -0.045108 0)
(0.931732 0.0258298 0)
(0.926153 -0.0408899 0)
(0.945111 0.0110977 0)
(0.926788 -0.0805447 0)
(0.943492 0.0290712 0)
(0.934884 -0.118673 0)
(0.87646 0.104481 0)
(0.912045 -0.181459 0)
(0.684926 0.386265 0)
(0.959172 0.0201068 0)
(0.940478 -0.029834 0)
(0.956755 0.011628 0)
(0.930947 -0.054183 0)
(0.929011 -0.00548874 0)
(0.870466 -0.065104 0)
(0.867268 -0.00789821 0)
(0.824878 -0.070008 0)
(0.817341 -0.00276779 0)
(0.784763 -0.0622034 0)
(0.801955 0.0102905 0)
(0.752485 -0.0640361 0)
(0.799752 0.0146015 0)
(0.76591 -0.0990712 0)
(0.72683 0.0182439 0)
(0.765162 -0.120953 0)
(0.658138 0.0390875 0)
(0.771161 -0.120332 0)
(0.761601 -0.0381673 0)
(0.469595 -0.0350877 0)
(0.934102 -0.0191811 0)
(0.961467 0.01897 0)
(0.920325 -0.0271664 0)
(0.917901 0.0158632 0)
(0.843351 -0.0220361 0)
(0.853078 0.01828 0)
(0.748865 -0.0321235 0)
(0.762993 0.0252211 0)
(0.652444 -0.0355476 0)
(0.672242 0.0372044 0)
(0.599067 -0.0290227 0)
(0.618744 0.0393856 0)
(0.550092 -0.0418973 0)
(0.547705 0.0525918 0)
(0.446412 -0.0681358 0)
(0.442508 0.066023 0)
(0.307229 -0.100473 0)
(0.333701 0.0657371 0)
(0.118678 0.0252953 0)
(0.348218 0.448181 0)
(0.952228 -0.0405213 0)
(1.25952 -0.0627831 0)
(1.05486 -0.0610058 0)
(1.41836 -0.0633516 0)
(1.19645 -0.0653947 0)
(1.6118 -0.0835973 0)
(1.42924 -0.0849671 0)
(1.86244 -0.102342 0)
(1.08709 0.0234349 0)
(1.17221 -0.0348508 0)
(1.16155 0.00722288 0)
(1.3322 -0.043673 0)
(1.30297 -0.025275 0)
(1.52865 -0.0598013 0)
(1.51642 -0.0349674 0)
(1.77788 -0.0750769 0)
(1.15534 -0.038224 0)
(1.08361 -0.119771 0)
(1.24348 -0.0879937 0)
(1.2769 -0.142649 0)
(1.36301 -0.127721 0)
(1.50322 -0.17477 0)
(1.54187 -0.1712 0)
(1.77117 -0.226348 0)
(1.20486 -0.0120811 0)
(1.11326 -0.126554 0)
(1.31034 -0.0670546 0)
(1.23912 -0.145423 0)
(1.46695 -0.136937 0)
(1.43315 -0.175051 0)
(1.68789 -0.187355 0)
(1.70845 -0.226836 0)
(1.09095 -0.0335306 0)
(1.10965 -0.199409 0)
(1.1766 -0.107816 0)
(1.28551 -0.241275 0)
(1.34553 -0.19789 0)
(1.49218 -0.279524 0)
(1.61257 -0.289037 0)
(1.70603 -0.343433 0)
(1.20006 -0.0415388 0)
(1.06114 -0.208392 0)
(1.2878 -0.130249 0)
(1.24616 -0.262481 0)
(1.39925 -0.230336 0)
(1.50355 -0.318391 0)
(1.5589 -0.31565 0)
(1.77321 -0.387263 0)
(1.18552 -0.0508613 0)
(1.08867 -0.261162 0)
(1.29451 -0.165353 0)
(1.22422 -0.325923 0)
(1.43729 -0.30052 0)
(1.40715 -0.371844 0)
(1.62895 -0.411702 0)
(1.75572 -0.481878 0)
(1.16375 -0.0540087 0)
(1.07774 -0.290873 0)
(1.27809 -0.170301 0)
(1.21903 -0.359733 0)
(1.34915 -0.295538 0)
(1.45347 -0.435601 0)
(1.67094 -0.486347 0)
(1.77146 -0.541499 0)
(1.13764 -0.0677064 0)
(1.09349 -0.338767 0)
(1.29461 -0.207952 0)
(1.10491 -0.385755 0)
(1.42004 -0.370989 0)
(1.52191 -0.551687 0)
(1.68267 -0.560033 0)
(1.83232 -0.648117 0)
(1.00971 -0.0635129 0)
(1.12736 -0.380664 0)
(1.08466 -0.15866 0)
(1.15639 -0.483333 0)
(1.53793 -0.47653 0)
(1.50244 -0.608324 0)
(1.71534 -0.621633 0)
(1.81133 -0.702477 0)
(1.0571 -0.123807 0)
(1.01925 -0.363022 0)
(1.06549 -0.195007 0)
(1.31657 -0.631343 0)
(1.55243 -0.512564 0)
(1.4822 -0.672746 0)
(1.72013 -0.67761 0)
(1.75045 -0.757972 0)
(0.913315 -0.0919096 0)
(0.988697 -0.359668 0)
(1.21183 -0.31789 0)
(1.35329 -0.707195 0)
(1.53141 -0.532672 0)
(1.45374 -0.743366 0)
(1.71249 -0.717596 0)
(1.6261 -0.769937 0)
(0.686845 -0.126509 0)
(1.10134 -0.502462 0)
(1.22824 -0.431602 0)
(1.36717 -0.770742 0)
(1.47784 -0.551588 0)
(1.44075 -0.820785 0)
(1.63916 -0.712258 0)
(1.45924 -0.772887 0)
(0.786162 -0.1429 0)
(1.15537 -0.567504 0)
(1.26162 -0.511106 0)
(1.33887 -0.781743 0)
(1.41101 -0.55797 0)
(1.40025 -0.867 0)
(1.50683 -0.669209 0)
(1.35757 -0.815088 0)
(0.768141 -0.27695 0)
(1.18084 -0.682479 0)
(1.24481 -0.600785 0)
(1.26561 -0.791726 0)
(1.35353 -0.597981 0)
(1.32592 -0.895483 0)
(1.38073 -0.627995 0)
(1.27423 -0.888358 0)
(0.861711 -0.283639 0)
(1.16988 -0.687141 0)
(1.21781 -0.627067 0)
(1.19458 -0.767265 0)
(1.29701 -0.620385 0)
(1.21857 -0.877596 0)
(1.24367 -0.583425 0)
(1.23656 -0.97666 0)
(0.83115 -0.531145 0)
(1.12945 -0.780964 0)
(1.11992 -0.698757 0)
(1.10871 -0.777596 0)
(1.19231 -0.662178 0)
(1.08802 -0.862916 0)
(1.16682 -0.608072 0)
(1.167 -1.06217 0)
(0.865422 -0.533014 0)
(1.07511 -0.712582 0)
(1.03745 -0.67601 0)
(1.04821 -0.737967 0)
(1.09789 -0.660034 0)
(0.990969 -0.825283 0)
(1.08641 -0.618408 0)
(1.04653 -1.07272 0)
(0.788103 -0.871851 0)
(0.989524 -0.840912 0)
(0.918344 -0.7624 0)
(0.955731 -0.772794 0)
(0.961769 -0.698409 0)
(0.862456 -0.813024 0)
(0.980217 -0.690471 0)
(0.885644 -1.06624 0)
(0.795605 -0.821127 0)
(0.926199 -0.702326 0)
(0.827781 -0.686795 0)
(0.876122 -0.692034 0)
(0.826556 -0.659511 0)
(0.771978 -0.756335 0)
(0.807208 -0.675078 0)
(0.592385 -0.900424 0)
(1.7083 -0.10055 0)
(2.17077 -0.118173 0)
(2.05696 -0.108439 0)
(2.52896 -0.124888 0)
(2.47087 -0.104471 0)
(2.92847 -0.112492 0)
(2.9041 -0.0972139 0)
(3.34479 -0.101522 0)
(3.33449 -0.0848789 0)
(3.72248 -0.085554 0)
(3.70542 -0.0693234 0)
(4.01939 -0.0658899 0)
(3.96403 -0.0506259 0)
(4.19317 -0.0445552 0)
(4.07716 -0.0305095 0)
(4.22116 -0.0240316 0)
(4.03468 -0.0130047 0)
(4.10327 -0.007431 0)
(3.84798 -0.000612227 0)
(3.86269 0.00280273 0)
(3.54787 0.00390273 0)
(3.548 0.00572735 0)
(3.18718 7.94532e-05 0)
(3.21389 -0.00030264 0)
(2.82953 -0.0132472 0)
(2.92268 -0.0152761 0)
(2.55296 -0.0402573 0)
(2.76573 -0.0645004 0)
(1.79084 -0.0476287 0)
(2.08333 -0.0918107 0)
(2.13214 -0.0646452 0)
(2.44583 -0.11244 0)
(2.51651 -0.0937642 0)
(2.84668 -0.12541 0)
(2.94118 -0.112467 0)
(3.26928 -0.126402 0)
(3.3609 -0.108566 0)
(3.66561 -0.106743 0)
(3.72305 -0.0805638 0)
(3.9786 -0.0667789 0)
(3.977 -0.0339725 0)
(4.1621 -0.0127054 0)
(4.08428 0.0225448 0)
(4.19437 0.0454862 0)
(4.03519 0.0787809 0)
(4.07548 0.0977309 0)
(3.8409 0.126353 0)
(3.8274 0.136845 0)
(3.53604 0.157832 0)
(3.49324 0.15787 0)
(3.17596 0.171527 0)
(3.13001 0.159512 0)
(2.81878 0.164902 0)
(2.79724 0.133796 0)
(2.52224 0.130624 0)
(2.53192 0.0492035 0)
(1.79691 -0.209259 0)
(2.0971 -0.276466 0)
(2.11669 -0.245143 0)
(2.48016 -0.310403 0)
(2.5112 -0.271997 0)
(2.89633 -0.318867 0)
(2.95196 -0.28607 0)
(3.32553 -0.307957 0)
(3.38542 -0.269539 0)
(3.72685 -0.264334 0)
(3.75641 -0.215208 0)
(4.04242 -0.188003 0)
(4.01148 -0.131544 0)
(4.22629 -0.091606 0)
(4.11632 -0.0345351 0)
(4.25561 0.00801136 0)
(4.06272 0.0594187 0)
(4.13195 0.0944462 0)
(3.86237 0.136015 0)
(3.87735 0.155032 0)
(3.55272 0.184781 0)
(3.5377 0.180517 0)
(3.18544 0.201121 0)
(3.17107 0.168247 0)
(2.82196 0.188744 0)
(2.8343 0.111765 0)
(2.51199 0.145811 0)
(2.5709 -0.0116656 0)
(1.94651 -0.23391 0)
(2.04949 -0.279894 0)
(2.24325 -0.272558 0)
(2.44699 -0.332068 0)
(2.59897 -0.312553 0)
(2.8939 -0.367169 0)
(3.01332 -0.335961 0)
(3.34658 -0.36049 0)
(3.44373 -0.315039 0)
(3.7593 -0.306415 0)
(3.81928 -0.240972 0)
(4.07474 -0.204646 0)
(4.07863 -0.123622 0)
(4.24931 -0.0728528 0)
(4.18707 0.0138592 0)
(4.26669 0.0652904 0)
(4.13461 0.147047 0)
(4.13297 0.1875 0)
(3.93474 0.257238 0)
(3.8709 0.275281 0)
(3.62086 0.328541 0)
(3.52576 0.319062 0)
(3.24767 0.353511 0)
(3.15365 0.313922 0)
(2.87257 0.331583 0)
(2.8162 0.257532 0)
(2.54101 0.258716 0)
(2.56122 0.138997 0)
(1.93129 -0.36053 0)
(1.99748 -0.40648 0)
(2.28921 -0.428305 0)
(2.39273 -0.47792 0)
(2.68564 -0.480087 0)
(2.85892 -0.525591 0)
(3.10687 -0.498864 0)
(3.33686 -0.523076 0)
(3.52865 -0.466258 0)
(3.7602 -0.449855 0)
(3.88622 -0.366401 0)
(4.07246 -0.313343 0)
(4.12403 -0.212243 0)
(4.23818 -0.139212 0)
(4.21277 -0.0336543 0)
(4.24956 0.0418813 0)
(4.1506 0.137789 0)
(4.11721 0.199567 0)
(3.94961 0.277194 0)
(3.86173 0.312429 0)
(3.63995 0.366207 0)
(3.51801 0.369061 0)
(3.27045 0.397781 0)
(3.13793 0.361863 0)
(2.88817 0.370039 0)
(2.78391 0.292633 0)
(2.54293 0.277549 0)
(2.49559 0.164981 0)
(1.87003 -0.400897 0)
(2.08153 -0.462855 0)
(2.28752 -0.494918 0)
(2.45776 -0.537115 0)
(2.73084 -0.563955 0)
(2.88364 -0.59153 0)
(3.15882 -0.587254 0)
(3.33462 -0.592575 0)
(3.55015 -0.536821 0)
(3.73389 -0.505879 0)
(3.86347 -0.406803 0)
(4.02102 -0.337904 0)
(4.05415 -0.215298 0)
(4.17102 -0.126635 0)
(4.10849 0.00211881 0)
(4.18162 0.090263 0)
(4.035 0.209492 0)
(4.06261 0.279931 0)
(3.84672 0.376318 0)
(3.83138 0.416637 0)
(3.56809 0.485976 0)
(3.51855 0.486798 0)
(3.23052 0.526115 0)
(3.16951 0.484634 0)
(2.86653 0.490782 0)
(2.82814 0.410066 0)
(2.52179 0.381826 0)
(2.52037 0.270048 0)
(1.91787 -0.512211 0)
(2.14764 -0.597275 0)
(2.28909 -0.619435 0)
(2.51329 -0.681619 0)
(2.68741 -0.699277 0)
(2.87525 -0.732968 0)
(3.09894 -0.729697 0)
(3.25824 -0.719801 0)
(3.45513 -0.663955 0)
(3.60784 -0.611233 0)
(3.71267 -0.500167 0)
(3.84744 -0.410398 0)
(3.85561 -0.273475 0)
(3.96276 -0.164987 0)
(3.88615 -0.0228431 0)
(3.95922 0.0817986 0)
(3.81604 0.213124 0)
(3.84825 0.296249 0)
(3.65566 0.403284 0)
(3.64473 0.451626 0)
(3.41992 0.530006 0)
(3.38165 0.536224 0)
(3.12561 0.57891 0)
(3.09444 0.543205 0)
(2.80104 0.546827 0)
(2.80456 0.469954 0)
(2.48219 0.43638 0)
(2.52452 0.318987 0)
(2.00815 -0.610931 0)
(2.12765 -0.658583 0)
(2.2941 -0.692539 0)
(2.45255 -0.737941 0)
(2.60761 -0.762088 0)
(2.80428 -0.801919 0)
(2.97652 -0.792651 0)
(3.125 -0.776119 0)
(3.30208 -0.717448 0)
(3.3884 -0.642888 0)
(3.50679 -0.522925 0)
(3.56202 -0.41826 0)
(3.60529 -0.266535 0)
(3.63252 -0.147374 0)
(3.61753 0.00965703 0)
(3.61183 0.123897 0)
(3.55172 0.268671 0)
(3.51217 0.358965 0)
(3.41376 0.475857 0)
(3.34802 0.532351 0)
(3.21247 0.610559 0)
(3.14477 0.627749 0)
(2.96264 0.659625 0)
(2.92129 0.636864 0)
(2.69734 0.621889 0)
(2.68361 0.55946 0)
(2.44106 0.508764 0)
(2.42952 0.400935 0)
(1.98518 -0.691882 0)
(2.06844 -0.73287 0)
(2.21923 -0.773188 0)
(2.34269 -0.827602 0)
(2.52964 -0.877709 0)
(2.67583 -0.911899 0)
(2.81542 -0.896383 0)
(2.94409 -0.877178 0)
(3.0529 -0.80215 0)
(3.10854 -0.709422 0)
(3.19718 -0.583864 0)
(3.20325 -0.461231 0)
(3.24051 -0.299633 0)
(3.23336 -0.171821 0)
(3.22366 -0.00436517 0)
(3.20601 0.116728 0)
(3.15995 0.269912 0)
(3.13063 0.365647 0)
(3.04455 0.49134 0)
(3.01293 0.557301 0)
(2.88327 0.636475 0)
(2.86584 0.66525 0)
(2.69416 0.693304 0)
(2.69257 0.682398 0)
(2.50802 0.663525 0)
(2.48954 0.608437 0)
(2.33698 0.550165 0)
(2.26528 0.447703 0)
(1.91221 -0.729974 0)
(1.98494 -0.775326 0)
(2.12946 -0.830258 0)
(2.26999 -0.898887 0)
(2.41127 -0.941556 0)
(2.49721 -0.952735 0)
(2.60745 -0.937403 0)
(2.66798 -0.90074 0)
(2.72446 -0.808995 0)
(2.74924 -0.707244 0)
(2.79406 -0.573486 0)
(2.75278 -0.435461 0)
(2.79162 -0.274607 0)
(2.74101 -0.139468 0)
(2.74763 0.0316137 0)
(2.70878 0.156403 0)
(2.68424 0.312805 0)
(2.66354 0.408549 0)
(2.60209 0.537127 0)
(2.6066 0.603126 0)
(2.49285 0.685905 0)
(2.5219 0.713168 0)
(2.38079 0.742895 0)
(2.40548 0.724414 0)
(2.2804 0.716586 0)
(2.26388 0.650832 0)
(2.17349 0.615846 0)
(2.10332 0.495483 0)
(1.81565 -0.771903 0)
(1.89099 -0.837235 0)
(2.05971 -0.910554 0)
(2.13945 -0.96843 0)
(2.21982 -0.995644 0)
(2.26016 -1.00502 0)
(2.3046 -0.983448 0)
(2.30871 -0.931797 0)
(2.31378 -0.836168 0)
(2.3151 -0.728741 0)
(2.27765 -0.584243 0)
(2.25197 -0.446143 0)
(2.23872 -0.287569 0)
(2.19672 -0.146532 0)
(2.18063 0.0220171 0)
(2.16035 0.15111 0)
(2.12062 0.305741 0)
(2.13646 0.407861 0)
(2.07389 0.538844 0)
(2.13615 0.605309 0)
(2.03247 0.688208 0)
(2.11607 0.723822 0)
(1.99849 0.754041 0)
(2.07305 0.73727 0)
(1.97256 0.727995 0)
(2.0201 0.662657 0)
(1.93427 0.627272 0)
(1.93426 0.509992 0)
(1.69727 -0.790505 0)
(1.83275 -0.897767 0)
(1.94289 -0.953536 0)
(1.96462 -0.988316 0)
(1.98614 -1.0065 0)
(1.94607 -0.993629 0)
(1.94316 -0.96332 0)
(1.87721 -0.905594 0)
(1.86835 -0.806034 0)
(1.77408 -0.683378 0)
(1.74503 -0.540946 0)
(1.65633 -0.405412 0)
(1.65288 -0.250534 0)
(1.55997 -0.104888 0)
(1.58592 0.0510048 0)
(1.53553 0.186553 0)
(1.53953 0.323589 0)
(1.54114 0.422225 0)
(1.52808 0.554997 0)
(1.58376 0.620629 0)
(1.55292 0.698463 0)
(1.64226 0.730684 0)
(1.59836 0.761243 0)
(1.68195 0.748408 0)
(1.65228 0.740632 0)
(1.70817 0.682566 0)
(1.6943 0.652696 0)
(1.70434 0.528909 0)
(1.65112 -0.856969 0)
(1.74881 -0.961893 0)
(1.79902 -0.974974 0)
(1.73515 -0.992879 0)
(1.65106 -0.984273 0)
(1.57896 -0.97378 0)
(1.49965 -0.952736 0)
(1.41186 -0.889254 0)
(1.30342 -0.776048 0)
(1.22846 -0.656371 0)
(1.10526 -0.520492 0)
(1.0499 -0.387986 0)
(0.945322 -0.231489 0)
(0.926852 -0.108471 0)
(0.881961 0.0410611 0)
(0.889713 0.180497 0)
(0.874515 0.312392 0)
(0.911121 0.407879 0)
(0.930859 0.525171 0)
(1.01227 0.589289 0)
(1.01532 0.672781 0)
(1.1339 0.700156 0)
(1.14809 0.728609 0)
(1.25397 0.71663 0)
(1.29358 0.704971 0)
(1.35814 0.651006 0)
(1.41957 0.625392 0)
(1.43001 0.513589 0)
(1.60159 -0.921432 0)
(1.63207 -0.974584 0)
(1.5811 -0.938566 0)
(1.39181 -0.93071 0)
(1.29409 -0.928152 0)
(1.14276 -0.920634 0)
(1.02121 -0.882049 0)
(0.828021 -0.804803 0)
(0.752359 -0.709734 0)
(0.570153 -0.582283 0)
(0.489688 -0.453129 0)
(0.349649 -0.321499 0)
(0.308941 -0.19104 0)
(0.209948 -0.0687763 0)
(0.208837 0.0714202 0)
(0.184086 0.193246 0)
(0.247224 0.305742 0)
(0.235704 0.40705 0)
(0.334792 0.510104 0)
(0.412424 0.571575 0)
(0.480873 0.647484 0)
(0.612489 0.668691 0)
(0.678359 0.700143 0)
(0.823095 0.685932 0)
(0.904056 0.682876 0)
(1.01418 0.62734 0)
(1.11084 0.612291 0)
(1.16457 0.49555 0)
(1.54972 -0.968299 0)
(1.44707 -0.94774 0)
(1.27032 -0.852512 0)
(1.03603 -0.85841 0)
(0.850739 -0.847627 0)
(0.656652 -0.830409 0)
(0.436417 -0.799398 0)
(0.281298 -0.751663 0)
(0.0587067 -0.639368 0)
(-0.0700191 -0.521162 0)
(-0.237907 -0.406234 0)
(-0.329106 -0.290351 0)
(-0.441393 -0.15621 0)
(-0.470461 -0.0616445 0)
(-0.520759 0.064173 0)
(-0.465967 0.174158 0)
(-0.465447 0.287374 0)
(-0.378439 0.358768 0)
(-0.28947 0.450361 0)
(-0.176436 0.521223 0)
(-0.0769839 0.580013 0)
(0.105252 0.59389 0)
(0.187494 0.627891 0)
(0.385539 0.607436 0)
(0.495163 0.607491 0)
(0.649452 0.551968 0)
(0.785708 0.545907 0)
(0.87476 0.435807 0)
(1.44286 -0.966492 0)
(1.15919 -0.841249 0)
(0.91679 -0.71994 0)
(0.569189 -0.726602 0)
(0.406767 -0.736866 0)
(0.116145 -0.72564 0)
(-0.0665221 -0.686822 0)
(-0.397714 -0.612342 0)
(-0.521998 -0.534281 0)
(-0.781704 -0.430529 0)
(-0.857741 -0.324472 0)
(-1.07108 -0.216758 0)
(-1.07401 -0.11564 0)
(-1.19872 -0.0224791 0)
(-1.16599 0.0755105 0)
(-1.16336 0.171132 0)
(-1.07531 0.264198 0)
(-1.01732 0.331274 0)
(-0.864949 0.408519 0)
(-0.763527 0.463551 0)
(-0.565381 0.515082 0)
(-0.424444 0.534616 0)
(-0.252946 0.559654 0)
(-0.0507512 0.537026 0)
(0.122873 0.545031 0)
(0.275006 0.492427 0)
(0.483304 0.494965 0)
(0.565619 0.395718 0)
(1.23974 -0.884275 0)
(0.807609 -0.688577 0)
(0.507505 -0.570936 0)
(0.175362 -0.628877 0)
(-0.0923904 -0.617889 0)
(-0.3666 -0.59167 0)
(-0.718553 -0.560848 0)
(-0.939239 -0.524962 0)
(-1.24899 -0.434233 0)
(-1.39964 -0.358085 0)
(-1.59921 -0.256041 0)
(-1.69564 -0.184071 0)
(-1.78888 -0.0869808 0)
(-1.82762 -0.0152134 0)
(-1.83874 0.0608563 0)
(-1.77192 0.129653 0)
(-1.72121 0.213307 0)
(-1.57963 0.260499 0)
(-1.46585 0.324355 0)
(-1.28861 0.362572 0)
(-1.09137 0.416427 0)
(-0.904587 0.428599 0)
(-0.707701 0.441211 0)
(-0.475081 0.418839 0)
(-0.289086 0.439594 0)
(-0.0830259 0.37794 0)
(0.146406 0.390601 0)
(0.251467 0.298807 0)
(0.990968 -0.733677 0)
(0.397748 -0.496198 0)
(0.117777 -0.369808 0)
(-0.355611 -0.423092 0)
(-0.555385 -0.457665 0)
(-0.959746 -0.417 0)
(-1.18973 -0.392701 0)
(-1.60475 -0.355732 0)
(-1.76732 -0.308295 0)
(-2.09897 -0.247582 0)
(-2.161 -0.179928 0)
(-2.39614 -0.115591 0)
(-2.37202 -0.0507008 0)
(-2.49589 0.00427209 0)
(-2.38402 0.0562348 0)
(-2.42533 0.116738 0)
(-2.24663 0.17101 0)
(-2.17059 0.208505 0)
(-1.96632 0.254277 0)
(-1.82732 0.281474 0)
(-1.55709 0.328453 0)
(-1.39059 0.334592 0)
(-1.09233 0.339381 0)
(-0.916823 0.333618 0)
(-0.630243 0.334153 0)
(-0.458866 0.291156 0)
(-0.164953 0.306471 0)
(-0.0942253 0.239312 0)
(0.63639 -0.440793 0)
(-0.052913 -0.270969 0)
(-0.29227 -0.22351 0)
(-0.701616 -0.318364 0)
(-1.06525 -0.302483 0)
(-1.44495 -0.294205 0)
(-1.74886 -0.252645 0)
(-2.09221 -0.242181 0)
(-2.33915 -0.187847 0)
(-2.59732 -0.170475 0)
(-2.74974 -0.109563 0)
(-2.89971 -0.0849852 0)
(-2.94873 -0.0360634 0)
(-2.9918 -0.00794742 0)
(-2.95185 0.0337417 0)
(-2.91277 0.0544612 0)
(-2.7676 0.0912127 0)
(-2.65296 0.117909 0)
(-2.46234 0.146803 0)
(-2.27513 0.157551 0)
(-2.02199 0.190796 0)
(-1.79433 0.18421 0)
(-1.51549 0.200085 0)
(-1.29036 0.186388 0)
(-1.00064 0.191395 0)
(-0.808171 0.160319 0)
(-0.495238 0.177018 0)
(-0.407954 0.128224 0)
(0.283263 -0.300431 0)
(-0.683052 -0.0522486 0)
(-0.443846 -0.0139942 0)
(-1.13901 -0.0434858 0)
(-1.23319 -0.0806542 0)
(-1.89954 -0.0696773 0)
(-2.01081 -0.0739387 0)
(-2.57643 -0.061763 0)
(-2.64515 -0.0523139 0)
(-3.07285 -0.0432938 0)
(-3.08403 -0.0312436 0)
(-3.3739 -0.0146864 0)
(-3.28797 -0.00424024 0)
(-3.46482 0.0138247 0)
(-3.2646 0.0225676 0)
(-3.35319 0.0309946 0)
(-3.08931 0.0432057 0)
(-3.08618 0.0575271 0)
(-2.73748 0.0616707 0)
(-2.67991 0.0670757 0)
(-2.28226 0.0764573 0)
(-2.1772 0.0780562 0)
(-1.75815 0.0821239 0)
(-1.63373 0.0776145 0)
(-1.23058 0.0766653 0)
(-1.12772 0.0648851 0)
(-0.741624 0.0735655 0)
(-0.701918 0.0584545 0)
(2.47162 -0.0971781 0)
(2.49064 -0.484607 0)
(2.07726 -0.510748 0)
(1.88404 -0.729257 0)
(1.59636 -0.863294 0)
(1.35725 -1.14471 0)
(0.683795 -0.955711 0)
(0.0238622 -0.7195 0)
(2.34731 -0.00293435 0)
(2.16425 -0.240934 0)
(1.81606 -0.334454 0)
(1.78931 -0.595533 0)
(1.4525 -0.69944 0)
(1.21221 -0.848959 0)
(0.78612 -0.703286 0)
(0.815232 -0.792273 0)
(2.29691 0.0362542 0)
(2.36555 -0.195097 0)
(2.14407 -0.296671 0)
(2.08888 -0.5016 0)
(1.66065 -0.541053 0)
(1.5178 -0.791588 0)
(1.12369 -0.707015 0)
(0.419366 -0.243766 0)
(2.24306 0.103072 0)
(2.35362 -0.100588 0)
(1.84262 -0.192913 0)
(1.84957 -0.365681 0)
(1.32292 -0.424755 0)
(1.3266 -0.54867 0)
(0.267169 -0.241131 0)
(0.354742 -0.272947 0)
(2.25569 0.106543 0)
(2.25982 -0.011675 0)
(1.97411 -0.0936592 0)
(2.06235 -0.259193 0)
(1.69008 -0.279289 0)
(1.66653 -0.312677 0)
(1.14529 -0.159224 0)
(1.12445 -0.336086 0)
(2.23808 0.203159 0)
(2.21536 0.077091 0)
(2.00291 -0.0399404 0)
(1.83652 -0.175068 0)
(1.49386 -0.187589 0)
(1.40211 -0.287813 0)
(1.10478 -0.0340485 0)
(1.07391 -0.0832922 0)
(2.20839 0.258268 0)
(2.24056 0.108818 0)
(1.99568 0.0594428 0)
(1.91553 -0.0585984 0)
(1.79374 -0.0804905 0)
(1.65788 -0.158683 0)
(1.49497 0.00543599 0)
(1.37805 -0.119123 0)
(2.20145 0.342467 0)
(2.17535 0.181718 0)
(1.94227 0.155697 0)
(1.917 -0.0370656 0)
(1.64239 -0.00247775 0)
(1.47059 -0.107494 0)
(1.27459 0.0794253 0)
(1.21455 0.0491137 0)
(2.15824 0.376389 0)
(2.04905 0.245005 0)
(1.91934 0.189226 0)
(1.86527 0.0547027 0)
(1.63641 0.102398 0)
(1.68584 -0.0128043 0)
(1.47569 0.112485 0)
(1.5307 0.0290298 0)
(2.04758 0.444747 0)
(1.93352 0.303003 0)
(1.87538 0.254261 0)
(1.7483 0.129735 0)
(1.63998 0.122121 0)
(1.572 0.0221313 0)
(1.34651 0.13353 0)
(1.40859 0.0954671 0)
(1.86422 0.472296 0)
(1.82696 0.325095 0)
(1.74953 0.28845 0)
(1.67715 0.16188 0)
(1.61506 0.163381 0)
(1.52435 0.107492 0)
(1.48512 0.168742 0)
(1.42929 0.153511 0)
(1.68816 0.501751 0)
(1.69331 0.360528 0)
(1.60853 0.337144 0)
(1.62181 0.200728 0)
(1.50693 0.214485 0)
(1.51217 0.123524 0)
(1.41211 0.177771 0)
(1.43327 0.15595 0)
(1.48379 0.484736 0)
(1.4845 0.35607 0)
(1.49134 0.330838 0)
(1.48419 0.209517 0)
(1.44232 0.211736 0)
(1.45675 0.144609 0)
(1.387 0.187768 0)
(1.43965 0.178686 0)
(1.25485 0.486887 0)
(1.28159 0.349357 0)
(1.3256 0.345665 0)
(1.34728 0.220388 0)
(1.34085 0.237338 0)
(1.37004 0.16148 0)
(1.3269 0.192041 0)
(1.38683 0.17682 0)
(0.995142 0.435088 0)
(1.05797 0.308564 0)
(1.13001 0.31322 0)
(1.18763 0.181654 0)
(1.20374 0.213503 0)
(1.26369 0.136311 0)
(1.23486 0.179227 0)
(1.31624 0.158191 0)
(0.763158 0.398216 0)
(0.795129 0.275145 0)
(0.933064 0.292273 0)
(0.969944 0.180424 0)
(1.04646 0.212885 0)
(1.10888 0.131871 0)
(1.12232 0.180222 0)
(1.20886 0.150026 0)
(0.49177 0.31847 0)
(0.522568 0.22542 0)
(0.695054 0.220231 0)
(0.743301 0.110272 0)
(0.837301 0.161534 0)
(0.878103 0.0821258 0)
(0.928948 0.145076 0)
(1.01338 0.102877 0)
(0.214773 0.25043 0)
(0.217473 0.180104 0)
(0.471004 0.187375 0)
(0.40568 0.11455 0)
(0.659808 0.145609 0)
(0.642528 0.0734052 0)
(0.740569 0.132636 0)
(0.77406 0.0869786 0)
(-0.0500302 0.138663 0)
(-0.091429 0.112052 0)
(0.238877 0.103453 0)
(0.167749 0.0150282 0)
(0.376257 0.0531118 0)
(0.37139 0.0333617 0)
(0.524638 0.0879029 0)
(0.545049 0.0318644 0)
(-0.294676 0.0679037 0)
(-0.373953 0.0630053 0)
(0.115702 0.0479375 0)
(-0.124028 0.0584936 0)
(0.291814 0.0314142 0)
(0.0360828 -0.00375224 0)
(0.353334 0.0632998 0)
(0.342782 0.0319199 0)
(-0.641771 -0.429782 0)
(0.41338 0.170767 0)
(0.71445 0.490846 0)
(0.821422 0.520986 6.07623e-18)
(1.26479 0.688857 4.78519e-19)
(1.43162 0.566863 0)
(1.87129 0.515867 3.7488e-18)
(1.63503 0.371899 2.14891e-19)
(1.84264 0.369181 2.79778e-18)
(1.62292 0.296154 2.69661e-18)
(1.93288 0.327775 0)
(1.6934 0.264184 2.26065e-18)
(2.0511 0.311957 -9.49528e-20)
(1.80502 0.255313 1.85745e-18)
(2.17146 0.31223 2.26374e-20)
(1.95158 0.258394 -2.4971e-20)
(2.29364 0.326457 -5.50443e-19)
(2.13461 0.2633 3.90789e-19)
(2.43603 0.336483 3.85445e-21)