/*--------------------------------*- C++ -*----------------------------------*\
| =========                 |                                                 |
| \\      /  F ield         | OpenFOAM: The Open Source CFD Toolbox           |
|  \\    /   O peration     | Version:  2.4.0                                 |
|   \\  /    A nd           | Web:      www.OpenFOAM.org                      |
|    \\/     M anipulation  |                                                 |
\*---------------------------------------------------------------------------*/
FoamFile
{
    version     2.0;
    format      ascii;
    class       volScalarField;
    location    "3.15";
    object      nut;
}
// * * * * * * * * * * * * * * * * * * * * * * * * * * * * * * * * * * * * * //

dimensions      [0 2 -1 0 0 0 0];

internalField   nonuniform List<scalar> 
6000
(
1.24052e-05
1.01581e-05
5.69303e-06
3.05432e-06
1.75236e-06
2.94043e-06
2.48857e-06
3.29848e-06
3.75261e-06
4.98161e-06
6.42978e-06
8.12668e-06
9.82066e-06
1.1539e-05
1.34118e-05
1.53416e-05
1.72394e-05
1.82546e-05
1.69773e-05
1.47431e-05
1.18429e-05
1.15036e-05
1.51925e-05
1.86875e-05
2.21559e-05
2.48128e-05
2.66167e-05
2.78542e-05
2.87059e-05
2.92686e-05
2.96186e-05
2.97842e-05
2.97905e-05
2.96575e-05
2.93988e-05
2.90195e-05
2.85133e-05
2.78604e-05
2.70267e-05
2.59245e-05
2.57187e-05
2.56099e-05
2.52744e-05
2.47323e-05
2.40175e-05
2.3157e-05
2.21453e-05
2.09534e-05
1.95569e-05
1.79999e-05
1.63764e-05
1.47868e-05
1.33027e-05
1.20613e-05
1.12388e-05
1.0797e-05
1.04807e-05
1.05332e-05
1.03073e-05
1.08349e-05
2.33581e-05
3.47909e-05
1.71805e-05
8.03673e-06
5.0004e-06
7.50675e-06
1.52008e-05
1.73792e-05
2.33772e-05
2.87081e-05
3.58174e-05
4.59617e-05
5.96977e-05
7.86234e-05
0.000101327
0.000127872
0.000153315
0.000149115
0.000112124
6.95459e-05
5.49878e-05
6.71467e-05
9.03136e-05
9.41031e-05
0.000107836
0.000128731
0.00014595
0.000159071
0.000170094
0.000179979
0.000188207
0.000195526
0.000202897
0.000210448
0.000218247
0.000226257
0.00023424
0.000241675
0.000247766
0.000251132
0.000238721
0.000221901
0.00020213
0.000180306
0.000157616
0.000135287
0.000114194
9.31659e-05
7.65325e-05
6.48738e-05
5.69235e-05
5.07442e-05
4.46867e-05
3.82326e-05
3.13677e-05
2.5184e-05
1.95044e-05
1.52943e-05
1.19912e-05
9.89551e-06
2.89e-05
5.03221e-05
2.4398e-05
1.02028e-05
1.12392e-05
1.75411e-05
2.98512e-05
3.4951e-05
4.41946e-05
5.48542e-05
6.97245e-05
9.12198e-05
0.000119143
0.000154996
0.000196717
0.000244482
0.000287484
0.000284471
0.000214987
0.000137622
0.000100287
0.000115317
0.00014813
0.000166305
0.000225537
0.000290069
0.000334776
0.00036589
0.000389477
0.000408141
0.000422262
0.000434041
0.000444742
0.000454758
0.000464349
0.000473541
0.000481936
0.000488573
0.000491997
0.000489665
0.000469501
0.000442755
0.000410082
0.000372625
0.00033214
0.000290653
0.000249663
0.000206745
0.000166496
0.000132797
0.000107386
8.94604e-05
7.60516e-05
6.48921e-05
5.42072e-05
4.50579e-05
3.5613e-05
2.85824e-05
2.0984e-05
1.73247e-05
3.21951e-05
5.72217e-05
2.77674e-05
1.1268e-05
1.76954e-05
2.7817e-05
4.20442e-05
5.00099e-05
6.21719e-05
7.83363e-05
0.000101014
0.000132676
0.000171995
0.000219993
0.000274699
0.000335942
0.000389165
0.000385694
0.000292839
0.000194929
0.000141761
0.000153935
0.000198718
0.000247781
0.000360362
0.00046145
0.000527713
0.000572565
0.000604764
0.000628311
0.000644829
0.000657261
0.000667056
0.000674956
0.000681501
0.000686898
0.000690751
0.000691903
0.000688587
0.000677938
0.000652641
0.000619899
0.000579788
0.000533427
0.000482666
0.000429704
0.000376183
0.000320274
0.000264924
0.000214378
0.000172253
0.000140193
0.000116298
9.79225e-05
8.20661e-05
6.92748e-05
5.659e-05
4.75363e-05
3.69893e-05
3.36503e-05
3.39566e-05
5.94491e-05
3.4181e-05
1.21731e-05
2.28523e-05
3.63029e-05
5.19696e-05
6.27084e-05
7.78831e-05
9.92513e-05
0.000129038
0.000169194
0.00021728
0.000273752
0.000336849
0.000405985
0.000464426
0.000458762
0.000348899
0.000239279
0.0001766
0.000188321
0.000246845
0.000335288
0.000495249
0.00062386
0.000706456
0.000761362
0.000799099
0.000824882
0.000841424
0.000852047
0.000858438
0.000861689
0.000862646
0.000861751
0.000858718
0.000852364
0.000840843
0.000821747
0.000791966
0.000754673
0.000709731
0.000658157
0.000601698
0.000542426
0.000481903
0.000418878
0.000355074
0.000294141
0.000240052
0.000195936
0.000161587
0.000135182
0.000113424
9.65435e-05
8.08274e-05
7.01548e-05
5.80878e-05
5.60774e-05
3.49042e-05
5.90464e-05
4.1538e-05
1.25305e-05
2.56976e-05
4.28252e-05
6.01051e-05
7.36747e-05
9.18909e-05
0.000118028
0.000154097
0.000201263
0.000256021
0.000318228
0.000386323
0.000459397
0.000519491
0.000510733
0.000388261
0.000272318
0.000204853
0.000220659
0.000294353
0.000424813
0.000623605
0.000773053
0.000868234
0.000930532
0.000971711
0.000998015
0.00101301
0.00102027
0.00102175
0.00101886
0.00101276
0.00100414
0.000992902
0.000977946
0.000957498
0.000930318
0.000896061
0.000854848
0.000806521
0.000751962
0.000692698
0.000630521
0.000566759
0.000500451
0.00043248
0.000365781
0.000304062
0.000251056
0.000207909
0.00017398
0.00014636
0.000125232
0.000106597
9.42662e-05
8.15457e-05
8.0333e-05
3.5415e-05
5.72039e-05
4.70611e-05
1.49205e-05
2.53227e-05
4.74893e-05
6.67513e-05
8.33248e-05
0.000104557
0.000135016
0.000176584
0.000229527
0.000289317
0.00035519
0.000425758
0.000499901
0.000559022
0.000546898
0.000415102
0.000295967
0.00022735
0.000251536
0.000341739
0.000513437
0.000743237
0.000908819
0.00101395
0.0010818
0.00112504
0.00115077
0.00116321
0.00116612
0.00116175
0.00115181
0.00113771
0.00112043
0.00110011
0.0010758
0.00104591
0.00101106
0.000972097
0.000927278
0.000876483
0.000820434
0.000760351
0.000697638
0.000633265
0.000566295
0.000496999
0.000427654
0.000361512
0.000302428
0.00025246
0.000212065
0.000179057
0.000153762
0.000132294
0.000118113
0.000105023
0.000103675
3.56744e-05
5.46515e-05
5.07536e-05
2.1792e-05
2.26672e-05
5.02923e-05
7.20305e-05
9.18794e-05
0.000116104
0.000150474
0.000196843
0.000254558
0.0003181
0.000386064
0.000457204
0.0005303
0.000586544
0.000571112
0.000432746
0.000311936
0.00024508
0.000281173
0.000388982
0.000599315
0.000853695
0.00103212
0.00114535
0.00121752
0.00126197
0.00128644
0.00129567
0.00129364
0.00128284
0.00126522
0.00124247
0.00121586
0.00118576
0.00115147
0.00111168
0.0010695
0.00102552
0.000977251
0.00092462
0.000868166
0.000808732
0.000747234
0.000684178
0.000618439
0.000549797
0.000479953
0.00041167
0.000348695
0.000293671
0.000247957
0.00021019
0.000180956
0.000156751
0.000140548
0.000127057
0.000124826
3.57843e-05
5.18382e-05
5.28784e-05
3.0098e-05
2.04924e-05
5.10885e-05
7.59301e-05
9.94196e-05
0.000126662
0.000164593
0.000215161
0.00027683
0.000343125
0.000411983
0.000482264
0.000552758
0.000604823
0.000586298
0.000443907
0.000321681
0.000259032
0.000309684
0.000435863
0.000681365
0.000955244
0.00114421
0.00126427
0.00133997
0.00138509
0.00140791
0.00141355
0.0014062
0.00138857
0.00136285
0.00133096
0.00129445
0.001254
0.00120917
0.00115916
0.00110975
0.00106044
0.00100878
0.000954756
0.000898718
0.000841071
0.000782155
0.000721908
0.000658845
0.000592312
0.000523506
0.000454722
0.000389505
0.000330863
0.000280872
0.00023899
0.000206126
0.000179307
0.000161
0.000146952
0.000143418
3.58065e-05
4.90341e-05
5.37075e-05
3.80717e-05
2.06283e-05
4.96582e-05
7.83471e-05
0.000105921
0.000136288
0.000177512
0.000231768
0.000296729
0.000365001
0.000433847
0.000502211
0.000569008
0.000616118
0.000594776
0.000450852
0.000326453
0.000270161
0.000337118
0.000482108
0.000759001
0.00104843
0.00124631
0.00137234
0.00145108
0.00149658
0.00151753
0.00151935
0.00150645
0.00148175
0.00144761
0.00140619
0.00135931
0.00130798
0.00125208
0.00119165
0.00113496
0.00108002
0.00102494
0.000969825
0.00091483
0.000859874
0.000804645
0.000748416
0.000689191
0.000625905
0.000559294
0.000491225
0.000425009
0.00036389
0.00031052
0.000265128
0.000228981
0.000199706
0.000179312
0.00016455
0.000159556
3.57788e-05
4.63934e-05
5.35135e-05
4.47074e-05
2.40021e-05
4.60435e-05
7.91407e-05
0.000111274
0.000144981
0.000189325
0.000246849
0.000314567
0.00038422
0.000452388
0.000518085
0.000580493
0.000622349
0.000598448
0.000455511
0.000327361
0.000279387
0.000363448
0.00052745
0.000831954
0.0011339
0.00133954
0.00147097
0.00155246
0.0015982
0.00161717
0.00161507
0.0015965
0.00156453
0.00152174
0.00147046
0.00141281
0.00135013
0.00128265
0.00121179
0.00114761
0.00108674
0.00102815
0.000972132
0.000918639
0.000867091
0.000816457
0.000765256
0.000710847
0.000651746
0.000588252
0.000521837
0.000455586
0.000392904
0.000336916
0.000288565
0.000249498
0.00021796
0.000195571
0.000180009
0.000173538
3.57238e-05
4.39956e-05
5.25552e-05
4.97879e-05
3.027e-05
4.13539e-05
7.82073e-05
0.000115299
0.000152676
0.000200089
0.000260548
0.000330598
0.000401183
0.000468201
0.000530754
0.000588448
0.000625183
0.000598959
0.000459535
0.000325478
0.000287589
0.000388548
0.000571653
0.000900157
0.0012123
0.00142487
0.00156131
0.00164539
0.00169132
0.00170831
0.00170225
0.00167791
0.00163858
0.00158693
0.00152552
0.00145675
0.00138232
0.0013028
0.00122172
0.00114971
0.00108262
0.00102039
0.000963543
0.000911863
0.000864269
0.000818972
0.000773653
0.000724908
0.000670803
0.000611197
0.000547203
0.000481691
0.00041819
0.000360235
0.000309427
0.000267803
0.000234218
0.000209982
0.000193591
0.000185708
3.56552e-05
4.18722e-05
5.10631e-05
5.3322e-05
3.72199e-05
3.72631e-05
7.55807e-05
0.00011777
0.000159251
0.000209822
0.000272971
0.000345024
0.000416214
0.000481781
0.000540956
0.000593945
0.000626074
0.000598191
0.000463754
0.000321969
0.000295509
0.000412207
0.000614524
0.000963668
0.00128422
0.00150313
0.00164431
0.00173092
0.00177705
0.00179208
0.00178205
0.00175193
0.00170514
0.0016445
0.00157274
0.00149256
0.00140602
0.00131407
0.00122322
0.00114295
0.00106937
0.00100334
0.000945631
0.000895933
0.000852677
0.000813302
0.000774585
0.000732249
0.000683862
0.000628824
0.000567901
0.000503774
0.00044008
0.000380724
0.000327916
0.000284093
0.00024869
0.000222782
0.000205575
0.000196387
3.55813e-05
4.00257e-05
4.92323e-05
5.5442e-05
4.37196e-05
3.5179e-05
7.15309e-05
0.000118454
0.000164512
0.0002185
0.000284196
0.000358006
0.000429581
0.000493541
0.000549319
0.000597912
0.000626256
0.000597673
0.000468859
0.000318256
0.00030403
0.000434608
0.000655908
0.00102263
0.00135021
0.00157501
0.00172076
0.00180985
0.00185624
0.00186935
0.00185538
0.00181947
0.00176518
0.00169543
0.00161315
0.00152132
0.00142239
0.00131784
0.00121769
0.00112876
0.00104846
0.00097844
0.000919782
0.0008721
0.000833402
0.000800375
0.000768848
0.000733574
0.000691558
0.000641704
0.000584431
0.000522251
0.000458906
0.000398648
0.000344262
0.000298582
0.000261594
0.000234204
0.000216219
0.000205845
3.55072e-05
3.84416e-05
4.72203e-05
5.63388e-05
4.93449e-05
3.75031e-05
6.67467e-05
0.000117189
0.000168206
0.000226051
0.000294265
0.000369668
0.0004415
0.000503826
0.000556376
0.000601122
0.000626722
0.000598566
0.000475285
0.000316086
0.000313595
0.000455962
0.000695693
0.00107722
0.00141077
0.0016411
0.00179127
0.00188284
0.00192954
0.00194081
0.00192294
0.00188126
0.00181943
0.00174051
0.00164758
0.00154392
0.00143238
0.00131546
0.00120621
0.00110838
0.0010212
0.000947032
0.000887266
0.000841508
0.000807422
0.000781001
0.000757114
0.000729461
0.000694412
0.000650309
0.000597215
0.000537485
0.000474972
0.000414262
0.000358686
0.000311474
0.000273131
0.000244447
0.000225741
0.000214299
3.5436e-05
3.70965e-05
4.51493e-05
5.62242e-05
5.39029e-05
4.2647e-05
6.22034e-05
0.000113989
0.000170031
0.000232344
0.000303189
0.000380103
0.000452143
0.000512917
0.000562563
0.000604185
0.000628194
0.000601649
0.000483776
0.000316314
0.000324261
0.000476451
0.000733799
0.00112764
0.00146632
0.00170187
0.00185634
0.0019504
0.00199746
0.00200696
0.00198525
0.00193782
0.00186845
0.00178031
0.00167664
0.00156103
0.00143675
0.00130807
0.00118973
0.00108293
0.000988796
0.000910355
0.000849293
0.000805252
0.000775663
0.000755927
0.000739978
0.000720403
0.000692851
0.000655026
0.000606605
0.000549789
0.000488547
0.000427795
0.000371389
0.00032295
0.000283475
0.000253678
0.000234317
0.000221916
3.53692e-05
3.59635e-05
4.31095e-05
5.53106e-05
5.73087e-05
4.88793e-05
5.88048e-05
0.000109143
0.000169683
0.000237178
0.000310936
0.000389367
0.000461645
0.000521039
0.000568212
0.000607526
0.000631105
0.000607323
0.000495002
0.000319392
0.000335905
0.000496239
0.000770178
0.00117413
0.00151723
0.00175774
0.00191639
0.00201293
0.00206041
0.00206821
0.00204271
0.00198957
0.00191267
0.0018153
0.00170085
0.00157323
0.00143612
0.00129669
0.00116909
0.00105338
0.000952346
0.000869588
0.000807043
0.000764419
0.000739041
0.000725875
0.000717993
0.000706837
0.000687242
0.00065618
0.000612896
0.000559428
0.000499864
0.00043945
0.000382547
0.000333166
0.000292769
0.000262029
0.000242083
0.000228823
3.53078e-05
3.50151e-05
4.11641e-05
5.37984e-05
5.95582e-05
5.50461e-05
5.84999e-05
0.000103318
0.000166933
0.000240279
0.00031743
0.000397486
0.000470097
0.000528358
0.000573544
0.000611384
0.000635615
0.000615658
0.000509335
0.000327188
0.000348451
0.000515479
0.000804809
0.0012169
0.00156384
0.00180902
0.00197173
0.00207073
0.00211868
0.00212484
0.00209562
0.00203681
0.00195243
0.00184582
0.00172058
0.00158095
0.00143113
0.00128211
0.00114507
0.00102064
0.000912877
0.00082586
0.000761683
0.000720109
0.000698494
0.000691577
0.0006917
0.000689172
0.000677911
0.000654049
0.000616335
0.000566625
0.00050912
0.000449397
0.000392309
0.000342251
0.000301128
0.000269604
0.000249142
0.000235113
3.52521e-05
3.42253e-05
3.93542e-05
5.1868e-05
6.07098e-05
6.05191e-05
6.12401e-05
9.74512e-05
0.000161757
0.0002413
0.000322532
0.000404444
0.000477553
0.000534987
0.00057868
0.000615828
0.000641649
0.000626472
0.000526886
0.000340889
0.000361897
0.00053431
0.000837694
0.00125617
0.00160642
0.001856
0.00202263
0.00212405
0.0021725
0.00217709
0.00214421
0.0020798
0.00198796
0.00187216
0.00173616
0.00158456
0.00142267
0.00126473
0.0011183
0.000985488
0.000871328
0.000780248
0.000714366
0.000673448
0.000655003
0.0006538
0.000661654
0.000667806
0.000665158
0.000648878
0.000617135
0.000571567
0.000516481
0.000457781
0.000400798
0.000350311
0.000308644
0.000276481
0.000255572
0.000240853
3.5202e-05
3.35704e-05
3.77035e-05
4.9676e-05
6.08675e-05
6.4971e-05
6.58361e-05
9.25285e-05
0.000154467
0.00023986
0.000326033
0.000410181
0.000484024
0.000540981
0.00058367
0.000620785
0.000648963
0.000639407
0.000547538
0.000360979
0.000376324
0.000552867
0.000868858
0.00129214
0.00164521
0.0018989
0.00206929
0.00217309
0.00222206
0.00222512
0.00218865
0.0021187
0.00201946
0.00189452
0.00174782
0.00158436
0.00141149
0.00124492
0.00108938
0.000948638
0.000828553
0.000733753
0.00066621
0.000625577
0.000609596
0.000613359
0.00062844
0.000643151
0.000649275
0.000640888
0.000615481
0.000574417
0.00052209
0.000464723
0.000408117
0.000357429
0.000315389
0.000282721
0.000261429
0.000246095
3.51573e-05
3.30293e-05
3.62223e-05
4.73532e-05
6.01664e-05
6.82477e-05
7.09969e-05
9.04574e-05
0.000145829
0.000235619
0.00032764
0.000414579
0.000489471
0.000546345
0.000588486
0.000626081
0.0006572
0.000654004
0.000570978
0.000387376
0.000391894
0.000571275
0.000898344
0.00132502
0.00168042
0.0019379
0.00211188
0.00221798
0.00226748
0.00226907
0.00222907
0.00215364
0.00204708
0.00191307
0.00175577
0.00158057
0.00139829
0.00122302
0.00105877
0.000910696
0.000785303
0.000687285
0.00061827
0.000577626
0.00056334
0.000571127
0.000592689
0.000615639
0.000630558
0.000630295
0.000611541
0.000575316
0.000526067
0.000470325
0.000414351
0.000363675
0.00032142
0.000288372
0.000266757
0.000250873
3.51176e-05
3.25838e-05
3.49112e-05
4.50047e-05
5.8759e-05
7.03053e-05
7.5939e-05
9.14639e-05
0.000136978
0.000228415
0.000326978
0.000417451
0.000493806
0.00055103
0.000593043
0.000631479
0.000665948
0.000669752
0.000596742
0.000419565
0.000408849
0.000589658
0.000926219
0.00135498
0.00171222
0.00197315
0.00215051
0.00225883
0.00230887
0.00230902
0.00226556
0.00218473
0.00207092
0.00192794
0.00176015
0.00157389
0.00138318
0.00119934
0.0010269
0.000872177
0.000742213
0.000641626
0.000571494
0.000530673
0.000517321
0.000528031
0.000555085
0.000585739
0.000609318
0.00061731
0.000605471
0.000574388
0.000528515
0.000474675
0.00041957
0.000369105
0.00032678
0.000293464
0.000271587
0.000255215
3.50826e-05
3.2218e-05
3.37643e-05
4.27115e-05
5.68033e-05
7.11773e-05
8.01807e-05
9.44795e-05
0.000130116
0.000218453
0.000323617
0.000418525
0.000496882
0.000554936
0.000597216
0.000636716
0.000674774
0.00068612
0.000624261
0.000456689
0.00042751
0.000608142
0.000952575
0.00138223
0.00174075
0.00200476
0.00218528
0.00229572
0.00234628
0.00234505
0.00229819
0.00221203
0.00209106
0.00193922
0.00176109
0.00156495
0.00136625
0.00117414
0.000994112
0.000833503
0.000699801
0.000597414
0.000526677
0.000485687
0.000472593
0.000485034
0.000516369
0.000553963
0.000585886
0.000602148
0.000597422
0.000571748
0.000529528
0.000477846
0.000423834
0.000373764
0.000331506
0.000298022
0.000275941
0.000259142
3.50518e-05
3.19186e-05
3.27711e-05
4.05326e-05
5.44538e-05
7.09529e-05
8.34295e-05
9.83746e-05
0.000126545
0.000206691
0.000317124
0.000417549
0.00049848
0.000557913
0.000600854
0.000641528
0.000683257
0.00070258
0.000652901
0.000497659
0.000448266
0.000626867
0.000977536
0.00140691
0.00176614
0.00203281
0.00221628
0.00232872
0.00237978
0.00237718
0.00232699
0.0022356
0.00210757
0.00194699
0.00175882
0.00155416
0.0013476
0.00114762
0.000960677
0.000795006
0.000658461
0.000555127
0.000484428
0.000443468
0.000430124
0.000443102
0.000477325
0.000520867
0.000560622
0.000585039
0.000587547
0.000567507
0.000529189
0.000479903
0.000427193
0.00037769
0.000335625
0.000302068
0.000279839
0.000262667
3.50248e-05
3.16743e-05
3.19187e-05
3.85077e-05
5.18534e-05
6.97616e-05
8.55227e-05
0.000102307
0.000126014
0.000194816
0.000307354
0.00041417
0.000498468
0.000559747
0.00060378
0.000645669
0.000691004
0.00071862
0.00068201
0.000541299
0.000471563
0.000646002
0.00100127
0.0014292
0.00178847
0.00205738
0.00224353
0.00235785
0.00240939
0.00240546
0.00235201
0.00225547
0.00212047
0.00195129
0.00175391
0.00154151
0.00132734
0.00111996
0.000926817
0.000756938
0.000618475
0.000515088
0.000445156
0.000404599
0.000390728
0.000403155
0.000438767
0.000487052
0.000533917
0.000566226
0.000576
0.000561769
0.000527574
0.000480905
0.00042969
0.000380915
0.000339161
0.000305619
0.000283295
0.000265805
3.50011e-05
3.14756e-05
3.1193e-05
3.6661e-05
4.91287e-05
6.77588e-05
8.63961e-05
0.000105695
0.000127616
0.000184579
0.000294584
0.000408014
0.000496609
0.000560262
0.00060579
0.000648914
0.000697655
0.000733749
0.00071094
0.000586491
0.000497882
0.000665771
0.001024
0.00144922
0.00180781
0.00207849
0.00226708
0.00238316
0.00243513
0.00242989
0.00237324
0.00227164
0.00212979
0.00195222
0.00174683
0.00152701
0.00130554
0.00109132
0.000892702
0.000719484
0.000580029
0.000477481
0.000409077
0.000369426
0.000355001
0.000366005
0.000401506
0.000453151
0.000506193
0.00054597
0.000562945
0.000554642
0.00052476
0.000480905
0.000431366
0.000383467
0.000342135
0.000308691
0.000286322
0.000268567
3.49804e-05
3.13146e-05
3.05797e-05
3.50034e-05
4.63866e-05
6.51143e-05
8.60639e-05
0.000108157
0.000130321
0.000177143
0.000279672
0.000398775
0.000492599
0.000559254
0.000606657
0.000651066
0.000702897
0.000747508
0.000739072
0.000632244
0.000527675
0.000686485
0.00104605
0.00146708
0.00182419
0.00209618
0.00228695
0.00240463
0.002457
0.00245048
0.0023907
0.00228413
0.00213553
0.00195028
0.00173756
0.00151066
0.00128227
0.0010618
0.000858464
0.000682774
0.000543234
0.000442382
0.000376248
0.000338071
0.000323295
0.000332299
0.000366305
0.000419809
0.000477897
0.000524551
0.000548553
0.000546234
0.000520818
0.000479956
0.000432255
0.000385372
0.000344565
0.000311297
0.000288931
0.000270961
3.49623e-05
3.11846e-05
3.00651e-05
3.35363e-05
4.37132e-05
6.20008e-05
8.46032e-05
0.000109458
0.00013324
0.00017276
0.000264022
0.00038634
0.000486112
0.000556485
0.000606133
0.000651937
0.000706463
0.000759469
0.000765824
0.000677706
0.000561286
0.000708591
0.00106785
0.00148285
0.00183761
0.00211044
0.00230313
0.00242228
0.002475
0.00246721
0.00240437
0.00229292
0.00213789
0.00194571
0.00172611
0.00149249
0.00125762
0.00103149
0.000824208
0.000646902
0.000508146
0.000409792
0.000346614
0.000310482
0.000295717
0.000302469
0.000333885
0.000387657
0.000449491
0.000502269
0.000533005
0.000536659
0.000515822
0.000478106
0.000432392
0.000386653
0.000346467
0.000313449
0.000291133
0.000272999
3.49465e-05
3.108e-05
2.9636e-05
3.22536e-05
4.11736e-05
5.85845e-05
8.21411e-05
0.000109474
0.000135698
0.000170927
0.000249263
0.000370941
0.000476839
0.000551693
0.000603974
0.000651346
0.000708134
0.00076924
0.000790653
0.00072213
0.000598835
0.000732733
0.00108999
0.0014965
0.00184804
0.00212126
0.00231561
0.00243609
0.00248912
0.00248007
0.00241423
0.00229807
0.00213717
0.00193854
0.00171245
0.0014725
0.00123163
0.00100049
0.000790016
0.000611932
0.000474786
0.000379664
0.000320053
0.000286487
0.000272174
0.000276717
0.00030477
0.000357269
0.00042144
0.000479435
0.000516497
0.000526035
0.000509848
0.000475405
0.000431811
0.000387333
0.000347858
0.000315161
0.000292938
0.000274688
3.49327e-05
3.09964e-05
2.92806e-05
3.11444e-05
3.88136e-05
5.50176e-05
7.88403e-05
0.000108177
0.000137221
0.000170754
0.000236754
0.000353273
0.000464565
0.000544599
0.000599983
0.000649064
0.000707734
0.000776471
0.000813055
0.00076484
0.000640124
0.000759814
0.00111178
0.00150813
0.0018558
0.00212882
0.00232437
0.00244604
0.00249933
0.00248904
0.00242033
0.00229979
0.00213341
0.00192877
0.00169661
0.00145072
0.00120436
0.000968856
0.00075596
0.000577914
0.000443155
0.000351929
0.000296408
0.000265854
0.000252438
0.000255034
0.000279242
0.000329134
0.000394193
0.000456369
0.00049923
0.000514487
0.000502974
0.000471903
0.000430546
0.000387435
0.000348755
0.000316444
0.000294359
0.00027604
3.49207e-05
3.09298e-05
2.89882e-05
3.01947e-05
3.6662e-05
5.14327e-05
7.4886e-05
0.000105613
0.000137502
0.000171292
0.000227187
0.000334489
0.000449273
0.000534937
0.000593951
0.000644794
0.000705138
0.000780855
0.000832567
0.000805199
0.000684586
0.000790365
0.0011327
0.00151785
0.00186099
0.00213323
0.00232958
0.0024522
0.00250565
0.00249416
0.00242277
0.00229813
0.00212666
0.00191641
0.00167858
0.00142718
0.00117587
0.000936658
0.000722104
0.00054489
0.000413246
0.000326508
0.00027552
0.000248338
0.000236216
0.000237245
0.000257438
0.000303635
0.000368167
0.000433394
0.000481415
0.000502146
0.000495281
0.000467653
0.00042863
0.000386982
0.000349173
0.00031731
0.000295405
0.000277064
3.49101e-05
3.08772e-05
2.87492e-05
2.93888e-05
3.47328e-05
4.79394e-05
7.04727e-05
0.000101895
0.000136365
0.000171716
0.000220495
0.000316003
0.000431258
0.000522505
0.000585678
0.000638484
0.000700315
0.000782133
0.00084876
0.000842596
0.000731326
0.000824101
0.00115278
0.00152575
0.00186368
0.00213457
0.00233132
0.00245464
0.00250815
0.00249551
0.00242159
0.00229314
0.00211693
0.00190149
0.00165837
0.00140191
0.0011462
0.00090396
0.000688511
0.000512894
0.000385045
0.000303325
0.000257232
0.0002337
0.000223196
0.000223076
0.000239335
0.000281037
0.000343729
0.000410822
0.000463268
0.000489147
0.000486854
0.00046271
0.0004261
0.000385998
0.00034913
0.000317775
0.000296088
0.00027777
3.49009e-05
3.08359e-05
2.85553e-05
2.87109e-05
3.30285e-05
4.46229e-05
6.57911e-05
9.71881e-05
0.000133748
0.00017139
0.000216045
0.000299134
0.000411198
0.000507237
0.000574982
0.000630062
0.000693256
0.000780101
0.000861243
0.000876449
0.000779233
0.000860454
0.00117201
0.00153187
0.00186394
0.00213292
0.00232966
0.00245343
0.0025069
0.00249313
0.00241685
0.00228486
0.00210427
0.001884
0.00163601
0.00137495
0.00111541
0.000870826
0.000655243
0.000481962
0.00035854
0.000282303
0.000241399
0.000221721
0.000213086
0.000212209
0.000224784
0.00026148
0.000321178
0.00038895
0.000445007
0.000475632
0.000477781
0.000457128
0.000422991
0.000384509
0.000348645
0.000317851
0.000296422
0.00027817
3.48929e-05
3.08038e-05
2.83992e-05
2.81451e-05
3.15426e-05
4.15444e-05
6.10185e-05
9.16937e-05
0.000129681
0.000169868
0.000212933
0.000284761
0.000390127
0.000489281
0.000561741
0.000619456
0.000683944
0.000774638
0.000869662
0.000906216
0.000827098
0.000898536
0.00119034
0.00153624
0.00186178
0.00212831
0.00232465
0.00244862
0.00250196
0.00248709
0.00240861
0.00227335
0.0020887
0.00186397
0.00161151
0.00134634
0.00108355
0.000837326
0.000622363
0.000452128
0.000333716
0.000263373
0.000227886
0.000212206
0.000205626
0.000204327
0.000213556
0.000244994
0.000300744
0.000368045
0.000426844
0.000461744
0.000468155
0.000450967
0.000419344
0.00038254
0.000347737
0.000317554
0.00029642
0.000278276
3.48858e-05
3.07792e-05
2.82745e-05
2.76766e-05
3.02625e-05
3.87431e-05
5.63099e-05
8.56373e-05
0.000124279
0.000166875
0.000210234
0.000273129
0.00036927
0.000469076
0.00054594
0.000606614
0.000672451
0.000765887
0.000873704
0.0009314
0.000873601
0.000937264
0.00120764
0.00153883
0.00185723
0.0021208
0.00231635
0.00244027
0.00249337
0.00247744
0.00239691
0.00225862
0.00207024
0.00184142
0.0015849
0.00131611
0.0010507
0.000803532
0.000589937
0.000423423
0.000310562
0.000246466
0.000216569
0.000204982
0.000200585
0.000199138
0.000205385
0.000231519
0.000282577
0.000348343
0.000408986
0.00044763
0.000458071
0.000444289
0.000415199
0.000380121
0.000346426
0.000316901
0.000296096
0.000278101
3.48797e-05
3.07605e-05
2.8176e-05
2.72917e-05
2.91716e-05
3.62386e-05
5.17927e-05
7.92515e-05
0.000117721
0.000162284
0.000207149
0.0002639
0.000349771
0.000447364
0.000527729
0.000591528
0.00065883
0.000754113
0.000873097
0.000951565
0.000917299
0.000975569
0.00122375
0.00153957
0.00185025
0.0021104
0.00230479
0.00242843
0.00248119
0.00246423
0.00238179
0.00224072
0.00204891
0.00181638
0.00155621
0.00128433
0.00101691
0.000769522
0.000558031
0.000395878
0.000289064
0.000231517
0.000207332
0.000199891
0.000197767
0.000196384
0.000199996
0.000220928
0.000266758
0.000330036
0.000391625
0.000433433
0.000447626
0.000437158
0.000410598
0.000377281
0.000344736
0.000315909
0.000295465
0.000277657
3.48743e-05
3.07466e-05
2.8099e-05
2.69781e-05
2.8251e-05
3.40349e-05
4.75643e-05
7.27604e-05
0.000110242
0.000156094
0.000203068
0.000256348
0.000332412
0.000425114
0.000507465
0.000574271
0.000643135
0.000739671
0.000867628
0.000966335
0.000956878
0.00101233
0.00123839
0.00153837
0.0018408
0.0020971
0.00228999
0.00241313
0.00246545
0.00244748
0.00236329
0.00221968
0.00202475
0.00178886
0.00152549
0.00125105
0.000982253
0.00073538
0.000526711
0.000369523
0.000269211
0.000218462
0.000200065
0.000196793
0.000196996
0.00019584
0.000197126
0.000213053
0.000253305
0.000313274
0.000374939
0.000419297
0.00043692
0.000429641
0.000405587
0.000374051
0.000342688
0.000314597
0.000294543
0.00027696
3.48695e-05
3.07366e-05
2.80396e-05
2.67246e-05
2.74815e-05
3.21232e-05
4.36918e-05
6.63674e-05
0.000102112
0.000148414
0.000197579
0.000249592
0.000317456
0.000403351
0.000485729
0.000555024
0.000625441
0.000722703
0.000857566
0.000975392
0.000991171
0.00104644
0.00125125
0.00153508
0.00182881
0.00208089
0.00227197
0.0023944
0.00244619
0.00242725
0.00234145
0.00219552
0.00199778
0.0017589
0.00149279
0.00121633
0.000946822
0.000701191
0.000496044
0.000344387
0.00025099
0.000207238
0.000194664
0.00019556
0.000198115
0.000197304
0.000196531
0.000207704
0.000242183
0.000298164
0.000359081
0.000405356
0.000426052
0.000421805
0.000400212
0.000370464
0.00034031
0.000312985
0.000293349
0.000276023
3.48654e-05
3.07295e-05
2.79946e-05
2.65217e-05
2.68439e-05
3.04861e-05
4.02145e-05
6.02439e-05
9.36185e-05
0.000139445
0.000190459
0.000242785
0.000304654
0.000382935
0.000463272
0.000534108
0.000605855
0.00070335
0.000843383
0.000978465
0.00101915
0.00107689
0.001262
0.00152956
0.00181418
0.00206172
0.00225072
0.00237225
0.00242343
0.00240356
0.00231628
0.00216828
0.00196804
0.00172654
0.00145815
0.00118025
0.000910699
0.000667046
0.000466093
0.000320494
0.000234388
0.00019778
0.000191031
0.000196072
0.000200981
0.000200598
0.000197988
0.000204681
0.000233318
0.00028477
0.000344186
0.000391741
0.00041512
0.000413719
0.000394522
0.000366556
0.000337626
0.000311093
0.0002919
0.000274863
3.48617e-05
3.07249e-05
2.79612e-05
2.63608e-05
2.63202e-05
2.91006e-05
3.71471e-05
5.45237e-05
8.50444e-05
0.000129458
0.000181653
0.000235219
0.000293388
0.000364371
0.000440904
0.000511983
0.000584538
0.000681769
0.000825389
0.00097552
0.00104016
0.00110282
0.00127029
0.00152164
0.00179682
0.00203955
0.00222624
0.00234669
0.0023972
0.00237644
0.00228783
0.00213799
0.00193555
0.00169182
0.00142163
0.00114288
0.000873981
0.000633038
0.000436921
0.000297872
0.000219388
0.000190023
0.000189073
0.000198217
0.000205459
0.000205551
0.00020129
0.000203781
0.000226609
0.00027312
0.00033036
0.00037857
0.000404221
0.000405455
0.000388568
0.000362363
0.000334665
0.000308945
0.000290215
0.000273497
3.48586e-05
3.07222e-05
2.79371e-05
2.62347e-05
2.58938e-05
2.79404e-05
3.44848e-05
4.93006e-05
7.66512e-05
0.00011878
0.000171254
0.000226385
0.00028286
0.000347727
0.000419336
0.000489205
0.000561703
0.000658131
0.000803734
0.000966669
0.00105396
0.00112355
0.00127578
0.00151119
0.0017766
0.00201429
0.00219848
0.00231774
0.00236752
0.00234592
0.00225613
0.00210468
0.00190036
0.0016548
0.00138332
0.00110433
0.000836768
0.000599262
0.000408585
0.000276542
0.000205974
0.000183901
0.0001887
0.000201891
0.000211416
0.000212001
0.00020624
0.000204804
0.000221932
0.000263209
0.000317686
0.00036595
0.000393449
0.000397083
0.0003824
0.000357923
0.000331456
0.000306565
0.000288317
0.000271941
3.48558e-05
3.07209e-05
2.79204e-05
2.61372e-05
2.55497e-05
2.69785e-05
3.22076e-05
4.46295e-05
6.8662e-05
0.000107762
0.000159479
0.000215979
0.000272267
0.000332667
0.000399032
0.000466356
0.000537595
0.00063264
0.00077863
0.00095208
0.0010605
0.00113856
0.00127816
0.00149808
0.00175345
0.00198589
0.00216742
0.00228537
0.00233439
0.00231201
0.00222119
0.00206838
0.0018625
0.00161554
0.00134328
0.00106467
0.000799168
0.000565812
0.000381142
0.00025653