/*--------------------------------*- C++ -*----------------------------------*\
| =========                 |                                                 |
| \\      /  F ield         | OpenFOAM: The Open Source CFD Toolbox           |
|  \\    /   O peration     | Version:  2.4.0                                 |
|   \\  /    A nd           | Web:      www.OpenFOAM.org                      |
|    \\/     M anipulation  |                                                 |
\*---------------------------------------------------------------------------*/
FoamFile
{
    version     2.0;
    format      ascii;
    class       volVectorField;
    location    "3.15";
    object      U;
}
// * * * * * * * * * * * * * * * * * * * * * * * * * * * * * * * * * * * * * //

dimensions      [0 1 -1 0 0 0 0];

internalField   nonuniform List<vector> 
6000
(
(0.513487 -0.0430651 -7.24618e-18)
(-0.317815 0.066856 0)
(0.112089 -0.0274224 9.05914e-18)
(0.00828924 -0.00161823 0)
(0.00590655 5.52329e-05 0)
(-0.0295364 0.00566733 0)
(-0.00864424 0.00176019 3.90597e-18)
(-0.0225441 0.00398764 8.31907e-23)
(-0.0154871 0.00300298 0)
(-0.0299581 0.00567247 0)
(-0.0488312 0.00934206 3.24905e-18)
(-0.0817545 0.0141305 -6.15754e-18)
(-0.113142 0.0176521 0)
(-0.13397 0.017981 0)
(-0.126697 0.0137825 -1.35888e-18)
(-0.0838973 0.00461999 0)
(0.00326695 -0.0083198 0)
(0.121702 -0.0209746 -1.38653e-18)
(0.227429 -0.0232932 -1.25452e-18)
(0.225344 -0.0141558 0)
(0.113984 -0.00527694 1.30861e-18)
(0.0884912 -0.00594308 6.93069e-19)
(0.0515109 0.00344403 -6.64829e-19)
(-0.13204 0.0200416 0)
(-0.305267 0.0253453 0)
(-0.424255 0.0222928 0)
(-0.496706 0.0174745 1.0745e-19)
(-0.542379 0.0125648 -8.31313e-20)
(-0.569489 0.00740889 0)
(-0.581159 0.00203185 0)
(-0.578144 -0.00365208 1.15731e-20)
(-0.563878 -0.00883887 0)
(-0.538691 -0.0134785 1.61816e-19)
(-0.502355 -0.0173809 -2.1386e-19)
(-0.454417 -0.0203096 0)
(-0.394256 -0.0220036 0)
(-0.321252 -0.0221711 8.55165e-19)
(-0.235195 -0.0204934 0)
(-0.136795 -0.0166522 1.17746e-18)
(-0.0279247 -0.0103158 0)
(0.0874566 -0.00125717 0)
(0.204213 0.0101686 2.87828e-18)
(0.316311 0.0233883 -5.68822e-18)
(0.417375 0.0376212 0)
(0.501535 0.0518923 0)
(0.564597 0.0652188 2.39724e-18)
(0.604134 0.0775702 0)
(0.610327 0.0848925 0)
(0.587014 0.0875516 -4.18396e-18)
(0.544798 0.0863366 -4.2078e-18)
(0.496156 0.0827433 -4.30225e-18)
(0.453361 0.0787636 -1.73083e-21)
(0.422195 0.0760675 4.56322e-18)
(0.408082 0.0759655 0)
(0.40384 0.0781229 -4.64226e-21)
(0.423187 0.0846355 -4.7038e-18)
(0.43728 0.091442 4.3767e-18)
(0.499979 0.105337 4.22116e-18)
(0.504835 0.113258 1.41823e-20)
(0.662499 0.145847 0)
(0.726738 -0.108544 5.63951e-18)
(-0.209354 0.0626613 5.36407e-18)
(0.0920831 -0.0316643 -4.39528e-18)
(-0.023445 0.00896526 -4.72063e-18)
(0.00522936 0.00131564 0)
(-0.0414267 0.00851857 0)
(-0.015752 0.00296499 -3.83935e-18)
(-0.0312467 0.00571483 7.38435e-18)
(-0.0253502 0.0052285 0)
(-0.0438238 0.00919075 0)
(-0.0668896 0.0141681 -3.1432e-18)
(-0.10082 0.0191211 2.95973e-18)
(-0.128985 0.0216933 1.38652e-18)
(-0.144293 0.0200293 0)
(-0.135479 0.0133283 1.27225e-18)
(-0.0933861 0.000680261 0)
(-0.0087285 -0.016093 0)
(0.108191 -0.0307579 0)
(0.213242 -0.0283752 0)
(0.250244 -0.0113833 0)
(0.164335 -0.000332016 4.62694e-22)
(0.100144 0.000450924 0)
(-0.00754873 0.0217707 -6.35339e-19)
(-0.246862 0.044838 0)
(-0.411341 0.0439849 0)
(-0.497309 0.0337501 1.37815e-19)
(-0.546711 0.0249241 -9.94669e-20)
(-0.576779 0.0174098 3.23489e-22)
(-0.59228 0.0102078 3.34038e-20)
(-0.59602 0.00310451 0)
(-0.589963 -0.00380419 -1.06158e-20)
(-0.573144 -0.010429 -5.47347e-20)
(-0.545172 -0.0165417 -1.50207e-21)
(-0.505856 -0.0219279 1.93983e-19)
(-0.454772 -0.0263266 -2.47693e-19)
(-0.391331 -0.029439 0)
(-0.314947 -0.0309032 0)
(-0.225442 -0.0302814 0)
(-0.123576 -0.0271082 0)
(-0.0113011 -0.0209205 0)
(0.107727 -0.0114602 -2.45261e-18)
(0.228547 0.00117404 0)
(0.34508 0.0164465 2.527e-18)
(0.451011 0.033464 2.43148e-18)
(0.54066 0.0510557 0)
(0.609779 0.0679679 0)
(0.655533 0.0833621 0)
(0.681281 0.0961812 0)
(0.684383 0.105309 3.90613e-18)
(0.66442 0.10947 0)
(0.626301 0.1088 0)
(0.580868 0.104949 -4.18671e-18)
(0.539318 0.100625 -4.32333e-18)
(0.512389 0.0980514 0)
(0.500421 0.0988627 -8.96869e-18)
(0.513156 0.103446 0)
(0.530847 0.112147 -8.4295e-18)
(0.596327 0.127635 -4.0415e-18)
(0.615999 0.141216 2.59382e-18)
(0.789651 0.178421 2.66224e-18)
(0.798628 -0.0913404 -3.36051e-19)
(-0.0779754 0.0480672 -5.01322e-18)
(0.0670941 -0.0276435 0)
(-0.0551926 0.0171373 4.68073e-18)
(0.00228491 0.00248736 0)
(-0.0456751 0.00960783 0)
(-0.0200415 0.0037281 0)
(-0.0354711 0.00657698 -3.60476e-18)
(-0.0307043 0.00693258 0)
(-0.0496887 0.0118344 -3.22856e-18)
(-0.0724909 0.0176475 0)
(-0.104488 0.0223415 0)
(-0.130963 0.0239011 -1.31341e-18)
(-0.146299 0.0205531 0)
(-0.139077 0.0112703 0)
(-0.099521 -0.00478244 0)
(-0.0191012 -0.0249893 0)
(0.0933428 -0.0408802 0)
(0.196295 -0.0343328 0)
(0.236994 -0.00812474 1.10992e-18)
(0.171982 0.00694185 -1.21829e-18)
(0.0929293 0.0124054 0)
(-0.0608525 0.0457538 -1.75309e-21)
(-0.292512 0.0687809 -4.96955e-19)
(-0.421683 0.0572786 0)
(-0.491994 0.0405721 -2.52465e-19)
(-0.537491 0.0289532 0)
(-0.566578 0.019621 6.91547e-20)
(-0.582268 0.0109915 -3.01045e-20)
(-0.586568 0.00261022 0)
(-0.580281 -0.00540848 0)
(-0.56297 -0.0131211 4.8919e-20)
(-0.534552 -0.0203559 -1.5164e-21)
(-0.494805 -0.0268825 0)
(-0.443298 -0.0324526 4.37159e-19)
(-0.379441 -0.0367699 0)
(-0.302638 -0.0394457 6.62473e-19)
(-0.212702 -0.039965 0)
(-0.110385 -0.0377427 0)
(0.00236939 -0.0321703 0)
(0.122015 -0.0229212 2.14261e-18)
(0.243472 -0.00992881 0)
(0.360659 0.00632976 0)
(0.467306 0.0249172 -2.15153e-18)
(0.557842 0.0445477 0)
(0.628094 0.0638061 0)
(0.675642 0.0814382 1.85447e-18)
(0.701914 0.0967884 -1.80303e-18)
(0.707782 0.10865 -1.79295e-18)
(0.69447 0.11587 0)
(0.664871 0.118018 0)
(0.626003 0.115811 0)
(0.587026 0.111649 4.09649e-18)
(0.559739 0.107916 4.23196e-18)
(0.546593 0.10742 4.28674e-18)
(0.559196 0.110052 0)
(0.577415 0.118709 4.05562e-18)
(0.643741 0.131292 7.78311e-18)
(0.666879 0.147639 0)
(0.843212 0.178081 -2.56785e-18)
(0.836458 -0.0599267 -2.63411e-19)
(0.0437634 0.0395353 4.59801e-18)
(0.0471445 -0.0203802 -4.27143e-18)
(-0.0757687 0.0222713 0)
(-0.000478506 0.0028776 0)
(-0.0476036 0.0103635 0)
(-0.0232699 0.00424722 0)
(-0.0383222 0.00727134 0)
(-0.0344028 0.00831829 0)
(-0.0529303 0.0139983 3.13506e-18)
(-0.0747034 0.0204177 2.92347e-18)
(-0.105057 0.0249936 0)
(-0.130815 0.0258529 0)
(-0.146861 0.0210804 0)
(-0.141593 0.00940129 1.1035e-18)
(-0.105188 -0.0100188 0)
(-0.0294256 -0.0337295 1.06682e-18)
(0.078039 -0.0508705 -1.05124e-18)
(0.179063 -0.0403413 0)
(0.220779 -0.00546004 -1.06958e-18)
(0.167648 0.0150341 0)
(0.0791806 0.0273696 -6.23887e-19)
(-0.101784 0.0703246 1.15131e-18)
(-0.309981 0.0892903 4.67998e-19)
(-0.414656 0.0678326 0)
(-0.47957 0.0466559 1.15607e-19)
(-0.52402 0.0328779 0)
(-0.553002 0.0219639 6.21919e-20)
(-0.568927 0.0120274 0)
(-0.573433 0.00247991 0)
(-0.567049 -0.00675606 0)
(-0.549644 -0.0156462 4.29816e-20)
(-0.521185 -0.0240649 -2.30513e-19)
(-0.481428 -0.0318029 0)
(-0.429934 -0.0386258 -1.96248e-19)
(-0.366103 -0.0442411 0)
(-0.289326 -0.0482327 -5.97249e-19)
(-0.1994 -0.0500047 0)
(-0.0970594 -0.0488473 0)
(0.0157668 -0.0439981 0)
(0.135468 -0.0349471 1.90728e-18)
(0.256895 -0.0215272 0)
(0.373966 -0.00418692 1.97082e-18)
(0.480432 0.0160704 -1.92263e-18)
(0.570778 0.037813 0)
(0.640919 0.0594346 -1.75559e-18)
(0.688653 0.0795068 -3.3809e-18)
(0.714767 0.0969805 1.65475e-18)
(0.720991 0.110733 3.2999e-18)
(0.709787 0.119815 -3.38445e-18)
(0.684367 0.123737 -3.53453e-18)
(0.650428 0.122792 0)
(0.615132 0.118995 -3.87751e-18)
(0.589346 0.114608 -4.02361e-18)
(0.576122 0.113081 -4.07805e-18)
(0.587567 0.114468 0)
(0.605175 0.122531 0)
(0.669379 0.132962 -3.71122e-18)
(0.693976 0.150817 0)
(0.864411 0.175506 2.38723e-18)
(0.861478 -0.0344645 -2.46462e-19)
(0.153211 0.0356186 -8.98801e-20)
(0.0540111 -0.0145605 4.23279e-18)
(-0.0864574 0.025017 4.62745e-18)
(-0.0031111 0.0028077 0)
(-0.048698 0.0109849 -3.94217e-18)
(-0.0258976 0.00467104 0)
(-0.0405259 0.007883 0)
(-0.0371441 0.00951517 0)
(-0.0547978 0.0158917 3.05799e-18)
(-0.0753314 0.0228282 -2.83403e-18)
(-0.104311 0.0274026 0)
(-0.129735 0.0277231 0)
(-0.146735 0.021668 0)
(-0.143702 0.00771673 -1.05378e-18)
(-0.110877 -0.0149508 0)
(-0.0400942 -0.0420915 -1.01253e-18)
(0.0620026 -0.0605982 1.00014e-18)
(0.161173 -0.0464452 0)
(0.203851 -0.00335693 0)
(0.158532 0.0235144 5.73281e-19)
(0.0619714 0.0443098 6.03429e-19)
(-0.132167 0.093892 -1.10077e-18)
(-0.314443 0.106343 -4.36761e-19)
(-0.403665 0.0768303 0)
(-0.465797 0.0524984 1.06248e-19)
(-0.509383 0.0367863 0)
(-0.538154 0.0243328 -5.7241e-20)
(-0.554106 0.0130765 2.43095e-20)
(-0.558644 0.00231997 0)
(-0.552206 -0.00810999 0)
(-0.534807 -0.018193 -7.85646e-20)
(-0.506409 -0.0278137 1.05531e-19)
(-0.466751 -0.0367837 0)
(-0.415389 -0.0448834 -1.77927e-19)
(-0.35171 -0.051825 0)
(-0.275091 -0.0571643 5.4496e-19)
(-0.185305 -0.0602224 0)
(-0.0830668 -0.0601609 0)
(0.029695 -0.0560513 0)
(0.149252 -0.0472037 -1.76978e-18)
(0.270417 -0.0333506 -1.81803e-18)
(0.387102 -0.0149155 -1.83022e-18)
(0.493057 0.00702554 1.01312e-20)
(0.582804 0.0308848 -1.70325e-18)
(0.652339 0.054853 1.63345e-18)
(0.699611 0.0772692 3.13256e-18)
(0.725173 0.0968138 0)
(0.731081 0.112329 -1.53412e-18)
(0.720465 0.122906 3.1558e-18)
(0.697005 0.128077 3.30671e-18)
(0.66606 0.127991 0)
(0.633648 0.124441 0)
(0.609515 0.119524 0)
(0.596622 0.11704 3.88188e-18)
(0.607118 0.116981 0)
(0.623861 0.124162 0)
(0.685856 0.132658 3.50357e-18)
(0.710727 0.150852 -2.19826e-18)
(0.875404 0.170988 -2.23257e-18)
(0.880262 -0.013726 -2.27997e-19)
(0.250943 0.034853 -4.22847e-18)
(0.0813297 -0.00969622 0)
(-0.0882211 0.0267502 -4.60699e-18)
(-0.00573321 0.00255508 -4.13467e-18)
(-0.0493621 0.0115328 3.97333e-22)
(-0.0280527 0.00502743 0)
(-0.0422814 0.00843218 0)
(-0.0391718 0.0105485 0)
(-0.0557399 0.0175591 -2.99027e-18)
(-0.0749556 0.0249768 0)
(-0.102726 0.029643 0)
(-0.127992 0.0295525 1.16301e-18)
(-0.146086 0.0223589 0)
(-0.145511 0.00629378 0)
(-0.11661 -0.0194415 0)
(-0.0511012 -0.049881 0)
(0.0452482 -0.0698767 -9.55039e-19)
(0.142487 -0.0525157 0)
(0.18638 -0.00170961 1.00955e-18)
(0.146885 0.0322375 -5.60786e-19)
(0.0432533 0.0622285 -5.83941e-19)
(-0.154179 0.115929 1.05365e-18)
(-0.312225 0.120833 8.23868e-19)
(-0.391288 0.0848902 0)
(-0.451281 0.0581471 -9.93542e-20)
(-0.493924 0.0406329 0)
(-0.522344 0.0266853 0)
(-0.538176 0.0141202 -4.50521e-20)
(-0.542652 0.00215023 0)
(-0.536164 -0.00946547 0)
(-0.518793 -0.0207331 7.24098e-20)
(-0.490482 -0.03155 0)
(-0.450957 -0.0417475 0)
(-0.399768 -0.0511212 1.67184e-19)
(-0.336294 -0.0593881 0)
(-0.259888 -0.0660763 -5.13812e-19)
(-0.170299 -0.0704231 0)
(-0.0682148 -0.0714586 0)
(0.0444076 -0.068081 0)
(0.16372 -0.0594302 0)
(0.284514 -0.0451371 1.72283e-18)
(0.400678 -0.0256018 1.71684e-18)
(0.505951 -0.00197704 9.09314e-21)
(0.594875 0.0239874 1.61448e-18)
(0.663525 0.0502713 1.53028e-18)
(0.709972 0.0749761 -1.47975e-18)
(0.7347 0.0965519 0)
(0.739935 0.113744 -1.43715e-18)
(0.729209 0.125633 1.479e-18)
(0.706578 0.131776 -3.10538e-18)
(0.677367 0.132277 0)
(0.646966 0.128815 0)
(0.624211 0.123368 -3.61851e-18)
(0.611744 0.119944 -3.68829e-18)
(0.621553 0.118554 3.73784e-18)
(0.6375 0.124745 3.48719e-18)
(0.697666 0.131595 -3.33246e-18)
(0.722429 0.149588 2.07952e-18)
(0.882513 0.166264 0)
(0.895331 0.00501907 -2.04952e-19)
(0.33782 0.0365313 0)
(0.120157 -0.00445039 4.04168e-18)
(-0.0784483 0.0275133 4.54889e-18)
(-0.00819265 0.00238652 -4.66242e-22)
(-0.0497163 0.0120105 3.86143e-18)
(-0.0297671 0.00532673 0)
(-0.0436537 0.00891937 0)
(-0.040601 0.0114286 0)
(-0.0559691 0.019021 1.4668e-18)
(-0.0738273 0.0269078 1.3488e-18)
(-0.100483 0.0317482 0)
(-0.125668 0.0313627 -1.1308e-18)
(-0.144933 0.0231721 1.04652e-18)
(-0.146986 0.00515986 0)
(-0.122292 -0.0234577 0)
(-0.0623318 -0.0570633 0)
(0.027911 -0.0786746 4.31392e-21)
(0.122968 -0.0585322 0)
(0.168419 -0.000445613 -1.9891e-18)
(0.133684 0.0411226 5.48158e-19)
(0.0243101 0.0804653 5.66953e-19)
(-0.169631 0.136253 -2.97346e-21)
(-0.306252 0.133378 -3.90178e-19)
(-0.378172 0.092301 0)
(-0.436142 0.0636052 0)
(-0.477739 0.0443886 0)
(-0.505681 0.0289946 2.44564e-20)
(-0.521282 0.0151403 4.18675e-20)
(-0.525626 0.00196659 0)
(-0.519074 -0.0108231 0)
(-0.501724 -0.0232611 -6.75077e-20)
(-0.473497 -0.0352618 -4.51171e-20)
(-0.434112 -0.0466754 0)
(-0.383111 -0.0573126 0)
(-0.319862 -0.0668964 0)
(-0.243697 -0.074928 0)
(-0.154332 -0.0805608 0)
(-0.0524278 -0.0826898 0)
(0.060002 -0.0800341 0)
(0.179011 -0.0715681 0)
(0.299373 -0.0568236 0)
(0.414936 -0.036178 -7.98637e-21)
(0.519414 -0.0108646 1.61125e-18)
(0.607366 0.0171994 0)
(0.674937 0.0457772 -2.93261e-18)
(0.720311 0.0727343 -1.40497e-18)
(0.743984 0.0963089 0)
(0.748299 0.115118 1.37178e-18)
(0.737058 0.128205 -1.40756e-18)
(0.714612 0.135149 2.95021e-18)
(0.686349 0.136056 -3.11961e-18)
(0.657292 0.132549 0)
(0.635588 0.126544 1.97175e-21)
(0.623512 0.122189 3.52226e-18)
(0.63283 0.11957 -7.14315e-18)
(0.648121 0.124711 -9.85798e-21)
(0.706844 0.130142 -3.15882e-18)
(0.731445 0.147593 1.92995e-18)
(0.88787 0.161577 1.92639e-18)
(0.90764 0.0223111 -1.49982e-18)
(0.414743 0.0401035 0)
(0.166341 0.00148535 9.89716e-21)
(-0.0568821 0.0276907 -3.26317e-21)
(-0.00986662 0.00251528 4.15768e-18)
(-0.0497759 0.0124197 3.84006e-18)
(-0.0310384 0.00557173 0)
(-0.0446636 0.00934257 3.32473e-18)
(-0.041499 0.012161 0)
(-0.0556038 0.0202908 -1.44119e-18)
(-0.0720743 0.028645 5.49183e-22)
(-0.0976571 0.0337354 -1.20941e-18)
(-0.122777 0.0331644 0)
(-0.143243 0.0241172 -2.04449e-18)
(-0.148035 0.0043286 0)
(-0.127772 -0.0269879 0)
(-0.0736433 -0.0636206 0)
(0.0102163 -0.0870007 9.08964e-19)
(0.102637 -0.064497 0)
(0.150035 0.000465553 9.8477e-19)
(0.119477 0.0500876 -1.07847e-18)
(0.00594273 0.0985712 0)
(-0.179933 0.154813 -3.60559e-21)
(-0.297996 0.144352 0)
(-0.36452 0.0992098 0)
(-0.420428 0.0688691 -8.71902e-20)
(-0.460878 0.0480396 0)
(-0.488229 0.0312479 -4.62262e-20)
(-0.503507 0.0161287 -1.97732e-20)
(-0.507665 0.00176698 -4.95087e-21)
(-0.501022 -0.012183 5.95326e-21)
(-0.483675 -0.0257772 3.20034e-20)
(-0.45552 -0.0389493 8.57969e-20)
(-0.416267 -0.0515672 0)
(-0.365455 -0.0634572 1.48956e-19)
(-0.30244 -0.0743494 0)
(-0.226528 -0.0837192 0)
(-0.137401 -0.0906367 0)
(-0.0356883 -0.0938555 6.44372e-19)
(0.0765079 -0.0919115 0)
(0.195178 -0.083616 0)
(0.315069 -0.0684035 1.5894e-18)
(0.429974 -0.0466298 -1.59907e-18)
(0.533575 -0.019613 0)
(0.62044 0.0105561 0)
(0.686783 0.0414185 1.42015e-18)
(0.730896 0.0706062 1.36291e-18)
(0.753329 0.0961501 -1.32001e-18)
(0.756528 0.116526 0)
(0.744499 0.130728 0)
(0.721828 0.138355 0)
(0.693997 0.139536 3.34486e-21)
(0.665801 0.135882 0)
(0.644863 0.129291 3.30067e-18)
(0.633106 0.124008 0)
(0.642066 0.120235 3.4257e-18)
(0.656836 0.124295 -3.18915e-18)
(0.714417 0.128477 6.04884e-18)
(0.738893 0.145171 -1.84082e-18)
(0.892306 0.156996 -1.82886e-18)
(0.917678 0.0379452 1.70948e-19)
(0.482588 0.0450334 -3.66509e-18)
(0.217114 0.00808133 -3.81807e-18)
(-0.0264115 0.0280322 -3.2582e-21)
(-0.00959902 0.00308296 -4.17113e-18)
(-0.0494779 0.0127825 -3.83285e-18)
(-0.0318467 0.00576363 0)
(-0.0453151 0.00970043 -3.29107e-18)
(-0.0419104 0.01275 0)
(-0.0547177 0.0213781 -1.41964e-18)
(-0.0697689 0.0302024 -1.29741e-18)
(-0.0942838 0.0356125 1.18525e-18)
(-0.119309 0.0349603 -1.08137e-18)
(-0.140959 0.0251956 1.0024e-18)
(-0.148545 0.0038046 -9.39422e-19)
(-0.132879 -0.0300263 8.99418e-19)
(-0.0848416 -0.0695522 0)
(-0.00758346 -0.094841 0)
(0.081573 -0.0704118 0)
(0.13131 0.00102415 4.87441e-19)
(0.104628 0.059037 5.31762e-19)
(-0.0113642 0.116218 0)
(-0.186159 0.171622 -4.66469e-19)
(-0.288247 0.154014 0)
(-0.350403 0.105696 0)
(-0.404164 0.0739325 8.35103e-20)
(-0.443376 0.0515762 -5.81963e-20)
(-0.47004 0.0334361 2.19933e-20)
(-0.48492 0.0170788 0)
(-0.488841 0.00154719 9.40015e-21)
(-0.48208 -0.013548 -1.13235e-20)
(-0.464711 -0.0282849 0)
(-0.43661 -0.0426164 -4.10737e-20)
(-0.397479 -0.0564273 1.08947e-19)
(-0.346849 -0.0695598 -1.44174e-19)
(-0.284068 -0.0817524 0)
(-0.208412 -0.0924564 0)
(-0.119526 -0.100658 0)
(-0.0180131 -0.104963 -6.29438e-19)
(0.0939182 -0.10372 0)
(0.212226 -0.0955796 0)
(0.331618 -0.0798798 -1.55847e-18)
(0.445823 -0.0569557 0)
(0.548482 -0.0282146 1.51325e-18)
(0.634167 0.00407253 -1.44628e-18)
(0.699159 0.037219 0)
(0.741857 0.0686233 1.31696e-18)
(0.76289 0.0961111 2.56722e-18)
(0.764809 0.118014 -1.26766e-18)
(0.751784 0.133266 0)
(0.728601 0.141482 0)
(0.700841 0.142837 1.43627e-18)
(0.673153 0.138956 0)
(0.652755 0.13175 3.17347e-18)
(0.641244 0.125541 0)
(0.649935 0.120665 3.29523e-18)
(0.664293 0.12363 3.05785e-18)
(0.720958 0.126681 -2.91132e-18)
(0.745357 0.142483 0)
(0.896209 0.152521 1.73582e-18)
(0.925852 0.0519273 7.78103e-19)
(0.542202 0.0508709 7.40397e-20)
(0.270309 0.0152261 3.73361e-18)
(0.0110445 0.0290102 -3.4286e-21)
(-0.00630067 0.0041724 -5.80271e-22)
(-0.0486546 0.0131431 0)
(-0.0321572 0.00590521 0)
(-0.0456029 0.00999314 0)
(-0.0418682 0.0131997 -1.50946e-18)
(-0.053361 0.0222896 2.79999e-18)
(-0.0669552 0.0315877 0)
(-0.0903781 0.0373816 1.16513e-18)
(-0.115244 0.0367471 2.95033e-22)
(-0.138018 0.0264029 -9.83648e-19)
(-0.148393 0.00358629 3.38799e-21)
(-0.137423 -0.03257 -8.89403e-19)
(-0.0957014 -0.0748567 0)
(-0.0252239 -0.102164 0)
(0.0599146 -0.0762798 0)
(0.112348 0.00121353 -4.87093e-19)
(0.0894012 0.0678657 0)
(-0.0273193 0.133158 5.17665e-19)
(-0.189123 0.186732 4.44174e-19)
(-0.27745 0.162562 -3.2713e-19)
(-0.335844 0.111805 0)
(-0.387373 0.0787877 0)
(-0.425268 0.0549899 5.6052e-20)
(-0.451162 0.0355514 0)
(-0.465578 0.0179848 1.71743e-20)
(-0.469219 0.00130307 -4.48557e-21)
(-0.462311 -0.0149215 5.41306e-21)
(-0.444898 -0.0307879 -2.82448e-20)
(-0.416832 -0.0462673 0)
(-0.377806 -0.0612603 -1.05802e-19)
(-0.32735 -0.0756251 0)
(-0.264797 -0.0891104 0)
(-0.189395 -0.101145 4.36971e-19)
(-0.100749 -0.11063 0)
(0.000559379 -0.116016 0)
(0.112201 -0.115463 0)
(0.230128 -0.107463 0)
(0.349 -0.0912559 0)
(0.462471 -0.0671563 0)
(0.564133 -0.0366664 -2.98137e-18)
(0.648561 -0.00224357 1.42794e-18)
(0.712097 0.033192 1.34596e-18)
(0.753251 0.0668038 -2.58474e-18)
(0.772747 0.0962145 -1.25614e-18)
(0.773243 0.119608 1.23886e-18)
(0.759057 0.135857 -1.25709e-18)
(0.735145 0.144588 0)
(0.70719 0.146034 1.71219e-21)
(0.679747 0.141858 -2.92157e-18)
(0.659706 0.134011 -3.06858e-18)
(0.648373 0.126874 -3.13659e-18)
(0.656855 0.120933 -6.37824e-18)
(0.670888 0.122796 -2.96138e-18)
(0.726804 0.124801 2.80629e-18)
(0.751168 0.139628 1.65285e-18)
(0.899781 0.148138 -1.67439e-18)
(0.932534 0.0644599 -1.49088e-19)
(0.594387 0.0572723 3.4944e-18)
(0.324234 0.0227952 2.3666e-21)
(0.0546634 0.0306892 -3.80866e-21)
(0.00102536 0.00612358 4.11386e-18)
(-0.0469752 0.0135623 3.85648e-18)
(-0.0319131 0.00600457 -3.48044e-18)
(-0.0455131 0.0102229 1.61996e-18)
(-0.0413974 0.0135145 -2.92083e-22)
(-0.0515709 0.0230303 -1.38266e-18)
(-0.063663 0.0328046 -1.25942e-18)
(-0.0859467 0.0390408 -1.147e-18)
(-0.110558 0.038518 2.09161e-18)
(-0.134354 0.0277304 1.59186e-21)
(-0.147454 0.0036667 9.15853e-19)
(-0.141216 -0.0346204 0)
(-0.105982 -0.0795344 8.6351e-19)
(-0.0424396 -0.108923 0)
(0.0378833 -0.0821078 -8.902e-19)
(0.0932662 0.00101104 -4.8658e-19)
(0.0739908 0.0764612 -5.16806e-19)
(-0.0417419 0.149211 -2.01e-21)
(-0.189439 0.200211 -4.31744e-19)
(-0.265861 0.170152 3.16509e-19)
(-0.320853 0.117561 0)
(-0.370075 0.0834277 -7.5131e-20)
(-0.406588 0.0582733 0)
(-0.431639 0.0375871 0)
(-0.445538 0.0188417 -1.66388e-20)
(-0.448862 0.00103076 0)
(-0.441779 -0.0163072 0)
(-0.424299 -0.03329 2.74518e-20)
(-0.396251 -0.0499059 0)
(-0.357316 -0.0660702 0)
(-0.307021 -0.0816575 1.33288e-19)
(-0.244689 -0.096428 0)
(-0.169535 -0.109789 -4.29408e-19)
(-0.0811201 -0.120558 0)
(0.0199748 -0.127019 6.02202e-19)
(0.131306 -0.127145 0)
(0.248841 -0.119272 0)
(0.367176 -0.102536 0)
(0.479883 -0.077234 0)
(0.580499 -0.0449682 1.47674e-18)
(0.663602 -0.00838876 0)
(0.725596 0.0293449 -2.6602e-18)
(0.765097 0.0651591 1.27521e-18)
(0.782937 0.0964749 -1.22398e-18)
(0.781885 0.121328 1.20481e-18)
(0.766399 0.138526 1.23003e-18)
(0.741586 0.147707 0)
(0.713234 0.149174 1.34789e-18)
(0.685829 0.144645 4.25666e-18)
(0.666 0.136131 -2.97839e-18)
(0.654788 0.128064 3.04714e-18)
(0.663102 0.121086 3.09889e-18)
(0.676875 0.121845 0)
(0.732168 0.122863 -2.73159e-18)
(0.756527 0.136661 -3.19243e-18)
(0.903137 0.143836 0)
(0.938035 0.0757456 -1.70693e-19)
(0.639898 0.0639719 0)
(0.377561 0.0306652 9.43771e-23)
(0.102634 0.0332309 -4.30465e-21)
(0.0151225 0.00853926 -4.04411e-18)
(-0.0438439 0.0141351 -7.75984e-18)
(-0.0310183 0.00608064 6.96937e-18)
(-0.045021 0.0103942 -1.61147e-18)
(-0.040517 0.0136996 1.4814e-18)
(-0.049377 0.0236042 0)
(-0.0599149 0.0338545 -5.7286e-22)
(-0.0809937 0.0405858 0)
(-0.10523 0.0402632 -2.06294e-18)
(-0.129909 0.0291652 9.57771e-19)
(-0.145613 0.00403412 0)
(-0.144073 -0.036183 0)
(-0.115439 -0.0835874 -8.59476e-19)
(-0.0589889 -0.115115 0)
(0.0157946 -0.0878614 8.84333e-19)
(0.0741861 0.000400678 4.88404e-19)
(0.0585256 0.0846951 9.67327e-22)
(-0.0545022 0.164251 -4.9345e-19)
(-0.187577 0.21214 -4.11892e-19)
(-0.253633 0.176903 0)
(-0.305434 0.122979 0)
(-0.352291 0.0878466 7.29467e-20)
(-0.387369 0.0614204 0)
(-0.411518 0.0395373 1.8517e-20)
(-0.424853 0.0196452 -1.53723e-20)
(-0.427827 0.000726963 3.90551e-21)
(-0.420547 -0.0177079 -4.75658e-21)
(-0.402981 -0.0357943 2.57039e-20)
(-0.374934 -0.0535357 -3.56085e-20)
(-0.336076 -0.0708611 9.73237e-20)
(-0.285931 -0.0876613 -1.30743e-19)
(-0.223809 -0.10371 0)
(-0.148895 -0.118395 0)
(-0.0607028 -0.130446 0)
(0.0401669 -0.137977 -3.05868e-21)
(0.151171 -0.13877 6.66165e-19)
(0.268302 -0.13101 0)
(0.386084 -0.113724 0)
(0.497999 -0.0871926 0)
(0.597529 -0.0531219 0)
(0.679249 -0.0143626 0)
(0.739626 0.025681 9.92136e-21)
(0.777384 0.0636959 0)
(0.793466 0.096902 2.41715e-18)
(0.79076 0.123187 -2.37056e-18)
(0.773856 0.141291 -1.19938e-18)
(0.748004 0.150866 0)
(0.719091 0.152291 0)
(0.691561 0.147357 -2.76614e-18)
(0.671826 0.13815 4.01647e-22)
(0.660684 0.129147 -2.96856e-18)
(0.668859 0.121152 3.01959e-18)
(0.682423 0.120807 2.79215e-18)
(0.737189 0.120883 -2.65744e-18)
(0.761562 0.133621 3.08302e-18)
(0.906351 0.139603 1.56956e-18)
(0.942606 0.0859338 1.3184e-19)
(0.679441 0.0707603 -3.22946e-18)
(0.429277 0.0387208 -7.0219e-18)
(0.153508 0.0366905 -4.93594e-21)
(0.036104 0.0113792 3.96021e-18)
(-0.0382673 0.0149867 3.89832e-18)
(-0.0293101 0.00617177 -1.74837e-18)
(-0.0440838 0.0105153 0)
(-0.0392389 0.0137613 0)
(-0.0468049 0.0240148 1.35514e-18)
(-0.0557306 0.0347367 1.22936e-18)
(-0.0755239 0.0420105 0)
(-0.0992448 0.0419709 1.01911e-18)
(-0.124633 0.0306915 0)
(-0.142768 0.00467267 0)
(-0.145826 -0.0372679 0)
(-0.123846 -0.0870176 0)
(-0.0746701 -0.120734 8.52748e-19)
(-0.00588493 -0.0935055 4.38665e-19)
(0.0552006 -0.000613069 -4.918e-19)
(0.0430391 0.092526 4.58991e-22)
(-0.065494 0.178136 0)
(-0.183893 0.222604 4.02047e-19)
(-0.240859 0.182908 0)
(-0.28959 0.128067 0)
(-0.334043 0.0920405 6.91868e-20)
(-0.367643 0.0644264 -4.83433e-20)
(-0.390841 0.0413977 -1.80459e-20)
(-0.403575 0.020392 1.49918e-20)
(-0.406172 0.000388916 -7.51122e-21)
(-0.398674 -0.0191264 9.16943e-21)
(-0.381008 -0.0383037 -2.51399e-20)
(-0.352948 -0.0571601 3.48806e-20)
(-0.314156 -0.0756367 -1.26155e-21)
(-0.26415 -0.0936409 -1.25949e-19)
(-0.20223 -0.110961 0)
(-0.127545 -0.126968 0)
(-0.0395648 -0.140301 0)
(0.0610602 -0.148894 -1.17753e-18)
(0.171724 -0.150344 -6.63622e-19)
(0.288441 -0.142684 0)
(0.405653 -0.124827 0)
(0.51675 -0.0970369 -1.49183e-18)
(0.615155 -0.0611312 0)
(0.695443 -0.0201669 0)
(0.754142 0.022201 2.61251e-18)
(0.790083 0.0624178 -1.23845e-18)
(0.804323 0.097502 -2.38697e-18)
(0.799872 0.125194 6.84843e-21)
(0.78145 0.144165 2.36055e-18)
(0.754443 0.154081 1.22193e-18)
(0.724838 0.155409 0)
(0.697051 0.15002 1.35335e-18)
(0.677313 0.140096 2.83964e-18)
(0.666198 0.130151 2.90372e-18)
(0.674253 0.121154 -2.95496e-18)
(0.687649 0.119706 -2.7337e-18)
(0.741959 0.118871 2.605e-18)
(0.766361 0.13053 -1.50113e-18)
(0.909468 0.13543 -1.53623e-18)
(0.946453 0.0951464 1.24597e-19)
(0.71368 0.0774781 3.20169e-18)
(0.478622 0.0468509 3.69305e-21)
(0.206113 0.0410207 -5.64784e-21)
(0.0631237 0.0148962 0)
(-0.0288002 0.0160713 0)
(-0.0265195 0.00634335 1.84489e-22)
(-0.042631 0.0106 0)
(-0.0375662 0.0137079 0)
(-0.0438767 0.0242654 5.51315e-22)
(-0.0511293 0.0354499 0)
(-0.0695451 0.0433076 0)
(-0.0925928 0.0436276 1.00774e-18)
(-0.118488 0.0322913 0)
(-0.138834 0.00556302 0)
(-0.146326 -0.0378883 0)
(-0.130992 -0.0898256 0)
(-0.0892651 -0.125747 -3.56131e-21)
(-0.0267302 -0.0990382 -4.35685e-19)
(0.0363534 -0.00200408 9.89954e-19)
(0.0277197 0.0998687 -1.56097e-22)
(-0.0746895 0.190749 4.69609e-19)
(-0.178661 0.231693 0)
(-0.227591 0.188241 2.75224e-19)
(-0.273324 0.132832 0)
(-0.315351 0.0960066 -6.75783e-20)
(-0.347442 0.0672877 7.82154e-22)
(-0.36965 0.0431648 0)
(-0.381753 0.0210793 0)
(-0.383951 1.44053e-05 1.12862e-22)
(-0.376222 -0.0205648 -1.23634e-22)
(-0.358442 -0.0408206 1.1788e-20)
(-0.330362 -0.0607818 0)
(-0.291627 -0.0804005 -9.27276e-20)
(-0.24175 -0.0996002 1.24198e-19)
(-0.180023 -0.118186 0)
(-0.105558 -0.135514 -4.03921e-19)
(-0.0177808 -0.150125 0)
(0.082574 -0.159773 3.28621e-21)
(0.192886 -0.161872 0)
(0.309177 -0.1543 7.1205e-19)
(0.425798 -0.135849 7.42431e-19)
(0.53605 -0.106773 9.27617e-21)
(0.633296 -0.069001 -1.4479e-18)
(0.712109 -0.0258055 0)
(0.769083 0.0189029 -1.12196e-20)
(0.80315 0.0613251 1.24128e-18)
(0.815482 0.0982778 9.14601e-21)
(0.809211 0.127353 1.15548e-18)
(0.789188 0.147156 -5.17327e-21)
(0.760931 0.157366 -3.29282e-21)
(0.730525 0.158544 0)
(0.702373 0.152656 0)
(0.68255 0.141989 0)
(0.671426 0.131093 0)
(0.679376 0.121104 0)
(0.692635 0.118556 2.67418e-18)
(0.746546 0.116835 0)
(0.770983 0.127405 0)
(0.912521 0.131312 -1.50109e-18)
(0.949748 0.103496 -2.3924e-19)
(0.743235 0.0840098 0)
(0.525056 0.0549485 5.18882e-21)
(0.259456 0.0461159 -6.38035e-21)
(0.0955477 0.0191475 0)
(-0.0142678 0.0174514 1.93041e-18)
(-0.0222322 0.00667884 -1.76883e-18)
(-0.0405479 0.0106706 0)
(-0.0354883 0.0135502 0)
(-0.040612 0.0243598 -1.33409e-18)
(-0.0461313 0.0359918 0)
(-0.0630694 0.0444692 0)
(-0.0852739 0.0452191 -9.98374e-19)
(-0.111453 0.0339444 0)
(-0.133748 0.00668321 -8.80764e-19)
(-0.145455 -0.0380603 0)
(-0.136699 -0.0920134 0)
(-0.102558 -0.13014 -3.62503e-21)
(-0.046385 -0.104412 0)
(0.0176074 -0.00377531 -4.96335e-19)
(0.012782 0.106615 4.97654e-19)
(-0.0821054 0.202045 -9.2234e-19)
(-0.172088 0.239493 3.73598e-19)
(-0.213861 0.192962 -2.69356e-19)
(-0.256641 0.137278 0)
(-0.296235 0.099744 -6.43678e-20)
(-0.326796 0.0700021 9.01754e-20)
(-0.347986 0.0448359 0)
(-0.359435 0.021705 -6.58067e-21)
(-0.361218 -0.000398238 3.43871e-21)
(-0.353245 -0.0220246 -4.22496e-21)
(-0.335346 -0.0433468 -1.15807e-20)
(-0.307238 -0.0644031 0)
(-0.268554 -0.0851553 -8.88857e-20)
(-0.218802 -0.105543 1.19995e-19)
(-0.157259 -0.125389 0)
(-0.0830058 -0.144037 4.01547e-19)
(0.00456933 -0.159924 0)
(0.104626 -0.170618 5.80512e-19)
(0.214574 -0.173359 0)
(0.33042 -0.165862 -7.14961e-19)
(0.446428 -0.146798 -7.47229e-19)
(0.555805 -0.116405 9.97267e-21)
(0.651857 -0.0767371 1.46091e-18)
(0.729163 -0.0312836 0)
(0.784377 0.0157828 -1.30521e-18)
(0.81653 0.0604159 0)
(0.826907 0.0992299 1.17799e-18)
(0.818758 0.129669 0)
(0.797066 0.15027 -1.15033e-18)
(0.76748 0.16073 -2.37146e-18)
(0.736184 0.161709 0)
(0.707577 0.155278 0)
(0.687602 0.143842 0)
(0.676437 0.131986 1.39982e-18)
(0.684292 0.121012 0)
(0.69744 0.117367 -3.73725e-21)
(0.750995 0.114778 0)
(0.775474 0.124256 1.41362e-18)
(0.915533 0.127243 1.47714e-18)
(0.952628 0.111088 0)
(0.768682 0.0902767 3.00529e-18)
(0.568218 0.0629136 3.35156e-18)
(0.312671 0.0518414 -7.08161e-21)
(0.132626 0.0240937 0)
(0.00567771 0.0192437 -1.90385e-18)
(-0.0159024 0.00727011 0)
(-0.0376521 0.0107601 1.61328e-18)
(-0.0329747 0.0133035 1.4557e-18)
(-0.0370256 0.0243027 1.32731e-18)
(-0.0407587 0.0363602 1.19891e-18)
(-0.0561139 0.0454871 1.08717e-18)
(-0.0772976 0.0467305 0)
(-0.103521 0.0356302 0)
(-0.127475 0.00800945 8.79098e-19)
(-0.143128 -0.0378024 0)
(-0.14082 -0.0935847 0)
(-0.114358 -0.133909 -8.34836e-19)
(-0.064662 -0.109584 0)
(-0.000960724 -0.00590355 -5.00303e-19)
(-0.00156334 0.112671 0)
(-0.0877772 0.212003 4.53541e-19)
(-0.164335 0.24609 -3.66672e-19)
(-0.199687 0.19712 0)
(-0.239546 0.141408 0)
(-0.276716 0.103253 8.5688e-22)
(-0.305736 0.0725681 -4.38612e-20)
(-0.325886 0.0464093 0)
(-0.336665 0.0222679 6.46094e-21)
(-0.338021 -0.000850151 3.15811e-21)
(-0.329799 -0.023507 -3.91161e-21)
(-0.311775 -0.0458835 0)
(-0.283639 -0.0680258 0)
(-0.245003 -0.0899037 1.27626e-21)
(-0.195372 -0.111472 -1.39063e-21)
(-0.134009 -0.132575 0)
(-0.0599597 -0.152541 0)
(0.0274032 -0.169699 4.8497e-19)
(0.127134 -0.181433 0)
(0.236702 -0.184809 0)
(0.352078 -0.177377 0)
(0.467441 -0.157678 0)
(0.575907 -0.125941 1.50843e-18)
(0.670734 -0.0843462 1.45465e-18)
(0.746506 -0.0366081 0)
(0.79994 0.0128345 0)
(0.830158 0.059686 1.22475e-18)
(0.838551 0.100357 0)
(0.828484 0.132142 0)
(0.805071 0.15351 -1.13257e-18)
(0.774092 0.164179 1.17301e-18)
(0.741833 0.164912 0)
(0.712697 0.157898 0)
(0.692513 0.145668 0)
(0.681281 0.132841 -1.37904e-18)
(0.689048 0.120886 1.40389e-18)
(0.702106 0.116145 -5.17522e-18)
(0.755341 0.112703 0)
(0.779863 0.121091 -1.39293e-18)
(0.91852 0.123219 -1.45082e-18)
(0.955203 0.118016 0)
(0.790555 0.0962287 -2.98907e-18)
(0.607896 0.0706573 0)
(0.364995 0.0580513 -5.3826e-18)
(0.17353 0.0296659 0)
(0.0310939 0.0215363 -1.86933e-18)
(-0.00692658 0.00827221 0)
(-0.0336602 0.010915 -1.62237e-18)
(-0.0299645 0.01299 -1.45672e-18)
(-0.0331247 0.0241008 -1.32151e-18)
(-0.0350356 0.0365531 -1.19101e-18)
(-0.0487011 0.0463528 -1.07904e-18)
(-0.0686825 0.0481469 0)
(-0.0947013 0.0373271 0)
(-0.120002 0.00951685 0)
(-0.139293 -0.037135 0)
(-0.14325 -0.0945454 0)