/*--------------------------------*- C++ -*----------------------------------*\
| =========                 |                                                 |
| \\      /  F ield         | OpenFOAM: The Open Source CFD Toolbox           |
|  \\    /   O peration     | Version:  2.4.0                                 |
|   \\  /    A nd           | Web:      www.OpenFOAM.org                      |
|    \\/     M anipulation  |                                                 |
\*---------------------------------------------------------------------------*/
FoamFile
{
    version     2.0;
    format      ascii;
    class       volScalarField;
    location    "700";
    object      k;
}
// * * * * * * * * * * * * * * * * * * * * * * * * * * * * * * * * * * * * * //

dimensions      [0 2 -2 0 0 0 0];

internalField   nonuniform List<scalar> 
48900
(
0.986791
1.36581
1.54017
1.57486
1.52865
1.44109
1.33554
1.22571
1.11941
1.02064
0.930991
0.850879
0.780357
0.718632
0.664808
0.617983
0.577488
0.54255
0.512624
0.487021
0.465282
0.446809
0.431257
0.418089
0.407063
0.3977
0.389879
0.383173
0.377585
0.372712
0.368682
0.365078
0.362218
0.359495
0.357977
0.355731
0.396381
0.420442
0.44034
0.454422
0.463697
0.470094
0.475842
0.482656
0.491558
0.502634
0.515261
0.529141
0.544056
0.558103
0.570545
0.581862
0.592386
0.602389
0.612029
0.62144
0.630671
0.639782
0.648742
0.657514
0.666044
0.674302
0.682234
0.689835
0.697058
0.703931
0.710397
0.716535
0.722246
0.727824
0.732777
0.738736
0.374694
0.371399
0.365595
0.358007
0.349532
0.341032
0.333336
0.327142
0.322914
0.320922
0.321213
0.323726
0.328316
0.334687
0.342509
0.351595
0.361749
0.372872
0.384799
0.397464
0.410704
0.423886
0.436808
0.449515
0.461982
0.474236
0.486232
0.497999
0.509481
0.520711
0.531624
0.542257
0.552528
0.562459
0.571886
0.580764
0.374252
0.371703
0.367672
0.36229
0.355785
0.348443
0.3406
0.332609
0.324798
0.317455
0.310805
0.305012
0.300186
0.296385
0.293618
0.291873
0.29112
0.291325
0.292443
0.294434
0.297245
0.300764
0.304861
0.309463
0.314485
0.319889
0.325613
0.331637
0.337904
0.344399
0.351065
0.357888
0.364795
0.371745
0.378587
0.385152
0.374493
0.372873
0.370465
0.367304
0.363479
0.359065
0.354161
0.348884
0.343357
0.337706
0.332046
0.326485
0.321112
0.316003
0.311217
0.306801
0.302787
0.299198
0.296049
0.293347
0.291089
0.289263
0.28785
0.286829
0.286178
0.285879
0.28591
0.286255
0.286895
0.287813
0.288992
0.290412
0.292054
0.293894
0.29589
0.298036
0.374607
0.373483
0.371879
0.369819
0.367373
0.364574
0.361456
0.358067
0.354457
0.350678
0.346781
0.342819
0.338837
0.334879
0.330983
0.32718
0.323501
0.319966
0.316595
0.313403
0.3104
0.307593
0.304983
0.30257
0.300352
0.298325
0.296485
0.294826
0.293345
0.292034
0.290889
0.289904
0.289069
0.288379
0.287826
0.287426
0.374614
0.373765
0.372594
0.371117
0.369395
0.367448
0.365294
0.362958
0.360466
0.357844
0.355117
0.352312
0.349454
0.346567
0.343672
0.34079
0.337938
0.33513
0.332382
0.329702
0.327102
0.324588
0.322165
0.319837
0.317607
0.315475
0.313442
0.311507
0.30967
0.307929
0.306283
0.304729
0.303266
0.301894
0.300611
0.299434
0.374565
0.373863
0.372948
0.371816
0.370515
0.369059
0.367461
0.365737
0.363902
0.361971
0.359961
0.357886
0.355761
0.3536
0.351417
0.349223
0.34703
0.344847
0.342684
0.340549
0.338448
0.336386
0.334369
0.3324
0.330482
0.328617
0.326807
0.325052
0.323354
0.321712
0.320126
0.318597
0.317123
0.315705
0.314345
0.313057
0.374492
0.373859
0.373095
0.372182
0.371146
0.37
0.368751
0.367409
0.365986
0.364493
0.362938
0.361332
0.359684
0.358004
0.3563
0.354581
0.352853
0.351124
0.3494
0.347685
0.345986
0.344305
0.342648
0.341016
0.339412
0.337839
0.336299
0.334792
0.333319
0.331881
0.330479
0.329113
0.327783
0.326489
0.325233
0.324032
0.374417
0.373801
0.37312
0.372344
0.371484
0.370544
0.369527
0.368442
0.367295
0.366093
0.364844
0.363555
0.362231
0.36088
0.359507
0.358118
0.356718
0.355313
0.353906
0.352502
0.351103
0.349714
0.348337
0.346975
0.345629
0.344302
0.342995
0.341709
0.340446
0.339206
0.33799
0.336798
0.33563
0.334487
0.33337
0.332297
0.374349
0.373723
0.373077
0.372381
0.371633
0.370832
0.369976
0.369069
0.368115
0.367119
0.366086
0.365019
0.363925
0.362808
0.361671
0.36052
0.359358
0.358189
0.357015
0.355841
0.354668
0.353499
0.352337
0.351183
0.35004
0.348908
0.34779
0.346686
0.345597
0.344524
0.343468
0.342429
0.341407
0.340402
0.339417
0.338469
0.374291
0.373642
0.373001
0.372344
0.371663
0.370952
0.370205
0.369423
0.368607
0.367759
0.366882
0.365979
0.365053
0.364108
0.363147
0.362172
0.361187
0.360194
0.359196
0.358196
0.357195
0.356195
0.355199
0.354207
0.353222
0.352245
0.351277
0.350319
0.349372
0.348436
0.347512
0.346601
0.345702
0.344816
0.343945
0.343106
0.374243
0.373569
0.372917
0.37227
0.371622
0.370964
0.370287
0.36959
0.368871
0.36813
0.367367
0.366585
0.365785
0.364969
0.36414
0.363299
0.362449
0.361592
0.36073
0.359864
0.358996
0.358129
0.357262
0.356399
0.35554
0.354686
0.353838
0.352997
0.352165
0.351341
0.350526
0.34972
0.348923
0.348137
0.347363
0.346617
0.374206
0.373507
0.372836
0.372184
0.371545
0.370912
0.370275
0.369631
0.368977
0.36831
0.367629
0.366935
0.366229
0.365511
0.364782
0.364044
0.363299
0.362547
0.36179
0.36103
0.360268
0.359505
0.358742
0.357981
0.357222
0.356468
0.355717
0.354973
0.354234
0.353501
0.352776
0.352057
0.351346
0.350644
0.349951
0.349284
0.37418
0.373462
0.372774
0.37211
0.371467
0.370839
0.370218
0.369599
0.368978
0.368352
0.36772
0.367081
0.366433
0.365778
0.365115
0.364445
0.36377
0.363089
0.362405
0.361717
0.361028
0.360338
0.359648
0.358959
0.358272
0.357587
0.356907
0.35623
0.355559
0.354892
0.354232
0.353577
0.352929
0.352287
0.351656
0.351047
0.374161
0.373428
0.372726
0.37205
0.371399
0.370767
0.37015
0.369542
0.368939
0.368337
0.367735
0.36713
0.366522
0.365909
0.365292
0.36467
0.364045
0.363416
0.362784
0.36215
0.361515
0.360879
0.360243
0.359609
0.358975
0.358345
0.357717
0.357093
0.356473
0.355858
0.355247
0.354642
0.354042
0.353449
0.352864
0.352301
0.374145
0.373399
0.372682
0.371994
0.371332
0.370693
0.370073
0.369467
0.368872
0.368284
0.367701
0.36712
0.36654
0.365959
0.365378
0.364794
0.364209
0.363623
0.363035
0.362446
0.361857
0.361267
0.360678
0.360091
0.359505
0.358921
0.35834
0.357762
0.357188
0.356619
0.356053
0.355492
0.354937
0.354387
0.353846
0.353324
0.374131
0.373374
0.372645
0.371943
0.371269
0.37062
0.369992
0.369383
0.368788
0.368206
0.367632
0.367065
0.366503
0.365945
0.365388
0.364833
0.364279
0.363726
0.363173
0.36262
0.362069
0.361518
0.360969
0.360421
0.359875
0.359332
0.358792
0.358255
0.357721
0.357192
0.356666
0.356145
0.355629
0.355119
0.354616
0.354132
0.374119
0.373352
0.372612
0.371899
0.371213
0.370552
0.369915
0.369297
0.368698
0.368114
0.367542
0.366981
0.366428
0.365882
0.365342
0.364805
0.364273
0.363744
0.363217
0.362692
0.36217
0.36165
0.361133
0.360618
0.360106
0.359596
0.35909
0.358588
0.358089
0.357594
0.357104
0.356618
0.356137
0.355661
0.355193
0.354742
0.374109
0.373333
0.372584
0.371861
0.371164
0.370492
0.369843
0.369216
0.368608
0.368018
0.367443
0.36688
0.36633
0.365789
0.365256
0.36473
0.364211
0.363697
0.363188
0.362683
0.362182
0.361685
0.361192
0.360702
0.360216
0.359734
0.359256
0.358782
0.358312
0.357847
0.357385
0.356929
0.356478
0.356032
0.355594
0.355173
0.374101
0.373318
0.37256
0.371828
0.371121
0.370439
0.369779
0.369142
0.368524
0.367925
0.367343
0.366776
0.366222
0.36568
0.365148
0.364626
0.364113
0.363607
0.363108
0.362615
0.362128
0.361646
0.361169
0.360698
0.360231
0.35977
0.359313
0.35886
0.358413
0.357971
0.357533
0.357101
0.356675
0.356254
0.355841
0.355444
0.374093
0.373304
0.37254
0.3718
0.371085
0.370393
0.369724
0.369076
0.368449
0.36784
0.367249
0.366674
0.366114
0.365567
0.365032
0.364509
0.363996
0.363492
0.362996
0.362509
0.362029
0.361556
0.361089
0.360629
0.360175
0.359727
0.359285
0.358849
0.358418
0.357993
0.357574
0.35716
0.356753
0.356352
0.355958
0.355581
0.374087
0.373293
0.372523
0.371776
0.371054
0.370354
0.369676
0.36902
0.368383
0.367765
0.367165
0.366582
0.366014
0.36546
0.364919
0.364391
0.363874
0.363368
0.362872
0.362385
0.361907
0.361437
0.360975
0.360521
0.360074
0.359634
0.3592
0.358774
0.358354
0.357941
0.357534
0.357134
0.35674
0.356353
0.355975
0.355612
0.374082
0.373284
0.372508
0.371756
0.371027
0.370321
0.369636
0.368971
0.368326
0.3677
0.367092
0.3665
0.365924
0.365362
0.364815
0.36428
0.363758
0.363247
0.362747
0.362257
0.361778
0.361307
0.360846
0.360393
0.359948
0.359511
0.359083
0.358661
0.358247
0.357841
0.357442
0.35705
0.356665
0.356287
0.355919
0.355566
0.374078
0.373276
0.372496
0.37174
0.371005
0.370293
0.369601
0.36893
0.368279
0.367645
0.367029
0.36643
0.365846
0.365277
0.364723
0.364181
0.363653
0.363136
0.362631
0.362137
0.361653
0.36118
0.360716
0.360262
0.359816
0.35938
0.358952
0.358532
0.358121
0.357717
0.357321
0.356933
0.356553
0.356181
0.355819
0.355472
0.374074
0.373269
0.372486
0.371725
0.370987
0.370269
0.369573
0.368896
0.368238
0.367598
0.366976
0.36637
0.36578
0.365205
0.364644
0.364096
0.363561
0.363039
0.362529
0.362029
0.361541
0.361064
0.360597
0.360139
0.359691
0.359253
0.358823
0.358403
0.357991
0.357588
0.357193
0.356806
0.356427
0.356057
0.355697
0.355353
0.374071
0.373263
0.372477
0.371714
0.370971
0.37025
0.369548
0.368867
0.368204
0.367559
0.366932
0.36632
0.365724
0.365144
0.364577
0.364024
0.363484
0.362956
0.362441
0.361937
0.361444
0.360962
0.360491
0.36003
0.359579
0.359138
0.358706
0.358283
0.35787
0.357465
0.357069
0.356682
0.356303
0.355933
0.355572
0.355228
0.374068
0.373259
0.37247
0.371704
0.370958
0.370233
0.369528
0.368843
0.368176
0.367527
0.366894
0.366278
0.365678
0.365092
0.364521
0.363963
0.363419
0.362887
0.362367
0.361859
0.361362
0.360877
0.360402
0.359937
0.359483
0.359039
0.358604
0.358179
0.357763
0.357356
0.356958
0.356569
0.356189
0.355817
0.355456
0.355111
0.374066
0.373255
0.372465
0.371696
0.370947
0.37022
0.369512
0.368823
0.368152
0.3675
0.366864
0.366244
0.36564
0.36505
0.364475
0.363913
0.363365
0.362829
0.362306
0.361794
0.361294
0.360805
0.360327
0.35986
0.359403
0.358955
0.358518
0.358091
0.357672
0.357263
0.356863
0.356472
0.35609
0.355717
0.355353
0.355007
0.374064
0.373252
0.37246
0.371689
0.370939
0.370209
0.369498
0.368807
0.368133
0.367477
0.366838
0.366215
0.365608
0.365015
0.364437
0.363872
0.363321
0.362782
0.362256
0.361741
0.361238
0.360747
0.360266
0.359796
0.359337
0.358887
0.358448
0.358018
0.357597
0.357186
0.356784
0.356391
0.356007
0.355632
0.355267
0.354918
0.374063
0.373249
0.372456
0.371684
0.370932
0.3702
0.369487
0.368793
0.368118
0.367459
0.366818
0.366192
0.365582
0.364987
0.364406
0.363839
0.363285
0.362744
0.362215
0.361698
0.361193
0.3607
0.360217
0.359745
0.359283
0.358832
0.35839
0.357959
0.357537
0.357124
0.35672
0.356325
0.355939
0.355562
0.355195
0.354844
0.374062
0.373247
0.372453
0.37168
0.370926
0.370193
0.369479
0.368783
0.368105
0.367445
0.366802
0.366174
0.365562
0.364965
0.364382
0.363813
0.363257
0.362714
0.362183
0.361664
0.361158
0.360662
0.360178
0.359704
0.359241
0.358788
0.358345
0.357912
0.357488
0.357074
0.356669
0.356272
0.355885
0.355506
0.355137
0.354785
0.374061
0.373246
0.372451
0.371677
0.370922
0.370188
0.369472
0.368775
0.368096
0.367434
0.366789
0.36616
0.365547
0.364948
0.364363
0.363792
0.363235
0.362691
0.362158
0.361638
0.36113
0.360633
0.360148
0.359673
0.359208
0.358754
0.35831
0.357876
0.357451
0.357035
0.356629
0.356231
0.355842
0.355462
0.355092
0.354738
0.37406
0.373245
0.37245
0.371675
0.37092
0.370184
0.369468
0.36877
0.36809
0.367427
0.366781
0.366151
0.365536
0.364936
0.36435
0.363778
0.36322
0.362674
0.362141
0.36162
0.361111
0.360613
0.360126
0.35965
0.359185
0.35873
0.358285
0.35785
0.357424
0.357007
0.3566
0.356201
0.355811
0.35543
0.355059
0.354704
0.37406
0.373244
0.372449
0.371674
0.370918
0.370183
0.369466
0.368767
0.368087
0.367423
0.366776
0.366146
0.36553
0.364929
0.364343
0.363771
0.363211
0.362665
0.362131
0.36161
0.3611
0.360601
0.360114
0.359638
0.359172
0.358716
0.35827
0.357835
0.357408
0.356991
0.356583
0.356184
0.355793
0.355411
0.355039
0.354683
0.37406
0.373244
0.372449
0.371674
0.370918
0.370183
0.369466
0.368767
0.368086
0.367423
0.366776
0.366145
0.365529
0.364928
0.364342
0.363769
0.36321
0.362663
0.362129
0.361607
0.361097
0.360599
0.360111
0.359634
0.359168
0.358712
0.358266
0.35783
0.357403
0.356986
0.356578
0.356178
0.355787
0.355405
0.355032
0.354676
0.37406
0.373245
0.37245
0.371675
0.37092
0.370184
0.369467
0.368769
0.368089
0.367425
0.366779
0.366148
0.365532
0.364932
0.364345
0.363773
0.363213
0.362667
0.362133
0.361612
0.361102
0.360603
0.360116
0.359639
0.359173
0.358717
0.358272
0.357835
0.357409
0.356991
0.356583
0.356183
0.355792
0.35541
0.355037
0.354681
0.374061
0.373246
0.372451
0.371677
0.370922
0.370187
0.369471
0.368773
0.368093
0.367431
0.366784
0.366154
0.365539
0.364939
0.364353
0.363781
0.363222
0.362677
0.362143
0.361622
0.361113
0.360615
0.360128
0.359652
0.359186
0.358731
0.358285
0.357849
0.357423
0.357006
0.356598
0.356198
0.355808
0.355426
0.355053
0.354697
0.374062
0.373247
0.372453
0.371679
0.370925
0.370191
0.369476
0.368779
0.3681
0.367439
0.366793
0.366164
0.36555
0.364951
0.364366
0.363794
0.363236
0.362691
0.362159
0.361639
0.36113
0.360633
0.360147
0.359671
0.359206
0.358752
0.358307
0.357872
0.357446
0.35703
0.356622
0.356223
0.355833
0.355452
0.35508
0.354725
0.374063
0.373249
0.372456
0.371683
0.37093
0.370197
0.369483
0.368788
0.36811
0.367449
0.366805
0.366177
0.365564
0.364966
0.364383
0.363813
0.363256
0.362712
0.362181
0.361662
0.361154
0.360658
0.360173
0.359699
0.359235
0.358781
0.358337
0.357903
0.357479
0.357063
0.356656
0.356258
0.355869
0.355488
0.355117
0.354762
0.374064
0.373251
0.372459
0.371688
0.370936
0.370205
0.369492
0.368798
0.368122
0.367463
0.366821
0.366194
0.365583
0.364987
0.364405
0.363836
0.363281
0.362739
0.362209
0.361692
0.361186
0.360691
0.360207
0.359734
0.359272
0.358819
0.358377
0.357943
0.35752
0.357105
0.356699
0.356301
0.355913
0.355532
0.355162
0.354807
0.374066
0.373254
0.372463
0.371693
0.370944
0.370214
0.369504
0.368812
0.368138
0.367481
0.366841
0.366216
0.365607
0.365013
0.364433
0.363867
0.363314
0.362773
0.362245
0.361729
0.361225
0.360732
0.360249
0.359778
0.359316
0.358865
0.358423
0.35799
0.357567
0.357152
0.356747
0.356349
0.35596
0.355579
0.355208
0.354853
0.374068
0.373258
0.372469
0.371701
0.370954
0.370226
0.369518
0.368829
0.368158
0.367503
0.366866
0.366244
0.365637
0.365046
0.364468
0.363904
0.363353
0.362814
0.362288
0.361774
0.361271
0.360778
0.360297
0.359826
0.359364
0.358913
0.35847
0.358037
0.357613
0.357197
0.35679
0.356391
0.355999
0.355616
0.355242
0.354884
0.37407
0.373262
0.372476
0.371711
0.370966
0.370242
0.369537
0.368851
0.368182
0.367531
0.366897
0.366278
0.365674
0.365085
0.364509
0.363947
0.363398
0.362861
0.362335
0.361821
0.361318
0.360825
0.360342
0.359869
0.359406
0.358952
0.358506
0.358069
0.357641
0.35722
0.356808
0.356403
0.356006
0.355617
0.355237
0.354872
0.374074
0.373268
0.372485
0.371723
0.370982
0.370261
0.36956
0.368877
0.368213
0.367565
0.366934
0.366318
0.365717
0.365129
0.364555
0.363993
0.363443
0.362905
0.362378
0.361861
0.361354
0.360856
0.360368
0.359889
0.359419
0.358957
0.358503
0.358057
0.357619
0.357188
0.356765
0.356349
0.355941
0.355539
0.355146
0.354769
0.374078
0.373276
0.372497
0.371739
0.371002
0.370286
0.369589
0.368911
0.36825
0.367605
0.366976
0.366362
0.36576
0.365172
0.364595
0.36403
0.363475
0.362931
0.362396
0.36187
0.361353
0.360844
0.360343
0.35985
0.359365
0.358887
0.358417
0.357954
0.357498
0.357049
0.356606
0.356171
0.355742
0.35532
0.354906
0.354508
0.374083
0.373286
0.372512
0.371759
0.371027
0.370316
0.369624
0.368949
0.368291
0.367647
0.367017
0.366399
0.365793
0.365198
0.364612
0.364035
0.363467
0.362906
0.362354
0.361809
0.361271
0.36074
0.360215
0.359698
0.359186
0.358682
0.358184
0.357692
0.357207
0.356728
0.356255
0.355789
0.355329
0.354876
0.354432
0.354003
0.374091
0.3733
0.372531
0.371785
0.371059
0.370352
0.369663
0.368989
0.368328
0.367679
0.36704
0.366411
0.365789
0.365175
0.364568
0.363966
0.363371
0.362781
0.362197
0.361618
0.361044
0.360476
0.359913
0.359355
0.358803
0.358257
0.357717
0.357182
0.356654
0.356132
0.355616
0.355106
0.354603
0.354106
0.353619
0.353148
0.374101
0.373317
0.372557
0.371817
0.371095
0.37039
0.369698
0.369017
0.368344
0.367677
0.367016
0.366359
0.365705
0.365055
0.364407
0.363762
0.363121
0.362482
0.361846
0.361213
0.360585
0.35996
0.35934
0.358724
0.358113
0.357508
0.356908
0.356314
0.355726
0.355144
0.354569
0.354
0.353439
0.352885
0.35234
0.351813
0.374114
0.37334
0.372588
0.371853
0.371131
0.370418
0.369711
0.369007
0.368303
0.367598
0.366892
0.366184
0.365474
0.364762
0.36405
0.363336
0.362622
0.361909
0.361197
0.360487
0.35978
0.359075
0.358374
0.357677
0.356986
0.356299
0.355619
0.354944
0.354276
0.353616
0.352962
0.352316
0.351678
0.351048
0.350429
0.34983
0.374132
0.37337
0.372624
0.371885
0.371149
0.37041
0.369666
0.368912
0.368149
0.367375
0.366593
0.365801
0.365002
0.364196
0.363385
0.36257
0.361752
0.360932
0.360112
0.359293
0.358475
0.35766
0.356849
0.356042
0.35524
0.354445
0.353656
0.352875
0.352101
0.351336
0.350579
0.349832
0.349094
0.348367
0.347651
0.346959
0.374157
0.373404
0.372655
0.371895
0.371118
0.370321
0.369502
0.36866
0.367796
0.366911
0.366008
0.365089
0.364156
0.363211
0.362257
0.361296
0.360328
0.359358
0.358386
0.357413
0.356442
0.355475
0.354511
0.353553
0.352602
0.351659
0.350724
0.349799
0.348884
0.34798
0.347087
0.346206
0.345338
0.344482
0.343641
0.342827
0.374187
0.373436
0.372661
0.371843
0.370982
0.370077
0.36913
0.368142
0.367118
0.36606
0.364974
0.363863
0.36273
0.36158
0.360415
0.359239
0.358056
0.356867
0.355676
0.354485
0.353297
0.352113
0.350936
0.349767
0.348608
0.34746
0.346325
0.345204
0.344097
0.343006
0.341931
0.340873
0.339832
0.338809
0.337806
0.336834
0.374221
0.373447
0.3726
0.371665
0.37065
0.369561
0.368403
0.367181
0.365902
0.364573
0.363201
0.361791
0.360351
0.358885
0.357398
0.355898
0.354387
0.352871
0.351354
0.34984
0.348333
0.346835
0.34535
0.343881
0.342428
0.340995
0.339584
0.338195
0.33683
0.335489
0.334174
0.332886
0.331624
0.330389
0.329183
0.328017
0.374249
0.3734
0.372402
0.371251
0.369967
0.368563
0.367048
0.365433
0.363729
0.361948
0.360102
0.3582
0.356255
0.354276
0.352272
0.350254
0.348229
0.346205
0.344189
0.342189
0.340209
0.338255
0.336332
0.334442
0.33259
0.330777
0.329006
0.327278
0.325594
0.323956
0.322365
0.320819
0.319321
0.317869
0.316464
0.315115
0.374253
0.373232
0.371944
0.370393
0.368616
0.366632
0.364462
0.362127
0.35965
0.357055
0.354366
0.351604
0.348792
0.34595
0.343098
0.340254
0.337433
0.334651
0.331921
0.329253
0.326658
0.324141
0.32171
0.319369
0.31712
0.314965
0.312905
0.310941
0.309072
0.307298
0.305618
0.30403
0.302533
0.301125
0.299804
0.298573
0.374228
0.37287
0.371003
0.368657
0.365893
0.362755
0.359298
0.355579
0.351662
0.347607
0.343473
0.339315
0.335185
0.331131
0.327192
0.323407
0.319804
0.316408
0.31324
0.310313
0.307638
0.305217
0.303047
0.301124
0.29944
0.297986
0.296754
0.295733
0.294916
0.294292
0.293852
0.293588
0.29349
0.293552
0.293764
0.294118
0.374473
0.37278
0.370055
0.366488
0.362243
0.357475
0.352361
0.34709
0.341835
0.336751
0.331974
0.327618
0.323774
0.320516
0.317898
0.315963
0.314736
0.314225
0.314424
0.315313
0.31686
0.318972
0.321561
0.32455
0.327888
0.33152
0.335411
0.339521
0.343827
0.348295
0.352914
0.357653
0.362506
0.367448
0.372478
0.377559
0.382388
0.390181
0.397689
0.404734
0.410916
0.416021
0.420229
0.423889
0.427338
0.430893
0.43483
0.439373
0.444704
0.450956
0.458236
0.466606
0.476106
0.486714
0.498373
0.510953
0.524305
0.537429
0.549957
0.561917
0.573359
0.5843
0.594786
0.604826
0.614465
0.623703
0.632589
0.641114
0.649326
0.657214
0.664823
0.67213
0.690739
0.950955
1.14316
1.27231
1.35026
1.38978
1.4015
1.39389
1.37329
1.34435
1.31034
1.27356
1.2356
1.19757
1.16019
1.12398
1.08925
1.05621
1.02494
0.995466
0.967746
0.941786
0.917427
0.894619
0.873197
0.853134
0.834276
0.816619
0.800013
0.784473
0.769849
0.756173
0.743292
0.731256
0.719907
0.709318
0.00150108
0.00949712
0.0162335
0.0229794
0.0298452
0.0368646
0.044194
0.0521471
0.0612507
0.0717152
0.0824963
0.0932752
0.103729
0.113305
0.12129
0.128577
0.138292
0.147918
0.157082
0.165606
0.173437
0.180594
0.187137
0.193129
0.198628
0.203595
0.207917
0.211695
0.215017
0.217935
0.220484
0.222695
0.224606
0.226251
0.227656
0.228846
0.229839
0.230653
0.2313
0.231789
0.232129
0.232322
0.232372
0.232278
0.232039
0.231651
0.231107
0.230402
0.229526
0.228555
0.227488
0.226287
0.224918
0.223345
0.221534
0.21945
0.217057
0.214315
0.211184
0.20762
0.203572
0.198986
0.193803
0.187953
0.181361
0.17394
0.165592
0.156207
0.145661
0.133814
0.120514
0.105606
0.0889615
0.0705307
0.0504684
0.0304387
0.0137693
0.0046904
0.0031117
0.00268092
0.00221058
0.00176862
0.00188425
0.00310071
0.00533541
0.00842292
0.0120925
0.0160888
0.0202829
0.0247224
0.0296805
0.0358239
0.0428374
0.0505164
0.0583058
0.0655813
0.071018
0.0749823
0.0756155
0.0731987
0.0683659
0.0618424
0.0542698
0.0464326
0.0397774
0.0344222
0.0299949
0.0264835
0.0240508
0.0233668
0.0253691
0.0302215
0.0361878
0.039844
0.0404734
0.0433246
0.0973247
0.164463
0.22351
0.273976
0.317623
0.356145
0.390682
0.422086
0.451002
0.477928
0.50326
0.527302
0.550345
0.572624
0.594342
0.615584
0.635869
0.655267
0.673847
0.691665
0.708771
0.725209
0.741015
0.756223
0.770861
0.784954
0.798526
0.811595
0.82418
0.836296
0.847957
0.859174
0.86996
0.880324
0.890274
0.89982
0.908967
0.917723
0.926094
0.934086
0.941704
0.948952
0.955836
0.962361
0.96853
0.97435
0.979823
0.984955
0.98975
0.994214
0.99835
1.00216
1.00566
1.00885
1.01173
1.01431
1.01659
1.01858
1.02029
1.02173
1.02289
1.02379
1.02443
1.02482
1.02496
1.02487
1.02453
1.02393
1.02307
1.02196
1.0206
1.019
1.01717
1.01511
1.01282
1.0103
1.00757
1.00461
1.00145
0.998074
0.994493
0.990709
0.986725
0.982544
0.978169
0.973601
0.968844
0.9639
0.95877
0.953456
0.947961
0.942286
0.936431
0.930398
0.924187
0.917799
0.911233
0.904489
0.897566
0.890463
0.883178
0.875712
0.868062
0.860227
0.852206
0.843997
0.835599
0.827008
0.818221
0.809236
0.800048
0.790655
0.781055
0.771246
0.761233
0.751018
0.74061
0.730018
0.71925
0.708318
0.697234
0.686028
0.674744
0.663438
0.652199
0.64043
0.628114
0.615348
0.602145
0.588574
0.574663
0.560426
0.545887
0.531078
0.516033
0.500814
0.485544
0.470476
0.456042
0.445065
0.445403
0.448389
0.450908
0.453067
0.455008
0.456621
0.457888
0.458881
0.459677
0.460334
0.460879
0.461313
0.461702
0.461943
0.462091
0.462183
0.462241
0.462288
0.462333
0.462372
0.462404
0.462426
0.462436
0.46243
0.462404
0.462355
0.462278
0.462166
0.462013
0.46181
0.461546
0.461213
0.4608
0.460294
0.459687
0.458966
0.458119
0.457138
0.45601
0.454724
0.453271
0.451637
0.449865
0.447962
0.445884
0.443599
0.441084
0.438319
0.435291
0.431988
0.428402
0.424528
0.420362
0.415905
0.411159
0.406127
0.400812
0.395222
0.389364
0.383247
0.37688
0.370275
0.363445
0.356403
0.349164
0.341745
0.334162
0.326434
0.31858
0.310619
0.302575
0.294467
0.286318
0.278152
0.269991
0.261861
0.253783
0.245781
0.237879
0.230099
0.222462
0.214987
0.207695
0.20059
0.193667
0.186929
0.180383
0.174035
0.167887
0.161941
0.156197
0.150644
0.145279
0.140076
0.135023
0.130075
0.125212
0.120338
0.115471
0.110281
0.105174
0.098823
0.093509
0.0834654
0.00304901
0.0084438
0.0174614
0.0278095
0.0406964
0.0567871
0.076427
0.0993517
0.124475
0.151045
0.179888
0.210104
0.241123
0.270337
0.295022
0.316516
0.335216
0.351192
0.364689
0.376001
0.385364
0.392972
0.399
0.403596
0.406864
0.408778
0.409361
0.408889
0.407536
0.405367
0.402483
0.398986
0.394977
0.390545
0.385765
0.3807
0.375403
0.369916
0.364276
0.358512
0.352649
0.346708
0.340708
0.334661
0.32858
0.322475
0.316352
0.310217
0.304065
0.29783
0.291617
0.285408
0.279192
0.272956
0.26669
0.260383
0.254026
0.247608
0.241116
0.234538
0.227859
0.221062
0.214128
0.207031
0.199742
0.192221
0.184416
0.176265
0.167691
0.158592
0.148821
0.138207
0.126568
0.113815
0.100288
0.086542
0.073566
0.0621917
0.051963
0.0423368
0.0332004
0.0218686
0.00995564
0.00635048
0.00680085
0.00997568
0.0154656
0.0231586
0.0331093
0.0451778
0.0588238
0.0736341
0.0933308
0.118618
0.146893
0.17573
0.195075
0.205673
0.207881
0.20286
0.192397
0.178457
0.162707
0.146666
0.132119
0.119171
0.109279
0.104614
0.107255
0.124221
0.162302
0.222549
0.295817
0.338857
0.356315
0.372266
0.398492
0.430473
0.460593
0.487082
0.511544
0.533904
0.554671
0.574256
0.592956
0.610967
0.628416
0.645378
0.661903
0.67802
0.693742
0.709075
0.724019
0.738597
0.752825
0.766719
0.780293
0.793561
0.806536
0.81923
0.831654
0.843818
0.855732
0.867405
0.878843
0.890056
0.90105
0.91183
0.922402
0.932773
0.942947
0.952929
0.962724
0.972337
0.981771
0.991031
1.00012
1.00904
1.0178
1.0264
1.03484
1.04313
1.05127
1.05926
1.06712
1.07483
1.08242
1.08988
1.09722
1.10445
1.11157
1.11859
1.12552
1.13238
1.13916
1.14587
1.15255
1.1592
1.16583
1.17248
1.17897
1.18533
1.19159
1.19778
1.20389
1.20992
1.21589
1.22179
1.22763
1.23342
1.23915
1.24484
1.25048
1.25608
1.26164
1.26716
1.27266
1.27812
1.28356
1.28898
1.29437
1.29973
1.30508
1.3104
1.3157
1.32098
1.32624
1.33146
1.33666
1.34182
1.34694
1.35202
1.35704
1.36199
1.36688
1.37168
1.37638
1.38098
1.38546
1.38981
1.39401
1.39803
1.40188
1.40551
1.40892
1.41205
1.4149
1.41741
1.41957
1.42133
1.42266
1.42355
1.42397
1.42393
1.42339
1.42232
1.42068
1.41846
1.41565
1.41224
1.40827
1.40375
1.39852
1.39239
1.38534
1.37747
1.36884
1.35945
1.34931
1.33843
1.32682
1.31449
1.30141
1.28762
1.27301
1.25942
1.24642
1.23278
1.21819
1.20276
1.18661
1.16961
1.15197
1.13391
1.11561
1.0972
1.07875
1.06034
1.04203
1.02398
1.00611
0.988344
0.970717
0.953262
0.935995
0.918919
0.90205
0.885405
0.869001
0.85285
0.836969
0.821369
0.80606
0.791053
0.776353
0.761962
0.747882
0.734114
0.720654
0.707503
0.694659
0.682119
0.669883
0.657949
0.646314
0.63498
0.62394
0.61319
0.602613
0.592112
0.581789
0.571652
0.561693
0.551897
0.542265
0.532795
0.523487
0.514342
0.505364
0.496555
0.487918
0.479457
0.471177
0.46308
0.45517
0.447451
0.439926
0.432599
0.425473
0.418549
0.411831
0.405319
0.399017
0.392926
0.387046
0.381378
0.375923
0.37068
0.365649
0.36083
0.356221
0.35182
0.347626
0.343636
0.339845
0.336251
0.332847
0.329632
0.326595
0.323665
0.320718
0.317777
0.31486
0.31198
0.309147
0.306369
0.303645
0.300977
0.298351
0.295761
0.293178
0.290588
0.287933
0.285188
0.282242
0.279095
0.275554
0.271439
0.266855
0.25951
0.00350547
0.00492983
0.0128708
0.021951
0.033023
0.0472533
0.0662485
0.0921086
0.126461
0.163394
0.201034
0.236899
0.269194
0.298147
0.323446
0.34536
0.364298
0.380657
0.394788
0.406962
0.417386
0.42623
0.433641
0.439742
0.444637
0.448408
0.451132
0.45285
0.45356
0.453149
0.451795
0.44965
0.446845
0.443485
0.439654
0.435419
0.430841
0.42597
0.420851
0.41552
0.41001
0.404352
0.398571
0.392689
0.386726
0.380701
0.374627
0.368517
0.362378
0.356194
0.349928
0.343604
0.337223
0.330783
0.324278
0.317699
0.311031
0.304257
0.297354
0.290296
0.283052
0.275584
0.267849
0.259802
0.251392
0.242569
0.233281
0.223481
0.213132
0.202212
0.190709
0.178605
0.165882
0.152556
0.138833
0.12522
0.112391
0.101126
0.0918318
0.0845872
0.0787495
0.0716054
0.0590958
0.0419362
0.0254052
0.0157776
0.0150133
0.0199593
0.0274633
0.0362746
0.0462411
0.0606048
0.0854002
0.120194
0.159171
0.1973
0.228783
0.250509
0.261669
0.263156
0.257077
0.246311
0.234043
0.224297
0.218378
0.219003
0.230731
0.260976
0.313303
0.401357
0.465844
0.485711
0.49054
0.494514
0.504124
0.522243
0.547738
0.579087
0.612407
0.645752
0.678342
0.710007
0.740772
0.770683
0.799775
0.82806
0.855538
0.882208
0.908069
0.93313
0.957403
0.980913
1.00368
1.02575
1.04713
1.06787
1.088
1.10754
1.12652
1.14497
1.16292
1.18038
1.19738
1.21395
1.23009
1.24583
1.26119
1.27618
1.29082
1.30513
1.31911
1.33279
1.34617
1.35927
1.37208
1.38463
1.39692
1.40896
1.42076
1.43232
1.44366
1.45477
1.46567
1.47636
1.48685
1.49715
1.50726
1.51718
1.52693
1.53651
1.54593
1.5552
1.56432
1.57331
1.58216
1.5909
1.59952
1.60804
1.61643
1.62451
1.63243
1.64021
1.64785
1.65537
1.66275
1.67002
1.67716
1.68418
1.6911
1.6979
1.7046
1.71121
1.71772
1.72413
1.73046
1.73671
1.74287
1.74895
1.75495
1.76088
1.76674
1.77253
1.77825
1.78391
1.7895
1.79503
1.80049
1.80589
1.81121
1.81646
1.82163
1.8267
1.83167
1.83654
1.84128
1.84589
1.85035
1.85466
1.85879
1.86274
1.86649
1.87003
1.87335
1.87643
1.87924
1.88174
1.8839
1.88567
1.887
1.88786
1.88818
1.88793
1.8871
1.88574
1.88385
1.88137
1.87825
1.87445
1.86991
1.86458
1.85842
1.85137
1.84339
1.83438
1.82417
1.81295
1.80086
1.78789
1.77402
1.75926
1.74358
1.72691
1.70907
1.68971
1.67002
1.64998
1.62979
1.60924
1.58808
1.56624
1.54369
1.52014
1.49602
1.47157
1.44694
1.42222
1.39749
1.37279
1.34814
1.32345
1.29878
1.27421
1.24983
1.2257
1.20181
1.17817
1.15481
1.13177
1.10905
1.08667
1.06464
1.04299
1.02172
1.00083
0.980345
0.960255
0.94056
0.921258
0.902346
0.883821
0.865678
0.847916
0.830529
0.813517
0.796874
0.780597
0.764686
0.749132
0.733924
0.719039
0.704343
0.689924
0.675798
0.661937
0.648336
0.634986
0.621875
0.609002
0.596364
0.583959
0.571788
0.55985
0.548149
0.536686
0.525464
0.514487
0.503759
0.493285
0.48307
0.473118
0.463437
0.454031
0.444905
0.436067
0.427521
0.419272
0.411326
0.403688
0.396362
0.389351
0.382659
0.376289
0.370241
0.364518
0.359118
0.354039
0.349281
0.34484
0.340711
0.336884
0.333336
0.330049
0.327007
0.324197
0.321607
0.319226
0.317043
0.315048
0.313228
0.311574
0.310067
0.308699
0.307451
0.306316
0.305235
0.3043
0.303223
0.302344
0.300994
0.299902
0.00263745
0.0027059
0.00765411
0.0142295
0.0226852
0.0360106
0.0597946
0.0968557
0.140533
0.18506
0.226529
0.262583
0.293362
0.319516
0.341925
0.361352
0.378376
0.393385
0.406637
0.4183
0.428495
0.437314
0.444843
0.451161
0.456347
0.460475
0.463599
0.465749
0.466875
0.467097
0.466526
0.465258
0.463372
0.460939
0.458023
0.454683
0.45097
0.446933
0.442617
0.438063
0.433305
0.428377
0.423306
0.418119
0.412839
0.407485
0.402076
0.396626
0.391147
0.385636
0.380053
0.374406
0.368699
0.362934
0.35711
0.351219
0.345251