/*--------------------------------*- C++ -*----------------------------------*\
| =========                 |                                                 |
| \\      /  F ield         | OpenFOAM: The Open Source CFD Toolbox           |
|  \\    /   O peration     | Version:  2.4.0                                 |
|   \\  /    A nd           | Web:      www.OpenFOAM.org                      |
|    \\/     M anipulation  |                                                 |
\*---------------------------------------------------------------------------*/
FoamFile
{
    version     2.0;
    format      ascii;
    class       volVectorField;
    location    "1.41";
    object      U;
}
// * * * * * * * * * * * * * * * * * * * * * * * * * * * * * * * * * * * * * //

dimensions      [0 1 -1 0 0 0 0];

internalField   nonuniform List<vector> 
6000
(
(0.990441 -0.000273757 0)
(0.970231 0.0020497 0)
(0.948316 0.00334879 0)
(0.925587 0.00413663 0)
(0.903364 0.00452023 0)
(0.882322 0.00453154 0)
(0.862685 0.00428822 0)
(0.844553 0.00390126 0)
(0.82799 0.00344516 0)
(0.812998 0.00296863 0)
(0.79952 0.00250387 0)
(0.78746 0.00207086 0)
(0.7767 0.00168054 0)
(0.767117 0.00133769 0)
(0.758585 0.00104306 0)
(0.750981 0.00079488 0)
(0.744191 0.000589976 0)
(0.738106 0.000424415 0)
(0.732629 0.000293968 0)
(0.727671 0.000194365 0)
(0.723153 0.000121442 0)
(0.719006 7.12109e-05 0)
(0.715169 3.99056e-05 0)
(0.71159 2.40339e-05 0)
(0.708224 2.03981e-05 0)
(0.705034 2.61556e-05 0)
(0.701988 3.88087e-05 0)
(0.699061 5.61878e-05 0)
(0.696231 7.64563e-05 0)
(0.693481 9.81318e-05 0)
(0.690797 0.000120094 0)
(0.688166 0.000141572 0)
(0.685577 0.000162129 0)
(0.683019 0.000181631 0)
(0.68048 0.000200224 0)
(0.677948 0.000218317 0)
(0.675405 0.000236568 0)
(0.672834 0.000255886 0)
(0.670208 0.000277441 0)
(0.667496 0.000302697 0)
(0.664657 0.000333457 0)
(0.661642 0.000371936 0)
(0.658384 0.000420866 0)
(0.6548 0.000483636 0)
(0.650784 0.000564496 0)
(0.646199 0.000668821 0)
(0.640872 0.00080347 0)
(0.63458 0.00097727 0)
(0.627037 0.00120167 0)
(0.617874 0.00149164 0)
(0.606615 0.00186685 0)
(0.592638 0.00235348 0)
(0.575154 0.00298555 0)
(0.553074 0.00380975 0)
(0.525188 0.00487586 0)
(0.489294 0.00627181 0)
(0.444925 0.00794418 0)
(0.38418 0.0101768 0)
(0.324554 0.0121522 0)
(0.186684 0.0111537 0)
(1.00417 0.00480515 0)
(1.01373 0.00718215 0)
(1.0207 0.00682435 0)
(1.02486 0.00641226 0)
(1.02687 0.00609189 0)
(1.02702 0.00572672 0)
(1.02543 0.0053509 0)
(1.02232 0.00499901 0)
(1.01792 0.00467253 0)
(1.01248 0.00436642 0)
(1.00623 0.00407884 0)
(0.999349 0.0038094 0)
(0.992003 0.00355768 0)
(0.984333 0.00332308 0)
(0.976458 0.00310483 0)
(0.968478 0.00290209 0)
(0.960477 0.00271393 0)
(0.952526 0.00253941 0)
(0.944682 0.00237758 0)
(0.936995 0.00222759 0)
(0.929502 0.00208863 0)
(0.922237 0.00196 0)
(0.915221 0.00184104 0)
(0.908473 0.00173119 0)
(0.902003 0.00162993 0)
(0.895815 0.00153673 0)
(0.889909 0.00145123 0)
(0.884279 0.00137325 0)
(0.878915 0.00130267 0)
(0.873806 0.0012394 0)
(0.868936 0.00118341 0)
(0.864288 0.00113468 0)
(0.859845 0.00109328 0)
(0.855586 0.00105934 0)
(0.851492 0.00103313 0)
(0.84754 0.00101512 0)
(0.843709 0.001006 0)
(0.839975 0.00100684 0)
(0.836312 0.00101913 0)
(0.83269 0.00104496 0)
(0.829075 0.00108712 0)
(0.82543 0.00114934 0)
(0.821705 0.00123651 0)
(0.817843 0.00135503 0)
(0.813772 0.00151322 0)
(0.809402 0.00172193 0)
(0.804616 0.00199528 0)
(0.799268 0.00235173 0)
(0.793166 0.00281554 0)
(0.786062 0.00341875 0)
(0.777629 0.00420408 0)
(0.767427 0.00522868 0)
(0.754877 0.00657013 0)
(0.739132 0.00833196 0)
(0.719175 0.010655 0)
(0.692956 0.0137122 0)
(0.659556 0.0177128 0)
(0.610225 0.0227301 0)
(0.558657 0.0298404 0)
(0.427747 0.0303454 0)
(1.00036 0.00116234 0)
(1.00263 0.00202372 0)
(1.00544 0.00239372 0)
(1.00803 0.00304093 0)
(1.01052 0.00370471 0)
(1.013 0.00418587 0)
(1.01529 0.00451 0)
(1.01726 0.00472085 0)
(1.01884 0.00483323 0)
(1.02001 0.0048611 0)
(1.02076 0.00482369 0)
(1.02109 0.00473967 0)
(1.021 0.00462418 0)
(1.02051 0.00448883 0)
(1.01964 0.00434231 0)
(1.01841 0.00419092 0)
(1.01683 0.00403901 0)
(1.01492 0.0038895 0)
(1.0127 0.00374419 0)
(1.01019 0.00360414 0)
(1.00741 0.00346986 0)
(1.00437 0.00334157 0)
(1.00111 0.00321933 0)
(0.997629 0.00310297 0)
(0.993966 0.00299219 0)
(0.990139 0.00288654 0)
(0.986174 0.00278572 0)
(0.982097 0.0026896 0)
(0.977931 0.00259814 0)
(0.9737 0.00251141 0)
(0.969429 0.00242958 0)
(0.965136 0.002353 0)
(0.960839 0.00228217 0)
(0.956555 0.00221782 0)
(0.952293 0.00216094 0)
(0.948061 0.00211284 0)
(0.943861 0.00207524 0)
(0.93969 0.00205033 0)
(0.935539 0.00204095 0)
(0.931393 0.00205067 0)
(0.927229 0.00208408 0)
(0.923014 0.00214701 0)
(0.918708 0.00224693 0)
(0.914254 0.00239337 0)
(0.909583 0.0025986 0)
(0.904604 0.00287843 0)
(0.899202 0.00325332 0)
(0.893233 0.00374995 0)
(0.88651 0.00440329 0)
(0.878799 0.00525951 0)
(0.869801 0.00638019 0)
(0.859128 0.00784795 0)
(0.846299 0.00977608 0)
(0.83065 0.0123164 0)
(0.811461 0.0156899 0)
(0.787274 0.0201543 0)
(0.757856 0.0262123 0)
(0.716509 0.0338234 0)
(0.675266 0.0459197 0)
(0.572648 0.0508821 0)
(1.00025 0.00137449 0)
(1.00159 0.00317762 0)
(1.00312 0.00385962 0)
(1.00435 0.00422169 0)
(1.00551 0.0044898 0)
(1.00681 0.00462059 0)
(1.00821 0.00464384 0)
(1.00962 0.00461185 0)
(1.01101 0.00454652 0)
(1.01236 0.00445806 0)
(1.01365 0.0043568 0)
(1.01486 0.00425151 0)
(1.01598 0.00414779 0)
(1.017 0.00404885 0)
(1.0179 0.00395647 0)
(1.01869 0.0038715 0)
(1.01935 0.00379414 0)
(1.01989 0.00372409 0)
(1.02031 0.00366076 0)
(1.02059 0.00360332 0)
(1.02075 0.00355089 0)
(1.02077 0.00350255 0)
(1.02065 0.00345746 0)
(1.02039 0.00341473 0)
(1.01999 0.00337356 0)
(1.01945 0.00333331 0)
(1.01875 0.00329349 0)
(1.0179 0.00325378 0)
(1.0169 0.00321404 0)
(1.01573 0.00317432 0)
(1.01441 0.00313493 0)
(1.01293 0.00309642 0)
(1.01128 0.00305966 0)
(1.00947 0.00302585 0)
(1.0075 0.00299658 0)
(1.00537 0.00297389 0)
(1.00307 0.00296034 0)
(1.00061 0.00295914 0)
(0.997966 0.00297431 0)
(0.995146 0.00301091 0)
(0.992131 0.00307526 0)
(0.988902 0.0031754 0)
(0.985431 0.00332149 0)
(0.981677 0.00352649 0)
(0.977588 0.00380692 0)
(0.973089 0.00418398 0)
(0.968084 0.00468497 0)
(0.962446 0.00534521 0)
(0.956008 0.00621068 0)
(0.948554 0.00734153 0)
(0.939803 0.00881724 0)
(0.929394 0.0107432 0)
(0.91687 0.0132623 0)
(0.901615 0.016563 0)
(0.882968 0.020922 0)
(0.859677 0.0266435 0)
(0.831643 0.034416 0)
(0.793674 0.0440892 0)
(0.756539 0.0598308 0)
(0.673607 0.0690498 0)
(1.00018 0.00117351 0)
(1.00125 0.00265202 0)
(1.00255 0.00313695 0)
(1.00361 0.00339465 0)
(1.00455 0.00368378 0)
(1.00554 0.00390459 0)
(1.00659 0.00402484 0)
(1.00763 0.00408063 0)
(1.00866 0.00409623 0)
(1.00967 0.00408009 0)
(1.01068 0.00403963 0)
(1.01168 0.00398306 0)
(1.01266 0.00391701 0)
(1.01361 0.0038463 0)
(1.01453 0.00377451 0)
(1.01543 0.00370424 0)
(1.0163 0.0036373 0)
(1.01713 0.00357479 0)
(1.01793 0.00351731 0)
(1.0187 0.00346506 0)
(1.01942 0.00341795 0)
(1.02011 0.00337576 0)
(1.02075 0.00333809 0)
(1.02135 0.00330454 0)
(1.0219 0.00327473 0)
(1.0224 0.00324836 0)
(1.02285 0.00322518 0)
(1.02325 0.00320502 0)
(1.02358 0.00318782 0)
(1.02385 0.00317369 0)
(1.02405 0.00316292 0)
(1.02417 0.00315599 0)
(1.02421 0.00315369 0)
(1.02417 0.0031571 0)
(1.02403 0.00316775 0)
(1.02378 0.00318764 0)
(1.02341 0.00321945 0)
(1.02291 0.00326662 0)
(1.02226 0.00333366 0)
(1.02145 0.00342633 0)
(1.02044 0.00355208 0)
(1.01922 0.00372046 0)
(1.01773 0.0039437 0)
(1.01594 0.0042375 0)
(1.01379 0.00462203 0)
(1.01119 0.00512321 0)
(1.00805 0.00577445 0)
(1.00426 0.00661896 0)
(0.999643 0.00771286 0)
(0.994003 0.00912935 0)
(0.987076 0.0109647 0)
(0.978523 0.0133455 0)
(0.967917 0.0164422 0)
(0.954682 0.0204761 0)
(0.93819 0.025769 0)
(0.917289 0.0326607 0)
(0.891803 0.0419401 0)
(0.85735 0.053369 0)
(0.823018 0.0715934 0)
(0.752652 0.0838555 0)
(1.00014 0.000986939 0)
(1.00102 0.00234199 0)
(1.00218 0.00292823 0)
(1.00322 0.00327081 0)
(1.00413 0.00359505 0)
(1.00506 0.00382755 0)
(1.00603 0.0039415 0)
(1.00699 0.00398007 0)
(1.00792 0.00397617 0)
(1.00883 0.00394142 0)
(1.00972 0.00388359 0)
(1.01059 0.00381146 0)
(1.01145 0.00373254 0)
(1.01229 0.0036521 0)
(1.01311 0.00357368 0)
(1.01392 0.00349967 0)
(1.01471 0.0034315 0)
(1.01549 0.00336991 0)
(1.01626 0.00331508 0)
(1.01701 0.00326685 0)
(1.01776 0.00322483 0)
(1.01849 0.00318851 0)
(1.01921 0.00315731 0)
(1.01991 0.00313069 0)
(1.0206 0.00310819 0)
(1.02127 0.00308941 0)
(1.02193 0.00307405 0)
(1.02257 0.00306194 0)
(1.02318 0.00305309 0)
(1.02377 0.0030477 0)
(1.02434 0.00304619 0)
(1.02487 0.00304928 0)
(1.02538 0.00305798 0)
(1.02584 0.00307372 0)
(1.02626 0.00309838 0)
(1.02662 0.00313447 0)
(1.02693 0.00318521 0)
(1.02717 0.00325476 0)
(1.02732 0.00334847 0)
(1.02737 0.00347315 0)
(1.02731 0.00363754 0)
(1.02709 0.00385277 0)
(1.02671 0.00413312 0)
(1.0261 0.00449685 0)
(1.02523 0.00496741 0)
(1.02402 0.00557496 0)
(1.0224 0.00635834 0)
(1.02025 0.0073678 0)
(1.01745 0.00866855 0)
(1.01381 0.0103456 0)
(1.00912 0.0125103 0)
(1.00307 0.0153091 0)
(0.995289 0.0189377 0)
(0.985277 0.0236493 0)
(0.972465 0.0298074 0)
(0.955803 0.0377926 0)
(0.935045 0.0484682 0)
(0.906302 0.0615604 0)
(0.87692 0.0818103 0)
(0.81777 0.0963839 0)
(1.00011 0.000842191 0)
(1.00084 0.00209722 0)
(1.00189 0.00272308 0)
(1.00289 0.00306789 0)
(1.00378 0.00335926 0)
(1.00468 0.00357136 0)
(1.00563 0.00368004 0)
(1.00656 0.00371977 0)
(1.00748 0.00372117 0)
(1.00836 0.00369494 0)
(1.00923 0.00364717 0)
(1.01007 0.00358548 0)
(1.0109 0.00351678 0)
(1.0117 0.00344593 0)
(1.01248 0.00337612 0)
(1.01324 0.00330956 0)
(1.01399 0.00324765 0)
(1.01473 0.00319118 0)
(1.01546 0.00314046 0)
(1.01617 0.00309551 0)
(1.01688 0.00305611 0)
(1.01758 0.00302192 0)
(1.01827 0.00299253 0)
(1.01896 0.00296758 0)
(1.01964 0.0029467 0)
(1.02031 0.00292963 0)
(1.02097 0.00291618 0)
(1.02163 0.00290631 0)
(1.02227 0.00290012 0)
(1.02291 0.00289795 0)
(1.02353 0.00290033 0)
(1.02413 0.0029081 0)
(1.02472 0.00292244 0)
(1.02528 0.00294495 0)
(1.02582 0.00297776 0)
(1.02632 0.00302363 0)
(1.02678 0.00308615 0)
(1.0272 0.00316995 0)
(1.02755 0.00328095 0)
(1.02783 0.00342674 0)
(1.02802 0.003617 0)
(1.0281 0.00386414 0)
(1.02804 0.00418405 0)
(1.02781 0.00459709 0)
(1.02736 0.00512937 0)
(1.02664 0.00581451 0)
(1.02558 0.00669579 0)
(1.0241 0.00782918 0)
(1.02207 0.00928729 0)
(1.01938 0.0111646 0)
(1.01583 0.013585 0)
(1.01121 0.0167107 0)
(1.00525 0.0207587 0)
(0.997563 0.0260091 0)
(0.987767 0.032863 0)
(0.975057 0.041744 0)
(0.959342 0.0535872 0)
(0.937345 0.0681484 0)
(0.914947 0.0901576 0)
(0.868811 0.106991 0)
(1.00009 0.000728813 0)
(1.00071 0.00188098 0)
(1.00166 0.00251236 0)
(1.00261 0.00285663 0)
(1.00348 0.00313202 0)
(1.00436 0.00334175 0)
(1.00529 0.0034588 0)
(1.00621 0.00350669 0)
(1.00711 0.00351445 0)
(1.00799 0.00349424 0)
(1.00885 0.00345227 0)
(1.00969 0.00339581 0)
(1.0105 0.00333168 0)
(1.01129 0.00326477 0)
(1.01207 0.00319833 0)
(1.01282 0.0031346 0)
(1.01356 0.00307508 0)
(1.01428 0.00302064 0)
(1.01499 0.00297168 0)
(1.01569 0.00292829 0)
(1.01638 0.0028903 0)
(1.01707 0.00285744 0)
(1.01774 0.00282936 0)
(1.01841 0.00280571 0)
(1.01907 0.00278619 0)
(1.01973 0.00277058 0)
(1.02038 0.00275875 0)
(1.02102 0.00275071 0)
(1.02165 0.00274665 0)
(1.02228 0.00274697 0)
(1.0229 0.0027523 0)
(1.0235 0.00276359 0)
(1.02409 0.00278217 0)
(1.02467 0.00280983 0)
(1.02522 0.0028489 0)
(1.02574 0.00290244 0)
(1.02623 0.00297441 0)
(1.02668 0.00306986 0)
(1.02708 0.0031953 0)
(1.02741 0.00335902 0)
(1.02766 0.00357161 0)
(1.02782 0.00384664 0)
(1.02785 0.00420141 0)
(1.02772 0.00465808 0)
(1.02739 0.00524506 0)
(1.02682 0.00599877 0)
(1.02594 0.00696609 0)
(1.02467 0.00820739 0)
(1.02291 0.00980076 0)
(1.02054 0.0118475 0)
(1.01742 0.0144797 0)
(1.01335 0.01787 0)
(1.00813 0.0222479 0)
(1.00148 0.0279086 0)
(0.993155 0.0352745 0)
(0.982643 0.0447954 0)
(0.970124 0.0574505 0)
(0.953251 0.0730719 0)
(0.936933 0.0962801 0)
(0.90416 0.115482 0)
(1.00007 0.000636572 0)
(1.00061 0.00168643 0)
(1.00146 0.00230827 0)
(1.00237 0.00265444 0)
(1.00322 0.00291891 0)
(1.00409 0.00312325 0)
(1.00499 0.00324227 0)
(1.0059 0.00329259 0)
(1.00679 0.00330233 0)
(1.00766 0.00328528 0)
(1.00852 0.00324771 0)
(1.00935 0.00319614 0)
(1.01016 0.003137 0)
(1.01095 0.00307502 0)
(1.01172 0.0030133 0)
(1.01248 0.00295398 0)
(1.01321 0.00289849 0)
(1.01393 0.00284768 0)
(1.01464 0.00280197 0)
(1.01534 0.00276143 0)
(1.01602 0.00272594 0)
(1.0167 0.00269529 0)
(1.01737 0.00266916 0)
(1.01803 0.00264728 0)
(1.01869 0.00262941 0)
(1.01934 0.00261538 0)
(1.01998 0.00260515 0)
(1.02061 0.0025988 0)
(1.02124 0.0025966 0)
(1.02186 0.00259903 0)
(1.02247 0.00260685 0)
(1.02307 0.00262112 0)
(1.02366 0.00264332 0)
(1.02423 0.00267542 0)
(1.02477 0.00271998 0)
(1.0253 0.00278033 0)
(1.02579 0.00286076 0)
(1.02624 0.00296678 0)
(1.02665 0.00310542 0)
(1.027 0.00328566 0)
(1.02727 0.00351897 0)
(1.02745 0.00381999 0)
(1.02751 0.0042074 0)
(1.02742 0.00470509 0)
(1.02715 0.00534361 0)
(1.02664 0.00616207 0)
(1.02584 0.00721066 0)
(1.02467 0.0085538 0)
(1.02304 0.0102745 0)
(1.02084 0.0124797 0)
(1.01792 0.0153084 0)
(1.01413 0.0189399 0)
(1.00926 0.0236112 0)
(1.0031 0.0296236 0)
(0.995451 0.0374033 0)
(0.985962 0.047403 0)
(0.974938 0.060591 0)
(0.960904 0.0768794 0)
(0.94794 0.100554 0)
(0.925647 0.121935 0)
(1.00006 0.000559605 0)
(1.00052 0.00151227 0)
(1.0013 0.00211482 0)
(1.00216 0.00246017 0)
(1.003 0.00271329 0)
(1.00385 0.00290875 0)
(1.00473 0.0030269 0)
(1.00563 0.00307919 0)
(1.00651 0.00309151 0)
(1.00738 0.00307827 0)
(1.00823 0.00304558 0)
(1.00906 0.00299926 0)
(1.00987 0.00294529 0)
(1.01066 0.00288824 0)
(1.01143 0.00283112 0)
(1.01218 0.00277601 0)
(1.01291 0.00272428 0)
(1.01363 0.0026768 0)
(1.01434 0.00263401 0)
(1.01504 0.00259604 0)
(1.01572 0.00256281 0)
(1.0164 0.00253416 0)
(1.01707 0.00250985 0)
(1.01773 0.00248964 0)
(1.01838 0.00247335 0)
(1.01903 0.00246089 0)
(1.01967 0.00245226 0)
(1.0203 0.00244761 0)
(1.02093 0.00244729 0)
(1.02155 0.00245185 0)
(1.02215 0.00246215 0)
(1.02275 0.00247938 0)
(1.02333 0.00250513 0)
(1.0239 0.00254154 0)
(1.02445 0.0025914 0)
(1.02497 0.00265828 0)
(1.02547 0.00274681 0)
(1.02592 0.0028629 0)
(1.02634 0.00301411 0)
(1.02669 0.00321007 0)
(1.02698 0.00346308 0)
(1.02717 0.0037888 0)
(1.02725 0.00420724 0)
(1.02719 0.00474392 0)
(1.02696 0.00543143 0)
(1.0265 0.00631144 0)
(1.02576 0.00743726 0)
(1.02468 0.00887716 0)
(1.02316 0.0107187 0)
(1.02109 0.0130744 0)
(1.01835 0.0160889 0)
(1.01478 0.0199483 0)
(1.0102 0.0248949 0)
(1.00441 0.0312335 0)
(0.997248 0.0393867 0)
(0.988418 0.0498001 0)
(0.978204 0.063386 0)
(0.965713 0.0801331 0)
(0.954088 0.103751 0)
(0.938138 0.12682 0)
(1.00005 0.000494162 0)
(1.00046 0.00135607 0)
(1.00117 0.00193158 0)
(1.00199 0.00227173 0)
(1.00281 0.00251315 0)
(1.00364 0.00269857 0)
(1.00451 0.00281463 0)
(1.00539 0.00286855 0)
(1.00626 0.00288321 0)
(1.00712 0.00287318 0)
(1.00797 0.0028447 0)
(1.00879 0.00280302 0)
(1.0096 0.00275372 0)
(1.01039 0.00270121 0)
(1.01116 0.00264844 0)
(1.01191 0.00259735 0)
(1.01265 0.00254931 0)
(1.01337 0.00250515 0)
(1.01408 0.00246534 0)
(1.01477 0.00243002 0)
(1.01546 0.00239918 0)
(1.01614 0.00237266 0)
(1.01681 0.00235028 0)
(1.01747 0.00233186 0)
(1.01812 0.00231728 0)
(1.01877 0.00230647 0)
(1.01941 0.00229952 0)
(1.02004 0.00229663 0)
(1.02066 0.00229822 0)
(1.02128 0.00230492 0)
(1.02189 0.00231769 0)
(1.02249 0.00233781 0)
(1.02307 0.00236702 0)
(1.02364 0.00240761 0)
(1.02419 0.00246257 0)
(1.02471 0.00253573 0)
(1.02521 0.00263203 0)
(1.02568 0.00275776 0)
(1.0261 0.00292097 0)
(1.02646 0.00313194 0)
(1.02676 0.00340372 0)
(1.02697 0.00375297 0)
(1.02708 0.00420095 0)
(1.02705 0.00477471 0)
(1.02685 0.00550878 0)
(1.02645 0.00644724 0)
(1.02578 0.00764634 0)
(1.02478 0.00917793 0)
(1.02336 0.0111339 0)
(1.02144 0.0136316 0)
(1.01888 0.0168215 0)
(1.01554 0.0208953 0)
(1.01125 0.0261001 0)
(1.00584 0.0327437 0)
(0.999143 0.0412432 0)
(0.990928 0.0520373 0)
(0.981405 0.0659643 0)
(0.970029 0.083093 0)
(0.959099 0.106455 0)
(0.946396 0.130653 0)
(1.00005 0.000437554 0)
(1.00041 0.0012151 0)
(1.00106 0.00175793 0)
(1.00184 0.00208869 0)
(1.00264 0.00231827 0)
(1.00346 0.0024931 0)
(1.00431 0.00260572 0)
(1.00518 0.00266034 0)
(1.00605 0.00267672 0)
(1.0069 0.00266932 0)
(1.00774 0.00264454 0)
(1.00856 0.0026072 0)
(1.00937 0.0025624 0)
(1.01016 0.00251434 0)
(1.01093 0.00246584 0)
(1.01168 0.00241877 0)
(1.01241 0.0023744 0)
(1.01314 0.00233357 0)
(1.01384 0.00229674 0)
(1.01454 0.00226409 0)
(1.01523 0.00223561 0)
(1.01591 0.00221122 0)
(1.01657 0.00219077 0)
(1.01724 0.00217414 0)
(1.01789 0.00216124 0)
(1.01854 0.00215208 0)
(1.01918 0.00214678 0)
(1.01981 0.00214562 0)
(1.02044 0.00214907 0)
(1.02105 0.00215787 0)
(1.02166 0.00217302 0)
(1.02226 0.00219594 0)
(1.02285 0.00222849 0)
(1.02342 0.00227311 0)
(1.02397 0.00233297 0)
(1.0245 0.00241214 0)
(1.025 0.00251585 0)
(1.02547 0.00265078 0)
(1.0259 0.00282543 0)
(1.02628 0.00305066 0)
(1.02659 0.00334027 0)
(1.02683 0.00371186 0)
(1.02696 0.00418782 0)
(1.02696 0.00479669 0)
(1.02681 0.00557481 0)
(1.02646 0.00656849 0)
(1.02586 0.00783674 0)
(1.02495 0.00945477 0)
(1.02365 0.0115184 0)
(1.02188 0.0141497 0)
(1.0195 0.0175039 0)
(1.0164 0.0217781 0)
(1.01243 0.0272234 0)
(1.0074 0.0341501 0)
(1.0012 0.0429683 0)
(0.993608 0.0541122 0)
(0.984801 0.0683443 0)
(0.97444 0.0858119 0)
(0.964251 0.108914 0)
(0.953282 0.133778 0)
(1.00004 0.000387796 0)
(1.00037 0.00108696 0)
(1.00097 0.0015933 0)
(1.00172 0.00191092 0)
(1.0025 0.00212824 0)
(1.0033 0.00229199 0)
(1.00413 0.00239986 0)
(1.00499 0.00245421 0)
(1.00585 0.00247181 0)
(1.0067 0.00246663 0)
(1.00754 0.00244521 0)
(1.00836 0.00241194 0)
(1.00916 0.00237144 0)
(1.00995 0.00232767 0)
(1.01072 0.00228332 0)
(1.01147 0.00224015 0)
(1.01221 0.0021994 0)
(1.01293 0.00216185 0)
(1.01364 0.00212798 0)
(1.01433 0.00209798 0)
(1.01502 0.00207188 0)
(1.0157 0.00204962 0)
(1.01637 0.00203111 0)
(1.01703 0.00201627 0)
(1.01768 0.00200506 0)
(1.01833 0.00199754 0)
(1.01897 0.00199388 0)
(1.01961 0.00199443 0)
(1.02023 0.00199972 0)
(1.02085 0.00201055 0)
(1.02146 0.00202803 0)
(1.02206 0.00205365 0)
(1.02265 0.0020894 0)
(1.02322 0.00213787 0)
(1.02378 0.0022024 0)
(1.02432 0.00228729 0)
(1.02483 0.00239804 0)
(1.0253 0.00254168 0)
(1.02574 0.00272714 0)
(1.02613 0.00296584 0)
(1.02646 0.00327228 0)
(1.02672 0.00366491 0)
(1.02688 0.00416722 0)
(1.02692 0.00480911 0)
(1.02682 0.0056286 0)
(1.02652 0.00667411 0)
(1.026 0.0080072 0)
(1.02519 0.00970615 0)
(1.02401 0.0118704 0)
(1.02239 0.0146263 0)
(1.02021 0.0181336 0)
(1.01737 0.0225938 0)
(1.01371 0.0282616 0)
(1.00909 0.0354489 0)
(1.00338 0.0445586 0)
(0.996427 0.0560196 0)
(0.98836 0.0705247 0)
(0.978975 0.088284 0)
(0.969673 0.111178 0)
(0.959924 0.136385 0)
(1.00004 0.000343415 0)
(1.00034 0.000969605 0)
(1.00089 0.001437 0)
(1.00161 0.0017382 0)
(1.00237 0.00194256 0)
(1.00316 0.00209481 0)
(1.00398 0.00219686 0)
(1.00483 0.00225006 0)
(1.00568 0.00226843 0)
(1.00652 0.00226511 0)
(1.00736 0.00224669 0)
(1.00817 0.00221719 0)
(1.00898 0.00218078 0)
(1.00976 0.00214114 0)
(1.01053 0.00210082 0)
(1.01128 0.00206149 0)
(1.01202 0.0020243 0)
(1.01274 0.00199001 0)
(1.01345 0.00195909 0)
(1.01415 0.00193174 0)
(1.01484 0.00190802 0)
(1.01552 0.0018879 0)
(1.01619 0.00187134 0)
(1.01685 0.00185829 0)
(1.0175 0.00184876 0)
(1.01815 0.00184287 0)
(1.01879 0.00184084 0)
(1.01943 0.00184306 0)
(1.02006 0.00185014 0)
(1.02068 0.00186295 0)
(1.02129 0.00188266 0)
(1.02189 0.00191087 0)
(1.02248 0.00194967 0)
(1.02306 0.0020018 0)
(1.02362 0.00207075 0)
(1.02416 0.00216104 0)
(1.02467 0.00227842 0)
(1.02516 0.00243025 0)
(1.02561 0.00262588 0)
(1.02602 0.00287721 0)
(1.02637 0.00319941 0)
(1.02664 0.00361172 0)
(1.02683 0.00413866 0)
(1.02691 0.00481137 0)
(1.02686 0.00566945 0)
(1.02663 0.00676322 0)
(1.02618 0.00815662 0)
(1.02547 0.00993075 0)
(1.02442 0.0121884 0)
(1.02296 0.0150596 0)
(1.02099 0.0187084 0)
(1.01841 0.0233401 0)
(1.01508 0.0292122 0)
(1.01087 0.0366378 0)
(1.00567 0.0460122 0)
(0.999355 0.0577582 0)
(0.992036 0.0725063 0)
(0.983589 0.0905076 0)
(0.975231 0.113239 0)
(0.966571 0.138579 0)
(1.00003 0.000303298 0)
(1.00031 0.000861298 0)
(1.00083 0.00128831 0)
(1.00151 0.00157024 0)
(1.00226 0.00176079 0)
(1.00303 0.00190121 0)
(1.00385 0.00199657 0)
(1.00468 0.0020478 0)
(1.00553 0.00206645 0)
(1.00637 0.00206466 0)
(1.0072 0.0020489 0)
(1.00801 0.00202291 0)
(1.00881 0.00199039 0)
(1.0096 0.00195474 0)
(1.01037 0.00191835 0)
(1.01112 0.00188279 0)
(1.01186 0.00184912 0)
(1.01258 0.00181806 0)
(1.01329 0.00179007 0)
(1.01399 0.00176536 0)
(1.01468 0.00174402 0)
(1.01536 0.00172605 0)
(1.01603 0.00171143 0)
(1.01669 0.00170017 0)
(1.01734 0.00169233 0)
(1.01799 0.00168805 0)
(1.01863 0.00168762 0)
(1.01927 0.00169148 0)
(1.0199 0.0017003 0)
(1.02052 0.00171501 0)
(1.02113 0.00173686 0)
(1.02174 0.00176754 0)
(1.02233 0.00180924 0)
(1.02291 0.00186482 0)
(1.02347 0.00193793 0)
(1.02402 0.00203329 0)
(1.02455 0.00215688 0)
(1.02504 0.00231636 0)
(1.0255 0.00252146 0)
(1.02593 0.00278455 0)
(1.02629 0.00312139 0)
(1.0266 0.00355197 0)
(1.02682 0.00410173 0)
(1.02694 0.00480297 0)
(1.02693 0.00569672 0)
(1.02677 0.00683507 0)
(1.0264 0.00828408 0)
(1.0258 0.0101274 0)
(1.02488 0.012471 0)
(1.02359 0.015448 0)
(1.02183 0.0192263 0)
(1.01951 0.0240147 0)
(1.01652 0.030073 0)
(1.01273 0.0377147 0)
(1.00805 0.0473279 0)
(1.00237 0.0593282 0)
(0.995798 0.0742918 0)
(0.988254 0.0924906 0)
(0.980826 0.115089 0)
(0.973199 0.140435 0)
(1.00003 0.000266596 0)
(1.00029 0.000760564 0)
(1.00078 0.00114642 0)
(1.00143 0.00140673 0)
(1.00216 0.00158254 0)
(1.00293 0.00171082 0)
(1.00373 0.00179877 0)
(1.00456 0.00184728 0)
(1.0054 0.00186576 0)
(1.00623 0.00186517 0)
(1.00706 0.00185178 0)
(1.00787 0.00182906 0)
(1.00867 0.00180026 0)
(1.00945 0.00176846 0)
(1.01022 0.00173591 0)
(1.01097 0.00170405 0)
(1.01171 0.00167385 0)
(1.01244 0.001646 0)
(1.01315 0.00162093 0)
(1.01385 0.00159886 0)
(1.01453 0.00157989 0)
(1.01521 0.00156407 0)
(1.01588 0.00155139 0)
(1.01655 0.00154192 0)
(1.0172 0.00153574 0)
(1.01785 0.00153306 0)
(1.0185 0.00153421 0)
(1.01913 0.00153967 0)
(1.01976 0.00155018 0)
(1.02038 0.00156671 0)
(1.021 0.00159061 0)
(1.0216 0.00162363 0)
(1.0222 0.00166806 0)
(1.02278 0.00172688 0)
(1.02335 0.00180388 0)
(1.02391 0.00190396 0)
(1.02444 0.00203331 0)
(1.02494 0.00219988 0)
(1.02542 0.00241373 0)
(1.02586 0.00268768 0)
(1.02624 0.003038 0)
(1.02657 0.00348537 0)
(1.02683 0.00405608 0)
(1.02699 0.00478347 0)
(1.02703 0.00570987 0)
(1.02694 0.00688896 0)
(1.02666 0.00838874 0)
(1.02616 0.0102952 0)
(1.02538 0.0127169 0)
(1.02426 0.0157901 0)
(1.02273 0.0196859 0)
(1.02068 0.024616 0)
(1.01803 0.0308422 0)
(1.01467 0.0386782 0)
(1.01051 0.0485052 0)
(1.00547 0.0607308 0)
(0.999629 0.0758847 0)
(0.992957 0.0942448 0)
(0.986421 0.116729 0)
(0.979757 0.142008 0)
(1.00003 0.000232643 0)
(1.00027 0.000666153 0)
(1.00073 0.00101057 0)
(1.00137 0.00124734 0)
(1.00208 0.00140746 0)
(1.00283 0.0015233 0)
(1.00363 0.00160327 0)
(1.00445 0.00164838 0)
(1.00528 0.00166624 0)
(1.00611 0.00166657 0)
(1.00693 0.00165529 0)
(1.00774 0.0016356 0)
(1.00854 0.00161035 0)
(1.00933 0.0015823 0)
(1.01009 0.00155349 0)
(1.01085 0.00152526 0)
(1.01158 0.0014985 0)
(1.01231 0.00147383 0)
(1.01302 0.00145166 0)
(1.01372 0.00143222 0)
(1.01441 0.00141563 0)
(1.01509 0.00140195 0)
(1.01576 0.00139122 0)
(1.01642 0.00138352 0)
(1.01708 0.001379 0)
(1.01773 0.0013779 0)
(1.01837 0.00138059 0)
(1.01901 0.00138762 0)
(1.01964 0.00139975 0)
(1.02027 0.00141804 0)
(1.02088 0.00144388 0)
(1.02149 0.0014791 0)
(1.02209 0.0015261 0)
(1.02268 0.00158793 0)
(1.02325 0.00166854 0)
(1.02381 0.00177297 0)
(1.02435 0.00190764 0)
(1.02487 0.00208071 0)
(1.02535 0.00230257 0)
(1.02581 0.00258642 0)
(1.02622 0.00294902 0)
(1.02657 0.00341167 0)
(1.02686 0.00400139 0)
(1.02706 0.00475248 0)
(1.02717 0.00570842 0)
(1.02714 0.00692431 0)
(1.02695 0.00846988 0)
(1.02656 0.0104332 0)
(1.02592 0.012925 0)
(1.02498 0.0160846 0)
(1.02367 0.0200855 0)
(1.02191 0.0251424 0)
(1.01961 0.0315183 0)
(1.01668 0.0395271 0)
(1.01304 0.0495436 0)
(1.00863 0.0619675 0)
(1.00352 0.0772885 0)
(0.997691 0.0957814 0)
(0.992006 0.118168 0)
(0.986226 0.143341 0)
(1.00003 0.000200912 0)
(1.00025 0.000577003 0)
(1.0007 0.000879973 0)
(1.00131 0.00109167 0)
(1.00201 0.00123522 0)
(1.00275 0.00133831 0)
(1.00354 0.00140983 0)
(1.00435 0.00145095 0)
(1.00518 0.00146778 0)
(1.00601 0.00146875 0)
(1.00683 0.00145936 0)
(1.00764 0.0014425 0)
(1.00843 0.00142065 0)
(1.00922 0.00139623 0)
(1.00998 0.00137109 0)
(1.01074 0.00134644 0)
(1.01147 0.00132307 0)
(1.0122 0.00130155 0)
(1.01291 0.00128228 0)
(1.01361 0.00126547 0)
(1.0143 0.00125124 0)
(1.01498 0.0012397 0)
(1.01565 0.0012309 0)
(1.01632 0.00122498 0)
(1.01697 0.00122211 0)
(1.01763 0.00122256 0)
(1.01827 0.00122677 0)
(1.01891 0.00123531 0)
(1.01954 0.00124901 0)
(1.02017 0.00126897 0)
(1.02078 0.00129664 0)
(1.02139 0.00133393 0)
(1.022 0.00138331 0)
(1.02259 0.00144793 0)
(1.02317 0.00153186 0)
(1.02373 0.00164028 0)
(1.02428 0.00177977 0)
(1.02481 0.00195874 0)
(1.02531 0.00218785 0)
(1.02578 0.00248063 0)
(1.02621 0.00285428 0)
(1.02659 0.00333063 0)
(1.02691 0.00393738 0)
(1.02716 0.00470964 0)
(1.02732 0.00569193 0)
(1.02736 0.00694058 0)
(1.02726 0.00852683 0)
(1.02699 0.0105405 0)
(1.0265 0.0130945 0)
(1.02574 0.0163304 0)
(1.02465 0.0204241 0)
(1.02318 0.0255924 0)
(1.02123 0.0321 0)
(1.01874 0.0402602 0)
(1.01563 0.0504428 0)
(1.01185 0.0630396 0)
(1.00746 0.0785067 0)
(1.00245 0.0971107 0)
(0.997579 0.119417 0)
(0.992607 0.14447 0)
(1.00003 0.000170978 0)
(1.00024 0.000492201 0)
(1.00067 0.000753915 0)
(1.00126 0.000939325 0)
(1.00195 0.00106547 0)
(1.00268 0.00115553 0)
(1.00346 0.00121821 0)
(1.00427 0.00125484 0)
(1.00509 0.00127025 0)
(1.00592 0.00127163 0)
(1.00673 0.00126392 0)
(1.00754 0.00124972 0)
(1.00834 0.00123113 0)
(1.00912 0.00121025 0)
(1.00989 0.00118871 0)
(1.01064 0.00116758 0)
(1.01138 0.00114757 0)
(1.0121 0.00112919 0)
(1.01282 0.00111279 0)
(1.01352 0.0010986 0)
(1.01421 0.00108674 0)
(1.01489 0.00107732 0)
(1.01556 0.00107046 0)
(1.01623 0.00106629 0)
(1.01688 0.00106505 0)
(1.01754 0.00106704 0)
(1.01818 0.00107272 0)
(1.01882 0.00108273 0)
(1.01945 0.00109793 0)
(1.02008 0.00111948 0)
(1.0207 0.00114887 0)
(1.02131 0.00118809 0)
(1.02192 0.00123966 0)
(1.02251 0.00130684 0)
(1.0231 0.00139379 0)
(1.02367 0.0015058 0)
(1.02423 0.00164965 0)
(1.02476 0.0018339 0)
(1.02528 0.00206946 0)
(1.02577 0.00237018 0)
(1.02622 0.00275361 0)
(1.02663 0.00324206 0)
(1.02699 0.0038638 0)
(1.02728 0.00465465 0)
(1.0275 0.00566001 0)
(1.02761 0.0069373 0)
(1.02761 0.00855902 0)
(1.02745 0.0106165 0)
(1.0271 0.0132246 0)
(1.02653 0.0165265 0)
(1.02568 0.0207004 0)
(1.02449 0.025965 0)
(1.02291 0.032586 0)
(1.02085 0.0408769 0)
(1.01828 0.0512027 0)
(1.01512 0.0639486 0)
(1.01145 0.0795427 0)
(1.00723 0.0982413 0)
(1.00314 0.120484 0)
(0.998913 0.145423 0)
(1.00003 0.000142486 0)
(1.00023 0.000410957 0)
(1.00064 0.000631696 0)
(1.00122 0.000789888 0)
(1.0019 0.000897891 0)
(1.00263 0.000974649 0)
(1.0034 0.00102818 0)
(1.0042 0.00105988 0)
(1.00502 0.00107354 0)
(1.00584 0.00107512 0)
(1.00666 0.00106892 0)
(1.00746 0.00105722 0)
(1.00826 0.00104177 0)
(1.00904 0.00102434 0)
(1.00981 0.00100634 0)
(1.01056 0.000988693 0)
(1.0113 0.00097201 0)
(1.01203 0.000956741 0)
(1.01274 0.000943207 0)
(1.01344 0.000931617 0)
(1.01413 0.000922115 0)
(1.01481 0.000914825 0)
(1.01548 0.000909882 0)
(1.01615 0.000907465 0)
(1.01681 0.000907827 0)
(1.01746 0.000911322 0)
(1.01811 0.000918446 0)
(1.01875 0.000929875 0)
(1.01938 0.000946513 0)
(1.02001 0.000969556 0)
(1.02063 0.00100056 0)
(1.02125 0.00104156 0)
(1.02186 0.00109514 0)
(1.02246 0.00116463 0)
(1.02305 0.00125428 0)
(1.02362 0.00136951 0)
(1.02419 0.0015172 0)
(1.02474 0.0017061 0)
(1.02527 0.00194732 0)
(1.02577 0.00225495 0)
(1.02625 0.00264687 0)
(1.02669 0.00314578 0)
(1.02708 0.00378042 0)
(1.02742 0.00458724 0)
(1.02769 0.00561234 0)
(1.02788 0.00691405 0)
(1.02797 0.00856595 0)
(1.02793 0.0106606 0)
(1.02774 0.0133143 0)
(1.02735 0.016672 0)
(1.02674 0.0209135 0)
(1.02584 0.0262592 0)
(1.02462 0.0329756 0)
(1.02301 0.0413764 0)
(1.02097 0.0518231 0)
(1.01844 0.0646955 0)
(1.01548 0.0803993 0)
(1.01203 0.0991805 0)
(1.0087 0.121378 0)
(1.00516 0.146222 0)
(1.00002 0.00011514 0)
(1.00022 0.000332581 0)
(1.00062 0.000512656 0)
(1.00119 0.000642921 0)
(1.00186 0.000732156 0)
(1.00258 0.000795355 0)
(1.00335 0.000839493 0)
(1.00414 0.000865911 0)
(1.00496 0.000877527 0)
(1.00578 0.00087912 0)
(1.00659 0.000874295 0)
(1.0074 0.00086496 0)
(1.00819 0.000852547 0)
(1.00898 0.000838497 0)
(1.00974 0.000823982 0)
(1.0105 0.000809775 0)
(1.01123 0.000796391 0)
(1.01196 0.000784216 0)
(1.01267 0.000773533 0)
(1.01337 0.00076454 0)
(1.01407 0.000757387 0)
(1.01475 0.000752214 0)
(1.01542 0.000749181 0)
(1.01609 0.000748497 0)
(1.01675 0.000750446 0)
(1.0174 0.000755417 0)
(1.01805 0.000763944 0)
(1.01869 0.000776738 0)
(1.01932 0.000794742 0)
(1.01995 0.000819193 0)
(1.02058 0.000851695 0)
(1.0212 0.000894316 0)
(1.02181 0.000949709 0)
(1.02241 0.00102127 0)
(1.02301 0.00111331 0)
(1.02359 0.00123135 0)
(1.02417 0.00138238 0)
(1.02473 0.00157529 0)
(1.02527 0.00182134 0)
(1.02579 0.00213485 0)
(1.02629 0.00253394 0)
(1.02676 0.00304164 0)
(1.02719 0.00368707 0)
(1.02758 0.00450717 0)
(1.02791 0.00554864 0)
(1.02818 0.0068705 0)
(1.02836 0.0085472 0)
(1.02844 0.0106724 0)
(1.0284 0.0133633 0)
(1.0282 0.0167664 0)
(1.02783 0.0210627 0)
(1.02723 0.026474 0)
(1.02637 0.0332678 0)
(1.02521 0.041758 0)
(1.0237 0.0523037 0)
(1.0218 0.0652812 0)
(1.01954 0.081079 0)
(1.01686 0.0999343 0)
(1.01426 0.122107 0)
(1.01136 0.146884 0)
(1.00002 8.86853e-05 0)
(1.00022 0.000256456 0)
(1.00061 0.00039617 0)
(1.00116 0.000497982 0)
(1.00182 0.000567933 0)
(1.00254 0.000617352 0)
(1.00331 0.000651901 0)
(1.0041 0.00067276 0)
(1.00491 0.000682087 0)
(1.00573 0.000683539 0)
(1.00654 0.000679969 0)
(1.00735 0.000672898 0)
(1.00814 0.000663436 0)