/*--------------------------------*- C++ -*----------------------------------*\
| =========                 |                                                 |
| \\      /  F ield         | OpenFOAM: The Open Source CFD Toolbox           |
|  \\    /   O peration     | Version:  2.4.0                                 |
|   \\  /    A nd           | Web:      www.OpenFOAM.org                      |
|    \\/     M anipulation  |                                                 |
\*---------------------------------------------------------------------------*/
FoamFile
{
    version     2.0;
    format      ascii;
    class       surfaceScalarField;
    location    "4.77";
    object      phi;
}
// * * * * * * * * * * * * * * * * * * * * * * * * * * * * * * * * * * * * * //

dimensions      [0 3 -1 0 0 0 0];

internalField   nonuniform List<scalar> 
11840
(
7.83561e-07
9.21644e-06
-9.36172e-07
1.71973e-06
6.58425e-07
-1.5946e-06
1.45995e-07
5.1243e-07
-2.06148e-07
3.52142e-07
-3.03393e-07
9.72452e-08
-4.04971e-07
1.01578e-07
-4.99989e-07
9.50182e-08
-6.94299e-07
1.9431e-07
-8.75665e-07
1.81367e-07
-1.14887e-06
2.73207e-07
-1.37859e-06
2.29719e-07
-1.61394e-06
2.35353e-07
-1.75696e-06
1.43012e-07
-1.82089e-06
6.39335e-08
-1.79477e-06
-2.61174e-08
-1.76802e-06
-2.67563e-08
-1.84909e-06
8.10737e-08
-2.12897e-06
2.7988e-07
-2.56078e-06
4.31806e-07
-3.00064e-06
4.39867e-07
-3.35065e-06
3.50008e-07
-3.6118e-06
2.61151e-07
-3.80946e-06
1.97655e-07
-3.95961e-06
1.50155e-07
-4.07003e-06
1.10422e-07
-4.14397e-06
7.39343e-08
-4.18229e-06
3.83198e-08
-4.18323e-06
9.42585e-10
-4.14844e-06
-3.47881e-08
-4.08072e-06
-6.77238e-08
-3.98095e-06
-9.97638e-08
-3.85019e-06
-1.30765e-07
-3.68964e-06
-1.60547e-07
-3.50088e-06
-1.8876e-07
-3.28531e-06
-2.15573e-07
-3.04483e-06
-2.40481e-07
-2.78037e-06
-2.64457e-07
-2.49427e-06
-2.86104e-07
-2.18582e-06
-3.08447e-07
-1.85892e-06
-3.26905e-07
-1.50882e-06
-3.50099e-07
-1.1445e-06
-3.64318e-07
-7.5221e-07
-3.92289e-07
-3.52477e-07
-3.99733e-07
7.95139e-08
-4.31991e-07
5.12748e-07
-4.33234e-07
9.9447e-07
-4.81723e-07
1.43845e-06
-4.43985e-07
1.98199e-06
-5.43536e-07
2.41814e-06
-4.36151e-07
3.04822e-06
-6.3008e-07
3.42527e-06
-3.77044e-07
4.18895e-06
-7.63685e-07
4.40953e-06
-2.20576e-07
5.39353e-06
-9.84001e-07
5.29875e-06
9.47833e-08
6.65985e-06
-1.3611e-06
6.13105e-06
5.28799e-07
-2.53541e-06
2.45146e-06
1.6765e-05
-5.06794e-07
4.67799e-06
3.68158e-07
-2.46955e-06
-8.68316e-08
9.6742e-07
-3.12122e-07
5.77433e-07
-4.64851e-07
2.49974e-07
-5.62264e-07
1.98991e-07
-6.81247e-07
2.14001e-07
-8.81335e-07
3.94398e-07
-1.08922e-06
3.89253e-07
-1.35216e-06
5.36145e-07
-1.58622e-06
4.63778e-07
-1.79479e-06
4.43922e-07
-1.92516e-06
2.73388e-07
-1.97951e-06
1.18281e-07
-1.97178e-06
-3.38478e-08
-1.97886e-06
-1.96746e-08
-2.10688e-06
2.09087e-07
-2.41882e-06
5.91822e-07
-2.83967e-06
8.52654e-07
-3.23039e-06
8.30587e-07
-3.52942e-06
6.49042e-07
-3.75336e-06
4.85094e-07
-3.92351e-06
3.67802e-07
-4.05042e-06
2.77062e-07
-4.13908e-06
1.99087e-07
-4.1917e-06
1.26554e-07
-4.20921e-06
5.5832e-08
-4.19333e-06
-1.49402e-08
-4.14401e-06
-8.41061e-08
-4.06131e-06
-1.5043e-07
-3.94604e-06
-2.15029e-07
-3.79936e-06
-2.77444e-07
-3.62265e-06
-3.37256e-07
-3.41754e-06
-3.93878e-07
-3.18566e-06
-4.47454e-07
-2.92879e-06
-4.97347e-07
-2.64838e-06
-5.44867e-07
-2.34606e-06
-5.88421e-07
-2.02257e-06
-6.31941e-07
-1.67938e-06
-6.70092e-07
-1.31604e-06
-7.13442e-07
-9.34284e-07
-7.46073e-07
-5.32221e-07
-7.94352e-07
-1.12374e-07
-8.1958e-07
3.28944e-07
-8.73309e-07
7.84022e-07
-8.88312e-07
1.26494e-06
-9.62644e-07
1.75209e-06
-9.31126e-07
2.27591e-06
-1.06736e-06
2.78653e-06
-9.46774e-07
3.35896e-06
-1.2025e-06
3.86883e-06
-8.8692e-07
4.5021e-06
-1.39695e-06
4.95904e-06
-6.77513e-07
5.68972e-06
-1.71469e-06
6.00077e-06
-2.16261e-07
6.92768e-06
-2.28801e-06
7.07692e-06
3.79554e-07
-4.17612e-06
3.60698e-06
2.3158e-05
1.73049e-08
8.26767e-06
5.84264e-08
-2.51067e-06
-3.04821e-07
1.33067e-06
-3.67938e-07
6.40551e-07
-5.29928e-07
4.11964e-07
-6.15447e-07
2.8451e-07
-7.42985e-07
3.41539e-07
-9.26723e-07
5.78136e-07
-1.13647e-06
5.98999e-07
-1.37908e-06
7.78757e-07
-1.60804e-06
6.92735e-07
-1.80692e-06
6.42807e-07
-1.94268e-06
4.09148e-07
-2.00882e-06
1.84417e-07
-2.02197e-06
-2.07009e-08
-2.04744e-06
5.79933e-09
-2.1795e-06
3.4115e-07
-2.46958e-06
8.81894e-07
-2.85105e-06
1.23413e-06
-3.20611e-06
1.18564e-06
-3.48407e-06
9.27006e-07
-3.69575e-06
6.9677e-07
-3.85672e-06
5.28772e-07
-3.97555e-06
3.95898e-07
-4.05659e-06
2.80125e-07
-4.10186e-06
1.71828e-07
-4.11244e-06
6.64073e-08
-4.08929e-06
-3.80909e-08
-4.03276e-06
-1.40637e-07
-3.94294e-06
-2.40248e-07
-3.82076e-06
-3.37213e-07
-3.6674e-06
-4.30799e-07
-3.48432e-06
-5.20335e-07
-3.27317e-06
-6.05027e-07
-3.03568e-06
-6.84946e-07
-2.77361e-06
-7.59421e-07
-2.48853e-06
-8.29941e-07
-2.18194e-06
-8.95016e-07
-1.8549e-06
-9.58981e-07
-1.50834e-06
-1.01665e-06
-1.14277e-06
-1.07902e-06
-7.58341e-07
-1.1305e-06
-3.55598e-07
-1.19709e-06
6.65987e-08
-1.24178e-06
5.06997e-07
-1.31371e-06
9.66036e-07
-1.34735e-06
1.44415e-06
-1.44076e-06
1.93959e-06
-1.42657e-06
2.45532e-06
-1.58309e-06
2.98299e-06
-1.47444e-06
3.53464e-06
-1.75415e-06
4.08155e-06
-1.43383e-06
4.6653e-06
-1.9807e-06
5.2033e-06
-1.21551e-06
5.82076e-06
-2.33215e-06
6.30503e-06
-7.00534e-07
6.98721e-06
-2.97019e-06
7.4708e-06
-1.04035e-07
-5.30773e-06
4.5285e-06
2.86295e-05
7.56578e-07
1.20396e-05
-2.33724e-07
-1.52037e-06
-4.60394e-07
1.55734e-06
-3.98531e-07
5.78688e-07
-5.62012e-07
5.75444e-07
-6.38226e-07
3.60724e-07
-7.69347e-07
4.7266e-07
-9.38361e-07
7.4715e-07
-1.14341e-06
8.0405e-07
-1.37102e-06
1.00636e-06
-1.59378e-06
9.15503e-07
-1.78826e-06
8.37286e-07
-1.92988e-06
5.50769e-07
-2.00846e-06
2.6299e-07
-2.03952e-06
1.03605e-08
-2.0791e-06
4.5376e-08
-2.20949e-06
4.71546e-07
-2.47482e-06
1.14722e-06
-2.82019e-06
1.5795e-06
-3.14659e-06
1.51204e-06
-3.40842e-06
1.18883e-06
-3.6104e-06
8.98751e-07
-3.76396e-06
6.82324e-07
-3.87628e-06
5.08226e-07
-3.95126e-06
3.55101e-07
-3.99079e-06
2.11362e-07
-3.9959e-06
7.15143e-08
-3.96735e-06
-6.66464e-08
-3.90548e-06
-2.02499e-07
-3.81061e-06
-3.35116e-07
-3.68366e-06
-4.64168e-07
-3.52585e-06
-5.88609e-07
-3.33867e-06
-7.07512e-07
-3.12381e-06
-8.19884e-07
-2.88305e-06
-9.25709e-07
-2.61816e-06
-1.02432e-06
-2.33077e-06
-1.11732e-06
-2.02234e-06
-1.20345e-06
-1.69407e-06
-1.28726e-06
-1.34669e-06
-1.36402e-06
-9.81017e-07
-1.44469e-06
-5.96729e-07
-1.51479e-06
-1.95007e-07
-1.59882e-06
2.26164e-07
-1.66295e-06
6.64597e-07
-1.75214e-06
1.12278e-06
-1.80554e-06
1.59801e-06
-1.91598e-06
2.09379e-06
-1.92235e-06
2.60463e-06
-2.09393e-06
3.13528e-06
-2.00509e-06
3.67731e-06
-2.29619e-06
4.23408e-06
-1.99059e-06
4.79736e-06
-2.54398e-06
5.36183e-06
-1.77998e-06
5.93337e-06
-2.90369e-06
6.48185e-06
-1.24901e-06
7.06144e-06
-3.54979e-06
7.6752e-06
-7.17793e-07
-6.19334e-06
5.30461e-06
3.33249e-05
1.49061e-06
1.58536e-05
-2.59712e-07
2.29955e-07
-5.51577e-07
1.8492e-06
-4.19321e-07
4.46433e-07
-5.79521e-07
7.35644e-07
-6.48595e-07
4.29797e-07
-7.79665e-07
6.03731e-07
-9.36275e-07
9.0376e-07
-1.13373e-06
1.00151e-06
-1.34897e-06
1.2216e-06
-1.56528e-06
1.13182e-06
-1.75699e-06
1.02899e-06
-1.90413e-06
6.97905e-07
-1.99462e-06
3.5348e-07
-2.0417e-06
5.74387e-08
-2.09294e-06
9.66183e-08
-2.2194e-06
5.9801e-07
-2.46006e-06
1.38788e-06
-2.77202e-06
1.89146e-06
-3.07282e-06
1.81284e-06
-3.32007e-06
1.43609e-06
-3.51307e-06
1.09175e-06
-3.65976e-06
8.29011e-07
-3.76613e-06
6.146e-07
-3.83564e-06
4.24607e-07
-3.87005e-06
2.45768e-07
-3.8703e-06
7.17665e-08
-3.83705e-06
-9.98963e-08
-3.77066e-06
-2.68889e-07
-3.67156e-06
-4.34216e-07
-3.54068e-06
-5.95045e-07
-3.37929e-06
-7.50004e-07
-3.1889e-06
-8.979e-07
-2.97123e-06
-1.03755e-06
-2.72811e-06
-1.16883e-06
-2.46132e-06
-1.29111e-06
-2.17255e-06
-1.40609e-06
-1.86324e-06
-1.51276e-06
-1.53464e-06
-1.61586e-06
-1.18743e-06
-1.71123e-06
-8.22533e-07
-1.80959e-06
-4.39447e-07
-1.89787e-06
-3.95164e-08
-1.99875e-06
3.79509e-07
-2.08197e-06
8.15266e-07
-2.1879e-06
1.27093e-06
-2.2612e-06
1.74278e-06
-2.38783e-06
2.23624e-06
-2.41581e-06
2.74259e-06
-2.60028e-06
3.27177e-06
-2.53428e-06
3.80703e-06
-2.83145e-06
4.36516e-06
-2.54872e-06
4.91663e-06
-3.09545e-06
5.48993e-06
-2.35327e-06
6.03785e-06
-3.45161e-06
6.61253e-06
-1.82369e-06
7.14219e-06
-4.07945e-06
7.80765e-06
-1.38325e-06
-6.94131e-06
5.9755e-06
3.73494e-05
2.24016e-06
1.95889e-05
-6.28336e-08
2.53294e-06
-5.83087e-07
2.36945e-06
-4.36685e-07
3.00031e-07
-5.88558e-07
8.87516e-07
-6.51874e-07
4.93113e-07
-7.80668e-07
7.32525e-07
-9.26191e-07
1.04928e-06
-1.11478e-06
1.19009e-06
-1.31885e-06
1.42568e-06
-1.52862e-06
1.34159e-06
-1.71805e-06
1.21842e-06
-1.87023e-06
8.50081e-07
-1.97191e-06
4.55158e-07
-2.03358e-06
1.19113e-07
-2.09484e-06
1.57872e-07
-2.21625e-06
7.19425e-07
-2.43291e-06
1.60454e-06
-2.71351e-06
2.17206e-06
-2.99038e-06
2.08972e-06
-3.22369e-06
1.66939e-06
-3.40793e-06
1.276e-06
-3.54795e-06
9.69035e-07
-3.64862e-06
7.15261e-07
-3.71293e-06
4.8892e-07
-3.7425e-06
2.75344e-07
-3.73821e-06
6.74746e-08
-3.70063e-06
-1.37484e-07
-3.63012e-06
-3.39396e-07
-3.52721e-06
-5.37128e-07
-3.39284e-06
-7.29412e-07
-3.2283e-06
-9.14539e-07
-3.03516e-06
-1.09104e-06
-2.81516e-06
-1.25755e-06
-2.57015e-06
-1.41384e-06
-2.30195e-06
-1.5593e-06
-2.01229e-06
-1.69575e-06
-1.7026e-06
-1.82245e-06
-1.37418e-06
-1.94428e-06
-1.02769e-06
-2.05772e-06
-6.64073e-07
-2.17321e-06
-2.82771e-07
-2.27918e-06
1.14886e-07
-2.3964e-06
5.31139e-07
-2.49822e-06
9.63735e-07
-2.62049e-06
1.41602e-06
-2.71348e-06
1.88401e-06
-2.85583e-06
2.37388e-06
-2.90567e-06
2.87558e-06
-3.10198e-06
3.40133e-06
-3.06003e-06
3.93057e-06
-3.36069e-06
4.48654e-06
-3.1047e-06
5.02926e-06
-3.63817e-06
5.60426e-06
-2.92828e-06
6.13712e-06
-3.98447e-06
6.72267e-06
-2.40924e-06
7.22354e-06
-4.58032e-06
7.90876e-06
-2.06848e-06
-7.59809e-06
6.56076e-06
4.07886e-05
2.97407e-06
2.31756e-05
2.30314e-07
5.2767e-06
-5.3635e-07
3.13612e-06
-4.51762e-07
2.15443e-07
-5.91623e-07
1.02738e-06
-6.50052e-07
5.51542e-07
-7.75303e-07
8.57777e-07
-9.10474e-07
1.18445e-06
-1.0896e-06
1.36922e-06
-1.28309e-06
1.61917e-06
-1.48621e-06
1.5447e-06
-1.6734e-06
1.40561e-06
-1.83005e-06
1.00673e-06
-1.94212e-06
5.67231e-07
-2.0172e-06
1.94188e-07
-2.08723e-06
2.27904e-07
-2.20307e-06
8.35264e-07
-2.39668e-06
1.79815e-06
-2.64763e-06
2.42301e-06
-2.90166e-06
2.34375e-06
-3.12124e-06
1.88898e-06
-3.29672e-06
1.45147e-06
-3.43011e-06
1.10243e-06
-3.52515e-06
8.10297e-07
-3.58439e-06
5.48167e-07
-3.60929e-06
3.0024e-07
-3.60062e-06
5.88053e-08
-3.55889e-06
-1.79209e-07
-3.4845e-06
-4.13788e-07
-3.37801e-06
-6.43616e-07
-3.2404e-06
-8.67022e-07
-3.07299e-06
-1.08196e-06
-2.87735e-06
-1.28668e-06
-2.65529e-06
-1.47961e-06
-2.40868e-06
-1.66045e-06
-2.13937e-06
-1.82861e-06
-1.84913e-06
-1.98599e-06
-1.53939e-06
-2.13219e-06
-1.21149e-06
-2.27218e-06
-8.66057e-07
-2.40316e-06
-5.04073e-07
-2.53519e-06
-1.24944e-07
-2.6583e-06
2.70081e-07
-2.79143e-06
6.83141e-07
-2.91128e-06
1.11219e-06
-3.04954e-06
1.56055e-06
-3.16184e-06
2.02427e-06
-3.31955e-06
2.50975e-06
-3.39116e-06
3.00651e-06
-3.59873e-06
3.52771e-06
-3.58123e-06
4.05107e-06
-3.88404e-06
4.60305e-06
-3.65668e-06
5.13824e-06
-4.17335e-06
5.71142e-06
-3.50147e-06
6.2331e-06
-4.50615e-06
6.82207e-06
-2.9982e-06
7.30391e-06
-5.06216e-06
7.99388e-06
-2.75845e-06
-8.18703e-06
7.0718e-06
4.37168e-05
3.68665e-06
2.65608e-05
6.53796e-07
8.30955e-06
-4.06504e-07
4.19642e-06
-4.60608e-07
2.69547e-07
-5.89723e-07
1.15649e-06
-6.43966e-07
6.05784e-07
-7.65024e-07
9.78836e-07
-8.90313e-07
1.30974e-06
-1.05969e-06
1.53859e-06
-1.2429e-06
1.80238e-06
-1.4392e-06
1.741e-06
-1.62394e-06
1.59036e-06
-1.78444e-06
1.16724e-06
-1.90607e-06
6.88856e-07
-1.99346e-06
2.81582e-07
-2.07131e-06
3.0575e-07
-2.18141e-06
9.45366e-07
-2.3531e-06
1.96984e-06
-2.57594e-06
2.64584e-06
-2.80789e-06
2.5757e-06
-3.01376e-06
2.09485e-06
-3.18034e-06
1.61804e-06
-3.30703e-06
1.22912e-06
-3.39644e-06
8.99707e-07
-3.45067e-06
6.02391e-07
-3.47095e-06
3.20524e-07
-3.45799e-06
4.58447e-08
-3.41224e-06
-2.24961e-07
-3.3341e-06
-4.9193e-07
-3.22418e-06
-7.53538e-07
-3.08347e-06
-1.00773e-06
-2.91333e-06
-1.2521e-06
-2.71537e-06
-1.48464e-06
-2.49142e-06
-1.70357e-06
-2.2434e-06
-1.90847e-06
-1.97319e-06
-2.09882e-06
-1.68258e-06
-2.2766e-06
-1.37302e-06
-2.44174e-06
-1.04588e-06
-2.59933e-06
-7.01768e-07
-2.74727e-06
-3.41676e-07
-2.89528e-06
3.4992e-08
-3.03497e-06
4.27093e-07
-3.18353e-06
8.36638e-07
-3.32083e-06
1.26182e-06
-3.47472e-06
1.70583e-06
-3.60586e-06
2.16491e-06
-3.77863e-06
2.64546e-06
-3.87171e-06
3.13695e-06
-4.09021e-06
3.65286e-06
-4.09715e-06
4.17023e-06
-4.40142e-06
4.71709e-06
-4.20354e-06
5.24524e-06
-4.70151e-06
5.81456e-06
-4.07079e-06
6.32699e-06
-5.01858e-06
6.91522e-06
-3.58643e-06
7.38302e-06
-5.52996e-06
8.06976e-06
-3.44519e-06
-8.72155e-06
7.51724e-06
4.61996e-05
4.37162e-06
2.97064e-05
1.18044e-06
1.15007e-05
-2.07541e-07
5.5844e-06
-4.53819e-07
5.15825e-07
-5.82862e-07
1.28554e-06
-6.33914e-07
6.56836e-07
-7.50575e-07
1.0955e-06
-8.66354e-07
1.42552e-06
-1.02588e-06
1.69811e-06
-1.19894e-06
1.97544e-06
-1.38822e-06
1.93028e-06
-1.57017e-06
1.77231e-06
-1.73383e-06
1.3309e-06
-1.86413e-06
8.19153e-07
-1.96283e-06
3.80281e-07
-2.04771e-06
3.90629e-07
-2.15216e-06
1.04982e-06
-2.30318e-06
2.12086e-06
-2.49934e-06
2.842e-06
-2.7098e-06
2.78616e-06
-2.90188e-06
2.28693e-06
-3.05935e-06
1.77551e-06
-3.17921e-06
1.34899e-06
-3.26294e-06
9.83434e-07
-3.31213e-06
6.51581e-07
-3.32782e-06
3.36214e-07
-3.3106e-06
2.86294e-08
-3.26089e-06
-2.74679e-07
-3.17907e-06
-5.73748e-07
-3.0658e-06
-8.6681e-07
-2.92209e-06
-1.15143e-06
-2.74932e-06
-1.42487e-06
-2.54915e-06
-1.68481e-06
-2.32343e-06
-1.92928e-06
-2.07413e-06
-2.15777e-06
-1.80316e-06
-2.36979e-06
-1.51234e-06
-2.56742e-06
-1.20314e-06
-2.75094e-06
-8.76938e-07
-2.92553e-06
-5.34359e-07
-3.08985e-06
-1.7637e-07
-3.25327e-06
1.976e-07
-3.40894e-06
5.86526e-07
-3.57246e-06
9.92289e-07
-3.72659e-06
1.41331e-06
-3.89574e-06
1.85265e-06
-4.0452e-06
2.30676e-06
-4.23274e-06
2.78194e-06
-4.34688e-06
3.26783e-06
-4.5761e-06
3.7779e-06
-4.60722e-06
4.28909e-06
-4.9126e-06
4.83004e-06
-4.74449e-06
5.3513e-06
-5.22277e-06
5.91543e-06
-4.63492e-06
6.4196e-06
-5.52274e-06
7.00452e-06
-4.17136e-06
7.46098e-06
-5.98643e-06
8.13984e-06
-4.12405e-06
-9.21018e-06
7.90476e-06
4.82948e-05
5.02309e-06
3.25881e-05
1.77328e-06
1.47505e-05
5.766e-08
7.30002e-06
-4.21353e-07
9.94838e-07
-5.70023e-07
1.43421e-06
-6.19847e-07
7.06659e-07
-7.32288e-07
1.20794e-06
-8.38939e-07
1.53217e-06
-9.88633e-07
1.84781e-06
-1.1516e-06
2.13841e-06
-1.33362e-06
2.1123e-06
-1.51235e-06
1.95103e-06
-1.67843e-06
1.49698e-06
-1.81648e-06
9.57202e-07
-1.9255e-06
4.89306e-07
-2.01676e-06
4.81892e-07
-2.11585e-06
1.14891e-06
-2.24752e-06
2.25252e-06
-2.41837e-06
3.01285e-06
-2.60785e-06
2.97564e-06
-2.78598e-06
2.46506e-06
-2.9341e-06
1.92363e-06
-3.04697e-06
1.46186e-06
-3.12491e-06
1.06138e-06
-3.16902e-06
6.95689e-07
-3.1801e-06
3.47291e-07
-3.15863e-06
7.16333e-09
-3.10497e-06
-3.2834e-07
-3.01952e-06
-6.59201e-07
-2.90294e-06
-9.83385e-07
-2.75629e-06
-1.29809e-06
-2.58096e-06
-1.6002e-06
-2.37865e-06
-1.88712e-06
-2.15125e-06
-2.15668e-06
-1.90077e-06
-2.40825e-06
-1.62914e-06
-2.64142e-06
-1.33823e-06
-2.85834e-06
-1.02953e-06
-3.05965e-06
-7.04424e-07
-3.25064e-06
-3.63546e-07
-3.43072e-06
-7.84152e-09
-3.60897e-06
3.63231e-07
-3.78002e-06
7.48758e-07
-3.95798e-06
1.1505e-06
-4.12834e-06
1.5671e-06
-4.31234e-06
2.00149e-06
-4.47959e-06
2.45033e-06
-4.68158e-06
2.91976e-06
-4.81632e-06
3.39974e-06
-5.05608e-06
3.90353e-06
-5.11101e-06
4.40828e-06
-5.41735e-06
4.94272e-06
-5.27893e-06
5.45706e-06
-5.7371e-06
6.01506e-06
-5.19293e-06
6.51145e-06
-6.01913e-06
7.09134e-06
-4.75124e-06
7.53796e-06
-6.43305e-06
8.20606e-06
-4.79215e-06
-9.65877e-06
8.24132e-06
5.00535e-05
5.63646e-06
3.51929e-05
2.41066e-06
1.79763e-05
4.34645e-07
9.27604e-06
-3.52498e-07
1.78198e-06
-5.48803e-07
1.63051e-06
-6.01376e-07
7.59232e-07
-7.10213e-07
1.31678e-06
-8.08205e-07
1.63016e-06
-9.48199e-07
1.9878e-06
-1.10111e-06
2.29132e-06
-1.2756e-06
2.28679e-06
-1.45061e-06
2.12604e-06
-1.61833e-06
1.6647e-06
-1.76318e-06
1.10205e-06
-1.88157e-06
6.07698e-07
-1.97866e-06
5.78987e-07
-2.07279e-06
1.24304e-06
-2.18648e-06
2.36622e-06
-2.33339e-06
3.15976e-06
-2.50235e-06
3.1446e-06
-2.66636e-06
2.62908e-06
-2.80485e-06
2.06211e-06
-2.91051e-06
1.56753e-06
-2.98255e-06
1.13341e-06
-3.0215e-06
7.3464e-07
-3.02793e-06
3.53716e-07
-3.00219e-06
-1.85715e-08
-2.94459e-06
-3.85942e-07
-2.85552e-06
-7.48273e-07
-2.73567e-06
-1.10324e-06
-2.5861e-06
-1.44765e-06
-2.40825e-06
-1.77805e-06
-2.20385e-06
-2.09152e-06
-1.97483e-06
-2.38569e-06
-1.72324e-06
-2.65984e-06
-1.45105e-06
-2.91361e-06
-1.16015e-06
-3.14923e-06
-8.52062e-07
-3.36774e-06
-5.28181e-07
-3.57452e-06
-1.89152e-07
-3.76975e-06
1.64109e-07
-3.96224e-06
5.32105e-07
-4.14801e-06
9.1403e-07
-4.33991e-06
1.31155e-06
-4.52586e-06
1.72349e-06
-4.72428e-06
2.15265e-06
-4.90875e-06
2.59594e-06
-5.12487e-06
3.05931e-06
-5.2797e-06
3.53307e-06
-5.52984e-06
4.03019e-06
-5.60813e-06
4.52824e-06
-5.9154e-06
5.05569e-06
-5.80638e-06
5.56296e-06
-6.24437e-06
6.11413e-06
-5.7441e-06
6.60295e-06
-6.50795e-06
7.17656e-06
-5.32486e-06
7.61413e-06
-6.87062e-06
8.2696e-06
-5.44762e-06
-1.00716e-05
8.53316e-06
5.15204e-05
6.20843e-06
3.75176e-05
3.07035e-06
2.11144e-05
8.68028e-07
1.14784e-05
-2.21175e-07
2.87118e-06
-5.14469e-07
1.92381e-06
-5.77669e-07
8.22432e-07
-6.84144e-07
1.42325e-06
-7.74117e-07
1.72014e-06
-9.04665e-07
2.11835e-06
-1.04754e-06
2.4342e-06
-1.21426e-06
2.45351e-06
-1.38502e-06
2.2968e-06
-1.55357e-06
1.83325e-06
-1.70422e-06
1.25269e-06
-1.83102e-06
7.34505e-07
-1.93347e-06
6.8143e-07
-2.02312e-06
1.33269e-06
-2.12027e-06
2.46336e-06
-2.24457e-06
3.28406e-06
-2.39347e-06
3.2935e-06
-2.5432e-06
2.7788e-06
-2.67176e-06
2.19067e-06
-2.77001e-06
1.66578e-06
-2.83599e-06
1.19939e-06
-2.86969e-06
7.68343e-07
-2.87141e-06
3.55432e-07
-2.84137e-06
-4.8608e-08
-2.77981e-06
-4.47499e-07
-2.68712e-06
-8.40963e-07
-2.564e-06
-1.22636e-06
-2.41154e-06
-1.60012e-06
-2.23119e-06
-1.9584e-06
-2.02474e-06
-2.29797e-06
-1.79415e-06
-2.61628e-06
-1.54151e-06
-2.91248e-06
-1.26883e-06
-3.18629e-06
-9.78035e-07
-3.44003e-06
-6.70657e-07
-3.67512e-06
-3.48117e-07
-3.89706e-06
-1.10672e-08
-4.1068e-06
3.39604e-07
-4.31291e-06
7.0436e-07
-4.51277e-06
1.08249e-06
-4.71804e-06
1.47559e-06
-4.91895e-06
1.88264e-06
-5.13133e-06
2.30635e-06
-5.33246e-06
2.74382e-06
-5.56234e-06
3.20084e-06
-5.73672e-06
3.6681e-06
-5.99709e-06
4.15821e-06
-6.09824e-06
4.64927e-06
-6.40646e-06
5.16932e-06
-6.32644e-06
5.66931e-06
-6.74436e-06
6.21308e-06
-6.28787e-06
6.69435e-06
-6.98922e-06
7.26075e-06
-5.89126e-06
7.68966e-06
-7.29952e-06
8.33122e-06
-6.08918e-06
-1.04518e-05
8.78581e-06
5.27346e-05
6.73705e-06
3.95664e-05
3.73632e-06
2.41151e-05
1.36214e-06
1.38525e-05
-6.5202e-09
4.23984e-06
-4.5847e-07
2.37576e-06
-5.472e-07
9.11162e-07
-6.53603e-07
1.52965e-06
-7.36484e-07
1.80302e-06
-8.57988e-07
2.23985e-06
-9.9091e-07
2.56712e-06
-1.14961e-06
2.6122e-06
-1.31557e-06
2.46277e-06
-1.48411e-06
2.00178e-06
-1.63955e-06
1.40813e-06
-1.77382e-06
8.68774e-07
-1.88117e-06
7.88786e-07
-1.96692e-06
1.41844e-06
-2.04895e-06
2.5454e-06
-2.15198e-06
3.38709e-06
-2.28131e-06
3.42283e-06
-2.4166e-06
2.9141e-06
-2.53495e-06
2.30903e-06
-2.62554e-06
1.75637e-06
-2.68531e-06
1.25916e-06
-2.71366e-06
7.96693e-07
-2.7106e-06
3.52371e-07
-2.67622e-06
-8.29892e-08
-2.61068e-06
-5.13035e-07
-2.51436e-06
-9.37281e-07
-2.38798e-06
-1.35275e-06
-2.23263e-06
-1.75546e-06
-2.04981e-06
-2.14122e-06
-1.84134e-06
-2.50645e-06
-1.60922e-06
-2.8484e-06
-1.35558e-06
-3.16612e-06
-1.08247e-06
-3.45939e-06
-7.91846e-07
-3.73065e-06
-4.85272e-07
-3.98169e-06
-1.64177e-07
-4.21815e-06
1.70772e-07
-4.44175e-06
5.18716e-07
-4.66085e-06
8.80079e-07
-4.87413e-06
1.25425e-06
-5.09221e-06
1.64273e-06
-5.30743e-06
2.04469e-06
-5.53329e-06
2.46271e-06
-5.75048e-06
2.89412e-06
-5.99375e-06
3.34452e-06
-6.18712e-06
3.80499e-06
-6.45756e-06
4.28778e-06
-6.58103e-06
4.77157e-06
-6.89025e-06
5.28385e-06
-6.83872e-06
5.77635e-06
-7.23686e-06
6.31223e-06
-6.82375e-06
6.78587e-06
-7.46286e-06
7.3443e-06
-6.44969e-06
7.76467e-06
-7.71989e-06
8.39147e-06
-6.71598e-06
-1.08021e-05
9.00427e-06
5.37303e-05
7.22159e-06
4.13491e-05
4.39642e-06
2.69403e-05
1.90657e-06
1.63424e-05
2.38226e-07
5.90819e-06
-3.67381e-07
2.98136e-06
-5.07322e-07
1.0511e-06
-6.17766e-07
1.6401e-06
-6.94935e-07
1.88019e-06
-8.07995e-07
2.35291e-06
-9.3111e-07
2.69024e-06
-1.08158e-06
2.76268e-06
-1.24222e-06
2.6234e-06
-1.40989e-06
2.16946e-06
-1.56908e-06
1.56732e-06
-1.70986e-06
1.00955e-06
-1.82171e-06
9.00642e-07
-1.90414e-06
1.50087e-06
-1.97251e-06
2.61377e-06
-2.05563e-06
3.47021e-06
-2.16588e-06
3.53308e-06
-2.28662e-06
3.03483e-06
-2.39449e-06
2.4169e-06
-2.47719e-06
1.83907e-06
-2.53057e-06
1.31254e-06
-2.55346e-06
8.19575e-07
-2.54554e-06
3.44457e-07
-2.50677e-06
-1.21764e-07
-2.43722e-06
-5.82578e-07
-2.33727e-06
-1.03724e-06
-2.20761e-06
-1.4824e-06
-2.04938e-06
-1.91369e-06
-1.86411e-06
-2.32649e-06
-1.65363e-06
-2.71692e-06
-1.42002e-06
-3.08202e-06
-1.16543e-06
-3.42071e-06
-8.91948e-07
-3.73287e-06
-6.01573e-07
-4.02103e-06
-2.95889e-07
-4.28737e-06
2.36628e-08
-4.5377e-06
3.56399e-07
-4.77449e-06
7.01484e-07
-5.00594e-06
1.05931e-06
-5.23195e-06
1.42935e-06
-5.46225e-06
1.81304e-06
-5.69113e-06
2.2097e-06
-5.92995e-06
2.62183e-06
-6.16261e-06
3.04695e-06
-6.41887e-06
3.49048e-06
-6.63065e-06
3.94389e-06
-6.91098e-06
4.41906e-06
-7.0562e-06
4.89531e-06
-7.3665e-06
5.39948e-06
-7.3429e-06
5.88423e-06
-7.7216e-06
6.4118e-06
-7.35133e-06
6.87764e-06
-7.9287e-06
7.4275e-06
-6.99954e-06
7.8393e-06
-8.13169e-06
8.4507e-06
-7.32738e-06
-1.11245e-05
9.19307e-06
5.45372e-05
7.66232e-06
4.28798e-05
5.04111e-06
2.95615e-05
2.49242e-06
1.88911e-05
5.76287e-07
7.82432e-06
-2.2862e-07
3.78627e-06
-4.53762e-07
1.27625e-06
-5.75323e-07
1.76166e-06
-6.48887e-07
1.95375e-06
-7.54377e-07
2.4584e-06
-8.67955e-07
2.80382e-06
-1.01006e-06
2.90478e-06
-1.16485e-06
2.77819e-06
-1.33082e-06
2.33543e-06
-1.49271e-06
1.72921e-06
-1.63902e-06
1.15586e-06
-1.75498e-06
1.0166e-06
-1.8347e-06
1.58058e-06
-1.89085e-06
2.66993e-06
-1.95541e-06
3.53476e-06
-2.04716e-06
3.62484e-06
-2.15327e-06
3.14094e-06
-2.2504e-06
2.51403e-06
-2.32497e-06
1.91364e-06
-2.3718e-06
1.35937e-06
-2.3891e-06
8.36872e-07
-2.37625e-06
3.31612e-07
-2.33303e-06
-1.64983e-07
-2.25945e-06
-6.56159e-07
-2.15584e-06
-1.14086e-06
-2.02291e-06
-1.61534e-06
-1.86181e-06
-2.07479e-06
-1.67409e-06
-2.51421e-06
-1.46164e-06
-2.92937e-06
-1.22657e-06
-3.3171e-06
-9.71067e-07
-3.67621e-06
-6.97276e-07
-4.00666e-06
-4.07218e-07
-4.31109e-06
-1.02505e-07
-4.59209e-06
2.15409e-07
-4.85562e-06
5.45821e-07
-5.1049e-06
8.8792e-07
-5.34804e-06
1.24207e-06
-5.5861e-06
1.60781e-06
-5.828e-06
1.98656e-06
-6.06987e-06
2.37773e-06
-6.32112e-06
2.78376e-06
-6.56864e-06
3.20236e-06
-6.83746e-06
3.63877e-06
-7.06706e-06
4.08487e-06
-7.35708e-06
4.55216e-06
-7.52348e-06
5.02058e-06
-7.83492e-06
5.51634e-06
-7.83866e-06
5.99306e-06
-8.19832e-06
6.51194e-06
-7.87021e-06
6.96979e-06
-8.38655e-06
7.51053e-06
-7.54028e-06
7.91363e-06
-8.53478e-06
8.50919e-06
-7.92294e-06
-1.14207e-05
9.35626e-06
5.5181e-05
8.06036e-06
4.41757e-05
5.66278e-06
3.19591e-05
3.10929e-06
2.14446e-05
9.94184e-07
9.93942e-06
-3.94e-08
4.81985e-06
-3.80281e-07
1.61713e-06
-5.24251e-07
1.90563e-06
-5.97481e-07
2.02698e-06
-6.96661e-07
2.55758e-06
-8.01152e-07
2.90831e-06
-9.34846e-07
3.03848e-06
-1.08332e-06
2.92666e-06
-1.24676e-06
2.49887e-06
-1.4103e-06
1.89274e-06
-1.56118e-06
1.30675e-06
-1.68084e-06
1.13626e-06
-1.75843e-06
1.65818e-06
-1.80379e-06
2.71529e-06
-1.85117e-06
3.58213e-06
-1.92505e-06
3.69872e-06
-2.01651e-06
3.23241e-06
-2.10267e-06
2.60018e-06
-2.16889e-06
1.97986e-06
-2.20899e-06
1.39947e-06
-2.22058e-06
8.48464e-07
-2.20272e-06
3.13755e-07
-2.15501e-06
-2.12699e-07
-2.07736e-06
-7.33808e-07
-1.97007e-06
-1.24814e-06
-1.83386e-06
-1.75154e-06
-1.6699e-06
-2.23875e-06
-1.47976e-06
-2.70435e-06
-1.26537e-06
-3.14376e-06
-1.02886e-06
-3.5536e-06
-7.72505e-07
-3.93257e-06
-4.98461e-07
-4.28071e-06
-2.08788e-07
-4.60076e-06
9.48716e-08
-4.89575e-06
4.11054e-07
-5.1718e-06
7.39034e-07
-5.43288e-06
1.07802e-06
-5.68703e-06
1.42836e-06
-5.93644e-06
1.78966e-06
-6.1893e-06
2.16329e-06
-6.4435e-06
2.54879e-06
-6.70662e-06
2.94853e-06
-6.96838e-06
3.36038e-06
-7.24932e-06
3.78946e-06
-7.49614e-06
4.228e-06
-7.79562e-06
4.68714e-06
-7.98262e-06
5.14747e-06
-8.29525e-06
5.63451e-06
-8.3257e-06
6.10294e-06
-8.66675e-06
6.61279e-06
-8.38005e-06
7.06241e-06
-8.83618e-06
7.59356e-06
-8.07144e-06
7.98775e-06
-8.92897e-06
8.56716e-06
-8.50236e-06
-1.16921e-05
9.49749e-06
5.56835e-05
8.41749e-06
4.52557e-05
6.25543e-06
3.41212e-05
3.74643e-06
2.39536e-05
1.48288e-06
1.2203e-05
2.31342e-07
6.07139e-06
-2.78684e-07
2.12715e-06
-4.61472e-07
2.08842e-06
-5.39487e-07
2.105e-06
-6.34172e-07
2.65227e-06
-7.30284e-07
3.00442e-06
-8.55649e-07
3.16384e-06
-9.97408e-07
3.06842e-06
-1.15753e-06
2.65899e-06
-1.32167e-06
2.05688e-06
-1.47615e-06
1.46122e-06
-1.59908e-06
1.25919e-06
-1.67513e-06
1.73423e-06
-1.7111e-06
2.75126e-06
-1.74269e-06
3.61372e-06
-1.79938e-06
3.75541e-06
-1.87625e-06
3.30928e-06
-1.95124e-06
2.67517e-06
-2.00889e-06
2.03751e-06
-2.04209e-06
1.43268e-06
-2.04786e-06
8.54234e-07
-2.02492e-06
2.90809e-07
-1.97266e-06
-2.6496e-07
-1.89091e-06
-8.15552e-07
-1.77995e-06
-1.35911e-06
-1.64046e-06
-1.89102e-06
-1.47365e-06
-2.40557e-06
-1.28111e-06
-2.89689e-06
-1.0648e-06
-3.36006e-06
-8.26916e-07
-3.79149e-06
-5.69749e-07
-4.18973e-06
-2.95511e-07
-4.55494e-06
-6.29555e-09
-4.88998e-06
2.96227e-07
-5.19827e-06
6.10582e-07
-5.48615e-06
9.36021e-07
-5.75832e-06
1.27178e-06
-6.02278e-06
1.61817e-06
-6.28282e-06
1.97488e-06
-6.54601e-06
2.34323e-06
-6.81185e-06
2.72287e-06
-7.08627e-06
3.11613e-06
-7.36164e-06
3.52105e-06
-7.65423e-06
3.94257e-06
-7.91767e-06
4.3733e-06
-8.22635e-06
4.82405e-06
-8.43336e-06
5.27602e-06
-8.74722e-06
5.75407e-06
-8.80376e-06
6.21394e-06
-9.12662e-06
6.71441e-06
-8.88053e-06
7.15555e-06
-9.27731e-06
7.67671e-06
-8.59259e-06
8.06173e-06
-9.31399e-06
8.62477e-06
-9.06539e-06
-1.19402e-05
9.62e-06
5.60635e-05
8.736e-06
4.61397e-05
6.81446e-06
3.60427e-05
4.39336e-06
2.63747e-05
2.02977e-06
1.45666e-05
5.63135e-07
7.53802e-06
-1.34925e-07
2.82521e-06
-3.82378e-07
2.33587e-06
-4.73157e-07
2.19577e-06
-5.65973e-07
2.74508e-06
-6.54779e-07
3.09323e-06
-7.72083e-07
3.28114e-06
-9.06841e-07
3.20318e-06
-1.06292e-06
2.81508e-06
-1.22665e-06
2.22061e-06
-1.38373e-06
1.6183e-06
-1.50951e-06
1.38497e-06
-1.58454e-06
1.80925e-06
-1.61248e-06
2.7792e-06
-1.62968e-06
3.63092e-06
-1.66994e-06
3.79567e-06
-1.73234e-06
3.37169e-06
-1.79601e-06
2.73884e-06
-1.8449e-06
2.0864e-06
-1.87106e-06
1.45884e-06
-1.8709e-06
8.54072e-07
-1.84279e-06
2.627e-07
-1.78594e-06
-3.2181e-07
-1.70008e-06
-9.01412e-07
-1.58542e-06
-1.47376e-06
-1.44268e-06
-2.03377e-06
-1.27303e-06
-2.57521e-06
-1.07812e-06
-3.0918e-06
-8.5994e-07
-3.57825e-06
-6.20718e-07
-4.03071e-06
-3.628e-07
-4.44765e-06
-8.84369e-08
-4.82931e-06
2.00245e-07
-5.17866e-06
5.01544e-07
-5.49957e-06
8.13972e-07
-5.79858e-06
1.13676e-06
-6.08111e-06
1.46916e-06
-6.35519e-06
1.81147e-06
-6.62513e-06
2.16344e-06
-6.89798e-06
2.52636e-06
-7.17477e-06
2.89998e-06
-7.45989e-06
3.28658e-06
-7.74824e-06
3.68435e-06
-8.052e-06
4.09811e-06
-8.33143e-06
4.5208e-06
-8.64905e-06
4.96291e-06
-8.87547e-06
5.40627e-06
-9.19057e-06
5.87506e-06
-9.27255e-06
6.32609e-06
-9.57766e-06
6.81689e-06
-9.37132e-06
7.24927e-06
-9.7097e-06
7.76005e-06
-9.10337e-06
8.13565e-06
-9.6896e-06
8.68214e-06
-9.61189e-06
-1.21658e-05
9.72668e-06
5.63368e-05
9.01857e-06
4.68478e-05
7.33655e-06
3.77247e-05
5.04022e-06
2.8671e-05
2.62289e-06
1.69839e-05
9.58722e-07
9.2022e-06
6.07586e-08
3.72318e-06
-2.80433e-07
2.67706e-06
-3.9603e-07
2.31137e-06
-4.90784e-07
2.83984e-06
-5.73879e-07
3.17632e-06
-6.83636e-07
3.3909e-06
-8.1125e-07
3.3308e-06
-9.62645e-07
2.96647e-06
-1.12499e-06
2.38296e-06
-1.28371e-06
1.77702e-06
-1.41186e-06
1.51313e-06
-1.48634e-06
1.88374e-06
-1.50757e-06
2.80043e-06
-1.51181e-06
3.63516e-06
-1.53646e-06
3.82032e-06
-1.5846e-06
3.41983e-06
-1.63685e-06
2.79109e-06
-1.67682e-06
2.12636e-06
-1.69578e-06
1.4778e-06
-1.68959e-06
8.47877e-07
-1.65625e-06
2.29363e-07
-1.59478e-06
-3.83285e-07
-1.50479e-06
-9.91401e-07
-1.38645e-06
-1.5921e-06
-1.24046e-06
-2.17976e-06
-1.06801e-06
-2.74766e-06
-8.70769e-07
-3.28905e-06
-6.50763e-07
-3.79825e-06
-4.10262e-07
-4.27121e-06
-1.51658e-07
-4.70626e-06
1.22757e-07
-5.10372e-06
4.10822e-07
-5.46672e-06
7.10804e-07
-5.79955e-06
1.0212e-06
-6.10898e-06
1.34123e-06
-6.40113e-06
1.67015e-06
-6.68411e-06
2.00824e-06
-6.96323e-06
2.35532e-06
-7.24505e-06
2.71266e-06
-7.5321e-06
3.08008e-06
-7.82732e-06
3.45984e-06
-8.128e-06
3.85027e-06
-8.44243e-06
4.25607e-06
-8.73722e-06
4.6705e-06
-9.06348e-06
5.10375e-06
-9.30872e-06
5.53823e-06
-9.62505e-06
5.9975e-06
-9.73182e-06
6.43943e-06
-1.00196e-05
6.92026e-06
-9.85215e-06
7.34362e-06
-1.01331e-05
7.84365e-06
-9.6034e-06
8.20955e-06
-1.00555e-05
8.73939e-06
-1.01417e-05
-1.23701e-05
9.82005e-06
5.65167e-05
9.26813e-06
4.73997e-05
7.81959e-06
3.91733e-05
5.67804e-06
3.08126e-05
3.25131e-06
1.94106e-05
1.41665e-06
1.10369e-05
3.07894e-07
4.83193e-06
-1.47337e-07
3.13229e-06
-3.04671e-07
2.46871e-06
-4.06863e-07
2.94203e-06
-4.86578e-07
3.25604e-06
-5.89641e-07
3.49396e-06
-7.10168e-07
3.45132e-06
-8.56352e-07
3.11266e-06
-1.01641e-06
2.54301e-06
-1.17581e-06
1.93642e-06
-1.30585e-06
1.64316e-06
-1.3802e-06
1.95809e-06
-1.39598e-06
2.81621e-06
-1.38868e-06
3.62787e-06
-1.39863e-06
3.83027e-06
-1.43279e-06
3.45399e-06
-1.47358e-06
2.83188e-06
-1.50449e-06
2.15727e-06
-1.51614e-06
1.48945e-06
-1.50382e-06
8.35559e-07
-1.4652e-06
1.90745e-07
-1.39908e-06
-4.4941e-07
-1.30496e-06
-1.08552e-06
-1.18296e-06
-1.7141e-06
-1.03375e-06
-2.32897e-06
-8.58541e-07
-2.92287e-06
-6.59014e-07
-3.48857e-06
-4.3724e-07
-4.02003e-06
-1.95529e-07
-4.51292e-06
6.36854e-08
-4.96547e-06
3.38069e-07
-5.37811e-06