/*--------------------------------*- C++ -*----------------------------------*\
| =========                 |                                                 |
| \\      /  F ield         | OpenFOAM: The Open Source CFD Toolbox           |
|  \\    /   O peration     | Version:  2.4.0                                 |
|   \\  /    A nd           | Web:      www.OpenFOAM.org                      |
|    \\/     M anipulation  |                                                 |
\*---------------------------------------------------------------------------*/
FoamFile
{
    version     2.0;
    format      ascii;
    class       volVectorField;
    location    "3.33";
    object      U;
}
// * * * * * * * * * * * * * * * * * * * * * * * * * * * * * * * * * * * * * //

dimensions      [0 1 -1 0 0 0 0];

internalField   nonuniform List<vector> 
6000
(
(0.513497 -0.0430671 -7.92623e-18)
(-0.317802 0.0668546 0)
(0.111968 -0.0274045 8.42659e-18)
(0.00867054 -0.00170485 0)
(0.00586945 6.2511e-05 0)
(-0.0294265 0.00566234 0)
(-0.00996788 0.00207473 3.65366e-18)
(-0.0245162 0.00436342 7.94452e-23)
(-0.0182871 0.00348656 0)
(-0.031857 0.00583266 0)
(-0.0471736 0.00880296 3.05154e-18)
(-0.0749757 0.0127837 -5.81048e-18)
(-0.102123 0.0160607 0)
(-0.124446 0.0173109 0)
(-0.129238 0.0155125 -1.26339e-18)
(-0.107563 0.00962747 0)
(-0.0553616 0.000612008 0)
(0.0302308 -0.0100509 -1.26918e-18)
(0.122587 -0.0165081 -1.20174e-18)
(0.174492 -0.0133969 0)
(0.118038 -0.00519392 1.17388e-18)
(0.055014 -0.00207474 6.22058e-19)
(0.0282509 0.00306839 -6.12204e-19)
(-0.112361 0.01613 0)
(-0.256742 0.0213193 0)
(-0.359318 0.0192843 0)
(-0.423728 0.015323 1.49665e-19)
(-0.466713 0.0112096 -1.2869e-19)
(-0.495701 0.00690421 0)
(-0.513982 0.00236724 0)
(-0.522033 -0.00229593 1.4657e-20)
(-0.519588 -0.00726489 0)
(-0.508739 -0.0117539 1.52623e-19)
(-0.489195 -0.0157847 -1.84012e-19)
(-0.46049 -0.0191677 0)
(-0.422001 -0.0216906 0)
(-0.37298 -0.0231121 6.68493e-19)
(-0.312606 -0.0231658 0)
(-0.24017 -0.0215515 9.45753e-19)
(-0.155417 -0.0179574 0)
(-0.0590807 -0.0121034 0)
(0.0470795 -0.0033931 2.69982e-18)
(0.15964 0.00777169 -5.64996e-18)
(0.273603 0.0212683 0)
(0.38334 0.0364796 0)
(0.482853 0.0525743 2.67113e-18)
(0.566772 0.0685742 0)
(0.631424 0.0835258 0)
(0.674841 0.0974304 -4.19628e-18)
(0.688277 0.106323 -3.93736e-18)
(0.674278 0.110615 -3.77552e-18)
(0.642819 0.111224 -6.00315e-21)
(0.601559 0.10924 3.75379e-18)
(0.565917 0.1068 0)
(0.532237 0.104537 -3.83291e-21)
(0.527115 0.106256 -3.96908e-18)
(0.509393 0.107485 3.62566e-18)
(0.554098 0.118997 3.69297e-18)
(0.529281 0.120525 1.19575e-20)
(0.659308 0.146872 0)
(0.726748 -0.108547 6.24973e-18)
(-0.20936 0.0626668 5.0554e-18)
(0.0919962 -0.031663 -4.08825e-18)
(-0.022874 0.00883907 -4.42498e-18)
(0.00510194 0.00136258 0)
(-0.04155 0.00861011 0)
(-0.0173598 0.00339577 -3.59146e-18)
(-0.0334501 0.00617843 6.9081e-18)
(-0.0279732 0.00567827 0)
(-0.0447507 0.00904809 0)
(-0.0636165 0.0131249 -2.95301e-18)
(-0.0926849 0.0173079 2.7957e-18)
(-0.118178 0.0200307 1.3161e-18)
(-0.136101 0.019779 0)
(-0.13758 0.0160089 1.19102e-18)
(-0.116375 0.00782833 0)
(-0.0652397 -0.00420348 0)
(0.0176035 -0.0171877 0)
(0.108391 -0.0227153 0)
(0.168408 -0.0131126 0)
(0.140783 -0.000431636 1.84113e-22)
(0.0678483 0.00407493 0)
(-0.0117387 0.0170398 -5.84931e-19)
(-0.19564 0.035756 0)
(-0.336806 0.0368954 0)
(-0.41576 0.0291363 1.68138e-19)
(-0.463814 0.0220201 -1.37853e-19)
(-0.496228 0.0159558 -5.7384e-23)
(-0.517218 0.0101753 5.33025e-20)
(-0.528784 0.00430136 0)
(-0.531962 -0.00160866 -1.3395e-20)
(-0.527796 -0.00741656 -5.90516e-20)
(-0.515163 -0.0130127 -1.00668e-21)
(-0.49358 -0.0182093 1.6678e-19)
(-0.462578 -0.0228006 -2.01654e-19)
(-0.421556 -0.0265534 0)
(-0.369793 -0.0291954 0)
(-0.306494 -0.030414 0)
(-0.230986 -0.0298293 0)
(-0.143057 -0.0270181 0)
(-0.0434779 -0.0215872 -2.1494e-18)
(0.0661127 -0.012881 0)
(0.182517 -0.00110653 2.47156e-18)
(0.300801 0.0137968 2.49834e-18)
(0.415338 0.0312055 0)
(0.520236 0.0501599 0)
(0.610338 0.0694935 0)
(0.681971 0.0880048 0)
(0.732582 0.104931 3.84551e-18)
(0.765551 0.119345 0)
(0.778298 0.130433 0)
(0.770476 0.136981 -3.466e-18)
(0.743966 0.139074 -3.50129e-18)
(0.709206 0.137655 0)
(0.670309 0.135245 -7.24861e-18)
(0.648929 0.133739 0)
(0.627994 0.135553 -6.79045e-18)
(0.657044 0.142183 -3.44462e-18)
(0.649318 0.150763 1.94713e-18)
(0.779318 0.175698 2.51228e-18)
(0.798638 -0.0913435 -3.36054e-19)
(-0.0779804 0.0480745 -4.72475e-18)
(0.0670757 -0.027672 0)
(-0.0547046 0.0170312 4.38808e-18)
(0.00211334 0.0025706 0)
(-0.0458417 0.00976302 0)
(-0.0214969 0.00421088 0)
(-0.0374525 0.00703058 -3.36924e-18)
(-0.032848 0.0072245 0)
(-0.0499215 0.0113068 -3.02099e-18)
(-0.0686202 0.0161171 0)
(-0.0961335 0.0201862 0)
(-0.120064 0.0222644 -1.24861e-18)
(-0.137469 0.0208084 0)
(-0.139997 0.0153129 0)
(-0.120565 0.00474345 0)
(-0.0722206 -0.0100688 0)
(0.00639785 -0.0249647 0)
(0.0936996 -0.0293582 0)
(0.153194 -0.013665 1.02733e-18)
(0.135563 0.00507918 -1.09007e-18)
(0.063659 0.0135836 0)
(-0.045613 0.0348943 -1.79661e-21)
(-0.228037 0.0550304 -4.87431e-19)
(-0.345082 0.048762 0)
(-0.411395 0.0355993 -3.06982e-19)
(-0.455702 0.0261495 0)
(-0.48668 0.0186618 1.06277e-19)
(-0.507136 0.0117827 -4.77269e-20)
(-0.518742 0.00495752 0)
(-0.52221 -0.00186144 0)
(-0.517825 -0.00849276 5.25224e-20)
(-0.504854 -0.0149387 -9.78437e-22)
(-0.482943 -0.0210364 0)
(-0.45161 -0.0265715 3.54996e-19)
(-0.410248 -0.0313172 0)
(-0.358132 -0.0350041 5.18296e-19)
(-0.294464 -0.0373104 0)
(-0.218566 -0.0378172 0)
(-0.13022 -0.0360245 0)
(-0.0301764 -0.0314202 1.86367e-18)
(0.0800115 -0.0233144 0)
(0.197067 -0.01171 0)
(0.316043 0.00355015 -2.17237e-18)
(0.431321 0.0218852 0)
(0.537074 0.0422817 0)
(0.628265 0.0634596 1.94285e-18)
(0.70131 0.0840765 -1.81762e-18)
(0.754051 0.103008 -1.70657e-18)
(0.787968 0.119743 0)
(0.803478 0.13337 0)
(0.801884 0.142814 0)
(0.78385 0.147944 3.2387e-18)
(0.756595 0.148589 3.35324e-18)
(0.721935 0.14735 3.39312e-18)
(0.700963 0.144696 0)
(0.678111 0.146251 3.17953e-18)
(0.705787 0.149037 6.45285e-18)
(0.69753 0.159893 0)
(0.826776 0.177622 -2.33624e-18)
(0.836468 -0.0599298 -2.63417e-19)
(0.0437664 0.0395406 4.3236e-18)
(0.0471983 -0.0204353 -3.97369e-18)
(-0.0754927 0.0222169 0)
(-0.000598243 0.00296739 0)
(-0.0477153 0.0105467 0)
(-0.0244349 0.0047478 0)
(-0.0399752 0.00768889 0)
(-0.0360518 0.00844595 0)
(-0.0526427 0.0131324 2.93082e-18)
(-0.0704714 0.018461 2.74425e-18)
(-0.0964823 0.0224904 0)
(-0.119517 0.0241337 0)
(-0.137117 0.0217493 0)
(-0.141006 0.0147048 1.04577e-18)
(-0.12382 0.00181246 0)
(-0.078771 -0.0157586 9.75553e-19)
(-0.0046029 -0.0325896 -9.62541e-19)
(0.0789953 -0.0359201 0)
(0.13767 -0.0145243 -9.82687e-19)
(0.125436 0.0106625 0)
(0.0544742 0.0246669 -5.59541e-19)
(-0.0720904 0.0532451 1.05984e-18)
(-0.241574 0.0720825 4.58656e-19)
(-0.340189 0.0585756 0)
(-0.400783 0.0414157 1.40469e-19)
(-0.443488 0.0301161 0)
(-0.47385 0.0213718 9.61348e-20)
(-0.494135 0.0134956 0)
(-0.505809 0.00579657 0)
(-0.509377 -0.00183386 0)
(-0.504902 -0.00937659 4.64407e-20)
(-0.491867 -0.016731 -2.16648e-19)
(-0.469934 -0.0237765 0)
(-0.438604 -0.0303108 -1.58473e-19)
(-0.397263 -0.036115 0)
(-0.34518 -0.0409241 -4.64314e-19)
(-0.281545 -0.0444076 0)
(-0.20567 -0.0461072 0)
(-0.11732 -0.0454423 0)
(-0.0172137 -0.0417858 1.64599e-18)
(0.0930716 -0.0343278 0)
(0.210159 -0.0228779 1.87896e-18)
(0.329104 -0.00720749 -1.91669e-18)
(0.444283 0.0121252 0)
(0.549899 0.0340323 -1.83196e-18)
(0.640982 0.0570896 -3.48124e-18)
(0.71404 0.0797899 1.63915e-18)
(0.767128 0.100883 3.07917e-18)
(0.801107 0.119489 -2.93959e-18)
(0.817075 0.134793 -2.87637e-18)
(0.817397 0.145924 0)
(0.803192 0.152833 -2.98987e-18)
(0.780867 0.154933 -3.11482e-18)
(0.750635 0.154727 -3.15631e-18)
(0.731802 0.151726 0)
(0.709369 0.153026 0)
(0.735082 0.153822 -3.00285e-18)
(0.72695 0.164921 0)
(0.850529 0.177145 2.11164e-18)
(0.861487 -0.034468 -2.4647e-19)
(0.153223 0.0356204 -8.98769e-20)
(0.0540923 -0.0146273 3.93796e-18)
(-0.0863836 0.0250053 4.33868e-18)
(-0.00312951 0.00288644 0)
(-0.0487149 0.0111836 -3.6889e-18)
(-0.0267266 0.00516598 0)
(-0.0418213 0.00825801 0)
(-0.0383318 0.00948105 0)
(-0.054094 0.0147152 2.85616e-18)
(-0.0708172 0.0204686 -2.65889e-18)
(-0.0954726 0.0245361 0)
(-0.117909 0.0258657 0)
(-0.13594 0.0226918 0)
(-0.141368 0.0141985 -9.98621e-19)
(-0.12675 -0.000913839 0)
(-0.0853541 -0.0211508 -9.24949e-19)
(-0.0158156 -0.0398936 9.12686e-19)
(0.0639008 -0.0423435 0)
(0.121869 -0.0156818 0)
(0.113585 0.0161474 5.11983e-19)
(0.0428545 0.0367442 5.42197e-19)
(-0.0926924 0.0711306 -1.01573e-18)
(-0.246214 0.0868813 -4.32118e-19)
(-0.331573 0.0670881 0)
(-0.388619 0.0469253 1.29897e-19)
(-0.430043 0.0340125 0)
(-0.459853 0.0240752 -8.81217e-20)
(-0.479938 0.0152225 3.9129e-20)
(-0.491582 0.00664595 0)
(-0.495151 -0.001836 0)
(-0.490628 -0.0102559 -8.46011e-20)
(-0.477604 -0.0185302 9.86822e-20)
(-0.45573 -0.0265377 0)
(-0.424495 -0.0340881 -1.4281e-19)
(-0.383279 -0.0409715 0)
(-0.331342 -0.0469278 4.20126e-19)
(-0.267865 -0.0516183 0)
(-0.192142 -0.0545441 0)
(-0.103921 -0.0550423 0)
(-0.00388177 -0.0523673 -1.51597e-18)
(0.106314 -0.0455728 -1.63706e-18)
(0.223215 -0.0342892 -1.73005e-18)
(0.341881 -0.0182108 1.01982e-20)
(0.456666 0.00212103 -1.73775e-18)
(0.561786 0.0255368 1.68801e-18)
(0.65232 0.0504587 3.18662e-18)
(0.72486 0.0752005 0)
(0.777613 0.0983262 -1.41628e-18)
(0.811202 0.118728 2.71332e-18)
(0.826968 0.135586 2.65286e-18)
(0.82782 0.148077 0)
(0.815343 0.156228 0)
(0.795844 0.159322 0)
(0.768881 0.159849 2.94059e-18)
(0.752218 0.156678 0)
(0.731035 0.157728 0)
(0.755538 0.156611 2.7811e-18)
(0.747686 0.167689 -1.49494e-18)
(0.865838 0.175456 -1.93454e-18)
(0.880271 -0.0137301 -2.28008e-19)
(0.250962 0.034851 -3.97091e-18)
(0.0814251 -0.00976461 0)
(-0.0882942 0.0267671 -4.31942e-18)
(-0.00564752 0.00261504 -3.86761e-18)
(-0.0492716 0.0117384 3.76087e-22)
(-0.0285408 0.00550507 0)
(-0.043222 0.00876423 0)
(-0.0399465 0.0103611 0)
(-0.0546964 0.0160923 -2.79084e-18)
(-0.0702052 0.0222251 0)
(-0.0936086 0.0263971 0)
(-0.115587 0.0275125 1.10486e-18)
(-0.134161 0.0236711 0)
(-0.141255 0.0138491 0)
(-0.129453 -0.00334197 0)
(-0.0920125 -0.0261086 0)
(-0.0272854 -0.0467202 -8.69644e-19)
(0.0483478 -0.0485108 0)
(0.105754 -0.01705 9.21111e-19)
(0.100782 0.0214782 -5.01145e-19)
(0.0299521 0.0492695 -5.26245e-19)
(-0.108535 0.08811 9.75913e-19)
(-0.245872 0.0998298 8.18971e-19)
(-0.32133 0.0746857 0)
(-0.375619 0.0521729 -1.21371e-19)
(-0.415813 0.0378077 0)
(-0.445043 0.0267381 0)
(-0.464864 0.0169358 -7.25469e-20)
(-0.476399 0.00749301 0)
(-0.479912 -0.00183881 0)
(-0.47535 -0.0111305 7.79521e-20)
(-0.462354 -0.0203176 0)
(-0.440562 -0.0292821 0)
(-0.409453 -0.0378453 1.3311e-19)
(-0.3684 -0.0458059 0)
(-0.316658 -0.0529094 -3.92693e-19)
(-0.253394 -0.058809 0)
(-0.177883 -0.0629654 0)
(-0.0898512 -0.0646324 0)
(0.0100514 -0.0629412 0)
(0.120055 -0.0568069 1.53926e-18)
(0.236664 -0.0456893 1.61062e-18)
(0.354931 -0.0292015 8.77538e-21)
(0.469175 -0.00787216 1.63549e-18)
(0.573613 0.0170433 1.56806e-18)
(0.663364 0.0438075 -1.49377e-18)
(0.7351 0.0705483 0)
(0.787151 0.0956377 -1.3131e-18)
(0.820063 0.117787 1.25768e-18)
(0.835294 0.136119 -2.45739e-18)
(0.836061 0.149808 0)
(0.8243 0.158932 0)
(0.806399 0.162741 -2.68486e-18)
(0.781694 0.163744 -2.73973e-18)
(0.766866 0.160417 2.82825e-18)
(0.747113 0.161149 2.56855e-18)
(0.771009 0.15848 -2.59972e-18)
(0.763604 0.1692 1.38981e-18)
(0.877241 0.173367 0)
(0.895339 0.00501422 -2.04965e-19)
(0.337845 0.0365254 0)
(0.120261 -0.004515 3.76277e-18)
(-0.07858 0.0275395 4.26419e-18)
(-0.00803046 0.00242541 -4.71447e-22)
(-0.0495209 0.0122162 3.61115e-18)
(-0.0299316 0.0057812 0)
(-0.0442597 0.00921163 0)
(-0.0410185 0.0110995 0)
(-0.0546527 0.0172817 1.36789e-18)
(-0.0688847 0.023771 1.26362e-18)
(-0.0910984 0.0281079 0)
(-0.112678 0.0290996 -1.07237e-18)
(-0.131843 0.024705 9.93379e-19)
(-0.14069 0.0136805 0)
(-0.131899 -0.00544099 0)
(-0.0986765 -0.0306002 0)
(-0.0389456 -0.0530419 3.31951e-21)
(0.032381 -0.0544088 0)
(0.0893106 -0.0185932 -1.8073e-18)
(0.0873636 0.0266478 4.91157e-19)
(0.0165275 0.0618545 5.12541e-19)
(-0.120466 0.103974 -1.2352e-21)
(-0.242421 0.111237 -3.89864e-19)
(-0.310141 0.081584 0)
(-0.361995 0.0571823 0)
(-0.400945 0.0414869 0)
(-0.42954 0.0293421 3.83049e-20)
(-0.449031 0.0186184 6.78906e-20)
(-0.460392 0.00832464 0)
(-0.463806 -0.00184792 0)
(-0.459195 -0.0120022 -7.26834e-20)
(-0.446225 -0.0220902 -4.20429e-20)
(-0.424516 -0.0320015 0)
(-0.393539 -0.041568 0)
(-0.352664 -0.0505974 0)
(-0.301137 -0.058841 0)
(-0.238114 -0.0659446 0)
(-0.162849 -0.0713293 0)
(-0.0750384 -0.0741651 0)
(0.0246807 -0.0734547 0)
(0.134428 -0.0679729 0)
(0.250683 -0.0570149 -7.19612e-21)
(0.36848 -0.0401111 1.57037e-18)
(0.482093 -0.0177799 0)
(0.585729 0.00863255 -2.98897e-18)
(0.674542 0.0372245 -1.40813e-18)
(0.745282 0.0659342 0)
(0.796391 0.0929434 1.25193e-18)
(0.828415 0.116805 -1.19637e-18)
(0.842888 0.136552 2.32889e-18)
(0.843228 0.15134 -2.336e-18)
(0.831628 0.161279 0)
(0.814598 0.165623 4.63034e-21)
(0.791432 0.166911 2.57674e-18)
(0.778071 0.163396 -5.31986e-18)
(0.759684 0.163736 -7.09591e-21)
(0.783357 0.159777 -2.43201e-18)
(0.776522 0.169929 1.26613e-18)
(0.886466 0.171114 1.63769e-18)
(0.907648 0.0223055 -1.97991e-18)
(0.414771 0.040094 0)
(0.16645 0.0014251 9.91334e-21)
(-0.057004 0.0277116 -3.26602e-21)
(-0.00966973 0.00253353 3.88988e-18)
(-0.0494893 0.0126194 3.59111e-18)
(-0.0309095 0.0060005 0)
(-0.0449658 0.0096005 3.09264e-18)
(-0.0416193 0.0117039 0)
(-0.0540806 0.0182959 -1.34317e-18)
(-0.0669915 0.0251297 4.76769e-22)
(-0.0880451 0.0296873 -1.13928e-18)
(-0.109235 0.03064 0)
(-0.128994 0.0258021 -1.93583e-18)
(-0.139643 0.0137056 0)
(-0.134007 -0.00719629 0)
(-0.105227 -0.0346167 0)
(-0.0506829 -0.0588638 8.22639e-19)
(0.0161154 -0.0600344 0)
(0.0725484 -0.0202966 8.90761e-19)
(0.0735394 0.0316411 -9.68471e-19)
(0.00312139 0.0742255 0)
(-0.12915 0.118618 -1.61496e-21)
(-0.23687 0.121317 0)
(-0.29829 0.0879136 0)
(-0.347839 0.0619687 -1.08048e-19)
(-0.385506 0.0450457 0)
(-0.413407 0.03188 -7.25321e-20)
(-0.432505 0.0202633 -3.21176e-20)
(-0.443636 0.00913534 -7.56228e-21)
(-0.446912 -0.00186576 7.74603e-21)
(-0.442238 -0.0128719 3.43625e-20)
(-0.42928 -0.0238492 7.95657e-20)
(-0.407645 -0.0346967 0)
(-0.376797 -0.0452568 1.1692e-19)
(-0.3361 -0.0553458 0)
(-0.284798 -0.0647216 0)
(-0.22203 -0.073024 0)
(-0.147027 -0.0796347 4.94916e-19)
(-0.0594575 -0.0836389 0)
(0.0400421 -0.0839057 0)
(0.149488 -0.0790667 1.39928e-18)
(0.265351 -0.0682583 -1.48053e-18)
(0.382632 -0.0509258 0)
(0.495549 -0.0275804 0)
(0.598294 0.000336367 1.44158e-18)
(0.686051 0.0307529 1.36168e-18)
(0.755648 0.0614141 -1.26571e-18)
(0.805636 0.0903146 0)
(0.836601 0.115855 0)
(0.850147 0.13697 0)
(0.849833 0.152789 9.44125e-21)
(0.838048 0.163432 0)
(0.821428 0.168187 2.39091e-18)
(0.799298 0.169617 0)
(0.787087 0.165874 2.51647e-18)
(0.769925 0.165756 -2.27909e-18)
(0.793604 0.160682 4.59133e-18)
(0.787412 0.170138 -1.19126e-18)
(0.894313 0.168797 -1.53588e-18)
(0.917684 0.0379387 1.70966e-19)
(0.48262 0.0450203 -3.42201e-18)
(0.217228 0.00802494 -3.55527e-18)
(-0.026497 0.0280429 -3.25974e-21)
(-0.00940067 0.00308393 -3.90246e-18)
(-0.049122 0.0129709 -3.58508e-18)
(-0.0314618 0.00616601 0)
(-0.0453497 0.00993097 -3.0606e-18)
(-0.0417966 0.0121802 0)
(-0.0530571 0.0191443 -1.32216e-18)
(-0.0646095 0.0263156 -1.21362e-18)
(-0.0845066 0.0311456 1.11513e-18)
(-0.10528 0.0321386 -1.02263e-18)
(-0.125604 0.0269647 9.46637e-19)
(-0.138059 0.0139291 -8.88602e-19)
(-0.135672 -0.00860051 8.37467e-19)
(-0.11152 -0.0381525 0)
(-0.0623657 -0.0641813 0)
(-0.000263943 -0.0653922 0)
(0.0554956 -0.0221541 4.39952e-19)
(0.0594678 0.0364187 4.78722e-19)
(-0.0098757 0.0861761 0)
(-0.135106 0.131993 -4.38835e-19)
(-0.229812 0.13023 0)
(-0.285912 0.0937565 0)
(-0.3332 0.0665383 1.03376e-19)
(-0.369542 0.0484807 -8.24183e-20)
(-0.396689 0.0343463 3.45821e-20)
(-0.415335 0.021865 0)
(-0.426187 0.00992051 1.4397e-20)
(-0.429292 -0.00189614 -1.47458e-20)
(-0.424533 -0.0137422 0)
(-0.411571 -0.0255976 -3.79241e-20)
(-0.389997 -0.0373714 9.06913e-20)
(-0.359268 -0.0489156 -1.12335e-19)
(-0.318746 -0.0600552 0)
(-0.267668 -0.0705557 0)
(-0.205161 -0.0800515 0)
(-0.130429 -0.0878863 -4.79573e-19)
(-0.0431098 -0.0930584 0)
(0.0561392 -0.0942977 0)
(0.165253 -0.0900917 -1.36269e-18)
(0.280699 -0.079421 0)
(0.39743 -0.0616439 1.46123e-18)
(0.5096 -0.0372667 -1.44542e-18)
(0.611381 -0.00783228 0)
(0.697985 0.0244128 1.311e-18)
(0.766318 0.0570163 2.45911e-18)
(0.81504 0.087787 -1.15029e-18)
(0.844803 0.114978 0)
(0.857281 0.137422 0)
(0.856144 0.154217 1.07267e-18)
(0.843936 0.165483 0)
(0.827412 0.170554 2.27604e-18)
(0.805958 0.172018 0)
(0.794637 0.168003 2.39239e-18)
(0.778548 0.167368 2.15643e-18)
(0.802362 0.161297 -2.17924e-18)
(0.796846 0.16998 0)
(0.901211 0.16645 1.446e-18)
(0.925858 0.0519199 1.24361e-18)
(0.542235 0.0508544 7.40199e-20)
(0.270425 0.0151726 3.47748e-18)
(0.0110053 0.0290094 -3.42854e-21)
(-0.00612074 0.00416169 -5.80488e-22)
(-0.0482592 0.0133163 0)
(-0.0315574 0.00628148 0)
(-0.045408 0.0102041 0)
(-0.0415842 0.0125334 -1.40175e-18)
(-0.0516369 0.0198341 2.60639e-18)
(-0.0617949 0.027338 0)
(-0.0805191 0.0324875 1.09515e-18)
(-0.100822 0.0335955 -2.15721e-22)
(-0.121648 0.0281902 -9.28039e-19)
(-0.135876 0.0143502 1.49159e-21)
(-0.136781 -0.00965078 -8.25384e-19)
(-0.117394 -0.041202 0)
(-0.0738272 -0.068989 0)
(-0.0165594 -0.0704767 0)
(0.038199 -0.0241611 -4.36438e-19)
(0.0452795 0.0409156 0)
(-0.0221752 0.097548 4.75031e-19)
(-0.138749 0.144084 4.22964e-19)
(-0.221612 0.138109 -3.37524e-19)
(-0.273076 0.0991663 0)
(-0.31811 0.0708927 0)
(-0.353086 0.0517877 7.92129e-20)
(-0.379422 0.0367356 0)
(-0.397563 0.0234186 2.89671e-20)
(-0.408093 0.0106759 -6.89242e-21)
(-0.410996 -0.0019425 7.05873e-21)
(-0.406132 -0.0146163 -3.06825e-20)
(-0.393148 -0.027339 0)
(-0.371619 -0.0400293 -8.75098e-20)
(-0.340997 -0.0525483 0)
(-0.300641 -0.0647297 0)
(-0.249784 -0.0763471 3.22226e-19)
(-0.187538 -0.0870312 0)
(-0.113079 -0.0960884 0)
(-0.0260149 -0.102427 0)
(0.0729564 -0.104633 0)
(0.181717 -0.10105 0)
(0.296727 -0.0905048 0)
(0.412881 -0.0722652 -2.86714e-18)
(0.524263 -0.0468359 1.42253e-18)
(0.625016 -0.0158665 1.35989e-18)
(0.710382 0.0182154 -2.56988e-18)
(0.777349 0.052757 -1.20353e-18)
(0.824684 0.0853812 1.12815e-18)
(0.85312 0.114198 -1.06281e-18)
(0.864408 0.137938 0)
(0.862313 0.155664 4.77568e-21)
(0.849506 0.167486 -2.0949e-18)
(0.832851 0.172798 -2.18952e-18)
(0.811804 0.174208 -2.21797e-18)
(0.801166 0.16988 -4.58127e-18)
(0.786003 0.168678 -2.06238e-18)
(0.810026 0.161689 2.07686e-18)
(0.805194 0.169549 1.03589e-18)
(0.907419 0.164087 -1.37626e-18)
(0.932539 0.0644516 -1.4911e-19)
(0.59442 0.0572526 3.25784e-18)
(0.324352 0.0227433 2.38122e-21)
(0.0546677 0.0306778 -3.80763e-21)
(0.00118877 0.0061031 3.84767e-18)
(-0.0465768 0.0137179 3.61034e-18)
(-0.0311409 0.00635531 -3.24576e-18)
(-0.0451258 0.0104223 1.50682e-18)
(-0.0410058 0.0127691 -1.94005e-22)
(-0.0498616 0.0203712 -1.28653e-18)
(-0.0585891 0.0282022 -1.17638e-18)
(-0.076108 0.0337142 -1.07685e-18)
(-0.0958659 0.0350071 1.97136e-18)
(-0.117103 0.0294726 4.11506e-22)
(-0.133029 0.0149635 8.60049e-19)
(-0.137214 -0.0103486 0)
(-0.122681 -0.0437622 7.83457e-19)
(-0.0848776 -0.0732841 0)
(-0.0325637 -0.0752711 -7.90214e-19)
(0.020733 -0.0263139 -4.33355e-19)
(0.0310795 0.045048 -4.70139e-19)
(-0.0335536 0.108219 -7.40392e-22)
(-0.140404 0.154903 -4.12254e-19)
(-0.212505 0.145063 3.27144e-19)
(-0.259818 0.10418 0)
(-0.302593 0.0750311 -9.49024e-20)
(-0.336164 0.0549624 0)
(-0.36164 0.0390428 0)
(-0.379229 0.0249193 -2.79659e-20)
(-0.389399 0.0113977 0)
(-0.392073 -0.00200807 0)
(-0.387083 -0.0154974 2.96776e-20)
(-0.374059 -0.0290767 0)
(-0.352561 -0.0426741 0)
(-0.322034 -0.0561588 1.02615e-19)
(-0.281834 -0.0693734 0)
(-0.23119 -0.0821 -3.14166e-19)
(-0.169201 -0.0939672 0)
(-0.0950127 -0.104245 4.50904e-19)
(-0.00820499 -0.111747 0)
(0.0904652 -0.114914 0)
(0.198858 -0.111945 0)
(0.313417 -0.101512 0)
(0.428972 -0.0827908 1.41494e-18)
(0.539528 -0.0562869 0)
(0.639197 -0.0237628 -2.68488e-18)
(0.72325 0.0121672 1.26742e-18)
(0.788758 0.0486458 -1.17134e-18)
(0.834602 0.0831105 1.09587e-18)
(0.861605 0.113531 1.04541e-18)
(0.871598 0.138537 0)
(0.868431 0.157152 1.00024e-18)
(0.854887 0.169477 3.04809e-18)
(0.837928 0.174967 -2.11036e-18)
(0.817082 0.176249 2.13982e-18)
(0.806958 0.171568 2.20477e-18)
(0.79259 0.169754 0)
(0.81686 0.161903 -1.99381e-18)
(0.812702 0.168908 -1.97301e-18)
(0.913105 0.161716 0)
(0.938039 0.0757364 -6.26512e-19)
(0.639931 0.0639489 0)
(0.37768 0.030614 1.10906e-22)
(0.102676 0.0332109 -4.30343e-21)
(0.0152852 0.00850616 -3.78215e-18)
(-0.0434829 0.0142728 -7.26829e-18)
(-0.0301179 0.00640628 6.50291e-18)
(-0.0444747 0.0105902 -1.4996e-18)
(-0.0400759 0.0128931 1.37561e-18)
(-0.0477634 0.0207608 0)
(-0.0550248 0.0289117 -4.86489e-22)
(-0.0712933 0.0348245 0)
(-0.0904135 0.0363676 -1.94165e-18)
(-0.111946 0.0308031 8.99282e-19)
(-0.129457 0.0157603 0)
(-0.136858 -0.0107 0)
(-0.127213 -0.0458331 -7.77661e-19)
(-0.0953149 -0.0770656 0)
(-0.048083 -0.0797612 7.8399e-19)
(0.00323982 -0.0286058 4.30092e-19)
(0.016935 0.0488013 -3.1115e-22)
(-0.0438457 0.118054 -4.55936e-19)
(-0.140333 0.164478 -3.98735e-19)
(-0.202644 0.15118 0)
(-0.24616 0.108822 0)
(-0.286667 0.0789526 9.20572e-20)
(-0.318804 0.0580011 0)
(-0.343374 0.0412634 3.05007e-20)
(-0.360371 0.026363 -2.67282e-20)
(-0.370148 0.0120823 6.28473e-21)
(-0.372568 -0.00209582 -6.41231e-21)
(-0.367434 -0.0163883 2.81542e-20)
(-0.354354 -0.0308139 -3.29113e-20)
(-0.332873 -0.0453092 8.00326e-20)
(-0.302428 -0.059751 -1.00019e-19)
(-0.262372 -0.0739902 0)
(-0.211933 -0.0878185 0)
(-0.150194 -0.100864 0)
(-0.0762707 -0.11236 -2.54925e-21)
(0.010278 -0.121022 5.16045e-19)
(0.108628 -0.125143 0)
(0.216642 -0.122779 0)
(0.330739 -0.112446 0)
(0.445674 -0.0932232 0)
(0.555367 -0.0656205 0)
(0.653899 -0.0315198 9.22973e-21)
(0.736571 0.00627174 0)
(0.800541 0.0446888 2.31907e-18)
(0.844804 0.0809832 -2.16552e-18)
(0.870281 0.112987 -1.01771e-18)
(0.878886 0.139231 0)
(0.874554 0.158701 0)
(0.86016 0.17148 -1.97546e-18)
(0.842761 0.177092 3.98608e-21)
(0.821953 0.178184 -2.06888e-18)
(0.812204 0.17311 2.13112e-18)
(0.798515 0.170646 1.90247e-18)
(0.823051 0.161972 -1.92078e-18)
(0.819546 0.168101 1.87821e-18)
(0.918385 0.159339 1.26777e-18)
(0.942609 0.0859239 1.31865e-19)
(0.679473 0.0707344 -2.99793e-18)
(0.429393 0.0386693 -6.54055e-18)
(0.153583 0.0366632 -4.93332e-21)
(0.0362777 0.0113324 3.70342e-18)
(-0.0379763 0.015109 3.65284e-18)
(-0.0283278 0.00647254 -1.63233e-18)
(-0.0434067 0.0107153 0)
(-0.0387989 0.0129126 0)
(-0.0453681 0.0210079 1.26016e-18)
(-0.0511293 0.0294683 1.14711e-18)
(-0.0660931 0.0358157 0)
(-0.0844693 0.0376694 9.57763e-19)
(-0.10616 0.0321702 0)
(-0.125106 0.0167278 0)
(-0.135607 -0.0107148 0)
(-0.130824 -0.0474181 0)
(-0.104936 -0.0803322 7.64623e-19)
(-0.062952 -0.0839359 3.88616e-19)
(-0.0140162 -0.0310037 -4.27921e-19)
(0.00296276 0.0521245 -7.6638e-22)
(-0.0529363 0.12693 0)
(-0.138744 0.172848 3.9019e-19)
(-0.192133 0.156537 0)
(-0.232117 0.113113 0)
(-0.27035 0.0826564 8.87702e-20)
(-0.301028 0.0609006 -7.09297e-20)
(-0.324656 0.0433934 -2.96618e-20)
(-0.341026 0.0277463 2.59945e-20)
(-0.350382 0.012727 -1.21702e-20)
(-0.352527 -0.00220838 1.24138e-20)
(-0.347231 -0.0172918 -2.74255e-20)
(-0.334081 -0.0325536 3.20894e-20)
(-0.312604 -0.0479379 -8.57906e-22)
(-0.28223 -0.0633284 -9.59159e-20)
(-0.242309 -0.0785841 0)
(-0.192065 -0.093507 0)
(-0.130568 -0.107726 0)
(-0.0569006 -0.120439 -8.68957e-19)
(0.0293849 -0.130256 -5.1076e-19)
(0.127398 -0.135324 0)
(0.235027 -0.133558 0)
(0.34865 -0.123312 -1.34891e-18)
(0.462944 -0.103566 0)
(0.571739 -0.0748387 0)
(0.669083 -0.0391382 2.63774e-18)
(0.750311 0.000529939 -1.23206e-18)
(0.812673 0.0408886 -2.29631e-18)
(0.855278 0.0790044 9.63662e-21)
(0.879151 0.112574 2.01297e-18)
(0.886291 0.14003 9.58146e-19)
(0.880712 0.160321 0)
(0.865374 0.173512 9.66589e-19)
(0.847426 0.179196 2.00058e-18)
(0.826525 0.180042 2.01449e-18)
(0.817037 0.17454 -2.0703e-18)
(0.803927 0.171389 -1.8448e-18)
(0.828733 0.161918 1.8601e-18)
(0.825855 0.167159 -9.02936e-19)
(0.923342 0.156958 -1.22647e-18)
(0.946456 0.0951357 1.24623e-19)
(0.71371 0.0774493 2.97216e-18)
(0.478736 0.0467984 3.67185e-21)
(0.206214 0.0409869 -5.64296e-21)
(0.0633044 0.0148414 0)
(-0.0285834 0.0161757 0)
(-0.0255049 0.00661961 2.01598e-22)
(-0.041845 0.0108102 0)
(-0.0371667 0.0128363 0)
(-0.0426946 0.0211175 3.91631e-22)
(-0.0469269 0.0298729 0)
(-0.0605254 0.036684 0)
(-0.078041 0.0389036 9.46656e-19)
(-0.0997348 0.0335609 0)
(-0.119932 0.0178505 0)
(-0.133368 -0.0104069 0)
(-0.133364 -0.0485241 0)
(-0.113542 -0.0830809 -3.17404e-21)
(-0.0769863 -0.0877679 -3.86215e-19)
(-0.0307778 -0.0334871 8.49373e-19)
(-0.0107117 0.0549275 -1.26119e-21)
(-0.0607538 0.134798 4.39822e-19)
(-0.135802 0.180062 0)
(-0.181042 0.161197 2.93663e-19)
(-0.217697 0.117067 0)
(-0.253657 0.0861423 -8.6646e-20)
(-0.28286 0.0636586 3.15617e-22)
(-0.305514 0.0454299 0)
(-0.321228 0.0290663 0)
(-0.330139 0.0133291 5.84026e-23)
(-0.331992 -0.00234806 -7.04336e-23)
(-0.32652 -0.0182103 1.30668e-20)
(-0.313288 -0.0342983 0)
(-0.291806 -0.0505631 -7.56406e-20)
(-0.261493 -0.0668945 9.40377e-20)
(-0.221698 -0.0831592 0)
(-0.17164 -0.09917 -2.88507e-19)
(-0.110375 -0.114558 0)
(-0.0369533 -0.128485 2.63271e-21)
(0.0490605 -0.139453 0)
(0.146725 -0.145462 5.70823e-19)
(0.25396 -0.144286 6.29893e-19)
(0.367098 -0.134113 6.89638e-21)
(0.480728 -0.113822 -1.37909e-18)
(0.58859 -0.0839445 0)
(0.684695 -0.0466197 -1.01318e-20)
(0.764423 -0.00505895 1.23729e-18)
(0.825115 0.0372459 1.07608e-20)
(0.865999 0.077176 1.06635e-18)
(0.888203 0.112295 -8.76304e-21)
(0.893814 0.140939 -7.00082e-21)
(0.88692 0.162021 0)
(0.870563 0.175584 0)
(0.851975 0.181296 0)
(0.830874 0.181845 0)
(0.821551 0.175879 0)
(0.80893 0.172011 1.79041e-18)
(0.834004 0.161759 0)
(0.831724 0.166105 0)
(0.928037 0.154574 -1.1938e-18)
(0.94975 0.103485 -1.5692e-20)
(0.743263 0.0839782 0)
(0.525166 0.0548944 5.16513e-21)
(0.259578 0.0460761 -6.37312e-21)
(0.0957393 0.0190893 0)
(-0.0141008 0.0175335 1.80913e-18)
(-0.0212382 0.00693136 -1.65369e-18)
(-0.039669 0.0108957 0)
(-0.0351546 0.0126754 0)
(-0.0397548 0.0210954 -1.24099e-18)
(-0.0424396 0.0301261 0)
(-0.0546088 0.037425 0)
(-0.0711398 0.0400607 -9.36548e-19)
(-0.0926667 0.0349605 0)
(-0.113906 0.0191102 -8.18751e-19)
(-0.130065 -0.00979352 0)
(-0.134702 -0.0491611 0)
(-0.120951 -0.085309 -3.25716e-21)
(-0.0899945 -0.0912361 0)
(-0.0468305 -0.036053 -4.21078e-19)
(-0.0238867 0.0571553 4.58477e-19)
(-0.0672565 0.141624 -8.66787e-19)
(-0.131645 0.186172 3.70923e-19)
(-0.16942 0.165215 -2.87648e-19)
(-0.202906 0.120696 0)
(-0.236604 0.0894109 -8.40375e-20)
(-0.26432 0.0662736 1.34447e-19)
(-0.285976 0.0473704 0)
(-0.30101 0.0303208 -1.2115e-20)
(-0.309458 0.0138866 5.72177e-21)
(-0.311003 -0.00251676 -5.82635e-21)
(-0.305345 -0.0191457 -1.27936e-20)
(-0.292022 -0.0360502 0)
(-0.270526 -0.0531874 -7.25261e-20)
(-0.240268 -0.0704524 9.0526e-20)
(-0.20059 -0.0877191 0)
(-0.150709 -0.104812 2.84755e-19)
(-0.0896683 -0.121366 0)
(-0.0164827 -0.136504 4.2299e-19)
(0.0692455 -0.148616 0)
(0.166552 -0.15556 -5.69271e-19)
(0.273387 -0.154968 -6.30188e-19)
(0.386024 -0.144854 7.24342e-21)
(0.498964 -0.123997 1.38704e-18)
(0.605853 -0.0929411 0)
(0.700671 -0.0539671 -1.32068e-18)
(0.778844 -0.0104972 0)
(0.837814 0.033759 1.14359e-18)
(0.876927 0.0754978 0)
(0.897414 0.112152 -9.90954e-19)
(0.901445 0.141962 -1.8726e-18)
(0.893184 0.163807 0)
(0.875744 0.177706 0)
(0.856442 0.183404 0)
(0.835052 0.183611 9.62226e-19)
(0.825813 0.177146 0)
(0.813606 0.172532 -1.75412e-21)
(0.838942 0.16151 0)
(0.837228 0.164958 8.29588e-19)
(0.932519 0.152185 1.16399e-18)
(0.952629 0.111076 0)
(0.768707 0.0902425 2.77904e-18)
(0.568322 0.0628574 3.12125e-18)
(0.312807 0.051796 -7.0718e-21)
(0.132831 0.024034 0)
(0.00582622 0.0193008 -1.78409e-18)
(-0.0149819 0.00749967 0)
(-0.0366915 0.0110026 1.50575e-18)
(-0.0327148 0.0124453 1.35523e-18)
(-0.0365514 0.0209486 1.23517e-18)
(-0.037687 0.0302284 1.11801e-18)
(-0.0483634 0.0380337 1.01752e-18)
(-0.063782 0.0411304 0)
(-0.0849616 0.0363534 0)
(-0.107011 0.0204871 8.12874e-19)
(-0.125643 -0.00889471 0)
(-0.134728 -0.0493418 0)
(-0.127004 -0.0870148 -7.49546e-19)
(-0.101792 -0.0943227 0)
(-0.0619459 -0.0386832 -4.19392e-19)
(-0.0363588 0.0587681 0)
(-0.0724243 0.147382 4.27537e-19)
(-0.126383 0.191231 -3.64768e-19)
(-0.157301 0.168637 0)
(-0.187752 0.124012 0)
(-0.219204 0.0924635 3.33505e-22)
(-0.24543 0.0687447 -6.57525e-20)
(-0.26607 0.049213 0)
(-0.280407 0.0315079 1.18722e-20)
(-0.288376 0.014398 5.49602e-21)
(-0.289602 -0.00271603 -5.57713e-21)
(-0.283749 -0.0200996 0)
(-0.270327 -0.0378113 0)
(-0.248813 -0.0558132 8.43238e-22)
(-0.218604 -0.0740049 -9.46476e-22)
(-0.179037 -0.0922671 0)
(-0.129328 -0.110436 0)
(-0.0685013 -0.128153 3.42134e-19)
(0.00445389 -0.144498 0)
(0.0898791 -0.157749 0)
(0.18682 -0.165623 0)
(0.293243 -0.165608 0)
(0.405362 -0.155539 1.34778e-18)
(0.51758 -0.134093 1.38168e-18)
(0.623452 -0.101832 0)
(0.716932 -0.0611841 0)
(0.7935 -0.0157885 1.22693e-18)
(0.850706 0.0304245 0)
(0.888013 0.0739674 0)
(0.90675 0.112144 -9.75731e-19)
(0.909166 0.143101 9.31534e-19)
(0.899497 0.165681 0)
(0.880926 0.179884 0)
(0.86085 0.185528 0)
(0.839098 0.185351 -9.46382e-19)
(0.829874 0.178355 9.69283e-19)
(0.818013 0.172966 -3.42006e-18)
(0.843603 0.161181 0)
(0.842425 0.16373 -8.10367e-19)
(0.936825 0.149792 -1.14277e-18)
(0.955205 0.118003 0)
(0.790578 0.096192 -2.76404e-18)
(0.607994 0.0705986 0)
(0.365142 0.0580006 -5.04035e-18)
(0.173749 0.0296049 0)
(0.0312616 0.0215668 -1.75148e-18)
(-0.00612501 0.00848212 0)
(-0.0326273 0.0111753 -1.5153e-18)
(-0.0297673 0.0121674 -1.35781e-18)
(-0.0330745 0.0206861 -1.23088e-18)
(-0.0326861 0.0301811 -1.11092e-18)
(-0.0418104 0.0385054 -1.00963e-18)
(-0.0559883 0.0421022 0)