/*--------------------------------*- C++ -*----------------------------------*\
| =========                 |                                                 |
| \\      /  F ield         | OpenFOAM: The Open Source CFD Toolbox           |
|  \\    /   O peration     | Version:  2.4.0                                 |
|   \\  /    A nd           | Web:      www.OpenFOAM.org                      |
|    \\/     M anipulation  |                                                 |
\*---------------------------------------------------------------------------*/
FoamFile
{
    version     2.0;
    format      ascii;
    class       surfaceScalarField;
    location    "0.025";
    object      phi;
}
// * * * * * * * * * * * * * * * * * * * * * * * * * * * * * * * * * * * * * //

dimensions      [0 3 -1 0 0 0 0];

internalField   nonuniform List<scalar> 
26160
(
0.000634601
-6.05651e-08
0.000635081
-9.60956e-07
0.000635812
-1.16691e-06
0.000636454
-1.03043e-06
0.000636986
-8.76911e-07
0.000637449
-7.67814e-07
0.000637863
-6.82653e-07
0.000638234
-6.08318e-07
0.000638568
-5.42213e-07
-4.80673e-07
0.000638866
0.000597337
-3.79526e-07
0.000597132
-7.55753e-07
0.000596797
-8.31352e-07
0.000596486
-7.19388e-07
0.000596197
-5.88012e-07
0.00059591
-4.80706e-07
0.000595617
-3.90401e-07
0.00059532
-3.10834e-07
0.000595018
-2.40087e-07
-1.80071e-07
0.000594717
0.000561128
-2.55563e-07
0.000561444
-1.07166e-06
0.000561866
-1.25304e-06
0.000562249
-1.10225e-06
0.0005626
-9.39884e-07
0.000562942
-8.21874e-07
0.00056328
-7.28461e-07
0.000563616
-6.4765e-07
0.000563953
-5.7667e-07
-5.15145e-07
0.000564288
0.000527742
-3.69478e-07
0.000527828
-1.15741e-06
0.000527909
-1.33438e-06
0.000527976
-1.16879e-06
0.000528017
-9.80981e-07
0.000528035
-8.39487e-07
0.000528032
-7.26299e-07
0.000528014
-6.28683e-07
0.00052798
-5.43408e-07
-4.69166e-07
0.000527934
0.000496056
-4.06157e-07
0.000496285
-1.38718e-06
0.000496535
-1.584e-06
0.000496752
-1.38616e-06
0.000496942
-1.17087e-06
0.000497112
-1.00905e-06
0.000497265
-8.78922e-07
0.000497402
-7.66391e-07
0.000497527
-6.67907e-07
-5.83583e-07
0.000497641
0.000466388
-4.90342e-07
0.000466622
-1.622e-06
0.00046689
-1.8517e-06
0.000467122
-1.61805e-06
0.000467314
-1.36305e-06
0.000467476
-1.1709e-06
0.000467613
-1.01607e-06
0.000467729
-8.82026e-07
0.000467825
-7.64603e-07
-6.63411e-07
0.000467905
0.000438455
-5.77244e-07
0.000438734
-1.90111e-06
0.000439043
-2.16074e-06
0.00043931
-1.88484e-06
0.000439532
-1.58548e-06
0.000439721
-1.35951e-06
0.000439882
-1.17734e-06
0.00044002
-1.0199e-06
0.000440138
-8.8229e-07
-7.6446e-07
0.000440239
0.000412212
-6.83009e-07
0.00041253
-2.21921e-06
0.000412883
-2.51393e-06
0.000413188
-2.18982e-06
0.000413442
-1.83946e-06
0.000413657
-1.57432e-06
0.00041384
-1.36025e-06
0.000413995
-1.17534e-06
0.000414127
-1.0139e-06
-8.76031e-07
0.000414238
0.000387539
-8.05043e-07
0.000387901
-2.58071e-06
0.000388302
-2.9146e-06
0.000388647
-2.53566e-06
0.000388935
-2.12733e-06
0.000389179
-1.81757e-06
0.000389385
-1.56713e-06
0.000389561
-1.35091e-06
0.000389709
-1.16231e-06
-1.00177e-06
0.000389835
0.000364347
-9.44018e-07
0.000364754
-2.98763e-06
0.000365204
-3.36486e-06
0.000365593
-2.92452e-06
0.000365917
-2.45131e-06
0.000366191
-2.09149e-06
0.000366424
-1.80009e-06
0.000366621
-1.54849e-06
0.000366788
-1.3291e-06
-1.14285e-06
0.000366929
0.000342545
-1.10068e-06
0.000342999
-3.44079e-06
0.000343499
-3.86566e-06
0.000343933
-3.3578e-06
0.000344295
-2.81323e-06
0.000344601
-2.39817e-06
0.000344863
-2.06132e-06
0.000345084
-1.77023e-06
0.000345271
-1.5163e-06
-1.30115e-06
0.00034543
0.000322052
-1.2754e-06
0.00032255
-3.93958e-06
0.000323101
-4.41649e-06
0.000323579
-3.83592e-06
0.00032398
-3.21445e-06
0.000324322
-2.73958e-06
0.000324614
-2.35312e-06
0.000324862
-2.01857e-06
0.000325072
-1.7263e-06
-1.47897e-06
0.00032525
0.000302786
-1.46793e-06
0.000303328
-4.48156e-06
0.000303927
-5.01498e-06
0.000304449
-4.35805e-06
0.00030489
-3.65564e-06
0.000305268
-3.1175e-06
0.000305593
-2.67795e-06
0.000305871
-2.29632e-06
0.000306106
-1.96198e-06
-1.67916e-06
0.000306306
0.000284675
-1.67724e-06
0.000285256
-5.06211e-06
0.000285897
-5.65664e-06
0.000286461
-4.9219e-06
0.000286942
-4.13675e-06
0.000287358
-3.53349e-06
0.000287719
-3.03846e-06
0.000288029
-2.60675e-06
0.000288294
-2.22689e-06
-1.90533e-06
0.00028852
0.000267648
-1.90131e-06
0.00026826
-5.67415e-06
0.000268938
-6.33452e-06
0.000269539
-5.52347e-06
0.000270059
-4.65674e-06
0.000270515
-3.98876e-06
0.000270914
-3.4374e-06
0.000271261
-2.9536e-06
0.000271559
-2.52527e-06
-2.16198e-06
0.000271816
0.000251639
-2.13706e-06
0.000252273
-6.308e-06
0.000252977
-7.03911e-06
0.000253611
-6.15688e-06
0.000254167
-5.21342e-06
0.000254663
-4.48401e-06
0.000255103
-3.87758e-06
0.00025549
-3.34109e-06
0.000255827
-2.86211e-06
-2.45454e-06
0.00025612
0.000236585
-2.38026e-06
0.000237229
-6.95147e-06
0.000237948
-7.75833e-06
0.000238605
-6.81421e-06
0.000239195
-5.80323e-06
0.00023973
-5.01918e-06
0.000240214
-4.3616e-06
0.000240647
-3.77375e-06
0.000241028
-3.24312e-06
-2.78948e-06
0.000241363
0.000222428
-2.6256e-06
0.000223067
-7.59007e-06
0.000223786
-8.47771e-06
0.000224458
-7.48548e-06
0.000225075
-6.42097e-06
0.000225649
-5.59312e-06
0.000226179
-4.89157e-06
0.000226662
-4.25616e-06
0.000227093
-3.67457e-06
-3.17422e-06
0.000227478
0.000209114
-2.86678e-06
0.000209731
-8.20757e-06
0.000210434
-9.18079e-06
0.000211107
-8.15864e-06
0.000211746
-7.05954e-06
0.000212356
-6.20316e-06
0.000212933
-5.46861e-06
0.000213469
-4.79257e-06
0.000213958
-4.16296e-06
-3.61694e-06
0.0002144
0.000196589
-3.09689e-06
0.000197168
-8.78663e-06
0.000197837
-9.84966e-06
0.000198498
-8.8198e-06
0.000199149
-7.7097e-06
0.00019979
-6.84458e-06
0.000200414
-6.09227e-06
0.000201007
-5.38622e-06
0.000201559
-4.7145e-06
-4.12621e-06
0.000202068
0.000184807
-3.30873e-06
0.000185331
-9.30978e-06
0.000185947
-1.04658e-05
0.00018658
-9.45344e-06
0.000187231
-8.35994e-06
0.000187896
-7.51017e-06
0.000188564
-6.75979e-06
0.000189216
-6.03869e-06
0.000189836
-5.33444e-06
-4.71038e-06
0.00019042
0.000173723
-3.49525e-06
0.000174174
-9.76035e-06
0.000174719
-1.10107e-05
0.000175308
-1.0043e-05
0.000175945
-8.99643e-06
0.000176624
-8.18977e-06
0.00017733
-7.46539e-06
0.00017804
-6.74888e-06
0.000178732
-6.02614e-06
-5.37672e-06
0.000179398
0.000163295
-3.64996e-06
0.000163658
-1.01235e-05
0.000164115
-1.14675e-05
0.000164643
-1.05712e-05
0.00016525
-9.60322e-06
0.00016593
-8.86997e-06
0.000166665
-8.19964e-06
0.000167428
-7.51222e-06
0.000168192
-6.79007e-06
-6.13041e-06
0.000168946
0.000153484
-3.76732e-06
0.000153748
-1.03872e-05
0.000154102
-1.18213e-05
0.000154552
-1.10215e-05
0.000155111
-1.01626e-05
0.000155776
-9.53415e-06
0.000156525
-8.94893e-06
0.000157332
-8.3197e-06
0.000158165
-7.62273e-06
-6.97327e-06
0.000159008
0.000144255
-3.84304e-06
0.00014441
-1.05428e-05
0.000144649
-1.20603e-05
0.000145006
-1.13781e-05
0.000145499
-1.0656e-05
0.000146128
-1.01628e-05
0.000146875
-9.69536e-06
0.000147712
-9.15735e-06
0.000148605
-8.51567e-06
-7.90291e-06
0.000149535
0.000135573
-3.87428e-06
0.000135616
-1.0586e-05
0.000135732
-1.21768e-05
0.000135982
-1.16274e-05
0.00013639
-1.10647e-05
0.000136962
-1.0734e-05
0.000137683
-1.0417e-05
0.000138532
-1.0006e-05
0.000139471
-9.45523e-06
-8.91225e-06
0.000140481
0.000127407
-3.85958e-06
0.000127337
-1.05165e-05
0.000127328
-1.21673e-05
0.000127459
-1.17588e-05
0.000127765
-1.13709e-05
0.000128256
-1.12246e-05
0.000128927
-1.10878e-05
0.000129761
-1.084e-05
0.000130728
-1.04224e-05
-9.9939e-06
0.00013181
0.000119727
-3.79847e-06
0.000119549
-1.0339e-05
0.000119415
-1.20332e-05
0.000119422
-1.17653e-05
0.00011961
-1.15594e-05
0.000119997
-1.16117e-05
0.00012059
-1.16801e-05
0.000121375
-1.16257e-05
0.000122339
-1.13859e-05
-1.11523e-05
0.000123497
0.000112504
-3.69041e-06
0.000112225
-1.00608e-05
0.000111971
-1.17794e-05
0.00011185
-1.1644e-05
0.00011191
-1.16193e-05
0.000112175
-1.18764e-05
0.000112664
-1.21692e-05
0.000113376
-1.23378e-05
0.00011431
-1.23204e-05
-1.23631e-05
0.000115521
0.000105713
-3.53811e-06
0.000105342
-9.69018e-06
0.000104975
-1.1412e-05
0.000104724
-1.13932e-05
0.000104645
-1.15405e-05
0.000104769
-1.19996e-05
0.000105117
-1.2518e-05
0.000105712
-1.29328e-05
0.000106568
-1.31761e-05
0.000107782
-1.35765e-05
0.000633058
5.63863e-06
0.000627774
5.11293e-06
0.000623035
4.56512e-06
0.00061887
3.99032e-06
0.000615307
3.38663e-06
0.000612377
2.754e-06
0.000610109
2.09222e-06
0.000608537
1.39841e-06
0.000607708
6.56494e-07
0.000607665
-1.26788e-07
0.000608137
-6.37294e-07
0.000609179
-1.20326e-06
0.000610806
-1.78627e-06
0.000613023
-2.37231e-06
0.000615824
-2.95323e-06
0.000619197
-3.52258e-06
0.000623126
-4.07484e-06
0.00062759
-4.60538e-06
0.000632561
-5.11e-06
-5.58682e-06
0.000638013
0.0005899
1.04561e-05
0.000585494
9.51865e-06
0.000581544
8.51492e-06
0.000578074
7.46036e-06
0.0005751
6.36122e-06
0.00057263
5.22323e-06
0.000570667
4.05567e-06
0.000569194
2.87089e-06
0.000568165
1.68613e-06
0.0005675
5.37779e-07
0.000567622
-7.59054e-07
0.000568544
-2.12511e-06
0.000570187
-3.42968e-06
0.000572513
-4.69849e-06
0.000575492
-5.93231e-06
0.000579098
-7.12826e-06
0.000583306
-8.28227e-06
0.000588089
-9.38928e-06
0.000593423
-1.04437e-05
-1.14382e-05
0.000599275
0.000558914
1.58299e-05
0.000554024
1.44086e-05
0.000549638
1.29009e-05
0.000545788
1.13112e-05
0.000542499
9.6498e-06
0.000539794
7.92805e-06
0.000537694
6.15543e-06
0.000536226
4.33925e-06
0.00053543
2.48181e-06
0.000535414
5.53822e-07
0.000535908
-1.25241e-06
0.000536833
-3.05082e-06
0.000538261
-4.85723e-06
0.000540204
-6.64156e-06
0.00054266
-8.38819e-06
0.000545615
-1.00836e-05
0.000549048
-1.17153e-05
0.000552931
-1.32722e-05
0.000557231
-1.47438e-05
-1.61215e-05
0.000561915
0.000523435
2.03294e-05
0.000519329
1.85148e-05
0.000515645
1.65843e-05
0.000512406
1.45509e-05
0.000509631
1.24248e-05
0.000507341
1.0218e-05
0.000505551
7.94485e-06
0.00050427
5.62002e-06
0.000503493
3.2596e-06
0.000503158
8.88618e-07
0.000503414
-1.50902e-06
0.000504263
-3.89971e-06
0.000505672
-6.26564e-06
0.000507625
-8.5953e-06
0.000510112
-1.08743e-05
0.000513117
-1.30893e-05
0.000516629
-1.52271e-05
0.000520632
-1.72752e-05
0.00052511
-1.92214e-05
-2.10539e-05
0.000530042
0.000493179
2.47912e-05
0.000489118
2.25762e-05
0.000485481
2.02208e-05
0.000482292
1.77402e-05
0.000479569
1.51484e-05
0.000477326
1.24612e-05
0.000475575
9.6956e-06
0.000474326
6.86855e-06
0.000473589
3.99724e-06
0.000473378
1.0989e-06
0.000473677
-1.80787e-06
0.000474482
-4.70476e-06
0.000475791
-7.57411e-06
0.000477594
-1.03985e-05
0.00047988
-1.31605e-05
0.000482634
-1.58428e-05
0.000485835
-1.84284e-05
0.000489461
-2.09011e-05
0.000493485
-2.3245e-05
-2.54455e-05
0.000497876
0.000463776
2.89209e-05
0.000460012
2.63393e-05
0.000456638
2.3595e-05
0.000453674
2.07048e-05
0.000451138
1.76844e-05
0.000449047
1.45522e-05
0.000447414
1.13281e-05
0.000446251
8.03217e-06
0.000445563
4.68466e-06
0.000445356
1.30626e-06
0.00044563
-2.08226e-06
0.000446386
-5.46008e-06
0.000447618
-8.80634e-06
0.00044932
-1.21004e-05
0.000451481
-1.5322e-05
0.000454089
-1.84512e-05
0.00045713
-2.14689e-05
0.000460585
-2.43565e-05
0.000464437
-2.70964e-05
-2.9672e-05
0.000468663
0.000436348
3.28116e-05
0.000432804
2.98834e-05
0.000429628
2.67709e-05
0.000426839
2.34935e-05
0.000424455
2.00684e-05
0.000422491
1.65167e-05
0.000420958
1.2861e-05
0.000419866
9.12396e-06
0.000419222
5.32843e-06
0.000419031
1.49781e-06
0.000419293
-2.34427e-06
0.000420007
-6.17416e-06
0.000421169
-9.96827e-06
0.000422772
-1.37032e-05
0.000424806
-1.7356e-05
0.000427258
-2.0904e-05
0.000430115
-2.43255e-05
0.000433358
-2.75992e-05
0.000436966
-3.07047e-05
-3.36231e-05
0.000440917
0.000410581
3.64688e-05
0.000407251
3.3214e-05
0.000404266
2.97552e-05
0.000401646
2.61138e-05
0.000399406
2.23083e-05
0.000397561
1.8362e-05
0.000396121
1.43004e-05
0.000395097
1.01486e-05
0.000394493
5.93175e-06
0.000394315
1.67602e-06
0.000394563
-2.59243e-06
0.000395237
-6.84735e-06
0.000396331
-1.10625e-05
0.00039784
-1.52121e-05
0.000399754
-1.92703e-05
0.000402062
-2.32124e-05
0.000404751
-2.70138e-05
0.000407803
-3.06514e-05
0.000411201
-3.41023e-05
-3.73457e-05
0.000414923
0.000386395
3.99084e-05
0.000383264
3.63458e-05
0.000380458
3.25607e-05
0.000377995
2.85768e-05
0.00037589
2.44134e-05
0.000374156
2.00959e-05
0.000372804
1.56526e-05
0.000371842
1.11106e-05
0.000371276
6.49768e-06
0.00037111
1.84221e-06
0.000371344
-2.82714e-06
0.000371979
-7.48168e-06
0.000373009
-1.20928e-05
0.000374429
-1.66321e-05
0.00037623
-2.10717e-05
0.000378402
-2.53843e-05
0.000380932
-2.95432e-05
0.000383803
-3.35229e-05
0.000386999
-3.72987e-05
-4.08474e-05
0.000390501
0.000363693
4.31442e-05
0.000360748
3.92911e-05
0.00035811
3.51988e-05
0.000355794
3.08927e-05
0.000353815
2.63924e-05
0.000352185
2.17257e-05
0.000350915
1.69233e-05
0.000350011
1.20145e-05
0.000349479
7.02903e-06
0.000349324
1.99772e-06
0.000349545
-3.04852e-06
0.000350142
-8.07876e-06
0.000351112
-1.30621e-05
0.000352447
-1.79679e-05
0.000354142
-2.2766e-05
0.000356184
-2.7427e-05
0.000358563
-3.1922e-05
0.000361264
-3.62235e-05
0.00036427
-4.03049e-05
-4.41408e-05
0.000367564
0.000342385
4.61888e-05
0.000339615
4.20617e-05
0.000337134
3.76798e-05
0.000334956
3.30704e-05
0.000333095
2.82533e-05
0.000331563
2.3258e-05
0.000330368
1.81179e-05
0.000329519
1.28641e-05
0.000329019
7.52847e-06
0.000328873
2.14385e-06
0.000329081
-3.25668e-06
0.000329642
-8.64004e-06
0.000330553
-1.39732e-05
0.000331809
-1.92235e-05
0.000333402
-2.43586e-05
0.000335322
-2.93471e-05
0.000337558
-3.41581e-05
0.000340097
-3.87622e-05
0.000342923
-4.3131e-05
-4.72368e-05
0.000346019
0.000322385
4.90537e-05
0.000319779
4.46678e-05
0.000317446
4.00131e-05
0.000315398
3.51184e-05
0.000313648
3.00032e-05
0.000312207
2.46989e-05
0.000311083
1.92413e-05
0.000310284
1.36632e-05
0.000309814
7.99839e-06
0.000309677
2.28176e-06
0.000309872
-3.45165e-06
0.000310398
-9.16679e-06
0.000311254
-1.48287e-05
0.000312433
-2.04026e-05
0.000313929
-2.58544e-05
0.000315732
-3.11505e-05
0.000317832
-3.62585e-05
0.000320217
-4.11469e-05
0.000322872
-4.57859e-05
-5.01452e-05
0.00032578
0.000303611
5.17488e-05
0.00030116
4.71186e-05
0.000298967
4.22068e-05
0.000297041
3.70439e-05
0.000295396
3.16485e-05
0.000294041
2.60537e-05
0.000292985
2.02977e-05
0.000292233
1.44149e-05
0.00029179
8.44094e-06
0.00029166
2.41248e-06
0.000291841
-3.63352e-06
0.000292335
-9.66019e-06
0.000293137
-1.56307e-05
0.000294243
-2.15084e-05
0.000295646
-2.72575e-05
0.000297338
-3.28425e-05
0.000299309
-3.82293e-05
0.000301546
-4.33845e-05
0.000304038
-4.82773e-05
-5.28742e-05
0.000306767
0.000285986
5.42826e-05
0.000283683
4.94219e-05
0.000281622
4.42681e-05
0.000279813
3.88533e-05
0.000278266
3.31948e-05
0.000276993
2.73271e-05
0.000276
2.12908e-05
0.000275293
1.51221e-05
0.000274876
8.85792e-06
0.000274751
2.53688e-06
0.00027492
-3.80238e-06
0.000275381
-1.01213e-05
0.000276132
-1.63812e-05
0.000277167
-2.25439e-05
0.000278481
-2.85717e-05
0.000280067
-3.44276e-05
0.000281913
-4.00758e-05
0.00028401
-4.54812e-05
0.000286344
-5.06119e-05
-5.54311e-05
0.000288901
0.000269437
5.66617e-05
0.000267275
5.15837e-05
0.00026534
4.62024e-05
0.000263642
4.05516e-05
0.000262191
3.46463e-05
0.000260995
2.85227e-05
0.000260062
2.22237e-05
0.000259397
1.57869e-05
0.000259004
9.2508e-06
0.000258886
2.65561e-06
0.000259042
-3.95837e-06
0.000259471
-1.05509e-05
0.000260172
-1.70819e-05
0.00026114
-2.35115e-05
0.000262368
-2.98002e-05
0.00026385
-3.59096e-05
0.000265577
-4.18024e-05
0.000267537
-4.74418e-05
0.000269721
-5.27951e-05
-5.78214e-05
0.000272111
0.000253891
5.88904e-05
0.000251866
5.36082e-05
0.000250055
4.80138e-05
0.000248464
4.21424e-05
0.000247104
3.60065e-05
0.000245983
2.96434e-05
0.000245108
2.30986e-05
0.000244484
1.64111e-05
0.000244114
9.62064e-06
0.000244001
2.7691e-06
0.000244144
-4.10168e-06
0.000244543
-1.095e-05
0.000245196
-1.77343e-05
0.000246097
-2.44131e-05
0.000247243
-3.09455e-05
0.000248624
-3.72915e-05
0.000250235
-4.34126e-05
0.000252063
-4.92699e-05
0.000254098
-5.48309e-05
-6.00491e-05
0.000256326
0.000239282
6.0971e-05
0.000237393
5.54976e-05
0.000235702
4.97044e-05
0.000234216
4.3628e-05
0.000232946
3.72773e-05
0.000231898
3.06909e-05
0.00023108
2.3917e-05
0.000230495
1.69957e-05
0.000230148
9.96806e-06
0.000230039
2.87757e-06
0.00023017
-4.23253e-06
0.000230539
-1.13192e-05
0.000231144
-1.83393e-05
0.000231981
-2.52501e-05
0.000233045
-3.20093e-05
0.000234329
-3.85753e-05
0.000235825
-4.49084e-05
0.000237523
-5.09679e-05
0.000239413
-5.67215e-05
-6.21161e-05
0.00024148
0.000225546
6.29032e-05
0.000223791
5.7252e-05
0.000222221
5.12747e-05
0.00022084
4.50089e-05
0.000219658
3.84594e-05
0.000218683
3.16658e-05
0.000217921
2.46793e-05
0.000217375
1.75411e-05
0.00021705
1.02933e-05
0.000216947
2.98096e-06
0.000217066
-4.3512e-06
0.000217405
-1.16589e-05
0.000217964
-1.88977e-05
0.000218737
-2.60235e-05
0.00021972
-3.29926e-05
0.000220907
-3.97619e-05
0.000222289
-4.62909e-05
0.000223858
-5.25366e-05
0.000225604
-5.84675e-05
-6.40224e-05
0.00022751
0.00021262
6.46837e-05
0.000211003
5.88689e-05
0.000209555
5.27229e-05
0.00020828
4.6284e-05
0.000207187
3.95518e-05
0.000206286
3.25675e-05
0.00020558
2.53851e-05
0.000205074
1.80468e-05
0.000204772
1.05959e-05
0.000204674
3.07897e-06
0.00020478
-4.45795e-06
0.000205091
-1.19694e-05
0.000205603
-1.94096e-05
0.000206312
-2.67332e-05
0.000207215
-3.38951e-05
0.000208304
-4.0851e-05
0.000209572
-4.75593e-05
0.000211011
-5.39747e-05
0.00021261
-6.00674e-05
-6.57654e-05
0.000214353
0.000200445
6.63067e-05
0.000198971
6.03432e-05
0.000197649
5.4045e-05
0.000196483
4.74499e-05
0.000195483
4.0552e-05
0.000194656
3.33938e-05
0.000194009
2.60328e-05
0.000193544
1.85117e-05
0.000193265
1.0875e-05
0.000193172
3.17102e-06
0.000193268
-4.55307e-06
0.000193549
-1.22506e-05
0.000194014
-1.98746e-05
0.000194659
-2.73784e-05
0.00019548
-3.47158e-05
0.000196469
-4.18408e-05
0.000197621
-4.87113e-05
0.000198926
-5.52792e-05
0.000200376
-6.15173e-05
-6.73399e-05
0.00020195
0.000188964
6.77631e-05
0.00018764
6.16673e-05
0.00018645
5.52347e-05
0.000185399
4.85012e-05
0.000184495
4.14554e-05
0.000183748
3.41412e-05
0.000183162
2.66194e-05
0.00018274
1.89335e-05
0.000182486
1.11291e-05
0.0001824
3.25624e-06
0.000182484
-4.63674e-06
0.000182735
-1.2502e-05
0.000183152
-2.02915e-05
0.000183731
-2.79572e-05
0.000184467
-3.54518e-05
0.000185354
-4.27278e-05
0.000186385
-4.97426e-05
0.000187551
-5.64446e-05
0.000188844
-6.28107e-05
-6.87379e-05
0.000190242
0.00017812
6.9041e-05
0.000176957
6.28306e-05
0.000175909
5.62829e-05
0.00017498
4.94303e-05
0.00017418
4.22552e-05
0.000173517
3.48039e-05
0.000172996
2.71405e-05
0.000172621
1.9309e-05
0.000172394
1.13561e-05
0.000172317
3.33348e-06
0.000172389
-4.7091e-06
0.00017261
-1.27228e-05
0.000172976
-2.06584e-05
0.000173486
-2.84666e-05
0.000174133
-3.6099e-05
0.000174912
-4.35064e-05
0.000175815
-5.06462e-05
0.000176833
-5.74627e-05
0.000177961
-6.39384e-05
-6.99483e-05
0.000179171
0.000167861
7.0126e-05
0.000166871
6.382e-05
0.000165976
5.71781e-05
0.00016518
5.02265e-05
0.000164493
4.29423e-05
0.000163922
3.53746e-05
0.000163472
2.75903e-05
0.000163148
1.96336e-05
0.000162951
1.15527e-05
0.000162883
3.40122e-06
0.000162944
-4.77009e-06
0.000163133
-1.29113e-05
0.000163446
-2.09719e-05
0.000163881
-2.89016e-05
0.000164433
-3.66509e-05
0.000165096
-4.41688e-05
0.000165863
-5.1413e-05
0.000166722
-5.83227e-05
0.000167672
-6.48883e-05
-7.09574e-05
0.000168681
0.000158132
7.10016e-05
0.000157332
6.46203e-05
0.000156604
5.79063e-05
0.000155954
5.08766e-05
0.000155391
4.35047e-05
0.000154923
3.58431e-05
0.000154552
2.79605e-05
0.000154285
1.99012e-05
0.000154122
1.17151e-05
0.000154066
3.45759e-06
0.000154115
-4.81942e-06
0.000154269
-1.3065e-05
0.000154525
-2.12276e-05
0.000154879
-2.92557e-05
0.000155327
-3.70988e-05
0.000155863
-4.47046e-05
0.00015648
-5.20307e-05
0.000157168
-5.90107e-05
0.000157926
-6.56459e-05
-7.17483e-05
0.000158717
0.000148885
7.16513e-05
0.00014829
6.52153e-05
0.000147745
5.84514e-05
0.000147257
5.13643e-05
0.000146834
4.39275e-05
0.000146481
3.61968e-05
0.0001462
2.82411e-05
0.000145997
2.0104e-05
0.000145874
1.1838e-05
0.000145832
3.50025e-06
0.000145869
-4.85667e-06
0.000145985
-1.31808e-05
0.000146177
-2.14197e-05
0.000146442
-2.95207e-05
0.000146775
-3.74323e-05
0.000147172
-4.5101e-05
0.000147625
-5.24841e-05
0.000148124
-5.95096e-05
0.000148671
-6.61926e-05
-7.23001e-05
0.000149223
0.000140073
7.20596e-05
0.000139698
6.55899e-05
0.000139353
5.87963e-05
0.000139047
5.16704e-05
0.000138783
4.4192e-05
0.00013856
3.64195e-05
0.000138383
2.84182e-05
0.000138255
2.02317e-05
0.000138178
1.19151e-05
0.000138152
3.5266e-06
0.000138176
-4.88072e-06
0.000138249
-1.3254e-05
0.000138369
-2.15398e-05
0.000138533
-2.96847e-05
0.000138737
-3.76358e-05
0.000138975
-4.53397e-05
0.000139243
-5.2752e-05
0.000139533
-5.97997e-05
0.00013985
-6.65096e-05
-7.25939e-05
0.000140144
0.000131654
7.22155e-05
0.000131511
6.57331e-05
0.000131384
5.89233e-05
0.000131281
5.17729e-05
0.000131195
4.42779e-05
0.000131121
3.6494e-05
0.000131061
2.84775e-05
0.000131021
2.02722e-05
0.000130998
1.19375e-05
0.000130992
3.53257e-06
0.000131003
-4.89084e-06
0.000131027
-1.32786e-05
0.000131064
-2.15765e-05
0.000131111
-2.97314e-05
0.000131165
-3.76906e-05
0.000131227
-4.5401e-05
0.000131289
-5.28147e-05
0.000131354
-5.98642e-05
0.000131418
-6.65741e-05
-7.26039e-05
0.000131428
0.000123599
7.21137e-05
0.000123683
6.56487e-05
0.000123783
5.88232e-05
0.000123912
5.16443e-05
0.000124041
4.41485e-05
0.000124148
3.63872e-05
0.00012423
2.83954e-05
0.000124291
2.02119e-05
0.000124329
1.18995e-05
0.000124344
3.51777e-06
0.000124334
-4.88095e-06
0.000124298
-1.32432e-05
0.000124239
-2.15168e-05
0.000124156
-2.96491e-05
0.000124051
-3.75856e-05
0.000123923
-4.52724e-05
0.000123765
-5.2657e-05
0.000123581
-5.96807e-05
0.000123353
-6.63453e-05
-7.23028e-05
0.000123051
0.000115914
7.17205e-05
0.000116234
6.53295e-05
0.000116547
5.85097e-05
0.000116886
5.13054e-05
0.000117225
4.38095e-05
0.000117528
3.60838e-05
0.000117778
2.81454e-05
0.000117967
2.00229e-05
0.00011809
1.17765e-05
0.000118142
3.46585e-06
0.000118125
-4.8634e-06
0.000118037
-1.31556e-05
0.00011788
-2.13594e-05
0.000117652
-2.94213e-05
0.000117354
-3.72877e-05
0.000116989
-4.4907e-05
0.000116559
-5.22275e-05
0.000116079
-5.91999e-05
0.000115533
-6.58002e-05
-7.17862e-05
0.000115017
0.00010844
7.10618e-05
0.000109047
6.47226e-05
0.000109643
5.79135e-05
0.000110262
5.06866e-05
0.000110874
4.31974e-05
0.000111421
3.55372e-05
0.000111867
2.76988e-05
0.000112201
1.96898e-05
0.000112413
1.1564e-05
0.000112501
3.3775e-06
0.000112458
-4.81975e-06
0.000112279
-1.29771e-05
0.000111966
-2.10464e-05
0.000111525
-2.898e-05
0.000110967
-3.67299e-05
0.000110309
-4.42486e-05
0.000109571
-5.14901e-05
0.000108785
-5.84133e-05
0.000107977
-6.49921e-05
0.000107355
-7.11645e-05
0.000638122
-2.11216e-07
0.000638226
-2.08549e-07
0.000638325
-2.04691e-07
0.000638419
-2.00081e-07
0.000638505
-1.95386e-07
0.000638586
-1.90691e-07
0.000638661
-1.8563e-07
0.000638729
-1.79897e-07
0.00063879
-1.73411e-07
0.000638843
-1.66198e-07
0.000638889
-1.58335e-07
0.000638926
-1.50056e-07
0.000638955
-1.4184e-07
0.000638975
-1.31031e-07
0.000638973
-1.07019e-07
0.000638982
-1.1714e-07
0.000638964
-8.75177e-08
0.000638943
-8.21777e-08
0.000638906
-6.30542e-08
0.000638853
-4.31124e-08
0.000638785
-2.24553e-08
0.0006387
-1.39935e-09
0.000638601
1.97474e-08
0.000638487
4.11475e-08
0.000638347
7.51577e-08
0.000638184
1.07302e-07
0.000638003
1.33582e-07
0.000637813
1.54303e-07
0.000637626
1.61432e-07
0.000637457
1.53908e-07
0.000637292
1.62512e-07
0.000637124
1.76217e-07
0.000636954
1.91421e-07
0.000636781
2.06921e-07
0.000636608
2.22162e-07
0.000636434
2.36824e-07
0.000636261
2.50692e-07
0.000636092
2.63613e-07
0.000635926
2.75468e-07
0.000635765
2.86168e-07
0.000635612
2.95648e-07
0.000635467
3.0386e-07
0.00063533
3.10778e-07
0.000635204
3.16387e-07
0.000635089
3.20691e-07
0.000634985
3.23704e-07
0.000634893
3.25456e-07
0.000634813
3.25982e-07
0.000634745
3.2533e-07
0.000634688
3.23552e-07
0.000634643
3.20709e-07
0.000634608
3.16864e-07
0.000634584
3.12083e-07
0.000634568
3.06433e-07
0.000634561
2.99984e-07
0.000634561
2.92804e-07
0.000634568
2.8496e-07
0.00063458
2.7652e-07
0.000634597
2.67549e-07
0.000634617
2.58112e-07
0.00063464
2.4827e-07
0.000634665
2.38087e-07
0.000634691
2.27623e-07
0.000634717
2.16938e-07
0.000634744
2.06091e-07
0.000634771
1.95141e-07
0.000634797
1.84145e-07
0.000634822
1.7316e-07
0.000634846
1.6224e-07
0.000634868
1.51439e-07
0.000634889
1.40808e-07
0.000634909
1.30394e-07
0.000634927
1.20242e-07
0.000634944
1.10393e-07
0.000634959
1.00883e-07
0.000634972
9.17433e-08
0.000634985
8.30008e-08
0.000634996
7.46752e-08
0.000635005
6.67801e-08
0.000635014
5.9322e-08
0.000635021
5.23001e-08
0.000635028
4.57048e-08
0.000635033
3.95176e-08
0.000635038
3.37092e-08
0.000635042
2.82384e-08
0.000635045
2.30497e-08
0.000635047
1.80708e-08
0.000635049
1.32111e-08
0.00063505
8.3716e-09
3.01498e-09
0.000599068
-4.41347e-09
0.000598872
-1.27918e-08
0.000598687
-1.94541e-08
0.000598511
-2.46821e-08
0.000598345
-2.88055e-08
0.000598186
-3.19327e-08
0.000598034
-3.41099e-08
0.00059789
-3.54173e-08
0.000597752
-3.58945e-08
0.000597622
-3.55319e-08
0.000597498
-3.43508e-08
0.00059738
-3.23394e-08
0.000597268
-2.94432e-08
0.000597162
-2.55033e-08
0.000597076
-2.09915e-08
0.000596975
-1.64048e-08
0.000596898
-9.8433e-09
0.000596819
-3.01469e-09
0.000596751
4.92131e-09
0.000596694
1.37998e-08
0.000596648
2.36903e-08
0.000596612
3.46217e-08
0.00059659
4.10771e-08
0.000596579
5.25047e-08
0.000596594
6.01964e-08
0.000596631
6.99404e-08
0.000596684
8.11546e-08
0.000596741
9.72501e-08
0.000596771
1.30635e-07
0.000596774
1.51645e-07
0.000596768
1.67749e-07
0.000596763
1.81743e-07
0.00059676
1.94546e-07
0.00059676
2.06552e-07
0.000596764
2.17929e-07
0.000596773
2.2874e-07
0.000596784
2.38997e-07
0.000596799
2.48683e-07
0.000596817
2.57766e-07
0.000596837
2.66211e-07
0.000596858
2.73977e-07
0.000596881
2.81028e-07
0.000596905
2.87328e-07
0.000596928
2.92843e-07
0.000596951
2.97542e-07
0.000596974
3.01397e-07
0.000596995
3.04383e-07
0.000597014
3.06476e-07
0.000597032
3.07658e-07
0.000597048
3.07914e-07
0.000597061
3.07231e-07
0.000597072
3.05607e-07
0.000597081
3.03041e-07
0.000597088
2.99544e-07
0.000597093
2.95135e-07
0.000597096
2.89839e-07
0.000597097
2.83693e-07
0.000597097
2.76743e-07
0.000597096
2.69043e-07
0.000597093
2.60654e-07
0.00059709
2.51644e-07
0.000597086
2.42088e-07
0.000597081
2.32064e-07
0.000597077
2.21652e-07
0.000597072
2.10933e-07
0.000597067
1.99989e-07
0.000597062
1.88901e-07
0.000597058
1.77745e-07
0.000597053
1.66596e-07
0.000597049
1.55524e-07
0.000597045
1.44594e-07
0.000597042
1.33868e-07
0.000597039
1.23399e-07
0.000597036
1.13237e-07
0.000597033
1.03423e-07
0.000597031
9.3995e-08
0.000597029
8.49807e-08
0.000597027
7.64027e-08
0.000597026
6.82755e-08
0.000597025
6.06061e-08
0.000597023
5.33933e-08
0.000597023
4.66269e-08
0.000597022
4.02871e-08
0.000597021
3.43432e-08
0.000597021
2.8752e-08
0.00059702
2.34552e-08
0.00059702
1.83752e-08
0.00059702
1.34081e-08
0.00059702
8.41412e-09
2.97843e-09
0.000562076
-1.66153e-07
0.000562224
-1.60963e-07
0.000562361
-1.55801e-07
0.000562486
-1.49886e-07
0.000562601
-1.43318e-07
0.000562705
-1.3635e-07
0.0005628
-1.28942e-07
0.000562885
-1.20979e-07
0.000562962
-1.12431e-07
0.00056303
-1.03298e-07
0.000563089
-9.35445e-08
0.00056314
-8.31471e-08
0.000563182
-7.23027e-08
0.000563213
-5.60317e-08
0.000563244
-5.18015e-08
0.000563262
-3.45629e-08
0.000563269
-1.69296e-08
0.000563265
1.16308e-09
0.00056325
1.95669e-08
0.00056322
4.35593e-08
0.000563171
7.30549e-08
0.000563106
9.92692e-08
0.000563024
1.2383e-07
0.000562929
1.47525e-07
0.000562819
1.69885e-07
0.000562699
1.89491e-07
0.00056258
2.00351e-07
0.000562474
2.03267e-07
0.00056239
2.14419e-07
0.000562314
2.28394e-07
0.000562238
2.43001e-07
0.000562163
2.57447e-07
0.000562086
2.71294e-07
0.000562008
2.84295e-07
0.00056193
2.96293e-07
0.000561851
3.07179e-07
0.000561774
3.16878e-07
0.000561697
3.25338e-07
0.000561622
3.32529e-07
0.00056155
3.38439e-07
0.000561481
3.43068e-07
0.000561415
3.46434e-07
0.000561354
3.48564e-07
0.000561298
3.49498e-07
0.000561246
3.49284e-07
0.000561199
3.47977e-07
0.000561158
3.45641e-07
0.000561122
3.42339e-07
0.000561092
3.38141e-07
0.000561066
3.33115e-07
0.000561046
3.27328e-07
0.000561031
3.20847e-07
0.00056102
3.13735e-07
0.000561014
3.06053e-07
0.000561011
2.97857e-07
0.000561012
2.89201e-07
0.000561015
2.80134e-07
0.000561021
2.70704e-07
0.000561029
2.60955e-07
0.000561039
2.50931e-07
0.00056105
2.40675e-07
0.000561062
2.30227e-07
0.000561074
2.1963e-07
0.000561087
2.08926e-07
0.0005611
1.98156e-07
0.000561113
1.87364e-07
0.000561125
1.76593e-07
0.000561137
1.65887e-07
0.000561148
1.55289e-07
0.000561159
1.44842e-07
0.000561169
1.34588e-07
0.000561178
1.24566e-07
0.000561187
1.14815e-07
0.000561195
1.05369e-07
0.000561202
9.62593e-08
0.000561208
8.75138e-08
0.000561214
7.91549e-08
0.000561219
7.11999e-08
0.000561224
6.36604e-08
0.000561228
5.65416e-08
0.000561231
4.98416e-08
0.000561234
4.35509e-08
0.000561237
3.7651e-08
0.000561239
3.21139e-08
0.000561241
2.68999e-08
0.000561243
2.19557e-08
0.000561244
1.72118e-08
0.000561245
1.25791e-08
0.000561245
7.95486e-09
2.85539e-09
0.000529991
-1.15349e-07
0.000529939
-1.08352e-07
0.000529884
-1.00737e-07
0.000529827
-9.28206e-08
0.000529767
-8.40919e-08
0.000529705
-7.42662e-08
0.00052964
-6.32438e-08
0.000529569
-5.076e-08
0.000529493
-3.6249e-08
0.00052941
-2.00563e-08
0.000529325
-8.85502e-09
0.000529239
3.25446e-09
0.00052915
1.63044e-08
0.000529064
3.03826e-08
0.000528974
3.7887e-08
0.000528889
5.07806e-08
0.000528808
6.38483e-08
0.000528731
7.77693e-08
0.000528658
9.25085e-08
0.000528594
1.07972e-07
0.000528543
1.24111e-07
0.000528502
1.40692e-07
0.000528468
1.5757e-07
0.000528441
1.74766e-07
0.000528418
1.92893e-07
0.000528393
2.14306e-07
0.000528353
2.40015e-07
0.000528295
2.61667e-07
0.000528229
2.79651e-07