/*--------------------------------*- C++ -*----------------------------------*\
| =========                 |                                                 |
| \\      /  F ield         | OpenFOAM: The Open Source CFD Toolbox           |
|  \\    /   O peration     | Version:  2.4.0                                 |
|   \\  /    A nd           | Web:      www.OpenFOAM.org                      |
|    \\/     M anipulation  |                                                 |
\*---------------------------------------------------------------------------*/
FoamFile
{
    version     2.0;
    format      ascii;
    class       volVectorField;
    location    "1.6";
    object      U;
}
// * * * * * * * * * * * * * * * * * * * * * * * * * * * * * * * * * * * * * //

dimensions      [0 1 -1 0 0 0 0];

internalField   nonuniform List<vector> 
6000
(
(0.990441 -0.000273757 0)
(0.970231 0.0020497 0)
(0.948316 0.00334879 0)
(0.925587 0.00413663 0)
(0.903364 0.00452023 0)
(0.882322 0.00453154 0)
(0.862685 0.00428822 0)
(0.844553 0.00390126 0)
(0.82799 0.00344516 0)
(0.812998 0.00296863 0)
(0.79952 0.00250387 0)
(0.78746 0.00207086 0)
(0.7767 0.00168054 0)
(0.767117 0.0013377 0)
(0.758585 0.00104306 0)
(0.750981 0.000794886 0)
(0.744191 0.000589984 0)
(0.738106 0.000424424 0)
(0.732628 0.000293979 0)
(0.72767 0.00019438 0)
(0.723152 0.000121461 0)
(0.719005 7.12351e-05 0)
(0.715168 3.99364e-05 0)
(0.711589 2.40733e-05 0)
(0.708223 2.04484e-05 0)
(0.705033 2.62197e-05 0)
(0.701986 3.88905e-05 0)
(0.699058 5.62919e-05 0)
(0.696227 7.65889e-05 0)
(0.693477 9.83006e-05 0)
(0.690791 0.000120308 0)
(0.688159 0.000141845 0)
(0.685568 0.000162476 0)
(0.683007 0.000182072 0)
(0.680466 0.000200784 0)
(0.677929 0.000219028 0)
(0.675382 0.000237471 0)
(0.672804 0.000257032 0)
(0.670169 0.000278895 0)
(0.667447 0.000304542 0)
(0.664596 0.000335799 0)
(0.661563 0.00037491 0)
(0.658284 0.000424645 0)
(0.654673 0.000488443 0)
(0.650622 0.000570617 0)
(0.645993 0.000676628 0)
(0.64061 0.000813442 0)
(0.634245 0.000990029 0)
(0.62661 0.00121802 0)
(0.617328 0.00151264 0)
(0.605917 0.00189384 0)
(0.591746 0.00238819 0)
(0.574012 0.00303006 0)
(0.551615 0.00386648 0)
(0.523329 0.00494682 0)
(0.486937 0.00635759 0)
(0.442 0.00803723 0)
(0.380585 0.0102646 0)
(0.320566 0.0121784 0)
(0.18213 0.0111555 0)
(1.00417 0.00480515 0)
(1.01373 0.00718215 0)
(1.0207 0.00682435 0)
(1.02486 0.00641226 0)
(1.02687 0.0060919 0)
(1.02702 0.00572672 0)
(1.02543 0.0053509 0)
(1.02232 0.00499901 0)
(1.01792 0.00467253 0)
(1.01248 0.00436642 0)
(1.00623 0.00407884 0)
(0.999349 0.0038094 0)
(0.992003 0.00355769 0)
(0.984333 0.00332308 0)
(0.976458 0.00310484 0)
(0.968478 0.0029021 0)
(0.960477 0.00271395 0)
(0.952526 0.00253942 0)
(0.944682 0.00237761 0)
(0.936994 0.00222762 0)
(0.929502 0.00208867 0)
(0.922236 0.00196005 0)
(0.915221 0.0018411 0)
(0.908473 0.00173127 0)
(0.902002 0.00163003 0)
(0.895814 0.00153685 0)
(0.889908 0.00145139 0)
(0.884277 0.00137346 0)
(0.878913 0.00130294 0)
(0.873803 0.00123974 0)
(0.868933 0.00118384 0)
(0.864284 0.00113523 0)
(0.85984 0.00109397 0)
(0.85558 0.00106023 0)
(0.851483 0.00103427 0)
(0.847529 0.00101656 0)
(0.843695 0.00100784 0)
(0.839957 0.00100918 0)
(0.836289 0.00102211 0)
(0.832661 0.00104875 0)
(0.829038 0.00109194 0)
(0.825382 0.00115547 0)
(0.821645 0.00124432 0)
(0.817766 0.00136499 0)
(0.813674 0.00152594 0)
(0.809276 0.00173818 0)
(0.804454 0.00201608 0)
(0.799061 0.00237841 0)
(0.7929 0.00284982 0)
(0.78572 0.00346289 0)
(0.777187 0.00426104 0)
(0.766854 0.00530232 0)
(0.754131 0.00666537 0)
(0.738155 0.00845486 0)
(0.71789 0.0108122 0)
(0.691246 0.0139093 0)
(0.657285 0.0179468 0)
(0.60715 0.0229873 0)
(0.554719 0.030039 0)
(0.422454 0.0304561 0)
(1.00036 0.00116234 0)
(1.00263 0.00202372 0)
(1.00544 0.00239372 0)
(1.00803 0.00304093 0)
(1.01052 0.00370471 0)
(1.013 0.00418587 0)
(1.01529 0.00451 0)
(1.01726 0.00472086 0)
(1.01884 0.00483324 0)
(1.02001 0.00486111 0)
(1.02076 0.0048237 0)
(1.02109 0.00473968 0)
(1.021 0.00462419 0)
(1.02051 0.00448884 0)
(1.01964 0.00434232 0)
(1.01841 0.00419093 0)
(1.01683 0.00403903 0)
(1.01492 0.00388953 0)
(1.0127 0.00374422 0)
(1.01019 0.00360418 0)
(1.00741 0.00346991 0)
(1.00437 0.00334163 0)
(1.00111 0.00321941 0)
(0.997629 0.00310308 0)
(0.993965 0.00299233 0)
(0.990138 0.00288671 0)
(0.986173 0.00278595 0)
(0.982095 0.00268989 0)
(0.977929 0.00259851 0)
(0.973698 0.00251188 0)
(0.969425 0.00243019 0)
(0.965131 0.00235377 0)
(0.960834 0.00228315 0)
(0.956548 0.00221908 0)
(0.952284 0.00216255 0)
(0.94805 0.00211489 0)
(0.943847 0.00207785 0)
(0.939671 0.00205366 0)
(0.935515 0.00204518 0)
(0.931362 0.00205607 0)
(0.927189 0.00209096 0)
(0.922964 0.00215578 0)
(0.918644 0.00225811 0)
(0.914173 0.00240765 0)
(0.909479 0.00261684 0)
(0.904471 0.00290175 0)
(0.899033 0.00328319 0)
(0.893017 0.00378828 0)
(0.886236 0.00445257 0)
(0.878449 0.005323 0)
(0.869354 0.0064622 0)
(0.858559 0.00795411 0)
(0.845574 0.00991377 0)
(0.829725 0.012495 0)
(0.810283 0.0159209 0)
(0.785768 0.0204501 0)
(0.755937 0.0265805 0)
(0.714002 0.0342614 0)
(0.672074 0.0463548 0)
(0.568077 0.0512047 0)
(1.00025 0.00137449 0)
(1.00159 0.00317762 0)
(1.00312 0.00385962 0)
(1.00435 0.00422169 0)
(1.00551 0.0044898 0)
(1.00681 0.00462059 0)
(1.00821 0.00464384 0)
(1.00962 0.00461185 0)
(1.01101 0.00454653 0)
(1.01236 0.00445806 0)
(1.01365 0.0043568 0)
(1.01486 0.00425151 0)
(1.01598 0.0041478 0)
(1.017 0.00404886 0)
(1.0179 0.00395649 0)
(1.01869 0.00387152 0)
(1.01935 0.00379416 0)
(1.01989 0.00372412 0)
(1.02031 0.0036608 0)
(1.02059 0.00360338 0)
(1.02075 0.00355096 0)
(1.02077 0.00350264 0)
(1.02065 0.00345757 0)
(1.02039 0.00341487 0)
(1.01999 0.00337374 0)
(1.01945 0.00333354 0)
(1.01875 0.00329379 0)
(1.0179 0.00325417 0)
(1.01689 0.00321453 0)
(1.01573 0.00317495 0)
(1.01441 0.00313573 0)
(1.01292 0.00309745 0)
(1.01128 0.00306097 0)
(1.00947 0.00302753 0)
(1.0075 0.00299873 0)
(1.00536 0.00297663 0)
(1.00306 0.00296383 0)
(1.00059 0.00296359 0)
(0.997945 0.00297999 0)
(0.995119 0.00301814 0)
(0.992096 0.00308449 0)
(0.988857 0.00318716 0)
(0.985373 0.00333649 0)
(0.981603 0.00354562 0)
(0.977492 0.00383134 0)
(0.972966 0.00421518 0)
(0.967927 0.00472487 0)
(0.962245 0.00539632 0)
(0.95575 0.00627623 0)
(0.948223 0.00742573 0)
(0.93938 0.0089256 0)
(0.928853 0.0108828 0)
(0.916179 0.0134426 0)
(0.900734 0.0167955 0)
(0.881848 0.0212212 0)
(0.858257 0.0270254 0)
(0.829861 0.0348944 0)
(0.791413 0.0446688 0)
(0.75378 0.0604678 0)
(0.669752 0.0696034 0)
(1.00018 0.00117351 0)
(1.00125 0.00265202 0)
(1.00255 0.00313695 0)
(1.00361 0.00339465 0)
(1.00455 0.00368378 0)
(1.00554 0.00390459 0)
(1.00659 0.00402484 0)
(1.00763 0.00408063 0)
(1.00866 0.00409624 0)
(1.00967 0.00408009 0)
(1.01068 0.00403964 0)
(1.01168 0.00398306 0)
(1.01266 0.00391702 0)
(1.01361 0.00384632 0)
(1.01453 0.00377453 0)
(1.01543 0.00370426 0)
(1.0163 0.00363733 0)
(1.01713 0.00357483 0)
(1.01793 0.00351736 0)
(1.0187 0.00346512 0)
(1.01942 0.00341803 0)
(1.02011 0.00337586 0)
(1.02075 0.00333822 0)
(1.02135 0.00330471 0)
(1.0219 0.00327494 0)
(1.0224 0.00324864 0)
(1.02285 0.00322553 0)
(1.02324 0.00320547 0)
(1.02358 0.0031884 0)
(1.02385 0.00317444 0)
(1.02404 0.00316387 0)
(1.02417 0.00315722 0)
(1.02421 0.00315526 0)
(1.02416 0.00315911 0)
(1.02402 0.00317032 0)
(1.02377 0.00319093 0)
(1.0234 0.00322365 0)
(1.0229 0.003272 0)
(1.02225 0.00334052 0)
(1.02143 0.0034351 0)
(1.02042 0.00356328 0)
(1.01918 0.00373476 0)
(1.01768 0.00396196 0)
(1.01588 0.00426084 0)
(1.01371 0.00465186 0)
(1.01109 0.00516136 0)
(1.00792 0.00582328 0)
(1.00409 0.00668154 0)
(0.999423 0.00779314 0)
(0.993719 0.00923245 0)
(0.98671 0.0110972 0)
(0.978051 0.0135161 0)
(0.96731 0.016662 0)
(0.9539 0.0207588 0)
(0.937187 0.0261314 0)
(0.916005 0.0331208 0)
(0.890178 0.0425145 0)
(0.85528 0.054063 0)
(0.820504 0.0723833 0)
(0.749261 0.0846123 0)
(1.00014 0.000986939 0)
(1.00102 0.00234199 0)
(1.00218 0.00292823 0)
(1.00322 0.00327082 0)
(1.00413 0.00359505 0)
(1.00506 0.00382756 0)
(1.00603 0.0039415 0)
(1.00699 0.00398007 0)
(1.00792 0.00397618 0)
(1.00883 0.00394143 0)
(1.00972 0.0038836 0)
(1.01059 0.00381147 0)
(1.01145 0.00373255 0)
(1.01229 0.00365211 0)
(1.01311 0.0035737 0)
(1.01392 0.00349969 0)
(1.01471 0.00343154 0)
(1.01549 0.00336996 0)
(1.01626 0.00331514 0)
(1.01701 0.00326692 0)
(1.01776 0.00322492 0)
(1.01849 0.00318862 0)
(1.01921 0.00315746 0)
(1.01991 0.00313088 0)
(1.0206 0.00310843 0)
(1.02127 0.00308972 0)
(1.02193 0.00307445 0)
(1.02256 0.00306246 0)
(1.02318 0.00305375 0)
(1.02377 0.00304855 0)
(1.02434 0.00304729 0)
(1.02487 0.00305068 0)
(1.02537 0.00305977 0)
(1.02583 0.00307601 0)
(1.02625 0.00310131 0)
(1.02662 0.00313822 0)
(1.02692 0.00319 0)
(1.02715 0.0032609 0)
(1.0273 0.00335631 0)
(1.02735 0.00348317 0)
(1.02728 0.00365034 0)
(1.02706 0.00386914 0)
(1.02666 0.00415404 0)
(1.02605 0.00452362 0)
(1.02516 0.00500167 0)
(1.02393 0.00561883 0)
(1.02229 0.00641457 0)
(1.02011 0.00743993 0)
(1.01727 0.00876117 0)
(1.01358 0.0104646 0)
(1.00881 0.0126635 0)
(1.00268 0.0155064 0)
(0.994791 0.0191919 0)
(0.984635 0.0239762 0)
(0.971637 0.0302263 0)
(0.954732 0.0383244 0)
(0.933671 0.0491324 0)
(0.904514 0.0623624 0)
(0.874692 0.0827351 0)
(0.814737 0.0973173 0)
(1.00011 0.000842191 0)
(1.00084 0.00209722 0)
(1.00189 0.00272308 0)
(1.00289 0.00306789 0)
(1.00378 0.00335926 0)
(1.00468 0.00357136 0)
(1.00563 0.00368004 0)
(1.00656 0.00371977 0)
(1.00748 0.00372118 0)
(1.00836 0.00369495 0)
(1.00923 0.00364718 0)
(1.01007 0.00358549 0)
(1.0109 0.0035168 0)
(1.0117 0.00344594 0)
(1.01248 0.00337614 0)
(1.01324 0.00330959 0)
(1.01399 0.00324768 0)
(1.01473 0.00319122 0)
(1.01546 0.00314053 0)
(1.01617 0.00309559 0)
(1.01688 0.00305621 0)
(1.01758 0.00302205 0)
(1.01827 0.0029927 0)
(1.01896 0.00296779 0)
(1.01964 0.00294698 0)
(1.02031 0.00292998 0)
(1.02097 0.00291664 0)
(1.02163 0.00290689 0)
(1.02227 0.00290087 0)
(1.0229 0.0028989 0)
(1.02352 0.00290155 0)
(1.02413 0.00290966 0)
(1.02471 0.00292444 0)
(1.02528 0.00294751 0)
(1.02581 0.00298103 0)
(1.02631 0.00302781 0)
(1.02677 0.0030915 0)
(1.02718 0.00317679 0)
(1.02754 0.00328968 0)
(1.02781 0.00343789 0)
(1.028 0.00363124 0)
(1.02807 0.00388234 0)
(1.028 0.00420731 0)
(1.02776 0.00462682 0)
(1.0273 0.0051674 0)
(1.02656 0.00586319 0)
(1.02548 0.00675815 0)
(1.02397 0.00790914 0)
(1.02191 0.00938992 0)
(1.01917 0.0112965 0)
(1.01557 0.0137546 0)
(1.01088 0.0169292 0)
(1.00482 0.0210401 0)
(0.997027 0.0263711 0)
(0.987087 0.0333274 0)
(0.974192 0.042335 0)
(0.958241 0.0543289 0)
(0.935904 0.0690507 0)
(0.913115 0.0912156 0)
(0.866199 0.10809 0)
(1.00009 0.000728813 0)
(1.00071 0.00188098 0)
(1.00166 0.00251236 0)
(1.00261 0.00285664 0)
(1.00348 0.00313202 0)
(1.00436 0.00334175 0)
(1.00529 0.0034588 0)
(1.00621 0.0035067 0)
(1.00711 0.00351445 0)
(1.00799 0.00349424 0)
(1.00885 0.00345228 0)
(1.00969 0.00339582 0)
(1.0105 0.0033317 0)
(1.01129 0.00326479 0)
(1.01207 0.00319836 0)
(1.01282 0.00313463 0)
(1.01356 0.00307512 0)
(1.01428 0.00302069 0)
(1.01499 0.00297175 0)
(1.01569 0.00292838 0)
(1.01638 0.00289042 0)
(1.01707 0.00285759 0)
(1.01774 0.00282954 0)
(1.01841 0.00280595 0)
(1.01907 0.0027865 0)
(1.01973 0.00277097 0)
(1.02038 0.00275925 0)
(1.02102 0.00275136 0)
(1.02165 0.00274748 0)
(1.02228 0.00274802 0)
(1.0229 0.00275365 0)
(1.0235 0.00276532 0)
(1.02409 0.00278439 0)
(1.02466 0.00281265 0)
(1.02521 0.00285251 0)
(1.02573 0.00290705 0)
(1.02622 0.0029803 0)
(1.02667 0.00307738 0)
(1.02706 0.0032049 0)
(1.02739 0.00337127 0)
(1.02764 0.00358725 0)
(1.02779 0.0038666 0)
(1.02781 0.00422689 0)
(1.02767 0.00469064 0)
(1.02733 0.00528666 0)
(1.02674 0.00605197 0)
(1.02584 0.00703415 0)
(1.02454 0.00829452 0)
(1.02275 0.00991242 0)
(1.02034 0.0119907 0)
(1.01717 0.0146636 0)
(1.01304 0.0181062 0)
(1.00774 0.0225513 0)
(1.00099 0.0282981 0)
(0.992554 0.0357733 0)
(0.981899 0.0454301 0)
(0.969209 0.0582503 0)
(0.952087 0.0740529 0)
(0.935487 0.0974572 0)
(0.902033 0.116734 0)
(1.00007 0.000636572 0)
(1.00061 0.00168643 0)
(1.00146 0.00230827 0)
(1.00237 0.00265444 0)
(1.00322 0.00291892 0)
(1.00409 0.00312325 0)
(1.00499 0.00324227 0)
(1.0059 0.00329259 0)
(1.00679 0.00330233 0)
(1.00766 0.00328529 0)
(1.00852 0.00324772 0)
(1.00935 0.00319615 0)
(1.01016 0.00313702 0)
(1.01095 0.00307504 0)
(1.01172 0.00301333 0)
(1.01248 0.00295402 0)
(1.01321 0.00289854 0)
(1.01393 0.00284774 0)
(1.01464 0.00280204 0)
(1.01534 0.00276152 0)
(1.01602 0.00272607 0)
(1.0167 0.00269544 0)
(1.01737 0.00266936 0)
(1.01803 0.00264754 0)
(1.01869 0.00262974 0)
(1.01934 0.00261581 0)
(1.01998 0.0026057 0)
(1.02061 0.00259951 0)
(1.02124 0.0025975 0)
(1.02186 0.00260018 0)
(1.02247 0.00260832 0)
(1.02307 0.00262301 0)
(1.02365 0.00264574 0)
(1.02422 0.0026785 0)
(1.02477 0.00272391 0)
(1.02529 0.00278535 0)
(1.02578 0.00286717 0)
(1.02623 0.00297495 0)
(1.02664 0.00311585 0)
(1.02698 0.00329897 0)
(1.02725 0.00353595 0)
(1.02742 0.00384165 0)
(1.02747 0.00423504 0)
(1.02737 0.00474037 0)
(1.02709 0.00538866 0)
(1.02656 0.00621961 0)
(1.02574 0.00728419 0)
(1.02455 0.00864782 0)
(1.02289 0.0103948 0)
(1.02065 0.0126337 0)
(1.01768 0.0155055 0)
(1.01383 0.0191924 0)
(1.00889 0.0239345 0)
(1.00264 0.030037 0)
(0.994888 0.0379306 0)
(0.985275 0.0480717 0)
(0.974113 0.061433 0)
(0.959892 0.077915 0)
(0.946744 0.101821 0)
(0.923947 0.123317 0)
(1.00006 0.000559605 0)
(1.00052 0.00151227 0)
(1.0013 0.00211482 0)
(1.00216 0.00246017 0)
(1.003 0.0027133 0)
(1.00385 0.00290875 0)
(1.00473 0.0030269 0)
(1.00563 0.00307919 0)
(1.00651 0.00309152 0)
(1.00738 0.00307827 0)
(1.00823 0.0030456 0)
(1.00906 0.00299928 0)
(1.00987 0.00294531 0)
(1.01066 0.00288826 0)
(1.01143 0.00283115 0)
(1.01218 0.00277604 0)
(1.01291 0.00272433 0)
(1.01363 0.00267686 0)
(1.01434 0.00263409 0)
(1.01504 0.00259614 0)
(1.01572 0.00256295 0)
(1.0164 0.00253434 0)
(1.01707 0.00251007 0)
(1.01773 0.00248992 0)
(1.01838 0.00247372 0)
(1.01903 0.00246136 0)
(1.01967 0.00245286 0)
(1.0203 0.00244838 0)
(1.02093 0.00244826 0)
(1.02154 0.0024531 0)
(1.02215 0.00246375 0)
(1.02275 0.00248142 0)
(1.02333 0.00250773 0)
(1.0239 0.00254487 0)
(1.02444 0.00259564 0)
(1.02497 0.00266369 0)
(1.02546 0.00275372 0)
(1.02591 0.00287171 0)
(1.02632 0.00302535 0)
(1.02667 0.0032244 0)
(1.02695 0.00348134 0)
(1.02714 0.00381209 0)
(1.02722 0.00423694 0)
(1.02715 0.0047818 0)
(1.0269 0.00547977 0)
(1.02643 0.00637313 0)
(1.02567 0.00751601 0)
(1.02456 0.00897773 0)
(1.02301 0.0108472 0)
(1.02091 0.0132385 0)
(1.01812 0.0162987 0)
(1.0145 0.0202164 0)
(1.00985 0.025237 0)
(1.00398 0.0316694 0)
(0.996714 0.0399405 0)
(0.987768 0.0504989 0)
(0.977427 0.0642628 0)
(0.964774 0.0812094 0)
(0.953006 0.105077 0)
(0.936717 0.128306 0)
(1.00005 0.000494162 0)
(1.00046 0.00135607 0)
(1.00117 0.00193158 0)
(1.00199 0.00227173 0)
(1.00281 0.00251315 0)
(1.00364 0.00269857 0)
(1.00451 0.00281463 0)
(1.00539 0.00286855 0)
(1.00626 0.00288322 0)
(1.00712 0.00287319 0)
(1.00797 0.00284471 0)
(1.00879 0.00280303 0)
(1.0096 0.00275374 0)
(1.01039 0.00270124 0)
(1.01116 0.00264847 0)
(1.01191 0.0025974 0)
(1.01265 0.00254936 0)
(1.01337 0.00250522 0)
(1.01408 0.00246543 0)
(1.01477 0.00243014 0)
(1.01546 0.00239932 0)
(1.01614 0.00237284 0)
(1.01681 0.00235052 0)
(1.01747 0.00233217 0)
(1.01812 0.00231767 0)
(1.01877 0.00230697 0)
(1.01941 0.00230016 0)
(1.02004 0.00229745 0)
(1.02066 0.00229927 0)
(1.02128 0.00230626 0)
(1.02189 0.0023194 0)
(1.02248 0.00233999 0)
(1.02307 0.00236981 0)
(1.02363 0.00241117 0)
(1.02418 0.00246711 0)
(1.02471 0.00254152 0)
(1.02521 0.00263941 0)
(1.02567 0.00276717 0)
(1.02608 0.00293298 0)
(1.02644 0.00314723 0)
(1.02674 0.00342321 0)
(1.02694 0.00377782 0)
(1.02704 0.00423262 0)
(1.02701 0.00481508 0)
(1.0268 0.00556025 0)
(1.02638 0.00651287 0)
(1.02569 0.00773005 0)
(1.02467 0.00928472 0)
(1.02323 0.0112701 0)
(1.02127 0.0138055 0)
(1.01866 0.0170433 0)
(1.01527 0.021178 0)
(1.01092 0.0264601 0)
(1.00543 0.033201 0)
(0.998639 0.041822 0)
(0.990314 0.0527649 0)
(0.980668 0.0668736 0)
(0.969142 0.0842062 0)
(0.958067 0.107826 0)
(0.945123 0.132222 0)
(1.00005 0.000437554 0)
(1.00041 0.0012151 0)
(1.00106 0.00175793 0)
(1.00184 0.00208869 0)
(1.00264 0.00231827 0)
(1.00346 0.0024931 0)
(1.00431 0.00260573 0)
(1.00518 0.00266034 0)
(1.00605 0.00267673 0)
(1.0069 0.00266932 0)
(1.00774 0.00264455 0)
(1.00856 0.00260721 0)
(1.00937 0.00256242 0)
(1.01016 0.00251437 0)
(1.01093 0.00246588 0)
(1.01168 0.00241881 0)
(1.01241 0.00237445 0)
(1.01314 0.00233364 0)
(1.01384 0.00229683 0)
(1.01454 0.00226421 0)
(1.01523 0.00223577 0)
(1.0159 0.00221142 0)
(1.01657 0.00219103 0)
(1.01723 0.00217447 0)
(1.01789 0.00216166 0)
(1.01854 0.00215261 0)
(1.01918 0.00214746 0)
(1.01981 0.00214649 0)
(1.02043 0.00215019 0)
(1.02105 0.00215929 0)
(1.02166 0.00217484 0)
(1.02226 0.00219827 0)
(1.02284 0.00223146 0)
(1.02341 0.00227689 0)
(1.02396 0.00233779 0)
(1.02449 0.00241829 0)
(1.025 0.00252369 0)
(1.02546 0.00266077 0)
(1.02589 0.00283816 0)
(1.02626 0.00306687 0)
(1.02657 0.00336092 0)
(1.0268 0.00373817 0)
(1.02693 0.00422134 0)
(1.02692 0.0048394 0)
(1.02676 0.00562923 0)
(1.0264 0.00663783 0)
(1.02578 0.00792512 0)
(1.02485 0.00956741 0)
(1.02353 0.011662 0)
(1.02171 0.0143326 0)
(1.0193 0.0177369 0)
(1.01615 0.0220746 0)
(1.01212 0.0276001 0)
(1.00702 0.0346274 0)
(1.00072 0.0435708 0)
(0.993032 0.0548673 0)
(0.984107 0.0692849 0)
(0.973602 0.0869618 0)
(0.963261 0.110324 0)
(0.952088 0.135418 0)
(1.00004 0.000387797 0)
(1.00037 0.00108696 0)
(1.00097 0.0015933 0)
(1.00172 0.00191092 0)
(1.0025 0.00212824 0)
(1.0033 0.00229199 0)
(1.00413 0.00239987 0)
(1.00499 0.00245422 0)
(1.00585 0.00247182 0)
(1.0067 0.00246664 0)
(1.00754 0.00244523 0)
(1.00836 0.00241196 0)
(1.00916 0.00237146 0)
(1.00995 0.0023277 0)
(1.01072 0.00228335 0)
(1.01147 0.0022402 0)
(1.01221 0.00219946 0)
(1.01293 0.00216193 0)
(1.01364 0.00212808 0)
(1.01433 0.0020981 0)
(1.01502 0.00207204 0)
(1.0157 0.00204983 0)
(1.01637 0.00203138 0)
(1.01703 0.00201661 0)
(1.01768 0.0020055 0)
(1.01833 0.0019981 0)
(1.01897 0.0019946 0)
(1.01961 0.00199535 0)
(1.02023 0.0020009 0)
(1.02085 0.00201205 0)
(1.02146 0.00202995 0)
(1.02206 0.0020561 0)
(1.02265 0.00209253 0)
(1.02322 0.00214186 0)
(1.02378 0.00220749 0)
(1.02431 0.00229377 0)
(1.02482 0.0024063 0)
(1.02529 0.0025522 0)
(1.02573 0.00274055 0)
(1.02612 0.00298292 0)
(1.02645 0.00329402 0)
(1.0267 0.0036926 0)
(1.02685 0.00420248 0)
(1.02688 0.00485401 0)
(1.02677 0.00568579 0)
(1.02646 0.00674694 0)
(1.02592 0.00809995 0)
(1.02509 0.00982426 0)
(1.02389 0.0120208 0)
(1.02224 0.0148177 0)
(1.02003 0.0183771 0)
(1.01713 0.0229031 0)
(1.01342 0.0286539 0)
(1.00873 0.0359449 0)
(1.00294 0.0451832 0)
(0.995891 0.0568007 0)
(0.987713 0.0714953 0)
(0.978191 0.0894703 0)
(0.968734 0.112628 0)
(0.958792 0.138088 0)
(1.00004 0.000343415 0)
(1.00034 0.000969606 0)
(1.00089 0.00143701 0)
(1.00161 0.0017382 0)
(1.00237 0.00194256 0)
(1.00316 0.00209481 0)
(1.00398 0.00219687 0)
(1.00483 0.00225007 0)
(1.00568 0.00226843 0)
(1.00652 0.00226512 0)
(1.00736 0.0022467 0)
(1.00817 0.00221721 0)
(1.00898 0.00218081 0)
(1.00976 0.00214117 0)
(1.01053 0.00210086 0)
(1.01128 0.00206154 0)
(1.01202 0.00202436 0)
(1.01274 0.0019901 0)
(1.01345 0.00195919 0)
(1.01415 0.00193187 0)
(1.01484 0.00190819 0)
(1.01552 0.00188812 0)
(1.01619 0.00187162 0)
(1.01685 0.00185865 0)
(1.0175 0.00184923 0)
(1.01815 0.00184346 0)
(1.01879 0.0018416 0)
(1.01943 0.00184403 0)
(1.02005 0.00185138 0)
(1.02067 0.00186453 0)
(1.02128 0.00188467 0)
(1.02189 0.00191344 0)
(1.02248 0.00195296 0)
(1.02305 0.00200598 0)
(1.02361 0.00207608 0)
(1.02415 0.00216783 0)
(1.02467 0.00228708 0)
(1.02515 0.00244128 0)
(1.0256 0.00263992 0)
(1.026 0.00289509 0)
(1.02635 0.00322217 0)
(1.02662 0.0036407 0)
(1.02681 0.00417554 0)
(1.02688 0.00485831 0)
(1.02681 0.0057292 0)
(1.02657 0.00683929 0)
(1.02611 0.00825342 0)
(1.02538 0.0100539 0)
(1.02431 0.0123451 0)
(1.02282 0.0152589 0)
(1.02082 0.0189615 0)
(1.01819 0.0236612 0)
(1.01481 0.0296189 0)
(1.01054 0.037151 0)
(1.00527 0.0466573 0)
(0.998861 0.0585636 0)
(0.991437 0.0735052 0)
(0.982862 0.0917288 0)
(0.974353 0.114729 0)
(0.965504 0.140342 0)
(1.00003 0.000303299 0)
(1.00031 0.000861298 0)
(1.00083 0.00128831 0)
(1.00151 0.00157024 0)
(1.00226 0.00176079 0)
(1.00303 0.00190121 0)
(1.00385 0.00199657 0)
(1.00468 0.00204781 0)
(1.00553 0.00206646 0)
(1.00637 0.00206467 0)
(1.0072 0.00204891 0)
(1.00801 0.00202293 0)
(1.00881 0.00199042 0)
(1.0096 0.00195477 0)
(1.01037 0.00191839 0)
(1.01112 0.00188284 0)
(1.01186 0.00184918 0)
(1.01258 0.00181815 0)
(1.01329 0.00179018 0)
(1.01399 0.0017655 0)
(1.01468 0.0017442 0)
(1.01536 0.00172628 0)
(1.01603 0.00171173 0)
(1.01669 0.00170055 0)
(1.01734 0.00169281 0)
(1.01799 0.00168867 0)
(1.01863 0.00168841 0)
(1.01927 0.00169249 0)
(1.0199 0.0017016 0)
(1.02052 0.00171666 0)
(1.02113 0.00173897 0)
(1.02173 0.00177022 0)
(1.02233 0.00181267 0)
(1.02291 0.00186918 0)
(1.02347 0.0019435 0)
(1.02402 0.00204037 0)
(1.02454 0.00216591 0)
(1.02503 0.00232785 0)
(1.02549 0.00253609 0)
(1.02591 0.00280318 0)
(1.02628 0.00314509 0)
(1.02658 0.00358213 0)
(1.02679 0.00414011 0)
(1.02691 0.0048518 0)
(1.02689 0.00575884 0)
(1.02672 0.0069141 0)
(1.02634 0.00838461 0)
(1.02571 0.0102553 0)
(1.02478 0.0126335 0)
(1.02346 0.0156545 0)
(1.02168 0.0194883 0)
(1.01932 0.0243467 0)
(1.01628 0.0304928 0)
(1.01243 0.0382438 0)
(1.00768 0.0479919 0)
(1.00192 0.0601561 0)
(0.995249 0.0753173 0)
(0.987585 0.0937448 0)
(0.980016 0.116618 0)
(0.972204 0.142253 0)
(1.00003 0.000266596 0)
(1.00029 0.000760564 0)
(1.00078 0.00114642 0)
(1.00143 0.00140673 0)
(1.00216 0.00158254 0)
(1.00293 0.00171082 0)
(1.00373 0.00179878 0)
(1.00456 0.00184729 0)
(1.0054 0.00186577 0)
(1.00623 0.00186519 0)
(1.00706 0.0018518 0)
(1.00787 0.00182908 0)
(1.00867 0.00180028 0)
(1.00945 0.0017685 0)
(1.01022 0.00173595 0)
(1.01097 0.0017041 0)
(1.01171 0.00167392 0)
(1.01244 0.00164609 0)
(1.01315 0.00162104 0)
(1.01385 0.001599 0)
(1.01453 0.00158008 0)
(1.01521 0.00156431 0)
(1.01588 0.0015517 0)
(1.01655 0.00154231 0)
(1.0172 0.00153625 0)
(1.01785 0.00153371 0)
(1.0185 0.00153503 0)
(1.01913 0.00154073 0)
(1.01976 0.00155152 0)
(1.02038 0.00156843 0)
(1.021 0.0015928 0)
(1.0216 0.00162642 0)
(1.0222 0.00167162 0)
(1.02278 0.00173141 0)
(1.02335 0.00180966 0)
(1.0239 0.00191131 0)
(1.02443 0.00204268 0)
(1.02494 0.0022118 0)
(1.02541 0.0024289 0)
(1.02584 0.00270698 0)
(1.02623 0.00306256 0)
(1.02655 0.00351662 0)
(1.0268 0.00409582 0)
(1.02696 0.00483402 0)
(1.027 0.00577416 0)
(1.02689 0.00697071 0)
(1.0266 0.00849267 0)
(1.02609 0.0104273 0)
(1.02529 0.0128846 0)
(1.02415 0.0160031 0)
(1.02258 0.0199559 0)
(1.02051 0.0249578 0)
(1.01781 0.0312739 0)
(1.0144 0.0392217 0)
(1.01018 0.0491864 0)
(1.00506 0.0615794 0)
(0.999132 0.0769348 0)
(0.992349 0.0955298 0)
(0.98568 0.118295 0)
(0.978842 0.143877 0)
(1.00003 0.000232643 0)
(1.00027 0.000666154 0)
(1.00073 0.00101057 0)
(1.00137 0.00124734 0)
(1.00208 0.00140747 0)
(1.00283 0.0015233 0)
(1.00363 0.00160327 0)
(1.00445 0.00164839 0)
(1.00528 0.00166625 0)
(1.00611 0.00166658 0)
(1.00693 0.00165531 0)
(1.00774 0.00163562 0)
(1.00854 0.00161037 0)
(1.00933 0.00158233 0)
(1.01009 0.00155354 0)
(1.01085 0.00152532 0)
(1.01158 0.00149857 0)
(1.01231 0.00147392 0)
(1.01302 0.00145178 0)
(1.01372 0.00143238 0)
(1.01441 0.00141583 0)
(1.01509 0.0014022 0)
(1.01576 0.00139154 0)
(1.01642 0.00138393 0)
(1.01708 0.00137953 0)
(1.01773 0.00137857 0)
(1.01837 0.00138144 0)
(1.01901 0.00138871 0)
(1.01964 0.00140114 0)
(1.02027 0.00141981 0)
(1.02088 0.00144614 0)
(1.02149 0.00148198 0)
(1.02209 0.00152977 0)
(1.02268 0.00159261 0)
(1.02325 0.00167451 0)
(1.02381 0.00178057 0)
(1.02435 0.00191731 0)
(1.02486 0.00209301 0)
(1.02535 0.00231822 0)
(1.0258 0.00260633 0)
(1.0262 0.00297436 0)
(1.02656 0.00344389 0)
(1.02684 0.00404237 0)
(1.02704 0.00480458 0)
(1.02713 0.00577465 0)
(1.0271 0.0070085 0)
(1.0269 0.00857685 0)
(1.02649 0.010569 0)
(1.02584 0.0130975 0)
(1.02488 0.0163034 0)
(1.02354 0.0203627 0)
(1.02175 0.0254929 0)
(1.01941 0.0319606 0)
(1.01643 0.0400834 0)
(1.01274 0.0502403 0)
(1.00826 0.0628348 0)
(1.00308 0.0783613 0)
(0.997144 0.097095 0)
(0.991337 0.119769 0)
(0.985393 0.145257 0)
(1.00003 0.000200913 0)
(1.00025 0.000577004 0)
(1.0007 0.000879974 0)
(1.00131 0.00109167 0)
(1.00201 0.00123522 0)
(1.00275 0.00133832 0)
(1.00354 0.00140983 0)
(1.00435 0.00145096 0)
(1.00518 0.00146779 0)
(1.00601 0.00146876 0)
(1.00683 0.00145937 0)
(1.00764 0.00144252 0)
(1.00843 0.00142067 0)
(1.00922 0.00139626 0)
(1.00998 0.00137114 0)
(1.01074 0.0013465 0)
(1.01147 0.00132314 0)
(1.0122 0.00130165 0)
(1.01291 0.0012824 0)
(1.01361 0.00126562 0)
(1.0143 0.00125145 0)
(1.01498 0.00123995 0)
(1.01565 0.00123123 0)
(1.01632 0.0012254 0)
(1.01697 0.00122264 0)
(1.01763 0.00122325 0)
(1.01827 0.00122764 0)
(1.01891 0.00123643 0)
(1.01954 0.00125044 0)
(1.02016 0.00127079 0)
(1.02078 0.00129897 0)
(1.02139 0.0013369 0)
(1.02199 0.00138709 0)
(1.02259 0.00145275 0)
(1.02316 0.00153799 0)
(1.02373 0.00164809 0)
(1.02428 0.00178971 0)
(1.0248 0.00197139 0)
(1.0253 0.00220394 0)
(1.02577 0.00250109 0)
(1.0262 0.00288031 0)
(1.02658 0.00336373 0)
(1.0269 0.00397945 0)
(1.02714 0.00476312 0)
(1.02729 0.00575988 0)
(1.02733 0.00702692 0)
(1.02722 0.00863649 0)
(1.02693 0.0106797 0)
(1.02642 0.0132712 0)
(1.02565 0.0165543 0)
(1.02454 0.0207075 0)
(1.02304 0.0259507 0)
(1.02106 0.0325517 0)
(1.01853 0.040828 0)
(1.01537 0.0511534 0)
(1.01153 0.0639238 0)
(1.00707 0.0796001 0)
(1.00197 0.0984504 0)
(0.996984 0.12105 0)
(0.991861 0.14643 0)
(1.00003 0.000170978 0)
(1.00024 0.000492202 0)
(1.00067 0.000753916 0)
(1.00126 0.000939327 0)
(1.00195 0.00106547 0)
(1.00268 0.00115554 0)
(1.00346 0.00121822 0)
(1.00427 0.00125485 0)
(1.00509 0.00127026 0)
(1.00592 0.00127165 0)
(1.00673 0.00126394 0)
(1.00754 0.00124974 0)
(1.00834 0.00123116 0)
(1.00912 0.00121028 0)
(1.00989 0.00118876 0)
(1.01064 0.00116764 0)
(1.01138 0.00114765 0)
(1.0121 0.00112929 0)
(1.01282 0.00111292 0)
(1.01352 0.00109876 0)
(1.01421 0.00108694 0)
(1.01489 0.00107758 0)
(1.01556 0.00107079 0)
(1.01623 0.00106673 0)
(1.01688 0.0010656 0)
(1.01754 0.00106774 0)
(1.01818 0.00107362 0)
(1.01882 0.00108388 0)
(1.01945 0.0010994 0)
(1.02008 0.00112135 0)
(1.0207 0.00115126 0)
(1.02131 0.00119113 0)
(1.02192 0.00124354 0)
(1.02251 0.00131177 0)
(1.0231 0.00140007 0)
(1.02367 0.0015138 0)
(1.02422 0.00165983 0)
(1.02476 0.00184685 0)
(1.02527 0.00208593 0)
(1.02576 0.00239112 0)
(1.02621 0.00278024 0)
(1.02662 0.00327591 0)
(1.02697 0.00390682 0)
(1.02726 0.00470932 0)
(1.02747 0.00572947 0)
(1.02758 0.00702551 0)
(1.02757 0.00867101 0)
(1.0274 0.0107586 0)
(1.02704 0.0134048 0)
(1.02645 0.0167548 0)
(1.02558 0.0209893 0)
(1.02437 0.0263299 0)
(1.02276 0.0330458 0)
(1.02067 0.0414545 0)
(1.01806 0.0519253 0)
(1.01485 0.0648476 0)
(1.01111 0.0806545 0)
(1.00681 0.0996046 0)
(1.00262 0.122147 0)
(0.998255 0.147422 0)
(1.00003 0.000142486 0)
(1.00023 0.000410958 0)
(1.00064 0.000631697 0)
(1.00122 0.00078989 0)
(1.0019 0.000897894 0)
(1.00263 0.000974654 0)
(1.0034 0.00102819 0)
(1.0042 0.00105989 0)
(1.00502 0.00107355 0)
(1.00584 0.00107513 0)
(1.00666 0.00106894 0)
(1.00746 0.00105724 0)
(1.00826 0.0010418 0)
(1.00904 0.00102438 0)
(1.00981 0.00100639 0)
(1.01056 0.000988754 0)
(1.0113 0.000972088 0)
(1.01203 0.000956841 0)
(1.01274 0.000943335 0)
(1.01344 0.000931781 0)
(1.01413 0.000922325 0)
(1.01481 0.000915094 0)
(1.01548 0.000910226 0)
(1.01615 0.000907906 0)
(1.01681 0.00090839 0)
(1.01746 0.000912041 0)
(1.01811 0.000919364 0)
(1.01875 0.000931047 0)
(1.01938 0.000948009 0)
(1.02001 0.000971465 0)
(1.02063 0.001003 0)
(1.02125 0.00104466 0)
(1.02186 0.00109909 0)
(1.02245 0.00116966 0)
(1.02304 0.00126069 0)
(1.02362 0.00137767 0)
(1.02419 0.00152759 0)
(1.02473 0.00171931 0)
(1.02526 0.00196411 0)
(1.02576 0.0022763 0)
(1.02624 0.00267402 0)
(1.02668 0.00318028 0)
(1.02707 0.00382426 0)
(1.0274 0.00464292 0)
(1.02767 0.00568306 0)
(1.02786 0.00700384 0)
(1.02794 0.0086799 0)
(1.02789 0.0108052 0)
(1.02769 0.0134975 0)
(1.02729 0.016904 0)
(1.02666 0.0212069 0)
(1.02575 0.0266296 0)
(1.0245 0.0334422 0)
(1.02286 0.0419623 0)
(1.02079 0.0525559 0)
(1.01822 0.0656073 0)
(1.0152 0.0815273 0)
(1.01168 0.100565 0)
(1.00826 0.123068 0)
(1.00459 0.148257 0)
(1.00002 0.000115141 0)
(1.00022 0.000332582 0)
(1.00062 0.000512658 0)
(1.00119 0.000642923 0)
(1.00186 0.000732159 0)
(1.00258 0.000795359 0)
(1.00335 0.000839499 0)
(1.00414 0.000865919 0)
(1.00496 0.000877537 0)
(1.00578 0.000879133 0)
(1.00659 0.000874312 0)
(1.0074 0.000864982 0)
(1.00819 0.000852576 0)
(1.00898 0.000838535 0)
(1.00974 0.00082403 0)
(1.0105 0.000809836 0)
(1.01123 0.000796471 0)
(1.01196 0.000784318 0)
(1.01267 0.000773664 0)
(1.01337 0.000764707 0)
(1.01407 0.000757601 0)
(1.01475 0.000752488 0)
(1.01542 0.000749531 0)
(1.01609 0.000748945 0)
(1.01675 0.000751018 0)
(1.0174 0.000756149 0)
(1.01805 0.000764878 0)
(1.01869 0.000777931 0)
(1.01932 0.000796265 0)
(1.01995 0.000821135 0)
(1.02058 0.000854171 0)
(1.0212 0.000897472 0)
(1.02181 0.00095373 0)
(1.02241 0.00102639 0)
(1.02301 0.00111983 0)
(1.02359 0.00123965 0)
(1.02416 0.00139294 0)
(1.02472 0.00158871 0)
(1.02526 0.00183841 0)
(1.02579 0.00215654 0)
(1.02628 0.00256151 0)
(1.02675 0.00307667 0)
(1.02718 0.00373157 0)
(1.02756 0.00456368 0)
(1.02789 0.00562039 0)
(1.02815 0.00696157 0)
(1.02833 0.00866274 0)
(1.02841 0.0108189 0)
(1.02836 0.0135489 0)
(1.02815 0.0170013 0)
(1.02776 0.0213597 0)
(1.02715 0.0268488 0)
(1.02628 0.0337398 0)
(1.02509 0.0423505 0)
(1.02356 0.0530449 0)
(1.02162 0.0662038 0)
(1.01932 0.0822209 0)
(1.01657 0.101337 0)
(1.01389 0.123821 0)
(1.01088 0.14895 0)
(1.00002 8.86856e-05 0)
(1.00022 0.000256457 0)
(1.00061 0.000396171 0)
(1.00116 0.000497984 0)
(1.00182 0.000567937 0)
(1.00254 0.000617357 0)
(1.00331 0.000651907 0)
(1.0041 0.000672768 0)
(1.00491 0.000682098 0)
(1.00573 0.000683553 0)
(1.00654 0.000679987 0)
(1.00735 0.000672921 0)
(1.00814 0.000663466 0)