/*--------------------------------*- C++ -*----------------------------------*\
| =========                 |                                                 |
| \\      /  F ield         | OpenFOAM: The Open Source CFD Toolbox           |
|  \\    /   O peration     | Version:  2.4.0                                 |
|   \\  /    A nd           | Web:      www.OpenFOAM.org                      |
|    \\/     M anipulation  |                                                 |
\*---------------------------------------------------------------------------*/
FoamFile
{
    version     2.0;
    format      ascii;
    class       surfaceScalarField;
    location    "0.4";
    object      phi;
}
// * * * * * * * * * * * * * * * * * * * * * * * * * * * * * * * * * * * * * //

dimensions      [0 3 -1 0 0 0 0];

internalField   nonuniform List<scalar> 
11100
(
2.53115e-06
1.08022e-05
8.09661e-07
1.72149e-06
4.39725e-07
3.69936e-07
2.69521e-07
1.70203e-07
1.67392e-07
1.0213e-07
9.31697e-08
7.42223e-08
-3.38657e-09
9.65563e-08
-1.2177e-07
1.18383e-07
-2.09044e-07
8.72749e-08
-2.05284e-07
-3.76036e-09
-1.12529e-07
-9.27551e-08
2.7736e-08
-1.40265e-07
1.80002e-07
-1.52266e-07
3.23507e-07
-1.43505e-07
4.51015e-07
-1.27508e-07
5.61465e-07
-1.1045e-07
6.5617e-07
-9.47054e-08
7.37408e-07
-8.12381e-08
8.07777e-07
-7.0369e-08
8.69707e-07
-6.19302e-08
9.25161e-07
-5.54537e-08
9.75564e-07
-5.0403e-08
1.02189e-06
-4.63258e-08
1.06479e-06
-4.29031e-08
1.10472e-06
-3.99303e-08
1.142e-06
-3.72794e-08
1.17687e-06
-3.48692e-08
1.20952e-06
-3.26468e-08
1.24009e-06
-3.0575e-08
1.26872e-06
-2.86265e-08
1.2955e-06
-2.67794e-08
1.32053e-06
-2.50314e-08
1.34389e-06
-2.33558e-08
1.36563e-06
-2.17421e-08
1.38582e-06
-2.01926e-08
1.40452e-06
-1.87003e-08
1.42178e-06
-1.72616e-08
1.43765e-06
-1.58692e-08
1.45216e-06
-1.4511e-08
1.46537e-06
-1.32097e-08
1.47734e-06
-1.19628e-08
1.4881e-06
-1.07652e-08
1.49774e-06
-9.64189e-09
1.50623e-06
-8.48786e-09
1.51373e-06
-7.4957e-09
1.5201e-06
-6.36915e-09
1.52578e-06
-5.68501e-09
1.52992e-06
-4.13863e-09
1.53432e-06
-4.40461e-09
1.53581e-06
-1.48759e-09
1.54014e-06
-4.3235e-09
1.53776e-06
2.37654e-09
1.54419e-06
-6.43149e-09
1.53582e-06
8.37297e-09
1.54721e-06
-1.13965e-08
1.5308e-06
1.64159e-08
1.54889e-06
-1.80936e-08
1.52459e-06
2.43066e-08
1.54814e-06
-2.35572e-08
1.51924e-06
2.89048e-08
1.54472e-06
-2.54811e-08
1.51575e-06
2.89692e-08
1.53944e-06
-2.36926e-08
1.51471e-06
2.47299e-08
1.53372e-06
-1.90106e-08
1.51454e-06
1.91797e-08
1.53202e-06
-1.74753e-08
1.51411e-06
1.79041e-08
1.53425e-06
-2.01387e-08
1.51839e-06
1.58627e-08
1.54247e-06
-2.40767e-08
1.53104e-06
1.14221e-08
1.56898e-06
-3.79381e-08
1.5752e-06
-6.21478e-09
-1.60662e-07
5.81002e-06
1.83255e-05
2.74292e-06
4.78859e-06
1.62098e-06
1.49187e-06
1.07831e-06
7.12879e-07
7.49571e-07
4.30867e-07
5.06399e-07
3.17394e-07
2.45885e-07
3.57071e-07
-2.20137e-08
3.86282e-07
-1.57158e-07
2.2242e-07
-6.15019e-08
-9.9417e-08
2.14227e-07
-3.68484e-07
5.95673e-07
-5.21711e-07
9.94514e-07
-5.51106e-07
1.36628e-06
-5.15275e-07
1.69521e-06
-4.56435e-07
1.97938e-06
-3.94617e-07
2.22265e-06
-3.3798e-07
2.43129e-06
-2.89878e-07
2.61212e-06
-2.51193e-07
2.77127e-06
-2.21083e-07
2.91359e-06
-1.97777e-07
3.04257e-06
-1.79384e-07
3.16061e-06
-1.64365e-07
3.26935e-06
-1.51644e-07
3.36995e-06
-1.40528e-07
3.46325e-06
-1.30581e-07
3.54991e-06
-1.21523e-07
3.63043e-06
-1.1317e-07
3.70524e-06
-1.05386e-07
3.77469e-06
-9.80768e-08
3.83908e-06
-9.11672e-08
3.89866e-06
-8.46134e-08
3.95366e-06
-7.83548e-08
4.00428e-06
-7.23625e-08
4.0507e-06
-6.66158e-08
4.09309e-06
-6.1091e-08
4.13161e-06
-5.57724e-08
4.16638e-06
-5.06402e-08
4.19755e-06
-4.56862e-08
4.22525e-06
-4.09076e-08
4.24962e-06
-3.63332e-08
4.27081e-06
-3.19584e-08
4.28899e-06
-2.78159e-08
4.30419e-06
-2.36869e-08
4.31664e-06
-1.99502e-08
4.32628e-06
-1.60088e-08
4.33363e-06
-1.30378e-08
4.33795e-06
-8.45057e-09
4.3411e-06
-7.5583e-09
4.33993e-06
-3.18879e-10
4.34051e-06
-4.90041e-09
4.33285e-06
1.00376e-08
4.33387e-06
-7.45089e-09
4.31733e-06
2.49128e-08
4.3229e-06
-1.69693e-08
4.29506e-06
4.42534e-08
4.30823e-06
-3.12569e-08
4.26921e-06
6.33174e-08
4.28927e-06
-4.36085e-08
4.24351e-06
7.46623e-08
4.26658e-06
-4.85566e-08
4.22007e-06
7.54862e-08
4.24267e-06
-4.62946e-08
4.2011e-06
6.62947e-08
4.21885e-06
-3.6758e-08
4.18795e-06
5.00778e-08
4.20176e-06
-3.12838e-08
4.17825e-06
4.14122e-08
4.19586e-06
-3.77497e-08
4.18134e-06
3.03849e-08
4.20494e-06
-4.76703e-08
4.20856e-06
7.79847e-09
4.25682e-06
-8.6195e-08
4.31774e-06
-6.714e-08
-4.29713e-07
8.18e-06
2.34788e-05
4.75104e-06
8.21756e-06
3.04185e-06
3.20106e-06
2.13024e-06
1.62449e-06
1.56454e-06
9.96568e-07
1.14787e-06
7.34062e-07
7.51127e-07
7.53817e-07
4.06259e-07
7.31149e-07
2.87828e-07
3.40851e-07
4.82737e-07
-2.94326e-07
9.32356e-07
-8.18102e-07
1.50362e-06
-1.09297e-06
2.09024e-06
-1.13773e-06
2.63559e-06
-1.06063e-06
3.11858e-06
-9.39428e-07
3.53613e-06
-8.12166e-07
3.89339e-06
-6.95245e-07
4.19923e-06
-5.95718e-07
4.46348e-06
-5.15445e-07
4.69508e-06
-4.52676e-07
4.9011e-06
-4.03804e-07
5.08673e-06
-3.65006e-07
5.25554e-06
-3.3318e-07
5.41005e-06
-3.06154e-07
5.55204e-06
-2.82519e-07
5.68284e-06
-2.61382e-07
5.80348e-06
-2.42165e-07
5.91479e-06
-2.24476e-07
6.01744e-06
-2.08037e-07
6.11201e-06
-1.92642e-07
6.19897e-06
-1.7813e-07
6.27875e-06
-1.64394e-07
6.35172e-06
-1.51329e-07
6.41822e-06
-1.38859e-07
6.47853e-06
-1.2693e-07
6.53293e-06
-1.15489e-07
6.58166e-06
-1.04499e-07
6.62494e-06
-9.39204e-08
6.66298e-06
-8.37238e-08
6.69598e-06
-7.39092e-08
6.72416e-06
-6.45174e-08
6.74774e-06
-5.55385e-08
6.76694e-06
-4.70093e-08
6.78187e-06
-3.86187e-08
6.79281e-06
-3.08873e-08
6.79978e-06
-2.29829e-08
6.80318e-06
-1.64383e-08
6.8026e-06
-7.8727e-09
6.79943e-06
-4.38856e-09
6.79148e-06
7.63833e-09
6.78346e-06
3.11449e-09
6.76766e-06
2.58371e-08
6.75738e-06
2.83312e-09
6.73262e-06
4.96731e-08
6.72357e-06
-7.92177e-09
6.68823e-06
7.95951e-08
6.68365e-06
-2.66746e-08
6.63813e-06
1.0883e-07
6.63801e-06
-4.34861e-08
6.5865e-06
1.26178e-07
6.58849e-06
-5.05546e-08
6.53542e-06
1.28561e-07
6.53931e-06
-5.01894e-08
6.48862e-06
1.16987e-07
6.4898e-06
-3.79328e-08
6.45256e-06
8.73092e-08
6.44698e-06
-2.57004e-08
6.42316e-06
6.52324e-08
6.42063e-06
-3.52212e-08
6.41214e-06
3.88788e-08
6.41504e-06
-5.05709e-08
6.4357e-06
-1.28627e-08
6.46814e-06
-1.18635e-07
6.56685e-06
-1.65851e-07
-7.20575e-07
9.98738e-06
2.68248e-05
6.69554e-06
1.15094e-05
4.62823e-06
5.26836e-06
3.39287e-06
2.85985e-06
2.59534e-06
1.7941e-06
2.01069e-06
1.31871e-06
1.5044e-06
1.2601e-06
1.12448e-06
1.11107e-06
1.0468e-06
4.18526e-07
1.33651e-06
-5.84032e-07
1.9098e-06
-1.39139e-06
2.61443e-06
-1.7976e-06
3.33314e-06
-1.85645e-06
4.00291e-06
-1.73039e-06
4.59856e-06
-1.53507e-06
5.11471e-06
-1.32832e-06
5.55599e-06
-1.13652e-06
5.9322e-06
-9.71926e-07
6.25502e-06
-8.3827e-07
6.53551e-06
-7.33166e-07
6.78269e-06
-6.50984e-07
7.00328e-06
-5.85594e-07
7.20205e-06
-5.31947e-07
7.38236e-06
-4.86466e-07
7.54665e-06
-4.46805e-07
7.69673e-06
-4.11463e-07
7.83402e-06
-3.79455e-07
7.95966e-06
-3.50114e-07
8.07458e-06
-3.22961e-07
8.17958e-06
-2.97639e-07
8.27532e-06
-2.73874e-07
8.36239e-06
-2.51467e-07
8.44131e-06
-2.30242e-07
8.51251e-06
-2.10064e-07
8.57641e-06
-1.90826e-07
8.63335e-06
-1.72433e-07
8.68367e-06
-1.54813e-07
8.72764e-06
-1.37896e-07
8.76554e-06
-1.21627e-07
8.79763e-06
-1.05994e-07
8.82415e-06
-9.10377e-08
8.84536e-06
-7.67481e-08
8.86151e-06
-6.31617e-08
8.87279e-06
-4.98932e-08
8.87945e-06
-3.75472e-08
8.88156e-06
-2.51012e-08
8.87949e-06
-1.43678e-08
8.87282e-06
-1.20206e-09
8.86282e-06
5.61954e-09
8.84782e-06
2.26355e-08
8.83126e-06
1.96721e-08
8.80824e-06
4.88543e-08
8.78727e-06
2.38102e-08
8.75535e-06
8.15912e-08
8.73312e-06
1.43046e-08
8.69137e-06
1.21351e-07
8.67057e-06
-5.88245e-09
8.61988e-06
1.5952e-07
8.60076e-06
-2.43641e-08
8.54488e-06
1.82055e-07
8.52667e-06
-3.23401e-08
8.46783e-06
1.87396e-07
8.45355e-06
-3.59069e-08
8.39424e-06
1.76296e-07
8.37852e-06
-2.22041e-08
8.33419e-06
1.31635e-07
8.30844e-06
4.9514e-11
8.2817e-06
9.19764e-08
8.25807e-06
-1.15938e-08
8.25039e-06
4.65544e-08
8.23166e-06
-3.18365e-08
8.25792e-06
-3.91239e-08
8.27465e-06
-1.3537e-07
8.37817e-06
-2.69364e-07
-1.01179e-06
1.13676e-05
2.87905e-05
8.48536e-06
1.43917e-05
6.28856e-06
7.46517e-06
4.81637e-06
4.33204e-06
3.81419e-06
2.79628e-06
3.07557e-06
2.05734e-06
2.48024e-06
1.85543e-06
2.08574e-06
1.50557e-06
2.04913e-06
4.55141e-07
2.405e-06
-9.39901e-07
3.05243e-06
-2.03882e-06
3.83346e-06
-2.57863e-06
4.63e-06
-2.65299e-06
5.37721e-06
-2.4776e-06
6.04661e-06
-2.20447e-06
6.62924e-06
-1.91095e-06
7.12715e-06
-1.63443e-06
7.54924e-06
-1.39402e-06
7.90782e-06
-1.19685e-06
8.21541e-06
-1.04075e-06
8.48274e-06
-9.18322e-07
8.7181e-06
-8.20952e-07
8.92749e-06
-7.41335e-07
9.1152e-06
-6.7418e-07
9.28436e-06
-6.15963e-07
9.4373e-06
-5.64398e-07
9.57582e-06
-5.17977e-07
9.70137e-06
-4.7567e-07
9.81515e-06
-4.3674e-07
9.91815e-06
-4.00636e-07
1.00112e-05
-3.66934e-07
1.00951e-05
-3.35316e-07
1.01703e-05
-3.05508e-07
1.02376e-05
-2.77299e-07
1.02972e-05
-2.50513e-07
1.03498e-05
-2.24999e-07
1.03956e-05
-2.00635e-07
1.04351e-05
-1.77315e-07
1.04684e-05
-1.54944e-07
1.04959e-05
-1.33479e-07
1.05178e-05
-1.12956e-07
1.05344e-05
-9.33562e-08
1.05459e-05
-7.47188e-08
1.05527e-05
-5.6604e-08
1.05548e-05
-3.96556e-08
1.05524e-05
-2.26947e-08
1.05458e-05
-7.76481e-09
1.05343e-05
1.02186e-08
1.05193e-05
2.0699e-08
1.04997e-05
4.21525e-08
1.04776e-05
4.17812e-08
1.04501e-05
7.63594e-08
1.04224e-05
5.15343e-08
1.03867e-05
1.1729e-07
1.03554e-05
4.559e-08
1.03111e-05
1.65706e-07
1.02785e-05
2.66429e-08
1.02266e-05
2.11459e-07
1.01929e-05
9.354e-09
1.01364e-05
2.38491e-07
1.01025e-05
1.63494e-09
1.00408e-05
2.49042e-07
1.00128e-05
-7.91141e-09
9.94757e-06
2.4155e-07
9.91747e-06
7.89658e-09
9.869e-06
1.80105e-07
9.82529e-06
4.37531e-08
9.79534e-06
1.21929e-07
9.75329e-06
3.04581e-08
9.74366e-06
5.61859e-08
9.70623e-06
5.5934e-09
9.72975e-06
-6.26437e-08
9.73453e-06
-1.40148e-07
9.82356e-06
-3.58397e-07
-1.28536e-06
1.24018e-05
2.9722e-05
1.00646e-05
1.67289e-05
7.93458e-06
9.59519e-06
6.33752e-06
5.9291e-06
5.18056e-06
3.95324e-06
4.31257e-06
2.92532e-06
3.64525e-06
2.52275e-06
3.24334e-06
1.90748e-06
3.23462e-06
4.63859e-07
3.62123e-06
-1.32651e-06
4.29245e-06
-2.71004e-06
5.0949e-06
-3.38108e-06
5.91709e-06
-3.47518e-06
6.69634e-06
-3.25685e-06
7.40201e-06
-2.91014e-06
8.02069e-06
-2.52962e-06
8.54999e-06
-2.16374e-06
8.99603e-06
-1.84006e-06
9.3703e-06
-1.57112e-06
9.68606e-06
-1.35652e-06
9.95552e-06
-1.18777e-06
1.01885e-05
-1.05389e-06
1.03922e-05
-9.45078e-07
1.0572e-05
-8.54027e-07
1.07318e-05
-7.7576e-07
1.08744e-05
-7.07003e-07
1.10021e-05
-6.45582e-07
1.11164e-05
-5.9001e-07
1.12189e-05
-5.39221e-07
1.13107e-05
-4.92423e-07
1.13927e-05
-4.49007e-07
1.14659e-05
-4.08505e-07
1.15309e-05
-3.70526e-07
1.15884e-05
-3.34762e-07
1.16388e-05
-3.00952e-07
1.16827e-05
-2.68878e-07
1.17204e-05
-2.3836e-07
1.17524e-05
-2.0924e-07
1.17788e-05
-1.81379e-07
1.18e-05
-1.54693e-07
1.18163e-05
-1.29191e-07
1.18277e-05
-1.04851e-07
1.18347e-05
-8.17081e-08
1.18374e-05
-5.9296e-08
1.1836e-05
-3.82551e-08
1.18307e-05
-1.74088e-08
1.18213e-05
1.7069e-09
1.18077e-05
2.38086e-08
1.17906e-05
3.77959e-08
1.17696e-05
6.31158e-08
1.17457e-05
6.57126e-08
1.17175e-05
1.04586e-07
1.16876e-05
8.14407e-08
1.1652e-05
1.52819e-07
1.16173e-05
8.0279e-08
1.15747e-05
2.08369e-07
1.1536e-05
6.53126e-08
1.14878e-05
2.59673e-07
1.14449e-05
5.22443e-08
1.13929e-05
2.9049e-07
1.1349e-05
4.55121e-08
1.12887e-05
3.09338e-07
1.1253e-05
2.78698e-08
1.1186e-05
3.0849e-07
1.1146e-05
4.79421e-08
1.10975e-05
2.28536e-07
1.10404e-05
1.00865e-07
1.10086e-05
1.53744e-07
1.09532e-05
8.58969e-08
1.09406e-05
6.87698e-08
1.08899e-05
5.6294e-08
1.09054e-05
-7.81977e-08
1.0903e-05
-1.3771e-07
1.0969e-05
-4.24405e-07
-1.52882e-06
1.31531e-05
2.99022e-05
1.14046e-05
1.84774e-05
9.49056e-06
1.15092e-05
7.88661e-06
7.53305e-06
6.64277e-06
5.19708e-06
5.68189e-06
3.8862e-06
4.96047e-06
3.24417e-06
4.552e-06
2.31595e-06
4.55253e-06
4.63336e-07
4.93471e-06
-1.7087e-06
5.58347e-06
-3.3588e-06
6.35718e-06
-4.15479e-06
7.1564e-06
-4.2744e-06
7.92438e-06
-4.02483e-06
8.63015e-06
-3.61591e-06
9.25583e-06
-3.1553e-06
9.79325e-06
-2.70116e-06
1.02439e-05
-2.29074e-06
1.06171e-05
-1.94429e-06
1.09258e-05
-1.66523e-06
1.11833e-05
-1.44523e-06
1.14007e-05
-1.27129e-06
1.15866e-05
-1.13105e-06
1.17475e-05
-1.01489e-06
1.18879e-05
-9.16104e-07
1.2011e-05
-8.30188e-07
1.21196e-05
-7.54142e-07
1.22155e-05
-6.85913e-07
1.23003e-05
-6.24033e-07
1.23753e-05
-5.67419e-07
1.24415e-05
-5.15241e-07
1.24999e-05
-4.6686e-07
1.25511e-05
-4.21747e-07
1.25958e-05
-3.79479e-07
1.26346e-05
-3.39709e-07
1.26678e-05
-3.02135e-07
1.2696e-05
-2.66514e-07
1.27194e-05
-2.32632e-07
1.27383e-05
-2.00299e-07
1.2753e-05
-1.69386e-07
1.27637e-05
-1.39867e-07
1.27705e-05
-1.11704e-07
1.27738e-05
-8.49322e-08
1.27736e-05
-5.90919e-08
1.27701e-05
-3.47556e-08
1.27636e-05
-1.09295e-08
1.27533e-05
1.20102e-08
1.27399e-05
3.71997e-08
1.27234e-05
5.4287e-08
1.27038e-05
8.26903e-08
1.26813e-05
8.82099e-08
1.26557e-05
1.30236e-07
1.26275e-05
1.0964e-07
1.25958e-05
1.84476e-07
1.25622e-05
1.13862e-07
1.25251e-05
2.45498e-07
1.24857e-05
1.04712e-07
1.24451e-05
3.00276e-07
1.23989e-05
9.84264e-08
1.23555e-05
3.33956e-07
1.23077e-05
9.32965e-08
1.22529e-05
3.64113e-07
1.2215e-05
6.57788e-08
1.21513e-05
3.72179e-07
1.21058e-05
9.34241e-08
1.20621e-05
2.72271e-07
1.1997e-05
1.65992e-07
1.19658e-05
1.84907e-07
1.19028e-05
1.48889e-07
1.18877e-05
8.38778e-08
1.18301e-05
1.13888e-07
1.18354e-05
-8.35438e-08
1.18299e-05
-1.32162e-07
1.18719e-05
-4.66428e-07
-1.73557e-06
1.36763e-05
2.95593e-05
1.24978e-05
1.96559e-05
1.08983e-05
1.31088e-05
9.39521e-06
9.03611e-06
8.1418e-06
6.45049e-06
7.13518e-06
4.89282e-06
6.38188e-06
3.99746e-06
5.96716e-06
2.73067e-06
5.95869e-06
4.71812e-07
6.30578e-06
-2.05579e-06
6.89324e-06
-3.94626e-06
7.5956e-06
-4.85715e-06
8.3291e-06
-5.0079e-06
9.04628e-06
-4.74202e-06
9.71832e-06
-4.28795e-06
1.03237e-05
-3.76071e-06
1.0848e-05
-3.22547e-06
1.12868e-05
-2.72948e-06
1.16454e-05
-2.30294e-06
1.19358e-05
-1.95557e-06
1.21714e-05
-1.68082e-06
1.23645e-05
-1.46446e-06
1.25251e-05
-1.2916e-06
1.26603e-05
-1.15011e-06
1.27754e-05
-1.03125e-06
1.28743e-05
-9.29069e-07
1.29597e-05
-8.39563e-07
1.30338e-05
-7.59994e-07
1.30982e-05
-6.88423e-07
1.31542e-05
-6.23429e-07
1.32029e-05
-5.63931e-07
1.32451e-05
-5.09101e-07
1.32817e-05
-4.5826e-07
1.3313e-05
-4.10865e-07
1.33398e-05
-3.66473e-07
1.33624e-05
-3.24703e-07
1.33811e-05
-2.8524e-07
1.33963e-05
-2.47815e-07
1.34082e-05
-2.12193e-07
1.3417e-05
-1.78194e-07
1.34229e-05
-1.45755e-07
1.3426e-05
-1.14814e-07
1.34265e-05
-8.54101e-08
1.34245e-05
-5.7123e-08
1.34202e-05
-3.04298e-08
1.34137e-05
-4.42264e-09
1.34042e-05
2.14357e-08
1.33926e-05
4.8851e-08
1.33785e-05
6.83885e-08
1.33622e-05
9.90107e-08
1.33432e-05
1.07131e-07
1.33223e-05
1.51191e-07
1.32984e-05
1.33546e-07
1.3273e-05
2.09898e-07
1.32436e-05
1.43255e-07
1.32146e-05
2.74452e-07
1.31781e-05
1.41219e-07
1.3148e-05
3.3041e-07
1.31029e-05
1.4355e-07
1.30705e-05
3.66296e-07
1.30243e-05
1.39511e-07
1.29777e-05
4.10729e-07
1.29427e-05
1.00722e-07
1.28862e-05
4.28761e-07
1.28397e-05
1.39919e-07
1.28039e-05
3.08054e-07
1.27371e-05
2.32758e-07
1.27083e-05
2.13699e-07
1.2644e-05
2.13222e-07
1.26275e-05
1.00346e-07
1.2569e-05
1.7238e-07
1.25644e-05
-7.88993e-08
1.25587e-05
-1.26519e-07
1.25799e-05
-4.87579e-07
-1.90388e-06
1.40204e-05
2.88722e-05
1.33533e-05
2.03231e-05
1.21192e-05
1.43428e-05
1.08031e-05
1.03522e-05
9.61667e-06
7.63695e-06
8.61823e-06
5.89126e-06
7.861e-06
4.7547e-06
7.4435e-06
3.14817e-06
7.41199e-06
5.03323e-07
7.70012e-06
-2.34393e-06
8.19679e-06
-4.44292e-06
8.79489e-06
-5.45525e-06
9.42825e-06
-5.64126e-06
1.00612e-05
-5.37501e-06
1.06697e-05
-4.89645e-06
1.12304e-05
-4.32137e-06
1.17228e-05
-3.71781e-06
1.21356e-05
-3.14232e-06
1.24695e-05
-2.63683e-06
1.27338e-05
-2.21987e-06
1.29416e-05
-1.88868e-06
1.3106e-05
-1.62882e-06
1.32376e-05
-1.42319e-06
1.33445e-05
-1.25702e-06
1.34325e-05
-1.11931e-06
1.35059e-05
-1.00242e-06
1.35675e-05
-9.01173e-07
1.36196e-05
-8.12047e-07
1.36637e-05
-7.32562e-07
1.37012e-05
-6.60923e-07
1.3733e-05
-5.95781e-07
1.376e-05
-5.36107e-07
1.37829e-05
-4.8107e-07
1.3802e-05
-4.30008e-07
1.38179e-05
-3.82383e-07
1.38309e-05
-3.37738e-07
1.38414e-05
-2.95694e-07
1.38495e-05
-2.55927e-07
1.38555e-05
-2.18162e-07
1.38595e-05
-1.82177e-07
1.38616e-05
-1.47868e-07
1.38619e-05
-1.15152e-07
1.38606e-05
-8.40697e-08
1.38577e-05
-5.42602e-08
1.38534e-05
-2.61467e-08
1.38476e-05
1.39755e-09
1.38399e-05
2.91253e-08
1.38308e-05
5.79891e-08
1.38199e-05
7.92831e-08
1.38076e-05
1.11287e-07
1.37932e-05
1.21546e-07
1.37778e-05
1.66606e-07
1.37593e-05
1.51996e-07
1.37411e-05
2.28156e-07
1.37174e-05
1.66928e-07
1.36977e-05
2.94191e-07
1.36661e-05
1.72811e-07
1.36475e-05
3.48944e-07
1.36062e-05
1.84879e-07
1.35862e-05
3.86328e-07
1.35449e-05
1.80758e-07
1.35081e-05
4.47565e-07
1.34795e-05
1.29353e-07
1.34326e-05
4.75644e-07
1.33886e-05
1.83869e-07
1.3363e-05
3.33701e-07
1.32995e-05
2.96224e-07
1.32746e-05
2.38625e-07
1.32143e-05
2.73489e-07
1.31979e-05
1.16752e-07
1.31434e-05
2.26934e-07
1.31306e-05
-6.61861e-08
1.31267e-05
-1.22559e-07
1.31319e-05
-4.9276e-07
-2.03531e-06
1.42297e-05
2.79758e-05
1.39928e-05
2.05599e-05
1.31346e-05
1.5201e-05
1.20637e-05
1.14231e-05
1.10106e-05
8.69005e-06
1.00751e-05
6.8268e-06
9.34641e-06
5.48334e-06
8.93463e-06
3.55995e-06
8.87184e-06
5.66109e-07
9.08517e-06
-2.55725e-06
9.47161e-06
-4.82936e-06
9.94344e-06
-5.92708e-06
1.04524e-05
-6.15021e-06
1.0976e-05
-5.89865e-06
1.14971e-05
-5.41756e-06
1.19926e-05
-4.81686e-06
1.24372e-05
-4.16234e-06
1.28128e-05
-3.51798e-06
1.31145e-05
-2.93846e-06
1.33481e-05
-2.45346e-06
1.35255e-05
-2.06613e-06
1.36598e-05
-1.76311e-06
1.37622e-05
-1.52557e-06
1.38413e-05
-1.33612e-06
1.39033e-05
-1.18133e-06
1.39526e-05
-1.0517e-06
1.39922e-05
-9.40747e-07
1.40242e-05
-8.44058e-07
1.40502e-05
-7.5857e-07
1.40714e-05
-6.82089e-07
1.40886e-05
-6.12992e-07
1.41025e-05
-5.50048e-07
1.41137e-05
-4.92281e-07
1.41226e-05
-4.38917e-07
1.41296e-05
-3.89332e-07
1.41348e-05
-3.43003e-07
1.41386e-05
-2.99494e-07
1.41411e-05
-2.58437e-07
1.41425e-05
-2.1952e-07
1.41428e-05
-1.82491e-07
1.41422e-05
-1.4721e-07
1.41406e-05
-1.13572e-07
1.41381e-05
-8.16233e-08
1.41349e-05
-5.10657e-08
1.41311e-05
-2.23406e-08
1.41263e-05
6.20949e-09
1.41206e-05
3.48673e-08
1.41141e-05
6.45093e-08
1.41064e-05
8.69227e-08
1.40981e-05
1.19573e-07
1.40882e-05
1.31474e-07
1.40782e-05
1.76641e-07
1.40652e-05
1.64963e-07
1.40539e-05
2.39482e-07
1.40362e-05
1.84648e-07
1.40253e-05
3.05009e-07
1.39993e-05
1.98816e-07
1.3992e-05
3.56284e-07
1.39558e-05
2.21056e-07
1.39477e-05
3.94477e-07
1.39132e-05
2.15227e-07
1.38865e-05
4.74284e-07
1.38657e-05
1.50139e-07
1.38299e-05
5.11439e-07
1.37907e-05
2.2312e-07
1.37759e-05
3.48445e-07
1.37194e-05
3.52694e-07
1.36994e-05
2.58692e-07
1.36469e-05
3.25956e-07
1.36318e-05
1.31861e-07
1.3585e-05
2.7374e-07
1.35667e-05
-4.78925e-08
1.35653e-05
-1.21168e-07
1.35596e-05
-4.87043e-07
-2.1333e-06
1.43427e-05
2.69664e-05
1.44468e-05
2.04559e-05
1.39435e-05
1.57043e-05
1.31469e-05
1.22198e-05
1.22766e-05
9.56034e-06
1.14529e-05
7.65043e-06
1.07868e-05
6.14945e-06
1.03939e-05
3.95286e-06
1.02982e-05
6.61882e-07
1.04288e-05
-2.68794e-06
1.06955e-05
-5.096e-06
1.103e-05
-6.26159e-06
1.14011e-05
-6.52135e-06
1.17997e-05
-6.29726e-06
1.2217e-05
-5.83481e-06
1.26321e-05
-5.23197e-06
1.30166e-05
-4.5468e-06
1.33464e-05
-3.84785e-06
1.36107e-05
-3.20271e-06
1.38112e-05
-2.65401e-06
1.3958e-05
-2.21288e-06
1.40633e-05
-1.86841e-06
1.41384e-05
-1.6007e-06
1.41922e-05
-1.38995e-06
1.42311e-05
-1.22021e-06
1.42594e-05
-1.08001e-06
1.42802e-05
-9.61459e-07
1.42953e-05
-8.592e-07
1.43063e-05
-7.69554e-07
1.43141e-05
-6.89924e-07
1.43195e-05
-6.18414e-07
1.43231e-05
-5.53604e-07
1.43252e-05
-4.94385e-07
1.43262e-05
-4.39886e-07
1.43262e-05
-3.89409e-07
1.43256e-05
-3.42377e-07
1.43244e-05
-2.9831e-07
1.43228e-05
-2.56803e-07
1.43208e-05
-2.1752e-07
1.43185e-05
-1.80187e-07
1.43159e-05
-1.44635e-07
1.43131e-05
-1.10741e-07
1.431e-05
-7.856e-08
1.43068e-05
-4.78469e-08
1.43036e-05
-1.91128e-08
1.42999e-05
9.92967e-09
1.42959e-05
3.88646e-08
1.42917e-05
6.87179e-08
1.42869e-05
9.17195e-08
1.4282e-05
1.24419e-07
1.4276e-05
1.37508e-07
1.42706e-05
1.82057e-07
1.42624e-05
1.73118e-07
1.42571e-05
2.44825e-07
1.42447e-05
1.97001e-07
1.42416e-05
3.08075e-07
1.4221e-05
2.19478e-07
1.42234e-05
3.53897e-07
1.41927e-05
2.51753e-07
1.41949e-05
3.92272e-07
1.41677e-05
2.42411e-07
1.41504e-05
4.91562e-07
1.41376e-05
1.62963e-07
1.4113e-05
5.36062e-07
1.40795e-05
2.56569e-07
1.40752e-05
3.52786e-07
1.4028e-05
3.99868e-07
1.40131e-05
2.73608e-07
1.39705e-05
3.68514e-07
1.39579e-05
1.44487e-07
1.39208e-05
3.10873e-07
1.38997e-05
-2.6773e-08
1.39011e-05
-1.22607e-07
1.38888e-05
-4.74799e-07
-2.20208e-06
1.43919e-05
2.59078e-05
1.47502e-05
2.00976e-05
1.45593e-05
1.58952e-05
1.40397e-05
1.27393e-05
1.33814e-05
1.02187e-05
1.27075e-05
8.32433e-06
1.21351e-05
6.72177e-06
1.17772e-05
4.3108e-06
1.16526e-05
7.86464e-07
1.17004e-05
-2.73572e-06
1.18467e-05
-5.24226e-06
1.20428e-05
-6.45777e-06
1.22731e-05
-6.75163e-06
1.25406e-05
-6.56476e-06
1.28455e-05
-6.13964e-06
1.31708e-05
-5.55735e-06
1.3487e-05
-4.86294e-06
1.37652e-05
-4.12606e-06
1.39889e-05
-3.42644e-06
1.41558e-05
-2.82085e-06
1.4273e-05
-2.33009e-06
1.43517e-05
-1.94713e-06
1.44028e-05
-1.65178e-06
1.44349e-05
-1.42209e-06
1.44544e-05
-1.2397e-06
1.44655e-05
-1.09111e-06
1.4471e-05
-9.66979e-07
1.44728e-05
-8.60987e-07
1.44721e-05
-7.68833e-07
1.44697e-05
-6.87525e-07
1.44662e-05
-6.14909e-07
1.4462e-05
-5.49397e-07
1.44573e-05
-4.89764e-07
1.44525e-05
-4.35057e-07
1.44476e-05
-3.84523e-07
1.44428e-05
-3.37542e-07
1.44381e-05
-2.93604e-07
1.44336e-05
-2.52278e-07
1.44293e-05
-2.13211e-07
1.44252e-05
-1.76115e-07
1.44214e-05
-1.40804e-07
1.44178e-05
-1.0714e-07
1.44144e-05
-7.51877e-08
1.44113e-05
-4.4746e-08
1.44086e-05
-1.6429e-08
1.44058e-05
1.27015e-08
1.44032e-05
4.14526e-08
1.44009e-05
7.10883e-08
1.43983e-05
9.42656e-08
1.43962e-05
1.26564e-07
1.43932e-05
1.40459e-07
1.43914e-05
1.83842e-07
1.43871e-05
1.77419e-07
1.43865e-05
2.45432e-07
1.43786e-05
2.04945e-07
1.43817e-05
3.0497e-07
1.43657e-05
2.3549e-07
1.43758e-05
3.43795e-07
1.43503e-05
2.77245e-07
1.43607e-05
3.81823e-07
1.43405e-05
2.62699e-07
1.43314e-05
5.00658e-07
1.43256e-05
1.68686e-07
1.43113e-05
5.50359e-07
1.4284e-05
2.83935e-07
1.42886e-05
3.48129e-07
1.42517e-05
4.36761e-07
1.42418e-05
2.83588e-07
1.42098e-05
4.00475e-07
1.42004e-05
1.53875e-07
1.41735e-05
3.37773e-07
1.4152e-05
-5.25278e-09
1.41561e-05
-1.26735e-07
1.41407e-05
-4.59359e-07
-2.24588e-06
1.44025e-05
2.48387e-05
1.49384e-05
1.95617e-05
1.50059e-05
1.58276e-05
1.47452e-05
1.30001e-05
1.43074e-05
1.06564e-05
1.38065e-05
8.82527e-06
1.33525e-05
7.17574e-06
1.30459e-05
4.61744e-06
1.29014e-05
9.30925e-07
1.28725e-05
-2.70674e-06
1.29054e-05
-5.27515e-06
1.29707e-05
-6.52311e-06
1.3066e-05
-6.84697e-06
1.3205e-05
-6.70379e-06
1.33964e-05
-6.33104e-06
1.36286e-05
-5.78948e-06
1.38722e-05
-5.10658e-06
1.40955e-05
-4.34937e-06
1.42773e-05
-3.60819e-06
1.44108e-05
-2.95438e-06
1.45004e-05
-2.41972e-06
1.45556e-05
-2.00226e-06
1.45862e-05
-1.68237e-06
1.46004e-05
-1.43638e-06
1.46044e-05
-1.24365e-06
1.4602e-05
-1.08873e-06
1.45959e-05
-9.60834e-07
1.45876e-05
-8.52702e-07
1.45782e-05
-7.59429e-07
1.45683e-05
-6.77647e-07
1.45584e-05
-6.04971e-07
1.45486e-05
-5.39667e-07
1.45393e-05
-4.80414e-07
1.45304e-05
-4.26198e-07
1.45221e-05
-3.76223e-07
1.45144e-05
-3.29843e-07
1.45073e-05
-2.86527e-07
1.45009e-05
-2.45828e-07
1.44951e-05
-2.07386e-07
1.44899e-05
-1.70906e-07
1.44852e-05
-1.36191e-07
1.44812e-05
-1.03092e-07
1.44777e-05
-7.16885e-08
1.44748e-05
-4.18087e-08
1.44725e-05
-1.41961e-08
1.44705e-05
1.47296e-08
1.4469e-05
4.29808e-08
1.4468e-05
7.20938e-08
1.44671e-05
9.51445e-08
1.44669e-05
1.26722e-07
1.44663e-05
1.41124e-07
1.44672e-05
1.82953e-07
1.44657e-05
1.78825e-07
1.44686e-05
2.42538e-07
1.44641e-05
2.09474e-07
1.44718e-05
2.97318e-07
1.44596e-05
2.47652e-07
1.44753e-05
3.28103e-07
1.44545e-05
2.98047e-07
1.44709e-05
3.65374e-07
1.44567e-05
2.76952e-07
1.44543e-05
5.03044e-07
1.44543e-05
1.68691e-07
1.44489e-05
5.55713e-07
1.44274e-05
3.05486e-07
1.44392e-05
3.36362e-07
1.44125e-05
4.63436e-07
1.44069e-05
2.89167e-07
1.43852e-05
4.22215e-07
1.43793e-05
1.59748e-07
1.43622e-05
3.54828e-07
1.43421e-05
1.48803e-08
1.43485e-05
-1.33148e-07
1.43322e-05
-4.42991e-07
-2.26856e-06
1.43933e-05
2.37787e-05
1.50443e-05
1.89107e-05
1.53131e-05
1.55588e-05
1.52786e-05
1.30346e-05
1.50526e-05
1.08824e-05
1.47324e-05
9.14551e-06
1.44119e-05
7.49621e-06
1.41706e-05
4.85875e-06
1.40178e-05
1.08368e-06
1.39233e-05
-2.61218e-06
1.38558e-05
-5.20764e-06
1.38042e-05
-6.47152e-06
1.37774e-05
-6.82017e-06
1.37975e-05
-6.72393e-06
1.38809e-05
-6.41438e-06
1.40214e-05
-5.93005e-06
1.41921e-05
-5.27729e-06
1.43597e-05
-4.51693e-06
1.44994e-05
-3.74788e-06
1.46007e-05
-3.05573e-06
1.4665e-05
-2.48401e-06
1.46996e-05
-2.03683e-06
1.47131e-05
-1.69591e-06
1.47131e-05
-1.43635e-06
1.4705e-05
-1.23553e-06
1.46924e-05
-1.07613e-06
1.46776e-05
-9.46046e-07
1.4662e-05
-8.37097e-07
1.46464e-05
-7.43819e-07
1.46312e-05
-6.62505e-07
1.46168e-05
-5.90568e-07
1.46033e-05
-5.2615e-07
1.45908e-05
-4.6786e-07
1.45792e-05
-4.14638e-07
1.45686e-05
-3.6566e-07
1.45591e-05
-3.20263e-07
1.45504e-05
-2.7791e-07
1.45428e-05
-2.38144e-07
1.4536e-05
-2.00604e-07
1.45301e-05
-1.64995e-07
1.4525e-05
-1.31113e-07
1.45207e-05
-9.88064e-08
1.45172e-05
-6.81632e-08
1.45144e-05
-3.90412e-08
1.45125e-05
-1.23057e-08
1.4511e-05
1.61979e-08
1.45103e-05
4.37444e-08
1.45102e-05
7.21266e-08
1.45106e-05
9.48364e-08
1.45118e-05
1.25477e-07
1.45128e-05
1.40159e-07
1.45155e-05
1.80181e-07
1.45162e-05
1.78138e-07
1.45216e-05
2.37191e-07
1.45196e-05
2.11439e-07
1.45304e-05
2.86553e-07
1.45214e-05
2.5666e-07
1.45407e-05
3.08767e-07
1.45241e-05
3.1469e-07
1.45444e-05
3.44989e-07
1.45352e-05
2.86184e-07
1.45381e-05
5.00135e-07
1.45423e-05
1.64502e-07
1.45443e-05
5.53705e-07
1.4528e-05
3.21768e-07
1.45449e-05
3.19494e-07
1.45277e-05
4.80659e-07
1.45258e-05
2.91028e-07
1.45132e-05
4.34802e-07
1.45108e-05
1.6221e-07
1.45025e-05
3.6306e-07
1.44849e-05
3.25068e-08
1.4493e-05
-1.41284e-07
1.44771e-05
-4.27048e-07
-2.27335e-06
1.43766e-05
2.27355e-05
1.5096e-05
1.81913e-05
1.55124e-05
1.51423e-05
1.56642e-05
1.28828e-05
1.56278e-05
1.09188e-05
1.5482e-05
9.29135e-06
1.52997e-05
7.67851e-06
1.51335e-05
5.02497e-06
1.49844e-05
1.23269e-06
1.48388e-05
-2.46649e-06
1.46877e-05
-5.05662e-06
1.45374e-05
-6.3212e-06
1.44059e-05
-6.6887e-06
1.43217e-05
-6.63968e-06
1.43071e-05
-6.39982e-06
1.4362e-05
-5.98488e-06
1.44624e-05
-5.37773e-06
1.45754e-05
-4.62992e-06
1.46741e-05
-3.84652e-06
1.47448e-05
-3.12645e-06
1.47859e-05
-2.52516e-06
1.48026e-05
-2.05354e-06
1.48021e-05
-1.69535e-06
1.47907e-05
-1.42499e-06
1.47734e-05
-1.21817e-06
1.47532e-05
-1.05596e-06
1.47321e-05
-9.24995e-07
1.47113e-05
-8.16292e-07
1.46914e-05
-7.23877e-07
1.46726e-05
-6.43744e-07
1.46552e-05
-5.73134e-07
1.46391e-05
-5.10095e-07
1.46245e-05
-4.53181e-07
1.46111e-05
-4.01303e-07
1.45991e-05
-3.53623e-07
1.45883e-05
-3.09473e-07
1.45787e-05
-2.68312e-07
1.45702e-05
-2.29685e-07
1.45629e-05
-1.93231e-07
1.45565e-05
-1.58662e-07
1.45512e-05
-1.25772e-07
1.45468e-05
-9.44071e-08
1.45433e-05
-6.46658e-08
1.45407e-05
-3.64257e-08
1.45391e-05
-1.06814e-08
1.4538e-05
1.72545e-08
1.45378e-05
4.39604e-08
1.45384e-05
7.14735e-08
1.45396e-05
9.36931e-08
1.45418e-05
1.23258e-07
1.45439e-05
1.3805e-07
1.4548e-05
1.76117e-07
1.45502e-05
1.75958e-07
1.45572e-05
2.30196e-07
1.45571e-05
2.11474e-07
1.45698e-05
2.73826e-07
1.45635e-05
2.63028e-07
1.45848e-05
2.87395e-07
1.45719e-05
3.27603e-07
1.45945e-05
3.22382e-07
1.45894e-05
2.91344e-07
1.45964e-05
4.93138e-07
1.46033e-05
1.57533e-07
1.46112e-05
5.45869e-07
1.45995e-05
3.33412e-07
1.46197e-05
2.99382e-07
1.46107e-05
4.89589e-07
1.46119e-05
2.89875e-07
1.4607e-05
4.39642e-07
1.46076e-05
1.61637e-07
1.46068e-05
3.63821e-07
1.45923e-05
4.70914e-08
1.46015e-05
-1.50494e-07
1.45866e-05
-4.12172e-07
-2.26286e-06
1.43598e-05
2.1709e-05
1.51154e-05
1.74357e-05
1.56336e-05
1.46242e-05
1.59301e-05
1.25863e-05
1.60534e-05
1.07955e-05
1.60648e-05
9.27999e-06
1.60155e-05
7.72784e-06
1.59285e-05
5.11193e-06
1.57944e-05
1.3668e-06
1.56132e-05
-2.28528e-06
1.53975e-05
-4.84096e-06
1.51688e-05
-6.09248e-06
1.49525e-05
-6.4724e-06
1.47812e-05
-6.46837e-06
1.46819e-05
-6.30057e-06
1.46597e-05
-5.96263e-06
1.46948e-05
-5.41288e-06
1.4756e-05
-4.69106e-06
1.48154e-05
-3.90594e-06
1.48572e-05
-3.16831e-06
1.48773e-05
-2.54522e-06
1.48784e-05
-2.05468e-06
1.48662e-05
-1.68308e-06
1.48458e-05
-1.40463e-06
1.48214e-05
-1.19377e-06
1.47956e-05
-1.03018e-06
1.47701e-05
-8.99433e-07
1.47456e-05
-7.91821e-07
1.47226e-05
-7.00932e-07
1.47014e-05
-6.22508e-07
1.46819e-05
-5.53654e-07
1.46642e-05
-4.92342e-07
1.46481e-05
-4.37094e-07
1.46336e-05
-3.86803e-07
1.46206e-05
-3.40628e-07
1.4609e-05
-2.97902e-07
1.45988e-05
-2.58089e-07
1.45899e-05
-2.20739e-07
1.45821e-05
-1.85496e-07
1.45755e-05
-1.52081e-07
1.45701e-05
-1.20288e-07
1.45656e-05
-8.99673e-08
1.45622e-05
-6.12225e-08
1.45597e-05
-3.395e-08
1.45583e-05
-9.25683e-09
1.45575e-05
1.79961e-08
1.45577e-05
4.37757e-08
1.45589e-05
7.03276e-08
1.45606e-05
9.19514e-08
1.45635e-05
1.20354e-07
1.45664e-05
1.35126e-07
1.45714e-05
1.71164e-07
1.45746e-05
1.72696e-07
1.45827e-05
2.22124e-07
1.45842e-05
2.10012e-07
1.4598e-05
2.59992e-07
1.45939e-05
2.67095e-07
1.46161e-05
2.65221e-07
1.46066e-05
3.37086e-07
1.46302e-05
2.98868e-07
1.46283e-05
2.93223e-07
1.46384e-05
4.82996e-07
1.4647e-05
1.48947e-07
1.46593e-05
5.33549e-07
1.46517e-05
3.41012e-07
1.46735e-05
2.77584e-07
1.46716e-05
4.91516e-07
1.46751e-05
2.86334e-07
1.46766e-05
4.38204e-07
1.46796e-05
1.58558e-07
1.46849e-05
3.58553e-07
1.46735e-05
5.85413e-08
1.46831e-05
-1.60108e-07
1.46694e-05
-3.98501e-07
-2.23912e-06
1.43466e-05
2.06957e-05
1.51186e-05
1.66638e-05
1.57021e-05