/*--------------------------------*- C++ -*----------------------------------*\
| =========                 |                                                 |
| \\      /  F ield         | OpenFOAM: The Open Source CFD Toolbox           |
|  \\    /   O peration     | Version:  2.4.0                                 |
|   \\  /    A nd           | Web:      www.OpenFOAM.org                      |
|    \\/     M anipulation  |                                                 |
\*---------------------------------------------------------------------------*/
FoamFile
{
    version     2.0;
    format      ascii;
    class       volScalarField;
    location    "0.9";
    object      p;
}
// * * * * * * * * * * * * * * * * * * * * * * * * * * * * * * * * * * * * * //

dimensions      [0 2 -2 0 0 0 0];

internalField   nonuniform List<scalar> 
2320
(
1.36728
1.36727
1.36726
1.36723
1.36718
1.36712
1.36703
1.36692
1.36675
1.36654
1.36624
1.36585
1.36532
1.36462
1.36371
1.36252
1.36099
1.35905
1.35661
1.3536
1.36728
1.36728
1.36726
1.36723
1.36719
1.36713
1.36704
1.36693
1.36677
1.36656
1.36627
1.36588
1.36536
1.36468
1.36378
1.3626
1.36109
1.35917
1.35675
1.35377
1.36729
1.36728
1.36726
1.36724
1.3672
1.36714
1.36706
1.36695
1.3668
1.36659
1.36632
1.36595
1.36545
1.36479
1.36391
1.36277
1.36129
1.3594
1.35703
1.35409
1.36729
1.36729
1.36727
1.36725
1.36721
1.36716
1.36708
1.36698
1.36684
1.36665
1.36639
1.36604
1.36558
1.36495
1.36412
1.36302
1.36159
1.35976
1.35745
1.35457
1.3673
1.3673
1.36728
1.36726
1.36723
1.36718
1.36711
1.36702
1.3669
1.36672
1.36649
1.36617
1.36574
1.36516
1.36438
1.36335
1.362
1.36024
1.358
1.35521
1.36731
1.36731
1.3673
1.36728
1.36725
1.36721
1.36715
1.36707
1.36696
1.36681
1.36661
1.36633
1.36595
1.36543
1.36472
1.36377
1.3625
1.36083
1.35868
1.35598
1.36733
1.36732
1.36731
1.3673
1.36727
1.36724
1.36719
1.36713
1.36704
1.36692
1.36675
1.36651
1.36619
1.36574
1.36511
1.36426
1.36309
1.36153
1.35949
1.35689
1.36734
1.36734
1.36733
1.36732
1.3673
1.36728
1.36724
1.36719
1.36713
1.36703
1.3669
1.36672
1.36646
1.36609
1.36557
1.36483
1.36379
1.36236
1.36043
1.35793
1.36735
1.36735
1.36735
1.36734
1.36733
1.36731
1.36729
1.36726
1.36722
1.36716
1.36707
1.36694
1.36676
1.36648
1.36607
1.36547
1.36458
1.3633
1.3615
1.35909
1.36737
1.36737
1.36737
1.36736
1.36736
1.36735
1.36735
1.36734
1.36732
1.36729
1.36725
1.36718
1.36708
1.36691
1.36663
1.36619
1.36548
1.36437
1.36272
1.36038
1.36738
1.36738
1.36738
1.36739
1.36739
1.3674
1.3674
1.36741
1.36742
1.36743
1.36743
1.36743
1.36741
1.36736
1.36723
1.36697
1.36647
1.36558
1.3641
1.36183
1.3674
1.3674
1.3674
1.36741
1.36742
1.36744
1.36746
1.36748
1.36752
1.36756
1.36762
1.36769
1.36776
1.36783
1.36787
1.36782
1.36756
1.36693
1.36566
1.36345
1.36741
1.36741
1.36742
1.36743
1.36745
1.36747
1.36751
1.36755
1.36762
1.3677
1.3678
1.36794
1.36811
1.36831
1.36853
1.36871
1.36876
1.36845
1.36746
1.36532
1.36742
1.36743
1.36744
1.36745
1.36748
1.36751
1.36756
1.36762
1.36771
1.36782
1.36798
1.36818
1.36845
1.36879
1.3692
1.36965
1.37004
1.37015
1.36955
1.36753
1.36744
1.36744
1.36745
1.36747
1.3675
1.36755
1.3676
1.36768
1.36779
1.36794
1.36814
1.36841
1.36877
1.36925
1.36986
1.3706
1.3714
1.37205
1.372
1.37026
1.36745
1.36745
1.36747
1.36749
1.36753
1.36757
1.36764
1.36774
1.36787
1.36805
1.36829
1.36862
1.36906
1.36967
1.37048
1.37153
1.37282
1.37414
1.37492
1.37376
1.36746
1.36746
1.36748
1.3675
1.36754
1.3676
1.36768
1.36778
1.36793
1.36813
1.36841
1.36879
1.36932
1.37004
1.37104
1.37241
1.37422
1.37641
1.37836
1.37828
1.36746
1.36747
1.36749
1.36751
1.36756
1.36762
1.3677
1.36782
1.36798
1.3682
1.36851
1.36893
1.36952
1.37034
1.3715
1.37316
1.37553
1.3788
1.38252
1.38438
1.36747
1.36747
1.36749
1.36752
1.36757
1.36763
1.36772
1.36784
1.36801
1.36825
1.36857
1.36902
1.36965
1.37055
1.37183
1.37372
1.37656
1.38106
1.3875
1.39464
1.36747
1.36748
1.36749
1.36753
1.36757
1.36764
1.36773
1.36786
1.36803
1.36827
1.36861
1.36907
1.36973
1.37066
1.372
1.37402
1.37711
1.38256
1.39188
1.41348
1.3499
1.34538
1.3398
1.33283
1.3239
1.31215
1.29634
1.27476
1.3501
1.34563
1.34013
1.33329
1.32454
1.31305
1.29757
1.2764
1.35049
1.34611
1.34078
1.33419
1.32582
1.31484
1.30002
1.27965
1.35106
1.34683
1.34173
1.33551
1.32769
1.31748
1.30365
1.28448
1.3518
1.34774
1.34293
1.33719
1.33012
1.32093
1.30839
1.29081
1.35269
1.34882
1.34435
1.33919
1.33303
1.32511
1.31419
1.29855
1.35372
1.35003
1.34592
1.34143
1.33633
1.32994
1.32096
1.30762
1.35485
1.35132
1.34756
1.34379
1.33994
1.33534
1.32859
1.31787
1.35608
1.35264
1.34919
1.34618
1.34374
1.34119
1.337
1.32917
1.35737
1.35393
1.35069
1.34844
1.34757
1.34738
1.34606
1.34138
1.35873
1.35513
1.3519
1.35037
1.35129
1.35381
1.3557
1.35437
1.36017
1.35615
1.35266
1.35176
1.35469
1.36036
1.36583
1.36801
1.36172
1.35692
1.35271
1.35229
1.35755
1.36691
1.3764
1.38221
1.36346
1.35734
1.35174
1.35164
1.35967
1.37339
1.38742
1.39694
1.3656
1.35726
1.34916
1.34921
1.36078
1.37987
1.39911
1.41234
1.36856
1.3567
1.3443
1.34402
1.36015
1.38617
1.41182
1.42879
1.37282
1.35582
1.33722
1.33598
1.35692
1.39142
1.42539
1.44701
1.37805
1.35157
1.32593
1.32646
1.35365
1.39812
1.44274
1.47047
1.38794
1.33952
1.30023
1.30334
1.34335
1.40232
1.46153
1.49616
1.42983
1.34278
1.27825
1.27746
1.32851
1.40532
1.48791
1.52313
1.24508
1.20412
1.14744
1.06872
0.958843
0.804785
0.588381
0.285303
-0.134936
-0.7066
-1.46123
-2.4165
-3.56313
-4.85521
-6.20975
-7.51746
-8.66138
-9.53684
-10.0661
-10.2056
-9.94604
-9.30875
-8.34947
-7.152
-5.81843
-4.44417
-3.12158
-1.81858
1.24721
1.20684
1.15087
1.07298
0.964008
0.810798
0.594907
0.291524
-0.130603
-0.706738
-1.46935
-2.43644
-3.59806
-4.90663
-6.277
-7.59791
-8.75129
-9.63238
-10.1641
-10.3039
-10.0432
-9.40214
-8.43629
-7.22995
-5.8864
-4.51037
-3.20464
-2.06116
1.25143
1.21224
1.15769
1.08147
0.974319
0.822821
0.607975
0.303986
-0.12195
-0.707177
-1.48611
-2.47749
-3.66994
-5.01241
-6.4152
-7.76295
-8.93531
-9.82748
-10.3639
-10.5038
-10.2403
-9.59139
-8.61229
-7.38768
-6.02341
-4.63455
-3.33533
-2.24166
1.2577
1.22025
1.16783
1.09412
0.989738
0.840871
0.627684
0.322896
-0.108753
-0.708015
-1.51254
-2.54217
-3.78311
-5.17853
-6.63139
-8.01993
-9.22052
-10.1287
-10.6716
-10.8112
-10.543
-9.8824
-8.88329
-7.62999
-6.23112
-4.80942
-3.4853
-2.36437
1.26593
1.23078
1.18117
1.11082
1.0102
0.864968
0.654194
0.348544
-0.0908538
-0.709851
-1.55066
-2.63415
-3.94225
-5.40936
-6.92812
-8.36851
-9.60336
-10.5298
-11.0793
-11.2183
-10.9448
-10.2707
-9.24691
-7.95577
-6.50775
-5.03139
-3.65276
-2.47472
1.276
1.24368
1.19755
1.13144
1.03562
0.895129
0.687698
0.381233
-0.0681866
-0.713316
-1.60173
-2.7541
-4.14522
-5.69762
-7.2916
-8.78829
-10.0579
-11.0009
-11.5553
-11.6936
-11.4157
-10.7297
-9.68086
-8.34763
-6.84057
-5.29324
-3.83937
-2.58682
1.28777
1.25875
1.21676
1.15575
1.06583
0.931341
0.728375
0.42129
-0.0403907
-0.717771
-1.66339
-2.89518
-4.37781
-6.02029
-7.69033
-9.241
-10.5413
-11.4966
-12.0529
-12.1898
-11.9095
-11.2152
-10.1451
-8.77153
-7.2032
-5.57752
-4.03683
-2.69735
1.30107
1.27576
1.23852
1.18349
1.10062
0.973528
0.776372
0.469258
-0.0061503
-0.71999
-1.72788
-3.04195
-4.61519
-6.34361
-8.0836
-9.68129
-11.0056
-11.9679
-12.5228
-12.6578
-12.3773
-11.6791
-10.5933
-9.18518
-7.56015
-5.85779
-4.22844
-2.79835
1.31568
1.29443
1.26248
1.2143
1.13968
1.02151
0.831845
0.526136
0.0370852
-0.714045
-1.78284
-3.1735
-4.82813
-6.63179
-8.43136
-10.0669
-11.408
-12.372
-12.9227
-13.0552
-12.7765
-12.0785
-10.9828
-9.54768
-7.87481
-6.10452
-4.39396
-2.87958
1.33139
1.31442
1.28824
1.24772
1.18258
1.07496
0.895021
0.593266
0.0925281
-0.692507
-1.81402
-3.26845
-4.98965
-6.85404
-8.70067
-10.3646
-11.7164
-12.679
-13.2237
-13.3533
-13.0773
-12.3818
-11.2807
-9.82598
-8.11596
-6.29089
-4.5137
-2.92921
1.34792
1.33532
1.31529
1.2832
1.22875
1.13342
0.966057
0.671648
0.162973
-0.648123
-1.80847
-3.30914
-5.07879
-6.98733
-8.86766
-10.5515
-11.9105
-12.8713
-13.4114
-13.5389
-13.2649
-12.5716
-11.467
-9.99838
-8.26186
-6.39692
-4.57177
-2.93635
1.365
1.35664
1.34302
1.32008
1.27741
1.19621
1.04455
0.760975
0.249866
-0.575556
-1.7574
-3.28428
-5.08196
-7.01711
-8.91824
-10.6152
-11.9806
-12.9433
-13.4832
-13.6108
-13.3374
-12.6435
-11.5343
-10.0553
-8.30167
-6.41182
-4.55889
-2.894
1.38232
1.37783
1.37077
1.35763
1.32765
1.26219
1.12886
0.858944
0.352536
-0.473302
-1.65849
-3.19124
-4.99616
-6.94103
-8.85265
-10.559
-11.9335
-12.9046
-13.4509
-13.5809
-13.305
-12.6055
-11.4881
-9.99959
-8.23629
-6.33542
-4.47374
-2.80089
1.39954
1.39832
1.39804
1.39521
1.37825
1.32923
1.21544
0.961031
0.46738
-0.345065
-1.51697
-3.03788
-4.83392
-6.77365
-8.68476
-10.397
-11.7821
-12.7658
-13.3226
-13.4555
-13.1751
-12.4662
-11.3389
-9.84294
-8.07647
-6.18101
-4.32496
-2.66284
1.41626
1.41753
1.42445
1.43204
1.42724
1.39361
1.29847
1.06067
0.588288
-0.199061
-1.34435
-2.83853
-4.61072
-6.53175
-8.43308
-10.1467
-11.5421
-12.5409
-13.1104
-13.2472
-12.96
-12.2393
-11.1015
-9.6011
-7.83917
-5.95947
-4.12633
-2.49152
1.43173
1.43436
1.44912
1.46635
1.47103
1.44993
1.37081
1.15109
0.709417
-0.0469276
-1.15621
-2.61356
-4.35154
-6.24456
-8.12886
-9.83917
-11.2431
-12.2568
-12.8398
-12.9815
-12.6877
-11.9553
-10.8079
-9.30609
-7.55476
-5.69874
-3.90016
-2.3039
1.44531
1.44783
1.47061
1.49493
1.50484
1.4926
1.42711
1.23133
0.817795
0.0983443
-0.971358
-2.38811
-4.0876
-5.94831
-7.81143
-9.51462
-10.9241
-11.9503
-12.5454
-12.6921
-12.3934
-11.6516
-10.4972
-8.99731
-7.261
-5.43367
-3.67409
-2.12074
1.45801
1.45929
1.48854
1.51493
1.52556
1.51893
1.46601
1.29417
0.908217
0.223013
-0.809549
-2.18834
-3.85171
-5.6817
-7.52378
-9.21826
-10.6303
-11.6657
-12.27
-12.4207
-12.1186
-11.3702
-10.212
-8.71657
-6.99675
-5.19808
-3.47564
-1.96273
1.46182
1.46744
1.50187
1.52556
1.53429
1.53121
1.49018
1.33657
0.972664
0.314146
-0.689332
-2.03857
-3.67395
-5.48017
-7.30571
-8.99277
-10.4057
-11.4469
-12.0574
-12.2109
-11.9063
-11.154
-9.99421
-8.50359
-6.79775
-5.02212
-3.32889
-1.84737
1.4301
1.45715
1.50381
1.527
1.53536
1.53496
1.50154
1.35779
1.00552
0.361549
-0.625792
-1.95858
-3.57836
-5.37131
-7.18752
-8.87021
-10.2834
-11.3274
-11.9411
-12.096
-11.7905
-11.0363
-9.87615
-8.38869
-6.69091
-4.92816
-3.25109
-1.78674
-0.868833
-0.932895
-1.06632
-1.08796
-0.921002
-0.431055
0.487225
1.25605
-1.24227
-1.02271
-0.989435
-0.87188
-0.55654
0.0200865
0.834409
1.53937
-1.44039
-1.02302
-0.792524
-0.523424
-0.134506
0.40845
1.06626
1.62558
-1.50902
-0.958468
-0.586597
-0.227953
0.184534
0.668691
1.18858
1.61466
-1.55364
-0.90391
-0.43303
-0.0173574
0.400402
0.831901
1.24386
1.56572
-1.59226
-0.857763
-0.311883
0.140606
0.550643
0.92721
1.26202
1.50657
-1.62076
-0.808702
-0.204745
0.268562
0.661388
0.992755
1.26389
1.45321
-1.63858
-0.757229
-0.108725
0.375028
0.747535
1.03875
1.26096
1.40938
-1.64384
-0.703865
-0.0217778
0.466465
0.819244
1.0764
1.26041
1.37757
-1.63081
-0.64475
0.0611574
0.549594
0.883863
1.11231
1.26561
1.35827
-1.59274
-0.574884
0.145045
0.629492
0.946034
1.14985
1.27795
1.35083
-1.525
-0.490958
0.232898
0.70906
1.00826
1.19063
1.29762
1.35395
-1.42684
-0.392344
0.325553
0.789312
1.07133
1.23474
1.32371
1.36574
-1.30207
-0.281452
0.421722
0.869521
1.13447
1.28093
1.35438
1.38386
-1.15867
-0.163431
0.517812
0.947459
1.19559
1.32698
1.38715
1.40569
-1.00839
-0.0460493
0.60981
1.01976
1.25171
1.37013
1.41931
1.42855
-0.865796
0.0620481
0.691074
1.08296
1.29937
1.40757
1.44821
1.44995
-0.745416
0.151427
0.756599
1.13087
1.33798
1.4371
1.47167
1.46784
-0.658941
0.214456
0.801955
1.16324
1.36339
1.45773
1.488
1.48057
-0.614056
0.246555
0.824552
1.17922
1.37581
1.46817
1.49599
1.48704
2.01015
1.77359
1.55184
1.407
1.23419
0.998528
0.893704
0.934404
0.939548
0.896834
0.831835
0.759854
0.679853
0.589151
0.489824
0.385674
0.279619
0.171347
0.0540481
-0.116026
2.04964
1.69034
1.43981
1.32393
1.19633
1.02392
0.937476
0.959036
0.949802
0.898882
0.830476
0.75702
0.676843
0.586575
0.487968
0.384525
0.279009
0.170911
0.0636327
-0.0642737
1.92379
1.61202
1.39529
1.31184
1.20661
1.05457
0.95762
0.957326
0.94461
0.894479
0.826723
0.754613
0.675076
0.585612
0.48777
0.384896
0.279845
0.173264
0.0738274
-0.0398445
1.81071
1.55442
1.35662
1.28022
1.19179
1.06397
0.974755
0.966045
0.948945
0.897231
0.828451
0.754209
0.674021
0.584841
0.487514
0.385162
0.280799
0.176248
0.0812962
-0.0209035
1.69673
1.49685
1.32543
1.25885
1.18805
1.08186
0.995834
0.974578
0.95017
0.895585
0.82531
0.751735
0.672396
0.583929
0.487443
0.385968
0.282609
0.180065
0.0880394
-0.00502867
1.6
1.44977
1.30606
1.24625
1.18652
1.09492
1.01057
0.979244
0.949633
0.894405
0.824618
0.75083
0.671348
0.583429
0.487798
0.387243
0.284855
0.184131
0.0939043
0.00764813
1.5213
1.41116
1.2939
1.23886
1.18639
1.10599
1.02432
0.984984
0.950426
0.894089
0.824126
0.749769
0.670289
0.583058
0.488364
0.388795
0.287439
0.188407
0.099125
0.0178371
1.46024
1.38188
1.28822
1.23666
1.18824
1.11575
1.03633
0.990105
0.950789
0.89317
0.822951
0.74829
0.669226
0.582744
0.489066
0.390567
0.290264
0.192691
0.103721
0.0260373
1.41582
1.36168
1.28755
1.23823
1.19138
1.12415
1.0466
0.99469
0.951028
0.892206
0.822002
0.747286
0.668316
0.582567
0.489932
0.392535
0.293246
0.196877
0.107806
0.032581
1.38636
1.34976
1.29073
1.24256
1.19552
1.13144
1.05538
0.998859
0.951228
0.891183
0.820956
0.746182
0.667423
0.582451
0.490905
0.394623
0.296294
0.200884
0.111459
0.0377012
1.37003
1.34506
1.29678
1.24877
1.20029
1.13772
1.06274
1.00253
0.951293
0.89002
0.819774
0.745052
0.666578
0.582405
0.491965
0.396797
0.29937
0.204687
0.114782
0.0415693
1.36483
1.34632
1.30478
1.25608
1.20532
1.14305
1.06879
1.00564
0.951173
0.888707
0.818467
0.743896
0.665772
0.58242
0.493102
0.399033
0.302436
0.208251
0.117849
0.044282
1.36858
1.3522
1.31384
1.26371
1.21029
1.14745
1.07359
1.00813
0.95081
0.887217
0.817009
0.742711
0.664998
0.582496
0.494309
0.401312
0.305467
0.211571
0.120745
0.045904
1.37888
1.36128
1.3232
1.27112
1.2149
1.15087
1.07716
1.00995
0.950148
0.885534
0.815387
0.741426
0.664229
0.582611
0.495556
0.403591
0.308413
0.214608
0.123501
0.0464827
1.39336
1.37209
1.33218
1.27783
1.21877
1.15324
1.07954
1.01103
0.949119
0.883642
0.813648
0.740134
0.663522
0.582811
0.49688
0.40591
0.311337
0.217447
0.126191
0.0461171
1.40965
1.38318
1.34017
1.28342
1.22163
1.15446
1.08075
1.01135
0.947643
0.881426
0.811584
0.738589
0.662685
0.582929
0.498106
0.408065
0.314003
0.219901
0.128712
0.0449487
1.42553
1.39327
1.34662
1.28754
1.22317
1.15444
1.08092
1.01109
0.946007
0.879344
0.809878
0.737461
0.662212
0.583363
0.499595
0.410433
0.316833
0.222335
0.131192
0.0432937
1.43911
1.40131
1.35117
1.28995
1.22315
1.15235
1.07927
1.00936
0.943191
0.876036
0.806741
0.735052
0.66082
0.583084
0.500449
0.412195
0.319076
0.224264
0.133224
0.0413768
1.44873
1.40638
1.35341
1.29057
1.22239
1.1519
1.07849
1.00834
0.941751
0.874748
0.805938
0.734718
0.660933
0.583853
0.502022
0.414442
0.321565
0.226184
0.134951
0.0395873
1.45345
1.40795
1.35269
1.28781
1.21678
1.14435
1.07312
1.00402
0.936466
0.869228
0.800945
0.730845
0.658534
0.582954
0.502489
0.416078
0.324039
0.228821
0.136822
0.0389164
0.00172292
-0.00609465
-0.00755814
-0.00444066
-0.00145866
-0.000368428
-0.000354528
0.000268519
-0.0103363
-0.0218359
-0.0239331
-0.01816
-0.0116741
-0.00663096
-0.00142041
0.00294076
-0.0236984
-0.0398333
-0.0453391
-0.0401735
-0.0306947
-0.0201444
-0.00864312
-0.000612547
-0.0447798
-0.0634201
-0.0725001
-0.0697832
-0.0586467
-0.0418702
-0.0222054
-0.00961286
-0.0734464
-0.0947425
-0.108575
-0.110462
-0.0989847
-0.0752396
-0.0455174
-0.027402
-0.111373
-0.136415
-0.156206
-0.164986
-0.154659
-0.123585
-0.0819261
-0.0572198
-0.159555
-0.186383
-0.218185
-0.236416
-0.228656
-0.190048
-0.134546
-0.10218
-0.22057
-0.254568
-0.297134
-0.32679
-0.32276
-0.276742
-0.205724
-0.164793
-0.295621
-0.337844
-0.394294
-0.4366
-0.437115
-0.38427
-0.296573
-0.246491
-0.385311
-0.436588
-0.508859
-0.564364
-0.56988
-0.511405
-0.406662
-0.347313
-0.489099
-0.549849
-0.638645
-0.706723
-0.717261
-0.654998
-0.533845
-0.46567
-0.605172
-0.675134
-0.77985
-0.858763
-0.873825
-0.810163
-0.67434
-0.598338
-0.730473
-0.808611
-0.927389
-1.01453
-1.03306
-0.970713
-0.823077
-0.740698
-0.860914
-0.945512
-1.07543
-1.16762
-1.18805
-1.12973
-0.974207
-0.887205
-0.991863
-1.08068
-1.21799
-1.31185
-1.33215
-1.28024
-1.12169
-1.03199
-1.11871
-1.20916
-1.34954
-1.44184
-1.4597
-1.41592
-1.25986
-1.16952
-1.23736
-1.32674
-1.46563
-1.5533
-1.56669
-1.53195
-1.38404
-1.29515
-1.34453
-1.43034
-1.56334
-1.6436
-1.65141
-1.62584
-1.49098
-1.40558
-1.43798
-1.51827
-1.64167
-1.71332
-1.71481
-1.69772
-1.57909
-1.4989
-1.51653
-1.59018
-1.70126
-1.76477
-1.75981
-1.74962
-1.64828
-1.57447
-1.57991
-1.6468
-1.74387
-1.80051
-1.7895
-1.78435
-1.69962
-1.6327
-1.62851
-1.68948
-1.77206
-1.8233
-1.806
-1.80538
-1.73521
-1.67476
-1.66319
-1.7198
-1.78925
-1.83558
-1.81305
-1.81659
-1.75746
-1.70211
-1.68504
-1.73902
-1.79987
-1.84153
-1.81623
-1.81939
-1.76766
-1.71593
-1.69541
-1.74777
-1.80505
-1.84348
-1.81564
-1.81511
-1.76661
-1.71689
-1.69409
-1.74568
-1.80352
-1.83982
-1.81029
-1.80227
-1.75732
-1.70546
-1.68073
-1.73278
-1.79368
-1.82872
-1.798
-1.78259
-1.73723
-1.68252
-1.65558
-1.70891
-1.7739
-1.80834
-1.77662
-1.75502
-1.70651
-1.64755
-1.6192
-1.67411
-1.74329
-1.77769
-1.74497
-1.71884
-1.665
-1.59955
-1.57214
-1.62886
-1.70201
-1.73669
-1.70288
-1.67376
-1.61254
-1.53715
-1.51509
-1.57406
-1.65102
-1.68601
-1.65109
-1.62007
-1.54902
-1.45885
-1.44905
-1.51093
-1.59176
-1.62695
-1.59101
-1.55853
-1.4744
-1.36324
-1.37546
-1.44108
-1.52601
-1.56118
-1.52449
-1.49014
-1.38822
-1.24823
-1.29608
-1.36645
-1.4558
-1.49069
-1.45393
-1.41583
-1.28834
-1.10834
-1.21315
-1.28944
-1.38348
-1.41799
-1.38249
-1.33614
-1.16999
-0.933478
-1.12929
-1.21305
-1.31163
-1.34684
-1.31346
-1.25077
-1.02696
-0.716498
-1.04814
-1.14072
-1.24296
-1.27524
-1.24787
-1.15849
-0.852597
-0.466228
-0.9731
-1.07783
-1.18297
-1.21827
-1.18505
-1.05675
-0.632993
-0.196859
-0.912419
-1.02636
-1.12622
-1.16135
-1.11704
-0.937301
-0.337086
0.128522
-0.863695
-1.01079
-1.10287
-1.13431
-1.07457
-0.763944
0.0584379
0.618416
1.39804
1.33396
1.26682
1.2582
1.30851
1.39397
1.49846
1.57889
1.35088
1.31292
1.24798
1.23306
1.27804
1.36162
1.46091
1.54403
1.28442
1.2642
1.20742
1.19131
1.23475
1.31929
1.41727
1.51222
1.2138
1.20537
1.1599
1.14656
1.18635
1.27052
1.36894
1.47271
1.14397
1.14175
1.1069
1.09612
1.13404
1.21571
1.31248
1.42049
1.07894
1.07904
1.05353
1.04622
1.08101
1.15763
1.24994
1.35975
1.02043
1.02047
1.00287
0.998527
1.03044
1.10051
1.18603
1.2959
0.969226
0.968079
0.95708
0.955272
0.984579
1.04746
1.12433
1.23207
0.925311
0.922774
0.917176
0.917326
0.944356
0.999996
1.06694
1.17009
0.888265
0.884655
0.883344
0.884763
0.909682
0.958436
1.01507
1.11157
0.857411
0.85315
0.855157
0.857017
0.879886
0.922278
0.969218
1.05777
0.831945
0.827259
0.831737
0.833177
0.854004
0.890478
0.929131
1.00924
0.811099
0.805872
0.811993
0.812362
0.83103
0.861837
0.89402
0.965931
0.794221
0.788049
0.794963
0.794117
0.810345
0.83563
0.862979
0.927377
0.780825
0.773214
0.780054
0.778358
0.79188
0.812028
0.835427
0.893082
0.770756
0.761134
0.767051
0.764882
0.775662
0.791636
0.811197
0.862691
0.764445
0.751634
0.755995
0.753306
0.761457
0.774569
0.790242
0.836
0.762519
0.744504
0.747095
0.743439
0.749005
0.760293
0.772395
0.812852
0.76437
0.740525
0.740682
0.735491
0.738244
0.748287
0.757429
0.793083
0.770563
0.740486
0.736985
0.730108
0.72928
0.738479
0.745148
0.776572
0.781488
0.744645
0.736972
0.728076
0.722402
0.731003
0.735335
0.763278
0.797479
0.75322
0.741603
0.729728
0.717956
0.725759
0.727676
0.753225
0.818783
0.76646
0.751233
0.734978
0.716685
0.722607
0.722166
0.746498
0.845601
0.784541
0.76571
0.744244
0.719527
0.723531
0.719626
0.743562
0.87816
0.807577
0.78463
0.758236
0.729324
0.729212
0.723426
0.745144
0.91675
0.835733
0.80752
0.777164
0.746622
0.742439
0.733742
0.753495
0.961691
0.869342
0.834028
0.80067
0.770534
0.763249
0.752073
0.769055
1.0132
0.908924
0.864081
0.828102
0.799457
0.790638
0.778683
0.791518
1.07116
0.955084
0.897948
0.858901
0.831997
0.823314
0.812536
0.820751
1.13486
1.0083
0.936307
0.892825
0.867335
0.860192
0.852503
0.856599
1.20254
1.06865
0.980173
0.930085
0.905273
0.900736
0.897922
0.898819
1.2707
1.13531
1.03055
0.971509
0.946219
0.944966
0.948629
0.947309
1.33334
1.20561
1.08778
1.01825
0.990974
0.993284
1.00469
1.0022
1.3823
1.27381
1.15074
1.07096
1.04014
1.0461
1.06605
1.06362
1.41037
1.33121
1.21619
1.12884
1.09335
1.10299
1.13201
1.1313
1.41604
1.36902
1.27897
1.19002
1.14907
1.16178
1.20067
1.20402
1.40414
1.38479
1.33276
1.25269
1.20546
1.21896
1.26818
1.27899
1.3926
1.38691
1.37098
1.31366
1.26056
1.27003
1.32823
1.35117
1.39295
1.38719
1.39002
1.36187
1.31183
1.31371
1.37298
1.41218
1.39784
1.389
1.39376
1.38194
1.3404
1.33175
1.38813
1.45002
)
;

boundaryField
{
    wall
    {
        type            zeroGradient;
    }
    inlet1
    {
        type            zeroGradient;
    }
    inlet2
    {
        type            zeroGradient;
    }
    outlet1
    {
        type            fixedValue;
        value           uniform 0;
    }
    outlet2
    {
        type            outletInlet;
        outletValue     uniform 0;
        value           uniform 0;
    }
    defaultFaces
    {
        type            empty;
    }
}


// ************************************************************************* //
