/*--------------------------------*- C++ -*----------------------------------*\
| =========                 |                                                 |
| \\      /  F ield         | OpenFOAM: The Open Source CFD Toolbox           |
|  \\    /   O peration     | Version:  2.4.0                                 |
|   \\  /    A nd           | Web:      www.OpenFOAM.org                      |
|    \\/     M anipulation  |                                                 |
\*---------------------------------------------------------------------------*/
FoamFile
{
    version     2.0;
    format      ascii;
    class       volVectorField;
    location    "0.9";
    object      U;
}
// * * * * * * * * * * * * * * * * * * * * * * * * * * * * * * * * * * * * * //

dimensions      [0 1 -1 0 0 0 0];

internalField   nonuniform List<vector> 
2320
(
(1 -1.13605e-06 0)
(1.00001 -3.58174e-06 0)
(1.00003 -6.41431e-06 0)
(1.00006 -9.92915e-06 0)
(1.00011 -1.44737e-05 0)
(1.00018 -2.0476e-05 0)
(1.00027 -2.8489e-05 0)
(1.00041 -3.92322e-05 0)
(1.00059 -5.3634e-05 0)
(1.00084 -7.28767e-05 0)
(1.00117 -9.84427e-05 0)
(1.00162 -0.000132151 0)
(1.00223 -0.000176168 0)
(1.00303 -0.000232975 0)
(1.00409 -0.000305282 0)
(1.00547 -0.00039589 0)
(1.00725 -0.000507567 0)
(1.00952 -0.000643078 0)
(1.01239 -0.000805641 0)
(1.01597 -0.00100019 0)
(1 -3.38029e-06 0)
(1.00001 -1.06563e-05 0)
(1.00003 -1.90857e-05 0)
(1.00006 -2.95474e-05 0)
(1.00011 -4.30754e-05 0)
(1.00017 -6.09455e-05 0)
(1.00027 -8.48062e-05 0)
(1.0004 -0.000116805 0)
(1.00057 -0.000159715 0)
(1.00082 -0.000217071 0)
(1.00114 -0.000293313 0)
(1.00159 -0.000393896 0)
(1.00218 -0.00052533 0)
(1.00297 -0.000695082 0)
(1.00401 -0.000911315 0)
(1.00537 -0.00118246 0)
(1.00713 -0.00151681 0)
(1.00938 -0.00192252 0)
(1.01221 -0.00240889 0)
(1.01575 -0.00299008 0)
(1 -5.54238e-06 0)
(1.00001 -1.74704e-05 0)
(1.00003 -3.12937e-05 0)
(1.00006 -4.84531e-05 0)
(1.0001 -7.06468e-05 0)
(1.00016 -9.99725e-05 0)
(1.00025 -0.000139145 0)
(1.00038 -0.000191704 0)
(1.00055 -0.00026223 0)
(1.00078 -0.000356576 0)
(1.00109 -0.000482111 0)
(1.00152 -0.000647924 0)
(1.00209 -0.000864894 0)
(1.00285 -0.00114555 0)
(1.00386 -0.00150362 0)
(1.00518 -0.00195326 0)
(1.00689 -0.00250824 0)
(1.00909 -0.0031817 0)
(1.01187 -0.00398799 0)
(1.01534 -0.00494855 0)
(1 -7.57108e-06 0)
(1.00001 -2.38636e-05 0)
(1.00002 -4.27497e-05 0)
(1.00005 -6.62002e-05 0)
(1.00009 -9.65412e-05 0)
(1.00015 -0.00013665 0)
(1.00024 -0.000190258 0)
(1.00035 -0.000262241 0)
(1.00051 -0.000358922 0)
(1.00072 -0.000488413 0)
(1.00102 -0.000660968 0)
(1.00142 -0.000889296 0)
(1.00195 -0.0011887 0)
(1.00267 -0.00157689 0)
(1.00363 -0.00207336 0)
(1.00489 -0.0026982 0)
(1.00654 -0.00347063 0)
(1.00866 -0.00440822 0)
(1.01136 -0.00552867 0)
(1.01472 -0.00685741 0)
(1 -9.4173e-06 0)
(1.00001 -2.96808e-05 0)
(1.00002 -5.31757e-05 0)
(1.00005 -8.23593e-05 0)
(1.00008 -0.000120135 0)
(1.00014 -0.000170102 0)
(1.00021 -0.000236937 0)
(1.00031 -0.00032677 0)
(1.00046 -0.000447577 0)
(1.00065 -0.000609637 0)
(1.00092 -0.000826021 0)
(1.00128 -0.00111303 0)
(1.00177 -0.00149046 0)
(1.00244 -0.00198138 0)
(1.00333 -0.00261137 0)
(1.00451 -0.00340679 0)
(1.00607 -0.00439246 0)
(1.0081 -0.00558973 0)
(1.01068 -0.00701741 0)
(1.01392 -0.00870028 0)
(1 -1.10359e-05 0)
(1.00001 -3.47796e-05 0)
(1.00002 -6.23174e-05 0)
(1.00004 -9.6537e-05 0)
(1.00007 -0.000140856 0)
(1.00012 -0.000199521 0)
(1.00018 -0.000278064 0)
(1.00027 -0.00038376 0)
(1.00039 -0.00052612 0)
(1.00056 -0.000717466 0)
(1.0008 -0.000973582 0)
(1.00112 -0.00131432 0)
(1.00155 -0.00176402 0)
(1.00215 -0.00235137 0)
(1.00296 -0.00310847 0)
(1.00404 -0.00406856 0)
(1.00549 -0.00526247 0)
(1.0074 -0.00671482 0)
(1.00985 -0.00844298 0)
(1.01294 -0.010465 0)
(1 -1.23869e-05 0)
(1.00001 -3.90346e-05 0)
(1.00002 -6.99498e-05 0)
(1.00003 -0.000108385 0)
(1.00006 -0.000158196 0)
(1.00009 -0.000224186 0)
(1.00015 -0.000312631 0)
(1.00022 -0.00043182 0)
(1.00032 -0.000592642 0)
(1.00046 -0.000809305 0)
(1.00065 -0.00110016 0)
(1.00092 -0.00148852 0)
(1.00129 -0.00200332 0)
(1.00181 -0.00267917 0)
(1.00251 -0.00355531 0)
(1.00348 -0.00467276 0)
(1.0048 -0.00606928 0)
(1.00656 -0.00777275 0)
(1.00886 -0.00979643 0)
(1.01179 -0.0121442 0)
(1 -1.34369e-05 0)
(1 -4.23399e-05 0)
(1.00001 -7.58827e-05 0)
(1.00002 -0.000117607 0)
(1.00004 -0.000171719 0)
(1.00007 -0.000243475 0)
(1.00011 -0.000339764 0)
(1.00016 -0.000469728 0)
(1.00024 -0.000645447 0)
(1.00035 -0.000882802 0)
(1.0005 -0.00120251 0)
(1.00071 -0.00163121 0)
(1.001 -0.00220245 0)
(1.00142 -0.00295708 0)
(1.00201 -0.00394228 0)
(1.00284 -0.00520821 0)
(1.004 -0.0068012 0)
(1.00559 -0.00875324 0)
(1.00773 -0.0110714 0)
(1.01048 -0.0137367 0)
(1 -1.41594e-05 0)
(1 -4.4612e-05 0)
(1.00001 -7.99655e-05 0)
(1.00001 -0.000123968 0)
(1.00003 -0.000181079 0)
(1.00004 -0.000256887 0)
(1.00007 -0.000358747 0)
(1.0001 -0.000496467 0)
(1.00015 -0.00068309 0)
(1.00022 -0.00093591 0)
(1.00032 -0.00127773 0)
(1.00047 -0.0017383 0)
(1.00068 -0.00235574 0)
(1.00099 -0.00317742 0)
(1.00144 -0.00425943 0)
(1.00211 -0.00566296 0)
(1.00309 -0.0074456 0)
(1.00449 -0.0096459 0)
(1.00644 -0.012264 0)
(1.00903 -0.0152486 0)
(1 -1.45356e-05 0)
(1 -4.57917e-05 0)
(1 -8.20916e-05 0)
(1.00001 -0.000127299 0)
(1.00001 -0.000186022 0)
(1.00002 -0.000264052 0)
(1.00003 -0.000369044 0)
(1.00004 -0.000511255 0)
(1.00006 -0.000704427 0)
(1.00009 -0.000966945 0)
(1.00014 -0.00132334 0)
(1.00022 -0.00180614 0)
(1.00033 -0.00245782 0)
(1.00052 -0.00333253 0)
(1.00082 -0.00449634 0)
(1.00131 -0.00602389 0)
(1.00207 -0.0079882 0)
(1.00325 -0.0104392 0)
(1.005 -0.0133721 0)
(1.00743 -0.0166942 0)
(1 -1.45551e-05 0)
(0.999999 -4.58465e-05 0)
(0.999998 -8.22009e-05 0)
(0.999996 -0.000127504 0)
(0.999992 -0.000186401 0)
(0.999988 -0.000264746 0)
(0.999982 -0.000370314 0)
(0.999975 -0.000513574 0)
(0.999967 -0.000708658 0)
(0.999958 -0.000974654 0)
(0.999951 -0.00133737 0)
(0.999951 -0.0018316 0)
(0.999969 -0.0025038 0)
(1.00002 -0.00341493 0)
(1.00016 -0.00464206 0)
(1.00043 -0.00627628 0)
(1.00095 -0.00841192 0)
(1.00187 -0.0111186 0)
(1.00338 -0.0143939 0)
(1.00567 -0.0180963 0)
(1 -1.42163e-05 0)
(0.999998 -4.4771e-05 0)
(0.999993 -8.02829e-05 0)
(0.999986 -0.000124564 0)
(0.999975 -0.000182179 0)
(0.99996 -0.000258903 0)
(0.999939 -0.000362434 0)
(0.99991 -0.000503198 0)
(0.999872 -0.00069537 0)
(0.999822 -0.000958292 0)
(0.999759 -0.00131847 0)
(0.999682 -0.00181227 0)
(0.999594 -0.00248948 0)
(0.999508 -0.00341749 0)
(0.999451 -0.00468515 0)
(0.999483 -0.00640327 0)
(0.999715 -0.00869538 0)
(1.00033 -0.011664 0)
(1.00158 -0.0153254 0)
(1.00374 -0.0194867 0)
(1 -1.35262e-05 0)
(0.999996 -4.25878e-05 0)
(0.999989 -7.6377e-05 0)
(0.999977 -0.000118535 0)
(0.999959 -0.000173433 0)
(0.999933 -0.000246616 0)
(0.999897 -0.000345507 0)
(0.999847 -0.000480214 0)
(0.99978 -0.00066458 0)
(0.999689 -0.000917684 0)
(0.99957 -0.00126603 0)
(0.999414 -0.00174667 0)
(0.999218 -0.00241162 0)
(0.998981 -0.00333381 0)
(0.99872 -0.00461391 0)
(0.998482 -0.00638552 0)
(0.998379 -0.00881096 0)
(0.998619 -0.0120455 0)
(0.999545 -0.016155 0)
(1.00157 -0.0209068 0)
(0.999999 -1.25004e-05 0)
(0.999995 -3.93474e-05 0)
(0.999985 -7.05727e-05 0)
(0.999968 -0.000109554 0)
(0.999943 -0.000160355 0)
(0.999907 -0.000228144 0)
(0.999857 -0.000319868 0)
(0.999787 -0.000445036 0)
(0.999692 -0.000616761 0)
(0.999563 -0.000853293 0)
(0.999388 -0.00118032 0)
(0.999155 -0.00163444 0)
(0.998849 -0.00226837 0)
(0.998458 -0.00315878 0)
(0.997979 -0.00441695 0)
(0.997442 -0.00620124 0)
(0.996945 -0.00872291 0)
(0.99672 -0.0122168 0)
(0.997218 -0.0168515 0)
(0.99907 -0.0223992 0)
(0.999999 -1.11633e-05 0)
(0.999994 -3.51268e-05 0)
(0.999981 -6.30079e-05 0)
(0.99996 -9.78335e-05 0)
(0.999929 -0.000143249 0)
(0.999884 -0.000203909 0)
(0.99982 -0.000286087 0)
(0.999733 -0.000398414 0)
(0.999612 -0.000552868 0)
(0.999446 -0.000766273 0)
(0.999219 -0.0010626 0)
(0.998913 -0.00147663 0)
(0.998501 -0.00205969 0)
(0.997954 -0.0028894 0)
(0.997249 -0.00408427 0)
(0.996382 -0.00582685 0)
(0.995427 -0.00838593 0)
(0.994614 -0.01211 0)
(0.994517 -0.0173467 0)
(0.996065 -0.0239641 0)
(0.999999 -9.54715e-06 0)
(0.999992 -3.00289e-05 0)
(0.999978 -5.38657e-05 0)
(0.999953 -8.36547e-05 0)
(0.999916 -0.000122527 0)
(0.999863 -0.000174489 0)
(0.999788 -0.000244961 0)
(0.999684 -0.000341428 0)
(0.99954 -0.000474339 0)
(0.999342 -0.000658493 0)
(0.999069 -0.000915196 0)
(0.998695 -0.0012759 0)
(0.998183 -0.00178799 0)
(0.997488 -0.00252599 0)
(0.996555 -0.00360911 0)
(0.995338 -0.00523874 0)
(0.993853 -0.0077429 0)
(0.992294 -0.0116298 0)
(0.991344 -0.017533 0)
(0.992282 -0.0255408 0)
(0.999999 -7.69119e-06 0)
(0.999992 -2.41809e-05 0)
(0.999975 -4.33749e-05 0)
(0.999947 -6.73711e-05 0)
(0.999905 -9.87005e-05 0)
(0.999846 -0.000140608 0)
(0.999761 -0.000197496 0)
(0.999644 -0.000275466 0)
(0.99948 -0.000383074 0)
(0.999254 -0.000532525 0)
(0.998941 -0.000741537 0)
(0.998509 -0.00103669 0)
(0.99791 -0.00145857 0)
(0.99708 -0.00207364 0)
(0.995931 -0.00299127 0)
(0.994355 -0.00441805 0)
(0.992275 -0.00672176 0)
(0.989763 -0.0106259 0)
(0.987619 -0.0172508 0)
(0.987384 -0.0272497 0)
(0.999999 -5.64114e-06 0)
(0.999991 -1.7724e-05 0)
(0.999973 -3.17933e-05 0)
(0.999943 -4.93886e-05 0)
(0.999897 -7.2369e-05 0)
(0.999832 -0.000103124 0)
(0.99974 -0.0001449 0)
(0.999612 -0.000202213 0)
(0.999434 -0.000281415 0)
(0.999186 -0.000391624 0)
(0.998841 -0.00054614 0)
(0.998362 -0.00076524 0)
(0.997692 -0.00107992 0)
(0.996751 -0.00154347 0)
(0.995414 -0.00224195 0)
(0.993503 -0.00336412 0)
(0.990794 -0.00524632 0)
(0.987026 -0.00884498 0)
(0.983253 -0.0159502 0)
(0.980242 -0.0294985 0)
(0.999999 -3.4478e-06 0)
(0.99999 -1.08089e-05 0)
(0.999971 -1.93893e-05 0)
(0.99994 -3.01282e-05 0)
(0.999892 -4.4161e-05 0)
(0.999823 -6.29498e-05 0)
(0.999726 -8.84852e-05 0)
(0.999591 -0.000123542 0)
(0.999402 -0.000172027 0)
(0.999139 -0.000239593 0)
(0.998773 -0.000334444 0)
(0.998261 -0.000469481 0)
(0.997541 -0.000663473 0)
(0.99652 -0.000953484 0)
(0.995042 -0.00138473 0)
(0.992877 -0.00212256 0)
(0.989561 -0.00327778 0)
(0.984423 -0.00612867 0)
(0.977452 -0.0116153 0)
(0.968274 -0.0313667 0)
(0.999999 -1.16094e-06 0)
(0.99999 -3.62824e-06 0)
(0.999971 -6.5076e-06 0)
(0.999938 -1.01148e-05 0)
(0.999889 -1.48315e-05 0)
(0.999818 -2.11499e-05 0)
(0.999719 -2.97403e-05 0)
(0.999579 -4.15388e-05 0)
(0.999385 -5.7863e-05 0)
(0.999115 -8.06331e-05 0)
(0.998737 -0.000112599 0)
(0.998209 -0.000158281 0)
(0.997461 -0.000223588 0)
(0.996404 -0.000323271 0)
(0.99483 -0.000465164 0)
(0.992613 -0.000737072 0)
(0.988608 -0.00106185 0)
(0.983694 -0.00236857 0)
(0.967088 -0.00368896 0)
(0.961663 -0.0181103 0)
(1.02039 -0.00123577 0)
(1.02587 -0.00152923 0)
(1.03267 -0.00190945 0)
(1.0412 -0.00242087 0)
(1.05211 -0.00312437 0)
(1.06628 -0.00409476 0)
(1.08494 -0.0054167 0)
(1.1097 -0.00718353 0)
(1.02013 -0.00369235 0)
(1.02553 -0.00456524 0)
(1.03222 -0.00569472 0)
(1.04059 -0.00721413 0)
(1.05126 -0.0093069 0)
(1.06512 -0.0121984 0)
(1.08338 -0.0161427 0)
(1.10763 -0.021419 0)
(1.01962 -0.00610404 0)
(1.02488 -0.00753353 0)
(1.03135 -0.0093779 0)
(1.03941 -0.0118593 0)
(1.04962 -0.0152861 0)
(1.06286 -0.0200365 0)
(1.08033 -0.0265343 0)
(1.10359 -0.0352397 0)
(1.01887 -0.00844459 0)
(1.02393 -0.0103934 0)
(1.03009 -0.0128954 0)
(1.03767 -0.0162619 0)
(1.04721 -0.0209303 0)
(1.05953 -0.0274368 0)
(1.07582 -0.0363738 0)
(1.0976 -0.0483749 0)
(1.0179 -0.0106907 0)
(1.0227 -0.0131074 0)
(1.02847 -0.0161866 0)
(1.03544 -0.0203288 0)
(1.04408 -0.026108 0)
(1.05519 -0.0342269 0)
(1.06991 -0.0454453 0)
(1.08974 -0.0605569 0)
(1.01672 -0.0128253 0)
(1.02124 -0.0156457 0)
(1.02654 -0.0191978 0)
(1.03277 -0.0239721 0)
(1.04032 -0.0306921 0)
(1.04992 -0.04024 0)
(1.06271 -0.053542 0)
(1.08015 -0.0715314 0)
(1.01537 -0.0148389 0)
(1.01958 -0.0179878 0)
(1.02437 -0.0218838 0)
(1.02976 -0.0271094 0)
(1.03602 -0.0345586 0)
(1.04384 -0.0453141 0)
(1.05434 -0.0604668 0)
(1.06896 -0.0810598 0)
(1.01387 -0.0167324 0)
(1.01779 -0.0201261 0)
(1.02205 -0.0242105 0)
(1.02651 -0.0296648 0)
(1.0313 -0.0375871 0)
(1.03705 -0.0492931 0)
(1.04492 -0.0660349 0)
(1.05634 -0.0889258 0)
(1.01225 -0.0185204 0)
(1.01592 -0.0220699 0)
(1.01968 -0.0261573 0)
(1.02315 -0.0315678 0)
(1.02629 -0.0396581 0)
(1.0297 -0.0520256 0)
(1.03461 -0.0700779 0)
(1.04248 -0.0949421 0)
(1.01054 -0.0202344 0)
(1.01405 -0.0238518 0)
(1.01739 -0.0277211 0)
(1.01985 -0.0327519 0)
(1.02116 -0.0406483 0)
(1.02193 -0.0533607 0)
(1.02355 -0.0724436 0)
(1.02759 -0.0989567 0)
(1.00875 -0.0219285 0)
(1.01226 -0.0255359 0)
(1.01532 -0.0289221 0)
(1.01678 -0.0331552 0)
(1.01608 -0.0404261 0)
(1.01389 -0.0531408 0)
(1.0119 -0.0729902 0)
(1.01187 -0.100859 0)
(1.0069 -0.0236858 0)
(1.01064 -0.0272252 0)
(1.01366 -0.0298054 0)
(1.01418 -0.0327236 0)
(1.01126 -0.0388615 0)
(1.00574 -0.0512149 0)
(0.999788 -0.0715976 0)
(0.995511 -0.100602 0)
(1.00496 -0.0256355 0)
(1.00928 -0.0290726 0)
(1.01265 -0.0304149 0)
(1.01234 -0.0313645 0)
(1.00693 -0.0357985 0)
(0.997624 -0.0474449 0)
(0.987298 -0.0681991 0)
(0.97864 -0.0982462 0)
(1.00289 -0.027995 0)
(1.00832 -0.0313597 0)
(1.01259 -0.030817 0)
(1.01157 -0.0288591 0)
(1.0033 -0.0308852 0)
(0.989599 -0.0415411 0)
(0.974383 -0.0626947 0)
(0.961247 -0.0939423 0)
(1.00055 -0.0310704 0)
(1.00793 -0.0346359 0)
(1.01393 -0.031452 0)
(1.01229 -0.0252486 0)
(1.00052 -0.0237133 0)
(0.981572 -0.0329072 0)
(0.960823 -0.0546646 0)
(0.943516 -0.0879211 0)
(0.997598 -0.0350164 0)
(1.00807 -0.039048 0)
(1.01715 -0.0326202 0)
(1.01529 -0.0212197 0)
(0.999354 -0.0147403 0)
(0.97409 -0.0214354 0)
(0.947124 -0.0440295 0)
(0.927075 -0.0816424 0)
(0.993703 -0.0402584 0)
(1.00954 -0.0433059 0)
(1.02428 -0.0314255 0)
(1.02355 -0.0148145 0)
(1.00339 -0.00441295 0)
(0.970668 -0.00990952 0)
(0.935928 -0.0343774 0)
(0.914583 -0.0787081 0)
(0.99149 -0.0529774 0)
(1.01949 -0.0555254 0)
(1.04187 -0.0321743 0)
(1.0403 -0.00172779 0)
(1.01394 0.0173236 0)
(0.971634 0.0149727 0)
(0.924802 -0.0120878 0)
(0.89771 -0.069958 0)
(0.991177 -0.0787336 0)
(1.02416 -0.0855807 0)
(1.04213 -0.0523556 0)
(1.03164 -0.006107 0)
(0.993171 0.0269026 0)
(0.936539 0.0321988 0)
(0.873797 -0.000760028 0)
(0.822535 -0.0769622 0)
(0.87657 -0.042349 0)
(0.864496 -0.048756 0)
(0.874518 -0.0227078 0)
(0.861475 0.0241754 0)
(0.820154 0.0684248 0)
(0.753394 0.0872421 0)
(0.685921 0.0627553 0)
(0.592631 -0.0812031 0)
(1.14254 -0.00950217 0)
(1.18594 -0.0125025 0)
(1.24292 -0.016344 0)
(1.31721 -0.0212114 0)
(1.41328 -0.0272919 0)
(1.5363 -0.0347314 0)
(1.69184 -0.0435664 0)
(1.88526 -0.0536323 0)
(2.12071 -0.0644546 0)
(2.39975 -0.075149 0)
(2.71965 -0.0844371 0)
(3.07226 -0.0908641 0)
(3.44374 -0.0931558 0)
(3.81592 -0.0905446 0)
(4.16848 -0.0829262 0)
(4.48168 -0.0708135 0)
(4.73868 -0.0551342 0)
(4.92683 -0.0369695 0)
(5.03809 -0.0173531 0)
(5.06849 0.00284345 0)
(5.01715 0.0229466 0)
(4.88601 0.0421265 0)
(4.68018 0.0594819 0)
(4.40906 0.0742653 0)
(4.08231 0.0854967 0)
(3.72124 0.0948046 0)
(3.30271 0.101721 0)
(2.94563 0.134085 0)
(1.13985 -0.0283469 0)
(1.18247 -0.0373163 0)
(1.23851 -0.0488091 0)
(1.31166 -0.0633871 0)
(1.40643 -0.0816235 0)
(1.52805 -0.103971 0)
(1.68226 -0.130559 0)
(1.87467 -0.160922 0)
(2.10981 -0.193642 0)
(2.38953 -0.225999 0)
(2.71138 -0.254065 0)
(3.06739 -0.273435 0)
(3.44373 -0.28031 0)
(3.82183 -0.272407 0)
(4.18064 -0.249403 0)
(4.49961 -0.212822 0)
(4.76123 -0.165455 0)
(4.95259 -0.110575 0)
(5.06557 -0.0513159 0)
(5.09638 0.00963174 0)
(5.04451 0.0701945 0)
(4.91182 0.127929 0)
(4.70354 0.180189 0)
(4.42877 0.224571 0)
(4.09932 0.25847 0)
(3.73195 0.284729 0)
(3.34091 0.303415 0)
(2.94935 0.365071 0)
(1.13458 -0.0466795 0)
(1.17568 -0.0615005 0)
(1.22985 -0.0805129 0)
(1.30076 -0.104673 0)
(1.39293 -0.134968 0)
(1.51176 -0.172206 0)
(1.66331 -0.216685 0)
(1.85368 -0.267689 0)
(2.08797 -0.322836 0)
(2.36895 -0.377559 0)
(2.69543 -0.425354 0)
(3.06016 -0.458876 0)
(3.44859 -0.471558 0)
(3.84006 -0.459216 0)
(4.21107 -0.421044 0)
(4.53936 -0.359591 0)
(4.80695 -0.27973 0)
(5.00143 -0.187167 0)
(5.11559 -0.0872594 0)
(5.1465 0.0154173 0)
(5.09396 0.117339 0)
(4.95951 0.214539 0)
(4.74808 0.302655 0)
(4.46836 0.377292 0)
(4.13346 0.434377 0)
(3.75998 0.474466 0)
(3.37575 0.500836 0)
(2.99279 0.533835 0)
(1.12676 -0.0641619 0)
(1.1656 -0.0846328 0)
(1.21697 -0.110935 0)
(1.28449 -0.144446 0)
(1.37273 -0.186624 0)
(1.48732 -0.238736 0)
(1.63473 -0.301317 0)
(1.8216 -0.373461 0)
(2.05444 -0.452082 0)
(2.33847 -0.531148 0)
(2.67425 -0.601482 0)
(3.05337 -0.651885 0)
(3.45724 -0.671873 0)
(3.8606 -0.65483 0)
(4.23727 -0.599835 0)
(4.56495 -0.51134 0)
(4.8277 -0.397128 0)
(5.01598 -0.265776 0)
(5.12533 -0.124858 0)
(5.15469 0.0195913 0)
(5.1037 0.163004 0)
(4.97291 0.300253 0)
(4.76575 0.425295 0)
(4.48916 0.531424 0)
(4.15542 0.612385 0)
(3.78172 0.665218 0)
(3.39592 0.692346 0)
(3.02049 0.697274 0)
(1.1165 -0.0804599 0)
(1.15235 -0.106293 0)
(1.20001 -0.139548 0)
(1.26299 -0.182065 0)
(1.34592 -0.235875 0)
(1.4547 -0.30277 0)
(1.59604 -0.383587 0)
(1.77789 -0.477706 0)
(2.00982 -0.582106 0)
(2.29965 -0.689104 0)
(2.64647 -0.785126 0)
(3.03602 -0.853122 0)
(3.44311 -0.878083 0)
(3.83904 -0.852054 0)
(4.19845 -0.775812 0)
(4.50288 -0.657205 0)
(4.74135 -0.50764 0)
(4.90901 -0.338545 0)
(5.00505 -0.159193 0)
(5.03073 0.0238228 0)
(4.98577 0.205721 0)
(4.86923 0.38098 0)
(4.68173 0.542269 0)
(4.42661 0.68052 0)
(4.11259 0.786506 0)
(3.75501 0.853433 0)
(3.3785 0.880411 0)
(3.01116 0.868115 0)
(1.10395 -0.095255 0)
(1.13613 -0.126071 0)
(1.17916 -0.165824 0)
(1.23644 -0.216889 0)
(1.31267 -0.281944 0)
(1.41366 -0.363309 0)
(1.54683 -0.462595 0)
(1.72305 -0.580506 0)
(1.95471 -0.714013 0)
(2.24829 -0.851591 0)
(2.59645 -0.972673 0)
(2.97702 -1.05371 0)
(3.36064 -1.0769 0)
(3.72016 -1.03559 0)
(4.0356 -0.934156 0)
(4.29487 -0.784557 0)
(4.49263 -0.601645 0)
(4.62856 -0.399088 0)
(4.70517 -0.18708 0)
(4.72574 0.0280496 0)
(4.69063 0.242264 0)
(4.5975 0.450499 0)
(4.44405 0.644828 0)
(4.22941 0.814206 0)
(3.95714 0.946194 0)
(3.63806 1.02998 0)
(3.29208 1.06061 0)
(2.94652 1.03837 0)
(1.08931 -0.108248 0)
(1.11715 -0.143569 0)
(1.15468 -0.189242 0)
(1.20515 -0.248265 0)
(1.27303 -0.323897 0)
(1.36397 -0.419277 0)
(1.48764 -0.537868 0)
(1.65759 -0.681866 0)
(1.88474 -0.846129 0)
(2.16994 -1.01259 0)
(2.49811 -1.15287 0)
(2.84198 -1.23872 0)
(3.17351 -1.25267 0)
(3.47201 -1.19162 0)
(3.72497 -1.06416 0)
(3.92629 -0.885869 0)
(4.075 -0.674303 0)
(4.17406 -0.444713 0)
(4.22853 -0.207643 0)
(4.24347 0.0314459 0)
(4.21989 0.270037 0)
(4.15437 0.504208 0)
(4.04249 0.726116 0)
(3.88003 0.923412 0)
(3.66578 1.08087 0)
(3.40488 1.18376 0)
(3.1112 1.22282 0)
(2.80721 1.19657 0)
(1.07279 -0.119163 0)
(1.09571 -0.15841 0)
(1.12694 -0.209316 0)
(1.16948 -0.275457 0)
(1.22699 -0.360684 0)
(1.30613 -0.469911 0)
(1.41952 -0.608893 0)
(1.57865 -0.779384 0)
(1.78909 -0.971919 0)
(2.04626 -1.16114 0)
(2.3296 -1.31197 0)
(2.61127 -1.39432 0)
(2.8697 -1.39393 0)
(3.09296 -1.31218 0)
(3.2752 -1.16096 0)
(3.41423 -0.958399 0)
(3.51177 -0.724095 0)
(3.57298 -0.474618 0)
(3.60487 -0.220636 0)
(3.61418 0.0336947 0)
(3.60234 0.2881 0)
(3.56492 0.540357 0)
(3.49606 0.783111 0)
(3.38948 1.00324 0)
(3.24073 1.18348 0)
(3.05002 1.30576 0)
(2.82488 1.35676 0)
(2.58099 1.33218 0)
(1.05465 -0.127759 0)
(1.07215 -0.170267 0)
(1.09642 -0.225561 0)
(1.12966 -0.297614 0)
(1.17488 -0.391447 0)
(1.24169 -0.51469 0)
(1.34183 -0.67349 0)
(1.47911 -0.867028 0)
(1.65594 -1.08189 0)
(1.86495 -1.28575 0)
(2.08205 -1.43829 0)
(2.28346 -1.51099 0)
(2.45753 -1.49473 0)
(2.60039 -1.39443 0)
(2.71047 -1.22363 0)
(2.78785 -1.00213 0)
(2.83593 -0.751333 0)
(2.86117 -0.489074 0)
(2.87162 -0.226093 0)
(2.87555 0.0350406 0)
(2.87486 0.296849 0)
(2.86396 0.559304 0)
(2.83593 0.815756 0)
(2.78354 1.05258 0)
(2.70073 1.25111 0)
(2.58447 1.39079 0)
(2.43686 1.45509 0)
(2.26649 1.43669 0)
(1.0352 -0.133849 0)
(1.04694 -0.178866 0)
(1.0636 -0.237424 0)
(1.08595 -0.313922 0)
(1.11808 -0.415792 0)
(1.17208 -0.552359 0)
(1.25083 -0.726711 0)
(1.35129 -0.936805 0)
(1.4792 -1.16704 0)
(1.6236 -1.37707 0)
(1.75889 -1.52373 0)
(1.87022 -1.58382 0)
(1.95644 -1.55338 0)
(2.01881 -1.43856 0)
(2.05868 -1.25327 0)
(2.07814 -1.01883 0)
(2.08182 -0.758136 0)
(2.07602 -0.489983 0)
(2.06798 -0.225285 0)
(2.0669 0.0352571 0)
(2.07563 0.297179 0)
(2.08766 0.562761 0)
(2.09566 0.826022 0)
(2.09246 1.07295 0)
(2.07171 1.28411 0)
(2.02864 1.4372 0)
(1.9614 1.51381 0)
(1.87206 1.50405 0)
(1.01477 -0.137318 0)
(1.02058 -0.183957 0)
(1.02884 -0.244317 0)
(1.03917 -0.323978 0)
(1.05896 -0.433492 0)
(1.0969 -0.579743 0)
(1.14112 -0.761746 0)
(1.19192 -0.981679 0)
(1.26032 -1.22059 0)
(1.32775 -1.42831 0)
(1.37215 -1.56374 0)
(1.39052 -1.6114 0)
(1.38958 -1.57018 0)
(1.37339 -1.44563 0)
(1.34687 -1.25167 0)
(1.31447 -1.01103 0)
(1.28128 -0.747159 0)
(1.2518 -0.47921 0)
(1.23027 -0.218805 0)
(1.22497 0.0344529 0)
(1.23997 0.290132 0)
(1.26894 0.552777 0)
(1.30595 0.816562 0)
(1.34508 1.06705 0)
(1.38042 1.28449 0)
(1.40641 1.44566 0)
(1.41848 1.53172 0)
(1.41286 1.53086 0)
(0.993737 -0.138138 0)
(0.993525 -0.185291 0)
(0.992635 -0.245885 0)
(0.991365 -0.328044 0)
(0.999713 -0.443541 0)
(1.01311 -0.59154 0)
(1.00928 -0.772342 0)
(1.00419 -0.997255 0)
(1.00617 -1.23774 0)
(0.988408 -1.43527 0)
(0.939287 -1.55696 0)
(0.866185 -1.59406 0)
(0.780152 -1.54554 0)
(0.688317 -1.41652 0)
(0.600039 -1.22057 0)
(0.521778 -0.980759 0)
(0.458502 -0.720029 0)
(0.412338 -0.457258 0)
(0.38375 -0.204406 0)
(0.376989 0.0378769 0)
(0.394198 0.281777 0)
(0.43228 0.535331 0)
(0.490687 0.792596 0)
(0.565582 1.03894 0)
(0.651722 1.25566 0)
(0.741727 1.41793 0)
(0.830252 1.5091 0)
(0.907781 1.51574 0)
(0.972374 -0.136337 0)
(0.966189 -0.182687 0)
(0.956375 -0.242371 0)
(0.945639 -0.3266 0)
(0.940283 -0.44304 0)
(0.916348 -0.581647 0)
(0.856773 -0.755006 0)
(0.79612 -0.981578 0)
(0.726551 -1.21533 0)
(0.620597 -1.39667 0)
(0.480517 -1.50435 0)
(0.319361 -1.53288 0)
(0.150911 -1.48041 0)
(-0.0131912 -1.35266 0)
(-0.159959 -1.16242 0)
(-0.281118 -0.931195 0)
(-0.372161 -0.681014 0)
(-0.432846 -0.429633 0)
(-0.465873 -0.187925 0)
(-0.474575 0.0433264 0)
(-0.457926 0.274496 0)
(-0.412544 0.514356 0)
(-0.334914 0.757817 0)
(-0.227025 0.991995 0)
(-0.094203 1.19974 0)
(0.056977 1.35717 0)
(0.219691 1.44799 0)
(0.377786 1.45915 0)
(0.951022 -0.131982 0)
(0.939758 -0.176222 0)
(0.923003 -0.234522 0)
(0.90419 -0.31897 0)
(0.876858 -0.426958 0)
(0.803595 -0.545534 0)
(0.690465 -0.709918 0)
(0.577612 -0.934157 0)
(0.433324 -1.15236 0)
(0.241994 -1.31409 0)
(0.0164067 -1.40822 0)
(-0.22835 -1.43004 0)
(-0.475658 -1.37782 0)
(-0.709056 -1.25734 0)
(-0.913344 -1.08053 0)
(-1.07846 -0.866131 0)
(-1.20058 -0.634428 0)
(-1.28108 -0.401107 0)
(-1.32416 -0.17517 0)
(-1.33431 0.0431508 0)
(-1.31369 0.261058 0)
(-1.25607 0.484123 0)
(-1.15649 0.70908 0)
(-1.01515 0.925331 0)
(-0.835754 1.11718 0)
(-0.624023 1.26471 0)
(-0.391422 1.34928 0)
(-0.15636 1.36228 0)
(0.931128 -0.125565 0)
(0.917265 -0.166688 0)
(0.895559 -0.222832 0)
(0.864507 -0.302033 0)
(0.802136 -0.389776 0)
(0.675877 -0.482718 0)
(0.520657 -0.640597 0)
(0.358413 -0.85556 0)
(0.140363 -1.05027 0)
(-0.128977 -1.1908 0)
(-0.433386 -1.27154 0)
(-0.755844 -1.28824 0)
(-1.07704 -1.24007 0)
(-1.37706 -1.13184 0)
(-1.63863 -0.974123 0)
(-1.85038 -0.78299 0)
(-2.00812 -0.575667 0)
(-2.11337 -0.365721 0)
(-2.1705 -0.160571 0)
(-2.18377 0.0393384 0)
(-2.15534 0.238439 0)
(-2.0806 0.440476 0)
(-1.95473 0.642653 0)
(-1.77662 0.836083 0)
(-1.54865 1.007 0)
(-1.27822 1.13849 0)
(-0.980043 1.21392 0)
(-0.672835 1.22677 0)
(0.916202 -0.119232 0)
(0.901746 -0.155822 0)
(0.871508 -0.206258 0)
(0.815902 -0.270727 0)
(0.708166 -0.328926 0)
(0.539609 -0.398317 0)
(0.358069 -0.55238 0)
(0.148182 -0.747545 0)
(-0.136812 -0.911958 0)
(-0.474672 -1.03055 0)
(-0.849754 -1.09783 0)
(-1.24202 -1.11048 0)
(-1.63024 -1.06845 0)
(-1.99249 -0.975907 0)
(-2.30971 -0.841629 0)
(-2.569 -0.678566 0)
(-2.76484 -0.500635 0)
(-2.89767 -0.319062 0)
(-2.97088 -0.140168 0)
(-2.98796 0.0350675 0)
(-2.9507 0.209183 0)
(-2.8562 0.384628 0)
(-2.70073 0.558776 0)
(-2.48331 0.724198 0)
(-2.20698 0.869341 0)
(-1.88125 0.980369 0)
(-1.52233 1.04466 0)
(-1.14981 1.05581 0)
(0.906873 -0.113687 0)
(0.886724 -0.141595 0)
(0.834771 -0.179646 0)
(0.740601 -0.220623 0)
(0.591622 -0.248338 0)
(0.406211 -0.302513 0)
(0.211832 -0.449777 0)
(-0.0420981 -0.611915 0)
(-0.382474 -0.742691 0)
(-0.779313 -0.838161 0)
(-1.21475 -0.891473 0)
(-1.66693 -0.900737 0)
(-2.113 -0.866412 0)
(-2.52988 -0.791973 0)
(-2.89739 -0.684339 0)
(-3.20112 -0.553374 0)
(-3.4337 -0.40966 0)
(-3.5937 -0.261868 0)
(-3.68295 -0.115072 0)
(-3.70392 0.0294304 0)
(-3.65812 0.172816 0)
(-3.54389 0.316239 0)
(-3.35897 0.457389 0)
(-3.10372 0.590411 0)
(-2.78287 0.706323 0)
(-2.40757 0.79452 0)
(-1.99519 0.845588 0)
(-1.56714 0.85404 0)
(0.883649 -0.0956236 0)
(0.842696 -0.110201 0)
(0.75492 -0.133247 0)
(0.622989 -0.151962 0)
(0.460085 -0.159521 0)
(0.290193 -0.206826 0)
(0.0906276 -0.33476 0)
(-0.200242 -0.452723 0)
(-0.583333 -0.548917 0)
(-1.02744 -0.618908 0)
(-1.51174 -0.65784 0)
(-2.01229 -0.664269 0)
(-2.50484 -0.638812 0)
(-2.96557 -0.584182 0)
(-3.37371 -0.505427 0)
(-3.71386 -0.409518 0)
(-3.9771 -0.303894 0)
(-4.16015 -0.194692 0)
(-4.26316 -0.0855913 0)
(-4.28755 0.0222161 0)
(-4.2345 0.129141 0)
(-4.10336 0.235582 0)
(-3.89325 0.339598 0)
(-3.60615 0.436954 0)
(-3.24852 0.521258 0)
(-2.83304 0.585009 0)
(-2.37841 0.621596 0)
(-1.90776 0.627257 0)
(0.791479 -0.0671054 0)
(0.723386 -0.0569849 0)
(0.607301 -0.0685916 0)
(0.467743 -0.0765227 0)
(0.336057 -0.0788398 0)
(0.205146 -0.118507 0)
(0.00250435 -0.206974 0)
(-0.31358 -0.277667 0)
(-0.727035 -0.336436 0)
(-1.20518 -0.379419 0)
(-1.72521 -0.403356 0)
(-2.2613 -0.407296 0)
(-2.78782 -0.391714 0)
(-3.2801 -0.358363 0)
(-3.71689 -0.310347 0)
(-4.08225 -0.251846 0)
(-4.36642 -0.187282 0)
(-4.56508 -0.120305 0)
(-4.67738 -0.053138 0)
(-4.70409 0.0134011 0)
(-4.64608 0.0793774 0)
(-4.5031 0.144874 0)
(-4.27543 0.208585 0)
(-3.9663 0.267921 0)
(-3.5836 0.319057 0)
(-3.14128 0.357556 0)
(-2.65918 0.37956 0)
(-2.16141 0.382932 0)
(0.610833 -0.064118 0)
(0.541442 -0.0367142 0)
(0.429731 -0.0288214 0)
(0.325745 -0.0234286 0)
(0.254034 -0.0211995 0)
(0.159321 -0.0380822 0)
(-0.0453732 -0.0701807 0)
(-0.373652 -0.0935395 0)
(-0.803082 -0.113296 0)
(-1.29965 -0.127879 0)
(-1.8398 -0.136017 0)
(-2.39653 -0.137343 0)
(-2.94319 -0.132037 0)
(-3.45442 -0.120724 0)
(-3.90848 -0.104475 0)
(-4.28898 -0.0847042 0)
(-4.58566 -0.0628986 0)
(-4.79362 -0.0402798 0)
(-4.91155 -0.0175925 0)
(-4.93994 0.00487779 0)
(-4.87974 0.0271403 0)
(-4.73131 0.0492178 0)
(-4.49548 0.0706529 0)
(-4.17619 0.0905706 0)
(-3.78207 0.107699 0)
(-3.32773 0.120578 0)
(-2.83352 0.127942 0)
(-2.32377 0.129082 0)
(2.21227 0.262445 0)
(1.69892 0.258022 0)
(1.37131 0.169492 0)
(1.20143 0.0033193 0)
(1.30834 -0.329181 0)
(1.38594 -0.824626 0)
(1.069 -1.13432 0)
(0.216717 -1.09452 0)
(2.70724 0.49499 0)
(2.46964 0.49687 0)
(2.22201 0.36542 0)
(2.03834 0.119456 0)
(1.92318 -0.254912 0)
(1.69063 -0.673912 0)
(1.20447 -0.868582 0)
(0.539343 -0.767586 0)
(2.73008 0.600573 0)
(2.5851 0.590942 0)
(2.45805 0.452612 0)
(2.30373 0.190543 0)
(2.09612 -0.15588 0)
(1.74887 -0.476899 0)
(1.24484 -0.600255 0)
(0.678138 -0.473289 0)
(2.70984 0.693077 0)
(2.51422 0.640496 0)
(2.3847 0.496943 0)
(2.23677 0.26266 0)
(2.01254 -0.0195932 0)
(1.67071 -0.264474 0)
(1.23114 -0.354771 0)
(0.785324 -0.251666 0)
(2.68495 0.822215 0)
(2.43799 0.73014 0)
(2.25936 0.573715 0)
(2.08847 0.359405 0)
(1.86491 0.121483 0)
(1.56114 -0.0762104 0)
(1.20141 -0.155237 0)
(0.858076 -0.0837488 0)
(2.62861 0.968274 0)
(2.36262 0.848216 0)
(2.14854 0.676239 0)
(1.95278 0.46707 0)
(1.73394 0.251649 0)
(1.46926 0.0793982 0)
(1.17663 0.00384267 0)
(0.909633 0.0452432 0)
(2.51759 1.11085 0)
(2.26094 0.970977 0)
(2.03962 0.785263 0)
(1.83606 0.574544 0)
(1.62621 0.369815 0)
(1.39589 0.20782 0)
(1.15714 0.129889 0)
(0.947381 0.143499 0)
(2.3386 1.23803 0)
(2.11387 1.0854 0)
(1.91063 0.889956 0)
(1.72001 0.676446 0)
(1.52931 0.475638 0)
(1.33195 0.317815 0)
(1.13737 0.232283 0)
(0.9725 0.22158 0)
(2.08745 1.34085 0)
(1.91296 1.18224 0)
(1.74778 0.981687 0)
(1.58806 0.766436 0)
(1.428 0.566527 0)
(1.26632 0.408366 0)
(1.1118 0.313582 0)
(0.985082 0.28242 0)
(1.76789 1.41175 0)
(1.65772 1.25315 0)
(1.54582 1.05217 0)
(1.43112 0.837606 0)
(1.312 0.638626 0)
(1.19061 0.478953 0)
(1.07563 0.375687 0)
(0.984149 0.32798 0)
(1.3901 1.44536 0)
(1.35376 1.29159 0)
(1.30603 1.09482 0)
(1.24679 0.884384 0)
(1.17674 0.688469 0)
(1.10019 0.528697 0)
(1.02567 0.419191 0)
(0.968591 0.359124 0)
(0.968812 1.43868 0)
(1.01141 1.29346 0)
(1.03452 1.10527 0)
(1.03751 0.903004 0)
(1.02206 0.713461 0)
(0.993667 0.556428 0)
(0.960647 0.4439 0)
(0.937904 0.37593 0)
(0.52164 1.39084 0)
(0.644249 1.25693 0)
(0.740799 1.08124 0)
(0.809149 0.89132 0)
(0.850943 0.712011 0)
(0.872269 0.56133 0)
(0.881046 0.449604 0)
(0.892435 0.378248 0)
(0.067502 1.30256 0)
(0.267846 1.18197 0)
(0.436618 1.02239 0)
(0.569908 0.848759 0)
(0.668644 0.683672 0)
(0.739152 0.543331 0)
(0.788789 0.436485 0)
(0.833401 0.366115 0)
(-0.374488 1.17551 0)
(-0.101545 1.07038 0)
(0.134816 0.929276 0)
(0.329254 0.776444 0)
(0.481825 0.629383 0)
(0.598811 0.503288 0)
(0.686838 0.405295 0)
(0.762704 0.339949 0)
(-0.785207 1.0129 0)
(-0.448077 0.924706 0)
(-0.151283 0.805544 0)
(0.0976146 0.675465 0)
(0.297729 0.551049 0)
(0.456375 0.443082 0)
(0.578793 0.357503 0)
(0.682795 0.30063 0)
(-1.14717 0.819706 0)
(-0.756688 0.749778 0)
(-0.410509 0.655652 0)
(-0.116529 0.550363 0)
(0.1242 0.450894 0)
(0.317259 0.365244 0)
(0.468494 0.295179 0)
(0.596515 0.249424 0)
(-1.44601 0.60214 0)
(-1.01558 0.551463 0)
(-0.632574 0.483507 0)
(-0.304954 0.407176 0)
(-0.0333684 0.333318 0)
(0.186665 0.27339 0)
(0.360246 0.221292 0)
(0.507943 0.188151 0)
(-1.67338 0.367855 0)
(-1.2178 0.337405 0)
(-0.811126 0.296481 0)
(-0.461239 0.250399 0)
(-0.167779 0.204844 0)
(0.0718734 0.170018 0)
(0.262329 0.137742 0)
(0.42569 0.11738 0)
(-1.82385 0.124052 0)
(-1.35624 0.11381 0)
(-0.937162 0.0999047 0)
(-0.574409 0.0841913 0)