/*--------------------------------*- C++ -*----------------------------------*\
| =========                 |                                                 |
| \\      /  F ield         | OpenFOAM: The Open Source CFD Toolbox           |
|  \\    /   O peration     | Version:  2.4.0                                 |
|   \\  /    A nd           | Web:      www.OpenFOAM.org                      |
|    \\/     M anipulation  |                                                 |
\*---------------------------------------------------------------------------*/
FoamFile
{
    version     2.0;
    format      ascii;
    class       volScalarField;
    location    "20";
    object      p;
}
// * * * * * * * * * * * * * * * * * * * * * * * * * * * * * * * * * * * * * //

dimensions      [0 2 -2 0 0 0 0];

internalField   nonuniform List<scalar> 
10000
(
2.44925
2.06737
2.14346
1.98187
1.93444
1.8259
1.76812
1.71531
1.68232
1.64847
1.61614
1.58496
1.55463
1.52447
1.49396
1.46315
1.43256
1.40356
1.37863
1.36244
2.43885
2.06854
2.14124
1.98133
1.93332
1.82566
1.76776
1.7153
1.6822
1.64844
1.61616
1.58512
1.555
1.52518
1.49517
1.46498
1.43509
1.40684
1.38238
1.36528
2.42518
2.06834
2.1383
1.97998
1.9319
1.82498
1.76706
1.71484
1.68173
1.64807
1.6159
1.58502
1.55517
1.52577
1.49636
1.46694
1.43795
1.41056
1.38647
1.36799
2.40876
2.06702
2.13432
1.97809
1.93009
1.82397
1.76595
1.71389
1.68074
1.64724
1.61522
1.58458
1.55508
1.52621
1.49753
1.46904
1.44115
1.41486
1.39152
1.37256
2.39004
2.06507
2.1293
1.97588
1.92796
1.82279
1.7645
1.71251
1.67929
1.64603
1.61421
1.58389
1.55482
1.52656
1.49874
1.47131
1.44468
1.41966
1.39725
1.37835
2.36962
2.06275
2.12335
1.97343
1.92559
1.82154
1.76278
1.71075
1.67739
1.64442
1.6129
1.58296
1.55441
1.52686
1.49997
1.4737
1.44839
1.42467
1.4032
1.38457
2.34817
2.06032
2.11667
1.97086
1.92306
1.82026
1.76088
1.70869
1.67512
1.6425
1.61136
1.58188
1.55391
1.52711
1.5012
1.47613
1.45212
1.42963
1.40907
1.39077
2.3262
2.05796
2.10944
1.96826
1.92043
1.81905
1.75887
1.70637
1.6725
1.64028
1.6096
1.58065
1.55333
1.52734
1.50243
1.47853
1.45577
1.43443
1.41471
1.39679
2.30416
2.05584
2.10185
1.96574
1.91776
1.81794
1.75686
1.70393
1.66967
1.63787
1.60772
1.57937
1.55274
1.52758
1.50367
1.4809
1.45931
1.43903
1.42011
1.40262
2.28236
2.05403
2.09404
1.96334
1.91509
1.81701
1.75492
1.70143
1.66668
1.63529
1.60574
1.57805
1.55216
1.52786
1.50494
1.48325
1.46277
1.44348
1.42534
1.4083
2.26104
2.05256
2.08619
1.96117
1.91249
1.81628
1.75317
1.69905
1.66371
1.6327
1.60377
1.57679
1.55167
1.52823
1.50628
1.48563
1.46619
1.44785
1.43046
1.41391
2.24025
2.05132
2.0784
1.95921
1.90999
1.81579
1.75166
1.69684
1.66081
1.63015
1.60186
1.57563
1.55131
1.52874
1.50772
1.48807
1.46962
1.45219
1.43553
1.41949
2.22003
2.05019
2.07076
1.95749
1.90764
1.81555
1.75049
1.69495
1.65815
1.62776
1.6001
1.57462
1.55112
1.5294
1.50929
1.49058
1.47306
1.45647
1.44052
1.42497
2.20027
2.04892
2.06327
1.95596
1.90544
1.81554
1.74965
1.6934
1.65576
1.62557
1.59852
1.57378
1.5511
1.53022
1.51097
1.49312
1.47645
1.46064
1.44532
1.43021
2.18092
2.0473
2.05595
1.95459
1.90342
1.81575
1.7492
1.69227
1.65375
1.62364
1.59717
1.57313
1.55123
1.53117
1.51271
1.49565
1.47972
1.46459
1.44981
1.43508
2.16187
2.04503
2.0487
1.95324
1.90152
1.8161
1.74906
1.69152
1.65207
1.62195
1.596
1.57264
1.55146
1.53218
1.51445
1.49808
1.48279
1.46822
1.45389
1.43944
2.14313
2.04197
2.04145
1.95185
1.89971
1.81657
1.74923
1.69117
1.65078
1.62053
1.59501
1.57228
1.55175
1.53317
1.51613
1.50036
1.48559
1.47146
1.45747
1.44323
2.12467
2.03792
2.03408
1.95027
1.89792
1.81704
1.74961
1.69112
1.64981
1.6193
1.59412
1.57197
1.55205
1.53407
1.51765
1.50241
1.48807
1.47427
1.46052
1.44641
2.10661
2.03291
2.02653
1.94843
1.8961
1.81749
1.75017
1.69138
1.64916
1.61829
1.59333
1.57167
1.55232
1.53484
1.51895
1.50418
1.49018
1.47662
1.46302
1.44898
2.08898
2.02693
2.01872
1.94623
1.89416
1.81782
1.7508
1.69182
1.64875
1.61744
1.59258
1.57133
1.55247
1.53545
1.51996
1.5056
1.49189
1.47849
1.46496
1.45093
2.0719
2.02014
2.01068
1.94367
1.8921
1.81803
1.7515
1.69247
1.64859
1.61675
1.59188
1.57092
1.55248
1.53586
1.52069
1.50663
1.49317
1.47988
1.46636
1.45227
2.05535
2.01261
2.00239
1.94067
1.88985
1.81805
1.75217
1.69321
1.64862
1.61619
1.59119
1.57042
1.5523
1.53603
1.52113
1.50727
1.49398
1.48077
1.46722
1.45304
2.0394
2.00449
1.99392
1.9373
1.88745
1.81792
1.75284
1.69407
1.64885
1.61578
1.59053
1.56983
1.55194
1.53593
1.52125
1.50751
1.49432
1.48117
1.46757
1.45325
2.02398
1.99583
1.98524
1.9335
1.88484
1.8176
1.75344
1.69498
1.64922
1.61549
1.58988
1.56915
1.55138
1.53555
1.52103
1.50737
1.4942
1.48104
1.4674
1.45294
2.00913
1.98678
1.97642
1.92935
1.88208
1.81714
1.75401
1.69596
1.64973
1.61533
1.58927
1.56838
1.55063
1.53489
1.52046
1.50685
1.49364
1.48043
1.46671
1.45212
1.99477
1.97734
1.96742
1.92478
1.87912
1.81648
1.75449
1.69693
1.65034
1.61526
1.58869
1.56753
1.5497
1.53396
1.51955
1.50593
1.49267
1.47936
1.46553
1.4508
1.98094
1.96764
1.95833
1.91988
1.876
1.81569
1.75492
1.69794
1.65106
1.61531
1.58815
1.56662
1.5486
1.53277
1.51831
1.50465
1.4913
1.47787
1.4639
1.44902
1.96757
1.95768
1.94907
1.91459
1.87266
1.81472
1.75524
1.69891
1.65182
1.61543
1.58763
1.56564
1.54735
1.53135
1.51677
1.503
1.48955
1.47599
1.46185
1.4468
1.9547
1.94758
1.93974
1.90897
1.86914
1.81359
1.7555
1.69986
1.65264
1.61563
1.58714
1.56462
1.54596
1.52972
1.51496
1.50103
1.48744
1.47372
1.45944
1.44421
1.94225
1.93733
1.93028
1.90298
1.86539
1.81227
1.75562
1.70074
1.65345
1.61585
1.58666
1.56355
1.54444
1.52788
1.51288
1.49875
1.48498
1.4711
1.45664
1.44125
1.93025
1.92705
1.92078
1.8967
1.86144
1.81077
1.75564
1.70157
1.65426
1.61611
1.5862
1.56243
1.54281
1.52587
1.51057
1.49619
1.4822
1.46813
1.4535
1.43794
1.91865
1.91673
1.91118
1.89008
1.85722
1.80906
1.75551
1.70229
1.65503
1.61636
1.58573
1.56127
1.54108
1.52369
1.50803
1.49336
1.47912
1.46484
1.45003
1.43431
1.90745
1.90646
1.90158
1.8832
1.85278
1.80714
1.75524
1.70291
1.65576
1.6166
1.58524
1.56006
1.53926
1.52137
1.5053
1.4903
1.47578
1.46127
1.44625
1.43037
1.8966
1.89624
1.89194
1.87603
1.84807
1.80499
1.7548
1.70341
1.6564
1.6168
1.58473
1.5588
1.53734
1.5189
1.50239
1.48702
1.4722
1.45743
1.44221
1.42614
1.88612
1.88615
1.88235
1.86864
1.84313
1.80261
1.75419
1.70378
1.65696
1.61695
1.58418
1.55749
1.53534
1.51632
1.49932
1.48355
1.4684
1.45335
1.4379
1.42165
1.87593
1.87617
1.87278
1.86103
1.8379
1.79996
1.75338
1.704
1.65743
1.61705
1.58358
1.55613
1.53326
1.51362
1.4961
1.47991
1.4644
1.44907
1.43337
1.41693
1.86606
1.86637
1.86332
1.85327
1.83245
1.79708
1.75238
1.70409
1.65779
1.61708
1.58294
1.55472
1.53112
1.51082
1.49277
1.47611
1.46024
1.44459
1.42864
1.412
1.85645
1.85673
1.85394
1.84534
1.82673
1.79391
1.75116
1.704
1.65804
1.61704
1.58225
1.55326
1.5289
1.50794
1.48931
1.47219
1.45592
1.43996
1.42374
1.40689
1.84712
1.84731
1.8447
1.83733
1.82078
1.79049
1.74973
1.70377
1.65819
1.61693
1.58151
1.55175
1.52663
1.50498
1.48577
1.46816
1.45149
1.43519
1.4187
1.40163
1.83802
1.83808
1.8356
1.82923
1.8146
1.78678
1.74806
1.70337
1.65823
1.61675
1.58073
1.5502
1.52431
1.50196
1.48215
1.46404
1.44696
1.43031
1.41355
1.39624
1.82916
1.82907
1.82668
1.82112
1.80823
1.78281
1.74617
1.70281
1.65817
1.61652
1.57992
1.54864
1.52197
1.49891
1.47848
1.45986
1.44235
1.42536
1.4083
1.39077
1.82051
1.82025
1.81791
1.81298
1.80165
1.77855
1.74403
1.70207
1.65801
1.61624
1.57909
1.54706
1.51961
1.49583
1.47479
1.45564
1.43771
1.42036
1.40302
1.38524
1.81206
1.81166
1.80933
1.80489
1.79492
1.77403
1.74166
1.70118
1.65776
1.61592
1.57825
1.54549
1.51727
1.49276
1.47109
1.45142
1.43306
1.41536
1.39771
1.3797
1.80379
1.80324
1.80091
1.79683
1.78804
1.76924
1.73903
1.70011
1.65742
1.61559
1.57743
1.54395
1.51495
1.48972
1.46741
1.44722
1.42843
1.41038
1.39244
1.37418
1.79571
1.79503
1.79268
1.78885
1.78107
1.76421
1.73616
1.69889
1.65702
1.61525
1.57666
1.54247
1.5127
1.48674
1.46381
1.44308
1.42385
1.40545
1.38722
1.36872
1.78778
1.78698
1.7846
1.78096
1.774
1.75894
1.73304
1.6975
1.65655
1.61493
1.57594
1.54107
1.51054
1.48386
1.46029
1.43904
1.41938
1.40062
1.3821
1.36338
1.78003
1.77912
1.7767
1.77318
1.7669
1.75348
1.72969
1.69595
1.65604
1.61465
1.57531
1.53979
1.50851
1.48111
1.4569
1.43512
1.41503
1.39592
1.37712
1.35816
1.7724
1.7714
1.76895
1.76551
1.75978
1.74783
1.7261
1.69424
1.65548
1.61442
1.57479
1.53865
1.50663
1.47851
1.45368
1.43137
1.41085
1.3914
1.37232
1.35312
1.76494
1.76386
1.76136
1.75798
1.75269
1.74204
1.72229
1.69237
1.65488
1.61427
1.57443
1.5377
1.50496
1.47613
1.45065
1.42782
1.40687
1.38706
1.3677
1.34828
1.75761
1.75647
1.75393
1.75058
1.74564
1.73612
1.71827
1.69033
1.65425
1.61421
1.57425
1.53698
1.50353
1.47398
1.44787
1.42449
1.40311
1.38296
1.36332
1.34367
1.75044
1.74924
1.74667
1.74333
1.73867
1.73014
1.71407
1.68815
1.65358
1.61425
1.57427
1.53651
1.50237
1.4721
1.44534
1.42143
1.3996
1.3791
1.35917
1.33929
1.74341
1.74217
1.73956
1.73623
1.7318
1.72412
1.7097
1.68579
1.65287
1.61439
1.57449
1.5363
1.50149
1.47052
1.44311
1.41864
1.39637
1.37551
1.3553
1.33519
1.73654
1.73527
1.73263
1.72931
1.72505
1.71809
1.70519
1.68328
1.6521
1.61461
1.57491
1.53636
1.50092
1.46923
1.44117
1.41615
1.39342
1.3722
1.35169
1.33136
1.72982
1.72852
1.72587
1.72254
1.71844
1.71209
1.70057
1.6806
1.65125
1.6149
1.57552
1.5367
1.50064
1.46826
1.43953
1.41395
1.39077
1.36919
1.3484
1.32783
1.72328
1.72195
1.7193
1.71597
1.71199
1.70615
1.69586
1.67777
1.65031
1.61523
1.57632
1.53729
1.50067
1.46759
1.4382
1.41205
1.3884
1.36645
1.34536
1.32455
1.71688
1.71555
1.71289
1.70956
1.7057
1.70029
1.6911
1.67478
1.64924
1.61557
1.57726
1.53814
1.50099
1.46723
1.43716
1.41043
1.38631
1.36398
1.34259
1.32154
1.71067
1.70933
1.70669
1.70336
1.69959
1.69454
1.68631
1.67165
1.64804
1.61589
1.57832
1.5392
1.50158
1.46715
1.4364
1.40905
1.38444
1.36171
1.34001
1.3187
1.70463
1.70329
1.70066
1.69734
1.69366
1.68893
1.68152
1.66841
1.6467
1.61616
1.57947
1.54047
1.50243
1.46733
1.43588
1.4079
1.38277
1.35963
1.3376
1.31601
1.69877
1.69744
1.69484
1.69154
1.68793
1.68346
1.67677
1.66507
1.64522
1.61637
1.58068
1.54191
1.50352
1.46777
1.43559
1.40695
1.38125
1.35765
1.33524
1.31335
1.69309
1.69177
1.6892
1.68593
1.68239
1.67816
1.67209
1.66165
1.64359
1.61648
1.58193
1.5435
1.50483
1.46845
1.43553
1.40619
1.37989
1.3558
1.33298
1.31074
1.6876
1.6863
1.68378
1.68054
1.67707
1.67304
1.6675
1.6582
1.64184
1.61649
1.58318
1.54523
1.50637
1.46938
1.43571
1.40563
1.37868
1.35404
1.33076
1.30813
1.6823
1.68102
1.67856
1.67535
1.67196
1.66811
1.66303
1.65474
1.63998
1.61639
1.58443
1.54707
1.50811
1.47057
1.43616
1.40533
1.37773
1.35254
1.32879
1.30577
1.6772
1.67596
1.67354
1.67039
1.66706
1.66337
1.65869
1.6513
1.63804
1.61619
1.58565
1.54901
1.51004
1.47201
1.43687
1.40528
1.377
1.35123
1.327
1.30355
1.6723
1.67109
1.66874
1.66564
1.66238
1.65885
1.6545
1.6479
1.63602
1.61588
1.58682
1.55102
1.51215
1.47367
1.4378
1.40542
1.37641
1.35
1.32523
1.30131
1.66761
1.66643
1.66414
1.66111
1.65792
1.65452
1.65047
1.64456
1.63396
1.61548
1.58794
1.55308
1.51442
1.47554
1.43894
1.40573
1.3759
1.34878
1.32337
1.2989
1.66311
1.66197
1.65975
1.65679
1.65368
1.6504
1.64661
1.64131
1.63187
1.61498
1.58901
1.5552
1.51685
1.47766
1.44036
1.40631
1.37565
1.34779
1.32172
1.29667
1.65883
1.65772
1.65557
1.65268
1.64964
1.64649
1.64293
1.63816
1.62978
1.61443
1.59004
1.55736
1.51945
1.48004
1.44209
1.40721
1.37569
1.34705
1.32029
1.29464
1.65476
1.65369
1.6516
1.6488
1.64583
1.64279
1.63943
1.63513
1.62772
1.61382
1.59103
1.55958
1.52223
1.48271
1.44417
1.40848
1.37613
1.34673
1.31931
1.2931
1.65091
1.64987
1.64786
1.64514
1.64225
1.63931
1.63614
1.63225
1.62571
1.61321
1.592
1.56186
1.5252
1.48567
1.44664
1.41017
1.377
1.34681
1.31874
1.29194
1.64729
1.64629
1.64435
1.64171
1.63891
1.63607
1.63307
1.62954
1.6238
1.6126
1.59297
1.56422
1.52837
1.48899
1.44956
1.4124
1.37846
1.34752
1.31882
1.29146
1.64391
1.64294
1.64108
1.63854
1.63583
1.6331
1.63026
1.62706
1.62204
1.61208
1.594
1.56668
1.53177
1.49267
1.45298
1.41521
1.38056
1.34895
1.31966
1.29183
1.64076
1.63984
1.63807
1.63564
1.63303
1.63042
1.62774
1.62484
1.62047
1.61167
1.59511
1.56928
1.53542
1.49675
1.45691
1.41864
1.38335
1.35112
1.32129
1.29302
1.63787
1.637
1.63532
1.633
1.63051
1.62804
1.62552
1.6229
1.61914
1.61142
1.59635
1.57203
1.5393
1.50117
1.46128
1.42258
1.38666
1.3538
1.32342
1.2947
1.63522
1.6344
1.63282
1.63064
1.62829
1.62596
1.62361
1.62127
1.61805
1.61136
1.5977
1.57491
1.54338
1.50586
1.46598
1.42683
1.39023
1.35663
1.32557
1.29628
1.63282
1.63206
1.63059
1.62855
1.62634
1.62417
1.622
1.61991
1.61721
1.61145
1.59917
1.57787
1.54758
1.51075
1.47093
1.43137
1.39406
1.35969
1.32785
1.29792
1.63065
1.62996
1.62861
1.62671
1.62466
1.62265
1.62066
1.61881
1.61658
1.61169
1.60071
1.5809
1.5519
1.51585
1.47622
1.43635
1.39842
1.36333
1.33078
1.30024
1.62871
1.62809
1.62685
1.62512
1.62322
1.62138
1.61958
1.61796
1.61613
1.61205
1.6023
1.58395
1.55628
1.52112
1.4818
1.44174
1.40331
1.36757
1.33438
1.30326
1.62699
1.62643
1.62532
1.62374
1.62201
1.62033
1.6187
1.61728
1.61583
1.61247
1.60387
1.58692
1.5606
1.52637
1.48743
1.44725
1.40834
1.37197
1.33812
1.30641
1.62548
1.62498
1.62399
1.62256
1.62098
1.61946
1.61799
1.61675
1.61561
1.61288
1.60533
1.58972
1.5647
1.53143
1.49294
1.45265
1.41332
1.3763
1.34182
1.30948
1.62416
1.62372
1.62284
1.62155
1.62013
1.61875
1.61742
1.61633
1.61545
1.61326
1.60664
1.59229
1.56854
1.53624
1.49822
1.4579
1.41814
1.3805
1.34535
1.31239
1.62301
1.62264
1.62186
1.62071
1.61942
1.61818
1.61697
1.616
1.61533
1.6136
1.60782
1.59462
1.57209
1.54074
1.50321
1.46288
1.42272
1.38447
1.34864
1.31507
1.62203
1.62171
1.62103
1.62
1.61884
1.61772
1.61662
1.61575
1.61524
1.6139
1.60888
1.59675
1.57539
1.54503
1.50804
1.46777
1.42729
1.38847
1.35203
1.31787
1.62118
1.62091
1.62033
1.61941
1.61836
1.61735
1.61634
1.61556
1.61518
1.61419
1.60985
1.59876
1.57858
1.54925
1.5129
1.47283
1.43211
1.39284
1.35581
1.32113
1.62045
1.62023
1.61972
1.6189
1.61796
1.61704
1.61611
1.6154
1.61515
1.61446
1.61078
1.6007
1.58172
1.5535
1.51793
1.47819
1.4374
1.39779
1.36028
1.32511
1.61982
1.61964
1.6192
1.61846
1.61761
1.61677
1.61592
1.61527
1.61512
1.61472
1.61166
1.60257
1.58479
1.55773
1.52303
1.48375
1.44301
1.40316
1.36526
1.32966
1.61927
1.61911
1.61873
1.61807
1.61728
1.61651
1.61573
1.61513
1.61507
1.61492
1.61244
1.60427
1.58766
1.56175
1.52795
1.48913
1.44846
1.40837
1.37005
1.334
1.61878
1.61865
1.6183
1.6177
1.61697
1.61625
1.6155
1.61494
1.61494
1.615
1.613
1.60568
1.59017
1.56537
1.53244
1.49409
1.45349
1.41312
1.3744
1.33783
1.61835
1.61822
1.61791
1.61734
1.61666
1.61597
1.61524
1.61469
1.61471
1.61493
1.61334
1.60679
1.5923
1.56856
1.53647
1.4986
1.45805
1.41742
1.37822
1.34113
1.61797
1.61785
1.61756
1.61702
1.61635
1.61568
1.61496
1.61439
1.6144
1.61471
1.61347
1.60758
1.59402
1.57128
1.54002
1.5026
1.46212
1.42121
1.38154
1.34389
1.61764
1.61753
1.61725
1.61672
1.61607
1.61541
1.61467
1.61406
1.61404
1.6144
1.61343
1.60814
1.59544
1.57366
1.5432
1.50626
1.46587
1.42471
1.38457
1.34636
1.61737
1.61726
1.61699
1.61647
1.61583
1.61515
1.61438
1.61373
1.61365
1.61401
1.61326
1.60847
1.59654
1.57563
1.54592
1.50943
1.4691
1.42768
1.38705
1.34827
1.61715
1.61705
1.61678
1.61627
1.61562
1.61493
1.61415
1.61344
1.6133
1.61367
1.6131
1.60877
1.59757
1.57751
1.54856
1.51254
1.47232
1.43066
1.38957
1.35023
1.61699
1.61689
1.61663
1.61612
1.61547
1.61476
1.61393
1.61316
1.61294
1.61327
1.61283
1.60891
1.59841
1.5792
1.55101
1.51551
1.47542
1.43359
1.39203
1.35214
1.61688
1.61678
1.61653
1.61603
1.61539
1.61469
1.61385
1.61306
1.6128
1.61312
1.61283
1.60932
1.59952
1.58117
1.55384
1.51898
1.4792
1.43734
1.3955
1.35515
1.61682
1.61673
1.61649
1.61599
1.61534
1.61462
1.61374
1.61289
1.61255
1.61282
1.6126
1.60939
1.60014
1.5825
1.55585
1.52147
1.48187
1.43986
1.39764
1.35679
1.6168
1.61672
1.61651
1.61605
1.61545
1.61477
1.61393
1.61312
1.6128
1.61314
1.6131
1.6103
1.60169
1.58484
1.55893
1.52506
1.48561
1.4434
1.40068
1.35917
1.61681
1.61673
1.61653
1.61609
1.6155
1.6148
1.61391
1.61297
1.61251
1.61272
1.61268
1.61013
1.60207
1.58601
1.56098
1.52781
1.48878
1.44659
1.4036
1.36152
1.61685
1.61679
1.61665
1.61627
1.61579
1.61524
1.61451
1.6137
1.61327
1.61342
1.61333
1.61082
1.60299
1.5873
1.56273
1.53001
1.49136
1.4494
1.40651
1.36438
1.61688
1.61684
1.61674
1.61642
1.61596
1.61538
1.61461
1.61375
1.61323
1.61321
1.61292
1.61023
1.60227
1.58643
1.56161
1.52854
1.48958
1.44749
1.4047
1.36284
1.61687
1.61685
1.61681
1.61663
1.61638
1.61606
1.61553
1.61489
1.61452
1.61455
1.61432
1.61171
1.6037
1.58766
1.56249
1.5288
1.48896
1.44607
1.40265
1.36034
1.35106
1.34138
1.33191
1.32216
1.31219
1.30208
1.2916
1.28037
1.26815
1.25498
1.24124
1.22765
1.21513
1.20441
1.19569
1.1885
1.18185
1.17467
1.16615
1.15586
1.14379
1.13017
1.11534
1.09965
1.08338
1.06671
1.04976
1.03257
1.01513
0.997428
0.979422
0.96111
0.942441
0.92345
0.904108
0.884527
0.864673
0.844671
0.824466
0.804258
0.783882
0.763463
0.742931
0.722547
0.701955
0.681208
0.660332
0.639698
0.618826
0.597722
0.576237
0.554416
0.532422
0.510572
0.489275
0.468256
0.447733
0.427748
0.408603
0.389007
0.369032
0.348483
0.32831
0.306935
0.285184
0.262983
0.240978
0.219175
0.197914
0.178192
0.158868
0.141169
0.124848
0.11041
0.0948468
0.0778972
0.0647928
0.0372122
0.0168322
0.00918578
1.35351
1.34281
1.33294
1.3231
1.31309
1.30284
1.29214
1.28067
1.26828
1.25505
1.24139
1.228
1.21573
1.20522
1.19656
1.18924
1.18231
1.17477
1.16588
1.15529
1.143
1.12926
1.1144
1.09873
1.08252
1.06594
1.04907
1.03197
1.01462
0.996995
0.979058
0.960808
0.942193
0.92325
0.903951
0.884409
0.864592
0.844626
0.824451
0.804271
0.78392
0.763527
0.74301
0.722639
0.702057
0.681325
0.660452
0.639821
0.618949
0.597846
0.576355
0.554526
0.532524
0.510671
0.489372
0.468361
0.447854
0.427886
0.408742
0.389144
0.369158
0.348598
0.328399
0.307008
0.285242
0.263032
0.241024
0.219217
0.197954
0.178229
0.158921
0.141232
0.124909
0.110461
0.0949298
0.0779926
0.0648332
0.0371927
0.0167901
0.00913005
1.35474
1.34386
1.33394
1.32411
1.31405
1.30363
1.29267
1.28099
1.26853
1.25544
1.24211
1.22916
1.21728
1.20695
1.19816
1.19039
1.18282
1.17458
1.16509
1.15406
1.14152
1.12769
1.11285
1.09729
1.08122
1.06479
1.04808
1.03111
1.01388
0.996373
0.978533
0.960366
0.941825
0.922948
0.90371
0.884225
0.864465
0.844551
0.824424
0.804287
0.783976
0.763623
0.743131
0.722779
0.702214
0.681506
0.660642
0.640013
0.619142
0.59804
0.576541
0.554697
0.532687
0.510832
0.489532
0.468549
0.448078
0.42814
0.408986
0.38938
0.369373
0.348792
0.328535
0.30712
0.285331
0.263111
0.2411
0.219291
0.198031
0.178294
0.159023
0.141357
0.125022
0.110549
0.0950849
0.0781723
0.0649434
0.0371214
0.0167031
0.00903713
1.35792
1.34619
1.3357
1.3255
1.31516
1.30446
1.29327
1.28148
1.26911
1.25632
1.24348
1.23104
1.21951
1.20918
1.20002
1.19157
1.18317
1.17415
1.16403
1.15259
1.13985
1.12598
1.11123
1.09581
1.0799
1.06364
1.04708
1.03026
1.01315
0.99574
0.977988
0.959897
0.941424
0.92261
0.903433
0.884009
0.864311
0.844455
0.824381
0.804292
0.784025
0.763716
0.74325
0.722919
0.70237
0.681696
0.660842
0.640216
0.619338
0.59824
0.57673
0.554869
0.532853
0.511007
0.489717
0.468779
0.448361
0.428465
0.409283
0.389658
0.36962
0.349011
0.328667
0.307218
0.285405
0.263176
0.241163
0.219353
0.198103
0.178364
0.159151
0.141512
0.125147
0.110635
0.0952722
0.0783824
0.0649708
0.0369854
0.0165516
0.00887919
1.36286
1.34996
1.3385
1.3276
1.31676
1.30571
1.2943
1.28247
1.27025
1.2578
1.2454
1.23337
1.22202
1.21151
1.2018
1.19256
1.1833
1.17352
1.16283
1.15104
1.13816
1.12431
1.10966
1.09439
1.07866
1.06256
1.04615
1.02945
1.01245
0.99513
0.977455
0.959429
0.94102
0.922265
0.903151
0.883788
0.864156
0.844358
0.824343
0.804298
0.784079
0.763809
0.743375
0.723058
0.702526
0.681885
0.661048
0.640416
0.619528
0.59843
0.576912
0.555032
0.533019
0.511192
0.489919
0.469041
0.448686
0.428829
0.409597
0.389939
0.369861
0.349221
0.328759
0.307273
0.285438
0.263204
0.241189
0.219382
0.198158
0.178415
0.159276
0.141663
0.125249
0.110685
0.0954283
0.0785472
0.0649648
0.0367949
0.0164008
0.00873355
1.36859
1.3547
1.34221
1.33048
1.31902
1.30755
1.2959
1.28399
1.27186
1.25964
1.24753
1.23571
1.22436
1.21356
1.20326
1.19325
1.18319
1.17272
1.16153
1.14945
1.13647
1.12265
1.10812
1.09301
1.07744
1.0615
1.04522
1.02864
1.01173
0.994494
0.976894
0.958933
0.940591
0.921897
0.902855
0.883557
0.863998
0.84426
0.824309
0.804307
0.784137
0.763904
0.743505
0.723197
0.702686
0.682076
0.661262
0.640616
0.619718
0.59862
0.577098
0.555202
0.533198
0.511401
0.490153
0.469337
0.449041
0.429214
0.409915
0.390213
0.370092
0.349417
0.328826
0.307303
0.285448
0.263213
0.241194
0.219394
0.198203
0.178466
0.159403
0.141803
0.125321
0.110699
0.0955504
0.0786651
0.0648077
0.0365776
0.0162577
0.00855225
1.37455
1.35994
1.34658
1.33405
1.32195
1.31
1.29803
1.28596
1.2738
1.26163
1.2496
1.2378
1.22632
1.21518
1.20434
1.19366
1.18291
1.17184
1.16022
1.1479
1.13483
1.12104
1.10661
1.09164
1.07622
1.06041
1.04427
1.02779
1.01098
0.993817
0.976292
0.9584
0.940129
0.921506
0.902542
0.883317
0.863836
0.844161
0.824277
0.804318
0.784199
0.764
0.743642
0.723339
0.70285
0.682266
0.661482
0.640817
0.619912
0.59881
0.57729
0.555385
0.533402
0.511641
0.49042
0.469663
0.449418
0.429609
0.410231
0.390479
0.370312
0.349601
0.328877
0.30732
0.28545
0.263215
0.241194
0.219405
0.198258
0.17852
0.159529
0.14193
0.125372
0.110692
0.0956225
0.0787026
0.0646623
0.0363755
0.0161951
0.00844947
1.38049
1.36542
1.35139
1.33816
1.32543
1.31298
1.30062
1.28828
1.27595
1.26368
1.25155
1.23961
1.22789
1.2164
1.20508
1.19385
1.18254
1.17098
1.15898
1.14643
1.13326
1.11948
1.10512
1.09027
1.07497
1.05929
1.04325
1.02687
1.01015
0.99307
0.975622
0.957805
0.939612
0.921068
0.902191
0.883047
0.863647
0.844039
0.824224
0.804312
0.784243
0.76408
0.743765
0.723468
0.703004
0.682443
0.661689
0.641005
0.6201
0.598994
0.577484
0.555577
0.533622
0.511901
0.49071
0.470002
0.449797
0.429994
0.410535
0.390731
0.370518
0.34977
0.328924
0.307338
0.285456
0.263224
0.241201
0.219427
0.198321
0.178588
0.159659
0.142046
0.125407
0.110672
0.0956687
0.0787074
0.0644084
0.0361888
0.0161517
0.00830283
1.38636
1.37103
1.35653
1.34274
1.32945
1.31648
1.30369
1.29099
1.27838
1.26585
1.25346
1.24124
1.2292
1.21734
1.2056
1.1939
1.18214
1.17017
1.15785
1.14508
1.1318
1.11799
1.10368
1.0889
1.0737
1.05812
1.04218
1.02589
1.00925
0.992251
0.974883
0.957145
0.939037
0.920578
0.901794
0.882735
0.86342
0.843882
0.82414
0.804276
0.784261
0.764133
0.743866
0.723577
0.703141
0.682596
0.661878
0.641175
0.620275
0.599163
0.577669
0.55577
0.533853
0.512174
0.491011
0.470344
0.45017
0.430363
0.410824
0.390967
0.370711
0.349927
0.328971
0.30736
0.285468
0.263241
0.24122
0.219463
0.198402
0.178665
0.159783
0.142147
0.125436
0.110649
0.0956744
0.0786435
0.0642162
0.0360497
0.0161807
0.00824978
1.3922
1.37676
1.36197
1.34775
1.33398
1.32053
1.30729
1.29417
1.28117
1.26827
1.2555
1.24289
1.23045
1.21817
1.20601
1.1939
1.18175
1.16943
1.15683
1.14385
1.13045
1.11659
1.10228
1.08754
1.07241
1.0569
1.04104
1.02483
1.00827
0.991343
0.974054
0.956398
0.938378
0.920011
0.901322
0.882354
0.863126
0.843663
0.823996
0.804185
0.784226
0.764139
0.743919
0.723645
0.703238
0.682711
0.662028
0.641313
0.620423
0.599309
0.577836
0.555956
0.534082
0.512443
0.491311
0.470676
0.450522
0.430705
0.411094
0.391187
0.370887
0.350071
0.329023
0.307392
0.285493
0.263273
0.241255
0.219516
0.198492
0.178754
0.159907
0.142242
0.125462
0.110626
0.095668
0.0785809
0.0639521
0.035922
0.0161985
0.00812741
1.39804
1.38262
1.36767
1.35315
1.33899
1.32511
1.31141
1.29784
1.28438
1.27102
1.2578
1.24472
1.23182
1.21908
1.20649
1.19397
1.18144
1.16879
1.15592
1.14275
1.12921
1.11528
1.10095
1.08623
1.07113
1.05567
1.03987
1.02372
1.00722
0.990362
0.973146
0.95557
0.937636
0.919361
0.900771
0.881896
0.862755
0.84337
0.823781
0.804031
0.78413
0.764089
0.74392
0.723666
0.703291
0.682782
0.662136
0.641414
0.620536
0.599423
0.577974
0.556125
0.5343
0.512703
0.491602
0.470994
0.450856
0.431025
0.41135
0.391395
0.371056
0.350208
0.329084
0.307437
0.285532
0.26332
0.241307
0.219586
0.198599
0.178853
0.160029
0.142333
0.125496
0.110611
0.0956369
0.0784738
0.0637741
0.0358455
0.0162701
0.00810009
1.40389
1.38855
1.37353
1.3588
1.34433
1.33006
1.31592
1.30189
1.28795
1.27411
1.26039
1.24682
1.23343
1.22022
1.20717
1.19422
1.1813
1.16832
1.15517
1.14178
1.1281
1.11407
1.09969
1.08496
1.06987
1.05444
1.03868
1.02257
1.00612
0.989319
0.972168
0.954663
0.936811
0.918625
0.900131
0.881346
0.862292
0.842989
0.823481
0.803795
0.783958
0.763967
0.743853
0.723627
0.703288
0.682801
0.662193
0.64147
0.620612
0.599503
0.578087
0.556277
0.534506
0.512952
0.491886
0.471301
0.451175
0.431327
0.411597
0.391597
0.371221
0.350345
0.329161
0.307501
0.28559
0.26339
0.241383
0.219679
0.198721
0.178969
0.160159
0.142431
0.125539
0.110604
0.095614
0.0784011
0.0635452
0.0357673
0.0163024
0.00797641
1.40964
1.39442
1.37937
1.36449
1.34976
1.33513
1.32059
1.30611
1.2917
1.27737
1.26317
1.24912
1.23526
1.22159
1.2081
1.19473
1.18142
1.16808
1.15464
1.14102
1.12715
1.113
1.09855
1.08377
1.06867
1.05325
1.0375
1.02142
1.00501
0.988254
0.971157
0.953713
0.935935
0.917833
0.899429
0.880728
0.861758
0.842537
0.823111
0.803495
0.783725
0.763791
0.743733
0.723542
0.703243
0.682782
0.662212
0.641497
0.620661
0.599561
0.578179
0.556418
0.534706
0.513201
0.492173
0.471611
0.451497
0.431631
0.411852
0.391811
0.3714
0.350495
0.329262
0.307591
0.285676
0.263486
0.241486
0.219799
0.198867
0.179105
0.160301
0.142541
0.125601
0.110613
0.0955867
0.0783082
0.0634088
0.0357388
0.0163797
0.00794042
1.41514
1.40001
1.38496
1.36996
1.355
1.34006
1.32514
1.31024
1.29539
1.28062
1.26597
1.25149
1.2372
1.22311
1.20921
1.19545
1.18177
1.16809
1.15435
1.14048
1.12642
1.11212
1.09756
1.08271
1.06757
1.05213
1.03637
1.0203
1.00391
0.987182
0.970125
0.952736
0.935026
0.917002
0.898676
0.880054
0.861166
0.842028
0.822683
0.803141
0.783439
0.763567
0.743567
0.723419
0.703162
0.682734
0.662202
0.641503
0.620691
0.599608
0.578266
0.556563
0.534914
0.513461
0.492476
0.471938
0.451836
0.43195
0.41213
0.392047
0.371601
0.350668
0.329397
0.307716
0.285797
0.26362
0.241628
0.219955
0.199042
0.179271
0.160469
0.142676
0.125685
0.110641
0.0955856
0.0782704
0.0632301
0.0356919
0.016405
0.00778729
1.4202
1.40517
1.3901
1.37499
1.35983
1.34461
1.32935
1.31407
1.29882
1.28365
1.26861
1.25374
1.23909
1.22464
1.21038
1.19627
1.18225
1.16827
1.15425
1.14014
1.12589
1.11143
1.09675
1.08181
1.06661
1.05112
1.03533
1.01925
1.00286
0.986147
0.969118
0.951775
0.934124
0.916166
0.897908
0.879361
0.860551
0.841496
0.822229
0.802763
0.783132
0.763324
0.743383
0.723285
0.703071
0.682681
0.662185
0.64151
0.620722
0.599661
0.578359
0.556722
0.535143
0.513751
0.492813
0.472301
0.45221
0.432305
0.412446
0.392322
0.371841
0.350879
0.329575
0.307885
0.285964
0.263798
0.241813
0.220155
0.19926
0.179477
0.16067
0.142842
0.125798
0.110693
0.0955919
0.078224
0.0631417
0.0356977
0.0164829
0.00771643
1.42472
1.40973
1.39465
1.37945
1.36411
1.34864
1.33308
1.31746
1.30186
1.28633
1.27095
1.25576
1.24078
1.22602
1.21145
1.19704
1.18274
1.16849
1.15423
1.13991
1.12547
1.11087
1.09607
1.08104
1.06576
1.05022
1.03439
1.01828
1.00187
0.985162
0.968151
0.950843
0.933239
0.915336
0.897139
0.878662
0.859928
0.840951
0.821763
0.802373
0.782812
0.763071
0.74319
0.723145
0.702975
0.682628
0.662167
0.641521
0.620759
0.599727
0.578472
0.556908
0.535404
0.514077
0.493192
0.472707
0.452628
0.4327
0.412806
0.392639
0.372126
0.351136
0.329805
0.308107
0.286186
0.264034
0.242057
0.220413
0.19953
0.179735
0.16092
0.143053
0.125948
0.110771
0.0956335
0.0782386
0.063004
0.0356756
0.0164985
0.00750077
1.4286
1.41365
1.39854
1.38326
1.36777
1.35209
1.33626
1.32034
1.30443
1.28859
1.27291
1.25743
1.24218
1.22716
1.21232
1.19766
1.18311
1.16863
1.15417
1.13967
1.12508
1.11036
1.09546
1.08034
1.065
1.0494
1.03353
1.01739
1.00096
0.984244
0.967247
0.949968
0.932402
0.914545
0.896406
0.877995
0.859333
0.840432
0.82132
0.802004
0.782511
0.762837
0.743014
0.723022
0.702897
0.682593
0.662168
0.641553
0.620817
0.599818
0.578612
0.557128
0.535706
0.514454
0.493624
0.47317
0.453099
0.433148
0.41322
0.393011
0.372466
0.351449
0.330099
0.308395
0.286477
0.264338
0.242369
0.220739
0.199868
0.180057
0.161226
0.143315
0.126143
0.110882
0.0956809
0.0782403
0.062956
0.0357202
0.016588
0.0073734
1.43183
1.41688
1.40174
1.38639
1.37078
1.35492
1.33887
1.3227
1.30651
1.2904
1.27445
1.25873
1.24324
1.22798
1.21292
1.19803
1.18327
1.1686
1.15397
1.13932
1.12462
1.1098
1.09482
1.07964
1.06424
1.0486
1.0327
1.01653
1.00008
0.983368
0.966386
0.949135
0.931606
0.913796
0.895714
0.877369
0.858777
0.83995
0.82091
0.801666
0.78224
0.76263
0.742865
0.722926
0.702845
0.682584
0.662194
0.641613
0.620906
0.599946
0.578796
0.557397
0.536061
0.514887
0.494115
0.473689
0.453626
0.43365
0.41369
0.393439
0.372868
0.351827
0.330465
0.308759
0.286846
0.264725
0.242766
0.221148
0.200282
0.180455
0.161604
0.143642
0.126387
0.111028
0.0957671
0.0783062
0.0628401
0.0357182
0.0166019
0.00706799
1.4344
1.41941
1.40425
1.38885
1.37314
1.35714
1.34091
1.32452
1.3081
1.29176
1.27559
1.25964
1.24393
1.22846
1.21319
1.19811
1.18317
1.16834
1.15357
1.13881
1.12401
1.10911
1.09408
1.07887
1.06344
1.04777
1.03185
1.01567
0.999222
0.982519
0.965563
0.948346
0.93086
0.913104
0.895084
0.876807
0.858288
0.839536
0.820568
0.801395
0.782035
0.762488
0.742778
0.72289
0.702853
0.682633
0.662276
0.64173
0.621052
0.600135
0.579044
0.557735
0.536488
0.515396
0.494681
0.474285
0.454224
0.434223
0.41423
0.39394
0.373345
0.352284
0.330917
0.30921
0.287308
0.265202
0.243251
0.221645
0.200786
0.180937
0.162055
0.144031
0.126686
0.111214
0.0958507
0.0783477
0.0628155
0.035799
0.0167189
0.00687073
1.4363
1.42127
1.40608
1.39062
1.37485
1.35875
1.34238
1.32583
1.30923
1.29269
1.27632
1.26017
1.24426
1.22859
1.21315
1.19789
1.18279
1.16782
1.15293
1.13807
1.1232
1.10826
1.09319
1.07795
1.06251
1.04684
1.03092
1.01475
0.998319
0.981647
0.964732
0.947561
0.93013
0.912438
0.894488
0.876288