/*--------------------------------*- C++ -*----------------------------------*\
| =========                 |                                                 |
| \\      /  F ield         | OpenFOAM: The Open Source CFD Toolbox           |
|  \\    /   O peration     | Version:  2.4.0                                 |
|   \\  /    A nd           | Web:      www.OpenFOAM.org                      |
|    \\/     M anipulation  |                                                 |
\*---------------------------------------------------------------------------*/
FoamFile
{
    version     2.0;
    format      ascii;
    class       surfaceScalarField;
    location    "2000";
    object      phi;
}
// * * * * * * * * * * * * * * * * * * * * * * * * * * * * * * * * * * * * * //

dimensions      [0 3 -1 0 0 0 0];

internalField   nonuniform List<scalar> 
97240
(
1.48181e-06
8.91627e-08
1.38289e-06
9.89195e-08
1.29151e-06
9.13731e-08
1.20543e-06
8.60875e-08
1.12469e-06
8.07368e-08
1.05023e-06
7.44572e-08
9.82365e-07
6.78666e-08
9.21136e-07
6.12297e-08
8.66374e-07
5.47612e-08
8.17918e-07
4.84565e-08
7.75288e-07
4.263e-08
7.37902e-07
3.73863e-08
7.05012e-07
3.28897e-08
6.76396e-07
2.86162e-08
6.51481e-07
2.49156e-08
6.30139e-07
2.1342e-08
6.11705e-07
1.84343e-08
5.9615e-07
1.55549e-08
5.82739e-07
1.34107e-08
5.71593e-07
1.11462e-08
5.61924e-07
9.66969e-09
5.54088e-07
7.83595e-09
5.47179e-07
6.90933e-09
5.41753e-07
5.42548e-09
5.36799e-07
4.95455e-09
5.33123e-07
3.67588e-09
5.29577e-07
3.54646e-09
5.27227e-07
2.35017e-09
5.24766e-07
2.46076e-09
5.23517e-07
1.24932e-09
5.2203e-07
1.48686e-09
5.21854e-07
1.7626e-10
5.21516e-07
3.37993e-10
5.22747e-07
-1.23072e-09
5.2461e-07
-1.86349e-09
-5.10988e-09
5.2972e-07
1.66176e-06
7.10264e-08
1.66294e-06
9.774e-08
1.65572e-06
9.85963e-08
1.64076e-06
1.01052e-07
1.61967e-06
1.01826e-07
1.59434e-06
9.97832e-08
1.56604e-06
9.61685e-08
1.53588e-06
9.13911e-08
1.50471e-06
8.59272e-08
1.47341e-06
7.97553e-08
1.4425e-06
7.354e-08
1.41271e-06
6.71792e-08
1.38426e-06
6.13405e-08
1.35749e-06
5.5388e-08
1.33233e-06
5.00769e-08
1.30902e-06
4.46533e-08
1.28735e-06
4.01003e-08
1.26751e-06
3.5392e-08
1.24921e-06
3.17167e-08
1.23259e-06
2.77641e-08
1.21729e-06
2.49679e-08
1.20337e-06
2.17535e-08
1.19051e-06
1.97772e-08
1.17882e-06
1.71157e-08
1.16803e-06
1.57435e-08
1.15823e-06
1.3473e-08
1.14924e-06
1.25321e-08
1.14107e-06
1.05234e-08
1.1337e-06
9.83026e-09
1.12696e-06
7.9861e-09
1.12114e-06
7.31226e-09
1.11577e-06
5.54978e-09
1.1116e-06
4.50638e-09
1.10774e-06
2.62306e-09
1.10577e-06
1.13134e-10
-3.3336e-09
1.10399e-06
1.73182e-06
5.88569e-08
1.7401e-06
8.94607e-08
1.74509e-06
9.36066e-08
1.74812e-06
9.80175e-08
1.749e-06
1.00945e-07
1.74789e-06
1.00893e-07
1.74485e-06
9.92128e-08
1.73996e-06
9.62763e-08
1.73335e-06
9.25371e-08
1.72524e-06
8.78731e-08
1.71582e-06
8.29594e-08
1.7054e-06
7.75934e-08
1.69424e-06
7.24992e-08
1.68256e-06
6.7071e-08
1.67053e-06
6.2109e-08
1.65832e-06
5.68674e-08
1.64606e-06
5.23592e-08
1.63387e-06
4.75836e-08
1.62184e-06
4.37384e-08
1.61005e-06
3.95622e-08
1.59856e-06
3.64514e-08
1.58744e-06
3.28721e-08
1.57676e-06
3.04651e-08
1.56646e-06
2.74129e-08
1.55664e-06
2.55604e-08
1.54721e-06
2.29048e-08
1.53831e-06
2.1437e-08
1.52977e-06
1.90626e-08
1.52181e-06
1.77885e-08
1.5142e-06
1.55955e-08
1.50724e-06
1.4274e-08
1.50064e-06
1.21452e-08
1.49477e-06
1.03808e-08
1.48937e-06
8.02409e-09
1.48458e-06
4.90172e-09
1.47879e-09
1.47977e-06
1.80842e-06
4.9626e-08
1.81645e-06
8.14257e-08
1.82161e-06
8.84534e-08
1.82585e-06
9.37717e-08
1.82938e-06
9.74183e-08
1.83222e-06
9.8049e-08
1.83439e-06
9.70417e-08
1.83589e-06
9.47811e-08
1.83668e-06
9.17489e-08
1.83675e-06
8.77987e-08
1.83612e-06
8.35884e-08
1.83483e-06
7.88889e-08
1.83294e-06
7.43869e-08
1.83049e-06
6.95228e-08
1.82755e-06
6.50527e-08
1.82413e-06
6.02779e-08
1.82035e-06
5.61449e-08
1.8162e-06
5.1729e-08
1.8118e-06
4.81404e-08
1.80714e-06
4.42199e-08
1.80235e-06
4.12473e-08
1.7974e-06
3.78168e-08
1.79245e-06
3.5422e-08
1.78741e-06
3.24538e-08
1.78244e-06
3.05268e-08
1.77743e-06
2.7917e-08
1.77257e-06
2.62966e-08
1.76769e-06
2.39427e-08
1.76303e-06
2.2442e-08
1.75839e-06
2.02417e-08
1.75403e-06
1.86298e-08
1.74974e-06
1.64389e-08
1.74575e-06
1.43732e-08
1.7419e-06
1.18699e-08
1.73803e-06
8.77644e-09
5.45622e-09
1.73405e-06
1.88995e-06
4.20837e-08
1.8974e-06
7.39744e-08
1.90249e-06
8.33651e-08
1.90672e-06
8.95374e-08
1.91052e-06
9.36224e-08
1.91385e-06
9.47104e-08
1.91678e-06
9.41161e-08
1.91932e-06
9.22402e-08
1.92149e-06
8.9581e-08
1.92326e-06
8.60247e-08
1.92466e-06
8.21884e-08
1.92569e-06
7.7865e-08
1.92639e-06
7.36846e-08
1.92675e-06
6.91632e-08
1.92682e-06
6.49826e-08
1.92657e-06
6.05265e-08
1.92608e-06
5.66337e-08
1.92531e-06
5.24963e-08
1.92437e-06
4.90842e-08
1.9232e-06
4.53921e-08
1.92192e-06
4.25268e-08
1.92045e-06
3.92887e-08
1.91894e-06
3.69297e-08
1.91728e-06
3.41175e-08
1.91564e-06
3.21657e-08
1.91386e-06
2.96893e-08
1.91217e-06
2.79939e-08
1.91036e-06
2.57551e-08
1.90866e-06
2.41407e-08
1.90687e-06
2.2031e-08
1.90521e-06
2.02874e-08
1.9035e-06
1.81493e-08
1.90188e-06
1.59962e-08
1.90021e-06
1.354e-08
1.89833e-06
1.06493e-08
7.58411e-09
1.89621e-06
1.97575e-06
3.5802e-08
1.98268e-06
6.70395e-08
1.9878e-06
7.82518e-08
1.99207e-06
8.52641e-08
1.99596e-06
8.97386e-08
1.99942e-06
9.12451e-08
2.00252e-06
9.10167e-08
2.00529e-06
8.94693e-08
2.00777e-06
8.71029e-08
2.00993e-06
8.38598e-08
2.01182e-06
8.03005e-08
2.01342e-06
7.62658e-08
2.01479e-06
7.23122e-08
2.01591e-06
6.80503e-08
2.01682e-06
6.4067e-08
2.01749e-06
5.98557e-08
2.01801e-06
5.61205e-08
2.0183e-06
5.22016e-08
2.01849e-06
4.8896e-08
2.01849e-06
4.53913e-08
2.01844e-06
4.25765e-08
2.01823e-06
3.95016e-08
2.01802e-06
3.71404e-08
2.01767e-06
3.44671e-08
2.01736e-06
3.24686e-08
2.01694e-06
3.01134e-08
2.01659e-06
2.83398e-08
2.01614e-06
2.62051e-08
2.01579e-06
2.44983e-08
2.01535e-06
2.24695e-08
2.01499e-06
2.06482e-08
2.01457e-06
1.85656e-08
2.01415e-06
1.64142e-08
2.01365e-06
1.40422e-08
2.01291e-06
1.13913e-08
8.62622e-09
2.01187e-06
2.0658e-06
3.05588e-08
2.07226e-06
6.05814e-08
2.0774e-06
7.31126e-08
2.08177e-06
8.08958e-08
2.08575e-06
8.57574e-08
2.08932e-06
8.76753e-08
2.09253e-06
8.78063e-08
2.09542e-06
8.6579e-08
2.09803e-06
8.44893e-08
2.10036e-06
8.15378e-08
2.10243e-06
7.82288e-08
2.10424e-06
7.44559e-08
2.10585e-06
7.0702e-08
2.10723e-06
6.66707e-08
2.10844e-06
6.28546e-08
2.10944e-06
5.88573e-08
2.11031e-06
5.52509e-08
2.11099e-06
5.15208e-08
2.11159e-06
4.82973e-08
2.11203e-06
4.49533e-08
2.11243e-06
4.21721e-08
2.1127e-06
3.92349e-08
2.11297e-06
3.68643e-08
2.11314e-06
3.43049e-08
2.11334e-06
3.22626e-08
2.11345e-06
3.00026e-08
2.11363e-06
2.81646e-08
2.11373e-06
2.61071e-08
2.11389e-06
2.43335e-08
2.114e-06
2.23632e-08
2.11415e-06
2.05005e-08
2.11424e-06
1.84678e-08
2.1143e-06
1.6356e-08
2.11426e-06
1.40852e-08
2.11399e-06
1.16594e-08
9.16833e-09
2.11345e-06
2.16023e-06
2.61934e-08
2.16621e-06
5.46071e-08
2.17133e-06
6.79908e-08
2.1758e-06
7.64221e-08
2.17989e-06
8.16639e-08
2.18358e-06
8.3988e-08
2.18691e-06
8.44788e-08
2.18991e-06
8.35745e-08
2.19264e-06
8.17632e-08
2.19508e-06
7.90989e-08
2.19727e-06
7.60355e-08
2.19921e-06
7.25159e-08
2.20096e-06
6.89575e-08
2.20248e-06
6.51456e-08
2.20385e-06
6.149e-08
2.20501e-06
5.76916e-08
2.20606e-06
5.42076e-08
2.20693e-06
5.06494e-08
2.20772e-06
4.75045e-08
2.20837e-06
4.43035e-08
2.20899e-06
4.15571e-08
2.20948e-06
3.87379e-08
2.20998e-06
3.63652e-08
2.21039e-06
3.38994e-08
2.21082e-06
3.18269e-08
2.21118e-06
2.96404e-08
2.21159e-06
2.77586e-08
2.21194e-06
2.57572e-08
2.21233e-06
2.39431e-08
2.21268e-06
2.20155e-08
2.21304e-06
2.01408e-08
2.21335e-06
1.81558e-08
2.2136e-06
1.61045e-08
2.21374e-06
1.39434e-08
2.21369e-06
1.17128e-08
9.45988e-09
2.2134e-06
2.2592e-06
2.2568e-08
2.26468e-06
4.91355e-08
2.26971e-06
6.29525e-08
2.27427e-06
7.18687e-08
2.27847e-06
7.74607e-08
2.28228e-06
8.01761e-08
2.28574e-06
8.10239e-08
2.28887e-06
8.0446e-08
2.29171e-06
7.89195e-08
2.29427e-06
7.65435e-08
2.29657e-06
7.37286e-08
2.29863e-06
7.04608e-08
2.30048e-06
6.7102e-08
2.30212e-06
6.3506e-08
2.3036e-06
6.00132e-08
2.30489e-06
5.64058e-08
2.30605e-06
5.30466e-08
2.30705e-06
4.96502e-08
2.30796e-06
4.65882e-08
2.30875e-06
4.35184e-08
2.30949e-06
4.08148e-08
2.31013e-06
3.80997e-08
2.31076e-06
3.57367e-08
2.31131e-06
3.33495e-08
2.31187e-06
3.12632e-08
2.31238e-06
2.91351e-08
2.3129e-06
2.72291e-08
2.31339e-06
2.52704e-08
2.3139e-06
2.34379e-08
2.31437e-06
2.15459e-08
2.31483e-06
1.96804e-08
2.31524e-06
1.77457e-08
2.31558e-06
1.57657e-08
2.3158e-06
1.37165e-08
2.31586e-06
1.16538e-08
9.60429e-09
2.31572e-06
2.36291e-06
1.95587e-08
2.36788e-06
4.4174e-08
2.37276e-06
5.80703e-08
2.37734e-06
6.72866e-08
2.38163e-06
7.31707e-08
2.38556e-06
7.62467e-08
2.38914e-06
7.74394e-08
2.3924e-06
7.71869e-08
2.39537e-06
7.59503e-08
2.39805e-06
7.38646e-08
2.40048e-06
7.13034e-08
2.40265e-06
6.82889e-08
2.40461e-06
6.51365e-08
2.40636e-06
6.17566e-08
2.40794e-06
5.84322e-08
2.40934e-06
5.50125e-08
2.4106e-06
5.17838e-08
2.41171e-06
4.85435e-08
2.41272e-06
4.55718e-08
2.41362e-06
4.26259e-08
2.41446e-06
3.9975e-08
2.4152e-06
3.73548e-08
2.41592e-06
3.50142e-08
2.41658e-06
3.26962e-08
2.41723e-06
3.06112e-08
2.41783e-06
2.85322e-08
2.41844e-06
2.66192e-08
2.41901e-06
2.46967e-08
2.41959e-06
2.28633e-08
2.42013e-06
2.10054e-08
2.42065e-06
1.91644e-08
2.42111e-06
1.72842e-08
2.42149e-06
1.53805e-08
2.42177e-06
1.34416e-08
2.4219e-06
1.15245e-08
9.64708e-09
2.42185e-06
2.47156e-06
1.70554e-08
2.47602e-06
3.97097e-08
2.48069e-06
5.3407e-08
2.48523e-06
6.27396e-08
2.48957e-06
6.88347e-08
2.49359e-06
7.22226e-08
2.4973e-06
7.37359e-08
2.50068e-06
7.37994e-08
2.50378e-06
7.28525e-08
2.50659e-06
7.10573e-08
2.50914e-06
6.87537e-08
2.51143e-06
6.59948e-08
2.51351e-06
6.30559e-08
2.51538e-06
5.9894e-08
2.51706e-06
5.67449e-08
2.51856e-06
5.35121e-08
2.51993e-06
5.04209e-08
2.52114e-06
4.7334e-08
2.52225e-06
4.4461e-08
2.52324e-06
4.16351e-08
2.52417e-06
3.9047e-08
2.525e-06
3.65167e-08
2.52581e-06
3.42105e-08
2.52655e-06
3.19564e-08
2.52727e-06
2.98864e-08
2.52795e-06
2.78524e-08
2.52863e-06
2.59466e-08
2.52926e-06
2.40584e-08
2.52989e-06
2.22381e-08
2.53048e-06
2.04166e-08
2.53103e-06
1.86113e-08
2.53153e-06
1.679e-08
2.53194e-06
1.49647e-08
2.53225e-06
1.31317e-08
2.53243e-06
1.13423e-08
9.61064e-09
2.53247e-06
2.58535e-06
1.49631e-08
2.58934e-06
3.57111e-08
2.59375e-06
4.90067e-08
2.59819e-06
5.82905e-08
2.60253e-06
6.45036e-08
2.60661e-06
6.81404e-08
2.61041e-06
6.99367e-08
2.61391e-06
7.02967e-08
2.61713e-06
6.96319e-08
2.62007e-06
6.81224e-08
2.62274e-06
6.60776e-08
2.62516e-06
6.35746e-08
2.62736e-06
6.08552e-08
2.62934e-06
5.79132e-08
2.63114e-06
5.49462e-08
2.63275e-06
5.19007e-08
2.63422e-06
4.89543e-08
2.63553e-06
4.60202e-08
2.63674e-06
4.32543e-08
2.63783e-06
4.0547e-08
2.63884e-06
3.80315e-08
2.63977e-06
3.55893e-08
2.64065e-06
3.33284e-08
2.64147e-06
3.11368e-08
2.64227e-06
2.90936e-08
2.64301e-06
2.71041e-08
2.64374e-06
2.52178e-08
2.64444e-06
2.33655e-08
2.6451e-06
2.15698e-08
2.64573e-06
1.97885e-08
2.64632e-06
1.80276e-08
2.64684e-06
1.62687e-08
2.64728e-06
1.45223e-08
2.64762e-06
1.27897e-08
2.64785e-06
1.11136e-08
9.50666e-09
2.64795e-06
2.7045e-06
1.32025e-08
2.70807e-06
3.21359e-08
2.71219e-06
4.48914e-08
2.71649e-06
5.39907e-08
2.72076e-06
6.02293e-08
2.72486e-06
6.40444e-08
2.72872e-06
6.6076e-08
2.73231e-06
6.67028e-08
2.73564e-06
6.63037e-08
2.73869e-06
6.50691e-08
2.74149e-06
6.32791e-08
2.74404e-06
6.10295e-08
2.74636e-06
5.85326e-08
2.74846e-06
5.58113e-08
2.75038e-06
5.30317e-08
2.7521e-06
5.01743e-08
2.75368e-06
4.73794e-08
2.7551e-06
4.45987e-08
2.7564e-06
4.19477e-08
2.75759e-06
3.93595e-08
2.7587e-06
3.69258e-08
2.75972e-06
3.45721e-08
2.76068e-06
3.23665e-08
2.76158e-06
3.02385e-08
2.76244e-06
2.82328e-08
2.76325e-06
2.629e-08
2.76403e-06
2.44338e-08
2.76478e-06
2.26212e-08
2.76549e-06
2.08597e-08
2.76615e-06
1.91236e-08
2.76677e-06
1.74137e-08
2.76732e-06
1.57201e-08
2.76779e-06
1.40522e-08
2.76816e-06
1.24142e-08
2.76844e-06
1.08401e-08
9.34117e-09
2.7686e-06
2.82923e-06
1.17109e-08
2.83243e-06
2.89401e-08
2.83626e-06
4.10604e-08
2.84038e-06
4.9875e-08
2.84455e-06
5.60562e-08
2.84862e-06
5.99786e-08
2.8525e-06
6.2193e-08
2.85615e-06
6.30493e-08
2.85956e-06
6.2892e-08
2.86272e-06
6.19147e-08
2.86563e-06
6.03703e-08
2.86829e-06
5.83669e-08
2.87073e-06
5.60919e-08
2.87295e-06
5.35894e-08
2.87498e-06
5.10007e-08
2.87683e-06
4.83312e-08
2.87851e-06
4.5693e-08
2.88004e-06
4.30664e-08
2.88145e-06
4.05373e-08
2.88274e-06
3.80696e-08
2.88394e-06
3.5726e-08
2.88505e-06
3.34628e-08
2.8861e-06
3.13218e-08
2.88708e-06
2.92602e-08
2.88801e-06
2.73017e-08
2.88889e-06
2.54095e-08
2.88973e-06
2.35928e-08
2.89053e-06
2.1825e-08
2.89128e-06
2.01061e-08
2.89198e-06
1.84204e-08
2.89263e-06
1.67669e-08
2.89321e-06
1.5141e-08
2.89371e-06
1.35507e-08
2.89412e-06
1.2002e-08
2.89444e-06
1.05206e-08
9.11696e-09
2.89467e-06
2.22397e-06
1.07264e-08
2.22615e-06
2.6758e-08
2.22888e-06
3.83314e-08
2.23186e-06
4.68983e-08
2.23492e-06
5.299e-08
2.23795e-06
5.69493e-08
2.24088e-06
5.92688e-08
2.24365e-06
6.02715e-08
2.24627e-06
6.02783e-08
2.2487e-06
5.94799e-08
2.25096e-06
5.8112e-08
2.25304e-06
5.62866e-08
2.25496e-06
5.41765e-08
2.25671e-06
5.18357e-08
2.25832e-06
4.93919e-08
2.25979e-06
4.68626e-08
2.26113e-06
4.43458e-08
2.26237e-06
4.1835e-08
2.2635e-06
3.94025e-08
2.26454e-06
3.70262e-08
2.26551e-06
3.4756e-08
2.26641e-06
3.25624e-08
2.26726e-06
3.04762e-08
2.26805e-06
2.8467e-08
2.26881e-06
2.65501e-08
2.26952e-06
2.46992e-08
2.27019e-06
2.29183e-08
2.27083e-06
2.11879e-08
2.27143e-06
1.95061e-08
2.27199e-06
1.78618e-08
2.2725e-06
1.62539e-08
2.27296e-06
1.46802e-08
2.27336e-06
1.31479e-08
2.2737e-06
1.16637e-08
2.27397e-06
1.02472e-08
8.90982e-09
2.27418e-06
2.39216e-06
9.81326e-09
2.39424e-06
2.46723e-08
2.39691e-06
3.56603e-08
2.39988e-06
4.3931e-08
2.40297e-06
4.9895e-08
2.40607e-06
5.38578e-08
2.40908e-06
5.62562e-08
2.41196e-06
5.73863e-08
2.4147e-06
5.75445e-08
2.41726e-06
5.69167e-08
2.41965e-06
5.5721e-08
2.42187e-06
5.40718e-08
2.42392e-06
5.2128e-08
2.4258e-06
4.99508e-08
2.42754e-06
4.76559e-08
2.42913e-06
4.52706e-08
2.43059e-06
4.28803e-08
2.43194e-06
4.04899e-08
2.43318e-06
3.81597e-08
2.43433e-06
3.58796e-08
2.4354e-06
3.36891e-08
2.43639e-06
3.15699e-08
2.43732e-06
2.95446e-08
2.43819e-06
2.75928e-08
2.43902e-06
2.57238e-08
2.4398e-06
2.39193e-08
2.44054e-06
2.21799e-08
2.44123e-06
2.04921e-08
2.44189e-06
1.88528e-08
2.4425e-06
1.72546e-08
2.44305e-06
1.56963e-08
2.44356e-06
1.41779e-08
2.444e-06
1.27051e-08
2.44438e-06
1.12855e-08
2.44469e-06
9.93273e-09
8.65956e-09
2.44494e-06
2.57308e-06
8.96561e-09
2.57508e-06
2.26815e-08
2.57768e-06
3.30577e-08
2.58062e-06
4.09878e-08
2.58373e-06
4.6788e-08
2.58686e-06
5.07219e-08
2.58995e-06
5.31721e-08
2.59293e-06
5.44089e-08
2.59577e-06
5.47033e-08
2.59845e-06
5.4235e-08
2.60097e-06
5.32047e-08
2.60331e-06
5.17274e-08
2.60549e-06
4.99486e-08
2.6075e-06
4.79351e-08
2.60937e-06
4.57913e-08
2.61109e-06
4.35522e-08
2.61268e-06
4.12926e-08
2.61414e-06
3.9026e-08
2.6155e-06
3.68034e-08
2.61675e-06
3.46238e-08
2.61792e-06
3.25188e-08
2.61901e-06
3.0479e-08
2.62004e-06
2.85208e-08
2.621e-06
2.66315e-08
2.62191e-06
2.48167e-08
2.62276e-06
2.30639e-08
2.62357e-06
2.13723e-08
2.62433e-06
1.97324e-08
2.62504e-06
1.8141e-08
2.6257e-06
1.65935e-08
2.62631e-06
1.50889e-08
2.62686e-06
1.36286e-08
2.62735e-06
1.22169e-08
2.62777e-06
1.08619e-08
2.62813e-06
9.57218e-09
8.36155e-09
2.62843e-06
2.76772e-06
8.17775e-09
2.76962e-06
2.07851e-08
2.77214e-06
3.05294e-08
2.77505e-06
3.80815e-08
2.77815e-06
4.36842e-08
2.78132e-06
4.75579e-08
2.78446e-06
5.00331e-08
2.78751e-06
5.1355e-08
2.79045e-06
5.1769e-08
2.79323e-06
5.14472e-08
2.79587e-06
5.05731e-08
2.79833e-06
4.92611e-08
2.80064e-06
4.76438e-08
2.80278e-06
4.5792e-08
2.80477e-06
4.37995e-08
2.80662e-06
4.17073e-08
2.80833e-06
3.95809e-08
2.80991e-06
3.74407e-08
2.81139e-06
3.533e-08
2.81276e-06
3.32547e-08
2.81403e-06
3.12405e-08
2.81523e-06
2.92846e-08
2.81635e-06
2.73993e-08
2.8174e-06
2.55779e-08
2.8184e-06
2.38233e-08
2.81933e-06
2.2128e-08
2.82022e-06
2.04901e-08
2.82104e-06
1.89035e-08
2.82182e-06
1.73654e-08
2.82254e-06
1.58732e-08
2.8232e-06
1.44262e-08
2.8238e-06
1.30267e-08
2.82434e-06
1.16778e-08
2.82482e-06
1.03877e-08
2.82523e-06
9.16036e-09
8.0111e-09
2.82558e-06
2.9771e-06
7.44398e-09
2.9789e-06
1.8982e-08
2.98135e-06
2.80798e-08
2.98421e-06
3.5223e-08
2.98729e-06
4.05969e-08
2.99047e-06
4.43805e-08
2.99365e-06
4.68545e-08
2.99677e-06
4.82396e-08
2.99978e-06
4.87559e-08
3.00266e-06
4.85662e-08
3.0054e-06
4.78377e-08
3.00797e-06
4.66826e-08
3.0104e-06
4.52216e-08
3.01266e-06
4.35274e-08
3.01478e-06
4.16848e-08
3.01674e-06
3.97385e-08
3.01858e-06
3.77466e-08
3.02029e-06
3.57341e-08
3.02188e-06
3.37383e-08
3.02336e-06
3.17702e-08
3.02475e-06
2.98512e-08
3.02605e-06
2.79835e-08
3.02727e-06
2.61766e-08
3.02842e-06
2.44279e-08
3.02951e-06
2.27395e-08
3.03053e-06
2.1107e-08
3.03149e-06
1.95287e-08
3.03239e-06
1.80009e-08
3.03324e-06
1.65213e-08
3.03402e-06
1.50888e-08
3.03475e-06
1.37031e-08
3.03541e-06
1.23669e-08
3.036e-06
1.10823e-08
3.03653e-06
9.85728e-09
3.037e-06
8.69225e-09
7.60361e-09
3.03741e-06
3.20233e-06
6.75866e-09
3.20404e-06
1.72701e-08
3.20641e-06
2.57122e-08
3.20921e-06
3.24215e-08
3.21227e-06
3.7538e-08
3.21545e-06
4.12028e-08
3.21865e-06
4.36502e-08
3.22181e-06
4.50766e-08
3.22489e-06
4.56774e-08
3.22785e-06
4.56048e-08
3.23068e-06
4.50104e-08
3.23336e-06
4.40025e-08
3.23589e-06
4.26912e-08
3.23827e-06
4.11492e-08
3.2405e-06
3.94535e-08
3.24259e-06
3.76508e-08
3.24454e-06
3.57932e-08
3.24637e-06
3.39085e-08
3.24808e-06
3.20296e-08
3.24968e-06
3.01708e-08
3.25118e-06
2.83507e-08
3.25259e-06
2.65746e-08
3.25391e-06
2.48509e-08
3.25516e-06
2.31796e-08
3.25634e-06
2.15628e-08
3.25745e-06
1.99983e-08
3.25849e-06
1.8485e-08
3.25947e-06
1.7021e-08
3.26039e-06
1.56047e-08
3.26124e-06
1.4236e-08
3.26203e-06
1.29149e-08
3.26275e-06
1.16444e-08
3.26341e-06
1.04255e-08
3.264e-06
9.26605e-09
3.26453e-06
8.16329e-09
7.13493e-09
3.265e-06
3.44462e-06
6.11645e-09
3.44624e-06
1.56466e-08
3.44853e-06
2.3429e-08
3.45126e-06
2.96849e-08
3.45428e-06
3.4518e-08
3.45745e-06
3.80366e-08
3.46067e-06
4.04327e-08
3.46387e-06
4.18784e-08
3.467e-06
4.25457e-08
3.47003e-06
4.25747e-08
3.47294e-06
4.21021e-08
3.47571e-06
4.12312e-08
3.47834e-06
4.00619e-08
3.48082e-06
3.86658e-08
3.48316e-06
3.71129e-08
3.48536e-06
3.54506e-08
3.48743e-06
3.37259e-08
3.48937e-06
3.19683e-08
3.49119e-06
3.02071e-08
3.4929e-06
2.8459e-08
3.49451e-06
2.67404e-08
3.49603e-06
2.5059e-08
3.49746e-06
2.34224e-08
3.49881e-06
2.18327e-08
3.50008e-06
2.02922e-08
3.50127e-06
1.88005e-08
3.5024e-06
1.73572e-08
3.50346e-06
1.59615e-08
3.50445e-06
1.46128e-08
3.50538e-06
1.33117e-08
3.50623e-06
1.20582e-08
3.50702e-06
1.08555e-08
3.50775e-06
9.70354e-09
3.5084e-06
8.61011e-09
3.50899e-06
7.56985e-09
6.60168e-09
3.50953e-06
3.70526e-06
5.51255e-09
3.7068e-06
1.41079e-08
3.709e-06
2.12313e-08
3.71166e-06
2.70194e-08
3.71463e-06
3.1546e-08
3.71778e-06
3.48926e-08
3.721e-06
3.72131e-08
3.72422e-06
3.86563e-08
3.72739e-06
3.93716e-08
3.73048e-06
3.94863e-08
3.73346e-06
3.91227e-08
3.73631e-06
3.83778e-08
3.73903e-06
3.73422e-08
3.74162e-06
3.60851e-08
3.74406e-06
3.46702e-08
3.74636e-06
3.31444e-08
3.74854e-06
3.15505e-08
3.75059e-06
2.99185e-08
3.75252e-06
2.82753e-08
3.75434e-06
2.66385e-08
3.75606e-06
2.50235e-08
3.75768e-06
2.34392e-08
3.75921e-06
2.1893e-08
3.76065e-06
2.03886e-08
3.76202e-06
1.89286e-08
3.7633e-06
1.75139e-08
3.76451e-06
1.61449e-08
3.76565e-06
1.48218e-08
3.76672e-06
1.35444e-08
3.76772e-06
1.2314e-08
3.76865e-06
1.11306e-08
3.76951e-06
9.99745e-09
3.7703e-06
8.91369e-09
3.77102e-06
7.8868e-09
3.77168e-06
6.90938e-09
6.00154e-09
3.77228e-06
3.98563e-06
4.94277e-09
3.98709e-06
1.26499e-08
3.9892e-06
1.91194e-08
3.99179e-06
2.44298e-08
3.99471e-06
2.86302e-08
3.99782e-06
3.17805e-08
4.00103e-06
3.40018e-08
4.00427e-06
3.54204e-08
4.00748e-06
3.61647e-08
4.01061e-06
3.63486e-08
4.01366e-06
3.60805e-08
4.01658e-06
3.54502e-08
4.01939e-06
3.45395e-08
4.02206e-06
3.34139e-08
4.0246e-06
3.21317e-08
4.027e-06
3.07379e-08
4.02928e-06
2.92723e-08
4.03143e-06
2.77641e-08
4.03347e-06
2.62385e-08
4.0354e-06
2.47135e-08
4.03722e-06
2.32035e-08
4.03894e-06
2.17184e-08
4.04056e-06
2.02656e-08
4.0421e-06
1.88496e-08
4.04356e-06
1.74738e-08
4.04493e-06
1.61399e-08
4.04623e-06
1.48489e-08
4.04745e-06
1.36019e-08
4.04859e-06
1.23992e-08
4.04967e-06
1.12422e-08
4.05067e-06
1.01311e-08
4.05159e-06
9.06906e-09
4.05245e-06
8.05447e-09
4.05325e-06
7.09465e-09
4.05397e-06
6.18053e-09
5.33329e-09
4.05464e-06
4.28723e-06
4.40355e-09
4.28862e-06
1.12677e-08
4.29064e-06
1.70926e-08
4.29315e-06
2.19193e-08
4.29601e-06
2.5777e-08
4.29908e-06
2.87088e-08
4.30227e-06
3.08079e-08
4.30551e-06
3.218e-08
4.30874e-06
3.29338e-08
4.31192e-06
3.31697e-08
4.31502e-06
3.29828e-08
4.31802e-06
3.24549e-08
4.3209e-06
3.16595e-08
4.32365e-06
3.06575e-08
4.32628e-06
2.9502e-08
4.32878e-06
2.82357e-08
4.33116e-06
2.68953e-08
4.33342e-06
2.5509e-08
4.33556e-06
2.41004e-08
4.33758e-06
2.26873e-08
4.3395e-06
2.12835e-08
4.34132e-06
1.98994e-08
4.34304e-06
1.85424e-08
4.34468e-06
1.72179e-08
4.34622e-06
1.59295e-08
4.34768e-06
1.46797e-08
4.34906e-06
1.34702e-08
4.35036e-06
1.23025e-08
4.35158e-06
1.11772e-08
4.35273e-06
1.00962e-08
4.3538e-06
9.05929e-09
4.3548e-06
8.0697e-09
4.35573e-06
7.12525e-09
4.35659e-06
6.23307e-09
4.35739e-06
5.38286e-09
4.59666e-09
4.35812e-06
4.61167e-06
3.89191e-09
4.61298e-06
9.95624e-09
4.61492e-06
1.5149e-08
4.61735e-06
1.94894e-08
4.62014e-06
2.29913e-08
4.62316e-06
2.56845e-08
4.62633e-06
2.76398e-08
4.62957e-06
2.89435e-08
4.63282e-06
2.96868e-08
4.63603e-06
2.99568e-08
4.63918e-06
2.9836e-08
4.64223e-06
2.93975e-08
4.64519e-06
2.87069e-08
4.64802e-06
2.78198e-08
4.65074e-06
2.67845e-08
4.65334e-06
2.56407e-08
4.65581e-06
2.44221e-08
4.65816e-06
2.31555e-08
4.6604e-06
2.1863e-08
4.66253e-06
2.05618e-08
4.66454e-06
1.92653e-08
4.66646e-06
1.79839e-08
4.66828e-06
1.67251e-08
4.67e-06
1.54947e-08
4.67163e-06
1.42968e-08
4.67318e-06
1.31343e-08
4.67464e-06
1.20094e-08
4.67602e-06
1.09238e-08
4.67732e-06
9.87859e-09
4.67854e-06
8.87556e-09
4.67968e-06
7.91469e-09
4.68075e-06
6.99888e-09
4.68175e-06
6.1256e-09
4.68268e-06
5.3018e-09
4.68355e-06
4.51628e-09
3.79175e-09
4.68436e-06
4.96067e-06
3.40526e-09
4.96191e-06
8.70986e-09
4.96378e-06
1.32854e-08
4.96613e-06
1.71399e-08
4.96884e-06
2.02758e-08
4.97181e-06
2.27129e-08
4.97495e-06
2.45038e-08
4.97817e-06
2.5718e-08
4.98143e-06
2.64309e-08
4.98467e-06
2.67164e-08
4.98786e-06
2.66456e-08
4.99098e-06
2.62826e-08
4.994e-06
2.56854e-08
4.99691e-06
2.49039e-08
4.99972e-06
2.39815e-08
5.0024e-06
2.29546e-08
5.00497e-06
2.18539e-08
5.00742e-06
2.07045e-08
5.00976e-06
1.95269e-08
5.01198e-06
1.83374e-08
5.0141e-06
1.7149e-08
5.01611e-06
1.59718e-08
5.01802e-06
1.48134e-08
5.01984e-06
1.36797e-08
5.02156e-06
1.25751e-08
5.02319e-06
1.15029e-08
5.02473e-06
1.04654e-08
5.02619e-06
9.46472e-09
5.02757e-06
8.50204e-09
5.02887e-06
7.57918e-09
5.03009e-06
6.69609e-09
5.03123e-06
5.85549e-09
5.0323e-06
5.05458e-09
5.0333e-06
4.30011e-09
5.03424e-06
3.58033e-09
2.9184e-09
5.03511e-06
5.33608e-06
2.94126e-09
5.33727e-06
7.52273e-09
5.33906e-06
1.14975e-08
5.34133e-06
1.48686e-08
5.34397e-06
1.7631e-08
5.34689e-06
1.97968e-08
5.34999e-06
2.14045e-08
5.3532e-06
2.2509e-08
5.35646e-06
2.31714e-08
5.35972e-06
2.34538e-08
5.36295e-06
2.34162e-08
5.36612e-06
2.31142e-08
5.36921e-06
2.25981e-08
5.3722e-06
2.19119e-08
5.37508e-06
2.10943e-08
5.37786e-06
2.0178e-08
5.38052e-06
1.91908e-08
5.38307e-06
1.81555e-08
5.38551e-06
1.70911e-08
5.38783e-06
1.60129e-08
5.39005e-06
1.49331e-08
5.39216e-06
1.38614e-08
5.39417e-06
1.28053e-08
5.39608e-06
1.17708e-08
5.39789e-06
1.07621e-08
5.39961e-06
9.78294e-09
5.40124e-06
8.83568e-09
5.40278e-06
7.92258e-09
5.40424e-06
7.04486e-09
5.40561e-06
6.20434e-09
5.40691e-06
5.40092e-09
5.40813e-06
4.63714e-09
5.40927e-06
3.91005e-09
5.41035e-06
3.2262e-09
5.41135e-06
2.57352e-09
1.97547e-09
5.4123e-06
5.73992e-06
2.49759e-09
5.74105e-06
6.38861e-09
5.74277e-06
9.77927e-09
5.74497e-06
1.26711e-08
5.74754e-06
1.50546e-08
5.7504e-06
1.69362e-08
5.75347e-06
1.83436e-08
5.75666e-06
1.93191e-08
5.75992e-06
1.99118e-08
5.7632e-06
2.01724e-08
5.76646e-06
2.0151e-08
5.76968e-06
1.98948e-08
5.77283e-06
1.94466e-08
5.7759e-06
1.88449e-08
5.77887e-06
1.81232e-08
5.78174e-06
1.73106e-08
5.7845e-06
1.64315e-08
5.78715e-06
1.55068e-08
5.78968e-06
1.45535e-08
5.79211e-06
1.35856e-08
5.79443e-06
1.26146e-08
5.79664e-06
1.16494e-08
5.79875e-06
1.06973e-08
5.80076e-06
9.76394e-09
5.80267e-06
8.85376e-09
5.80448e-06
7.97022e-09
5.8062e-06
7.11586e-09
5.80783e-06
6.2929e-09
5.80937e-06
5.50259e-09
5.81083e-06
4.74666e-09
5.8122e-06
4.02496e-09
5.8135e-06
3.33987e-09
5.81472e-06
2.68834e-09
5.81587e-06
2.07675e-09
5.81695e-06
1.49288e-09
9.6036e-10
5.81797e-06
6.17432e-06
2.07182e-09
6.17541e-06
5.3007e-09
6.17707e-06
8.12328e-09
6.1792e-06
1.05406e-08
6.18171e-06
1.25412e-08
6.18452e-06
1.41277e-08
6.18754e-06
1.53193e-08
6.19072e-06
1.61479e-08
6.19398e-06
1.66521e-08
6.19728e-06
1.68727e-08
6.20058e-06
1.68506e-08
6.20385e-06
1.66247e-08
6.20706e-06
1.62311e-08
6.2102e-06
1.57023e-08
6.21326e-06
1.50671e-08
6.21622e-06
1.43505e-08
6.21908e-06
1.3574e-08
6.22183e-06
1.27556e-08
6.22447e-06
1.19107e-08
6.22701e-06
1.10518e-08
6.22943e-06
1.01891e-08
6.23175e-06
9.33103e-09
6.23396e-06
8.48417e-09
6.23607e-06
7.65388e-09
6.23808e-06
6.84433e-09
6.23999e-06
6.05886e-09
6.24181e-06
5.2999e-09
6.24353e-06
4.56961e-09
6.24517e-06
3.86915e-09
6.24671e-06
3.20015e-09
6.24818e-06
2.56239e-09
6.24956e-06
1.95809e-09
6.25086e-06
1.38417e-09
6.25209e-06
8.4681e-10
6.25325e-06
3.33806e-10
-1.31183e-10
6.25434e-06
6.64161e-06
1.66116e-09
6.64266e-06
4.25138e-09
6.64427e-06
6.51989e-09
6.64634e-06
8.46721e-09
6.6488e-06
1.00818e-08
6.65156e-06
1.13634e-08
6.65456e-06
1.23251e-08
6.65772e-06
1.29903e-08
6.66098e-06
1.33885e-08
6.6643e-06
1.35516e-08
6.66764e-06
1.35119e-08
6.67096e-06
1.33011e-08
6.67425e-06
1.29486e-08
6.67747e-06
1.2481e-08
6.68061e-06
1.19225e-08
6.68367e-06
1.12941e-08
6.68663e-06
1.06139e-08
6.68949e-06
9.89743e-09
6.69224e-06
9.15784e-09
6.69489e-06
8.40603e-09
6.69742e-06
7.65102e-09
6.69985e-06
6.9002e-09
6.70218e-06
6.15951e-09
6.7044e-06
5.43377e-09
6.70652e-06
4.72677e-09
6.70853e-06
4.04156e-09
6.71045e-06
3.38039e-09
6.71228e-06
2.7452e-09
6.71401e-06
2.13704e-09
6.71565e-06
1.55739e-09
6.71721e-06
1.00594e-09
6.71868e-06
4.84756e-10
6.72008e-06
-9.26352e-12
6.72139e-06
-4.70102e-10
6.72264e-06
-9.09895e-10
-1.30503e-09
6.72381e-06
7.14428e-06
1.26227e-09
7.1453e-06
3.23169e-09
7.14686e-06
4.95699e-09
7.14889e-06
6.43753e-09
7.15131e-06
7.66266e-09
7.15404e-06
8.63046e-09
7.15702e-06
9.34925e-09
7.16017e-06
9.83566e-09
7.16345e-06
1.01113e-08
7.1668e-06
1.02001e-08
7.17019e-06
1.01271e-08
7.17357e-06
9.91666e-09
7.17693e-06
9.59191e-09
7.18024e-06
9.17418e-09
7.18348e-06
8.68269e-09
7.18664e-06
8.13444e-09
7.18971e-06
7.5443e-09
7.19268e-06
6.92501e-09
7.19555e-06
6.28744e-09
7.19831e-06
5.64072e-09
7.20097e-06
4.99243e-09
7.20352e-06
4.34883e-09
7.20597e-06
3.71502e-09
7.20831e-06
3.09513e-09
7.21054e-06
2.49241e-09
7.21267e-06
1.90953e-09
7.21471e-06
1.34841e-09
7.21664e-06
8.10745e-10
7.21848e-06
2.97381e-10
7.22023e-06
-1.90407e-10
7.22189e-06
-6.53016e-10
7.22346e-06
-1.08856e-09
7.22495e-06
-1.50013e-09
7.22636e-06
-1.8819e-09
7.2277e-06
-2.24586e-09
-2.56857e-09
7.22896e-06
7.685e-06
8.709e-10
7.686e-06
2.23072e-09
7.68754e-06
3.41905e-09
7.68954e-06
4.43325e-09
7.69194e-06
5.26414e-09
7.69466e-06
5.90896e-09
7.69764e-06
6.37246e-09
7.70081e-06
6.66558e-09
7.70411e-06
6.80323e-09
7.70751e-06
6.80245e-09
7.71096e-06
6.68118e-09
7.71442e-06
6.45732e-09
7.71786e-06
6.14802e-09
7.72127e-06
5.76927e-09
7.72461e-06
5.33562e-09
7.72789e-06
4.86007e-09
7.73108e-06
4.35404e-09
7.73418e-06
3.82744e-09
7.73718e-06
3.28875e-09
7.74007e-06
2.74516e-09
7.74286e-06
2.20268e-09
7.74554e-06
1.66628e-09
7.74812e-06
1.14003e-09
7.75059e-06
6.27254e-10
7.75295e-06
1.30566e-10
7.75521e-06
-3.47908e-10
7.75736e-06
-8.06645e-10
7.75942e-06
-1.2443e-09
7.76137e-06
-1.66026e-09
7.76324e-06
-2.0535e-09
7.76501e-06
-2.42454e-09
7.76669e-06
-2.77168e-09
7.76829e-06
-3.098e-09
7.76981e-06
-3.3979e-09
7.77124e-06
-3.68315e-09
-3.93063e-09
7.7726e-06
8.26665e-06
4.81301e-10
8.26764e-06
1.23466e-09
8.26918e-06
1.88583e-09
8.27118e-06
2.4297e-09
8.27359e-06
2.85889e-09
8.27632e-06
3.17034e-09
8.27933e-06
3.36598e-09
8.28254e-06
3.45198e-09
8.28591e-06
3.43736e-09
8.28938e-06
3.33281e-09
8.29291e-06
3.14987e-09
8.29647e-06
2.90026e-09
8.30002e-06
2.59541e-09
8.30354e-06
2.24611e-09
8.30702e-06
1.86229e-09
8.31042e-06
1.45291e-09
8.31375e-06
1.02592e-09
8.31699e-06
5.88284e-10
8.32014e-06
1.45984e-10
8.32318e-06
-2.95879e-10
8.32611e-06
-7.3302e-10
8.32894e-06
-1.16187e-09
8.33166e-06
-1.57953e-09
8.33427e-06
-1.98361e-09
8.33677e-06
-2.37227e-09
8.33917e-06
-2.744e-09
8.34146e-06
-3.09777e-09
8.34365e-06
-3.43264e-09
8.34574e-06
-3.74831e-09
8.34773e-06
-4.04402e-09
8.34962e-06
-4.32045e-09
8.35143e-06
-4.57613e-09
8.35314e-06
-4.8141e-09
8.35478e-06
-5.02904e-09
8.35633e-06
-5.2324e-09
-5.4016e-09
8.3578e-06
8.89233e-06
8.60677e-11
8.89334e-06
2.25336e-10
8.8949e-06
3.3015e-10
8.89693e-06
3.931e-10
8.89938e-06
4.08637e-10
8.90218e-06
3.73773e-10
8.90526e-06
2.88045e-10
8.90856e-06
1.53315e-10
8.91202e-06
-2.68363e-11
8.9156e-06
-2.47684e-10
8.91925e-06
-5.03803e-10
8.92294e-06
-7.89425e-10
8.92664e-06
-1.09874e-09
8.93031e-06
-1.4261e-09
8.93394e-06
-1.76619e-09
8.93751e-06
-2.11412e-09
8.941e-06
-2.46551e-09
8.9444e-06
-2.81645e-09
8.94771e-06
-3.16356e-09
8.95092e-06
-3.50394e-09
8.95402e-06
-3.83517e-09
8.95702e-06
-4.15521e-09
8.9599e-06
-4.46244e-09
8.96267e-06
-4.75553e-09
8.96533e-06
-5.03348e-09
8.96788e-06
-5.29551e-09
8.97033e-06
-5.54115e-09
8.97266e-06
-5.76993e-09
8.9749e-06
-5.9819e-09
8.97703e-06
-6.17662e-09
8.97907e-06
-6.35495e-09
8.98101e-06
-6.51564e-09
8.98285e-06
-6.66175e-09
8.98461e-06
-6.78824e-09
8.98629e-06
-6.90619e-09