/*--------------------------------*- C++ -*----------------------------------*\
| =========                 |                                                 |
| \\      /  F ield         | OpenFOAM: The Open Source CFD Toolbox           |
|  \\    /   O peration     | Version:  2.4.0                                 |
|   \\  /    A nd           | Web:      www.OpenFOAM.org                      |
|    \\/     M anipulation  |                                                 |
\*---------------------------------------------------------------------------*/
FoamFile
{
    version     2.0;
    format      ascii;
    class       volScalarField;
    location    "13";
    object      epsilon;
}
// * * * * * * * * * * * * * * * * * * * * * * * * * * * * * * * * * * * * * //

dimensions      [0 2 -3 0 0 0 0];

internalField   nonuniform List<scalar> 
1800
(
81.4649
99.9957
99.5973
96.025
93.2397
91.7598
91.2588
91.4055
92.0053
92.9436
94.134
95.5066
97.0085
98.6007
100.254
101.948
103.666
105.401
107.148
108.905
7.16862
13.7183
17.2287
18.9013
19.6038
19.9473
20.1762
20.3696
20.5572
20.7534
20.9638
21.1897
21.4301
21.6833
21.9473
22.2205
22.5014
22.7892
23.0832
23.3834
0.231777
1.07284
2.22258
3.22805
3.94144
4.40557
4.70083
4.89064
5.01629
5.10317
5.16684
5.21703
5.2599
5.29932
5.3378
5.37692
5.41772
5.46086
5.50675
5.55561
0.0262312
0.040127
0.147953
0.347234
0.594725
0.836338
1.03706
1.18779
1.29461
1.3678
1.41678
1.4489
1.46953
1.48254
1.4907
1.49601
1.4999
1.50343
1.50733
1.51207
0.0253692
0.00788361
0.00782423
0.0194175
0.048183
0.0974791
0.162585
0.233116
0.299099
0.354541
0.397615
0.429176
0.451209
0.465849
0.474981
0.480147
0.482579
0.483251
0.482919
0.482146
0.02536
0.00699018
0.00267151
0.00189694
0.00304103
0.00690099
0.0150509
0.0286684
0.0476051
0.0701791
0.0938047
0.115988
0.135041
0.150247
0.161638
0.169667
0.174946
0.178102
0.179709
0.180256
0.0253597
0.00697566
0.00247119
0.00109542
0.000668066
0.000707643
0.00125001
0.00259726
0.00519388
0.00948048
0.0156832
0.0236341
0.0327486
0.0421862
0.0511049
0.0588748
0.0651697
0.0699412
0.0733329
0.0755871
0.0253597
0.00698263
0.0024702
0.00106076
0.000534121
0.000320835
0.000259709
0.000325451
0.000569056
0.00110248
0.0020852
0.00369601
0.00608026
0.00928237
0.0131932
0.0175469
0.0219798
0.0261305
0.0297331
0.0326633
0.0253597
0.00699036
0.00247697
0.00106406
0.000529883
0.000296875
0.000185886
0.000135709
0.000128986
0.000172454
0.000294318
0.000544971
0.000995976
0.001733
0.00283841
0.00436291
0.00629373
0.00853579
0.0109245
0.0132741
0.0253597
0.00699846
0.00248457
0.00106967
0.000533556
0.000298115
0.000182259
0.000120517
8.70318e-05
7.22456e-05
7.56584e-05
0.000104683
0.000176123
0.00031806
0.000570553
0.000982865
0.00160435
0.00246774
0.00356962
0.00486224
0.0253597
0.00700681
0.00249255
0.00107577
0.000538027
0.000301336
0.000184348
0.000121029
8.43487e-05
6.23435e-05
4.98034e-05
4.54005e-05
5.11412e-05
7.3181e-05
0.000123464
0.000221405
0.000394356
0.000674527
0.00108987
0.00165167
0.0253596
0.00701512
0.00250058
0.00108201
0.000542681
0.000304831
0.000187007
0.000123027
8.56604e-05
6.25707e-05
4.77731e-05
3.83487e-05
3.32061e-05
3.28412e-05
3.97982e-05
5.97941e-05
0.000103294
0.000186594
0.000329857
0.00055005
0.0253596
0.00702305
0.0025083
0.00108805
0.000547238
0.000308292
0.000189687
0.000125146
8.73548e-05
6.38912e-05
4.86355e-05
3.83908e-05
3.14624e-05
2.70853e-05
2.53261e-05
2.73967e-05
3.64979e-05
5.91513e-05
0.00010594
0.000189263
0.0253595
0.00703022
0.00251531
0.00109357
0.000551428
0.000311493
0.00019218
0.000127131
8.89671e-05
6.52211e-05
4.97334e-05
3.92529e-05
3.19761e-05
2.68874e-05
2.3479e-05
2.17191e-05
2.23082e-05
2.73788e-05
4.16443e-05
7.27462e-05
0.0253595
0.0070363
0.00252126
0.00109827
0.000555001
0.000314228
0.000194312
0.000128825
9.03378e-05
6.63467e-05
5.0667e-05
4.00281e-05
3.26033e-05
2.73315e-05
2.35923e-05
2.10662e-05
1.97318e-05
2.01589e-05
2.42139e-05
3.61132e-05
0.0253594
0.00704101
0.00252587
0.0011019
0.000557766
0.000316346
0.000195963
0.000130138
9.14011e-05
6.72202e-05
5.13918e-05
4.06315e-05
3.31016e-05
2.77291e-05
2.38714e-05
2.11548e-05
1.94037e-05
1.87566e-05
1.99948e-05
2.58557e-05
0.0254334
0.00716023
0.00265995
0.00123828
0.000691823
0.000446828
0.000323113
0.000254833
0.000214705
0.000190155
0.000174837
0.000165284
0.000159477
0.00015618
0.000154625
0.000154395
0.000155408
0.00015809
0.000164594
0.000194774
0.00346376
0.00356564
0.00366031
0.00374976
0.00383478
0.00391568
0.00399257
0.00406547
0.00413428
0.00419878
0.00425855
0.00431291
0.00436075
0.00440035
0.00442875
0.00444087
0.00442425
0.00435203
0.00413182
0.0036181
110.674
112.456
114.249
116.053
117.868
23.6898
24.0023
24.3208
24.6452
24.9754
5.6075
5.66239
5.72022
5.78098
5.84468
1.51794
1.52504
1.53343
1.54315
1.55426
0.48132
0.480683
0.480375
0.480494
0.481134
0.18013
0.179608
0.178876
0.178061
0.177268
0.0769684
0.0777096
0.0779859
0.0779217
0.0776175
0.0349255
0.0365987
0.0377779
0.0385423
0.0389602
0.0154365
0.0173298
0.0189219
0.0201989
0.0211584
0.00626991
0.00771954
0.00915049
0.010496
0.0116834
0.00235091
0.0031736
0.00411394
0.00514968
0.0062198
0.000853597
0.00124309
0.00173675
0.00235814
0.00310345
0.000316458
0.000488178
0.000717715
0.00103452
0.00146234
0.000126733
0.00020223
0.000305166
0.000454816
0.000674294
6.04415e-05
9.47693e-05
0.000140648
0.000209176
0.00031606
3.92432e-05
5.5844e-05
7.56784e-05
0.000104369
0.000150954
0.00024449
0.000263785
0.000259461
0.000238814
0.000219254
0.0027841
0.00225203
0.00210655
0.00193846
0.00164896
119.694
121.531
123.383
125.251
127.137
129.048
130.99
132.977
135.036
137.253
139.981
144.424
148.047
163.17
13.6788
25.3117
25.6542
26.0035
26.3603
26.7257
27.1016
27.4911
27.9007
28.3437
28.8529
29.5139
30.5077
31.1315
28.9735
4.30553
5.91141
5.98126
6.05439
6.13107
6.21176
6.29722
6.38884
6.48928
6.60389
6.74357
6.9271
7.14635
7.06566
5.61321
1.3285
1.56684
1.58095
1.59666
1.61408
1.63339
1.65489
1.67909
1.70693
1.74005
1.78099
1.83037
1.86629
1.77015
1.31796
0.452859
0.482389
0.484336
0.487038
0.490555
0.494968
0.500387
0.50698
0.515006
0.524836
0.536693
0.54884
0.550581
0.506954
0.380847
0.180078
0.1766
0.176146
0.175976
0.176144
0.176704
0.177709
0.17922
0.181304
0.184011
0.187229
0.189943
0.188283
0.172041
0.135239
0.0833888
0.077169
0.0766651
0.0761787
0.0757659
0.0754736
0.0753435
0.0754132
0.0757139
0.0762592
0.0769902
0.0775084
0.0765213
0.0706454
0.0585723
0.0443865
0.0391041
0.0390507
0.0388689
0.0386139
0.0383311
0.0380605
0.037838
0.037695
0.0376553
0.037718
0.0377527
0.0373094
0.0350454
0.0304537
0.0267404
0.0218219
0.0222342
0.0224478
0.0225099
0.0224617
0.0223411
0.0221846
0.0220266
0.0218986
0.0218237
0.0217676
0.0215588
0.0205757
0.0185418
0.0179432
0.0126619
0.0134197
0.0139726
0.0143462
0.0145684
0.0146697
0.0146829
0.0146418
0.0145794
0.0145249
0.0144785
0.0143717
0.0138843
0.0128474
0.0131975
0.00724437
0.00816104
0.00893676
0.00955925
0.0100294
0.0103595
0.0105708
0.0106902
0.010747
0.0107699
0.0107719
0.0107299
0.0104665
0.0098716
0.0104839
0.0039326
0.00479001
0.00562272
0.00638565
0.00704466
0.00758169
0.00799513
0.00829598
0.00850311
0.00863943
0.00872156
0.00874825
0.00861588
0.00824718
0.00888721
0.0020046
0.00264773
0.00336567
0.00411935
0.00486107
0.00554576
0.00614102
0.006631
0.00701443
0.00730081
0.0075019
0.00762512
0.00760506
0.0073839
0.00797166
0.000981255
0.00138752
0.0018978
0.0025049
0.00318576
0.00390176
0.00460658
0.00525745
0.00582376
0.00629031
0.00665287
0.00691573
0.00702829
0.00694794
0.00753186
0.000477365
0.000710062
0.00103077
0.00145297
0.00198087
0.0026049
0.00329866
0.00402187
0.00472889
0.00537994
0.0059464
0.00641973
0.00674592
0.00691545
0.00757787
0.000226521
0.000346069
0.000528158
0.000793591
0.00116175
0.00164576
0.00224661
0.00294935
0.00372388
0.00453243
0.00533824
0.00613266
0.00686603
0.00769816
0.00829969
0.00021648
0.000243275
0.000312426
0.000441044
0.000651649
0.000970558
0.00142296
0.00202598
0.00278339
0.00368808
0.00473128
0.00595946
0.00742162
0.0101097
0.0103988
0.00131861
0.00101936
0.00079299
0.000661229
0.000634022
0.000723149
0.00094981
0.00134546
0.00194833
0.00280293
0.00396881
0.0056288
0.00819918
0.0153331
0.0154941
0.00139844
0.0102472
0.0080771
0.00588031
0.00437543
0.00199817
0.11471
0.0840827
0.0523685
0.0326924
0.00217605
0.0610848
0.0991977
0.0849441
0.0671781
0.00198505
0.0145716
0.0286867
0.0425781
0.0447111
0.00123534
0.00509663
0.00874185
0.0141371
0.0169927
0.00080103
0.00240573
0.00359286
0.00539246
0.00629793
0.000565386
0.0014147
0.001926
0.00256827
0.00269884
0.00042147
0.000930738
0.0011433
0.00139277
0.00133896
0.000317858
0.000634716
0.000706906
0.00079386
0.000706682
0.000226009
0.000438305
0.000438726
0.000428092
0.000339835
0.000162211
0.000303074
0.000264569
0.000184178
0.000119757
0.000115063
0.000207376
0.000135674
4.48987e-05
2.2695e-05
8.00237e-05
0.000136892
5.1171e-05
1.97556e-05
1.1501e-05
5.47289e-05
8.09137e-05
2.90351e-05
1.64805e-05
1.01125e-05
3.76451e-05
4.51293e-05
2.72307e-05
1.68311e-05
8.88056e-06
2.66241e-05
4.57345e-05
3.42056e-05
1.61013e-05
7.7347e-06
2.02676e-05
8.16267e-05
3.36635e-05
1.36465e-05
7.83243e-06
5.84685e-05
5.7865e-05
3.94709e-05
2.02079e-05
9.39144e-06
0.00335107
0.00256983
0.00195345
0.00147975
0.00114595
0.000954593
0.000913179
0.00104152
0.00138069
0.00200499
0.00304545
0.00482907
0.00822624
0.0166419
0.023015
0.0195306
0.0119033
0.00745333
0.00479315
0.00316556
0.00216421
0.00157303
0.00128274
0.00125459
0.00151562
0.00218328
0.00357891
0.00662514
0.0130219
0.0197841
0.0420561
0.0263552
0.0165948
0.0105336
0.00677119
0.00443215
0.00298182
0.00210474
0.00162653
0.00147311
0.00166774
0.00237895
0.00409123
0.00728446
0.0100142
0.0378583
0.02938
0.0214329
0.0150525
0.0103484
0.00705257
0.00482037
0.00334935
0.00241475
0.00187103
0.00164798
0.00175518
0.00229631
0.00326463
0.00394557
0.0195822
0.0206329
0.0184329
0.0151179
0.0117582
0.00884239
0.00652369
0.00478698
0.00354657
0.00270345
0.0021744
0.00190412
0.00185905
0.00196561
0.00204786
0.0070018
0.00970506
0.0112009
0.0109817
0.00991007
0.00849754
0.00705309
0.00575267
0.00467734
0.00384845
0.00325615
0.00287975
0.00269639
0.00267023
0.00273923
0.0025261
0.00368853
0.00499544
0.0059218
0.00624524
0.00613708
0.00579433
0.00535231
0.0049121
0.00454619
0.0043058
0.00422833
0.00433698
0.00461699
0.00497726
0.00111791
0.00140593
0.00194536
0.00249727
0.00301724
0.00332685
0.00351452
0.0036295
0.0037204
0.00383696
0.00402656
0.00432709
0.00474839
0.00524266
0.0056993
0.000531625
0.000572969
0.000749806
0.000949511
0.0011814
0.00137514
0.00155555
0.00173451
0.00192765
0.00215515
0.00243723
0.00278676
0.00319752
0.00363609
0.00405048
0.000243574
0.000247324
0.000256612
0.000312357
0.000372034
0.000428382
0.000489266
0.000562743
0.000657855
0.000786039
0.000959439
0.00118555
0.00146356
0.00178298
0.00212449
9.46366e-05
8.67059e-05
7.68081e-05
7.90646e-05
8.56251e-05
9.22648e-05
0.000100054
0.00011188
0.000131218
0.000162986
0.00021717
0.000305118
0.000434465
0.000610475
0.000830205
2.4887e-05
2.36758e-05
2.06134e-05
1.88777e-05
1.82044e-05
1.78302e-05
1.75461e-05
1.75706e-05
1.83274e-05
2.02033e-05
2.47971e-05
3.5317e-05
5.72087e-05
9.7591e-05
0.000163727
9.6888e-06
8.7482e-06
7.50853e-06
6.67373e-06
6.18689e-06
5.84887e-06
5.54004e-06
5.25224e-06
5.02433e-06
4.90007e-06
4.99192e-06
5.52626e-06
6.91078e-06
9.87347e-06
1.57157e-05
6.7206e-06
5.35075e-06
4.30296e-06
3.8463e-06
3.6288e-06
3.45363e-06
3.28691e-06
3.13371e-06
2.99733e-06
2.88622e-06
2.81758e-06
2.81635e-06
2.91494e-06
3.15923e-06
3.62441e-06
5.22154e-06
3.81377e-06
3.18171e-06
2.91771e-06
2.80279e-06
2.72305e-06
2.65875e-06
2.60463e-06
2.55707e-06
2.51692e-06
2.48803e-06
2.47506e-06
2.48257e-06
2.51541e-06
2.57983e-06
5.09598e-06
3.6727e-06
3.10118e-06
2.84726e-06
2.73617e-06
2.68455e-06
2.65558e-06
2.63536e-06
2.61909e-06
2.60537e-06
2.59473e-06
2.5884e-06
2.58752e-06
2.5932e-06
2.6067e-06
6.37378e-06
5.01306e-06
4.41405e-06
4.29477e-06
4.16454e-06
4.12472e-06
4.12107e-06
4.13021e-06
4.14724e-06
4.16891e-06
4.1939e-06
4.22258e-06
4.25526e-06
4.29202e-06
4.33295e-06
1.00377e-05
9.46153e-06
9.34906e-06
9.23821e-06
9.51745e-06
9.77148e-06
1.00776e-05
1.04354e-05
1.08173e-05
1.12165e-05
1.16351e-05
1.20735e-05
1.25304e-05
1.3005e-05
1.34974e-05
0.0471721
0.0382416
0.0314024
0.0260142
0.0217565
0.0184134
0.0157912
0.0137451
0.0121689
0.01094
0.00958896
0.00869477
0.00811572
0.00772106
0.00743873
0.00712532
0.00668862
0.00623321
0.00652143
0.00921532
0.0107545
0.0115867
0.0118434
0.0117938
0.0115949
0.0113361
0.011071
0.0108376
0.0106682
0.0105855
0.0106087
0.0107471
0.0110173
0.0114079
0.0118904
0.0124557
0.0136768
0.0113719
0.0101823
0.00950947
0.0199664
0.0184226
0.0175965
0.0169798
0.016317
0.0157215
0.015295
0.0150507
0.0149577
0.0149804
0.0152469
0.0156356
0.0160396
0.016431
0.016673
0.016471
0.0164223
0.0174773
0.0198965
0.0206658
0.0197242
0.0185506
0.0172553
0.0159046
0.0145629
0.0132841
0.0121043
0.0110493
0.010133
0.00935554
0.00870812
0.00816253
0.00768864
0.00718313
0.00668525
0.00534237
0.0065775
0.00686236
0.00767816
0.00791078
0.00966061
0.00901696
0.00878201
0.00866716
0.00849365
0.0082934
0.00812614
0.00801324
0.00795241
0.0079511
0.00817739
0.0084112
0.0086748
0.0089991
0.00939966
0.0100689
0.0109268
0.0119633
0.0132294
0.0141325
0.0140138
0.0136909
0.0131678
0.0124944
0.011721
0.0108968
0.0100637
0.00925591
0.0084964
0.00779435
0.00714574
0.00653381
0.00592984
0.00532148
0.00471916
0.00350973
0.00403279
0.00389546
0.00377828
0.00358662
0.00390125
0.00376358
0.00378504
0.00386462
0.00391294
0.00392893
0.00393468
0.00393951
0.00394423
0.0039599
0.00410188
0.00421696
0.00433729
0.00449486
0.00473013
0.00523658
0.00595163
0.00668139
0.00729092
0.00756094
0.00752291
0.00743282
0.00725214
0.00699046
0.00665631
0.00626256
0.00582682
0.00536622
0.00489438
0.00442175
0.00395573
0.00350386
0.00307658
0.00270017
0.00239503
0.00196313
0.00233891
0.00229516
0.00216971
0.00204985
0.00203811
0.00201026
0.0020123
0.00203382
0.00205059
0.00205692
0.00205743
0.00205478
0.00204867
0.00204258
0.00209136
0.00212398
0.00215478
0.0022005
0.00228556
0.00252732
0.00291169
0.00329119
0.00351884
0.00343912
0.0032921
0.00313329
0.00295237
0.002758
0.00255552
0.00234934
0.00214461
0.00194698
0.00176201
0.00159558
0.00145454
0.00134757
0.00128362
0.00126942
0.00129552
0.00146038
0.00163331
0.00163198
0.00158288
0.00155096
0.00282481
0.00285212
0.0028135
0.00274824
0.00267377
0.00258851
0.00249278
0.00239218
0.00229152
0.00218817
0.00205542
0.00195116
0.001861
0.00178041
0.00171369
0.00171303
0.00178791
0.00186991
0.00187006
0.0017135
0.00157911
0.00145084
0.00132951
0.00121921
0.00112329
0.00104456
0.000985644
0.000949261
0.000938579
0.000957668
0.00101173
0.00110635
0.00124381
0.00141528
0.00159775
0.00194544
0.00191565
0.00191723
0.00193987
0.00197716
0.00526883
0.00537826
0.00533101
0.00521689
0.00507627
0.00490827
0.00471334
0.00450344
0.00428949
0.00406011
0.00371955
0.00345339
0.00321569
0.002983
0.00274589
0.00251239
0.00230501
0.00212366
0.00194252
0.00176001
0.00166312
0.00156675
0.0014906
0.00143458
0.00139796
0.00138081
0.0013839
0.0014086
0.0014574
0.00153428
0.00164424
0.00179085
0.00197123
0.00216748
0.00235721
0.00260663
0.0025225
0.00253868
0.00260969
0.00268102
0.00601678
0.00616815
0.00620872
0.00619994
0.00615818
0.00607665
0.00595569
0.00580598
0.00563651
0.00543101
0.00512756
0.00487766
0.00463521
0.00438126
0.00411002
0.00381294
0.00349826
0.00319377
0.00292005
0.00272951
0.00264346
0.00255314
0.00246713
0.00239108
0.00232726
0.00227556
0.00223876
0.00222079
0.00222705
0.00226384
0.00233679
0.00244719
0.00258754
0.00273584
0.0028743
0.00298185
0.00294103
0.00297333
0.00304834
0.0031141
0.00440103
0.00467875
0.00489959
0.00507868
0.00521547
0.00530477
0.005348
0.00535179
0.00532122
0.0052444
0.00512929
0.00501793
0.00488606
0.00473087
0.00455657
0.0043657
0.00414442
0.00390015
0.0036591
0.00348737
0.00338451
0.00325916
0.00313744
0.00302076
0.00291253
0.00281632
0.00273634
0.00267811
0.00264775
0.00265079
0.00269008
0.00276216
0.00285513
0.00294675
0.00302581
0.00300916
0.00302614
0.00306439
0.00311151
0.00314509
0.00246615
0.00279056
0.00309025
0.00336181
0.00359923
0.00379714
0.00395452
0.00407318
0.00415462
0.00419316
0.00423408
0.00424843
0.00422891
0.00418303
0.00412072
0.00405713
0.00397074
0.00384437
0.00368826
0.00355324
0.00345444
0.00332882
0.00319997
0.00307661
0.00296548
0.00286754
0.00278457
0.00272095
0.00268136
0.00266869
0.0026818
0.00271316
0.00275011
0.00277521
0.00278697
0.00265665
0.00272423
0.00275445
0.00275196
0.00273748
0.00108279
0.00135136
0.00162105
0.0018821
0.0021266
0.00234821
0.00254306
0.00270914
0.00284503
0.00294857
0.00307138
0.00315982
0.00321379
0.00324365
0.00326066
0.00328505
0.00329672
0.00326781
0.00319402
0.00310553
0.00303334
0.00293734
0.0028361
0.0027355
0.00264388
0.00256143
0.00248818
0.0024265
0.00237783
0.0023409
0.00231087
0.00227924
0.0022382
0.0021796
0.00211496
0.001887
0.00199002
0.00199304
0.00192667
0.00185963
0.000262055
0.000392182
0.000548106
0.000722435
0.000907111
0.00109352
0.00127363
0.00144097
0.00159072
0.00172121
0.00187488
0.00199711
0.00209051
0.00216462
0.0022297
0.00230728
0.00238035
0.00241796
0.00240596
0.00235672
0.00231451
0.00225137
0.00218054
0.00210624
0.00203028
0.00195531
0.00187748
0.00179728
0.0017133
0.00162227
0.00152037
0.00140478
0.00127777
0.00114228
0.00101765
0.000784949
0.000894352
0.000864821
0.000767434
0.000683828
2.67243e-05
4.57228e-05
7.53752e-05
0.000117838
0.00017419
0.000243702
0.000323798
0.000410739
0.000500718
0.000591454
0.000708499
0.000809636
0.00089818
0.000980305
0.00106145
0.00116446
0.00127353
0.00135255
0.0013778
0.00134259
0.00131289
0.00126264
0.00119922
0.00112383
0.00103549
0.00094094
0.000837939
0.000730321
0.000622244
0.000518083
0.00042191
0.000336761
0.000264952
0.000206439
0.000163065
0.00010964
0.000172822
0.0001579
0.000122712
0.000100394
4.44963e-06
5.83835e-06
8.07055e-06
1.15542e-05
1.68346e-05
2.44965e-05
3.49958e-05
4.85051e-05
6.48998e-05
8.4048e-05
0.000112888
0.000140811
0.000168565
0.000197755
0.000229819
0.000278552
0.000338246
0.000383865
0.000394176
0.000357985
0.000336157
0.000304655
0.000266793
0.000223867
0.00017844
0.000134885
0.000100975
7.49527e-05
5.52827e-05
4.07841e-05
3.04264e-05
2.32598e-05
1.84776e-05
1.53486e-05
1.35312e-05
1.15467e-05
2.07642e-05
1.92521e-05
1.64472e-05
1.53432e-05
2.6858e-06
2.84625e-06
3.07676e-06
3.39879e-06
3.84177e-06
4.44133e-06
5.23333e-06
6.24667e-06
7.49792e-06
9.01253e-06
1.14557e-05
1.39931e-05
1.6684e-05
1.969e-05
2.32037e-05
2.9494e-05
3.85177e-05
4.57701e-05
4.60631e-05
3.7369e-05
3.27913e-05
2.6987e-05
2.09268e-05
1.52424e-05
1.01455e-05
7.11349e-06
5.59621e-06
4.89164e-06
4.65779e-06
4.70008e-06
4.89112e-06
5.14032e-06
5.39103e-06
5.60451e-06
5.79962e-06
5.98377e-06
6.61355e-06
6.64941e-06
6.66088e-06
6.70085e-06
2.6294e-06
2.66265e-06
2.70756e-06
2.76507e-06
2.83593e-06
2.92061e-06
3.01891e-06
3.12983e-06
3.25128e-06
3.38255e-06
3.5605e-06
3.72941e-06
3.89135e-06
4.05291e-06
4.2247e-06
4.5614e-06
5.07474e-06
5.42112e-06
5.20408e-06
4.43804e-06
4.05627e-06
3.68459e-06
3.38711e-06
3.2587e-06
3.33319e-06
3.55613e-06
3.90159e-06
4.34226e-06
4.84799e-06
5.38488e-06
5.91837e-06
6.41873e-06
6.86746e-06
7.25208e-06
7.57804e-06
8.11486e-06
7.90792e-06
7.80775e-06
7.87328e-06
7.89259e-06
4.37814e-06
4.42787e-06
4.48234e-06
4.54153e-06
4.60531e-06
4.6734e-06
4.74536e-06
4.82065e-06
4.89854e-06
4.97846e-06
5.0615e-06
5.14675e-06
5.23243e-06
5.31847e-06
5.40576e-06
5.48438e-06
5.5546e-06
5.62529e-06
5.71563e-06
5.87854e-06
6.07157e-06
6.43336e-06
6.93456e-06
7.54593e-06
8.30231e-06
9.20194e-06
1.01991e-05
1.1254e-05
1.23336e-05
1.34123e-05
1.44739e-05
1.55143e-05
1.65419e-05
1.75711e-05
1.86103e-05
1.98511e-05
2.05126e-05
2.12306e-05
2.19299e-05
2.25971e-05
1.40056e-05
1.45319e-05
1.50782e-05
1.56437e-05
1.62281e-05
1.68314e-05
1.74539e-05
1.80955e-05
1.87571e-05
1.94309e-05
2.0054e-05
2.08173e-05
2.15686e-05
2.23121e-05
2.30535e-05
2.37205e-05
2.42636e-05
2.48211e-05
2.56544e-05
2.70105e-05
2.85542e-05
2.97144e-05
3.0828e-05
3.18796e-05
3.28445e-05
3.3683e-05
3.43527e-05
3.4819e-05
3.5061e-05
3.50727e-05
3.48645e-05
3.44633e-05
3.39148e-05
3.32638e-05
3.26021e-05
3.17479e-05
3.12223e-05
3.03034e-05
2.99955e-05
2.99679e-05
)
;

boundaryField
{
    inlet
    {
        type            fixedValue;
        value           uniform 0.127;
    }
    outlet
    {
        type            zeroGradient;
    }
    centerline
    {
        type            symmetry;
    }
    fixedWalls
    {
        Cmu             0.09;
        kappa           0.41;
        E               9.8;
        type            epsilonWallFunction;
        value           nonuniform List<scalar> 
156
(
0.00346376
0.00356564
0.00366031
0.00374976
0.00383478
0.00391568
0.00399257
0.00406547
0.00413428
0.00419878
0.00425855
0.00431291
0.00436075
0.00440035
0.00442875
0.00444087
0.00442425
0.00435203
0.00413182
0.0036181
0.00139844
0.00199817
0.00217605
0.00198505
0.00123534
0.00080103
0.000565386
0.00042147
0.000317858
0.000226009
0.000162211
0.000115063
8.00237e-05
5.47289e-05
3.76451e-05
2.66241e-05
2.02676e-05
5.84685e-05
5.84685e-05
5.7865e-05
3.94709e-05
2.02079e-05
9.39144e-06
1.00377e-05
9.46153e-06
9.34906e-06
9.23821e-06
9.51745e-06
9.77148e-06
1.00776e-05
1.04354e-05
1.08173e-05
1.12165e-05
1.16351e-05
1.20735e-05
1.25304e-05
1.3005e-05
1.34974e-05
1.40056e-05
1.45319e-05
1.50782e-05
1.56437e-05
1.62281e-05
1.68314e-05
1.74539e-05
1.80955e-05
1.87571e-05
1.94309e-05
2.0054e-05
2.08173e-05
2.15686e-05
2.23121e-05
2.30535e-05
2.37205e-05
2.42636e-05
2.48211e-05
2.56544e-05
2.70105e-05
2.85542e-05
2.97144e-05
3.0828e-05
3.18796e-05
3.28445e-05
3.3683e-05
3.43527e-05
3.4819e-05
3.5061e-05
3.50727e-05
3.48645e-05
3.44633e-05
3.39148e-05
3.32638e-05
3.26021e-05
3.17479e-05
3.12223e-05
3.03034e-05
2.99955e-05
2.99679e-05
0.0471721
0.0382416
0.0314024
0.0260142
0.0217565
0.0184134
0.0157912
0.0137451
0.0121689
0.01094
0.00958896
0.00869477
0.00811572
0.00772106
0.00743873
0.00712532
0.00668862
0.00623321
0.00652143
0.00921532
0.0107545
0.0115867
0.0118434
0.0117938
0.0115949
0.0113361
0.011071
0.0108376
0.0106682
0.0105855
0.0106087
0.0107471
0.0110173
0.0114079
0.0118904
0.0124557
0.0136768
0.0113719
0.0101823
0.00950947
13.6788
4.30553
1.3285
0.452859
0.180078
0.0833888
0.0443865
0.0267404
0.0179432
0.0131975
0.0104839
0.00888721
0.00797166
0.00753186
0.00757787
0.00829969
0.0103988
0.0154941
)
;
    }
    frontAndBack
    {
        type            empty;
    }
}


// ************************************************************************* //
