/*--------------------------------*- C++ -*----------------------------------*\
| =========                 |                                                 |
| \\      /  F ield         | OpenFOAM: The Open Source CFD Toolbox           |
|  \\    /   O peration     | Version:  2.4.0                                 |
|   \\  /    A nd           | Web:      www.OpenFOAM.org                      |
|    \\/     M anipulation  |                                                 |
\*---------------------------------------------------------------------------*/
FoamFile
{
    version     2.0;
    format      ascii;
    class       volScalarField;
    location    "3.61";
    object      k;
}
// * * * * * * * * * * * * * * * * * * * * * * * * * * * * * * * * * * * * * //

dimensions      [0 2 -2 0 0 0 0];

internalField   nonuniform List<scalar> 
6000
(
0.168226
0.0132679
0.000980172
0.0036204
0.00250631
0.00292865
0.00242622
0.00239825
0.00213511
0.00206289
0.00193062
0.00189493
0.00186644
0.00190742
0.0019777
0.00208823
0.00220927
0.00233925
0.00247494
0.00263695
0.00284988
0.00314314
0.00353811
0.00404656
0.00466655
0.00538459
0.00617864
0.00702275
0.00788973
0.00875219
0.00958156
0.0103467
0.011012
0.0115362
0.0118707
0.011958
0.0117403
0.0111622
0.0101824
0.00880262
0.00710166
0.00524494
0.00412498
0.00624772
0.00911026
0.0125953
0.0164711
0.0205335
0.0245061
0.0283881
0.0318716
0.0355015
0.0384458
0.0427397
0.0451928
0.0526235
0.0535848
0.0702934
0.0659992
0.104854
0.0762052
0.0101497
0.000945676
0.00240466
0.00171452
0.00192367
0.00161141
0.0015736
0.0014079
0.00135347
0.00126942
0.00124277
0.00122406
0.00124713
0.00128946
0.00135587
0.00142992
0.00151086
0.00159833
0.00170493
0.00184533
0.00203545
0.00228535
0.00259816
0.0029689
0.00338675
0.00383754
0.00430672
0.00478076
0.00524749
0.00569549
0.00611333
0.00648872
0.00680791
0.00705427
0.00720923
0.00725447
0.00717421
0.0069599
0.00662112
0.00619561
0.00572338
0.00537027
0.00610611
0.00711716
0.0083896
0.00984156
0.0113982
0.0129587
0.0145233
0.0159823
0.0175346
0.0188874
0.0207892
0.0220962
0.0253494
0.0263174
0.0334193
0.0327649
0.0487384
0.0412218
0.00802925
0.000974202
0.00168778
0.00122373
0.00131409
0.00110929
0.00107024
0.000962139
0.000921824
0.00086842
0.000851301
0.000842744
0.000861633
0.000895336
0.00094614
0.00100522
0.00107295
0.00115098
0.0012485
0.00137594
0.00154355
0.00175688
0.00201598
0.00231537
0.00264603
0.00299759
0.00336036
0.00372629
0.00408925
0.00444465
0.0047891
0.0051201
0.0054358
0.00573346
0.00600968
0.00626335
0.00649605
0.00671321
0.00692593
0.00714531
0.00732363
0.00727276
0.00738931
0.00750569
0.00769479
0.00797132
0.00833072
0.00874689
0.0092213
0.00971366
0.0102912
0.0108503
0.0116606
0.0123203
0.0137721
0.014466
0.0176266
0.0179498
0.0248277
0.0260623
0.00677382
0.00107137
0.00126671
0.000916546
0.000935194
0.000791517
0.000753835
0.000680746
0.000651418
0.000618508
0.000610521
0.000611901
0.000633581
0.000668758
0.000718944
0.000780023
0.000853538
0.000942679
0.00105542
0.00120077
0.00138696
0.00161816
0.00189359
0.00220794
0.0025531
0.00292013
0.00330098
0.00368944
0.00408143
0.00447489
0.00486962
0.00526712
0.00567043
0.00607952
0.00649508
0.00692148
0.00736313
0.00782466
0.00830839
0.00880228
0.00921012
0.0092722
0.00919839
0.00896099
0.00865258
0.00833647
0.0080547
0.00782885
0.00767624
0.00759221
0.00759998
0.00766571
0.00787941
0.00810836
0.00868092
0.00906629
0.0104599
0.0109048
0.0139256
0.0187963
0.00609197
0.00123268
0.00103255
0.000727077
0.000696928
0.000587065
0.000550761
0.000499347
0.000478568
0.000460168
0.000460862
0.000472084
0.000500585
0.000543214
0.000601613
0.000674759
0.00076529
0.000877586
0.00101947
0.00119988
0.00142692
0.00170484
0.00203302
0.00240627
0.00281658
0.00325493
0.00371306
0.00418453
0.00466517
0.00515304
0.0056483
0.00615293
0.00667018
0.00719436
0.00772881
0.00827628
0.00883808
0.00941381
0.00999843
0.0105695
0.0110177
0.0111269
0.0110255
0.010694
0.0102076
0.00963393
0.00902983
0.00844127
0.00790316
0.00743651
0.00705879
0.00676733
0.0065905
0.00649266
0.00656707
0.00666551
0.00718324
0.007479
0.00877126
0.0150489
0.0057662
0.00144864
0.000925243
0.000617407
0.000548308
0.000455177
0.000419113
0.000381145
0.000367059
0.000359589
0.000368684
0.000389905
0.000427894
0.000481948
0.00055426
0.000645915
0.000760419
0.000902972
0.00108164
0.00130595
0.00158477
0.00192312
0.00232074
0.00277235
0.00326924
0.0038013
0.00435892
0.00493423
0.0055217
0.00611809
0.0067223
0.00733492
0.00795477
0.00857287
0.00919281
0.00981443
0.010436
0.0110538
0.0116602
0.0122306
0.012658
0.0127868
0.0126878
0.0123403
0.0118029
0.0111354
0.0103925
0.00962453
0.00887244
0.00817003
0.00753842
0.00699124
0.00654045
0.00618774
0.00594176
0.00579159
0.00582433
0.0059017
0.00637329
0.0130162
0.00565587
0.001708
0.000910196
0.000565636
0.000459733
0.000371787
0.000334271
0.000304409
0.000295582
0.00029686
0.000314251
0.00034581
0.000395219
0.000463502
0.000553525
0.000667756
0.000810219
0.000986529
0.00120509
0.00147635
0.0018104
0.00221334
0.00268534
0.00322067
0.00380945
0.00443989
0.00510035
0.00578089
0.00647397
0.00717434
0.00787893
0.00858662
0.00928877
0.00997862
0.0106578
0.0113239
0.0119734
0.0126013
0.0131999
0.013743
0.0141339
0.0142624
0.0141563
0.0137994
0.0132402
0.0125328
0.0117284
0.0108762
0.0100167
0.00918665
0.00840788
0.00770044
0.00706994
0.00653459
0.00607648
0.00572883
0.00546955
0.00533552
0.00538934
0.0118779
0.0056721
0.0019986
0.000965841
0.000559609
0.000413833
0.000322409
0.000281419
0.000255946
0.000251206
0.000259852
0.000285532
0.000327834
0.000390085
0.000474541
0.00058466
0.000723682
0.00089576
0.0011066
0.00136505
0.00168275
0.00207137
0.0025383
0.00308405
0.00370231
0.00438168
0.00510826
0.00586804
0.00664864
0.00744017
0.00823517
0.00902847
0.00981679
0.0105849
0.0113301
0.0120514
0.0127449
0.013406
0.0140294
0.0146082
0.0151128
0.0154626
0.0155734
0.0154447
0.0150675
0.0144846
0.0137468
0.0129032
0.0120025
0.0110842
0.0101856
0.00932751
0.00853126
0.00779678
0.0071478
0.00655915
0.00607362
0.00563699
0.00533167
0.00515632
0.0112303
0.00575864
0.00230778
0.0010782
0.000591565
0.000400539
0.000298283
0.000251496
0.000227581
0.000225883
0.00024094
0.000274914
0.000328315
0.000404387
0.000506234
0.000637685
0.000802248
0.0010039
0.00124835
0.00154508
0.00190728
0.00234841
0.0028772
0.00349447
0.00419307
0.00495986
0.00577855
0.00663246
0.00750661
0.00838871
0.00926909
0.0101406
0.0109966
0.0118195
0.0126083
0.01336
0.0140696
0.0147323
0.0153425
0.0158943
0.0163532
0.0166581
0.0167364
0.0165715
0.0161623
0.0155481
0.0147777
0.0138988
0.01296
0.0120007
0.0110586
0.010154
0.00930882
0.00851865
0.00780722
0.00714734
0.00657942
0.0060427
0.00561907
0.00531127
0.010862
0.00588006
0.00262306
0.00123623
0.000656714
0.000414382
0.000294219
0.000238963
0.000214194
0.000214504
0.000235204
0.00027741
0.00034213
0.000432605
0.000552439
0.00070558
0.000895435
0.00112569
0.00140214
0.00173525
0.00213991
0.00263148
0.00321995
0.0039063
0.0046824
0.00553308
0.00643946
0.0073821
0.00834338
0.0093087
0.0102663
0.0112074
0.0121205
0.0129893
0.0138124
0.0145855
0.0153027
0.0159591
0.0165493
0.0170663
0.0174748
0.0177296
0.0177631
0.0175517
0.0171013
0.0164494
0.0156429
0.0147287
0.0137551
0.0127614
0.0117857
0.0108487
0.00997268
0.00915159
0.00840741
0.00771273
0.00710301
0.00651764
0.00602571
0.00564058
0.010657
0.00601452
0.00293298
0.00142978
0.000751677
0.00045266
0.000307375
0.000240529
0.000212607
0.000213807
0.00023941
0.000289665
0.000365755
0.000470872
0.000608824
0.000783448
0.000997847
0.00125545
0.00156236
0.00193023
0.00237573
0.00291602
0.0035622
0.00431528
0.00516592
0.0060968
0.00708634
0.00811234
0.00915462
0.0101964
0.0112239
0.012227
0.0131884
0.0140954
0.014945
0.0157318
0.0164493
0.0170925
0.0176563
0.01813
0.0184845
0.0186828
0.0186615
0.018396
0.017898
0.0172039
0.0163592
0.0154099
0.0144037
0.0133796
0.0123758
0.0114131
0.0105147
0.00967414
0.00891181
0.00820128
0.00757385
0.00697056
0.00644793
0.00601876
0.0105488
0.00614916
0.00322798
0.00164874
0.000874052
0.000513479
0.000336536
0.000254408
0.000220933
0.000221746
0.000251436
0.000309408
0.000396744
0.000516483
0.000672393
0.000868038
0.00110614
0.00138999
0.00172618
0.00212763
0.00261273
0.00320025
0.00390226
0.00471961
0.00564165
0.00664879
0.0077168
0.00882077
0.00993811
0.0110499
0.0121406
0.0131983
0.0142009
0.0151391
0.0160082
0.0168017
0.0175127
0.0181361
0.0186662
0.0190897
0.0193858
0.0195214
0.0194373
0.0191118
0.0185616
0.0178226
0.0169391
0.0159561
0.0149203
0.0138699
0.0128428
0.0118596
0.0109438
0.0100899
0.00931657
0.00859907
0.00796622
0.00736102
0.00683131
0.00637815
0.0104985
0.00627693
0.00350094
0.00188291
0.00102103
0.00059543
0.000381723
0.000279886
0.000238196
0.000237116
0.000269937
0.000335129
0.000433434
0.000567604
0.000741184
0.000957355
0.00121846
0.00152777
0.00189245
0.00232665
0.0028503
0.00348362
0.00423947
0.00511838
0.00610835
0.0071875
0.00832909
0.00950557
0.0106921
0.0118678
0.0130153
0.0141201
0.0151578
0.0161207
0.0170028
0.0177966
0.0184945
0.0190919
0.0195798
0.0199481
0.0201808
0.0202475
0.0200941
0.0197041
0.0190986
0.0183133
0.0173916
0.0163772
0.0153156
0.0142438
0.0131987
0.0122003
0.0112721
0.0104094
0.00962943
0.00890944
0.0082771
0.00767734
0.00715348
0.00668814
0.0104827
0.00639448
0.00374734
0.0021224
0.00118889
0.000697643
0.000443038
0.000317057
0.000264093
0.000259336
0.000294137
0.000365883
0.000474747
0.000623059
0.000813996
0.00105029
0.00133393
0.00166823
0.0020609
0.00252721
0.00308844
0.00376603
0.00457348
0.0055109
0.00656494
0.00771154
0.00892155
0.010165
0.0114149
0.0126485
0.0138467
0.0149915
0.0160584
0.0170399
0.0179287
0.0187166
0.0193953
0.0199595
0.020398
0.0207062
0.0208706
0.0208626
0.0206347
0.0201767
0.0195135
0.0186813
0.0177226
0.01668
0.0155973
0.0145098
0.0134526
0.012445
0.0115098
0.0106429
0.00986033
0.009141
0.0085125
0.00792138
0.00740979
0.00693928
0.010487
0.00650071
0.00396513
0.00235818
0.0013728
0.000819159
0.000520388
0.000366677
0.000298862
0.000288302
0.000323696
0.000401154
0.000520048
0.000682152
0.000890158
0.00114632
0.00145224
0.00181132
0.00223169
0.00272955
0.00332734
0.00404748
0.00490397
0.00589647
0.00701037
0.00821951
0.00949259
0.0107973
0.0121047
0.0133903
0.0146333
0.0158114
0.0169017
0.0178958
0.0187853
0.0195614
0.0202147
0.0207374
0.0211215
0.0213649
0.0214557
0.0213678
0.021061
0.0205321
0.0198096
0.0189303
0.0179366
0.0168694
0.0157707
0.0146737
0.0136112
0.012601
0.0116648
0.0107988
0.0100181
0.00930259
0.00868058
0.00809979
0.0076037
0.00713252
0.0105025
0.00659579
0.00415426
0.00258261
0.00156694
0.000958308
0.000613728
0.000429582
0.000343188
0.000324306
0.000358627
0.000440752
0.000569022
0.000744519
0.00096934
0.00124522
0.00157338
0.00195721
0.00240512
0.00293401
0.00356719
0.00432792
0.00523061
0.0062744
0.0074436
0.00871009
0.0100407
0.0114008
0.0127598
0.0140914
0.0153735
0.0165783
0.0176863
0.0186874
0.0195718
0.0203301
0.0209508
0.0214257
0.0217507
0.0219242
0.0219365
0.0217642
0.0213749
0.0207726
0.0199894
0.0190634
0.0180367
0.016949
0.0158399
0.0147398
0.0136791
0.0126734
0.011743
0.0108835
0.0101095
0.00940163
0.00878899
0.00822003
0.00774135
0.0072729
0.0105238
0.00668052
0.00431624
0.00278988
0.00176488
0.00111245
0.000722987
0.000506163
0.000398172
0.000367986
0.000399233
0.000484754
0.000621598
0.000810019
0.00105141
0.00134696
0.00169743
0.00210615
0.00258151
0.00314087
0.00380816
0.0046073
0.00555304
0.00664402
0.00786365
0.00918207
0.0105644
0.0119741
0.0133788
0.0147505
0.0160649
0.017291
0.0184112
0.0194134
0.0202871
0.0210213
0.021602
0.0220246
0.0222857
0.0223846
0.0223136
0.0220528
0.0215779
0.0209
0.0200551
0.019083
0.0180257
0.0169217
0.0158078
0.0147116
0.0136601
0.0126663
0.0117486
0.010902
0.01014
0.00944395
0.00884396
0.00828872
0.00782905
0.00736633
0.0105474
0.00675593
0.00445354
0.00297609
0.0019601
0.00127788
0.000847456
0.000596728
0.000464914
0.000420296
0.000446088
0.000533456
0.000677889
0.000878669
0.00113637
0.00145158
0.00182453
0.00225834
0.00276112
0.00335036
0.00405037
0.00488553
0.00587092
0.00700473
0.0082697
0.0096344
0.0110627
0.0125159
0.0139603
0.0153662
0.0167064
0.0179484
0.0190752
0.0200731
0.0209303
0.0216324
0.0221686
0.0225343
0.0227268
0.0227465
0.0225877
0.0222347
0.0216715
0.0209163
0.020009
0.0189916
0.0179062
0.0167902
0.0156773
0.0145919
0.013557
0.0125828
0.0116851
0.0108578
0.0101136
0.00943407
0.00885044
0.00831129
0.00787235
0.0074183
0.0105712
0.00682311
0.0045692
0.00313927
0.00214653
0.00144996
0.000985558
0.000701464
0.000544102
0.000482486
0.00050002
0.000587362
0.000738162
0.000950598
0.00122427
0.00155913
0.00195474
0.00241391
0.00294412
0.00356264
0.00429388
0.00516253
0.00618399
0.00735607
0.00866111
0.0100663
0.0115345
0.0130252
0.0145033
0.0159376
0.017297
0.0185496
0.0196776
0.0206657
0.0214987
0.0221637
0.0226508
0.022955
0.0230744
0.0230104
0.0227598
0.0223114
0.0216576
0.0208236
0.0198534
0.0187916
0.0176809
0.0165571
0.0154511
0.0143834
0.0133726
0.0124256
0.0115552
0.0107541
0.0100335
0.0093755
0.00881228
0.00829209
0.00787581
0.00743351
0.0105941
0.00688305
0.00466639
0.00327912
0.00231904
0.00162342
0.00113472
0.00081997
0.000636295
0.000555747
0.000562105
0.000647173
0.000802837
0.00102603
0.00131521
0.00166965
0.00208809
0.00257291
0.00313057
0.00377778
0.00453871
0.00543822
0.00649207
0.00769771
0.00903746
0.0104773
0.0119794
0.0135013
0.0150072
0.016464
0.0178363
0.0190939
0.0202177
0.0211883
0.0219918
0.0226154
0.0230488
0.0232872
0.0233291
0.0231772
0.022831
0.0222844
0.0215382
0.0206243
0.0195911
0.0184862
0.0173529
0.0162258
0.0151324
0.014089
0.0131097
0.0121975
0.0113617
0.0105933
0.00990242
0.00927114
0.00873259
0.00823461
0.00784316
0.0074158
0.0106153
0.00693662
0.00474817
0.00339664
0.00247385
0.00179273
0.00129136
0.000951049
0.000741725
0.000640996
0.000633673
0.000713795
0.000872481
0.0011053
0.00140935
0.00178318
0.00222452
0.00273525
0.0033204
0.00399573
0.00478485
0.00571258
0.00679509
0.00802954
0.00939855
0.010867
0.012397
0.0139439
0.0154716
0.0169446
0.0183238
0.0195812
0.0206927
0.0216407
0.0224102
0.0229879
0.0233633
0.0235315
0.0234918
0.023248
0.0228029
0.0221557
0.0213156
0.020321
0.0192253
0.0180788
0.0169259
0.0157998
0.0147246
0.0137121
0.0127714
0.0119012
0.0111071
0.0103781
0.00972276
0.00912353
0.008614
0.00814172
0.00777748
0.00736836
0.0106345
0.00698455
0.00481736
0.0034938
0.0026086
0.00195264
0.00145106
0.00109257
0.000860021
0.000738771
0.000716184
0.000788333
0.00094782
0.00118883
0.00150687
0.00189973
0.00236392
0.00290075
0.00351345
0.00421639
0.00503224
0.00598558
0.00709306
0.00835157
0.0097444
0.0112355
0.0127872
0.014353
0.0158963
0.0173789
0.0187592
0.0200083
0.0211027
0.0220234
0.0227544
0.0232818
0.023595
0.0236889
0.0235635
0.0232242
0.0226772
0.0219275
0.0209924
0.0199172
0.0187597
0.0175737
0.0164045
0.0152838
0.0142322
0.0132569
0.0123613
0.0115401
0.0107944
0.0101111
0.00949701
0.00893504
0.00845888
0.00801595
0.00768139
0.00729387
0.0106516
0.00702746
0.00487636
0.00357312
0.00272242
0.00209862
0.00160885
0.00124142
0.000990028
0.000849152
0.000810459
0.000872525
0.00102975
0.00127715
0.00160802
0.00201934
0.0025061
0.00306911
0.00370937
0.00443949
0.00528077
0.00625723
0.0073861
0.008664
0.0100753
0.011583
0.0131504
0.0147287
0.0162817
0.0177656
0.0191401
0.0203758
0.0214482
0.022337
0.0230251
0.0234979
0.0237446
0.0237602
0.0235454
0.0231073
0.0224559
0.0216022
0.0205719
0.0194165
0.0181988
0.0169759
0.015794
0.0146833
0.0136605
0.012728
0.0118838
0.0111178
0.0104268
0.00979502
0.00922774
0.00870805
0.0082695
0.00785958
0.00755724
0.00719468
0.0106666
0.00706588
0.00492722
0.00363737
0.00281574
0.0022272
0.0017596
0.00139359
0.00112967
0.000971572
0.000916824
0.000967542
0.00112004
0.00137092
0.00171313
0.00214202
0.00265083
0.00323992
0.00390771
0.00466465
0.00553019
0.0065275
0.00767437
0.0089671
0.0103915
0.01191
0.013487
0.015071
0.0166251
0.0181038
0.0194671
0.0206844
0.02173
0.0225823
0.0232231
0.023637
0.0238132
0.0237465
0.0234388
0.0228991
0.0221412
0.0211828
0.0200574
0.0188233
0.0175479
0.0162915
0.0151009
0.0140048
0.0130157
0.0121314
0.0113441
0.0106389
0.0100082
0.00943316
0.00891781
0.00844512
0.00804819
0.00767486
0.00740726
0.00707295
0.0106796
0.00710024
0.00497157
0.0036893
0.00288999
0.00233623
0.00189851
0.00154438
0.00127588
0.00110465
0.00103505
0.00107378
0.00122001
0.001472
0.00182258
0.00226782
0.00279783
0.00341265
0.00410783
0.00489128
0.00578014
0.00679627
0.00795801
0.00926126
0.0106937
0.0122171
0.0137949
0.0153779
0.0169267
0.0183942
0.019741
0.020935
0.0219489
0.0227601
0.0233491
0.0237001
0.0238017
0.0236492
0.0232453
0.0226014
0.0217355
0.0206723
0.0194532
0.0181426
0.016813
0.0155274
0.0143329
0.0132561
0.0123056
0.0114741
0.0107484
0.0101088
0.00954305
0.00902924
0.00857046
0.00814904
0.00779744
0.00746408
0.00723363
0.00693074
0.0106909
0.00713094
0.00501069
0.00373147
0.00294737
0.0024249
0.00202153
0.00168877
0.0014247
0.00124607
0.0011642
0.00119114
0.00132999
0.00158132
0.00193851
0.00239702
0.00294679
0.00358667
0.00430891
0.0051186
0.00603005
0.00706329
0.0082371
0.00954685
0.0109803
0.0125017
0.0140743
0.01565
0.0171869
0.0186377
0.0199627
0.0211282
0.0221058
0.0228712
0.0234041
0.023688
0.0237112
0.0234693
0.0229664
0.0222162
0.0212417
0.0200744
0.0187637
0.0173804
0.0160014
0.0146919
0.0134988
0.0124463
0.0115389
0.0107643
0.010104
0.00953378
0.0090367
0.00858779
0.00818943
0.00782298
0.00751996
0.00722967
0.00703864
0.0067701
0.0107005
0.00715833
0.00504557
0.00376612
0.00299044
0.00249365
0.0021257
0.00182183
0.00157143
0.00139252
0.00130242
0.00131891
0.00144985
0.00169896
0.00206088
0.00253093
0.00309886
0.0037616
0.00450996
0.00534558
0.0062791
0.00732811
0.00850986
0.00982122
0.0112504
0.0127641
0.0143255
0.0158877
0.0174065
0.0188351
0.0201329
0.0212649
0.0222013
0.0229164
0.0233889
0.0236016
0.0235426
0.0232081
0.0226036
0.0217459
0.0206627
0.019393
0.0179942
0.0165434
0.015121
0.0137943
0.012609
0.0115862
0.0107261
0.0100117
0.00941949
0.0089211
0.00849528
0.00811411
0.00777902
0.00747049
0.0072188
0.00697428
0.00682469
0.00659314
0.0107087
0.0071827
0.00507695
0.00379516
0.00302194
0.00254398
0.00220935
0.00193918
0.00171099
0.00153982
0.00144692
0.00145553
0.00157888
0.0018246
0.00218943
0.00266903
0.00325322
0.00393721
0.00471042
0.0055709
0.00652528
0.0075881
0.00877486
0.0100838
0.0115039
0.0130044
0.0145488
0.0160915
0.0175862
0.018987
0.0202524
0.0213459
0.0222362
0.0228965
0.0233042
0.0234416
0.0232969
0.0228668
0.0221587
0.0211925
0.0200016
0.0186326
0.0171508
0.0156391
0.0141814
0.0128454
0.011675
0.0106877
0.00987882
0.00922719
0.00870465
0.00827927
0.00792589
0.00761407
0.00734412
0.00709564
0.00689735
0.00670081
0.00659438
0.00640263
0.0107156
0.00720436
0.00510537
0.00382008
0.00304451
0.00257815
0.00227218
0.0020374
0.00183832
0.00168306
0.00159391
0.00159852
0.00171563
0.00195737
0.00232348
0.00281058
0.00340881
0.00411207
0.00490844
0.00579249
0.0067665
0.00784148
0.00903077
0.0103337
0.0117404
0.0132224
0.0147444
0.0162614
0.0177265
0.0190941
0.0203218
0.0213716
0.022211
0.0228118
0.0231506
0.0232089
0.022975
0.0224467
0.0216333
0.0205588
0.0192623
0.0177983
0.0162402
0.0146763
0.013193
0.0118574
0.0107101
0.00976426
0.00901038
0.00842309
0.00797052
0.00761783
0.00733658
0.00709436
0.0068903
0.00670301
0.00655944
0.0064125
0.00635056
0.00620105
0.0107215
0.00722358
0.00513125
0.00384205
0.00306052
0.00259886
0.0023151
0.00211432
0.00194882
0.00181696
0.00173877
0.00174441
0.00185773
0.0020957
0.00246184
0.00295439
0.00356431
0.00428449
0.00510195
0.00600795
0.00700034
0.00808604
0.00927585
0.0105698
0.0119589
0.0134178
0.0149122
0.0163976
0.0178276
0.0191567
0.0203414
0.0213425
0.0221262
0.0226629
0.0229284
0.0229037
0.0225776
0.0219488
0.0210293
0.0198474
0.0184487
0.0168959
0.0152703
0.013665
0.0121678
0.0108437
0.00972888
0.00883084
0.00813524
0.007613
0.00722932
0.00694741
0.00673632
0.00656253
0.00642379
0.00629773
0.00620933
0.00611294
0.00609635
0.0059911
0.0107263
0.00724061
0.00515489
0.00386193
0.00307202
0.00260898
0.00234007
0.00216916
0.00203886
0.00193634
0.00187622
0.00188878
0.00200185
0.00223717
0.00260264
0.00309882
0.00371795
0.00445245
0.00528852
0.00621452
0.00722391
0.0083191
0.00950782
0.0107901
0.0121585
0.0135899
0.0150515
0.0164999
0.0178896
0.0191748
0.0203112
0.0212586
0.0219816
0.0224498
0.0226378
0.0225266
0.0221052
0.0213742
0.0203486
0.0190615
0.0175655
0.0159321
0.0142498
0.0126163
0.011119
0.00981922
0.00874694
0.00790335
0.00726892
0.00681144
0.00649421
0.00627955
0.00613494
0.00602685
0.0059515
0.0058855
0.00585175
0.00580607
0.00583518
0.00577575
0.0107304
0.00725568
0.00517651
0.00388031
0.00308069
0.00261131
0.00234975
0.00220255
0.00210604
0.00203653
0.00200078
0.00202648
0.00214373
0.00237846
0.00274322
0.00324154
0.00386749
0.00461349
0.00546539
0.00640907
0.00743384
0.00853736
0.00972377
0.0109925
0.0123371
0.0137371
0.0151611
0.0165677
0.017912
0.0191481
0.0202311
0.0211196
0.0217772
0.0221722
0.0222788
0.0220775
0.0215585
0.0207242
0.0195934
0.0182046
0.0166182
0.0149143
0.013189
0.0115428
0.0100612
0.00879986
0.00778096
0.00699841
0.00642752
0.00603352
0.00577897
0.00562644
0.00554294
0.00549631
0.00548094
0.00547254
0.00549186
0.00549623
0.00557078
0.0055582
0.0107337
0.00726902
0.00519631
0.00389759
0.0030878
0.0026084
0.0023472
0.00221628
0.00214946
0.00211388
0.00210718
0.00215191
0.00227827
0.00251531
0.00288007
0.00337952
0.00401007
0.00476471
0.00562935
0.00658802
0.00762627
0.00873696
0.00992011
0.0111738
0.0124922
0.0138574
0.0152396
0.0165998
0.0178938
0.0190757
0.0201001
0.0209248
0.0215122
0.0218297
0.0218509
0.0215566
0.020938
0.0200001
0.018766
0.0172808
0.015613
0.0138515
0.0120993
0.0104582
0.00901007
0.00780231
0.00684786
0.00613267
0.00562701
0.0052943
0.00509743
0.00500054
0.0049712
0.00498034
0.00502008
0.00506551
0.00513526
0.00518813
0.00530722
0.00534195
0.0107365
0.00728082
0.00521444
0.00391401
0.00309428
0.00260242
0.0023356
0.00221309
0.00216971
0.00216611
0.00219088
0.00225947
0.00239989
0.0026427
0.00300886
0.00350895
0.00414217
0.0049026
0.00577672
0.00674734
0.00779682
0.00891336
0.0100925
0.0113301
0.0126205
0.0139478
0.0152847
0.0165943
0.0178333
0.0189562
0.0199171
0.0206731
0.0211856
0.0214214
0.0213535
0.0209635
0.0202441
0.0192034
0.0178696
0.0162951
0.0145573
0.012754
0.0109936
0.00937787
0.00798202
0.00684339
0.00596417
0.00532197
0.00488242
0.00460793
0.00446286
0.00441401
0.0044306
0.00448861
0.00457724
0.00467146
0.00478789
0.00488681
0.00504884
0.00513075
0.0107388
0.00729128
0.00523104
0.0039297
0.00310075
0.00259512
0.00231796
0.00219632
0.00216873
0.00219254
0.00224853
0.00234407
0.00250283
0.00275504
0.00312449
0.00362526
0.00425958
0.0050231
0.00590332
0.00688252
0.0079406
0.00906142
0.0102358
0.0114565
0.0127176
0.0140048
0.0152934
0.0165485
0.0177284
0.0187875
0.0196802
0.0203628
0.020796
0.020946
0.020786
0.0202981
0.0194774
0.0183359
0.0169078
0.0152536
0.0134599
0.0116333
0.00988623
0.00831774
0.00699374
0.00593932
0.00514503
0.00458028
0.00420676
0.00398676
0.00388702
0.00387803
0.00393148
0.00403065
0.00416075
0.00429757
0.00445592
0.00459759
0.00480029
0.00492858
0.0107407
0.00730054
0.00524623
0.00394475
0.00310759
0.00258783
0.00229693
0.00216951
0.00214955
0.00219412
0.00227834
0.00240162
0.0025817
0.00284656
0.00322143
0.00372328
0.00435746
0.00512155
0.00600447
0.00698865
0.00805226
0.00917541
0.0103441
0.0115474
0.0127782
0.0140237
0.0152616
0.0164592
0.0175758
0.018567
0.0193869
0.0199917
0.0203415
0.0204022
0.0201472
0.0195602
0.018639
0.0174003
0.0158853
0.0141634
0.0123312
0.0105028
0.00879288
0.00729442
0.00606133
0.00510469
0.00440316
0.00391868
0.00361004
0.00344033
0.0033794
0.00340208
0.00348463
0.00361541
0.00377865
0.00395101
0.00414566
0.00432597
0.0045664
0.00473964
0.0107422
0.00730878
0.00526014
0.00395916
0.00311497
0.00258146
0.00227474
0.00213613
0.00211589
0.00217325
0.00228028
0.00242951
0.00263202
0.00291183
0.00329397
0.00379747
0.00443052
0.00519283
0.00607507
0.00706038
0.00812607
0.00924914
0.0104111
0.0115963
0.0127963
0.0139992
0.0151846
0.0163218
0.0173719
0.0182912
0.0190343
0.0195571
0.0198198
0.019788
0.0194362
0.0187498
0.0177302
0.0163998
0.0148079
0.0130336
0.0111834
0.00937762
0.00773001
0.00632424
0.00519937
0.00435144
0.00374784
0.00334444
0.00309847
0.00297465
0.0029464
0.00299323
0.00309733
0.00325053
0.0034383
0.00363862
0.00386333
0.00407752
0.00435215
0.00456826
0.0107434
0.00731611
0.00527288
0.00397294
0.00312294
0.0025766
0.00225312
0.00209933
0.00207177
0.0021335
0.00225606
0.00242693
0.00265068
0.00294623
0.0033368
0.0038423
0.00447327
0.00523155
0.00610973
0.00709216
0.00815603
0.00927607
0.0104296
0.0115961
0.0127651
0.0139249
0.0150566
0.0161313
0.0171121
0.0179561
0.0186187
0.0190561
0.0192284
0.0191019
0.0186522
0.0178674
0.0167533
0.015339
0.0136831
0.011875
0.0100305
0.00827395
0.0067144
0.00542237
0.00441988
0.00368795
0.00318426
0.00286059
0.0026741
0.00259187
0.00259102
0.00265569
0.00277453
0.00294197
0.00314601
0.00336665
0.00361484
0.00385771
0.00416252
0.00441886
0.0107444
0.00732266
0.00528455
0.0039861
0.00313147
0.00257355
0.00223331
0.00206178
0.00202115
0.00207918
0.00220892
0.002395
0.00263642
0.00294653
0.00334546
0.00385272
0.00448043
0.00523234
0.00610302
0.00707837
0.0081361
0.00924958
0.0103926
0.0115394
0.0126772
0.0137938
0.014871
0.0158818
0.0167909
0.017557
0.0181361
0.0184851
0.0185646
0.018342
0.0177946
0.0169141
0.0157115
0.0142241
0.0125203
0.0107006
0.00888842
0.00720904
0.00576223
0.00460172
0.00373136
0.0031184
0.0027133
0.00246601
0.00233508
0.00229048
0.00231289
0.0023907
0.00251888
0.00269379
0.00290674
0.00314049
0.00340563
0.00367176
0.00400241
0.00429577
0.0107452
0.00732854
0.00529527
0.00399861
0.00314044
0.00257237
0.0022161
0.00202556
0.00196764
0.00201488
0.00214327
0.00233663
0.00258997
0.00291134
0.00331692
0.0038247
0.0044474
0.00519032
0.00604985
0.00701364
0.00806049
0.0091632
0.0102927
0.0114184
0.0125249
0.0135982
0.0146207
0.0155667
0.0164026
0.0170886
0.0175821
0.0178407
0.017826
0.0175071
0.0168638
0.015892
0.0146097
0.0130631
0.0113314
0.00952564
0.00777472
0.00620023
0.00488794
0.00387191
0.00313817
0.00264277
0.00233197
0.00215615
0.00207646
0.00206606
0.00210884
0.00219692
0.00233071
0.00250807
0.00272392
0.00296443
0.00324041
0.00352444
0.00387643
0.00420318
0.0107458
0.00733383
0.00530511
0.00401049
0.00314975
0.00257301
0.00220194
0.00199219
0.00191429
0.00194509
0.00206417
0.00225626
0.00251411
0.00284138
0.00325008
0.00375574
0.00437082
0.00510153
0.00594588
0.00689329
0.00792402
0.00901103
0.0101233
0.0112259
0.0123004
0.0133306
0.0142983
0.0151792
0.0159411
0.0165458
0.0169522
0.0171194
0.0170104
0.0165964
0.0158609
0.0148052
0.0134549
0.0118665
0.0101308
0.00836752
0.00670775
0.00526387
0.0041031
0.00323854
0.00264048
0.00225735
0.00203432
0.00192416
0.00189139
0.00191239
0.00197384
0.00207101
0.00220844
0.00238505
0.00259941
0.00284152
0.00312298
0.00341991
0.0037888
0.00414497
0.0107463
0.00733861
0.00531418
0.00402175
0.00315925
0.0025753
0.00219093
0.00196266
0.00186348
0.0018738
0.00197687
0.00215936
0.00241341
0.00273958
0.00314605
0.00364542
0.00424908
0.00496357
0.00578811
0.00671379
0.00772258
0.00878824
0.00987849
0.0109554
0.0119965
0.0129833
0.0138966
0.0147125
0.0154002
0.0159234
0.0162425
0.0163184
0.0161163
0.0156105
0.0147889
0.0136593
0.0122564
0.0106479
0.00893535
0.0072454
0.00570578
0.004414
0.00341535
0.00270285
0.00223469
0.00195567
0.00181262
0.00176206
0.00177225
0.00182258
0.00190201
0.00200854
0.00214906
0.00232344
0.00253359
0.00277355
0.00305615
0.00336154
0.00374314
0.00412457
0.0107467
0.00734296
0.00532256
0.0040324
0.00316884
0.00257901
0.00218302
0.00193748
0.00181692
0.00180437
0.00188629
0.00205185
0.00229376
0.00261085
0.00300827
0.00349569
0.00408287
0.00477609
0.00557542
0.00647339
0.00745375
0.00849155
0.00955429
0.0106014
0.0116071
0.0125499
0.013409
0.0141604
0.0147746
0.0152168
0.0154495
0.0154358
0.0151439
0.0145517
0.0136529
0.012463
0.0110269
0.00942369
0.00776479
0.00617929
0.0047856
0.00366106
0.00282788
0.00226207
0.00191438
0.00172968
0.00165854
0.00166188
0.00171167
0.00178992
0.00188742
0.00200473
0.00214876
0.00232083
0.00252558
0.00276106
0.00304161
0.00335177
0.00374238
0.00414482
0.010747
0.00734694
0.00533032
0.00404247
0.00317841
0.00258389
0.00217795
0.00191681
0.00177567
0.00173931
0.00179674
0.00193955
0.00216176
0.00246167
0.00284235
0.00331094
0.00387538
0.00454129
0.00530914
0.00617267
0.00711738
0.00811995
0.0091486
0.010161
0.0111282
0.0120256
0.0128305
0.0135182
0.0140601
0.014423
0.0145715
0.0144717
0.0140952
0.0134249
0.012461
0.0112282
0.00978235
0.00821366
0.00664042
0.00518863
0.00396091
0.00301094
0.00233944
0.00191022
0.00167139
0.00157085
0.00156405
0.00161639
0.00170317
0.00180854
0.00192471
0.00205457
0.00220335
0.00237406
0.00257349
0.00280344
0.00307994
0.00339206
0.00378857
0.00420781
0.0107473
0.00735061
0.00533754
0.00405199
0.00318786
0.00258971
0.00217543
0.00190051
0.00174025
0.00168037
0.00171165
0.00182769
0.00202409
0.0022994
0.00265558
0.00309786
0.00363247
0.00426414
0.00499344
0.00581508
0.0067162
0.00767534
0.00866219
0.00963355
0.010558
0.0114079
0.0121581
0.0127831
0.0132544
0.0135407
0.013609
0.0134284
0.0129752
0.012238
0.0112249
0.00997075
0.00854265
0.00704021
0.00558414
0.00429063
0.00324099
0.0024646
0.00194492
0.0016392
0.00149698
0.00147105
0.00152206
0.00161952
0.00174141
0.00187356
0.00200932
0.00215337
0.0023086
0.0024795
0.00267459
0.00289904
0.00317065
0.00348279
0.00388284
0.00431483
0.0107475
0.007354
0.00534427
0.004061
0.00319714
0.00259624
0.00217509
0.00188828
0.00171076
0.00162856
0.00163349
0.0017206
0.00188691
0.00213161
0.00245628
0.00286489
0.00336231
0.00395237
0.00463556
0.00540733
0.00625635
0.00716313
0.00809946
0.00902239
0.00989866
0.0106979
0.0113924
0.0119554
0.0123586
0.0125721
0.0125654
0.0123118
0.0117925
0.0110031
0.00996076
0.00871088
0.00733111
0.00592732
0.0046165
0.00349833
0.0026297
0.00201838
0.00163649
0.00143999
0.00138269
0.00142312
0.00152674
0.00166645