/*--------------------------------*- C++ -*----------------------------------*\
| =========                 |                                                 |
| \\      /  F ield         | OpenFOAM: The Open Source CFD Toolbox           |
|  \\    /   O peration     | Version:  2.4.0                                 |
|   \\  /    A nd           | Web:      www.OpenFOAM.org                      |
|    \\/     M anipulation  |                                                 |
\*---------------------------------------------------------------------------*/
FoamFile
{
    version     2.0;
    format      ascii;
    class       surfaceScalarField;
    location    "1.2";
    object      phi;
}
// * * * * * * * * * * * * * * * * * * * * * * * * * * * * * * * * * * * * * //

dimensions      [0 3 -1 0 0 0 0];

internalField   nonuniform List<scalar> 
11100
(
9.89636e-06
3.43697e-06
9.30086e-06
5.95507e-07
7.95729e-06
1.34357e-06
6.79339e-06
1.1639e-06
6.00642e-06
7.86963e-07
5.3213e-06
6.85121e-07
4.67349e-06
6.47807e-07
4.1172e-06
5.56291e-07
3.66531e-06
4.5189e-07
3.30723e-06
3.58086e-07
3.02241e-06
2.84818e-07
2.79364e-06
2.28771e-07
2.61275e-06
1.80886e-07
2.47019e-06
1.42566e-07
2.36417e-06
1.06013e-07
2.29522e-06
6.89549e-08
2.25061e-06
4.4613e-08
2.2221e-06
2.85034e-08
2.21813e-06
3.96877e-09
2.25265e-06
-3.45151e-08
2.34336e-06
-9.07133e-08
2.49438e-06
-1.51016e-07
2.69864e-06
-2.04261e-07
2.94697e-06
-2.48332e-07
3.22839e-06
-2.81417e-07
3.5363e-06
-3.07916e-07
3.87277e-06
-3.3647e-07
4.24759e-06
-3.74811e-07
4.67179e-06
-4.24201e-07
5.15101e-06
-4.79222e-07
5.68248e-06
-5.31476e-07
6.25324e-06
-5.70758e-07
6.83984e-06
-5.86598e-07
7.41348e-06
-5.73642e-07
7.94753e-06
-5.3405e-07
8.41763e-06
-4.70094e-07
8.80912e-06
-3.91497e-07
9.11649e-06
-3.0737e-07
9.34861e-06
-2.32114e-07
9.51946e-06
-1.70855e-07
9.64806e-06
-1.28603e-07
9.74445e-06
-9.63876e-08
9.82217e-06
-7.77187e-08
9.88527e-06
-6.31e-08
9.94264e-06
-5.73705e-08
9.98949e-06
-4.6846e-08
1.0036e-05
-4.64727e-08
1.00715e-05
-3.55313e-08
1.01094e-05
-3.78739e-08
1.01368e-05
-2.74535e-08
1.01685e-05
-3.17212e-08
1.01878e-05
-1.9238e-08
1.02165e-05
-2.86746e-08
1.02264e-05
-9.9679e-09
1.02551e-05
-2.87072e-08
1.02548e-05
3.29826e-10
1.02866e-05
-3.17874e-08
1.02735e-05
1.3113e-08
1.03129e-05
-3.94448e-08
1.02827e-05
3.02055e-08
1.03348e-05
-5.21059e-08
1.02798e-05
5.50047e-08
1.03534e-05
-7.35508e-08
1.02675e-05
8.58898e-08
1.03699e-05
-1.02423e-07
1.02426e-05
1.27302e-07
1.03867e-05
-1.44131e-07
1.02045e-05
1.8218e-07
1.04104e-05
-2.05833e-07
1.01549e-05
2.55447e-07
1.04622e-05
-3.07256e-07
1.00921e-05
3.70039e-07
1.06462e-05
-5.5403e-07
1.06364e-05
9.80432e-09
-1.24293e-06
1.09666e-05
5.8037e-06
1.02478e-05
1.31432e-06
9.42352e-06
2.16784e-06
8.61799e-06
1.96943e-06
7.92465e-06
1.4803e-06
7.25346e-06
1.35631e-06
6.58872e-06
1.31254e-06
5.96679e-06
1.17822e-06
5.40934e-06
1.00934e-06
4.92588e-06
8.41545e-07
4.51848e-06
6.92225e-07
4.18041e-06
5.66834e-07
3.90251e-06
4.58792e-07
3.67543e-06
3.69648e-07
3.4952e-06
2.86239e-07
3.35857e-06
2.05582e-07
3.25785e-06
1.45335e-07
3.18945e-06
9.69008e-08
3.15673e-06
3.66887e-08
3.16978e-06
-4.75637e-08
3.23581e-06
-1.56743e-07
3.36287e-06
-2.78079e-07
3.54954e-06
-3.9093e-07
3.78549e-06
-4.84281e-07
4.05977e-06
-5.55699e-07
4.36436e-06
-6.12506e-07
4.69924e-06
-6.71342e-07
5.07307e-06
-7.48643e-07
5.49878e-06
-8.4991e-07
5.9856e-06
-9.66045e-07
6.53305e-06
-1.07893e-06
7.12962e-06
-1.16732e-06
7.75266e-06
-1.20964e-06
8.37362e-06
-1.1946e-06
8.96421e-06
-1.12464e-06
9.49957e-06
-1.00546e-06
9.96188e-06
-8.53808e-07
1.03482e-05
-6.93662e-07
1.066e-05
-5.43961e-07
1.09086e-05
-4.19391e-07
1.11013e-05
-3.21319e-07
1.1254e-05
-2.4913e-07
1.13726e-05
-1.96257e-07
1.14691e-05
-1.59656e-07
1.15466e-05
-1.34824e-07
1.16112e-05
-1.1146e-07
1.16656e-05
-1.00856e-07
1.17113e-05
-8.12736e-08
1.17508e-05
-7.73331e-08
1.1783e-05
-5.96688e-08
1.18133e-05
-6.20163e-08
1.18352e-05
-4.11285e-08
1.18595e-05
-5.30373e-08
1.18729e-05
-2.33477e-08
1.18939e-05
-4.97505e-08
1.19002e-05
-5.88535e-09
1.19199e-05
-5.14958e-08
1.19184e-05
1.46003e-08
1.19377e-05
-5.87774e-08
1.19282e-05
3.97073e-08
1.19492e-05
-7.31364e-08
1.19291e-05
7.51912e-08
1.19562e-05
-1.00721e-07
1.19199e-05
1.2219e-07
1.19612e-05
-1.43679e-07
1.18999e-05
1.88634e-07
1.19668e-05
-2.11069e-07
1.18677e-05
2.81275e-07
1.19775e-05
-3.15609e-07
1.18238e-05
4.09097e-07
1.20112e-05
-4.94663e-07
1.17588e-05
6.22466e-07
1.21795e-05
-9.74719e-07
1.20688e-05
1.20536e-07
-1.78624e-06
1.15608e-05
7.57626e-06
1.07347e-05
2.14037e-06
1.01428e-05
2.75974e-06
9.58736e-06
2.5249e-06
9.03394e-06
2.03372e-06
8.45858e-06
1.93167e-06
7.85635e-06
1.91478e-06
7.25114e-06
1.78343e-06
6.66853e-06
1.59195e-06
6.12984e-06
1.38023e-06
5.65151e-06
1.17055e-06
5.23965e-06
9.78702e-07
4.89255e-06
8.05888e-07
4.60297e-06
6.59232e-07
4.36581e-06
5.234e-07
4.17703e-06
3.9436e-07
4.03106e-06
2.91306e-07
3.92552e-06
2.0244e-07
3.86381e-06
9.83928e-08
3.85133e-06
-3.5082e-08
3.89155e-06
-1.96961e-07
3.98924e-06
-3.75768e-07
4.14716e-06
-5.48847e-07
4.35754e-06
-6.94662e-07
4.60784e-06
-8.06001e-07
4.88954e-06
-8.9421e-07
5.20185e-06
-9.83649e-07
5.55321e-06
-1.1e-06
5.95663e-06
-1.25334e-06
6.42282e-06
-1.43223e-06
6.95454e-06
-1.61066e-06
7.5426e-06
-1.75538e-06
8.16461e-06
-1.83164e-06
8.79122e-06
-1.82121e-06
9.39346e-06
-1.72689e-06
9.94614e-06
-1.55813e-06
1.04305e-05
-1.33819e-06
1.08431e-05
-1.10621e-06
1.11838e-05
-8.84721e-07
1.14611e-05
-6.96641e-07
1.16802e-05
-5.40447e-07
1.18554e-05
-4.24371e-07
1.19922e-05
-3.33024e-07
1.21021e-05
-2.69523e-07
1.21883e-05
-2.2103e-07
1.22587e-05
-1.81848e-07
1.23147e-05
-1.56855e-07
1.23617e-05
-1.28336e-07
1.2399e-05
-1.14571e-07
1.2431e-05
-9.17235e-08
1.24559e-05
-8.68748e-08
1.24784e-05
-6.36168e-08
1.24945e-05
-6.91266e-08
1.25105e-05
-3.93454e-08
1.25207e-05
-5.99946e-08
1.25326e-05
-1.77629e-08
1.25389e-05
-5.7774e-08
1.25466e-05
6.87297e-09
1.25512e-05
-6.33501e-08
1.25525e-05
3.84186e-08
1.25578e-05
-7.84944e-08
1.25523e-05
8.07288e-08
1.25606e-05
-1.09049e-07
1.25453e-05
1.37492e-07
1.25607e-05
-1.59056e-07
1.25308e-05
2.18534e-07
1.256e-05
-2.40324e-07
1.25079e-05
3.33356e-07
1.25619e-05
-3.69556e-07
1.24786e-05
4.92435e-07
1.25809e-05
-5.97018e-07
1.24442e-05
7.59146e-07
1.26942e-05
-1.22468e-06
1.26685e-05
1.46199e-07
-2.10684e-06
1.19151e-05
8.99452e-06
1.1105e-05
2.95041e-06
1.06191e-05
3.24564e-06
1.02057e-05
2.9383e-06
9.77034e-06
2.46911e-06
9.30794e-06
2.39407e-06
8.80826e-06
2.41445e-06
8.27695e-06
2.31474e-06
7.73309e-06
2.13581e-06
7.19769e-06
1.91563e-06
6.6941e-06
1.67415e-06
6.23967e-06
1.43313e-06
5.84274e-06
1.20282e-06
5.50247e-06
9.99506e-07
5.21673e-06
8.09143e-07
4.98184e-06
6.29244e-07
4.7935e-06
4.79646e-07
4.65091e-06
3.45036e-07
4.55659e-06
1.92711e-07
4.51432e-06
7.18265e-09
4.5268e-06
-2.09435e-07
4.59339e-06
-4.42357e-07
4.71665e-06
-6.72106e-07
4.89423e-06
-8.72251e-07
5.11293e-06
-1.0247e-06
5.36365e-06
-1.14493e-06
5.64516e-06
-1.26516e-06
5.96576e-06
-1.4206e-06
6.33882e-06
-1.62639e-06
6.77572e-06
-1.86912e-06
7.28115e-06
-2.11608e-06
7.84869e-06
-2.32292e-06
8.45723e-06
-2.44019e-06
9.07622e-06
-2.44019e-06
9.67529e-06
-2.32596e-06
1.02287e-05
-2.11158e-06
1.07176e-05
-1.82701e-06
1.11367e-05
-1.52535e-06
1.14855e-05
-1.23354e-06
1.17704e-05
-9.81517e-07
1.19971e-05
-7.67154e-07
1.21777e-05
-6.05003e-07
1.23188e-05
-4.74073e-07
1.24304e-05
-3.81161e-07
1.25169e-05
-3.07542e-07
1.25861e-05
-2.50964e-07
1.26393e-05
-2.10138e-07
1.2683e-05
-1.72036e-07
1.27161e-05
-1.47678e-07
1.27442e-05
-1.19749e-07
1.27646e-05
-1.07303e-07
1.27829e-05
-8.18974e-08
1.27948e-05
-8.10466e-08
1.28064e-05
-5.0925e-08
1.28129e-05
-6.65192e-08
1.28197e-05
-2.45675e-08
1.28229e-05
-6.09238e-08
1.28258e-05
3.89074e-09
1.28258e-05
-6.3293e-08
1.28264e-05
3.77848e-08
1.28248e-05
-7.69114e-08
1.28223e-05
8.32783e-08
1.28196e-05
-1.064e-07
1.28121e-05
1.44981e-07
1.28111e-05
-1.58047e-07
1.27962e-05
2.33444e-07
1.28004e-05
-2.44519e-07
1.27744e-05
3.5935e-07
1.27897e-05
-3.84849e-07
1.27507e-05
5.31454e-07
1.27899e-05
-6.3623e-07
1.27403e-05
8.0881e-07
1.28647e-05
-1.34908e-06
1.29476e-05
6.32351e-08
-2.37298e-06
1.21783e-05
1.01496e-05
1.14268e-05
3.70195e-06
1.09989e-05
3.6735e-06
1.06657e-05
3.2715e-06
1.03151e-05
2.81973e-06
9.94567e-06
2.76347e-06
9.54547e-06
2.81465e-06
9.10527e-06
2.75494e-06
8.63365e-06
2.60744e-06
8.14408e-06
2.4052e-06
7.65704e-06
2.16119e-06
7.19494e-06
1.89523e-06
6.77317e-06
1.62458e-06
6.39938e-06
1.3733e-06
6.07664e-06
1.13188e-06
5.80381e-06
9.0207e-07
5.57835e-06
7.05113e-07
5.40053e-06
5.22854e-07
5.27352e-06
3.19716e-07
5.20042e-06
8.02802e-08
5.18211e-06
-1.91117e-07
5.21824e-06
-4.78494e-07
5.30685e-06
-7.60712e-07
5.44612e-06
-1.01152e-06
5.62879e-06
-1.20736e-06
5.84389e-06
-1.36004e-06
6.08984e-06
-1.51111e-06
6.37443e-06
-1.70519e-06
6.7115e-06
-1.96346e-06
7.11354e-06
-2.27116e-06
7.58616e-06
-2.58871e-06
8.1255e-06
-2.86226e-06
8.71312e-06
-3.0278e-06
9.31745e-06
-3.04452e-06
9.90602e-06
-2.91454e-06
1.04522e-05
-2.65777e-06
1.09368e-05
-2.31158e-06
1.13533e-05
-1.94191e-06
1.17007e-05
-1.58088e-06
1.19839e-05
-1.26478e-06
1.22097e-05
-9.92899e-07
1.23884e-05
-7.83761e-07
1.25278e-05
-6.13393e-07
1.26366e-05
-4.90038e-07
1.27203e-05
-3.91202e-07
1.27859e-05
-3.16575e-07
1.28355e-05
-2.59751e-07
1.28752e-05
-2.11698e-07
1.29043e-05
-1.7683e-07
1.29284e-05
-1.43799e-07
1.2945e-05
-1.23905e-07
1.29598e-05
-9.66938e-08
1.29681e-05
-8.93637e-08
1.29771e-05
-5.98775e-08
1.29795e-05
-6.90115e-08
1.29849e-05
-2.99572e-08
1.29828e-05
-5.884e-08
1.29861e-05
5.96487e-10
1.29809e-05
-5.80739e-08
1.29816e-05
3.7117e-08
1.29744e-05
-6.97269e-08
1.29732e-05
8.44793e-08
1.29642e-05
-9.73798e-08
1.29598e-05
1.49385e-07
1.29512e-05
-1.49476e-07
1.29418e-05
2.42866e-07
1.29348e-05
-2.37553e-07
1.29192e-05
3.74935e-07
1.29175e-05
-3.83076e-07
1.28971e-05
5.51837e-07
1.29081e-05
-6.47216e-07
1.29002e-05
8.16711e-07
1.29667e-05
-1.41563e-06
1.30974e-05
-6.74504e-08
-2.59054e-06
1.23919e-05
1.1091e-05
1.17163e-05
4.37752e-06
1.13305e-05
4.05928e-06
1.10469e-05
3.55507e-06
1.07564e-05
3.11026e-06
1.04569e-05
3.06293e-06
1.01386e-05
3.13298e-06
9.784e-06
3.10956e-06
9.39279e-06
2.99865e-06
8.9712e-06
2.82679e-06
8.53083e-06
2.60156e-06
8.09194e-06
2.33412e-06
7.67231e-06
2.04421e-06
7.28554e-06
1.76008e-06
6.94034e-06
1.47708e-06
6.64078e-06
1.20164e-06
6.38647e-06
9.5942e-07
6.17788e-06
7.31438e-07
6.02005e-06
4.77547e-07
5.91686e-06
1.83475e-07
5.86819e-06
-1.42448e-07
5.87256e-06
-4.82863e-07
5.92739e-06
-8.15538e-07
6.02931e-06
-1.11344e-06
6.17285e-06
-1.3509e-06
6.34987e-06
-1.53706e-06
6.55723e-06
-1.71847e-06
6.80217e-06
-1.95013e-06
7.09879e-06
-2.26009e-06
7.46084e-06
-2.6332e-06
7.89518e-06
-3.02305e-06
8.39991e-06
-3.36699e-06
8.95989e-06
-3.58778e-06
9.5438e-06
-3.62843e-06
1.01167e-05
-3.48747e-06
1.06503e-05
-3.19139e-06
1.1125e-05
-2.78623e-06
1.15335e-05
-2.35043e-06
1.1874e-05
-1.9214e-06
1.21509e-05
-1.5416e-06
1.23711e-05
-1.21319e-06
1.25445e-05
-9.5709e-07
1.26791e-05
-7.4804e-07
1.27832e-05
-5.94162e-07
1.28627e-05
-4.70659e-07
1.29241e-05
-3.77929e-07
1.29698e-05
-3.05536e-07
1.30056e-05
-2.47416e-07
1.30313e-05
-2.02551e-07
1.30518e-05
-1.64315e-07
1.30654e-05
-1.37511e-07
1.30772e-05
-1.08443e-07
1.3083e-05
-9.52307e-08
1.30895e-05
-6.63446e-08
1.30899e-05
-6.94402e-08
1.30931e-05
-3.31779e-08
1.30895e-05
-5.51604e-08
1.30905e-05
-4.78413e-10
1.30837e-05
-5.12069e-08
1.30835e-05
3.72581e-08
1.30738e-05
-5.99929e-08
1.30727e-05
8.56177e-08
1.30604e-05
-8.51334e-08
1.30575e-05
1.52297e-07
1.30439e-05
-1.35909e-07
1.3038e-05
2.48803e-07
1.30258e-05
-2.25321e-07
1.30151e-05
3.85576e-07
1.30057e-05
-3.73631e-07
1.2994e-05
5.63536e-07
1.29923e-05
-6.45587e-07
1.30052e-05
8.03825e-07
1.30442e-05
-1.45461e-06
1.31846e-05
-2.07822e-07
-2.76443e-06
1.25745e-05
1.18498e-05
1.19799e-05
4.97222e-06
1.16328e-05
4.4063e-06
1.13846e-05
3.80326e-06
1.11382e-05
3.35666e-06
1.08914e-05
3.30973e-06
1.06366e-05
3.38785e-06
1.03542e-05
3.39191e-06
1.00375e-05
3.31538e-06
9.68851e-06
3.17577e-06
9.31065e-06
2.97942e-06
8.91648e-06
2.72829e-06
8.52293e-06
2.43776e-06
8.14507e-06
2.13794e-06
7.79444e-06
1.82771e-06
7.48086e-06
1.51521e-06
7.20846e-06
1.23183e-06
6.97697e-06
9.62924e-07
6.79212e-06
6.62401e-07
6.66082e-06
3.1477e-07
6.58334e-06
-6.49665e-08
6.55706e-06
-4.56581e-07
6.57895e-06
-8.37428e-07
6.64508e-06
-1.17958e-06
6.75047e-06
-1.45629e-06
6.88875e-06
-1.67534e-06
7.05649e-06
-1.88621e-06
7.25969e-06
-2.15333e-06
7.51252e-06
-2.51291e-06
7.82993e-06
-2.95062e-06
8.22081e-06
-3.41394e-06
8.68493e-06
-3.83112e-06
9.21048e-06
-4.11333e-06
9.76814e-06
-4.18609e-06
1.03209e-05
-4.04019e-06
1.08377e-05
-3.70818e-06
1.1298e-05
-3.24658e-06
1.16944e-05
-2.74686e-06
1.20246e-05
-2.25155e-06
1.22919e-05
-1.80895e-06
1.2504e-05
-1.42526e-06
1.26698e-05
-1.12291e-06
1.27981e-05
-8.76332e-07
1.28964e-05
-6.92483e-07
1.2971e-05
-5.45227e-07
1.30278e-05
-4.34751e-07
1.30698e-05
-3.4752e-07
1.31018e-05
-2.79444e-07
1.31246e-05
-2.2527e-07
1.3142e-05
-1.818e-07
1.31533e-05
-1.48733e-07
1.31625e-05
-1.17669e-07
1.31666e-05
-9.93164e-08
1.31711e-05
-7.08193e-08
1.31702e-05
-6.85998e-08
1.31718e-05
-3.47629e-08
1.31671e-05
-5.04448e-08
1.3167e-05
-3.54493e-10
1.31591e-05
-4.33652e-08
1.31582e-05
3.81637e-08
1.31474e-05
-4.91794e-08
1.3146e-05
8.69732e-08
1.31324e-05
-7.14901e-08
1.31302e-05
1.54484e-07
1.31143e-05
-1.20035e-07
1.31105e-05
2.52641e-07
1.30945e-05
-2.0934e-07
1.30877e-05
3.92382e-07
1.30746e-05
-3.60558e-07
1.30679e-05
5.70312e-07
1.30602e-05
-6.37964e-07
1.30848e-05
7.79291e-07
1.31083e-05
-1.47809e-06
1.32423e-05
-3.41873e-07
-2.89985e-06
1.27353e-05
1.24479e-05
1.22209e-05
5.48662e-06
1.19137e-05
4.71347e-06
1.16956e-05
4.02131e-06
1.14838e-05
3.56848e-06
1.12778e-05
3.51574e-06
1.10717e-05
3.59399e-06
1.08478e-05
3.61582e-06
1.05951e-05
3.56802e-06
1.03131e-05
3.45779e-06
1.00015e-05
3.29103e-06
9.66347e-06
3.06632e-06
9.31198e-06
2.78925e-06
8.96153e-06
2.48839e-06
8.62337e-06
2.16587e-06
8.30993e-06
1.82865e-06
8.03078e-06
1.51098e-06
7.78701e-06
1.2067e-06
7.58212e-06
8.67289e-07
7.42593e-06
4.70956e-07
7.32198e-06
3.8982e-08
7.26723e-06
-4.01828e-07
7.25785e-06
-8.28052e-07
7.2906e-06
-1.21233e-06
7.36044e-06
-1.52613e-06
7.46149e-06
-1.77638e-06
7.59056e-06
-2.01528e-06
7.75187e-06
-2.31464e-06
7.95911e-06
-2.72015e-06
8.22829e-06
-3.2198e-06
8.5707e-06
-3.75635e-06
8.98816e-06
-4.24857e-06
9.4723e-06
-4.59747e-06
9.99755e-06
-4.71133e-06
1.05255e-05
-4.56815e-06
1.10216e-05
-4.20432e-06
1.14639e-05
-3.6888e-06
1.18448e-05
-3.12775e-06
1.21617e-05
-2.56855e-06
1.24174e-05
-2.06464e-06
1.26194e-05
-1.62718e-06
1.27763e-05
-1.27982e-06
1.28971e-05
-9.97162e-07
1.2989e-05
-7.84345e-07
1.30582e-05
-6.14488e-07
1.31104e-05
-4.86925e-07
1.31486e-05
-3.85745e-07
1.31772e-05
-3.08017e-07
1.31972e-05
-2.45282e-07
1.32121e-05
-1.96666e-07
1.32213e-05
-1.57989e-07
1.32285e-05
-1.24822e-07
1.32312e-05
-1.02048e-07
1.32341e-05
-7.37237e-08
1.32325e-05
-6.69415e-08
1.32328e-05
-3.51157e-08
1.32276e-05
-4.52439e-08
1.32266e-05
7.04452e-10
1.32184e-05
-3.52342e-08
1.32169e-05
3.9675e-08
1.32058e-05
-3.81055e-08
1.32043e-05
8.85431e-08
1.31902e-05
-5.74503e-08
1.31885e-05
1.56197e-07
1.31718e-05
-1.03276e-07
1.31694e-05
2.54977e-07
1.31514e-05
-1.9132e-07
1.31475e-05
3.96254e-07
1.3132e-05
-3.45055e-07
1.31291e-05
5.73271e-07
1.31186e-05
-6.27473e-07
1.31501e-05
7.47741e-07
1.31633e-05
-1.49127e-06
1.3285e-05
-4.63613e-07
-3.00186e-06
1.28788e-05
1.29025e-05
1.24417e-05
5.9237e-06
1.21761e-05
4.97904e-06
1.19875e-05
4.20996e-06
1.18056e-05
3.75029e-06
1.16328e-05
3.68854e-06
1.1465e-05
3.76181e-06
1.12875e-05
3.79329e-06
1.10885e-05
3.76705e-06
1.08642e-05
3.68207e-06
1.06144e-05
3.54085e-06
1.03363e-05
3.34442e-06
1.00354e-05
3.09018e-06
9.72439e-06
2.79938e-06
9.41335e-06
2.47691e-06
9.11389e-06
2.1281e-06
8.83941e-06
1.78546e-06
8.59455e-06
1.45156e-06
8.37977e-06
1.08207e-06
8.20433e-06
6.46392e-07
8.07698e-06
1.66333e-07
7.99659e-06
-3.21441e-07
7.95871e-06
-7.9017e-07
7.96039e-06
-1.214e-06
7.99781e-06
-1.56355e-06
8.06533e-06
-1.8439e-06
8.1582e-06
-2.10815e-06
8.2796e-06
-2.43605e-06
8.44154e-06
-2.88209e-06
8.66033e-06
-3.43859e-06
8.94983e-06
-4.04585e-06
9.31483e-06
-4.61357e-06
9.75054e-06
-5.03319e-06
1.02366e-05
-5.19743e-06
1.07349e-05
-5.06641e-06
1.12068e-05
-4.67619e-06
1.16273e-05
-4.1093e-06
1.19895e-05
-3.48993e-06
1.22908e-05
-2.86994e-06
1.25331e-05
-2.30687e-06
1.27234e-05
-1.81746e-06
1.28703e-05
-1.42675e-06
1.29828e-05
-1.10972e-06
1.30678e-05
-8.69272e-07
1.31314e-05
-6.78145e-07
1.31789e-05
-5.34381e-07
1.32134e-05
-4.20244e-07
1.32387e-05
-3.33324e-07
1.32562e-05
-2.62794e-07
1.32688e-05
-2.09225e-07
1.32763e-05
-1.65573e-07
1.32818e-05
-1.3026e-07
1.32834e-05
-1.03718e-07
1.32851e-05
-7.53891e-08
1.32829e-05
-6.47507e-08
1.32824e-05
-3.4554e-08
1.3277e-05
-3.98832e-08
1.32753e-05
2.41311e-09
1.32672e-05
-2.71885e-08
1.32653e-05
4.16139e-08
1.32545e-05
-2.72551e-08
1.32527e-05
9.02481e-08
1.32389e-05
-4.36142e-08
1.32376e-05
1.57511e-07
1.32208e-05
-8.6447e-08
1.32196e-05
2.56107e-07
1.32008e-05
-1.72492e-07
1.31993e-05
3.97755e-07
1.31819e-05
-3.27694e-07
1.31824e-05
5.72838e-07
1.31705e-05
-6.15607e-07
1.32064e-05
7.11887e-07
1.32117e-05
-1.49665e-06
1.33193e-05
-5.71187e-07
-3.07478e-06
1.30079e-05
1.32279e-05
1.26442e-05
6.28735e-06
1.24215e-05
5.20179e-06
1.2263e-05
4.36846e-06
1.21098e-05
3.90352e-06
1.1966e-05
3.83232e-06
1.18299e-05
3.89789e-06
1.16896e-05
3.93357e-06
1.15349e-05
3.92174e-06
1.13595e-05
3.85749e-06
1.11629e-05
3.73747e-06
1.0942e-05
3.56536e-06
1.06949e-05
3.3373e-06
1.043e-05
3.06419e-06
1.01561e-05
2.7508e-06
9.88192e-06
2.40233e-06
9.62219e-06
2.0452e-06
9.38599e-06
1.68775e-06
9.17249e-06
1.29557e-06
8.98674e-06
8.32142e-07
8.84054e-06
3.12535e-07
8.73777e-06
-2.18666e-07
8.67472e-06
-7.27124e-07
8.64845e-06
-1.18774e-06
8.65658e-06
-1.57168e-06
8.69389e-06
-1.88121e-06
8.75526e-06
-2.16952e-06
8.84099e-06
-2.52178e-06
8.9598e-06
-3.0009e-06
9.12785e-06
-3.60664e-06
9.3614e-06
-4.2794e-06
9.66899e-06
-4.92116e-06
1.00495e-05
-5.41368e-06
1.0489e-05
-5.63691e-06
1.09519e-05
-5.52935e-06
1.13958e-05
-5.12007e-06
1.17912e-05
-4.50472e-06
1.21317e-05
-3.83038e-06
1.24151e-05
-3.15335e-06
1.26422e-05
-2.53403e-06
1.28197e-05
-1.99489e-06
1.29557e-05
-1.5628e-06
1.30594e-05
-1.21336e-06
1.3137e-05
-9.46887e-07
1.31948e-05
-7.35966e-07
1.32375e-05
-5.77068e-07
1.32683e-05
-4.51031e-07
1.32904e-05
-3.55507e-07
1.33056e-05
-2.77948e-07
1.33161e-05
-2.19713e-07
1.33222e-05
-1.71687e-07
1.33262e-05
-1.34258e-07
1.3327e-05
-1.04536e-07
1.33277e-05
-7.60727e-08
1.33252e-05
-6.22162e-08
1.33239e-05
-3.3325e-08
1.33186e-05
-3.45687e-08
1.33165e-05
4.55099e-09
1.33088e-05
-1.94634e-08
1.33066e-05
4.38142e-08
1.32962e-05
-1.69212e-08
1.32945e-05
9.19901e-08
1.32812e-05
-3.03595e-08
1.32803e-05
1.58443e-07
1.32639e-05
-7.00552e-08
1.32638e-05
2.56188e-07
1.32449e-05
-1.53599e-07
1.32455e-05
3.9721e-07
1.32269e-05
-3.09071e-07
1.32303e-05
5.69353e-07
1.32177e-05
-6.02956e-07
1.32561e-05
6.73438e-07
1.3255e-05
-1.49556e-06
1.33483e-05
-6.64417e-07
-3.1222e-06
1.31245e-05
1.34367e-05
1.28302e-05
6.58168e-06
1.26507e-05
5.38128e-06
1.25231e-05
4.49601e-06
1.23986e-05
4.02804e-06
1.2282e-05
3.94894e-06
1.2174e-05
4.00592e-06
1.20648e-05
4.04277e-06
1.19467e-05
4.03974e-06
1.18129e-05
3.99135e-06
1.16611e-05
3.88928e-06
1.14903e-05
3.73613e-06
1.12954e-05
3.5322e-06
1.10789e-05
3.28072e-06
1.08477e-05
2.98196e-06
1.06076e-05
2.64241e-06
1.03709e-05
2.2819e-06
1.01504e-05
1.90825e-06
9.9477e-06
1.49832e-06
9.76233e-06
1.01751e-06
9.60434e-06
4.70523e-07
9.48319e-06
-9.75155e-08
9.39856e-06
-6.42492e-07
9.34782e-06
-1.137e-06
9.32985e-06
-1.55371e-06
9.34063e-06
-1.89199e-06
9.37482e-06
-2.20371e-06
9.43011e-06
-2.57707e-06
9.51071e-06
-3.0815e-06
9.63003e-06
-3.72596e-06
9.80677e-06
-4.45614e-06
1.00534e-05
-5.16775e-06
1.03725e-05
-5.73284e-06
1.07574e-05
-6.02181e-06
1.11787e-05
-5.95058e-06
1.15906e-05
-5.532e-06
1.19577e-05
-4.87179e-06
1.22734e-05
-4.14616e-06
1.25365e-05
-3.41644e-06
1.27471e-05
-2.74458e-06
1.29106e-05
-2.15843e-06
1.3035e-05
-1.68721e-06
1.31292e-05
-1.30753e-06
1.31992e-05
-1.01687e-06
1.3251e-05
-7.87762e-07
1.32888e-05
-6.14937e-07
1.33159e-05
-4.78111e-07
1.33351e-05
-3.7467e-07
1.3348e-05
-2.90847e-07
1.33566e-05
-2.28306e-07
1.33614e-05
-1.7648e-07
1.33641e-05
-1.3703e-07
1.33643e-05
-1.04656e-07
1.33642e-05
-7.59762e-08
1.33614e-05
-5.94661e-08
1.33597e-05
-3.16241e-08
1.33546e-05
-2.94313e-08
1.33522e-05
6.94027e-09
1.33449e-05
-1.21998e-08
1.33426e-05
4.61296e-08
1.3333e-05
-7.28038e-09
1.33313e-05
9.36707e-08
1.33188e-05
-1.79251e-08
1.33183e-05
1.58983e-07
1.33027e-05
-5.44309e-08
1.33035e-05
2.55321e-07
1.32851e-05
-1.35118e-07
1.32874e-05
3.94862e-07
1.32683e-05
-2.89918e-07
1.32744e-05
5.63253e-07
1.32609e-05
-5.89526e-07
1.33009e-05
6.3342e-07
1.32942e-05
-1.4888e-06
1.33736e-05
-7.43789e-07
-3.14704e-06
1.32298e-05
1.35403e-05
1.30009e-05
6.81057e-06
1.28643e-05
5.51784e-06
1.2768e-05
4.5924e-06
1.26727e-05
4.12329e-06
1.25829e-05
4.03879e-06
1.2501e-05
4.08778e-06
1.24193e-05
4.12444e-06
1.23323e-05
4.12674e-06
1.22341e-05
4.08956e-06
1.21207e-05
4.00265e-06
1.19922e-05
3.8647e-06
1.18444e-05
3.67998e-06
1.16751e-05
3.45003e-06
1.14878e-05
3.16923e-06
1.12869e-05
2.84327e-06
1.10805e-05
2.48833e-06
1.08813e-05
2.10745e-06
1.06952e-05
1.68442e-06
1.05198e-05
1.19294e-06
1.03594e-05
6.30901e-07
1.02253e-05
3.65474e-08
1.01229e-05
-5.40023e-07
1.00513e-05
-1.06546e-06
1.00105e-05
-1.51285e-06
9.99805e-06
-1.87957e-06
1.00092e-05
-2.21482e-06
1.00393e-05
-2.60718e-06
1.00878e-05
-3.13e-06
1.01635e-05
-3.8017e-06
1.0285e-05
-4.57761e-06
1.04689e-05
-5.35168e-06
1.07221e-05
-5.98603e-06
1.10445e-05
-6.34423e-06
1.14167e-05
-6.32276e-06
1.17923e-05
-5.90761e-06
1.21278e-05
-5.20731e-06
1.24161e-05
-4.43445e-06
1.26566e-05
-3.6569e-06
1.2849e-05
-2.937e-06
1.29977e-05
-2.30709e-06
1.31098e-05
-1.79929e-06
1.3194e-05
-1.39176e-06
1.32561e-05
-1.07896e-06
1.33017e-05
-8.3337e-07
1.33347e-05
-6.47944e-07
1.33581e-05
-5.01481e-07
1.33743e-05
-3.9089e-07
1.3385e-05
-3.01567e-07
1.33918e-05
-2.35137e-07
1.33954e-05
-1.8006e-07
1.33971e-05
-1.38743e-07
1.33967e-05
-1.0419e-07
1.33959e-05
-7.52581e-08
1.33931e-05
-5.65901e-08
1.3391e-05
-2.96061e-08
1.33862e-05
-2.45537e-08
1.33837e-05
9.43868e-09
1.3377e-05
-5.48062e-09
1.33746e-05
4.84339e-08
1.33658e-05
1.56491e-09
1.33643e-05
9.51988e-08
1.33528e-05
-6.45904e-09
1.33527e-05
1.5911e-07
1.3338e-05
-3.97895e-08
1.33398e-05
2.53573e-07
1.3322e-05
-1.17373e-07
1.3326e-05
3.90902e-07
1.33069e-05
-2.70776e-07
1.33153e-05
5.54862e-07
1.3301e-05
-5.75263e-07
1.33418e-05
5.92629e-07
1.33298e-05
-1.47685e-06
1.33961e-05
-8.10044e-07
-3.15174e-06
1.33248e-05
1.35488e-05
1.31584e-05
6.97692e-06
1.30631e-05
5.61314e-06
1.29976e-05
4.65795e-06
1.29318e-05
4.18907e-06
1.2869e-05
4.10162e-06
1.28126e-05
4.14412e-06
1.27567e-05
4.18031e-06
1.26971e-05
4.18638e-06
1.26298e-05
4.15683e-06
1.25502e-05
4.08225e-06
1.24576e-05
3.95736e-06
1.23501e-05
3.78743e-06
1.22243e-05
3.57584e-06
1.20798e-05
3.31376e-06
1.19192e-05
3.00388e-06
1.17476e-05
2.65992e-06
1.15747e-05
2.28034e-06
1.14088e-05
1.85027e-06
1.12496e-05
1.35214e-06
1.10962e-05
7.84362e-07
1.09566e-05
1.76131e-07
1.08408e-05
-4.24236e-07
1.07522e-05
-9.7684e-07
1.06917e-05
-1.4524e-06
1.06591e-05
-1.84696e-06
1.06505e-05
-2.20624e-06
1.06602e-05
-2.61688e-06
1.06834e-05
-3.15319e-06
1.07226e-05
-3.84087e-06
1.07927e-05
-4.64773e-06
1.09144e-05
-5.47337e-06
1.10994e-05
-6.17108e-06
1.13525e-05
-6.59724e-06
1.16671e-05
-6.63742e-06
1.20016e-05
-6.24208e-06
1.23025e-05
-5.50823e-06
1.25607e-05
-4.69263e-06
1.27763e-05
-3.8725e-06
1.2949e-05
-3.10971e-06
1.30818e-05
-2.43994e-06
1.3181e-05
-1.89848e-06
1.32549e-05
-1.46565e-06
1.33089e-05
-1.13289e-06
1.33481e-05
-8.72655e-07
1.33762e-05
-6.76053e-07
1.33959e-05
-5.21137e-07
1.34092e-05
-4.04227e-07
1.34178e-05
-3.10165e-07
1.3423e-05
-2.4031e-07
1.34255e-05
-1.82508e-07
1.34262e-05
-1.39526e-07
1.34253e-05
-1.03223e-07
1.34241e-05
-7.40435e-08
1.34211e-05
-5.36528e-08
1.34189e-05
-2.73934e-08
1.34143e-05
-1.99878e-08
1.34119e-05
1.19332e-08
1.34057e-05
6.49222e-10
1.34035e-05
5.06198e-08
1.33955e-05
9.5608e-09
1.33942e-05
9.6493e-08
1.33838e-05
3.9526e-09
1.33842e-05
1.58797e-07
1.33706e-05
-2.62676e-08
1.33732e-05
2.5099e-07
1.33564e-05
-1.00579e-07
1.33618e-05
3.85486e-07
1.3343e-05
-2.51989e-07
1.33535e-05
5.44408e-07
1.33384e-05
-5.60159e-07
1.33793e-05
5.51732e-07
1.33625e-05
-1.46004e-06
1.34164e-05
-8.63996e-07
-3.13837e-06
1.34101e-05
1.34721e-05
1.33029e-05
7.08412e-06
1.32473e-05
5.66873e-06
1.3212e-05
4.69326e-06
1.31754e-05
4.22569e-06
1.31398e-05
4.13716e-06
1.31089e-05
4.17504e-06
1.30782e-05
4.21106e-06
1.3044e-05
4.22052e-06
1.30043e-05
4.19655e-06
1.29549e-05
4.13163e-06
1.2894e-05
4.01832e-06
1.28208e-05
3.86058e-06
1.2733e-05
3.66364e-06
1.26284e-05
3.41843e-06
1.25068e-05
3.12546e-06
1.23713e-05
2.7954e-06
1.22283e-05
2.42332e-06
1.20857e-05
1.99293e-06
1.19458e-05
1.49201e-06
1.18059e-05
9.24206e-07
1.16691e-05
3.12959e-07
1.15458e-05
-3.00901e-07
1.1444e-05
-8.75069e-07
1.13674e-05
-1.37577e-06
1.13173e-05
-1.79685e-06
1.12915e-05
-2.1805e-06
1.12845e-05
-2.60984e-06
1.12885e-05
-3.15718e-06
1.12991e-05
-3.85144e-06
1.13241e-05
-4.67276e-06
1.13859e-05
-5.53519e-06
1.15036e-05
-6.28877e-06
1.16831e-05
-6.77674e-06
1.19307e-05
-6.88503e-06
1.22184e-05
-6.52977e-06
1.2482e-05
-5.77179e-06
1.27077e-05
-4.91834e-06
1.28962e-05
-4.06106e-06
1.30477e-05
-3.26116e-06
1.31638e-05
-2.55606e-06
1.32496e-05
-1.98424e-06
1.33127e-05
-1.52882e-06
1.33583e-05
-1.17848e-06
1.33912e-05
-9.05504e-07
1.34144e-05
-6.99233e-07
1.34303e-05
-5.37079e-07
1.34408e-05
-4.14728e-07
1.34473e-05
-3.16689e-07
1.34509e-05
-2.43905e-07
1.34523e-05
-1.83887e-07
1.34522e-05
-1.39481e-07
1.34508e-05
-1.01821e-07
1.34492e-05
-7.24318e-08
1.34463e-05
-5.07021e-08
1.3444e-05
-2.50818e-08
1.34397e-05
-1.57652e-08
1.34373e-05
1.43354e-08
1.34318e-05
6.16819e-09
1.34298e-05
5.25973e-08
1.34227e-05
1.66864e-08
1.34217e-05
9.74809e-08
1.34124e-05
1.32673e-08
1.34132e-05
1.58016e-07
1.34009e-05
-1.39476e-08
1.34043e-05
2.47607e-07
1.33886e-05
-8.48762e-08
1.33953e-05
3.78738e-07
1.33771e-05
-2.33775e-07
1.33894e-05
5.32077e-07
1.33735e-05
-5.44228e-07
1.3414e-05
5.11268e-07
1.33925e-05
-1.43856e-06
1.34349e-05
-9.06452e-07
-3.10868e-06
1.34868e-05
1.33186e-05
1.34349e-05
7.13601e-06
1.34173e-05
5.68635e-06
1.34114e-05
4.69919e-06
1.34032e-05
4.23391e-06
1.33948e-05
4.14553e-06
1.33894e-05
4.18046e-06
1.33836e-05
4.21684e-06
1.33742e-05
4.22992e-06
1.336e-05
4.21079e-06
1.33381e-05
4.15353e-06
1.33059e-05
4.05045e-06
1.3263e-05
3.90352e-06
1.32079e-05
3.71872e-06
1.31386e-05
3.48774e-06
1.30536e-05
3.21047e-06
1.29535e-05
2.89554e-06
1.28419e-05
2.53493e-06
1.27247e-05
2.11013e-06
1.26057e-05
1.611e-06
1.2483e-05
1.04689e-06
1.23558e-05
4.40179e-07
1.22315e-05
-1.76671e-07
1.21212e-05
-7.64738e-07
1.2032e-05
-1.28652e-06
1.19669e-05
-1.73182e-06
1.19258e-05
-2.13936e-06
1.19041e-05
-2.58815e-06
1.18932e-05
-3.14631e-06
1.18829e-05
-3.84111e-06
1.18713e-05
-4.66121e-06
1.18774e-05
-5.54121e-06
1.19306e-05
-6.342e-06
1.20376e-05
-6.88378e-06
1.22088e-05
-7.0562e-06
1.2442e-05
-6.76293e-06
1.2666e-05
-5.99588e-06
1.28573e-05
-5.10962e-06
1.30169e-05
-4.22063e-06
1.31455e-05
-3.38978e-06
1.3244e-05
-2.65455e-06
1.33159e-05
-2.0561e-06
1.3368e-05
-1.58096e-06
1.3405e-05
-1.21552e-06
1.34314e-05
-9.31827e-07
1.34496e-05
-7.17465e-07
1.34618e-05
-5.49309e-07
1.34695e-05
-4.22432e-07
1.3474e-05
-3.21177e-07
1.34761e-05
-2.45989e-07
1.34765e-05
-1.8425e-07
1.34757e-05
-1.38686e-07
1.34739e-05
-1.00033e-07
1.3472e-05
-7.05015e-08
1.3469e-05
-4.77739e-08
1.34667e-05
-2.27454e-08
1.34628e-05
-1.19032e-08
1.34606e-05
1.65769e-08
1.34557e-05
1.1069e-08
1.3454e-05
5.42937e-08
1.34477e-05
2.29422e-08
1.34471e-05
9.80997e-08
1.34389e-05
2.14747e-08
1.34402e-05
1.56742e-07
1.34291e-05
-2.87332e-09
1.34333e-05
2.43447e-07
1.34187e-05
-7.03503e-08
1.34267e-05
3.70759e-07
1.34092e-05
-2.16273e-07
1.34233e-05
5.18037e-07
1.34065e-05
-5.27499e-07
1.34461e-05
4.71672e-07
1.34202e-05
-1.41261e-06
1.34519e-05
-9.38179e-07
-3.06418e-06
1.3556e-05
1.30959e-05
1.35555e-05
7.13656e-06
1.35738e-05
5.66798e-06
1.35961e-05
4.67694e-06
1.36151e-05
4.21491e-06
1.36333e-05
4.12736e-06
1.36532e-05
4.16052e-06
1.36723e-05
4.19775e-06
1.36875e-05
4.21474e-06
1.36977e-05
4.20057e-06
1.37014e-05
4.14983e-06
1.3696e-05
4.05586e-06
1.36806e-05
3.9189e-06
1.36545e-05
3.74487e-06
1.36159e-05
3.52626e-06
1.35637e-05
3.26269e-06
1.34969e-05
2.96232e-06
1.34165e-05
2.61532e-06
1.3326e-05
2.20066e-06
1.32288e-05
1.7082e-06
1.31246e-05
1.15115e-06
1.30111e-05
5.53605e-07
1.28923e-05
-5.78148e-08
1.27786e-05
-6.51094e-07
1.26805e-05
-1.1884e-06
1.26033e-05
-1.65457e-06
1.25481e-05
-2.08421e-06
1.25125e-05
-2.55258e-06
1.24889e-05
-3.12266e-06
1.24634e-05
-3.81565e-06
1.24247e-05
-4.6225e-06
1.23818e-05
-5.49825e-06
1.23692e-05
-6.32942e-06
1.24098e-05
-6.92437e-06
1.25066e-05
-7.15302e-06
1.26737e-05
-6.93001e-06
1.28545e-05
-6.17671e-06
1.30094e-05
-5.26451e-06
1.31384e-05
-4.34962e-06
1.32427e-05
-3.49413e-06
1.33227e-05
-2.73454e-06
1.33802e-05
-2.1136e-06
1.34211e-05
-1.6218e-06
1.34494e-05
-1.2439e-06
1.34692e-05
-9.5156e-07
1.34825e-05
-7.30742e-07
1.3491e-05
-5.57838e-07
1.34959e-05
-4.27376e-07
1.34984e-05
-3.23666e-07
1.3499e-05
-2.46616e-07
1.34984e-05
-1.83637e-07
1.34969e-05
-1.37206e-07
1.34948e-05
-9.78981e-08
1.34926e-05
-6.83159e-08
1.34897e-05
-4.48943e-08
1.34874e-05
-2.04418e-08
1.3484e-05
-8.40896e-09
1.34819e-05
1.86054e-08
1.34776e-05
1.53519e-08
1.34763e-05
5.56538e-08
1.34709e-05
2.83409e-08
1.34707e-05
9.82976e-08
1.34636e-05
2.85873e-08
1.34654e-05
1.54951e-07
1.34555e-05
6.93992e-09
1.34605e-05
2.38532e-07
1.34472e-05
-5.70479e-08
1.34563e-05
3.61636e-07
1.34396e-05
-1.99563e-07
1.34552e-05
5.02447e-07
1.34377e-05
-5.10004e-07
1.34761e-05
4.3328e-07
1.34458e-05
-1.38231e-06
1.34675e-05
-9.59895e-07
-3.00619e-06
1.36187e-05
1.28106e-05
1.36655e-05
7.08966e-06
1.37177e-05