/*--------------------------------*- C++ -*----------------------------------*\
| =========                 |                                                 |
| \\      /  F ield         | OpenFOAM: The Open Source CFD Toolbox           |
|  \\    /   O peration     | Version:  2.4.0                                 |
|   \\  /    A nd           | Web:      www.OpenFOAM.org                      |
|    \\/     M anipulation  |                                                 |
\*---------------------------------------------------------------------------*/
FoamFile
{
    version     2.0;
    format      ascii;
    class       volVectorField;
    location    "1.59";
    object      U;
}
// * * * * * * * * * * * * * * * * * * * * * * * * * * * * * * * * * * * * * //

dimensions      [0 1 -1 0 0 0 0];

internalField   nonuniform List<vector> 
6000
(
(0.513302 -0.0430159 -3.6003e-18)
(-0.318672 0.0670392 0)
(0.113093 -0.0275816 1.24302e-17)
(0.0046359 -0.000979136 0)
(0.018906 -0.00277742 0)
(-0.0110185 0.00133542 0)
(0.0368851 -0.00935715 5.18808e-18)
(0.112833 -0.0244623 1.29349e-21)
(0.213482 -0.0381874 0)
(0.266258 -0.0418806 0)
(0.241987 -0.0347509 3.51107e-18)
(0.180282 -0.0216875 -6.67188e-18)
(0.0510848 0.00436326 0)
(-0.155416 0.0364989 0)
(-0.360657 0.0586032 -2.93573e-19)
(-0.514658 0.0667825 0)
(-0.603524 0.06645 0)
(-0.629599 0.0600014 1.72921e-19)
(-0.600101 0.0476947 -1.07864e-19)
(-0.537831 0.0357184 0)
(-0.449327 0.0237778 1.03825e-18)
(-0.346401 0.0134113 7.70515e-19)
(-0.241681 0.00562766 -9.79125e-19)
(-0.146723 0.000618396 0)
(-0.0684733 -0.00209828 0)
(-0.00926637 -0.00319471 0)
(0.0335204 -0.00335923 6.56726e-19)
(0.0646368 -0.00295705 -6.60245e-19)
(0.0877178 -0.0023099 0)
(0.105977 -0.00149418 0)
(0.121708 -0.000522704 8.24492e-20)
(0.136329 0.000620133 0)
(0.150612 0.00195863 6.61173e-19)
(0.164889 0.00351359 -6.63519e-19)
(0.179225 0.00529719 0)
(0.193543 0.00731203 0)
(0.207706 0.00955241 1.35208e-18)
(0.221565 0.0120062 0)
(0.234985 0.0146572 1.37513e-18)
(0.247872 0.0174871 0)
(0.260182 0.0204792 0)
(0.27194 0.0236206 2.82953e-18)
(0.283233 0.0269057 -5.71453e-18)
(0.294208 0.0303378 0)
(0.30506 0.03393 0)
(0.316016 0.0377057 2.94476e-18)
(0.327324 0.0416984 0)
(0.339243 0.0459508 0)
(0.352037 0.0505155 -6.0544e-18)
(0.365989 0.0554536 -6.10283e-18)
(0.381383 0.0608078 -6.13566e-18)
(0.398577 0.0666925 -4.83239e-21)
(0.417853 0.0732105 6.12471e-18)
(0.439969 0.0805185 0)
(0.464669 0.0886885 -8.29137e-21)
(0.495187 0.0982162 -5.68768e-18)
(0.525672 0.10851 5.24452e-18)
(0.577395 0.122771 4.64134e-18)
(0.598778 0.133165 1.88727e-20)
(0.721529 0.161435 0)
(0.726536 -0.108449 2.36828e-18)
(-0.210485 0.0628837 7.01702e-18)
(0.0924969 -0.0315558 -6.03374e-18)
(-0.0316661 0.0100442 -6.29252e-18)
(0.0191245 -0.0030065 0)
(-0.0224701 0.00315936 0)
(0.0298045 -0.0122437 -5.05356e-18)
(0.100478 -0.0306299 9.52844e-18)
(0.204806 -0.0461513 0)
(0.270441 -0.0461174 0)
(0.266154 -0.03571 -3.43087e-18)
(0.161194 -0.0103785 3.26061e-18)
(-0.0930383 0.0389311 1.32222e-18)
(-0.378961 0.0805273 0)
(-0.568654 0.0961545 2.82859e-19)
(-0.654626 0.0926228 0)
(-0.677226 0.0816704 0)
(-0.663824 0.0673664 0)
(-0.626421 0.0525292 0)
(-0.557047 0.0361239 0)
(-0.463794 0.0202213 -1.05687e-20)
(-0.356383 0.00681511 0)
(-0.24707 -0.00242946 -9.5289e-19)
(-0.147081 -0.00740498 0)
(-0.0632721 -0.00923273 0)
(0.00163838 -0.00914973 6.36319e-19)
(0.0497496 -0.00809922 -6.49411e-19)
(0.0855861 -0.00658624 4.90874e-23)
(0.112787 -0.00506927 3.27302e-19)
(0.134686 -0.00359582 0)
(0.153734 -0.00211314 -8.17337e-20)
(0.171471 -0.000534829 -3.27012e-19)
(0.188739 0.00122357 -9.38049e-23)
(0.205896 0.00322499 6.57486e-19)
(0.223007 0.00550617 -6.60536e-19)
(0.239979 0.00808064 0)
(0.25666 0.0109444 0)
(0.27289 0.0140811 0)
(0.288533 0.0174658 0)
(0.3035 0.021069 0)
(0.317764 0.0248612 -2.77129e-18)
(0.331371 0.0288176 0)
(0.344438 0.0329234 2.82571e-18)
(0.357143 0.0371771 2.85216e-18)
(0.369719 0.041592 0)
(0.382431 0.0461972 0)
(0.395566 0.0510363 0)
(0.409427 0.0561664 0)
(0.424322 0.0616568 5.97934e-18)
(0.440575 0.0675895 0)
(0.458521 0.0740486 0)
(0.478573 0.0811619 -6.06054e-18)
(0.501082 0.0890473 -6.03878e-18)
(0.526866 0.0979209 0)
(0.555798 0.107866 -1.16471e-17)
(0.591122 0.119572 0)
(0.627462 0.132244 -1.02964e-17)
(0.685114 0.149837 -4.51632e-18)
(0.718138 0.164237 3.23357e-18)
(0.859511 0.199785 2.13721e-18)
(0.798452 -0.0912243 -3.35644e-19)
(-0.0794165 0.048344 -6.55883e-18)
(0.0666492 -0.0271884 0)
(-0.0610766 0.0173323 6.22074e-18)
(0.0114696 -0.00176281 0)
(-0.0315497 0.00429671 0)
(0.0175622 -0.0139113 0)
(0.0784104 -0.0337132 -4.62225e-18)
(0.180932 -0.0489539 0)
(0.250037 -0.0441181 -3.61133e-18)
(0.237609 -0.0245667 0)
(0.0797436 0.0207833 0)
(-0.227884 0.083534 -1.27838e-18)
(-0.474653 0.113366 0)
(-0.589895 0.108982 0)
(-0.643675 0.0946297 0)
(-0.668969 0.078509 0)
(-0.663185 0.0607313 0)
(-0.624365 0.0430706 0)
(-0.554847 0.0243402 4.85426e-19)
(-0.461479 0.0069143 -9.79366e-19)
(-0.35408 -0.00696328 0)
(-0.244755 -0.01545 2.34637e-21)
(-0.144503 -0.018674 -1.08578e-18)
(-0.0600304 -0.0183182 0)
(0.00590896 -0.0162431 -1.25566e-18)
(0.0553192 -0.0134537 0)
(0.0925662 -0.0106652 6.47319e-19)
(0.121221 -0.00830159 -3.24448e-19)
(0.144613 -0.00630775 0)
(0.165218 -0.00451942 0)
(0.184613 -0.00275084 3.24604e-19)
(0.20366 -0.000841975 -1.20794e-22)
(0.222711 0.00131956 0)
(0.241797 0.00379714 1.31183e-18)
(0.260777 0.00661399 0)
(0.279441 0.0097647 1.32933e-18)
(0.297577 0.0132251 0)
(0.315007 0.0169595 0)
(0.33162 0.0209264 0)
(0.347385 0.0250849 2.75405e-18)
(0.362355 0.0294011 0)
(0.376667 0.0338531 0)
(0.390526 0.0384354 -2.83493e-18)
(0.404191 0.0431604 0)
(0.417955 0.0480583 0)
(0.432137 0.0531755 2.91679e-18)
(0.447068 0.0585731 -2.94325e-18)
(0.46309 0.0643247 -2.96755e-18)
(0.480558 0.0705162 0)
(0.49984 0.0772529 0)
(0.521383 0.0846472 0)
(0.545587 0.0928323 5.98826e-18)
(0.573294 0.101996 5.91812e-18)
(0.604497 0.112321 5.78492e-18)
(0.642355 0.124184 0)
(0.681929 0.137619 5.11334e-18)
(0.743077 0.154476 8.96785e-18)
(0.779229 0.170129 0)
(0.928027 0.203141 -2.12436e-18)
(0.836319 -0.0597749 -2.62849e-19)
(0.0420778 0.0398873 6.06809e-18)
(0.0454802 -0.019633 -5.86279e-18)
(-0.0771872 0.0213162 0)
(0.00271213 -0.000737207 0)
(-0.0398516 0.00537034 0)
(0.00297915 -0.0148028 0)
(0.0528911 -0.0360092 0)
(0.15186 -0.0513721 0)
(0.221667 -0.0413831 3.55655e-18)
(0.19412 -0.00880949 3.3127e-18)
(-0.0147069 0.0568805 0)
(-0.317232 0.12131 0)
(-0.492594 0.131845 0)
(-0.571041 0.114843 2.5467e-19)
(-0.630247 0.0980549 0)
(-0.661804 0.080327 -2.68833e-19)
(-0.657556 0.0601353 2.03906e-19)
(-0.618624 0.0375253 0)
(-0.549049 0.0154874 -4.77336e-19)
(-0.455649 -0.00438281 0)
(-0.348435 -0.0194673 -7.08611e-19)
(-0.23973 -0.0277059 1.82953e-18)
(-0.140371 -0.0294902 1.07088e-18)
(-0.0566223 -0.0270963 0)
(0.00892069 -0.0230525 6.20927e-19)
(0.0582128 -0.0185611 0)
(0.095519 -0.0145435 6.41555e-19)
(0.124361 -0.0113753 0)
(0.148061 -0.00891007 0)
(0.169107 -0.00687872 0)
(0.189096 -0.00499891 3.22078e-19)
(0.208911 -0.00303366 -1.29108e-18)
(0.228911 -0.000815687 0)
(0.249116 0.00175316 -6.51202e-19)
(0.269356 0.00471451 0)
(0.289371 0.008069 -1.32044e-18)
(0.30889 0.0117894 0)
(0.327677 0.0158301 0)
(0.345567 0.0201364 0)
(0.362496 0.0246523 2.73643e-18)
(0.3785 0.0293305 0)
(0.393717 0.034138 2.79005e-18)
(0.408362 0.0390615 -2.81746e-18)
(0.42271 0.0441085 0)
(0.437077 0.0493068 -2.87266e-18)
(0.4518 0.0547033 -5.80145e-18)
(0.467232 0.0603611 2.92786e-18)
(0.483734 0.0663583 5.90137e-18)
(0.501683 0.0727865 -5.93854e-18)
(0.521469 0.0797491 -5.96501e-18)
(0.543556 0.0873722 0)
(0.568368 0.0958003 -5.95384e-18)
(0.59675 0.105219 -5.88318e-18)
(0.62877 0.115812 -5.72872e-18)
(0.667458 0.12797 0)
(0.708339 0.141648 0)
(0.770199 0.158501 -4.44302e-18)
(0.808711 0.175128 0)
(0.956682 0.205004 2.05026e-18)
(0.861381 -0.0342692 -2.45796e-19)
(0.151372 0.0360577 -8.98686e-20)
(0.0516889 -0.013748 5.80904e-18)
(-0.0842118 0.0233252 6.13128e-18)
(-0.00568019 0.000122683 0)
(-0.047617 0.00649848 -5.28187e-18)
(-0.0128936 -0.0149348 0)
(0.0255532 -0.0374971 0)
(0.118307 -0.0531355 0)
(0.186755 -0.0369414 3.53827e-18)
(0.140258 0.0108714 -3.27285e-18)
(-0.103387 0.0927169 0)
(-0.362868 0.147811 0)
(-0.480168 0.141152 0)
(-0.555549 0.120202 -2.50041e-19)
(-0.621658 0.102181 0)
(-0.654731 0.0810817 2.65614e-19)
(-0.650791 0.056792 -2.02379e-19)
(-0.611777 0.0310815 0)
(-0.54191 0.00587959 0)
(-0.447903 -0.0163015 4.59287e-19)
(-0.340138 -0.0324432 7.00647e-19)
(-0.231655 -0.0402569 -1.80522e-18)
(-0.13359 -0.0404449 -1.05838e-18)
(-0.0514633 -0.0359138 0)
(0.0127619 -0.0298773 6.15947e-19)
(0.0611157 -0.0236709 0)
(0.0977775 -0.018423 -6.37361e-19)
(0.126198 -0.0144556 3.19772e-19)
(0.149663 -0.0115347 0)
(0.17064 -0.00928692 0)
(0.190723 -0.00733341 -6.40225e-19)
(0.210796 -0.0053602 6.4151e-19)
(0.231219 -0.00314517 0)
(0.252003 -0.000555194 -6.46746e-19)
(0.272957 0.0024707 0)
(0.293794 0.0059409 1.31141e-18)
(0.314202 0.00982687 0)
(0.333898 0.0140746 0)
(0.352674 0.0186148 0)
(0.370427 0.0233747 -2.72108e-18)
(0.387171 0.0282894 -2.74695e-18)
(0.403033 0.0333117 -2.77537e-18)
(0.418229 0.0384175 1.31208e-21)
(0.433043 0.0436077 -2.82918e-18)
(0.447803 0.0489076 2.85812e-18)
(0.462858 0.0543639 5.76823e-18)
(0.478574 0.0600423 0)
(0.495325 0.0660247 -2.93372e-18)
(0.513502 0.0724066 5.90549e-18)
(0.533506 0.0792986 5.93023e-18)
(0.555814 0.0868264 0)
(0.580866 0.0951324 0)
(0.609502 0.104402 0)
(0.641844 0.114825 5.68532e-18)
(0.6808 0.126766 0)
(0.722218 0.140346 0)
(0.784121 0.156776 4.35515e-18)
(0.823917 0.173542 -3.0637e-18)
(0.96943 0.201057 -2.01453e-18)
(0.880209 -0.0134868 -2.2725e-19)
(0.249023 0.0353788 -5.60669e-18)
(0.0785584 -0.0089656 0)
(-0.0838444 0.0247621 -6.11572e-18)
(-0.0126897 0.00086257 -5.48855e-18)
(-0.0545365 0.00772368 2.09313e-21)
(-0.028751 -0.0143752 0)
(-0.00154014 -0.0382892 0)
(0.0810629 -0.0540371 0)
(0.146022 -0.030718 -3.53807e-18)
(0.0776054 0.033784 0)
(-0.17506 0.124507 0)
(-0.377904 0.165001 1.16131e-18)
(-0.462519 0.147477 0)
(-0.545351 0.126429 0)
(-0.61376 0.106598 0)
(-0.647312 0.0820006 0)
(-0.643845 0.0539446 2.32758e-19)
(-0.605063 0.024631 0)
(-0.534918 -0.00371553 4.24971e-19)
(-0.439901 -0.028241 -4.54965e-19)
(-0.330596 -0.0454496 -6.84828e-19)
(-0.221092 -0.0527876 1.78396e-18)
(-0.123758 -0.0513182 2.09879e-18)
(-0.0436615 -0.0446231 0)
(0.0184872 -0.0366179 -6.12208e-19)
(0.0651802 -0.0287021 0)
(0.100601 -0.0222426 0)
(0.128126 -0.017495 -6.36919e-19)
(0.150967 -0.0141387 0)
(0.171542 -0.0116973 0)
(0.191418 -0.00969561 6.37493e-19)
(0.211467 -0.00774248 0)
(0.232032 -0.00556047 0)
(0.253111 -0.00298111 6.43698e-19)
(0.274489 7.61252e-05 0)
(0.29585 0.00362765 -1.30482e-18)
(0.316845 0.00764419 0)
(0.337153 0.0120639 0)
(0.356528 0.0168044 0)
(0.374838 0.0217766 0)
(0.392078 0.0268995 2.73348e-18)
(0.408366 0.0321125 2.75958e-18)
(0.423922 0.037383 1.31591e-21)
(0.439035 0.0427076 2.81558e-18)
(0.45404 0.0481109 2.84099e-18)
(0.469295 0.0536416 -2.86884e-18)
(0.485173 0.0593682 0)
(0.502056 0.0653755 -2.91336e-18)
(0.52034 0.0717622 2.93074e-18)
(0.540437 0.0786392 -5.88224e-18)
(0.562827 0.0861321 0)
(0.58796 0.0943884 0)
(0.616678 0.103577 -5.76745e-18)
(0.649117 0.113928 -5.61275e-18)
(0.688173 0.125652 5.35451e-18)
(0.729763 0.139216 4.91319e-18)
(0.791621 0.154881 -4.29419e-18)
(0.832073 0.171682 3.01302e-18)
(0.975493 0.19664 0)
(0.895322 0.00530125 -2.04129e-19)
(0.335877 0.0371415 0)
(0.116978 -0.0038416 5.53348e-18)
(-0.0740517 0.0256987 6.06189e-18)
(-0.0175022 0.00157213 -7.52971e-22)
(-0.0600306 0.00900523 5.24555e-18)
(-0.0428981 -0.0133237 0)
(-0.0267127 -0.0385348 0)
(0.0411427 -0.0539824 0)
(0.100162 -0.0228152 1.78831e-18)
(0.0118917 0.0579077 1.60545e-18)
(-0.226275 0.150433 0)
(-0.37532 0.176233 -1.14458e-18)
(-0.4476 0.153683 6.7325e-19)
(-0.53682 0.133315 0)
(-0.605613 0.111141 0)
(-0.63988 0.0830246 0)
(-0.63719 0.0511948 1.87119e-20)
(-0.598978 0.0182491 0)
(-0.528896 -0.0133021 -8.25167e-19)
(-0.432968 -0.0402626 4.3642e-19)
(-0.321549 -0.0586082 6.78393e-19)
(-0.209568 -0.0654181 -2.75702e-21)
(-0.111443 -0.0621394 -1.04135e-18)
(-0.0329811 -0.0531507 0)
(0.0266625 -0.0432025 0)
(0.0710707 -0.0335726 0)
(0.104682 -0.0259328 3.16197e-19)
(0.130854 -0.0204355 6.35096e-19)
(0.152702 -0.0166719 0)
(0.172568 -0.0140641 0)
(0.191974 -0.0120418 -6.3572e-19)
(0.211763 -0.0101369 -3.18278e-19)
(0.232262 -0.00801626 0)
(0.253446 -0.00547491 0)
(0.275075 -0.00241165 0)
(0.296796 0.00119864 0)
(0.318218 0.005326 0)
(0.338979 0.00990011 0)
(0.358795 0.0148242 0)
(0.377505 0.0199919 0)
(0.39509 0.025305 0)
(0.411665 0.0306891 -1.17589e-21)
(0.427454 0.0361019 2.77612e-18)
(0.442758 0.0415352 0)
(0.457919 0.0470119 -5.65728e-18)
(0.473303 0.0525807 -2.85311e-18)
(0.489289 0.0583113 0)
(0.506261 0.0642903 2.89937e-18)
(0.524621 0.0706175 -2.91549e-18)
(0.544784 0.0774061 5.84872e-18)
(0.567235 0.084783 -5.83805e-18)
(0.59243 0.0928951 0)
(0.62121 0.101914 8.73283e-21)
(0.653732 0.112053 5.56131e-18)
(0.692842 0.123567 -1.05825e-17)
(0.734596 0.136761 -1.52114e-20)
(0.7964 0.152074 -4.19122e-18)
(0.837289 0.16869 2.90963e-18)
(0.978989 0.191809 1.85563e-18)
(0.907673 0.0226357 1.06734e-18)
(0.412821 0.0407986 0)
(0.162845 0.00198536 1.0058e-20)
(-0.0539494 0.0263523 -3.30198e-21)
(-0.0194592 0.00237432 5.49016e-18)
(-0.0634653 0.0102615 5.22816e-18)
(-0.0538205 -0.0120511 0)
(-0.0486463 -0.0383124 4.51546e-18)
(0.000360369 -0.0528442 0)
(0.0499129 -0.0134555 -1.80744e-18)
(-0.0512133 0.0813136 5.79913e-21)
(-0.258687 0.170353 -1.42319e-18)
(-0.36428 0.184022 0)
(-0.435784 0.160334 -1.31242e-18)
(-0.528213 0.140483 0)
(-0.59716 0.115721 0)
(-0.632278 0.0841346 0)
(-0.630449 0.048542 -2.4988e-19)
(-0.593069 0.0119473 0)
(-0.523536 -0.0228558 4.00266e-19)
(-0.427283 -0.0523551 -8.56187e-19)
(-0.313999 -0.0719682 0)
(-0.198747 -0.078273 -3.01019e-21)
(-0.0979505 -0.0730159 0)
(-0.0198617 -0.0615505 0)
(0.0374162 -0.0495327 -6.05859e-19)
(0.079133 -0.038215 0)
(0.110434 -0.0294328 -6.30551e-19)
(0.134827 -0.0232243 -3.16835e-19)
(0.155325 -0.0190869 -7.92928e-20)
(0.174175 -0.0163424 7.9284e-20)
(0.192843 -0.0143281 3.17287e-19)
(0.212138 -0.0125002 6.35325e-19)
(0.232365 -0.0104695 0)
(0.253479 -0.00799363 6.39751e-19)
(0.275212 -0.00494913 0)
(0.297174 -0.00130059 0)
(0.318925 0.00292207 0)
(0.340052 0.00763971 1.31795e-18)
(0.360225 0.0127399 0)
(0.379253 0.0180968 0)
(0.397099 0.0235936 2.71283e-18)
(0.41388 0.0291405 -2.74067e-18)
(0.429827 0.0346854 0)
(0.445254 0.0402156 0)
(0.460516 0.0457532 2.81975e-18)
(0.475986 0.0513483 2.84445e-18)
(0.492047 0.0570731 -2.86529e-18)
(0.509088 0.0630167 0)
(0.527511 0.0692814 0)
(0.547732 0.0759827 0)
(0.57024 0.083249 6.26446e-21)
(0.595493 0.0912282 0)
(0.624334 0.100088 5.67477e-18)
(0.656928 0.110048 0)
(0.696113 0.121319 5.23622e-18)
(0.737975 0.134335 -4.78201e-18)
(0.799786 0.14918 8.25004e-18)
(0.841046 0.165393 -2.85924e-18)
(0.981349 0.187007 -1.81425e-18)
(0.91775 0.038311 1.69999e-19)
(0.480725 0.0458156 -4.96298e-18)
(0.213356 0.00851951 -5.22459e-18)
(-0.0254328 0.0272102 -3.33651e-21)
(-0.0180598 0.00340178 -5.50961e-18)
(-0.0644364 0.0114119 -5.2052e-18)
(-0.0607753 -0.0107306 0)
(-0.0666108 -0.0375509 -4.51586e-18)
(-0.0381596 -0.0507026 0)
(-0.00354227 -0.00281711 -1.84781e-18)
(-0.106494 0.102052 -1.58348e-18)
(-0.275812 0.184898 1.4057e-18)
(-0.350151 0.189904 -1.07592e-18)
(-0.425623 0.167381 6.4039e-19)
(-0.519012 0.147711 -1.75786e-19)
(-0.588189 0.120306 -1.74648e-19)
(-0.623941 0.0852717 0)
(-0.622835 0.0459185 0)
(-0.586405 0.00568857 0)
(-0.517869 -0.032376 1.7797e-19)
(-0.422063 -0.0644899 4.19752e-19)
(-0.307805 -0.0855203 0)
(-0.189565 -0.0914402 -8.62195e-19)
(-0.0847816 -0.0840966 0)
(-0.00524531 -0.0699402 0)
(0.0504677 -0.0555803 6.02349e-19)
(0.0894223 -0.0425847 -6.20164e-19)
(0.118052 -0.0326938 3.14382e-19)
(0.140298 -0.025818 0)
(0.159125 -0.0213444 1.58326e-19)
(0.176671 -0.0184954 -1.58338e-19)
(0.194336 -0.0165189 0)
(0.212895 -0.0147976 -3.17195e-19)
(0.232634 -0.0128866 6.35864e-19)
(0.253493 -0.0105052 -6.3875e-19)
(0.275181 -0.00750574 0)
(0.297268 -0.00384048 0)
(0.319265 0.000462126 0)
(0.340697 0.00531416 -1.31553e-18)
(0.36118 0.0105861 0)
(0.380481 0.0161306 0)
(0.398545 0.0218096 -2.70819e-18)
(0.415483 0.0275165 0)
(0.431542 0.0331888 2.76029e-18)
(0.447049 0.0388093 -2.78639e-18)
(0.462374 0.0444001 0)
(0.477903 0.0500138 2.83573e-18)
(0.494021 0.0557254 5.71712e-18)
(0.511119 0.0616269 -2.87615e-18)
(0.529601 0.0678233 0)
(0.549881 0.0744317 0)
(0.57245 0.0815814 2.89468e-18)
(0.597769 0.0894201 0)
(0.62668 0.0981132 5.63155e-18)
(0.659357 0.107877 0)
(0.698624 0.118918 5.17647e-18)
(0.740619 0.131623 4.71179e-18)
(0.802458 0.146098 -4.07222e-18)
(0.844044 0.161856 0)
(0.98315 0.182253 1.74911e-18)
(0.925959 0.0523326 -1.7075e-18)
(0.540428 0.0517432 7.43791e-20)
(0.266338 0.0156611 5.10446e-18)
(0.00988241 0.0286939 -3.55127e-21)
(-0.0130814 0.00470949 -9.65579e-22)
(-0.0629092 0.0124466 0)
(-0.0638028 -0.0094143 0)
(-0.0799637 -0.0362503 0)
(-0.0717315 -0.0477552 -2.0384e-18)
(-0.0557534 0.00812594 3.7363e-18)
(-0.150653 0.119101 0)
(-0.281418 0.19501 1.38273e-18)
(-0.335562 0.19482 1.15818e-20)
(-0.415865 0.174717 -6.06633e-19)
(-0.509021 0.154891 1.55968e-20)
(-0.578278 0.124848 1.73247e-19)
(-0.614222 0.0863563 0)
(-0.613596 0.0432617 0)
(-0.57815 -0.000560537 0)
(-0.51094 -0.0418588 -1.76432e-19)
(-0.416258 -0.0766231 0)
(-0.302071 -0.0992023 6.34227e-19)
(-0.181916 -0.104923 8.47136e-19)
(-0.0730269 -0.0954995 -1.01608e-18)
(0.00969032 -0.0784316 0)
(0.0651953 -0.0614364 0)
(0.101761 -0.0466674 6.17569e-19)
(0.127547 -0.035679 0)
(0.147364 -0.0281802 3.15509e-19)
(0.164251 -0.0234113 -7.90377e-20)
(0.180243 -0.0204913 7.90622e-20)
(0.196662 -0.018583 -3.16239e-19)
(0.214249 -0.0169984 0)
(0.233279 -0.0152383 -6.35098e-19)
(0.253686 -0.0129827 0)
(0.275165 -0.0100576 0)
(0.297254 -0.00640003 1.29081e-18)
(0.319411 -0.00203483 0)
(0.341095 0.00294202 0)
(0.361855 0.00838272 0)
(0.381405 0.0141158 0)
(0.39966 0.019979 0)
(0.416729 0.0258467 0)
(0.432868 0.031645 -5.5135e-18)
(0.448424 0.0373521 2.78357e-18)
(0.463786 0.0429911 2.80738e-18)
(0.479351 0.0486175 -5.66391e-18)
(0.495511 0.0543103 -2.85445e-18)
(0.512658 0.0601648 2.87262e-18)
(0.531195 0.0662884 -2.88312e-18)
(0.551536 0.0727999 0)
(0.574171 0.0798292 2.97388e-21)
(0.599562 0.0875236 -5.70931e-18)
(0.628551 0.0960472 -5.61532e-18)
(0.661319 0.105612 -5.42781e-18)
(0.70068 0.116418 -1.02947e-17)
(0.742807 0.128835 -4.68404e-18)
(0.804693 0.142949 4.00843e-18)
(0.84658 0.158187 2.7289e-18)
(0.984627 0.177552 -1.72699e-18)
(0.932671 0.0649021 -1.48051e-19)
(0.592727 0.0582375 4.75581e-18)
(0.320107 0.0232823 2.52491e-21)
(0.051666 0.0307813 -3.93533e-21)
(-0.0047372 0.00681645 5.48425e-18)
(-0.0590655 0.0134201 5.13508e-18)
(-0.0634401 -0.00810471 -4.73137e-18)
(-0.0883975 -0.0345207 2.24436e-18)
(-0.0983186 -0.0442943 -8.25752e-21)
(-0.101107 0.018363 -1.88169e-18)
(-0.182576 0.132205 -1.59354e-18)
(-0.27881 0.201727 -1.37004e-18)
(-0.321474 0.199335 2.06617e-18)
(-0.40574 0.182222 1.27303e-20)
(-0.498041 0.161957 1.56768e-19)
(-0.566969 0.129273 0)
(-0.602617 0.0873135 -3.85579e-19)
(-0.602242 0.0405264 0)
(-0.567788 -0.00681697 8.5164e-20)
(-0.502141 -0.0512932 -1.51309e-19)
(-0.409081 -0.0887109 -3.82421e-19)
(-0.295816 -0.112934 -7.43535e-21)
(-0.175 -0.118649 -8.38783e-19)
(-0.0629909 -0.107267 1.00859e-18)
(0.0238775 -0.0871667 0)
(0.0807685 -0.0672141 -5.96259e-19)
(0.115778 -0.0504858 0)
(0.138804 -0.0383675 0)
(0.156005 -0.0302819 -3.14852e-19)
(0.170741 -0.0252602 0)
(0.184978 -0.0223034 0)
(0.199945 -0.0204928 3.15897e-19)
(0.216346 -0.0190746 0)
(0.234452 -0.0174971 0)
(0.254204 -0.0154008 6.36435e-19)
(0.275297 -0.0125827 0)
(0.29725 -0.00896151 -1.28905e-18)
(0.319472 -0.00455494 0)
(0.341351 0.000534591 1.31041e-18)
(0.362359 0.00614035 0)
(0.382144 0.0120641 0)
(0.400581 0.0181159 0)
(0.417765 0.024148 0)
(0.433964 0.0300732 2.75403e-18)
(0.449547 0.0358654 0)
(0.464923 0.0415487 -5.60986e-18)
(0.480505 0.0471832 2.82949e-18)
(0.496692 0.0528524 -2.84912e-18)
(0.513879 0.0586553 2.86675e-18)
(0.532467 0.0647023 2.8811e-18)
(0.552868 0.0711134 0)
(0.57557 0.0780195 2.87712e-18)
(0.601036 0.0855669 8.54995e-18)
(0.630109 0.0939184 -5.5906e-18)
(0.662974 0.10328 5.41663e-18)
(0.702436 0.113851 5.12782e-18)
(0.744698 0.125971 0)
(0.806644 0.139737 -3.98918e-18)
(0.848808 0.154431 -5.39972e-18)
(0.985895 0.172898 0)
(0.938195 0.0762221 2.25938e-18)
(0.638372 0.065032 0)
(0.373341 0.0312482 1.5258e-22)
(0.0981403 0.0336168 -4.38857e-21)
(0.00935721 0.00947936 -5.41755e-18)
(-0.0530223 0.0144324 -1.02197e-17)
(-0.060363 -0.00679256 9.42065e-18)
(-0.0921978 -0.0324801 -2.23706e-18)
(-0.116543 -0.0406288 2.06016e-18)
(-0.136018 0.0270667 0)
(-0.202776 0.141636 -1.59148e-20)
(-0.270612 0.206012 0)
(-0.307986 0.203754 -2.02307e-18)
(-0.394813 0.189772 5.80049e-19)
(-0.485838 0.168847 0)
(-0.553895 0.133503 0)
(-0.588821 0.0880903 3.83072e-19)
(-0.588524 0.0376908 0)
(-0.555081 -0.0130793 -8.45784e-20)
(-0.491189 -0.060659 1.50025e-19)
(-0.400115 -0.100712 1.1062e-20)
(-0.28837 -0.126643 -6.13575e-19)
(-0.167915 -0.132508 -8.21873e-19)
(-0.054237 -0.119361 0)
(0.0366577 -0.0962411 0)
(0.0963112 -0.0730484 5.93169e-19)
(0.130942 -0.0541029 0)
(0.1516 -0.0407604 3.11801e-19)
(0.166125 -0.0321032 -3.14165e-19)
(0.178556 -0.0268699 7.87491e-20)
(0.190883 -0.0239107 -7.87983e-20)
(0.204239 -0.0222258 3.15321e-19)
(0.219274 -0.0210015 -3.15697e-19)
(0.23626 -0.0196373 6.32953e-19)
(0.255159 -0.0177344 -6.35707e-19)
(0.275684 -0.0150591 0)
(0.297348 -0.0115072 0)
(0.319524 -0.00708539 0)
(0.341531 -0.00189945 -4.88449e-22)
(0.362755 0.00386523 1.32082e-18)
(0.382766 0.00998124 0)
(0.401383 0.0162271 0)
(0.418679 0.0224291 0)
(0.434929 0.0284845 0)
(0.450524 0.0343618 0)
(0.465896 0.0400872 1.47491e-21)
(0.481476 0.0457259 0)
(0.497677 0.0513671 5.69459e-18)
(0.514893 0.0571146 -5.7297e-18)
(0.533525 0.0630813 -2.87567e-18)
(0.553982 0.0693892 0)
(0.576751 0.0761694 0)
(0.602294 0.0835675 -5.68885e-18)
(0.631453 0.0917448 7.62631e-21)
(0.664416 0.100902 -5.39263e-18)
(0.703983 0.111236 5.09857e-18)
(0.746382 0.123054 4.61692e-18)
(0.808391 0.13648 -3.94667e-18)
(0.850812 0.150619 5.33851e-18)
(0.987015 0.168279 1.66136e-18)
(0.942783 0.0864416 1.30738e-19)
(0.678064 0.0719167 -4.46165e-18)
(0.425025 0.0394327 -9.59207e-18)
(0.147815 0.0373097 -5.02676e-21)
(0.0296672 0.0125523 5.32208e-18)
(-0.0446403 0.0156268 5.09284e-18)
(-0.0551379 -0.00546272 -2.34742e-18)
(-0.0920965 -0.0302321 0)
(-0.126674 -0.0369627 0)
(-0.1593 0.0340556 1.95306e-18)
(-0.212759 0.147981 1.59178e-18)
(-0.258772 0.208662 0)
(-0.294829 0.208205 9.96154e-19)
(-0.382822 0.197255 0)
(-0.472184 0.175499 0)
(-0.53882 0.137477 0)
(-0.572695 0.0886569 0)
(-0.572354 0.0347509 -3.92537e-19)
(-0.539951 -0.0193337 -6.9555e-20)
(-0.477982 -0.069929 -1.22647e-19)
(-0.389193 -0.112589 1.16063e-20)
(-0.279403 -0.140267 0)
(-0.160026 -0.146398 8.13584e-19)
(-0.045982 -0.131702 0)
(0.0479272 -0.105663 0)
(0.111096 -0.0790642 5.90517e-19)
(0.146623 -0.0576145 -6.11126e-19)
(0.165611 -0.0428852 -3.1096e-19)
(0.177577 -0.0336354 3.13531e-19)
(0.187609 -0.0282244 -1.57238e-19)
(0.197913 -0.0252977 1.57374e-19)
(0.209539 -0.023765 -3.14975e-19)
(0.22307 -0.022759 3.15368e-19)
(0.238771 -0.021636 -2.85146e-22)
(0.256634 -0.0199599 -6.34446e-19)
(0.276408 -0.0174644 0)
(0.297623 -0.0140186 0)
(0.319628 -0.00961264 0)
(0.341682 -0.00435156 -2.61257e-18)
(0.363083 0.00156212 -1.31923e-18)
(0.383308 0.00787016 0)
(0.402107 0.0143155 0)
(0.419521 0.0206944 -2.71958e-18)
(0.43582 0.0268851 0)
(0.451418 0.0328494 0)
(0.466773 0.0386155 5.59954e-18)
(0.482338 0.0442554 -2.8228e-18)
(0.498539 0.0498649 -5.68977e-18)
(0.515773 0.055553 1.95198e-21)
(0.534441 0.0614362 5.74819e-18)
(0.554951 0.0676381 2.8761e-18)
(0.577783 0.07429 0)
(0.603401 0.0815365 2.84207e-18)
(0.632645 0.0895376 5.57666e-18)
(0.665706 0.0984871 5.38992e-18)
(0.705379 0.108584 -5.09487e-18)
(0.747913 0.120096 -4.61163e-18)
(0.809987 0.133183 3.94035e-18)
(0.852644 0.146769 -2.65278e-18)
(0.988021 0.163688 -1.65594e-18)
(0.946642 0.0956822 1.2347e-19)
(0.712462 0.0787309 4.42263e-18)
(0.474402 0.0477169 3.85661e-21)
(0.199474 0.0418524 -5.79777e-21)
(0.0558121 0.0161859 0)
(-0.03344 0.0170555 0)
(-0.0481375 -0.00408526 -2.19681e-21)
(-0.0889315 -0.0278559 0)
(-0.13 -0.0333926 0)
(-0.171803 0.0394719 2.68431e-20)
(-0.214441 0.151933 0)
(-0.244651 0.210285 0)
(-0.281632 0.212724 9.70694e-19)
(-0.369596 0.204576 0)
(-0.456899 0.181859 0)
(-0.521628 0.141153 0)
(-0.55421 0.0890008 0)
(-0.553738 0.0317129 -2.94252e-20)
(-0.522403 -0.0255608 6.90694e-20)
(-0.462504 -0.0790728 2.2948e-19)
(-0.376264 -0.1243 1.20719e-20)
(-0.26879 -0.153756 5.76257e-19)
(-0.151 -0.160233 0)
(-0.0375229 -0.144182 9.75637e-19)
(0.0580402 -0.115376 0)
(0.124691 -0.0853457 -5.87468e-19)
(0.162187 -0.0611309 -1.5582e-22)
(0.180427 -0.0447977 0)
(0.190159 -0.0348855 0)
(0.197787 -0.0293142 1.84268e-23)
(0.205988 -0.0264533 -2.73755e-23)
(0.215802 -0.0250985 1.57187e-19)
(0.227731 -0.0243322 0)
(0.242018 -0.0234745 -6.31346e-19)
(0.258688 -0.022056 6.33758e-19)
(0.27754 -0.0197771 0)
(0.29814 -0.0164765 -1.28206e-18)
(0.319838 -0.0121219 0)
(0.341844 -0.00681219 5.21356e-22)
(0.363369 -0.000764039 0)
(0.383791 0.00573283 1.33021e-18)
(0.402776 0.0123823 1.34418e-18)
(0.420314 0.0189454 1.11435e-21)
(0.436669 0.0252777 -2.74412e-18)
(0.452268 0.0313322 0)
(0.467598 0.0371393 -1.43516e-21)
(0.483138 0.0427779 2.82209e-18)
(0.499326 0.0483524 1.7336e-21)
(0.51657 0.0539777 2.86098e-18)
(0.535267 0.0597742 -2.13409e-21)
(0.555822 0.0658673 -2.39788e-21)
(0.578714 0.0723886 0)
(0.604403 0.0794814 0)
(0.633729 0.087304 0)
(0.666887 0.0960443 0)
(0.706664 0.1059 0)
(0.749329 0.117107 4.58421e-18)
(0.811467 0.129854 0)
(0.85434 0.142895 0)
(0.98894 0.159119 -1.62856e-18)
(0.949941 0.104057 -1.42849e-18)
(0.742179 0.085358 0)
(0.52093 0.0559878 5.47081e-21)
(0.25209 0.0471581 -6.61658e-21)
(0.0871933 0.0205023 0)
(-0.0187045 0.0187771 2.52107e-18)
(-0.0395385 -0.00261272 -2.32918e-18)
(-0.0834183 -0.0254101 0)
(-0.128021 -0.0299701 0)
(-0.175427 0.0436066 -1.96167e-18)
(-0.209738 0.154147 0)
(-0.22914 0.211312 0)
(-0.268051 0.217292 -9.61528e-19)
(-0.355017 0.211662 0)
(-0.439863 0.18788 -6.39952e-20)
(-0.502291 0.144507 0)
(-0.533407 0.0891205 0)
(-0.532737 0.0285882 -3.00524e-20)
(-0.502488 -0.0317392 0)
(-0.444783 -0.0880595 -1.06977e-19)
(-0.361324 -0.135809 3.34344e-19)
(-0.256495 -0.167064 -1.13239e-18)
(-0.140699 -0.173953 7.82518e-19)
(-0.0284151 -0.156686 -9.66465e-19)
(0.0675402 -0.125298 0)
(0.137006 -0.0919212 -5.8455e-19)
(0.177111 -0.0647537 1.21437e-18)
(0.195583 -0.0465754 0)
(0.203612 -0.035879 -1.56167e-19)
(0.208948 -0.0301377 7.83681e-20)
(0.21501 -0.0273704 -7.84582e-20)
(0.222959 -0.0262189 -1.57021e-19)
(0.233221 -0.0257111 0)
(0.246002 -0.0251388 -6.30098e-19)
(0.261352 -0.0240045 6.32479e-19)
(0.279129 -0.0219772 0)
(0.298955 -0.0188616 1.28052e-18)
(0.320204 -0.0145973 0)
(0.342053 -0.00927042 1.30223e-18)
(0.363637 -0.00310734 0)
(0.384228 0.00357138 -1.32879e-18)
(0.403398 0.0104275 -1.34295e-18)
(0.421071 0.0171821 1.10921e-21)
(0.437491 0.0236631 2.74252e-18)
(0.453094 0.0298124 0)
(0.468397 0.0356615 -2.79573e-18)
(0.483903 0.0412975 0)
(0.500071 0.0468339 2.84124e-18)
(0.517314 0.0523932 0)
(0.536033 0.0581 -2.87031e-18)
(0.556627 0.0640817 -5.7442e-18)
(0.579575 0.0704701 0)
(0.605332 0.0774072 0)
(0.634737 0.0850494 0)
(0.667988 0.0935783 2.68134e-18)
(0.707865 0.103191 0)
(0.750657 0.114091 -1.18768e-20)
(0.812855 0.126497 0)
(0.855926 0.139005 2.59788e-18)
(0.989789 0.154568 1.62719e-18)
(0.95282 0.11167 0)
(0.767787 0.0917181 4.20605e-18)
(0.564242 0.0641409 4.57671e-18)
(0.304771 0.0531028 -7.42449e-21)
(0.123173 0.0255051 0)
(0.00017877 0.0209058 -2.49829e-18)
(-0.0293498 -0.000983072 0)
(-0.0760776 -0.0229346 2.18885e-18)
(-0.122078 -0.0267287 2.10532e-18)
(-0.172271 0.0467525 1.99972e-18)
(-0.200322 0.155158 1.63881e-18)
(-0.212772 0.212031 1.32117e-18)
(-0.253803 0.221868 0)
(-0.339005 0.218452 0)
(-0.42102 0.193531 6.33508e-20)
(-0.480847 0.147525 0)
(-0.510375 0.0890218 0)
(-0.509454 0.0253911 4.44711e-19)
(-0.480299 -0.0378476 0)
(-0.424878 -0.09686 -7.77226e-20)
(-0.344399 -0.147076 0)
(-0.242513 -0.180149 5.56527e-19)
(-0.129075 -0.187504 -7.75365e-19)
(-0.0184376 -0.16912 0)
(0.0769407 -0.135333 0)
(0.148221 -0.0987653 -3.70638e-23)
(0.19106 -0.0685566 -6.05184e-19)
(0.210621 -0.0483057 0)
(0.217625 -0.0366609 1.55933e-19)
(0.220921 -0.0307043 7.82322e-20)
(0.22487 -0.0280464 -7.83159e-20)
(0.230923 -0.0271219 0)
(0.239483 -0.0268901 0)
(0.250701 -0.0266192 3.19932e-22)
(0.264636 -0.0257914 -3.22313e-22)
(0.281209 -0.0240471 0)
(0.300115 -0.0211556 0)
(0.32077 -0.0170225 1.28789e-18)
(0.342346 -0.0117141 0)
(0.36391 -0.00546059 0)
(0.384633 0.00138873 0)
(0.403979 0.00845137 0)
(0.421796 0.0154037 2.71128e-18)
(0.438291 0.0220411 2.73856e-18)
(0.453906 0.0282906 0)
(0.469182 0.0341837 0)
(0.48465 0.0398164 2.81608e-18)
(0.500791 0.0453123 0)
(0.518027 0.0508025 0)
(0.53676 0.0564168 -2.86593e-18)
(0.557389 0.0622846 2.87077e-18)
(0.580387 0.0685379 0)
(0.606208 0.0753174 0)
(0.63569 0.0827772 0)
(0.66903 0.091093 -2.68129e-18)
(0.709003 0.10046 2.52608e-18)
(0.751916 0.111053 -9.12957e-18)
(0.81417 0.123115 0)
(0.857422 0.135104 -2.59641e-18)
(0.990581 0.150035 -1.60427e-18)
(0.95539 0.118616 0)
(0.789816 0.0977602 -4.18282e-18)
(0.604124 0.072083 0)
(0.356739 0.059547 -7.23274e-18)
(0.163007 0.0311651 0)
(0.0236213 0.0235167 -2.46493e-18)
(-0.017448 0.000892874 0)
(-0.06723 -0.0204501 -2.1801e-18)
(-0.113252 -0.0236879 -2.09798e-18)
(-0.164184 0.0491505 -1.98385e-18)
(-0.187538 0.155368 -1.63006e-18)
(-0.195826 0.212617 -1.31167e-18)
(-0.238682 0.226397 0)
(-0.321514 0.2249 0)
(-0.400365 0.198788 0)
(-0.457375 0.150206 0)
(-0.485235 0.0887154 0)
(-0.484026 0.0221377 -2.5125e-19)
(-0.455958 -0.0438657 0)
(-0.402878 -0.105448 7.7146e-20)
(-0.325538 -0.158069 0)