/*--------------------------------*- C++ -*----------------------------------*\
| =========                 |                                                 |
| \\      /  F ield         | OpenFOAM: The Open Source CFD Toolbox           |
|  \\    /   O peration     | Version:  2.4.0                                 |
|   \\  /    A nd           | Web:      www.OpenFOAM.org                      |
|    \\/     M anipulation  |                                                 |
\*---------------------------------------------------------------------------*/
FoamFile
{
    version     2.0;
    format      ascii;
    class       volVectorField;
    location    "1.52";
    object      U;
}
// * * * * * * * * * * * * * * * * * * * * * * * * * * * * * * * * * * * * * //

dimensions      [0 1 -1 0 0 0 0];

internalField   nonuniform List<vector> 
6000
(
(0.990441 -0.000273757 0)
(0.970231 0.0020497 0)
(0.948316 0.00334879 0)
(0.925587 0.00413663 0)
(0.903364 0.00452023 0)
(0.882322 0.00453154 0)
(0.862685 0.00428822 0)
(0.844553 0.00390126 0)
(0.82799 0.00344516 0)
(0.812998 0.00296863 0)
(0.79952 0.00250387 0)
(0.78746 0.00207086 0)
(0.7767 0.00168054 0)
(0.767117 0.0013377 0)
(0.758585 0.00104306 0)
(0.750981 0.000794886 0)
(0.744191 0.000589983 0)
(0.738106 0.000424424 0)
(0.732628 0.000293979 0)
(0.72767 0.000194379 0)
(0.723152 0.000121461 0)
(0.719005 7.12346e-05 0)
(0.715168 3.99359e-05 0)
(0.711589 2.40725e-05 0)
(0.708223 2.04474e-05 0)
(0.705033 2.62185e-05 0)
(0.701986 3.88889e-05 0)
(0.699058 5.62899e-05 0)
(0.696228 7.65863e-05 0)
(0.693477 9.82973e-05 0)
(0.690791 0.000120304 0)
(0.688159 0.00014184 0)
(0.685568 0.00016247 0)
(0.683007 0.000182064 0)
(0.680466 0.000200774 0)
(0.677929 0.000219015 0)
(0.675382 0.000237455 0)
(0.672804 0.000257012 0)
(0.67017 0.000278871 0)
(0.667448 0.000304513 0)
(0.664597 0.000335763 0)
(0.661565 0.000374867 0)
(0.658286 0.000424592 0)
(0.654675 0.000488378 0)
(0.650624 0.00057054 0)
(0.645996 0.000676533 0)
(0.640613 0.000813327 0)
(0.63425 0.000989887 0)
(0.626615 0.00121785 0)
(0.617334 0.00151242 0)
(0.605925 0.00189357 0)
(0.591756 0.00238785 0)
(0.574024 0.00302965 0)
(0.551629 0.00386598 0)
(0.523346 0.00494626 0)
(0.486958 0.00635704 0)
(0.442024 0.0080369 0)
(0.380611 0.0102648 0)
(0.320588 0.0121796 0)
(0.182144 0.0111567 0)
(1.00417 0.00480515 0)
(1.01373 0.00718215 0)
(1.0207 0.00682435 0)
(1.02486 0.00641226 0)
(1.02687 0.0060919 0)
(1.02702 0.00572672 0)
(1.02543 0.0053509 0)
(1.02232 0.00499901 0)
(1.01792 0.00467253 0)
(1.01248 0.00436642 0)
(1.00623 0.00407884 0)
(0.999349 0.0038094 0)
(0.992003 0.00355769 0)
(0.984333 0.00332308 0)
(0.976458 0.00310484 0)
(0.968478 0.0029021 0)
(0.960477 0.00271395 0)
(0.952526 0.00253942 0)
(0.944682 0.00237761 0)
(0.936994 0.00222762 0)
(0.929502 0.00208867 0)
(0.922236 0.00196005 0)
(0.915221 0.0018411 0)
(0.908473 0.00173127 0)
(0.902002 0.00163003 0)
(0.895814 0.00153685 0)
(0.889908 0.00145139 0)
(0.884277 0.00137346 0)
(0.878913 0.00130293 0)
(0.873803 0.00123973 0)
(0.868933 0.00118383 0)
(0.864285 0.00113522 0)
(0.85984 0.00109396 0)
(0.85558 0.00106021 0)
(0.851483 0.00103425 0)
(0.847529 0.00101654 0)
(0.843696 0.00100781 0)
(0.839958 0.00100914 0)
(0.836289 0.00102207 0)
(0.832661 0.00104869 0)
(0.829039 0.00109187 0)
(0.825383 0.00115539 0)
(0.821645 0.00124423 0)
(0.817767 0.00136487 0)
(0.813675 0.00152579 0)
(0.809277 0.001738 0)
(0.804456 0.00201586 0)
(0.799063 0.00237813 0)
(0.792903 0.00284947 0)
(0.785723 0.00346246 0)
(0.777191 0.00426051 0)
(0.76686 0.00530164 0)
(0.754138 0.00666454 0)
(0.738164 0.00845384 0)
(0.717901 0.010811 0)
(0.691261 0.013908 0)
(0.657304 0.0179456 0)
(0.607174 0.0229868 0)
(0.554748 0.0300402 0)
(0.422484 0.0304579 0)
(1.00036 0.00116234 0)
(1.00263 0.00202372 0)
(1.00544 0.00239372 0)
(1.00803 0.00304093 0)
(1.01052 0.00370471 0)
(1.013 0.00418587 0)
(1.01529 0.00451 0)
(1.01726 0.00472086 0)
(1.01884 0.00483324 0)
(1.02001 0.00486111 0)
(1.02076 0.0048237 0)
(1.02109 0.00473968 0)
(1.021 0.00462419 0)
(1.02051 0.00448884 0)
(1.01964 0.00434232 0)
(1.01841 0.00419093 0)
(1.01683 0.00403903 0)
(1.01492 0.00388953 0)
(1.0127 0.00374422 0)
(1.01019 0.00360418 0)
(1.00741 0.00346991 0)
(1.00437 0.00334163 0)
(1.00111 0.00321941 0)
(0.997629 0.00310308 0)
(0.993965 0.00299233 0)
(0.990138 0.00288671 0)
(0.986173 0.00278594 0)
(0.982095 0.00268989 0)
(0.977929 0.00259851 0)
(0.973698 0.00251188 0)
(0.969425 0.00243018 0)
(0.965131 0.00235376 0)
(0.960834 0.00228314 0)
(0.956548 0.00221906 0)
(0.952284 0.00216252 0)
(0.94805 0.00211486 0)
(0.943847 0.00207781 0)
(0.939672 0.00205362 0)
(0.935515 0.00204513 0)
(0.931363 0.002056 0)
(0.92719 0.00209088 0)
(0.922965 0.00215568 0)
(0.918645 0.00225798 0)
(0.914174 0.00240749 0)
(0.90948 0.00261664 0)
(0.904473 0.00290151 0)
(0.899035 0.00328289 0)
(0.893019 0.0037879 0)
(0.886238 0.0044521 0)
(0.878452 0.00532241 0)
(0.869358 0.00646146 0)
(0.858564 0.00795319 0)
(0.84558 0.00991261 0)
(0.829733 0.0124936 0)
(0.810293 0.0159192 0)
(0.785781 0.020448 0)
(0.755953 0.0265784 0)
(0.714022 0.0342596 0)
(0.672099 0.0463548 0)
(0.568109 0.0512059 0)
(1.00025 0.00137449 0)
(1.00159 0.00317762 0)
(1.00312 0.00385962 0)
(1.00435 0.00422169 0)
(1.00551 0.0044898 0)
(1.00681 0.00462059 0)
(1.00821 0.00464384 0)
(1.00962 0.00461185 0)
(1.01101 0.00454653 0)
(1.01236 0.00445806 0)
(1.01365 0.0043568 0)
(1.01486 0.00425151 0)
(1.01598 0.0041478 0)
(1.017 0.00404886 0)
(1.0179 0.00395649 0)
(1.01869 0.00387152 0)
(1.01935 0.00379416 0)
(1.01989 0.00372412 0)
(1.02031 0.0036608 0)
(1.02059 0.00360337 0)
(1.02075 0.00355096 0)
(1.02077 0.00350264 0)
(1.02065 0.00345757 0)
(1.02039 0.00341487 0)
(1.01999 0.00337374 0)
(1.01945 0.00333354 0)
(1.01875 0.00329379 0)
(1.0179 0.00325416 0)
(1.01689 0.00321453 0)
(1.01573 0.00317494 0)
(1.01441 0.00313572 0)
(1.01292 0.00309743 0)
(1.01128 0.00306096 0)
(1.00947 0.00302751 0)
(1.0075 0.0029987 0)
(1.00536 0.00297659 0)
(1.00306 0.00296379 0)
(1.00059 0.00296354 0)
(0.997945 0.00297992 0)
(0.995119 0.00301806 0)
(0.992096 0.00308438 0)
(0.988858 0.00318702 0)
(0.985373 0.00333632 0)
(0.981604 0.00354541 0)
(0.977493 0.00383108 0)
(0.972968 0.00421486 0)
(0.967929 0.00472447 0)
(0.962247 0.00539582 0)
(0.955752 0.00627561 0)
(0.948226 0.00742496 0)
(0.939384 0.00892464 0)
(0.928857 0.0108816 0)
(0.916185 0.0134411 0)
(0.900741 0.0167937 0)
(0.881857 0.0212189 0)
(0.858267 0.0270227 0)
(0.829874 0.0348916 0)
(0.791429 0.044666 0)
(0.7538 0.0604664 0)
(0.66978 0.0696035 0)
(1.00018 0.00117351 0)
(1.00125 0.00265202 0)
(1.00255 0.00313695 0)
(1.00361 0.00339465 0)
(1.00455 0.00368378 0)
(1.00554 0.00390459 0)
(1.00659 0.00402484 0)
(1.00763 0.00408063 0)
(1.00866 0.00409624 0)
(1.00967 0.00408009 0)
(1.01068 0.00403964 0)
(1.01168 0.00398306 0)
(1.01266 0.00391702 0)
(1.01361 0.00384632 0)
(1.01453 0.00377453 0)
(1.01543 0.00370426 0)
(1.0163 0.00363733 0)
(1.01713 0.00357483 0)
(1.01793 0.00351736 0)
(1.0187 0.00346511 0)
(1.01942 0.00341803 0)
(1.02011 0.00337586 0)
(1.02075 0.00333822 0)
(1.02135 0.00330471 0)
(1.0219 0.00327494 0)
(1.0224 0.00324863 0)
(1.02285 0.00322553 0)
(1.02324 0.00320546 0)
(1.02358 0.00318839 0)
(1.02385 0.00317443 0)
(1.02404 0.00316386 0)
(1.02417 0.0031572 0)
(1.02421 0.00315524 0)
(1.02416 0.00315909 0)
(1.02402 0.00317029 0)
(1.02377 0.00319089 0)
(1.0234 0.0032236 0)
(1.0229 0.00327194 0)
(1.02225 0.00334044 0)
(1.02143 0.003435 0)
(1.02042 0.00356316 0)
(1.01918 0.0037346 0)
(1.01768 0.00396177 0)
(1.01588 0.0042606 0)
(1.01371 0.00465156 0)
(1.01109 0.00516098 0)
(1.00792 0.00582282 0)
(1.00409 0.00668095 0)
(0.999425 0.00779241 0)
(0.993721 0.00923154 0)
(0.986712 0.0110961 0)
(0.978054 0.0135147 0)
(0.967314 0.0166602 0)
(0.953905 0.0207566 0)
(0.937194 0.0261287 0)
(0.916014 0.0331177 0)
(0.890189 0.0425111 0)
(0.855293 0.0540595 0)
(0.82052 0.0723808 0)
(0.749284 0.0846113 0)
(1.00014 0.000986939 0)
(1.00102 0.00234199 0)
(1.00218 0.00292823 0)
(1.00322 0.00327082 0)
(1.00413 0.00359505 0)
(1.00506 0.00382756 0)
(1.00603 0.0039415 0)
(1.00699 0.00398007 0)
(1.00792 0.00397618 0)
(1.00883 0.00394143 0)
(1.00972 0.0038836 0)
(1.01059 0.00381147 0)
(1.01145 0.00373255 0)
(1.01229 0.00365211 0)
(1.01311 0.0035737 0)
(1.01392 0.00349969 0)
(1.01471 0.00343154 0)
(1.01549 0.00336995 0)
(1.01626 0.00331514 0)
(1.01701 0.00326692 0)
(1.01776 0.00322492 0)
(1.01849 0.00318862 0)
(1.01921 0.00315745 0)
(1.01991 0.00313088 0)
(1.0206 0.00310843 0)
(1.02127 0.00308972 0)
(1.02193 0.00307445 0)
(1.02256 0.00306245 0)
(1.02318 0.00305375 0)
(1.02377 0.00304854 0)
(1.02434 0.00304727 0)
(1.02487 0.00305066 0)
(1.02537 0.00305975 0)
(1.02583 0.00307598 0)
(1.02625 0.00310128 0)
(1.02662 0.00313818 0)
(1.02692 0.00318995 0)
(1.02715 0.00326083 0)
(1.0273 0.00335622 0)
(1.02735 0.00348306 0)
(1.02728 0.00365021 0)
(1.02706 0.00386897 0)
(1.02666 0.00415384 0)
(1.02605 0.00452336 0)
(1.02516 0.00500135 0)
(1.02393 0.00561842 0)
(1.02229 0.00641406 0)
(1.02011 0.00743929 0)
(1.01727 0.00876037 0)
(1.01358 0.0104636 0)
(1.00882 0.0126623 0)
(1.00268 0.0155048 0)
(0.994793 0.0191899 0)
(0.984638 0.0239737 0)
(0.971641 0.0302233 0)
(0.954737 0.0383208 0)
(0.933677 0.0491284 0)
(0.904524 0.0623582 0)
(0.874704 0.0827316 0)
(0.814755 0.0973153 0)
(1.00011 0.000842191 0)
(1.00084 0.00209722 0)
(1.00189 0.00272308 0)
(1.00289 0.00306789 0)
(1.00378 0.00335926 0)
(1.00468 0.00357136 0)
(1.00563 0.00368004 0)
(1.00656 0.00371977 0)
(1.00748 0.00372118 0)
(1.00836 0.00369495 0)
(1.00923 0.00364718 0)
(1.01007 0.00358549 0)
(1.0109 0.0035168 0)
(1.0117 0.00344594 0)
(1.01248 0.00337614 0)
(1.01324 0.00330959 0)
(1.01399 0.00324768 0)
(1.01473 0.00319122 0)
(1.01546 0.00314053 0)
(1.01617 0.00309559 0)
(1.01688 0.00305621 0)
(1.01758 0.00302205 0)
(1.01827 0.0029927 0)
(1.01896 0.00296779 0)
(1.01964 0.00294698 0)
(1.02031 0.00292998 0)
(1.02097 0.00291663 0)
(1.02163 0.00290688 0)
(1.02227 0.00290086 0)
(1.0229 0.00289889 0)
(1.02352 0.00290154 0)
(1.02413 0.00290965 0)
(1.02471 0.00292442 0)
(1.02528 0.00294749 0)
(1.02581 0.002981 0)
(1.02631 0.00302777 0)
(1.02677 0.00309144 0)
(1.02718 0.00317672 0)
(1.02754 0.00328959 0)
(1.02781 0.00343777 0)
(1.028 0.0036311 0)
(1.02807 0.00388216 0)
(1.028 0.00420709 0)
(1.02776 0.00462655 0)
(1.0273 0.00516707 0)
(1.02656 0.00586277 0)
(1.02548 0.00675762 0)
(1.02397 0.00790848 0)
(1.02191 0.0093891 0)
(1.01917 0.0112955 0)
(1.01557 0.0137533 0)
(1.01088 0.0169275 0)
(1.00483 0.021038 0)
(0.997028 0.0263685 0)
(0.987089 0.0333242 0)
(0.974194 0.0423311 0)
(0.958244 0.0543245 0)
(0.935908 0.0690459 0)
(0.913121 0.0912112 0)
(0.866212 0.108087 0)
(1.00009 0.000728813 0)
(1.00071 0.00188098 0)
(1.00166 0.00251236 0)
(1.00261 0.00285664 0)
(1.00348 0.00313202 0)
(1.00436 0.00334175 0)
(1.00529 0.0034588 0)
(1.00621 0.0035067 0)
(1.00711 0.00351445 0)
(1.00799 0.00349424 0)
(1.00885 0.00345228 0)
(1.00969 0.00339582 0)
(1.0105 0.0033317 0)
(1.01129 0.00326479 0)
(1.01207 0.00319836 0)
(1.01282 0.00313463 0)
(1.01356 0.00307512 0)
(1.01428 0.00302069 0)
(1.01499 0.00297175 0)
(1.01569 0.00292838 0)
(1.01638 0.00289042 0)
(1.01707 0.00285758 0)
(1.01774 0.00282954 0)
(1.01841 0.00280595 0)
(1.01907 0.0027865 0)
(1.01973 0.00277097 0)
(1.02038 0.00275925 0)
(1.02102 0.00275135 0)
(1.02165 0.00274747 0)
(1.02228 0.00274801 0)
(1.0229 0.00275363 0)
(1.0235 0.0027653 0)
(1.02409 0.00278436 0)
(1.02466 0.00281262 0)
(1.02521 0.00285247 0)
(1.02573 0.00290701 0)
(1.02622 0.00298024 0)
(1.02667 0.00307731 0)
(1.02706 0.00320481 0)
(1.02739 0.00337115 0)
(1.02764 0.00358711 0)
(1.02779 0.00386642 0)
(1.02781 0.00422667 0)
(1.02767 0.00469036 0)
(1.02733 0.00528632 0)
(1.02674 0.00605154 0)
(1.02584 0.00703361 0)
(1.02454 0.00829385 0)
(1.02275 0.00991157 0)
(1.02034 0.0119896 0)
(1.01717 0.0146622 0)
(1.01304 0.0181045 0)
(1.00774 0.0225492 0)
(1.00099 0.0282955 0)
(0.992555 0.0357701 0)
(0.9819 0.0454262 0)
(0.969209 0.0582458 0)
(0.952088 0.0740478 0)
(0.935488 0.0974521 0)
(0.90204 0.11673 0)
(1.00007 0.000636572 0)
(1.00061 0.00168643 0)
(1.00146 0.00230827 0)
(1.00237 0.00265444 0)
(1.00322 0.00291892 0)
(1.00409 0.00312325 0)
(1.00499 0.00324227 0)
(1.0059 0.00329259 0)
(1.00679 0.00330233 0)
(1.00766 0.00328529 0)
(1.00852 0.00324772 0)
(1.00935 0.00319615 0)
(1.01016 0.00313702 0)
(1.01095 0.00307504 0)
(1.01172 0.00301333 0)
(1.01248 0.00295402 0)
(1.01321 0.00289854 0)
(1.01393 0.00284774 0)
(1.01464 0.00280204 0)
(1.01534 0.00276152 0)
(1.01602 0.00272607 0)
(1.0167 0.00269544 0)
(1.01737 0.00266936 0)
(1.01803 0.00264754 0)
(1.01869 0.00262974 0)
(1.01934 0.00261581 0)
(1.01998 0.0026057 0)
(1.02061 0.0025995 0)
(1.02124 0.00259749 0)
(1.02186 0.00260017 0)
(1.02247 0.00260831 0)
(1.02307 0.00262299 0)
(1.02365 0.00264571 0)
(1.02422 0.00267847 0)
(1.02477 0.00272387 0)
(1.02529 0.0027853 0)
(1.02578 0.00286711 0)
(1.02623 0.00297488 0)
(1.02664 0.00311575 0)
(1.02698 0.00329885 0)
(1.02725 0.0035358 0)
(1.02742 0.00384146 0)
(1.02747 0.00423481 0)
(1.02737 0.00474009 0)
(1.02709 0.0053883 0)
(1.02656 0.00621917 0)
(1.02574 0.00728363 0)
(1.02455 0.00864713 0)
(1.02289 0.0103939 0)
(1.02065 0.0126326 0)
(1.01768 0.0155042 0)
(1.01383 0.0191908 0)
(1.00889 0.0239324 0)
(1.00264 0.0300344 0)
(0.994889 0.0379275 0)
(0.985275 0.0480679 0)
(0.974113 0.0614284 0)
(0.959892 0.0779099 0)
(0.946743 0.101815 0)
(0.923948 0.123313 0)
(1.00006 0.000559605 0)
(1.00052 0.00151227 0)
(1.0013 0.00211482 0)
(1.00216 0.00246017 0)
(1.003 0.0027133 0)
(1.00385 0.00290875 0)
(1.00473 0.0030269 0)
(1.00563 0.00307919 0)
(1.00651 0.00309152 0)
(1.00738 0.00307827 0)
(1.00823 0.0030456 0)
(1.00906 0.00299928 0)
(1.00987 0.00294531 0)
(1.01066 0.00288826 0)
(1.01143 0.00283115 0)
(1.01218 0.00277604 0)
(1.01291 0.00272433 0)
(1.01363 0.00267686 0)
(1.01434 0.00263409 0)
(1.01504 0.00259614 0)
(1.01572 0.00256295 0)
(1.0164 0.00253433 0)
(1.01707 0.00251007 0)
(1.01773 0.00248992 0)
(1.01838 0.00247371 0)
(1.01903 0.00246135 0)
(1.01967 0.00245285 0)
(1.0203 0.00244837 0)
(1.02093 0.00244825 0)
(1.02154 0.00245309 0)
(1.02215 0.00246373 0)
(1.02275 0.0024814 0)
(1.02333 0.00250771 0)
(1.0239 0.00254484 0)
(1.02444 0.0025956 0)
(1.02497 0.00266364 0)
(1.02546 0.00275366 0)
(1.02591 0.00287164 0)
(1.02632 0.00302525 0)
(1.02667 0.00322428 0)
(1.02695 0.00348119 0)
(1.02714 0.0038119 0)
(1.02722 0.00423671 0)
(1.02715 0.00478151 0)
(1.0269 0.0054794 0)
(1.02643 0.00637267 0)
(1.02567 0.00751545 0)
(1.02456 0.00897703 0)
(1.02301 0.0108463 0)
(1.02091 0.0132375 0)
(1.01812 0.0162974 0)
(1.0145 0.0202147 0)
(1.00985 0.0252349 0)
(1.00398 0.0316669 0)
(0.996715 0.0399374 0)
(0.987768 0.0504952 0)
(0.977426 0.0642584 0)
(0.964774 0.0812045 0)
(0.953004 0.105072 0)
(0.936716 0.128301 0)
(1.00005 0.000494162 0)
(1.00046 0.00135607 0)
(1.00117 0.00193158 0)
(1.00199 0.00227173 0)
(1.00281 0.00251315 0)
(1.00364 0.00269857 0)
(1.00451 0.00281463 0)
(1.00539 0.00286855 0)
(1.00626 0.00288322 0)
(1.00712 0.00287319 0)
(1.00797 0.00284471 0)
(1.00879 0.00280303 0)
(1.0096 0.00275374 0)
(1.01039 0.00270124 0)
(1.01116 0.00264847 0)
(1.01191 0.0025974 0)
(1.01265 0.00254936 0)
(1.01337 0.00250522 0)
(1.01408 0.00246543 0)
(1.01477 0.00243014 0)
(1.01546 0.00239932 0)
(1.01614 0.00237284 0)
(1.01681 0.00235051 0)
(1.01747 0.00233216 0)
(1.01812 0.00231766 0)
(1.01877 0.00230697 0)
(1.01941 0.00230015 0)
(1.02004 0.00229744 0)
(1.02066 0.00229926 0)
(1.02128 0.00230625 0)
(1.02189 0.00231938 0)
(1.02248 0.00233997 0)
(1.02307 0.00236978 0)
(1.02363 0.00241114 0)
(1.02418 0.00246707 0)
(1.02471 0.00254147 0)
(1.02521 0.00263935 0)
(1.02567 0.00276709 0)
(1.02608 0.00293288 0)
(1.02645 0.00314711 0)
(1.02674 0.00342305 0)
(1.02694 0.00377763 0)
(1.02704 0.00423237 0)
(1.02701 0.00481477 0)
(1.0268 0.00555988 0)
(1.02638 0.00651241 0)
(1.02569 0.00772947 0)
(1.02467 0.00928401 0)
(1.02323 0.0112693 0)
(1.02127 0.0138044 0)
(1.01866 0.0170419 0)
(1.01527 0.0211763 0)
(1.01092 0.026458 0)
(1.00543 0.0331985 0)
(0.998639 0.041819 0)
(0.990314 0.0527612 0)
(0.980668 0.0668693 0)
(0.969141 0.0842015 0)
(0.958065 0.10782 0)
(0.945121 0.132217 0)
(1.00005 0.000437554 0)
(1.00041 0.0012151 0)
(1.00106 0.00175793 0)
(1.00184 0.00208869 0)
(1.00264 0.00231827 0)
(1.00346 0.0024931 0)
(1.00431 0.00260573 0)
(1.00518 0.00266034 0)
(1.00605 0.00267673 0)
(1.0069 0.00266932 0)
(1.00774 0.00264455 0)
(1.00856 0.00260721 0)
(1.00937 0.00256242 0)
(1.01016 0.00251437 0)
(1.01093 0.00246588 0)
(1.01168 0.00241881 0)
(1.01241 0.00237445 0)
(1.01314 0.00233364 0)
(1.01384 0.00229683 0)
(1.01454 0.0022642 0)
(1.01523 0.00223577 0)
(1.0159 0.00221142 0)
(1.01657 0.00219103 0)
(1.01723 0.00217446 0)
(1.01789 0.00216165 0)
(1.01854 0.00215261 0)
(1.01918 0.00214745 0)
(1.01981 0.00214648 0)
(1.02043 0.00215018 0)
(1.02105 0.00215928 0)
(1.02166 0.00217483 0)
(1.02226 0.00219825 0)
(1.02284 0.00223143 0)
(1.02341 0.00227686 0)
(1.02396 0.00233775 0)
(1.02449 0.00241824 0)
(1.025 0.00252362 0)
(1.02546 0.00266068 0)
(1.02589 0.00283805 0)
(1.02626 0.00306674 0)
(1.02657 0.00336076 0)
(1.0268 0.00373797 0)
(1.02693 0.0042211 0)
(1.02692 0.00483909 0)
(1.02676 0.00562885 0)
(1.0264 0.00663736 0)
(1.02578 0.00792454 0)
(1.02485 0.00956669 0)
(1.02353 0.0116611 0)
(1.02171 0.0143315 0)
(1.0193 0.0177356 0)
(1.01615 0.0220729 0)
(1.01212 0.027598 0)
(1.00702 0.0346248 0)
(1.00072 0.0435678 0)
(0.993032 0.0548637 0)
(0.984106 0.0692808 0)
(0.973601 0.0869572 0)
(0.963259 0.110319 0)
(0.952085 0.135413 0)
(1.00004 0.000387797 0)
(1.00037 0.00108696 0)
(1.00097 0.0015933 0)
(1.00172 0.00191092 0)
(1.0025 0.00212824 0)
(1.0033 0.00229199 0)
(1.00413 0.00239987 0)
(1.00499 0.00245422 0)
(1.00585 0.00247182 0)
(1.0067 0.00246664 0)
(1.00754 0.00244523 0)
(1.00836 0.00241196 0)
(1.00916 0.00237146 0)
(1.00995 0.0023277 0)
(1.01072 0.00228335 0)
(1.01147 0.0022402 0)
(1.01221 0.00219946 0)
(1.01293 0.00216193 0)
(1.01364 0.00212808 0)
(1.01433 0.0020981 0)
(1.01502 0.00207204 0)
(1.0157 0.00204983 0)
(1.01637 0.00203138 0)
(1.01703 0.00201661 0)
(1.01768 0.0020055 0)
(1.01833 0.00199809 0)
(1.01897 0.00199459 0)
(1.01961 0.00199534 0)
(1.02023 0.00200089 0)
(1.02085 0.00201204 0)
(1.02146 0.00202993 0)
(1.02206 0.00205608 0)
(1.02265 0.0020925 0)
(1.02322 0.00214183 0)
(1.02378 0.00220744 0)
(1.02431 0.00229372 0)
(1.02482 0.00240623 0)
(1.02529 0.00255212 0)
(1.02573 0.00274045 0)
(1.02612 0.00298279 0)
(1.02645 0.00329386 0)
(1.0267 0.0036924 0)
(1.02685 0.00420223 0)
(1.02688 0.0048537 0)
(1.02677 0.0056854 0)
(1.02646 0.00674646 0)
(1.02592 0.00809935 0)
(1.02509 0.00982353 0)
(1.02389 0.0120199 0)
(1.02224 0.0148166 0)
(1.02003 0.0183757 0)
(1.01713 0.0229015 0)
(1.01342 0.0286518 0)
(1.00873 0.0359424 0)
(1.00294 0.0451802 0)
(0.995891 0.0567972 0)
(0.987712 0.0714913 0)
(0.97819 0.0894658 0)
(0.968732 0.112623 0)
(0.958789 0.138084 0)
(1.00004 0.000343415 0)
(1.00034 0.000969606 0)
(1.00089 0.00143701 0)
(1.00161 0.0017382 0)
(1.00237 0.00194256 0)
(1.00316 0.00209481 0)
(1.00398 0.00219687 0)
(1.00483 0.00225007 0)
(1.00568 0.00226843 0)
(1.00652 0.00226512 0)
(1.00736 0.0022467 0)
(1.00817 0.00221721 0)
(1.00898 0.00218081 0)
(1.00976 0.00214117 0)
(1.01053 0.00210086 0)
(1.01128 0.00206154 0)
(1.01202 0.00202436 0)
(1.01274 0.00199009 0)
(1.01345 0.00195919 0)
(1.01415 0.00193187 0)
(1.01484 0.00190819 0)
(1.01552 0.00188812 0)
(1.01619 0.00187162 0)
(1.01685 0.00185865 0)
(1.0175 0.00184922 0)
(1.01815 0.00184346 0)
(1.01879 0.00184159 0)
(1.01943 0.00184402 0)
(1.02005 0.00185137 0)
(1.02067 0.00186451 0)
(1.02129 0.00188466 0)
(1.02189 0.00191342 0)
(1.02248 0.00195293 0)
(1.02305 0.00200595 0)
(1.02361 0.00207604 0)
(1.02415 0.00216778 0)
(1.02467 0.00228701 0)
(1.02515 0.00244119 0)
(1.0256 0.00263981 0)
(1.026 0.00289496 0)
(1.02635 0.003222 0)
(1.02662 0.00364049 0)
(1.02681 0.00417529 0)
(1.02688 0.004858 0)
(1.02681 0.00572881 0)
(1.02657 0.0068388 0)
(1.02611 0.00825283 0)
(1.02538 0.0100532 0)
(1.02431 0.0123442 0)
(1.02282 0.0152577 0)
(1.02082 0.0189601 0)
(1.01819 0.0236596 0)
(1.01481 0.0296168 0)
(1.01054 0.0371486 0)
(1.00527 0.0466544 0)
(0.998861 0.0585602 0)
(0.991436 0.0735013 0)
(0.982861 0.0917244 0)
(0.974352 0.114724 0)
(0.965502 0.140338 0)
(1.00003 0.000303299 0)
(1.00031 0.000861298 0)
(1.00083 0.00128831 0)
(1.00151 0.00157024 0)
(1.00226 0.00176079 0)
(1.00303 0.00190121 0)
(1.00385 0.00199657 0)
(1.00468 0.00204781 0)
(1.00553 0.00206646 0)
(1.00637 0.00206467 0)
(1.0072 0.00204891 0)
(1.00801 0.00202293 0)
(1.00881 0.00199042 0)
(1.0096 0.00195477 0)
(1.01037 0.00191839 0)
(1.01112 0.00188284 0)
(1.01186 0.00184918 0)
(1.01258 0.00181815 0)
(1.01329 0.00179018 0)
(1.01399 0.0017655 0)
(1.01468 0.0017442 0)
(1.01536 0.00172628 0)
(1.01603 0.00171173 0)
(1.01669 0.00170055 0)
(1.01734 0.00169281 0)
(1.01799 0.00168866 0)
(1.01863 0.0016884 0)
(1.01927 0.00169249 0)
(1.0199 0.00170158 0)
(1.02052 0.00171664 0)
(1.02113 0.00173895 0)
(1.02173 0.0017702 0)
(1.02233 0.00181264 0)
(1.02291 0.00186915 0)
(1.02347 0.00194345 0)
(1.02402 0.00204032 0)
(1.02454 0.00216583 0)
(1.02503 0.00232776 0)
(1.02549 0.00253598 0)
(1.02591 0.00280304 0)
(1.02628 0.00314492 0)
(1.02658 0.00358193 0)
(1.02679 0.00413985 0)
(1.02691 0.00485148 0)
(1.02689 0.00575845 0)
(1.02672 0.00691361 0)
(1.02634 0.00838401 0)
(1.02571 0.0102545 0)
(1.02478 0.0126325 0)
(1.02346 0.0156534 0)
(1.02168 0.0194869 0)
(1.01932 0.024345 0)
(1.01628 0.0304908 0)
(1.01243 0.0382414 0)
(1.00768 0.0479891 0)
(1.00192 0.0601527 0)
(0.995248 0.0753134 0)
(0.987584 0.0937406 0)
(0.980014 0.116613 0)
(0.972202 0.142249 0)
(1.00003 0.000266596 0)
(1.00029 0.000760564 0)
(1.00078 0.00114642 0)
(1.00143 0.00140673 0)
(1.00216 0.00158254 0)
(1.00293 0.00171082 0)
(1.00373 0.00179878 0)
(1.00456 0.00184729 0)
(1.0054 0.00186577 0)
(1.00623 0.00186519 0)
(1.00706 0.0018518 0)
(1.00787 0.00182907 0)
(1.00867 0.00180028 0)
(1.00945 0.0017685 0)
(1.01022 0.00173595 0)
(1.01097 0.0017041 0)
(1.01171 0.00167392 0)
(1.01244 0.00164609 0)
(1.01315 0.00162104 0)
(1.01385 0.001599 0)
(1.01453 0.00158008 0)
(1.01521 0.0015643 0)
(1.01588 0.0015517 0)
(1.01655 0.00154231 0)
(1.0172 0.00153624 0)
(1.01785 0.0015337 0)
(1.0185 0.00153502 0)
(1.01913 0.00154072 0)
(1.01976 0.00155151 0)
(1.02038 0.00156841 0)
(1.021 0.00159278 0)
(1.0216 0.00162639 0)
(1.0222 0.00167159 0)
(1.02278 0.00173137 0)
(1.02335 0.00180961 0)
(1.0239 0.00191125 0)
(1.02443 0.00204261 0)
(1.02494 0.00221171 0)
(1.02541 0.00242879 0)
(1.02584 0.00270684 0)
(1.02623 0.00306239 0)
(1.02655 0.00351641 0)
(1.0268 0.00409556 0)
(1.02696 0.0048337 0)
(1.027 0.00577376 0)
(1.02689 0.00697022 0)
(1.0266 0.00849206 0)
(1.02609 0.0104265 0)
(1.02529 0.0128837 0)
(1.02415 0.016002 0)
(1.02258 0.0199545 0)
(1.02051 0.0249561 0)
(1.01781 0.0312719 0)
(1.0144 0.0392193 0)
(1.01018 0.0491836 0)
(1.00506 0.0615761 0)
(0.999131 0.076931 0)
(0.992347 0.0955256 0)
(0.985679 0.118291 0)
(0.978839 0.143872 0)
(1.00003 0.000232643 0)
(1.00027 0.000666154 0)
(1.00073 0.00101057 0)
(1.00137 0.00124734 0)
(1.00208 0.00140747 0)
(1.00283 0.0015233 0)
(1.00363 0.00160327 0)
(1.00445 0.00164839 0)
(1.00528 0.00166625 0)
(1.00611 0.00166658 0)
(1.00693 0.00165531 0)
(1.00774 0.00163562 0)
(1.00854 0.00161037 0)
(1.00933 0.00158233 0)
(1.01009 0.00155354 0)
(1.01085 0.00152532 0)
(1.01158 0.00149857 0)
(1.01231 0.00147392 0)
(1.01302 0.00145178 0)
(1.01372 0.00143237 0)
(1.01441 0.00141582 0)
(1.01509 0.00140219 0)
(1.01576 0.00139153 0)
(1.01642 0.00138393 0)
(1.01708 0.00137952 0)
(1.01773 0.00137856 0)
(1.01837 0.00138144 0)
(1.01901 0.0013887 0)
(1.01964 0.00140113 0)
(1.02027 0.0014198 0)
(1.02088 0.00144612 0)
(1.02149 0.00148196 0)
(1.02209 0.00152974 0)
(1.02268 0.00159257 0)
(1.02325 0.00167446 0)
(1.02381 0.00178051 0)
(1.02435 0.00191723 0)
(1.02486 0.00209292 0)
(1.02535 0.00231811 0)
(1.0258 0.0026062 0)
(1.0262 0.00297419 0)
(1.02656 0.00344368 0)
(1.02684 0.00404211 0)
(1.02704 0.00480425 0)
(1.02713 0.00577425 0)
(1.0271 0.007008 0)
(1.0269 0.00857624 0)
(1.02649 0.0105683 0)
(1.02584 0.0130966 0)
(1.02488 0.0163023 0)
(1.02354 0.0203613 0)
(1.02175 0.0254913 0)
(1.01941 0.0319587 0)
(1.01643 0.040081 0)
(1.01274 0.0502376 0)
(1.00826 0.0628316 0)
(1.00307 0.0783576 0)
(0.997143 0.0970909 0)
(0.991335 0.119765 0)
(0.985391 0.145253 0)
(1.00003 0.000200913 0)
(1.00025 0.000577004 0)
(1.0007 0.000879974 0)
(1.00131 0.00109167 0)
(1.00201 0.00123522 0)
(1.00275 0.00133832 0)
(1.00354 0.00140983 0)
(1.00435 0.00145096 0)
(1.00518 0.00146779 0)
(1.00601 0.00146876 0)
(1.00683 0.00145937 0)
(1.00764 0.00144252 0)
(1.00843 0.00142067 0)
(1.00922 0.00139626 0)
(1.00998 0.00137114 0)
(1.01074 0.0013465 0)
(1.01147 0.00132314 0)
(1.0122 0.00130165 0)
(1.01291 0.0012824 0)
(1.01361 0.00126562 0)
(1.0143 0.00125144 0)
(1.01498 0.00123995 0)
(1.01565 0.00123123 0)
(1.01632 0.0012254 0)
(1.01697 0.00122264 0)
(1.01763 0.00122324 0)
(1.01827 0.00122764 0)
(1.01891 0.00123642 0)
(1.01954 0.00125043 0)
(1.02016 0.00127078 0)
(1.02078 0.00129895 0)
(1.02139 0.00133687 0)
(1.02199 0.00138706 0)
(1.02259 0.00145271 0)
(1.02316 0.00153795 0)
(1.02373 0.00164803 0)
(1.02428 0.00178964 0)
(1.0248 0.0019713 0)
(1.0253 0.00220382 0)
(1.02577 0.00250095 0)
(1.0262 0.00288014 0)
(1.02658 0.00336351 0)
(1.0269 0.00397919 0)
(1.02714 0.00476279 0)
(1.02729 0.00575948 0)
(1.02733 0.00702643 0)
(1.02722 0.00863588 0)
(1.02693 0.010679 0)
(1.02642 0.0132703 0)
(1.02565 0.0165532 0)
(1.02454 0.0207062 0)
(1.02304 0.0259491 0)
(1.02106 0.0325497 0)
(1.01853 0.0408257 0)
(1.01537 0.0511506 0)
(1.01153 0.0639207 0)
(1.00707 0.0795965 0)
(1.00196 0.0984464 0)
(0.996982 0.121046 0)
(0.991859 0.146425 0)
(1.00003 0.000170978 0)
(1.00024 0.000492202 0)
(1.00067 0.000753916 0)
(1.00126 0.000939327 0)
(1.00195 0.00106547 0)
(1.00268 0.00115554 0)
(1.00346 0.00121822 0)
(1.00427 0.00125485 0)
(1.00509 0.00127026 0)
(1.00592 0.00127165 0)
(1.00673 0.00126394 0)
(1.00754 0.00124974 0)
(1.00834 0.00123115 0)
(1.00912 0.00121028 0)
(1.00989 0.00118876 0)
(1.01064 0.00116764 0)
(1.01138 0.00114765 0)
(1.0121 0.00112929 0)
(1.01282 0.00111292 0)
(1.01352 0.00109875 0)
(1.01421 0.00108694 0)
(1.01489 0.00107758 0)
(1.01556 0.00107079 0)
(1.01623 0.00106672 0)
(1.01688 0.00106559 0)
(1.01754 0.00106773 0)
(1.01818 0.00107361 0)
(1.01882 0.00108387 0)
(1.01945 0.00109939 0)
(1.02008 0.00112133 0)
(1.0207 0.00115124 0)
(1.02131 0.00119111 0)
(1.02192 0.0012435 0)
(1.02251 0.00131174 0)
(1.0231 0.00140002 0)
(1.02367 0.00151374 0)
(1.02422 0.00165975 0)
(1.02476 0.00184676 0)
(1.02527 0.00208582 0)
(1.02576 0.00239098 0)
(1.02621 0.00278007 0)
(1.02662 0.0032757 0)
(1.02697 0.00390656 0)
(1.02726 0.004709 0)
(1.02747 0.00572907 0)
(1.02758 0.00702502 0)
(1.02757 0.0086704 0)
(1.0274 0.0107579 0)
(1.02704 0.0134039 0)
(1.02645 0.0167537 0)
(1.02558 0.0209879 0)
(1.02437 0.0263283 0)
(1.02276 0.0330439 0)
(1.02067 0.0414522 0)
(1.01805 0.0519226 0)
(1.01485 0.0648445 0)
(1.01111 0.080651 0)
(1.00681 0.0996007 0)
(1.00262 0.122142 0)
(0.998253 0.147418 0)
(1.00003 0.000142486 0)
(1.00023 0.000410958 0)
(1.00064 0.000631697 0)
(1.00122 0.00078989 0)
(1.0019 0.000897894 0)
(1.00263 0.000974654 0)
(1.0034 0.00102819 0)
(1.0042 0.00105989 0)
(1.00502 0.00107355 0)
(1.00584 0.00107513 0)
(1.00666 0.00106894 0)
(1.00746 0.00105724 0)
(1.00826 0.0010418 0)
(1.00904 0.00102438 0)
(1.00981 0.00100639 0)
(1.01056 0.000988753 0)
(1.0113 0.000972087 0)
(1.01203 0.00095684 0)
(1.01274 0.000943334 0)
(1.01344 0.000931779 0)
(1.01413 0.000922323 0)
(1.01481 0.000915091 0)
(1.01548 0.000910223 0)
(1.01615 0.000907902 0)
(1.01681 0.000908385 0)
(1.01746 0.000912035 0)
(1.01811 0.000919356 0)
(1.01875 0.000931037 0)
(1.01938 0.000947997 0)
(1.02001 0.000971449 0)
(1.02063 0.00100298 0)
(1.02125 0.00104464 0)
(1.02186 0.00109906 0)
(1.02245 0.00116963 0)
(1.02304 0.00126065 0)
(1.02362 0.00137761 0)
(1.02419 0.00152751 0)
(1.02473 0.00171922 0)
(1.02526 0.001964 0)
(1.02576 0.00227616 0)
(1.02624 0.00267385 0)
(1.02668 0.00318006 0)
(1.02707 0.00382399 0)
(1.0274 0.0046426 0)
(1.02767 0.00568266 0)
(1.02786 0.00700335 0)
(1.02794 0.0086793 0)
(1.02789 0.0108045 0)
(1.02769 0.0134967 0)
(1.02729 0.0169029 0)
(1.02666 0.0212056 0)
(1.02575 0.026628 0)
(1.0245 0.0334403 0)
(1.02286 0.04196 0)
(1.02079 0.0525532 0)
(1.01822 0.0656043 0)
(1.0152 0.0815239 0)
(1.01168 0.100561 0)
(1.00826 0.123064 0)
(1.00459 0.148252 0)
(1.00002 0.000115141 0)
(1.00022 0.000332582 0)
(1.00062 0.000512658 0)
(1.00119 0.000642923 0)
(1.00186 0.000732159 0)
(1.00258 0.000795359 0)
(1.00335 0.000839499 0)
(1.00414 0.000865919 0)
(1.00496 0.000877537 0)
(1.00578 0.000879133 0)
(1.00659 0.000874312 0)
(1.0074 0.000864982 0)
(1.00819 0.000852576 0)
(1.00898 0.000838534 0)
(1.00974 0.00082403 0)
(1.0105 0.000809836 0)
(1.01123 0.00079647 0)
(1.01196 0.000784317 0)
(1.01267 0.000773662 0)
(1.01337 0.000764706 0)
(1.01407 0.000757599 0)
(1.01475 0.000752485 0)
(1.01542 0.000749528 0)
(1.01609 0.000748941 0)
(1.01675 0.000751013 0)
(1.0174 0.000756143 0)
(1.01805 0.00076487 0)
(1.01869 0.000777921 0)
(1.01932 0.000796252 0)
(1.01995 0.000821119 0)
(1.02058 0.000854151 0)
(1.0212 0.000897447 0)
(1.02181 0.000953699 0)
(1.02241 0.00102635 0)
(1.02301 0.00111978 0)
(1.02359 0.00123959 0)
(1.02416 0.00139286 0)
(1.02472 0.00158862 0)
(1.02526 0.00183829 0)
(1.02579 0.0021564 0)
(1.02628 0.00256134 0)
(1.02675 0.00307645 0)
(1.02718 0.00373131 0)
(1.02756 0.00456336 0)
(1.02789 0.00561999 0)
(1.02815 0.00696109 0)
(1.02833 0.00866215 0)
(1.02841 0.0108181 0)
(1.02836 0.0135481 0)
(1.02815 0.0170003 0)
(1.02776 0.0213584 0)
(1.02715 0.0268473 0)
(1.02628 0.0337379 0)
(1.02509 0.0423483 0)
(1.02356 0.0530423 0)
(1.02162 0.0662008 0)
(1.01932 0.0822175 0)
(1.01657 0.101333 0)
(1.01389 0.123817 0)
(1.01088 0.148946 0)
(1.00002 8.86856e-05 0)
(1.00022 0.000256457 0)
(1.00061 0.000396171 0)
(1.00116 0.000497984 0)
(1.00182 0.000567937 0)
(1.00254 0.000617357 0)
(1.00331 0.000651907 0)
(1.0041 0.000672768 0)
(1.00491 0.000682098 0)
(1.00573 0.000683553 0)
(1.00654 0.000679986 0)
(1.00735 0.00067292 0)
(1.00814 0.000663465 0)