/*--------------------------------*- C++ -*----------------------------------*\
| =========                 |                                                 |
| \\      /  F ield         | OpenFOAM: The Open Source CFD Toolbox           |
|  \\    /   O peration     | Version:  2.4.0                                 |
|   \\  /    A nd           | Web:      www.OpenFOAM.org                      |
|    \\/     M anipulation  |                                                 |
\*---------------------------------------------------------------------------*/
FoamFile
{
    version     2.0;
    format      ascii;
    class       volVectorField;
    location    "3.83";
    object      U;
}
// * * * * * * * * * * * * * * * * * * * * * * * * * * * * * * * * * * * * * //

dimensions      [0 1 -1 0 0 0 0];

internalField   nonuniform List<vector> 
6000
(
(0.165118 -0.00671309 1.31263e-18)
(-0.00974246 0.00185765 0)
(0.000831469 -0.000234839 7.25135e-18)
(-0.00663235 0.00128727 0)
(-0.0050064 0.000987512 0)
(-0.00607936 0.0011405 0)
(-0.00534933 0.000985068 4.02244e-18)
(-0.00551661 0.000963541 3.33586e-22)
(-0.005138 0.000868569 0)
(-0.00514401 0.000824645 0)
(-0.00497303 0.00076285 3.92325e-18)
(-0.00500274 0.000725917 -7.77182e-18)
(-0.00501274 0.000690866 0)
(-0.00516847 0.000671433 0)
(-0.00537571 0.000658568 -1.8852e-18)
(-0.00568563 0.000652132 0)
(-0.00603907 0.000646274 0)
(-0.00644571 0.000639036 -1.83717e-18)
(-0.00688927 0.00062944 -1.82446e-18)
(-0.00739818 0.000618575 0)
(-0.00799737 0.000607654 1.8046e-18)
(-0.00872298 0.000596656 8.98745e-19)
(-0.00959571 0.000583592 -8.96155e-19)
(-0.0106239 0.000564873 0)
(-0.0117964 0.000536087 0)
(-0.0130885 0.000492596 0)
(-0.0144636 0.000430444 4.48589e-19)
(-0.01588 0.000346771 -4.50464e-19)
(-0.0172921 0.000240093 0)
(-0.0186524 0.000110341 0)
(-0.0199105 -4.11006e-05 5.7699e-20)
(-0.0210121 -0.000211362 0)
(-0.0218975 -0.000396021 4.74449e-19)
(-0.0225008 -0.000589474 -4.82744e-19)
(-0.0227487 -0.000782861 0)
(-0.0225591 -0.000950357 0)
(-0.0218424 -0.00109284 1.03137e-18)
(-0.0205041 -0.00118996 0)
(-0.0184505 -0.00122032 1.08859e-18)
(-0.0155873 -0.00116074 0)
(-0.011852 -0.000986393 0)
(-0.00721777 -0.000675622 2.3754e-18)
(-0.00168043 -0.000198326 -4.8833e-18)
(0.00403613 0.000389751 0)
(0.00990132 0.00107923 0)
(0.0160043 0.00187972 2.61547e-18)
(0.0222186 0.00279668 0)
(0.0284736 0.00381684 0)
(0.0343829 0.00490398 -5.36263e-18)
(0.0400937 0.00604387 -5.34167e-18)
(0.0449098 0.00716911 -5.26948e-18)
(0.0498175 0.00833808 -2.43367e-21)
(0.0530732 0.00939173 4.97845e-18)
(0.057975 0.0106386 0)
(0.0592243 0.0114849 -3.63586e-21)
(0.0665597 0.0131934 -4.17411e-18)
(0.0641665 0.0135642 3.40192e-18)
(0.079373 0.016775 3.26076e-18)
(0.0692463 0.0159616 4.83468e-21)
(0.101161 0.0225228 0)
(0.3603 -0.0164525 -1.82065e-18)
(0.00302677 0.00650361 4.29871e-18)
(0.00550055 -0.000895455 -4.34882e-18)
(-0.0149499 0.00337485 -4.61262e-18)
(-0.0124294 0.00257941 0)
(-0.0157761 0.00306121 0)
(-0.0142942 0.00266785 -4.59215e-18)
(-0.0148991 0.0026296 9.09602e-18)
(-0.0140622 0.00238868 0)
(-0.0141389 0.00227761 0)
(-0.0137603 0.00212253 -4.35259e-18)
(-0.0138712 0.00203104 4.28822e-18)
(-0.0139432 0.00194872 2.112e-18)
(-0.0143851 0.00190782 0)
(-0.0149687 0.00188416 2.05365e-18)
(-0.01581 0.00187437 0)
(-0.0167592 0.00186274 0)
(-0.0178347 0.00184539 0)
(-0.0190022 0.00182298 0)
(-0.0203409 0.0018014 0)
(-0.0219241 0.00178519 -1.10062e-23)
(-0.0238464 0.00177333 0)
(-0.0261565 0.00175802 -9.56536e-19)
(-0.0288616 0.0017262 0)
(-0.0319147 0.00166289 0)
(-0.0352324 0.00155362 4.75488e-19)
(-0.0387046 0.00138716 -4.76078e-19)
(-0.0422111 0.0011563 -1.81747e-23)
(-0.0456278 0.000858126 2.40052e-19)
(-0.0488297 0.000493708 0)
(-0.0516882 6.78682e-05 -6.1053e-20)
(-0.0540679 -0.000410844 -2.47233e-19)
(-0.0558228 -0.000929847 1.95792e-23)
(-0.0567938 -0.00147294 5.10629e-19)
(-0.0568026 -0.00201602 -5.2091e-19)
(-0.0556575 -0.0025127 0)
(-0.0531487 -0.00294456 0)
(-0.0490509 -0.003263 0)
(-0.0431409 -0.0034132 0)
(-0.0351952 -0.00333386 0)
(-0.0250631 -0.00295554 -2.44425e-18)
(-0.0126896 -0.00221303 0)
(0.00174549 -0.000989963 2.57318e-18)
(0.0163538 0.000588065 2.65482e-18)
(0.0313114 0.00242881 0)
(0.0467604 0.00455297 0)
(0.0623618 0.00697737 0)
(0.0779304 0.00967181 0)
(0.0926346 0.0125499 5.83686e-18)
(0.106764 0.0155681 0)
(0.118877 0.0185641 0)
(0.131009 0.021655 -5.71488e-18)
(0.1396 0.024475 -5.54868e-18)
(0.15148 0.0277235 0)
(0.155788 0.0301013 -1.00068e-17)
(0.172786 0.0343731 0)
(0.169666 0.0357565 -7.86616e-18)
(0.203801 0.0434357 -3.79035e-18)
(0.184888 0.042341 1.73626e-18)
(0.256622 0.0571833 2.40522e-18)
(0.500827 -0.0113673 -1.7381e-19)
(0.0412954 0.00905717 -4.26183e-18)
(0.014139 -0.00129593 0)
(-0.0188594 0.00483244 4.61998e-18)
(-0.0175012 0.00374081 0)
(-0.023454 0.00457396 0)
(-0.0218304 0.00403882 0)
(-0.0230321 0.00401561 -4.55356e-18)
(-0.0219909 0.00368329 0)
(-0.0222168 0.00352931 -4.42418e-18)
(-0.0217469 0.00331729 0)
(-0.0219755 0.00319397 0)
(-0.0221555 0.00309268 -2.1132e-18)
(-0.0228841 0.00305184 0)
(-0.0238352 0.00303685 0)
(-0.025166 0.00303616 0)
(-0.0266542 0.00302724 0)
(-0.0283211 0.00300622 0)
(-0.0301254 0.00298047 0)
(-0.0321941 0.00296359 1.94575e-18)
(-0.0346491 0.00296448 -1.9313e-18)
(-0.0376345 0.00297913 0)
(-0.0412156 0.00299074 -9.68475e-24)
(-0.0453848 0.0029729 -9.50989e-19)
(-0.050047 0.00289729 0)
(-0.0550512 0.00273852 -9.47744e-19)
(-0.0602096 0.00247861 0)
(-0.0653249 0.00210765 4.75501e-19)
(-0.0701986 0.00162332 -2.38876e-19)
(-0.0746352 0.0010297 0)
(-0.0784379 0.000336556 0)
(-0.0814029 -0.000440893 2.45633e-19)
(-0.0833145 -0.00128138 -4.67037e-25)
(-0.0839409 -0.00215843 0)
(-0.083028 -0.00303154 1.03259e-18)
(-0.0803082 -0.00385821 0)
(-0.0754974 -0.00458399 1.07903e-18)
(-0.0683005 -0.00514245 0)
(-0.0584402 -0.00545455 0)
(-0.045666 -0.0054312 0)
(-0.0298715 -0.00496783 2.38194e-18)
(-0.0111497 -0.0039584 0)
(0.00988601 -0.00220409 0)
(0.031343 0.000143313 -2.55318e-18)
(0.0537937 0.00293204 0)
(0.0771616 0.00619457 0)
(0.100836 0.00994711 2.80684e-18)
(0.124472 0.0141344 -2.85741e-18)
(0.146919 0.0186381 -2.88644e-18)
(0.168486 0.0233642 0)
(0.187264 0.0281034 0)
(0.205849 0.0329367 0)
(0.219645 0.0374398 5.52844e-18)
(0.237524 0.0424088 5.3645e-18)
(0.245455 0.0463861 5.00505e-18)
(0.269994 0.0525724 0)
(0.268261 0.0554409 3.94014e-18)
(0.316124 0.0659514 7.6073e-18)
(0.293992 0.0660314 0)
(0.395134 0.0853438 -2.42466e-18)
(0.605052 0.000251722 -1.44289e-19)
(0.0970161 0.0109989 4.13717e-18)
(0.0279248 -0.00123178 -4.33722e-18)
(-0.0183078 0.00584113 0)
(-0.0200914 0.00456425 0)
(-0.0290505 0.00577374 0)
(-0.0278878 0.00514825 0)
(-0.0298722 0.00517595 0)
(-0.0288779 0.00478514 0)
(-0.0293429 0.00461433 4.42695e-18)
(-0.0288965 0.00436742 4.35742e-18)
(-0.0292828 0.00423312 0)
(-0.0296126 0.00413227 0)
(-0.0306252 0.00410942 0)
(-0.0319275 0.00411742 2.05349e-18)
(-0.0336995 0.00413546 0)
(-0.0356624 0.00413493 2.0018e-18)
(-0.0378365 0.00411508 -1.97946e-18)
(-0.040181 0.00409364 0)
(-0.0428653 0.00409461 -1.94166e-18)
(-0.0460539 0.00413137 0)
(-0.0499259 0.00419462 -9.56223e-19)
(-0.0545482 0.00425464 1.90107e-18)
(-0.0598829 0.00426831 9.46e-19)
(-0.065776 0.00419214 0)
(-0.0720043 0.00398988 4.70449e-19)
(-0.0783056 0.0036384 0)
(-0.0844133 0.00312742 4.71062e-19)
(-0.0900676 0.00245751 0)
(-0.0950188 0.0016376 0)
(-0.0990208 0.000683453 0)
(-0.101825 -0.000382843 2.4214e-19)
(-0.103173 -0.00153221 -9.80984e-19)
(-0.102793 -0.00272917 0)
(-0.100399 -0.00392368 -5.06243e-19)
(-0.0956954 -0.00506388 0)
(-0.0883811 -0.0060795 -1.0525e-18)
(-0.0781608 -0.00688961 0)
(-0.0647832 -0.00739725 0)
(-0.0480616 -0.00749164 0)
(-0.0280141 -0.00703858 2.27785e-18)
(-0.00490859 -0.00589136 0)
(0.0203725 -0.00380385 2.3188e-18)
(0.0468638 -0.000948803 -2.41053e-18)
(0.075203 0.00251294 0)
(0.105029 0.00666686 -2.62441e-18)
(0.135472 0.0115331 -5.42201e-18)
(0.16599 0.0170291 2.77867e-18)
(0.195193 0.0230024 5.64213e-18)
(0.223304 0.0292987 -5.68447e-18)
(0.24816 0.0356739 -5.6703e-18)
(0.272525 0.0421331 0)
(0.291378 0.0482576 -5.48136e-18)
(0.314453 0.0547756 -5.33069e-18)
(0.326433 0.0603008 -4.96605e-18)
(0.356746 0.0680165 0)
(0.358058 0.0724398 0)
(0.41519 0.0847847 -3.79557e-18)
(0.394285 0.0865874 0)
(0.515459 0.107891 2.37454e-18)
(0.684219 0.0143644 -1.25461e-19)
(0.162905 0.0131405 -3.1891e-20)
(0.0478989 -0.000613635 4.31126e-18)
(-0.0132495 0.00653513 4.61338e-18)
(-0.0200809 0.00513243 0)
(-0.0325187 0.00670905 -4.65185e-18)
(-0.0324066 0.00602913 0)
(-0.0353897 0.0061337 0)
(-0.034688 0.00571118 0)
(-0.0354945 0.0055447 4.42787e-18)
(-0.0351824 0.00528243 -4.35829e-18)
(-0.0357695 0.00515489 0)
(-0.0362855 0.00507111 0)
(-0.0375761 0.0050809 0)
(-0.0392059 0.00512283 -2.05191e-18)
(-0.0413645 0.00516617 0)
(-0.0437307 0.00517719 -1.99858e-18)
(-0.0463209 0.00516111 1.97514e-18)
(-0.0490984 0.00514895 0)
(-0.0522661 0.00517684 0)
(-0.0560197 0.00526184 9.58297e-19)
(-0.0605555 0.00538672 9.50396e-19)
(-0.0659262 0.00550534 -1.88684e-18)
(-0.0720498 0.00555545 -9.37489e-19)
(-0.0787092 0.0054779 0)
(-0.0856132 0.00522706 4.64636e-19)
(-0.092438 0.00477731 0)
(-0.0988671 0.00412089 -4.63481e-19)
(-0.104603 0.00326371 2.32105e-19)
(-0.109367 0.00222118 0)
(-0.112893 0.00101571 0)
(-0.11492 -0.000324 -4.72421e-19)
(-0.115181 -0.0017622 4.77326e-19)
(-0.113404 -0.00325574 0)
(-0.109314 -0.00475105 -4.89586e-19)
(-0.102625 -0.00618479 0)
(-0.0930619 -0.00747972 1.0108e-18)
(-0.0803666 -0.00854474 0)
(-0.0643413 -0.00926999 0)
(-0.0448686 -0.00952707 0)
(-0.0220485 -0.00915591 -2.15153e-18)
(0.00379212 -0.00796978 -2.16438e-18)
(0.0317815 -0.00571703 -2.17483e-18)
(0.0618817 -0.00257853 2.12676e-21)
(0.0945293 0.0013 -2.36922e-18)
(0.129209 0.00607553 2.47932e-18)
(0.164934 0.01179 5.14792e-18)
(0.201028 0.0183544 0)
(0.235951 0.0255942 -2.7147e-18)
(0.269771 0.0332971 5.50591e-18)
(0.300183 0.0411848 5.52251e-18)
(0.329846 0.0491626 0)
(0.353662 0.0568375 0)
(0.381438 0.0647785 0)
(0.39777 0.0718003 4.91235e-18)
(0.432679 0.0807683 0)
(0.438095 0.0867549 0)
(0.501312 0.100222 3.74751e-18)
(0.484491 0.103985 -1.68488e-18)
(0.618465 0.125626 -2.36788e-18)
(0.74557 0.0291066 -1.12215e-19)
(0.23345 0.0159927 -3.96319e-18)
(0.0746122 0.000571596 0)
(-0.00360769 0.0070719 -4.60334e-18)
(-0.0173584 0.00552643 -4.62733e-18)
(-0.0338091 0.00742752 5.13323e-22)
(-0.0353289 0.00671493 0)
(-0.0395564 0.00691275 0)
(-0.0393894 0.00647877 0)
(-0.040652 0.00633318 -4.42846e-18)
(-0.0405821 0.00607176 0)
(-0.0414162 0.00596534 0)
(-0.0421495 0.00591217 2.11166e-18)
(-0.0437084 0.00596573 0)
(-0.0456346 0.00604926 0)
(-0.0481194 0.00612147 0)
(-0.0508104 0.00614469 0)
(-0.0537181 0.00613246 -1.96805e-18)
(-0.0568101 0.00613127 0)
(-0.060311 0.00619011 1.92256e-18)
(-0.0644342 0.00632844 -9.51019e-19)
(-0.0693762 0.00651841 -9.4144e-19)
(-0.075163 0.00669484 1.86531e-18)
(-0.0816641 0.00677531 1.84953e-18)
(-0.0886055 0.00668599 0)
(-0.0956447 0.0063746 -4.56118e-19)
(-0.10242 0.00581627 0)
(-0.108595 0.00500865 0)
(-0.113861 0.00396487 -4.52053e-19)
(-0.117942 0.00270751 0)
(-0.120578 0.00126542 0)
(-0.12152 -0.00032722 4.5609e-19)
(-0.120519 -0.00202977 0)
(-0.117326 -0.00379517 0)
(-0.111685 -0.00556625 4.68218e-19)
(-0.103335 -0.0072749 0)
(-0.092027 -0.00883901 -9.60718e-19)
(-0.0775369 -0.0101605 0)
(-0.0597009 -0.0111196 0)
(-0.0384333 -0.0115722 0)
(-0.0138539 -0.0113349 0)
(0.0137358 -0.0101829 2.03506e-18)
(0.0436113 -0.00788789 2.04393e-18)
(0.0762985 -0.00463143 2.18003e-21)
(0.11196 -0.000524631 2.22185e-18)
(0.150029 0.00465088 2.32092e-18)
(0.189516 0.0109617 -2.4197e-18)
(0.229723 0.0183306 0)
(0.269095 0.0265811 -2.57095e-18)
(0.307583 0.0354663 2.62246e-18)
(0.342844 0.0446839 -5.29246e-18)
(0.377291 0.0540404 0)
(0.405907 0.0631673 0)
(0.438104 0.0724314 -5.11204e-18)
(0.458988 0.080895 -4.80249e-18)
(0.497862 0.090936 4.60716e-18)
(0.507979 0.0984579 3.81432e-18)
(0.575311 0.112578 -3.71327e-18)
(0.564103 0.118336 1.67267e-18)
(0.705823 0.139289 0)
(0.793861 0.0436798 -1.01247e-19)
(0.304778 0.0197804 0)
(0.107985 0.00232748 4.23848e-18)
(0.0107389 0.00761224 4.587e-18)
(-0.0118219 0.00582437 -6.07014e-23)
(-0.032863 0.00797647 4.65117e-18)
(-0.0365946 0.00723919 0)
(-0.0423413 0.00753739 0)
(-0.0429505 0.00710542 0)
(-0.0447961 0.00699295 2.21383e-18)
(-0.0450748 0.0067447 2.1782e-18)
(-0.0462049 0.00667037 0)
(-0.0471822 0.00665785 -2.10978e-18)
(-0.0489963 0.00676281 2.07681e-18)
(-0.0511812 0.0068923 0)
(-0.0539263 0.00699414 0)
(-0.0568579 0.0070278 0)
(-0.0599795 0.00701701 7.41342e-23)
(-0.0632606 0.00702516 0)
(-0.066937 0.00711421 -3.81179e-18)
(-0.0712268 0.0073045 9.40776e-19)
(-0.0763156 0.00755552 9.29196e-19)
(-0.0821986 0.00778159 2.11411e-24)
(-0.0887031 0.00788049 -9.08058e-19)
(-0.0955155 0.00776599 0)
(-0.102267 0.00738227 0)
(-0.108586 0.00670816 0)
(-0.114139 0.00574854 2.1961e-19)
(-0.118633 0.0045243 4.37368e-19)
(-0.121808 0.00306476 0)
(-0.123425 0.00140388 0)
(-0.123253 -0.000420347 -4.37404e-19)
(-0.121067 -0.00236452 -2.19606e-19)
(-0.116638 -0.00437981 0)
(-0.109722 -0.00640776 0)
(-0.100077 -0.00837797 0)
(-0.0874725 -0.0102046 0)
(-0.0717012 -0.0117839 0)
(-0.0526143 -0.0129875 0)
(-0.030133 -0.0136564 0)
(-0.00436659 -0.0135854 0)
(0.0244413 -0.012518 0)
(0.0557449 -0.0102615 -1.65689e-21)
(0.0903123 -0.00699987 2.00377e-18)
(0.128062 -0.00279206 0)
(0.16842 0.00262673 -4.35774e-18)
(0.210437 0.00934235 -2.26534e-18)
(0.253447 0.0172932 0)
(0.29597 0.0263089 2.4218e-18)
(0.337924 0.0361288 -2.47985e-18)
(0.377036 0.0464413 5.02916e-18)
(0.415488 0.0569794 -5.05625e-18)
(0.448437 0.0673967 0)
(0.484704 0.0778617 9.44941e-21)
(0.510127 0.0876749 4.66761e-18)
(0.552639 0.098668 -8.98699e-18)
(0.567722 0.107659 -1.20049e-20)
(0.638114 0.122151 -3.62581e-18)
(0.633144 0.129817 1.62395e-18)
(0.779344 0.149511 2.27003e-18)
(0.832281 0.0576488 3.13206e-18)
(0.374308 0.0245299 0)
(0.147375 0.00467185 2.61632e-21)
(0.0299266 0.00827856 -2.76896e-22)
(-0.00337474 0.00612927 4.61416e-18)
(-0.0296097 0.00840421 4.64747e-18)
(-0.0361394 0.00763673 0)
(-0.0437071 0.00803293 4.55886e-18)
(-0.045337 0.0076094 0)
(-0.0479054 0.00753792 -2.21325e-18)
(-0.0486394 0.007311 -9.35774e-23)
(-0.050118 0.00727619 -2.14231e-18)
(-0.0513628 0.00731066 0)
(-0.0534163 0.00747113 -4.14526e-18)
(-0.0558174 0.00764779 0)
(-0.0587543 0.00777749 0)
(-0.0618412 0.00781791 0)
(-0.065075 0.00780438 1.94361e-18)
(-0.0684261 0.00781796 0)
(-0.072132 0.00793329 1.88424e-18)
(-0.0764074 0.00817033 -1.85576e-18)
(-0.0814212 0.00847459 0)
(-0.0871418 0.00873965 3.33919e-24)
(-0.0933675 0.00884497 0)
(-0.0997656 0.00869444 0)
(-0.105964 0.00823147 -4.33251e-19)
(-0.111602 0.00744027 0)
(-0.116365 0.00633343 -4.2482e-19)
(-0.119982 0.00493899 -2.10927e-19)
(-0.122213 0.0032917 -5.24736e-20)
(-0.122838 0.00142918 5.23423e-20)
(-0.121645 -0.000608305 2.09398e-19)
(-0.118422 -0.00277626 4.19459e-19)
(-0.112952 -0.00502548 0)
(-0.104999 -0.00729742 4.2356e-19)
(-0.094332 -0.00951991 0)
(-0.0807313 -0.0116038 0)
(-0.063999 -0.0134405 0)
(-0.043991 -0.0148932 8.84728e-19)
(-0.0206255 -0.0157887 0)
(0.00600935 -0.0159024 0)
(0.0357377 -0.0149545 1.8275e-18)
(0.0681775 -0.0127897 -1.84864e-18)
(0.104132 -0.00959461 0)
(0.143336 -0.00536729 0)
(0.185226 0.000190896 2.0574e-18)
(0.2289 0.00717982 2.13508e-18)
(0.273735 0.0155514 -2.20613e-18)
(0.318354 0.0251401 0)
(0.362683 0.0356809 0)
(0.40459 0.046858 0)
(0.446092 0.0583584 9.06249e-21)
(0.482599 0.0698554 0)
(0.522345 0.0813572 4.72314e-18)
(0.55195 0.0923659 0)
(0.597781 0.104199 4.344e-18)
(0.61777 0.114539 -3.62726e-18)
(0.690687 0.129247 7.07301e-18)
(0.692018 0.138651 -1.59446e-18)
(0.840712 0.156838 -2.23347e-18)
(0.86305 0.0707511 8.43739e-20)
(0.440401 0.0301405 -3.64504e-18)
(0.191747 0.00762739 -4.13312e-18)
(0.0539683 0.00918252 -1.84213e-22)
(0.00815777 0.00653179 -4.60179e-18)
(-0.0239665 0.00876096 -4.64248e-18)
(-0.0338932 0.00794376 0)
(-0.0436089 0.00842528 -4.55706e-18)
(-0.0465108 0.0080096 0)
(-0.0499547 0.0079824 -2.212e-18)
(-0.0512534 0.00778072 -2.17549e-18)
(-0.0531374 0.0077893 2.13982e-18)
(-0.0546721 0.00787336 -2.10298e-18)
(-0.0569491 0.00809013 2.06698e-18)
(-0.0595228 0.00831242 -2.03082e-18)
(-0.0625857 0.00846651 1.99539e-18)
(-0.0657495 0.00850914 0)
(-0.0690079 0.00848828 0)
(-0.0723307 0.00850282 0)
(-0.0759508 0.00863949 9.29267e-19)
(-0.080073 0.00891678 9.131e-19)
(-0.0848485 0.00926575 0)
(-0.0902253 0.00955988 -8.82289e-19)
(-0.0959879 0.00966216 0)
(-0.101802 0.00946899 0)
(-0.107309 0.00892469 4.20939e-19)
(-0.112169 0.00801947 -4.15406e-19)
(-0.116091 0.00677313 2.05347e-19)
(-0.118824 0.00521973 0)
(-0.120147 0.00339816 1.0102e-19)
(-0.119854 0.00134844 -1.00583e-19)
(-0.117744 -0.000887816 0)
(-0.113616 -0.00326609 -2.00819e-19)
(-0.107253 -0.00573774 4.02529e-19)
(-0.0984283 -0.00824399 -4.04782e-19)
(-0.086918 -0.010711 0)
(-0.0725096 -0.0130469 0)
(-0.0550095 -0.0151379 0)
(-0.0342752 -0.0168397 -8.4524e-19)
(-0.0102179 -0.0179658 0)
(0.0170983 -0.0182754 0)
(0.0475632 -0.0174723 -1.75269e-18)
(0.0809287 -0.0154352 0)
(0.117919 -0.0123496 1.82409e-18)
(0.158141 -0.00815225 -1.88641e-18)
(0.201049 -0.00252066 0)
(0.245787 0.00465522 2.02003e-18)
(0.29177 0.013338 4.17303e-18)
(0.33772 0.0233631 -2.1436e-18)
(0.383585 0.0344637 0)
(0.427388 0.0463169 0)
(0.471042 0.0585832 2.27003e-18)
(0.510241 0.0709473 0)
(0.552722 0.0833035 4.47879e-18)
(0.585871 0.0953104 0)
(0.634559 0.107856 4.15098e-18)
(0.65907 0.119366 3.47807e-18)
(0.73416 0.134195 -3.42348e-18)
(0.741466 0.14511 0)
(0.891477 0.161749 2.15461e-18)
(0.887778 0.082852 -3.38278e-18)
(0.502085 0.0364444 2.00186e-20)
(0.239858 0.0112052 4.07868e-18)
(0.0827585 0.0104343 -1.63642e-22)
(0.0229594 0.00709867 -6.61257e-22)
(-0.0158367 0.00909911 0)
(-0.0297802 0.00819797 0)
(-0.0419926 0.00874082 0)
(-0.0464285 0.00832546 -2.24337e-18)
(-0.0509141 0.0083411 4.42082e-18)
(-0.0528924 0.00816432 0)
(-0.0552448 0.00821659 2.13636e-18)
(-0.057094 0.00834932 5.76551e-23)
(-0.0595817 0.0086203 -2.0597e-18)
(-0.0622893 0.0088847 5.74662e-23)
(-0.0654221 0.00905905 -1.98225e-18)
(-0.0686003 0.00909978 0)
(-0.0718185 0.00906797 0)
(-0.0750448 0.00907976 0)
(-0.0785009 0.00923301 -9.15355e-19)
(-0.0823762 0.00954395 0)
(-0.0868041 0.00992939 8.8013e-19)
(-0.091721 0.010244 8.6341e-19)
(-0.0969099 0.0103363 -8.47399e-19)
(-0.102049 0.010097 0)
(-0.106801 0.00947221 0)
(-0.110852 0.00845805 4.02971e-19)
(-0.113933 0.00708058 0)
(-0.115811 0.00537871 1.96621e-19)
(-0.116277 0.00339444 -4.8747e-20)
(-0.115136 0.00116941 4.84747e-20)
(-0.112195 -0.0012541 -1.93303e-19)
(-0.107256 -0.0038322 0)
(-0.100104 -0.00651704 -3.86849e-19)
(-0.0905181 -0.00924934 0)
(-0.0782801 -0.0119537 0)
(-0.0631825 -0.0145355 7.90866e-19)
(-0.0450347 -0.0168764 0)
(-0.0236938 -0.0188249 0)
(0.00093597 -0.0201826 0)
(0.0288157 -0.0206953 0)
(0.0598918 -0.0200561 0)
(0.0940193 -0.0181711 0)
(0.131788 -0.0152187 -3.51906e-18)
(0.172722 -0.0110795 1.81473e-18)
(0.216293 -0.00541482 1.87054e-18)
(0.26169 0.00189284 -3.85909e-18)
(0.308358 0.0108142 -1.98732e-18)
(0.355105 0.0211819 2.03854e-18)
(0.401901 0.0327275 -2.08098e-18)
(0.446918 0.045116 0)
(0.491995 0.0579924 4.4901e-21)
(0.533108 0.0710408 -4.26652e-18)
(0.577593 0.0840825 -4.25847e-18)
(0.613547 0.0968851 -4.0592e-18)
(0.664532 0.110006 -7.92851e-18)
(0.69295 0.122474 -3.34061e-18)
(0.769858 0.137352 3.27109e-18)
(0.78254 0.149508 1.46304e-18)
(0.933136 0.164677 -2.09243e-18)
(0.907676 0.0939085 -7.31423e-20)
(0.558847 0.043249 3.50532e-18)
(0.290412 0.0153925 2.24982e-21)
(0.116032 0.0121164 -2.03539e-22)
(0.0412102 0.00789834 4.56091e-18)
(-0.00511187 0.00947183 4.62194e-18)
(-0.0237194 0.00843852 -4.59037e-18)
(-0.0387953 0.00900644 2.27469e-18)
(-0.0450405 0.00857718 4.42556e-23)
(-0.0507489 0.00862922 -2.20829e-18)
(-0.0535297 0.00847286 -2.17027e-18)
(-0.0564224 0.00856567 -2.13222e-18)
(-0.0586166 0.00874299 4.18373e-18)
(-0.0613104 0.00906378 4.76699e-23)
(-0.0641235 0.00936571 2.00925e-18)
(-0.0672859 0.00955655 0)
(-0.070437 0.00959266 1.92488e-18)
(-0.0735764 0.00954788 0)
(-0.0766668 0.00955418 -1.84209e-18)
(-0.0799121 0.00971941 -9.01161e-19)
(-0.0834816 0.0100571 -8.81915e-19)
(-0.0874926 0.0104709 -7.25916e-24)
(-0.0918777 0.0107982 -8.45319e-19)
(-0.0964293 0.0108751 8.28079e-19)
(-0.100847 0.0105879 0)
(-0.10482 0.00988493 -3.98408e-19)
(-0.10806 0.00876749 0)
(-0.110317 0.0072669 0)
(-0.111373 0.00542594 -1.90619e-19)
(-0.11103 0.00328888 0)
(-0.109098 0.000898511 0)
(-0.105388 -0.00170276 1.86847e-19)
(-0.0997056 -0.00447202 0)
(-0.0918353 -0.00736209 0)
(-0.0815623 -0.010313 3.75058e-19)
(-0.0686726 -0.0132478 0)
(-0.052963 -0.0160694 -7.63889e-19)
(-0.0342449 -0.018655 0)
(-0.0123749 -0.0208466 7.84666e-19)
(0.0127498 -0.0224351 0)
(0.0411139 -0.0231557 0)
(0.072709 -0.0226947 0)
(0.107466 -0.0209775 0)
(0.145821 -0.0181695 1.7066e-18)
(0.187246 -0.0141032 0)
(0.231232 -0.00842901 -3.60905e-18)
(0.277002 -0.00102401 1.85612e-18)
(0.324031 0.00808847 -1.90205e-18)
(0.371199 0.0187352 1.94554e-18)
(0.418497 0.0306453 1.98829e-18)
(0.464227 0.0434669 0)
(0.510176 0.0568361 2.03782e-18)
(0.552574 0.0704246 6.08754e-18)
(0.598441 0.0840111 -4.03514e-18)
(0.636504 0.097429 3.86907e-18)
(0.689225 0.110999 3.77952e-18)
(0.720846 0.124208 0)
(0.799194 0.139071 -3.14008e-18)
(0.816496 0.152187 -2.80558e-18)
(0.967174 0.166017 0)
(0.923681 0.103934 3.60981e-18)
(0.610488 0.0503636 0)
(0.342172 0.0201486 2.03445e-21)
(0.153359 0.0142856 -2.83569e-22)
(0.0630544 0.00899189 -4.53432e-18)
(0.00832966 0.009938 -9.21439e-18)
(-0.015624 0.00870624 9.16759e-18)
(-0.0339441 0.00924955 -2.27203e-18)
(-0.0422911 0.00878582 2.23919e-18)
(-0.0494186 0.00886269 0)
(-0.0531363 0.0087182 4.23847e-23)
(-0.0566524 0.00884521 0)
(-0.0592326 0.00906028 -4.16973e-18)
(-0.0621402 0.00942483 2.04144e-18)
(-0.0650449 0.00975927 0)
(-0.0682152 0.00996378 0)
(-0.0713189 0.00999412 -1.90567e-18)
(-0.0743624 0.00993565 0)
(-0.0772992 0.00993419 1.8172e-18)
(-0.0803088 0.0101064 8.87525e-19)
(-0.0835371 0.0104634 1.79336e-23)
(-0.0870883 0.0108968 -8.47549e-19)
(-0.090898 0.0112294 -8.28577e-19)
(-0.0947767 0.0112863 0)
(-0.0984513 0.0109505 0)
(-0.101639 0.0101722 3.88765e-19)
(-0.104077 0.00895715 0)
(-0.105532 0.00734087 1.87844e-19)
(-0.105798 0.00536913 -1.85369e-19)
(-0.104683 0.0030879 4.58683e-20)
(-0.102002 0.000540725 -4.55448e-20)
(-0.0975708 -0.00223025 1.81267e-19)
(-0.0911911 -0.00518328 -1.80845e-19)
(-0.0826518 -0.00827149 3.62104e-19)
(-0.0717423 -0.0114341 -3.63854e-19)
(-0.0582526 -0.0145929 0)
(-0.0419827 -0.0176483 0)
(-0.022746 -0.0204732 0)
(-0.000398562 -0.0229036 -4.12613e-22)
(0.0251684 -0.0247211 7.73299e-19)
(0.0539603 -0.0256524 0)
(0.0860033 -0.0253796 0)
(0.121279 -0.0238396 0)
(0.160075 -0.0211795 0)
(0.201829 -0.0171919 0)
(0.246049 -0.0115208 2.00863e-21)
(0.291989 -0.00403924 0)
(0.339146 0.00523357 3.67363e-18)
(0.386465 0.0161163 -3.74826e-18)
(0.433954 0.0283344 -1.9054e-18)
(0.480029 0.0415154 0)
(0.526437 0.0552906 0)
(0.569637 0.069309 -3.87078e-18)
(0.616389 0.0833293 9.50669e-21)
(0.655972 0.0972133 -3.67502e-18)
(0.70993 0.111124 3.58946e-18)
(0.74408 0.124877 3.02471e-18)
(0.823493 0.139673 -2.98145e-18)
(0.844624 0.153478 2.66678e-18)
(0.995006 0.16612 1.91223e-18)
(0.936534 0.112973 6.5458e-20)
(0.657022 0.057614 -3.36353e-18)
(0.394027 0.025407 -7.81039e-18)
(0.19416 0.016974 -3.93896e-22)
(0.0885585 0.0104332 4.50177e-18)
(0.0246264 0.0105552 4.58715e-18)
(-0.00540253 0.00904551 -2.28649e-18)
(-0.0273557 0.00949815 0)
(-0.038117 0.00897351 0)
(-0.0468765 0.00905824 2.20263e-18)
(-0.0516795 0.00891323 2.1631e-18)
(-0.0559168 0.00906507 0)
(-0.0589376 0.00930871 2.07742e-18)
(-0.0620819 0.0097097 0)
(-0.065081 0.0100716 0)
(-0.0682549 0.0102878 0)
(-0.0713074 0.0103124 0)
(-0.0742534 0.0102401 1.83943e-18)
(-0.0770326 0.0102284 8.96814e-19)
(-0.0797954 0.0104017 -8.74803e-19)
(-0.0826627 0.0107694 1.71395e-23)
(-0.0857283 0.0112136 0)
(-0.0889374 0.011544 8.13427e-19)
(-0.0921245 0.011577 0)
(-0.0950477 0.0111923 0)
(-0.0974541 0.0103418 3.80236e-19)
(-0.0991025 0.0090345 -3.72987e-19)
(-0.0997768 0.00730934 -1.83398e-19)
(-0.0992788 0.00521423 1.80863e-19)
(-0.0974224 0.00279638 -8.94572e-20)
(-0.0940253 9.98384e-05 8.87954e-20)
(-0.0889053 -0.00283389 -1.76582e-19)
(-0.0818625 -0.00596417 1.76147e-19)
(-0.0726894 -0.00924414 -1.04595e-22)
(-0.0611791 -0.0126122 -3.5419e-19)
(-0.0471251 -0.0159888 0)
(-0.0303304 -0.019272 0)
(-0.0106104 -0.0223309 0)
(0.0121792 -0.0249957 -1.48586e-18)
(0.0381518 -0.0270396 -7.54671e-19)
(0.0673296 -0.0281826 0)
(0.0997638 -0.0281047 0)
(0.135468 -0.0267462 -1.5888e-18)
(0.174592 -0.0242322 0)
(0.216554 -0.0203236 0)
(0.260873 -0.0146609 3.41224e-18)
(0.306833 -0.00711439 -1.74471e-18)
(0.353946 0.00229927 -3.56619e-18)
(0.401216 0.0133887 2.91755e-21)
(0.448664 0.025875 3.68508e-18)
(0.494809 0.0393619 1.85728e-18)
(0.541367 0.0534785 0)
(0.584998 0.0678431 1.85869e-18)
(0.632248 0.0822111 3.69142e-18)
(0.672876 0.0964425 3.52283e-18)
(0.727657 0.110606 -3.43844e-18)
(0.763746 0.124736 -2.8978e-18)
(0.843887 0.139424 2.85665e-18)
(0.868107 0.153677 -1.27228e-18)
(1.0179 0.165281 -1.83582e-18)
(0.946831 0.121089 6.248e-20)
(0.698605 0.0648502 3.32419e-18)
(0.445026 0.0310807 -1.57752e-21)
(0.237747 0.02019 -5.29728e-22)
(0.117684 0.0122669 0)
(0.0438958 0.0113825 0)
(0.00706669 0.00949905 1.71887e-22)
(-0.0189356 0.00978132 0)
(-0.0324465 0.00916351 0)
(-0.0430677 0.0092335 -6.84235e-24)
(-0.0491213 0.00907189 0)
(-0.054194 0.00923638 0)
(-0.0577263 0.00949727 2.06996e-18)
(-0.0611468 0.00992624 0)
(-0.064259 0.0103102 0)
(-0.0674469 0.0105367 0)
(-0.0704566 0.0105559 0)
(-0.0733128 0.0104698 -6.24321e-23)
(-0.0759386 0.0104446 -8.86143e-19)
(-0.0784524 0.0106122 1.72668e-18)
(-0.0809496 0.0109814 1.5776e-23)
(-0.0835165 0.0114269 8.2029e-19)
(-0.0861125 0.011748 0)
(-0.0886009 0.0117532 7.80463e-19)
(-0.090773 0.0113195 0)
(-0.0924057 0.0103999 -3.72774e-19)
(-0.0932793 0.00900554 1.33605e-23)
(-0.0931916 0.00717771 0)
(-0.0919519 0.00496589 0)
(-0.089378 0.00241813 5.31789e-24)
(-0.0852901 -0.000421276 -6.88997e-24)
(-0.0795061 -0.0035117 8.62584e-20)
(-0.0718254 -0.00681344 0)
(-0.0620441 -0.0102794 -3.44621e-19)
(-0.0499585 -0.0138471 3.46255e-19)
(-0.0353653 -0.0174358 0)
(-0.0180706 -0.0209413 -7.05905e-19)
(0.00210844 -0.0242287 0)
(0.025316 -0.0271232 3.74245e-22)
(0.0516679 -0.0293904 0)
(0.0811997 -0.0307448 7.51302e-19)
(0.113979 -0.030865 7.65162e-19)
(0.150036 -0.0296888 1.17048e-21)
(0.189401 -0.0273158 -1.59463e-18)
(0.231478 -0.0234825 0)
(0.275797 -0.0178285 -1.82134e-21)
(0.321661 -0.0102225 1.70787e-18)
(0.368601 -0.000679675 2.45003e-21)
(0.415667 0.0105969 1.76908e-18)
(0.462897 0.0233229 -3.13178e-21)
(0.508902 0.0370764 -3.45797e-21)
(0.555372 0.0514854 0)
(0.599147 0.0661323 0)
(0.646596 0.0807808 0)
(0.68789 0.0952663 0)
(0.743162 0.109611 0)
(0.7807 0.123982 2.76076e-18)
(0.861281 0.13853 0)
(0.887946 0.15303 0)
(1.03693 0.163737 -1.74623e-18)
(0.955059 0.128357 -1.93684e-18)
(0.735487 0.071949 0)
(0.494389 0.0370702 -1.38674e-21)
(0.283364 0.0239184 -6.85351e-22)
(0.15027 0.0145267 0)
(0.0662243 0.0124773 2.26814e-18)
(0.0219207 0.0101086 -2.27166e-18)
(-0.0085775 0.0101293 0)
(-0.0251985 0.0093804 0)
(-0.0379276 0.00940695 -2.19631e-18)
(-0.0454155 0.00920916 0)
(-0.0514558 0.00937132 0)
(-0.055588 0.0096361 -2.06301e-18)
(-0.0593414 0.0100833 0)
(-0.0626 0.0104836 -1.95917e-18)
(-0.0658238 0.0107187 0)
(-0.068807 0.0107329 0)
(-0.0715869 0.0106324 -5.45457e-23)
(-0.0740687 0.01059 0)
(-0.076338 0.0107442 -8.53187e-19)
(-0.0784645 0.0111049 8.30646e-19)
(-0.0805295 0.0115419 -1.61782e-18)
(-0.0825099 0.0118464 7.87998e-19)
(-0.0843008 0.0118203 -7.68086e-19)
(-0.085728 0.0113378 0)
(-0.0865979 0.0103519 -3.66254e-19)
(-0.0867118 0.00887524 7.17533e-19)
(-0.0858795 0.00695039 0)
(-0.0839169 0.00462784 -8.6798e-20)
(-0.0806453 0.00195615 4.29119e-20)
(-0.0758865 -0.00102041 -4.25483e-20)
(-0.0694572 -0.00426219 -8.45526e-20)
(-0.0611577 -0.00773017 0)
(-0.0507871 -0.0113768 -3.3767e-19)
(-0.0381448 -0.0151389 3.39324e-19)
(-0.0230304 -0.0189343 0)
(-0.00525273 -0.0226567 6.92653e-19)
(0.0153688 -0.0261676 0)
(0.0389774 -0.0292868 7.12984e-19)
(0.0656896 -0.0317737 0)
(0.095551 -0.0333379 -7.3891e-19)
(0.128639 -0.033657 -7.53383e-19)
(0.164985 -0.0326608 1.14696e-21)
(0.204523 -0.0304217 1.57147e-18)
(0.246645 -0.0266576 0)
(0.290885 -0.021009 -1.64322e-18)
(0.336565 -0.0133442 0)
(0.38323 -0.00367846 1.70712e-18)
(0.429972 0.00777254 0)
(0.476845 0.0207179 -1.75035e-18)
(0.522542 0.0347084 -3.51284e-18)
(0.568738 0.0493724 0)
(0.61243 0.0642518 0)
(0.659841 0.0791279 0)
(0.701504 0.0937936 1.627e-18)
(0.756999 0.108264 0)
(0.795589 0.122766 -1.05727e-20)
(0.876372 0.137152 0)
(0.904946 0.151733 1.13618e-18)
(1.05294 0.161671 1.67799e-18)
(0.961617 0.134852 0)
(0.767976 0.0788137 3.23552e-18)
(0.541506 0.0432705 3.75434e-18)
(0.33023 0.0281222 -8.52172e-22)
(0.186032 0.0172333 0)
(0.0916547 0.0138909 -2.25278e-18)
(0.0392965 0.010916 0)
(0.00383271 0.0105746 2.25477e-18)
(-0.0162831 0.00965013 2.22733e-18)
(-0.0313799 0.00959791 2.19325e-18)
(-0.0405053 0.00934098 2.15193e-18)
(-0.0476637 0.00948297 2.10697e-18)
(-0.0525029 0.00973618 0)
(-0.0566624 0.0101904 0)
(-0.0601145 0.0106 1.949e-18)
(-0.0634056 0.0108416 0)
(-0.0663847 0.0108506 0)
(-0.0691056 0.0107346 -1.78699e-18)
(-0.0714569 0.0106704 0)
(-0.0734917 0.0108031 -8.44306e-19)
(-0.0752544 0.011145 0)
(-0.0768229 0.0115636 7.9896e-19)
(-0.0781935 0.0118442 -7.77576e-19)
(-0.0792947 0.0117832 0)
(-0.079988 0.0112519 0)
(-0.0801086 0.0102025 4.41381e-24)
(-0.0794779 0.00864781 -3.53051e-19)
(-0.0779173 0.00663108 0)
(-0.0752486 0.00420315 8.53643e-20)
(-0.0712959 0.00141284 4.21883e-20)
(-0.0658823 -0.00169583 -4.18016e-20)
(-0.0588226 -0.00508423 0)
(-0.0499191 -0.00871374 0)
(-0.0389735 -0.0125363 8.98475e-23)
(-0.0257881 -0.0164879 -1.05196e-22)
(-0.0101652 -0.0204851 0)
(0.00808366 -0.0244194 0)
(0.0291366 -0.0281486 6.89945e-19)
(0.0531343 -0.0314878 0)
(0.0801932 -0.0341903 0)
(0.110365 -0.0359616 0)