/*--------------------------------*- C++ -*----------------------------------*\
| =========                 |                                                 |
| \\      /  F ield         | OpenFOAM: The Open Source CFD Toolbox           |
|  \\    /   O peration     | Version:  2.4.0                                 |
|   \\  /    A nd           | Web:      www.OpenFOAM.org                      |
|    \\/     M anipulation  |                                                 |
\*---------------------------------------------------------------------------*/
FoamFile
{
    version     2.0;
    format      ascii;
    class       volScalarField;
    location    "1.37";
    object      p;
}
// * * * * * * * * * * * * * * * * * * * * * * * * * * * * * * * * * * * * * //

dimensions      [0 2 -2 0 0 0 0];

internalField   nonuniform List<scalar> 
6000
(
-0.0764482
0.280352
0.237189
0.256781
0.247207
0.253871
0.248532
0.233546
0.214181
0.204023
0.173361
0.114158
0.048407
5.93966e-05
-0.0146249
0.0090894
0.065453
0.142068
0.221141
0.28753
0.335284
0.366111
0.384768
0.395384
0.401835
0.405967
0.409019
0.411624
0.414048
0.416348
0.418468
0.420316
0.421789
0.422803
0.4233
0.423252
0.42266
0.421541
0.419921
0.417822
0.415258
0.412226
0.408707
0.404665
0.400043
0.394763
0.388725
0.3818
0.373826
0.364597
0.353848
0.341242
0.326318
0.308526
0.286913
0.260804
0.227152
0.187995
0.125035
0.0787297
-0.0501289
0.276949
0.237289
0.256663
0.247196
0.253784
0.248547
0.233714
0.214478
0.204732
0.174723
0.115478
0.0487067
-0.000545901
-0.0159368
0.0068841
0.0633074
0.140057
0.219561
0.286479
0.334663
0.365775
0.384597
0.395278
0.401768
0.40591
0.408964
0.411569
0.413992
0.41629
0.418408
0.420252
0.42172
0.422726
0.423214
0.423155
0.42255
0.421417
0.419782
0.417668
0.415087
0.412037
0.408499
0.404436
0.399791
0.394484
0.388416
0.381458
0.373445
0.364171
0.353369
0.340701
0.325704
0.307825
0.286108
0.259864
0.226067
0.186644
0.123612
0.0768604
-0.0332628
0.273519
0.237321
0.256594
0.247151
0.253688
0.248524
0.233799
0.214625
0.205035
0.17472
0.115103
0.0481261
-0.00139187
-0.0170053
0.00573544
0.061633
0.138384
0.218243
0.285646
0.334213
0.365558
0.384491
0.395215
0.401713
0.405852
0.4089
0.4115
0.413921
0.416217
0.418335
0.420178
0.421644
0.422648
0.423132
0.423067
0.422456
0.421317
0.419676
0.417555
0.414967
0.411911
0.408368
0.404298
0.399646
0.394332
0.388256
0.381287
0.373263
0.363975
0.353156
0.340468
0.325446
0.307532
0.285775
0.259468
0.225607
0.186023
0.122912
0.0759941
-0.0210764
0.26969
0.237523
0.256521
0.247104
0.253584
0.248526
0.233959
0.214924
0.205117
0.173963
0.114049
0.0471676
-0.00254586
-0.0186467
0.00367661
0.059503
0.136439
0.216813
0.284815
0.333817
0.365399
0.384425
0.39518
0.401666
0.405788
0.408822
0.411412
0.413828
0.416122
0.41824
0.420083
0.421548
0.42255
0.423029
0.422958
0.422339
0.42119
0.419538
0.417405
0.414806
0.411737
0.408179
0.404094
0.399424
0.39409
0.38799
0.380996
0.372941
0.363618
0.352758
0.340022
0.324942
0.306963
0.285124
0.258738
0.224742
0.185086
0.121829
0.0749926
-0.00931688
0.265576
0.237884
0.256446
0.247055
0.25347
0.24855
0.23424
0.215382
0.205072
0.172969
0.11291
0.0460977
-0.00395021
-0.0205503
0.00140668
0.0571176
0.134312
0.215301
0.283989
0.33347
0.365298
0.384403
0.395176
0.401633
0.405727
0.408739
0.411316
0.413724
0.416016
0.418133
0.419976
0.421442
0.422442
0.422918
0.422842
0.422215
0.421057
0.419396
0.417254
0.414644
0.411565
0.407997
0.4039
0.399218
0.393872
0.387758
0.380746
0.372673
0.363328
0.352443
0.339676
0.32456
0.306534
0.284643
0.258164
0.224114
0.184253
0.120905
0.0740889
0.0022122
0.261338
0.238362
0.256357
0.247007
0.253334
0.24859
0.234692
0.216104
0.204974
0.171898
0.11174
0.0448992
-0.0056432
-0.0227631
-0.00116222
0.0544506
0.131959
0.213657
0.283127
0.333147
0.365241
0.384419
0.3952
0.401612
0.405669
0.408652
0.411212
0.413612
0.415901
0.418018
0.419864
0.421331
0.422331
0.422804
0.422722
0.422089
0.420923
0.419252
0.4171
0.41448
0.41139
0.407811
0.403702
0.399007
0.393645
0.387513
0.380481
0.372383
0.363009
0.35209
0.339283
0.324118
0.306035
0.284071
0.257521
0.223332
0.183405
0.119918
0.0732304
0.012889
0.25708
0.238885
0.256234
0.246966
0.253169
0.248647
0.235372
0.217163
0.204933
0.170783
0.110523
0.0435217
-0.00762601
-0.0252893
-0.00404348
0.0514894
0.129368
0.211872
0.282218
0.332836
0.365218
0.384466
0.395246
0.401602
0.40561
0.408559
0.411098
0.413489
0.415776
0.417895
0.419744
0.421214
0.422216
0.422688
0.422603
0.421963
0.420788
0.419108
0.416946
0.414316
0.411216
0.407626
0.403506
0.398797
0.393421
0.387272
0.380221
0.372101
0.362702
0.351753
0.33891
0.323704
0.305569
0.283543
0.256909
0.222643
0.182582
0.118959
0.0724379
0.0226565
0.252875
0.239383
0.256082
0.246936
0.252981
0.24873
0.236326
0.218588
0.205017
0.169682
0.109287
0.0419596
-0.0098743
-0.0281199
-0.00724209
0.0482235
0.126525
0.209934
0.281259
0.332533
0.365225
0.384539
0.395308
0.401597
0.405548
0.408456
0.410972
0.413352
0.415637
0.41776
0.419615
0.421091
0.422097
0.422571
0.422483
0.421837
0.420655
0.418966
0.416794
0.414154
0.411044
0.407443
0.403312
0.398591
0.3932
0.387036
0.379967
0.371825
0.362401
0.351422
0.338544
0.323294
0.305108
0.283018
0.256308
0.221937
0.18178
0.118032
0.0717061
0.0317453
0.248786
0.239798
0.255918
0.246913
0.25278
0.248847
0.237558
0.22035
0.205257
0.168658
0.108054
0.040228
-0.0123723
-0.0312489
-0.0107593
0.044644
0.123416
0.207826
0.280239
0.332238
0.365261
0.384632
0.395384
0.401597
0.405482
0.408344
0.410832
0.413201
0.415485
0.417612
0.419475
0.42096
0.421973
0.42245
0.422362
0.421712
0.420523
0.418825
0.416644
0.413994
0.410874
0.407263
0.403121
0.398388
0.392984
0.386805
0.379718
0.371556
0.362107
0.351099
0.338187
0.322896
0.304659
0.282509
0.255725
0.221261
0.181007
0.117147
0.0710283
0.0403113
0.244851
0.240101
0.255745
0.246897
0.252577
0.249002
0.239015
0.222379
0.205657
0.167748
0.106822
0.0383413
-0.0151107
-0.0346697
-0.0145908
0.0407483
0.120025
0.205528
0.27914
0.331943
0.365324
0.384742
0.395471
0.401601
0.405413
0.408222
0.41068
0.413035
0.415317
0.41745
0.419323
0.42082
0.421842
0.422325
0.422239
0.421587
0.420392
0.418685
0.416495
0.413836
0.410707
0.407086
0.402933
0.398189
0.392772
0.386578
0.379474
0.371291
0.361819
0.350784
0.337838
0.322507
0.304223
0.282013
0.255157
0.220605
0.18026
0.116307
0.0703953
0.0484078
0.241093
0.24028
0.255547
0.246901
0.252383
0.249186
0.240617
0.224571
0.206195
0.166959
0.105586
0.0363102
-0.0180784
-0.0383694
-0.0187228
0.0365447
0.11635
0.203022
0.277941
0.331635
0.3654
0.384877
0.395568
0.401609
0.40534
0.408091
0.410515
0.412855
0.415135
0.417274
0.419159
0.420669
0.421704
0.422196
0.422114
0.42146
0.42026
0.418547
0.416348
0.41368
0.410541
0.406911
0.402748
0.397993
0.392564
0.386355
0.379234
0.371033
0.361538
0.350475
0.337497
0.322128
0.303797
0.28153
0.254605
0.219968
0.179537
0.115506
0.0697987
0.0560641
0.237526
0.240333
0.255323
0.246936
0.252204
0.249388
0.242281
0.226825
0.206843
0.166288
0.104344
0.0341461
-0.0212589
-0.0423262
-0.0231308
0.0320537
0.112398
0.200301
0.276621
0.331299
0.365482
0.385028
0.395673
0.401619
0.405264
0.407953
0.410339
0.412662
0.414938
0.417085
0.418982
0.420508
0.421559
0.422062
0.421986
0.421333
0.420129
0.418409
0.416203
0.413526
0.410378
0.406738
0.402566
0.3978
0.392359
0.386137
0.379
0.370779
0.361262
0.350173
0.337164
0.321757
0.30338
0.281058
0.254066
0.219349
0.178836
0.114743
0.0692321
0.063316
0.234161
0.240268
0.255069
0.247006
0.252048
0.249598
0.243938
0.229062
0.207574
0.165727
0.103098
0.0318623
-0.0246306
-0.0465108
-0.0277821
0.0273049
0.108186
0.197364
0.27517
0.330916
0.365559
0.385191
0.395784
0.401631
0.405185
0.407809
0.410154
0.412458
0.41473
0.416883
0.418794
0.420337
0.421406
0.421923
0.421855
0.421205
0.419999
0.418273
0.416059
0.413374
0.410217
0.406569
0.402387
0.397611
0.392158
0.385923
0.37877
0.370531
0.360993
0.349878
0.336838
0.321395
0.302974
0.280598
0.253541
0.218747
0.178156
0.114015
0.068691
0.0701991
0.231002
0.240092
0.254774
0.247109
0.251909
0.249811
0.24554
0.231229
0.208362
0.165263
0.10185
0.0294752
-0.0281666
-0.0508875
-0.0326379
0.0223343
0.103742
0.194222
0.273581
0.330466
0.365622
0.385357
0.395899
0.401644
0.405105
0.407659
0.409962
0.412243
0.41451
0.416669
0.418594
0.420157
0.421245
0.421779
0.421722
0.421076
0.419868
0.418137
0.415916
0.413223
0.410058
0.406401
0.402211
0.397425
0.391961
0.385713
0.378545
0.370288
0.360729
0.349589
0.33652
0.321041
0.302576
0.280149
0.253028
0.21816
0.177495
0.113319
0.0681722
0.0767418
0.228054
0.239815
0.254433
0.247244
0.251783
0.250021
0.247055
0.233298
0.209191
0.164886
0.100601
0.0270037
-0.0318355
-0.0554164
-0.0376554
0.0171824
0.0990962
0.190892
0.271856
0.329938
0.36566
0.385517
0.396013
0.401657
0.405023
0.407506
0.409764
0.412021
0.41428
0.416444
0.418383
0.419966
0.421076
0.42163
0.421586
0.420945
0.419738
0.418003
0.415775
0.413075
0.409902
0.406237
0.402038
0.397243
0.391768
0.385507
0.378325
0.370051
0.360471
0.349307
0.336209
0.320695
0.302189
0.27971
0.252528
0.21759
0.176854
0.112652
0.0676737
0.0829663
0.225314
0.239451
0.254045
0.247394
0.251679
0.250226
0.248465
0.235252
0.210043
0.164584
0.0993574
0.024469
-0.0356029
-0.0600545
-0.0427889
0.0118927
0.0942842
0.187394
0.27
0.329328
0.365661
0.385664
0.396122
0.401669
0.40494
0.40735
0.409561
0.411793
0.414043
0.41621
0.418163
0.419767
0.4209
0.421475
0.421446
0.420814
0.419608
0.41787
0.415636
0.412928
0.409748
0.406075
0.401868
0.397064
0.391579
0.385306
0.378109
0.369819
0.360219
0.349032
0.335905
0.320357
0.30181
0.279282
0.252041
0.217035
0.176232
0.112014
0.067194
0.0888915
0.222779
0.239012
0.253609
0.247546
0.251609
0.250421
0.249761
0.237084
0.210907
0.164346
0.0981237
0.0218944
-0.0394315
-0.0647566
-0.047991
0.00651129
0.0893441
0.183754
0.268023
0.328636
0.365615
0.385789
0.39622
0.401677
0.404855
0.407193
0.409355
0.41156
0.413799
0.415968
0.417933
0.419558
0.420717
0.421315
0.421304
0.420682
0.419478
0.417738
0.415498
0.412784
0.409597
0.405916
0.401701
0.396888
0.391393
0.385109
0.377899
0.369592
0.359973
0.348763
0.335609
0.320028
0.301441
0.278865
0.251567
0.216496
0.175629
0.111404
0.0667321
0.0945345
0.220445
0.23851
0.253126
0.247693
0.25157
0.250608
0.250942
0.238789
0.211769
0.164162
0.0969062
0.0193043
-0.0432828
-0.0694767
-0.0532132
0.00108549
0.0843165
0.179997
0.265937
0.327865
0.365514
0.385884
0.396304
0.401679
0.404768
0.407034
0.409148
0.411325
0.413551
0.41572
0.417696
0.419342
0.420527
0.42115
0.421158
0.420548
0.419349
0.417606
0.415362
0.412642
0.409447
0.40576
0.401538
0.396717
0.391212
0.384917
0.377693
0.369371
0.359733
0.348501
0.33532
0.319707
0.301082
0.278459
0.251105
0.215972
0.175044
0.110819
0.0662874
0.0999105
0.218306
0.237959
0.252601
0.247825
0.251554
0.250794
0.252005
0.240367
0.21262
0.164022
0.0957119
0.0167246
-0.0471174
-0.0741686
-0.058407
-0.00433653
0.0792436
0.176154
0.263758
0.32702
0.365355
0.385942
0.396368
0.401672
0.404679
0.406876
0.408941
0.411089
0.4133
0.415467
0.417453
0.419119
0.42033
0.42098
0.42101
0.420413
0.419219
0.417476
0.415228
0.412502
0.409301
0.405607
0.401377
0.396548
0.391035
0.384729
0.377493
0.369155
0.359499
0.348246
0.335039
0.319395
0.300732
0.278065
0.250656
0.215464
0.174478
0.11026
0.0658593
0.105033
0.216354
0.237371
0.252038
0.247938
0.251555
0.250988
0.252951
0.24182
0.213451
0.163917
0.0945479
0.0141812
-0.0508962
-0.0787868
-0.0635246
-0.00970676
0.0741688
0.172255
0.2615
0.326106
0.365134
0.385959
0.396408
0.401655
0.404587
0.406717
0.408734
0.410852
0.413049
0.415211
0.417206
0.41889
0.420127
0.420805
0.420858
0.420276
0.41909
0.417347
0.415096
0.412364
0.409157
0.405457
0.40122
0.396384
0.390862
0.384546
0.377298
0.368946
0.359272
0.347997
0.334765
0.319091
0.300392
0.277681
0.250221
0.214972
0.173931
0.109725
0.0654473
0.109916
0.214581
0.236757
0.251443
0.248025
0.251564
0.251198
0.253774
0.243148
0.21425
0.163838
0.0934215
0.0116999
-0.0545809
-0.0832877
-0.0685202
-0.0149781
0.0691359
0.168334
0.259184
0.325128
0.364852
0.385929
0.39642
0.401624
0.404491
0.406559
0.40853
0.410618
0.412797
0.414954
0.416954
0.418656
0.419918
0.420625
0.420703
0.420138
0.41896
0.41722
0.414965
0.412228
0.409016
0.405309
0.401067
0.396223
0.390693
0.384367
0.377107
0.368741
0.359051
0.347756
0.3345
0.318797
0.300062
0.277309
0.249798
0.214495
0.173403
0.109214
0.065051
0.11457
0.21298
0.236126
0.250822
0.248082
0.251576
0.251428
0.254468
0.244354
0.215009
0.163777
0.0923402
0.00930614
-0.0581349
-0.0876294
-0.0733497
-0.0201051
0.0641883
0.164422
0.256833
0.324093
0.364509
0.385851
0.3964
0.401577
0.404389
0.406401
0.408328
0.410386
0.412547
0.414697
0.416701
0.418417
0.419705
0.420441
0.420545
0.419999
0.418831
0.417093
0.414836
0.412095
0.408877
0.405165
0.400916
0.396066
0.390529
0.384193
0.376922
0.368543
0.358836
0.347522
0.334242
0.318511
0.299742
0.276948
0.249389
0.214034
0.172892
0.108725
0.0646702
0.119006
0.211542
0.235488
0.250181
0.248107
0.251584
0.251669
0.255043
0.245438
0.21572
0.163725
0.091311
0.00702425
-0.0615233
-0.0917729
-0.0779724
-0.0250445
0.0593686
0.16055
0.254471
0.323007
0.364106
0.385722
0.396345
0.401511
0.404281
0.406244
0.408128
0.410157
0.412301
0.414442
0.416447
0.418177
0.419488
0.420253
0.420385
0.419859
0.418702
0.416967
0.414709
0.411964
0.408741
0.405024
0.400769
0.395913
0.390368
0.384024
0.376743
0.36835
0.358628
0.347295
0.333993
0.318234
0.299432
0.276599
0.248993
0.213589
0.172401
0.108259
0.0643045
0.123236
0.210257
0.23485
0.249525
0.248097
0.251583
0.251913
0.255513
0.246385
0.216371
0.163675
0.0903408
0.00487716
-0.0647139
-0.0956824
-0.0823502
-0.0297555
0.0547183
0.156748
0.252121
0.32188
0.363645
0.385541
0.396253
0.401424
0.404164
0.406086
0.407932
0.409933
0.412058
0.414189
0.416193
0.417934
0.419268
0.420062
0.420222
0.419717
0.418572
0.416842
0.414584
0.411835
0.408608
0.404885
0.400626
0.395764
0.390213
0.38386
0.376568
0.368164
0.358426
0.347075
0.333751
0.317966
0.299132
0.276261
0.24861
0.213159
0.171928
0.107815
0.0639536
0.127268
0.209116
0.23422
0.248861
0.248052
0.251568
0.252153
0.255887
0.247193
0.216947
0.16362
0.0894357
0.00288614
-0.0676771
-0.0993252
-0.0864491
-0.0342005
0.0502752
0.15305
0.249804
0.320722
0.363129
0.385308
0.396123
0.401315
0.404038
0.405927
0.407739
0.409713
0.411819
0.413939
0.415942
0.417692
0.419046
0.419867
0.420056
0.419574
0.418443
0.416719
0.41446
0.411709
0.408477
0.40475
0.400486
0.395619
0.390061
0.383701
0.376399
0.367983
0.358231
0.346862
0.333517
0.317707
0.298843
0.275935
0.248241
0.212746
0.171473
0.107391
0.0636173
0.131114
0.208111
0.233601
0.248193
0.247971
0.251534
0.252378
0.256171
0.247858
0.217437
0.16355
0.0886014
0.00107038
-0.0703865
-0.102672
-0.090238
-0.0383456
0.046068
0.149515
0.247525
0.319542
0.362563
0.385022
0.395953
0.401183
0.403902
0.405766
0.40755
0.409499
0.411587
0.413694
0.415693
0.417449
0.418822
0.419671
0.419888
0.41943
0.418314
0.416596
0.414339
0.411585
0.40835
0.404619
0.40035
0.395478
0.389914
0.383546
0.376236
0.367808
0.358043
0.346657
0.333292
0.317457
0.298563
0.275621
0.247885
0.212348
0.171036
0.106988
0.0632952
0.134782
0.207232
0.232999
0.247527
0.247856
0.251478
0.252577
0.256371
0.248376
0.217834
0.163461
0.0878406
-0.000552935
-0.0728193
-0.105698
-0.0936898
-0.0421604
0.0421263
0.146171
0.245319
0.318353
0.361949
0.384684
0.395743
0.401025
0.403753
0.405603
0.407363
0.40929
0.41136
0.413455
0.415448
0.417209
0.418599
0.419473
0.419719
0.419285
0.418185
0.416475
0.414219
0.411463
0.408225
0.40449
0.400217
0.395341
0.389771
0.383396
0.376077
0.367639
0.357861
0.346459
0.333075
0.317216
0.298294
0.275318
0.247544
0.211967
0.170618
0.106605
0.0629872
0.138281
0.206472
0.232417
0.246865
0.247707
0.251396
0.252738
0.256491
0.248739
0.218134
0.163352
0.087148
-0.00196789
-0.0749554
-0.108382
-0.0967812
-0.0456165
0.0384934
0.143021
0.243207
0.317163
0.361293
0.384297
0.395493
0.400841
0.403592
0.405437
0.407179
0.409086
0.411139
0.413222
0.415208
0.416972
0.418375
0.419274
0.419549
0.419139
0.418056
0.416355
0.414101
0.411344
0.408103
0.404365
0.400089
0.395208
0.389633
0.383252
0.375925
0.367476
0.357685
0.346269
0.332866
0.316985
0.298036
0.275028
0.247215
0.211601
0.170218
0.106241
0.0626931
0.141619
0.205821
0.231858
0.246213
0.247528
0.251285
0.252852
0.256535
0.248943
0.218335
0.163221
0.0865186
-0.00316127
-0.0767738
-0.110703
-0.0994914
-0.0486908
0.0351811
0.140105
0.241209
0.315985
0.360598
0.383861
0.395202
0.400631
0.403418
0.405268
0.406998
0.408888
0.410925
0.412995
0.414973
0.416738
0.418153
0.419075
0.419377
0.418993
0.417928
0.416236
0.413985
0.411227
0.407984
0.404243
0.399963
0.395079
0.389499
0.383112
0.375777
0.367319
0.357517
0.346086
0.332665
0.316763
0.297788
0.274749
0.246901
0.211251
0.169836
0.105896
0.0624126
0.144806
0.205273
0.231324
0.245574
0.247321
0.251144
0.252911
0.256501
0.248984
0.218428
0.163063
0.0859696
-0.00414625
-0.0782589
-0.11264
-0.101792
-0.0513803
0.0322209
0.137449
0.239342
0.314827
0.35987
0.383379
0.394873
0.400394
0.403229
0.405093
0.406818
0.408695
0.410718
0.412775
0.414744
0.416508
0.417934
0.418876
0.419205
0.418846
0.417799
0.416118
0.413871
0.411113
0.407868
0.404125
0.399842
0.394954
0.38937
0.382978
0.375636
0.367169
0.357355
0.34591
0.332473
0.316551
0.297551
0.274483
0.2466
0.210917
0.169472
0.10557
0.0621456
0.147848
0.204818
0.230815
0.244949
0.247089
0.250971
0.25291
0.256388
0.248866
0.218409
0.162871
0.0855007
-0.00491273
-0.0794043
-0.114173
-0.103674
-0.0536576
0.0296376
0.135076
0.237622
0.313701
0.359113
0.382854
0.394505
0.400131
0.403025
0.404914
0.40664
0.408507
0.410517
0.412562
0.414522
0.416284
0.417717
0.418678
0.419033
0.4187
0.417672
0.416001
0.413759
0.411002
0.407755
0.40401
0.399725
0.394833
0.389246
0.382848
0.3755
0.367024
0.3572
0.345743
0.332289
0.316348
0.297325
0.274229
0.246314
0.210598
0.169126
0.105262
0.0618918
0.150754
0.20445
0.230334
0.244341
0.246835
0.250766
0.252845
0.256189
0.248594
0.218269
0.16264
0.0851078
-0.00545449
-0.0802024
-0.115291
-0.10512
-0.0555068
0.0274489
0.133006
0.236066
0.312615
0.358332
0.382287
0.3941
0.399841
0.402806
0.404728
0.406463
0.408325
0.410324
0.412357
0.414308
0.416065
0.417505
0.418483
0.418862
0.418553
0.417545
0.415886
0.413649
0.410893
0.407646
0.403898
0.399611
0.394717
0.389126
0.382724
0.37537
0.366886
0.357052
0.345582
0.332114
0.316154
0.297109
0.273987
0.246041
0.210296
0.168798
0.104972
0.0616512
0.153529
0.204162
0.229881
0.243752
0.246561
0.250529
0.252714
0.255901
0.248177
0.218004
0.162366
0.0847889
-0.00576871
-0.080645
-0.115979
-0.106119
-0.0569161
0.0256693
0.131255
0.234684
0.311576
0.357532
0.381682
0.393661
0.399526
0.402571
0.404536
0.406286
0.408146
0.410137
0.412159
0.414101
0.415853
0.417296
0.418289
0.418691
0.418408
0.417419
0.415772
0.413541
0.410787
0.407539
0.40379
0.399501
0.394605
0.389011
0.382605
0.375245
0.366755
0.356911
0.34543
0.331947
0.31597
0.296904
0.273757
0.245782
0.21001
0.168487
0.104699
0.0614235
0.156182
0.203948
0.229455
0.243182
0.246272
0.25026
0.252518
0.255516
0.247625
0.217605
0.162046
0.0845423
-0.00585435
-0.0807263
-0.11623
-0.106661
-0.0578761
0.0243109
0.129836
0.233488
0.310591
0.356717
0.381041
0.393187
0.399186
0.402321
0.404337
0.406108
0.407972
0.409957
0.411969
0.413901
0.415648
0.417093
0.418099
0.418522
0.418263
0.417294
0.41566
0.413435
0.410683
0.407436
0.403686
0.399396
0.394498
0.388901
0.382491
0.375126
0.366629
0.356777
0.345285
0.331789
0.315796
0.29671
0.273539
0.245537
0.209739
0.168194
0.104442
0.0612087
0.158717
0.203801
0.229057
0.242633
0.24597
0.249962
0.252257
0.255033
0.246949
0.21707
0.161677
0.0843656
-0.00571205
-0.0804428
-0.116038
-0.10674
-0.0583804
0.023383
0.12876
0.232488
0.309668
0.355891
0.380369
0.392683
0.398822
0.402056
0.404131
0.405931
0.407801
0.409783
0.411787
0.41371
0.41545
0.416896
0.417912
0.418355
0.418119
0.41717
0.415549
0.413332
0.410583
0.407335
0.403585
0.399294
0.394395
0.388796
0.382383
0.375013
0.36651
0.35665
0.345148
0.33164
0.315631
0.296526
0.273334
0.245307
0.209484
0.167919
0.104203
0.0610067
0.161142
0.203716
0.228686
0.242106
0.245658
0.249635
0.251934
0.254451
0.246157
0.216398
0.161255
0.0842549
-0.00534448
-0.0797937
-0.115398
-0.106352
-0.0584248
0.0228924
0.128037
0.231689
0.308809
0.355058
0.379667
0.392148
0.398435
0.401776
0.403918
0.405751
0.407634
0.409615
0.411612
0.413526
0.41526
0.416705
0.41773
0.418191
0.417977
0.417048
0.415441
0.41323
0.410485
0.407239
0.403488
0.399196
0.394296
0.388695
0.38228
0.374906
0.366397
0.35653
0.345019
0.331499
0.315476
0.296354
0.273141
0.24509
0.209246
0.167662
0.10398
0.0608172
0.163462
0.203687
0.228342
0.2416
0.245338
0.249284
0.251552
0.253773
0.245256
0.215592
0.160778
0.0842058
-0.00475658
-0.0787812
-0.114311
-0.105497
-0.0580078
0.0228437
0.127671
0.231096
0.30802
0.354223
0.37894
0.391587
0.398025
0.40148
0.403697
0.405571
0.40747
0.409452
0.411445
0.413351
0.415078
0.416521
0.417553
0.41803
0.417836
0.416927
0.415334
0.413131
0.41039
0.407145
0.403395
0.399103
0.394202
0.3886
0.382182
0.374805
0.366291
0.356418
0.344898
0.331367
0.315331
0.296193
0.272961
0.244888
0.209023
0.167421
0.103773
0.0606403
0.165682
0.203711
0.228024
0.241116
0.245014
0.248911
0.251116
0.253004
0.244254
0.214661
0.160242
0.0842134
-0.00395562
-0.07741
-0.112779
-0.104178
-0.0571304
0.0232389
0.127665
0.230711
0.307301
0.353387
0.378191
0.391
0.397595
0.40117
0.403468
0.405389
0.407309
0.409296
0.411285
0.413184
0.414903
0.416344
0.417381
0.417872
0.417698
0.416808
0.415229
0.413035
0.410297
0.407055
0.403306
0.399014
0.394112
0.388509
0.38209
0.374709
0.366191
0.356312
0.344784
0.331244
0.315196
0.296043
0.272793
0.244699
0.208816
0.167198
0.103582
0.060476
0.167807
0.203781
0.227732
0.240654
0.244687
0.248518
0.250629
0.252152
0.243155
0.213615
0.159646
0.0842727
-0.00295119
-0.0756887
-0.110808
-0.1024
-0.055796
0.024078
0.128022
0.230534
0.306655
0.352555
0.377422
0.390391
0.397145
0.400846
0.403231
0.405204
0.407149
0.409144
0.411132
0.413025
0.414738
0.416174
0.417215
0.417718
0.417563
0.416691
0.415126
0.412941
0.410208
0.406968
0.40322
0.398929
0.394028
0.388424
0.382003
0.37462
0.366098
0.356214
0.344679
0.33113
0.315071
0.295904
0.272638
0.244525
0.208624
0.166993
0.103407
0.060324
0.169842
0.203894
0.227465
0.240214
0.24436
0.248111
0.250099
0.251226
0.241966
0.21247
0.158991
0.0843786
-0.00175502
-0.0736293
-0.108411
-0.100174
-0.0540102
0.0253589
0.128738
0.230563
0.306082
0.351729
0.376637
0.389761
0.396677
0.400509
0.402987
0.405017
0.406992
0.408998
0.410986
0.412875
0.41458
0.416012
0.417055
0.417569
0.417431
0.416576
0.415026
0.41285
0.410122
0.406885
0.403139
0.398849
0.393947
0.388344
0.381921
0.374537
0.366012
0.356122
0.344582
0.331024
0.314955
0.295776
0.272495
0.244366
0.208449
0.166805
0.103247
0.0601845
0.171791
0.204045
0.227222
0.239795
0.244033
0.247691
0.249529
0.250237
0.240696
0.21124
0.158278
0.0845267
-0.000380649
-0.0712476
-0.105602
-0.0975118
-0.0517808
0.0270773
0.129809
0.230792
0.30558
0.350912
0.375838
0.389113
0.396191
0.400159
0.402735
0.404828
0.406836
0.408856
0.410847
0.412732
0.414431
0.415858
0.416901
0.417425
0.417302
0.416465
0.414928
0.412761
0.410039
0.406805
0.403061
0.398772
0.393872
0.388268
0.381845
0.374459
0.365932
0.356038
0.344492
0.330928
0.314849
0.295659
0.272365
0.24422
0.20829
0.166634
0.103102
0.0600573
0.173659
0.204232
0.227004
0.239397
0.243709
0.247262
0.248928
0.249196
0.239354
0.209943
0.157514
0.0847132
0.00115716
-0.0685637
-0.1024
-0.09443
-0.0491175
0.0292272
0.131228
0.231216
0.305148
0.350105
0.37503
0.388449
0.39569
0.399796
0.402475
0.404636
0.406682
0.408719
0.410714
0.412597
0.414291
0.415712
0.416755
0.417286
0.417177
0.416356
0.414832
0.412675
0.409959
0.406729
0.402988
0.3987
0.393801
0.388198
0.381775
0.374388
0.365858
0.355962
0.344411
0.33084
0.314754
0.295554
0.272248
0.244089
0.208146
0.16648
0.102972
0.0599425
0.175448
0.20445
0.226809
0.23902
0.243388
0.246827
0.248301
0.248114
0.237954
0.208593
0.156709
0.0849357
0.00284319
-0.0656006
-0.09883
-0.0909477
-0.0460314
0.0318009
0.132986
0.231825
0.304783
0.34931
0.374213
0.387771
0.395175
0.399422
0.402209
0.404441
0.406528
0.408585
0.410588
0.41247
0.414159
0.415575
0.416616
0.417152
0.417056
0.41625
0.41474
0.412592
0.409882
0.406656
0.402918
0.398633
0.393735
0.388133
0.38171
0.374323
0.365791
0.355892
0.344337
0.330762
0.314668
0.295459
0.272143
0.243972
0.208018
0.166343
0.102857
0.0598401
0.177164
0.204696
0.226636
0.238664
0.243072
0.246388
0.247653
0.247001
0.236508
0.207205
0.155876
0.0851937
0.00466281
-0.0623844
-0.09492
-0.0870865
-0.0425347
0.0347892
0.13507
0.232608
0.304482
0.348529
0.373392
0.38708
0.394647
0.399038
0.401935
0.404244
0.406376
0.408456
0.410468
0.412351
0.414036
0.415446
0.416484
0.417024
0.416939
0.416147
0.41465
0.412512
0.409809
0.406587
0.402853
0.39857
0.393674
0.388074
0.381651
0.374264
0.365731
0.35583
0.344272
0.330692
0.314593
0.295376
0.272051
0.24387
0.207906
0.166223
0.102757
0.0597502
0.178809
0.204968
0.226486
0.238329
0.242762
0.245949
0.246992
0.245868
0.235032
0.205794
0.155032
0.0854897
0.00660301
-0.0589422
-0.0907006
-0.0828694
-0.0386401
0.0381813
0.137466
0.233554
0.30424
0.347763
0.372568
0.38638
0.394107
0.398643
0.401655
0.404044
0.406225
0.408331
0.410354
0.412239
0.413921
0.415325
0.41636
0.416903
0.416827
0.416049
0.414564
0.412435
0.409739
0.406522
0.402791
0.398512
0.393618
0.388019
0.381598
0.374211
0.365678
0.355775
0.344215
0.330631
0.314527
0.295305
0.271972
0.243781
0.20781
0.166121
0.102671
0.0596727
0.180387
0.205263
0.226357
0.238013
0.242459
0.245511
0.246323
0.244725
0.23354
0.204375
0.154194
0.0858293
0.00865364
-0.0553008
-0.0862037
-0.0783192
-0.03436
0.0419654
0.140156
0.234647
0.304053
0.347014
0.371743
0.385671
0.393556
0.39824
0.40137
0.403841
0.406074
0.408209
0.410245
0.412135
0.413814
0.415213
0.416244
0.416788
0.416721
0.415954
0.414481
0.412362
0.409672
0.406461
0.402734
0.398458
0.393567
0.38797
0.381551
0.374164
0.365631
0.355728
0.344166
0.33058
0.314472
0.295244
0.271905
0.243708
0.20773
0.166035
0.1026
0.0596077
0.1819
0.205578
0.226249
0.237718
0.242163
0.245077
0.245649
0.243581
0.232047
0.202963
0.153383
0.0862223
0.0108085
-0.051484
-0.0814593
-0.0734568
-0.0297058
0.0461281
0.14312
0.235872
0.303917
0.346283
0.37092
0.384956
0.392997
0.397828
0.401078
0.403636
0.405925
0.40809
0.410142
0.412037
0.413716
0.41511
0.416136
0.41668
0.416619
0.415863
0.414402
0.412291
0.409609
0.406404
0.402681
0.398409
0.393521
0.387926
0.381509
0.374123
0.365591
0.355688
0.344125
0.330537
0.314427
0.295195
0.271852
0.243648
0.207665
0.165966
0.102543
0.0595553
0.183352
0.20591
0.226161
0.237442
0.241875
0.244647
0.244977
0.242443
0.230566
0.201574
0.152616
0.086682
0.0130663
-0.047511
-0.0764934
-0.0682997
-0.0246874
0.0506544
0.146335
0.237212
0.303827
0.34557
0.370101
0.384237
0.39243
0.39741
0.400782
0.40343
0.405776
0.407975
0.410045
0.411947
0.413626
0.415015
0.416036
0.41658
0.416523
0.415777
0.414326
0.412225
0.40955
0.40635
0.402633
0.398364
0.39348
0.387888
0.381473
0.374089
0.365558
0.355656
0.344093
0.330503
0.314391
0.295158
0.271811
0.243603
0.207616
0.165914
0.102501
0.0595156
0.184745
0.206259
0.226092
0.237186
0.241596
0.244223
0.244309
0.241319
0.229107
0.200221
0.151912
0.0872249
0.0154314
-0.0433935
-0.0713251
-0.0628596
-0.0193126
0.0555275
0.149775
0.238652
0.303778
0.344876
0.369287
0.383513
0.391856
0.396985
0.400482
0.403221
0.405628
0.407863
0.409953
0.411864
0.413544
0.414929
0.415945
0.416486
0.416434
0.415696
0.414254
0.412162
0.409494
0.406301
0.402588
0.398324
0.393443
0.387855
0.381442
0.374061
0.365532
0.355631
0.344068
0.330479
0.314366
0.295131
0.271782
0.243572
0.207583
0.16588
0.102472
0.0594888
0.186082
0.206621
0.226043
0.236949
0.241327
0.243807
0.24365
0.240215
0.227681
0.198919
0.151286
0.0878694
0.0179139
-0.0391348
-0.0659638
-0.0571414
-0.0135874
0.0607276
0.153412
0.240173
0.303766
0.344202
0.368479
0.382788
0.391277
0.396555
0.400178
0.403011
0.40548
0.407755
0.409866
0.411788
0.41347
0.414852
0.415862
0.4164
0.41635
0.415619
0.414187
0.412103
0.409442
0.406255
0.402549
0.398289
0.393412
0.387827
0.381418
0.374039
0.365513
0.355613
0.344052
0.330464
0.314351
0.295116
0.271767
0.243556
0.207566
0.165862
0.102458
0.0594749
0.187365
0.206995
0.226012
0.236731
0.241068
0.2434
0.243001
0.239135
0.226296
0.197679
0.150753
0.0886344
0.0205289
-0.0347289
-0.0604088
-0.0511432
-0.00751679
0.0662313
0.157215
0.241759
0.303787
0.343547
0.36768
0.382063
0.390694
0.39612
0.39987
0.402799
0.405334
0.407649
0.409785
0.411719
0.413404
0.414783
0.415787
0.416321
0.416273
0.415548
0.414123
0.412048
0.409394
0.406214
0.402513
0.398259
0.393386
0.387805
0.381399
0.374024
0.3655
0.355603
0.344044
0.330457
0.314347
0.295113
0.271764
0.243554
0.207565
0.165861
0.102458
0.0594744
0.188596
0.207379
0.225999
0.236531
0.240819
0.243002
0.242365
0.238086
0.224959
0.19651
0.150326
0.0895376
0.0232951
-0.0301613
-0.0546489
-0.0448567
-0.00110654
0.0720105
0.161151
0.243393
0.303838
0.342914
0.366889
0.381338
0.390108
0.395682
0.399561
0.402587
0.405189
0.407547
0.409708
0.411656
0.413346
0.414723
0.415721
0.416251
0.416202
0.415482
0.414065
0.411996
0.40935
0.406177
0.402482
0.398233
0.393366
0.387789
0.381387
0.374015
0.365494
0.3556
0.344044
0.33046
0.314352
0.29512
0.271774
0.243567
0.207579
0.165877
0.102471
0.0594872
0.189778
0.207772
0.226003
0.23635
0.240582
0.242615
0.241744
0.237069
0.223673
0.195418
0.150012
0.0905941
0.0262327
-0.0254111
-0.0486645
-0.0382697
0.00563456
0.0780316
0.165187
0.245061
0.303915
0.3423
0.366109
0.380615
0.389521
0.395241
0.399249
0.402375
0.405045
0.407448
0.409637
0.4116
0.413295
0.414671
0.415663
0.416188
0.416138
0.415421
0.414011
0.41195
0.409311
0.406144
0.402456
0.398213
0.39335
0.387778
0.38138
0.374012
0.365495
0.355605
0.344053
0.330472
0.314367
0.295139
0.271797
0.243593
0.20761
0.16591
0.102499
0.059513
0.190912
0.208172
0.226023
0.236188
0.240356
0.24224
0.241139
0.236087
0.222444
0.194407
0.14982
0.0918147
0.0293604
-0.0204544
-0.0424318
-0.0313702
0.0126916
0.0842552
0.169287
0.246748
0.304015
0.341707
0.365339