/*--------------------------------*- C++ -*----------------------------------*\
| =========                 |                                                 |
| \\      /  F ield         | OpenFOAM: The Open Source CFD Toolbox           |
|  \\    /   O peration     | Version:  2.4.0                                 |
|   \\  /    A nd           | Web:      www.OpenFOAM.org                      |
|    \\/     M anipulation  |                                                 |
\*---------------------------------------------------------------------------*/
FoamFile
{
    version     2.0;
    format      ascii;
    class       volScalarField;
    location    "6.63";
    object      epsilon;
}
// * * * * * * * * * * * * * * * * * * * * * * * * * * * * * * * * * * * * * //

dimensions      [0 2 -3 0 0 0 0];

internalField   nonuniform List<scalar> 
6000
(
54.173
1.09758
0.0202884
0.134486
0.0725471
0.0863289
0.0616054
0.0575578
0.0460959
0.0419049
0.0364448
0.0341289
0.0320436
0.0316292
0.0318056
0.033076
0.0350411
0.0379134
0.0415675
0.0461206
0.0515552
0.0579381
0.0652666
0.0735473
0.0827293
0.0927396
0.103456
0.114703
0.126231
0.137712
0.148735
0.158811
0.167383
0.173826
0.177493
0.177778
0.174181
0.166332
0.154203
0.138048
0.118845
0.0978983
0.0774064
0.0648544
0.101583
0.156591
0.233484
0.34649
0.493368
0.712327
0.968516
1.38896
1.79839
2.65885
3.22389
5.24173
5.68336
11.3933
10.3161
29.0917
17.7229
0.975464
0.0253679
0.0742213
0.0418223
0.0473864
0.0343727
0.0316207
0.0254852
0.022994
0.0200153
0.0186274
0.0174247
0.017065
0.017026
0.0175229
0.0183581
0.0196122
0.0212158
0.0232063
0.0255633
0.0283026
0.031412
0.0348841
0.0386913
0.0428004
0.0471627
0.051714
0.056366
0.0610066
0.0654978
0.0696773
0.0733588
0.0763254
0.0783594
0.0792357
0.0787513
0.0767253
0.0730671
0.0677556
0.0610129
0.0531886
0.0450791
0.04048
0.0586286
0.0841784
0.118017
0.165161
0.224406
0.309037
0.407238
0.561431
0.716078
1.01894
1.24126
1.92422
2.15864
4.01623
3.92698
9.789
7.13598
0.711152
0.0303062
0.0435429
0.0252887
0.0273076
0.0200744
0.0182014
0.0147566
0.0132322
0.011543
0.0107032
0.0100057
0.00976138
0.00970731
0.00993877
0.0103555
0.0109895
0.0118042
0.0128126
0.0140023
0.0153773
0.01693
0.0186555
0.020541
0.0225724
0.0247305
0.0269903
0.0293181
0.0316715
0.0339982
0.0362365
0.0383136
0.0401427
0.041637
0.0426916
0.0432058
0.0430761
0.0422218
0.0405772
0.0381723
0.0350993
0.0317032
0.0302334
0.0407998
0.0549867
0.0728729
0.0964261
0.124923
0.163537
0.207716
0.273317
0.340854
0.462795
0.562299
0.824023
0.950429
1.62917
1.70997
3.75117
3.42004
0.518234
0.0345351
0.0274548
0.0160623
0.0164816
0.0122292
0.0109318
0.00891036
0.00795251
0.00696433
0.00645478
0.00605417
0.00591314
0.00589428
0.00604121
0.00630172
0.00668956
0.00718587
0.00779615
0.00851423
0.00934184
0.0102755
0.0113129
0.0124485
0.0136762
0.0149876
0.016372
0.0178143
0.0192955
0.0207921
0.0222757
0.0237106
0.0250633
0.0262854
0.0273228
0.0281214
0.028622
0.0287718
0.0285207
0.0278609
0.0268135
0.0255452
0.0255009
0.0324265
0.0414303
0.0523942
0.0662003
0.0824572
0.103421
0.127151
0.16023
0.195094
0.252367
0.303769
0.418564
0.490877
0.770111
0.856513
1.64653
1.89782
0.395525
0.0386499
0.0190399
0.0107892
0.0104254
0.00776266
0.00683629
0.00559727
0.00498022
0.00438836
0.00408201
0.0038602
0.00379702
0.00381797
0.00394364
0.00414631
0.00443262
0.00479318
0.0052311
0.00574383
0.0063327
0.00699635
0.00773386
0.00854256
0.00941948
0.0103605
0.0113599
0.0124102
0.0135015
0.0146221
0.0157577
0.0168903
0.018008
0.0190813
0.020082
0.0209805
0.0217434
0.0223373
0.0227273
0.0228966
0.0228397
0.0226428
0.0232932
0.0282766
0.0345882
0.0420708
0.0511626
0.061694
0.074755
0.0895395
0.109018
0.130149
0.161695
0.192659
0.251106
0.296957
0.427814
0.495614
0.838791
1.19136
0.318419
0.0429758
0.0149623
0.00776923
0.00694114
0.00514189
0.00445108
0.00365589
0.00324824
0.00288788
0.0027088
0.00259678
0.00258824
0.00264117
0.00276572
0.00294705
0.00318905
0.0034874
0.00384447
0.00425963
0.00473411
0.00526762
0.00585986
0.00650955
0.00721527
0.00797502
0.0087861
0.00964478
0.0105465
0.0114858
0.0124558
0.0134497
0.0144619
0.0154742
0.0164709
0.0174341
0.0183423
0.0191724
0.0198983
0.0205019
0.0209693
0.0213489
0.0223544
0.0262132
0.0309886
0.036523
0.0430412
0.050493
0.0594432
0.0696194
0.0824381
0.096801
0.11657
0.13768
0.171855
0.204156
0.274177
0.326187
0.494104
0.829185
0.268834
0.0475665
0.0135341
0.00612346
0.00490757
0.00357047
0.00302416
0.00248615
0.00220888
0.00198722
0.00188879
0.00184503
0.00187332
0.00194904
0.00207762
0.00225127
0.0024729
0.00274099
0.00305772
0.00342353
0.00383973
0.00430666
0.0048246
0.0053933
0.00601256
0.00668203
0.0074011
0.00816868
0.00898333
0.00984303
0.0107445
0.0116876
0.0126655
0.0136675
0.0146829
0.0156991
0.0167008
0.0176705
0.0185879
0.0194376
0.0202039
0.0209147
0.0221105
0.0252682
0.0290936
0.0334417
0.0384239
0.0440468
0.0506121
0.0580927
0.0671808
0.0776418
0.091169
0.106673
0.128886
0.153304
0.195343
0.236421
0.327355
0.628421
0.235882
0.0523301
0.0138403
0.00540413
0.00373688
0.00262062
0.00215455
0.00176607
0.00156995
0.00143269
0.00138558
0.00138461
0.00143731
0.00152876
0.00166226
0.00183408
0.00204682
0.00230063
0.0025977
0.00293918
0.0033266
0.00376092
0.00424301
0.00477359
0.00535352
0.0059837
0.0066649
0.00739759
0.00818194
0.00901757
0.00990327
0.0108391
0.0118191
0.0128354
0.0138799
0.0149428
0.0160119
0.0170735
0.018112
0.0191149
0.0200642
0.0209789
0.0222799
0.0249715
0.0281666
0.0317377
0.035733
0.0401849
0.0452539
0.0510206
0.0578173
0.0657819
0.0756046
0.0874636
0.102995
0.122103
0.149682
0.18273
0.235949
0.510221
0.213249
0.0571108
0.0153571
0.00536357
0.00311847
0.00205773
0.00162226
0.00131752
0.0011705
0.00108464
0.00107012
0.00109629
0.00116541
0.00126815
0.00140688
0.00158026
0.00179087
0.00203986
0.00232962
0.00266183
0.00303839
0.00346082
0.00393064
0.0044493
0.00501846
0.0056398
0.00631487
0.00704487
0.00783066
0.00867248
0.00956977
0.0105213
0.0115219
0.0125654
0.0136448
0.0147516
0.0158758
0.017006
0.0181301
0.0192384
0.0203055
0.0213546
0.0227135
0.0250779
0.0278291
0.0308584
0.034178
0.0378313
0.0419003
0.0465093
0.051804
0.0580713
0.0655231
0.0748383
0.0862738
0.101483
0.120805
0.14754
0.180639
0.437373
0.197245
0.061738
0.0177423
0.00586826
0.00289292
0.00175297
0.0013046
0.00103988
0.000919829
0.00086445
0.000870404
0.000914132
0.000994903
0.00110661
0.00125118
0.00142872
0.00164188
0.00189254
0.00218331
0.00251637
0.00289401
0.00331826
0.00379115
0.0043147
0.00489101
0.00552221
0.0062102
0.00695644
0.007762
0.00862727
0.00955109
0.0105313
0.0115635
0.012642
0.0137604
0.0149108
0.0160844
0.0172715
0.0184625
0.0196476
0.0207955
0.0219369
0.0233256
0.0254495
0.0278722
0.0305032
0.0333342
0.0364126
0.0397755
0.0435623
0.0478193
0.0528825
0.0587326
0.0662114
0.0749712
0.0872395
0.101475
0.12317
0.144871
0.390905
0.185658
0.0660574
0.0207408
0.00683877
0.0029843
0.0016379
0.0011333
0.000875945
0.000766168
0.000727249
0.000745629
0.00080107
0.000890804
0.00101051
0.00116184
0.00134577
0.00156513
0.00182226
0.0021201
0.00246125
0.00284836
0.0032839
0.00377027
0.00430983
0.00490494
0.00555792
0.00627079
0.00704504
0.0078817
0.00878099
0.0097404
0.0107577
0.0118285
0.0129473
0.0141078
0.0153024
0.0165229
0.0177606
0.0190078
0.0202495
0.0214563
0.0226626
0.0240633
0.0260034
0.0281727
0.0304975
0.0329582
0.0356031
0.0384431
0.0416195
0.0451253
0.0493028
0.0540213
0.0601431
0.0670694
0.0771078
0.0880259
0.105752
0.120697
0.360499
0.177122
0.0699511
0.0241401
0.00822542
0.00335275
0.0016804
0.00107176
0.000793608
0.000680046
0.000647322
0.000672463
0.000735923
0.000833149
0.000960635
0.0011198
0.00131213
0.00154062
0.00180802
0.00211755
0.00247219
0.00287493
0.00332855
0.00383572
0.00439899
0.00502084
0.00570363
0.00644939
0.00725948
0.00813484
0.0090749
0.010076
0.0111361
0.0122503
0.0134132
0.0146183
0.0158578
0.0171238
0.0184083
0.0197039
0.0209871
0.0222391
0.0234911
0.0248916
0.0266861
0.0286529
0.0307332
0.0329019
0.0352063
0.0376425
0.0403479
0.043287
0.0467907
0.0506772
0.0557734
0.0613914
0.0697302
0.0783835
0.0930304
0.103802
0.340228
0.170763
0.0733476
0.0277496
0.00998228
0.0039783
0.00187208
0.00110267
0.000775847
0.0006451
0.000610091
0.000637553
0.00070648
0.000810369
0.000945805
0.0011139
0.00131643
0.00155653
0.00183727
0.00216215
0.00253449
0.00295754
0.00343432
0.00396768
0.00456027
0.00521456
0.0059329
0.00671724
0.00756875
0.00848823
0.00947358
0.0105208
0.0116275
0.0127887
0.0139982
0.0152495
0.0165343
0.0178447
0.0191732
0.0205086
0.0218241
0.0231109
0.0243942
0.0257859
0.0274611
0.0292608
0.0311395
0.0330697
0.0350975
0.0372101
0.0395394
0.0420349
0.04501
0.0482621
0.0525649
0.0572151
0.0642455
0.0712896
0.0835623
0.0916465
0.326536
0.166004
0.0762214
0.0313976
0.0120557
0.0048533
0.00221327
0.00122138
0.000815147
0.000652987
0.000607668
0.000633435
0.00070578
0.000815772
0.00095947
0.00113756
0.00135188
0.00160573
0.00190239
0.00224564
0.00263907
0.00308615
0.00359006
0.00415378
0.00477995
0.005471
0.00622919
0.00705638
0.00795345
0.00892117
0.00995479
0.0110512
0.0122074
0.0134177
0.0146756
0.0159739
0.0173039
0.0186575
0.020027
0.0213926
0.0227352
0.0240483
0.0253516
0.0267277
0.028302
0.0299599
0.0316675
0.033397
0.035193
0.0370381
0.0390578
0.0411946
0.0437431
0.0464955
0.0501701
0.0540803
0.060089
0.0659479
0.0763844
0.0826619
0.317206
0.162446
0.078587
0.034934
0.0143786
0.00597258
0.00270735
0.00143268
0.000910551
0.000700604
0.00063641
0.000656314
0.000730101
0.000845673
0.000997958
0.00118701
0.00141459
0.00168407
0.00199889
0.00236307
0.00278042
0.00325458
0.00378886
0.00438625
0.00504939
0.00578059
0.00658197
0.00745529
0.00840108
0.00941962
0.010504
0.0116518
0.0128593
0.0141201
0.0154271
0.0167726
0.0181472
0.0195424
0.0209468
0.0223369
0.0237014
0.0250336
0.0263475
0.0277026
0.0291886
0.0307231
0.0322817
0.0338377
0.0354345
0.0370522
0.0388103
0.0406485
0.0428439
0.0451909
0.0483568
0.0516842
0.0568816
0.0618387
0.0708414
0.0758519
0.310816
0.159807
0.0804881
0.0382378
0.0168699
0.00732453
0.00336089
0.0017456
0.00106624
0.000788649
0.000695628
0.000704873
0.00077788
0.000898382
0.0010595
0.0012604
0.00150255
0.00178934
0.00212431
0.00251165
0.00295535
0.00345918
0.00402651
0.00466033
0.00536319
0.00613726
0.00698448
0.00790649
0.00890344
0.00997448
0.0111113
0.0123119
0.0135717
0.0148836
0.0162397
0.0176319
0.0190499
0.0204839
0.0219155
0.0233267
0.0247083
0.0260526
0.027369
0.0286984
0.0301049
0.0315293
0.0329553
0.0343579
0.0357793
0.0371991
0.0387308
0.0403144
0.0422107
0.0442204
0.0469654
0.0498213
0.0543629
0.0586138
0.0664809
0.0705666
0.306431
0.157877
0.0819864
0.0412208
0.0194384
0.00888636
0.00418193
0.00216817
0.00129105
0.000920971
0.000786945
0.000779655
0.00084914
0.000973649
0.00114368
0.00135719
0.0016151
0.00192073
0.00227761
0.00269009
0.00316227
0.003698
0.00430067
0.00497321
0.00571808
0.00653721
0.00743236
0.00840508
0.00945508
0.0105796
0.0117699
0.0130239
0.0143364
0.0156991
0.0171038
0.0185413
0.0200009
0.0214671
0.0229214
0.0243501
0.0257437
0.0270939
0.0284053
0.0297046
0.0310375
0.0323615
0.0336669
0.0349311
0.0361951
0.037439
0.038771
0.0401326
0.0417704
0.0434931
0.0458831
0.0483486
0.0523504
0.0560336
0.0629869
0.0663725
0.303426
0.156499
0.0831519
0.0438305
0.0219895
0.0106214
0.00517356
0.0027097
0.0015956
0.00110438
0.000914033
0.000882766
0.000945185
0.00107236
0.00125116
0.00147788
0.00175258
0.00207845
0.00245884
0.00289822
0.00340077
0.00397034
0.00461031
0.00532352
0.00611225
0.00697822
0.00792295
0.00894789
0.0100524
0.0112305
0.0124748
0.0137823
0.015147
0.0165599
0.0180116
0.0194927
0.0209893
0.0224813
0.0239551
0.025397
0.0267974
0.0281471
0.0294469
0.0307119
0.0319749
0.0332053
0.0343991
0.0355361
0.0366565
0.0377412
0.0388941
0.0400586
0.0414692
0.0429427
0.0450278
0.0471632
0.050713
0.0539295
0.0601349
0.0629733
0.301375
0.155549
0.0840541
0.046047
0.0244336
0.0124789
0.00633057
0.0033803
0.00198879
0.00134873
0.00108259
0.00101778
0.00106847
0.00119638
0.00138348
0.00162381
0.0019162
0.00226353
0.00266887
0.00313673
0.0036713
0.00427642
0.00495536
0.00571085
0.00654496
0.00745917
0.00845469
0.00953294
0.0106923
0.0119243
0.0132224
0.0145827
0.0159988
0.0174602
0.0189571
0.0204786
0.0220043
0.0235187
0.0250081
0.0264586
0.0278604
0.0292034
0.0304849
0.0317116
0.0329066
0.0340482
0.035137
0.0361553
0.0371427
0.0380813
0.039071
0.040058
0.0412657
0.0425196
0.0443387
0.04619
0.0493551
0.0521802
0.057763
0.0601621
0.299986
0.154932
0.0847573
0.0478789
0.0266941
0.0143971
0.00763668
0.00418638
0.00248082
0.00166381
0.00130045
0.00118976
0.00122254
0.00134849
0.00154297
0.00179707
0.00210784
0.00247773
0.00290929
0.00340703
0.00397507
0.00461718
0.00533651
0.00613558
0.00701627
0.00797975
0.00902689
0.0101591
0.011373
0.0126586
0.0140098
0.0154219
0.0168877
0.0183956
0.0199349
0.0214889
0.0230398
0.0245726
0.026073
0.027527
0.0289244
0.0302542
0.0315113
0.0326954
0.033823
0.034879
0.0358676
0.0367736
0.0376363
0.0384391
0.0392786
0.0401036
0.0411279
0.0421854
0.0437694
0.0453723
0.0482051
0.0506963
0.0557524
0.0577911
0.299055
0.154568
0.0853167
0.0493555
0.0287134
0.0163074
0.00906316
0.005128
0.00308151
0.00205841
0.00157749
0.00140535
0.00141212
0.00153236
0.00173275
0.00200045
0.00233008
0.00272344
0.0031823
0.00371112
0.00431388
0.00499421
0.00575505
0.00659872
0.00752683
0.00854026
0.00963946
0.010826
0.0120935
0.013432
0.0148349
0.016297
0.0178104
0.0193619
0.0209363
0.022518
0.0240899
0.0256364
0.0271427
0.0285946
0.0299815
0.0312918
0.0325181
0.0336553
0.0347152
0.0356874
0.0365791
0.0373778
0.0381224
0.0387977
0.0394974
0.0401731
0.0410301
0.04191
0.0432836
0.0446668
0.0472086
0.049411
0.0540148
0.0557526
0.298442
0.154397
0.0857773
0.0505204
0.030456
0.0181415
0.0105692
0.0061965
0.00379738
0.00254259
0.00192237
0.00167292
0.00164312
0.00175255
0.00195664
0.00223738
0.00258608
0.0030036
0.00349066
0.00405157
0.00469006
0.00540956
0.00621278
0.00710173
0.00807776
0.00914148
0.0102928
0.0115336
0.012853
0.0142431
0.0156959
0.0172057
0.0187637
0.0203517
0.0219562
0.0235611
0.0251491
0.0267039
0.0282104
0.0296542
0.0310243
0.0323085
0.0334978
0.0345836
0.0355745
0.0364636
0.0372609
0.037956
0.0385877
0.0391424
0.0397111
0.0402481
0.0409511
0.0416691
0.0428527
0.0440396
0.0463236
0.0482731
0.0524833
0.0539668
0.298046
0.154368
0.0861739
0.0514238
0.0319088
0.0198375
0.0121043
0.00737275
0.00462951
0.00312477
0.00234423
0.0020012
0.00192274
0.00201459
0.00221923
0.00251193
0.00287957
0.00332172
0.00383765
0.0044314
0.00510639
0.00586576
0.0067119
0.00764651
0.0086706
0.00978455
0.0109876
0.0122819
0.0136512
0.0150912
0.0165913
0.0181459
0.0197409
0.0213606
0.0229904
0.0246134
0.0262119
0.0277692
0.0292697
0.0306988
0.0320453
0.0332967
0.0344428
0.0354726
0.0363925
0.0371986
0.0379028
0.0384972
0.0390203
0.0394603
0.0399054
0.0403129
0.0408734
0.041443
0.0424537
0.0434636
0.0455169
0.0472431
0.0511065
0.0523733
0.2978
0.154442
0.0865317
0.0521173
0.0330785
0.0213461
0.0136125
0.00862669
0.00557145
0.00381006
0.00285173
0.00239866
0.00225923
0.00232489
0.00252579
0.00282874
0.0032148
0.00368177
0.00422697
0.00485409
0.00556607
0.0063657
0.00725499
0.00823523
0.00930713
0.0104709
0.0117249
0.0130706
0.014488
0.0159753
0.0175188
0.0191111
0.0207387
0.0223852
0.0240348
0.0256701
0.027273
0.0288262
0.0303139
0.0317214
0.0330372
0.0342489
0.0353455
0.0363144
0.037161
0.0378833
0.0384953
0.0389913
0.0394094
0.0397397
0.0400679
0.040354
0.0407821
0.0412148
0.0420674
0.042917
0.0447623
0.0462897
0.0498444
0.0509257
0.297654
0.154587
0.0868679
0.0526497
0.0339877
0.022634
0.0150375
0.00991837
0.00660754
0.00459834
0.00345136
0.00287337
0.00266059
0.00269105
0.00288224
0.00319292
0.00359645
0.0040881
0.00466271
0.00532344
0.00607259
0.00691254
0.00784484
0.00887033
0.00998933
0.011202
0.0125058
0.0139001
0.0153631
0.0168919
0.0184737
0.0200992
0.0217542
0.0234217
0.0250851
0.0267263
0.0283267
0.0298687
0.0313363
0.0327148
0.0339927
0.0351576
0.0361982
0.0371014
0.0378717
0.0385091
0.0390293
0.0394285
0.0397449
0.0399699
0.0401873
0.0403594
0.0406641
0.0409707
0.0416781
0.0423819
0.0440384
0.0453879
0.0486657
0.049588
0.297576
0.154779
0.0871933
0.0530638
0.0346696
0.023686
0.0163289
0.0112007
0.00771219
0.00548238
0.00414586
0.00343184
0.00313398
0.00312027
0.00329591
0.00360998
0.00402947
0.00454532
0.00514917
0.00584345
0.00662966
0.00750965
0.00848443
0.00955433
0.0107193
0.0119796
0.0133316
0.014769
0.016273
0.0178391
0.0194543
0.0211076
0.0227841
0.0244664
0.0261368
0.0277767
0.0293672
0.0308904
0.0323302
0.0336718
0.0349042
0.036015
0.0369932
0.0378256
0.0385164
0.0390676
0.039496
0.0397998
0.0400173
0.0401414
0.0402535
0.0403186
0.0405084
0.0406984
0.0412723
0.0418434
0.0433278
0.0445178
0.0475453
0.0483318
0.297541
0.155
0.0875136
0.0533958
0.0351632
0.0245039
0.0174468
0.0124235
0.00885044
0.00644639
0.00493239
0.00407768
0.00368525
0.00361859
0.00377267
0.00408663
0.00451983
0.00505811
0.00569075
0.00641822
0.00724104
0.0081604
0.00917672
0.0102898
0.0114986
0.0128031
0.0142
0.0156761
0.0172166
0.0188151
0.0204582
0.0221333
0.0238249
0.0255148
0.0271848
0.0288157
0.0303883
0.0318845
0.0332882
0.0345849
0.0357639
0.0368132
0.0377225
0.038479
0.0390871
0.0395503
0.0398867
0.0400965
0.0402177
0.0402449
0.0402572
0.040222
0.0403048
0.0403876
0.0408387
0.0412891
0.0426161
0.043663
0.0464631
0.0471344
0.297533
0.155235
0.0878311
0.0536739
0.0355089
0.0251037
0.0183653
0.0135389
0.00998003
0.00746537
0.00580101
0.00481
0.00431771
0.00419066
0.00431727
0.00462735
0.00507216
0.00563164
0.00629213
0.00705185
0.00791011
0.00886737
0.00992339
0.0110773
0.0123273
0.0136731
0.0151101
0.0166206
0.0181926
0.019818
0.0214827
0.0231729
0.0248723
0.0265623
0.0282239
0.0298373
0.0313834
0.0328439
0.0342028
0.0354462
0.0365637
0.0375442
0.038378
0.0390535
0.0395755
0.0399489
0.0401931
0.0403101
0.0403377
0.040272
0.0401899
0.0400609
0.0400447
0.040029
0.0403675
0.0407084
0.0418914
0.04281
0.0454029
0.0459778
0.297542
0.155474
0.0881457
0.0539194
0.035745
0.0255123
0.0190742
0.0145059
0.0110549
0.00850564
0.00673339
0.00562182
0.00503077
0.0048387
0.00493284
0.00523544
0.00568969
0.00626908
0.00695633
0.00774713
0.00863939
0.0096327
0.0107261
0.011918
0.0132061
0.0145897
0.0160612
0.0176013
0.0191991
0.020845
0.0225244
0.0242223
0.0259217
0.0276034
0.0292477
0.0308348
0.0323453
0.0337609
0.0350661
0.0362475
0.0372953
0.0381994
0.0389514
0.0395408
0.0399733
0.0402553
0.040407
0.0404325
0.0403693
0.0402149
0.0400437
0.0398277
0.03972
0.0396146
0.0398503
0.0400925
0.0411437
0.0419478
0.0443514
0.0448471
0.29756
0.155711
0.0884561
0.0541475
0.0359053
0.0257629
0.0195783
0.0152948
0.0120296
0.00952674
0.00770253
0.00649872
0.00581841
0.00556124
0.00561991
0.00591219
0.00637409
0.00697222
0.0076852
0.00850584
0.00943045
0.0104577
0.0115858
0.0128126
0.0141349
0.0155526
0.0170521
0.018616
0.0202332
0.0218926
0.0235791
0.0252766
0.0269674
0.0286317
0.0302495
0.0318008
0.033266
0.0346273
0.0358695
0.03698
0.0379498
0.0387702
0.039434
0.0399325
0.0402723
0.0404612
0.0405205
0.040456
0.0403049
0.0400662
0.0398116
0.0395152
0.0393239
0.0391375
0.0392798
0.0394337
0.0403647
0.0410674
0.0432977
0.0437304
0.297582
0.15594
0.0887603
0.0543679
0.0360181
0.0258909
0.0198952
0.0158902
0.0128644
0.0104847
0.00867355
0.0074181
0.00666791
0.00635178
0.00637526
0.006656
0.00712457
0.00774079
0.00847879
0.00932817
0.0102835
0.0113423
0.0125022
0.0137601
0.0151125
0.0165593
0.0180803
0.0196615
0.021291
0.0229563
0.0246415
0.0263298
0.0280027
0.0296401
0.0312216
0.032727
0.034137
0.0354342
0.0366039
0.0376346
0.0385182
0.0392476
0.0398171
0.04022
0.0404641
0.0405586
0.0405258
0.0403731
0.0401374
0.039819
0.0394868
0.0391172
0.0388501
0.0385915
0.0386499
0.0387257
0.0395476
0.040161
0.0422332
0.0426178
0.297606
0.156158
0.0890563
0.0545863
0.0361054
0.0259309
0.0200517
0.0162907
0.0135293
0.0113363
0.0096058
0.00834928
0.00755889
0.00719755
0.00719072
0.00746126
0.00793697
0.00857161
0.00933459
0.0102121
0.0111966
0.0122847
0.0134732
0.0147584
0.0161362
0.0176055
0.0191419
0.0207334
0.0223674
0.0240301
0.0257051
0.0273748
0.02902
0.0306203
0.0321552
0.0336043
0.0349489
0.0361718
0.0372596
0.0382014
0.0389909
0.0396221
0.0400916
0.0403947
0.0405404
0.0405396
0.0404154
0.0401767
0.0398601
0.0394669
0.0390634
0.0386278
0.0382931
0.0379712
0.0379552
0.037963
0.0386865
0.0392227
0.0411507
0.0415014
0.297629
0.156365
0.0893421
0.0548054
0.0361834
0.0259137
0.0200797
0.0165088
0.0140073
0.0120438
0.0104563
0.00925488
0.00846316
0.00807864
0.00805212
0.00831727
0.00880277
0.00945762
0.0102467
0.0111524
0.0121653
0.0132807
0.0144947
0.015803
0.0172016
0.0186862
0.0202312
0.0218254
0.0234554
0.0251066
0.026762
0.0284031
0.0300102
0.0315629
0.0330404
0.0344226
0.0356912
0.0368299
0.0378261
0.0386704
0.0393577
0.0398842
0.0402484
0.0404478
0.0404931
0.0403965
0.040182
0.0398601
0.0394667
0.0390043
0.038536
0.038042
0.0376481
0.0372722
0.0371913
0.0371413
0.0377769
0.0382473
0.0400443
0.0403746
0.29765
0.156558
0.0896164
0.0550259
0.0362633
0.0258655
0.0200129
0.0165674
0.0142957
0.0125793
0.011184
0.0100934
0.00934559
0.0089677
0.00893846
0.00920738
0.00970813
0.010387
0.0112047
0.01214
0.0131813
0.0143226
0.0155594
0.016887
0.0183016
0.019794
0.0213403
0.0229291
0.0245464
0.0261767
0.0278023
0.0294043
0.0309627
0.0324568
0.0338659
0.0351704
0.0363525
0.0373969
0.0382922
0.0390305
0.0396083
0.0400239
0.040278
0.0403706
0.040314
0.0401219
0.0398189
0.0394171
0.0389516
0.038426
0.0379
0.0373557
0.0369113
0.0364907
0.0363545
0.036257
0.036815
0.037231
0.0389096
0.0392323
0.297669
0.156739
0.0898782
0.0552472
0.0363517
0.0258067
0.0198836
0.0164964
0.0144053
0.0129275
0.0117544
0.0108229
0.0101662
0.00983064
0.00982177
0.0101084
0.0106331
0.0113423
0.0121933
0.0131613
0.0142323
0.0153991
0.0166567
0.0179999
0.0194261
0.0209186
0.0224588
0.0240339
0.0256293
0.0272289
0.0288144
0.0303666
0.0318653
0.0332897
0.0346194
0.0358353
0.0369205
0.0378608
0.0386461
0.0392704
0.0397319
0.0400311
0.0401711
0.0401546
0.0399953
0.0397086
0.0393197
0.038842
0.0383098
0.0377275
0.0371514
0.0365652
0.0360794
0.0356237
0.0354421
0.0353073
0.035798
0.0361708
0.037743
0.0380703
0.297685
0.156907
0.090127
0.0554679
0.036452
0.0257524
0.0197199
0.0163291
0.0143581
0.0130875
0.0121435
0.0114056
0.0108832
0.0106284
0.0106677
0.0109904
0.0115515
0.0122999
0.0131911
0.0141967
0.0153005
0.0164939
0.0177713
0.0191275
0.0205593
0.0220464
0.0235731
0.0251262
0.0266905
0.0282493
0.0297843
0.0312759
0.0327038
0.0340473
0.0352867
0.0364034
0.0373816
0.0382084
0.0388753
0.0393782
0.0397174
0.0398956
0.0399184
0.0397913
0.0395296
0.0391501
0.0386787
0.0381299
0.0375369
0.0369051
0.036287
0.0356679
0.0351501
0.0346692
0.0344522
0.0342904
0.0347241
0.0350645
0.0365421
0.0368854
0.297699
0.157063
0.0903628
0.0556866
0.0365649
0.0257125
0.0195452
0.0160981
0.0141839
0.013072
0.0123408
0.0118121
0.0114574
0.0113196
0.0114374
0.011818
0.0124307
0.0132298
0.0141703
0.0152209
0.0163626
0.0175854
0.0188832
0.0202507
0.0216836
0.0231599
0.0246663
0.0261892
0.0277133
0.0292216
0.0306957
0.032116
0.0334621
0.034714
0.0358524
0.0368597
0.0377212
0.0384258
0.0389667
0.0393417
0.0395535
0.0396071
0.0395108
0.0392726
0.0389098
0.0384404
0.0378908
0.0372765
0.0366297
0.0359562
0.0353047
0.0346619
0.0341218
0.0336259
0.0333837
0.0332052
0.0335921
0.0339107
0.035305
0.0356755
0.297711
0.157208
0.0905856
0.0559017
0.0366898
0.0256927
0.0193773
0.0158335
0.0139164
0.0129048
0.0123503
0.0120251
0.0118565
0.0118649
0.0120898
0.0125514
0.0132331
0.0140964
0.0150974
0.0162022
0.0173889
0.018646
0.0199667
0.0213454
0.0227761
0.0242374
0.0257173
0.0272025
0.0286778
0.0301262
0.0315295
0.032868
0.0341221
0.0352719
0.0362993
0.0371877
0.0379239
0.0384984
0.0389066
0.0391485
0.0392289
0.0391557
0.0389395
0.0385913
0.0381297
0.0375744
0.036952
0.0362789
0.0355858
0.0348791
0.0342032
0.0335465
0.0329941
0.0324935
0.0322362
0.0320515
0.0324017
0.0327091
0.0340312
0.0344388
0.29772
0.157344
0.0907961
0.056112
0.0368249
0.0256955
0.0192284
0.0155602
0.0135895
0.0126176
0.0121894
0.0120418
0.0120592
0.0122308
0.0125858
0.0131498
0.0139179
0.0148596
0.0159333
0.017103
0.018344
0.0196422
0.0209902
0.0223821
0.0238092
0.0252524
0.0267008
0.0281418
0.0295606
0.0309407
0.0322638
0.0335112
0.0346634
0.0357017
0.0366089
0.0373698
0.0379731
0.038411
0.0386812
0.038786
0.0387327
0.0385318
0.0381965
0.0377405
0.0371841
0.0365482
0.0358595
0.0351351
0.0344041
0.0336733
0.0329827
0.0323221
0.0317676
0.0312727
0.0310107
0.0308299
0.0311536
0.0314599
0.0327203
0.0331748
0.297728
0.15747
0.0909948
0.0563164
0.0369679
0.0257209
0.0191063
0.0152977
0.013234
0.0122458
0.0118863
0.0118739
0.0120583
0.0123943
0.0128921
0.0135747
0.014444
0.0154771
0.0166355
0.0178814
0.0191868
0.020535
0.0219167
0.0233256
0.0247499
0.0261737
0.0275873
0.0289791
0.0303351
0.0316392
0.0328742
0.0340219
0.0350637
0.0359822
0.0367613
0.0373878
0.0378518
0.0381481
0.0382766
0.038242
0.0380543
0.0377266
0.0372748
0.036715
0.0360692
0.0353592
0.0346119
0.0338446
0.0330849
0.0323397
0.0316446
0.0309903
0.0304442
0.0299652
0.0297088
0.0295422
0.0298493
0.0301643
0.0313734
0.0318834
0.297734
0.157588
0.0911825
0.0565142
0.0371165
0.0257672
0.0190145
0.0150599
0.012876
0.0118243
0.0114761
0.0115463
0.0118616
0.012346
0.0129859
0.013794
0.0147739
0.0159079
0.0171605
0.0184927
0.0198729
0.0212805
0.0227039
0.0241357
0.0255604
0.0269655
0.028343
0.0296823
0.0309707
0.0321932
0.0333335
0.0343745
0.0352991
0.036091
0.0367359
0.0372223
0.0375428
0.0376943
0.0376792
0.037505
0.0371842
0.0367327
0.0361687
0.0355109
0.0347826
0.0340067
0.0332095
0.032409
0.0316306
0.0308812
0.0301918
0.0295543
0.0290268
0.0285742
0.0283334
0.0281908
0.028491
0.028824
0.0299917
0.0305653
0.297738
0.157698
0.0913601
0.0567051
0.0372685
0.0258318
0.0189537
0.0148551
0.0125358
0.0113849
0.0109965
0.0110931
0.0114914
0.0120922
0.0128581
0.0137867
0.0148777
0.0161157
0.0174674
0.0188929
0.0203563
0.0218325
0.0233063
0.0247683
0.0261986
0.0275882
0.0289303
0.030216
0.0314341
0.0325711
0.0336123
0.0345417
0.035344
0.0360045
0.036511
0.0368541
0.0370288
0.0370345
0.0368764
0.0365646
0.0361144
0.0355441
0.0348745
0.0341264
0.0333243
0.0324919
0.0316551
0.0308318
0.0300453
0.0293023
0.0286292
0.0280189
0.0275204
0.027104
0.0268887
0.0267795
0.0270821
0.027442
0.0285777
0.0292218
0.297742
0.157802
0.0915283
0.0568889
0.037422
0.0259118
0.0189225
0.0146878
0.0122275
0.0109538
0.0104835
0.0105535
0.0109814
0.0116543
0.0125154
0.0135458
0.0147373
0.0160735
0.0175223
0.0190423
0.0205935
0.0221452
0.0236772
0.025177
0.02662
0.027999
0.0293087
0.0305421
0.0316897
0.0327399
0.0336796
0.0344949
0.0351722
0.035699
0.0360654
0.0362644
0.0362936
0.0361552
0.0358572
0.0354125
0.034839
0.0341574
0.0333909
0.0325623
0.031697
0.0308191
0.029954
0.0291192
0.0283358
0.0276101
0.0269639
0.0263909
0.0259312
0.0255606
0.0253801
0.0253131
0.0256269
0.0260218
0.0271344
0.027855
0.297744
0.157901
0.091688
0.0570655
0.0375754
0.0260039
0.018918
0.0145587
0.0119596
0.0105508
0.00996886
0.00996743
0.0103722
0.0110665
0.0119805
0.013081
0.0143501
0.015768
0.0173022
0.0189101
0.0205472
0.0221767
0.0237722
0.0253164
0.0267796
0.0281544
0.0294369
0.0306215
0.0317008
0.0326653
0.033504
0.0342052
0.0347577
0.0351513
0.0353787
0.0354357
0.0353226
0.0350448
0.034613
0.0340429
0.0333549
0.0325723
0.0317201
0.0308228
0.0299066
0.0289958
0.0281147
0.0272805
0.0265116
0.0258141
0.0252051
0.0246791
0.0242676
0.0239515
0.0238145
0.0237976
0.024131
0.024568
0.0256657
0.0264677
0.297746
0.157994
0.09184
0.0572353
0.0377274
0.0261053
0.0189368
0.0144663
0.0117361
0.0101891
0.00947773
0.00937114
0.00970685
0.0103714
0.0112897
0.0124184
0.0137306
0.0152023
0.0167997
0.0184788
0.0201913
0.021894
0.0235532
0.0251454
0.0266353
0.0280129
0.0292743
0.0304157
0.0314313
0.032314
0.033055
0.0336452
0.034076
0.03434
0.0344327
0.034353
0.0341043
0.0336949
0.0331385
0.0324536
0.0316631
0.0307923
0.029868
0.0289162
0.0279632
0.0270333
0.0261495
0.0253283
0.0245857
0.0239271
0.0233651
0.022895
0.0225401
0.0222862
0.0222003
0.0222405
0.0226008
0.0230861
0.0241764
0.0250633
0.297747
0.158082
0.0919851
0.0573984
0.0378771
0.0262134
0.0189749
0.0144072
0.0115574
0.00987639
0.00902815
0.00879475
0.00902581
0.00961519
0.0104887
0.011598
0.0129105
0.014398
0.0160256
0.0177485
0.0195157
0.0212777
0.0229933
0.0246318
0.026152
0.0275378
0.028785
0.0298899
0.0308485
0.0316555
0.032305
0.0327903
0.0331058
0.0332472
0.0332131
0.0330055
0.0326311
0.0321015
0.0314332
0.0306475
0.0297694
0.0288262
0.027846
0.0268557
0.0258816
0.0249476
0.0240752
0.0232797
0.0225748
0.0219649
0.0214589
0.0210526
0.0207615
0.0205762
0.0205478
0.0206508
0.0210443
0.0215827
0.0226722
0.0236462
0.297748
0.158167
0.092124
0.0575554
0.038024
0.0263259
0.0190287
0.0143774
0.011421
0.00961519
0.00863124
0.00826072
0.0083636
0.00884229
0.00962724
0.0106701
0.0119358
0.0133942
0.0150103
0.0167397
0.0185298
0.0203268
0.0220824
0.0237575
0.025306
0.0267028
0.0279409
0.0290163
0.0299256
0.0306654
0.0312319
0.0316215
0.0318313
0.0318605
0.0317108
0.0313879
0.0309016
0.0302668
0.0295028
0.0286335
0.027686
0.0266889
0.0256713
0.0246605
0.0236824
0.0227601
0.0219132
0.021156
0.0204995
0.0199476
0.0195051
0.0191687
0.018947
0.018835
0.018869
0.0190387
0.0194706
0.0200655
0.0211597
0.0222212
0.297749
0.158249
0.0922575
0.0577065
0.0381675
0.0264411
0.0190949
0.0143726
0.0113233
0.0094046
0.00829219
0.00778367
0.0077466
0.00809101
0.00875339
0.00968846
0.0108621
0.0122446
0.0138024
0.0154931
0.0172652
0.0190625
0.0208309
0.0225239
0.0240909
0.0254958
0.0267271
0.0277785
0.0286464
0.0293284
0.0298225
0.0301279
0.0302447
0.0301753
0.029925
0.0295029
0.0289222
0.0282008
0.0273609
0.0264286
0.0254325
0.0244025
0.0233681
0.0223564
0.0213925
0.020498
0.0196909
0.0189837
0.0183853
0.0178987
0.0175257
0.0172635
0.0171148
0.0170786
0.017178
0.0174164
0.0178901
0.0185432
0.0196463
0.0207941
0.297749
0.158328
0.0923862
0.0578524
0.0383075
0.0265575
0.0191704
0.0143884
0.0112594
0.00924123
0.00801151
0.00737114
0.00719245
0.00739105
0.0079089
0.00870502
0.00974828
0.0110114
0.0124641