/*--------------------------------*- C++ -*----------------------------------*\
| =========                 |                                                 |
| \\      /  F ield         | OpenFOAM: The Open Source CFD Toolbox           |
|  \\    /   O peration     | Version:  2.4.0                                 |
|   \\  /    A nd           | Web:      www.OpenFOAM.org                      |
|    \\/     M anipulation  |                                                 |
\*---------------------------------------------------------------------------*/
FoamFile
{
    version     2.0;
    format      ascii;
    class       volScalarField;
    location    "0.25";
    object      pMean;
}
// * * * * * * * * * * * * * * * * * * * * * * * * * * * * * * * * * * * * * //

dimensions      [0 2 -2 0 0 0 0];

internalField   nonuniform List<scalar> 
2320
(
6.55115
6.5395
6.51976
6.52139
6.49734
6.50189
6.473
6.48368
6.44712
6.46482
6.41597
6.44535
6.37812
6.42314
6.32682
6.38846
6.24945
6.32862
6.13227
6.21657
6.55118
6.53854
6.51923
6.52015
6.49664
6.50032
6.4721
6.48152
6.44578
6.46219
6.41417
6.44192
6.37605
6.41775
6.32367
6.38121
6.24523
6.32237
6.12789
6.20937
6.55101
6.53723
6.51867
6.51866
6.49611
6.49846
6.47145
6.47885
6.44491
6.4583
6.41328
6.43694
6.37533
6.41249
6.32334
6.37482
6.2483
6.31388
6.13875
6.20575
6.55085
6.53529
6.51797
6.51642
6.4953
6.49556
6.47
6.4744
6.44203
6.45203
6.40924
6.42851
6.36928
6.40053
6.31416
6.35955
6.23937
6.29924
6.1297
6.19508
6.55044
6.53278
6.51685
6.51367
6.4942
6.49197
6.46864
6.46912
6.44066
6.44503
6.40782
6.41911
6.36751
6.38638
6.31303
6.34476
6.24351
6.28611
6.14238
6.19024
6.54989
6.52983
6.51562
6.51067
6.49301
6.48809
6.46676
6.46354
6.43821
6.43738
6.4048
6.40873
6.36221
6.37087
6.30663
6.32537
6.23793
6.26553
6.14168
6.17276
6.54922
6.52662
6.51436
6.50754
6.49188
6.48397
6.46528
6.45799
6.43729
6.43028
6.40484
6.39847
6.36247
6.35551
6.30932
6.30674
6.24232
6.24434
6.14747
6.15861
6.54831
6.52337
6.51324
6.50458
6.49088
6.4802
6.46438
6.45346
6.43772
6.42495
6.40672
6.39154
6.36648
6.34665
6.31896
6.29441
6.25732
6.22765
6.16612
6.14247
6.54716
6.52015
6.51241
6.50188
6.49028
6.47703
6.46475
6.45048
6.44002
6.4223
6.41203
6.3892
6.37722
6.34743
6.33742
6.29509
6.28349
6.21834
6.19402
6.11843
6.5457
6.51696
6.51174
6.49964
6.49006
6.47497
6.4664
6.44974
6.44417
6.42343
6.42038
6.39291
6.39401
6.35664
6.36627
6.30948
6.32796
6.23907
6.26038
6.13501
6.54398
6.51381
6.51124
6.49772
6.49042
6.47372
6.4691
6.45008
6.44926
6.4254
6.42982
6.39787
6.41143
6.36693
6.39469
6.3245
6.37268
6.25446
6.32312
6.15729
6.54243
6.51092
6.51083
6.4963
6.491
6.47346
6.47185
6.45174
6.4541
6.42922
6.43825
6.40607
6.42575
6.38205
6.41751
6.35101
6.41238
6.30623
6.3916
6.20325
6.54133
6.50854
6.51072
6.49525
6.49217
6.47329
6.47447
6.45262
6.4587
6.43153
6.44579
6.41074
6.43752
6.38993
6.43714
6.36016
6.44697
6.30441
6.47495
6.2187
6.54133
6.50727
6.51121
6.4953
6.49374
6.47449
6.47685
6.45533
6.46219
6.43666
6.45107
6.4209
6.44536
6.40823
6.4486
6.39622
6.46621
6.37991
6.51172
6.37274
6.5418
6.5071
6.5122
6.49569
6.49583
6.47555
6.47953
6.45711
6.46664
6.44091
6.45715
6.42703
6.45292
6.41615
6.45429
6.39996
6.46423
6.35641
6.54362
6.29514
6.54251
6.50693
6.51372
6.49631
6.49779
6.47758
6.48258
6.46115
6.47001
6.44741
6.4613
6.43915
6.45973
6.4402
6.46654
6.44399
6.46857
6.41352
6.4953
6.45166
6.5428
6.50718
6.51664
6.49792
6.50187
6.48011
6.48722
6.4644
6.47531
6.4517
6.46818
6.44505
6.46963
6.44903
6.48646
6.46743
6.513
6.4513
6.46608
6.2559
6.54363
6.50757
6.51968
6.49961
6.50516
6.48269
6.49056
6.4681
6.47885
6.45735
6.4722
6.45435
6.47482
6.46527
6.49376
6.49739
6.53234
6.53834
6.49279
6.39684
6.54448
6.50799
6.52129
6.50035
6.50698
6.48384
6.4924
6.46974
6.48083
6.45948
6.47466
6.45689
6.47831
6.46916
6.5027
6.51036
6.55762
6.56623
6.46681
6.41862
6.54549
6.50862
6.52234
6.50139
6.5081
6.48509
6.49362
6.47118
6.48207
6.46132
6.47609
6.45957
6.48074
6.47396
6.5096
6.52257
6.59165
6.62724
6.60435
6.71615
5.95627
5.99225
5.70703
5.58939
5.3507
5.07329
4.76696
4.42756
5.94931
5.9883
5.69909
5.59135
5.34581
5.06672
4.76399
4.41847
5.96111
5.99362
5.69748
5.60574
5.33551
5.0673
4.76166
4.40728
5.95813
5.99076
5.69213
5.60916
5.31664
5.06418
4.75035
4.38832
5.97334
6.00175
5.6877
5.62973
5.30046
5.05242
4.73704
4.35458
5.98317
6.00071
5.69204
5.64875
5.2788
5.0609
4.70387
4.31494
5.98573
6.00574
5.69846
5.65404
5.25298
5.05416
4.66163
4.26605
6.02258
6.00608
5.7266
5.68374
5.23072
5.04038
4.60354
4.19317
6.03975
5.98961
5.73721
5.7094
5.23819
5.02969
4.52223
4.11391
6.11926
5.9873
5.72265
5.63208
5.20574
5.00874
4.43256
4.03435
6.19979
6.01336
5.80921
5.55202
5.14956
4.97779
4.3452
3.95583
6.29807
6.01972
5.91348
5.47914
5.085
4.91297
4.24898
3.88197
6.40776
5.9779
5.99184
5.41242
5.03283
4.80201
4.13877
3.82558
6.57729
5.94909
6.03716
5.37674
5.02864
4.66956
4.0146
3.77624
6.79627
5.94412
6.05124
5.36031
5.06162
4.56619
3.90554
3.69719
6.97272
6.002
6.03634
5.35354
5.10732
4.49853
3.85965
3.54794
7.0273
6.06574
5.98959
5.33667
5.14081
4.4444
3.89524
3.30616
6.87392
6.09027
5.92769
5.32195
5.16013
4.41795
4.004
3.00251
6.57248
6.03168
5.85569
5.30955
5.16877
4.4271
4.17198
2.71888
6.36022
5.96388
5.80354
5.32653
5.19293
4.5132
4.37385
2.6291
4.05075
3.65087
3.24052
2.843
2.46608
2.13138
1.85026
1.6373
1.49813
1.43294
1.43535
1.49171
1.58743
1.70027
1.8148
1.91486
1.99976
2.05963
2.10162
2.11692
2.11576
2.08568
2.04098
1.94511
1.83184
1.59011
1.28126
0.451577
4.04168
3.63664
3.22623
2.82421
2.44619
2.10913
1.82755
1.6144
1.47492
1.41384
1.41701
1.47977
1.57537
1.69524
1.80857
1.91427
1.99622
2.06154
2.09765
2.12035
2.10996
2.09409
2.03116
1.96696
1.82158
1.67138
1.35041
1.04317
4.02451
3.61515
3.20022
2.79228
2.41205
2.06923
1.79085
1.5757
1.44187
1.38137
1.39386
1.46066
1.56647
1.69053
1.81155
1.91934
2.00708
2.07131
2.11346
2.13277
2.13101
2.10848
2.06033
1.98489
1.87508
1.71931
1.50004
1.24042
3.99297
3.58152
3.1528
2.74383
2.34977
2.00861
1.72173
1.51067
1.37718
1.32597
1.34585
1.42603
1.54214
1.67654
1.80517
1.91957
2.01005
2.07712
2.11928
2.14001
2.13831
2.11849
2.07484
2.01132
1.91702
1.78963
1.63575
1.45915
3.95924
3.529
3.09686
2.67111
2.27246
1.92432
1.63439
1.42363
1.2952
1.25147
1.28725
1.38084
1.51522
1.66268
1.80429
1.92568
2.02306
2.09261
2.13849
2.16084
2.16403
2.1475
2.10995
2.05393
1.97531
1.87822
1.76522
1.65786
3.90307
3.46076
3.01694
2.57149
2.16782
1.80608
1.51202
1.29943
1.17513
1.14779
1.20081
1.3212
1.47289
1.64383
1.79659
1.93202
2.03198
2.10859
2.15303
2.18122
2.18219
2.17281
2.13499
2.09452
2.02374
1.96149
1.87461
1.82785
3.82956
3.37668
2.90541
2.44909
2.03342
1.65591
1.35855
1.14128
1.02725
1.01724
1.09746
1.24676
1.42799
1.62103
1.79382
1.93927
2.04983
2.12911
2.17951
2.20535
2.21501
2.20365
2.18092
2.14094
2.09357
2.03915
1.99152
1.96921
3.74331
3.26713
2.76889
2.30602
1.86932
1.48168
1.17282
0.952295
0.852127
0.863146
0.975796
1.15886
1.37624
1.59688
1.79248
1.94999
2.06979
2.1531
2.20847
2.23598
2.24901
2.24017
2.2224
2.1909
2.15603
2.11722
2.0981
2.09265
3.64301
3.13355
2.61996
2.1434
1.68266
1.28226
0.95499
0.733773
0.647311
0.686269
0.83758
1.06332
1.32397
1.57713
1.79643
1.96876
2.09657
2.18518
2.24251
2.27426
2.29031
2.28576
2.26968
2.24892
2.22156
2.19916
2.19262
2.20637
3.52139
2.98102
2.45688
1.95777
1.47179
1.04481
0.687642
0.471352
0.398279
0.474556
0.675171
0.956031
1.26791
1.55814
1.80584
1.99289
2.13095
2.22253
2.28355
2.31645
2.33324
2.33076
2.31874
2.30217
2.28378
2.27327
2.27603
2.30598
3.38163
2.81754
2.27591
1.74865
1.23496
0.763215
0.380819
0.167865
0.114377
0.233539
0.492048
0.838588
1.20941
1.54349
1.81737
2.02156
2.16619
2.26466
2.32519
2.36092
2.37609
2.37745
2.36621
2.35556
2.34321
2.34206
2.35239
2.38929
3.22985
2.64174
2.07276
1.5191
0.96076
0.44019
0.0418239
-0.16961
-0.191061
-0.0198726
0.303448
0.721463
1.15195
1.53614
1.83671
2.05664
2.20833
2.31099
2.37347
2.40863
2.42336
2.42367
2.41649
2.40571
2.40119
2.40072
2.4208
2.45774
3.06908
2.44605
1.84701
1.25939
0.643401
0.0811845
-0.325419
-0.520524
-0.501196
-0.280187
0.127641
0.61717
1.10916
1.53842
1.86456
2.09281
2.25233
2.35652
2.4212
2.45456
2.46885
2.46736
2.46042
2.45258
2.4503
2.45709
2.47865
2.51834
2.87208
2.21694
1.5916
0.969009
0.29781
-0.290143
-0.690049
-0.846686
-0.782779
-0.508352
-0.0299915
0.540842
1.08984
1.56357
1.90803
2.14269
2.30225
2.40703
2.46854
2.50212
2.51113
2.50865
2.50033
2.49497
2.49315
2.50424
2.52705
2.56825
2.61236
1.94935
1.33112
0.721049
0.0164388
-0.568741
-0.944726
-1.07162
-0.980783
-0.66513
-0.12808
0.493404
1.10176
1.61352
1.97202
2.20405
2.35896
2.46091
2.52119
2.55253
2.55641
2.55056
2.54214
2.53441
2.53467
2.54452
2.56959
2.60867
2.2724
1.664
1.09994
0.534546
-0.174487
-0.762715
-1.09892
-1.17945
-1.07475
-0.73073
-0.155135
0.506371
1.14198
1.68716
2.05123
2.27452
2.41812
2.51896
2.5725
2.60163
2.59607
2.58864
2.5773
2.56968
2.56901
2.57995
2.60388
2.64215
1.88001
1.43035
0.951995
0.47553
-0.246103
-0.816362
-1.16545
-1.2108
-1.05289
-0.697556
-0.10395
0.566912
1.22533
1.77402
2.144
2.34532
2.48256
2.57988
2.62789
2.65144
2.63447
2.62763
2.61267
2.60269
2.60261
2.6141
2.63753
2.67351
1.4705
1.233
0.898091
0.507649
-0.211731
-0.767244
-1.08964
-1.12578
-0.975011
-0.56938
-0.0037159
0.67496
1.31539
1.85185
2.21918
2.41385
2.53388
2.62836
2.66933
2.69212
2.66077
2.65765
2.63724
2.62702
2.6259
2.63651
2.65904
2.69388
1.36856
1.28612
0.882761
0.601657
-0.0869359
-0.650573
-0.986611
-1.02706
-0.85132
-0.453296
0.107373
0.767702
1.39921
1.91798
2.26602
2.45131
2.57977
2.65809
2.69942
2.70678
2.67826
2.67898
2.65211
2.64327
2.64136
2.65188
2.67394
2.70802
0.464886
1.35454
0.952397
0.693816
0.0383393
-0.515428
-0.860217
-0.920194
-0.744777
-0.352582
0.190251
0.829402
1.45721
1.95164
2.28751
2.47937
2.60041
2.67034
2.70578
2.72169
2.68757
2.68546
2.65726
2.6494
2.64671
2.65682
2.67887
2.71299
-0.517088
-0.563379
0.428423
1.19659
1.84831
2.42758
3.07293
3.3458
0.52638
0.409984
0.806411
1.41245
2.06473
2.68463
3.27105
3.59759
0.887719
0.809843
1.19935
1.8146
2.43351
2.99799
3.5956
3.84522
1.35197
1.44389
1.75452
2.07353
2.51574
3.01342
3.5011
3.8523
1.60404
1.62752
1.83453
2.19304
2.69021
3.20546
3.56061
3.72095
1.81719
1.93855
2.23905
2.6024
2.87323
3.29414
3.5642
3.67608
1.99272
2.10882
2.28755
2.55252
2.85274
3.23148
3.52354
3.63457
2.14614
2.26165
2.46603
2.79359
3.11609
3.37367
3.48504
3.41347
2.26911
2.38166
2.55758
2.76601
2.96911
3.20356
3.42215
3.49677
2.36955
2.48341
2.64324
2.85769
3.11202
3.33084
3.44643
3.44061
2.45593
2.56191
2.70458
2.87743
3.04416
3.19268
3.33132
3.42368
2.52596
2.62308
2.75189
2.90187
3.06659
3.22277
3.341
3.38836
2.58306
2.67162
2.78638
2.91538
3.05372
3.16085
3.24704
3.29002
2.62809
2.71123
2.81131
2.92603
3.03992
3.14216
3.22545
3.26747
2.66657
2.74121
2.83181
2.92931
3.02727
3.10991
3.16833
3.19791
2.69642
2.7654
2.84493
2.93117
3.01476
3.08286
3.13475
3.16113
2.72439
2.7878
2.85835
2.93537
3.00694
3.06484
3.10309
3.12165
2.74319
2.80175
2.86653
2.93676
2.99941
3.04969
3.08331
3.1009
2.75631
2.81307
2.87415
2.94018
2.99787
3.04369
3.0725
3.08786
2.76053
2.81642
2.87684
2.94116
2.9967
3.0419
3.07035
3.08617
3.99884
4.38481
4.38706
4.03215
3.60649
2.9909
2.56033
2.42571
2.35106
2.24252
2.08214
1.90242
1.68617
1.47265
1.21067
0.977283
0.672324
0.424679
0.0272853
-0.281274
4.29394
4.34458
4.26453
3.85646
3.45322
2.95263
2.58304
2.46276
2.36463
2.24144
2.07395
1.89199
1.67682
1.46383
1.20748
0.968858
0.678827
0.415712
0.128093
-0.131005
4.12499
4.25298
4.19757
3.77336
3.41771
2.98492
2.62225
2.48486
2.37153
2.23994
2.07148
1.89017
1.6758
1.4623
1.20823
0.968381
0.686613
0.424624
0.174062
-0.0905771
4.25372
4.14779
4.03681
3.63874
3.30429
2.92888
2.60338
2.47546
2.36709
2.23351
2.06566
1.88155
1.67087
1.45416
1.20934
0.961339
0.696127
0.434707
0.202626
-0.0317396
4.0229
4.04186
3.93712
3.56898
3.27183
2.95575
2.65451
2.50793
2.3801
2.2353
2.064
1.8784
1.66964
1.45061
1.21212
0.960825
0.707471
0.448037
0.233086
0.00775904
4.09656
3.92665
3.77177
3.45997
3.19105
2.90973
2.63176
2.48464
2.36768
2.22653
2.05904
1.87171
1.66673
1.44644
1.21307
0.962722
0.714998
0.462749
0.252719
0.0364894
3.83729
3.76233
3.61036
3.37114
3.14097
2.89809
2.65004
2.49826
2.37178
2.2248
2.05593
1.86661
1.66463
1.44361
1.21532
0.964632
0.723735
0.476279
0.26945
0.0577003
3.70396
3.76113
3.62387
3.35363
3.12258
2.89185
2.66066
2.49821
2.37029
2.22123
2.05308
1.8637
1.66311
1.44282
1.21653
0.970152
0.731071
0.490688
0.284308
0.0734819
3.5177
3.50115
3.39833
3.21301
3.02812
2.8366
2.63133
2.48034
2.35739
2.21088
2.04503
1.85649
1.65903
1.43991
1.217
0.973707
0.737996
0.502413
0.295847
0.0848313
3.37163
3.36834
3.38738
3.23938
3.06807
2.87372
2.67254
2.50519
2.36806
2.21398
2.04622
1.85742
1.65929
1.44191
1.21939
0.980301
0.745771
0.513888
0.306026
0.0932628
3.48638
3.34016
3.25803
3.1147
2.96342
2.79968
2.62207
2.47066
2.34389
2.19714
2.03405
1.84755
1.65235
1.43809
1.21831
0.983886
0.751833
0.523097
0.314014
0.0994747
3.36954
3.26356
3.15818
3.05075
2.9359
2.80636
2.6538
2.49995
2.36008
2.20543
2.03923
1.85288
1.65606
1.44311
1.22294
0.992246
0.761383
0.53352
0.322094
0.104799
3.32163
3.27886
3.18325
3.05779
2.92847
2.78152
2.62084
2.46877
2.33634
2.18669
2.02431
1.84067
1.6472
1.43798
1.22106
0.994496
0.766121
0.53994
0.327006
0.10804
3.2646
3.19879
3.09362
2.97832
2.86811
2.74879
2.61131
2.47355
2.34037
2.18876
2.02389
1.84216
1.64883
1.44181
1.22579
1.00208
0.77544
0.549611
0.333893
0.111551
3.19597
3.15324
3.08175
2.99345
2.8922
2.76722
2.6193
2.46954
2.33113
2.17894
2.01508
1.83434
1.64306
1.439
1.22564
1.00468
0.77992
0.554874
0.337184
0.113317
3.15685
3.11683
3.04233
2.94767
2.8457
2.72973
2.59603
2.45926
2.32385
2.17316
2.00977
1.83151
1.64204
1.4401
1.22894
1.01077
0.787455
0.562639
0.342483
0.115287
3.11436
3.07812
3.01691
2.94193
2.85301
2.74297
2.60904
2.46574
2.32417
2.17067
2.00657
1.82887
1.64029
1.44033
1.23129
1.01466
0.792376
0.567555
0.34498
0.116286
3.09361
3.06371
3.00786
2.93087
2.83588
2.72245
2.5906
2.4526
2.31265
2.16054
1.99794
1.82237
1.63638
1.43944
1.23327
1.01952
0.799089
0.574394
0.349293
0.117469
3.08024
3.05073
2.99671
2.92509
2.83491
2.72528
2.59655
2.45738
2.31388
2.15985
1.99692
1.82197
1.63678
1.44096
1.2361
1.02317
0.80279
0.577436
0.350283
0.117626
3.07858
3.04975
2.99582
2.92115
2.82496
2.71083
2.58248
2.44465
2.30033
2.14666
1.98516
1.81255
1.63079
1.43899
1.23797
1.02863
0.810517
0.58489
0.354021
0.118
-0.298869
-0.149036
-0.156501
-0.180267
-0.0915502
-0.100504
-0.0781868
-0.0710197
-0.338068
-0.533659
-0.538371
-0.5141
-0.331501
-0.305494
-0.253562
-0.230948
-0.507614
-0.62472
-0.679852
-0.74737
-0.583109
-0.518979
-0.439769
-0.403453
-0.615445
-0.843484
-0.985216
-1.01426
-0.838791
-0.738519
-0.635292
-0.586669
-0.858645
-1.08442
-1.1682
-1.24849
-1.08713
-0.962858
-0.838364
-0.779192
-1.07429
-1.28564
-1.43266
-1.49227
-1.33427
-1.18892
-1.04591
-0.978449
-1.31063
-1.53983
-1.65273
-1.72913
-1.57305
-1.41543
-1.25559
-1.18152
-1.54826
-1.74856
-1.88492
-1.95746
-1.80886
-1.63943
-1.46599
-1.38567
-1.79071
-1.99981
-2.11031
-2.19622
-2.03731
-1.86115
-1.6743
-1.58942
-2.02163
-2.20942
-2.33448
-2.4173
-2.26179
-2.078
-1.87983
-1.79056
-2.25263
-2.4585
-2.56535
-2.64644
-2.47961
-2.29047
-2.0803
-1.9874
-2.47858
-2.66893
-2.76606
-2.86509
-2.69164
-2.4947
-2.27438
-2.17735
-2.69497
-2.90209
-3.01372
-3.08473
-2.89685
-2.692
-2.45995
-2.3582
-2.90528
-3.11076
-3.18842
-3.29484
-3.09383
-2.87771
-2.63511
-2.52752
-3.10449
-3.32127
-3.42904
-3.50018
-3.28222
-3.0527
-2.79713
-2.68364
-3.29431
-3.51925
-3.59063
-3.69612
-3.46047
-3.21268
-2.94504
-2.82281
-3.4697
-3.70947
-3.81331
-3.88138
-3.62686
-3.35669
-3.07349
-2.94219
-3.63009
-3.88564
-3.95556
-4.05294
-3.77532
-3.47916
-3.18169
-3.03983
-3.76968
-4.04676
-4.14655
-4.20441
-3.90655
-3.5792
-3.26538
-3.11336
-3.88592
-4.18434
-4.25865
-4.33626
-4.01172
-3.6504
-3.3221
-3.15979
-3.97248
-4.29459
-4.39609
-4.439
-4.09148
-3.69334
-3.34913
-3.17635
-4.02817
-4.36774
-4.46812
-4.50776
-4.13727
-3.70137
-3.34341
-3.16081
-4.04265
-4.40301
-4.52075
-4.53442
-4.14875
-3.67498
-3.3017
-3.11177
-4.02558
-4.3796
-4.52611
-4.51065
-4.11577
-3.61161
-3.223
-3.02577
-3.96395
-4.31631
-4.47634
-4.43233
-4.04243
-3.51204
-3.10432
-2.90181
-3.87796
-4.17605
-4.39566
-4.30079
-3.92104
-3.37528
-2.94717
-2.73876
-3.75885
-4.01884
-4.2593
-4.12075
-3.76347
-3.20627
-2.74977
-2.53581
-3.63725
-3.80326
-4.12733
-3.92118
-3.56802
-3.00206
-2.51422
-2.2928
-3.50359
-3.62735
-3.97476
-3.70679
-3.34286
-2.76463
-2.23843
-2.0084
-3.38227
-3.45221
-3.86084
-3.54682
-3.09088
-2.48547
-1.92166
-1.68229
-3.24261
-3.35002
-3.74633
-3.4056
-2.80207
-2.16325
-1.56337
-1.31551
-3.09337
-3.24948
-3.62199
-3.28434
-2.47712
-1.78943
-1.16446
-0.909859
-2.86589
-3.14015
-3.4443
-3.09957
-2.09221
-1.36663
-0.728452
-0.469771
-2.57809
-2.97811
-3.1539
-2.84484
-1.66495
-0.900024
-0.263306
-0.00227956
-2.19698
-2.81664
-2.7148
-2.5409
-1.2027
-0.402522
0.221928
0.482251
-1.90014
-2.57354
-2.2242
-2.04968
-0.700203
0.113608
0.714905
0.964881
-1.61058
-2.35557
-1.56551
-1.3493
-0.165425
0.625015
1.20839
1.41628
-1.74986
-2.00794
-1.27871
-0.686911
0.375058
1.13036
1.70339
1.79784
-1.32463
-1.66761
-0.790777
-0.0404322
0.914774
1.61201
2.19797
2.10483
-1.49118
-1.63789
-0.274345
0.576289
1.40331
2.05551
2.6815
2.45361
6.18811
5.92584
5.78425
5.37299
5.25757
4.6703
4.61295
3.30097
6.05366
5.87248
5.76488
5.414
5.31639
4.82163
4.77792
3.89282
5.94326
5.82694
5.74475
5.44938
5.36504
4.95651
4.93085
4.28736
5.85932
5.78012
5.72418
5.47749
5.40378
5.07124
5.02468
4.59765
5.79992
5.74146
5.70364
5.50018
5.43755
5.1653
5.13111
4.79567
5.75516
5.71126
5.68702
5.51874
5.46411
5.24444
5.19343
4.96622
5.72841
5.6881
5.67386
5.53454
5.48974
5.30726
5.27324
5.07615
5.70817
5.67389
5.66559
5.54873
5.51102
5.36202
5.31805
5.18157
5.70095
5.66444
5.66158
5.56211
5.53311
5.40536
5.37989
5.24995
5.69603
5.66226
5.66198
5.57531
5.55245
5.44502
5.41373
5.32158
5.70049
5.66282
5.66592
5.58876
5.57333
5.47728
5.4626
5.36875
5.7053
5.66907
5.67334
5.60252
5.59223
5.50838
5.48899
5.42141
5.71707
5.6766
5.68365
5.61683
5.61299
5.53377
5.52956
5.45604
5.72859
5.68874
5.69652
5.63174
5.63205
5.56025
5.55139
5.49765
5.74578
5.70107
5.71196
5.64725
5.65317
5.58171
5.58573
5.52478
5.76275
5.71747
5.72913
5.66331
5.67311
5.60524
5.6053
5.55903
5.78451
5.73358
5.74871
5.67994
5.69471
5.62458
5.63561
5.58165
5.80653
5.75332
5.77001
5.69702
5.71592
5.64621
5.65354
5.61171
5.83274
5.77286
5.79342
5.71456
5.7389
5.66391
5.68103
5.63025
5.86006
5.79585
5.81885
5.73254
5.76166
5.68492
5.69901
5.65848
5.89176
5.81899
5.84661
5.7509
5.78621
5.70106
5.72399
5.67557
5.92537
5.84569
5.87681
5.76975
5.81092
5.72121
5.74124
5.70035
5.96404
5.87292
5.91019
5.78928
5.83735
5.73714
5.76502
5.71763
6.00598
5.90413
5.94639
5.80969
5.86378
5.7569
5.78143
5.73966
6.05421
5.93661
5.98663
5.83131
5.89229
5.77246
5.80353
5.75664
6.10763
5.97416
6.03044
5.85478
5.92072
5.79231
5.81875
5.77582
6.16974
6.01422
6.07932
5.88031
5.95147
5.8078
5.83865
5.79194
6.24016
6.06137
6.13305
5.90957
5.98249
5.82837
5.85189
5.80846
6.3229
6.11347
6.19359
5.94293
6.01574
5.84558
5.86846
5.82235
6.41866
6.17663
6.26072
5.98269
6.04911
5.86954
5.87867
5.83561
6.53114
6.24921
6.33621
6.02916
6.08407
5.89178
5.89136
5.84607
6.66159
6.33676
6.41926
6.08422
6.11859
5.921
5.89844
5.85463
6.81384
6.43581
6.51019
6.14816
6.15423
5.94814
5.9076
5.85781
6.9878
6.54976
6.60721
6.22258
6.18978
5.97906
5.91091
5.85446
7.18743
6.67282
6.71134
6.30998
6.22916
6.00764
5.91618
5.84173
7.4182
6.8117
6.82285
6.41463
6.27517
6.04134
5.91604
5.82327
7.70199
6.9715
6.94817
6.53996
6.33647
6.08079
5.92221
5.79647
8.09256
7.19966
7.09179
6.68595
6.41698
6.13713
5.93293
5.74766
8.66733
7.52839
7.25525
6.84192
6.51663
6.21141
5.96117
5.56129
9.43896
7.9624
7.41566
6.97999
6.62139
6.30532
6.0028
5.2275
)
;

boundaryField
{
    wall
    {
        type            calculated;
        value           nonuniform List<scalar> 
312
(
6.54549
6.50862
6.52234
6.50139
6.5081
6.48509
6.49362
6.47118
6.48207
6.46132
6.47609
6.45957
6.48074
6.47396
6.5096
6.52257
6.59165
6.62724
6.60435
6.71615
6.18811
6.05366
5.94326
5.85932
5.79992
5.75516
5.72841
5.70817
5.70095
5.69603
5.70049
5.7053
5.71707
5.72859
5.74578
5.76275
5.78451
5.80653
5.83274
5.86006
5.89176
5.92537
5.96404
6.00598
6.05421
6.10763
6.16974
6.24016
6.3229
6.41866
6.53114
6.66159
6.81384
6.9878
7.18743
7.4182
7.70199
8.09256
8.66733
9.43896
3.30097
3.89282
4.28736
4.59765
4.79567
4.96622
5.07615
5.18157
5.24995
5.32158
5.36875
5.42141
5.45604
5.49765
5.52478
5.55903
5.58165
5.61171
5.63025
5.65848
5.67557
5.70035
5.71763
5.73966
5.75664
5.77582
5.79194
5.80846
5.82235
5.83561
5.84607
5.85463
5.85781
5.85446
5.84173
5.82327
5.79647
5.74766
5.56129
5.2275
0.464886
1.35454
0.952397
0.693816
0.0383393
-0.515428
-0.860217
-0.920194
-0.744777
-0.352582
0.190251
0.829402
1.45721
1.95164
2.28751
2.47937
2.60041
2.67034
2.70578
2.72169
2.68757
2.68546
2.65726
2.6494
2.64671
2.65682
2.67887
2.71299
2.76053
2.81642
2.87684
2.94116
2.9967
3.0419
3.07035
3.08617
3.07858
3.04975
2.99582
2.92115
2.82496
2.71083
2.58248
2.44465
2.30033
2.14666
1.98516
1.81255
1.63079
1.43899
1.23797
1.02863
0.810517
0.58489
0.354021
0.118
3.99884
4.38481
4.38706
4.03215
3.60649
2.9909
2.56033
2.42571
2.35106
2.24252
2.08214
1.90242
1.68617
1.47265
1.21067
0.977283
0.672324
0.424679
0.0272853
-0.281274
-0.0710197
-0.230948
-0.403453
-0.586669
-0.779192
-0.978449
-1.18152
-1.38567
-1.58942
-1.79056
-1.9874
-2.17735
-2.3582
-2.52752
-2.68364
-2.82281
-2.94219
-3.03983
-3.11336
-3.15979
-3.17635
-3.16081
-3.11177
-3.02577
-2.90181
-2.73876
-2.53581
-2.2928
-2.0084
-1.68229
-1.31551
-0.909859
-0.469771
-0.00227956
0.482251
0.964881
1.41628
1.79784
2.10483
2.45361
-0.298869
-0.338068
-0.507614
-0.615445
-0.858645
-1.07429
-1.31063
-1.54826
-1.79071
-2.02163
-2.25263
-2.47858
-2.69497
-2.90528
-3.10449
-3.29431
-3.4697
-3.63009
-3.76968
-3.88592
-3.97248
-4.02817
-4.04265
-4.02558
-3.96395
-3.87796
-3.75885
-3.63725
-3.50359
-3.38227
-3.24261
-3.09337
-2.86589
-2.57809
-2.19698
-1.90014
-1.61058
-1.74986
-1.32463
-1.49118
4.05075
3.65087
3.24052
2.843
2.46608
2.13138
1.85026
1.6373
1.49813
1.43294
1.43535
1.49171
1.58743
1.70027
1.8148
1.91486
1.99976
2.05963
2.10162
2.11692
2.11576
2.08568
2.04098
1.94511
1.83184
1.59011
1.28126
0.451577
5.95627
5.99225
5.70703
5.58939
5.3507
5.07329
4.76696
4.42756
6.55115
6.5395
6.51976
6.52139
6.49734
6.50189
6.473
6.48368
6.44712
6.46482
6.41597
6.44535
6.37812
6.42314
6.32682
6.38846
6.24945
6.32862
6.13227
6.21657
)
;
    }
    inlet1
    {
        type            calculated;
        value           nonuniform List<scalar> 
20
(
6.55115
6.55118
6.55101
6.55085
6.55044
6.54989
6.54922
6.54831
6.54716
6.5457
6.54398
6.54243
6.54133
6.54133
6.5418
6.54251
6.5428
6.54363
6.54448
6.54549
)
;
    }
    inlet2
    {
        type            calculated;
        value           nonuniform List<scalar> 8(9.43896 7.9624 7.41566 6.97999 6.62139 6.30532 6.0028 5.2275);
    }
    outlet1
    {
        type            calculated;
        value           uniform 0;
    }
    outlet2
    {
        type            calculated;
        value           nonuniform List<scalar> 8(-0.334096 0 -0.112 0 0 0 0 0);
    }
    defaultFaces
    {
        type            empty;
    }
}


// ************************************************************************* //
