/*--------------------------------*- C++ -*----------------------------------*\
| =========                 |                                                 |
| \\      /  F ield         | OpenFOAM: The Open Source CFD Toolbox           |
|  \\    /   O peration     | Version:  2.4.0                                 |
|   \\  /    A nd           | Web:      www.OpenFOAM.org                      |
|    \\/     M anipulation  |                                                 |
\*---------------------------------------------------------------------------*/
FoamFile
{
    version     2.0;
    format      ascii;
    class       volScalarField;
    location    "4.8";
    object      p;
}
// * * * * * * * * * * * * * * * * * * * * * * * * * * * * * * * * * * * * * //

dimensions      [0 2 -2 0 0 0 0];

internalField   nonuniform List<scalar> 
5625
(
-0.193128
0.160351
0.189279
0.202784
0.211637
0.216791
0.220906
0.22399
0.22665
0.22889
0.230919
0.232746
0.234461
0.236077
0.237637
0.23915
0.240639
0.242114
0.243589
0.245073
0.246576
0.248104
0.249667
0.251271
0.252923
0.25463
0.256396
0.258226
0.260131
0.262111
0.264171
0.266315
0.268545
0.270865
0.273279
0.275786
0.278387
0.281083
0.283871
0.286749
0.289713
0.292757
0.295873
0.299052
0.302282
0.30555
0.308838
0.312128
0.315396
0.318617
0.321763
0.324798
0.327677
0.330359
0.3328
0.334934
0.33672
0.338041
0.3389
0.339054
0.338643
0.337143
0.335031
0.331175
0.326809
0.31954
0.312185
0.299805
0.288567
0.267982
0.251841
0.216935
0.196332
0.128276
0.115692
-0.145885
0.157655
0.189363
0.202886
0.211642
0.216763
0.220867
0.223951
0.226612
0.228853
0.230884
0.232711
0.234425
0.23604
0.237599
0.239112
0.2406
0.242074
0.243548
0.245031
0.246532
0.248058
0.249619
0.25122
0.252869
0.254573
0.256336
0.258169
0.260064
0.262035
0.264087
0.266228
0.268456
0.270773
0.273181
0.275683
0.278279
0.280969
0.283751
0.286622
0.289578
0.292613
0.29572
0.298889
0.302107
0.305362
0.308636
0.31191
0.315161
0.318363
0.321488
0.324501
0.327357
0.330013
0.332426
0.334528
0.336279
0.337559
0.338375
0.338477
0.338012
0.336445
0.334265
0.330328
0.325864
0.318509
0.310991
0.29855
0.287019
0.26642
0.249815
0.215006
0.193567
0.126145
0.110542
-0.118482
0.155589
0.189562
0.203109
0.211807
0.216843
0.220913
0.223976
0.226629
0.228864
0.230891
0.232715
0.234427
0.236041
0.237599
0.23911
0.240596
0.242068
0.243541
0.245022
0.246521
0.248044
0.249602
0.2512
0.252846
0.254545
0.256304
0.25813
0.260022
0.26199
0.264039
0.266166
0.268384
0.27069
0.273089
0.27558
0.278164
0.280841
0.28361
0.286467
0.289408
0.292427
0.295517
0.298667
0.301866
0.305101
0.308352
0.311602
0.314827
0.318002
0.321097
0.324079
0.326903
0.329525
0.331902
0.333963
0.335673
0.336905
0.337674
0.337717
0.337202
0.335559
0.333324
0.329292
0.324761
0.317296
0.309676
0.297131
0.285403
0.264755
0.247781
0.212979
0.191025
0.123194
0.107408
-0.100372
0.153791
0.18958
0.203318
0.212029
0.216981
0.221
0.224032
0.22667
0.228893
0.230915
0.232733
0.234442
0.236052
0.237608
0.239117
0.240601
0.242071
0.243541
0.24502
0.246516
0.248036
0.24959
0.251185
0.252826
0.254521
0.256275
0.258095
0.25998
0.261942
0.263983
0.266104
0.268313
0.270609
0.272998
0.275478
0.27805
0.280715
0.28347
0.286313
0.289238
0.292241
0.295314
0.298446
0.301625
0.304839
0.308068
0.311294
0.314493
0.317641
0.320706
0.323655
0.326444
0.32903
0.331368
0.333386
0.335051
0.336232
0.33695
0.33693
0.336357
0.334636
0.332337
0.328204
0.323601
0.31601
0.308297
0.295605
0.283725
0.262935
0.245669
0.210733
0.188436
0.119813
0.10553
-0.0838865
0.152194
0.189355
0.203464
0.212256
0.21715
0.22111
0.224105
0.226722
0.228932
0.230945
0.232757
0.234461
0.236068
0.23762
0.239126
0.240608
0.242075
0.243542
0.245018
0.246511
0.248028
0.249579
0.25117
0.252807
0.254498
0.256246
0.258061
0.259941
0.261896
0.26393
0.266045
0.268246
0.270534
0.272913
0.275384
0.277946
0.2806
0.283344
0.286174
0.289087
0.292075
0.295133
0.298249
0.301411
0.304606
0.307815
0.31102
0.314197
0.317319
0.320357
0.323276
0.326033
0.328583
0.330883
0.33286
0.334481
0.335611
0.336277
0.336196
0.335562
0.333765
0.331394
0.327165
0.322479
0.314762
0.30695
0.294094
0.28208
0.26109
0.243582
0.208427
0.18589
0.116478
0.10389
-0.0682113
0.150727
0.18891
0.203549
0.212468
0.217343
0.221243
0.224196
0.226787
0.228981
0.230982
0.232786
0.234485
0.236086
0.237635
0.239137
0.240616
0.24208
0.243545
0.245017
0.246507
0.248021
0.249569
0.251156
0.252789
0.254476
0.25622
0.258029
0.259904
0.261854
0.263881
0.26599
0.268184
0.270466
0.272837
0.2753
0.277853
0.280498
0.283231
0.286051
0.288952
0.291929
0.294974
0.298076
0.301223
0.304402
0.307594
0.31078
0.313937
0.317037
0.320051
0.322941
0.325668
0.328186
0.33045
0.332388
0.333966
0.335049
0.335663
0.335525
0.334828
0.332959
0.330514
0.326193
0.321419
0.313582
0.305666
0.292647
0.280504
0.259294
0.241583
0.206161
0.183456
0.113418
0.102279
-0.0536464
0.149353
0.188302
0.203566
0.212652
0.217555
0.221398
0.224308
0.226868
0.229041
0.231029
0.232823
0.234515
0.236111
0.237655
0.239153
0.240628
0.242089
0.24355
0.245019
0.246506
0.248017
0.249561
0.251145
0.252774
0.254457
0.256197
0.258001
0.259872
0.261816
0.263838
0.265941
0.26813
0.270405
0.272769
0.275224
0.27777
0.280407
0.283132
0.285942
0.288833
0.2918
0.294833
0.297923
0.301057
0.304222
0.307398
0.310568
0.313706
0.316787
0.319777
0.322643
0.325342
0.327829
0.33006
0.331961
0.333498
0.334537
0.3351
0.334907
0.334148
0.332213
0.329692
0.325286
0.320421
0.31247
0.304449
0.291271
0.279006
0.257571
0.239691
0.203975
0.181167
0.110667
0.100717
-0.0402675
0.148063
0.187595
0.203477
0.212815
0.217775
0.221575
0.224441
0.226967
0.229117
0.231088
0.23287
0.234553
0.236143
0.237681
0.239174
0.240645
0.242102
0.24356
0.245026
0.246509
0.248016
0.249557
0.251137
0.252763
0.254442
0.256178
0.257978
0.259844
0.261784
0.263801
0.265899
0.268081
0.270351
0.272709
0.275158
0.277697
0.280326
0.283043
0.285845
0.288728
0.291685
0.294708
0.297787
0.300909
0.304061
0.307224
0.310379
0.3135
0.316562
0.319532
0.322374
0.325047
0.327507
0.329706
0.331573
0.33307
0.334067
0.334581
0.334338
0.333517
0.331519
0.328922
0.324437
0.31948
0.311423
0.303296
0.289966
0.277584
0.255923
0.237906
0.201879
0.179026
0.108192
0.0992169
-0.0279451
0.146867
0.18682
0.203265
0.212965
0.217983
0.221772
0.224594
0.227084
0.229207
0.23116
0.232929
0.234601
0.236183
0.237714
0.239202
0.240668
0.242121
0.243574
0.245037
0.246516
0.248021
0.249558
0.251134
0.252756
0.254431
0.256163
0.257959
0.259821
0.261757
0.263769
0.265862
0.26804
0.270304
0.272657
0.275099
0.277632
0.280255
0.282965
0.28576
0.288635
0.291583
0.294597
0.297666
0.300779
0.303919
0.30707
0.31021
0.313316
0.316362
0.319312
0.322133
0.324782
0.327215
0.329384
0.331219
0.332679
0.333637
0.334103
0.333811
0.332931
0.330874
0.328202
0.323642
0.318593
0.310437
0.302204
0.288729
0.276233
0.254352
0.23622
0.199877
0.177024
0.105956
0.097774
-0.0165276
0.145818
0.185985
0.202955
0.21308
0.218171
0.221983
0.224767
0.227219
0.229314
0.231246
0.232999
0.23466
0.236232
0.237756
0.239238
0.240698
0.242146
0.243595
0.245054
0.24653
0.24803
0.249563
0.251136
0.252755
0.254426
0.256154
0.257946
0.259804
0.261735
0.263743
0.265832
0.268005
0.270264
0.272611
0.275049
0.277576
0.280193
0.282897
0.285685
0.288553
0.291494
0.2945
0.297561
0.300663
0.303793
0.306932
0.310061
0.313153
0.316182
0.319115
0.321916
0.324543
0.326952
0.329092
0.330896
0.332321
0.333241
0.333662
0.333325
0.332386
0.330274
0.327527
0.322898
0.317756
0.309509
0.301168
0.287557
0.274951
0.252855
0.234626
0.197971
0.175151
0.103924
0.0963785
-0.00589784
0.144954
0.185113
0.202565
0.213119
0.218354
0.222195
0.224958
0.227371
0.229438
0.231346
0.233082
0.234729
0.236292
0.237807
0.239281
0.240736
0.242179
0.243623
0.245077
0.246549
0.248045
0.249575
0.251144
0.252759
0.254426
0.25615
0.257938
0.259792
0.26172
0.263724
0.265808
0.267976
0.270231
0.272574
0.275006
0.277528
0.28014
0.282838
0.28562
0.288482
0.291416
0.294415
0.297468
0.300562
0.303683
0.306811
0.309928
0.313007
0.316023
0.318939
0.321721
0.324327
0.326713
0.328827
0.330602
0.331992
0.332877
0.333254
0.332873
0.331878
0.329714
0.326893
0.322201
0.316967
0.308634
0.300187
0.286448
0.273732
0.251432
0.233118
0.196162
0.173396
0.102067
0.0950239
0.00403176
0.144282
0.18422
0.202111
0.213073
0.218537
0.222394
0.225165
0.22754
0.229577
0.23146
0.233178
0.234811
0.236362
0.237867
0.239334
0.240782
0.242219
0.243658
0.245107
0.246575
0.248067
0.249592
0.251157
0.252769
0.254432
0.256153
0.257937
0.259787
0.26171
0.263711
0.265791
0.267955
0.270205
0.272544
0.274972
0.277489
0.280095
0.282789
0.285565
0.288421
0.291349
0.294341
0.297387
0.300474
0.303586
0.306705
0.309811
0.312878
0.31588
0.318781
0.321546
0.324132
0.326496
0.328585
0.330333
0.33169
0.332541
0.332876
0.332455
0.331404
0.329191
0.326298
0.321546
0.31622
0.30781
0.299255
0.285398
0.272572
0.250081
0.231689
0.194447
0.17175
0.100361
0.0937059
0.0133314
0.143796
0.183317
0.201618
0.212956
0.218694
0.222584
0.225379
0.227724
0.229731
0.231589
0.233287
0.234904
0.236442
0.237938
0.239396
0.240837
0.242267
0.243701
0.245145
0.246608
0.248095
0.249617
0.251178
0.252785
0.254445
0.256162
0.257942
0.259788
0.261708
0.263704
0.26578
0.267941
0.270187
0.272521
0.274945
0.277458
0.28006
0.282748
0.28552
0.28837
0.291293
0.294279
0.297318
0.300397
0.303502
0.306612
0.309708
0.312764
0.315754
0.318639
0.321389
0.323956
0.3263
0.328364
0.330087
0.331412
0.332232
0.332525
0.332065
0.33096
0.328701
0.325737
0.32093
0.315514
0.307032
0.298369
0.284404
0.271467
0.2488
0.230335
0.192823
0.170202
0.0987841
0.0924214
0.0220609
0.143482
0.182436
0.201099
0.212775
0.218796
0.222778
0.225588
0.227924
0.229901
0.231733
0.23341
0.23501
0.236535
0.238019
0.239468
0.240901
0.242325
0.243752
0.245191
0.246649
0.248132
0.249649
0.251206
0.252809
0.254465
0.256177
0.257954
0.259797
0.261712
0.263705
0.265777
0.267934
0.270176
0.272506
0.274926
0.277435
0.280032
0.282716
0.285483
0.288329
0.291246
0.294227
0.29726
0.300332
0.303429
0.306531
0.309619
0.312664
0.315641
0.318513
0.321248
0.323797
0.326122
0.328163
0.329861
0.331156
0.331945
0.332198
0.331702
0.330544
0.328242
0.325209
0.320351
0.314844
0.306296
0.297526
0.283463
0.270414
0.247585
0.229049
0.191286
0.168743
0.0973195
0.0911678
0.0302723
0.143333
0.18161
0.200555
0.212541
0.218841
0.222968
0.225789
0.228135
0.230085
0.231891
0.233546
0.235129
0.236639
0.238112
0.23955
0.240975
0.242391
0.243812
0.245245
0.246698
0.248176
0.249688
0.251241
0.25284
0.254492
0.256201
0.257973
0.259812
0.261724
0.263713
0.265782
0.267934
0.270173
0.272499
0.274915
0.27742
0.280013
0.282693
0.285456
0.288297
0.291209
0.294184
0.297212
0.300278
0.303368
0.306462
0.309541
0.312576
0.315542
0.318401
0.321121
0.323654
0.32596
0.327979
0.329654
0.330919
0.33168
0.331894
0.331363
0.330154
0.327811
0.32471
0.319804
0.314209
0.305601
0.296724
0.282572
0.269409
0.246433
0.227826
0.189834
0.167364
0.0959533
0.0899432
0.0380109
0.143336
0.180856
0.199987
0.212269
0.218838
0.22313
0.225995
0.228346
0.230283
0.232063
0.233697
0.235261
0.236756
0.238216
0.239644
0.241059
0.242468
0.243881
0.245308
0.246756
0.248228
0.249736
0.251284
0.252879
0.254527
0.256232
0.258
0.259836
0.261744
0.263729
0.265794
0.267943
0.270178
0.272501
0.274912
0.277414
0.280003
0.282679
0.285437
0.288274
0.291182
0.294152
0.297174
0.300234
0.303318
0.306404
0.309475
0.3125
0.315456
0.318303
0.321009
0.323525
0.325814
0.327811
0.329463
0.330701
0.331433
0.33161
0.331046
0.329787
0.327406
0.324238
0.319288
0.313606
0.304943
0.295959
0.281728
0.268449
0.245343
0.226662
0.188463
0.166057
0.0946744
0.0887456
0.0453165
0.14348
0.180179
0.199406
0.211971
0.218795
0.223253
0.226206
0.228555
0.230493
0.232248
0.23386
0.235406
0.236885
0.238331
0.239748
0.241154
0.242554
0.24396
0.245381
0.246823
0.24829
0.249793
0.251336
0.252927
0.25457
0.256271
0.258036
0.259867
0.261772
0.263753
0.265815
0.26796
0.270191
0.27251
0.274918
0.277416
0.280001
0.282673
0.285428
0.28826
0.291163
0.294129
0.297146
0.3002
0.303277
0.306357
0.309419
0.312436
0.315381
0.318216
0.320909
0.323409
0.325681
0.327657
0.329288
0.330498
0.331205
0.331345
0.33075
0.329442
0.327024
0.323791
0.3188
0.313032
0.30432
0.29523
0.280929
0.267532
0.244311
0.225552
0.18717
0.164816
0.0934734
0.0875735
0.0522241
0.143754
0.17958
0.198836
0.21165
0.218715
0.223337
0.226407
0.228766
0.230709
0.232447
0.234037
0.235564
0.237027
0.238459
0.239864
0.24126
0.242651
0.244049
0.245463
0.246899
0.248361
0.249859
0.251397
0.252984
0.254623
0.256319
0.25808
0.259908
0.261808
0.263786
0.265844
0.267985
0.270213
0.272529
0.274933
0.277427
0.280009
0.282677
0.285427
0.288256
0.291154
0.294115
0.297127
0.300176
0.303247
0.30632
0.309374
0.312382
0.315317
0.31814
0.320821
0.323306
0.325561
0.327517
0.329128
0.330311
0.330992
0.331097
0.330471
0.329116
0.326664
0.323367
0.318338
0.312486
0.30373
0.294533
0.280172
0.266656
0.243336
0.224492
0.185952
0.163635
0.092343
0.0864254
0.058765
0.144143
0.17906
0.198297
0.211305
0.218607
0.223394
0.226583
0.228984
0.230927
0.232657
0.234228
0.235735
0.237181
0.238599
0.239992
0.241377
0.242759
0.244149
0.245556
0.246986
0.248442
0.249934
0.251468
0.253049
0.254684
0.256377
0.258133
0.259957
0.261854
0.263828
0.265882
0.26802
0.270244
0.272556
0.274957
0.277447
0.280025
0.28269
0.285436
0.28826
0.291155
0.294111
0.297118
0.300162
0.303227
0.306293
0.30934
0.312338
0.315264
0.318076
0.320744
0.323214
0.325454
0.32739
0.328981
0.330138
0.330794
0.330865
0.33021
0.328809
0.326325
0.322965
0.317901
0.311966
0.303171
0.293869
0.279455
0.265818
0.242414
0.223479
0.184806
0.162507
0.0912774
0.0853002
0.0649672
0.144635
0.178622
0.197794
0.210941
0.21848
0.223426
0.22673
0.229203
0.231147
0.232875
0.234432
0.23592
0.237349
0.238752
0.240132
0.241506
0.242879
0.24426
0.245659
0.247082
0.248533
0.25002
0.251548
0.253125
0.254755
0.256444
0.258196
0.260016
0.261909
0.263879
0.26593
0.268064
0.270284
0.272593
0.27499
0.277477
0.280051
0.282712
0.285455
0.288275
0.291165
0.294117
0.297119
0.300157
0.303216
0.306275
0.309315
0.312305
0.315222
0.318022
0.320678
0.323134
0.325358
0.327275
0.328846
0.329978
0.330611
0.330647
0.329965
0.328518
0.326004
0.322583
0.317488
0.31147
0.302641
0.293234
0.278777
0.265017
0.241545
0.222511
0.183729
0.161428
0.0902719
0.0841967
0.0708555
0.145218
0.178265
0.19733
0.210574
0.218337
0.223433
0.22686
0.229407
0.231376
0.2331
0.234649
0.236118
0.23753
0.238918
0.240285
0.241647
0.24301
0.244383
0.245774
0.24719
0.248634
0.250116
0.251639
0.253211
0.254837
0.256521
0.258269
0.260085
0.261974
0.263941
0.265987
0.268118
0.270335
0.27264
0.275034
0.277517
0.280088
0.282744
0.285483
0.288299
0.291186
0.294133
0.29713
0.300162
0.303216
0.306268
0.309301
0.312282
0.315189
0.317978
0.320622
0.323064
0.325273
0.327171
0.328723
0.32983
0.33044
0.330443
0.329735
0.328244
0.325701
0.322221
0.317095
0.310998
0.302138
0.292628
0.278136
0.264251
0.240726
0.221583
0.18272
0.160394
0.0893224
0.083114
0.0764508
0.145881
0.177989
0.196906
0.210219
0.218177
0.223421
0.226975
0.229594
0.231609
0.233329
0.234876
0.23633
0.237725
0.239097
0.240451
0.241801
0.243154
0.244517
0.2459
0.247309
0.248747
0.250223
0.251741
0.253308
0.254929
0.256608
0.258352
0.260164
0.26205
0.264012
0.266055
0.268183
0.270396
0.272697
0.275087
0.277567
0.280134
0.282787
0.285522
0.288334
0.291216
0.294158
0.297151
0.300178
0.303225
0.306271
0.309296
0.312269
0.315166
0.317944
0.320577
0.323004
0.325198
0.327077
0.328611
0.329693
0.330282
0.330253
0.329519
0.327985
0.325415
0.321876
0.316724
0.310548
0.301663
0.292049
0.27753
0.263519
0.239956
0.220695
0.181776
0.159403
0.0884249
0.0820509
0.0817676
0.146619
0.177793
0.196528
0.209882
0.218002
0.223399
0.227073
0.229771
0.231836
0.233569
0.23511
0.236555
0.237933
0.239291
0.24063
0.241969
0.243311
0.244665
0.246039
0.24744
0.248872
0.250341
0.251854
0.253416
0.255032
0.256707
0.258447
0.260255
0.262136
0.264095
0.266135
0.268258
0.270467
0.272765
0.275152
0.277628
0.280191
0.28284
0.285572
0.288379
0.291257
0.294195
0.297182
0.300203
0.303245
0.306283
0.309301
0.312265
0.315154
0.317921
0.320542
0.322954
0.325134
0.326995
0.32851
0.329568
0.330135
0.330074
0.329316
0.32774
0.325144
0.321549
0.316372
0.310119
0.301212
0.291497
0.276958
0.26282
0.239233
0.219844
0.180894
0.158452
0.0875763
0.0810069
0.0868191
0.147426
0.177674
0.196197
0.209566
0.217823
0.223369
0.227157
0.229942
0.232055
0.233817
0.235353
0.236791
0.238156
0.239499
0.240824
0.24215
0.243481
0.244825
0.24619
0.247583
0.249009
0.250472
0.251979
0.253536
0.255147
0.256818
0.258553
0.260357
0.262235
0.26419
0.266225
0.268345
0.270551
0.272845
0.275228
0.2777
0.280259
0.282905
0.285632
0.288436
0.291309
0.294242
0.297224
0.30024
0.303275
0.306307
0.309317
0.312272
0.315151
0.317907
0.320516
0.322915
0.32508
0.326922
0.32842
0.329454
0.33
0.329908
0.329126
0.327509
0.324889
0.321238
0.316039
0.30971
0.300786
0.29097
0.276419
0.262151
0.238554
0.219029
0.180072
0.157538
0.0867744
0.079981
0.0916205
0.148295
0.177627
0.195916
0.209272
0.217652
0.223328
0.227231
0.230104
0.232273
0.234063
0.235607
0.237038
0.238394
0.239721
0.241032
0.242345
0.243665
0.245
0.246355
0.24774
0.249159
0.250616
0.252117
0.253669
0.255275
0.256941
0.258672
0.260472
0.262345
0.264296
0.266328
0.268444
0.270646
0.272936
0.275316
0.277784
0.28034
0.282981
0.285704
0.288503
0.291372
0.2943
0.297277
0.300287
0.303315
0.30634
0.309342
0.312289
0.315159
0.317903
0.3205
0.322885
0.325035
0.326859
0.32834
0.32935
0.329875
0.329753
0.328949
0.327291
0.324648
0.320943
0.315724
0.309321
0.300383
0.290467
0.275911
0.261513
0.23792
0.218248
0.179309
0.15666
0.0860172
0.0789728
0.0961874
0.149217
0.177649
0.195685
0.209005
0.217495
0.223279
0.227304
0.230258
0.23249
0.234309
0.23587
0.237296
0.238645
0.239959
0.241256
0.242556
0.243864
0.245189
0.246534
0.247911
0.249323
0.250773
0.252268
0.253814
0.255415
0.257077
0.258803
0.260599
0.262468
0.264415
0.266443
0.268556
0.270754
0.273041
0.275416
0.27788
0.280432
0.28307
0.285788
0.288583
0.291447
0.29437
0.297341
0.300345
0.303367
0.306385
0.309379
0.312316
0.315176
0.317909
0.320495
0.322865
0.325
0.326806
0.328269
0.329256
0.329761
0.329609
0.328783
0.327086
0.324422
0.320663
0.315426
0.308951
0.300003
0.289989
0.275435
0.260905
0.237329
0.2175
0.178603
0.155817
0.0853033
0.0779817
0.100533
0.150185
0.177734
0.195506
0.208769
0.217351
0.223233
0.227375
0.230406
0.232705
0.23456
0.236138
0.237567
0.238907
0.240212
0.241496
0.242783
0.244079
0.245393
0.246728
0.248096
0.249501
0.250945
0.252434
0.253974
0.25557
0.257226
0.258948
0.26074
0.262605
0.264548
0.266572
0.268681
0.270875
0.273158
0.27553
0.27799
0.280538
0.283171
0.285885
0.288676
0.291534
0.294452
0.297418
0.300415
0.303431
0.30644
0.309427
0.312355
0.315204
0.317926
0.320499
0.322855
0.324976
0.326763
0.328209
0.329173
0.329658
0.329476
0.328629
0.326893
0.324208
0.320398
0.315145
0.308599
0.299644
0.289535
0.274987
0.260326
0.23678
0.216784
0.177952
0.155008
0.0846314
0.0770071
0.104671
0.151191
0.177878
0.195376
0.208565
0.217223
0.223199
0.22744
0.230555
0.232918
0.234816
0.236413
0.237848
0.239185
0.24048
0.241753
0.243027
0.244311
0.245613
0.246939
0.248298
0.249694
0.251131
0.252614
0.254148
0.255739
0.25739
0.259108
0.260895
0.262756
0.264695
0.266715
0.26882
0.271011
0.27329
0.275657
0.278114
0.280657
0.283286
0.285996
0.288781
0.291635
0.294547
0.297507
0.300497
0.303506
0.306508
0.309486
0.312404
0.315243
0.317953
0.320514
0.322855
0.324961
0.32673
0.328159
0.329099
0.329565
0.329354
0.328486
0.326712
0.324008
0.320148
0.314881
0.308266
0.299307
0.289103
0.27457
0.259776
0.236271
0.216101
0.177355
0.154231
0.0840007
0.0760487
0.108611
0.15223
0.178077
0.195293
0.208395
0.217113
0.223179
0.227504
0.230709
0.233132
0.235076
0.236698
0.23814
0.239477
0.240763
0.242027
0.243288
0.24456
0.245851
0.247166
0.248516
0.249904
0.251334
0.25281
0.254338
0.255923
0.25757
0.259282
0.261065
0.262922
0.264857
0.266873
0.268974
0.271161
0.273436
0.275799
0.278252
0.280791
0.283415
0.28612
0.288901
0.291749
0.294655
0.297609
0.300593
0.303594
0.306587
0.309556
0.312465
0.315294
0.317991
0.320539
0.322865
0.324957
0.326707
0.328118
0.329036
0.329482
0.329242
0.328355
0.326543
0.323821
0.319912
0.314633
0.30795
0.298991
0.288694
0.27418
0.259253
0.235802
0.215448
0.17681
0.153487
0.0834106
0.0751061
0.112365
0.153296
0.178328
0.195257
0.20826
0.217026
0.223171
0.227579
0.230866
0.23335
0.23534
0.236992
0.238445
0.239783
0.241063
0.242317
0.243568
0.244827
0.246107
0.247412
0.248752
0.250131
0.251553
0.253022
0.254545
0.256124
0.257766
0.259473
0.261252
0.263104
0.265035
0.267047
0.269144
0.271326
0.273598
0.275957
0.278405
0.28094
0.283559
0.286259
0.289034
0.291877
0.294778
0.297725
0.300701
0.303694
0.306679
0.309639
0.312537
0.315355
0.31804
0.320576
0.322886
0.324962
0.326694
0.328088
0.328982
0.32941
0.329141
0.328234
0.326386
0.323647
0.319689
0.3144
0.307652
0.298695
0.288308
0.273819
0.258759
0.235371
0.214827
0.176317
0.152774
0.0828605
0.0741791
0.115942
0.154382
0.178626
0.195265
0.20816
0.216963
0.223178
0.227669
0.231024
0.233576
0.235609
0.237294
0.238764
0.240105
0.241381
0.242626
0.243866
0.245114
0.246383
0.247676
0.249006
0.250377
0.251791
0.253253
0.254769
0.256342
0.257978
0.259681
0.261455
0.263303
0.26523
0.267237
0.26933
0.271509
0.273775
0.27613
0.278574
0.281104
0.283719
0.286414
0.289184
0.29202
0.294915
0.297855
0.300823
0.303808
0.306784
0.309735
0.312622
0.315429
0.318101
0.320623
0.322917
0.324978
0.326691
0.328068
0.328939
0.329348
0.32905
0.328124
0.326241
0.323486
0.319481
0.314184
0.307372
0.29842
0.287943
0.273485
0.258293
0.234978
0.214237
0.175873
0.152093
0.0823503
0.0732674
0.119351
0.155486
0.178969
0.195316
0.208095
0.216925
0.223203
0.227772
0.231192
0.23381
0.235887
0.237606
0.239096
0.240443
0.241716
0.242954
0.244184
0.245421
0.246678
0.247961
0.249281
0.250642
0.252048
0.253503
0.255012
0.256579
0.25821
0.259907
0.261676
0.26352
0.265442
0.267445
0.269534
0.271708
0.273971
0.276321
0.27876
0.281286
0.283895
0.286585
0.289349
0.292179
0.295067
0.298
0.30096
0.303937
0.306904
0.309844
0.31272
0.315515
0.318173
0.320682
0.32296
0.325006
0.326699
0.328058
0.328906
0.329296
0.32897
0.328026
0.326107
0.323337
0.319287
0.313982
0.307109
0.298164
0.287601
0.273179
0.257854
0.234622
0.213677
0.175479
0.151443
0.0818799
0.0723711
0.122601
0.156601
0.179352
0.195409
0.208063
0.216914
0.223247
0.227889
0.231377
0.234051
0.236177
0.237929
0.239441
0.240799
0.242071
0.243302
0.244523
0.245749
0.246996
0.248268
0.249577
0.250929
0.252326
0.253772
0.255275
0.256836
0.25846
0.260153
0.261916
0.263755
0.265673
0.267672
0.269756
0.271926
0.274184
0.27653
0.278964
0.281485
0.284089
0.286773
0.289531
0.292355
0.295235
0.298161
0.301112
0.30408
0.307037
0.309967
0.312831
0.315614
0.318258
0.320753
0.323014
0.325044
0.326717
0.328059
0.328883
0.329255
0.328901
0.327939
0.325986
0.323201
0.319107
0.313797
0.306863
0.297929
0.28728
0.272899
0.257443
0.234303
0.21315
0.175132
0.150825
0.0814494
0.07149
0.1257
0.157723
0.179774
0.195542
0.208065
0.216928
0.223313
0.228021
0.231577
0.234303
0.23648
0.238264
0.2398
0.241171
0.242446
0.243673
0.244884
0.246101
0.247336
0.248598
0.249896
0.251238
0.252626
0.254064
0.255559
0.257113
0.258732
0.260418
0.262177
0.264011
0.265924
0.267918
0.269998
0.272163
0.274416
0.276757
0.279187
0.281702
0.284301
0.286979
0.28973
0.292547
0.295421
0.298338
0.301281
0.304239
0.307186
0.310105
0.312957
0.315727
0.318356
0.320836
0.323081
0.325094
0.326747
0.328071
0.328872
0.329225
0.328843
0.327864
0.325877
0.323078
0.318941
0.313627
0.306635
0.297714
0.286981
0.272646
0.257061
0.234019
0.212653
0.174832
0.150239
0.0810589
0.0706241
0.128655
0.158849
0.18023
0.195713
0.2081
0.216968
0.223401
0.22817
0.231791
0.234573
0.236795
0.238616
0.240175
0.241562
0.242842
0.244066
0.24527
0.246476
0.247701
0.248951
0.250239
0.25157
0.252949
0.254379
0.255866
0.257413
0.259025
0.260706
0.262459
0.264287
0.266196
0.268185
0.27026
0.27242
0.274669
0.277005
0.279429
0.281939
0.284532
0.287204
0.289948
0.292758
0.295624
0.298532
0.301466
0.304414
0.30735
0.310258
0.313097
0.315853
0.318468
0.320933
0.32316
0.325156
0.326789
0.328094
0.328872
0.329206
0.328797
0.3278
0.32578
0.322969
0.31879
0.313472
0.306425
0.297519
0.286703
0.272419
0.256706
0.23377
0.212189
0.174578
0.149685
0.080709
0.0697737
0.131473
0.159976
0.180717
0.195922
0.208168
0.217034
0.223511
0.228339
0.232019
0.23486
0.237124
0.238984
0.240567
0.24197
0.243258
0.244482
0.245681
0.246878
0.248091
0.249331
0.250608
0.251929
0.253297
0.254718
0.256197
0.257736
0.259342
0.261016
0.262764
0.264587
0.26649
0.268474
0.270544
0.272699
0.274943
0.277274
0.279693
0.282196
0.284783
0.287448
0.290186
0.292988
0.295845
0.298745
0.301668
0.304607
0.307531
0.310427
0.313252
0.315995
0.318593
0.321043
0.323252
0.325231
0.326843
0.32813
0.328884
0.329199
0.328763
0.327748
0.325696
0.322872
0.318653
0.313334
0.306232
0.297344
0.286447
0.272217
0.256381
0.233556
0.211757
0.17437
0.149163
0.0804001
0.0689388
0.134161
0.1611
0.181233
0.196165
0.208269
0.217127
0.223642
0.228527
0.232265
0.235161
0.237471
0.239367
0.240978
0.242398
0.243697
0.244923
0.246117
0.247306
0.248509
0.249738
0.251004
0.252314
0.253672
0.255083
0.256554
0.258085
0.259684
0.261352
0.263093
0.26491
0.266808
0.268787
0.270851
0.273001
0.27524
0.277565
0.279978
0.282475
0.285056
0.287714
0.290444
0.293238
0.296087
0.298976
0.301889
0.304817
0.30773
0.310612
0.313423
0.316151
0.318734
0.321167
0.323357
0.325318
0.32691
0.328178
0.328908
0.329204
0.32874
0.327709
0.325625
0.322789
0.318531
0.313211
0.306057
0.29719
0.286215
0.27204
0.256084
0.233376
0.211359
0.174205
0.148674
0.0801327
0.0681198
0.136725
0.162219
0.181774
0.196441
0.208402
0.217246
0.223796
0.228735
0.232529
0.235478
0.237837
0.239767
0.241409
0.242847
0.244157
0.245388
0.246581
0.247763
0.248956
0.250174
0.251429
0.252728
0.254076
0.255477
0.256939
0.258462
0.260052
0.261713
0.263448
0.265259
0.267151
0.269124
0.271183
0.273327
0.27556
0.277879
0.280286
0.282777
0.285351
0.288001
0.290723
0.293509
0.296348
0.299227
0.30213
0.305047
0.307946
0.310815
0.313611
0.316324
0.31889
0.321306
0.323477
0.32542
0.32699
0.328238
0.328944
0.329222
0.328731
0.327682
0.325567
0.32272
0.318424
0.313104
0.305901
0.297057
0.286005
0.271889
0.255816
0.23323
0.210995
0.174085
0.148219
0.0799078
0.0673171
0.139171
0.163329
0.182338
0.196749
0.208566
0.217391
0.223972
0.228962
0.232811
0.235812
0.238218
0.240188
0.241857
0.243318
0.24464
0.245878
0.247071
0.248248
0.249434
0.250641
0.251885
0.253172
0.25451
0.255901
0.257353
0.258867
0.26045
0.262103
0.26383
0.265635
0.26752
0.269487
0.271541
0.273679
0.275906
0.278219
0.280619
0.283103
0.285669
0.288312
0.291025
0.293802
0.296631
0.299499
0.302391
0.305296
0.308181
0.311036
0.313817
0.316514
0.319061
0.32146
0.323612
0.325535
0.327083
0.328312
0.328994
0.329252
0.328734
0.327669
0.325523
0.322666
0.318333
0.313014
0.305763
0.296943
0.28582
0.271761
0.255578
0.233117
0.210666
0.174007
0.147799
0.0797261
0.0665309
0.141504
0.16443
0.182922
0.197087
0.20876
0.217563
0.224171
0.229208
0.233111
0.236164
0.238615
0.240626
0.242326
0.24381
0.245146
0.246393
0.247589
0.248763
0.249942
0.25114
0.252373
0.253649
0.254976
0.256356
0.257798
0.259303
0.260877
0.262522
0.264242
0.266039
0.267918
0.269879
0.271926
0.274058
0.276278
0.278584
0.280977
0.283454
0.286012
0.288647
0.291351
0.294118
0.296936
0.299794
0.302673
0.305565
0.308436
0.311276
0.314041
0.316721
0.31925
0.321631
0.323762
0.325666
0.327191
0.3284
0.329057
0.329296
0.328751
0.327669
0.325493
0.322626
0.318258
0.312941
0.305645
0.29685
0.285659
0.271659
0.25537
0.233037
0.210373
0.173973
0.147413
0.0795886
0.065762
0.143728
0.165518
0.183525
0.197452
0.208983
0.21776
0.224393
0.229475
0.233428
0.236533
0.23903
0.241081
0.242815
0.244322
0.245678
0.246933
0.248134
0.249308
0.250481
0.251671
0.252894
0.254159
0.255475
0.256844
0.258276
0.259771
0.261336
0.262972
0.264685
0.266474
0.268346
0.2703
0.27234
0.274465
0.276678
0.278977
0.281363
0.283831
0.286381
0.289007
0.291701
0.294458
0.297265
0.300111
0.302978
0.305855
0.308711
0.311536
0.314283
0.316947
0.319457
0.321818
0.323928
0.325812
0.327314
0.328503
0.329134
0.329354
0.328782
0.327683
0.325479
0.322601
0.3182
0.312885
0.305546
0.296777
0.285524
0.271583
0.255193
0.232991
0.210116
0.17398
0.147063
0.0794966
0.065011
0.145849
0.166593
0.184145
0.197844
0.209235
0.217983
0.224638
0.229762
0.233764
0.236919
0.239462
0.241553
0.243322
0.244856
0.246231
0.247499
0.248706
0.249881
0.251053
0.252236
0.25345
0.254705
0.256009
0.257368
0.258788
0.260274
0.261829
0.263456
0.26516
0.266941
0.268806
0.270751
0.272784
0.274901
0.277107
0.279398
0.281776
0.284236
0.286778
0.289393
0.292078
0.294823
0.297618
0.300452
0.303306
0.306168
0.309008
0.311817
0.314546
0.317191
0.319681
0.322023
0.324111
0.325974
0.327453
0.32862
0.329227
0.329426
0.328828
0.327712
0.325479
0.322591
0.318159
0.312847
0.305468
0.296725
0.285414
0.271531
0.255048
0.232976
0.209898
0.174029
0.14675
0.0794512
0.0642786
0.147872
0.167652
0.184779
0.198261
0.209513
0.21823
0.224905
0.230069
0.234119
0.237322
0.239911
0.242042
0.243846
0.245409
0.246806
0.24809
0.249305
0.250485
0.251655
0.252835
0.254041
0.255286
0.25658
0.257928
0.259337
0.260812
0.262358
0.263974
0.26567
0.267442
0.269298
0.271236
0.273261
0.27537
0.277568
0.27985
0.28222
0.284671
0.287202
0.289808
0.292481
0.295214
0.297996
0.300818
0.303658
0.306504
0.309328
0.312119
0.31483
0.317455
0.319925
0.322246
0.324311
0.326153
0.327607
0.328753
0.329335
0.329514
0.328889
0.327756
0.325496
0.322598
0.318136
0.312827
0.305412
0.296694
0.28533
0.271506
0.254934
0.232994
0.209719
0.174119
0.146474
0.0794539
0.0635656
0.149798
0.168695
0.185427
0.198701
0.209817
0.218502
0.225194
0.230396
0.234492
0.237742
0.240376
0.242549
0.244387
0.245981
0.247402
0.248703
0.249931
0.251116
0.252289
0.253466
0.254667
0.255904
0.257188
0.258525
0.259924
0.261388
0.262923
0.26453
0.266216
0.267979
0.269826
0.271754
0.273771
0.275871
0.27806
0.280334
0.282694
0.285135
0.287657
0.290251
0.292913
0.295633
0.298402
0.30121