/*--------------------------------*- C++ -*----------------------------------*\
| =========                 |                                                 |
| \\      /  F ield         | OpenFOAM: The Open Source CFD Toolbox           |
|  \\    /   O peration     | Version:  2.4.0                                 |
|   \\  /    A nd           | Web:      www.OpenFOAM.org                      |
|    \\/     M anipulation  |                                                 |
\*---------------------------------------------------------------------------*/
FoamFile
{
    version     2.0;
    format      ascii;
    class       volScalarField;
    location    "0.23";
    object      p;
}
// * * * * * * * * * * * * * * * * * * * * * * * * * * * * * * * * * * * * * //

dimensions      [0 2 -2 0 0 0 0];

internalField   nonuniform List<scalar> 
6000
(
0.263022
0.257605
0.255103
0.254221
0.253315
0.252197
0.251085
0.250071
0.249153
0.248327
0.247586
0.246912
0.246273
0.245635
0.244983
0.244314
0.24364
0.242974
0.242324
0.241693
0.241075
0.240465
0.239856
0.239245
0.238632
0.238018
0.237404
0.236791
0.236182
0.235576
0.234977
0.234384
0.233801
0.23323
0.232675
0.23214
0.231631
0.231155
0.230723
0.230347
0.230042
0.229829
0.229736
0.229795
0.230052
0.230562
0.231397
0.232652
0.234446
0.236934
0.240314
0.244844
0.250858
0.258793
0.269234
0.282927
0.300939
0.324139
0.354259
0.386575
0.259084
0.256822
0.25506
0.254223
0.253395
0.252363
0.251297
0.2503
0.249381
0.248535
0.247758
0.247041
0.24636
0.245689
0.245016
0.244336
0.243657
0.242988
0.242335
0.241701
0.24108
0.240467
0.239857
0.239245
0.238632
0.238018
0.237404
0.236791
0.236181
0.235576
0.234976
0.234383
0.233799
0.233228
0.232672
0.232136
0.231627
0.23115
0.230716
0.230338
0.230031
0.229815
0.229718
0.229772
0.230021
0.230522
0.231346
0.232586
0.234361
0.236822
0.240168
0.244651
0.250599
0.258439
0.268738
0.282206
0.299875
0.322519
0.352358
0.383926
0.258932
0.257317
0.255374
0.254255
0.253367
0.252334
0.25126
0.250257
0.249339
0.248496
0.247721
0.247006
0.246328
0.245664
0.244997
0.244325
0.243652
0.242987
0.242337
0.241703
0.241082
0.240469
0.239857
0.239245
0.238632
0.238017
0.237403
0.236791
0.236181
0.235575
0.234975
0.234382
0.233798
0.233226
0.232669
0.232133
0.231622
0.231144
0.230709
0.230328
0.230018
0.229798
0.229696
0.229744
0.229985
0.230475
0.231285
0.232507
0.234257
0.236686
0.239987
0.244408
0.250269
0.257979
0.268074
0.281202
0.298291
0.319882
0.34814
0.377626
0.25828
0.256882
0.255135
0.254054
0.253227
0.252266
0.25124
0.250271
0.24938
0.248554
0.247785
0.247066
0.24638
0.245706
0.245032
0.244356
0.24368
0.243013
0.242359
0.241721
0.241095
0.240477
0.239862
0.239248
0.238633
0.238017
0.237403
0.23679
0.23618
0.235574
0.234973
0.23438
0.233795
0.233223
0.232665
0.232127
0.231615
0.231135
0.230697
0.230313
0.229998
0.229773
0.229664
0.229702
0.229931
0.230406
0.231195
0.23239
0.234106
0.236489
0.239728
0.244066
0.249811
0.257353
0.267196
0.279925
0.296346
0.316807
0.343021
0.369691
0.257724
0.256638
0.255135
0.254055
0.25321
0.252271
0.251264
0.250304
0.249416
0.248589
0.247814
0.247086
0.246391
0.245711
0.245035
0.244359
0.243686
0.24302
0.242368
0.241729
0.241101
0.240481
0.239865
0.239249
0.238633
0.238017
0.237402
0.236789
0.236179
0.235572
0.234971
0.234377
0.233792
0.233218
0.23266
0.23212
0.231606
0.231123
0.230682
0.230294
0.229974
0.229742
0.229623
0.229649
0.229863
0.230318
0.231082
0.232243
0.233914
0.23624
0.239403
0.243638
0.24924
0.256581
0.266128
0.278404
0.294097
0.313401
0.337515
0.36126
0.257256
0.2564
0.25507
0.253989
0.253133
0.252225
0.251251
0.250309
0.249432
0.248611
0.247838
0.247108
0.246409
0.245726
0.245048
0.244372
0.243699
0.243033
0.24238
0.241739
0.241109
0.240487
0.239868
0.239251
0.238634
0.238017
0.237402
0.236788
0.236177
0.235571
0.234969
0.234374
0.233788
0.233213
0.232653
0.232112
0.231595
0.231109
0.230664
0.23027
0.229944
0.229703
0.229573
0.229585
0.22978
0.23021
0.230943
0.232063
0.233682
0.235937
0.239008
0.243119
0.248554
0.25566
0.264869
0.276641
0.291551
0.309655
0.331686
0.352613
0.256853
0.25616
0.254981
0.253928
0.253074
0.252195
0.251251
0.250324
0.249455
0.248638
0.247865
0.247132
0.246428
0.24574
0.245059
0.244382
0.243708
0.243043
0.242389
0.241747
0.241115
0.240491
0.239871
0.239252
0.238634
0.238017
0.237401
0.236787
0.236176
0.235569
0.234966
0.234371
0.233783
0.233207
0.232646
0.232102
0.231582
0.231093
0.230643
0.230243
0.229909
0.229658
0.229514
0.229509
0.229683
0.230085
0.230781
0.231854
0.23341
0.235585
0.238549
0.242518
0.247761
0.254602
0.263434
0.274659
0.288741
0.305611
0.325608
0.343904
0.256502
0.255927
0.254883
0.253871
0.253021
0.252163
0.251244
0.250333
0.249472
0.248659
0.247888
0.247152
0.246444
0.245753
0.24507
0.244391
0.243718
0.243053
0.242398
0.241755
0.241122
0.240495
0.239873
0.239253
0.238635
0.238017
0.2374
0.236786
0.236174
0.235566
0.234963
0.234366
0.233778
0.233201
0.232637
0.232091
0.231568
0.231074
0.230619
0.230212
0.229868
0.229606
0.229448
0.229424
0.229572
0.229942
0.230596
0.231615
0.233101
0.235184
0.238028
0.241838
0.246866
0.253415
0.261839
0.272481
0.285702
0.301326
0.319371
0.33526
0.256193
0.255709
0.254779
0.253813
0.25297
0.25213
0.251236
0.25034
0.249487
0.248679
0.247909
0.247171
0.24646
0.245765
0.24508
0.244401
0.243727
0.243062
0.242407
0.241762
0.241127
0.240499
0.239876
0.239255
0.238635
0.238017
0.2374
0.236784
0.236172
0.235563
0.23496
0.234362
0.233772
0.233193
0.232627
0.232078
0.231551
0.231053
0.230592
0.230177
0.229824
0.229548
0.229373
0.229327
0.229448
0.229782
0.23039
0.231349
0.232757
0.234738
0.237449
0.241083
0.245877
0.252108
0.260094
0.270124
0.282465
0.296849
0.313042
0.326755
0.25592
0.255505
0.254673
0.253755
0.252922
0.252098
0.251226
0.250345
0.2495
0.248697
0.247927
0.247188
0.246474
0.245777
0.24509
0.244409
0.243735
0.24307
0.242414
0.241769
0.241133
0.240503
0.239878
0.239256
0.238635
0.238016
0.237398
0.236783
0.23617
0.235561
0.234956
0.234357
0.233766
0.233185
0.232616
0.232064
0.231534
0.23103
0.230562
0.230139
0.229774
0.229484
0.229291
0.229222
0.229311
0.229606
0.230163
0.231055
0.232378
0.234248
0.236813
0.240256
0.244796
0.250688
0.258212
0.267607
0.279055
0.292217
0.306669
0.318425
0.255678
0.255317
0.254568
0.253697
0.252877
0.252067
0.251214
0.250349
0.249512
0.248712
0.247944
0.247204
0.246488
0.245788
0.245099
0.244418
0.243744
0.243078
0.242422
0.241775
0.241138
0.240507
0.23988
0.239257
0.238635
0.238016
0.237397
0.236781
0.236168
0.235557
0.234952
0.234351
0.233759
0.233175
0.232604
0.232049
0.231514
0.231005
0.230529
0.230097
0.22972
0.229415
0.229202
0.229106
0.229163
0.229414
0.229916
0.230737
0.231966
0.233716
0.236124
0.239361
0.243631
0.249163
0.256203
0.264943
0.275495
0.287461
0.300284
0.310285
0.255464
0.255144
0.254464
0.253639
0.252834
0.252037
0.251203
0.250352
0.249522
0.248726
0.247959
0.247219
0.2465
0.245798
0.245108
0.244426
0.243751
0.243085
0.242428
0.241781
0.241142
0.24051
0.239882
0.239258
0.238636
0.238015
0.237396
0.236779
0.236165
0.235554
0.234947
0.234346
0.233751
0.233166
0.232592
0.232033
0.231493
0.230978
0.230495
0.230052
0.229662
0.22934
0.229105
0.228982
0.229003
0.229208
0.22965
0.230394
0.231523
0.233143
0.235384
0.238402
0.242385
0.247539
0.254077
0.262149
0.271806
0.282608
0.293912
0.302338
0.255273
0.254986
0.254365
0.253582
0.252795
0.252009
0.25119
0.250353
0.249531
0.248738
0.247973
0.247232
0.246512
0.245808
0.245116
0.244433
0.243758
0.243091
0.242434
0.241786
0.241146
0.240513
0.239884
0.239259
0.238636
0.238014
0.237395
0.236777
0.236162
0.23555
0.234942
0.234339
0.233743
0.233155
0.232578
0.232015
0.23147
0.230949
0.230457
0.230004
0.2296
0.22926
0.229002
0.22885
0.228832
0.228988
0.229366
0.230027
0.231051
0.232534
0.234596
0.237383
0.241064
0.245824
0.251844
0.259238
0.268005
0.277679
0.287568
0.294581
0.255103
0.254844
0.254271
0.253527
0.252757
0.251983
0.251178
0.250353
0.249538
0.248749
0.247985
0.247243
0.246522
0.245817
0.245124
0.24444
0.243764
0.243098
0.24244
0.241791
0.24115
0.240515
0.239886
0.239259
0.238635
0.238013
0.237393
0.236775
0.236159
0.235546
0.234937
0.234333
0.233734
0.233144
0.232564
0.231997
0.231447
0.230918
0.230418
0.229953
0.229535
0.229176
0.228893
0.228709
0.228651
0.228755
0.229065
0.22964
0.230551
0.231889
0.233764
0.236308
0.239675
0.244026
0.249516
0.256224
0.264108
0.272692
0.281262
0.287003
0.254953
0.254715
0.254183
0.253474
0.252722
0.251959
0.251166
0.250352
0.249544
0.248758
0.247995
0.247254
0.246532
0.245825
0.245131
0.244446
0.24377
0.243103
0.242445
0.241795
0.241153
0.240518
0.239887
0.23926
0.238635
0.238013
0.237392
0.236773
0.236156
0.235542
0.234932
0.234326
0.233725
0.233132
0.232549
0.231977
0.231421
0.230886
0.230376
0.229899
0.229465
0.229087
0.228778
0.228561
0.22846
0.228509
0.228748
0.229232
0.230025
0.231211
0.23289
0.235181
0.238221
0.242152
0.2471
0.253117
0.260129
0.267659
0.274998
0.279591
0.25482
0.2546
0.254103
0.253425
0.25269
0.251936
0.251155
0.250351
0.249549
0.248766
0.248005
0.247264
0.24654
0.245833
0.245137
0.244452
0.243776
0.243108
0.242449
0.241799
0.241156
0.24052
0.239888
0.23926
0.238635
0.238012
0.23739
0.23677
0.236153
0.235538
0.234926
0.234318
0.233716
0.23312
0.232533
0.231957
0.231395
0.230852
0.230332
0.229843
0.229393
0.228993
0.228658
0.228406
0.228261
0.228252
0.228417
0.228805
0.229476
0.230503
0.231978
0.234007
0.23671
0.240208
0.244605
0.249929
0.256081
0.262592
0.268778
0.272328
0.254704
0.254498
0.25403
0.253379
0.25266
0.251916
0.251144
0.250349
0.249553
0.248773
0.248013
0.247272
0.246548
0.245839
0.245143
0.244457
0.24378
0.243112
0.242453
0.241802
0.241159
0.240522
0.239889
0.239261
0.238634
0.23801
0.237388
0.236768
0.236149
0.235533
0.23492
0.23431
0.233706
0.233107
0.232516
0.231936
0.231368
0.230817
0.230287
0.229785
0.229318
0.228896
0.228533
0.228245
0.228053
0.227984
0.228073
0.228362
0.228904
0.229768
0.231031
0.232789
0.235146
0.238203
0.242042
0.246669
0.251973
0.257499
0.262601
0.265199
0.254602
0.254409
0.253964
0.253338
0.252633
0.251898
0.251134
0.250347
0.249556
0.248779
0.24802
0.247279
0.246555
0.245845
0.245148
0.244462
0.243785
0.243116
0.242457
0.241805
0.241161
0.240523
0.23989
0.239261
0.238634
0.238009
0.237386
0.236765
0.236146
0.235528
0.234914
0.234303
0.233696
0.233094
0.232499
0.231914
0.231339
0.23078
0.23024
0.229724
0.22924
0.228796
0.228404
0.228078
0.227838
0.227708
0.227717
0.227903
0.228314
0.229007
0.230054
0.231533
0.233535
0.236142
0.239416
0.243348
0.247814
0.252384
0.256463
0.258185
0.254516
0.254331
0.253907
0.253301
0.25261
0.251882
0.251125
0.250345
0.249559
0.248784
0.248026
0.247285
0.246561
0.245851
0.245153
0.244466
0.243788
0.24312
0.24246
0.241808
0.241163
0.240524
0.239891
0.239261
0.238633
0.238008
0.237384
0.236762
0.236142
0.235523
0.234907
0.234294
0.233685
0.23308
0.232482
0.231891
0.23131
0.230742
0.230191
0.229662
0.229159
0.228692
0.22827
0.227907
0.227617
0.227423
0.227349
0.22743
0.227705
0.228225
0.229048
0.230243
0.231882
0.234032
0.236737
0.239973
0.243611
0.247252
0.250359
0.251269
0.254442
0.254266
0.253857
0.253268
0.252589
0.251868
0.251117
0.250343
0.249561
0.248788
0.248031
0.247291
0.246566
0.245855
0.245157
0.244469
0.243792
0.243123
0.242462
0.24181
0.241165
0.240525
0.239891
0.23926
0.238632
0.238006
0.237382
0.236759
0.236138
0.235518
0.234901
0.234286
0.233674
0.233066
0.232464
0.231868
0.23128
0.230704
0.230142
0.229597
0.229077
0.228586
0.228133
0.22773
0.22739
0.22713
0.226973
0.226946
0.227082
0.227424
0.228019
0.228923
0.230194
0.231881
0.234012
0.236551
0.239371
0.242105
0.244283
0.244431
0.254382
0.254212
0.253816
0.253241
0.252571
0.251857
0.251111
0.250341
0.249563
0.248792
0.248035
0.247295
0.24657
0.245859
0.24516
0.244472
0.243794
0.243125
0.242464
0.241811
0.241166
0.240526
0.239891
0.23926
0.238631
0.238005
0.23738
0.236756
0.236134
0.235513
0.234894
0.234277
0.233663
0.233052
0.232445
0.231844
0.23125
0.230664
0.230091
0.229532
0.228992
0.228477
0.227994
0.22755
0.227158
0.226832
0.226589
0.226451
0.226446
0.226606
0.22697
0.227578
0.228475
0.229694
0.231247
0.23309
0.235099
0.236944
0.238227
0.237654
0.254335
0.254169
0.253783
0.253219
0.252557
0.251847
0.251105
0.250339
0.249564
0.248794
0.248039
0.247298
0.246573
0.245862
0.245163
0.244475
0.243796
0.243127
0.242466
0.241813
0.241167
0.240526
0.239891
0.239259
0.23863
0.238003
0.237377
0.236753
0.23613
0.235508
0.234887
0.234269
0.233652
0.233037
0.232426
0.23182
0.231219
0.230624
0.230039
0.229466
0.228907
0.228367
0.227851
0.227367
0.226923
0.226528
0.226198
0.225948
0.2258
0.225775
0.225903
0.226213
0.226732
0.227478
0.22845
0.229596
0.230799
0.231769
0.232183
0.230917
0.254299
0.254137
0.253758
0.253202
0.252546
0.25184
0.251101
0.250338
0.249565
0.248796
0.248041
0.247301
0.246576
0.245864
0.245165
0.244476
0.243798
0.243128
0.242467
0.241813
0.241167
0.240527
0.239891
0.239259
0.238629
0.238001
0.237375
0.23675
0.236126
0.235503
0.234881
0.23426
0.23364
0.233023
0.232407
0.231795
0.231187
0.230584
0.229987
0.229398
0.22882
0.228255
0.227707
0.227182
0.226684
0.226221
0.225802
0.225439
0.225145
0.224934
0.224824
0.224831
0.224969
0.225239
0.225627
0.226075
0.226475
0.226579
0.226141
0.224203
0.254276
0.254116
0.253742
0.253191
0.252539
0.251836
0.251098
0.250337
0.249565
0.248798
0.248043
0.247303
0.246577
0.245865
0.245166
0.244477
0.243799
0.243129
0.242467
0.241814
0.241167
0.240526
0.23989
0.239258
0.238628
0.238
0.237373
0.236747
0.236122
0.235497
0.234874
0.234251
0.233629
0.233008
0.232388
0.231771
0.231155
0.230543
0.229934
0.22933
0.228732
0.228142
0.227562
0.226995
0.226443
0.225911
0.225403
0.224926
0.224484
0.224086
0.223736
0.223438
0.223192
0.222984
0.222785
0.222534
0.222131
0.221372
0.220091
0.217491
0.254264
0.254105
0.253733
0.253186
0.252536
0.251833
0.251097
0.250337
0.249566
0.248798
0.248043
0.247303
0.246578
0.245866
0.245166
0.244478
0.243799
0.243129
0.242468
0.241814
0.241167
0.240526
0.23989
0.239257
0.238626
0.237998
0.23737
0.236744
0.236118
0.235492
0.234867
0.234242
0.233617
0.232993
0.232369
0.231746
0.231123
0.230501
0.229881
0.229262
0.228644
0.228029
0.227416
0.226806
0.226201
0.225599
0.225002
0.224409
0.223821
0.223233
0.222642
0.222039
0.221406
0.220718
0.219931
0.218977
0.21777
0.216146
0.214024
0.210762
0.254264
0.254105
0.253733
0.253186
0.252536
0.251833
0.251097
0.250337
0.249565
0.248798
0.248043
0.247303
0.246578
0.245866
0.245166
0.244478
0.243799
0.243129
0.242467
0.241813
0.241166
0.240525
0.239889
0.239255
0.238625
0.237996
0.237368
0.23674
0.236113
0.235486
0.23486
0.234233
0.233605
0.232978
0.23235
0.231721
0.231091
0.23046
0.229828
0.229193
0.228556
0.227915
0.22727
0.226618
0.225958
0.225287
0.2246
0.223892
0.223156
0.222379
0.221547
0.220637
0.219618
0.218447
0.217069
0.21541
0.213394
0.2109
0.207928
0.203996
0.254276
0.254116
0.253742
0.253191
0.252539
0.251835
0.251098
0.250337
0.249565
0.248798
0.248043
0.247303
0.246577
0.245865
0.245165
0.244477
0.243798
0.243128
0.242466
0.241813
0.241166
0.240524
0.239887
0.239254
0.238623
0.237994
0.237365
0.236737
0.236109
0.235481
0.234853
0.234224
0.233594
0.232963
0.23233
0.231696
0.231059
0.230419
0.229775
0.229125
0.228468
0.227802
0.227124
0.22643
0.225716
0.224975
0.224199
0.223376
0.222493
0.221527
0.220454
0.219237
0.217832
0.216178
0.214208
0.211839
0.209006
0.20563
0.201792
0.197171
0.254299
0.254137
0.253758
0.253202
0.252546
0.25184
0.251101
0.250338
0.249565
0.248796
0.248041
0.247301
0.246575
0.245863
0.245164
0.244475
0.243797
0.243127
0.242465
0.241811
0.241164
0.240523
0.239886
0.239253
0.238621
0.237991
0.237362
0.236734
0.236105
0.235476
0.234846
0.234215
0.233582
0.232948
0.232311
0.231671
0.231027
0.230378
0.229722
0.229057
0.22838
0.227689
0.226979
0.226243
0.225475
0.224665
0.2238
0.222864
0.221833
0.22068
0.219367
0.217845
0.216054
0.213918
0.211353
0.20827
0.204609
0.200333
0.195605
0.190267
0.254334
0.254169
0.253783
0.253219
0.252557
0.251847
0.251105
0.250339
0.249564
0.248794
0.248038
0.247298
0.246573
0.245861
0.245162
0.244474
0.243795
0.243125
0.242463
0.24181
0.241163
0.240521
0.239885
0.239251
0.23862
0.237989
0.23736
0.23673
0.236101
0.23547
0.234839
0.234206
0.233571
0.232933
0.232292
0.231647
0.230996
0.230337
0.22967
0.22899
0.228294
0.227577
0.226835
0.226058
0.225237
0.224359
0.223406
0.222356
0.22118
0.219841
0.21829
0.216465
0.214289
0.211672
0.208511
0.204708
0.200207
0.195008
0.189353
0.18326
0.254382
0.254212
0.253816
0.253241
0.252571
0.251856
0.25111
0.250341
0.249563
0.248791
0.248035
0.247295
0.246569
0.245858
0.245159
0.244471
0.243792
0.243123
0.242461
0.241808
0.241161
0.24052
0.239883
0.239249
0.238618
0.237987
0.237357
0.236727
0.236096
0.235465
0.234832
0.234197
0.233559
0.232919
0.232273
0.231623
0.230965
0.230297
0.229618
0.228923
0.228208
0.227467
0.226693
0.225875
0.225002
0.224056
0.223016
0.221855
0.220536
0.219013
0.217226
0.215101
0.212544
0.209446
0.205689
0.201161
0.195803
0.189653
0.183026
0.176126
0.254442
0.254266
0.253857
0.253268
0.252589
0.251868
0.251117
0.250342
0.249561
0.248788
0.248031
0.24729
0.246565
0.245854
0.245156
0.244468
0.243789
0.24312
0.242459
0.241805
0.241159
0.240518
0.239881
0.239247
0.238616
0.237985
0.237355
0.236724
0.236092
0.23546
0.234825
0.234188
0.233548
0.232904
0.232255
0.231599
0.230934
0.230258
0.229567
0.228858
0.228124
0.227359
0.226554
0.225696
0.224771
0.223759
0.222634
0.221362
0.219902
0.218198
0.21618
0.213758
0.210824
0.207249
0.202895
0.197633
0.191402
0.184266
0.17661
0.16884
0.254515
0.254331
0.253906
0.2533
0.252609
0.251882
0.251125
0.250345
0.249559
0.248784
0.248026
0.247285
0.24656
0.245849
0.245151
0.244464
0.243786
0.243116
0.242455
0.241802
0.241156
0.240515
0.239879
0.239245
0.238614
0.237983
0.237352
0.236721
0.236088
0.235454
0.234819
0.23418
0.233537
0.23289
0.232237
0.231576
0.230904
0.23022
0.229518
0.228794
0.228042
0.227253
0.226417
0.225521
0.224545
0.223468
0.222259
0.220881
0.219282
0.217401
0.215154
0.212441
0.209134
0.205086
0.200135
0.194135
0.187008
0.178846
0.170093
0.161376
0.254602
0.254409
0.253964
0.253338
0.252633
0.251898
0.251134
0.250347
0.249556
0.248778
0.248019
0.247278
0.246554
0.245844
0.245147
0.24446
0.243782
0.243113
0.242452
0.241799
0.241153
0.240513
0.239877
0.239243
0.238612
0.23798
0.237349
0.236717
0.236084
0.235449
0.234812
0.234172
0.233527
0.232877
0.232219
0.231553
0.230875
0.230182
0.22947
0.228732
0.227962
0.22715
0.226285
0.22535
0.224325
0.223184
0.221894
0.220411
0.218678
0.216623
0.214154
0.211154
0.207481
0.202965
0.197419
0.190672
0.182628
0.173394
0.163461
0.153704
0.254703
0.254498
0.254029
0.253379
0.25266
0.251916
0.251144
0.250349
0.249553
0.248772
0.248012
0.247271
0.246547
0.245838
0.245141
0.244455
0.243777
0.243108
0.242448
0.241795
0.24115
0.24051
0.239874
0.239241
0.23861
0.237978
0.237347
0.236714
0.23608
0.235445
0.234806
0.234164
0.233517
0.232863
0.232202
0.231531
0.230847
0.230146
0.229423
0.228672
0.227884
0.22705
0.226156
0.225184
0.224112
0.22291
0.221541
0.219955
0.218092
0.215868
0.213182
0.209903
0.20587
0.200892
0.194754
0.187255
0.178269
0.167912
0.156702
0.145796
0.25482
0.2546
0.254103
0.253425
0.25269
0.251936
0.251154
0.25035
0.249548
0.248765
0.248004
0.247263
0.246539
0.245831
0.245135
0.244449
0.243772
0.243103
0.242443
0.241791
0.241146
0.240507
0.239872
0.239239
0.238607
0.237976
0.237344
0.236711
0.236077
0.23544
0.2348
0.234156
0.233507
0.232851
0.232186
0.23151
0.23082
0.230111
0.229378
0.228613
0.227809
0.226954
0.226032
0.225024
0.223906
0.222644
0.221199
0.219516
0.217525
0.215139
0.212242
0.208692
0.204308
0.198876
0.19215
0.183894
0.173941
0.162403
0.149804
0.137618
0.254953
0.254715
0.254183
0.253474
0.252722
0.251958
0.251166
0.250352
0.249543
0.248757
0.247994
0.247253
0.24653
0.245823
0.245129
0.244443
0.243766
0.243098
0.242438
0.241787
0.241142
0.240504
0.239869
0.239237
0.238605
0.237974
0.237342
0.236708
0.236073
0.235435
0.234794
0.234148
0.233497
0.232838
0.23217
0.23149
0.230794
0.230077
0.229334
0.228558
0.227737
0.226861
0.225912
0.22487
0.223708
0.22239
0.220871
0.219093
0.216981
0.214438
0.211338
0.207525
0.2028
0.196923
0.189615
0.1806
0.169654
0.156875
0.142755
0.129137
0.255103
0.254843
0.254271
0.253527
0.252757
0.251983
0.251178
0.250352
0.249537
0.248748
0.247984
0.247242
0.246521
0.245815
0.245121
0.244437
0.24376
0.243092
0.242433
0.241782
0.241138
0.2405
0.239866
0.239234
0.238603
0.237972
0.237339
0.236706
0.23607
0.235431
0.234789
0.234141
0.233488
0.232827
0.232155
0.23147
0.230769
0.230045
0.229293
0.228504
0.227669
0.226773
0.225798
0.224724
0.223519
0.222147
0.220558
0.21869
0.216461
0.213768
0.210474
0.206408
0.201353
0.195043
0.187162
0.177385
0.165422
0.151335
0.135544
0.120316
0.255272
0.254986
0.254365
0.253582
0.252794
0.252009
0.25119
0.250352
0.24953
0.248737
0.247972
0.24723
0.24651
0.245806
0.245114
0.24443
0.243753
0.243086
0.242427
0.241776
0.241134
0.240497
0.239863
0.239232
0.238601
0.23797
0.237337
0.236703
0.236066
0.235427
0.234783
0.234135
0.233479
0.232816
0.232141
0.231452
0.230745
0.230014
0.229253
0.228454
0.227604
0.226689
0.22569
0.224585
0.22334
0.221916
0.220261
0.218307
0.215968
0.213131
0.209651
0.205344
0.199972
0.193242
0.184799
0.174264
0.161259
0.145796
0.128162
0.111118
0.255463
0.255144
0.254464
0.253638
0.252834
0.252037
0.251202
0.250351
0.249521
0.248725
0.247958
0.247217
0.246498
0.245796
0.245105
0.244422
0.243746
0.243079
0.24242
0.241771
0.241129
0.240493
0.23986
0.239229
0.238599
0.237968
0.237335
0.2367
0.236063
0.235423
0.234778
0.234128
0.233471
0.232805
0.232127
0.231435
0.230723
0.229986
0.229216
0.228406
0.227542
0.22661
0.225589
0.224453
0.223171
0.221698
0.219981
0.217946
0.215503
0.21253
0.208875
0.204338
0.198663
0.19153
0.18254
0.171252
0.157185
0.140277
0.120605
0.101501
0.255678
0.255316
0.254567
0.253696
0.252877
0.252066
0.251214
0.250349
0.249511
0.248711
0.247943
0.247203
0.246486
0.245786
0.245096
0.244414
0.243738
0.243071
0.242413
0.241764
0.241124
0.240489
0.239857
0.239227
0.238597
0.237966
0.237333
0.236698
0.23606
0.235419
0.234774
0.234122
0.233464
0.232795
0.232115
0.231418
0.230702
0.229959
0.229182
0.228361
0.227485
0.226536
0.225493
0.224331
0.223013
0.221495
0.219719
0.217609
0.215067
0.211968
0.208148
0.203394
0.197433
0.189915
0.180395
0.168367
0.153222
0.134799
0.112871
0.0914243
0.25592
0.255505
0.254673
0.253755
0.252922
0.252097
0.251225
0.250345
0.2495
0.248696
0.247926
0.247187
0.246472
0.245774
0.245087
0.244405
0.24373
0.243063
0.242406
0.241758
0.241118
0.240484
0.239854
0.239224
0.238595
0.237964
0.237331
0.236696
0.236058
0.235416
0.234769
0.234117
0.233457
0.232786
0.232103
0.231403
0.230682
0.229934
0.22915
0.22832
0.227432
0.226467
0.225405
0.224217
0.222867
0.221307
0.219476
0.217296
0.214664
0.211447
0.207473
0.202517
0.196287
0.188405
0.178377
0.165626
0.149396
0.129392
0.104965
0.0808421
0.256193
0.255708
0.254779
0.253813
0.25297
0.25213
0.251235
0.250339
0.249486
0.248678
0.247907
0.247169
0.246457
0.245763
0.245077
0.244396
0.243721
0.243054
0.242397
0.24175
0.241112
0.24048
0.23985
0.239222
0.238593
0.237962
0.237329
0.236694
0.236055
0.235413
0.234765
0.234112
0.23345
0.232778
0.232092
0.23139
0.230665
0.229911
0.22912
0.228282
0.227383
0.226404
0.225324
0.224113
0.222733
0.221134
0.219253
0.217009
0.214293
0.210968
0.206853
0.201711
0.195231
0.187008
0.1765
0.163051
0.145736
0.124093
0.0969023
0.0697058
0.256502
0.255927
0.254883
0.25387
0.253021
0.252163
0.251244
0.250332
0.249471
0.248658
0.247886
0.24715
0.246442
0.24575
0.245066
0.244387
0.243712
0.243045
0.242389
0.241743
0.241106
0.240475
0.239847
0.239219
0.238591
0.23796
0.237327
0.236692
0.236053
0.23541
0.234762
0.234107
0.233444
0.23277
0.232083
0.231377
0.230649
0.22989
0.229094
0.228248
0.227339
0.226348
0.225251
0.224019
0.222611
0.220977
0.219052
0.216749
0.213958
0.210534
0.20629
0.200978
0.194269
0.185733
0.174776
0.160662
0.142279
0.11895
0.0887116
0.0579563
0.256853
0.256159
0.254981
0.253928
0.253074
0.252195
0.25125
0.250323
0.249454
0.248637
0.247864
0.24713
0.246426
0.245738
0.245056
0.244377
0.243702
0.243035
0.242379
0.241734
0.241099
0.24047
0.239843
0.239217
0.238589
0.237959
0.237326
0.23669
0.236051
0.235407
0.234759
0.234103
0.233439
0.232764
0.232074
0.231366
0.230634
0.229872
0.22907
0.228217
0.227299
0.226297
0.225186
0.223935
0.222503
0.220838
0.218872
0.216517
0.213658
0.210147
0.205788
0.200323
0.193408
0.184587
0.173219
0.158483
0.139063
0.114022
0.0804433
0.0455131
0.257256
0.256399
0.25507
0.253989
0.253133
0.252225
0.251251
0.250308
0.249431
0.24861
0.247836
0.247106
0.246407
0.245723
0.245045
0.244367
0.243693
0.243026
0.24237
0.241726
0.241092
0.240465
0.23984
0.239215
0.238587
0.237957
0.237325
0.236689
0.236049
0.235405
0.234756
0.2341
0.233434
0.232758
0.232067
0.231356
0.230622
0.229856
0.229049
0.22819
0.227265
0.226252
0.225129
0.223861
0.222408
0.220716
0.218714
0.216314
0.213396
0.209808
0.205347
0.199748
0.192652
0.183579
0.171841
0.156538
0.136136
0.10938
0.0721811
0.0322778
0.257724
0.256638
0.255134
0.254054
0.253209
0.25227
0.251264
0.250303
0.249415
0.248588
0.247813
0.247084
0.246388
0.245708
0.245031
0.244354
0.243679
0.243012
0.242357
0.241716
0.241084
0.240459
0.239836
0.239212
0.238586
0.237956
0.237323
0.236687
0.236048
0.235403
0.234753
0.234097
0.233431
0.232753
0.23206
0.231348
0.230611
0.229842
0.229031
0.228168
0.227235
0.226215
0.22508
0.223798
0.222327
0.220611
0.21858
0.216141
0.213173
0.209519
0.204972
0.199259
0.192007
0.182716
0.170658
0.154852
0.133551
0.105119
0.0640594
0.0181508
0.25828
0.256882
0.255135
0.254054
0.253226
0.252266
0.25124
0.25027
0.249379
0.248552
0.247784
0.247064
0.246377
0.245703
0.245029
0.244351
0.243674
0.243005
0.242349
0.241708
0.241078
0.240454
0.239833
0.23921
0.238584
0.237955
0.237322
0.236686
0.236046
0.235402
0.234752
0.234094
0.233427
0.232749
0.232055
0.231341
0.230602
0.229831
0.229017
0.228149
0.227211
0.226184
0.22504
0.223747
0.222261
0.220527
0.218471
0.216
0.212991
0.209284
0.204667
0.19886
0.191482
0.182012
0.169689
0.15346
0.131379
0.101369
0.0563063
0.00296177
0.258932
0.257317
0.255374
0.254255
0.253366
0.252334
0.251259
0.250256
0.249338
0.248495
0.24772
0.247004
0.246326
0.245661
0.244993
0.24432
0.243646
0.242979
0.242326
0.241689
0.241064
0.240446
0.239828
0.239207
0.238583
0.237954
0.237322
0.236685
0.236045
0.235401
0.23475
0.234092
0.233425
0.232746
0.232051
0.231336
0.230596
0.229822
0.229006
0.228135
0.227193
0.22616
0.22501
0.223708
0.222211
0.220462
0.218388
0.215893
0.212853
0.209105
0.204435
0.198557
0.191082
0.181475
0.168949
0.15239
0.129691
0.0982919
0.0492873
-0.013764
0.259084
0.256822
0.255059
0.254223
0.253395
0.252362
0.251297
0.2503
0.24938
0.248533
0.247757
0.247039
0.246357
0.245686
0.245012
0.244331
0.24365
0.242979
0.242325
0.241687
0.241062
0.240444
0.239827
0.239207
0.238583
0.237954
0.237321
0.236685
0.236045
0.2354
0.234749
0.234091
0.233423
0.232743
0.232048
0.231332
0.230591
0.229816
0.228998
0.228125
0.22718
0.226144
0.224988
0.22368
0.222176
0.220416
0.218329
0.215816
0.212754
0.208977
0.204269
0.19834
0.190796
0.181091
0.16842
0.151622
0.128492
0.0959912
0.0436277
-0.0324581
0.263022
0.257605
0.255103
0.254221
0.253314
0.252196
0.251085
0.25007
0.249153
0.248325
0.247584
0.24691
0.24627
0.245632
0.244979
0.244309
0.243633
0.242965
0.242313
0.241679
0.241057
0.240442
0.239826
0.239207
0.238583
0.237954
0.237321
0.236685
0.236044
0.235399
0.234749
0.23409
0.233422
0.232742
0.232047
0.231331
0.230589
0.229813
0.228995
0.22812
0.227174
0.226136
0.224978
0.223668
0.222159
0.220395
0.218301
0.215781
0.212708
0.208918
0.204192
0.198239
0.190662
0.180911
0.168171
0.151259
0.127918
0.0948845
0.0405193
-0.0466865
0.468013
0.337231
0.258905
0.231671
0.214533
0.196072
0.180018
0.168959
0.161765
0.15675
0.153136
0.150798
0.149716
0.149913
0.151636
0.155626
0.163215
0.178388
0.178039
0.147189
0.128208
0.120191
0.113952
0.106289
0.0972728
0.0866528
0.0729247
0.0533757
0.023719
-0.0252332
-0.11378
-0.313593
-0.797962
-0.89363
-0.397431
-0.322373
-0.147703
-0.0556895
-0.0118447
0.00405698
0.0104047
0.0139928
0.0156665
0.0159549
0.0156427
0.0150664
0.0141813
0.0129663
0.0114983
0.0100426
0.00867134
0.00748658
0.00642361
0.00543961
0.00453519
0.00372217
0.00306054
0.00252101
0.002576
0.000327479
0.455108
0.330151
0.253644
0.228441
0.212275
0.194162
0.17848
0.167813
0.161052
0.15627
0.15282
0.150607
0.149619
0.149886
0.151652
0.155662
0.163101
0.175259
0.172766
0.144787
0.126817
0.119198
0.113108
0.105422
0.0963289
0.0855556
0.0715053
0.0513655
0.0206259
-0.0302214
-0.121925
-0.310119
-0.665589
-0.788478
-0.430762
-0.336262
-0.16614
-0.0641541
-0.0165899
0.00150008
0.00894547
0.0130644
0.0150855
0.015613
0.0154536
0.0149853
0.0142036
0.0130645
0.011655
0.0101958
0.00882983
0.00762304
0.00653871
0.00553931
0.00462141
0.00378757
0.00310399
0.00247986
0.00240143
0.000338019
0.434588
0.325034
0.251973
0.227135
0.211245
0.1934
0.178041
0.167659
0.160915
0.156072
0.152684
0.150526
0.149576
0.149866
0.151633
0.155545
0.162315
0.171834
0.16856
0.14419
0.126734
0.118985
0.112858
0.105136
0.0960031
0.0851602
0.0709678
0.0505744
0.0193979
-0.0319284
-0.122454
-0.290145
-0.564361
-0.684372
-0.439157
-0.334417
-0.175838
-0.0701745
-0.0201307
-0.000527805
0.00777375
0.0123462
0.0146442
0.0153356
0.0152636
0.0148514
0.0141148
0.0130151
0.0116459
0.0101915
0.00886401
0.00765491
0.00656919
0.00556806
0.0046463
0.00380385
0.00310211
0.00243833
0.00223582
0.000429223
0.413925
0.319842
0.249638
0.224454
0.208956
0.19165
0.176688
0.166543
0.159996
0.155625
0.152374
0.150312
0.149429
0.149753
0.151501
0.15522
0.161236
0.168562
0.164529
0.142706
0.125905
0.118156
0.112127
0.104508
0.0954279
0.08458
0.0703066
0.0497394
0.0183175
-0.0329741
-0.120327
-0.270958
-0.482341
-0.598016
-0.431324
-0.324501
-0.180887
-0.0757034
-0.0239071
-0.00289763
0.00635986
0.0114995
0.0141403
0.01503
0.0150607
0.0147109
0.0140316
0.0129968
0.011693
0.0102853
0.00896832
0.00775944
0.00666284
0.00564747
0.00471042
0.00384972
0.00312274
0.00241959
0.00210247
0.000492107
0.39524
0.314116
0.247111
0.221832
0.206889
0.190245
0.175749
0.165982
0.159764