/*--------------------------------*- C++ -*----------------------------------*\
| =========                 |                                                 |
| \\      /  F ield         | OpenFOAM: The Open Source CFD Toolbox           |
|  \\    /   O peration     | Version:  2.4.0                                 |
|   \\  /    A nd           | Web:      www.OpenFOAM.org                      |
|    \\/     M anipulation  |                                                 |
\*---------------------------------------------------------------------------*/
FoamFile
{
    version     2.0;
    format      ascii;
    class       volScalarField;
    location    "0.4";
    object      k;
}
// * * * * * * * * * * * * * * * * * * * * * * * * * * * * * * * * * * * * * //

dimensions      [0 2 -2 0 0 0 0];

internalField   nonuniform List<scalar> 
6000
(
0.0117749
0.00559045
0.000893132
0.00205308
0.00143667
0.00113936
0.000811434
0.00069063
0.000804428
0.00112214
0.0014399
0.00172518
0.00194702
0.00208974
0.0021624
0.00219069
0.00219974
0.00220563
0.0022137
0.00221652
0.00221401
0.00220798
0.00220015
0.00219185
0.00218401
0.00217731
0.00217227
0.00216926
0.0021686
0.00217053
0.00217529
0.00218307
0.0021941
0.00220861
0.00222688
0.0022492
0.00227587
0.00230719
0.00234347
0.00238544
0.00243399
0.00249001
0.00255453
0.00262877
0.00271423
0.00281273
0.00292649
0.0030583
0.00321159
0.00339077
0.00360136
0.00385082
0.00415062
0.00452529
0.00498425
0.00556803
0.00626006
0.00725538
0.00823343
0.0102668
0.0120013
0.00966611
0.00167383
0.00148595
0.00121509
0.00108984
0.00102295
0.00102584
0.00108154
0.00114859
0.0012178
0.00129843
0.00139437
0.00148694
0.0015446
0.00155489
0.00153304
0.00150063
0.00146894
0.00144019
0.001414
0.00139015
0.0013688
0.0013501
0.00133399
0.0013203
0.00130884
0.00129938
0.00129177
0.00128584
0.00128148
0.00127858
0.00127708
0.00127694
0.00127814
0.00128074
0.00128483
0.00129054
0.00129801
0.00130729
0.00131845
0.0013317
0.00134731
0.00136563
0.00138706
0.00141212
0.00144143
0.00147577
0.00151612
0.00156373
0.00162018
0.00168749
0.00176863
0.00186784
0.00199185
0.00214312
0.00234474
0.00257789
0.00293213
0.00338505
0.0115322
0.0131533
0.0026376
0.00210887
0.00160023
0.0013604
0.00123107
0.0011871
0.00118999
0.00120122
0.00120637
0.0012075
0.00121653
0.00123752
0.00125701
0.00125959
0.00124484
0.00122261
0.00120085
0.00118224
0.00116662
0.00115336
0.00114211
0.00113269
0.00112489
0.00111848
0.00111326
0.00110904
0.00110565
0.00110298
0.00110093
0.00109942
0.0010984
0.00109781
0.00109765
0.00109789
0.00109854
0.00109957
0.00110099
0.00110284
0.00110519
0.00110812
0.00111173
0.00111611
0.0011214
0.00112775
0.00113536
0.00114447
0.00115536
0.00116841
0.00118407
0.00120295
0.00122582
0.00125369
0.00128822
0.00133044
0.00138529
0.00144825
0.00153872
0.00162555
0.0114363
0.0145082
0.00407228
0.00288626
0.00198782
0.0015783
0.00135646
0.00126164
0.00123244
0.00122523
0.00121564
0.00119494
0.00116997
0.00115242
0.00114431
0.00113823
0.00112903
0.00111782
0.00110738
0.00109894
0.00109238
0.00108724
0.00108318
0.00108
0.00107753
0.00107564
0.0010742
0.00107311
0.00107228
0.00107167
0.00107122
0.0010709
0.00107068
0.00107055
0.00107048
0.00107049
0.00107055
0.00107066
0.0010708
0.001071
0.0010713
0.00107173
0.00107235
0.00107319
0.00107431
0.00107578
0.00107768
0.00108013
0.00108324
0.00108718
0.00109214
0.00109837
0.00110621
0.00111602
0.0011285
0.00114392
0.00116458
0.00118723
0.00122485
0.00125344
0.0113549
0.0146853
0.00570244
0.00378626
0.00240247
0.00178752
0.00145606
0.00131009
0.00125255
0.00123268
0.00121955
0.0011965
0.00116383
0.00113289
0.00111216
0.00110067
0.00109355
0.00108813
0.00108392
0.00108091
0.00107885
0.00107746
0.00107654
0.00107593
0.00107557
0.00107538
0.0010753
0.0010753
0.00107535
0.00107541
0.00107549
0.00107557
0.00107563
0.00107568
0.00107572
0.00107573
0.00107572
0.00107568
0.00107562
0.00107555
0.00107548
0.00107543
0.00107543
0.0010755
0.00107568
0.00107601
0.00107655
0.00107736
0.00107855
0.00108021
0.00108251
0.00108564
0.00108986
0.00109549
0.00110308
0.00111293
0.00112709
0.00114343
0.001175
0.00120489
0.0112862
0.0142593
0.00720435
0.004817
0.00285747
0.00200521
0.00154801
0.00134859
0.00126099
0.00122733
0.00121203
0.00119229
0.00116226
0.00113032
0.00110655
0.00109336
0.00108722
0.00108438
0.00108296
0.00108226
0.00108196
0.00108189
0.00108193
0.00108205
0.00108219
0.00108236
0.00108252
0.00108268
0.00108284
0.00108298
0.0010831
0.0010832
0.00108329
0.00108337
0.00108343
0.00108347
0.0010835
0.00108351
0.00108351
0.00108351
0.00108351
0.00108353
0.00108358
0.00108369
0.00108387
0.00108416
0.00108459
0.00108523
0.00108616
0.00108747
0.0010893
0.00109183
0.00109533
0.0011001
0.00110679
0.00111559
0.00112921
0.00114488
0.00117974
0.00121514
0.0112287
0.0135525
0.00839388
0.00594548
0.00336106
0.00224009
0.00164207
0.00138614
0.00126598
0.00121681
0.00119823
0.00118239
0.00115791
0.00112953
0.00110695
0.00109416
0.00108877
0.00108707
0.00108673
0.00108682
0.00108701
0.00108719
0.00108734
0.00108746
0.00108754
0.00108761
0.00108766
0.00108771
0.00108776
0.0010878
0.00108784
0.00108789
0.00108794
0.001088
0.00108807
0.00108815
0.00108823
0.00108834
0.00108845
0.00108859
0.00108876
0.00108897
0.00108924
0.00108958
0.00109002
0.00109058
0.0010913
0.00109224
0.00109346
0.00109508
0.00109721
0.00110005
0.00110387
0.00110898
0.00111609
0.00112548
0.00114006
0.00115673
0.0011957
0.00123456
0.0111751
0.012745
0.00923159
0.00703258
0.00391992
0.00249318
0.00174647
0.00142586
0.00127197
0.00120609
0.00118271
0.0011698
0.001151
0.00112728
0.00110727
0.00109567
0.001091
0.00108985
0.00108991
0.00109019
0.00109042
0.00109053
0.00109054
0.0010905
0.00109042
0.00109032
0.00109024
0.00109016
0.00109009
0.00109005
0.00109002
0.00109002
0.00109003
0.00109008
0.00109014
0.00109023
0.00109036
0.00109051
0.00109071
0.00109095
0.00109124
0.0010916
0.00109205
0.00109259
0.00109325
0.00109407
0.00109509
0.00109635
0.00109794
0.00109996
0.00110254
0.00110587
0.00111023
0.00111596
0.0011238
0.00113404
0.00114987
0.00116785
0.00121019
0.0012511
0.0111227
0.0119363
0.0097218
0.00789464
0.00452883
0.00276804
0.00186306
0.0014686
0.00128069
0.00119751
0.00116795
0.00115667
0.00114289
0.00112378
0.00110656
0.00109631
0.00109228
0.00109147
0.00109169
0.00109201
0.00109217
0.00109217
0.00109205
0.00109187
0.00109167
0.00109147
0.00109129
0.00109113
0.001091
0.00109091
0.00109084
0.00109081
0.00109081
0.00109084
0.0010909
0.00109101
0.00109115
0.00109134
0.00109157
0.00109186
0.00109222
0.00109267
0.00109321
0.00109386
0.00109467
0.00109565
0.00109685
0.00109834
0.0011002
0.00110252
0.00110545
0.00110919
0.00111404
0.00112033
0.00112885
0.00113989
0.00115682
0.00117599
0.00122067
0.00126275
0.0110726
0.0111795
0.00989458
0.00847
0.00508308
0.0030396
0.00198196
0.00151349
0.00129222
0.00119174
0.00115496
0.00114405
0.00113448
0.00111967
0.00110516
0.0010962
0.00109273
0.00109218
0.0010925
0.00109282
0.00109294
0.00109286
0.00109267
0.00109241
0.00109214
0.00109189
0.00109166
0.00109146
0.00109131
0.00109119
0.0010911
0.00109106
0.00109105
0.00109107
0.00109114
0.00109125
0.00109139
0.00109159
0.00109185
0.00109216
0.00109255
0.00109303
0.00109362
0.00109433
0.0010952
0.00109626
0.00109757
0.00109919
0.00110119
0.00110369
0.00110685
0.00111086
0.00111604
0.00112274
0.00113176
0.00114341
0.00116117
0.00118127
0.00122741
0.00127004
0.0110261
0.0105
0.00980278
0.00874775
0.00550494
0.00327689
0.00209435
0.0015584
0.00130577
0.00118863
0.00114401
0.00113238
0.00112624
0.00111537
0.00110344
0.00109571
0.00109275
0.0010924
0.00109281
0.00109315
0.00109324
0.00109313
0.00109289
0.0010926
0.0010923
0.00109202
0.00109177
0.00109156
0.00109139
0.00109126
0.00109117
0.00109112
0.0010911
0.00109113
0.00109119
0.0010913
0.00109145
0.00109166
0.00109192
0.00109224
0.00109264
0.00109314
0.00109374
0.00109447
0.00109537
0.00109648
0.00109783
0.0010995
0.00110158
0.00110418
0.00110746
0.00111163
0.001117
0.00112395
0.0011333
0.00114536
0.00116368
0.00118444
0.00123134
0.00127409
0.0109839
0.00990699
0.00951168
0.00874569
0.00574612
0.00345343
0.00219059
0.0016004
0.00132019
0.00118767
0.00113503
0.0011218
0.00111835
0.00111109
0.00110163
0.00109508
0.00109259
0.00109242
0.0010929
0.00109327
0.00109336
0.00109323
0.00109297
0.00109266
0.00109235
0.00109205
0.00109179
0.00109158
0.0010914
0.00109127
0.00109117
0.00109112
0.00109111
0.00109113
0.0010912
0.0010913
0.00109146
0.00109166
0.00109192
0.00109225
0.00109266
0.00109315
0.00109376
0.00109451
0.00109542
0.00109654
0.00109791
0.00109961
0.00110172
0.00110437
0.00110771
0.00111196
0.00111744
0.00112453
0.00113407
0.00114639
0.00116506
0.00118624
0.00123344
0.00127599
0.0109462
0.00940015
0.00908854
0.00850439
0.0057926
0.00355116
0.00226217
0.00163648
0.00133422
0.00118825
0.00112783
0.00111234
0.00111088
0.0011069
0.00109982
0.00109442
0.00109237
0.00109237
0.00109292
0.00109332
0.00109341
0.00109327
0.001093
0.00109268
0.00109235
0.00109205
0.00109179
0.00109157
0.00109139
0.00109126
0.00109116
0.00109111
0.00109109
0.00109112
0.00109118
0.00109129
0.00109144
0.00109165
0.00109191
0.00109224
0.00109265
0.00109315
0.00109376
0.00109451
0.00109543
0.00109655
0.00109793
0.00109964
0.00110177
0.00110444
0.00110781
0.0011121
0.00111764
0.00112481
0.00113446
0.00114693
0.0011658
0.00118724
0.00123443
0.00127657
0.0109127
0.00897399
0.00859474
0.00808187
0.00566731
0.0035658
0.00230395
0.00166418
0.00134675
0.00118977
0.00112214
0.00110395
0.00110386
0.00110282
0.00109802
0.00109376
0.00109214
0.00109231
0.00109292
0.00109334
0.00109344
0.00109329
0.00109302
0.00109269
0.00109235
0.00109205
0.00109178
0.00109156
0.00109138
0.00109124
0.00109115
0.00109109
0.00109108
0.0010911
0.00109116
0.00109127
0.00109143
0.00109163
0.00109189
0.00109222
0.00109263
0.00109313
0.00109375
0.0010945
0.00109542
0.00109655
0.00109794
0.00109965
0.00110179
0.00110447
0.00110786
0.00111217
0.00111774
0.00112496
0.00113467
0.00114724
0.00116622
0.0011878
0.0012348
0.0012764
0.0108832
0.00862042
0.0080808
0.00754535
0.00541317
0.00350684
0.00231545
0.00168216
0.00135695
0.00119168
0.00111771
0.00109659
0.00109731
0.00109888
0.00109626
0.00109312
0.00109193
0.00109225
0.00109292
0.00109336
0.00109346
0.00109331
0.00109303
0.00109269
0.00109235
0.00109204
0.00109177
0.00109155
0.00109136
0.00109123
0.00109113
0.00109107
0.00109106
0.00109108
0.00109115
0.00109125
0.00109141
0.00109161
0.00109188
0.00109221
0.00109262
0.00109312
0.00109374
0.00109449
0.00109541
0.00109654
0.00109793
0.00109965
0.0011018
0.00110449
0.00110788
0.00111221
0.00111781
0.00112506
0.00113481
0.00114743
0.00116647
0.00118814
0.00123484
0.00127584
0.0108575
0.0083304
0.00758423
0.00696127
0.00508192
0.00339331
0.00230047
0.00169037
0.00136435
0.00119358
0.00111427
0.00109018
0.00109123
0.00109506
0.00109453
0.00109249
0.00109173
0.0010922
0.00109293
0.00109339
0.00109349
0.00109333
0.00109304
0.00109269
0.00109235
0.00109203
0.00109176
0.00109153
0.00109135
0.00109121
0.00109111
0.00109106
0.00109104
0.00109106
0.00109113
0.00109124
0.00109139
0.0010916
0.00109186
0.00109219
0.0010926
0.00109311
0.00109372
0.00109448
0.0010954
0.00109653
0.00109793
0.00109965
0.0011018
0.0011045
0.00110791
0.00111225
0.00111786
0.00112513
0.00113491
0.00114757
0.00116665
0.00118835
0.00123472
0.00127509
0.010835
0.00809486
0.00712972
0.00638589
0.00472319
0.00324809
0.00226565
0.00168993
0.00136887
0.00119519
0.00111161
0.00108463
0.00108563
0.00109138
0.00109281
0.00109188
0.00109155
0.00109216
0.00109294
0.00109341
0.00109352
0.00109335
0.00109305
0.0010927
0.00109235
0.00109203
0.00109175
0.00109152
0.00109134
0.0010912
0.0010911
0.00109104
0.00109102
0.00109105
0.00109111
0.00109122
0.00109137
0.00109158
0.00109184
0.00109218
0.00109259
0.00109309
0.00109371
0.00109446
0.00109539
0.00109652
0.00109792
0.00109965
0.00110181
0.00110451
0.00110792
0.00111228
0.0011179
0.00112519
0.001135
0.0011477
0.00116679
0.00118852
0.00123452
0.00127427
0.0108156
0.00790527
0.00673077
0.00585939
0.00437624
0.00309256
0.00221869
0.00168275
0.00137076
0.00119633
0.00110953
0.00107987
0.00108048
0.00108785
0.00109113
0.00109127
0.00109138
0.00109213
0.00109296
0.00109345
0.00109355
0.00109338
0.00109306
0.0010927
0.00109235
0.00109202
0.00109174
0.00109151
0.00109132
0.00109118
0.00109108
0.00109103
0.00109101
0.00109103
0.0010911
0.0010912
0.00109136
0.00109156
0.00109183
0.00109216
0.00109257
0.00109308
0.0010937
0.00109445
0.00109538
0.00109652
0.00109792
0.00109965
0.00110181
0.00110452
0.00110794
0.0011123
0.00111794
0.00112525
0.00113508
0.00114781
0.00116692
0.00118865
0.00123429
0.00127344
0.0107988
0.00775392
0.00639219
0.00540448
0.00406614
0.00294281
0.00216673
0.00167108
0.0013705
0.00119698
0.00110789
0.0010758
0.0010758
0.00108447
0.00108946
0.00109067
0.00109121
0.00109211
0.00109298
0.00109348
0.00109358
0.0010934
0.00109308
0.00109271
0.00109234
0.00109202
0.00109173
0.0010915
0.00109131
0.00109117
0.00109107
0.00109101
0.00109099
0.00109101
0.00109108
0.00109119
0.00109134
0.00109155
0.00109181
0.00109214
0.00109256
0.00109306
0.00109368
0.00109444
0.00109537
0.00109651
0.00109791
0.00109965
0.00110181
0.00110453
0.00110796
0.00111233
0.00111798
0.00112531
0.00113516
0.00114791
0.00116703
0.00118876
0.00123405
0.00127262
0.0107843
0.00763405
0.00611269
0.00502878
0.0038046
0.00280792
0.00211554
0.00165719
0.00136872
0.00119719
0.00110657
0.00107233
0.00107155
0.00108126
0.00108783
0.00109008
0.00109105
0.00109209
0.00109301
0.00109352
0.00109362
0.00109343
0.00109309
0.00109271
0.00109234
0.00109201
0.00109172
0.00109149
0.0010913
0.00109115
0.00109105
0.00109099
0.00109098
0.001091
0.00109106
0.00109117
0.00109132
0.00109153
0.0010918
0.00109213
0.00109254
0.00109305
0.00109367
0.00109443
0.00109536
0.0010965
0.00109791
0.00109965
0.00110182
0.00110453
0.00110797
0.00111235
0.00111802
0.00112536
0.00113524
0.00114801
0.00116714
0.00118887
0.00123381
0.00127183
0.0107718
0.00753987
0.00588728
0.00472932
0.00359337
0.00269683
0.0020697
0.00164298
0.00136603
0.00119706
0.0011055
0.0010694
0.00106771
0.0010782
0.00108621
0.00108948
0.0010909
0.00109209
0.00109305
0.00109357
0.00109366
0.00109345
0.00109311
0.00109272
0.00109234
0.001092
0.00109171
0.00109147
0.00109128
0.00109114
0.00109104
0.00109098
0.00109096
0.00109098
0.00109105
0.00109116
0.00109131
0.00109152
0.00109178
0.00109211
0.00109253
0.00109304
0.00109366
0.00109442
0.00109535
0.00109649
0.0010979
0.00109965
0.00110182
0.00110454
0.00110799
0.00111238
0.00111806
0.00112542
0.00113531
0.00114811
0.00116724
0.00118896
0.00123358
0.00127107
0.0107611
0.00746647
0.00570911
0.00449723
0.00342833
0.00260853
0.00203064
0.00162963
0.00136298
0.00119672
0.00110463
0.00106692
0.00106427
0.00107531
0.00108463
0.00108888
0.00109075
0.00109209
0.00109309
0.00109362
0.0010937
0.00109348
0.00109313
0.00109273
0.00109234
0.001092
0.00109171
0.00109146
0.00109127
0.00109113
0.00109102
0.00109096
0.00109095
0.00109097
0.00109103
0.00109114
0.00109129
0.0010915
0.00109177
0.0010921
0.00109251
0.00109302
0.00109365
0.00109441
0.00109534
0.00109649
0.0010979
0.00109964
0.00110182
0.00110455
0.001108
0.0011124
0.00111809
0.00112547
0.00113538
0.0011482
0.00116733
0.00118904
0.00123335
0.00127034
0.0107518
0.00740978
0.00557078
0.00432131
0.0033027
0.0025398
0.00199869
0.00161793
0.00136001
0.00119632
0.00110394
0.00106484
0.0010612
0.00107259
0.00108308
0.00108828
0.0010906
0.00109209
0.00109314
0.00109367
0.00109374
0.00109351
0.00109314
0.00109274
0.00109234
0.001092
0.0010917
0.00109145
0.00109126
0.00109111
0.00109101
0.00109095
0.00109093
0.00109095
0.00109102
0.00109113
0.00109128
0.00109149
0.00109175
0.00109209
0.0010925
0.00109301
0.00109363
0.0010944
0.00109533
0.00109648
0.00109789
0.00109964
0.00110182
0.00110456
0.00110802
0.00111243
0.00111813
0.00112552
0.00113544
0.00114829
0.00116742
0.00118912
0.00123313
0.00126964
0.0107438
0.00736645
0.00546516
0.00419045
0.00320917
0.00248773
0.00197358
0.00160831
0.00135745
0.00119599
0.00110342
0.00106311
0.00105845
0.00107004
0.00108157
0.00108768
0.00109045
0.0010921
0.00109319
0.00109373
0.00109379
0.00109355
0.00109316
0.00109274
0.00109235
0.00109199
0.00109169
0.00109144
0.00109125
0.0010911
0.001091
0.00109094
0.00109092
0.00109094
0.001091
0.00109111
0.00109127
0.00109147
0.00109174
0.00109207
0.00109249
0.001093
0.00109362
0.00109439
0.00109532
0.00109647
0.00109789
0.00109964
0.00110183
0.00110457
0.00110803
0.00111245
0.00111816
0.00112556
0.00113551
0.00114837
0.00116751
0.00118919
0.00123291
0.00126898
0.0107369
0.00733374
0.00538584
0.00409476
0.00314097
0.0024494
0.0019547
0.00160096
0.00135556
0.00119584
0.00110308
0.00106167
0.00105602
0.00106765
0.00108009
0.00108708
0.0010903
0.00109211
0.00109324
0.00109378
0.00109384
0.00109358
0.00109318
0.00109275
0.00109235
0.00109199
0.00109168
0.00109143
0.00109124
0.00109109
0.00109098
0.00109092
0.0010909
0.00109093
0.00109099
0.0010911
0.00109125
0.00109146
0.00109173
0.00109206
0.00109248
0.00109299
0.00109361
0.00109438
0.00109531
0.00109646
0.00109788
0.00109964
0.00110183
0.00110457
0.00110804
0.00111247
0.00111819
0.00112561
0.00113557
0.00114845
0.00116759
0.00118926
0.0012327
0.00126835
0.0107309
0.00730943
0.00532734
0.00402601
0.00309238
0.00242215
0.00194119
0.00159585
0.00135448
0.00119599
0.00110294
0.0010605
0.00105386
0.00106541
0.00107865
0.00108648
0.00109014
0.00109212
0.0010933
0.00109384
0.00109389
0.00109362
0.00109321
0.00109276
0.00109235
0.00109198
0.00109168
0.00109142
0.00109123
0.00109108
0.00109097
0.00109091
0.00109089
0.00109091
0.00109098
0.00109108
0.00109124
0.00109145
0.00109171
0.00109205
0.00109246
0.00109297
0.0010936
0.00109437
0.00109531
0.00109646
0.00109788
0.00109964
0.00110183
0.00110458
0.00110806
0.00111249
0.00111822
0.00112565
0.00113563
0.00114853
0.00116767
0.00118932
0.0012325
0.00126775
0.0107258
0.00729173
0.00528507
0.00397764
0.00305876
0.00240368
0.00193261
0.00159297
0.00135431
0.00119651
0.00110301
0.00105957
0.00105195
0.00106333
0.00107725
0.00108587
0.00108999
0.00109213
0.00109336
0.00109391
0.00109394
0.00109365
0.00109323
0.00109278
0.00109235
0.00109198
0.00109167
0.00109142
0.00109121
0.00109106
0.00109096
0.0010909
0.00109088
0.0010909
0.00109096
0.00109107
0.00109123
0.00109143
0.0010917
0.00109204
0.00109245
0.00109296
0.00109359
0.00109436
0.0010953
0.00109645
0.00109787
0.00109964
0.00110183
0.00110459
0.00110807
0.00111251
0.00111825
0.0011257
0.00113569
0.0011486
0.00116774
0.00118937
0.0012323
0.00126718
0.0107213
0.0072792
0.00525536
0.00394457
0.00303646
0.00239207
0.00192788
0.00159205
0.00135507
0.00119744
0.00110331
0.00105885
0.00105027
0.00106139
0.00107589
0.00108526
0.00108983
0.00109214
0.00109342
0.00109397
0.00109399
0.00109369
0.00109325
0.00109279
0.00109236
0.00109198
0.00109166
0.00109141
0.0010912
0.00109105
0.00109095
0.00109089
0.00109087
0.00109089
0.00109095
0.00109106
0.00109121
0.00109142
0.00109169
0.00109202
0.00109244
0.00109295
0.00109358
0.00109435
0.00109529
0.00109645
0.00109787
0.00109963
0.00110183
0.00110459
0.00110808
0.00111253
0.00111828
0.00112574
0.00113574
0.00114867
0.00116781
0.00118942
0.00123212
0.00126664
0.0107174
0.00727067
0.00523523
0.00392291
0.00302266
0.00238578
0.00192625
0.00159284
0.0013567
0.0011988
0.00110384
0.00105833
0.00104879
0.00105958
0.00107457
0.00108466
0.00108967
0.00109216
0.00109349
0.00109404
0.00109405
0.00109373
0.00109328
0.0010928
0.00109236
0.00109198
0.00109166
0.0010914
0.00109119
0.00109104
0.00109094
0.00109087
0.00109085
0.00109087
0.00109094
0.00109105
0.0010912
0.00109141
0.00109168
0.00109201
0.00109243
0.00109294
0.00109357
0.00109434
0.00109528
0.00109644
0.00109787
0.00109963
0.00110183
0.0011046
0.00110809
0.00111255
0.00111831
0.00112578
0.00113579
0.00114874
0.00116787
0.00118947
0.00123193
0.00126613
0.0107141
0.00726524
0.00522237
0.00390969
0.00301522
0.00238357
0.00192711
0.00159511
0.00135917
0.00120061
0.00110461
0.001058
0.0010475
0.00105791
0.0010733
0.00108405
0.0010895
0.00109217
0.00109355
0.00109411
0.0010941
0.00109377
0.0010933
0.00109281
0.00109236
0.00109198
0.00109165
0.00109139
0.00109119
0.00109103
0.00109092
0.00109086
0.00109084
0.00109086
0.00109093
0.00109103
0.00109119
0.0010914
0.00109167
0.001092
0.00109242
0.00109293
0.00109356
0.00109433
0.00109528
0.00109643
0.00109786
0.00109963
0.00110184
0.0011046
0.0011081
0.00111257
0.00111833
0.00112581
0.00113584
0.0011488
0.00116793
0.00118951
0.00123176
0.00126565
0.0107111
0.00726216
0.00521496
0.00390271
0.0030125
0.00238446
0.00192995
0.00159863
0.00136239
0.00120285
0.00110563
0.00105785
0.00104637
0.00105636
0.00107207
0.00108344
0.00108933
0.00109219
0.00109362
0.00109418
0.00109416
0.00109381
0.00109333
0.00109283
0.00109237
0.00109198
0.00109165
0.00109138
0.00109118
0.00109102
0.00109091
0.00109085
0.00109083
0.00109085
0.00109092
0.00109102
0.00109118
0.00109139
0.00109166
0.00109199
0.00109241
0.00109292
0.00109355
0.00109432
0.00109527
0.00109643
0.00109786
0.00109963
0.00110184
0.00110461
0.00110811
0.00111258
0.00111836
0.00112585
0.00113589
0.00114886
0.00116799
0.00118954
0.0012316
0.00126519
0.0107086
0.00726086
0.0052116
0.00390029
0.00301324
0.00238768
0.00193434
0.00160317
0.00136629
0.00120551
0.00110689
0.00105786
0.00104541
0.00105492
0.00107088
0.00108284
0.00108915
0.0010922
0.00109369
0.00109426
0.00109422
0.00109385
0.00109335
0.00109284
0.00109237
0.00109197
0.00109164
0.00109138
0.00109117
0.00109101
0.0010909
0.00109084
0.00109082
0.00109084
0.0010909
0.00109101
0.00109117
0.00109138
0.00109165
0.00109198
0.0010924
0.00109292
0.00109355
0.00109432
0.00109526
0.00109642
0.00109785
0.00109963
0.00110184
0.00110461
0.00110812
0.0011126
0.00111838
0.00112588
0.00113593
0.00114892
0.00116804
0.00118958
0.00123144
0.00126476
0.0107063
0.00726088
0.0052112
0.00390116
0.00301651
0.00239263
0.00193991
0.00160856
0.00137076
0.00120854
0.00110838
0.00105803
0.00104458
0.0010536
0.00106974
0.00108224
0.00108897
0.00109221
0.00109376
0.00109433
0.00109428
0.0010939
0.00109338
0.00109286
0.00109238
0.00109197
0.00109164
0.00109137
0.00109116
0.001091
0.00109089
0.00109083
0.00109081
0.00109083
0.00109089
0.001091
0.00109116
0.00109137
0.00109164
0.00109197
0.00109239
0.00109291
0.00109354
0.00109431
0.00109526
0.00109642
0.00109785
0.00109963
0.00110184
0.00110462
0.00110813
0.00111261
0.00111841
0.00112591
0.00113598
0.00114897
0.00116809
0.00118961
0.00123129
0.00126436
0.0107043
0.00726188
0.00521294
0.0039044
0.00302159
0.00239883
0.00194638
0.00161461
0.00137572
0.00121192
0.0011101
0.00105835
0.00104388
0.00105237
0.00106864
0.00108164
0.00108879
0.00109222
0.00109383
0.00109441
0.00109435
0.00109394
0.00109341
0.00109287
0.00109239
0.00109198
0.00109164
0.00109136
0.00109115
0.00109099
0.00109089
0.00109082
0.0010908
0.00109082
0.00109089
0.00109099
0.00109115
0.00109136
0.00109163
0.00109196
0.00109238
0.0010929
0.00109353
0.0010943
0.00109525
0.00109641
0.00109785
0.00109963
0.00110184
0.00110462
0.00110814
0.00111263
0.00111843
0.00112594
0.00113602
0.00114902
0.00116814
0.00118964
0.00123114
0.00126399
0.0107026
0.00726356
0.00521619
0.00390927
0.00302792
0.00240591
0.0019535
0.00162118
0.00138109
0.0012156
0.00111202
0.00105881
0.0010433
0.00105125
0.00106759
0.00108105
0.0010886
0.00109222
0.0010939
0.00109448
0.00109441
0.00109399
0.00109344
0.00109289
0.00109239
0.00109198
0.00109163
0.00109136
0.00109115
0.00109099
0.00109088
0.00109081
0.00109079
0.00109081
0.00109088
0.00109098
0.00109114
0.00109135
0.00109162
0.00109196
0.00109238
0.00109289
0.00109352
0.0010943
0.00109524
0.00109641
0.00109784
0.00109962
0.00110184
0.00110463
0.00110815
0.00111264
0.00111845
0.00112597
0.00113605
0.00114907
0.00116818
0.00118966
0.00123101
0.00126363
0.0107011
0.00726572
0.00522047
0.00391525
0.0030351
0.00241359
0.00196109
0.00162813
0.00138677
0.00121954
0.00111413
0.00105939
0.00104282
0.00105021
0.00106659
0.00108046
0.0010884
0.00109223
0.00109397
0.00109456
0.00109448
0.00109403
0.00109347
0.0010929
0.0010924
0.00109198
0.00109163
0.00109135
0.00109114
0.00109098
0.00109087
0.0010908
0.00109078
0.0010908
0.00109087
0.00109098
0.00109113
0.00109134
0.00109161
0.00109195
0.00109237
0.00109288
0.00109352
0.00109429
0.00109524
0.0010964
0.00109784
0.00109962
0.00110184
0.00110463
0.00110816
0.00111265
0.00111847
0.001126
0.00113609
0.00114911
0.00116822
0.00118968
0.00123088
0.00126331
0.0106998
0.0072682
0.00522541
0.00392194
0.0030428
0.00242165
0.00196898
0.00163536
0.00139271
0.0012237
0.0011164
0.0010601
0.00104245
0.00104926
0.00106563
0.00107989
0.00108821
0.00109223
0.00109404
0.00109464
0.00109454
0.00109408
0.0010935
0.00109292
0.00109241
0.00109198
0.00109163
0.00109135
0.00109113
0.00109097
0.00109086
0.0010908
0.00109077
0.0010908
0.00109086
0.00109097
0.00109112
0.00109133
0.0010916
0.00109194
0.00109236
0.00109288
0.00109351
0.00109428
0.00109523
0.0010964
0.00109784
0.00109962
0.00110184
0.00110463
0.00110816
0.00111266
0.00111848
0.00112602
0.00113612
0.00114915
0.00116825
0.0011897
0.00123076
0.00126301
0.0106986
0.00727087
0.00523076
0.00392904
0.00305079
0.00242991
0.00197704
0.00164278
0.00139883
0.00122804
0.00111883
0.00106091
0.00104216
0.00104839
0.00106472
0.00107933
0.00108801
0.00109223
0.00109411
0.00109472
0.00109461
0.00109413
0.00109353
0.00109294
0.00109242
0.00109198
0.00109163
0.00109135
0.00109113
0.00109097
0.00109085
0.00109079
0.00109077
0.00109079
0.00109085
0.00109096
0.00109112
0.00109133
0.00109159
0.00109193
0.00109235
0.00109287
0.0010935
0.00109428
0.00109523
0.0010964
0.00109784
0.00109962
0.00110185
0.00110464
0.00110817
0.00111268
0.0011185
0.00112604
0.00113615
0.00114919
0.00116829
0.00118972
0.00123065
0.00126273
0.0106976
0.00727364
0.0052363
0.00393633
0.00305889
0.00243824
0.00198517
0.00165027
0.00140507
0.00123251
0.00112138
0.00106182
0.00104195
0.00104759
0.00106385
0.00107878
0.00108781
0.00109223
0.00109418
0.0010948
0.00109468
0.00109418
0.00109356
0.00109296
0.00109243
0.00109198
0.00109163
0.00109134
0.00109112
0.00109096
0.00109085
0.00109078
0.00109076
0.00109078
0.00109084
0.00109095
0.00109111
0.00109132
0.00109159
0.00109193
0.00109235
0.00109286
0.0010935
0.00109427
0.00109523
0.00109639
0.00109783
0.00109962
0.00110185
0.00110464
0.00110818
0.00111269
0.00111851
0.00112607
0.00113618
0.00114923
0.00116832
0.00118974
0.00123054
0.00126248
0.0106967
0.00727643
0.00524191
0.00394365
0.00306698
0.00244654
0.00199329
0.00165778
0.00141138
0.00123708
0.00112404
0.00106282
0.00104181
0.00104685
0.00106303
0.00107824
0.00108761
0.00109223
0.00109425
0.00109488
0.00109475
0.00109423
0.00109359
0.00109298
0.00109244
0.00109199
0.00109162
0.00109134
0.00109112
0.00109095
0.00109084
0.00109077
0.00109075
0.00109077
0.00109084
0.00109095
0.0010911
0.00109131
0.00109158
0.00109192
0.00109234
0.00109286
0.00109349
0.00109427
0.00109522
0.00109639
0.00109783
0.00109962
0.00110185
0.00110464
0.00110818
0.00111269
0.00111853
0.00112609
0.0011362
0.00114926
0.00116834
0.00118975
0.00123044
0.00126225
0.0106959
0.0072792
0.00524746
0.00395088
0.00307496
0.00245474
0.00200134
0.00166526
0.00141769
0.00124172
0.00112678
0.0010639
0.00104174
0.00104618
0.00106225
0.00107772
0.00108741
0.00109222
0.00109432
0.00109497
0.00109482
0.00109428
0.00109363
0.001093
0.00109245
0.00109199
0.00109162
0.00109134
0.00109111
0.00109095
0.00109083
0.00109077
0.00109075
0.00109077
0.00109083
0.00109094
0.0010911
0.00109131
0.00109158
0.00109192
0.00109234
0.00109285
0.00109349
0.00109427
0.00109522
0.00109639
0.00109783
0.00109962
0.00110185
0.00110465
0.00110819
0.0011127
0.00111854
0.0011261
0.00113623
0.00114929
0.00116837
0.00118976
0.00123036
0.00126205
0.0106952
0.00728191
0.0052529
0.00395795
0.00308275
0.00246276
0.00200926
0.00167265
0.00142399
0.00124639
0.00112958
0.00106504
0.00104173
0.00104556
0.00106151
0.00107721
0.00108722
0.00109222
0.00109439
0.00109505
0.00109489
0.00109433
0.00109366
0.00109302
0.00109246
0.001092
0.00109162
0.00109133
0.00109111
0.00109094
0.00109083
0.00109076
0.00109074
0.00109076
0.00109083
0.00109093
0.00109109
0.0010913
0.00109157
0.00109191
0.00109233
0.00109285
0.00109348
0.00109426
0.00109521
0.00109638
0.00109783
0.00109962
0.00110185
0.00110465
0.00110819
0.00111271
0.00111855
0.00112612
0.00113625
0.00114931
0.00116839
0.00118978
0.00123028
0.00126187
0.0106946
0.00728454
0.00525816
0.0039648
0.00309031
0.00247058
0.00201701
0.00167991
0.00143022
0.00125106
0.00113243
0.00106623
0.00104177
0.00104499
0.00106081
0.00107672
0.00108702
0.00109222
0.00109446
0.00109513
0.00109496
0.00109438
0.00109369
0.00109304
0.00109247
0.001092
0.00109163
0.00109133
0.00109111
0.00109094
0.00109083
0.00109076
0.00109074
0.00109076
0.00109082
0.00109093
0.00109109
0.0010913
0.00109157
0.00109191
0.00109233
0.00109285
0.00109348
0.00109426
0.00109521
0.00109638
0.00109783
0.00109962
0.00110185
0.00110465
0.0011082
0.00111272
0.00111856
0.00112613
0.00113627
0.00114933
0.00116841
0.00118979
0.0012302
0.00126171
0.010694
0.00728707
0.00526322
0.00397138
0.00309761
0.00247817
0.00202456
0.00168702
0.00143636
0.0012557
0.00113531
0.00106748
0.00104186
0.00104447
0.00106014
0.00107625
0.00108683
0.00109221
0.00109453
0.00109522
0.00109503
0.00109444
0.00109373
0.00109306
0.00109248
0.00109201
0.00109163
0.00109133
0.0010911
0.00109094
0.00109082
0.00109075
0.00109073
0.00109075
0.00109082
0.00109092
0.00109108
0.00109129
0.00109156
0.0010919
0.00109232
0.00109284
0.00109348
0.00109426
0.00109521
0.00109638
0.00109783
0.00109962
0.00110185
0.00110465
0.0011082
0.00111272
0.00111857
0.00112615
0.00113628
0.00114935
0.00116843
0.00118979
0.00123014
0.00126158
0.0106935
0.00728948
0.00526805
0.00397768
0.00310462
0.00248548
0.00203188
0.00169396
0.00144238
0.0012603
0.0011382
0.00106875
0.00104198
0.00104399
0.00105951
0.0010758
0.00108665
0.00109221
0.0010946
0.0010953
0.0010951
0.00109449
0.00109377
0.00109308
0.00109249
0.00109201
0.00109163
0.00109133
0.0010911
0.00109093
0.00109082
0.00109075
0.00109073
0.00109075
0.00109081
0.00109092
0.00109108
0.00109129
0.00109156
0.0010919
0.00109232