/*--------------------------------*- C++ -*----------------------------------*\
| =========                 |                                                 |
| \\      /  F ield         | OpenFOAM: The Open Source CFD Toolbox           |
|  \\    /   O peration     | Version:  2.4.0                                 |
|   \\  /    A nd           | Web:      www.OpenFOAM.org                      |
|    \\/     M anipulation  |                                                 |
\*---------------------------------------------------------------------------*/
FoamFile
{
    version     2.0;
    format      ascii;
    class       surfaceScalarField;
    location    "4.4";
    object      phi;
}
// * * * * * * * * * * * * * * * * * * * * * * * * * * * * * * * * * * * * * //

dimensions      [0 3 -1 0 0 0 0];

internalField   nonuniform List<scalar> 
11840
(
3.98608e-06
6.01392e-06
2.40643e-08
3.96202e-06
-5.31082e-07
5.55146e-07
-6.06167e-07
7.50846e-08
-6.36055e-07
2.98878e-08
-6.9236e-07
5.63053e-08
-7.58699e-07
6.63387e-08
-8.16403e-07
5.77045e-08
-9.14329e-07
9.79256e-08
-1.05007e-06
1.35738e-07
-1.22852e-06
1.78454e-07
-1.38487e-06
1.56348e-07
-1.50469e-06
1.19823e-07
-1.51588e-06
1.11922e-08
-1.36227e-06
-1.53609e-07
-1.13343e-06
-2.28847e-07
-1.04253e-06
-9.08953e-08
-1.43092e-06
3.88387e-07
-2.07459e-06
6.4367e-07
-2.53109e-06
4.56503e-07
-2.7827e-06
2.51606e-07
-2.97081e-06
1.88111e-07
-3.13568e-06
1.64866e-07
-3.26597e-06
1.3029e-07
-3.37602e-06
1.10053e-07
-3.45732e-06
8.12992e-08
-3.5157e-06
5.8383e-08
-3.5455e-06
2.97963e-08
-3.54887e-06
3.36974e-09
-3.51736e-06
-3.15041e-08
-3.45451e-06
-6.28544e-08
-3.35933e-06
-9.51817e-08
-3.23274e-06
-1.26589e-07
-3.07509e-06
-1.57646e-07
-2.88826e-06
-1.86836e-07
-2.67311e-06
-2.15143e-07
-2.43303e-06
-2.40087e-07
-2.16739e-06
-2.65633e-07
-1.88269e-06
-2.847e-07
-1.5733e-06
-3.0939e-07
-1.25192e-06
-3.21385e-07
-9.04511e-07
-3.47408e-07
-5.50438e-07
-3.54073e-07
-1.72706e-07
-3.77732e-07
2.15311e-07
-3.88017e-07
6.20308e-07
-4.04997e-07
1.0248e-06
-4.04493e-07
1.46414e-06
-4.39336e-07
1.87853e-06
-4.14393e-07
2.36313e-06
-4.84605e-07
2.76982e-06
-4.06686e-07
3.31306e-06
-5.43243e-07
3.69694e-06
-3.83881e-07
4.28456e-06
-5.87611e-07
4.61201e-06
-3.27453e-07
5.29136e-06
-6.79354e-07
5.45946e-06
-1.68097e-07
6.28232e-06
-8.22863e-07
6.39116e-06
-1.08839e-07
-1.5758e-06
5.00969e-06
1.10042e-05
9.77838e-07
7.99386e-06
-4.63132e-07
1.99612e-06
-7.53699e-07
3.65652e-07
-7.8051e-07
5.66985e-08
-8.46152e-07
1.21948e-07
-9.1904e-07
1.39226e-07
-9.86619e-07
1.25284e-07
-1.08663e-06
1.97937e-07
-1.21298e-06
2.62092e-07
-1.37961e-06
3.45079e-07
-1.53432e-06
3.11058e-07
-1.63876e-06
2.24262e-07
-1.64538e-06
1.78183e-08
-1.51291e-06
-2.86085e-07
-1.33165e-06
-4.10102e-07
-1.27486e-06
-1.47688e-07
-1.6119e-06
7.25428e-07
-2.17666e-06
1.20843e-06
-2.58953e-06
8.69376e-07
-2.82938e-06
4.91454e-07
-3.01334e-06
3.72076e-07
-3.16682e-06
3.18345e-07
-3.29087e-06
2.54336e-07
-3.39004e-06
2.09225e-07
-3.46298e-06
1.54243e-07
-3.50931e-06
1.04704e-07
-3.52725e-06
4.77443e-08
-3.51479e-06
-9.09718e-09
-3.47031e-06
-7.59818e-08
-3.39295e-06
-1.40211e-07
-3.28306e-06
-2.05079e-07
-3.14094e-06
-2.687e-07
-2.9677e-06
-3.30885e-07
-2.76475e-06
-3.89789e-07
-2.53396e-06
-4.4594e-07
-2.27741e-06
-4.96629e-07
-1.99714e-06
-5.45908e-07
-1.69539e-06
-5.86444e-07
-1.37358e-06
-6.31201e-07
-1.03413e-06
-6.60834e-07
-6.76892e-07
-7.04648e-07
-3.04909e-07
-7.26056e-07
8.2283e-08
-7.64924e-07
4.84064e-07
-7.89798e-07
9.01164e-07
-8.22097e-07
1.32523e-06
-8.2856e-07
1.7701e-06
-8.84205e-07
2.21408e-06
-8.58373e-07
2.69671e-06
-9.67237e-07
3.14546e-06
-8.55438e-07
3.67502e-06
-1.0728e-06
4.11667e-06
-8.25525e-07
4.67868e-06
-1.14963e-06
5.08652e-06
-7.35289e-07
5.72035e-06
-1.31318e-06
6.01624e-06
-4.63986e-07
6.76884e-06
-1.57547e-06
7.0043e-06
-3.44292e-07
-2.90201e-06
5.63815e-06
1.53661e-05
1.7762e-06
1.18558e-05
-1.24264e-07
3.89658e-06
-7.27849e-07
9.69236e-07
-7.85743e-07
1.14592e-07
-8.63208e-07
1.99413e-07
-9.41581e-07
2.17599e-07
-1.01842e-06
2.02121e-07
-1.11731e-06
2.96828e-07
-1.23919e-06
3.83971e-07
-1.39473e-06
5.00618e-07
-1.54789e-06
4.64227e-07
-1.65172e-06
3.28089e-07
-1.66754e-06
3.36383e-08
-1.56428e-06
-3.8935e-07
-1.41986e-06
-5.54521e-07
-1.38194e-06
-1.85603e-07
-1.67266e-06
1.01614e-06
-2.16795e-06
1.70372e-06
-2.54321e-06
1.24464e-06
-2.7725e-06
7.20743e-07
-2.95012e-06
5.49688e-07
-3.09496e-06
4.63193e-07
-3.21247e-06
3.71845e-07
-3.30403e-06
3.00781e-07
-3.37018e-06
2.20399e-07
-3.40899e-06
1.43509e-07
-3.41941e-06
5.81607e-08
-3.39932e-06
-2.9181e-08
-3.34765e-06
-1.27652e-07
-3.26339e-06
-2.24468e-07
-3.14672e-06
-3.2175e-07
-2.99801e-06
-4.17414e-07
-2.81847e-06
-5.10422e-07
-2.6095e-06
-5.98759e-07
-2.37318e-06
-6.82266e-07
-2.11138e-06
-7.58422e-07
-1.82663e-06
-8.30661e-07
-1.52043e-06
-8.92646e-07
-1.19555e-06
-9.56079e-07
-8.52245e-07
-1.00414e-06
-4.93763e-07
-1.06313e-06
-1.18333e-07
-1.10149e-06
2.69708e-07
-1.15296e-06
6.73365e-07
-1.19346e-06
1.08839e-06
-1.23712e-06
1.51889e-06
-1.25906e-06
1.95761e-06
-1.32293e-06
2.41324e-06
-1.314e-06
2.88095e-06
-1.43495e-06
3.35164e-06
-1.32613e-06
3.85568e-06
-1.57684e-06
4.33092e-06
-1.30077e-06
4.85279e-06
-1.6715e-06
5.31706e-06
-1.19955e-06
5.87959e-06
-1.87571e-06
6.27535e-06
-8.59749e-07
6.92073e-06
-2.22085e-06
7.28825e-06
-7.11813e-07
-3.97039e-06
6.15181e-06
1.92143e-05
2.56077e-06
1.54469e-05
3.11103e-07
6.14624e-06
-6.13608e-07
1.89395e-06
-7.50108e-07
2.51093e-07
-8.43901e-07
2.93206e-07
-9.28718e-07
3.02416e-07
-1.01379e-06
2.87191e-07
-1.11213e-06
3.95168e-07
-1.23087e-06
5.02709e-07
-1.37805e-06
6.47804e-07
-1.52914e-06
6.15311e-07
-1.63614e-06
4.3509e-07
-1.66433e-06
6.18336e-08
-1.5892e-06
-4.6448e-07
-1.47511e-06
-6.68611e-07
-1.44908e-06
-2.11641e-07
-1.69789e-06
1.26496e-06
-2.12978e-06
2.13561e-06
-2.47343e-06
1.58829e-06
-2.69432e-06
9.41639e-07
-2.86563e-06
7.20991e-07
-3.00351e-06
6.01081e-07
-3.11501e-06
4.83343e-07
-3.20046e-06
3.86229e-07
-3.26082e-06
2.80762e-07
-3.29378e-06
1.76469e-07
-3.29846e-06
6.28332e-08
-3.27271e-06
-5.49227e-08
-3.21575e-06
-1.84615e-07
-3.1265e-06
-3.13716e-07
-3.00509e-06
-4.43161e-07
-2.85193e-06
-5.70576e-07
-2.66828e-06
-6.94074e-07
-2.45556e-06
-8.11472e-07
-2.21594e-06
-9.21891e-07
-1.95127e-06
-1.02309e-06
-1.66419e-06
-1.11774e-06
-1.35607e-06
-1.20077e-06
-1.03001e-06
-1.28215e-06
-6.8575e-07
-1.3484e-06
-3.27364e-07
-1.42152e-06
4.82081e-08
-1.47706e-06
4.34829e-07
-1.53959e-06
8.38051e-07
-1.59668e-06
1.25025e-06
-1.64931e-06
1.68117e-06
-1.68999e-06
2.11537e-06
-1.75712e-06
2.5731e-06
-1.77173e-06
3.03113e-06
-1.89298e-06
3.50931e-06
-1.80431e-06
3.9974e-06
-2.06492e-06
4.48582e-06
-1.78919e-06
4.98394e-06
-2.16963e-06
5.47455e-06
-1.69016e-06
5.99184e-06
-2.393e-06
6.44534e-06
-1.31325e-06
7.00854e-06
-2.78405e-06
7.47208e-06
-1.17535e-06
-4.84563e-06
6.58927e-06
2.2625e-05
3.27731e-06
1.87588e-05
8.10636e-07
8.61291e-06
-4.12423e-07
3.11701e-06
-6.88011e-07
5.26681e-07
-8.06114e-07
4.11309e-07
-8.99951e-07
3.96252e-07
-9.93034e-07
3.80274e-07
-1.09184e-06
4.93977e-07
-1.20756e-06
6.18424e-07
-1.34755e-06
7.87792e-07
-1.49593e-06
7.63698e-07
-1.60742e-06
5.46582e-07
-1.64912e-06
1.03524e-07
-1.60075e-06
-5.1285e-07
-1.5133e-06
-7.5606e-07
-1.49544e-06
-2.29496e-07
-1.70553e-06
1.47505e-06
-2.07824e-06
2.50832e-06
-2.3933e-06
1.90335e-06
-2.60643e-06
1.15477e-06
-2.77146e-06
8.86021e-07
-2.90302e-06
7.32642e-07
-3.00881e-06
5.89125e-07
-3.08871e-06
4.66135e-07
-3.14374e-06
3.35787e-07
-3.17151e-06
2.04241e-07
-3.17113e-06
6.24567e-08
-3.14054e-06
-8.5516e-08
-3.07905e-06
-2.461e-07
-2.9856e-06
-4.07168e-07
-2.86027e-06
-5.68495e-07
-2.70351e-06
-7.27339e-07
-2.5166e-06
-8.8098e-07
-2.30103e-06
-1.02705e-06
-2.05897e-06
-1.16394e-06
-1.79234e-06
-1.28973e-06
-1.50379e-06
-1.40628e-06
-1.19472e-06
-1.50984e-06
-8.68265e-07
-1.6086e-06
-5.24131e-07
-1.69253e-06
-1.66496e-07
-1.77915e-06
2.07671e-07
-1.85123e-06
5.92631e-07
-1.92454e-06
9.93951e-07
-1.998e-06
1.40319e-06
-2.05856e-06
1.83199e-06
-2.11878e-06
2.26233e-06
-2.18747e-06
2.71819e-06
-2.22759e-06
3.16921e-06
-2.34401e-06
3.64836e-06
-2.28346e-06
4.12506e-06
-2.54162e-06
4.61745e-06
-2.28158e-06
5.10075e-06
-2.65293e-06
5.60191e-06
-2.19132e-06
6.09162e-06
-2.88272e-06
6.57445e-06
-1.79608e-06
7.08623e-06
-3.29583e-06
7.60249e-06
-1.69162e-06
-5.59224e-06
6.96703e-06
2.5658e-05
3.9325e-06
2.17934e-05
1.35158e-06
1.11938e-05
-1.42511e-07
4.6111e-06
-5.93909e-07
9.78079e-07
-7.53058e-07
5.70458e-07
-8.59584e-07
5.02778e-07
-9.61183e-07
4.81874e-07
-1.06153e-06
5.94322e-07
-1.17487e-06
7.31762e-07
-1.30853e-06
9.2146e-07
-1.45394e-06
9.09105e-07
-1.57003e-06
6.62673e-07
-1.62534e-06
1.58829e-07
-1.60213e-06
-5.36054e-07
-1.5391e-06
-8.19094e-07
-1.52738e-06
-2.4122e-07
-1.701e-06
1.64867e-06
-2.01835e-06
2.82566e-06
-2.30659e-06
2.19159e-06
-2.51192e-06
1.36011e-06
-2.67066e-06
1.04475e-06
-2.79619e-06
8.5818e-07
-2.89643e-06
6.89362e-07
-2.97107e-06
5.40776e-07
-3.02101e-06
3.8573e-07
-3.04393e-06
2.2716e-07
-3.03888e-06
5.74011e-08
-3.00386e-06
-1.20536e-07
-2.93825e-06
-3.11707e-07
-2.841e-06
-5.04416e-07
-2.71217e-06
-6.97329e-07
-2.55224e-06
-8.87268e-07
-2.36252e-06
-1.0707e-06
-2.14454e-06
-1.24502e-06
-1.90052e-06
-1.40797e-06
-1.63239e-06
-1.55785e-06
-1.34285e-06
-1.69582e-06
-1.03333e-06
-1.81936e-06
-7.06953e-07
-1.93498e-06
-3.63498e-07
-2.03598e-06
-7.14905e-09
-2.1355e-06
3.65318e-07
-2.22369e-06
7.48014e-07
-2.30724e-06
1.14663e-06
-2.39661e-06
1.55268e-06
-2.46461e-06
1.97811e-06
-2.54421e-06
2.40462e-06
-2.61398e-06
2.85676e-06
-2.67973e-06
3.30196e-06
-2.78921e-06
3.77881e-06
-2.76031e-06
4.24584e-06
-3.00865e-06
4.73812e-06
-2.77386e-06
5.21051e-06
-3.12531e-06
5.71469e-06
-2.6955e-06
6.18557e-06
-3.35359e-06
6.68301e-06
-2.29352e-06
7.16076e-06
-3.77357e-06
7.70389e-06
-2.23475e-06
-6.24909e-06
7.29747e-06
2.83605e-05
4.53364e-06
2.45572e-05
1.91408e-06
1.38134e-05
1.90613e-07
6.33456e-06
-4.61285e-07
1.62998e-06
-6.83544e-07
7.92717e-07
-8.08158e-07
6.27391e-07
-9.19869e-07
5.93585e-07
-1.02306e-06
6.97512e-07
-1.13485e-06
8.43553e-07
-1.26291e-06
1.04952e-06
-1.40522e-06
1.05141e-06
-1.52562e-06
7.83071e-07
-1.59416e-06
2.27377e-07
-1.59429e-06
-5.35925e-07
-1.55429e-06
-8.59096e-07
-1.54779e-06
-2.47724e-07
-1.68675e-06
1.78764e-06
-1.95244e-06
3.09135e-06
-2.215e-06
2.45415e-06
-2.41215e-06
1.55726e-06
-2.56449e-06
1.19709e-06
-2.68415e-06
9.77837e-07
-2.77892e-06
7.84141e-07
-2.84844e-06
6.10296e-07
-2.89346e-06
4.30742e-07
-2.91171e-06
2.45417e-07
-2.9022e-06
4.78859e-08
-2.863e-06
-1.59735e-07
-2.79351e-06
-3.81201e-07
-2.6927e-06
-6.05223e-07
-2.56061e-06
-8.29416e-07
-2.39777e-06
-1.05011e-06
-2.20551e-06
-1.26296e-06
-1.9854e-06
-1.46514e-06
-1.73968e-06
-1.65369e-06
-1.47035e-06
-1.82718e-06
-1.18011e-06
-1.98606e-06
-8.70464e-07
-2.12901e-06
-5.44475e-07
-2.26097e-06
-2.02054e-07
-2.37841e-06
1.52907e-07
-2.49046e-06
5.23065e-07
-2.59385e-06
9.03171e-07
-2.68735e-06
1.29858e-06
-2.79202e-06
1.70117e-06
-2.86719e-06
2.12252e-06
-2.96556e-06
2.54499e-06
-3.03644e-06
2.99242e-06
-3.12717e-06
3.43218e-06
-3.22896e-06
3.90496e-06
-3.23309e-06
4.36313e-06
-3.46682e-06
4.85305e-06
-3.26378e-06
5.31632e-06
-3.58858e-06
5.81957e-06
-3.19875e-06
6.2761e-06
-3.81012e-06
6.78018e-06
-2.79761e-06
7.23341e-06
-4.2268e-06
7.78871e-06
-2.79005e-06
-6.83892e-06
7.58925e-06
3.07713e-05
5.08714e-06
2.70593e-05
2.4809e-06
1.64196e-05
5.77235e-07
8.23822e-06
-2.84131e-07
2.49134e-06
-5.94637e-07
1.10322e-06
-7.44869e-07
7.77623e-07
-8.69235e-07
7.17951e-07
-9.76896e-07
8.05174e-07
-1.08824e-06
9.54899e-07
-1.21147e-06
1.17275e-06
-1.35066e-06
1.1906e-06
-1.47488e-06
9.07295e-07
-1.55605e-06
3.08539e-07
-1.57803e-06
-5.13943e-07
-1.55953e-06
-8.77593e-07
-1.55763e-06
-2.49623e-07
-1.66413e-06
1.89414e-06
-1.88181e-06
3.30903e-06
-2.11948e-06
2.69182e-06
-2.30786e-06
1.74564e-06
-2.45365e-06
1.34288e-06
-2.56747e-06
1.09166e-06
-2.65683e-06
8.73497e-07
-2.7213e-06
6.74768e-07
-2.76147e-06
4.70911e-07
-2.77518e-06
2.59125e-07
-2.76134e-06
3.40476e-08
-2.71811e-06
-2.02961e-07
-2.64488e-06
-4.54434e-07
-2.54066e-06
-7.09441e-07
-2.40548e-06
-9.646e-07
-2.23989e-06
-1.2157e-06
-2.04525e-06
-1.4576e-06
-1.82318e-06
-1.68721e-06
-1.57595e-06
-1.90091e-06
-1.30562e-06
-2.09751e-06
-1.01489e-06
-2.27679e-06
-7.05338e-07
-2.43856e-06
-3.79975e-07
-2.58633e-06
-3.88359e-08
-2.71955e-06
3.14356e-07
-2.84365e-06
6.82022e-07
-2.96152e-06
1.05927e-06
-3.06459e-06
1.45112e-06
-3.18388e-06
1.84996e-06
-3.26603e-06
2.26678e-06
-3.38238e-06
2.68492e-06
-3.45458e-06
3.12702e-06
-3.56927e-06
3.56139e-06
-3.66333e-06
4.02899e-06
-3.70069e-06
4.47873e-06
-3.91656e-06
4.96487e-06
-3.74991e-06
5.41986e-06
-4.04358e-06
5.91985e-06
-3.69873e-06
6.36449e-06
-4.25477e-06
6.87052e-06
-3.30364e-06
7.30466e-06
-4.66094e-06
7.86346e-06
-3.34885e-06
-7.3757e-06
7.84874e-06
3.29225e-05
5.59782e-06
2.93102e-05
3.04615e-06
1.89713e-05
1.0048e-06
1.02796e-05
-5.94058e-08
3.55555e-06
-4.82431e-07
1.52625e-06
-6.68213e-07
9.63405e-07
-8.08809e-07
8.58547e-07
-9.22944e-07
9.19309e-07
-1.03519e-06
1.06715e-06
-1.15447e-06
1.29203e-06
-1.29059e-06
1.32672e-06
-1.41812e-06
1.03483e-06
-1.51147e-06
4.01883e-07
-1.55358e-06
-4.71832e-07
-1.55477e-06
-8.76399e-07
-1.55749e-06
-2.46903e-07
-1.63393e-06
1.97058e-06
-1.80729e-06
3.48239e-06
-2.02063e-06
2.90516e-06
-2.19953e-06
1.92454e-06
-2.33857e-06
1.48192e-06
-2.44654e-06
1.19963e-06
-2.53047e-06
9.57428e-07
-2.58992e-06
7.34216e-07
-2.62529e-06
5.06286e-07
-2.63452e-06
2.68349e-07
-2.61644e-06
1.59719e-08
-2.56928e-06
-2.50116e-07
-2.49241e-06
-5.31311e-07
-2.38487e-06
-8.16976e-07
-2.2467e-06
-1.10278e-06
-2.07846e-06
-1.38393e-06
-1.88156e-06
-1.65451e-06
-1.65765e-06
-1.91112e-06
-1.40904e-06
-2.14952e-06
-1.13785e-06
-2.3687e-06
-8.46791e-07
-2.56785e-06
-5.37504e-07
-2.74785e-06
-2.12956e-07
-2.91088e-06
1.26679e-07
-3.05918e-06
4.77898e-07
-3.19487e-06
8.4284e-07
-3.32646e-06
1.21698e-06
-3.43874e-06
1.605e-06
-3.5719e-06
1.99983e-06
-3.66086e-06
2.41176e-06
-3.79432e-06
2.82527e-06
-3.86809e-06
3.2616e-06
-4.0056e-06
3.69047e-06
-4.09219e-06
4.15215e-06
-4.16237e-06
4.59369e-06
-4.35811e-06
5.07503e-06
-4.23125e-06
5.52212e-06
-4.49067e-06
6.01735e-06
-4.19395e-06
6.45155e-06
-4.68897e-06
6.95653e-06
-3.80862e-06
7.37483e-06
-5.07924e-06
7.93172e-06
-3.90573e-06
-7.86849e-06
8.08035e-06
3.48422e-05
6.06883e-06
3.13217e-05
3.60483e-06
2.14353e-05
1.46512e-06
1.24193e-05
2.06343e-07
4.81433e-06
-3.42178e-07
2.07477e-06
-5.76179e-07
1.19741e-06
-7.37718e-07
1.02009e-06
-8.60795e-07
1.04239e-06
-9.7553e-07
1.18188e-06
-1.09192e-06
1.40842e-06
-1.22511e-06
1.45991e-06
-1.35539e-06
1.16511e-06
-1.46026e-06
5.06752e-07
-1.52095e-06
-4.1114e-07
-1.5403e-06
-8.57049e-07
-1.54735e-06
-2.39856e-07
-1.59675e-06
2.01998e-06
-1.7299e-06
3.61553e-06
-1.91885e-06
3.0941e-06
-2.0875e-06
2.0932e-06
-2.21954e-06
1.61395e-06
-2.32159e-06
1.30168e-06
-2.40006e-06
1.0359e-06
-2.45448e-06
7.88638e-07
-2.48509e-06
5.36887e-07
-2.48986e-06
2.73123e-07
-2.4676e-06
-6.28754e-09
-2.41658e-06
-3.01141e-07
-2.33612e-06
-6.11769e-07
-2.22533e-06
-9.27763e-07
-2.08423e-06
-1.24388e-06
-1.91343e-06
-1.55472e-06
-1.71434e-06
-1.8536e-06
-1.48868e-06
-2.13678e-06
-1.2388e-06
-2.39941e-06
-9.66854e-07
-2.64064e-06
-6.75583e-07
-2.85912e-06
-3.667e-07
-3.05673e-06
-4.31236e-08
-3.23446e-06
2.94848e-07
-3.39715e-06
6.43894e-07
-3.54392e-06
1.00591e-06
-3.68848e-06
1.37673e-06
-3.80955e-06
1.76068e-06
-3.95585e-06
2.15124e-06
-4.05142e-06
2.55802e-06
-4.20109e-06
2.9666e-06
-4.27667e-06
3.39682e-06
-4.43582e-06
3.82e-06
-4.51537e-06
4.2752e-06
-4.61757e-06
4.70869e-06
-4.7916e-06
5.18445e-06
-4.70701e-06
5.62373e-06
-4.92995e-06
6.11318e-06
-4.68341e-06
6.53778e-06
-5.11357e-06
7.03968e-06
-4.31052e-06
7.44417e-06
-5.48373e-06
7.99562e-06
-4.45719e-06
-8.32351e-06
8.28757e-06
3.65546e-05
6.50261e-06
3.31067e-05
4.15266e-06
2.37853e-05
1.95094e-06
1.4621e-05
5.15394e-07
6.24988e-06
-1.7053e-07
2.76069e-06
-4.66392e-07
1.49327e-06
-6.54763e-07
1.20846e-06
-7.89805e-07
1.17743e-06
-9.08869e-07
1.30095e-06
-1.02363e-06
1.52318e-06
-1.15414e-06
1.59042e-06
-1.28662e-06
1.29759e-06
-1.40214e-06
6.22269e-07
-1.48004e-06
-3.3324e-07
-1.51626e-06
-8.2083e-07
-1.5272e-06
-2.28917e-07
-1.55294e-06
2.04573e-06
-1.64998e-06
3.71257e-06
-1.81439e-06
3.25852e-06
-1.97202e-06
2.25082e-06
-2.09677e-06
1.7387e-06
-2.19279e-06
1.39771e-06
-2.26576e-06
1.10887e-06
-2.31513e-06
8.3801e-07
-2.34096e-06
5.62718e-07
-2.3413e-06
2.73464e-07
-2.31489e-06
-3.26985e-08
-2.26004e-06
-3.55995e-07
-2.17604e-06
-6.95764e-07
-2.06205e-06
-1.04176e-06
-1.91808e-06
-1.38785e-06
-1.74477e-06
-1.72803e-06
-1.54356e-06
-2.05481e-06
-1.31621e-06
-2.36413e-06
-1.06512e-06
-2.65049e-06
-7.92517e-07
-2.91325e-06
-5.01138e-07
-3.1505e-06
-1.92773e-07
-3.3651e-06
1.29698e-07
-3.55693e-06
4.6586e-07
-3.73331e-06
8.12559e-07
-3.89061e-06
1.17148e-06
-4.0474e-06
1.53877e-06
-4.17684e-06
1.91844e-06
-4.33552e-06
2.3045e-06
-4.43748e-06
2.70588e-06
-4.60247e-06
3.10925e-06
-4.68004e-06
3.53309e-06
-4.85966e-06
3.95035e-06
-4.93263e-06
4.39863e-06
-5.06586e-06
4.82416e-06
-5.21713e-06
5.29369e-06
-5.17654e-06
5.7251e-06
-5.36136e-06
6.20805e-06
-5.16635e-06
6.62354e-06
-5.52906e-06
7.1209e-06
-4.80788e-06
7.51287e-06
-5.8757e-06
8.05651e-06
-5.00082e-06
-8.74525e-06
8.47336e-06
3.80812e-05
6.90145e-06
3.46786e-05
4.68645e-06
2.60002e-05
2.45616e-06
1.68513e-05
8.65468e-07
7.84057e-06
3.44321e-08
3.59173e-06
-3.36273e-07
1.86397e-06
-5.58469e-07
1.43065e-06
-7.09118e-07
1.32808e-06
-8.34655e-07
1.42648e-06
-9.49245e-07
1.63777e-06
-1.07751e-06
1.71869e-06
-1.2117e-06
1.43177e-06
-1.33683e-06
7.474e-07
-1.43067e-06
-2.39401e-07
-1.4827e-06
-7.68803e-07
-1.49755e-06
-2.14064e-07
-1.50289e-06
2.05106e-06
-1.56732e-06
3.777e-06
-1.70742e-06
3.39862e-06
-1.85326e-06
2.39667e-06
-1.97041e-06
1.85584e-06
-2.06028e-06
1.48758e-06
-2.12767e-06
1.17627e-06
-2.17196e-06
8.82292e-07
-2.19301e-06
5.83768e-07
-2.18891e-06
2.69372e-07
-2.15837e-06
-6.32421e-08
-2.09971e-06
-4.14652e-07
-2.01221e-06
-7.83265e-07
-1.89505e-06
-1.15892e-06
-1.74824e-06
-1.53466e-06
-1.57246e-06
-1.90381e-06
-1.36917e-06
-2.25809e-06
-1.1402e-06
-2.5931e-06
-8.87975e-07
-2.90272e-06
-6.14779e-07
-3.18645e-06
-3.23381e-07
-3.4419e-06
-1.56339e-08
-3.67284e-06
3.05608e-07
-3.87817e-06
6.3983e-07
-4.06754e-06
9.84024e-07
-4.23481e-06
1.33969e-06
-4.40307e-06
1.70326e-06
-4.54041e-06
2.07847e-06
-4.71073e-06
2.4598e-06
-4.81881e-06
2.85557e-06
-4.99825e-06
3.25346e-06
-5.07793e-06
3.67069e-06
-5.27689e-06
4.08178e-06
-5.34372e-06
4.52279e-06
-5.50687e-06
4.94041e-06
-5.63474e-06
5.40315e-06
-5.63929e-06
5.82653e-06
-5.78474e-06
6.30243e-06
-5.64225e-06
6.70911e-06
-5.93574e-06
7.20082e-06
-5.29959e-06
7.5811e-06
-6.25597e-06
8.11524e-06
-5.53497e-06
-9.13704e-06
8.64009e-06
3.94412e-05
7.26731e-06
3.60514e-05
5.20375e-06
2.80638e-05
2.97548e-06
1.90796e-05
1.25273e-06
9.56332e-06
2.77759e-07
4.5667e-06
-1.83145e-07
2.32488e-06
-4.47129e-07
1.69464e-06
-6.17681e-07
1.49863e-06
-7.52196e-07
1.561e-06
-8.68311e-07
1.75389e-06
-9.94924e-07
1.8453e-06
-1.13041e-06
1.56726e-06
-1.26404e-06
8.81029e-07
-1.37264e-06
-1.30799e-07
-1.43959e-06
-7.0186e-07
-1.45869e-06
-1.94962e-07
-1.44675e-06
2.03913e-06
-1.48172e-06
3.81197e-06
-1.598e-06
3.51489e-06
-1.73136e-06
2.53004e-06
-1.84057e-06
1.96505e-06
-1.92413e-06
1.57114e-06
-1.98588e-06
1.23801e-06
-2.02502e-06
9.21437e-07
-2.04127e-06
6.00018e-07
-2.03274e-06
2.60843e-07
-1.99807e-06
-9.7908e-08
-1.93563e-06
-4.77094e-07
-1.84465e-06
-8.74248e-07
-1.72434e-06
-1.27924e-06
-1.57473e-06
-1.68427e-06
-1.39651e-06
-2.08202e-06
-1.1912e-06
-2.46341e-06
-9.60645e-07
-2.82365e-06
-7.07335e-07
-3.15603e-06
-4.33616e-07
-3.46016e-06
-1.42279e-07
-3.73323e-06
1.64754e-07
-3.97988e-06
4.8466e-07
-4.19808e-06
8.16822e-07
-4.3997e-06
1.15836e-06
-4.57635e-06
1.51062e-06
-4.75532e-06
1.87029e-06
-4.90007e-06
2.24086e-06
-5.08131e-06
2.61725e-06
-5.1952e-06
3.00723e-06
-5.38823e-06
3.39938e-06
-5.47007e-06
3.80978e-06
-5.68729e-06
4.21446e-06
-5.7484e-06
4.64791e-06
-5.94032e-06
5.05766e-06
-6.04449e-06
5.51309e-06
-6.09473e-06
5.92822e-06
-6.19986e-06
6.39665e-06
-6.11069e-06
6.79466e-06
-6.33376e-06
7.27986e-06
-5.78479e-06
7.64898e-06
-6.62509e-06
8.17244e-06
-6.05844e-06
-9.50149e-06
8.78987e-06
4.06513e-05
7.6017e-06
3.72396e-05
5.70177e-06
2.99637e-05
3.50358e-06
2.12777e-05
1.67306e-06
1.13938e-05
5.55414e-07
5.68435e-06
-3.57025e-09
2.88386e-06
-3.18861e-07
2.00993e-06
-5.14253e-07
1.69402e-06
-6.60662e-07
1.70741e-06
-7.80232e-07
1.87346e-06
-9.06016e-07
1.97109e-06
-1.04251e-06
1.70376e-06
-1.18347e-06
1.02199e-06
-1.30574e-06
-8.53461e-09
-1.38686e-06
-6.20741e-07
-1.41075e-06
-1.71073e-07
-1.38453e-06
2.01291e-06
-1.393e-06
3.82045e-06
-1.48613e-06
3.60802e-06
-1.6064e-06
2.65031e-06
-1.70733e-06
2.06598e-06
-1.78442e-06
1.64822e-06
-1.84042e-06
1.29401e-06
-1.87437e-06
9.5539e-07
-1.88579e-06
6.11443e-07
-1.87282e-06
2.47865e-07
-1.83403e-06
-1.36691e-07
-1.76782e-06
-5.43309e-07
-1.67338e-06
-9.68692e-07
-1.54994e-06
-1.40267e-06
-1.39756e-06
-1.83666e-06
-1.21694e-06
-2.26264e-06
-1.00963e-06
-2.67072e-06
-7.77545e-07
-3.05574e-06
-5.23204e-07
-3.41037e-06
-2.49023e-07
-3.73435e-06
4.21783e-08
-4.02443e-06
3.48413e-07
-4.28611e-06
6.66878e-07
-4.51654e-06
9.96865e-07
-4.72969e-06
1.33562e-06
-4.9151e-06
1.68433e-06
-5.10403e-06
2.03992e-06
-5.25567e-06
2.40569e-06
-5.44708e-06
2.77693e-06
-5.56644e-06
3.16094e-06
-5.77224e-06
3.54711e-06
-5.85624e-06
3.9505e-06
-6.09068e-06
4.34852e-06
-6.14643e-06
4.77414e-06
-6.36594e-06
5.17606e-06
-6.44641e-06
5.6237e-06
-6.54236e-06
6.03029e-06
-6.60645e-06
6.49096e-06
-6.57136e-06
6.88035e-06
-6.72315e-06
7.35833e-06
-6.26278e-06
7.71662e-06
-6.98337e-06
8.22852e-06
-6.57034e-06
-9.84064e-06
8.92463e-06
4.17267e-05
7.90625e-06
3.82579e-05
6.17857e-06
3.16914e-05
4.03608e-06
2.34202e-05
2.12247e-06
1.33074e-05
8.67891e-07
6.93893e-06
2.00237e-07
3.55152e-06
-1.7172e-07
2.38188e-06
-3.97418e-07
1.91972e-06
-5.59077e-07
1.86907e-06
-6.84297e-07
1.99868e-06
-8.10328e-07
2.09712e-06
-9.47712e-07
1.84114e-06
-1.09481e-06
1.16909e-06
-1.2297e-06
1.26353e-07
-1.32441e-06
-5.26032e-07
-1.35374e-06
-1.41746e-07
-1.31614e-06
1.97531e-06
-1.30093e-06
3.80523e-06
-1.37177e-06
3.67887e-06
-1.47841e-06
2.75695e-06
-1.57073e-06
2.1583e-06
-1.64116e-06
1.71865e-06
-1.69132e-06
1.34418e-06
-1.72003e-06
9.84092e-07
-1.7266e-06
6.18016e-07
-1.70916e-06
2.30428e-07
-1.66626e-06
-1.79587e-07
-1.59629e-06
-6.13283e-07
-1.49841e-06
-1.06658e-06
-1.37188e-06
-1.5292e-06
-1.21675e-06
-1.99179e-06
-1.03376e-06
-2.44562e-06
-8.24498e-07
-2.87998e-06
-5.90916e-07
-3.28932e-06
-3.35595e-07
-3.6657e-06
-6.1012e-08
-4.00893e-06
2.29982e-07
-4.31543e-06
5.35337e-07
-4.59147e-06
8.52259e-07
-4.83346e-06
1.17996e-06
-5.05739e-06
1.51579e-06
-5.25094e-06
1.86082e-06
-5.44905e-06
2.21218e-06
-5.60703e-06
2.57299e-06
-5.80789e-06
2.93889e-06
-5.93234e-06
3.31676e-06
-6.15011e-06
3.6967e-06
-6.23618e-06
4.0929e-06
-6.48688e-06
4.48403e-06
-6.53755e-06
4.9016e-06
-6.78351e-06
5.29567e-06
-6.84048e-06
5.73509e-06
-6.98178e-06
6.13291e-06
-7.00428e-06
6.58551e-06
-7.02395e-06
6.96626e-06
-7.1039e-06
7.43644e-06
-6.73296e-06
7.78411e-06
-7.33104e-06
8.28379e-06
-7.07002e-06
-1.01562e-05
9.04609e-06
4.26806e-05
8.18257e-06
3.91214e-05
6.63284e-06
3.32412e-05
4.56948e-06
2.54836e-05
2.59726e-06
1.52797e-05
1.21473e-06
8.32146e-06
4.34096e-07
4.33215e-06
-4.42898e-09
2.82041e-06
-2.65597e-07
2.18089e-06
-4.46305e-07
2.04977e-06
-5.79686e-07
2.13206e-06
-7.0731e-07
2.22474e-06
-8.45658e-07
1.97949e-06
-9.97856e-07
1.32129e-06
-1.14428e-06
2.72779e-07
-1.252e-06
-4.18313e-07
-1.28757e-06
-1.0618e-07
-1.24139e-06
1.92913e-06
-1.20521e-06
3.76906e-06
-1.25481e-06
3.72847e-06
-1.3474e-06
2.84953e-06
-1.43078e-06
2.24167e-06
-1.49437e-06
1.78224e-06
-1.5386e-06
1.38841e-06
-1.56199e-06
1.00749e-06
-1.56368e-06
6.19708e-07
-1.54177e-06
2.08519e-07
-1.49477e-06
-2.26592e-07
-1.42105e-06
-6.87004e-07
-1.31975e-06
-1.16788e-06
-1.19015e-06
-1.6588e-06
-1.0323e-06
-2.14963e-06
-8.4699e-07
-2.63093e-06
-6.35807e-07
-3.09117e-06
-4.00777e-07
-3.52435e-06
-1.44528e-07
-3.92194e-06
1.30397e-07
-4.28385e-06
4.21113e-07
-4.60614e-06
7.25506e-07
-4.89586e-06
1.04079e-06
-5.14875e-06
1.3661e-06
-5.3827e-06
1.69888e-06
-5.58372e-06
2.04009e-06
-5.79026e-06
2.38707e-06
-5.95401e-06
2.74276e-06
-6.16358e-06
3.10313e-06
-6.29271e-06
3.4747e-06
-6.52167e-06
3.84821e-06
-6.60969e-06
4.23705e-06
-6.87572e-06
4.62103e-06
-6.92153e-06
5.03035e-06
-7.19283e-06
5.4165e-06
-7.22664e-06
5.84736e-06
-7.41264e-06
6.2362e-06
-7.39312e-06
6.68043e-06
-7.46818e-06
7.05248e-06
-7.47595e-06
7.51437e-06
-7.19485e-06
7.85153e-06
-7.66819e-06
8.3385e-06
-7.55699e-06
-1.04495e-05
9.15589e-06
4.35247e-05
8.43222e-06
3.98451e-05
7.0625e-06
3.46109e-05
5.09984e-06
2.74462e-05
3.09402e-06
1.72855e-05
1.59505e-06
9.82042e-06
6.985e-07
5.22871e-06
1.87214e-07
3.33169e-06
-1.17068e-07
2.48517e-06
-3.21064e-07
2.25377e-06
-4.65464e-07
2.27646e-06
-5.96313e-07
2.35559e-06
-7.35943e-07
2.11912e-06
-8.92383e-07
1.47773e-06
-1.04923e-06
4.29626e-07
-1.16932e-06
-2.98219e-07
-1.21205e-06
-6.34501e-08
-1.16001e-06
1.87709e-06
-1.10554e-06
3.71459e-06
-1.13508e-06
3.75801e-06
-1.21331e-06
2.92776e-06
-1.28745e-06
2.31581e-06
-1.34402e-06
1.83882e-06
-1.38222e-06
1.4266e-06
-1.40025e-06
1.02551e-06
-1.39703e-06
6.16494e-07
-1.37064e-06
1.82129e-07
-1.31954e-06
-2.77698e-07
-1.24209e-06
-7.64453e-07
-1.13739e-06
-1.27257e-06
-1.00475e-06
-1.79144e-06
-8.44237e-07
-2.31015e-06
-6.5663e-07
-2.81854e-06
-4.43576e-07
-3.30422e-06
-2.07145e-07
-3.76078e-06
4.99764e-08
-4.17907e-06
3.25181e-07
-4.55906e-06
6.15547e-07
-4.89651e-06
9.18896e-07
-5.19921e-06
1.23244e-06
-5.46229e-06
1.55526e-06
-5.70552e-06
1.88487e-06
-5.91333e-06
2.22213e-06
-6.12752e-06
2.56456e-06
-6.29645e-06
2.91499e-06
-6.51401e-06
3.26966e-06
-6.64737e-06
3.63476e-06
-6.88678e-06
4.00163e-06
-6.97656e-06
4.38295e-06
-7.25704e-06
4.75957e-06
-7.29815e-06
5.16044e-06
-7.59371e-06
5.53857e-06
-7.60476e-06
5.96057e-06
-7.83464e-06
6.34024e-06
-7.77279e-06
6.77583e-06
-7.90377e-06
7.13907e-06
-7.83919e-06
7.59223e-06
-7.64801e-06
7.91893e-06
-7.99489e-06
8.39282e-06
-8.03088e-06
-1.07217e-05
9.25555e-06
4.42691e-05
8.65699e-06
4.04437e-05
7.466e-06
3.58019e-05
5.62345e-06
2.92888e-05
3.60916e-06
1.92998e-05
2.00751e-06
1.14221e-05
9.9471e-07
6.24151e-06
4.02621e-07
3.92378e-06
4.98783e-08
2.83791e-06
-1.8194e-07
2.48559e-06
-3.40568e-07
2.43509e-06
-4.76579e-07
2.4916e-06
-6.18083e-07
2.26063e-06
-7.78137e-07
1.63778e-06
-9.44301e-07
5.95789e-07
-1.07607e-06
-1.66447e-07
-1.12691e-06
-1.2609e-08
-1.07177e-06
1.82195e-06
-1.00154e-06
3.64435e-06
-1.01225e-06
3.76872e-06
-1.07605e-06
2.99156e-06
-1.14068e-06
2.38045e-06
-1.19007e-06
1.88821e-06
-1.22215e-06
1.45868e-06
-1.23476e-06
1.03812e-06
-1.22661e-06
6.08351e-07
-1.19574e-06
1.51254e-07
-1.14054e-06
-3.32894e-07
-1.05938e-06
-8.45609e-07
-9.51331e-07
-1.38063e-06
-8.15693e-07
-1.92708e-06
-6.52541e-07
-2.4733e-06
-4.62689e-07
-3.00839e-06
-2.47813e-07
-3.5191e-06
-1.0036e-08
-3.99856e-06
2.47898e-07
-4.437e-06
5.23316e-07
-4.83448e-06
8.13255e-07
-5.18645e-06
1.11548e-06
-5.50143e-06
1.42719e-06
-5.77401e-06
1.7474e-06
-6.02573e-06
2.07372e-06
-6.23964e-06
2.4069e-06
-6.46071e-06
2.74465e-06
-6.63419e-06
3.08967e-06
-6.85902e-06
3.43845e-06
-6.99616e-06
3.79694e-06
-7.24528e-06
4.15697e-06
-7.33658e-06
4.53061e-06
-7.63069e-06
4.89964e-06
-7.66718e-06
5.29191e-06
-7.98597e-06
5.66187e-06
-7.97472e-06
6.07475e-06
-8.24752e-06
6.44509e-06
-8.14313e-06
6.87176e-06
-8.33044e-06
7.22608e-06
-8.19351e-06
7.67013e-06
-8.09206e-06
7.98636e-06
-8.31112e-06
8.44688e-06
-8.4914e-06
-1.09738e-05
9.34646e-06
4.49227e-05
8.85865e-06
4.09315e-05
7.84246e-06
3.68181e-05
6.13651e-06
3.09947e-05
4.13835e-06
2.12979e-05
2.45021e-06
1.31102e-05
1.32353e-06
7.36819e-06
6.44188e-07
4.60312e-06
2.36626e-07
3.24547e-06
-2.74982e-08
2.74971e-06
-2.03801e-07
2.61139e-06
-3.47245e-07
2.63505e-06
-4.91512e-07
2.40489e-06
-6.54808e-07
1.80108e-06
-8.29138e-07
7.70119e-07
-9.71934e-07
-2.36503e-08
-1.03186e-06
4.73163e-08
-9.76283e-07
1.76637e-06
-8.92859e-07
3.56093e-06
-8.86004e-07
3.76187e-06
-9.35473e-07
3.04102e-06
-9.9039e-07
2.43536e-06
-1.03245e-06
1.93026e-06
-1.05831e-06
1.48455e-06
-1.06545e-06
1.04526e-06
-1.05236e-06
5.95263e-07
-1.01701e-06
1.15895e-07
-9.57738e-07
-3.92161e-07
-8.72905e-07
-9.30442e-07
-7.61532e-07
-1.492e-06
-6.2294e-07
-2.06567e-06
-4.57206e-07
-2.63903e-06
-2.65162e-07
-3.20044e-06
-4.85225e-08
-3.73574e-06
1.90538e-07
-4.23762e-06
4.49218e-07
-4.69568e-06
7.24777e-07
-5.11004e-06
1.01421e-06
-5.47588e-06
1.31522e-06
-5.80244e-06
1.625e-06
-6.08379e-06
1.9425e-06
-6.34324e-06
2.26539e-06
-6.56253e-06
2.59438e-06
-6.78969e-06
2.92729e-06
-6.96711e-06
3.26675e-06
-7.19848e-06
3.60949e-06
-7.33889e-06
3.96122e-06
-7.59701e-06
4.31421e-06
-7.68958e-06
4.68003e-06
-7.99651e-06
5.04127e-06
-8.02841e-06
5.42476e-06
-8.36946e-06
5.7864e-06
-8.33637e-06
6.18993e-06
-8.65104e-06
6.55078e-06
-8.50397e-06
6.96828e-06
-8.74795e-06
7.31353e-06
-8.53877e-06
7.74813e-06
-8.52665e-06
8.05387e-06
-8.61687e-06
8.50081e-06
-8.93834e-06
-1.12066e-05
9.42991e-06
4.54928e-05
9.0391e-06
4.13223e-05
8.19101e-06
3.76662e-05
6.63494e-06
3.25508e-05
4.67767e-06
2.32552e-05
2.92147e-06
1.48664e-05
1.68518e-06
8.60448e-06
9.13726e-07
5.37458e-06
4.45352e-07
3.71385e-06
1.44208e-07
3.05086e-06
-5.38117e-08
2.80941e-06
-2.07334e-07
2.78857e-06
-3.55573e-07
2.55313e-06
-5.22025e-07
1.96753e-06
-7.03362e-07
9.51456e-07
-8.56591e-07
1.29578e-07
-9.26567e-07
1.17293e-07
-8.73042e-07
1.71284e-06
-7.79048e-07
3.46694e-06
-7.55971e-07
3.73879e-06
-7.91379e-07
3.07643e-06
-8.36432e-07
2.48042e-06
-8.71026e-07
1.96486e-06
-8.90616e-07
1.50414e-06
-8.92253e-07
1.0469e-06
-8.74213e-07
5.77222e-07
-8.34381e-07
7.60629e-08
-7.71069e-07
-4.55473e-07
-6.82597e-07
-1.01891e-06
-5.67952e-07
-1.60664e-06
-4.26462e-07
-2.20716e-06
-2.58207e-07
-2.80729e-06
-6.40355e-08
-3.39461e-06
1.543e-07
-3.95407e-06
3.94574e-07
-4.47789e-06
6.53926e-07
-4.95503e-06
9.29546e-07