/*--------------------------------*- C++ -*----------------------------------*\
| =========                 |                                                 |
| \\      /  F ield         | OpenFOAM: The Open Source CFD Toolbox           |
|  \\    /   O peration     | Version:  2.4.0                                 |
|   \\  /    A nd           | Web:      www.OpenFOAM.org                      |
|    \\/     M anipulation  |                                                 |
\*---------------------------------------------------------------------------*/
FoamFile
{
    version     2.0;
    format      ascii;
    class       volScalarField;
    location    "50";
    object      epsilon;
}
// * * * * * * * * * * * * * * * * * * * * * * * * * * * * * * * * * * * * * //

dimensions      [0 2 -3 0 0 0 0];

internalField   nonuniform List<scalar> 
10000
(
2.55424
0.374094
0.0876297
0.0294599
0.0129271
0.00687992
0.00421054
0.00285461
0.00208858
0.0016191
0.00131247
0.00110189
0.000951339
0.000840123
0.000755746
0.000690283
0.000638557
0.00059703
0.00056326
0.000535585
2.55425
0.373894
0.0875658
0.029431
0.012913
0.00687172
0.00420544
0.00285117
0.00208619
0.00161736
0.00131119
0.00110093
0.000950621
0.000839579
0.000755336
0.000689976
0.000638329
0.000596867
0.00056315
0.00053541
2.55421
0.37396
0.0875827
0.029437
0.0129151
0.00687243
0.00420561
0.00285111
0.00208602
0.00161715
0.00131096
0.0011007
0.000950379
0.000839344
0.000755099
0.000689745
0.000638099
0.000596644
0.000562928
0.000535198
2.5542
0.373968
0.0875864
0.0294384
0.0129157
0.00687272
0.00420576
0.00285118
0.00208606
0.00161716
0.00131096
0.0011007
0.000950375
0.00083934
0.000755096
0.000689744
0.0006381
0.000596648
0.000562936
0.00053521
2.55421
0.373968
0.0875862
0.0294386
0.0129158
0.00687286
0.00420588
0.00285128
0.00208614
0.00161724
0.00131102
0.00110075
0.000950419
0.000839379
0.000755129
0.000689774
0.000638127
0.000596675
0.000562962
0.000535236
2.5542
0.373968
0.0875863
0.0294384
0.0129157
0.00687276
0.00420579
0.00285121
0.00208608
0.00161719
0.00131098
0.00110071
0.000950391
0.000839356
0.000755112
0.000689762
0.00063812
0.000596672
0.000562964
0.000535243
2.55421
0.373968
0.0875865
0.0294387
0.0129159
0.00687289
0.00420589
0.00285128
0.00208614
0.00161723
0.00131102
0.00110075
0.000950418
0.000839379
0.000755132
0.00068978
0.000638138
0.000596689
0.000562981
0.000535261
2.5542
0.373968
0.0875863
0.0294385
0.0129158
0.00687279
0.00420581
0.00285123
0.0020861
0.0016172
0.00131099
0.00110072
0.000950402
0.000839369
0.000755127
0.000689779
0.000638141
0.000596696
0.000562992
0.000535274
2.55421
0.373969
0.0875868
0.0294388
0.0129159
0.00687292
0.0042059
0.0028513
0.00208615
0.00161724
0.00131102
0.00110075
0.000950423
0.000839386
0.000755142
0.000689793
0.000638154
0.000596709
0.000563005
0.000535287
2.55421
0.373968
0.0875864
0.0294386
0.0129158
0.00687282
0.00420583
0.00285124
0.00208611
0.00161721
0.001311
0.00110074
0.000950416
0.000839384
0.000755144
0.000689799
0.000638163
0.000596721
0.00056302
0.000535305
2.55421
0.373969
0.0875869
0.0294389
0.012916
0.00687294
0.00420591
0.0028513
0.00208615
0.00161724
0.00131103
0.00110076
0.000950433
0.000839399
0.000755157
0.000689811
0.000638175
0.000596733
0.000563032
0.000535316
2.55421
0.373969
0.0875864
0.0294386
0.0129158
0.00687285
0.00420585
0.00285126
0.00208612
0.00161723
0.00131102
0.00110075
0.000950433
0.000839403
0.000755166
0.000689823
0.000638189
0.000596749
0.00056305
0.000535336
2.55421
0.37397
0.0875869
0.0294389
0.012916
0.00687295
0.00420592
0.00285131
0.00208616
0.00161725
0.00131104
0.00110077
0.000950449
0.000839417
0.000755179
0.000689835
0.000638202
0.000596762
0.000563062
0.000535348
2.55421
0.373969
0.0875865
0.0294387
0.0129158
0.00687287
0.00420587
0.00285128
0.00208614
0.00161724
0.00131104
0.00110077
0.000950456
0.000839427
0.000755192
0.000689851
0.000638219
0.00059678
0.000563082
0.000535369
2.55421
0.37397
0.0875869
0.029439
0.012916
0.00687296
0.00420593
0.00285132
0.00208618
0.00161727
0.00131106
0.00110079
0.000950473
0.000839443
0.000755206
0.000689865
0.000638233
0.000596794
0.000563095
0.000535382
2.55421
0.373969
0.0875866
0.0294388
0.0129159
0.00687291
0.0042059
0.00285131
0.00208617
0.00161727
0.00131106
0.0011008
0.000950484
0.000839457
0.000755223
0.000689883
0.000638252
0.000596814
0.000563117
0.000535404
2.55421
0.37397
0.087587
0.029439
0.012916
0.00687299
0.00420595
0.00285135
0.0020862
0.0016173
0.00131109
0.00110082
0.000950502
0.000839473
0.000755238
0.000689898
0.000638266
0.000596828
0.00056313
0.000535418
2.55421
0.373969
0.0875866
0.0294388
0.0129159
0.00687295
0.00420594
0.00285134
0.0020862
0.0016173
0.0013111
0.00110083
0.000950518
0.000839491
0.000755257
0.000689918
0.000638288
0.000596851
0.000563153
0.000535441
2.55421
0.37397
0.087587
0.029439
0.0129161
0.00687303
0.00420599
0.00285138
0.00208623
0.00161733
0.00131112
0.00110085
0.000950536
0.000839509
0.000755274
0.000689934
0.000638303
0.000596866
0.000563168
0.000535455
2.55421
0.37397
0.0875867
0.0294389
0.012916
0.006873
0.00420598
0.00285138
0.00208624
0.00161734
0.00131113
0.00110087
0.000950556
0.000839529
0.000755295
0.000689956
0.000638326
0.000596889
0.000563191
0.000535478
2.55421
0.37397
0.0875871
0.0294391
0.0129161
0.00687307
0.00420603
0.00285142
0.00208627
0.00161737
0.00131116
0.00110089
0.000950575
0.000839548
0.000755313
0.000689973
0.000638342
0.000596904
0.000563206
0.000535493
2.55421
0.37397
0.0875868
0.029439
0.0129161
0.00687306
0.00420604
0.00285143
0.00208629
0.00161739
0.00131118
0.00110091
0.000950597
0.00083957
0.000755336
0.000689996
0.000638365
0.000596928
0.000563229
0.000535516
2.55421
0.37397
0.0875872
0.0294392
0.0129162
0.00687313
0.00420609
0.00285147
0.00208632
0.00161741
0.0013112
0.00110094
0.000950618
0.000839589
0.000755354
0.000690014
0.000638382
0.000596944
0.000563245
0.000535532
2.55421
0.37397
0.087587
0.0294391
0.0129162
0.00687314
0.0042061
0.00285149
0.00208634
0.00161744
0.00131123
0.00110096
0.000950642
0.000839613
0.000755378
0.000690038
0.000638406
0.000596967
0.000563268
0.000535555
2.55421
0.37397
0.0875873
0.0294393
0.0129163
0.00687321
0.00420615
0.00285153
0.00208637
0.00161746
0.00131125
0.00110098
0.000950663
0.000839633
0.000755397
0.000690056
0.000638423
0.000596984
0.000563284
0.00053557
2.55421
0.37397
0.0875871
0.0294392
0.0129163
0.00687322
0.00420617
0.00285155
0.0020864
0.00161749
0.00131128
0.00110101
0.000950688
0.000839658
0.000755422
0.000690079
0.000638447
0.000597007
0.000563307
0.000535593
2.55421
0.373971
0.0875874
0.0294394
0.0129164
0.00687329
0.00420622
0.00285159
0.00208643
0.00161752
0.0013113
0.00110103
0.000950709
0.000839678
0.000755441
0.000690098
0.000638464
0.000597024
0.000563323
0.000535608
2.55421
0.37397
0.0875873
0.0294394
0.0129164
0.00687331
0.00420625
0.00285162
0.00208646
0.00161755
0.00131133
0.00110106
0.000950735
0.000839703
0.000755465
0.000690121
0.000638487
0.000597046
0.000563345
0.00053563
2.55421
0.373971
0.0875876
0.0294395
0.0129165
0.00687338
0.0042063
0.00285166
0.00208649
0.00161757
0.00131135
0.00110108
0.000950757
0.000839723
0.000755484
0.000690139
0.000638504
0.000597063
0.000563361
0.000535645
2.55421
0.37397
0.0875874
0.0294395
0.0129165
0.00687341
0.00420633
0.00285169
0.00208653
0.0016176
0.00131138
0.00110111
0.000950782
0.000839748
0.000755507
0.000690162
0.000638527
0.000597084
0.000563382
0.000535666
2.55421
0.373971
0.0875878
0.0294397
0.0129166
0.00687348
0.00420638
0.00285173
0.00208656
0.00161763
0.00131141
0.00110113
0.000950803
0.000839767
0.000755526
0.00069018
0.000638543
0.0005971
0.000563398
0.000535681
2.55421
0.37397
0.0875877
0.0294397
0.0129166
0.00687351
0.00420642
0.00285177
0.00208659
0.00161766
0.00131144
0.00110116
0.000950828
0.000839791
0.000755549
0.000690202
0.000638564
0.000597121
0.000563418
0.0005357
2.55421
0.373971
0.087588
0.0294399
0.0129167
0.00687358
0.00420647
0.0028518
0.00208662
0.00161769
0.00131146
0.00110118
0.000950849
0.00083981
0.000755567
0.000690219
0.000638581
0.000597136
0.000563433
0.000535715
2.55421
0.37397
0.0875879
0.0294399
0.0129168
0.00687361
0.0042065
0.00285184
0.00208665
0.00161772
0.00131149
0.0011012
0.000950873
0.000839833
0.000755588
0.000690239
0.0006386
0.000597155
0.000563451
0.000535733
2.55421
0.373971
0.0875882
0.02944
0.0129169
0.00687368
0.00420655
0.00285188
0.00208668
0.00161775
0.00131151
0.00110122
0.000950892
0.000839851
0.000755605
0.000690255
0.000638616
0.00059717
0.000563465
0.000535746
2.55421
0.373971
0.0875881
0.02944
0.0129169
0.00687372
0.00420659
0.00285191
0.00208671
0.00161777
0.00131154
0.00110125
0.000950915
0.000839872
0.000755625
0.000690274
0.000638634
0.000597188
0.000563482
0.000535763
2.55421
0.373971
0.0875884
0.0294402
0.012917
0.00687378
0.00420663
0.00285195
0.00208674
0.0016178
0.00131156
0.00110127
0.000950933
0.00083989
0.000755642
0.00069029
0.000638649
0.000597202
0.000563496
0.000535776
2.55421
0.373971
0.0875883
0.0294402
0.012917
0.00687381
0.00420667
0.00285198
0.00208677
0.00161782
0.00131158
0.00110129
0.000950954
0.000839909
0.00075566
0.000690307
0.000638665
0.000597218
0.000563511
0.00053579
2.55421
0.373971
0.0875886
0.0294404
0.0129171
0.00687388
0.00420671
0.00285201
0.0020868
0.00161785
0.0013116
0.00110131
0.000950971
0.000839925
0.000755675
0.000690321
0.000638679
0.000597231
0.000563524
0.000535803
2.55421
0.373971
0.0875885
0.0294403
0.0129171
0.00687391
0.00420674
0.00285204
0.00208683
0.00161787
0.00131163
0.00110133
0.00095099
0.000839943
0.000755691
0.000690337
0.000638694
0.000597245
0.000563537
0.000535816
2.55421
0.373972
0.0875888
0.0294405
0.0129172
0.00687397
0.00420679
0.00285207
0.00208685
0.0016179
0.00131165
0.00110135
0.000951006
0.000839958
0.000755705
0.00069035
0.000638706
0.000597257
0.000563549
0.000535827
2.55421
0.373971
0.0875887
0.0294405
0.0129173
0.006874
0.00420681
0.0028521
0.00208688
0.00161792
0.00131167
0.00110137
0.000951023
0.000839973
0.00075572
0.000690364
0.000638719
0.000597269
0.000563561
0.000535839
2.55421
0.373972
0.087589
0.0294407
0.0129173
0.00687405
0.00420685
0.00285213
0.0020869
0.00161794
0.00131168
0.00110138
0.000951038
0.000839987
0.000755733
0.000690376
0.000638731
0.00059728
0.000563571
0.000535849
2.55421
0.373972
0.0875889
0.0294406
0.0129174
0.00687408
0.00420688
0.00285215
0.00208692
0.00161796
0.0013117
0.0011014
0.000951052
0.00084
0.000755745
0.000690388
0.000638742
0.000597291
0.000563582
0.000535859
2.55421
0.373972
0.0875892
0.0294408
0.0129174
0.00687413
0.00420691
0.00285218
0.00208695
0.00161798
0.00131172
0.00110141
0.000951066
0.000840013
0.000755757
0.000690399
0.000638753
0.000597301
0.000563591
0.000535868
2.55421
0.373972
0.0875891
0.0294408
0.0129175
0.00687415
0.00420694
0.0028522
0.00208696
0.00161799
0.00131173
0.00110143
0.000951078
0.000840024
0.000755768
0.000690409
0.000638762
0.000597311
0.0005636
0.000535877
2.55421
0.373972
0.0875894
0.0294409
0.0129175
0.0068742
0.00420697
0.00285222
0.00208698
0.00161801
0.00131175
0.00110144
0.00095109
0.000840035
0.000755778
0.000690419
0.000638772
0.00059732
0.000563609
0.000535885
2.55421
0.373972
0.0875893
0.0294409
0.0129175
0.00687421
0.00420699
0.00285224
0.002087
0.00161802
0.00131176
0.00110145
0.000951101
0.000840045
0.000755787
0.000690427
0.00063878
0.000597327
0.000563616
0.000535892
2.55421
0.373972
0.0875895
0.029441
0.0129176
0.00687426
0.00420702
0.00285226
0.00208702
0.00161804
0.00131177
0.00110146
0.000951111
0.000840055
0.000755796
0.000690436
0.000638788
0.000597335
0.000563624
0.0005359
2.55421
0.373972
0.0875894
0.029441
0.0129176
0.00687427
0.00420703
0.00285228
0.00208703
0.00161805
0.00131178
0.00110147
0.00095112
0.000840063
0.000755804
0.000690443
0.000638795
0.000597341
0.00056363
0.000535905
2.55421
0.373972
0.0875896
0.0294411
0.0129177
0.00687431
0.00420706
0.0028523
0.00208704
0.00161806
0.00131179
0.00110148
0.000951129
0.000840071
0.000755812
0.000690451
0.000638802
0.000597348
0.000563637
0.000535912
2.55421
0.373972
0.0875895
0.0294411
0.0129177
0.00687431
0.00420707
0.00285231
0.00208705
0.00161807
0.0013118
0.00110149
0.000951136
0.000840078
0.000755818
0.000690456
0.000638807
0.000597353
0.000563641
0.000535916
2.55421
0.373973
0.0875897
0.0294412
0.0129177
0.00687435
0.00420709
0.00285232
0.00208707
0.00161808
0.00131181
0.0011015
0.000951144
0.000840085
0.000755825
0.000690463
0.000638813
0.000597359
0.000563647
0.000535922
2.55421
0.373972
0.0875896
0.0294411
0.0129177
0.00687435
0.0042071
0.00285233
0.00208708
0.00161809
0.00131182
0.0011015
0.000951149
0.00084009
0.000755829
0.000690467
0.000638817
0.000597363
0.000563651
0.000535925
2.55421
0.373973
0.0875898
0.0294412
0.0129178
0.00687438
0.00420712
0.00285235
0.00208709
0.0016181
0.00131183
0.00110151
0.000951156
0.000840096
0.000755835
0.000690472
0.000638822
0.000597368
0.000563655
0.00053593
2.55421
0.373972
0.0875897
0.0294412
0.0129178
0.00687438
0.00420712
0.00285235
0.00208709
0.0016181
0.00131183
0.00110152
0.00095116
0.0008401
0.000755838
0.000690475
0.000638825
0.000597371
0.000563658
0.000535932
2.55421
0.373973
0.0875898
0.0294413
0.0129178
0.00687441
0.00420714
0.00285236
0.0020871
0.00161811
0.00131184
0.00110152
0.000951165
0.000840105
0.000755843
0.00069048
0.00063883
0.000597375
0.000563662
0.000535936
2.55421
0.373972
0.0875897
0.0294412
0.0129178
0.00687441
0.00420714
0.00285237
0.00208711
0.00161811
0.00131184
0.00110152
0.000951168
0.000840107
0.000755845
0.000690482
0.000638831
0.000597376
0.000563664
0.000535938
2.55421
0.373973
0.0875899
0.0294413
0.0129178
0.00687443
0.00420715
0.00285238
0.00208711
0.00161812
0.00131185
0.00110153
0.000951172
0.000840111
0.000755849
0.000690485
0.000638835
0.00059738
0.000563667
0.000535941
2.55421
0.373972
0.0875898
0.0294413
0.0129178
0.00687443
0.00420715
0.00285238
0.00208711
0.00161812
0.00131185
0.00110153
0.000951174
0.000840112
0.00075585
0.000690487
0.000638836
0.000597381
0.000563668
0.000535942
2.55421
0.373973
0.0875899
0.0294413
0.0129178
0.00687444
0.00420717
0.00285239
0.00208712
0.00161813
0.00131185
0.00110153
0.000951177
0.000840115
0.000755853
0.000690489
0.000638838
0.000597383
0.00056367
0.000535944
2.55421
0.373972
0.0875898
0.0294413
0.0129178
0.00687444
0.00420716
0.00285239
0.00208712
0.00161813
0.00131185
0.00110154
0.000951178
0.000840116
0.000755854
0.00069049
0.000638839
0.000597384
0.00056367
0.000535944
2.55421
0.373973
0.0875899
0.0294414
0.0129179
0.00687445
0.00420717
0.00285239
0.00208713
0.00161813
0.00131186
0.00110154
0.00095118
0.000840118
0.000755856
0.000690492
0.000638841
0.000597385
0.000563672
0.000535946
2.55421
0.373973
0.0875899
0.0294413
0.0129178
0.00687445
0.00420717
0.00285239
0.00208713
0.00161813
0.00131186
0.00110154
0.00095118
0.000840118
0.000755855
0.000690492
0.000638841
0.000597385
0.000563672
0.000535946
2.55421
0.373973
0.0875899
0.0294414
0.0129179
0.00687446
0.00420718
0.0028524
0.00208713
0.00161813
0.00131186
0.00110154
0.000951181
0.00084012
0.000755857
0.000690493
0.000638842
0.000597386
0.000563673
0.000535947
2.55421
0.373973
0.0875899
0.0294413
0.0129179
0.00687445
0.00420717
0.00285239
0.00208713
0.00161813
0.00131186
0.00110154
0.000951181
0.000840119
0.000755856
0.000690492
0.000638841
0.000597386
0.000563672
0.000535946
2.55421
0.373973
0.0875899
0.0294414
0.0129179
0.00687446
0.00420718
0.0028524
0.00208713
0.00161813
0.00131186
0.00110154
0.000951181
0.00084012
0.000755857
0.000690493
0.000638842
0.000597386
0.000563673
0.000535947
2.55421
0.373973
0.0875899
0.0294413
0.0129179
0.00687445
0.00420717
0.00285239
0.00208713
0.00161813
0.00131186
0.00110154
0.00095118
0.000840118
0.000755855
0.000690492
0.00063884
0.000597385
0.000563672
0.000535946
2.55421
0.373973
0.0875899
0.0294414
0.0129179
0.00687446
0.00420718
0.00285239
0.00208713
0.00161813
0.00131186
0.00110154
0.00095118
0.000840118
0.000755856
0.000690492
0.000638841
0.000597385
0.000563672
0.000535946
2.55421
0.373973
0.0875899
0.0294413
0.0129178
0.00687445
0.00420717
0.00285239
0.00208712
0.00161813
0.00131185
0.00110154
0.000951178
0.000840117
0.000755854
0.00069049
0.000638839
0.000597384
0.000563671
0.000535945
2.55421
0.373973
0.0875899
0.0294413
0.0129179
0.00687445
0.00420717
0.00285239
0.00208712
0.00161813
0.00131185
0.00110154
0.000951178
0.000840116
0.000755854
0.00069049
0.000638839
0.000597384
0.00056367
0.000535944
2.55421
0.373973
0.0875898
0.0294413
0.0129178
0.00687444
0.00420716
0.00285239
0.00208712
0.00161813
0.00131185
0.00110153
0.000951176
0.000840114
0.000755852
0.000690488
0.000638837
0.000597382
0.000563669
0.000535943
2.55421
0.373973
0.0875899
0.0294413
0.0129178
0.00687444
0.00420716
0.00285239
0.00208712
0.00161813
0.00131185
0.00110153
0.000951175
0.000840114
0.000755851
0.000690488
0.000638837
0.000597381
0.000563668
0.000535942
2.55421
0.373972
0.0875898
0.0294413
0.0129178
0.00687443
0.00420716
0.00285238
0.00208712
0.00161812
0.00131185
0.00110153
0.000951173
0.000840112
0.000755849
0.000690486
0.000638835
0.00059738
0.000563667
0.000535941
2.55421
0.373973
0.0875899
0.0294413
0.0129178
0.00687443
0.00420716
0.00285238
0.00208711
0.00161812
0.00131185
0.00110153
0.000951172
0.000840111
0.000755848
0.000690485
0.000638834
0.000597379
0.000563666
0.00053594
2.55421
0.373973
0.0875898
0.0294413
0.0129178
0.00687443
0.00420715
0.00285238
0.00208711
0.00161812
0.00131184
0.00110153
0.00095117
0.000840108
0.000755846
0.000690483
0.000638832
0.000597377
0.000563664
0.000535938
2.55421
0.373973
0.0875898
0.0294413
0.0129178
0.00687443
0.00420715
0.00285237
0.00208711
0.00161812
0.00131184
0.00110153
0.000951168
0.000840107
0.000755845
0.000690482
0.000638831
0.000597376
0.000563663
0.000535937
2.55421
0.373973
0.0875898
0.0294413
0.0129178
0.00687442
0.00420714
0.00285237
0.00208711
0.00161811
0.00131184
0.00110152
0.000951166
0.000840105
0.000755843
0.00069048
0.000638829
0.000597374
0.000563661
0.000535935
2.55421
0.373973
0.0875898
0.0294413
0.0129178
0.00687441
0.00420714
0.00285237
0.0020871
0.00161811
0.00131184
0.00110152
0.000951164
0.000840104
0.000755842
0.000690478
0.000638828
0.000597373
0.00056366
0.000535934
2.55421
0.373972
0.0875898
0.0294413
0.0129178
0.00687441
0.00420714
0.00285236
0.0020871
0.00161811
0.00131184
0.00110152
0.000951162
0.000840101
0.000755839
0.000690476
0.000638826
0.000597371
0.000563658
0.000535932
2.55421
0.373972
0.0875898
0.0294413
0.0129178
0.0068744
0.00420713
0.00285236
0.0020871
0.00161811
0.00131183
0.00110152
0.00095116
0.000840099
0.000755838
0.000690475
0.000638824
0.000597369
0.000563657
0.000535931
2.55421
0.373972
0.0875897
0.0294412
0.0129178
0.0068744
0.00420713
0.00285236
0.00208709
0.0016181
0.00131183
0.00110151
0.000951158
0.000840097
0.000755836
0.000690473
0.000638822
0.000597367
0.000563655
0.000535929
2.55421
0.373972
0.0875898
0.0294412
0.0129178
0.00687439
0.00420713
0.00285235
0.00208709
0.0016181
0.00131183
0.00110151
0.000951156
0.000840095
0.000755834
0.000690471
0.000638821
0.000597366
0.000563653
0.000535928
2.55421
0.373972
0.0875897
0.0294412
0.0129178
0.00687439
0.00420712
0.00285235
0.00208709
0.0016181
0.00131183
0.00110151
0.000951153
0.000840093
0.000755832
0.000690469
0.000638819
0.000597364
0.000563651
0.000535926
2.55421
0.373972
0.0875897
0.0294412
0.0129178
0.00687438
0.00420712
0.00285235
0.00208709
0.0016181
0.00131182
0.00110151
0.000951152
0.000840092
0.00075583
0.000690467
0.000638817
0.000597363
0.00056365
0.000535925
2.55421
0.373972
0.0875897
0.0294412
0.0129178
0.00687438
0.00420711
0.00285234
0.00208708
0.00161809
0.00131182
0.00110151
0.000951149
0.000840089
0.000755828
0.000690465
0.000638815
0.000597361
0.000563648
0.000535923
2.55421
0.373972
0.0875897
0.0294412
0.0129178
0.00687437
0.00420711
0.00285234
0.00208708
0.00161809
0.00131182
0.0011015
0.000951148
0.000840088
0.000755827
0.000690464
0.000638814
0.00059736
0.000563647
0.000535922
2.55421
0.373972
0.0875897
0.0294412
0.0129177
0.00687437
0.0042071
0.00285234
0.00208708
0.00161809
0.00131182
0.0011015
0.000951146
0.000840086
0.000755825
0.000690462
0.000638812
0.000597358
0.000563645
0.00053592
2.55421
0.373972
0.0875897
0.0294412
0.0129177
0.00687436
0.0042071
0.00285233
0.00208707
0.00161809
0.00131181
0.0011015
0.000951144
0.000840084
0.000755823
0.000690461
0.000638811
0.000597356
0.000563644
0.000535919
2.55421
0.373972
0.0875897
0.0294412
0.0129177
0.00687436
0.0042071
0.00285233
0.00208707
0.00161808
0.00131181
0.0011015
0.000951142
0.000840083
0.000755822
0.000690459
0.000638809
0.000597355
0.000563643
0.000535917
2.55421
0.373972
0.0875897
0.0294412
0.0129177
0.00687435
0.00420709
0.00285233
0.00208707
0.00161808
0.00131181
0.0011015
0.000951141
0.000840081
0.00075582
0.000690458
0.000638808
0.000597354
0.000563642
0.000535916
2.55421
0.373972
0.0875896
0.0294412
0.0129177
0.00687435
0.00420709
0.00285232
0.00208707
0.00161808
0.00131181
0.00110149
0.000951139
0.00084008
0.000755819
0.000690457
0.000638807
0.000597353
0.00056364
0.000535915
2.55421
0.373972
0.0875896
0.0294412
0.0129177
0.00687435
0.00420709
0.00285232
0.00208707
0.00161808
0.00131181
0.00110149
0.000951138
0.000840079
0.000755818
0.000690456
0.000638806
0.000597352
0.000563639
0.000535914
2.55421
0.373972
0.0875896
0.0294412
0.0129177
0.00687435
0.00420709
0.00285232
0.00208706
0.00161808
0.00131181
0.00110149
0.000951137
0.000840078
0.000755817
0.000690455
0.000638805
0.000597351
0.000563639
0.000535914
2.55421
0.373972
0.0875896
0.0294412
0.0129177
0.00687435
0.00420709
0.00285232
0.00208706
0.00161808
0.00131181
0.00110149
0.000951136
0.000840077
0.000755816
0.000690454
0.000638804
0.00059735
0.000563638
0.000535913
2.55421
0.373972
0.0875896
0.0294412
0.0129177
0.00687435
0.00420709
0.00285232
0.00208706
0.00161808
0.00131181
0.00110149
0.000951136
0.000840077
0.000755816
0.000690454
0.000638805
0.00059735
0.000563638
0.000535913
2.55421
0.373972
0.0875897
0.0294412
0.0129177
0.00687435
0.00420709
0.00285232
0.00208706
0.00161808
0.0013118
0.00110149
0.000951135
0.000840076
0.000755815
0.000690453
0.000638804
0.000597349
0.000563637
0.000535912
2.55421
0.373972
0.0875897
0.0294412
0.0129177
0.00687436
0.0042071
0.00285233
0.00208707
0.00161808
0.00131181
0.0011015
0.00095114
0.00084008
0.000755819
0.000690456
0.000638807
0.000597352
0.00056364
0.000535915
2.55421
0.373972
0.0875897
0.0294412
0.0129177
0.00687436
0.00420709
0.00285233
0.00208707
0.00161808
0.00131181
0.00110149
0.000951137
0.000840078
0.000755817
0.000690454
0.000638805
0.00059735
0.000563638
0.000535913
2.55421
0.373973
0.08759
0.0294414
0.0129178
0.00687443
0.00420714
0.00285236
0.0020871
0.0016181
0.00131183
0.00110151
0.000951154
0.000840093
0.000755831
0.000690467
0.000638817
0.000597362
0.000563649
0.000535923
0.00071393
0.0018807
0.00381847
0.00667439
0.0105637
0.0155606
0.0216916
0.0289322
0.0372068
0.0463921
0.0563243
0.0668084
0.0776294
0.0885642
0.0993939
0.109914
0.119942
0.129326
0.137945
0.145712
0.152574
0.158508
0.163516
0.167627
0.170887
0.173359
0.175116
0.176241
0.176818
0.176931
0.17666
0.176079
0.175251
0.174233
0.17307
0.171797
0.170444
0.169029
0.167574
0.16608
0.164572
0.16303
0.161496
0.159922
0.158383
0.156783
0.155258
0.153633
0.152143
0.150493
0.149062
0.147388
0.146036
0.144344
0.143089
0.141391
0.140244
0.138563
0.137528
0.13589
0.134974
0.133401
0.132612
0.13112
0.130469
0.129069
0.128562
0.127258
0.126892
0.125679
0.125445
0.12431
0.124186
0.123107
0.123065
0.122015
0.12202
0.12097
0.120971
0.119916
0.000509932
0.000490077
0.000479579
0.000483598
0.000508453
0.000561327
0.000650071
0.000782678
0.000966626
0.00120828
0.00151232
0.00188136
0.00231569
0.00281323
0.00336962
0.00397848
0.00463176
0.00532036
0.00603467
0.00676514
0.00750261
0.00823855
0.00896486
0.00967401
0.0103589
0.0110131
0.0116317
0.012211
0.0127497
0.0132489
0.0137116
0.0141428
0.014549
0.0149366
0.0153135
0.0156849
0.0160586
0.016437
0.0168279
0.01723
0.0176524
0.0180896
0.0185538
0.0190348
0.019549
0.020082
0.0206539
0.021248
0.0218846
0.0225496
0.0232572
0.024002
0.0247859
0.025617
0.026481
0.0273993
0.0283452
0.0293448
0.0303704
0.0314375
0.0325335
0.0336465
0.0347943
0.0359233
0.0370949
0.0382011
0.0393607
0.0403979
0.0415058
0.0424241
0.0434414
0.0441929
0.0450911
0.0456349
0.0464039
0.0467094
0.0473697
0.0474152
0.0480202
0.0477647
0.000509022
0.000484019
0.00046017
0.000437475
0.000415959
0.000395669
0.000376686
0.000359121
0.000343117
0.00032885
0.000316518
0.000306339
0.000298541
0.00029335
0.000290981
0.000291621
0.000295419
0.000302479
0.000312849
0.000326519
0.000343406
0.000363351
0.000386089
0.000411253
0.000438365
0.000466868
0.000496166
0.00052569
0.000554979
0.000583707
0.000611786
0.000639255
0.000666464
0.000693716
0.000721727
0.000750811
0.000781988
0.000815285
0.000852132
0.000891929
0.000936858
0.000985278
0.00104071
0.0010999
0.00116843
0.00124096
0.0013257
0.00141498
0.00151964
0.0016305
0.00175959
0.00189863
0.00205764
0.00223342
0.00242923
0.002652
0.00289341
0.00317475
0.00347273
0.00382467
0.00419172
0.00462645
0.00507489
0.00560359
0.00614329
0.00677392
0.00740999
0.00814387
0.00887434
0.00970279
0.0105158
0.0114184
0.0122918
0.0132354
0.0141363
0.0150778
0.0159694
0.0168629
0.0177142
0.0185234
0.000509038
0.000484022
0.000460122
0.000437297
0.000415507
0.000394714
0.00037488
0.000355969
0.000337949
0.000320786
0.000304452
0.000288917
0.000274157
0.000260147
0.000246866
0.000234295
0.000222414
0.000211209
0.000200663
0.000190763
0.000181496
0.000172848
0.000164805
0.000157348
0.000150457
0.000144102
0.000138252
0.000132871
0.00012792
0.000123363
0.000119171
0.00011532
0.000111802
0.000108606
0.000105749
0.000103228
0.000101089
9.93194e-05
9.80023e-05
9.70913e-05
9.67357e-05
9.68157e-05
9.75995e-05
9.88326e-05
0.000100984
0.000103583
0.000107409
0.000111682
0.000117592
0.000124006
0.000132555
0.000141831
0.000153777
0.000167001
0.00018341
0.000202149
0.000224575
0.000251036
0.000281773
0.000318947
0.000361296
0.000413264
0.00047173
0.000543994
0.0006244
0.000724168
0.000833678
0.000969816
0.00111682
0.00129946
0.00149284
0.00173284
0.00198116
0.00228897
0.00259838
0.00298325
0.00335604
0.00382725
0.00426133
0.00485044
0.000509065
0.000484049
0.000460148
0.000437321
0.000415529
0.000394731
0.00037489
0.000355968
0.00033793
0.000320741
0.000304367
0.000288774
0.000273933
0.000259812
0.000246382
0.000233614
0.000221483
0.000209962
0.000199027
0.000188654
0.00017882
0.000169504
0.000160686
0.000152347
0.000144467
0.00013703
0.000130018
0.000123414
0.000117205
0.000111374
0.000105909
0.000100796
9.6025e-05
9.15837e-05
8.74634e-05
8.36551e-05
8.01523e-05
7.69474e-05
7.40371e-05
7.14144e-05
6.90808e-05
6.70286e-05
6.52661e-05
6.37825e-05
6.25974e-05
6.16929e-05
6.11057e-05
6.08057e-05
6.0854e-05
6.12035e-05
6.19458e-05
6.30161e-05
6.45373e-05
6.64359e-05
6.88568e-05
7.1741e-05
7.52355e-05
7.93346e-05
8.416e-05
8.98038e-05
9.63437e-05
0.000104016
0.000112838
0.000123251
0.000135178
0.000149381
0.000165575
0.000185063
0.000207132
0.00023395
0.000264001
0.000300881
0.000341625
0.000392084
0.000446761
0.000515358
0.00058792
0.000681245
0.000777238
0.000915344
0.000509077
0.000484064
0.000460166
0.000437341
0.000415549
0.000394751
0.00037491
0.000355988
0.000337949
0.000320758
0.000304382
0.000288788
0.000273944
0.00025982
0.000246386
0.000233615
0.000221478
0.000209951
0.000199008
0.000188625
0.000178779
0.000169449
0.000160613
0.000152254
0.00014435
0.000136886
0.000129843
0.000123207
0.000116961
0.000111093
0.000105587
0.000100433
9.5618e-05
9.11314e-05
8.69635e-05
8.3105e-05
7.95478e-05
7.62845e-05
7.33088e-05
7.06147e-05
6.8198e-05
6.60546e-05
6.41823e-05
6.25786e-05
6.12443e-05
6.0178e-05
5.93839e-05
5.88615e-05
5.86189e-05
5.86559e-05
5.89849e-05
5.96055e-05
6.0534e-05
6.17701e-05
6.3333e-05
6.5223e-05
6.74605e-05
7.00483e-05
7.30055e-05
7.63396e-05
8.0067e-05
8.4202e-05
8.87583e-05
9.37598e-05
9.92168e-05
0.000105171
0.000111623
0.000118649
0.00012623
0.000134499
0.000143396
0.000153155
0.000163635
0.000175235
0.000187659
0.000201607
0.000216498
0.000233661
0.00025199
0.000275855
0.000509094
0.000484082
0.000460184
0.000437358
0.000415565
0.000394767
0.000374924
0.000356001
0.000337961
0.000320769
0.000304392
0.000288797
0.000273953
0.000259828
0.000246394
0.000233622
0.000221485
0.000209957
0.000199013
0.000188629
0.000178782
0.000169451
0.000160614
0.000152253
0.000144347
0.00013688
0.000129835
0.000123194
0.000116944
0.000111071
0.00010556
0.000100399
9.55779e-05
9.10842e-05
8.69086e-05
8.30418e-05
7.94755e-05
7.62022e-05
7.32152e-05
7.05088e-05
6.8078e-05
6.59189e-05
6.40286e-05
6.24047e-05
6.1047e-05
5.99544e-05
5.91293e-05
5.85722e-05
5.82883e-05
5.82787e-05
5.85517e-05
5.91087e-05
5.99601e-05
6.11077e-05
6.25626e-05
6.43265e-05
6.64099e-05
6.8814e-05
7.15469e-05
7.46085e-05
7.80028e-05
8.17271e-05
8.57799e-05
9.0154e-05
9.48411e-05
9.98276e-05
0.000105096
0.000110626
0.000116389
0.000122356
0.000128486
0.000134746
0.000141079
0.000147456
0.000153802
0.000160106
0.000166278
0.000172371
0.000178268
0.000184431
0.000509111
0.000484101
0.000460204
0.00043738
0.000415587
0.000394789
0.000374946
0.000356023
0.000337982
0.00032079
0.000304412
0.000288815
0.00027397
0.000259843
0.000246408
0.000233634
0.000221495
0.000209966
0.00019902
0.000188634
0.000178786
0.000169452
0.000160614
0.00015225
0.000144342
0.000136872
0.000129824
0.000123181
0.000116928
0.000111052
0.000105537
0.000100373
9.55471e-05
9.10486e-05
8.68674e-05
8.29943e-05
7.94209e-05
7.61396e-05
7.31436e-05
7.04269e-05
6.79847e-05
6.58127e-05
6.3908e-05
6.22679e-05
6.08919e-05
5.97788e-05
5.89306e-05
5.83474e-05
5.80339e-05
5.79911e-05
5.82261e-05
5.87403e-05
5.95428e-05
6.06349e-05
6.20264e-05
6.37184e-05
6.57194e-05
6.80297e-05
7.06551e-05
7.3594e-05
7.68478e-05
8.04112e-05
8.42797e-05
8.84423e-05
9.28868e-05
9.7594e-05
0.000102542
0.000107701
0.000113036
0.000118505
0.00012406
0.000129644
0.000135193
0.00014064
0.000145907
0.000150922
0.000155598
0.000159877
0.000163669
0.000167
0.000509124
0.000484114
0.000460217
0.000437392
0.0004156
0.000394801
0.000374958
0.000356033
0.000337992
0.000320799
0.00030442
0.000288824
0.000273977