/*--------------------------------*- C++ -*----------------------------------*\
| =========                 |                                                 |
| \\      /  F ield         | OpenFOAM: The Open Source CFD Toolbox           |
|  \\    /   O peration     | Version:  2.4.0                                 |
|   \\  /    A nd           | Web:      www.OpenFOAM.org                      |
|    \\/     M anipulation  |                                                 |
\*---------------------------------------------------------------------------*/
FoamFile
{
    version     2.0;
    format      ascii;
    class       volScalarField;
    location    "7.23";
    object      nut;
}
// * * * * * * * * * * * * * * * * * * * * * * * * * * * * * * * * * * * * * //

dimensions      [0 2 -1 0 0 0 0];

internalField   nonuniform List<scalar> 
6000
(
1.24054e-05
1.01565e-05
5.68971e-06
3.08105e-06
1.718e-06
2.89193e-06
2.6445e-06
3.49447e-06
3.80183e-06
4.46266e-06
4.96143e-06
5.6006e-06
6.1991e-06
6.86014e-06
7.51203e-06
8.18452e-06
8.85004e-06
9.51586e-06
1.01714e-05
1.08175e-05
1.14521e-05
1.20944e-05
1.27434e-05
1.33701e-05
1.39725e-05
1.45483e-05
1.5095e-05
1.56105e-05
1.60927e-05
1.65396e-05
1.69508e-05
1.73233e-05
1.76536e-05
1.79404e-05
1.81818e-05
1.83759e-05
1.85211e-05
1.8616e-05
1.86591e-05
1.86501e-05
1.85867e-05
1.84709e-05
1.82985e-05
1.80751e-05
1.77949e-05
1.74606e-05
1.72944e-05
1.71816e-05
1.69897e-05
1.68195e-05
1.65285e-05
1.63242e-05
1.59179e-05
1.57243e-05
1.51721e-05
1.50674e-05
1.43146e-05
1.4441e-05
1.34274e-05
1.42728e-05
2.33582e-05
3.47763e-05
1.72152e-05
7.91007e-06
4.0694e-06
6.56262e-06
1.19894e-05
1.41737e-05
1.84462e-05
2.25406e-05
2.67932e-05
3.1777e-05
3.66526e-05
4.23036e-05
4.8003e-05
5.41941e-05
6.04679e-05
6.69773e-05
7.35368e-05
8.01709e-05
8.67332e-05
9.30363e-05
9.90445e-05
0.000104969
0.000110819
0.000116587
0.000122256
0.000127817
0.000133259
0.00013857
0.000143703
0.000148427
0.000152952
0.000157266
0.000161354
0.000165199
0.000168782
0.000172086
0.000175089
0.00017778
0.000180126
0.000182127
0.000183736
0.000184965
0.000185739
0.000185945
0.000182383
0.000177168
0.000171434
0.000164933
0.000157986
0.000150364
0.000142285
0.00013378
0.00012465
0.00011562
0.000104962
9.62985e-05
8.43185e-05
7.9191e-05
2.89001e-05
5.0312e-05
2.44378e-05
9.90166e-06
9.37399e-06
1.54594e-05
2.60781e-05
3.23709e-05
4.10809e-05
5.05614e-05
5.97684e-05
7.07719e-05
8.15101e-05
9.38449e-05
0.000106349
0.000119815
0.000133489
0.000147609
0.000161829
0.000176157
0.000190322
0.00020409
0.000217435
0.000230595
0.00024357
0.000256328
0.000268831
0.000281046
0.000292939
0.00030446
0.000315497
0.000325769
0.000335555
0.000344832
0.000353559
0.000361698
0.000369204
0.000376041
0.000382158
0.000387526
0.000392079
0.000395812
0.000398628
0.000400527
0.000401325
0.000400623
0.000394339
0.000385414
0.000375127
0.000363513
0.000350505
0.000336553
0.000320844
0.000305081
0.000286617
0.000269934
0.000248069
0.000232123
0.000206214
0.000201159
3.21952e-05
5.72162e-05
2.78227e-05
1.06863e-05
1.55022e-05
2.57504e-05
4.02233e-05
5.12949e-05
6.43208e-05
7.91216e-05
9.34083e-05
0.000110198
0.000126818
0.000145556
0.000164701
0.000185124
0.000205921
0.000227307
0.000248851
0.000270512
0.000291961
0.000312969
0.000333499
0.000353737
0.000373659
0.000393209
0.000412322
0.000430942
0.00044901
0.000466444
0.000483089
0.000498686
0.000513501
0.000527495
0.000540607
0.000552777
0.000563938
0.000574033
0.000582989
0.000590759
0.00059725
0.000602444
0.000606206
0.000608503
0.000609006
0.000607211
0.00059929
0.000588161
0.000574882
0.000559854
0.000542539
0.000524098
0.000502716
0.000481604
0.000455998
0.00043353
0.000403067
0.000381514
0.000346703
0.000342085
3.39567e-05
5.94466e-05
3.42319e-05
1.13629e-05
2.07602e-05
3.50953e-05
5.2847e-05
6.85638e-05
8.58307e-05
0.000105542
0.000124775
0.000146909
0.000169123
0.000193784
0.000219134
0.000245989
0.00027339
0.000301489
0.000329803
0.000358239
0.000386438
0.000414179
0.0004414
0.000468221
0.000494591
0.000520427
0.000545639
0.00057015
0.00059388
0.000616724
0.000638493
0.000658973
0.00067839
0.000696691
0.000713798
0.000729634
0.000744113
0.000757162
0.000768687
0.000778629
0.000786872
0.000793381
0.000797996
0.000800631
0.000800818
0.000798158
0.0007893
0.000776851
0.000761618
0.000744245
0.000723902
0.00070217
0.000676677
0.000651442
0.000620634
0.000593462
0.000556871
0.000530421
0.000489965
0.000485
3.49043e-05
5.90457e-05
4.15966e-05
1.17598e-05
2.37229e-05
4.26697e-05
6.34436e-05
8.35944e-05
0.000105001
0.000129243
0.000153205
0.000180282
0.000207747
0.000237875
0.000268972
0.000301746
0.000335229
0.000369492
0.000404022
0.000438675
0.000473078
0.000507007
0.000540372
0.000573227
0.000605493
0.000637062
0.000667822
0.000697675
0.000726524
0.000754255
0.000780635
0.000805514
0.00082907
0.000851238
0.000871925
0.000891041
0.000908487
0.000924176
0.000938
0.000949888
0.000959709
0.00096741
0.000972809
0.000975761
0.000975707
0.000972467
0.000963131
0.000949926
0.000933453
0.000914468
0.000892032
0.000867864
0.000839446
0.000810989
0.000776487
0.00074541
0.000704622
0.000673761
0.000629875
0.000623542
3.5415e-05
5.72039e-05
4.71216e-05
1.43776e-05
2.31485e-05
4.81303e-05
7.18253e-05
9.62722e-05
0.000121695
0.000150159
0.000178614
0.000210287
0.000242668
0.000277855
0.000314271
0.000352492
0.00039157
0.000431488
0.000471718
0.000512067
0.000552153
0.000591746
0.000630723
0.000669079
0.000706706
0.000743475
0.000779251
0.000813917
0.000847367
0.000879482
0.00090998
0.000938788
0.000966032
0.000991637
0.0010155
0.00103752
0.00105759
0.00107562
0.00109148
0.00110509
0.00111632
0.00112508
0.0011312
0.00113445
0.00113427
0.00113069
0.00112118
0.0011076
0.00109039
0.00107033
0.00104649
0.00102054
0.0009901
0.000959136
0.000922099
0.000887794
0.000844276
0.000809469
0.000763755
0.000755146
3.56743e-05
5.46516e-05
5.08086e-05
2.14512e-05
2.03025e-05
5.1205e-05
7.79008e-05
0.000106596
0.000135911
0.000168356
0.000201073
0.000237046
0.00027403
0.000313916
0.000355258
0.000398504
0.00044273
0.000487843
0.000533301
0.000578869
0.000624158
0.000668928
0.000713022
0.000756383
0.000798877
0.00084035
0.00088065
0.000919644
0.000957215
0.000993254
0.00102741
0.00105971
0.00109023
0.00111887
0.00114553
0.00117011
0.00119248
0.00121255
0.0012302
0.00124532
0.00125779
0.0012675
0.00127426
0.00127777
0.00127762
0.00127386
0.00126439
0.00125068
0.0012331
0.00121235
0.00118763
0.0011604
0.00112864
0.00109576
0.00105708
0.00102015
0.000975009
0.000936742
0.00089035
0.000878799
3.57842e-05
5.18379e-05
5.29256e-05
2.99118e-05
1.84164e-05
5.15897e-05
8.1611e-05
0.00011458
0.00014768
0.000183918
0.000220685
0.000260703
0.000302008
0.000346271
0.000392187
0.000440077
0.000489051
0.000538942
0.000589202
0.000639557
0.000689614
0.000739117
0.000787877
0.000835792
0.000882702
0.000928432
0.00097281
0.00101569
0.00105695
0.00109648
0.00113391
0.0011693
0.0012027
0.00123402
0.00126314
0.00128995
0.00131433
0.00133619
0.00135538
0.00137182
0.00138536
0.0013959
0.00140321
0.00140697
0.00140695
0.00140315
0.00139384
0.00138017
0.00136247
0.00134133
0.00131613
0.00128803
0.00125547
0.00122118
0.00118153
0.00114252
0.0010966
0.00105537
0.00100913
0.000994208
3.58064e-05
4.90333e-05
5.37462e-05
3.79945e-05
1.91658e-05
4.89935e-05
8.29189e-05
0.000120231
0.000157029
0.000196923
0.000237547
0.00028139
0.000326761
0.00037512
0.000425293
0.000477488
0.000530849
0.000585145
0.000639822
0.000694577
0.000749008
0.000802842
0.000855862
0.000907926
0.000958847
0.00100843
0.00105649
0.00110287
0.00114743
0.00119007
0.0012304
0.00126854
0.00130448
0.00133815
0.00136941
0.00139817
0.00142431
0.0014477
0.00146823
0.0014858
0.00150027
0.00151151
0.0015193
0.00152331
0.00152347
0.0015197
0.00151063
0.00149712
0.00147949
0.00145817
0.00143277
0.00140414
0.00137118
0.0013359
0.00129582
0.00125522
0.00120916
0.00116545
0.00111994
0.00110143
3.57786e-05
4.6392e-05
5.35441e-05
4.46957e-05
2.31335e-05
4.36256e-05
8.18323e-05
0.000123545
0.000163979
0.000207426
0.000251741
0.00029922
0.000348428
0.00040063
0.000454778
0.000510974
0.000568401
0.000626767
0.000685519
0.000744323
0.000802774
0.00086058
0.000917498
0.000973348
0.00102792
0.001081
0.00113239
0.00118192
0.00122944
0.00127485
0.00131777
0.00135833
0.00139652
0.00143225
0.00146539
0.00149584
0.00152348
0.0015482
0.00156988
0.00158841
0.00160366
0.00161549
0.00162367
0.00162794
0.00162831
0.00162463
0.00161583
0.00160255
0.0015851
0.00156378
0.00153839
0.00150947
0.00147644
0.00144052
0.00140042
0.00135866
0.00131294
0.00126724
0.00122288
0.00120071
3.57236e-05
4.39936e-05
5.25782e-05
4.98139e-05
2.97693e-05
3.72701e-05
7.84598e-05
0.000124522
0.000168542
0.00021547
0.000263328
0.000314279
0.000367122
0.000422944
0.000480814
0.000540742
0.000601945
0.000664083
0.000726603
0.000789145
0.0008513
0.000912756
0.000973248
0.00103256
0.00109047
0.00114673
0.00120114
0.00125351
0.00130369
0.00135157
0.00139681
0.00143952
0.00147969
0.00151722
0.001552
0.00158392
0.00161286
0.0016387
0.00166135
0.00168069
0.00169658
0.0017089
0.0017174
0.00172192
0.0017225
0.00171893
0.00171042
0.0016974
0.0016802
0.001659
0.00163378
0.00160479
0.00157191
0.00153565
0.00149584
0.00145331
0.00140831
0.00136107
0.00131814
0.00129237
3.5655e-05
4.18698e-05
5.10794e-05
5.33674e-05
3.69536e-05
3.22725e-05
7.30961e-05
0.000123188
0.000170732
0.000221084
0.000272357
0.000326637
0.000382932
0.000442178
0.000503545
0.000566964
0.000631687
0.000697331
0.000763344
0.000829346
0.000894921
0.000959742
0.00102352
0.00108601
0.00114697
0.00120614
0.00126329
0.00131823
0.00137081
0.00142091
0.00146821
0.00151283
0.00155475
0.00159387
0.00163007
0.00166326
0.00169331
0.00172012
0.00174357
0.00176358
0.00178
0.0017927
0.00180146
0.00180622
0.00180698
0.00180353
0.0017953
0.00178255
0.00176565
0.00174464
0.00171971
0.00169079
0.00165826
0.0016219
0.00158263
0.00153968
0.00149566
0.00144731
0.001406
0.00137676
3.55811e-05
4.0023e-05
4.92428e-05
5.5495e-05
4.35771e-05
3.03185e-05
6.63139e-05
0.000119632
0.000170581
0.000224298
0.000278867
0.000336351
0.000395935
0.000458427
0.00052309
0.000589787
0.000657801
0.000726712
0.000795975
0.000865188
0.000933932
0.00100186
0.00106867
0.00113409
0.00119785
0.00125968
0.00131934
0.00137662
0.00143136
0.00148345
0.0015326
0.00157893
0.00162239
0.00166291
0.00170035
0.00173463
0.00176563
0.00179325
0.00181738
0.00183793
0.00185477
0.00186775
0.00187674
0.00188168
0.00188259
0.00187925
0.00187127
0.0018588
0.00184221
0.00182144
0.00179686
0.00176816
0.00173609
0.00169985
0.00166129
0.00161822
0.0015754
0.00152632
0.00148676
0.00145427
3.55071e-05
3.84387e-05
4.7226e-05
5.63918e-05
4.92741e-05
3.34929e-05
5.92182e-05
0.000114058
0.000168158
0.00022515
0.000282899
0.00034347
0.000406192
0.000471771
0.000539551
0.000609334
0.000680435
0.000752404
0.000824698
0.000896903
0.000968592
0.00103941
0.00110903
0.00117715
0.00124349
0.00130777
0.00136972
0.00142913
0.00148585
0.00153973
0.00159054
0.00163839
0.00168323
0.00172497
0.0017635
0.00179872
0.00183052
0.00185881
0.0018835
0.00190448
0.00192163
0.00193482
0.00194399
0.00194907
0.00195008
0.00194684
0.00193907
0.00192685
0.00191057
0.00189009
0.0018659
0.0018375
0.00180599
0.00177004
0.00173233
0.0016894
0.00164793
0.00159848
0.00156074
0.00152525
3.54358e-05
3.70935e-05
4.51511e-05
5.62726e-05
5.38747e-05
3.95033e-05
5.32093e-05
0.000106848
0.000163595
0.0002237
0.0002845
0.000348044
0.000413761
0.000482282
0.000553016
0.000625713
0.000699721
0.000774559
0.000849691
0.00092469
0.000999127
0.00107263
0.00114485
0.00121549
0.00128422
0.00135076
0.00141483
0.00147619
0.0015347
0.0015902
0.00164252
0.00169173
0.00173779
0.00178061
0.00182008
0.00185611
0.0018886
0.00191745
0.00194257
0.00196388
0.00198126
0.0019946
0.00200389
0.00200905
0.00201012
0.00200695
0.00199935
0.00198735
0.00197136
0.00195117
0.00192741
0.00189938
0.00186849
0.00183297
0.00179621
0.00175364
0.00171364
0.00166414
0.00162826
0.00159006
3.53691e-05
3.59605e-05
4.31082e-05
5.53517e-05
5.73049e-05
4.64197e-05
4.94573e-05
9.86193e-05
0.000157122
0.000220052
0.000283737
0.000350129
0.000418703
0.000490026
0.000563564
0.000639021
0.000715772
0.000793311
0.000871109
0.000948729
0.00102574
0.00110175
0.0011764
0.00124937
0.00132034
0.00138897
0.00145499
0.00151815
0.0015783
0.00163528
0.00168896
0.00173939
0.00178655
0.00183032
0.00187062
0.00190734
0.00194041
0.00196971
0.00199518
0.00201672
0.00203425
0.00204769
0.00205704
0.00206222
0.00206331
0.00206016
0.00205269
0.00204088
0.00202516
0.00200526
0.00198192
0.00195431
0.00192409
0.00188911
0.00185337
0.00181135
0.00177291
0.00172363
0.00168964
0.00164903
3.53077e-05
3.50122e-05
4.11604e-05
5.3831e-05
5.9567e-05
5.31064e-05
5.00169e-05
9.0298e-05
0.000149094
0.000214373
0.000280708
0.000349802
0.000421083
0.000495073
0.000571272
0.000649347
0.000728693
0.000808783
0.000889093
0.000969178
0.0010486
0.00112696
0.0012039
0.00127905
0.00135209
0.00142268
0.00149051
0.00155534
0.00161699
0.00167532
0.00173024
0.00178179
0.00182992
0.00187454
0.00191556
0.00195288
0.00198642
0.00201609
0.00204182
0.00206352
0.00208113
0.00209461
0.00210395
0.00210911
0.00211018
0.00210701
0.00209962
0.00208795
0.00207247
0.00205285
0.00202993
0.00200277
0.00197323
0.00193887
0.00190421
0.00186291
0.00182607
0.00177728
0.00174516
0.00170247
3.5252e-05
3.42226e-05
3.93488e-05
5.18918e-05
6.07233e-05
5.89798e-05
5.39794e-05
8.29699e-05
0.000140026
0.000206913
0.000275563
0.000347165
0.000420987
0.000497501
0.000576222
0.000656779
0.000738584
0.000821087
0.00090377
0.00098618
0.00106788
0.00114845
0.00122752
0.00130473
0.00137972
0.00145214
0.00152166
0.00158803
0.00165107
0.00171065
0.0017667
0.00181926
0.00186827
0.00191364
0.00195529
0.00199313
0.00202706
0.00205702
0.00208292
0.00210472
0.00212236
0.00213581
0.0021451
0.00215019
0.00215117
0.00214795
0.0021406
0.00212903
0.00211374
0.00209438
0.00207187
0.00204516
0.00201633
0.00198265
0.00194909
0.00190865
0.00187345
0.00182538
0.00179512
0.00175067
3.52019e-05
3.35679e-05
3.7697e-05
4.96914e-05
6.08805e-05
6.37424e-05
5.9655e-05
7.7965e-05
0.000130591
0.000198028
0.000268508
0.00034236
0.000418524
0.000497404
0.000578502
0.000661408
0.000745542
0.000830331
0.00091526
0.000999869
0.00108371
0.00116638
0.00124747
0.00132661
0.00140343
0.00147757
0.00154867
0.00161648
0.00168081
0.00174153
0.00179863
0.00185211
0.00190192
0.00194797
0.00199017
0.00202844
0.00206269
0.00209287
0.00211889
0.00214073
0.00215834
0.00217172
0.0021809
0.00218586
0.00218672
0.00218341
0.00217603
0.00216453
0.00214938
0.00213027
0.00210813
0.00208189
0.00205375
0.00202081
0.00198837
0.00194889
0.00191536
0.0018682
0.00183979
0.00179391
3.51572e-05
3.3027e-05
3.62151e-05
4.73611e-05
6.01755e-05
6.72612e-05
6.5735e-05
7.6818e-05
0.000121598
0.000188188
0.000259829
0.00033558
0.000413837
0.000494899
0.000578217
0.000663334
0.00074967
0.000836623
0.00092368
0.00101037
0.00109625
0.00118089
0.00126388
0.00134485
0.0014234
0.00149916
0.00157176
0.00164091
0.00170644
0.00176823
0.0018263
0.00188062
0.00193116
0.00197781
0.0020205
0.00205913
0.00209365
0.00212398
0.00215007
0.00217188
0.00218942
0.00220268
0.0022117
0.0022165
0.00221719
0.00221374
0.0022063
0.00219481
0.00217978
0.00216086
0.00213907
0.0021133
0.00208584
0.00205367
0.00202236
0.00198394
0.00195207
0.00190601
0.00187941
0.00183245
3.51175e-05
3.25816e-05
3.49038e-05
4.50062e-05
5.87622e-05
6.95082e-05
7.1459e-05
7.91394e-05
0.000113876
0.000177969
0.000249894
0.000327075
0.000407111
0.000490132
0.000575491
0.00066267
0.000751079
0.000840075
0.000929144
0.00101781
0.00110561
0.00119212
0.00127693
0.00135962
0.00143981
0.00151711
0.00159111
0.00166153
0.00172817
0.00179097
0.00184994
0.00190504
0.00195623
0.00200343
0.00204654
0.00208549
0.00212021
0.00215064
0.00217675
0.0021985
0.00221592
0.00222901
0.00223783
0.00224242
0.0022429
0.00223927
0.00223172
0.0022202
0.00220524
0.0021865
0.00216503
0.00213971
0.00211292
0.00208154
0.00205135
0.00201405
0.00198385
0.00193903
0.00191424
0.00186651
3.50825e-05
3.22161e-05
3.37568e-05
4.27077e-05
5.67996e-05
7.05284e-05
7.63685e-05
8.34685e-05
0.000109259
0.000168019
0.000239155
0.000317165
0.000398582
0.000483288
0.000570477
0.000659551
0.00074989
0.000840806
0.000931773
0.0010223
0.00111193
0.00120022
0.00128673
0.00137107
0.00145282
0.00153156
0.0016069
0.00167851
0.0017462
0.00180994
0.00186974
0.00192557
0.00197737
0.00202506
0.00206854
0.00210775
0.00214263
0.00217312
0.00219919
0.00222085
0.00223811
0.00225099
0.00225958
0.00226391
0.00226415
0.00226031
0.0022526
0.00224101
0.00222608
0.00220748
0.00218629
0.00216141
0.00213525
0.00210468
0.00207559
0.00203949
0.00201094
0.00196751
0.00194449
0.00189631
3.50517e-05
3.19169e-05
3.27638e-05
4.05246e-05
5.4443e-05
7.04203e-05
8.01884e-05
8.85976e-05
0.000108194
0.000159274
0.000228132
0.000306228
0.000388536
0.000474591
0.000563359
0.000654131
0.000746244
0.000838945
0.000931691
0.00102398
0.00111533
0.0012053
0.00129344
0.00137933
0.00146256
0.00154269
0.00161928
0.00169201
0.00176069
0.00182531
0.00188591
0.0019424
0.00199476
0.00204289
0.0020867
0.00212613
0.00216112
0.00219163
0.00221764
0.00223916
0.00225622
0.00226886
0.00227718
0.00228122
0.00228119
0.00227709
0.0022692
0.0022575
0.00224255
0.00222406
0.00220312
0.00217865
0.00215312
0.00212334
0.00209535
0.00206048
0.00203357
0.00199164
0.00197037
0.00192206
3.50247e-05
3.16728e-05
3.19118e-05
3.84967e-05
5.18358e-05
6.93201e-05
8.27703e-05
9.3665e-05
0.000109912
0.000153039
0.000217379
0.000294699
0.000377313
0.00046431
0.000554354
0.000646595
0.000740302
0.000834639
0.000929036
0.00102297
0.00111595
0.0012075
0.00129717
0.00138454
0.00146917
0.00155061
0.0016284
0.0017022
0.0017718
0.00183726
0.0018986
0.00195572
0.00200859
0.00205712
0.00210121
0.00214082
0.00217589
0.00220638
0.0022323
0.00225365
0.00227048
0.00228285
0.00229086
0.00229459
0.00229424
0.00228986
0.00228175
0.0022699
0.0022549
0.00223649
0.00221577
0.00219168
0.00216674
0.00213776
0.00211084
0.00207724
0.00205194
0.00201161
0.00199208
0.00194394
3.5001e-05
3.14743e-05
3.11865e-05
3.6648e-05
4.91053e-05
6.7389e-05
8.40611e-05
9.8089e-05
0.000113366
0.000149627
0.000208076
0.000283044
0.000365297
0.000452756
0.000543719
0.000637155
0.000732247
0.000828049
0.000923956
0.00101942
0.00111391
0.00120694
0.00129807
0.00138683
0.00147279
0.00155548
0.0016344
0.00170919
0.00177967
0.00184593
0.00190796
0.00196566
0.00201901
0.00206789
0.00211223
0.00215198
0.00218709
0.00221755
0.00224334
0.0022645
0.00228108
0.00229314
0.00230082
0.00230421
0.00230352
0.00229883
0.00229046
0.00227843
0.00226335
0.00224498
0.00222444
0.00220072
0.00217633
0.00214815
0.00212227
0.00208997
0.00206626
0.00202762
0.0020098
0.00196214
3.49803e-05
3.13135e-05
3.05738e-05
3.49893e-05
4.63584e-05
6.48009e-05
8.40845e-05
0.00010149
0.000117577
0.000148805
0.000200846
0.000272163
0.000352928
0.000440276
0.000531743
0.000626056
0.000722288
0.000819358
0.000916613
0.00101346
0.00110935
0.00120378
0.00129626
0.00138633
0.00147355
0.00155741
0.00163739
0.00171312
0.00178444
0.00185145
0.00191413
0.00197237
0.00202615
0.00207535
0.0021199
0.00215977
0.0021949
0.00222529
0.00225093
0.00227187
0.00228817
0.00229991
0.00230724
0.00231026
0.0023092
0.00230418
0.00229552
0.00228329
0.00226809
0.00224973
0.00222935
0.00220597
0.00218211
0.00215471
0.00212984
0.00209885
0.0020767
0.00203983
0.00202372
0.0019768
3.49623e-05
3.11836e-05
3.00597e-05
3.35217e-05
4.36814e-05
6.1732e-05
8.2926e-05
0.000103635
0.000121755
0.000149956
0.000195977
0.000262602
0.000340909
0.000427364
0.000518746
0.000613567
0.000710658
0.000808769
0.000907187
0.00100527
0.00110243
0.00119813
0.00129187
0.00138317
0.00147156
0.00155652
0.00163751
0.00171412
0.00178623
0.00185394
0.00191722
0.00197596
0.00203013
0.00207962
0.00212437
0.00216432
0.00219945
0.00222974
0.00225522
0.00227592
0.00229192
0.00230332
0.00231027
0.0023129
0.00231146
0.00230607
0.0022971
0.00228464
0.0022693
0.00225093
0.00223067
0.0022076
0.00218424
0.00215761
0.00213373
0.00210406
0.00208344
0.00204839
0.00203398
0.0019881
3.49465e-05
3.10792e-05
2.96312e-05
3.22391e-05
4.11394e-05
5.83514e-05
8.07198e-05
0.000104407
0.00012531
0.000152312
0.000193388
0.000254768
0.000329722
0.000414503
0.000505207
0.000600077
0.000697614
0.000796502
0.000895874
0.000995025
0.00109331
0.00119015
0.00128504
0.00137747
0.00146695
0.00155294
0.00163486
0.00171227
0.00178513
0.0018535
0.00191735
0.00197655
0.00203108
0.00208083
0.00212574
0.00216576
0.00220086
0.00223104
0.00225633
0.00227677
0.00229246
0.00230349
0.00231005
0.00231227
0.00231043
0.00230467
0.00229536
0.00228265
0.00226714
0.00224873
0.00222857
0.00220579
0.00218291
0.00215702
0.0021341
0.00210575
0.00208662
0.00205347
0.00204074
0.00199616
3.49327e-05
3.09957e-05
2.92764e-05
3.11305e-05
3.87784e-05
5.48134e-05
7.76354e-05
0.000103781
0.000127822
0.000155113
0.000192686
0.000248859
0.000319773
0.00040211
0.000491506
0.000585914
0.000683501
0.000782845
0.000882914
0.00098292
0.00108215
0.00118
0.00127591
0.00136935
0.00145983
0.00154677
0.00162955
0.00170769
0.00178126
0.00185024
0.00191461
0.00197425
0.00202911
0.00207909
0.00212413
0.0021642
0.00219925
0.0022293
0.00225438
0.00227454
0.0022899
0.00230056
0.00230671
0.00230851
0.00230624
0.00230009
0.00229044
0.00227745
0.00226176
0.00224328
0.0022232
0.00220069
0.00217825
0.0021531
0.0021311
0.00210407
0.00208641
0.0020552
0.00204415
0.00200113
3.49206e-05
3.09292e-05
2.89845e-05
3.01815e-05
3.66267e-05
5.12525e-05
7.38637e-05
0.000101809
0.00012901
0.000157703
0.000193281
0.000244824
0.000311341
0.000390554
0.000478012
0.000571417
0.000668616
0.000768059
0.000868536
0.000969161
0.00106914
0.00116783
0.00126462
0.00135897
0.00145033
0.00153812
0.00162168
0.00170051
0.00177472
0.00184428
0.00190913
0.00196916
0.00202431
0.0020745
0.00211965
0.00215973
0.00219472
0.00222461
0.00224947
0.00226934
0.00228435
0.00229462
0.00230035
0.00230172
0.00229903
0.00229247
0.00228246
0.00226918
0.00225328
0.00223473
0.0022147
0.00219245
0.00217043
0.00214599
0.00212488
0.00209917
0.00208294
0.00205371
0.00204434
0.00200311
3.49101e-05
3.08767e-05
2.8746e-05
2.93767e-05
3.46983e-05
4.77794e-05
6.96042e-05
9.86115e-05
0.000128714
0.00015955
0.000194518
0.000242387
0.000304532
0.000380121
0.000465059
0.000556911
0.00065326
0.000752414
0.000852979
0.000953961
0.00105448
0.00115382
0.00125133
0.00134644
0.00143858
0.00152713
0.00161138
0.00169083
0.00176562
0.0018357
0.00190099
0.00196137
0.00201678
0.00206714
0.00211238
0.00215245
0.00218735
0.00221708
0.00224169
0.00226126
0.00227592
0.00228579
0.00229109
0.00229202
0.00228889
0.00228192
0.00227153
0.00225795
0.00224184
0.0022232
0.0022032
0.00218119
0.00215956
0.00213582
0.00211558
0.00209118
0.00207635
0.00204913
0.00204144
0.00200224
3.49009e-05
3.08355e-05
2.85525e-05
2.86999e-05
3.29955e-05
4.44803e-05
6.50524e-05
9.43587e-05
0.000126876
0.000160253
0.000195766
0.000241102
0.00029927
0.000370981
0.000452918
0.000542696
0.000637725
0.000736177
0.000836486
0.000937534
0.00103834
0.00113813
0.0012362
0.00133193
0.00142471
0.00151391
0.00159874
0.00167875
0.00175407
0.00182461
0.00189028
0.00195097
0.00200661
0.00205711
0.0021024
0.00214244
0.00217723
0.00220678
0.00223114
0.0022504
0.00226468
0.00227414
0.00227901
0.0022795
0.00227592
0.00226853
0.00225777
0.00224387
0.00222754
0.0022088
0.00218882
0.00216703
0.00214578
0.00212272
0.00210332
0.00208021
0.00206675
0.00204158
0.00203557
0.00199862
3.48929e-05
3.08035e-05
2.83968e-05
2.81352e-05
3.15117e-05
4.14174e-05
6.03894e-05
8.92601e-05
0.000123529
0.000159527
0.000196464
0.000240433
0.000295304
0.000363167
0.000441777
0.000529023
0.000622276
0.000719607
0.000819296
0.000920101
0.00102094
0.00112095
0.00121938
0.00131556
0.00140886
0.00149858
0.00158389
0.00166438
0.00174015
0.00181109
0.0018771
0.00193806
0.00199388
0.00204448
0.0020898
0.00212979
0.00216445
0.00219379
0.00221788
0.00223681
0.00225072
0.00225977
0.0022642
0.00226423
0.00226021
0.0022524
0.00224125
0.00222705
0.00221048
0.00219163
0.00217167
0.00215008
0.0021292
0.0021068
0.00208821
0.0020664
0.00205428
0.00203117
0.00202684
0.00199236
3.48858e-05
3.07789e-05
2.82725e-05
2.76678e-05
3.0234e-05
3.863e-05
5.57735e-05
8.35477e-05
0.000118788
0.000157201
0.000196152
0.000239824
0.000292253
0.000356567
0.000431716
0.000516075
0.00060714
0.00070294
0.000801638
0.000901874
0.00100246
0.00110246
0.00120104
0.0012975
0.00139115
0.00148126
0.00156693
0.00164782
0.00172397
0.00179525
0.00186153
0.0019227
0.00197867
0.00202934
0.00207465
0.00211456
0.00214906
0.00217819
0.002202
0.00222059
0.00223412
0.00224275
0.00224673
0.00224631
0.00224184
0.0022336
0.00222208
0.00220756
0.00219076
0.0021718
0.00215184
0.00213046
0.00210992
0.00208817
0.00207038
0.00204984
0.00203902
0.00201801
0.00201537
0.00198355
3.48797e-05
3.07603e-05
2.81743e-05
2.7284e-05
2.91457e-05
3.61384e-05
5.13351e-05
7.74601e-05
0.000112835
0.000153211
0.000194472
0.000238747
0.000289657
0.000350941
0.0004227
0.000503953
0.000592489
0.000686379
0.000783721
0.000883054
0.000983096
0.00108282
0.00118133
0.00127787
0.00137171
0.00146208
0.00154797
0.00162917
0.00170562
0.00177716
0.00184366
0.00190499
0.00196105
0.00201174
0.00205701
0.00209682
0.00213115
0.00216003
0.00218355
0.00220179
0.00221493
0.00222313
0.00222667
0.0022258
0.00222088
0.00221223
0.00220032
0.0021855
0.00216846
0.00214939
0.00212944
0.00210825
0.00208805
0.00206694
0.00204992
0.00203065
0.00202111
0.0020022
0.00200125
0.00197228
3.48743e-05
3.07464e-05
2.80976e-05
2.69714e-05
2.82279e-05
3.39464e-05
4.71739e-05
7.12277e-05
0.000105908
0.00014759
0.00019117
0.000236735
0.000287022
0.000345946
0.00041458
0.000492667
0.00057843
0.000670083
0.000765725
0.000863827
0.000963023
0.00106221
0.00116042
0.00125683
0.00135068
0.00144114
0.00152715
0.00160855
0.00168519
0.00175691
0.00182355
0.00188498
0.00194109
0.00199177
0.00203696
0.00207663
0.00211076
0.00213939
0.00216259
0.00218048
0.00219321
0.002201
0.00220409
0.00220277
0.00219741
0.00218834
0.00217606
0.00216093
0.00214367
0.00212449
0.00210454
0.00208355
0.00206368
0.0020432
0.00202693
0.00200891
0.00200062
0.00198383
0.00198458
0.00195863
3.48695e-05
3.07364e-05
2.80385e-05
2.67189e-05
2.7461e-05
3.20455e-05
4.33591e-05
6.50588e-05
9.82814e-05
0.000140465
0.000186101
0.000233398
0.000283863
0.000341174
0.000407111
0.000482129
0.000564991
0.000654151
0.000747789
0.000844347
0.000942402
0.00104078
0.00113844
0.00123451
0.00132818
0.00141856
0.00150456
0.00158603
0.00166277
0.00173458
0.0018013
0.00186276
0.00191886
0.00196948
0.00201455
0.00205405
0.00208795
0.0021163
0.00213918
0.0021567
0.00216904
0.00217639
0.00217904
0.00217728
0.00217148
0.002162
0.00214936
0.00213393
0.00211645
0.00209717
0.00207723
0.00205643
0.00203689
0.00201704
0.00200151
0.00198473
0.00197766
0.00196301
0.00196545
0.0019427
3.48654e-05
3.07294e-05
2.79936e-05
2.65168e-05
2.6826e-05
3.04184e-05
3.99314e-05
5.91296e-05
9.02457e-05
0.000132046
0.000179226
0.000228438
0.000279735
0.000336183
0.000399966
0.000472163
0.000552121
0.000638623
0.000730006
0.000824739
0.000921368
0.00101866
0.00111553
0.00121104
0.00130433
0.00139447
0.0014803
0.00156173
0.00163845
0.00171026
0.00177696
0.00183839
0.00189442
0.00194493
0.00198985
0.00202913
0.00206279
0.00209084
0.00211338
0.00213052
0.00214245
0.00214937
0.00215158
0.00214937
0.00214315
0.00213327
0.00212028
0.00210457
0.00208687
0.0020675
0.00204758
0.00202699
0.00200777
0.00198855
0.00197374
0.0019582
0.00195233
0.00193982
0.00194396
0.00192456
3.48617e-05
3.07248e-05
2.79604e-05
2.63567e-05
2.63047e-05
2.90419e-05
3.69069e-05
5.3578e-05
8.20889e-05
0.000122611
0.000170611
0.000221653
0.00027425
0.000330533
0.00039277
0.000462514
0.00053969
0.000623469
0.000712417
0.000805084
0.000900028
0.000995983
0.00109182
0.00118654
0.00127924
0.00136894
0.00145448
0.00153572
0.00161232
0.00168402
0.00175062
0.00181194
0.00186783
0.00191817
0.00196289
0.00200194
0.00203531
0.00206305
0.00208523
0.00210198
0.00211349
0.00211999
0.00212176
0.00211912
0.00211247
0.00210221
0.00208888
0.00207289
0.00205501
0.00203556
0.00201567
0.00199528
0.0019764
0.0019578
0.0019437
0.00192939
0.0019247
0.00191435
0.00192018
0.00190429
3.48586e-05
3.07221e-05
2.79364e-05
2.62313e-05
2.58804e-05
2.78898e-05
3.42816e-05
4.85009e-05
7.40759e-05
0.000112488
0.000160428
0.000212948
0.000267097
0.00032381
0.000385121
0.00045287
0.000527498
0.00060859
0.000695001
0.000785419
0.000878452
0.000972829
0.00106739
0.0011611
0.00125301
0.00134209
0.00142718
0.00150809
0.00158443
0.00165593
0.00172234
0.00178347
0.00183916
0.00188928
0.00193375
0.00197251
0.00200557
0.00203296
0.00205477
0.00207113
0.00208222
0.00208828
0.00208962
0.00208655
0.0020795
0.00206887
0.00205521
0.00203897
0.00202091
0.0020014
0.00198155
0.00196139
0.00194285
0.00192488
0.00191149
0.0018984
0.00189486
0.00188667
0.00189421
0.00188194
3.48558e-05
3.07209e-05
2.79199e-05
2.61344e-05
2.55383e-05
2.69353e-05
3.20364e-05
4.39563e-05
6.64325e-05
0.00010203
0.000148941
0.000202339
0.00025805
0.000315645
0.000376618
0.00044288
0.000515285
0.000593827
0.000677684
0.00076573
0.00085667
0.000949259
0.00104232
0.00113481
0.00122573
0.00131399
0.00139848
0.00147892
0.00155488
0.00162605
0.00169218
0.00175303
0.00180844
0.00185828
0.00190245
0.0019409
0.00197361
0.00200063
0.00202205
0.002038
0.00204867
0.0020543
0.00205521
0.00205173
0.00204428
0.00203329
0.00201933
0.00200286
0.00198464
0.00196509
0.0019453
0.00192538
0.00190718
0.00188984
0.00187716
0.0018653
0.00186289
0.00185686
0.00186611
0.0018576
3.48533e-05
3.07208e-05
2.79092e-05
2.60606e-05
2.5265e-05
2.61519e-05
3.01419e-05
3.99668e-05
5.93344e-05
9.15877e-05
0.000136495
0.000189956
0.000246984
0.000305733
0.000366879
0.000432175
0.00050275
0.000578963
0.000660331
0.000745953
0.00083467
0.000925296
0.00101667
0.00110773
0.00119746
0.00128471
0.00136846
0.00144827
0.00152372
0.00159446
0.00166019
0.00172068
0.00177575
0.00182524
0.00186906
0.00190714
0.00193948
0.0019661
0.00198711
0.00200264
0.00201288
0.00201809
0.00201857
0.00201468
0.00200685
0.00199553
0.00198128
0.00196459
0.00194624
0.00192667
0.00190696
0.0018873