/*--------------------------------*- C++ -*----------------------------------*\
| =========                 |                                                 |
| \\      /  F ield         | OpenFOAM: The Open Source CFD Toolbox           |
|  \\    /   O peration     | Version:  2.4.0                                 |
|   \\  /    A nd           | Web:      www.OpenFOAM.org                      |
|    \\/     M anipulation  |                                                 |
\*---------------------------------------------------------------------------*/
FoamFile
{
    version     2.0;
    format      ascii;
    class       volScalarField;
    location    "350";
    object      nut;
}
// * * * * * * * * * * * * * * * * * * * * * * * * * * * * * * * * * * * * * //

dimensions      [0 2 -1 0 0 0 0];

internalField   nonuniform List<scalar> 
6000
(
1.35204e-05
9.8083e-06
5.56184e-06
5.14665e-06
5.25582e-06
5.49337e-06
5.73909e-06
6.00875e-06
6.28281e-06
6.54758e-06
6.78981e-06
7.00891e-06
7.21271e-06
7.40832e-06
7.58979e-06
7.73613e-06
7.81567e-06
7.79961e-06
7.66521e-06
7.42335e-06
7.16191e-06
7.03648e-06
7.18047e-06
7.64715e-06
8.35543e-06
9.21015e-06
1.01201e-05
1.10207e-05
1.18925e-05
1.27666e-05
1.35378e-05
1.41925e-05
1.47241e-05
1.5132e-05
1.54212e-05
1.56045e-05
1.56909e-05
1.56809e-05
1.55876e-05
1.54238e-05
1.52023e-05
1.49351e-05
1.46323e-05
1.43026e-05
1.39458e-05
1.35603e-05
1.31254e-05
1.25115e-05
1.22883e-05
1.21755e-05
1.19944e-05
1.18287e-05
1.1575e-05
1.1435e-05
1.1171e-05
1.11619e-05
1.09174e-05
1.11271e-05
1.08099e-05
1.15223e-05
2.16984e-05
1.63837e-05
1.46849e-05
1.58066e-05
2.24428e-05
2.65514e-05
2.9917e-05
3.30525e-05
3.60896e-05
3.89427e-05
4.13958e-05
4.33073e-05
4.47321e-05
4.59488e-05
4.72294e-05
4.86813e-05
5.01051e-05
5.0873e-05
5.03655e-05
4.82554e-05
4.50534e-05
4.27953e-05
4.32831e-05
4.52166e-05
4.82381e-05
5.18975e-05
5.60988e-05
6.0678e-05
6.53302e-05
6.98117e-05
7.43808e-05
7.90125e-05
8.3618e-05
8.80973e-05
9.23371e-05
9.61553e-05
9.92109e-05
0.000102019
0.000104626
0.000107086
0.000109464
0.000111829
0.000114232
0.000116715
0.000119185
0.000121464
0.000123026
0.000123252
0.000117013
0.000109282
0.000100632
9.09642e-05
8.03459e-05
6.96916e-05
5.85612e-05
4.92363e-05
3.848e-05
3.33394e-05
2.36019e-05
2.46482e-05
2.83902e-05
2.19856e-05
1.99277e-05
2.41181e-05
4.23398e-05
5.62705e-05
6.63871e-05
7.48534e-05
8.26079e-05
8.97126e-05
9.58057e-05
0.000100612
0.000104283
0.000107456
0.000110749
0.000114369
0.000117788
0.000119522
0.000117967
0.000111749
0.000101417
9.19252e-05
8.90846e-05
9.18778e-05
9.85185e-05
0.000107475
0.000118068
0.000129678
0.000141626
0.000153453
0.000165197
0.000176638
0.000187494
0.000197498
0.000206388
0.00021384
0.000219574
0.000224391
0.000228452
0.000231942
0.000235064
0.000238034
0.000241025
0.000244158
0.000247264
0.000249835
0.000250489
0.000248839
0.000238622
0.000225365
0.000209591
0.00019185
0.000171748
0.000151798
0.000130132
0.000112468
9.15405e-05
8.20724e-05
6.06759e-05
7.18507e-05
3.19829e-05
2.55932e-05
2.32298e-05
2.86591e-05
5.29138e-05
7.74544e-05
9.65125e-05
0.000112005
0.000125672
0.000137892
0.000148331
0.000156673
0.00016316
0.000168692
0.000174129
0.000179693
0.000184526
0.000186514
0.000183269
0.000172514
0.000154803
0.000137622
0.000131053
0.000135112
0.000146136
0.000161242
0.000178966
0.000198133
0.000217669
0.000236832
0.000255304
0.000272661
0.000288491
0.00030247
0.000314333
0.000323829
0.000330935
0.000336502
0.000340837
0.000344269
0.000347156
0.000349865
0.000352704
0.000355873
0.000359145
0.000361646
0.000361263
0.00035823
0.000346053
0.000329564
0.000309077
0.000285684
0.00025889
0.000232251
0.00020331
0.000179866
0.000152657
0.000141586
0.000115294
0.00013957
3.37102e-05
2.77457e-05
2.5289e-05
3.10479e-05
5.70042e-05
9.02734e-05
0.000117977
0.000140855
0.000160846
0.000178522
0.000193623
0.000205822
0.000215401
0.000223402
0.000230825
0.000237866
0.000243433
0.000245037
0.00023987
0.000225218
0.000201742
0.000178437
0.000168767
0.000174339
0.000189909
0.000211165
0.000235768
0.000261951
0.000288246
0.000313619
0.000337462
0.00035923
0.00037848
0.000394929
0.000408412
0.000418793
0.000426336
0.000431889
0.000435887
0.000438794
0.000441103
0.000443318
0.000445875
0.000449053
0.000452596
0.000455272
0.000454529
0.000450945
0.000438073
0.000419729
0.000396099
0.000368613
0.000337024
0.000305428
0.000271577
0.000244194
0.000213976
0.000203385
0.000178854
0.000214774
3.4566e-05
2.9018e-05
2.65357e-05
3.20555e-05
5.85715e-05
9.73575e-05
0.000132418
0.000162188
0.000188346
0.000211452
0.000231274
0.000247459
0.00026025
0.000270723
0.000279934
0.000288059
0.000293885
0.000294778
0.000287823
0.00027028
0.000242984
0.000215447
0.000203338
0.000210382
0.000230309
0.000257368
0.000288274
0.000320656
0.000352666
0.000383024
0.000410933
0.000435805
0.000457239
0.000475053
0.000489215
0.000499688
0.000507015
0.000512035
0.000515294
0.000517369
0.000518875
0.00052044
0.000522632
0.00052582
0.000529756
0.000532897
0.000532545
0.000529141
0.000516474
0.000497227
0.00047155
0.000441069
0.000405999
0.000370694
0.000333595
0.000303713
0.000272912
0.00026446
0.000245954
0.000290817
3.50092e-05
2.97739e-05
2.72599e-05
3.2208e-05
5.83594e-05
0.000100292
0.000141661
0.000177488
0.000209345
0.000237632
0.000262079
0.00028226
0.000298304
0.000311223
0.000322073
0.000331032
0.000336883
0.000337019
0.000328643
0.000309238
0.00027984
0.000249775
0.000235775
0.000244043
0.000267942
0.000300311
0.000336856
0.000374599
0.000411346
0.000445626
0.000476542
0.000503525
0.000526252
0.000544658
0.000558855
0.000568863
0.0005755
0.000579591
0.000581779
0.000582739
0.000583195
0.000583899
0.000585557
0.000588659
0.00059301
0.000596836
0.000597513
0.000594933
0.000583178
0.000563779
0.000536889
0.000504255
0.000466667
0.000428618
0.000389499
0.000358322
0.000328767
0.000323756
0.000313537
0.000364296
3.52416e-05
3.02249e-05
2.76566e-05
3.18641e-05
5.68571e-05
0.000100313
0.000147045
0.00018811
0.000225076
0.000258182
0.000287064
0.000311187
0.000330487
0.000345832
0.000358242
0.000367928
0.000373765
0.000373301
0.00036398
0.000343624
0.000313466
0.000282261
0.000266829
0.000275967
0.00030334
0.000340467
0.000381994
0.000424333
0.00046498
0.000502334
0.000535458
0.000563838
0.00058724
0.00060571
0.000619496
0.000628644
0.000634226
0.000637062
0.000637873
0.000637424
0.000636538
0.000636092
0.000636946
0.000639747
0.000644412
0.000649048
0.000651231
0.000650068
0.000639832
0.000620933
0.000593521
0.000559423
0.00052006
0.000480044
0.000439855
0.000408409
0.000381498
0.000380848
0.000379744
0.000433376
3.53592e-05
3.04934e-05
2.78536e-05
3.12601e-05
5.43872e-05
9.86307e-05
0.000149331
0.000195095
0.000236597
0.000274118
0.000307201
0.000335173
0.000357716
0.000375488
0.000389447
0.000399869
0.000405793
0.000405006
0.000395248
0.0003747
0.000344755
0.000313478
0.000297039
0.00030666
0.00033695
0.000378267
0.00042416
0.000470428
0.000514296
0.000554072
0.000588827
0.000618109
0.000641769
0.000659945
0.000672984
0.000681003
0.000685246
0.000686549
0.000685698
0.000683537
0.000680984
0.000679041
0.000678734
0.000680911
0.000685666
0.000691135
0.000695149
0.00069595
0.00068779
0.000670002
0.000642679
0.00060771
0.000567171
0.000525832
0.000485327
0.000454486
0.000431271
0.000435505
0.000443149
0.000497118
3.54118e-05
3.06512e-05
2.79322e-05
3.05464e-05
5.13359e-05
9.57553e-05
0.000148632
0.000199142
0.000244731
0.000286277
0.000323311
0.00035502
0.000380788
0.000401015
0.000416571
0.000427821
0.000434025
0.000433253
0.000423551
0.000403422
0.000374364
0.000343801
0.000326774
0.000336523
0.000369151
0.000414095
0.000463788
0.000513421
0.000559967
0.000601679
0.000637653
0.000667502
0.000691144
0.000708786
0.000720842
0.000727532
0.000730212
0.000729745
0.000726976
0.000722813
0.00071826
0.00071444
0.000712558
0.0007137
0.000718212
0.000724415
0.000730463
0.000733713
0.000728159
0.000712079
0.000685421
0.000650116
0.000608904
0.000566781
0.000526566
0.000497055
0.000478285
0.000487551
0.000502923
0.000555164
3.54266e-05
3.07411e-05
2.7943e-05
2.98151e-05
4.80365e-05
9.16595e-05
0.000146193
0.000200644
0.000250076
0.000295318
0.000336055
0.000371381
0.000400361
0.00042309
0.000440335
0.000452563
0.00045929
0.000458894
0.000449705
0.000430485
0.000402771
0.000373467
0.00035628
0.000365876
0.000400269
0.000448287
0.000501269
0.000553787
0.000602584
0.000645872
0.000682779
0.000712971
0.000736416
0.000753365
0.000764271
0.00076948
0.000770423
0.000767996
0.000763089
0.000756663
0.000749796
0.00074372
0.000739823
0.000739458
0.000743301
0.000750018
0.000758191
0.000764297
0.00076186
0.000748086
0.000722657
0.000687515
0.000646063
0.000603611
0.000564173
0.000536573
0.000522719
0.000536833
0.000558604
0.000607533
3.54193e-05
3.07888e-05
2.79172e-05
2.91189e-05
4.47394e-05
8.65311e-05
0.000142597
0.000199659
0.000253021
0.000301726
0.000345945
0.000384767
0.000416945
0.000442245
0.000461302
0.000474693
0.000482208
0.000482544
0.000474282
0.000456375
0.000430316
0.000402626
0.000385697
0.000394971
0.000430584
0.000481144
0.000536947
0.000591944
0.000642653
0.000687249
0.000724889
0.000755275
0.000778405
0.000794556
0.000804199
0.000807815
0.000806892
0.000802361
0.000795142
0.000786236
0.00077678
0.000768101
0.000761755
0.000759382
0.000762054
0.000768962
0.000779237
0.000788502
0.000789665
0.000778803
0.000755167
0.000720669
0.000679365
0.000636967
0.000598689
0.000573437
0.000564714
0.000583236
0.000609969
0.000654479
3.53993e-05
3.08102e-05
2.78735e-05
2.84853e-05
4.16139e-05
8.06767e-05
0.000137817
0.000196873
0.000253764
0.000305844
0.000353363
0.000395567
0.000430933
0.00045888
0.000479894
0.000494653
0.000503228
0.000504634
0.000497668
0.000481412
0.000457233
0.00043137
0.000415089
0.000423997
0.000460341
0.000512932
0.000571124
0.000628249
0.000680596
0.000726296
0.000764524
0.000795005
0.000817745
0.000833032
0.000841334
0.000843279
0.000840403
0.000833665
0.00082401
0.000812463
0.000800201
0.000788622
0.000779434
0.000774555
0.000775497
0.000782224
0.000794427
0.00080703
0.000812239
0.000804896
0.00078363
0.000750251
0.000709447
0.000667428
0.000630599
0.000607992
0.000604386
0.000626696
0.000656988
0.000696389
3.5372e-05
3.08152e-05
2.78231e-05
2.79256e-05
3.87609e-05
7.44314e-05
0.000131791
0.000192936
0.000252305
0.000307876
0.000358581
0.000404065
0.000442609
0.000473289
0.000496417
0.000512755
0.000522653
0.000525443
0.000520101
0.000505789
0.000483674
0.000459756
0.000444458
0.00045308
0.000489746
0.000543882
0.000604062
0.000663005
0.000716758
0.000763402
0.00080211
0.000832615
0.000854916
0.000869299
0.000876207
0.000876433
0.000871552
0.000862548
0.000850381
0.000836089
0.000820868
0.000806163
0.000793802
0.00078596
0.00078461
0.000790736
0.000804539
0.00082052
0.00083016
0.000826939
0.000808635
0.00077685
0.00073688
0.000695511
0.000660337
0.000640537
0.000641836
0.000667209
0.000699787
0.00073372
3.53409e-05
3.08104e-05
2.77725e-05
2.74418e-05
3.62292e-05
6.81056e-05
0.000124617
0.000187854
0.000249209
0.000307909
0.000361778
0.000410464
0.000452177
0.000485677
0.000511078
0.000529209
0.00054068
0.000545135
0.000541709
0.000529604
0.000509724
0.000487819
0.000473767
0.000482287
0.000518966
0.000574198
0.000635986
0.000696463
0.000751422
0.000798872
0.000837974
0.00086845
0.00089028
0.000903734
0.000909217
0.000907698
0.00090079
0.000889498
0.000874788
0.000857701
0.000839435
0.000821456
0.000805673
0.000794478
0.000790346
0.000795397
0.000810323
0.000829566
0.000843938
0.000845427
0.000830692
0.000800986
0.00076217
0.000721682
0.000688293
0.000671335
0.000677168
0.000704838
0.000738598
0.00076694
3.53083e-05
3.07998e-05
2.77253e-05
2.70301e-05
3.40307e-05
6.19576e-05
0.000116513
0.000181505
0.000245005
0.00030596
0.000363045
0.000414894
0.000459774
0.000496178
0.000524013
0.000544142
0.000557419
0.000563792
0.00056254
0.000552882
0.000535412
0.00051557
0.00050295
0.000511626
0.000548127
0.000604048
0.000667084
0.000728828
0.000784809
0.000832944
0.000872363
0.000902764
0.000924099
0.000936613
0.000940654
0.000937386
0.000928452
0.000914878
0.000897634
0.000877752
0.000856418
0.000835094
0.000815729
0.000800889
0.000793623
0.000797065
0.000812506
0.000834731
0.00085403
0.000860783
0.000850235
0.000823108
0.000785763
0.000746352
0.000714811
0.000700621
0.00071049
0.000739701
0.000773721
0.000796508
3.52754e-05
3.07861e-05
2.76831e-05
2.66841e-05
3.21534e-05
5.61814e-05
0.000107767
0.000173846
0.00023964
0.000302618
0.000362396
0.000417429
0.00046548
0.00050487
0.000535293
0.000557618
0.000572914
0.000581428
0.00058258
0.000575591
0.000560717
0.000543005
0.000531931
0.000541055
0.000577305
0.000633568
0.000697512
0.000760268
0.000817093
0.000865794
0.000905457
0.000935742
0.000956563
0.000968132
0.000970727
0.000965719
0.00095478
0.000938957
0.000919216
0.000896578
0.000872205
0.000847536
0.000824519
0.000805907
0.000795261
0.000796539
0.000811791
0.000836554
0.000860845
0.000873367
0.000867634
0.000843602
0.000808047
0.000769885
0.000740198
0.000728605
0.00074193
0.000771963
0.000805484
0.000822848
3.52433e-05
3.07711e-05
2.76467e-05
2.63965e-05
3.05716e-05
5.09062e-05
9.86929e-05
0.000164936
0.000233016
0.0002981
0.000360117
0.000418087
0.000469336
0.00051179
0.000544947
0.000569654
0.000587166
0.000598013
0.000601772
0.000597657
0.00058558
0.000570094
0.000560631
0.000570482
0.000606529
0.000662855
0.00072739
0.000790909
0.000848404
0.000897555
0.000937385
0.000967512
0.000987803
0.000998427
0.000999579
0.000992854
0.000979944
0.00096192
0.000939744
0.00091442
0.000887081
0.000859125
0.000832504
0.000810148
0.000795959
0.000794543
0.000808845
0.000835553
0.000864753
0.000883479
0.000883187
0.000862786
0.000829352
0.000792592
0.000764721
0.000755479
0.000771623
0.000801817
0.000834225
0.000846342
3.52122e-05
3.07558e-05
2.76162e-05
2.61596e-05
2.92527e-05
4.6203e-05
8.95985e-05
0.000154933
0.000225053
0.000292376
0.000356536
0.000416997
0.000471341
0.000516938
0.000552969
0.000580232
0.000600136
0.000613483
0.000620025
0.000618973
0.000609905
0.000596785
0.000588973
0.000599789
0.000635772
0.000691967
0.000756803
0.000820845
0.000878834
0.000928314
0.000968234
0.000998158
0.0010179
0.00102758
0.00102731
0.00101889
0.00100406
0.000983893
0.000959359
0.00093144
0.000901236
0.000870103
0.000840082
0.000814096
0.00079628
0.000791707
0.000804291
0.000832223
0.000866088
0.000891363
0.000897132
0.000880917
0.000849948
0.000814737
0.000788607
0.000781409
0.000799715
0.000829471
0.000860263
0.000867327
3.51827e-05
3.0741e-05
2.75914e-05
2.59662e-05
2.81624e-05
4.20943e-05
8.07581e-05
0.000144069
0.000215722
0.000285378
0.000351686
0.00041447
0.000471568
0.000520288
0.000559323
0.000589305
0.000611762
0.000627753
0.000637231
0.000639411
0.000633568
0.000622998
0.000616884
0.000628835
0.00066496
0.000720916
0.000785803
0.000850134
0.000908443
0.000958128
0.000998055
0.00102773
0.00104691
0.00105565
0.00105396
0.0010439
0.00102719
0.00100495
0.000978147
0.000947736
0.000914789
0.000880711
0.000847526
0.000818095
0.000796648
0.000788549
0.000798688
0.00082703
0.000865154
0.000897216
0.000909643
0.000898191
0.000870052
0.000836532
0.000812046
0.000806547
0.000826355
0.000855133
0.000883895
0.000886095
3.51549e-05
3.07272e-05
2.7572e-05
2.58099e-05
2.72672e-05
3.85664e-05
7.23973e-05
0.000132629
0.000205066
0.000277025
0.000345551
0.000410561
0.00047025
0.0005219
0.000563957
0.000596809
0.000621965
0.000640722
0.000653263
0.000658825
0.000656421
0.000648629
0.000644286
0.000657476
0.000693973
0.000749668
0.000814401
0.000878804
0.000937259
0.000987021
0.00102687
0.00105624
0.00107484
0.00108264
0.00107956
0.00106789
0.00104937
0.00102513
0.000996149
0.000963357
0.000927863
0.000891111
0.000855014
0.000822367
0.000797351
0.000785472
0.00079252
0.000820407
0.000862227
0.000901187
0.000920839
0.000914744
0.000889821
0.000858141
0.000835188
0.000831017
0.000851685
0.000879
0.000905382
0.000902894
3.51288e-05
3.07145e-05
2.75573e-05
2.56847e-05
2.65368e-05
3.55811e-05
6.46841e-05
0.000120924
0.000193206
0.000267259
0.000338084
0.000405292
0.000467437
0.000521907
0.00056693
0.000602664
0.000630652
0.000652279
0.000667987
0.00067706
0.000678302
0.000673543
0.000671096
0.000685571
0.000722652
0.000778141
0.000842572
0.000906851
0.000965282
0.00101499
0.00105467
0.00108368
0.00110168
0.00110856
0.00110412
0.00109089
0.0010706
0.00104445
0.00101338
0.000978358
0.000940574
0.000901384
0.00086264
0.000827023
0.000798563
0.000782765
0.000786188
0.000812749
0.000857557
0.000903385
0.000930785
0.000930657
0.000909363
0.000879682
0.000858146
0.000854923
0.000875839
0.000901253
0.000924955
0.000917937
3.51044e-05
3.07032e-05
2.75469e-05
2.55858e-05
2.5944e-05
3.30854e-05
5.7727e-05
0.000109265
0.000180337
0.000256063
0.000329221
0.000398653
0.00046316
0.000520339
0.000568284
0.000606926
0.000637735
0.000662309
0.000681267
0.000693957
0.000699032
0.000697586
0.00069722
0.000712991
0.000750819
0.000806209
0.000870249
0.000934235
0.000992484
0.00104202
0.00108144
0.00111004
0.00112741
0.00113336
0.00112761
0.00111287
0.00109089
0.00106289
0.00102986
0.000992828
0.000952953
0.000911559
0.00087043
0.000832096
0.000800358
0.00078061
0.000780007
0.000804405
0.000851375
0.00090389
0.0009395
0.000945961
0.000928736
0.000901228
0.000880998
0.000878348
0.000898934
0.000922049
0.000942808
0.000931401
3.50817e-05
3.06932e-05
2.75403e-05
2.55087e-05
2.54653e-05
3.102e-05
5.1579e-05
9.79391e-05
0.000166709
0.00024348
0.0003189
0.000390606
0.00045743
0.000517215
0.00056802
0.000609569
0.000643229
0.00067074
0.000692962
0.000709353
0.000718428
0.00072058
0.000722544
0.000739622
0.000778284
0.000833704
0.000897324
0.000960888
0.00101881
0.00106805
0.00110712
0.00113526
0.00115199
0.00115702
0.00114999
0.00113381
0.00111019
0.00108047
0.00104565
0.00100678
0.000965004
0.00092163
0.000878361
0.000837553
0.000802736
0.000779103
0.000774203
0.000795676
0.000843891
0.000902754
0.000946961
0.000960639
0.000947953
0.000922812
0.000903787
0.000901347
0.000921071
0.000941525
0.000959106
0.000943439
3.50607e-05
3.06845e-05
2.7537e-05
2.54498e-05
2.50808e-05
2.93251e-05
4.62449e-05
8.71973e-05
0.000152619
0.000229617
0.000307082
0.0003811
0.000450234
0.000512546
0.000566137
0.000610568
0.000647084
0.000677525
0.000702998
0.000723095
0.000736301
0.000742331
0.00074693
0.00076535
0.000804861
0.000860438
0.00092365
0.000986704
0.00104419
0.00109303
0.00113167
0.00115928
0.00117536
0.00117947
0.00117123
0.00115366
0.00112854
0.00109722
0.00106075
0.00102019
0.000976708
0.00093156
0.000886373
0.000843321
0.000805642
0.00077826
0.000768925
0.000786813
0.0008353
0.000900011
0.00095311
0.000974633
0.000966984
0.00094443
0.000926528
0.000923955
0.000942329
0.000959793
0.000973986
0.000954177
3.50413e-05
3.06772e-05
2.75366e-05
2.54061e-05
2.47738e-05
2.79439e-05
4.1692e-05
7.72374e-05
0.000138385
0.000214647
0.000293768
0.000370079
0.000441542
0.000506327
0.000562631
0.000609901
0.000649255
0.000682601
0.000711279
0.000735077
0.000752484
0.000762631
0.000770191
0.000790047
0.000830391
0.000886236
0.000949104
0.00101159
0.00106852
0.00111686
0.00115499
0.00118205
0.00119745
0.00120067
0.0011913
0.00117245
0.00114594
0.00111314
0.00107515
0.00103306
0.00098803
0.000941293
0.000894386
0.000849303
0.000808986
0.000778047
0.00076425
0.000778013
0.000825782
0.000895683
0.000957862
0.00098785
0.000985766
0.000966044
0.000949203
0.000946186
0.000962767
0.000976943
0.000987563
0.000963724
3.50234e-05
3.06711e-05
2.75388e-05
2.53749e-05
2.45302e-05
2.68252e-05
3.78614e-05
6.81993e-05
0.000124326
0.000198803
0.000279007
0.000357498
0.00043131
0.000498542
0.000557492
0.000607546
0.000649702
0.000685908
0.00071772
0.000745185
0.000766819
0.00078128
0.000792137
0.000813582
0.000854722
0.000910913
0.000973535
0.00103545
0.00109176
0.0011395
0.00117706
0.00120351
0.00121824
0.00122061
0.00121019
0.00119016
0.00116236
0.0011282
0.00108882
0.00104534
0.000998921
0.000950758
0.000902307
0.000855386
0.000812655
0.000778386
0.000760201
0.000769428
0.000815502
0.00088979
0.00096111
0.00100016
0.0010042
0.000987586
0.000971774
0.000968033
0.000982426
0.000993046
0.000999932
0.000972174
3.5007e-05
3.06662e-05
2.7543e-05
2.53541e-05
2.43384e-05
2.59238e-05
3.46782e-05
6.01629e-05
0.000110744
0.000182367
0.000262908
0.000343338
0.00041949
0.000489161
0.000550704
0.000603483
0.000648389
0.000687395
0.000722262
0.000753319
0.000779158
0.00079808
0.000812559
0.000835803
0.00087771
0.000934287
0.000996774
0.00105817
0.00111382
0.00116091
0.00119784
0.00122366
0.0012377
0.00123924
0.00122787
0.00120676
0.00117777
0.00114237
0.00110173
0.001057
0.00100932
0.00095988
0.000910037
0.000861454
0.000816527
0.000779177
0.000756751
0.000761163
0.000804615
0.000882349
0.000962729
0.00101141
0.00102216
0.00100896
0.000994178
0.000989471
0.00100133
0.00100816
0.00101117
0.000979608
3.49919e-05
3.06624e-05
2.75491e-05
2.53418e-05
2.41889e-05
2.52011e-05
3.20608e-05
5.3152e-05
9.7905e-05
0.000165658
0.00024564
0.000327616
0.000406038
0.000478147
0.000542246
0.000597688
0.000645287
0.000687018
0.000724842
0.00075939
0.00078937
0.000812844
0.000831235
0.000856534
0.00089921
0.000956181
0.00101864
0.00107959
0.0011346
0.001181
0.00121727
0.00124243
0.0012558
0.00125654
0.00124431
0.00122221
0.00119215
0.00115561
0.00111384
0.00106798
0.00101917
0.000968577
0.000917477
0.000867392
0.000820476
0.000780301
0.000753842
0.000753282
0.00079326
0.000873388
0.000962589
0.00102143
0.00103948
0.00103005
0.00101633
0.00101046
0.00101949
0.00102233
0.00102135
0.000986098
3.4978e-05
3.06596e-05
2.75568e-05
2.53366e-05
2.40738e-05
2.46243e-05
2.9928e-05
4.71428e-05
8.60261e-05
0.000149012
0.000227432
0.000310397
0.000390928
0.000465456
0.000532087
0.000590141
0.000640366
0.00068474
0.000725408
0.000763318
0.000797343
0.000825398
0.000847945
0.000875582
0.000919075
0.000976429
0.00103896
0.00109957
0.00115398
0.0011997
0.00123528
0.00125977
0.00127249
0.00127247
0.00125947
0.00123647
0.00120544
0.0011679
0.0011251
0.00107822
0.00102841
0.000976767
0.000924531
0.000873089
0.000824378
0.000781634
0.00075139
0.000745814
0.000781567
0.000862942
0.000960553
0.00103001
0.001056
0.00105072
0.00103814
0.00103094
0.0010369
0.00103558
0.00103053
0.000991709
3.49653e-05
3.06577e-05
2.75658e-05
2.5337e-05
2.39867e-05
2.41664e-05
2.82031e-05
4.20738e-05
7.52634e-05
0.000132764
0.000208564
0.000291799
0.000374159
0.000451051
0.000520194
0.000580814
0.000633603
0.000680532
0.000723919
0.000765036
0.000802976
0.000835586
0.000862474
0.000892742
0.00093715
0.000994872
0.00105756
0.00111795
0.00117184
0.00121691
0.00125181
0.00127564
0.00128771
0.00128698
0.00127329
0.00124951
0.00121762
0.00117917
0.00113546
0.00108768
0.00103695
0.000984369
0.000931104
0.000878437
0.000828114
0.000783052
0.000749296
0.000738757
0.00076965
0.000851065
0.000956488
0.00103695
0.00107152
0.00107081
0.00105948
0.00105086
0.00105354
0.00104793
0.00103877
0.000996497
3.49537e-05
3.06566e-05
2.75759e-05
2.53422e-05
2.39224e-05
2.38047e-05
2.68171e-05
3.78587e-05
6.57091e-05
0.00011723
0.00018936
0.000272
0.00035577
0.000434903
0.000506528
0.00056968
0.000624974
0.00067437
0.000720341
0.00076448
0.000806188
0.000843269
0.000874618
0.000907801
0.000953274
0.00101136
0.00107424
0.00113455
0.00118803
0.00123251
0.00126676
0.00128995
0.00130142
0.00130002
0.00128572
0.00126126
0.00122862
0.00118938
0.00114487
0.00109627
0.00104473
0.000991304
0.00093711
0.000883339
0.000831572
0.00078443
0.000747452
0.000732086
0.000757609
0.000837826
0.00095027
0.001042
0.00108581
0.00109015
0.00108023
0.00107013
0.00106939
0.00105942
0.0010461
0.00100052
3.4943e-05
3.06562e-05
2.75868e-05
2.53512e-05
2.38766e-05
2.35208e-05
2.57096e-05
3.43972e-05
5.73925e-05
0.000102686
0.000170174
0.000251238
0.000335844
0.000417005
0.000491056
0.000556708
0.000614454
0.000666231
0.000714651
0.000761614
0.000806909
0.000848328
0.000884194
0.000920552
0.000967276
0.00102574
0.00108886
0.00114919
0.0012024
0.00124637
0.00128003
0.00130263
0.00131352
0.00131154
0.00129671
0.00127166
0.00123838
0.00119846
0.00115325
0.00110394
0.00105167
0.000997491
0.000942461
0.0008877
0.000834647
0.000785652
0.000745742
0.000725754
0.000745533
0.000823312
0.000941793
0.00104495
0.00109865
0.00110854
0.00110026
0.00108868
0.00108443
0.00107004
0.00105257
0.00100382
3.49333e-05
3.06565e-05
2.75986e-05
2.53633e-05
2.38457e-05
2.32997e-05
2.48291e-05
3.15849e-05
5.02865e-05
8.93532e-05
0.000151369
0.000229804
0.00031452
0.000397381
0.000473755
0.000541867
0.00060202
0.000656099
0.000706832
0.000756429
0.000805086
0.000850666
0.000891038
0.00093079
0.000978983
0.00103787
0.00110125
0.00116172
0.00121478
0.00125837
0.00129152
0.00131358
0.00132397
0.00132146
0.00130619
0.00128067
0.00124685
0.00120635
0.00116054
0.00111062
0.00105771
0.00100286
0.000947078
0.000891433
0.00083724
0.000786604
0.000744054
0.000719698
0.000733491
0.000807631
0.00093097
0.00104556
0.00110978
0.00112579
0.00111941
0.00110641
0.00109862
0.00107982
0.00105822
0.00100646
3.49245e-05
3.06574e-05
2.76109e-05
2.53779e-05
2.38268e-05
2.31292e-05
2.41325e-05
2.93208e-05
4.43188e-05
7.73861e-05
0.0001333
0.00020804
0.000291996
0.000376093
0.000454615
0.000525131
0.000587648
0.000643958
0.000696875
0.000748908
0.000800674
0.000850202
0.000895011
0.00093833
0.000988219
0.00104761
0.00111128
0.00117197
0.00122503
0.00126837
0.00130111
0.0013227
0.00133266
0.0013297
0.00131409
0.00128819
0.00125395
0.00121299
0.00116667
0.00111623
0.00106277
0.00100732
0.000950882
0.000894454
0.000839257
0.00078718
0.000742272
0.000713843
0.000721537
0.000790909
0.000917743
0.00104358
0.00111895
0.00114168
0.00113753
0.00112323
0.00111193
0.00108875
0.0010631
0.00100846
3.49164e-05
3.06588e-05
2.76237e-05
2.53945e-05
2.38177e-05
2.29994e-05
2.35841e-05
2.7512e-05
3.93849e-05
6.68679e-05
0.000116293
0.000186322
0.000268532
0.000353255
0.000433656
0.000506481
0.000571316
0.000629794
0.000684774
0.000739042
0.000793633
0.000846874
0.000896
0.000943001
0.000994815
0.00105482
0.00111879
0.00117979
0.00123299
0.00127621
0.00130867
0.0013299
0.0013395
0.00133619
0.00132033
0.00129417
0.00125961
0.00121829
0.00117157
0.0011207
0.00106678
0.00101082
0.000953798
0.000896686
0.000840614
0.000787279
0.000740286
0.000708106
0.000709708
0.000773287
0.000902089
0.00103879
0.00112588
0.00115598
0.00115445
0.00113903
0.0011243
0.00109684
0.00106723
0.00100988
3.49091e-05
3.06606e-05
2.76369e-05
2.54125e-05
2.38164e-05
2.29022e-05
2.31545e-05
2.60764e-05
3.53618e-05
5.781e-05
0.000100622
0.000165046
0.000244443
0.000329033
0.00041093
0.000485913
0.000553007
0.000613594
0.000670528
0.000726836
0.000783972
0.000840639
0.000893916
0.000944657
0.000998606
0.00105937
0.00112368
0.00118504
0.00123849
0.00128177
0.00131407
0.00133506
0.00134441
0.00134084
0.00132483
0.00129851
0.00126375
0.00122218
0.00117517
0.00112396
0.00106965
0.00101326
0.000955753
0.000898052
0.000841226
0.000786806
0.000737987
0.000702392
0.000698022
0.00075492
0.000884023
0.00103097
0.00113029
0.00116845
0.00117001
0.00115373
0.00113571
0.0011041
0.00107064
0.00101075
3.49024e-05
3.06628e-05
2.76502e-05
2.54318e-05
2.38214e-05
2.28311e-05
2.282e-05
2.49435e-05
3.21205e-05
5.01606e-05
8.6494e-05
0.000144607
0.000220102
0.000303659
0.000386533
0.000463447
0.000532711
0.00059535
0.000654138
0.000712301
0.000771713
0.000831482
0.000888699
0.000943176
0.000999445
0.00106111
0.00112582
0.00118758
0.00124142
0.00128489
0.00131719
0.00133807
0.00134727
0.00134355
0.0013275
0.00130114
0.00126629
0.00122457
0.00117737
0.00112592
0.00107133
0.00101459
0.000956674
0.000898479
0.000841014
0.000785672
0.000735271
0.000696607
0.000686481
0.000735968
0.000863606
0.00101992
0.0011319
0.00117885
0.00118402
0.00116721
0.0011461
0.00111052
0.00107337
0.00101111
3.48963e-05
3.06654e-05
2.76638e-05
2.54519e-05
2.38313e-05
2.2781e-05
2.25613e-05
2.4054e-05
2.95356e-05
4.38176e-05
7.4036e-05
0.000125375
0.000195919
0.000277426
0.000360615
0.000439134
0.000510433
0.000575056
0.000635608
0.000695454
0.000756873
0.000819426
0.000880313
0.000938464
0.0009972
0.00105994
0.00112511
0.00118731
0.00124162
0.00128543
0.0013179
0.00133881
0.00134798
0.00134422
0.00132826
0.00130196
0.00126715
0.0012254
0.00117811
0.00112651
0.00107172
0.00101473
0.000956491
0.000897895
0.000839904
0.00078379
0.000732037
0.000690649
0.000675066
0.000716594
0.000840948
0.00100548
0.00113042
0.00118691
0.0011963
0.00117935
0.00115542
0.0011161
0.00107544
0.00101098
3.48908e-05
3.06682e-05
2.76774e-05
2.54727e-05
2.38452e-05
2.27477e-05
2.23631e-05
2.3359e-05
2.74918e-05
3.86443e-05
6.32905e-05
0.000107669
0.000172332
0.000250693
0.000333386
0.000413063
0.0004862
0.000552717
0.000614949
0.00067632
0.000739483
0.000804492
0.000868745
0.000930451
0.000991758
0.00105574
0.00112144
0.00118413
0.00123899
0.00128328
0.00131606
0.00133715
0.00134643
0.00134276
0.00132699
0.0013009
0.00126623
0.00122456
0.00117729
0.00112565
0.00107076
0.0010136
0.000955132
0.00089623
0.000837822
0.000781078
0.00072819
0.000684415
0.000663742
0.000696957
0.000816208
0.000987505
0.00112557
0.00119238
0.00120666
0.00119004
0.00116363
0.00112084
0.00107686
0.0010104
3.48858e-05
3.06712e-05
2.7691e-05
2.54938e-05
2.38622e-05
2.27277e-05
2.2213e-05
2.28186e-05
2.58872e-05
3.44861e-05
5.42198e-05
9.17372e-05
0.000149779
0.000223875
0.000305123
0.000385376
0.000460065
0.000528351
0.000592175
0.000654927
0.000719584
0.000786713
0.000854002
0.000919095
0.000983033
0.0010484
0.00111473
0.00117794
0.00123343
0.00127831
0.00131156
0.00133298
0.00134251
0.00133906
0.00132361
0.00129784
0.00126344
0.00122198
0.00117484
0.00112326
0.00106836
0.00101113
0.000952527
0.000893414
0.000834696
0.000777458
0.000723636
0.000677803
0.000652456
0.000677205
0.000789597
0.000965915
0.00111707
0.00119498
0.00121488
0.00119916
0.00117066
0.00112472
0.00107767
0.00100939
3.48813e-05
3.06744e-05
2.77046e-05
2.55152e-05
2.38816e-05
2.27184e-05
2.21009e-05
2.24006e-05
2.46352e-05
3.11858e-05
4.67183e-05
7.77364e-05
0.000128675
0.000197434
0.000276173
0.000356272
0.000432122
0.000501996
0.00056731
0.000631311
0.000697226
0.000766141
0.000836113
0.00090438
0.000970958
0.00103784
0.0011049
0.00116868