/*--------------------------------*- C++ -*----------------------------------*\
| =========                 |                                                 |
| \\      /  F ield         | OpenFOAM: The Open Source CFD Toolbox           |
|  \\    /   O peration     | Version:  2.4.0                                 |
|   \\  /    A nd           | Web:      www.OpenFOAM.org                      |
|    \\/     M anipulation  |                                                 |
\*---------------------------------------------------------------------------*/
FoamFile
{
    version     2.0;
    format      ascii;
    class       surfaceScalarField;
    location    "350";
    object      phi;
}
// * * * * * * * * * * * * * * * * * * * * * * * * * * * * * * * * * * * * * //

dimensions      [0 3 -1 0 0 0 0];

internalField   nonuniform List<scalar> 
11840
(
4.26675e-06
5.73326e-06
1.63235e-06
2.63442e-06
-2.03701e-07
1.83609e-06
-1.04503e-06
8.414e-07
-1.18057e-06
1.35597e-07
-1.24816e-06
6.76607e-08
-1.32171e-06
7.35809e-08
-1.40202e-06
8.03674e-08
-1.48746e-06
8.5461e-08
-1.5725e-06
8.50817e-08
-1.65798e-06
8.5475e-08
-1.74803e-06
9.00871e-08
-1.84756e-06
9.94966e-08
-1.95297e-06
1.05437e-07
-2.05211e-06
9.90773e-08
-2.12451e-06
7.24136e-08
-2.14821e-06
2.36349e-08
-2.10545e-06
-4.27681e-08
-1.99173e-06
-1.1381e-07
-1.82416e-06
-1.67575e-07
-1.6472e-06
-1.77069e-07
-1.52493e-06
-1.2231e-07
-1.52694e-06
1.88068e-09
-1.70456e-06
1.77578e-07
-2.0708e-06
3.66118e-07
-2.59746e-06
5.26621e-07
-3.22818e-06
6.30621e-07
-3.8989e-06
6.70677e-07
-4.55462e-06
6.5564e-07
-5.1584e-06
6.03732e-07
-5.68581e-06
5.2735e-07
-6.11582e-06
4.2994e-07
-6.43484e-06
3.18985e-07
-6.63591e-06
2.00991e-07
-6.71556e-06
7.96394e-08
-6.67639e-06
-3.92677e-08
-6.52337e-06
-1.53023e-07
-6.26458e-06
-2.5887e-07
-5.90868e-06
-3.55856e-07
-5.46506e-06
-4.43698e-07
-4.94279e-06
-5.22204e-07
-4.35015e-06
-5.92682e-07
-3.69725e-06
-6.52795e-07
-2.98825e-06
-7.09053e-07
-2.23633e-06
-7.5183e-07
-1.43488e-06
-8.01453e-07
-5.72269e-07
-8.62493e-07
3.30951e-07
-9.03205e-07
1.1723e-06
-8.41237e-07
2.00783e-06
-8.35476e-07
2.7833e-06
-7.75347e-07
3.60156e-06
-8.1818e-07
4.24309e-06
-6.41491e-07
4.99689e-06
-7.5369e-07
5.33627e-06
-3.39435e-07
6.09493e-06
-7.58563e-07
5.90685e-06
1.87951e-07
7.08648e-06
-1.1795e-06
6.09163e-06
9.95319e-07
-2.86999e-06
5.42184e-06
1.03114e-05
2.65459e-06
5.40167e-06
3.72674e-07
4.11803e-06
-8.97484e-07
2.1116e-06
-1.23321e-06
4.7136e-07
-1.35119e-06
1.85671e-07
-1.4426e-06
1.65e-07
-1.53255e-06
1.70348e-07
-1.62235e-06
1.7527e-07
-1.71116e-06
1.73909e-07
-1.80177e-06
1.76064e-07
-1.89961e-06
1.87941e-07
-2.0078e-06
2.07662e-07
-2.12059e-06
2.18227e-07
-2.22335e-06
2.01804e-07
-2.29494e-06
1.4401e-07
-2.3136e-06
4.22478e-08
-2.26444e-06
-9.1941e-08
-2.14831e-06
-2.29997e-07
-1.98844e-06
-3.27457e-07
-1.83302e-06
-3.32556e-07
-1.74656e-06
-2.08791e-07
-1.79457e-06
4.98169e-08
-2.02329e-06
4.06284e-07
-2.43859e-06
7.81362e-07
-3.00365e-06
1.09168e-06
-3.65923e-06
1.28616e-06
-4.34406e-06
1.3555e-06
-5.00722e-06
1.31878e-06
-5.61026e-06
1.20677e-06
-6.12545e-06
1.04253e-06
-6.53327e-06
8.37746e-07
-6.8218e-06
6.07516e-07
-6.98506e-06
3.64217e-07
-7.02083e-06
1.15426e-07
-6.93291e-06
-1.27235e-07
-6.7289e-06
-3.57016e-07
-6.41813e-06
-5.69683e-07
-6.00976e-06
-7.642e-07
-5.51329e-06
-9.402e-07
-4.93788e-06
-1.09758e-06
-4.29229e-06
-1.2383e-06
-3.58518e-06
-1.35986e-06
-2.82328e-06
-1.47099e-06
-2.01401e-06
-1.56106e-06
-1.15697e-06
-1.65851e-06
-2.32598e-07
-1.78682e-06
6.97466e-07
-1.83328e-06
1.57973e-06
-1.72346e-06
2.45202e-06
-1.70777e-06
3.29769e-06
-1.62098e-06
4.12898e-06
-1.64945e-06
4.86901e-06
-1.38151e-06
5.59268e-06
-1.47732e-06
6.11201e-06
-8.58789e-07
6.73335e-06
-1.37986e-06
6.91129e-06
9.94031e-09
7.65584e-06
-1.92397e-06
7.39466e-06
1.25681e-06
-4.50205e-06
6.10569e-06
1.42058e-05
3.46219e-06
8.04518e-06
1.09728e-06
6.48296e-06
-4.95189e-07
3.7041e-06
-1.11277e-06
1.08897e-06
-1.29924e-06
3.72156e-07
-1.41452e-06
2.80293e-07
-1.51568e-06
2.71525e-07
-1.61079e-06
2.70398e-07
-1.70271e-06
2.65845e-07
-1.79598e-06
2.69328e-07
-1.89696e-06
2.88945e-07
-2.00834e-06
3.1904e-07
-2.12368e-06
3.33578e-07
-2.2277e-06
3.05806e-07
-2.29938e-06
2.15703e-07
-2.3177e-06
6.05517e-08
-2.26935e-06
-1.4028e-07
-2.15731e-06
-3.42063e-07
-2.00747e-06
-4.77288e-07
-1.87045e-06
-4.69614e-07
-1.81066e-06
-2.6858e-07
-1.8899e-06
1.29006e-07
-2.14778e-06
6.64153e-07
-2.58322e-06
1.21677e-06
-3.15579e-06
1.66422e-06
-3.80687e-06
1.9372e-06
-4.47849e-06
2.02711e-06
-5.12284e-06
1.96309e-06
-5.7031e-06
1.78699e-06
-6.19263e-06
1.53202e-06
-6.57352e-06
1.2186e-06
-6.83504e-06
8.69013e-07
-6.9718e-06
5.00941e-07
-6.98223e-06
1.25841e-07
-6.87064e-06
-2.3887e-07
-6.64494e-06
-5.8272e-07
-6.31402e-06
-9.00641e-07
-5.88686e-06
-1.19134e-06
-5.37266e-06
-1.45443e-06
-4.78019e-06
-1.69002e-06
-4.11798e-06
-1.90052e-06
-3.39383e-06
-2.08397e-06
-2.61469e-06
-2.25014e-06
-1.78567e-06
-2.39005e-06
-9.05089e-07
-2.53909e-06
3.22001e-08
-2.72407e-06
9.60414e-07
-2.76148e-06
1.85244e-06
-2.61545e-06
2.73589e-06
-2.5912e-06
3.59808e-06
-2.48312e-06
4.42877e-06
-2.4801e-06
5.18873e-06
-2.14146e-06
5.89134e-06
-2.17989e-06
6.45749e-06
-1.42496e-06
7.01232e-06
-1.93466e-06
7.3231e-06
-3.00882e-07
7.86025e-06
-2.46108e-06
7.92735e-06
1.18986e-06
-5.48588e-06
6.57919e-06
1.76266e-05
4.10661e-06
1.05178e-05
1.81519e-06
8.77438e-06
6.2946e-09
5.51303e-06
-9.14301e-07
2.00958e-06
-1.20123e-06
6.59101e-07
-1.34851e-06
4.27587e-07
-1.46375e-06
3.86775e-07
-1.56579e-06
3.72443e-07
-1.66148e-06
3.61544e-07
-1.75721e-06
3.65052e-07
-1.86033e-06
3.92068e-07
-1.97368e-06
4.32372e-07
-2.09076e-06
4.5066e-07
-2.19624e-06
4.11271e-07
-2.26942e-06
2.88886e-07
-2.28979e-06
8.0898e-08
-2.2448e-06
-1.85281e-07
-2.13825e-06
-4.48646e-07
-1.99716e-06
-6.18384e-07
-1.87361e-06
-5.93192e-07
-1.83235e-06
-3.09851e-07
-1.9322e-06
2.28814e-07
-2.20698e-06
9.38925e-07
-2.65029e-06
1.66005e-06
-3.22e-06
2.23392e-06
-3.85912e-06
2.5763e-06
-4.51272e-06
2.6807e-06
-5.13562e-06
2.58599e-06
-5.69284e-06
2.34421e-06
-6.15906e-06
1.99824e-06
-6.5174e-06
1.57693e-06
-6.75775e-06
1.10937e-06
-6.87498e-06
6.1816e-07
-6.86773e-06
1.18599e-07
-6.7405e-06
-3.66127e-07
-6.50116e-06
-8.22052e-07
-6.15824e-06
-1.24358e-06
-5.7205e-06
-1.62906e-06
-5.19681e-06
-1.97815e-06
-4.59557e-06
-2.29124e-06
-3.92493e-06
-2.57118e-06
-3.19205e-06
-2.81684e-06
-2.40352e-06
-3.03869e-06
-1.56287e-06
-3.23068e-06
-6.6652e-07
-3.43546e-06
2.7088e-07
-3.66145e-06
1.19046e-06
-3.68107e-06
2.08593e-06
-3.5109e-06
2.97249e-06
-3.47776e-06
3.83758e-06
-3.34819e-06
4.66287e-06
-3.30538e-06
5.42254e-06
-2.90113e-06
6.10733e-06
-2.86465e-06
6.68118e-06
-1.99883e-06
7.19366e-06
-2.44711e-06
7.55099e-06
-6.58243e-07
7.96914e-06
-2.87921e-06
8.18825e-06
9.70882e-07
-6.12961e-06
6.93645e-06
2.06901e-05
4.64436e-06
1.28099e-05
2.47385e-06
1.09449e-05
5.61459e-07
7.42543e-06
-6.22647e-07
3.19371e-06
-1.06588e-06
1.10235e-06
-1.2586e-06
6.20319e-07
-1.39269e-06
5.20879e-07
-1.50405e-06
4.83804e-07
-1.60472e-06
4.62233e-07
-1.70335e-06
4.63687e-07
-1.80846e-06
4.97184e-07
-1.92342e-06
5.47339e-07
-2.04209e-06
5.69339e-07
-2.14941e-06
5.18578e-07
-2.22505e-06
3.64547e-07
-2.24895e-06
1.0478e-07
-2.20886e-06
-2.25365e-07
-2.10874e-06
-5.48771e-07
-1.97575e-06
-7.51376e-07
-1.8625e-06
-7.0646e-07
-1.83406e-06
-3.38289e-07
-1.9472e-06
3.41928e-07
-2.23105e-06
1.22276e-06
-2.67514e-06
2.10411e-06
-3.23666e-06
2.79543e-06
-3.86052e-06
3.20012e-06
-4.49449e-06
3.31465e-06
-5.09567e-06
3.18714e-06
-5.63071e-06
2.87922e-06
-6.07542e-06
2.44291e-06
-6.41362e-06
1.9151e-06
-6.63562e-06
1.33135e-06
-6.73639e-06
7.18905e-07
-6.71474e-06
9.69276e-08
-6.57524e-06
-5.05655e-07
-6.32569e-06
-1.07161e-06
-5.97432e-06
-1.59497e-06
-5.52966e-06
-2.07372e-06
-5.00026e-06
-2.50758e-06
-4.39416e-06
-2.89731e-06
-3.71909e-06
-3.24626e-06
-2.98154e-06
-3.55435e-06
-2.1876e-06
-3.83264e-06
-1.33933e-06
-4.07892e-06
-4.3369e-07
-4.3411e-06
4.97728e-07
-4.59283e-06
1.40667e-06
-4.59e-06
2.30196e-06
-4.40615e-06
3.18728e-06
-4.36306e-06
4.0496e-06
-4.21048e-06
4.86673e-06
-4.12248e-06
5.61897e-06
-3.65335e-06
6.28687e-06
-3.53253e-06
6.85495e-06
-2.56692e-06
7.33645e-06
-2.9286e-06
7.70563e-06
-1.02744e-06
8.05175e-06
-3.22531e-06
8.33261e-06
6.90093e-07
-6.59279e-06
7.22845e-06
2.34617e-05
5.10751e-06
1.49308e-05
3.07395e-06
1.29785e-05
1.14494e-06
9.35447e-06
-2.51092e-07
4.58976e-06
-8.88093e-07
1.73937e-06
-1.14539e-06
8.77622e-07
-1.30496e-06
6.80464e-07
-1.4288e-06
6.0765e-07
-1.53614e-06
5.69574e-07
-1.63845e-06
5.65993e-07
-1.74573e-06
6.04466e-07
-1.86225e-06
6.63856e-07
-1.98251e-06
6.89596e-07
-2.09196e-06
6.28013e-07
-2.17081e-06
4.43399e-07
-2.19935e-06
1.33295e-07
-2.16542e-06
-2.59298e-07
-2.07267e-06
-6.41546e-07
-1.94757e-06
-8.76483e-07
-1.84241e-06
-8.11648e-07
-1.82242e-06
-3.58287e-07
-1.94321e-06
4.62686e-07
-2.23035e-06
1.5099e-06
-2.67027e-06
2.54401e-06
-3.22006e-06
3.34522e-06
-3.82652e-06
3.80656e-06
-4.43985e-06
3.92798e-06
-5.01914e-06
3.76642e-06
-5.53245e-06
3.39253e-06
-5.95654e-06
2.867e-06
-6.27582e-06
2.23437e-06
-6.48089e-06
1.53642e-06
-6.56681e-06
8.04816e-07
-6.53253e-06
6.26556e-08
-6.38274e-06
-6.55464e-07
-6.12505e-06
-1.32929e-06
-5.7675e-06
-1.95255e-06
-5.31835e-06
-2.52285e-06
-4.78586e-06
-3.04009e-06
-4.17771e-06
-3.50545e-06
-3.50114e-06
-3.92285e-06
-2.76201e-06
-4.29346e-06
-1.96571e-06
-4.62896e-06
-1.1128e-06
-4.93181e-06
-2.04157e-07
-5.24975e-06
7.16964e-07
-5.51394e-06
1.61476e-06
-5.4878e-06
2.50712e-06
-5.29849e-06
3.38821e-06
-5.24416e-06
4.24448e-06
-5.06673e-06
5.05159e-06
-4.92958e-06
5.79312e-06
-4.39488e-06
6.44433e-06
-4.18372e-06
7.00118e-06
-3.12377e-06
7.45681e-06
-3.38421e-06
7.82339e-06
-1.39404e-06
8.11982e-06
-3.52172e-06
8.42313e-06
3.86855e-07
-6.94781e-06
7.47971e-06
2.5982e-05
5.51544e-06
1.68951e-05
3.62094e-06
1.4873e-05
1.73138e-06
1.12441e-05
1.835e-07
6.13765e-06
-6.57724e-07
2.58061e-06
-1.00622e-06
1.22613e-06
-1.20001e-06
8.74263e-07
-1.34035e-06
7.48006e-07
-1.45646e-06
6.85694e-07
-1.56352e-06
6.73054e-07
-1.67337e-06
7.14335e-07
-1.79154e-06
7.82021e-07
-1.91343e-06
8.11503e-07
-2.02528e-06
7.3986e-07
-2.10793e-06
5.26055e-07
-2.14205e-06
1.67405e-07
-2.11539e-06
-2.85945e-07
-2.03092e-06
-7.26027e-07
-1.91381e-06
-9.93583e-07
-1.81516e-06
-9.10311e-07
-1.80008e-06
-3.73366e-07
-1.92385e-06
5.86428e-07
-2.20965e-06
1.79569e-06
-2.64157e-06
2.9759e-06
-3.17688e-06
3.88051e-06
-3.76425e-06
4.3939e-06
-4.35605e-06
4.51976e-06
-4.91311e-06
4.32345e-06
-5.40476e-06
3.88415e-06
-5.80861e-06
3.27082e-06
-6.10955e-06
2.53528e-06
-6.29846e-06
1.72531e-06
-6.37046e-06
8.76777e-07
-6.32471e-06
1.68957e-08
-6.166e-06
-8.1421e-07
-5.90171e-06
-1.59358e-06
-5.53969e-06
-2.31459e-06
-5.088e-06
-2.97454e-06
-4.55458e-06
-3.57353e-06
-3.94673e-06
-4.11329e-06
-3.27121e-06
-4.59839e-06
-2.53319e-06
-5.03144e-06
-1.73728e-06
-5.42488e-06
-8.82414e-07
-5.78665e-06
2.29258e-08
-6.15509e-06
9.30128e-07
-6.42111e-06
1.81698e-06
-6.37464e-06
2.70409e-06
-6.18557e-06
3.57864e-06
-6.11868e-06
4.42661e-06
-5.91466e-06
5.2223e-06
-5.72524e-06
5.95132e-06
-5.12389e-06
6.58587e-06
-4.81824e-06
7.12893e-06
-3.66685e-06
7.5613e-06
-3.81657e-06
7.91859e-06
-1.75136e-06
8.17702e-06
-3.78014e-06
8.48533e-06
7.85807e-08
-7.23131e-06
7.70207e-06
2.82799e-05
5.88057e-06
1.87166e-05
4.12103e-06
1.66325e-05
2.3007e-06
1.30644e-05
6.63585e-07
7.77478e-06
-3.66682e-07
3.6109e-06
-8.36792e-07
1.69625e-06
-1.07614e-06
1.11362e-06
-1.23797e-06
9.09838e-07
-1.36545e-06
8.13183e-07
-1.4786e-06
7.86206e-07
-1.59162e-06
8.27361e-07
-1.7116e-06
9.01992e-07
-1.83522e-06
9.35121e-07
-1.94969e-06
8.54312e-07
-2.03662e-06
6.12988e-07
-2.07713e-06
2.07897e-07
-2.05875e-06
-3.04325e-07
-1.98347e-06
-8.01338e-07
-1.87464e-06
-1.10241e-06
-1.78139e-06
-1.00358e-06
-1.76833e-06
-3.86438e-07
-1.89109e-06
7.09166e-07
-2.17163e-06
2.07623e-06
-2.59234e-06
3.39659e-06
-3.11087e-06
4.39904e-06
-3.67766e-06
4.96068e-06
-4.24704e-06
5.08914e-06
-4.78141e-06
4.85782e-06
-5.25124e-06
4.35398e-06
-5.6349e-06
3.65448e-06
-5.91777e-06
2.81814e-06
-6.09097e-06
1.89852e-06
-6.14964e-06
9.3544e-07
-6.09326e-06
-3.94842e-08
-5.92669e-06
-9.80801e-07
-5.65702e-06
-1.86324e-06
-5.29198e-06
-2.67965e-06
-4.83939e-06
-3.42712e-06
-4.30692e-06
-4.10602e-06
-3.70147e-06
-4.71872e-06
-3.02933e-06
-5.27054e-06
-2.29495e-06
-5.76579e-06
-1.50204e-06
-6.21781e-06
-6.48093e-07
-6.64058e-06
2.47846e-07
-7.05104e-06
1.13814e-06
-7.31139e-06
2.01439e-06
-7.25088e-06
2.89421e-06
-7.06538e-06
3.76029e-06
-6.98476e-06
4.59822e-06
-6.75258e-06
5.38142e-06
-6.50843e-06
6.0968e-06
-5.83926e-06
6.71467e-06
-5.4361e-06
7.24265e-06
-4.19484e-06
7.65331e-06
-4.22721e-06
7.998e-06
-2.09606e-06
8.22545e-06
-4.00758e-06
8.53087e-06
-2.26783e-07
-7.46358e-06
7.9023e-06
3.03776e-05
6.21147e-06
2.04074e-05
4.58008e-06
1.82639e-05
2.84661e-06
1.47979e-05
1.17326e-06
9.44815e-06
-1.88563e-08
4.80303e-06
-6.3128e-07
2.30868e-06
-9.30926e-07
1.41328e-06
-1.12039e-06
1.09931e-06
-1.26241e-06
9.55212e-07
-1.38334e-06
9.07145e-07
-1.50032e-06
9.44351e-07
-1.6224e-06
1.02408e-06
-1.74784e-06
1.06058e-06
-1.86511e-06
9.71573e-07
-1.95673e-06
7.04624e-07
-2.00433e-06
2.55492e-07
-1.99513e-06
-3.1352e-07
-1.92989e-06
-8.66586e-07
-1.82977e-06
-1.20253e-06
-1.74122e-06
-1.09215e-06
-1.72784e-06
-3.99807e-07
-1.84618e-06
8.27477e-07
-2.11802e-06
2.34807e-06
-2.52473e-06
3.80327e-06
-3.02445e-06
4.89874e-06
-3.56929e-06
5.50548e-06
-4.11536e-06
5.63519e-06
-4.62648e-06
5.3689e-06
-5.07418e-06
4.80165e-06
-5.43755e-06
4.01782e-06
-5.70242e-06
3.08298e-06
-5.8602e-06
2.05627e-06
-5.90604e-06
9.81251e-07
-5.83966e-06
-1.0588e-07
-5.66604e-06
-1.15446e-06
-5.39202e-06
-2.13726e-06
-5.02518e-06
-3.04651e-06
-4.57313e-06
-3.87916e-06
-4.04326e-06
-4.63591e-06
-3.44212e-06
-5.31984e-06
-2.77551e-06
-5.93717e-06
-2.04717e-06
-6.4941e-06
-1.25978e-06
-7.00521e-06
-4.10841e-07
-7.48949e-06
4.7072e-07
-7.9326e-06
1.34249e-06
-8.18312e-06
2.20764e-06
-8.11602e-06
3.0783e-06
-7.93601e-06
3.93423e-06
-7.84067e-06
4.76072e-06
-7.57903e-06
5.53054e-06
-7.27823e-06
6.23151e-06
-6.54022e-06
6.8327e-06
-6.03726e-06
7.3449e-06
-4.70705e-06
7.73493e-06
-4.61723e-06
8.06541e-06
-2.42656e-06
8.26674e-06
-4.2089e-06
8.56581e-06
-5.25827e-07
-7.65764e-06
8.08485e-06
3.22928e-05
6.51435e-06
2.1978e-05
5.00328e-06
1.9775e-05
3.36619e-06
1.6435e-05
1.69433e-06
1.112e-05
3.77306e-07
6.12007e-06
-3.81516e-07
3.06751e-06
-7.61228e-07
1.79301e-06
-9.86014e-07
1.3241e-06
-1.14638e-06
1.11559e-06
-1.27715e-06
1.03791e-06
-1.39909e-06
1.0663e-06
-1.52369e-06
1.14866e-06
-1.65111e-06
1.188e-06
-1.77132e-06
1.09177e-06
-1.86796e-06
8.01264e-07
-1.92324e-06
3.10754e-07
-1.92399e-06
-3.12766e-07
-1.86961e-06
-9.20991e-07
-1.77872e-06
-1.29342e-06
-1.69451e-06
-1.17638e-06
-1.67903e-06
-4.15285e-07
-1.78999e-06
9.38404e-07
-2.05007e-06
2.60815e-06
-2.44028e-06
4.19346e-06
-2.91933e-06
5.37779e-06
-3.44092e-06
6.02706e-06
-3.96279e-06
6.15706e-06
-4.45007e-06
5.85618e-06
-4.87527e-06
5.22686e-06
-5.21818e-06
4.36072e-06
-5.46505e-06
3.32984e-06
-5.60758e-06
2.1988e-06
-5.64097e-06
1.01463e-06
-5.56513e-06
-1.81717e-07
-5.38515e-06
-1.33446e-06
-5.10767e-06
-2.41474e-06
-4.74009e-06
-3.41411e-06
-4.28982e-06
-4.32942e-06
-3.76402e-06
-5.16174e-06
-3.16888e-06
-5.91496e-06
-2.50976e-06
-6.5963e-06
-1.78971e-06
-7.21414e-06
-1.01028e-06
-7.78466e-06
-1.71187e-07
-8.32856e-06
6.91713e-07
-8.79551e-06
1.54418e-06
-9.03557e-06
2.39725e-06
-8.9691e-06
3.25701e-06
-8.79575e-06
4.1013e-06
-8.68496e-06
4.91514e-06
-8.39285e-06
5.67084e-06
-8.03392e-06
6.35683e-06
-7.22621e-06
6.94133e-06
-6.62175e-06
7.43738e-06
-5.20311e-06
7.80764e-06
-4.98747e-06
8.1233e-06
-2.74223e-06
8.30231e-06
-4.3879e-06
8.59377e-06
-8.1725e-07
-7.82193e-06
8.2528e-06
3.404e-05
6.79379e-06
2.3437e-05
5.39506e-06
2.11738e-05
3.85853e-06
1.79716e-05
2.21647e-06
1.27621e-05
8.1239e-07
7.52417e-06
-8.6289e-08
3.96621e-06
-5.63093e-07
2.26983e-06
-8.32856e-07
1.59387e-06
-1.0162e-06
1.29895e-06
-1.15929e-06
1.181e-06
-1.28749e-06
1.19452e-06
-1.41515e-06
1.27632e-06
-1.54476e-06
1.31762e-06
-1.66804e-06
1.21505e-06
-1.76995e-06
9.03178e-07
-1.83338e-06
3.74181e-07
-1.84477e-06
-3.01364e-07
-1.80198e-06
-9.63787e-07
-1.7209e-06
-1.37449e-06
-1.64099e-06
-1.25631e-06
-1.62213e-06
-4.3414e-07
-1.72321e-06
1.03946e-06
-1.96876e-06
2.8537e-06
-2.34017e-06
4.56483e-06
-2.79684e-06
5.83445e-06
-3.29394e-06
6.52413e-06
-3.79075e-06
6.65384e-06
-4.25359e-06
6.319e-06
-4.65591e-06
5.62915e-06
-4.97814e-06
4.68291e-06
-5.20698e-06
3.55865e-06
-5.33442e-06
2.32621e-06
-5.35567e-06
1.03585e-06
-5.27084e-06
-2.66567e-07
-5.08512e-06
-1.5202e-06
-4.80494e-06
-2.69493e-06
-4.43753e-06
-3.78154e-06
-3.99011e-06
-4.77683e-06
-3.46962e-06
-5.68226e-06
-2.88197e-06
-6.50259e-06
-2.23211e-06
-7.24618e-06
-1.5224e-06
-7.92382e-06
-7.5322e-07
-8.55384e-06
7.06784e-08
-9.15243e-06
9.11096e-07
-9.63592e-06
1.74409e-06
-9.86853e-06
2.58378e-06
-9.80877e-06
3.43096e-06
-9.64289e-06
4.26225e-06
-9.51623e-06
5.06238e-06
-9.19294e-06
5.80329e-06
-8.77481e-06
6.47385e-06
-7.89675e-06
7.04165e-06
-7.18951e-06
7.52138e-06
-5.68285e-06
7.87264e-06
-5.33871e-06
8.1735e-06
-3.04312e-06
8.33342e-06
-4.54781e-06
8.61719e-06
-1.101e-06
-7.96272e-06
8.40837e-06
3.56316e-05
7.05327e-06
2.47921e-05
5.75922e-06
2.24678e-05
4.32388e-06
1.94069e-05
2.7324e-06
1.43536e-05
1.27491e-06
8.98168e-06
2.52079e-07
4.98905e-06
-3.31417e-07
2.85334e-06
-6.5851e-07
1.92097e-06
-8.70482e-07
1.51093e-06
-1.02891e-06
1.33943e-06
-1.16497e-06
1.33058e-06
-1.29643e-06
1.40778e-06
-1.42848e-06
1.44967e-06
-1.55497e-06
1.34153e-06
-1.66232e-06
1.01052e-06
-1.73427e-06
4.46118e-07
-1.75685e-06
-2.78781e-07
-1.72633e-06
-9.94338e-07
-1.65569e-06
-1.44513e-06
-1.58029e-06
-1.33173e-06
-1.55724e-06
-4.57202e-07
-1.6464e-06
1.1286e-06
-1.87492e-06
3.08222e-06
-2.22539e-06
4.91529e-06
-2.65807e-06
6.26714e-06
-3.12952e-06
6.99556e-06
-3.60042e-06
7.12474e-06
-4.03826e-06
6.75683e-06
-4.41732e-06
6.0082e-06
-4.71867e-06
4.98426e-06
-4.92945e-06
3.76943e-06
-5.04193e-06
2.43869e-06
-5.05134e-06
1.04525e-06
-4.95795e-06
-3.59956e-07
-4.76706e-06
-1.71111e-06
-4.48484e-06
-2.97714e-06
-4.11839e-06
-4.14802e-06
-3.67473e-06
-5.22048e-06
-3.16061e-06
-6.1964e-06
-2.58171e-06
-7.08147e-06
-1.94263e-06
-7.88528e-06
-1.2451e-06
-8.62132e-06
-4.88735e-07
-9.31023e-06
3.14781e-07
-9.95593e-06
1.12967e-06
-1.04508e-05
1.94303e-06
-1.06819e-05
2.76781e-06
-1.06336e-05
3.60081e-06
-1.04759e-05
4.41782e-06
-1.03332e-05
5.20326e-06
-9.97836e-06
5.92878e-06
-9.50031e-06
6.58351e-06
-8.55149e-06
7.13458e-06
-7.74056e-06
7.59797e-06
-6.14625e-06
7.93097e-06
-5.6717e-06
8.21749e-06
-3.32966e-06
8.36114e-06
-4.69145e-06
8.63777e-06
-1.3776e-06
-8.08433e-06
8.5532e-06
3.70784e-05
7.29546e-06
2.60498e-05
6.09895e-06
2.36643e-05
4.76319e-06
2.07427e-05
3.23701e-06
1.58798e-05
1.7552e-06
1.04635e-05
6.29055e-07
6.11521e-06
-6.35097e-08
3.54592e-06
-4.60055e-07
2.31753e-06
-7.07576e-07
1.75847e-06
-8.84982e-07
1.51684e-06
-1.03087e-06
1.47648e-06
-1.16709e-06
1.544e-06
-1.30198e-06
1.58457e-06
-1.4318e-06
1.47135e-06
-1.5447e-06
1.12344e-06
-1.62544e-06
5.26851e-07
-1.65966e-06
-2.44547e-07
-1.64197e-06
-1.01203e-06
-1.58243e-06
-1.50466e-06
-1.512e-06
-1.40217e-06
-1.48438e-06
-4.8482e-07
-1.56002e-06
1.20422e-06
-1.76928e-06
3.29147e-06
-2.09681e-06
5.24279e-06
-2.50397e-06
6.67428e-06
-2.94866e-06
7.44022e-06
-3.39288e-06
7.56894e-06
-3.80517e-06
7.16908e-06
-4.16063e-06
6.36364e-06
-4.44094e-06
5.26454e-06
-4.63367e-06
3.96213e-06
-4.73134e-06
2.53634e-06
-4.7292e-06
1.04308e-06
-4.62766e-06
-4.61512e-07
-4.43211e-06
-1.9067e-06
-4.14846e-06
-3.2608e-06
-3.78363e-06
-4.51288e-06
-3.34449e-06
-5.65961e-06
-2.83762e-06
-6.70329e-06
-2.26852e-06
-7.65055e-06
-1.6415e-06
-8.51231e-06
-9.57736e-07
-9.30506e-06
-2.17549e-07
-1.00504e-05
5.61274e-07
-1.07347e-05
1.34886e-06
-1.12384e-05
2.1418e-06
-1.14748e-05
2.95001e-06
-1.14418e-05
3.76726e-06
-1.12931e-05
4.56876e-06
-1.11347e-05
5.3386e-06
-1.07482e-05
6.04813e-06
-1.02098e-05
6.68669e-06
-9.19004e-06
7.221e-06
-8.27484e-06
7.66809e-06
-6.59336e-06
7.9836e-06
-5.98719e-06
8.25652e-06
-3.60259e-06
8.38649e-06
-4.82141e-06
8.65683e-06
-1.64792e-06
-8.19028e-06
8.68854e-06
3.83899e-05
7.52247e-06
2.72159e-05
6.41698e-06
2.47698e-05
5.17776e-06
2.19819e-05
3.72682e-06
1.73308e-05
2.24567e-06
1.19447e-05
1.03806e-06
7.32282e-06
2.40543e-07
4.34345e-06
-2.3386e-07
2.79194e-06
-5.25542e-07
2.05016e-06
-7.26333e-07
1.71763e-06
-8.84478e-07
1.63463e-06
-1.02668e-06
1.6862e-06
-1.16491e-06
1.72281e-06
-1.29823e-06
1.60465e-06
-1.41676e-06
1.24197e-06
-1.50643e-06
6.16512e-07
-1.55263e-06
-1.98351e-07
-1.54829e-06
-1.0164e-06
-1.50049e-06
-1.55246e-06
-1.43566e-06
-1.46702e-06
-1.40351e-06
-5.16976e-07
-1.46448e-06
1.26516e-06
-1.6525e-06
3.47949e-06
-1.95522e-06
5.54549e-06
-2.33541e-06
7.05448e-06
-2.75229e-06
7.85708e-06
-3.16909e-06
7.98574e-06
-3.55534e-06
7.55532e-06
-3.88692e-06
6.69522e-06
-4.14607e-06
5.52368e-06
-4.32078e-06
4.13682e-06
-4.40383e-06
2.6194e-06
-4.39046e-06
1.02968e-06
-4.28119e-06
-5.70778e-07
-4.08146e-06
-2.10645e-06
-3.79691e-06
-3.54534e-06
-3.43431e-06
-4.8755e-06
-3.00033e-06
-6.09357e-06
-2.50143e-06
-7.20221e-06
-1.94296e-06
-8.20901e-06
-1.32902e-06
-9.12626e-06
-6.60312e-07
-9.97374e-06
5.98199e-08
-1.07706e-05
8.10393e-07
-1.14853e-05
1.56992e-06
-1.19979e-05
2.34124e-06
-1.22461e-05
3.13109e-06
-1.22316e-05
3.93102e-06
-1.2093e-05
4.71581e-06
-1.19195e-05
5.46918e-06
-1.15015e-05
6.16216e-06
-1.09028e-05
6.78421e-06
-9.81208e-06
7.30171e-06
-8.79233e-06
7.73263e-06
-7.02429e-06
8.03146e-06
-6.28601e-06
8.29172e-06
-3.86287e-06
8.41034e-06
-4.94003e-06
8.67537e-06
-1.91292e-06
-8.28296e-06
8.8154e-06
3.95745e-05
7.73599e-06
2.82953e-05
6.71561e-06
2.57902e-05
5.56909e-06
2.31285e-05
4.19955e-06
1.87003e-05
2.73986e-06
1.34044e-05
1.47291e-06
8.58979e-06
5.78998e-07
5.23738e-06
2.21067e-08
3.34884e-06
-3.22065e-07
2.39435e-06
-5.51586e-07
1.94716e-06
-7.24939e-07
1.808e-06
-8.7467e-07
1.83594e-06
-1.01692e-06
1.86506e-06
-1.15394e-06
1.74167e-06
-1.27813e-06
1.36617e-06
-1.37681e-06
7.15185e-07
-1.43521e-06
-1.39935e-07
-1.44465e-06
-1.00697e-06
-1.40925e-06
-1.58785e-06
-1.35077e-06
-1.5255e-06
-1.31449e-06
-5.53256e-07
-1.36008e-06
1.31074e-06
-1.5252e-06
3.64461e-06
-1.80136e-06
5.82162e-06
-2.1532e-06
7.4063e-06
-2.54126e-06
8.24511e-06
-2.92997e-06
8.37442e-06
-3.28975e-06
7.91507e-06
-3.59723e-06
7.00267e-06
-3.83517e-06
5.76159e-06
-3.99194e-06
4.29356e-06
-4.06058e-06
2.68802e-06
-4.0363e-06
1.00536e-06
-3.91973e-06
-6.87368e-07
-3.7163e-06
-2.30991e-06
-3.43139e-06
-3.83026e-06
-3.07154e-06
-5.23538e-06
-2.64328e-06
-6.52182e-06
-2.15293e-06
-7.69259e-06
-1.60573e-06
-8.75619e-06
-1.00564e-06
-9.72636e-06
-3.53277e-07
-1.06261e-05
3.42927e-07
-1.14668e-05
1.06266e-06
-1.2205e-05
1.79392e-06
-1.27292e-05
2.54216e-06
-1.29943e-05
3.3118e-06
-1.30012e-05
4.09284e-06
-1.2874e-05
4.85973e-06
-1.26864e-05
5.59578e-06
-1.22375e-05
6.27165e-06
-1.15786e-05
6.87686e-06
-1.04173e-05
7.37751e-06
-9.29295e-06
7.79243e-06
-7.43922e-06
8.07542e-06
-6.56898e-06
8.32411e-06
-4.11159e-06
8.43353e-06
-5.04943e-06
8.6942e-06
-2.17358e-06
-8.36449e-06
8.93456e-06
4.06399e-05
7.93738e-06
2.92925e-05
6.99681e-06
2.67308e-05
5.93872e-06
2.41866e-05
4.65389e-06
1.99852e-05
3.23247e-06
1.48258e-05
1.92781e-06
9.89446e-06
9.4847e-07
6.21674e-06
3.08321e-07
3.98899e-06
-9.44767e-08
2.79715e-06
-3.59112e-07
2.21179e-06
-5.51264e-07
2.00016e-06
-7.10447e-07
1.99511e-06
-8.57602e-07
2.01222e-06
-9.98632e-07
1.88269e-06
-1.12851e-06
1.49605e-06
-1.23615e-06
8.22814e-07
-1.3069e-06
-6.91879e-08
-1.33049e-06
-9.83395e-07
-1.30809e-06
-1.61026e-06
-1.25685e-06
-1.57676e-06
-1.21713e-06
-5.92978e-07
-1.24708e-06
1.34066e-06
-1.38795e-06
3.78548e-06
-1.63593e-06
6.06959e-06
-1.95811e-06
7.72848e-06
-2.31643e-06
8.60341e-06
-2.67641e-06
8.7344e-06
-3.00936e-06
8.24802e-06
-3.29257e-06
7.28586e-06
-3.50928e-06
5.97829e-06
-3.64825e-06
4.43252e-06
-3.70274e-06
2.74251e-06
-3.66792e-06
9.70524e-07
-3.54449e-06
-8.10793e-07
-3.33786e-06
-2.51656e-06
-3.05306e-06
-4.11505e-06
-2.69647e-06
-5.59199e-06
-2.27441e-06
-6.94386e-06
-1.79308e-06
-8.17394e-06
-1.25766e-06
-9.2916e-06
-6.71982e-07
-1.03121e-05
-3.80335e-08
-1.126e-05
6.31304e-07
-1.21361e-05
1.31925e-06
-1.28929e-05
2.0218e-06
-1.34317e-05
2.74535e-06
-1.37178e-05
3.4929e-06
-1.37488e-05
4.25346e-06
-1.36345e-05
5.00126e-06
-1.34342e-05
5.71914e-06
-1.29554e-05
6.37735e-06
-1.22368e-05
6.96541e-06
-1.10053e-05
7.44916e-06
-9.77669e-06
7.84832e-06
-7.83839e-06
8.11634e-06
-6.83699e-06
8.35462e-06
-4.34988e-06
8.45676e-06
-5.15156e-06
8.71396e-06
-2.43075e-06
-8.43618e-06
9.04669e-06
4.15932e-05
8.12777e-06
3.02114e-05
7.26224e-06
2.75964e-05
6.28819e-06
2.51606e-05
5.08917e-06
2.11842e-05
3.71923e-06
1.61958e-05
2.39718e-06
1.12165e-05
1.34581e-06
7.26813e-06
6.24197e-07
4.71062e-06
1.58411e-07
3.26296e-06
-1.46989e-07
2.5172e-06
-3.62291e-07
2.21548e-06
-5.33311e-07
2.16614e-06
-6.86529e-07
2.16546e-06
-8.3198e-07
2.02814e-06
-9.67572e-07
1.63166e-06
-1.08406e-06
9.39298e-07
-1.1672e-06
1.39632e-08
-1.20527e-06
-9.45328e-07
-1.19646e-06
-1.61906e-06
-1.15338e-06
-1.61985e-06
-1.11119e-06
-6.35166e-07
-1.12564e-06
1.35509e-06
-1.24127e-06
3.90111e-06
-1.45963e-06
6.28792e-06
-1.7509e-06
8.01974e-06
-2.07858e-06
8.93106e-06
-2.40928e-06
9.06507e-06
-2.71509e-06
8.5538e-06
-2.97391e-06
7.54466e-06
-3.16945e-06
6.1738e-06
-3.2908e-06
4.55383e-06
-3.33144e-06
2.78312e-06
-3.28647e-06
9.2552e-07
-3.15667e-06
-9.40616e-07
-2.94732e-06
-2.72595e-06
-2.66314e-06
-4.39924e-06
-2.31028e-06
-5.94488e-06
-1.89487e-06
-7.35927e-06
-1.42297e-06
-8.64586e-06
-8.99709e-07
-9.81484e-06
-3.28791e-07
-1.0883e-05
2.84066e-07
-1.18728e-05
9.24423e-07
-1.27765e-05
1.58101e-06
-1.35495e-05
2.25433e-06
-1.4105e-05
2.95157e-06
-1.4415e-05
3.67512e-06
-1.44723e-05
4.41359e-06
-1.4373e-05
5.14111e-06
-1.41616e-05
5.83997e-06
-1.36542e-05
6.47999e-06
-1.28768e-05
7.05057e-06
-1.15759e-05
7.5174e-06
-1.02435e-05
7.90108e-06
-8.22208e-06
8.15505e-06
-7.09095e-06
8.3841e-06
-4.57895e-06
8.48069e-06
-5.24814e-06
8.73517e-06
-2.68521e-06
-8.4993e-06
9.15234e-06
4.24409e-05
8.30809e-06
3.10557e-05
7.51334e-06
2.83911e-05
6.61895e-06
2.6055e-05
5.50528e-06
2.22979e-05
4.19675e-06
1.75043e-05
2.87581e-06
1.25375e-05
1.76733e-06
8.37662e-06
9.68578e-07
5.50938e-06
4.37155e-07
3.79439e-06
8.63019e-08
2.86805e-06
-1.56643e-07
2.45844e-06
-3.42428e-07
2.35192e-06
-5.03185e-07
2.32622e-06
-6.53634e-07
2.17858e-06
-7.95013e-07
1.77304e-06
-9.20137e-07
1.06441e-06
-1.01563e-06
1.09457e-07
-1.06848e-06
-8.92499e-07
-1.07381e-06
-1.61373e-06
-1.03987e-06
-1.65381e-06
-9.9636e-07
-6.78677e-07
-9.95861e-07
1.35457e-06
-1.08563e-06
3.99087e-06
-1.27311e-06
6.47539e-06
-1.53231e-06
8.27894e-06
-1.82853e-06
9.22726e-06
-2.12942e-06
9.36596e-06
-2.40783e-06
8.8322e-06
-2.64222e-06
7.77904e-06
-2.81669e-06
6.34827e-06
-2.92066e-06
4.65779e-06
-2.94777e-06
2.81022e-06
-2.89308e-06
8.70825e-07
-2.75741e-06
-1.07629e-06
-2.54585e-06
-2.93752e-06
-2.2628e-06
-4.68228e-06
-1.91414e-06
-6.29355e-06
-1.5058e-06
-7.76759e-06
-1.04369e-06
-9.108e-06
-5.32886e-07
-1.03256e-05
2.20244e-08
-1.14379e-05
6.11695e-07
-1.24625e-05
1.22263e-06
-1.33875e-05
1.84847e-06
-1.41753e-05
2.49205e-06
-1.47486e-05
3.16146e-06
-1.50844e-05
3.85917e-06
-1.517e-05
4.57394e-06
-1.50877e-05
5.27996e-06
-1.48677e-05
5.95896e-06
-1.43332e-05
6.58023e-06
-1.34981e-05
7.13305e-06
-1.21287e-05
7.58294e-06
-1.06934e-05
7.95147e-06
-8.59062e-06
8.19232e-06
-7.33179e-06
8.41332e-06
-4.79996e-06
8.50587e-06
-5.34069e-06
8.75825e-06
-2.93756e-06
-8.55448e-06
9.252e-06
4.31889e-05
8.47913e-06
3.18285e-05
7.75132e-06
2.91189e-05
6.93237e-06
2.6874e-05
5.90242e-06
2.33278e-05
4.66245e-06
1.87443e-05
3.35897e-06
1.3841e-05
2.20905e-06
9.52656e-06
1.33995e-06
6.3785e-06
7.41817e-07
4.39254e-06
3.41627e-07
3.26825e-06
6.70134e-08
2.73307e-06
-1.36815e-07
2.55575e-06
-3.06976e-07
2.49639e-06
-4.63208e-07
2.33481e-06
-6.10521e-07
1.92037e-06
-7.44099e-07
1.19798e-06
-8.51839e-07
2.17208e-07
-9.19641e-07
-8.24701e-07
-9.39608e-07
-1.59376e-06
-9.15798e-07
-1.67762e-06
-8.72293e-07
-7.22177e-07
-8.57745e-07
1.34001e-06
-9.21428e-07
4.05455e-06
-1.07702e-06
6.63095e-06
-1.3031e-06
8.505e-06
-1.56707e-06
9.4912e-06
-1.83768e-06
9.63656e-06
-2.08848e-06
9.08297e-06
-2.29843e-06
7.98895e-06
-2.45199e-06
6.50179e-06
-2.53885e-06
4.74462e-06
-2.55278e-06
2.82412e-06
-2.48884e-06
8.06851e-07
-2.34782e-06
-1.21734e-06
-2.13458e-06
-3.1508e-06
-1.85316e-06
-4.96371e-06
-1.50919e-06
-6.63755e-06
-1.10833e-06
-8.16844e-06
-6.56342e-07
-9.56001e-06
-1.58321e-07
-1.08236e-05
3.78555e-07
-1.19748e-05
9.43629e-07
-1.30275e-05
1.52607e-06
-1.39699e-05
2.12184e-06
-1.4771e-05
2.73536e-06
-1.53622e-05
3.37558e-06
-1.57246e-05
4.04569e-06
-1.58401e-05
4.73514e-06
-1.57771e-05
5.41843e-06
-1.55509e-05
6.07671e-06
-1.49915e-05
6.67871e-06
-1.41e-05
7.21349e-06
-1.26635e-05
7.64647e-06
-1.11263e-05
8.00022e-06
-8.94438e-06
8.22889e-06
-7.56045e-06
8.44297e-06
-5.01405e-06
8.5328e-06
-5.43052e-06
8.78352e-06
-3.18827e-06
-8.60242e-06
9.34608e-06
4.38428e-05
8.64157e-06
3.2533e-05
7.97726e-06
2.97833e-05
7.22972e-06
2.76216e-05
6.2811e-06
2.42765e-05
5.11442e-06
1.9911e-05
3.84246e-06
1.51129e-05
2.66684e-06
1.07022e-05
1.73621e-06
7.30914e-06
1.0723e-06
5.05646e-06
6.19596e-07
3.72096e-06
3.09507e-07
3.04317e-06
8.45296e-08
2.78072e-06
-9.71986e-08
2.67813e-06
-2.60262e-07
2.49786e-06
-4.13776e-07
2.07388e-06
-5.55662e-07
1.33986e-06
-6.75472e-07
3.37017e-07
-7.583e-07
-7.4189e-07
-7.93367e-07
-1.55869e-06
-7.80669e-07
-1.69034e-06
-7.38596e-07
-7.64253e-07
-7.11218e-07
1.31261e-06
-7.49011e-07
4.09234e-06
-8.71975e-07
6.7539e-06
-1.06398e-06
8.697e-06
-1.29498e-06
9.72218e-06
-1.53489e-06
9.87647e-06
-1.75791e-06
9.30598e-06
-1.94345e-06
8.17448e-06
-2.07628e-06
6.63462e-06
-2.14635e-06
4.81468e-06
-2.14749e-06
2.82525e-06
-2.07477e-06
7.34124e-07
-1.92896e-06
-1.36315e-06
-1.71457e-06
-3.36521e-06
-1.4353e-06
-5.24298e-06
-1.0965e-06
-6.97637e-06
-7.03552e-07
-8.56138e-06
-2.62012e-07