/*--------------------------------*- C++ -*----------------------------------*\
| =========                 |                                                 |
| \\      /  F ield         | OpenFOAM: The Open Source CFD Toolbox           |
|  \\    /   O peration     | Version:  2.4.0                                 |
|   \\  /    A nd           | Web:      www.OpenFOAM.org                      |
|    \\/     M anipulation  |                                                 |
\*---------------------------------------------------------------------------*/
FoamFile
{
    version     2.0;
    format      ascii;
    class       volScalarField;
    location    "0.6";
    object      k;
}
// * * * * * * * * * * * * * * * * * * * * * * * * * * * * * * * * * * * * * //

dimensions      [0 2 -2 0 0 0 0];

internalField   nonuniform List<scalar> 
6000
(
0.0149588
0.00362751
0.000786684
0.00128162
0.00150912
0.00160792
0.00144116
0.00126456
0.000996721
0.000782181
0.000615506
0.000533676
0.000606238
0.000823808
0.00103962
0.00123468
0.00139564
0.00151829
0.00160564
0.00166493
0.00170427
0.00173002
0.00174591
0.00175552
0.00176375
0.00177163
0.00178049
0.0017915
0.00180381
0.00181664
0.0018306
0.00184622
0.00186374
0.00188383
0.0019069
0.00193368
0.00196397
0.00199958
0.00203884
0.00208526
0.00213556
0.00219632
0.00226004
0.00234176
0.00242304
0.00253391
0.00264444
0.00279756
0.00294676
0.0031579
0.0033623
0.00365964
0.00394048
0.0043762
0.00477114
0.00544036
0.00601581
0.00710884
0.00800187
0.0103507
0.0113637
0.00499879
0.00140392
0.00119384
0.00097732
0.000814973
0.000751264
0.000733332
0.000726083
0.000731877
0.00075065
0.000774284
0.00080959
0.000849962
0.000897663
0.000959668
0.00103085
0.00109635
0.00114402
0.00116928
0.00117772
0.001176
0.00116504
0.00114944
0.00113202
0.00111442
0.00109772
0.00108239
0.00106932
0.00105751
0.00104794
0.00104187
0.00103548
0.00103106
0.00103061
0.00103227
0.00103549
0.0010411
0.00104775
0.00105817
0.00106823
0.00108499
0.00109899
0.00112166
0.00114668
0.00117051
0.00121037
0.00124197
0.00130015
0.00134087
0.00142433
0.001482
0.00159945
0.00168526
0.00185466
0.00198949
0.00226055
0.00249221
0.00292853
0.00334018
0.0115544
0.0058965
0.00249377
0.00175644
0.00133082
0.000978003
0.000878055
0.000849637
0.000840695
0.000840139
0.000846882
0.000851833
0.000851003
0.000842405
0.000831261
0.000827426
0.000832999
0.000845585
0.00085913
0.000868621
0.000872251
0.000868448
0.000859306
0.000847193
0.00083401
0.000820874
0.000808339
0.000796884
0.000787174
0.00077837
0.000770901
0.000765627
0.000761028
0.000756594
0.000753298
0.000752052
0.000752062
0.000752906
0.000754241
0.000756828
0.000759508
0.000764251
0.000769012
0.000774496
0.000784869
0.000790345
0.00080404
0.000813353
0.000832751
0.000845376
0.000870822
0.000889964
0.000924886
0.000954104
0.00100289
0.00104724
0.00112175
0.00119501
0.00131681
0.00141504
0.0116508
0.00667013
0.00338313
0.00256492
0.00189761
0.0012526
0.00104752
0.00096551
0.000915264
0.000888815
0.000877987
0.000870832
0.000858902
0.00083722
0.000807905
0.000776477
0.000750667
0.000735167
0.000728027
0.000725122
0.000722385
0.000718171
0.00071242
0.000705611
0.000698558
0.000691777
0.000685297
0.000679522
0.000674742
0.000670471
0.000666758
0.000664229
0.000662233
0.000659964
0.000657977
0.000657114
0.000657022
0.000657237
0.000657694
0.00065855
0.000659627
0.000661206
0.000663382
0.000665063
0.000668971
0.000671524
0.00067652
0.000680434
0.000687195
0.00069343
0.000702097
0.000710741
0.000722712
0.00073527
0.000752385
0.00077047
0.000795662
0.000821931
0.000861763
0.000901416
0.011787
0.00715473
0.0040832
0.00332377
0.00250939
0.00155419
0.00121909
0.00107394
0.000973264
0.000918156
0.000888906
0.000875096
0.000860602
0.000836403
0.000801904
0.000762429
0.000725123
0.000696909
0.000678636
0.000668138
0.000661697
0.00065713
0.000653205
0.000649475
0.000646059
0.000643
0.000640057
0.000637551
0.000635557
0.000633806
0.000632231
0.000631254
0.000630558
0.000629527
0.000628615
0.000628354
0.000628363
0.000628497
0.000628761
0.000629165
0.000629733
0.000630452
0.000631569
0.00063254
0.000634118
0.000635779
0.000638097
0.00064058
0.000643915
0.000647589
0.000652448
0.000657547
0.000664565
0.000671879
0.000682599
0.0006933
0.000709959
0.000725952
0.000750635
0.000796165
0.0118794
0.0074186
0.00459641
0.00403207
0.00317469
0.00190993
0.00140456
0.00118363
0.00102716
0.000941136
0.000891695
0.000867554
0.000852434
0.000830673
0.000797924
0.000758011
0.000717979
0.00068531
0.000662487
0.000648585
0.000640312
0.000635448
0.000632274
0.000629932
0.000628237
0.000626891
0.000625589
0.000624584
0.000623856
0.000623164
0.000622515
0.000622161
0.000621954
0.000621515
0.000621175
0.000621154
0.000621189
0.000621275
0.000621447
0.00062167
0.000621987
0.000622398
0.000623076
0.000623829
0.000624965
0.000626103
0.000627902
0.000629494
0.000632055
0.000634421
0.000638368
0.000641871
0.000647805
0.000653229
0.000662679
0.000671241
0.000686862
0.000701018
0.000724895
0.000778709
0.0119292
0.00754672
0.00494627
0.00464554
0.00386739
0.00234877
0.0016171
0.00130339
0.00108882
0.000970056
0.000897675
0.000859923
0.000842107
0.000823365
0.000794368
0.000756358
0.000716598
0.000682774
0.000658387
0.000643156
0.000634064
0.000628996
0.000626056
0.000624209
0.000623193
0.000622538
0.000621903
0.000621503
0.000621277
0.000620921
0.000620594
0.00062046
0.000620426
0.000620322
0.000620216
0.000620216
0.000620229
0.00062026
0.000620376
0.000620553
0.000620949
0.000621262
0.000621939
0.000622508
0.000623618
0.00062456
0.000626232
0.000627507
0.000629898
0.000631802
0.000635535
0.000638517
0.000644305
0.000649105
0.000658603
0.000666735
0.000682958
0.000698197
0.000723582
0.000785085
0.0119541
0.00758489
0.00515792
0.00512783
0.00454039
0.00288949
0.00187223
0.00143853
0.0011619
0.0010077
0.000911395
0.000858136
0.000832262
0.000815284
0.000790328
0.000755314
0.000716584
0.00068265
0.000657837
0.000642175
0.000632775
0.000627587
0.000624701
0.000622969
0.000622139
0.000621752
0.000621356
0.000621193
0.0006211
0.000620824
0.000620618
0.000620587
0.000620586
0.000620622
0.000620583
0.000620583
0.00062057
0.000620594
0.000620756
0.000620923
0.00062136
0.000621644
0.000622313
0.00062286
0.000623924
0.000624849
0.000626443
0.00062769
0.000629987
0.000631792
0.000635443
0.00063828
0.00064397
0.000648663
0.0006581
0.000666271
0.000682896
0.000698398
0.000725581
0.000792585
0.0119674
0.00757641
0.0052814
0.00546396
0.0051403
0.00351102
0.00218821
0.00159827
0.00124854
0.00105316
0.000933404
0.000861868
0.000825002
0.000807375
0.000785884
0.000754192
0.000717265
0.000683623
0.000658557
0.000642571
0.000632928
0.0006276
0.000624693
0.000622927
0.00062211
0.000621803
0.00062147
0.000621405
0.00062134
0.000621068
0.000620894
0.000620887
0.000620936
0.000620931
0.000620963
0.000620953
0.000620961
0.000621015
0.000621199
0.000621372
0.000621814
0.000622123
0.000622811
0.00062338
0.000624432
0.000625366
0.000626974
0.000628254
0.000630567
0.000632429
0.000636094
0.000638987
0.000644742
0.000649519
0.000659131
0.000667478
0.00068472
0.000700255
0.00072909
0.000799045
0.0119758
0.00755015
0.00533512
0.00566805
0.00562809
0.00417099
0.00258063
0.00179639
0.00135362
0.00110533
0.000961169
0.000872003
0.000822696
0.000800086
0.000781092
0.000752824
0.000717857
0.000684749
0.000659551
0.000643315
0.000633489
0.000627992
0.000624973
0.000623118
0.000622262
0.000621949
0.00062162
0.000621569
0.000621509
0.000621272
0.000621079
0.000621075
0.000621121
0.000621092
0.000621091
0.000621106
0.000621154
0.000621231
0.000621436
0.000621616
0.000622049
0.000622368
0.000623057
0.000623626
0.000624703
0.000625583
0.000627257
0.000628493
0.000630907
0.000632752
0.000636495
0.000639406
0.000645274
0.000650073
0.000659831
0.000668301
0.000685882
0.000701841
0.000730989
0.000802538
0.0119838
0.00750701
0.00533086
0.00573898
0.00599332
0.00480738
0.00305059
0.00204677
0.00148647
0.00116678
0.000991821
0.000886923
0.000823911
0.000793851
0.000776117
0.00075121
0.000718337
0.000685912
0.000660621
0.000644096
0.000634103
0.000628404
0.000625215
0.000623269
0.000622387
0.00062206
0.000621739
0.000621636
0.000621523
0.000621386
0.000621198
0.000621191
0.000621196
0.000621251
0.000621249
0.00062126
0.000621299
0.000621378
0.000621573
0.00062175
0.000622172
0.000622497
0.000623184
0.000623752
0.000624824
0.000625704
0.000627383
0.000628644
0.000631066
0.000632957
0.000636729
0.000639712
0.00064563
0.000650556
0.000660426
0.000669025
0.000686889
0.00070283
0.000732539
0.000804611
0.0119928
0.00746079
0.00530417
0.00571799
0.0062426
0.00535828
0.00357268
0.0023542
0.00165786
0.00124545
0.00102502
0.000904074
0.000828987
0.000789782
0.000771198
0.00074934
0.000718679
0.000687052
0.000661752
0.000644916
0.000634733
0.000628801
0.000625407
0.000623377
0.00062248
0.000622167
0.000621861
0.000621671
0.000621488
0.000621473
0.000621352
0.000621338
0.000621342
0.000621317
0.000621317
0.000621331
0.000621375
0.000621456
0.000621648
0.000621821
0.000622223
0.000622543
0.000623216
0.000623767
0.000624862
0.000625704
0.000627412
0.00062866
0.000631126
0.000633009
0.00063681
0.000639803
0.000645807
0.000650734
0.000660718
0.000669391
0.000687441
0.00070353
0.000733289
0.000805295
0.012003
0.00742019
0.00524419
0.00564298
0.00637634
0.00578171
0.00411039
0.0027061
0.00187281
0.00135221
0.00106501
0.000921388
0.00083703
0.000788801
0.000766695
0.000747222
0.000718887
0.000688159
0.000662929
0.000645788
0.000635354
0.000629189
0.000625581
0.000623484
0.000622563
0.000622282
0.000621998
0.000621677
0.000621516
0.000621516
0.000621427
0.000621403
0.000621403
0.000621425
0.000621427
0.000621438
0.000621474
0.000621549
0.000621725
0.000621889
0.000622272
0.000622582
0.000623235
0.000623775
0.000624864
0.000625706
0.00062742
0.000628682
0.000631156
0.000633048
0.000636854
0.000639866
0.000645893
0.000650878
0.000660927
0.000669636
0.000687768
0.000703975
0.000733696
0.000805303
0.0120137
0.00738975
0.00516082
0.00549434
0.0063768
0.00605851
0.00461325
0.00307503
0.00212314
0.00149417
0.00112006
0.000939112
0.000846273
0.000789836
0.000762857
0.000744891
0.000718965
0.000689248
0.000664141
0.0006467
0.000635959
0.000629578
0.000625785
0.000623612
0.000622641
0.000622362
0.0006221
0.000621702
0.000621483
0.000621469
0.00062147
0.000621423
0.000621423
0.000621426
0.000621436
0.000621462
0.000621526
0.000621606
0.000621784
0.000621942
0.000622308
0.00062261
0.000623246
0.000623779
0.000624866
0.000625706
0.000627434
0.000628702
0.000631193
0.00063308
0.000636889
0.000639902
0.000645956
0.000650939
0.000661038
0.000669777
0.000687952
0.000704269
0.000733874
0.000804893
0.0120244
0.00737213
0.00506575
0.00531802
0.00630384
0.00618867
0.00503251
0.00342892
0.00238666
0.00166732
0.00119822
0.000960938
0.000854961
0.000793
0.000759931
0.000742427
0.000718931
0.000690338
0.000665378
0.00064763
0.000636567
0.00062998
0.000626039
0.000623767
0.000622712
0.00062239
0.000622123
0.000621672
0.000621448
0.000621422
0.000621422
0.000621421
0.000621422
0.000621426
0.000621437
0.000621466
0.000621531
0.000621616
0.000621803
0.000621965
0.000622331
0.000622629
0.000623253
0.000623783
0.000624871
0.000625717
0.000627463
0.000628737
0.000631242
0.000633128
0.000636935
0.000639946
0.00064601
0.000651004
0.000661136
0.000669882
0.000688065
0.000704478
0.000733926
0.000804267
0.0120331
0.0073734
0.00496806
0.00513457
0.00612187
0.00618562
0.00533091
0.00374094
0.00263542
0.00185469
0.00130145
0.000992948
0.000862555
0.000797489
0.000758905
0.000740001
0.000718778
0.000691421
0.000666617
0.00064857
0.000637202
0.000630404
0.000626325
0.000623954
0.000622792
0.00062241
0.000622058
0.00062161
0.000621429
0.000621429
0.000621429
0.000621428
0.000621428
0.00062143
0.000621439
0.000621463
0.00062152
0.000621605
0.000621793
0.000621958
0.000622326
0.000622626
0.000623249
0.00062378
0.000624875
0.000625727
0.00062749
0.00062877
0.000631292
0.000633177
0.000636987
0.000639995
0.00064607
0.000651066
0.000661226
0.000669973
0.00068815
0.000704644
0.000733915
0.000803545
0.0120402
0.00738278
0.00487058
0.00495296
0.00583542
0.00610396
0.00547243
0.00399623
0.00284502
0.00203209
0.00142172
0.00104018
0.000870916
0.000801846
0.000759096
0.000737768
0.000718482
0.000692465
0.000667832
0.000649514
0.000637885
0.000630857
0.000626621
0.000624172
0.000622903
0.000622429
0.000621961
0.000621545
0.000621427
0.000621427
0.000621427
0.000621428
0.000621428
0.00062143
0.000621437
0.000621455
0.000621498
0.00062158
0.000621762
0.000621928
0.000622299
0.000622602
0.000623228
0.000623761
0.000624865
0.000625723
0.000627498
0.000628783
0.000631324
0.000633211
0.000637032
0.000640041
0.000646132
0.00065113
0.000661317
0.000670062
0.000688224
0.00070479
0.000733877
0.000802791
0.0120449
0.00740549
0.00477328
0.00478159
0.00549973
0.00590898
0.00546094
0.00417348
0.00299847
0.00217718
0.0015428
0.00110286
0.000883963
0.000804214
0.000760458
0.0007358
0.000718024
0.000693429
0.00066901
0.000650468
0.000638612
0.000631345
0.000626908
0.000624413
0.000623062
0.000622438
0.000621915
0.000621505
0.000621408
0.000621408
0.000621408
0.0006214
0.000621402
0.000621404
0.000621409
0.000621424
0.000621462
0.00062154
0.000621715
0.000621881
0.000622251
0.000622557
0.000623187
0.000623723
0.000624836
0.000625695
0.000627473
0.000628763
0.000631326
0.000633221
0.00063706
0.000640076
0.000646189
0.000651192
0.000661407
0.000670149
0.000688295
0.000704927
0.00073383
0.00080204
0.0120448
0.00744191
0.00469835
0.00459299
0.00515407
0.00562594
0.00533613
0.0042511
0.00307761
0.00226668
0.00164704
0.00117495
0.000905011
0.000805582
0.000762871
0.000734696
0.000717422
0.000694297
0.000670167
0.00065145
0.000639359
0.000631861
0.0006272
0.000624664
0.000623208
0.000622499
0.000621911
0.000621508
0.000621403
0.000621397
0.000621397
0.000621358
0.000621358
0.000621361
0.000621366
0.00062138
0.000621417
0.000621491
0.000621659
0.000621823
0.000622188
0.000622495
0.000623128
0.000623667
0.000624788
0.000625647
0.000627422
0.000628717
0.000631298
0.000633204
0.000637071
0.000640095
0.000646238
0.000651247
0.000661494
0.000670233
0.000688365
0.000705057
0.000733779
0.000801308
0.0120428
0.00748867
0.00464144
0.00439192
0.0048097
0.00528881
0.00508973
0.0042159
0.00309618
0.00230046
0.00171669
0.00124568
0.000935391
0.000807374
0.000764254
0.000734516
0.000716741
0.000695079
0.000671335
0.000652465
0.000640107
0.000632371
0.000627532
0.00062489
0.000623329
0.000622563
0.000621962
0.000621534
0.000621401
0.000621371
0.000621371
0.000621317
0.000621317
0.000621318
0.000621322
0.000621335
0.00062137
0.000621441
0.000621604
0.000621765
0.000622127
0.000622434
0.000623069
0.000623608
0.000624734
0.000625591
0.000627361
0.000628657
0.000631255
0.000633171
0.000637067
0.000640102
0.000646276
0.000651294
0.000661574
0.000670313
0.000688431
0.000705183
0.00073373
0.000800602
0.0120377
0.00753664
0.00463359
0.00419349
0.00447694
0.00491677
0.00477517
0.00408156
0.00304908
0.00229998
0.00174334
0.00130508
0.000972717
0.00081186
0.000764361
0.000735183
0.000716006
0.00069579
0.000672527
0.000653513
0.000640837
0.000632873
0.000627885
0.000625078
0.000623426
0.000622612
0.00062204
0.000621583
0.00062139
0.000621322
0.000621322
0.000621322
0.000621305
0.000621306
0.000621307
0.000621317
0.000621347
0.000621415
0.000621574
0.000621731
0.000622088
0.000622392
0.000623026
0.000623563
0.000624691
0.000625543
0.000627306
0.0006286
0.00063121
0.000633135
0.000637054
0.000640099
0.000646305
0.000651331
0.000661647
0.000670386
0.000688493
0.000705302
0.000733681
0.000799925
0.0120293
0.00758318
0.00464486
0.00400795
0.0041727
0.00452397
0.00441941
0.00386532
0.00294451
0.00225612
0.00174519
0.00134655
0.00101179
0.000821371
0.000762473
0.000736921
0.000715465
0.000696442
0.000673724
0.000654578
0.000641553
0.000633369
0.000628227
0.000625226
0.000623498
0.000622656
0.000622149
0.000621684
0.000621356
0.0006213
0.0006213
0.0006213
0.000621301
0.000621302
0.000621306
0.000621317
0.000621349
0.000621414
0.000621566
0.00062172
0.000622071
0.000622373
0.000623008
0.000623544
0.000624671
0.000625518
0.000627271
0.000628561
0.000631176
0.000633104
0.000637042
0.000640093
0.000646327
0.00065136
0.000661712
0.000670451
0.000688549
0.000705415
0.000733632
0.000799278
0.0120192
0.00762609
0.00467643
0.00383047
0.00390776
0.00413112
0.00404876
0.0035939
0.0027961
0.00218183
0.00172313
0.00136193
0.00104723
0.000835997
0.00076005
0.00073754
0.00071532
0.000697045
0.000674908
0.000655641
0.000642284
0.000633857
0.000628542
0.000625362
0.000623569
0.000622683
0.000622278
0.000621816
0.000621372
0.00062127
0.00062127
0.00062127
0.000621271
0.000621273
0.000621279
0.000621293
0.000621329
0.000621401
0.000621561
0.000621716
0.000622067
0.000622371
0.000623008
0.000623544
0.000624672
0.000625514
0.000627261
0.000628545
0.00063116
0.000633089
0.000637038
0.000640092
0.000646346
0.000651386
0.00066177
0.00067051
0.0006886
0.000705521
0.000733583
0.000798658
0.0120085
0.00766023
0.00474125
0.00367981
0.00366376
0.00376603
0.00369079
0.00329147
0.00261809
0.0020891
0.00168304
0.00136242
0.00107699
0.000853662
0.000759901
0.000737032
0.000715877
0.000697586
0.00067607
0.000656695
0.000643047
0.000634354
0.000628832
0.000625522
0.000623674
0.000622712
0.000622333
0.000621879
0.000621381
0.000621232
0.000621232
0.000621232
0.000621233
0.000621235
0.00062124
0.000621256
0.000621294
0.00062137
0.00062154
0.000621701
0.000622062
0.00062237
0.000623016
0.000623552
0.000624681
0.000625521
0.000627265
0.000628545
0.00063116
0.000633087
0.000637041
0.000640095
0.000646366
0.00065141
0.000661824
0.000670564
0.000688646
0.000705619
0.000733533
0.000798064
0.0119985
0.00768374
0.00482404
0.00357624
0.00342079
0.0034477
0.0033595
0.00298102
0.00242533
0.00198561
0.00163551
0.00135063
0.00109643
0.000872445
0.000761805
0.000734799
0.000717437
0.000698129
0.000677201
0.000657749
0.00064383
0.000634881
0.000629135
0.000625705
0.000623797
0.000622749
0.000622333
0.000621879
0.000621375
0.000621215
0.000621214
0.000621207
0.000621207
0.000621208
0.000621213
0.000621226
0.000621263
0.000621338
0.00062151
0.000621677
0.00062205
0.000622365
0.00062302
0.000623558
0.000624689
0.000625528
0.000627272
0.00062855
0.000631166
0.000633092
0.000637051
0.000640105
0.000646389
0.000651435
0.000661875
0.000670615
0.000688687
0.00070571
0.000733482
0.000797495
0.0119901
0.00769646
0.00491436
0.00352109
0.00320656
0.00317916
0.00305482
0.00268667
0.00223261
0.00187592
0.00158581
0.00133085
0.00110176
0.000890991
0.000765713
0.000732246
0.000718333
0.000698817
0.000678314
0.000658812
0.000644617
0.00063544
0.000629479
0.000625899
0.000623918
0.000622789
0.000622308
0.000621835
0.000621354
0.000621209
0.000621208
0.000621182
0.000621182
0.000621183
0.000621187
0.0006212
0.000621236
0.000621311
0.000621486
0.000621656
0.000622039
0.000622357
0.000623018
0.000623554
0.000624682
0.000625519
0.000627265
0.000628545
0.000631171
0.000633097
0.000637064
0.000640117
0.000646414
0.000651461
0.000661925
0.000670663
0.000688724
0.000705793
0.000733429
0.000796949
0.0119843
0.00769643
0.00499934
0.00352088
0.0030378
0.00294835
0.00278175
0.00243418
0.00205252
0.00176385
0.00153385
0.00130915
0.00110014
0.000908073
0.000771553
0.000730127
0.000718324
0.000699701
0.000679413
0.000659877
0.000645407
0.000636012
0.000629863
0.000626108
0.000624022
0.000622841
0.000622272
0.000621781
0.000621323
0.000621217
0.000621217
0.000621164
0.000621165
0.000621166
0.000621169
0.000621182
0.000621218
0.000621294
0.000621471
0.000621642
0.000622029
0.000622348
0.000623008
0.00062354
0.000624661
0.000625496
0.000627242
0.000628525
0.000631164
0.000633094
0.000637073
0.000640128
0.000646437
0.000651487
0.000661971
0.000670708
0.000688758
0.000705869
0.000733375
0.000796425
0.0119813
0.00769289
0.00507798
0.00353452
0.00291808
0.00275377
0.00254803
0.00222737
0.00189352
0.00165422
0.00147776
0.00128717
0.00109294
0.000918904
0.000779775
0.000728825
0.000717867
0.000700634
0.000680463
0.000660939
0.000646211
0.00063658
0.000630265
0.000626341
0.000624117
0.000622903
0.000622269
0.000621735
0.000621323
0.000621241
0.000621241
0.000621137
0.000621137
0.000621137
0.000621141
0.000621156
0.000621195
0.000621274
0.000621456
0.000621628
0.000622015
0.000622334
0.000622992
0.000623523
0.000624639
0.000625471
0.000627217
0.0006285
0.000631148
0.000633082
0.000637076
0.000640133
0.000646457
0.000651508
0.000662014
0.000670749
0.000688787
0.000705937
0.000733318
0.000795923
0.0119816
0.00768408
0.0051463
0.00356979
0.00284136
0.00259658
0.00235977
0.00206217
0.00176154
0.00155283
0.00141729
0.00126349
0.00108365
0.000921762
0.000789392
0.000728662
0.000717038
0.000701472
0.000681445
0.000662003
0.000647029
0.000637135
0.000630671
0.000626583
0.000624227
0.000622965
0.000622264
0.000621704
0.000621326
0.000621251
0.000621251
0.000621171
0.000621171
0.000621171
0.000621172
0.000621183
0.000621216
0.000621288
0.000621458
0.000621626
0.000622007
0.000622325
0.000622982
0.00062351
0.000624625
0.000625455
0.000627199
0.000628481
0.000631134
0.000633069
0.000637073
0.000640133
0.000646472
0.000651525
0.000662053
0.000670785
0.000688812
0.000705999
0.00073326
0.000795443
0.0119834
0.00767073
0.00520192
0.00362149
0.00280727
0.00248122
0.00221733
0.00193663
0.00165914
0.00146529
0.00135485
0.00123638
0.00107433
0.00092121
0.000798175
0.000729789
0.000715858
0.000702153
0.000682404
0.000663078
0.000647858
0.000637676
0.000631086
0.000626812
0.000624361
0.000623018
0.000622269
0.000621699
0.000621327
0.000621238
0.000621238
0.0006212
0.0006212
0.0006212
0.000621203
0.000621214
0.000621246
0.000621315
0.000621475
0.000621638
0.00062201
0.000622325
0.000622977
0.000623505
0.00062462
0.000625449
0.000627194
0.000628474
0.000631128
0.000633061
0.000637072
0.000640133
0.000646486
0.00065154
0.000662088
0.000670819
0.000688836
0.000706056
0.000733203
0.000794985
0.0119876
0.00765636
0.00524563
0.0036747
0.0028077
0.00240488
0.0021154
0.00184615
0.00158513
0.00139568
0.00129498
0.00120559
0.00106507
0.000918578
0.000804477
0.000732382
0.000714661
0.000702703
0.000683377
0.000664153
0.000648695
0.000638211
0.000631503
0.00062705
0.000624487
0.000623082
0.000622248
0.00062175
0.000621329
0.000621207
0.000621207
0.000621196
0.000621196
0.000621197
0.0006212
0.000621213
0.000621247
0.000621318
0.000621482
0.000621645
0.000622015
0.000622328
0.000622975
0.000623502
0.000624619
0.000625449
0.000627199
0.000628476
0.00063113
0.000633061
0.000637075
0.000640136
0.000646501
0.000651556
0.000662123
0.000670852
0.000688858
0.000706109
0.000733148
0.000794551
0.0119941
0.00764277
0.00527823
0.00372759
0.00281784
0.00235665
0.00204647
0.00178472
0.00153555
0.00134521
0.00124288
0.0011725
0.00105546
0.000915472
0.00080687
0.000735838
0.000713581
0.000703158
0.000684376
0.000665214
0.000649537
0.000638759
0.000631908
0.000627318
0.000624578
0.000623184
0.000622275
0.000621786
0.000621347
0.000621155
0.000621154
0.000621154
0.000621156
0.000621158
0.000621163
0.000621179
0.000621218
0.000621296
0.000621471
0.000621637
0.000622008
0.000622321
0.000622968
0.000623496
0.00062462
0.000625453
0.00062721
0.000628487
0.00063114
0.000633069
0.000637083
0.000640143
0.000646518
0.000651574
0.000662159
0.000670886
0.000688881
0.00070616
0.000733095
0.000794139
0.0120016
0.0076315
0.00530143
0.00377686
0.00284314
0.0023355
0.00200562
0.00174669
0.00150556
0.00131189
0.00120216
0.0011401
0.00104455
0.000913366
0.000807154
0.000739655
0.000713181
0.000703518
0.000685396
0.000666254
0.000650399
0.000639328
0.000632286
0.000627598
0.000624678
0.0006233
0.000622331
0.000621788
0.000621388
0.000621109
0.000621088
0.000621088
0.00062109
0.000621092
0.000621099
0.000621116
0.000621158
0.000621241
0.000621428
0.000621601
0.000621981
0.000622298
0.000622952
0.000623485
0.00062462
0.000625458
0.000627225
0.000628501
0.000631155
0.00063308
0.000637096
0.000640154
0.000646537
0.000651595
0.000662196
0.00067092
0.000688906
0.000706209
0.000733046
0.000793753
0.0120096
0.0076231
0.00531691
0.00382103
0.00287651
0.00233513
0.00198508
0.0017261
0.00149033
0.00129198
0.00117329
0.00111161
0.00103229
0.000911926
0.000806607
0.00074293
0.000713242
0.000703746
0.000686426
0.000667285
0.000651297
0.000639912
0.000632617
0.000627869
0.000624823
0.000623364
0.000622383
0.000621761
0.00062144
0.000621091
0.000621019
0.000621019
0.000621021
0.000621023
0.000621029
0.000621047
0.00062109
0.000621175
0.000621368
0.000621546
0.000621936
0.000622259
0.000622925
0.000623464
0.000624613
0.000625456
0.000627235
0.00062851
0.000631166
0.000633089
0.000637107
0.000640166
0.000646558
0.000651616
0.000662233
0.000670955
0.000688931
0.000706257
0.000733001
0.00079339
0.0120178
0.0076178
0.00532668
0.00385889
0.00291353
0.00234058
0.00197826
0.00171777
0.00148544
0.00128328
0.00115448
0.00108907
0.0010193
0.000910538
0.000806312
0.000744107
0.000713906
0.000703763
0.000687467
0.000668337
0.000652222
0.000640516
0.000632891
0.000628113
0.000625003
0.000623396
0.000622454
0.00062177
0.000621448
0.000621103
0.00062096
0.00062096
0.000620961
0.000620963
0.000620969
0.000620986
0.000621029
0.000621115
0.000621309
0.00062149
0.000621887
0.000622215
0.000622891
0.000623436
0.000624597
0.000625444
0.000627231
0.000628507
0.000631167
0.00063309
0.000637114
0.000640173
0.000646576
0.000651636
0.00066227
0.00067099
0.000688958
0.000706304
0.000732961
0.000793052
0.0120254
0.00761721
0.00533295
0.00389039
0.00295054
0.00235557
0.0019794
0.0017166
0.00148731
0.00128204
0.00114323
0.00107259
0.00100716
0.000908391
0.00080643
0.000744225
0.000715323
0.000703704
0.000688491
0.000669437
0.000653145
0.00064115
0.000633151
0.000628324
0.000625207
0.000623421
0.000622522
0.000621837
0.000621432
0.000621161
0.000620917
0.000620914
0.000620915
0.000620916
0.000620921
0.000620938
0.000620981
0.000621066
0.000621262
0.000621443
0.000621843
0.000622173
0.000622854
0.000623402
0.00062457
0.000625419
0.00062721
0.000628487
0.000631154
0.000633079
0.000637114
0.000640176
0.000646593
0.000651654
0.000662305
0.000671023
0.000688984
0.00070635
0.000732926
0.000792739
0.0120324
0.00761828
0.00533681
0.00391618
0.00298457
0.0023788
0.00198651
0.00172083
0.00149538
0.00128651
0.00113858
0.00106111
0.000997047
0.00090538
0.000807137
0.000743978
0.00071681
0.000703852
0.000689483
0.000670577
0.000654043
0.000641807
0.000633452
0.000628506
0.00062541
0.000623454
0.00062255
0.000621895
0.000621414
0.000621186
0.000620901
0.000620884
0.000620885
0.000620886
0.00062089
0.000620906
0.000620948
0.000621032
0.000621228
0.000621409
0.000621808
0.000622137
0.000622817
0.000623364
0.000624532
0.000625381
0.000627177
0.000628457
0.000631134
0.000633064
0.000637112
0.000640178
0.000646608
0.000651672
0.000662338
0.000671056
0.000689011
0.000706395
0.000732894
0.00079245
0.0120387
0.0076213
0.00533934
0.00393709
0.00301491
0.00240285
0.00200106
0.00173183
0.00150812
0.00129578
0.00113842
0.00105343
0.000989325
0.000902054
0.00080778
0.000743852
0.000717299
0.000704349
0.000690471
0.000671728
0.000654923
0.000642458
0.000633826
0.000628674
0.000625572
0.000623537
0.000622582
0.000621908
0.000621387
0.000621178
0.000620873
0.000620843
0.000620843
0.000620844
0.000620848
0.000620864
0.000620906
0.000620994
0.0006212
0.000621382
0.000621782
0.000622107
0.000622781
0.000623325
0.000624489
0.000625339
0.00062714
0.000628424
0.000631115
0.00063305
0.000637113
0.000640181
0.000646624
0.00065169
0.000662372
0.000671089
0.000689038
0.000706438
0.000732867
0.000792185
0.0120441
0.00762727
0.00534163
0.00395398
0.00304141
0.00242631
0.00201678
0.00174406
0.00152243
0.00130827
0.00114175
0.00104897
0.000983823
0.000899111
0.000807927
0.000743937
0.000717291
0.000705063
0.000691441
0.000672865
0.000655794
0.000643084
0.00063425
0.000628843
0.00062565
0.00062364
0.000622635
0.000621903
0.000621379
0.00062115
0.000620879
0.000620823
0.000620824
0.000620824
0.000620829
0.000620848
0.000620899
0.000620992
0.000621202
0.00062138
0.00062177
0.000622091
0.000622757
0.000623297
0.000624455
0.000625304
0.00062711
0.000628399
0.000631105
0.000633045
0.00063712
0.000640191
0.000646645
0.000651711
0.000662405
0.000671121
0.000689064
0.00070648
0.000732844
0.000791943
0.0120485
0.00763487
0.00534432
0.00396772
0.00306421
0.00244835
0.00203241
0.00175618
0.00153703
0.00132268
0.00114816
0.00104767
0.000980116
0.000897126
0.000807729
0.000744372
0.000717135
0.000705842
0.00069237
0.00067397
0.000656663
0.000643697
0.000634687
0.000629007
0.000625681
0.000623759
0.0006227
0.000621898
0.000621373
0.000621108
0.000620943
0.000620808
0.000620808
0.00062081
0.000620821
0.000620851
0.000620923
0.000621017
0.000621226
0.0006214
0.00062178
0.000622096
0.000622753
0.000623289
0.000624439
0.000625285
0.000627093
0.000628386
0.000631105
0.000633049
0.000637135
0.000640208
0.000646669
0.000651736
0.00066244
0.000671154
0.000689091
0.000706519
0.000732824
0.000791723
0.012052
0.00764355
0.00534782
0.00397907
0.0030837
0.00246853
0.00204728
0.00176757
0.00155101
0.00133792
0.00115693
0.0010483
0.000978084
0.000896136
0.000807511
0.00074461
0.00071702
0.0007065
0.000693271
0.000675053
0.000657524
0.000644311
0.000635125
0.000629179
0.000625713
0.00062382
0.000622758
0.000621913
0.00062136
0.000621059
0.000621017
0.000620904
0.000620903
0.000620904
0.000620909
0.000620929
0.000620983
0.000621071
0.000621268
0.000621437
0.000621807
0.00062212
0.000622769
0.000623299
0.00062444
0.000625283
0.000627089
0.000628384
0.000631112
0.00063306
0.000637157
0.00064023
0.000646697
0.000651764
0.000662475
0.000671187
0.000689118
0.000706557
0.000732808
0.000791524
0.0120546
0.00765283
0.00535238
0.00398876
0.00310034
0.00248669
0.00206103
0.00177783
0.00156375
0.00135308
0.00116743
0.00105094
0.000977447
0.000895771
0.000807492
0.000744602
0.000717103
0.000706939
0.000694189
0.000676125
0.000658383
0.00064494
0.000635553
0.0006294
0.000625776
0.000623827
0.000622808
0.000621996
0.000621335
0.000621048
0.000621037
0.000620947
0.000620947
0.000620948
0.000620954
0.000620974
0.000621023
0.000621107
0.000621293
0.00062146
0.000621826
0.000622139
0.000622787
0.000623316