/*--------------------------------*- C++ -*----------------------------------*\
| =========                 |                                                 |
| \\      /  F ield         | OpenFOAM: The Open Source CFD Toolbox           |
|  \\    /   O peration     | Version:  2.4.0                                 |
|   \\  /    A nd           | Web:      www.OpenFOAM.org                      |
|    \\/     M anipulation  |                                                 |
\*---------------------------------------------------------------------------*/
FoamFile
{
    version     2.0;
    format      ascii;
    class       volVectorField;
    location    "1.25";
    object      U;
}
// * * * * * * * * * * * * * * * * * * * * * * * * * * * * * * * * * * * * * //

dimensions      [0 1 -1 0 0 0 0];

internalField   nonuniform List<vector> 
6000
(
(0.165147 -0.00672104 1.72159e-18)
(-0.00962594 0.00183049 0)
(0.000919477 -0.000253942 7.69008e-18)
(-0.00660055 0.00127966 0)
(-0.00503477 0.000992536 0)
(-0.00624807 0.00117449 0)
(-0.00595761 0.00109942 4.24196e-18)
(-0.00644697 0.00112157 5.30829e-22)
(-0.00515599 0.000822965 0)
(-0.00251098 0.00032604 0)
(0.000977934 -0.000193962 4.16763e-18)
(0.0030088 -0.000415486 -8.11224e-18)
(0.00181658 -9.022e-05 0)
(-0.00437348 0.00088726 0)
(-0.0158557 0.00239385 -1.72536e-18)
(-0.0310187 0.0040375 0)
(-0.0462658 0.00529513 0)
(-0.0573751 0.00576638 -1.69717e-18)
(-0.0612007 0.00545296 -1.83502e-18)
(-0.0571548 0.00433916 0)
(-0.0472548 0.00300923 2.19423e-18)
(-0.0348001 0.0018046 1.17639e-18)
(-0.0227084 0.000902492 -1.23625e-18)
(-0.0126572 0.000322114 0)
(-0.00512543 -2.81079e-06 0)
(0.000149647 -0.000154076 0)
(0.00374129 -0.000200079 6.61971e-19)
(0.00619489 -0.00018387 -6.63925e-19)
(0.0079638 -0.000136122 0)
(0.00940785 -6.95115e-05 0)
(0.0107803 1.28639e-05 8.37437e-20)
(0.0122441 0.000113811 0)
(0.0138852 0.000239029 6.767e-19)
(0.0157223 0.000394657 -6.80721e-19)
(0.017714 0.000585095 0)
(0.0197739 0.000811228 0)
(0.021795 0.00106972 1.38469e-18)
(0.0236831 0.00135396 0)
(0.0253829 0.00165653 1.39523e-18)
(0.0268885 0.00197176 0)
(0.0282347 0.00229728 0)
(0.0294787 0.00263408 2.80548e-18)
(0.0306811 0.00298558 -5.61366e-18)
(0.0318958 0.00335655 0)
(0.0331627 0.00375217 0)
(0.0345166 0.00417795 2.79797e-18)
(0.0359742 0.00463895 0)
(0.0375742 0.00514191 0)
(0.0393025 0.00569095 -5.49601e-18)
(0.0412624 0.00629723 -5.43198e-18)
(0.0433206 0.006956 -5.3395e-18)
(0.045853 0.00771451 -2.35722e-21)
(0.0482114 0.00850725 5.0432e-18)
(0.05186 0.00952557 0)
(0.0540784 0.010421 -3.71678e-21)
(0.0604573 0.0120047 -4.20225e-18)
(0.0606398 0.0127276 3.54867e-18)
(0.0745826 0.0158271 3.20971e-18)
(0.0675219 0.015433 5.68189e-21)
(0.0989228 0.0221 0)
(0.360364 -0.0164759 -2.29249e-18)
(0.00335533 0.00642397 4.55945e-18)
(0.00578445 -0.00095143 -4.61154e-18)
(-0.014794 0.00334963 -4.87321e-18)
(-0.0124447 0.00259545 0)
(-0.0161889 0.0031788 0)
(-0.0158334 0.00300776 -4.84096e-18)
(-0.0170609 0.00297865 9.60401e-18)
(-0.0136007 0.00201318 0)
(-0.00694773 0.000586582 0)
(0.00110263 -0.000642101 -4.62863e-18)
(0.00424734 -0.000691889 4.48054e-18)
(-0.00198331 0.000999637 2.13604e-18)
(-0.0209457 0.00445978 0)
(-0.0511263 0.00889961 1.86606e-18)
(-0.0866933 0.0129647 0)
(-0.118695 0.0152887 0)
(-0.13868 0.0151501 0)
(-0.141814 0.0128682 0)
(-0.128618 0.00914556 0)
(-0.104099 0.00535711 -2.86004e-21)
(-0.0751247 0.00233366 0)
(-0.0474379 0.000347735 -1.3168e-18)
(-0.0242938 -0.000723975 0)
(-0.0066467 -0.001153 0)
(0.00594275 -0.00122639 7.02783e-19)
(0.0146301 -0.00109414 -7.05452e-19)
(0.0207457 -0.000892611 5.20209e-23)
(0.0253698 -0.000671917 3.54027e-19)
(0.0293178 -0.000445062 0)
(0.0331409 -0.000203087 -8.9009e-20)
(0.0371717 7.44033e-05 -3.57561e-19)
(0.0415619 0.000411985 -4.31696e-23)
(0.0463113 0.000832656 7.23224e-19)
(0.0512964 0.00135229 -7.27693e-19)
(0.0563118 0.00197464 0)
(0.0611316 0.00268928 0)
(0.0655772 0.00347476 0)
(0.0695649 0.00430659 0)
(0.0731164 0.00516579 0)
(0.0763324 0.00604399 -2.99375e-18)
(0.0793517 0.00694364 0)
(0.0823125 0.00787476 3.01029e-18)
(0.0853349 0.00885136 3.01603e-18)
(0.0885077 0.00988822 0)
(0.0919096 0.0110006 0)
(0.0955826 0.012202 0)
(0.099616 0.0135105 0)
(0.103991 0.0149362 6.00698e-18)
(0.108935 0.0165123 0)
(0.114186 0.0182255 0)
(0.120544 0.0201935 -5.79193e-18)
(0.126684 0.0222586 -5.63801e-18)
(0.135685 0.0248861 0)
(0.141897 0.0272465 -1.02486e-17)
(0.157092 0.0312694 0)
(0.159536 0.0333134 -8.22255e-18)
(0.191505 0.0409478 -3.73741e-18)
(0.179293 0.0406304 1.98846e-18)
(0.250483 0.056081 2.16682e-18)
(0.500918 -0.0114097 -1.73883e-19)
(0.0418264 0.0089225 -4.52028e-18)
(0.0146473 -0.0013931 0)
(-0.0185172 0.00478317 4.88089e-18)
(-0.0174336 0.00376676 0)
(-0.0240191 0.00479097 0)
(-0.0240682 0.00459137 0)
(-0.0259805 0.00439825 -4.80846e-18)
(-0.0207687 0.00270052 0)
(-0.0112331 0.000483909 -4.71821e-18)
(-0.000619715 -0.000947932 0)
(0.00148725 -1.42223e-05 0)
(-0.0113926 0.00388616 -2.13147e-18)
(-0.0429403 0.0103311 0)
(-0.0890362 0.017522 0)
(-0.139477 0.0230465 0)
(-0.181084 0.0249534 0)
(-0.203208 0.0226646 0)
(-0.201294 0.0171583 0)
(-0.177882 0.0103814 2.13709e-18)
(-0.140664 0.0042634 -2.3331e-18)
(-0.0988139 -7.55298e-05 0)
(-0.0596051 -0.00250215 6.38361e-22)
(-0.0270274 -0.00344722 -1.36156e-18)
(-0.00217184 -0.00346942 0)
(0.015708 -0.00308897 -1.40295e-18)
(0.0283166 -0.00253415 0)
(0.0374723 -0.00200629 7.06166e-19)
(0.0446552 -0.0015401 -3.53758e-19)
(0.050967 -0.0011225 0)
(0.0571377 -0.00071405 0)
(0.0635885 -0.000264938 3.57302e-19)
(0.0704885 0.000275343 -4.84426e-23)
(0.0778008 0.000950357 0)
(0.0853293 0.00178867 1.45436e-18)
(0.0927837 0.00279615 0)
(0.0998653 0.00395304 1.47184e-18)
(0.106355 0.00522019 0)
(0.112172 0.00655332 0)
(0.117377 0.00791846 0)
(0.122129 0.00930073 2.99384e-18)
(0.126635 0.0107044 0)
(0.131091 0.0121467 0)
(0.135667 0.0136513 -3.01725e-18)
(0.14049 0.0152424 0)
(0.145671 0.0169444 0)
(0.151276 0.0187785 3.02329e-18)
(0.157435 0.0207725 -3.01751e-18)
(0.164137 0.0229422 -3.00471e-18)
(0.171691 0.0253407 0)
(0.179783 0.0279526 0)
(0.189471 0.0309381 0)
(0.199062 0.034099 5.6425e-18)
(0.212614 0.0380516 5.45123e-18)
(0.222769 0.0417285 5.13995e-18)
(0.245075 0.0476575 0)
(0.250901 0.0511166 4.12729e-18)
(0.296492 0.0619702 7.51037e-18)
(0.283643 0.0627458 0)
(0.384798 0.0835526 -2.18664e-18)
(0.60516 0.000186483 -1.44415e-19)
(0.097733 0.010809 4.39198e-18)
(0.028686 -0.0013756 -4.59887e-18)
(-0.0177195 0.00575918 0)
(-0.0198692 0.00459679 0)
(-0.0296592 0.00609364 0)
(-0.0305775 0.00588195 0)
(-0.0332303 0.00546687 0)
(-0.0268193 0.00300935 0)
(-0.0155335 0.00018163 4.71357e-18)
(-0.00404616 -0.00100068 4.62601e-18)
(-0.00452478 0.00153219 0)
(-0.0247487 0.00822095 0)
(-0.0677484 0.0178467 0)
(-0.12619 0.0273476 1.85489e-18)
(-0.185794 0.0332863 0)
(-0.230674 0.033478 1.7336e-18)
(-0.249977 0.02795 -1.80195e-18)
(-0.240811 0.0187246 0)
(-0.207934 0.00877005 -2.13425e-18)
(-0.160815 0.000609314 0)
(-0.109724 -0.00457991 -1.24651e-18)
(-0.0625175 -0.00695394 2.62589e-18)
(-0.0234292 -0.00733138 1.35894e-18)
(0.00647037 -0.00661156 0)
(0.0282422 -0.0055212 6.99731e-19)
(0.0439321 -0.00440142 0)
(0.0556392 -0.0034598 7.04913e-19)
(0.065091 -0.00270415 0)
(0.0735624 -0.00207949 0)
(0.0818843 -0.00150408 0)
(0.0905168 -0.000890801 3.56664e-19)
(0.0996213 -0.00015848 -1.43417e-18)
(0.109121 0.000759483 0)
(0.118762 0.00190507 -7.25897e-19)
(0.128198 0.00328556 0)
(0.137087 0.00487012 -1.46943e-18)
(0.145198 0.00659961 0)
(0.152464 0.00840797 0)
(0.158985 0.0102448 0)
(0.164977 0.0120884 2.98923e-18)
(0.170695 0.0139446 0)
(0.176385 0.0158383 3.00607e-18)
(0.182252 0.0178027 -3.01281e-18)
(0.188453 0.0198716 0)
(0.195127 0.022078 -3.02069e-18)
(0.202362 0.0244502 -6.04092e-18)
(0.210315 0.0270244 3.01555e-18)
(0.218994 0.0298221 6.00496e-18)
(0.228762 0.0329099 -5.96067e-18)
(0.239298 0.0362732 -5.89092e-18)
(0.251798 0.0401042 0)
(0.264437 0.0441806 -5.64422e-18)
(0.281743 0.0492197 -5.45483e-18)
(0.295625 0.0540139 -5.12966e-18)
(0.323457 0.0614494 0)
(0.333366 0.0662066 0)
(0.388645 0.0793787 -3.75732e-18)
(0.378627 0.0815494 0)
(0.500826 0.1054 2.13887e-18)
(0.684335 0.0142734 -1.2564e-19)
(0.163786 0.0128943 -3.18698e-20)
(0.0489402 -0.000810752 4.57134e-18)
(-0.0123591 0.00641198 4.87358e-18)
(-0.0196309 0.00516697 0)
(-0.0330491 0.00712804 -4.90604e-18)
(-0.0352967 0.00690686 0)
(-0.0388536 0.00623409 0)
(-0.0318719 0.00304806 0)
(-0.019894 -0.000185724 4.70651e-18)
(-0.00887761 -0.000722386 -4.6222e-18)
(-0.0129196 0.00388049 0)
(-0.0404425 0.0136926 0)
(-0.0930411 0.0263995 0)
(-0.159895 0.0375424 -1.84374e-18)
(-0.223441 0.0428548 0)
(-0.266786 0.0403389 -1.72815e-18)
(-0.280435 0.0309756 1.80091e-18)
(-0.26372 0.0179236 0)
(-0.223114 0.00501253 0)
(-0.168888 -0.00482344 1.15581e-18)
(-0.111556 -0.0104747 1.24214e-18)
(-0.0590328 -0.0124488 -2.61639e-18)
(-0.0155705 -0.0119723 -1.35433e-18)
(0.0178584 -0.0103049 0)
(0.042541 -0.00836358 6.97577e-19)
(0.0606734 -0.00659153 0)
(0.0745134 -0.005186 -7.03322e-19)
(0.085937 -0.00411769 3.52384e-19)
(0.0963201 -0.00327994 0)
(0.106546 -0.00254124 0)
(0.117087 -0.00177226 -7.11688e-19)
(0.128085 -0.000858287 7.15391e-19)
(0.139427 0.000291625 0)
(0.150816 0.00173298 -7.24076e-19)
(0.161864 0.00347357 0)
(0.172207 0.00546988 1.46588e-18)
(0.181609 0.00764085 0)
(0.190024 0.00989688 0)
(0.197591 0.0121702 0)
(0.204569 0.0144316 -2.98342e-18)
(0.211258 0.0166891 -2.99202e-18)
(0.217941 0.0189752 -3.00061e-18)
(0.224853 0.0213329 7.06713e-22)
(0.232177 0.0238054 -3.01197e-18)
(0.240072 0.026434 3.01572e-18)
(0.248646 0.0292535 6.0293e-18)
(0.258077 0.0323072 0)
(0.268398 0.0356217 -2.99754e-18)
(0.279999 0.0392736 5.95284e-18)
(0.29259 0.0432511 5.88386e-18)
(0.307417 0.0477681 0)
(0.322677 0.0525924 0)
(0.343029 0.0585003 0)
(0.360296 0.0642206 5.12717e-18)
(0.392355 0.0728167 0)
(0.40657 0.07872 0)
(0.468502 0.0934979 3.72806e-18)
(0.463384 0.0971346 -1.95329e-18)
(0.599605 0.122434 -2.14005e-18)
(0.745685 0.0289875 -1.12445e-19)
(0.234469 0.0156885 -4.20932e-18)
(0.0759526 0.00031272 0)
(-0.00236114 0.00689884 -4.86282e-18)
(-0.0166078 0.005558 -4.88595e-18)
(-0.0341308 0.00793508 4.80959e-22)
(-0.0381728 0.0076978 0)
(-0.0428888 0.006753 0)
(-0.0359952 0.00290763 0)
(-0.0242591 -0.000527344 -4.69939e-18)
(-0.0147132 -9.24446e-05 0)
(-0.0227992 0.00691319 0)
(-0.0569959 0.0199724 2.11563e-18)
(-0.116882 0.0354393 0)
(-0.188287 0.0474532 0)
(-0.251527 0.0512345 0)
(-0.290275 0.045374 0)
(-0.297293 0.03199 -1.78846e-18)
(-0.273955 0.0152819 0)
(-0.227637 -0.000254689 2.10607e-18)
(-0.168653 -0.0114296 -1.15029e-18)
(-0.107311 -0.0172572 -1.23435e-18)
(-0.0513741 -0.018603 2.60381e-18)
(-0.00502418 -0.0171004 2.69574e-18)
(0.0308977 -0.0143671 0)
(0.0577671 -0.0114986 -6.9506e-19)
(0.0778241 -0.00902383 0)
(0.0934165 -0.00712755 0)
(0.106507 -0.00573693 -7.02902e-19)
(0.11853 -0.00468764 0)
(0.130393 -0.00379361 0)
(0.142568 -0.00288002 7.09704e-19)
(0.155177 -0.00179664 0)
(0.168075 -0.000427244 0)
(0.180926 0.00129726 7.22053e-19)
(0.193314 0.00338443 0)
(0.204851 0.00577653 -1.46195e-18)
(0.215303 0.00836867 0)
(0.224643 0.011046 0)
(0.233042 0.0137224 0)
(0.2408 0.0163607 0)
(0.248255 0.0189713 2.9854e-18)
(0.255722 0.0215948 2.99287e-18)
(0.263464 0.0242843 7.60904e-22)
(0.271683 0.0270921 3.00578e-18)
(0.280555 0.0300676 3.00776e-18)
(0.290207 0.0332516 -3.00822e-18)
(0.300833 0.0366933 0)
(0.312492 0.0404237 -2.98916e-18)
(0.325586 0.0445271 2.96785e-18)
(0.339873 0.048995 -5.86625e-18)
(0.356599 0.0540555 0)
(0.374065 0.0594761 0)
(0.396867 0.0660615 -5.42477e-18)
(0.417105 0.07253 -5.10637e-18)
(0.452386 0.0819955 4.78962e-18)
(0.470767 0.0888744 4.08978e-18)
(0.537189 0.104712 -3.72685e-18)
(0.537851 0.109728 1.95259e-18)
(0.683008 0.13543 0)
(0.793969 0.0435308 -1.01525e-19)
(0.305906 0.0194159 0)
(0.109632 0.00199858 4.49365e-18)
(0.0123924 0.00737488 4.84501e-18)
(-0.0106996 0.00585094 -6.56257e-23)
(-0.0328429 0.00855648 4.90398e-18)
(-0.0391571 0.00828945 0)
(-0.045358 0.00707648 0)
(-0.0392046 0.00266044 0)
(-0.0284942 -0.000789386 2.34609e-18)
(-0.0210944 0.000868106 2.3103e-18)
(-0.0332922 0.0104803 0)
(-0.0731131 0.0267367 -2.10518e-18)
(-0.137789 0.0444994 1.96096e-18)
(-0.210314 0.0566222 0)
(-0.270198 0.0581846 0)
(-0.302878 0.0486773 0)
(-0.303586 0.0313714 7.42182e-21)
(-0.275105 0.0113076 0)
(-0.224929 -0.0065301 -4.18289e-18)
(-0.162978 -0.0187813 1.13943e-18)
(-0.0991973 -0.0245896 1.22656e-18)
(-0.0411506 -0.0251626 -3.62384e-22)
(0.0070842 -0.0225421 -1.34049e-18)
(0.044768 -0.0186766 0)
(0.0732527 -0.0148393 0)
(0.0947883 -0.0116338 0)
(0.111773 -0.00923431 3.49532e-19)
(0.126221 -0.00752093 7.00742e-19)
(0.1396 -0.00626783 0)
(0.152833 -0.00523114 0)
(0.166387 -0.00418801 -7.07484e-19)
(0.180365 -0.00295095 -3.5551e-19)
(0.194592 -0.00137728 0)
(0.208701 0.000616092 0)
(0.222239 0.00303595 0)
(0.234798 0.00580888 0)
(0.246135 0.00880408 0)
(0.256239 0.0118795 0)
(0.26531 0.014929 0)
(0.273684 0.0179076 0)
(0.281738 0.0208281 0)
(0.289817 0.0237395 -7.23225e-22)
(0.298205 0.0267056 2.99293e-18)
(0.307125 0.029788 0)
(0.316766 0.0330435 -6.00147e-18)
(0.327273 0.0365186 -2.99958e-18)
(0.338852 0.0402675 0)
(0.351583 0.0443251 2.98318e-18)
(0.365879 0.0487809 -2.96211e-18)
(0.381545 0.0536309 5.85533e-18)
(0.399803 0.0591103 -5.75279e-18)
(0.419096 0.064994 0)
(0.443858 0.0720923 6.61516e-21)
(0.466635 0.0791483 5.09902e-18)
(0.504384 0.0892431 -9.5578e-18)
(0.526562 0.0969224 -1.01563e-20)
(0.596009 0.113409 -3.69247e-18)
(0.602504 0.119622 1.92492e-18)
(0.753111 0.14507 2.07178e-18)
(0.832377 0.0574688 3.55543e-18)
(0.375516 0.0241025 0)
(0.149324 0.00426515 2.61798e-21)
(0.0320255 0.00796792 -2.92108e-22)
(-0.0018062 0.00614011 4.8709e-18)
(-0.0291174 0.00903646 4.89939e-18)
(-0.0382015 0.00872004 0)
(-0.0462611 0.00725561 4.8117e-18)
(-0.0414663 0.00236347 0)
(-0.0324089 -0.000945387 -2.34258e-18)
(-0.0275441 0.00210916 1.39837e-21)
(-0.0435942 0.0144132 -2.22729e-18)
(-0.0877217 0.0336803 0)
(-0.154749 0.0532047 -3.89809e-18)
(-0.225622 0.0647668 0)
(-0.280287 0.0636706 0)
(-0.306641 0.0504882 0)
(-0.302079 0.0295246 1.77767e-18)
(-0.270012 0.00643512 0)
(-0.21749 -0.0134323 2.07318e-18)
(-0.153859 -0.0265728 -2.25869e-18)
(-0.0887044 -0.0322385 0)
(-0.0294199 -0.0319582 -3.61204e-22)
(0.020018 -0.0281797 0)
(0.0588984 -0.0231466 0)
(0.0885134 -0.0183162 -6.89122e-19)
(0.111121 -0.0143657 0)
(0.129147 -0.0114602 -6.9659e-19)
(0.14464 -0.00943035 -3.49201e-19)
(0.159089 -0.00798663 -8.75037e-20)
(0.17343 -0.00682495 8.77735e-20)
(0.188129 -0.00567227 3.52566e-19)
(0.203272 -0.00430175 7.08623e-19)
(0.218659 -0.0025426 0)
(0.233884 -0.000296713 7.17263e-19)
(0.248454 0.00244179 0)
(0.261929 0.00558233 0)
(0.27405 0.00896574 0)
(0.284811 0.0124202 1.46819e-18)
(0.29444 0.015818 0)
(0.303309 0.0191055 0)
(0.311831 0.0222981 2.96905e-18)
(0.32038 0.0254545 -2.97807e-18)
(0.329267 0.0286489 0)
(0.338728 0.0319527 0)
(0.348968 0.0354301 2.99355e-18)
(0.360144 0.0391328 2.99307e-18)
(0.372472 0.0431191 -2.9864e-18)
(0.386056 0.0474275 0)
(0.401308 0.0521509 0)
(0.418084 0.0572899 0)
(0.437571 0.0630822 4.80214e-21)
(0.458355 0.0693141 0)
(0.484683 0.0767872 5.40095e-18)
(0.509586 0.0842891 0)
(0.54924 0.0948191 4.76756e-18)
(0.574739 0.10313 -4.0698e-18)
(0.646246 0.119963 7.36187e-18)
(0.658146 0.127147 -1.92287e-18)
(0.811891 0.151953 -2.06867e-18)
(0.863129 0.0705395 8.47392e-20)
(0.441661 0.0296474 -3.87856e-18)
(0.193981 0.00713551 -4.38192e-18)
(0.0565428 0.00879499 -2.16053e-22)
(0.0102434 0.00650812 -4.85743e-18)
(-0.0228789 0.00942246 -4.89338e-18)
(-0.0352549 0.00903037 0)
(-0.0455736 0.00733771 -4.80794e-18)
(-0.0427051 0.00206007 0)
(-0.0357806 -0.000989444 -2.3398e-18)
(-0.033598 0.00356221 -2.30954e-18)
(-0.0529984 0.0185398 2.21952e-18)
(-0.0999943 0.0405342 -2.09077e-18)
(-0.167183 0.0612794 1.93733e-18)
(-0.234378 0.0717531 -1.79474e-18)
(-0.282974 0.067794 1.69703e-18)
(-0.303537 0.0511019 0)
(-0.295011 0.0268162 0)
(-0.260723 0.00100446 0)
(-0.206969 -0.0206887 1.02117e-18)
(-0.142525 -0.0345994 1.11834e-18)
(-0.0766997 -0.0400557 0)
(-0.016766 -0.0388862 -1.27567e-18)
(0.0333587 -0.0339289 0)
(0.0729488 -0.0277081 0)
(0.103254 -0.0218708 6.85774e-19)
(0.126545 -0.01717 -6.90982e-19)
(0.145266 -0.0137621 3.46968e-19)
(0.161487 -0.0114274 0)
(0.17672 -0.00981104 1.74391e-19)
(0.191915 -0.00854705 -1.7493e-19)
(0.20754 -0.00731 0)
(0.223673 -0.0058313 -3.53051e-19)
(0.240087 -0.0039096 7.1013e-19)
(0.256335 -0.00142999 -7.14787e-19)
(0.271872 0.00161286 0)
(0.28621 0.00510972 0)
(0.299061 0.00887015 0)
(0.310417 0.0126893 -1.46392e-18)
(0.320529 0.0164158 0)
(0.329805 0.0199864 0)
(0.338696 0.0234194 -2.96155e-18)
(0.347608 0.0267836 0)
(0.356875 0.0301649 2.97626e-18)
(0.366751 0.0336445 -2.98163e-18)
(0.377453 0.037294 0)
(0.389149 0.0411701 2.98403e-18)
(0.402064 0.0453346 5.95866e-18)
(0.416319 0.049829 -2.96621e-18)
(0.432329 0.0547484 0)
(0.449991 0.0600977 0)
(0.470459 0.0661141 2.86587e-18)
(0.492452 0.0725973 0)
(0.520028 0.0803307 5.37873e-18)
(0.546686 0.088157 0)
(0.587823 0.0989665 4.74148e-18)
(0.616147 0.107755 4.04449e-18)
(0.689082 0.124712 -3.66915e-18)
(0.70573 0.132638 0)
(0.861117 0.156589 2.03072e-18)
(0.887837 0.0826087 -3.79645e-18)
(0.503368 0.0358828 1.97984e-20)
(0.242348 0.010621 4.32413e-18)
(0.0858253 0.00996155 -2.01713e-22)
(0.0256289 0.00702485 -6.39768e-22)
(-0.0140415 0.0097644 0)
(-0.0302623 0.00926282 0)
(-0.0432477 0.00736535 0)
(-0.0428154 0.00178182 -2.36356e-18)
(-0.0383748 -0.00093038 4.67413e-18)
(-0.03883 0.00514938 0)
(-0.0609172 0.0226974 2.21713e-18)
(-0.109351 0.0470776 -2.83707e-21)
(-0.174877 0.0685444 -1.92703e-18)
(-0.237093 0.0775633 2.508e-21)
(-0.279534 0.0707319 -1.68865e-18)
(-0.295254 0.0508105 0)
(-0.284019 0.02354 0)
(-0.248532 -0.00475143 0)
(-0.194281 -0.0281365 -1.01223e-18)
(-0.129585 -0.0427501 0)
(-0.0635659 -0.0479609 1.19401e-18)
(-0.00342901 -0.0458835 1.26576e-18)
(0.0469324 -0.0397245 -1.31472e-18)
(0.0867797 -0.0323041 0)
(0.117356 -0.0254526 0)
(0.140951 -0.020002 6.8795e-19)
(0.16002 -0.0160998 0)
(0.176653 -0.0134757 3.46531e-19)
(0.192383 -0.0117089 -8.68749e-20)
(0.20818 -0.0103699 8.71446e-20)
(0.224523 -0.00907871 -3.49897e-19)
(0.241486 -0.00752226 0)
(0.258817 -0.00546538 -7.07553e-19)
(0.276021 -0.00277373 0)
(0.292491 0.000558491 0)
(0.307674 0.00440205 1.44286e-18)
(0.321238 0.00853195 0)
(0.333161 0.0127065 0)
(0.343711 0.0167474 0)
(0.353334 0.0205806 0)
(0.362522 0.0242277 0)
(0.371716 0.0277684 0)
(0.381274 0.0313012 -5.93723e-18)
(0.391467 0.0349178 2.97466e-18)
(0.402523 0.0386971 2.97662e-18)
(0.414622 0.0427007 -5.95355e-18)
(0.427996 0.0469936 -2.97222e-18)
(0.442779 0.0516198 2.96005e-18)
(0.459388 0.0566753 -2.93717e-18)
(0.477756 0.0621695 0)
(0.499007 0.0683364 2.45399e-21)
(0.521975 0.0749898 -5.55415e-18)
(0.550548 0.0828899 -5.36992e-18)
(0.578642 0.0909384 -5.04565e-18)
(0.620944 0.101903 -9.46015e-18)
(0.651624 0.111034 -4.03933e-18)
(0.72557 0.127951 3.63492e-18)
(0.746249 0.136408 1.88314e-18)
(0.902318 0.1594 -2.02798e-18)
(0.907714 0.0936337 -7.35801e-20)
(0.560126 0.0426165 3.73175e-18)
(0.293121 0.0147091 2.33347e-21)
(0.119593 0.0115482 -2.3652e-22)
(0.0445245 0.00775785 4.81285e-18)
(-0.00251107 0.0101159 4.86964e-18)
(-0.0231642 0.00946019 -4.82917e-18)
(-0.0392152 0.00737595 2.39605e-18)
(-0.0416701 0.00155099 4.15878e-22)
(-0.0399629 -0.00078621 -2.33467e-18)
(-0.0428709 0.00679099 -2.30779e-18)
(-0.0668944 0.0267417 -2.20852e-18)
(-0.11544 0.0531431 4.14461e-18)
(-0.177896 0.0749056 -5.44963e-22)
(-0.234456 0.0822593 1.77149e-18)
(-0.271161 0.0726895 0)
(-0.283097 0.0498649 1.64541e-18)
(-0.270146 0.0199008 0)
(-0.234115 -0.0107011 -1.82444e-18)
(-0.179816 -0.035696 -9.97231e-19)
(-0.115242 -0.050969 -1.09382e-18)
(-0.0493969 -0.0559058 -1.13056e-21)
(0.0105507 -0.0528979 -1.25742e-18)
(0.0607293 -0.0455174 1.3061e-18)
(0.100408 -0.0368861 0)
(0.130853 -0.0290171 -6.78967e-19)
(0.154376 -0.0228207 0)
(0.173448 -0.0184356 0)
(0.190175 -0.0155406 -3.45224e-19)
(0.206117 -0.0136486 0)
(0.222266 -0.0122657 0)
(0.23912 -0.0109553 3.48611e-19)
(0.256756 -0.00935638 0)
(0.274898 -0.00719623 0)
(0.293003 -0.00431752 7.09279e-19)
(0.310386 -0.000712178 0)
(0.326416 0.00346957 -1.43792e-18)
(0.340698 0.00796455 0)
(0.353182 0.0124895 1.45429e-18)
(0.36415 0.0168357 0)
(0.374083 0.0209163 0)
(0.383517 0.0247564 0)
(0.392933 0.0284476 0)
(0.402715 0.032102 2.96087e-18)
(0.413151 0.0358225 0)
(0.424481 0.0396959 -5.93826e-18)
(0.436893 0.0437886 2.96943e-18)
(0.450625 0.048168 -2.96279e-18)
(0.465826 0.0528807 2.95049e-18)
(0.48291 0.0580228 2.9312e-18)
(0.501842 0.0636077 0)
(0.523718 0.0698645 2.84798e-18)
(0.547472 0.0766217 8.31374e-18)
(0.576845 0.084612 -5.34767e-18)
(0.606108 0.0927981 5.03792e-18)
(0.649332 0.103819 4.71866e-18)
(0.681956 0.113179 0)
(0.756633 0.129934 -3.63079e-18)
(0.78066 0.138743 -3.75119e-18)
(0.936801 0.160732 0)
(0.923698 0.103628 4.01761e-18)
(0.61174 0.0496581 0)
(0.345056 0.0193594 2.16008e-21)
(0.157399 0.013611 -3.04533e-22)
(0.0670625 0.00876702 -4.78429e-18)
(0.0118221 0.0105369 -9.70701e-18)
(-0.0138954 0.00966487 9.64172e-18)
(-0.0333899 0.00740206 -2.39201e-18)
(-0.0391284 0.00138337 2.35814e-18)
(-0.0403348 -0.000579032 0)
(-0.0454212 0.00841173 -2.30337e-21)
(-0.070607 0.0305523 0)
(-0.118109 0.0586156 -4.12803e-18)
(-0.1765 0.0803369 1.90442e-18)
(-0.227216 0.0859508 0)
(-0.25887 0.073865 0)
(-0.26796 0.0484546 -1.63737e-18)
(-0.253942 0.0160216 0)
(-0.21774 -0.0167768 1.81289e-18)
(-0.163677 -0.0433219 9.90708e-19)
(-0.099515 -0.0592165 2.35773e-21)
(-0.0341645 -0.0638493 -1.17805e-18)
(0.0252286 -0.0598849 -1.24916e-18)
(0.074838 -0.0512643 0)
(0.113952 -0.0414117 0)
(0.143881 -0.0325239 6.75693e-19)
(0.166968 -0.0255882 0)
(0.185702 -0.0207338 3.42679e-19)
(0.202212 -0.0175886 -3.438e-19)
(0.218082 -0.0155993 8.61854e-20)
(0.234335 -0.0142066 -8.64515e-20)
(0.251491 -0.0129154 3.47163e-19)
(0.269637 -0.0113136 -3.48878e-19)
(0.28848 -0.00908648 7.01873e-19)
(0.307424 -0.00604926 -7.06646e-19)
(0.325702 -0.00218895 0)
(0.342585 0.00232277 0)
(0.357598 0.0071809 0)
(0.370652 0.0120554 -3.09499e-22)
(0.382031 0.0167023 1.45645e-18)
(0.392253 0.02102 0)
(0.4019 0.0250366 0)
(0.411495 0.0288567 0)
(0.421451 0.0326075 0)
(0.432075 0.0364043 0)
(0.443618 0.0403416 1.24488e-21)
(0.456276 0.0444911 0)
(0.470292 0.0489223 5.91079e-18)
(0.485823 0.0536839 -5.88648e-18)
(0.503288 0.0588717 -2.92126e-18)
(0.522673 0.0645025 0)
(0.545053 0.0707999 0)
(0.569444 0.0776061 -5.52588e-18)
(0.599461 0.0856249 6.67568e-21)
(0.629677 0.0938794 -5.01509e-18)
(0.673638 0.104877 4.69279e-18)
(0.707857 0.114373 3.99975e-18)
(0.78307 0.130872 -3.59761e-18)
(0.809838 0.139887 3.7257e-18)
(0.965667 0.160868 1.97898e-18)
(0.936531 0.112638 6.59543e-20)
(0.658227 0.056834 -3.58511e-18)
(0.397037 0.0245055 -8.28197e-18)
(0.198649 0.0161819 -3.96623e-22)
(0.0932939 0.0101056 4.74969e-18)
(0.0290849 0.0110829 4.83079e-18)
(-0.00238476 0.00992401 -2.40382e-18)
(-0.0256702 0.00747201 0)
(-0.0350417 0.0012909 0)
(-0.0393064 -0.000330657 2.33226e-18)
(-0.0462573 0.0099456 2.29843e-18)
(-0.0718585 0.0340353 0)
(-0.117366 0.0634267 2.05443e-18)
(-0.171066 0.0848618 0)
(-0.216093 0.0887671 0)
(-0.243444 0.0744271 0)
(-0.250381 0.0467047 0)
(-0.235653 0.0119686 1.67928e-18)
(-0.199488 -0.0229381 8.91917e-19)
(-0.145867 -0.0509793 -9.7775e-19)
(-0.0823699 -0.0674565 2.41588e-21)
(-0.0178082 -0.0717514 0)
(0.040693 -0.0668064 1.2411e-18)
(0.0893891 -0.0569269 0)
(0.12758 -0.045843 0)
(0.156635 -0.0359364 6.72643e-19)
(0.17894 -0.0282693 -6.78989e-19)
(0.197012 -0.0229608 -3.41394e-19)
(0.213003 -0.0195876 3.42573e-19)
(0.228526 -0.0175304 -1.71744e-19)
(0.244635 -0.0161641 1.7227e-19)
(0.26188 -0.0149334 -3.45918e-19)
(0.280365 -0.0133718 3.47602e-19)
(0.299785 -0.0111178 -1.67341e-22)
(0.319492 -0.00795439 -7.03754e-19)
(0.338633 -0.00385977 0)
(0.35637 0.000973175 0)
(0.37213 0.00619407 0)
(0.385768 0.0114204 -2.88974e-18)
(0.397561 0.0163677 -1.45223e-18)
(0.408061 0.0209163 0)
(0.417899 0.0250971 0)
(0.427642 0.0290287 -2.93549e-18)
(0.437735 0.032855 0)
(0.448507 0.0367045 0)
(0.460217 0.0406805 5.90505e-18)
(0.47307 0.0448595 -2.95153e-18)
(0.487313 0.0493135 -5.89412e-18)
(0.503112 0.0540929 1.701e-21)
(0.520884 0.0592926 5.82785e-18)
(0.540637 0.0649327 2.87852e-18)
(0.563426 0.0712301 0)
(0.588336 0.0780409 2.75623e-18)
(0.618879 0.0860383 5.32225e-18)
(0.649874 0.0943046 5.0067e-18)
(0.694429 0.105216 -4.68559e-18)
(0.729955 0.114771 -3.99427e-18)
(0.80557 0.130945 3.59313e-18)
(0.834564 0.14005 -1.85546e-18)
(0.989843 0.160035 -1.97681e-18)
(0.94681 0.120727 6.30008e-20)
(0.699745 0.0639948 3.54342e-18)
(0.448112 0.0300612 -1.80612e-21)
(0.242639 0.0192689 -5.06895e-22)
(0.123161 0.0118179 0)
(0.049375 0.0118105 0)
(0.0114762 0.0102817 2.80525e-23)
(-0.0159432 0.00761154 0)
(-0.0292587 0.00128411 0)
(-0.0367212 -5.9153e-05 7.19805e-22)
(-0.045231 0.0113391 0)
(-0.0705656 0.0371234 0)
(-0.113338 0.0675467 2.04957e-18)
(-0.162024 0.0885358 0)
(-0.201717 0.0908366 0)
(-0.225433 0.0745037 0)
(-0.230651 0.0446908 0)
(-0.215381 0.00777927 -1.09128e-20)
(-0.179377 -0.029157 -8.88092e-19)
(-0.126369 -0.0586385 1.9425e-18)
(-0.0637697 -0.0756568 2.4656e-21)
(-0.000279675 -0.0795776 1.16086e-18)
(0.0570357 -0.073626 0)
(0.104513 -0.062471 1.28329e-18)
(0.141466 -0.0501463 0)
(0.169327 -0.0392212 -6.69849e-19)
(0.190535 -0.0308315 6.98726e-23)
(0.207642 -0.0250851 0)
(0.22283 -0.0215072 0)
(0.237742 -0.0194125 2.42395e-23)
(0.253466 -0.0181099 -2.57198e-23)
(0.270587 -0.0169825 1.72269e-19)
(0.289229 -0.0155065 0)
(0.309084 -0.0132694 -6.96606e-19)
(0.329461 -0.0100156 7.01226e-19)
(0.349416 -0.00571029 0)
(0.367993 -0.000566297 -1.42209e-18)
(0.384507 0.00501758 0)
(0.398741 0.0106003 3.4671e-22)
(0.410956 0.0158511 0)
(0.42173 0.0206283 1.45361e-18)
(0.431744 0.0249646 1.45896e-18)
(0.441613 0.028994 1.01661e-21)
(0.451817 0.0328783 -2.9346e-18)
(0.462706 0.0367607 0)
(0.47455 0.0407539 -1.27847e-21)
(0.48756 0.0449398 2.94445e-18)
(0.501987 0.0493924 1.53649e-21)
(0.518004 0.0541637 2.92723e-18)
(0.536028 0.0593473 -1.90904e-21)
(0.556084 0.0649665 -2.1443e-21)
(0.579211 0.0712311 0)
(0.604549 0.0780101 0)
(0.635523 0.0859458 0)
(0.667162 0.0941782 0)
(0.712202 0.104954 0)
(0.748802 0.114505 3.96934e-18)
(0.82472 0.130302 0)
(0.855515 0.139407 0)
(1.0101 0.15842 -1.94921e-18)
(0.955022 0.127968 -2.13883e-18)
(0.73655 0.0710182 0)
(0.4975 0.0359274 -1.67413e-21)
(0.2886 0.0228568 -6.28627e-22)
(0.156482 0.0139374 0)
(0.0727643 0.0127782 2.38799e-18)
(0.0278044 0.0107766 -2.38634e-18)
(-0.00409094 0.00784477 0)
(-0.021629 0.00137385 0)
(-0.0324477 0.000223663 -2.33038e-18)
(-0.0422643 0.0125528 0)
(-0.0667394 0.0397735 0)
(-0.106232 0.0709761 -2.03895e-18)
(-0.149812 0.0914309 0)
(-0.184603 0.0922729 -1.71395e-18)
(-0.205199 0.0741843 0)
(-0.208925 0.0424564 0)
(-0.19318 0.0034771 -1.09567e-20)
(-0.157419 -0.0354109 0)
(-0.105175 -0.0662724 -9.65371e-19)
(-0.0436932 -0.0837863 1.06421e-18)
(0.0184521 -0.0872939 -2.30829e-18)
(0.0743217 -0.0803127 1.22472e-18)
(0.120314 -0.0678659 -1.27666e-18)
(0.155762 -0.0542914 0)
(0.182154 -0.0423485 -6.67293e-19)
(0.201987 -0.0332453 1.34816e-18)
(0.217858 -0.0270779 0)
(0.231984 -0.0233191 -1.70085e-19)
(0.246039 -0.0212174 8.53008e-20)
(0.261148 -0.0200159 -8.55497e-20)
(0.277931 -0.0190353 -1.71724e-19)
(0.296542 -0.0176922 0)
(0.316677 -0.0155179 -6.93867e-19)
(0.337608 -0.012213 6.98479e-19)
(0.358306 -0.00772393 0)
(0.377692 -0.00228117 1.41743e-18)
(0.394956 0.00366553 0)
(0.409794 0.00961077 1.43581e-18)
(0.422436 0.0151705 0)
(0.433482 0.0201773 -1.44982e-18)
(0.443663 0.0246638 -1.45529e-18)
(0.453641 0.0287802 1.03251e-21)
(0.463937 0.0327081 2.92745e-18)
(0.474919 0.0366068 0)
(0.486872 0.0405993 -2.93635e-18)
(0.500012 0.0447729 0)
(0.51459 0.0492038 2.93071e-18)
(0.530789 0.0539454 0)
(0.549022 0.05909 -2.8975e-18)
(0.569331 0.0646634 -5.72433e-18)
(0.592739 0.0708682 0)
(0.618436 0.0775856 0)
(0.64977 0.0854272 0)
(0.681944 0.0935883 2.48276e-18)
(0.727384 0.104189 0)
(0.764872 0.113686 -9.19909e-21)
(0.841022 0.129068 0)
(0.873274 0.138105 1.82139e-18)
(1.02709 0.156175 1.94667e-18)
(0.961566 0.134439 0)
(0.768952 0.077808 3.45246e-18)
(0.544593 0.042 3.98265e-18)
(0.33574 0.0269085 -7.5281e-22)
(0.19295 0.0164849 0)
(0.0992777 0.0140375 -2.37172e-18)
(0.046719 0.0114463 0)
(0.00999931 0.00819823 2.36883e-18)
(-0.0120076 0.00157256 2.35567e-18)
(-0.0263718 0.000513744 2.33139e-18)
(-0.0373375 0.0135628 2.289e-18)
(-0.0604656 0.0419634 2.18561e-18)
(-0.0963032 0.0737359 0)
(-0.134839 0.0936239 0)
(-0.165154 0.0931684 1.7047e-18)
(-0.18298 0.073528 0)
(-0.185307 0.0400274 0)
(-0.169099 -0.000921005 -1.64155e-18)
(-0.133642 -0.0416795 0)
(-0.0822999 -0.0738549 -9.54064e-19)
(-0.022141 -0.0918117 0)
(0.0383962 -0.09487 1.14705e-18)
(0.0925839 -0.0868376 -1.2177e-18)
(0.136858 -0.0730844 0)
(0.170578 -0.0582523 0)
(0.195276 -0.0452923 2.69244e-23)
(0.213502 -0.035485 -6.72034e-19)
(0.227903 -0.0289135 0)
(0.240738 -0.0249974 1.6964e-19)
(0.253715 -0.0229189 8.50241e-20)
(0.267993 -0.0218553 -8.52611e-20)
(0.284232 -0.0210647 0)
(0.30262 -0.0199021 0)
(0.322867 -0.0178388 2.04965e-22)
(0.34422 -0.0145248 -1.85115e-22)
(0.365569 -0.00988208 0)
(0.385712 -0.00415553 0)
(0.403706 0.00215264 1.42221e-18)
(0.419145 0.00846688 0)
(0.432217 0.0143432 0)
(0.443535 0.0195828 0)
(0.453875 0.0242169 0)
(0.463952 0.0284123 2.91193e-18)
(0.474323 0.032372 2.91839e-18)
(0.485383 0.0362731 0)
(0.497425 0.0402496 0)
(0.510672 0.0443949 2.92618e-18)
(0.525379 0.0487872 0)
(0.54173 0.0534812 0)
(0.56014 0.0585677 -2.88665e-18)
(0.580663 0.0640747 2.85411e-18)
(0.604309 0.0701974 0)
(0.630309 0.0768288 0)
(0.661946 0.0845502 0)
(0.694572 0.0926095 -2.4771e-18)
(0.740346 0.103005 2.31099e-18)
(0.778574 0.112407 -7.88135e-18)
(0.854903 0.127344 0)
(0.888338 0.136262 -1.81816e-18)
(1.04134 0.153421 -1.92098e-18)
(0.966773 0.140217 0)
(0.797302 0.084293 -3.42671e-18)
(0.588941 0.0481758 0)
(0.383288 0.031369 -6.57496e-18)
(0.232144 0.0194661 0)