/*--------------------------------*- C++ -*----------------------------------*\
| =========                 |                                                 |
| \\      /  F ield         | OpenFOAM: The Open Source CFD Toolbox           |
|  \\    /   O peration     | Version:  2.4.0                                 |
|   \\  /    A nd           | Web:      www.OpenFOAM.org                      |
|    \\/     M anipulation  |                                                 |
\*---------------------------------------------------------------------------*/
FoamFile
{
    version     2.0;
    format      ascii;
    class       surfaceScalarField;
    location    "595";
    object      phi;
}
// * * * * * * * * * * * * * * * * * * * * * * * * * * * * * * * * * * * * * //

dimensions      [0 3 -1 0 0 0 0];

internalField   nonuniform List<scalar> 
19800
(
0.000192365
2.28987e-09
0.000192359
5.3871e-09
0.000192352
7.76062e-09
0.000192342
9.66287e-09
0.000192331
1.1261e-08
0.000192318
1.26614e-08
0.000192304
1.39279e-08
0.000192289
1.51316e-08
0.000192273
1.62899e-08
0.000192255
1.74813e-08
0.000192237
1.86706e-08
0.000192217
1.99928e-08
0.000192195
2.12502e-08
0.000192173
2.27445e-08
0.000192149
2.34909e-08
0.000192125
2.42205e-08
0.000192105
1.95502e-08
0.000192093
1.21103e-08
0.00019213
-3.72086e-08
7.89127e-08
0.000192052
0.000197699
4.64092e-09
0.000197694
1.09199e-08
0.000197686
1.57297e-08
0.000197676
1.95854e-08
0.000197664
2.28223e-08
0.000197651
2.56574e-08
0.000197637
2.82202e-08
0.000197622
3.06516e-08
0.000197605
3.29913e-08
0.000197587
3.53871e-08
0.000197568
3.7787e-08
0.000197548
4.04249e-08
0.000197526
4.29994e-08
0.000197503
4.59888e-08
0.000197478
4.80801e-08
0.000197452
5.05711e-08
0.000197423
4.83028e-08
0.000197385
5.03821e-08
0.000197301
4.68045e-08
1.66849e-07
0.000197213
0.000203182
7.05404e-09
0.000203176
1.65987e-08
0.000203168
2.39075e-08
0.000203158
2.97655e-08
0.000203146
3.46797e-08
0.000203133
3.89802e-08
0.000203118
4.2863e-08
0.000203102
4.65388e-08
0.000203085
5.007e-08
0.000203067
5.36695e-08
0.000203047
5.72729e-08
0.000203027
6.12013e-08
0.000203005
6.50889e-08
0.000202981
6.95769e-08
0.000202956
7.33133e-08
0.000202928
7.8173e-08
0.000202896
8.03477e-08
0.000202856
9.08824e-08
0.000202795
1.06871e-07
1.90517e-07
0.000202772
0.000208817
9.52914e-09
0.000208811
2.24228e-08
0.000208802
3.22925e-08
0.000208792
4.01997e-08
0.00020878
4.68269e-08
0.000208766
5.26188e-08
0.000208751
5.78389e-08
0.000208735
6.27659e-08
0.000208717
6.74856e-08
0.000208699
7.22686e-08
0.000208679
7.70436e-08
0.000208658
8.21985e-08
0.000208636
8.73426e-08
0.000208612
9.32257e-08
0.000208587
9.86325e-08
0.000208559
1.05669e-07
0.000208528
1.11779e-07
0.000208493
1.26177e-07
0.000208453
1.47039e-07
2.01649e-07
0.000208441
0.000214607
1.20659e-08
0.000214601
2.83913e-08
0.000214593
4.08823e-08
0.000214582
5.08834e-08
0.00021457
5.92555e-08
0.000214556
6.65595e-08
0.00021454
7.31266e-08
0.000214524
7.93012e-08
0.000214506
8.51916e-08
0.000214487
9.11173e-08
0.000214467
9.70033e-08
0.000214446
1.0328e-07
0.000214424
1.09558e-07
0.000214401
1.1662e-07
0.000214376
1.23439e-07
0.00021435
1.31979e-07
0.000214321
1.40474e-07
0.000214292
1.55275e-07
0.000214264
1.74721e-07
2.09663e-07
0.000214256
0.000220559
1.46637e-08
0.000220553
3.45024e-08
0.000220544
4.96734e-08
0.000220533
6.18102e-08
0.00022052
7.19551e-08
0.000220506
8.07858e-08
0.00022049
8.87015e-08
0.000220474
9.6108e-08
0.000220456
1.03136e-07
0.000220437
1.10141e-07
0.000220417
1.17048e-07
0.000220396
1.24301e-07
0.000220374
1.31523e-07
0.000220351
1.39456e-07
0.000220327
1.47236e-07
0.000220303
1.56449e-07
0.000220277
1.65774e-07
0.000220253
1.79033e-07
0.000220234
1.94607e-07
2.15904e-07
0.000220227
0.000226675
1.73217e-08
0.000226669
4.07536e-08
0.00022666
5.86611e-08
0.000226649
7.29722e-08
0.000226636
8.49132e-08
0.000226621
9.52785e-08
0.000226606
1.04535e-07
0.000226589
1.13146e-07
0.00022657
1.21261e-07
0.000226551
1.29261e-07
0.000226531
1.37069e-07
0.00022651
1.45115e-07
0.000226489
1.53036e-07
0.000226467
1.61465e-07
0.000226444
1.69662e-07
0.000226422
1.78738e-07
0.0002264
1.87612e-07
0.000226381
1.98255e-07
0.000226367
2.09152e-07
2.20767e-07
0.000226362
0.000232961
2.00386e-08
0.000232955
4.71418e-08
0.000232946
6.78395e-08
0.000232934
8.43597e-08
0.000232921
9.81146e-08
0.000232906
1.10015e-07
0.00023289
1.20595e-07
0.000232873
1.30368e-07
0.000232855
1.39504e-07
0.000232836
1.48393e-07
0.000232816
1.56953e-07
0.000232795
1.65577e-07
0.000232775
1.73909e-07
0.000232754
1.82434e-07
0.000232733
1.90487e-07
0.000232713
1.98723e-07
0.000232694
2.06203e-07
0.000232679
2.13717e-07
0.000232668
2.19988e-07
2.24602e-07
0.000232664
0.000239422
2.28131e-08
0.000239415
5.3663e-08
0.000239406
7.72015e-08
0.000239394
9.59613e-08
0.000239381
1.11542e-07
0.000239366
1.24971e-07
0.00023935
1.36847e-07
0.000239332
1.47728e-07
0.000239314
1.57799e-07
0.000239295
1.67449e-07
0.000239275
1.76591e-07
0.000239255
1.85554e-07
0.000239235
1.93986e-07
0.000239215
2.02204e-07
0.000239196
2.09592e-07
0.000239179
2.16431e-07
0.000239163
2.21897e-07
0.000239151
2.26137e-07
0.000239142
2.28199e-07
2.2762e-07
0.000239139
0.000246061
2.56432e-08
0.000246055
6.03121e-08
0.000246045
8.67384e-08
0.000246033
1.07763e-07
0.00024602
1.25176e-07
0.000246005
1.40117e-07
0.000245988
1.5325e-07
0.000245971
1.6517e-07
0.000245952
1.76076e-07
0.000245934
1.86344e-07
0.000245914
1.95875e-07
0.000245895
2.04925e-07
0.000245876
2.13138e-07
0.000245857
2.20672e-07
0.00024584
2.26948e-07
0.000245824
2.31984e-07
0.000245811
2.35083e-07
0.000245801
2.36125e-07
0.000245795
2.34497e-07
2.29962e-07
0.000245793
0.000252885
2.85267e-08
0.000252878
6.70833e-08
0.000252869
9.64403e-08
0.000252857
1.19751e-07
0.000252843
1.38994e-07
0.000252827
1.55422e-07
0.000252811
1.69762e-07
0.000252793
1.82641e-07
0.000252775
1.94266e-07
0.000252757
2.04991e-07
0.000252738
2.14704e-07
0.000252719
2.23584e-07
0.000252701
2.3127e-07
0.000252684
2.37782e-07
0.000252668
2.42589e-07
0.000252655
2.45555e-07
0.000252644
2.46135e-07
0.000252636
2.44168e-07
0.000252631
2.39359e-07
2.31733e-07
0.000252629
0.000259898
3.14608e-08
0.000259891
7.39698e-08
0.000259881
1.06295e-07
0.000259869
1.31906e-07
0.000259855
1.52971e-07
0.00025984
1.70852e-07
0.000259823
1.86338e-07
0.000259806
2.00081e-07
0.000259788
2.12296e-07
0.000259769
2.23306e-07
0.000259751
2.32989e-07
0.000259733
2.41445e-07
0.000259716
2.48315e-07
0.0002597
2.53522e-07
0.000259686
2.56591e-07
0.000259675
2.57338e-07
0.000259665
2.55383e-07
0.000259659
2.5065e-07
0.000259655
2.43115e-07
2.3302e-07
0.000259654
0.000267105
3.44425e-08
0.000267098
8.09635e-08
0.000267088
1.16291e-07
0.000267076
1.44209e-07
0.000267062
1.6708e-07
0.000267046
1.86371e-07
0.00026703
2.02931e-07
0.000267012
2.17432e-07
0.000266995
2.30095e-07
0.000266977
2.41211e-07
0.000266959
2.50647e-07
0.000266942
2.58437e-07
0.000266926
2.64236e-07
0.000266912
2.67906e-07
0.000266899
2.69057e-07
0.000266889
2.67525e-07
0.000266881
2.63111e-07
0.000266876
2.55873e-07
0.000266873
2.46e-07
2.33897e-07
0.000266872
0.000274513
3.74683e-08
0.000274506
8.80555e-08
0.000274495
1.26411e-07
0.000274483
1.56639e-07
0.000274469
1.8129e-07
0.000274453
2.01939e-07
0.000274437
2.1949e-07
0.000274419
2.34632e-07
0.000274402
2.47594e-07
0.000274385
2.58632e-07
0.000274368
2.67609e-07
0.000274352
2.7451e-07
0.000274337
2.79016e-07
0.000274324
2.80976e-07
0.000274313
2.801e-07
0.000274304
2.76301e-07
0.000274297
2.69556e-07
0.000274293
2.60066e-07
0.000274291
2.48187e-07
2.34424e-07
0.00027429
0.000282125
4.0534e-08
0.000282118
9.52354e-08
0.000282108
1.3664e-07
0.000282095
1.69171e-07
0.000282081
1.9557e-07
0.000282066
2.17513e-07
0.000282049
2.35963e-07
0.000282032
2.51622e-07
0.000282015
2.64726e-07
0.000281998
2.75501e-07
0.000281982
2.83817e-07
0.000281967
2.89628e-07
0.000281953
2.92661e-07
0.000281941
2.92789e-07
0.000281932
2.89839e-07
0.000281924
2.83834e-07
0.000281919
2.74913e-07
0.000281915
2.63412e-07
0.000281914
2.49804e-07
2.34654e-07
0.000281914
0.000289949
4.36352e-08
0.000289942
1.02492e-07
0.000289932
1.4696e-07
0.000289919
1.8178e-07
0.000289905
2.09885e-07
0.000289889
2.33052e-07
0.000289873
2.52299e-07
0.000289856
2.68341e-07
0.000289839
2.81427e-07
0.000289823
2.9176e-07
0.000289808
2.99226e-07
0.000289794
3.03772e-07
0.000289781
3.05191e-07
0.00028977
3.03411e-07
0.000289762
2.98389e-07
0.000289755
2.90271e-07
0.000289751
2.79342e-07
0.000289748
2.66051e-07
0.000289747
2.50948e-07
2.34627e-07
0.000289747
0.00029799
4.67668e-08
0.000297983
1.09812e-07
0.000297972
1.57349e-07
0.00029796
1.94438e-07
0.000297945
2.24199e-07
0.00029793
2.48508e-07
0.000297914
2.68443e-07
0.000297897
2.84731e-07
0.000297881
2.97637e-07
0.000297866
3.07355e-07
0.000297851
3.13799e-07
0.000297838
3.16935e-07
0.000297826
3.16636e-07
0.000297817
3.12914e-07
0.000297809
3.0586e-07
0.000297804
2.95743e-07
0.0002978
2.82976e-07
0.000297798
2.68094e-07
0.000297797
2.51695e-07
2.34379e-07
0.000297798
0.000306254
4.99232e-08
0.000306246
1.17183e-07
0.000306236
1.67787e-07
0.000306223
2.07115e-07
0.000306209
2.38472e-07
0.000306194
2.63837e-07
0.000306178
2.84343e-07
0.000306162
3.00736e-07
0.000306146
3.13304e-07
0.000306131
3.22244e-07
0.000306118
3.27514e-07
0.000306105
3.29122e-07
0.000306095
3.27037e-07
0.000306087
3.21372e-07
0.00030608
3.12351e-07
0.000306075
3.00364e-07
0.000306072
2.85923e-07
0.000306071
2.69629e-07
0.000306071
2.52103e-07
2.33938e-07
0.000306071
0.000314747
5.30984e-08
0.000314739
1.24589e-07
0.000314729
1.78251e-07
0.000314716
2.19778e-07
0.000314702
2.52666e-07
0.000314687
2.78989e-07
0.000314671
2.99945e-07
0.000314656
3.16301e-07
0.000314641
3.28378e-07
0.000314627
3.3639e-07
0.000314614
3.40356e-07
0.000314602
3.40346e-07
0.000314593
3.36438e-07
0.000314586
3.28858e-07
0.00031458
3.17957e-07
0.000314576
3.0423e-07
0.000314574
2.88272e-07
0.000314573
2.70725e-07
0.000314573
2.5222e-07
2.33328e-07
0.000314573
0.000323475
5.62857e-08
0.000323468
1.32014e-07
0.000323457
1.88714e-07
0.000323445
2.32395e-07
0.000323431
2.66738e-07
0.000323416
2.93919e-07
0.000323401
3.15198e-07
0.000323385
3.31376e-07
0.000323371
3.42815e-07
0.000323358
3.49765e-07
0.000323346
3.52319e-07
0.000323335
3.50628e-07
0.000323327
3.44889e-07
0.00032332
3.35443e-07
0.000323316
3.22759e-07
0.000323312
3.07426e-07
0.000323311
2.90097e-07
0.00032331
2.7144e-07
0.00032331
2.52081e-07
2.32566e-07
0.000323311
0.000332446
5.94781e-08
0.000332438
1.3944e-07
0.000332428
1.99151e-07
0.000332415
2.44931e-07
0.000332402
2.80647e-07
0.000332387
3.08577e-07
0.000332372
3.30053e-07
0.000332358
3.45915e-07
0.000332344
3.56579e-07
0.000332331
3.62349e-07
0.00033232
3.63405e-07
0.000332311
3.59995e-07
0.000332303
3.52439e-07
0.000332297
3.41194e-07
0.000332293
3.26833e-07
0.000332291
3.10022e-07
0.000332289
2.91458e-07
0.000332289
2.7182e-07
0.000332289
2.51718e-07
2.31669e-07
0.00033229
0.000341665
6.2668e-08
0.000341658
1.46849e-07
0.000341647
2.09534e-07
0.000341635
2.5735e-07
0.000341621
2.94348e-07
0.000341607
3.22916e-07
0.000341593
3.44461e-07
0.000341579
3.59874e-07
0.000341566
3.69638e-07
0.000341554
3.74126e-07
0.000341544
3.73621e-07
0.000341535
3.68477e-07
0.000341528
3.59138e-07
0.000341523
3.46172e-07
0.00034152
3.30245e-07
0.000341518
3.12081e-07
0.000341517
2.92408e-07
0.000341517
2.71902e-07
0.000341517
2.51154e-07
2.3065e-07
0.000341518
0.00035114
6.58471e-08
0.000351133
1.54222e-07
0.000351123
2.19833e-07
0.00035111
2.69613e-07
0.000351097
3.078e-07
0.000351083
3.36891e-07
0.000351069
3.58378e-07
0.000351056
3.73215e-07
0.000351043
3.81967e-07
0.000351032
3.85091e-07
0.000351023
3.8298e-07
0.000351015
3.76108e-07
0.000351009
3.65035e-07
0.000351005
3.50435e-07
0.000351002
3.33052e-07
0.000351001
3.13656e-07
0.000351
2.92988e-07
0.000351
2.71717e-07
0.000351001
2.5041e-07
2.29519e-07
0.000351002
0.000360878
6.90071e-08
0.000360871
1.61537e-07
0.000360861
2.30018e-07
0.000360848
2.81683e-07
0.000360835
3.20957e-07
0.000360822
3.50455e-07
0.000360808
3.7176e-07
0.000360796
3.85904e-07
0.000360784
3.93546e-07
0.000360774
3.9524e-07
0.000360765
3.91501e-07
0.000360759
3.82921e-07
0.000360753
3.70178e-07
0.00036075
3.54038e-07
0.000360748
3.35308e-07
0.000360746
3.14792e-07
0.000360746
2.93236e-07
0.000360747
2.71293e-07
0.000360748
2.49502e-07
2.28284e-07
0.000360749
0.000370886
7.2139e-08
0.000370879
1.68774e-07
0.000370869
2.40058e-07
0.000370857
2.93522e-07
0.000370844
3.33779e-07
0.000370831
3.63565e-07
0.000370818
3.8457e-07
0.000370806
3.97913e-07
0.000370795
4.0436e-07
0.000370786
4.04577e-07
0.000370778
3.99204e-07
0.000370772
3.88953e-07
0.000370768
3.74612e-07
0.000370765
3.57027e-07
0.000370763
3.37057e-07
0.000370762
3.15528e-07
0.000370762
2.93182e-07
0.000370763
2.7065e-07
0.000370764
2.48444e-07
2.26953e-07
0.000370765
0.000381171
7.52334e-08
0.000381164
1.75911e-07
0.000381154
2.49922e-07
0.000381143
3.05091e-07
0.00038113
3.46221e-07
0.000381118
3.7618e-07
0.000381105
3.96771e-07
0.000381094
4.09217e-07
0.000381084
4.144e-07
0.000381076
4.13108e-07
0.000381069
4.06111e-07
0.000381063
3.9424e-07
0.00038106
3.78379e-07
0.000381057
3.59446e-07
0.000381056
3.38341e-07
0.000381056
3.15899e-07
0.000381056
2.92851e-07
0.000381057
2.69808e-07
0.000381058
2.47248e-07
2.25532e-07
0.000381059
0.000391742
7.82807e-08
0.000391735
1.82924e-07
0.000391725
2.59576e-07
0.000391714
3.16351e-07
0.000391702
3.58244e-07
0.00039169
3.88262e-07
0.000391678
4.08333e-07
0.000391668
4.19795e-07
0.000391658
4.23661e-07
0.000391651
4.20845e-07
0.000391645
4.12249e-07
0.00039164
3.98815e-07
0.000391637
3.81519e-07
0.000391635
3.61337e-07
0.000391634
3.39196e-07
0.000391634
3.15934e-07
0.000391635
2.92268e-07
0.000391636
2.68781e-07
0.000391637
2.45924e-07
2.24026e-07
0.000391639
0.000402606
8.12711e-08
0.000402599
1.8979e-07
0.000402589
2.68989e-07
0.000402578
3.27264e-07
0.000402567
3.69807e-07
0.000402555
3.99774e-07
0.000402544
4.19227e-07
0.000402535
4.29632e-07
0.000402526
4.32141e-07
0.000402519
4.27802e-07
0.000402514
4.17643e-07
0.00040251
4.02714e-07
0.000402507
3.8407e-07
0.000402506
3.62734e-07
0.000402506
3.39653e-07
0.000402506
3.1566e-07
0.000402507
2.91451e-07
0.000402508
2.67584e-07
0.000402509
2.4448e-07
2.2244e-07
0.000402511
0.000413771
8.41945e-08
0.000413764
1.96486e-07
0.000413755
2.78127e-07
0.000413744
3.37793e-07
0.000413733
3.80874e-07
0.000413722
4.10683e-07
0.000413712
4.29429e-07
0.000413703
4.38717e-07
0.000413695
4.39844e-07
0.000413689
4.33994e-07
0.000413684
4.22319e-07
0.000413681
4.05969e-07
0.000413679
3.86066e-07
0.000413678
3.63672e-07
0.000413678
3.39741e-07
0.000413679
3.15098e-07
0.00041368
2.90418e-07
0.000413681
2.66229e-07
0.000413683
2.42924e-07
2.20777e-07
0.000413684
0.000425245
8.70408e-08
0.000425239
2.02989e-07
0.00042523
2.8696e-07
0.00042522
3.47902e-07
0.000425209
3.91409e-07
0.000425199
4.2096e-07
0.00042519
4.38919e-07
0.000425181
4.47043e-07
0.000425174
4.46776e-07
0.000425169
4.3944e-07
0.000425165
4.26306e-07
0.000425162
4.08612e-07
0.000425161
3.8754e-07
0.00042516
3.64178e-07
0.000425161
3.39485e-07
0.000425161
3.14269e-07
0.000425163
2.89182e-07
0.000425164
2.64724e-07
0.000425166
2.4126e-07
2.1904e-07
0.000425168
0.000437038
8.97997e-08
0.000437032
2.09275e-07
0.000437023
2.95454e-07
0.000437014
3.57556e-07
0.000437004
4.01379e-07
0.000436994
4.30578e-07
0.000436985
4.47683e-07
0.000436978
4.54606e-07
0.000436972
4.52946e-07
0.000436967
4.4416e-07
0.000436964
4.29629e-07
0.000436962
4.10674e-07
0.000436961
3.88522e-07
0.000436961
3.64281e-07
0.000436961
3.38907e-07
0.000436962
3.1319e-07
0.000436964
2.87757e-07
0.000436965
2.63079e-07
0.000436967
2.39496e-07
2.17233e-07
0.000436969
0.000449158
9.24612e-08
0.000449152
2.15321e-07
0.000449144
3.03581e-07
0.000449135
3.66723e-07
0.000449126
4.10754e-07
0.000449117
4.39514e-07
0.000449109
4.55706e-07
0.000449102
4.61407e-07
0.000449096
4.58367e-07
0.000449092
4.48174e-07
0.00044909
4.32316e-07
0.000449088
4.12182e-07
0.000449088
3.89039e-07
0.000449088
3.64005e-07
0.000449089
3.38027e-07
0.00044909
3.11877e-07
0.000449092
2.86154e-07
0.000449093
2.61302e-07
0.000449095
2.37636e-07
2.15357e-07
0.000449097
0.000461614
9.50152e-08
0.000461608
2.21105e-07
0.000461601
3.1131e-07
0.000461592
3.75371e-07
0.000461583
4.19507e-07
0.000461575
4.4775e-07
0.000461568
4.62982e-07
0.000461562
4.67448e-07
0.000461557
4.63051e-07
0.000461554
4.51505e-07
0.000461552
4.34393e-07
0.000461551
4.13164e-07
0.000461551
3.89116e-07
0.000461551
3.63371e-07
0.000461552
3.36864e-07
0.000461554
3.10344e-07
0.000461556
2.84383e-07
0.000461558
2.594e-07
0.00046156
2.35683e-07
2.13414e-07
0.000461562
0.000474416
9.74522e-08
0.00047441
2.26604e-07
0.000474403
3.18613e-07
0.000474395
3.83472e-07
0.000474387
4.27614e-07
0.000474379
4.55269e-07
0.000474373
4.69505e-07
0.000474367
4.72736e-07
0.000474363
4.67014e-07
0.000474361
4.54175e-07
0.000474359
4.35885e-07
0.000474359
4.13647e-07
0.000474359
3.88778e-07
0.00047436
3.62401e-07
0.000474362
3.35435e-07
0.000474363
3.08603e-07
0.000474365
2.82453e-07
0.000474367
2.57377e-07
0.000474369
2.33642e-07
2.11408e-07
0.000474371
0.000487572
9.97626e-08
0.000487567
2.31799e-07
0.00048756
3.25466e-07
0.000487553
3.91001e-07
0.000487545
4.35054e-07
0.000487538
4.62059e-07
0.000487533
4.75273e-07
0.000487528
4.77279e-07
0.000487525
4.70274e-07
0.000487523
4.56206e-07
0.000487522
4.36818e-07
0.000487522
4.13654e-07
0.000487523
3.88047e-07
0.000487524
3.61114e-07
0.000487526
3.33754e-07
0.000487528
3.06667e-07
0.00048753
2.80373e-07
0.000487532
2.55241e-07
0.000487534
2.31515e-07
2.09339e-07
0.000487536
0.000501094
1.01938e-07
0.000501089
2.36669e-07
0.000501082
3.31843e-07
0.000501075
3.97934e-07
0.000501069
4.4181e-07
0.000501063
4.68113e-07
0.000501058
4.80289e-07
0.000501054
4.81089e-07
0.000501051
4.72849e-07
0.00050105
4.57621e-07
0.000501049
4.37215e-07
0.00050105
4.13209e-07
0.000501051
3.86944e-07
0.000501053
3.59526e-07
0.000501054
3.31834e-07
0.000501057
3.04544e-07
0.000501059
2.7815e-07
0.000501061
2.52996e-07
0.000501063
2.29307e-07
2.07209e-07
0.000501065
0.00051499
1.03969e-07
0.000514985
2.41197e-07
0.00051498
3.37723e-07
0.000514973
4.04253e-07
0.000514967
4.47869e-07
0.000514962
4.73425e-07
0.000514958
4.84556e-07
0.000514955
4.84178e-07
0.000514953
4.74759e-07
0.000514952
4.58443e-07
0.000514952
4.371e-07
0.000514953
4.12333e-07
0.000514954
3.85487e-07
0.000514956
3.57652e-07
0.000514958
3.29689e-07
0.000514961
3.02244e-07
0.000514963
2.7579e-07
0.000514965
2.50647e-07
0.000514968
2.2702e-07
2.0502e-07
0.00051497
0.000529272
1.05849e-07
0.000529267
2.45366e-07
0.000529262
3.43088e-07
0.000529256
4.09939e-07
0.000529251
4.53221e-07
0.000529247
4.77994e-07
0.000529243
4.88083e-07
0.000529241
4.86562e-07
0.000529239
4.76022e-07
0.000529239
4.58694e-07
0.00052924
4.36495e-07
0.000529241
4.11048e-07
0.000529243
3.83694e-07
0.000529245
3.55509e-07
0.000529247
3.27329e-07
0.00052925
2.99777e-07
0.000529252
2.733e-07
0.000529255
2.48198e-07
0.000529257
2.24656e-07
2.02773e-07
0.000529259
0.000543949
1.0757e-07
0.000543946
2.49161e-07
0.000543941
3.47919e-07
0.000543936
4.1498e-07
0.000543931
4.57857e-07
0.000543927
4.81821e-07
0.000543924
4.90878e-07
0.000543923
4.88256e-07
0.000543922
4.76661e-07
0.000543922
4.58396e-07
0.000543924
4.35421e-07
0.000543925
4.09372e-07
0.000543927
3.81582e-07
0.00054393
3.5311e-07
0.000543932
3.24766e-07
0.000543935
2.9715e-07
0.000543938
2.70685e-07
0.00054394
2.45652e-07
0.000543943
2.22219e-07
2.0047e-07
0.000543945
0.000559034
1.09126e-07
0.000559031
2.5257e-07
0.000559027
3.52204e-07
0.000559022
4.19366e-07
0.000559018
4.61777e-07
0.000559015
4.84911e-07
0.000559013
4.92955e-07
0.000559012
4.8928e-07
0.000559012
4.76695e-07
0.000559013
4.57572e-07
0.000559014
4.33901e-07
0.000559016
4.07325e-07
0.000559019
3.79167e-07
0.000559021
3.50466e-07
0.000559024
3.22009e-07
0.000559027
2.9437e-07
0.00055903
2.67951e-07
0.000559032
2.43014e-07
0.000559035
2.1971e-07
1.98112e-07
0.000559037
0.000574537
1.10512e-07
0.000574534
2.55582e-07
0.000574531
3.55932e-07
0.000574527
4.23089e-07
0.000574524
4.64978e-07
0.000574521
4.87272e-07
0.00057452
4.94328e-07
0.00057452
4.89651e-07
0.00057452
4.76147e-07
0.000574521
4.56242e-07
0.000574523
4.31953e-07
0.000574526
4.04923e-07
0.000574529
3.76464e-07
0.000574531
3.47591e-07
0.000574534
3.19067e-07
0.000574537
2.91445e-07
0.00057454
2.65103e-07
0.000574543
2.40287e-07
0.000574545
2.17133e-07
1.957e-07
0.000574548
0.00059047
1.11724e-07
0.000590468
2.58187e-07
0.000590465
3.59095e-07
0.000590462
4.26147e-07
0.000590459
4.67466e-07
0.000590457
4.88915e-07
0.000590457
4.95012e-07
0.000590457
4.8939e-07
0.000590458
4.75037e-07
0.00059046
4.54429e-07
0.000590462
4.29598e-07
0.000590465
4.02185e-07
0.000590468
3.73486e-07
0.000590471
3.44494e-07
0.000590474
3.15949e-07
0.000590477
2.8838e-07
0.00059048
2.62146e-07
0.000590483
2.37474e-07
0.000590486
2.14488e-07
1.93237e-07
0.000590488
0.000606845
1.12757e-07
0.000606843
2.60381e-07
0.000606841
3.61687e-07
0.000606838
4.2854e-07
0.000606836
4.69245e-07
0.000606835
4.89851e-07
0.000606835
4.95027e-07
0.000606836
4.88519e-07
0.000606838
4.73389e-07
0.00060684
4.52153e-07
0.000606843
4.26854e-07
0.000606846
3.99126e-07
0.000606849
3.70247e-07
0.000606853
3.41188e-07
0.000606856
3.12664e-07
0.000606859
2.85182e-07
0.000606862
2.59083e-07
0.000606865
2.34578e-07
0.000606868
2.11778e-07
1.90722e-07
0.00060687
0.000623674
1.13609e-07
0.000623673
2.62158e-07
0.000623671
3.63708e-07
0.000623669
4.3027e-07
0.000623668
4.70327e-07
0.000623667
4.90097e-07
0.000623668
4.94391e-07
0.00062367
4.87058e-07
0.000623672
4.71224e-07
0.000623674
4.49434e-07
0.000623678
4.23739e-07
0.000623681
3.95762e-07
0.000623684
3.6676e-07
0.000623688
3.37682e-07
0.000623691
3.09219e-07
0.000623695
2.81858e-07
0.000623698
2.5592e-07
0.000623701
2.31603e-07
0.000623704
2.09006e-07
1.88159e-07
0.000623706
0.00064097
1.14279e-07
0.000640969
2.63517e-07
0.000640967
3.65157e-07
0.000640966
4.31345e-07
0.000640966
4.70722e-07
0.000640966
4.89669e-07
0.000640967
4.93125e-07
0.000640969
4.8503e-07
0.000640972
4.68563e-07
0.000640975
4.46294e-07
0.000640979
4.20272e-07
0.000640982
3.92108e-07
0.000640986
3.63037e-07
0.00064099
3.33985e-07
0.000640993
3.05621e-07
0.000640997
2.78411e-07
0.000641
2.52661e-07
0.000641003
2.28551e-07
0.000641006
2.06173e-07
1.85547e-07
0.000641009
0.000658745
1.14767e-07
0.000658744
2.64458e-07
0.000658743
3.66041e-07
0.000658743
4.31773e-07
0.000658743
4.70446e-07
0.000658744
4.88587e-07
0.000658746
4.91252e-07
0.000658749
4.82458e-07
0.000658752
4.6543e-07
0.000658756
4.42752e-07
0.000658759
4.1647e-07
0.000658763
3.88178e-07
0.000658767
3.5909e-07
0.000658771
3.30108e-07
0.000658775
3.01879e-07
0.000658778
2.74849e-07
0.000658782
2.49309e-07
0.000658785
2.25426e-07
0.000658788
2.03282e-07
1.82889e-07
0.00065879
0.000677014
1.15071e-07
0.000677013
2.64985e-07
0.000677013
3.66364e-07
0.000677013
4.31566e-07
0.000677014
4.69517e-07
0.000677016
4.86873e-07
0.000677018
4.88794e-07
0.000677021
4.79365e-07
0.000677025
4.61845e-07
0.000677029
4.38827e-07
0.000677033
4.12349e-07
0.000677037
3.83986e-07
0.000677041
3.5493e-07
0.000677045
3.26059e-07
0.000677049
2.97998e-07
0.000677053
2.71177e-07
0.000677056
2.45869e-07
0.000677059
2.22231e-07
0.000677062
2.00334e-07
1.80186e-07
0.000677065
0.000695788
1.15196e-07
0.000695788
2.65102e-07
0.000695789
3.66138e-07
0.000695789
4.3074e-07
0.000695791
4.67952e-07
0.000695793
4.84548e-07
0.000695796
4.85775e-07
0.0006958
4.75774e-07
0.000695804
4.5783e-07
0.000695808
4.34539e-07
0.000695813
4.07927e-07
0.000695817
3.79547e-07
0.000695821
3.50569e-07
0.000695826
3.21847e-07
0.00069583
2.93987e-07
0.000695833
2.67399e-07
0.000695837
2.42344e-07
0.00069584
2.18968e-07
0.000695843
1.97333e-07
1.77439e-07
0.000695846
0.000715084
1.15141e-07
0.000715084
2.64815e-07
0.000715085
3.65373e-07
0.000715086
4.29312e-07
0.000715089
4.65774e-07
0.000715092
4.81636e-07
0.000715095
4.8222e-07
0.000715099
4.7171e-07
0.000715104
4.53409e-07
0.000715108
4.29908e-07
0.000715113
4.03219e-07
0.000715118
3.74874e-07
0.000715122
3.46017e-07
0.000715126
3.1748e-07
0.000715131
2.89851e-07
0.000715134
2.63522e-07
0.000715138
2.3874e-07
0.000715141
2.15641e-07
0.000715144
1.9428e-07
1.74652e-07
0.000715147
0.000734915
1.14912e-07
0.000734915
2.64135e-07
0.000734916
3.64085e-07
0.000734918
4.273e-07
0.000734921
4.63006e-07
0.000734925
4.78163e-07
0.000734929
4.78154e-07
0.000734933
4.67196e-07
0.000734938
4.48601e-07
0.000734943
4.24952e-07
0.000734948
3.98242e-07
0.000734953
3.69979e-07
0.000734958
3.41285e-07
0.000734962
3.12969e-07
0.000734966
2.85598e-07
0.00073497
2.5955e-07
0.000734974
2.35059e-07
0.000734977
2.12253e-07
0.000734981
1.91177e-07
1.71824e-07
0.000734983
0.000755295
1.14512e-07
0.000755296
2.63071e-07
0.000755298
3.62289e-07
0.0007553
4.24727e-07
0.000755304
4.59672e-07
0.000755308
4.74154e-07
0.000755312
4.73602e-07
0.000755317
4.62256e-07
0.000755322
4.43428e-07
0.000755328
4.1969e-07
0.000755333
3.93011e-07
0.000755338
3.64877e-07
0.000755343
3.36383e-07
0.000755348
3.0832e-07
0.000755352
2.81234e-07
0.000755356
2.55489e-07
0.00075536
2.31307e-07
0.000755363
2.08806e-07
0.000755366
1.88028e-07
1.68959e-07
0.000755369
0.000776241
1.13947e-07
0.000776242
2.61637e-07
0.000776244
3.60006e-07
0.000776248
4.21615e-07
0.000776251
4.55799e-07
0.000776256
4.69637e-07
0.000776261
4.68591e-07
0.000776266
4.56914e-07
0.000776272
4.37913e-07
0.000776277
4.1414e-07
0.000776283
3.87542e-07
0.000776288
3.59579e-07
0.000776293
3.31323e-07
0.000776298
3.03542e-07
0.000776302
2.76766e-07
0.000776307
2.51344e-07
0.00077631
2.27487e-07
0.000776314
2.05306e-07
0.000776317
1.84835e-07
1.66058e-07
0.00077632
0.000797767
1.13221e-07
0.000797769
2.59846e-07
0.000797772
3.57254e-07
0.000797775
4.17988e-07
0.00079778
4.51412e-07
0.000797785
4.64637e-07
0.00079779
4.63147e-07
0.000797796
4.51195e-07
0.000797802
4.32075e-07
0.000797808
4.0832e-07
0.000797813
3.8185e-07
0.000797819
3.54098e-07
0.000797824
3.26114e-07
0.000797829
2.98643e-07
0.000797834
2.722e-07
0.000797838
2.4712e-07
0.000797842
2.23603e-07
0.000797845
2.01753e-07
0.000797848
1.816e-07
1.63123e-07
0.000797851
0.000819891
1.12343e-07
0.000819893
2.57713e-07
0.000819896
3.54055e-07
0.0008199
4.13874e-07
0.000819905
4.4654e-07
0.000819911
4.59184e-07
0.000819916
4.57295e-07
0.000819922
4.45121e-07
0.000819929
4.25936e-07
0.000819935
4.02248e-07
0.000819941
3.75949e-07
0.000819946
3.48447e-07
0.000819952
3.20766e-07
0.000819957
2.93632e-07
0.000819961
2.67543e-07
0.000819966
2.42822e-07
0.000819969
2.1966e-07
0.000819973
1.98153e-07
0.000819976
1.78327e-07
1.60157e-07
0.000819979
0.000842628
1.11317e-07
0.00084263
2.55255e-07
0.000842634
3.50432e-07
0.000842638
4.09298e-07
0.000842644
4.41211e-07
0.00084265
4.53304e-07
0.000842656
4.51063e-07
0.000842662
4.38716e-07
0.000842669
4.19517e-07
0.000842675
3.95942e-07
0.000842681
3.69856e-07
0.000842687
3.42638e-07
0.000842692
3.15289e-07
0.000842698
2.88517e-07
0.000842702
2.62802e-07
0.000842707
2.38457e-07
0.000842711
2.15662e-07
0.000842714
1.94508e-07
0.000842718
1.75017e-07
1.57161e-07
0.000842721
0.000865995
1.10153e-07
0.000865998
2.52489e-07
0.000866002
3.4641e-07
0.000866007
4.04288e-07
0.000866013
4.35454e-07
0.000866019
4.47027e-07
0.000866026
4.44475e-07
0.000866032
4.32005e-07
0.000866039
4.12837e-07
0.000866046
3.89419e-07
0.000866052
3.63583e-07
0.000866058
3.36682e-07
0.000866063
3.09693e-07
0.000866069
2.83305e-07
0.000866073
2.57983e-07
0.000866078
2.34028e-07
0.000866082
2.11613e-07
0.000866086
1.90822e-07
0.000866089
1.71674e-07
1.54139e-07
0.000866092
0.000890011
1.08857e-07
0.000890014
2.49433e-07
0.000890018
3.42012e-07
0.000890024
3.98871e-07
0.00089003
4.29297e-07
0.000890037
4.40379e-07
0.000890043
4.37559e-07
0.00089005
4.25009e-07
0.000890057
4.05917e-07
0.000890064
3.82695e-07
0.000890071
3.57145e-07
0.000890077
3.30591e-07
0.000890082
3.03988e-07
0.000890088
2.78005e-07
0.000890092
2.53093e-07
0.000890097
2.29542e-07
0.000890101
2.07517e-07
0.000890105
1.87099e-07
0.000890108
1.683e-07
1.51091e-07
0.000890111
0.000914692
1.07439e-07
0.000914696
2.46105e-07
0.0009147
3.37263e-07
0.000914706
3.93076e-07
0.000914713
4.22769e-07
0.00091472
4.3339e-07
0.000914727
4.30339e-07
0.000914734
4.17751e-07
0.000914741
3.98776e-07
0.000914748
3.75788e-07
0.000914755
3.50557e-07
0.000914761
3.24378e-07
0.000914767
2.98183e-07
0.000914772
2.72624e-07
0.000914777
2.48137e-07
0.000914782
2.25003e-07
0.000914786
2.03379e-07
0.00091479
1.83341e-07
0.000914793
1.64899e-07
1.48022e-07
0.000914796
0.000940058
1.05906e-07
0.000940062
2.42525e-07
0.000940067
3.32189e-07
0.000940073
3.86932e-07
0.00094008
4.159e-07
0.000940087
4.26085e-07
0.000940095
4.2284e-07
0.000940102
4.10255e-07
0.00094011
3.91434e-07
0.000940117
3.68714e-07
0.000940123
3.43831e-07
0.00094013
3.18053e-07
0.000940136
2.92288e-07
0.000940141
2.6717e-07
0.000940146
2.43123e-07
0.000940151
2.20417e-07
0.000940155
1.99203e-07
0.000940159
1.79553e-07
0.000940162
1.61473e-07
1.44932e-07
0.000940165
0.000966128
1.04266e-07
0.000966132
2.38711e-07
0.000966137
3.26814e-07
0.000966143
3.80466e-07
0.000966151
4.08717e-07
0.000966158
4.18493e-07
0.000966166
4.15088e-07
0.000966174
4.0254e-07
0.000966181
3.83909e-07
0.000966188
3.61489e-07
0.000966195
3.36982e-07
0.000966202
3.11627e-07
0.000966208
2.86312e-07
0.000966213
2.61651e-07
0.000966218
2.38057e-07
0.000966223
2.15789e-07
0.000966227
1.94994e-07
0.000966231
1.75737e-07
0.000966234
1.58026e-07
1.41825e-07
0.000966237
0.00099292
1.02529e-07
0.000992924
2.34683e-07
0.00099293
3.21165e-07
0.000992936
3.73706e-07
0.000992944
4.01249e-07
0.000992952
4.10639e-07
0.00099296
4.07106e-07
0.000992968
3.94629e-07
0.000992975
3.76219e-07
0.000992983
3.54128e-07
0.00099299
3.30022e-07
0.000992996
3.05112e-07
0.000993002
2.80263e-07
0.000993008
2.56074e-07
0.000993013
2.32944e-07
0.000993018
2.11124e-07
0.000993022
1.90755e-07
0.000993026
1.71899e-07
0.000993029
1.5456e-07
1.38704e-07
0.000993032
0.00102046
1.00703e-07
0.00102046
2.30459e-07
0.00102047
3.15266e-07
0.00102047
3.66679e-07
0.00102048