/*--------------------------------*- C++ -*----------------------------------*\
| =========                 |                                                 |
| \\      /  F ield         | OpenFOAM: The Open Source CFD Toolbox           |
|  \\    /   O peration     | Version:  2.4.0                                 |
|   \\  /    A nd           | Web:      www.OpenFOAM.org                      |
|    \\/     M anipulation  |                                                 |
\*---------------------------------------------------------------------------*/
FoamFile
{
    version     2.0;
    format      ascii;
    class       volScalarField;
    location    "5.69";
    object      epsilon;
}
// * * * * * * * * * * * * * * * * * * * * * * * * * * * * * * * * * * * * * //

dimensions      [0 2 -3 0 0 0 0];

internalField   nonuniform List<scalar> 
6000
(
54.173
1.09754
0.0202943
0.134473
0.072542
0.0863284
0.0616101
0.057569
0.0461181
0.0419478
0.0365241
0.0342687
0.0322739
0.0319893
0.0323385
0.0338307
0.0360661
0.0392615
0.0432889
0.0482652
0.0541658
0.0610476
0.0688913
0.0776835
0.0873497
0.0977961
0.108883
0.120421
0.132148
0.14373
0.154755
0.164735
0.173123
0.179298
0.182632
0.182534
0.17852
0.170239
0.157678
0.141124
0.121592
0.100424
0.0797649
0.0743763
0.114149
0.172746
0.253845
0.371978
0.524707
0.750918
1.01485
1.44529
1.86396
2.73784
3.31214
5.34732
5.79636
11.522
10.4612
29.1732
17.723
0.975449
0.0253716
0.0742152
0.0418196
0.0473862
0.0343752
0.0316266
0.0254968
0.0230165
0.0200567
0.0186995
0.0175425
0.0172473
0.0172932
0.0178971
0.0188607
0.0202654
0.02204
0.0242209
0.0267843
0.0297412
0.0330724
0.0367627
0.0407758
0.0450715
0.0495961
0.054281
0.0590353
0.0637463
0.068276
0.0724634
0.0761251
0.0790454
0.0810117
0.0818014
0.0812144
0.0790721
0.0752858
0.0698418
0.062976
0.0550544
0.0468966
0.0456443
0.0650312
0.0919347
0.127276
0.176146
0.237309
0.324192
0.424815
0.581923
0.739451
1.04598
1.2714
1.95861
2.1963
4.05629
3.97454
9.81334
7.13599
0.711146
0.0303089
0.0435398
0.0252873
0.0273076
0.0200759
0.0182049
0.0147637
0.0132457
0.0115677
0.0107457
0.0100746
0.00986707
0.00986123
0.0101532
0.0106424
0.0113613
0.0122725
0.0133886
0.0146954
0.0161949
0.0178762
0.0197308
0.021742
0.0238928
0.0261617
0.028522
0.0309388
0.033369
0.03576
0.0380498
0.0401646
0.0420206
0.0435272
0.0445804
0.0450793
0.0449195
0.04402
0.0423184
0.0398535
0.0367281
0.0333277
0.0336447
0.0448429
0.0596767
0.0782438
0.102526
0.131799
0.171254
0.216318
0.282878
0.351395
0.47439
0.574949
0.837653
0.965374
1.64391
1.72781
3.75934
3.42004
0.518232
0.0345372
0.0274533
0.0160616
0.0164817
0.0122303
0.0109342
0.00891527
0.00796192
0.00698143
0.00648391
0.0061009
0.00598427
0.00599744
0.00618468
0.00649391
0.00693927
0.00750174
0.00818665
0.00898707
0.00990348
0.0109305
0.0120638
0.0132953
0.0146172
0.0160197
0.0174905
0.0190135
0.0205692
0.0221331
0.0236765
0.0251625
0.0265597
0.0278159
0.0288782
0.0296919
0.0301975
0.0303419
0.0300764
0.029398
0.0283318
0.0270843
0.0280814
0.035389
0.0447666
0.0561106
0.0703032
0.086957
0.108319
0.132452
0.165914
0.201161
0.258744
0.310488
0.425386
0.498124
0.776662
0.864126
1.64931
1.89782
0.395524
0.0386516
0.0190393
0.0107889
0.0104256
0.00776349
0.00683819
0.00560119
0.00498778
0.00440195
0.00410488
0.00389643
0.00385165
0.00389671
0.00405285
0.00429266
0.00462321
0.00503515
0.00553158
0.00610949
0.00676928
0.00750828
0.00832398
0.00921204
0.0101681
0.0111868
0.0122616
0.0133841
0.0145441
0.0157293
0.0169251
0.0181142
0.0192837
0.020403
0.0214442
0.0223771
0.0231675
0.0237809
0.0241823
0.0243571
0.0242999
0.024134
0.0254354
0.030679
0.0372365
0.0449623
0.0542914
0.0650593
0.0783434
0.093348
0.11301
0.134319
0.165954
0.197016
0.25534
0.30122
0.43139
0.499355
0.839581
1.19136
0.318419
0.0429773
0.0149622
0.00776919
0.00694142
0.00514263
0.00445274
0.00365935
0.00325493
0.00289978
0.00272854
0.00262758
0.00263409
0.00270664
0.00285603
0.00306776
0.00334617
0.00368709
0.00409292
0.00456269
0.00509695
0.00569435
0.0063534
0.0070716
0.00784652
0.00867538
0.00955486
0.0104809
0.0114485
0.0124521
0.013484
0.0145396
0.0156096
0.0166763
0.0177234
0.0187321
0.0196801
0.0205427
0.0212932
0.0219151
0.0223925
0.0228069
0.0242446
0.028296
0.033248
0.0389519
0.0456288
0.0532325
0.0623175
0.0726207
0.0855324
0.0999808
0.119759
0.14088
0.174887
0.20708
0.276509
0.328279
0.49421
0.829185
0.268834
0.0475679
0.0135344
0.00612362
0.0049079
0.00357117
0.0030257
0.00248938
0.00221513
0.00199821
0.00190672
0.00187253
0.00191367
0.00200606
0.00215572
0.00235528
0.00260808
0.00291283
0.00327179
0.00368517
0.00415379
0.00467721
0.00525482
0.00588552
0.00656842
0.00730265
0.00808713
0.00892047
0.00980092
0.0107261
0.0116923
0.0126993
0.0137388
0.0147994
0.0158701
0.0169373
0.0179848
0.0189937
0.0199432
0.0208191
0.0216013
0.0223493
0.0238463
0.0271543
0.0311141
0.0355869
0.0406807
0.0464043
0.0530516
0.0606028
0.0697313
0.0802221
0.0937206
0.10919
0.131235
0.1555
0.197049
0.237737
0.32728
0.62842
0.235882
0.0523314
0.0138409
0.00540447
0.00373728
0.00262131
0.00215603
0.00176916
0.00157591
0.00144305
0.00140222
0.00140972
0.00147365
0.00157963
0.00173156
0.00192615
0.00216646
0.00245289
0.00278782
0.00317229
0.00360751
0.00409387
0.00463164
0.00522085
0.00586182
0.00655497
0.00730063
0.00809885
0.00894938
0.00985131
0.0108031
0.0118039
0.0128468
0.0139237
0.0150258
0.0161423
0.0172606
0.0183655
0.0194408
0.0204758
0.0214443
0.0223982
0.0239173
0.02673
0.0300311
0.0336969
0.0377726
0.0422912
0.0474078
0.0532074
0.0600098
0.0679661
0.0777347
0.0895273
0.104895
0.12383
0.151003
0.183628
0.235841
0.510221
0.213249
0.0571121
0.015358
0.00536408
0.00311895
0.00205844
0.00162371
0.00132051
0.00117624
0.00109449
0.0010857
0.00111946
0.00119861
0.00131434
0.00146962
0.0016636
0.00189934
0.00217834
0.00250319
0.00287562
0.00329731
0.00376939
0.00429286
0.0048686
0.0054977
0.00618135
0.00692057
0.00771608
0.00856822
0.00947661
0.0104402
0.011457
0.0125212
0.0136262
0.0147643
0.0159264
0.017102
0.0182784
0.0194428
0.0205864
0.021676
0.0227649
0.0242867
0.0267508
0.0295874
0.0326896
0.0360671
0.039763
0.0438552
0.0484706
0.0537468
0.0599785
0.0673574
0.0765819
0.0878556
0.102878
0.121853
0.14817
0.180508
0.437372
0.197245
0.0617392
0.0177433
0.00586895
0.0028935
0.00175371
0.00130603
0.00104281
0.00092537
0.000873851
0.000885085
0.000935751
0.00102567
0.00114929
0.00130916
0.00150588
0.00174265
0.00202171
0.00234597
0.00271772
0.0031391
0.00361183
0.00413746
0.00471742
0.00535324
0.00604649
0.0067985
0.00761021
0.00848215
0.00941407
0.0104041
0.0114497
0.0125458
0.0136864
0.0148642
0.0160711
0.0172979
0.0185333
0.0197672
0.0209888
0.0221624
0.0233435
0.0248569
0.0270638
0.0295559
0.0322432
0.0351149
0.0382177
0.0415856
0.045359
0.0495794
0.0545869
0.0603495
0.0677193
0.0763158
0.0883863
0.102311
0.123601
0.144694
0.390904
0.185658
0.0660585
0.020742
0.00683964
0.00298502
0.0016387
0.00113474
0.000878823
0.000771559
0.000736297
0.000759617
0.000821527
0.000919816
0.00105074
0.00121659
0.00141888
0.00166097
0.00194566
0.00227618
0.00265528
0.00308553
0.00356907
0.00410785
0.00470361
0.0053581
0.00607307
0.00684996
0.00768969
0.0085928
0.0095587
0.0105843
0.0116671
0.0128021
0.0139835
0.0152042
0.0164561
0.0177312
0.0190189
0.0203109
0.0215886
0.0228244
0.0240695
0.0255677
0.0275771
0.0298029
0.0321705
0.0346582
0.0373129
0.0401434
0.0432913
0.0467464
0.0508528
0.0554725
0.0614712
0.0682313
0.0780627
0.0886928
0.106025
0.120457
0.360498
0.177122
0.0699522
0.0241414
0.00822649
0.00335362
0.0016813
0.00107325
0.000796484
0.000685355
0.00065615
0.000686007
0.000755643
0.000861074
0.000999396
0.00117267
0.00138296
0.00163382
0.00192842
0.00227034
0.00266271
0.00310844
0.00360999
0.00416957
0.0047891
0.00547041
0.0062153
0.00702521
0.00790094
0.00884297
0.0098496
0.0109171
0.0120428
0.0132217
0.0144477
0.0157135
0.0170111
0.0183328
0.0196686
0.0210091
0.0223287
0.0236119
0.0249014
0.0263794
0.0282317
0.030244
0.0323558
0.0345398
0.0368421
0.0392569
0.0419216
0.0447986
0.0482192
0.0519975
0.0569597
0.0624083
0.0705331
0.0789127
0.0931751
0.103495
0.340228
0.170763
0.0733485
0.027751
0.00998355
0.00397935
0.00187312
0.00110424
0.000778769
0.000650416
0.000618864
0.000650936
0.000725907
0.000837852
0.000983985
0.00116608
0.00138648
0.0016489
0.00195685
0.00231418
0.00272435
0.00319054
0.00371545
0.00430145
0.00495055
0.00566456
0.00644528
0.00729406
0.00821153
0.0091981
0.0102501
0.011364
0.0125366
0.0137628
0.015036
0.0163485
0.017692
0.0190591
0.0204398
0.0218184
0.0231718
0.0244911
0.0258101
0.0272641
0.0289873
0.0308228
0.0327231
0.0346587
0.036674
0.0387552
0.0410335
0.0434574
0.0463396
0.0494758
0.0536361
0.0581138
0.0649249
0.0717045
0.0836004
0.0912739
0.326536
0.166004
0.0762222
0.031399
0.0120571
0.00485455
0.00221447
0.00122307
0.000818168
0.00065841
0.000616565
0.000646954
0.000725355
0.000843425
0.000997875
0.00119006
0.00142241
0.00169879
0.00202292
0.00239892
0.00283051
0.00332108
0.00387352
0.00449028
0.00517339
0.00592457
0.00674559
0.00763767
0.00860117
0.00963613
0.0107369
0.0119004
0.0131229
0.0143987
0.0157207
0.0170807
0.0184698
0.019881
0.021302
0.0227104
0.0240914
0.0254376
0.0267746
0.0282013
0.0298146
0.0314999
0.0332202
0.0349461
0.0367206
0.0385255
0.0404853
0.0425422
0.0449898
0.0476196
0.051145
0.0548798
0.0606655
0.0662662
0.0763331
0.08223
0.317206
0.162446
0.0785877
0.0349355
0.0143802
0.00597404
0.00270875
0.00143454
0.000913726
0.000706232
0.000645614
0.000670268
0.000750254
0.000874073
0.00103732
0.00124075
0.00148669
0.0017791
0.00212184
0.00251924
0.00297526
0.00349344
0.00407678
0.00472779
0.00544845
0.00624032
0.00710511
0.00804392
0.00905677
0.0101428
0.0112949
0.0125103
0.0137845
0.0151113
0.0164829
0.0178904
0.0193243
0.0207779
0.0222314
0.0236649
0.0250681
0.0264331
0.0277784
0.0291746
0.0306918
0.0322457
0.033809
0.0353534
0.0369204
0.03849
0.0401803
0.0419315
0.0440189
0.0462377
0.0492489
0.0523984
0.0573701
0.0620739
0.0707136
0.0753667
0.310816
0.159806
0.0804886
0.0382391
0.0168716
0.00732622
0.00336252
0.00174766
0.00106963
0.000794575
0.000705315
0.000719553
0.00079903
0.000928079
0.00110051
0.0013162
0.00157719
0.00188748
0.00225095
0.00267215
0.00315517
0.00370369
0.00432076
0.00500889
0.00576998
0.00660539
0.00751672
0.00850495
0.00956971
0.0107085
0.0119137
0.0131824
0.0145093
0.0158877
0.0173088
0.0187632
0.0202405
0.0217321
0.0232118
0.0246665
0.0260864
0.0274629
0.0288081
0.0301707
0.0316012
0.0330376
0.0344608
0.0358442
0.0372284
0.0385927
0.0400497
0.0415398
0.043322
0.0451986
0.0477843
0.0504603
0.0547743
0.0587756
0.0662864
0.0700334
0.306431
0.157877
0.0819868
0.0412221
0.0194402
0.00888825
0.0041838
0.00217046
0.00129469
0.000927278
0.000797275
0.000795336
0.000871691
0.00100518
0.001187
0.00141585
0.0016932
0.00202302
0.00240914
0.00285623
0.00336851
0.00394972
0.00460293
0.00533059
0.0061345
0.00701573
0.00797582
0.00901556
0.0101343
0.0113267
0.0125861
0.0139087
0.0152887
0.0167183
0.0181884
0.0196882
0.0212069
0.0227282
0.0242308
0.0257027
0.0271338
0.0285148
0.0298524
0.031178
0.0325282
0.0338572
0.0351527
0.0363906
0.0376105
0.0387921
0.0400431
0.0413054
0.0428237
0.044409
0.0466358
0.0489195
0.0526927
0.0561296
0.062733
0.0657957
0.303426
0.156498
0.0831521
0.0438316
0.0219913
0.0106234
0.0051757
0.00271226
0.00159953
0.00111113
0.000925145
0.000899705
0.000969529
0.00110624
0.00129743
0.00154016
0.00183504
0.00218591
0.0025964
0.00307127
0.00361481
0.00423076
0.00492216
0.00569139
0.00654009
0.00746899
0.00847953
0.00957238
0.0107461
0.0119928
0.0133068
0.0146834
0.016116
0.017596
0.0191134
0.0206567
0.0222104
0.0237568
0.0252785
0.0267628
0.0281995
0.0295784
0.0309011
0.0321863
0.0334602
0.0346891
0.0358662
0.0369701
0.0380398
0.0390561
0.0401219
0.0411819
0.0424682
0.0438005
0.0457194
0.0476715
0.0509921
0.0539652
0.059827
0.0623562
0.301375
0.155549
0.0840543
0.046048
0.0244353
0.0124811
0.00633297
0.00338317
0.00199305
0.00135597
0.00109459
0.00103621
0.00109498
0.00123314
0.00143336
0.0016905
0.00200391
0.0023772
0.0028136
0.00331795
0.0038945
0.00454698
0.00527835
0.00609082
0.00698591
0.00796391
0.00902619
0.0101733
0.0114021
0.0127034
0.0140719
0.0155018
0.0169858
0.0185147
0.0200774
0.0216594
0.0232416
0.0248094
0.0263458
0.0278375
0.029274
0.0306439
0.0319452
0.0331863
0.0343861
0.0355198
0.0365853
0.0375641
0.0384946
0.0393588
0.0402561
0.0411337
0.0422129
0.0433222
0.0449724
0.0466393
0.0495752
0.0521597
0.0574052
0.0595073
0.299986
0.154931
0.0847574
0.0478796
0.0266957
0.0143993
0.00763931
0.00418956
0.00248545
0.00167158
0.00131342
0.00120986
0.00125158
0.00138865
0.00159714
0.00186899
0.00220174
0.00259865
0.00306236
0.00359767
0.0042088
0.00489935
0.00567214
0.00652925
0.00747196
0.00850012
0.00961499
0.0108171
0.0121006
0.0134562
0.0148784
0.0163603
0.0178941
0.0194695
0.0210736
0.0226869
0.0242937
0.0258786
0.0274249
0.0289185
0.0303485
0.0317028
0.0329759
0.0341691
0.0352955
0.0363373
0.0372964
0.0381567
0.0389565
0.0396794
0.0404213
0.0411324
0.0420244
0.0429344
0.0443474
0.0457652
0.0483691
0.0506226
0.0553476
0.0571003
0.299055
0.154568
0.0853167
0.0493561
0.0287148
0.0163096
0.00906598
0.00513149
0.00308653
0.00206674
0.00159144
0.00142727
0.00144399
0.00157642
0.00179188
0.00207842
0.00243113
0.00285269
0.00334491
0.00391251
0.00455952
0.00528943
0.00610486
0.00700763
0.00799888
0.00907787
0.0102458
0.0115032
0.0128403
0.0142494
0.0157238
0.017256
0.0188371
0.0204556
0.0220932
0.0237337
0.0253606
0.0269577
0.0285083
0.0299978
0.0314149
0.0327467
0.0339853
0.0351262
0.0361789
0.0371308
0.0379868
0.0387338
0.0394097
0.0399999
0.0405972
0.0411549
0.0418763
0.0426062
0.0438071
0.0450049
0.0473187
0.0492862
0.0535652
0.0550271
0.298442
0.154397
0.0857773
0.0505208
0.0304572
0.0181436
0.0105721
0.00620026
0.00380279
0.00255149
0.00193734
0.00169672
0.00167808
0.00180101
0.00202142
0.00232228
0.00269527
0.00314234
0.00366407
0.00426504
0.00494905
0.00571935
0.00657829
0.00752744
0.00856778
0.00969788
0.0109189
0.0122314
0.0136205
0.0150816
0.0166064
0.0181861
0.019811
0.0214648
0.0231317
0.0247946
0.0264364
0.0280401
0.0295889
0.0310679
0.0324652
0.0337676
0.0349651
0.0360493
0.0370272
0.0378899
0.0386454
0.0392829
0.0398404
0.040305
0.0407669
0.0411822
0.0417466
0.0423127
0.0433224
0.0443237
0.0463809
0.0480987
0.0519903
0.0532073
0.298046
0.154368
0.0861738
0.051424
0.0319098
0.0198395
0.0121073
0.00737673
0.00463529
0.00313424
0.00236022
0.00202693
0.00196097
0.00206785
0.00229032
0.00260464
0.00299795
0.00347112
0.00402315
0.00465837
0.00538021
0.00619163
0.00709467
0.00809057
0.00918016
0.0103613
0.0116349
0.0130009
0.0144406
0.0159518
0.0175242
0.0191473
0.0208089
0.0224935
0.0241847
0.0258645
0.0275153
0.0291193
0.0306598
0.0321213
0.0334918
0.0347577
0.0359075
0.0369303
0.0378313
0.0386049
0.0392614
0.0397925
0.0402361
0.0405811
0.0409154
0.0411978
0.0416172
0.0420331
0.0428692
0.043694
0.0455223
0.0470199
0.0505711
0.0515802
0.2978
0.154442
0.0865316
0.0521175
0.0330793
0.0213478
0.0136153
0.00863081
0.00557754
0.00382005
0.0028687
0.00242632
0.00230085
0.00238331
0.00260382
0.00293014
0.00334343
0.00384306
0.00442591
0.00509599
0.00585622
0.0067092
0.00765658
0.00869919
0.0098378
0.0110694
0.0123949
0.0138122
0.0153003
0.0168589
0.0184735
0.0201342
0.0218277
0.023538
0.0252477
0.0269384
0.0285916
0.0301892
0.0317141
0.0331508
0.0344871
0.0357091
0.0368045
0.037761
0.0385827
0.0392665
0.0398249
0.0402518
0.0405854
0.0408161
0.0410297
0.0411878
0.0414725
0.0417505
0.0424283
0.0430936
0.0447159
0.0460182
0.0492673
0.0500992
0.297654
0.154587
0.0868678
0.0526497
0.0339882
0.0226355
0.0150402
0.0099225
0.00661385
0.00460877
0.0034692
0.00290285
0.00270561
0.00275489
0.00296775
0.00330386
0.00373637
0.00426252
0.00487646
0.00558173
0.00638061
0.00727525
0.00826681
0.0093557
0.0105427
0.0118237
0.0132
0.0146656
0.0161989
0.0177986
0.0194509
0.0211442
0.0228643
0.0245944
0.0263163
0.028011
0.0296595
0.0312431
0.0327448
0.0341489
0.0354432
0.0366139
0.0376484
0.0385334
0.0392728
0.0398656
0.0403262
0.0406509
0.0408777
0.040999
0.0410981
0.0411397
0.0412993
0.0414504
0.0419831
0.042504
0.0439401
0.0450684
0.0480471
0.0487281
0.297576
0.154779
0.0871932
0.0530639
0.0346699
0.0236872
0.0163313
0.0112047
0.00771859
0.00549311
0.00416441
0.00346296
0.0031823
0.00318965
0.0033894
0.00373119
0.0041817
0.0047341
0.00537912
0.00611962
0.00695708
0.0078931
0.00892832
0.0100626
0.0112968
0.0126259
0.0140505
0.0155585
0.0171328
0.0187694
0.0204543
0.0221747
0.0239152
0.0256585
0.0273855
0.0290768
0.0307128
0.0322745
0.0337448
0.0351082
0.0363525
0.0374642
0.0384309
0.0392392
0.0398931
0.0403934
0.0407563
0.0409802
0.0411032
0.0411195
0.0411102
0.0410425
0.041086
0.0411203
0.0415202
0.0419102
0.043177
0.0441501
0.0468852
0.0474383
0.297541
0.155
0.0875136
0.0533957
0.0351634
0.0245047
0.0174488
0.0124273
0.00885677
0.00645725
0.00495145
0.00411015
0.00373657
0.00369339
0.00387435
0.0042187
0.00468547
0.0052624
0.00593821
0.00671371
0.00758935
0.00856612
0.00964402
0.0108223
0.0121008
0.0134751
0.0149438
0.0164904
0.0181012
0.0197696
0.0214813
0.0232224
0.0249766
0.0267258
0.0284503
0.03013
0.031745
0.0332763
0.0347066
0.0360208
0.0372068
0.0382518
0.0391439
0.0398702
0.0404351
0.0408412
0.0411062
0.0412306
0.0412527
0.0411683
0.0410563
0.0408865
0.0408221
0.0407494
0.0410278
0.0412993
0.0424122
0.0432467
0.0457615
0.0462071
0.297533
0.155235
0.0878311
0.0536738
0.035509
0.0251042
0.0183669
0.0135422
0.00998611
0.00747616
0.00582028
0.00484343
0.00437159
0.00427052
0.00442708
0.00477061
0.00525187
0.00585241
0.00655824
0.00736788
0.00828061
0.00929666
0.0104154
0.0116353
0.0129553
0.0143719
0.0158797
0.0174605
0.0191024
0.0207967
0.0225289
0.0242838
0.0260442
0.0277912
0.0295048
0.0311642
0.0327494
0.0342411
0.0356225
0.0368785
0.0379978
0.0389683
0.0397789
0.040418
0.0408902
0.0412003
0.0413671
0.0413935
0.0413175
0.0411366
0.0409277
0.0406627
0.0404988
0.0403283
0.0404959
0.0406607
0.0416336
0.0423447
0.0446595
0.0450162
0.297542
0.155474
0.0881457
0.0539194
0.035745
0.0255126
0.0190754
0.0145087
0.0110605
0.0085161
0.00675255
0.00565573
0.00508657
0.004923
0.00505038
0.00538988
0.00588386
0.00650704
0.00724203
0.00808479
0.00903322
0.0100867
0.0112439
0.0125027
0.0138611
0.0153164
0.0168574
0.0184673
0.0201343
0.0218481
0.0235936
0.0253544
0.0271128
0.0288491
0.0305427
0.0321725
0.0337184
0.0351611
0.0364841
0.0376729
0.0387169
0.039605
0.0403275
0.040874
0.0412501
0.0414623
0.0415309
0.0414605
0.0412894
0.0410165
0.0407164
0.0403631
0.040108
0.039849
0.039916
0.0399854
0.040831
0.041433
0.043566
0.043851
0.29756
0.155711
0.0884561
0.0541475
0.0359052
0.025763
0.0195791
0.0152971
0.0120346
0.0095366
0.0077212
0.00653256
0.00587536
0.00564907
0.00574441
0.00607742
0.00658273
0.00722778
0.00799117
0.00886598
0.00984857
0.0109374
0.0121304
0.0134247
0.0148177
0.0163074
0.0178755
0.0195084
0.0211939
0.0229199
0.0246707
0.0264293
0.0281767
0.029893
0.0315569
0.0331473
0.0346439
0.0360277
0.0372826
0.038395
0.0393551
0.0401532
0.0407809
0.0412296
0.0415063
0.041619
0.0415892
0.0414238
0.0411606
0.0408003
0.0404149
0.0399807
0.0396425
0.0393043
0.0392808
0.0392657
0.0399961
0.0405024
0.04247
0.0426994
0.297582
0.15594
0.0887603
0.0543678
0.0360179
0.0258908
0.0198956
0.0158918
0.0128686
0.0104937
0.00869132
0.00745124
0.00672508
0.00644197
0.00650554
0.0068311
0.00734721
0.00801393
0.00880534
0.00971134
0.0107266
0.0118485
0.0130742
0.0144004
0.0158239
0.0173416
0.018931
0.0205805
0.022277
0.0240073
0.0257549
0.027502
0.029229
0.0309153
0.0325394
0.03408
0.035517
0.0368317
0.0380088
0.0390354
0.039903
0.0406034
0.0411299
0.0414761
0.0416502
0.041662
0.0415343
0.0412757
0.040924
0.0404812
0.0400167
0.0395091
0.0390962
0.038688
0.038584
0.0384951
0.039122
0.0395454
0.041363
0.0415517
0.297606
0.156158
0.0890563
0.0545862
0.0361052
0.0259306
0.0200517
0.0162918
0.0135327
0.0113442
0.00962228
0.00838106
0.00761525
0.00728869
0.00732519
0.00764479
0.00817256
0.00886175
0.00968155
0.0106184
0.011665
0.0128177
0.0140732
0.0154272
0.0168767
0.0184156
0.0200198
0.0216786
0.0233781
0.0251041
0.0268394
0.0285652
0.0302617
0.0319075
0.0334811
0.0349613
0.036328
0.0375633
0.0386525
0.0395842
0.0403509
0.0409462
0.0413656
0.0416048
0.0416736
0.0415836
0.0413586
0.0410092
0.0405728
0.0400529
0.0395159
0.0389425
0.0384635
0.0379949
0.0378203
0.0376685
0.038203
0.0385558
0.0402377
0.0404
0.297629
0.156365
0.0893421
0.0548054
0.0361832
0.0259133
0.0200794
0.0165093
0.0140098
0.0120504
0.0104711
0.00928464
0.00851762
0.00816913
0.00818879
0.00850722
0.0090496
0.00976354
0.0106133
0.0115814
0.0126587
0.0138405
0.0151226
0.0165004
0.0179713
0.0195239
0.021136
0.0227961
0.0244901
0.0262026
0.0279157
0.0296101
0.0312653
0.0328598
0.034372
0.0357806
0.0370662
0.0382116
0.0392032
0.0400308
0.0406885
0.0411718
0.0414785
0.0416068
0.0415682
0.0413759
0.041055
0.0406176
0.040101
0.0395097
0.0389072
0.0382761
0.03774
0.0372206
0.0369856
0.0367814
0.0372346
0.0375288
0.0390886
0.0392379
0.29765
0.156558
0.0896164
0.0550259
0.0362631
0.0258651
0.0200124
0.0165673
0.0142972
0.0125845
0.0111968
0.0101205
0.00939706
0.00905583
0.00907503
0.00940118
0.00996377
0.0107067
0.0115895
0.0125908
0.0136991
0.0149087
0.0162148
0.0176124
0.0190998
0.0206587
0.0222712
0.0239245
0.0256039
0.0272931
0.0289738
0.0306261
0.0322291
0.0337611
0.0352004
0.0365264
0.0377201
0.0387653
0.0396495
0.0403642
0.0409052
0.0412701
0.0414593
0.0414735
0.041326
0.0410317
0.0406168
0.040095
0.0395031
0.0388468
0.0381863
0.037506
0.0369219
0.0363616
0.0360764
0.0358306
0.0362133
0.0364607
0.0379113
0.0380605
0.297669
0.156739
0.0898783
0.0552472
0.0363516
0.0258063
0.0198829
0.0164959
0.0144059
0.0129312
0.0117649
0.0108469
0.0102136
0.00991466
0.00995573
0.010303
0.0108944
0.0116729
0.0125938
0.0136318
0.0147729
0.0160102
0.0173385
0.0187524
0.0202502
0.0218092
0.0234145
0.0250526
0.026708
0.028364
0.0300017
0.0316009
0.0331403
0.0345984
0.0359536
0.0371858
0.0382769
0.0392117
0.0399793
0.0405728
0.0409901
0.0412311
0.0412987
0.0411963
0.0409392
0.0405441
0.0400379
0.0394361
0.0387746
0.0380601
0.0373495
0.036629
0.0360065
0.0354154
0.0350903
0.0348137
0.0351367
0.0353487
0.0367025
0.0368638
0.297685
0.156907
0.0901271
0.055468
0.0364518
0.025752
0.0197192
0.0163282
0.0143579
0.0130898
0.0121516
0.0114259
0.0109257
0.0107066
0.0107965
0.0111824
0.0118146
0.0126377
0.0136041
0.0146843
0.0158617
0.017128
0.0184778
0.0199054
0.021408
0.0229613
0.024552
0.0261662
0.0277883
0.0294009
0.030985
0.0325199
0.0339846
0.0353573
0.0366172
0.0377447
0.0387228
0.0395376
0.0401799
0.0406448
0.0409321
0.0410445
0.0409873
0.040767
0.0404007
0.0399067
0.039313
0.0386362
0.0379115
0.0371465
0.0363945
0.0356429
0.0349919
0.0343804
0.0340259
0.0337291
0.0340031
0.0341909
0.03546
0.035645
0.297699
0.157063
0.0903628
0.0556866
0.0365648
0.0257121
0.0195445
0.0160971
0.0141831
0.0130729
0.0123466
0.0118286
0.0114943
0.0113906
0.0115583
0.0120036
0.0126912
0.0135703
0.0145916
0.0157217
0.016941
0.0182397
0.0196119
0.0210518
0.0225546
0.0240968
0.0256659
0.0272481
0.0288276
0.0303869
0.0319068
0.0333666
0.0347453
0.0360216
0.0371753
0.0381877
0.0390429
0.0397289
0.0402381
0.0405676
0.0407199
0.0407
0.0405163
0.0401779
0.0397039
0.0391143
0.0384377
0.037692
0.0369114
0.0361041
0.0353195
0.0345468
0.0338773
0.0332559
0.0328825
0.0325763
0.032812
0.0329866
0.0341827
0.0344021
0.297711
0.157208
0.0905857
0.0559018
0.0366898
0.0256924
0.0193765
0.0158323
0.0139152
0.0129046
0.0123538
0.0120376
0.0118873
0.0119274
0.0122006
0.0127271
0.0134863
0.0144342
0.0155215
0.0167113
0.0179803
0.0193167
0.020714
0.0221665
0.0236667
0.0251932
0.0267346
0.0282773
0.0298056
0.0313021
0.0327476
0.0341218
0.0354039
0.0365733
0.0376105
0.0384981
0.0392216
0.0397707
0.04014
0.040329
0.0403424
0.040188
0.0398772
0.0394219
0.038843
0.0381623
0.0374087
0.0366012
0.0357727
0.0349321
0.0341246
0.0333407
0.0326631
0.0320425
0.0316608
0.0313558
0.0315636
0.0317357
0.03287
0.0331342
0.29772
0.157344
0.0907961
0.056112
0.0368249
0.0256952
0.0192277
0.015559
0.0135879
0.0126165
0.0121909
0.0120505
0.0120837
0.0122839
0.0126845
0.0133121
0.0141589
0.0151888
0.0163541
0.0176144
0.0189427
0.0203243
0.0217517
0.0232191
0.0247155
0.0262234
0.0277322
0.0292288
0.0306982
0.0321232
0.0334851
0.034764
0.0359397
0.0369926
0.037904
0.0386581
0.0392422
0.0396478
0.0398719
0.0399163
0.0397885
0.0394992
0.0390623
0.0384929
0.0378136
0.0370475
0.0362239
0.0353627
0.0344953
0.033631
0.0328106
0.032026
0.031351
0.0307417
0.0303623
0.030069
0.0302593
0.0304391
0.0315224
0.0318408
0.297728
0.15747
0.0909948
0.0563164
0.0369679
0.0257207
0.0191056
0.0152965
0.0132322
0.012244
0.0118861
0.0118792
0.0120766
0.0124376
0.0129772
0.0137206
0.0146681
0.0157916
0.017046
0.018388
0.0197861
0.0212221
0.0226866
0.0241734
0.0256672
0.0271554
0.0286283
0.0300739
0.031478
0.0328241
0.0340942
0.0352693
0.03633
0.0372578
0.0380356
0.038649
0.0390873
0.0393445
0.0394197
0.0393175
0.0390482
0.0386252
0.0380653
0.0373863
0.0366125
0.0357683
0.0348832
0.0339776
0.0330811
0.0322032
0.0313805
0.0306058
0.0299439
0.0293565
0.0289898
0.0287184
0.0289012
0.0290987
0.0301415
0.0305226
0.297734
0.157588
0.0911826
0.0565143
0.0371165
0.025767
0.0190139
0.0150587
0.0128742
0.011822
0.0114746
0.0115486
0.0118741
0.0123797
0.0130567
0.0139213
0.0149769
0.0162016
0.0175533
0.0189866
0.0204649
0.0219653
0.0234754
0.0249876
0.0264826
0.0279523
0.0293882
0.0307797
0.0321138
0.0333753
0.0345472
0.0356115
0.0365503
0.0373463
0.0379841
0.0384514
0.0387397
0.0388453
0.03877
0.0385214
0.0381122
0.037559
0.0368811
0.0360991
0.0352386
0.0343252
0.0333883
0.0324485
0.0315336
0.030653
0.0298387
0.0290846
0.0284464
0.0278913
0.0275474
0.0273077
0.0274928
0.027717
0.0287293
0.0291808
0.297738
0.157698
0.0913601
0.0567052
0.0372685
0.0258317
0.0189533
0.0148541
0.012534
0.0113824
0.0109939
0.0110929
0.0114988
0.0121167
0.0129144
0.0138939
0.0150561
0.016383
0.0178352
0.0193655
0.0209321
0.0225063
0.0240711
0.0256163
0.0271188
0.0285734
0.0299734
0.03131
0.0325717
0.0337449
0.034814
0.0357627
0.0365745
0.037234
0.0377279
0.0380459
0.038182
0.0381353
0.0379105
0.0375179
0.0369731
0.0362953
0.0355068
0.0346303
0.0336929
0.0327209
0.0317433
0.0307806
0.0298587
0.0289866
0.0281918
0.0274689
0.0268648
0.0263519
0.0260405
0.0258417
0.0260383
0.0262979
0.0272891
0.0278176
0.297742
0.157802
0.0915283
0.0568889
0.037422
0.0259117
0.0189221
0.0146869
0.0122258
0.0109512
0.0104804
0.0105515
0.0109844
0.0116705
0.0125578
0.0136324
0.014889
0.0163099
0.0178581
0.0194849
0.0211435
0.0227981
0.0244259
0.0260123
0.0275298
0.0289749
0.0303425
0.0316258
0.0328152
0.0338989
0.0348632
0.0356938
0.0363762
0.036897
0.0372453
0.0374134
0.037398
0.0372011
0.0368304
0.0362989
0.0356254
0.0348316
0.0339423
0.0329822
0.0319795
0.0309611
0.0299551
0.0289819
0.028065
0.027213
0.0264486
0.0257673
0.0252071
0.0247458
0.0244761
0.0243265
0.0245433
0.0248458
0.0258247
0.0264357
0.297744
0.157901
0.091688
0.0570656
0.0375754
0.0260039
0.0189177
0.0145579
0.0119581
0.0105482
0.0099654
0.00996404
0.0103719
0.0110755
0.0120102
0.0131476
0.014474
0.0159702
0.0176001
0.0193144
0.0210615
0.0227981
0.024494
0.0261291
0.0276696
0.0291121
0.030453
0.0316869
0.0328066
0.0338023
0.0346627
0.0353755
0.0359288
0.0363116
0.0365158
0.0365364
0.0363732
0.0360313
0.0355212
0.0348594
0.0340669
0.0331684
0.0321905
0.0311601
0.0301057
0.0290547
0.028034
0.0270635
0.026164
0.0253436
0.0246204
0.0239905
0.0234837
0.0230822
0.0228625
0.0227698
0.0230144
0.0233666
0.024341
0.0250389
0.297746
0.157994
0.09184
0.0572353
0.0377274
0.0261053
0.0189365
0.0144656
0.0117348
0.0101868
0.00947421
0.00936695
0.009704
0.0103747
0.0113083
0.0124665
0.0138273
0.0153687
0.0170553
0.0188378
0.0206606
0.0224731
0.0242368
0.0259244
0.0274947
0.0289422
0.0302632
0.031454
0.0325091
0.0334211
0.0341811
0.0347796
0.0352073
0.0354562
0.0355209
0.0353999
0.035096
0.0346176
0.0339784
0.0331977
0.0322994
0.0313103
0.030259
0.0291736
0.0280833
0.0270149
0.0259942
0.02504
0.0241706
0.0233931
0.0227214
0.0221519
0.0217066
0.0213725
0.0212098
0.0211802
0.0214596
0.0218669
0.0228439
0.0236314
0.297747
0.158082
0.0919851
0.0573985
0.0378772
0.0262134
0.0189747
0.0144066
0.0115562
0.00987423
0.00902474
0.00879021
0.00902132
0.00961415
0.0104982
0.0116299
0.0129817
0.0145288
0.0162367
0.0180569
0.0199316
0.0218041
0.0236271
0.0253649
0.0269689
0.0284276
0.0297361
0.0308911
0.0318888
0.0327239
0.0333903
0.0338811
0.0341901
0.0343124
0.0342461
0.0339929
0.0335592
0.0329564
0.0322018
0.0313174
0.0303295
0.029267
0.02816
0.0270375
0.0259285
0.0248594
0.0238541
0.0229302
0.0221033
0.0213795
0.0207686
0.0202675
0.0198907
0.0196298
0.01953
0.0195683
0.019888
0.0203544
0.0213401
0.0222186
0.297748
0.158167
0.092124
0.0575554
0.038024
0.0263259
0.0190286
0.014377
0.01142
0.00961329
0.00862808
0.00825616
0.00835819
0.00883823
0.00962964
0.0106883
0.0119843
0.0134915
0.0151769
0.0169943
0.0188861
0.0207914
0.0226549
0.0244321
0.026068
0.0275407
0.0288426
0.0299695
0.0309182
0.0316855
0.0322674
0.0326602
0.0328607
0.0328676
0.0326824
0.0323103
0.0317613
0.0310504
0.0301978
0.0292282
0.0281703
0.0270546
0.025912
0.0247722
0.0236634
0.022611
0.0216369
0.0207572
0.0199846
0.0193243
0.0187822
0.0183558
0.018053
0.0178694
0.0178367
0.0179459
0.0183102
0.0188381
0.0198373
0.0208063
0.297749
0.158249
0.0922575
0.0577065
0.0381675
0.0264411
0.0190948
0.0143723
0.0113225
0.00940297
0.00828936
0.00777933
0.00774086
0.00808511
0.00875078
0.00969611
0.0108916
0.0123119
0.0139267
0.0156939
0.0175585
0.0194583
0.0213325
0.0231281
0.0247854
0.0262692
0.0275669
0.0286718
0.0295801
0.0302896
0.0307984
0.0311055
0.031211
0.0311169
0.0308285
0.0303547
0.029709
0.0289098
0.0279803
0.0269477
0.0258425
0.0246962
0.0235405
0.0224047
0.021316
0.0202982
0.0193711
0.0185487
0.0178412
0.0172527
0.0167858
0.0164384
0.0162129
0.0161087
0.0161453
0.0163266
0.016738
0.0173279
0.0183442
0.0194015
0.297749
0.158328
0.0923862
0.0578524
0.0383075
0.0265576
0.0191703
0.0143882
0.0112587
0.00923985
0.00800905
0.00736718
0.00718681
0.00738425
0.00790305
0.00870495
0.00976267
0.0110534
0.0125506
0.0142177