/*--------------------------------*- C++ -*----------------------------------*\
| =========                 |                                                 |
| \\      /  F ield         | OpenFOAM: The Open Source CFD Toolbox           |
|  \\    /   O peration     | Version:  2.4.0                                 |
|   \\  /    A nd           | Web:      www.OpenFOAM.org                      |
|    \\/     M anipulation  |                                                 |
\*---------------------------------------------------------------------------*/
FoamFile
{
    version     2.0;
    format      ascii;
    class       volScalarField;
    location    "0.41";
    object      p;
}
// * * * * * * * * * * * * * * * * * * * * * * * * * * * * * * * * * * * * * //

dimensions      [0 2 -2 0 0 0 0];

internalField   nonuniform List<scalar> 
2320
(
8.85262
8.86739
8.88395
8.89703
8.90827
8.9197
8.93155
8.94326
8.95448
8.96511
8.97508
8.98415
8.99195
8.99799
9.00157
9.00175
8.99715
8.9858
8.96492
8.93054
8.85264
8.86741
8.88397
8.89706
8.90831
8.91975
8.93162
8.94335
8.9546
8.96528
8.97531
8.98446
8.99237
8.99854
9.00232
9.00275
8.99848
8.98754
8.96713
8.93327
8.85268
8.86745
8.88402
8.89712
8.90838
8.91985
8.93175
8.94353
8.95485
8.96561
8.97576
8.98506
8.99319
8.99965
9.00381
9.00474
9.00112
8.99099
8.97155
8.93873
8.85273
8.86751
8.88409
8.8972
8.90849
8.92
8.93195
8.9438
8.9552
8.9661
8.97642
8.98596
8.99439
9.00128
9.00601
9.00768
9.00502
8.99612
8.97814
8.94691
8.8528
8.86758
8.88418
8.89732
8.90864
8.92019
8.9322
8.94414
8.95567
8.96673
8.97727
8.98711
8.99596
9.0034
9.00886
9.01152
9.01014
9.00286
8.98686
8.95781
8.85288
8.86767
8.88428
8.89745
8.90881
8.92042
8.93251
8.94456
8.95623
8.96749
8.9783
8.98851
8.99785
9.00595
9.01231
9.01616
9.01637
9.01111
8.99763
8.97138
8.85298
8.86778
8.8844
8.8976
8.90901
8.92068
8.93286
8.94503
8.95687
8.96836
8.97948
8.99011
9.00002
9.00889
9.01629
9.02153
9.02359
9.02076
9.01036
8.98758
8.85308
8.86789
8.88454
8.89777
8.90922
8.92097
8.93325
8.94556
8.95758
8.96932
8.98079
8.99188
9.00242
9.01215
9.02069
9.02749
9.03167
9.03162
9.02491
9.00631
8.8532
8.86801
8.88468
8.89795
8.90946
8.92128
8.93367
8.94612
8.95834
8.97035
8.98219
8.99378
9.00499
9.01563
9.02543
9.03391
9.04041
9.04349
9.04107
9.02751
8.85331
8.86814
8.88483
8.89814
8.9097
8.9216
8.9341
8.9467
8.95913
8.97142
8.98364
8.99576
9.00768
9.01927
9.03037
9.04062
9.04961
9.05605
9.05853
9.05098
8.85343
8.86827
8.88498
8.89832
8.90995
8.92193
8.93454
8.94729
8.95993
8.97251
8.98512
8.99777
9.01041
9.02297
9.0354
9.04744
9.059
9.06892
9.07698
9.07628
8.85355
8.86839
8.88513
8.89851
8.91019
8.92225
8.93497
8.94788
8.96073
8.97359
8.98659
8.99976
9.01312
9.02665
9.04039
9.05416
9.06832
9.08155
9.09614
9.10256
8.85366
8.86851
8.88527
8.89869
8.91043
8.92256
8.93539
8.94844
8.96149
8.97463
8.98801
9.00169
9.01575
9.03021
9.04523
9.0606
9.07726
9.09315
9.11553
9.12781
8.85377
8.86863
8.88541
8.89886
8.91065
8.92285
8.93578
8.94897
8.96221
8.97561
8.98934
9.00351
9.01824
9.03358
9.04981
9.0666
9.08557
9.10275
9.13403
9.14552
8.85386
8.86873
8.88553
8.89901
8.91085
8.92312
8.93614
8.94945
8.96287
8.97651
8.99056
9.00518
9.02052
9.03668
9.05406
9.07208
9.09313
9.10979
9.15051
9.14359
8.85395
8.86882
8.88563
8.89915
8.91102
8.92335
8.93645
8.94987
8.96344
8.97729
8.99163
9.00665
9.02254
9.03946
9.05789
9.07706
9.10004
9.11474
9.16459
9.11653
8.85402
8.8689
8.88572
8.89926
8.91117
8.92354
8.93671
8.95023
8.96392
8.97794
8.99253
9.00788
9.02424
9.04182
9.06124
9.08162
9.10654
9.11968
9.17596
9.06152
8.85407
8.86895
8.88579
8.89935
8.91128
8.92369
8.93691
8.9505
8.96429
8.97845
8.99322
9.00884
9.02558
9.04371
9.06398
9.08572
9.11279
9.12816
9.18539
9.01799
8.85411
8.86899
8.88584
8.89941
8.91136
8.92379
8.93704
8.95068
8.96454
8.9788
8.9937
9.00949
9.02649
9.04503
9.06594
9.08908
9.11855
9.14178
9.20059
8.98486
8.85413
8.86901
8.88586
8.89944
8.9114
8.92385
8.93711
8.95078
8.96467
8.97897
8.99394
9.00983
9.02696
9.04571
9.06695
9.09108
9.12251
9.15852
9.23079
9.21692
8.87717
8.79744
8.68191
8.51931
8.29707
8.00186
7.62058
7.14236
8.88037
8.80092
8.68529
8.52208
8.29869
8.00162
7.61764
7.13599
8.88678
8.8079
8.69205
8.5276
8.30178
8.00089
7.61162
7.12362
8.89644
8.81843
8.7022
8.53573
8.30621
7.99999
7.60369
7.10687
8.90938
8.83258
8.71566
8.54638
8.3125
8.00025
7.5945
7.08309
8.92567
8.85041
8.73235
8.55995
8.32173
8.00105
7.57769
7.03779
8.94541
8.872
8.75243
8.5772
8.33284
7.9944
7.53568
6.94466
8.96874
8.89737
8.77622
8.59768
8.33863
7.96283
7.44208
6.77676
8.9959
8.9264
8.80387
8.61657
8.32378
7.88229
7.27386
6.52891
9.027
8.95939
8.83401
8.62186
8.26747
7.73294
7.0299
6.22676
9.06167
8.99848
8.86007
8.59609
8.15126
7.51329
6.73622
5.91133
9.09987
9.04448
8.868
8.52224
7.96949
7.24463
6.43122
5.61591
9.14603
9.08639
8.83953
8.38977
7.73541
6.96088
6.14476
5.35185
9.2119
9.10202
8.75547
8.20054
7.47788
6.69373
5.88941
5.10861
9.31098
9.08183
8.60783
7.97116
7.22976
6.46349
5.66918
4.87201
9.45131
9.04041
8.41219
7.7284
7.01398
6.27419
5.4879
4.65489
9.61991
8.98411
8.1923
7.49619
6.83473
6.11085
5.33644
4.4828
9.74505
8.83949
7.9533
7.2857
6.68303
5.9552
5.18772
4.27648
9.67459
8.48674
7.70005
7.10231
6.55804
5.82674
5.0674
3.85168
9.33822
8.00424
7.48097
6.96044
6.48302
5.79113
5.11346
3.47726
6.56074
5.87447
5.08692
4.20395
3.23135
2.17376
1.03626
-0.17197
-1.43365
-2.72052
-3.99276
-5.20088
-6.29006
-7.20571
-7.89974
-8.33655
-8.49763
-8.38325
-8.01529
-7.43145
-6.68305
-5.82813
-4.92497
-4.02793
-3.18552
-2.44295
-1.8474
-1.47855
6.55058
5.86068
5.07016
4.18512
3.21116
2.1523
1.01289
-0.198482
-1.4648
-2.75767
-4.03676
-5.25191
-6.34756
-7.26842
-7.9658
-8.40373
-8.56419
-8.44674
-8.07285
-7.48083
-6.72272
-5.85708
-4.94263
-4.03378
-3.17872
-2.41948
-1.79633
-1.33964
6.53138
5.83482
5.03851
4.14901
3.17156
2.1091
0.964672
-0.254195
-1.53097
-2.83693
-4.13072
-5.36081
-6.47014
-7.40197
-8.10619
-8.54564
-8.7011
-8.57653
-8.18887
-7.57911
-6.80076
-5.91328
-4.97612
-4.04389
-3.16369
-2.37418
-1.70526
-1.1721
6.50403
5.79565
4.98786
4.08864
3.10325
2.03317
0.879356
-0.352574
-1.64701
-2.97474
-4.29274
-5.54729
-6.679
-7.62883
-8.34465
-8.78771
-8.93752
-8.79745
-8.38653
-7.74709
-6.93466
-6.01061
-5.0358
-4.06531
-3.14523
-2.31099
-1.58547
-0.9728
6.46038
5.72912
4.89957
3.98321
2.98581
1.90648
0.742425
-0.504249
-1.81972
-3.17422
-4.52251
-5.80795
-6.96809
-7.9409
-8.6716
-9.11965
-9.2641
-9.10568
-8.66558
-7.98687
-7.12791
-6.15318
-5.12575
-4.10168
-3.12651
-2.23336
-1.44047
-0.745
6.37798
5.60762
4.74652
3.81235
2.8097
1.73129
0.566514
-0.688767
-2.02347
-3.40679
-4.79011
-6.11271
-7.30793
-8.30957
-9.05912
-9.5134
-9.65086
-9.47291
-8.99884
-8.2741
-7.36052
-6.32599
-5.23618
-4.14825
-3.10758
-2.14602
-1.2795
-0.503085
6.2269
5.40747
4.52054
3.58627
2.59991
1.54085
0.386947
-0.873291
-2.23052
-3.65074
-5.07984
-6.45121
-7.69251
-8.73209
-9.50667
-9.96955
-10.0972
-9.89317
-9.37647
-8.5964
-7.61896
-6.5162
-5.3567
-4.19874
-3.08758
-2.05454
-1.11509
-0.265424
5.99314
5.13644
4.24931
3.34303
2.39451
1.36653
0.225458
-1.04596
-2.43728
-3.90819
-5.39663
-6.82868
-8.12556
-9.20987
-10.0136
-10.4871
-10.6046
-10.3694
-9.80274
-8.95734
-7.90488
-6.72352
-5.48598
-4.25217
-3.0676
-1.96362
-0.956326
-0.0443945
5.69623
4.83137
3.97332
3.11559
2.21418
1.21743
0.0827042
-1.21048
-2.64719
-4.17769
-5.73067
-7.22541
-8.57788
-9.70605
-10.538
-11.0216
-11.1313
-10.8672
-10.2515
-9.33876
-8.20705
-6.94204
-5.62183
-4.30874
-3.04947
-1.8765
-0.807559
0.155657
5.37556
4.52884
3.71675
2.91409
2.05896
1.08975
-0.0429307
-1.36092
-2.84263
-4.42871
-6.04079
-7.59363
-8.99891
-10.1697
-11.0291
-11.5221
-11.6231
-11.3339
-10.6729
-9.69757
-8.49194
-7.14867
-5.75061
-4.36224
-3.03201
-1.79468
-0.670841
0.334111
5.06377
4.24408
3.48019
2.73204
1.92354
0.986723
-0.135104
-1.46748
-2.98565
-4.62291
-6.29337
-7.90542
-9.365
-10.5795
-11.4669
-11.9698
-12.062
-11.7466
-11.0407
-10.0056
-8.73197
-7.31959
-5.85458
-4.40176
-3.01043
-1.71758
-0.547306
0.490715
4.77341
3.97256
3.25201
2.56242
1.81367
0.930479
-0.161225
-1.50069
-3.05947
-4.75436
-6.48593
-8.15547
-9.66439
-10.9162
-11.8259
-12.3363
-12.4232
-12.0849
-11.3399
-10.2502
-8.91451
-7.44206
-5.92188
-4.41796
-2.97907
-1.64304
-0.436918
0.625445
4.49705
3.70133
3.02376
2.41144
1.75114
0.949897
-0.107233
-1.46899
-3.08027
-4.83181
-6.61393
-8.32562
-9.86821
-11.1442
-12.067
-12.5806
-12.6639
-12.3128
-11.5419
-10.4119
-9.02773
-7.5085
-5.94642
-4.40551
-2.93365
-1.5683
-0.338274
0.739358
4.20539
3.41255
2.80026
2.30247
1.75991
1.04611
-0.00264308
-1.40279
-3.05981
-4.84882
-6.65898
-8.39255
-9.95361
-11.2445
-12.1756
-12.6918
-12.7732
-12.4145
-11.6294
-10.4763
-9.06342
-7.51565
-5.92716
-4.36361
-2.87282
-1.49154
-0.249451
0.834542
3.85476
3.09058
2.60343
2.26387
1.83762
1.17551
0.111201
-1.31444
-2.9934
-4.79539
-6.61456
-8.3563
-9.92631
-11.2269
-12.1644
-12.6836
-12.7639
-12.4011
-11.6093
-10.4482
-9.0263
-7.46751
-5.86845
-4.29597
-2.79851
-1.41287
-0.169128
0.913317
3.45263
2.7648
2.45927
2.29851
1.93603
1.28909
0.221032
-1.2016
-2.87949
-4.67829
-6.49725
-8.24155
-9.81433
-11.1162
-12.0564
-12.578
-12.6559
-12.2926
-11.502
-10.3463
-8.93181
-7.37729
-5.78056
-4.21019
-2.71572
-1.33472
-0.097247
0.97747
3.13057
2.53774
2.36087
2.36192
1.99614
1.37828
0.329516
-1.06953
-2.72768
-4.51692
-6.3317
-8.07317
-9.64287
-10.9416
-11.8815
-12.4039
-12.4811
-12.1192
-11.3356
-10.194
-8.79764
-7.25992
-5.67594
-4.11588
-2.63122
-1.26092
-0.034887
1.028
2.93291
2.47969
2.28034
2.39246
2.02017
1.44565
0.436029
-0.927195
-2.5609
-4.33833
-6.14827
-7.88661
-9.45225
-10.7468
-11.6854
-12.2086
-12.2881
-11.9294
-11.1553
-10.0311
-8.65625
-7.13895
-5.57154
-4.02546
-2.55395
-1.19722
0.0149888
1.06496
2.35797
2.54021
2.23052
2.37691
2.03871
1.49431
0.528045
-0.799302
-2.40928
-4.17655
-5.98368
-7.72084
-9.28422
-10.5761
-11.5135
-12.0375
-12.1198
-11.7653
-11.0011
-9.89291
-8.53723
-7.03787
-5.48573
-3.95292
-2.49401
-1.15013
0.0493044
1.08778
1.00007
2.63215
2.20406
2.37647
2.05258
1.52225
0.583465
-0.71947
-2.3129
-4.07254
-5.87741
-7.61396
-9.17651
-10.4676
-11.4053
-11.9304
-12.0144
-11.6649
-10.9078
-9.81021
-8.46674
-6.97879
-5.43649
-3.91231
-2.4616
-1.12591
0.0656042
1.09708
-1.41296
-1.59717
-1.39827
-0.384394
1.54397
3.99868
6.59503
8.32651
-1.08529
-0.933325
-0.446877
0.638886
2.3997
4.64388
7.06844
9.0726
-0.768475
-0.388003
0.244338
1.35687
3.02407
5.08622
7.29206
9.18002
-0.444685
0.0937644
0.832797
1.95067
3.49589
5.34061
7.27909
8.92306
-0.112649
0.537912
1.34219
2.42754
3.82829
5.44541
7.10176
8.47613
0.21556
0.942948
1.77614
2.80446
4.05068
5.43804
6.81675
7.93523
0.521374
1.29705
2.13164
3.08718
4.17874
5.34931
6.47803
7.38137
0.792818
1.5946
2.41177
3.28844
4.23623
5.21437
6.1293
6.85906
1.02808
1.83945
2.62776
3.42616
4.24454
5.06133
5.803
6.39298
1.23008
2.04
2.79389
3.51937
4.22793
4.91025
5.51256
5.99551
1.40173
2.20375
2.9222
3.58243
4.1988
4.77258
5.26679
5.67088
1.54502
2.33606
3.02138
3.62596
4.16757
4.65652
5.06964
5.41663
1.66202
2.44104
3.09771
3.65734
4.14097
4.56599
4.92037
5.2268
1.75542
2.52241
3.15584
3.68137
4.1225
4.50169
4.81563
5.09386
1.82823
2.58357
3.19918
3.70062
4.11294
4.4616
4.74973
5.00881
1.88319
2.62759
3.23013
3.71602
4.11085
4.44138
4.7149
4.96167
1.92275
2.65717
3.25023
3.72722
4.11337
4.43526
4.70211
4.94243
1.94871
2.67453
3.26125
3.73407
4.11749
4.43697
4.70226
4.94165
1.96213
2.68143
3.26469
3.73639
4.1211
4.44088
4.70777
4.95029
1.96596
2.68195
3.2642
3.73662
4.12319
4.44355
4.71561
4.95831
11.3968
10.3038
8.39442
6.90419
5.20212
2.998
2.39225
3.33231
3.79588
3.7766
3.55769
3.32556
3.0553
2.69988
2.26947
1.79124
1.27567
0.695474
-0.000195497
-1.14513
11.4444
9.7321
7.5224
6.11318
4.77257
3.2237
2.8727
3.63889
3.96318
3.85433
3.59587
3.34538
3.06357
2.70199
2.27012
1.79231
1.27771
0.699916
0.0889401
-0.697014
10.8212
9.08294
7.01252
5.87787
4.84717
3.63631
3.1804
3.69527
3.94666
3.83015
3.57841
3.33212
3.05248
2.69404
2.26622
1.792
1.28213
0.719822
0.180146
-0.480339
10.1218
8.47852
6.5635
5.57429
4.74671
3.77648
3.37862
3.80482
4.00541
3.87783
3.61849
3.35994
3.06948
2.70509
2.27546
1.80218
1.29657
0.752207
0.252558
-0.316973
9.32489
7.85569
6.17577
5.35144
4.72453
4.00653
3.68179
3.94118
4.06551
3.91258
3.6407
3.36806
3.06864
2.70248
2.27525
1.80628
1.30794
0.781162
0.308275
-0.184681
8.52546
7.28468
5.88087
5.20847
4.7329
4.18784
3.87566
4.02839
4.09346
3.92922
3.65674
3.37845
3.07417
2.70795
2.2833
1.81837
1.3269
0.817765
0.361342
-0.0809715
7.77406
6.77911
5.65827
5.11793
4.75535
4.33971
4.06038
4.12915
4.13672
3.95817
3.68295
3.39626
3.08396
2.71491
2.29137
1.83005
1.34499
0.84954
0.403613
-0.00207664
7.10675
6.35251
5.49825
5.0716
4.79149
4.47197
4.22083
4.21866
4.17522
3.98289
3.70519
3.41073
3.09109
2.7202
2.29898
1.84232
1.36393
0.880694
0.4412
0.0599537
6.54284
6.00659
5.38724
5.05654
4.83574
4.58522
4.35622
4.2971
4.20987
4.00492
3.72545
3.42478
3.09899
2.72694
2.30836
1.85633
1.38395
0.910606
0.473594
0.108415
6.08698
5.73637
5.31384
5.06364
4.88514
4.68248
4.47043
4.36767
4.24311
4.02604
3.74461
3.43854
3.10719
2.73408
2.31809
1.87053
1.40362
0.938154
0.501156
0.145947
5.73367
5.53373
5.26893
5.08501
4.93686
4.76614
4.56605
4.42987
4.27373
4.04508
3.76143
3.45082
3.1148
2.74105
2.32788
1.88482
1.42294
0.963702
0.525079
0.175133
5.47241
5.38964
5.24611
5.11469
4.9885
4.83823
4.64539
4.48337
4.30093
4.06161
3.77562
3.46143
3.12178
2.7479
2.33773
1.8991
1.44175
0.987223
0.545775
0.197646
5.29102
5.29461
5.23895
5.14882
5.03844
4.9
4.71026
4.52814
4.32433
4.07549
3.78711
3.47021
3.12796
2.75443
2.34739
1.91307
1.45978
1.00874
0.563721
0.214903
5.17659
5.23976
5.24294
5.18382
5.08499
4.95201
4.76205
4.56427
4.34355
4.08645
3.79571
3.47688
3.13305
2.76039
2.3566
1.92647
1.47681
1.0282
0.579086
0.227756
5.11518
5.21555
5.2541
5.21699
5.12653
4.99443
4.80196
4.59198
4.35825
4.09422
3.80129
3.48135
3.13694
2.76573
2.36541
1.93941
1.49309
1.04613
0.592732
0.237518
5.09309
5.21275
5.26906
5.24667
5.16179
5.02721
4.83096
4.61157
4.36808
4.09838
3.80353
3.48319
3.13909
2.76977
2.37294
1.95088
1.5075
1.06146
0.603597
0.243886
5.09645
5.22202
5.28495
5.27162
5.18953
5.05021
4.84995
4.62367
4.37332
4.09935
3.8032
3.48339
3.14071
2.77408
2.38109
1.96295
1.52221
1.07647
0.614044
0.248777
5.11142
5.23553
5.29978
5.29099
5.20877
5.06334
4.85929
4.62761
4.37223
4.09484
3.79752
3.47845
3.13759
2.774
2.38516
1.97121
1.53326
1.08779
0.621265
0.251425
5.12613
5.24777
5.31177
5.30371
5.21894
5.0682
4.86296
4.62858
4.37035
4.09145
3.79458
3.47748
3.13911
2.77842
2.39288
1.98203
1.54558
1.0987
0.626553
0.251805
5.13435
5.25653
5.31982
5.30893
5.21689
5.05744
4.85031
4.61479
4.35317
4.07202
3.77573
3.46186
3.12847
2.77389
2.39467
1.98938
1.55772
1.11156
0.634299
0.253142
-2.77205
-1.46359
-2.671
-0.711069
-0.410832
-0.459624
-0.405488
-0.405471
-2.62689
-2.43357
-2.58286
-1.71554
-1.40596
-1.26426
-1.05685
-1.00151
-2.58241
-2.73646
-3.29159
-2.82889
-2.44714
-2.19661
-1.87486
-1.77662
-2.84684
-3.46271
-4.11704
-3.87041
-3.44703
-3.10491
-2.68242
-2.53774
-3.4282
-4.36995
-4.92958
-4.81646
-4.39041
-3.99396
-3.49726
-3.31323
-4.17916
-5.21082
-5.71008
-5.65932
-5.25716
-4.83534
-4.28886
-4.07382
-4.97557
-5.96422
-6.43868
-6.41414
-6.04384
-5.62078
-5.04719
-4.81062
-5.7607
-6.66071
-7.10168
-7.09031
-6.75132
-6.34319
-5.76111
-5.51158
-6.50761
-7.30469
-7.69735
-7.69529
-7.38409
-7.00052
-6.42422
-6.16872
-7.19643
-7.8883
-8.23015
-8.23584
-7.94795
-7.59295
-7.03232
-6.77583
-7.81526
-8.40915
-8.70598
-8.7184
-8.44913
-8.1224
-7.58331
-7.3288
-8.36165
-8.87099
-9.13036
-9.14876
-8.89339
-8.59143
-8.07633
-7.82491
-8.83851
-9.27885
-9.50801
-9.53167
-9.28544
-9.00263
-8.51123
-8.26249
-9.24951
-9.63631
-9.84252
-9.8706
-9.62883
-9.35817
-8.88805
-8.64047
-9.59722
-9.94517
-10.136
-10.1675
-9.92605
-9.65961
-9.20677
-8.95802
-9.88289
-10.2056
-10.3889
-10.4229
-10.1782
-9.90762
-9.46686
-9.21428
-10.1064
-10.4162
-10.6002
-10.6355
-10.383
-10.1014
-9.66697
-9.40794
-10.2666
-10.5738
-10.7665
-10.8034
-10.5334
-10.2383
-9.80469
-9.53691
-10.361
-10.6735
-10.882
-10.9239
-10.6219
-10.3149
-9.87707
-9.59869
-10.3874
-10.709
-10.939
-10.9883
-10.6525
-10.3256
-9.88249
-9.59181
-10.3409
-10.6727
-10.928
-10.9775
-10.6207
-10.2684
-9.81782
-9.51611
-10.21
-10.5586
-10.8321
-10.8836
-10.5167
-10.1421
-9.68001
-9.36872
-9.99538
-10.3628
-10.6492
-10.7048
-10.3351
-9.94475
-9.46815
-9.14772
-9.70084
-10.0855
-10.3828
-10.4409
-10.075
-9.67585
-9.18239
-8.85192
-9.33038
-9.72927
-10.0369
-10.0956
-9.73868
-9.33711
-8.82384
-8.48076
-8.88905
-9.2991
-9.61709
-9.67544
-9.33175
-8.93227
-8.39433
-8.0341
-8.38425
-8.80257
-9.13128
-9.18936
-8.86243
-8.46687
-7.89612
-7.51198
-7.82571
-8.2499
-8.58987
-8.64857
-8.3412
-7.94774
-7.3312
-6.91402
-7.22476
-7.65323
-8.00483
-8.06593
-7.7801
-7.38244
-6.70031
-6.23849
-6.59382
-7.02594
-7.38907
-7.45533
-7.19206
-6.77868
-6.00215
-5.48171
-5.94609
-6.38213
-6.75599
-6.83133
-6.58993
-6.14362
-5.23315
-4.6392
-5.29544
-5.7361
-6.11922
-6.20886
-5.98478
-5.48196
-4.3873
-3.70786
-4.65627
-5.10177
-5.49241
-5.60328
-5.38366
-4.79141
-3.45452
-2.68447
-4.04382
-4.49243
-4.88953
-5.02975
-4.78823
-4.0575
-2.41866
-1.55731
-3.47346
-3.9198
-4.32482
-4.49863
-4.19701
-3.25272
-1.26237
-0.305301
-2.96299
-3.39822
-3.81926
-4.00787
-3.60827
-2.34145
0.0167288
1.06594
-2.52251
-2.93811
-3.39127
-3.54475
-3.00548
-1.27889
1.3948
2.46332
-2.1773
-2.58144
-3.06368
-3.12513
-2.30287
-0.00911583
2.83745
3.7409
-1.88264
-2.27013
-2.77138
-2.70958
-1.29928
1.46445
4.30241
4.93737
-1.84347
-2.25764
-2.46596
-1.85063
0.132415
2.92257
5.65106
6.43386
8.94902
7.75952
7.34676
6.87798
6.48041
5.87528
5.36271
4.20253
8.31748
7.66744
7.29973
6.85068
6.51192
5.9928
5.59245
4.80624
7.88836
7.49739
7.2256
6.81625
6.53286
6.08872
5.77303
5.22658
7.55194
7.32905
7.14606
6.78253
6.54839
6.16722
5.91539
5.5227
7.3069
7.17107
7.05923
6.74541
6.55634
6.22807
6.0268
5.73481
7.12151
7.03523
6.97411
6.70723
6.55844
6.27485
6.11429
5.89064
6.98111
6.92159
6.89484
6.66933
6.55585
6.31024
6.18299
6.00729
6.87324
6.82849
6.82427
6.63332
6.55009
6.33678
6.23699
6.09605
6.78989
6.75297
6.76331
6.60019
6.54246
6.35646
6.27949
6.16443
6.72525
6.69214
6.71193
6.57051
6.53408
6.3709
6.31298
6.21764
6.67524
6.6434
6.66954
6.54443
6.52578
6.38135
6.33945
6.25938
6.63687
6.60457
6.63532
6.52182
6.51818
6.38877
6.36043
6.29231
6.6079
6.57391
6.60839
6.50238
6.51174
6.39388
6.37711
6.31841
6.58674
6.55002
6.58786
6.48571
6.50678
6.39722
6.39045
6.33915
6.57261
6.53156
6.5733
6.47131
6.50334
6.39916
6.40118
6.35565
6.56555
6.51695
6.56537
6.45843
6.50127
6.39993
6.4099
6.36877
6.56544
6.50502
6.56517
6.44607
6.50091
6.39949
6.41691
6.37914
6.57114
6.49636
6.57153
6.43405
6.50381
6.39753
6.4223
6.38723
6.58301
6.49115
6.58264
6.42251
6.51091
6.39392
6.42629
6.39336
6.60152
6.48904
6.59821
6.41267
6.51907
6.38989
6.42948
6.39786
6.62692
6.49109
6.61717
6.40553
6.52708
6.38547
6.43202
6.40109
6.65959
6.49981
6.63816
6.4029
6.53408
6.38217
6.43182
6.4032
6.70045
6.5159
6.66218
6.40675
6.53756
6.38156
6.42844
6.40421
6.75089
6.53974
6.69054
6.41646
6.53946
6.38356
6.42122
6.40403
6.81269
6.572
6.72465
6.43179
6.54103
6.38699
6.41092
6.40226
6.88804
6.61365
6.766
6.45296
6.54338
6.39105
6.39842
6.39831
6.97978
6.66624
6.81627
6.48066
6.5475
6.39516
6.38432
6.3916
7.09155
6.73198
6.87752
6.51611
6.5545
6.39897
6.36805
6.38191
7.22742
6.81339
6.95175
6.56088
6.56546
6.40223
6.34934
6.36861
7.39107
6.91228
7.04028
6.61646
6.58131
6.40475
6.32779
6.35119
7.58641
7.03008
7.14389
6.68455
6.60307
6.40662
6.30247
6.32923
7.82204
7.17169
7.26515
6.76811
6.63271
6.40851
6.27265
6.30069
8.11584
7.34952
7.41032
6.8719
6.67373
6.41305
6.23907
6.2593
8.48567
7.57581
7.58416
6.99915
6.72913
6.4242
6.20428
6.19698
8.9212
7.8398
7.77795
7.14607
6.79683
6.44155
6.1707
6.11582
9.38291
8.10651
7.97157
7.30506
6.87021
6.45601
6.13771
6.03347
9.90555
8.392
8.16972
7.48243
6.95296
6.46474
6.10186
5.94146
10.7367
8.8582
8.43255
7.70614
7.07522
6.50333
6.06387
5.71594
12.1299
9.67139
8.79934
7.97975
7.26323
6.62973
6.03858
5.16228
13.5849
10.5252
9.12427
8.20361
7.4468
6.79914
6.03704
4.43632
)
;

boundaryField
{
    wall
    {
        type            zeroGradient;
    }
    inlet1
    {
        type            zeroGradient;
    }
    inlet2
    {
        type            zeroGradient;
    }
    outlet1
    {
        type            fixedValue;
        value           uniform 0;
    }
    outlet2
    {
        type            outletInlet;
        outletValue     uniform 0;
        value           nonuniform List<scalar> 8(-2.77205 0 -2.671 0 0 0 0 0);
    }
    defaultFaces
    {
        type            empty;
    }
}


// ************************************************************************* //
