/*--------------------------------*- C++ -*----------------------------------*\
| =========                 |                                                 |
| \\      /  F ield         | OpenFOAM: The Open Source CFD Toolbox           |
|  \\    /   O peration     | Version:  2.4.0                                 |
|   \\  /    A nd           | Web:      www.OpenFOAM.org                      |
|    \\/     M anipulation  |                                                 |
\*---------------------------------------------------------------------------*/
FoamFile
{
    version     2.0;
    format      ascii;
    class       surfaceScalarField;
    location    "4.33";
    object      phi;
}
// * * * * * * * * * * * * * * * * * * * * * * * * * * * * * * * * * * * * * //

dimensions      [0 3 -1 0 0 0 0];

internalField   nonuniform List<scalar> 
11840
(
7.83581e-07
9.21642e-06
-9.36021e-07
1.7196e-06
6.58346e-07
-1.59437e-06
1.45719e-07
5.12627e-07
-2.06201e-07
3.5192e-07
-2.99332e-07
9.31307e-08
-3.92357e-07
9.30253e-08
-4.79877e-07
8.752e-08
-6.72183e-07
1.92306e-07
-8.73502e-07
2.01319e-07
-1.18701e-06
3.13512e-07
-1.47267e-06
2.8566e-07
-1.77069e-06
2.9802e-07
-1.96784e-06
1.97144e-07
-2.0404e-06
7.25643e-08
-1.9242e-06
-1.162e-07
-1.64478e-06
-2.79417e-07
-1.2901e-06
-3.5468e-07
-1.09377e-06
-1.96332e-07
-1.30825e-06
2.14476e-07
-1.97782e-06
6.69576e-07
-2.82277e-06
8.44951e-07
-3.52421e-06
7.01436e-07
-3.99177e-06
4.67557e-07
-4.30749e-06
3.15723e-07
-4.53779e-06
2.30296e-07
-4.71711e-06
1.79324e-07
-4.86e-06
1.42891e-07
-4.97402e-06
1.14018e-07
-5.06206e-06
8.8043e-08
-5.12502e-06
6.29595e-08
-5.16177e-06
3.67525e-08
-5.16892e-06
7.14431e-09
-5.14359e-06
-2.53253e-08
-5.08502e-06
-5.85755e-08
-4.99117e-06
-9.38444e-08
-4.85851e-06
-1.32667e-07
-4.68319e-06
-1.75317e-07
-4.46157e-06
-2.21619e-07
-4.18932e-06
-2.72256e-07
-3.86313e-06
-3.2619e-07
-3.47784e-06
-3.85284e-07
-3.03198e-06
-4.45859e-07
-2.51829e-06
-5.13693e-07
-1.94101e-06
-5.77279e-07
-1.2881e-06
-6.52909e-07
-5.75265e-07
-7.12836e-07
2.13517e-07
-7.88783e-07
1.03625e-06
-8.22731e-07
1.93706e-06
-9.00817e-07
2.80944e-06
-8.72373e-07
3.76439e-06
-9.54952e-07
4.5598e-06
-7.95407e-07
5.49581e-06
-9.36017e-07
6.0309e-06
-5.35088e-07
6.94178e-06
-9.10875e-07
7.00425e-06
-6.24755e-08
8.01385e-06
-1.0096e-06
7.41631e-06
5.97541e-07
-1.8478e-06
2.45152e-06
1.67649e-05
-5.06646e-07
4.67777e-06
3.67878e-07
-2.46889e-06
-8.70695e-08
9.67574e-07
-3.11487e-07
5.76337e-07
-4.58545e-07
2.40189e-07
-5.45691e-07
1.80171e-07
-6.57612e-07
1.99441e-07
-8.60852e-07
3.95546e-07
-1.0958e-06
4.3627e-07
-1.40439e-06
6.22101e-07
-1.69587e-06
5.7714e-07
-1.96197e-06
5.64112e-07
-2.13361e-06
3.68786e-07
-2.18339e-06
1.22351e-07
-2.07565e-06
-2.23942e-07
-1.82391e-06
-5.31162e-07
-1.5186e-06
-6.59992e-07
-1.37639e-06
-3.38539e-07
-1.66e-06
4.98088e-07
-2.38383e-06
1.39341e-06
-3.18844e-06
1.64956e-06
-3.77552e-06
1.28852e-06
-4.15655e-06
8.48587e-07
-4.42286e-06
5.82036e-07
-4.62253e-06
4.29966e-07
-4.77851e-06
3.35301e-07
-4.90157e-06
2.65951e-07
-4.99726e-06
2.09712e-07
-5.06776e-06
1.5854e-07
-5.11342e-06
1.08618e-07
-5.13321e-06
5.65417e-08
-5.12624e-06
1.8103e-10
-5.09021e-06
-6.1362e-08
-5.02211e-06
-1.26675e-07
-4.91834e-06
-1.97613e-07
-4.77522e-06
-2.75789e-07
-4.58878e-06
-3.61757e-07
-4.355e-06
-4.55395e-07
-4.0696e-06
-5.57652e-07
-3.7286e-06
-6.67191e-07
-3.32759e-06
-7.86296e-07
-2.8633e-06
-9.10149e-07
-2.33152e-06
-1.04547e-06
-1.73112e-06
-1.17768e-06
-1.05932e-06
-1.32471e-06
-3.18968e-07
-1.45319e-06
4.88277e-07
-1.59603e-06
1.34981e-06
-1.68426e-06
2.26481e-06
-1.81581e-06
3.19544e-06
-1.803e-06
4.14687e-06
-1.90638e-06
5.03893e-06
-1.68747e-06
5.92827e-06
-1.82536e-06
6.64046e-06
-1.24728e-06
7.40931e-06
-1.67973e-06
7.79349e-06
-4.46655e-07
8.55217e-06
-1.76828e-06
8.55351e-06
5.96195e-07
-3.02714e-06
3.60706e-06
2.31578e-05
1.74135e-08
8.26742e-06
5.81038e-08
-2.50958e-06
-3.05e-07
1.33068e-06
-3.671e-07
6.38437e-07
-5.23793e-07
3.96882e-07
-6.0024e-07
2.56618e-07
-7.21823e-07
3.21024e-07
-9.10658e-07
5.84381e-07
-1.14702e-06
6.72636e-07
-1.43282e-06
9.07899e-07
-1.71475e-06
8.59068e-07
-1.96662e-06
8.15986e-07
-2.14032e-06
5.42482e-07
-2.20129e-06
1.83324e-07
-2.11869e-06
-3.06543e-07
-1.90255e-06
-7.47306e-07
-1.64054e-06
-9.21999e-07
-1.53008e-06
-4.49003e-07
-1.80974e-06
7.77751e-07
-2.47781e-06
2.06148e-06
-3.19622e-06
2.36797e-06
-3.719e-06
1.8113e-06
-4.07065e-06
1.20024e-06
-4.32148e-06
8.32867e-07
-4.50989e-06
6.18378e-07
-4.65592e-06
4.81322e-07
-4.76984e-06
3.79875e-07
-4.85698e-06
2.96852e-07
-4.91956e-06
2.21126e-07
-4.95801e-06
1.47063e-07
-4.97156e-06
7.00883e-08
-4.95884e-06
-1.25354e-08
-4.9179e-06
-1.02298e-07
-4.84548e-06
-1.99095e-07
-4.73801e-06
-3.05086e-07
-4.59178e-06
-4.22026e-07
-4.40278e-06
-5.50754e-07
-4.1669e-06
-6.91278e-07
-3.87984e-06
-8.4471e-07
-3.53741e-06
-1.00962e-06
-3.13537e-06
-1.18834e-06
-2.66995e-06
-1.37556e-06
-2.13764e-06
-1.57779e-06
-1.53599e-06
-1.77932e-06
-8.64181e-07
-1.99652e-06
-1.22192e-07
-2.19518e-06
6.85163e-07
-2.40338e-06
1.55189e-06
-2.55099e-06
2.4659e-06
-2.72983e-06
3.40571e-06
-2.74281e-06
4.35036e-06
-2.85103e-06
5.26223e-06
-2.59934e-06
6.12945e-06
-2.69258e-06
6.89115e-06
-2.00898e-06
7.59541e-06
-2.38398e-06
8.10678e-06
-9.58025e-07
8.67747e-06
-2.33897e-06
8.96993e-06
3.03743e-07
-3.78989e-06
4.52857e-06
2.86293e-05
7.5663e-07
1.20394e-05
-2.34163e-07
-1.51879e-06
-4.60474e-07
1.55699e-06
-3.97881e-07
5.75844e-07
-5.56939e-07
5.55939e-07
-6.25742e-07
3.25421e-07
-7.51733e-07
4.47015e-07
-9.26346e-07
7.58994e-07
-1.15596e-06
9.02248e-07
-1.42333e-06
1.17527e-06
-1.69489e-06
1.13062e-06
-1.9389e-06
1.06e-06
-2.11674e-06
7.20324e-07
-2.19168e-06
2.58257e-07
-2.1349e-06
-3.63318e-07
-1.954e-06
-9.28209e-07
-1.73083e-06
-1.14517e-06
-1.64502e-06
-5.3481e-07
-1.90759e-06
1.04032e-06
-2.50806e-06
2.66194e-06
-3.14846e-06
3.00837e-06
-3.62372e-06
2.28656e-06
-3.95374e-06
1.53025e-06
-4.1921e-06
1.07122e-06
-4.37095e-06
7.97227e-07
-4.5085e-06
6.18876e-07
-4.61466e-06
4.86037e-07
-4.69462e-06
3.76812e-07
-4.75067e-06
2.77169e-07
-4.78328e-06
1.79676e-07
-4.79178e-06
7.85913e-08
-4.77478e-06
-2.95341e-08
-4.73019e-06
-1.46894e-07
-4.65484e-06
-2.74443e-07
-4.54518e-06
-4.14741e-07
-4.3975e-06
-5.6971e-07
-4.20777e-06
-7.40483e-07
-3.97181e-06
-9.27234e-07
-3.68532e-06
-1.1312e-06
-3.34399e-06
-1.35095e-06
-2.94359e-06
-1.58874e-06
-2.48017e-06
-1.83899e-06
-1.95038e-06
-2.10758e-06
-1.35132e-06
-2.37838e-06
-6.82666e-07
-2.66517e-06
5.64272e-08
-2.93427e-06
8.60634e-07
-3.20759e-06
1.72553e-06
-3.41588e-06
2.63536e-06
-3.63966e-06
3.5738e-06
-3.68125e-06
4.51143e-06
-3.78866e-06
5.42493e-06
-3.51284e-06
6.27891e-06
-3.54656e-06
7.05311e-06
-2.78318e-06
7.72712e-06
-3.05799e-06
8.28379e-06
-1.5147e-06
8.76897e-06
-2.82414e-06
9.18086e-06
-1.08146e-07
-4.33517e-06
5.30467e-06
3.33246e-05
1.49064e-06
1.58534e-05
-2.59997e-07
2.3185e-07
-5.516e-07
1.84859e-06
-4.19091e-07
4.43335e-07
-5.75862e-07
7.12711e-07
-6.39147e-07
3.88706e-07
-7.65708e-07
5.73577e-07
-9.27599e-07
9.20884e-07
-1.147e-06
1.12165e-06
-1.39833e-06
1.42661e-06
-1.65951e-06
1.3918e-06
-1.89775e-06
1.29824e-06
-2.08e-06
9.02572e-07
-2.16936e-06
3.47614e-07
-2.13826e-06
-3.94412e-07
-1.99189e-06
-1.07458e-06
-1.80492e-06
-1.33214e-06
-1.7389e-06
-6.00822e-07
-1.9777e-06
1.27912e-06
-2.50863e-06
3.19287e-06
-3.07788e-06
3.57763e-06
-3.51248e-06
2.72115e-06
-3.82322e-06
1.841e-06
-4.04996e-06
1.29796e-06
-4.21982e-06
9.67085e-07
-4.34947e-06
7.48528e-07
-4.44842e-06
5.84988e-07
-4.52176e-06
4.5015e-07
-4.57181e-06
3.27222e-07
-4.59913e-06
2.06998e-07
-4.60311e-06
8.25627e-08
-4.58233e-06
-5.03136e-08
-4.53462e-06
-1.94597e-07
-4.45692e-06
-3.5215e-07
-4.34569e-06
-5.25964e-07
-4.19722e-06
-7.18182e-07
-4.00747e-06
-9.3023e-07
-3.77223e-06
-1.16248e-06
-3.48716e-06
-1.41628e-06
-3.14788e-06
-1.69023e-06
-2.75015e-06
-1.98647e-06
-2.28988e-06
-2.29925e-06
-1.76379e-06
-2.63367e-06
-1.16873e-06
-2.97345e-06
-5.04477e-07
-3.32942e-06
2.30098e-07
-3.66884e-06
1.0297e-06
-4.00719e-06
1.89015e-06
-4.27633e-06
2.79422e-06
-4.54373e-06
3.72767e-06
-4.6147e-06
4.6576e-06
-4.71858e-06
5.56677e-06
-4.42202e-06
6.40979e-06
-4.38958e-06
7.18437e-06
-3.55776e-06
7.83962e-06
-3.71324e-06
8.41238e-06
-2.08746e-06
8.85309e-06
-3.26485e-06
9.31301e-06
-5.68061e-07
-4.75883e-06
5.97555e-06
3.73491e-05
2.24018e-06
1.95887e-05
-6.29486e-08
2.53498e-06
-5.83076e-07
2.36872e-06
-4.3696e-07
2.97219e-07
-5.86424e-07
8.62175e-07
-6.45439e-07
4.47721e-07
-7.70197e-07
6.98334e-07
-9.20196e-07
1.07088e-06
-1.12783e-06
1.32928e-06
-1.36424e-06
1.66301e-06
-1.61511e-06
1.64267e-06
-1.84827e-06
1.5314e-06
-2.03475e-06
1.08905e-06
-2.13838e-06
4.51245e-07
-2.13256e-06
-4.0023e-07
-2.01992e-06
-1.18723e-06
-1.86703e-06
-1.48502e-06
-1.81689e-06
-6.5096e-07
-2.02782e-06
1.49004e-06
-2.48993e-06
3.65498e-06
-2.99338e-06
4.08108e-06
-3.3911e-06
3.11888e-06
-3.68362e-06
2.13351e-06
-3.89902e-06
1.51337e-06
-4.06011e-06
1.12817e-06
-4.1821e-06
8.70521e-07
-4.2741e-06
6.76981e-07
-4.34107e-06
5.17128e-07
-4.3854e-06
3.71546e-07
-4.40768e-06
2.29281e-07
-4.40736e-06
8.22413e-08
-4.38303e-06
-7.46446e-08
-4.33249e-06
-2.45137e-07
-4.25271e-06
-4.31928e-07
-4.14023e-06
-6.38446e-07
-3.99131e-06
-8.67101e-07
-3.80192e-06
-1.11962e-06
-3.56781e-06
-1.39659e-06
-3.28461e-06
-1.69948e-06
-2.9479e-06
-2.02694e-06
-2.5534e-06
-2.38097e-06
-2.09693e-06
-2.75573e-06
-1.5752e-06
-3.1554e-06
-9.84896e-07
-3.56375e-06
-3.25767e-07
-3.98855e-06
4.03422e-07
-4.39803e-06
1.19747e-06
-4.80124e-06
2.05207e-06
-5.13093e-06
2.94935e-06
-5.44102e-06
3.87601e-06
-5.54136e-06
4.79753e-06
-5.6401e-06
5.6997e-06
-5.32418e-06
6.5322e-06
-5.22208e-06
7.30205e-06
-4.32762e-06
7.94275e-06
-4.35394e-06
8.51953e-06
-2.66423e-06
8.93264e-06
-3.67797e-06
9.4106e-06
-1.04602e-06
-5.10373e-06
6.5608e-06
4.07883e-05
2.97409e-06
2.31755e-05
2.30384e-07
5.27868e-06
-5.36317e-07
3.13542e-06
-4.52518e-07
2.1342e-07
-5.9099e-07
1.00065e-06
-6.46471e-07
5.03202e-07
-7.68044e-07
8.19908e-07
-9.06594e-07
1.20943e-06
-1.10172e-06
1.52441e-06
-1.32374e-06
1.88503e-06
-1.56427e-06
1.8832e-06
-1.79247e-06
1.7596e-06
-1.98278e-06
1.27936e-06
-2.10023e-06
5.68702e-07
-2.1191e-06
-3.81366e-07
-2.03926e-06
-1.26706e-06
-1.91853e-06
-1.60576e-06
-1.881e-06
-6.88486e-07
-2.06164e-06
1.67067e-06
-2.45687e-06
4.05021e-06
-2.89889e-06
4.5231e-06
-3.26213e-06
3.48212e-06
-3.53686e-06
2.40824e-06
-3.74099e-06
1.71749e-06
-3.89335e-06
1.28053e-06
-4.00776e-06
9.84936e-07
-4.0929e-06
7.62113e-07
-4.15362e-06
5.77856e-07
-4.19233e-06
4.10254e-07
-4.20969e-06
2.46638e-07
-4.20518e-06
7.77318e-08
-4.1774e-06
-1.0242e-07
-4.12416e-06
-2.98381e-07
-4.04247e-06
-5.13622e-07
-3.9289e-06
-7.52013e-07
-3.77973e-06
-1.01627e-06
-3.59091e-06
-1.30844e-06
-3.35818e-06
-1.62932e-06
-3.07715e-06
-1.98051e-06
-2.74333e-06
-2.36076e-06
-2.35243e-06
-2.77187e-06
-1.90017e-06
-3.20798e-06
-1.38324e-06
-3.67233e-06
-7.98213e-07
-4.14878e-06
-1.44712e-07
-4.64205e-06
5.78481e-07
-5.12123e-06
1.36626e-06
-5.58902e-06
2.21408e-06
-5.97875e-06
3.10381e-06
-6.33075e-06
4.02256e-06
-6.46011e-06
4.93506e-06
-6.5526e-06
5.82866e-06
-6.21779e-06
6.65056e-06
-6.04397e-06
7.41299e-06
-5.09005e-06
8.04083e-06
-4.98179e-06
8.61562e-06
-3.23901e-06
9.00896e-06
-4.07132e-06
9.49067e-06
-1.52773e-06
-5.39137e-06
7.07183e-06
4.37164e-05
3.68667e-06
2.65606e-05
6.53972e-07
8.31139e-06
-4.06466e-07
4.19586e-06
-4.61731e-07
2.68685e-07
-5.9047e-07
1.12938e-06
-6.43002e-07
5.55735e-07
-7.60669e-07
9.37574e-07
-8.88068e-07
1.33683e-06
-1.07033e-06
1.70668e-06
-1.27825e-06
2.09294e-06
-1.5083e-06
2.11325e-06
-1.73136e-06
1.98267e-06
-1.92491e-06
1.47291e-06
-2.05553e-06
6.99322e-07
-2.0983e-06
-3.386e-07
-2.05022e-06
-1.31515e-06
-1.95978e-06
-1.69619e-06
-1.93219e-06
-7.16073e-07
-2.08135e-06
1.81983e-06
-2.4123e-06
4.38116e-06
-2.7966e-06
4.90739e-06
-3.12697e-06
3.8125e-06
-3.38406e-06
2.66533e-06
-3.57681e-06
1.91024e-06
-3.72037e-06
1.42409e-06
-3.82719e-06
1.09176e-06
-3.90547e-06
8.40396e-07
-3.95997e-06
6.3236e-07
-3.9931e-06
4.43377e-07
-4.00556e-06
2.59099e-07
-3.99689e-06
6.9064e-08
-3.96571e-06
-1.33602e-07
-3.90982e-06
-3.5427e-07
-3.82629e-06
-5.97153e-07
-3.71173e-06
-8.66571e-07
-3.56242e-06
-1.16558e-06
-3.37432e-06
-1.49654e-06
-3.14314e-06
-1.8605e-06
-2.86446e-06
-2.25919e-06
-2.53377e-06
-2.69145e-06
-2.14672e-06
-3.15892e-06
-1.69898e-06
-3.65573e-06
-1.18718e-06
-4.18413e-06
-6.07805e-07
-4.72815e-06
3.96702e-08
-5.28953e-06
7.56389e-07
-5.83795e-06
1.53733e-06
-6.36996e-06
2.37768e-06
-6.8191e-06
3.25924e-06
-7.21231e-06
4.16927e-06
-7.37014e-06
5.07218e-06
-7.45551e-06
5.95616e-06
-7.10177e-06
6.76715e-06
-6.85496e-06
7.52047e-06
-5.84336e-06
8.13614e-06
-5.59746e-06
8.70545e-06
-3.80833e-06
9.08297e-06
-4.44883e-06
9.56081e-06
-2.00557e-06
-5.6339e-06
7.51726e-06
4.61992e-05
4.37164e-06
2.97062e-05
1.18067e-06
1.15024e-05
-2.07484e-07
5.58401e-06
-4.55137e-07
5.16338e-07
-5.84794e-07
1.25904e-06
-6.35284e-07
6.06225e-07
-7.48804e-07
1.05109e-06
-8.65341e-07
1.45337e-06
-1.03461e-06
1.87595e-06
-1.22856e-06
2.28688e-06
-1.44793e-06
2.33263e-06
-1.66549e-06
2.20023e-06
-1.86157e-06
1.66899e-06
-2.00452e-06
8.42267e-07
-2.07023e-06
-2.72891e-07
-2.0527e-06
-1.33267e-06
-1.99077e-06
-1.75813e-06
-1.97101e-06
-7.35831e-07
-2.0885e-06
1.93733e-06
-2.35816e-06
4.65081e-06
-2.68791e-06
5.23715e-06
-2.98652e-06
4.11111e-06
-3.22593e-06
2.90475e-06
-3.4071e-06
2.0914e-06
-3.54173e-06
1.55872e-06
-3.64088e-06
1.1909e-06
-3.71226e-06
9.11782e-07
-3.76051e-06
6.80608e-07
-3.78803e-06
4.70893e-07
-3.79558e-06
2.66648e-07
-3.78273e-06
5.62227e-08
-3.74814e-06
-1.68196e-07
-3.68962e-06
-4.12791e-07
-3.60428e-06
-6.8249e-07
-3.48878e-06
-9.82074e-07
-3.3394e-06
-1.31496e-06
-3.15209e-06
-1.68384e-06
-2.92257e-06
-2.09002e-06
-2.64639e-06
-2.53537e-06
-2.31899e-06
-3.01885e-06
-1.93599e-06
-3.54192e-06
-1.49299e-06
-4.09873e-06
-9.86587e-07
-4.69053e-06
-4.1317e-07
-5.30156e-06
2.27944e-07
-5.93064e-06
9.37782e-07
-6.54778e-06
1.71139e-06
-7.14357e-06
2.54371e-06
-7.65142e-06
3.41657e-06
-8.08517e-06
4.31724e-06
-8.27081e-06
5.21006e-06
-8.34833e-06
6.0836e-06
-7.97531e-06
6.88331e-06
-7.65467e-06
7.62631e-06
-6.58636e-06
8.22998e-06
-6.20112e-06
8.79157e-06
-4.36993e-06
9.15532e-06
-4.81257e-06
9.62483e-06
-2.47508e-06
-5.83882e-06
7.90477e-06
4.82944e-05
5.02312e-06
3.25879e-05
1.77353e-06
1.47519e-05
5.77751e-08
7.29976e-06
-4.22689e-07
9.96802e-07
-5.7288e-07
1.40923e-06
-6.23226e-07
6.56571e-07
-7.32786e-07
1.16065e-06
-8.38825e-07
1.55941e-06
-9.95141e-07
2.03227e-06
-1.17518e-06
2.46692e-06
-1.38363e-06
2.54107e-06
-1.59518e-06
2.41178e-06
-1.79298e-06
1.86679e-06
-1.94725e-06
9.96539e-07
-2.03477e-06
-1.85374e-07
-2.04646e-06
-1.32098e-06
-2.01133e-06
-1.79326e-06
-1.99782e-06
-7.49333e-07
-2.08426e-06
2.02376e-06
-2.29583e-06
4.86239e-06
-2.57383e-06
5.51515e-06
-2.84143e-06
4.37871e-06
-3.063e-06
3.12632e-06
-3.23234e-06
2.26074e-06
-3.35785e-06
1.68423e-06
-3.4492e-06
1.28225e-06
-3.5136e-06
9.76184e-07
-3.55553e-06
7.22537e-07
-3.57738e-06
4.92749e-07
-3.57997e-06
2.69234e-07
-3.56291e-06
3.91638e-08
-3.52487e-06
-2.06235e-07
-3.4637e-06
-4.7396e-07
-3.37656e-06
-7.69633e-07
-3.26013e-06
-1.09851e-06
-3.1107e-06
-1.46439e-06
-2.92425e-06
-1.87029e-06
-2.69646e-06
-2.31781e-06
-2.42287e-06
-2.80896e-06
-2.09889e-06
-3.34283e-06
-1.7201e-06
-3.92071e-06
-1.28204e-06
-4.53679e-06
-7.81233e-07
-5.19134e-06
-2.14019e-07
-5.86878e-06
4.20437e-07
-6.5651e-06
1.12303e-06
-7.25038e-06
1.88888e-06
-7.90942e-06
2.7127e-06
-8.47524e-06
3.5764e-06
-8.94887e-06
4.46717e-06
-9.16157e-06
5.34941e-06
-9.23056e-06
6.21184e-06
-8.83775e-06
6.99984e-06
-8.44266e-06
7.7316e-06
-7.31812e-06
8.32318e-06
-6.79271e-06
8.87547e-06
-4.92221e-06
9.2265e-06
-5.16361e-06
9.68487e-06
-2.93345e-06
-6.01116e-06
8.24133e-06
5.00531e-05
5.63648e-06
3.51927e-05
2.41091e-06
1.79775e-05
4.34773e-07
9.2759e-06
-3.53668e-07
1.78524e-06
-5.52257e-07
1.60782e-06
-6.06406e-07
7.10719e-07
-7.12665e-07
1.26691e-06
-8.08717e-07
1.65546e-06
-9.52259e-07
2.17581e-06
-1.11844e-06
2.6331e-06
-1.31567e-06
2.73831e-06
-1.52065e-06
2.61676e-06
-1.71925e-06
2.06539e-06
-1.88372e-06
1.161e-06
-1.99174e-06
-7.73536e-08
-2.0312e-06
-1.28151e-06
-2.02125e-06
-1.80322e-06
-2.01293e-06
-7.57649e-07
-2.06954e-06
2.08037e-06
-2.22638e-06
5.01922e-06
-2.45509e-06
5.74386e-06
-2.69221e-06
4.61583e-06
-2.89568e-06
3.32979e-06
-3.05289e-06
2.41795e-06
-3.16906e-06
1.80041e-06
-3.25246e-06
1.36565e-06
-3.30976e-06
1.03349e-06
-3.34528e-06
7.58054e-07
-3.3614e-06
5.08865e-07
-3.35895e-06
2.66788e-07
-3.33761e-06
1.78242e-08
-3.29607e-06
-2.47772e-07
-3.23222e-06
-5.37813e-07
-3.14325e-06
-8.58603e-07
-3.02588e-06
-1.21588e-06
-2.87643e-06
-1.61384e-06
-2.69086e-06
-2.05587e-06
-2.46484e-06
-2.54383e-06
-2.19392e-06
-3.07988e-06
-1.87345e-06
-3.6633e-06
-1.49899e-06
-4.29517e-06
-1.06602e-06
-4.96976e-06
-5.70992e-07
-5.68636e-06
-1.01925e-08
-6.42958e-06
6.17333e-07
-7.19262e-06
1.31236e-06
-7.94541e-06
2.07007e-06
-8.66713e-06
2.88498e-06
-9.29015e-06
3.73911e-06
-9.803e-06
4.61949e-06
-1.0042e-05
5.4907e-06
-1.01018e-05
6.34144e-06
-9.68849e-06
7.11729e-06
-9.21851e-06
7.83702e-06
-8.03785e-06
8.4163e-06
-7.37198e-06
8.95805e-06
-5.46396e-06
9.29688e-06
-5.50244e-06
9.74222e-06
-3.37879e-06
-6.15449e-06
8.53316e-06
5.15199e-05
6.20845e-06
3.75174e-05
3.07059e-06
2.11154e-05
8.68159e-07
1.14783e-05
-2.22019e-07
2.87542e-06
-5.1813e-07
1.90393e-06
-5.83952e-07
7.76542e-07
-6.8824e-07
1.3712e-06
-7.7504e-07
1.74226e-06
-9.06144e-07
2.30691e-06
-1.05852e-06
2.78548e-06
-1.24426e-06
2.92405e-06
-1.44204e-06
2.81454e-06
-1.64046e-06
2.26381e-06
-1.81385e-06
1.33439e-06
-1.94092e-06
4.97126e-08
-2.00659e-06
-1.21584e-06
-2.02031e-06
-1.7895e-06
-2.01657e-06
-7.61391e-07
-2.04511e-06
2.10892e-06
-2.15063e-06
5.12474e-06
-2.33228e-06
5.92551e-06
-2.53927e-06
4.82282e-06
-2.72433e-06
3.51485e-06
-2.86907e-06
2.56268e-06
-2.97565e-06
1.90699e-06
-3.05092e-06
1.44091e-06
-3.10099e-06
1.08356e-06
-3.12999e-06
7.87052e-07
-3.14027e-06
5.19149e-07
-3.13271e-06
2.59226e-07
-3.10701e-06
-7.87138e-09
-3.06192e-06
-2.92869e-07
-2.99533e-06
-6.04399e-07
-2.9045e-06
-9.49435e-07
-2.78617e-06
-1.3342e-06
-2.63668e-06
-1.76333e-06
-2.452e-06
-2.24055e-06
-2.22779e-06
-2.76803e-06
-1.95958e-06
-3.34809e-06
-1.6427e-06
-3.98018e-06
-1.27267e-06
-4.6652e-06
-8.4491e-07
-5.39753e-06
-3.55817e-07
-6.17546e-06
1.98378e-07
-6.98377e-06
8.18728e-07
-7.81297e-06
1.5059e-06
-8.63258e-06
2.25513e-06
-9.41637e-06
3.06076e-06
-1.00958e-05
3.90493e-06
-1.06472e-05
4.77451e-06
-1.09115e-05
5.63425e-06
-1.09615e-05
6.47276e-06
-1.0527e-05
7.23602e-06
-9.98177e-06
7.94304e-06
-8.74488e-06
8.50969e-06
-7.93864e-06
9.03993e-06
-5.9942e-06
9.36672e-06
-5.82923e-06
9.7977e-06
-3.80977e-06
-6.27142e-06
8.78581e-06
5.27341e-05
6.73707e-06
3.95662e-05
3.73654e-06
2.41159e-05
1.36226e-06
1.38526e-05
-7.14747e-09
4.24483e-06
-4.61931e-07
2.35872e-06
-5.54297e-07
8.68907e-07
-6.59031e-07
1.47594e-06
-7.3765e-07
1.82088e-06
-8.56833e-07
2.42609e-06
-9.95526e-07
2.92417e-06
-1.1695e-06
3.09803e-06
-1.35943e-06
3.00446e-06
-1.55663e-06
2.46101e-06
-1.73758e-06
1.51535e-06
-1.88209e-06
1.94224e-07
-1.97229e-06
-1.12564e-06
-2.00829e-06
-1.7535e-06
-2.00891e-06
-7.60774e-07
-2.01156e-06
2.11157e-06
-2.06924e-06
5.18243e-06
-2.20587e-06
6.06214e-06
-2.38296e-06
4.99991e-06
-2.54925e-06
3.68114e-06
-2.68115e-06
2.69459e-06
-2.77787e-06
2.00372e-06
-2.84481e-06
1.50785e-06
-2.8875e-06
1.12625e-06
-2.90986e-06
8.09409e-07
-2.91421e-06
5.23497e-07
-2.90144e-06
2.46455e-07
-2.8713e-06
-3.80059e-08
-2.82257e-06
-3.416e-07
-2.75319e-06
-6.73776e-07
-2.66046e-06
-1.04217e-06
-2.54114e-06
-1.45352e-06
-2.39159e-06
-1.91288e-06
-2.20779e-06
-2.42435e-06
-1.98541e-06
-2.99041e-06
-1.71995e-06
-3.61355e-06
-1.40672e-06
-4.29341e-06
-1.04119e-06
-5.03073e-06
-6.1875e-07
-5.81997e-06
-1.35715e-07
-6.65849e-06
4.11708e-07
-7.5312e-06
1.02465e-06
-8.42592e-06
1.7037e-06
-9.31162e-06
2.44415e-06
-1.01568e-05
3.24017e-06
-1.08918e-05
4.07403e-06
-1.1481e-05
4.93241e-06
-1.17699e-05
5.78028e-06
-1.18094e-05
6.60607e-06
-1.13528e-05
7.35627e-06
-1.0732e-05
8.04997e-06
-9.43857e-06
8.60363e-06
-8.4923e-06
9.12151e-06
-6.51208e-06
9.43622e-06
-6.14394e-06
9.85187e-06
-4.22542e-06
-6.364e-06
9.00427e-06
5.37298e-05
7.22161e-06
4.13488e-05
4.39662e-06
2.69409e-05
1.90671e-06
1.63425e-05
2.3839e-07
5.91315e-06
-3.70353e-07
2.96746e-06
-5.14756e-07
1.01331e-06
-6.24208e-07
1.58539e-06
-6.96217e-07
1.89289e-06
-8.0423e-07
2.53411e-06
-9.29446e-07
3.04939e-06
-1.09143e-06
3.26001e-06
-1.27285e-06
3.18589e-06
-1.46776e-06
2.65591e-06
-1.65482e-06
1.70241e-06
-1.81505e-06
3.54457e-07
-1.92803e-06
-1.01266e-06
-1.98499e-06
-1.69654e-06
-1.99008e-06
-7.55678e-07
-1.96932e-06
2.09081e-06
-1.98269e-06
5.19579e-06
-2.07623e-06
6.15568e-06
-2.22358e-06
5.14726e-06
-2.3707e-06
3.82826e-06
-2.48938e-06
2.81327e-06
-2.57595e-06
2.09028e-06
-2.63434e-06
1.56624e-06
-2.66949e-06
1.1614e-06
-2.68508e-06
8.24998e-07
-2.68338e-06
5.21799e-07
-2.66531e-06
2.2838e-07
-2.63064e-06
-7.26664e-08
-2.5782e-06
-3.9404e-07
-2.50597e-06
-7.46006e-07
-2.41128e-06
-1.13687e-06
-2.29093e-06
-1.57386e-06
-2.1413e-06
-2.06251e-06
-1.95838e-06
-2.60727e-06
-1.73782e-06
-3.21097e-06
-1.47513e-06
-3.87624e-06
-1.16559e-06
-4.60295e-06
-8.04634e-07
-5.39168e-06
-3.87597e-07
-6.23701e-06
8.92717e-08
-7.13536e-06
6.29767e-07
-8.07169e-06
1.2351e-06
-9.03125e-06
1.90578e-06
-9.9823e-06
2.63717e-06
-1.08882e-05
3.42328e-06
-1.16779e-05
4.24652e-06
-1.23043e-05
5.09333e-06
-1.26167e-05
5.92893e-06
-1.2645e-05
6.74153e-06
-1.21654e-05
7.47824e-06
-1.14687e-05
8.15803e-06
-1.01184e-05
8.6983e-06
-9.03257e-06
9.20309e-06
-7.01687e-06
9.50555e-06
-6.44639e-06
9.90513e-06
-4.62499e-06
-6.43382e-06
9.19306e-06
5.45368e-05
7.66233e-06
4.28796e-05
5.04129e-06
2.95619e-05
2.49257e-06
1.88912e-05
5.76837e-07
7.82888e-06
-2.30962e-07
3.77526e-06
-4.61039e-07
1.24339e-06
-5.82444e-07
1.70679e-06
-6.50195e-07
1.96064e-06
-7.48098e-07
2.63201e-06
-8.60187e-07
3.16148e-06
-1.01002e-06
3.40984e-06
-1.18231e-06
3.35819e-06
-1.37384e-06
2.84743e-06
-1.56549e-06
1.89407e-06
-1.73961e-06
5.28581e-07
-1.87353e-06
-8.78739e-07
-1.95021e-06
-1.61987e-06
-1.96017e-06
-7.45716e-07
-1.91873e-06
2.04936e-06
-1.89132e-06
5.16839e-06
-1.94366e-06
6.20802e-06
-2.06138e-06
5.26497e-06
-2.18891e-06
3.95579e-06
-2.29397e-06
2.91833e-06
-2.37007e-06
2.16639e-06
-2.4197e-06
1.61587e-06
-2.44714e-06
1.18883e-06
-2.45582e-06
8.33684e-07
-2.44797e-06
5.13943e-07
-2.42449e-06
2.04901e-07
-2.38521e-06
-1.11941e-07
-2.32899e-06
-4.50267e-07
-2.25384e-06
-8.21157e-07
-2.15713e-06
-1.23358e-06
-2.03571e-06
-1.69528e-06
-1.88597e-06
-2.21226e-06
-1.7039e-06
-2.78934e-06
-1.48517e-06
-3.42969e-06
-1.22526e-06
-4.13615e-06
-9.19432e-07
-4.90878e-06
-5.63097e-07
-5.74802e-06
-1.51536e-07
-6.64857e-06
3.19068e-07
-7.60596e-06
8.52496e-07
-8.60512e-06
1.45003e-06
-9.62878e-06
2.11213e-06
-1.06444e-05
2.83421e-06
-1.16103e-05
3.61015e-06
-1.24539e-05
4.42246e-06
-1.31166e-05
5.25736e-06
-1.34516e-05
6.08031e-06
-1.34679e-05
6.87928e-06
-1.29644e-05
7.60204e-06
-1.21914e-05
8.26738e-06
-1.07837e-05
8.79383e-06
-9.55902e-06
9.28488e-06
-7.50792e-06
9.57482e-06
-6.73634e-06
9.95774e-06
-5.00791e-06
-6.4822e-06
9.35625e-06
5.51805e-05
8.06037e-06
4.41754e-05
5.66295e-06
3.19594e-05
3.10946e-06
2.14447e-05
9.94948e-07
9.94339e-06
-4.09449e-08
4.81115e-06
-3.86943e-07
1.58938e-06
-5.31697e-07
1.85155e-06
-5.9875e-07
2.0277e-06
-6.8803e-07
2.72129e-06
-7.87545e-07
3.26099e-06
-9.25175e-07
3.54747e-06
-1.08777e-06
3.52078e-06
-1.27483e-06
3.03449e-06
-1.46951e-06
2.08875e-06
-1.65561e-06
7.14683e-07
-1.80856e-06
-7.25789e-07
-1.90378e-06
-1.52465e-06
-1.91919e-06
-7.30301e-07
-1.85996e-06
1.99013e-06
-1.79537e-06
5.1038e-06
-1.80838e-06
6.22103e-06
-1.89658e-06
5.35317e-06
-2.00411e-06
4.06332e-06
-2.09511e-06
3.00933e-06
-2.16043e-06
2.23171e-06
-2.20106e-06
1.6565e-06
-2.22062e-06
1.20839e-06
-2.22226e-06
8.3533e-07
-2.20813e-06
4.99815e-07
-2.17915e-06
1.75919e-07
-2.13517e-06
-1.55919e-07
-2.07508e-06
-5.10358e-07
-1.99695e-06
-8.99292e-07
-1.89817e-06
-1.33235e-06
-1.77564e-06
-1.81782e-06
-1.62574e-06
-2.36215e-06
-1.4445e-06
-2.97058e-06
-1.22759e-06
-3.64661e-06
-9.70465e-07
-4.39327e-06
-6.68375e-07
-5.21087e-06
-3.16696e-07
-6.0997e-06
8.9331e-08
-7.05459e-06
5.5358e-07
-8.07021e-06
1.07981e-06
-9.13135e-06
1.66937e-06
-1.02183e-05
2.32271e-06
-1.12977e-05
3.03526e-06
-1.23228e-05
3.80078e-06
-1.32194e-05
4.60189e-06
-1.39177e-05
5.42456e-06
-1.42743e-05
6.2345e-06
-1.42779e-05
7.0194e-06
-1.37493e-05
7.72776e-06
-1.28998e-05
8.37814e-06
-1.14341e-05
8.89033e-06
-1.00712e-05
9.36701e-06
-7.9846e-06
9.64412e-06
-7.01345e-06
1.00099e-05
-5.3737e-06
-6.51021e-06
9.49747e-06
5.56831e-05
8.4175e-06
4.52554e-05
6.25558e-06
3.41213e-05
3.74662e-06
2.39537e-05
1.4837e-06
1.22063e-05
2.30205e-07
6.06465e-06
-2.84369e-07
2.10396e-06
-4.68874e-07
2.03605e-06
-5.40669e-07
2.09949e-06
-6.23417e-07
2.80404e-06
-7.11195e-07
3.34877e-06
-8.36719e-07
3.67299e-06
-9.89111e-07
3.67317e-06
-1.17067e-06
3.21605e-06
-1.3668e-06
2.28488e-06
-1.5629e-06
9.10787e-07
-1.73291e-06
-5.55778e-07
-1.8455e-06
-1.41206e-06
-1.8671e-06
-7.08709e-07
-1.79309e-06
1.91612e-06
-1.69493e-06
5.00564e-06
-1.67051e-06
6.19661e-06
-1.72935e-06
5.41201e-06
-1.81646e-06
4.15044e-06
-1.89299e-06
3.08586e-06
-1.94719e-06
2.28591e-06
-1.97859e-06
1.68789e-06
-1.99008e-06
1.21988e-06
-1.98454e-06
8.29797e-07
-1.96403e-06
4.79299e-07
-1.92945e-06
1.41336e-07
-1.88068e-06
-2.04684e-07
-1.81665e-06
-5.74389e-07
-1.73546e-06
-9.80478e-07
-1.63457e-06
-1.43325e-06
-1.51086e-06
-1.94152e-06
-1.36078e-06
-2.51223e-06
-1.18035e-06
-3.15101e-06
-9.6523e-07
-3.86173e-06
-7.10894e-07
-4.64761e-06
-4.12554e-07
-5.50921e-06
-6.55576e-08
-6.44669e-06
3.34886e-07
-7.45504e-06
7.92697e-07
-8.52802e-06
1.31162e-06
-9.65027e-06
1.89307e-06
-1.07998e-05
2.53746e-06
-1.19421e-05
3.24028e-06
-1.30257e-05
3.99517e-06
-1.39743e-05
4.78481e-06
-1.47073e-05
5.59494e-06
-1.50844e-05
6.39152e-06
-1.50744e-05
7.16195e-06
-1.45197e-05
7.85548e-06
-1.35933e-05
8.49038e-06
-1.2069e-05
8.98786e-06
-1.05687e-05
9.44961e-06
-8.44635e-06
9.71355e-06
-7.27739e-06
1.00618e-05
-5.72195e-06
-6.51876e-06
9.61999e-06
5.60631e-05
8.73601e-06
4.61394e-05
6.8146e-06
3.60427e-05
4.39356e-06
2.63747e-05
2.03059e-06
1.45693e-05
5.62524e-07
7.53271e-06
-1.39531e-07
2.80601e-06
-3.89373e-07
2.28589e-06
-4.74217e-07
2.18433e-06
-5.5338e-07
2.8832e-06
-6.30659e-07
3.42605e-06
-7.44374e-07
3.78671e-06
-8.86189e-07
3.81498e-06
-1.06125e-06
3.39111e-06
-1.25727e-06
2.4809e-06
-1.46136e-06
1.11488e-06
-1.64641e-06
-3.70729e-07
-1.77522e-06
-1.28325e-06
-1.80378e-06
-6.80146e-07
-1.71806e-06
1.83039e-06
-1.58997e-06
4.87755e-06
-1.53011e-06
6.13674e-06
-1.55982e-06
5.44171e-06
-1.62612e-06
4.21674e-06
-1.68775e-06
3.14749e-06
-1.7305e-06
2.32866e-06
-1.75241e-06
1.7098e-06
-1.75566e-06
1.22313e-06
-1.74281e-06
8.16949e-07
-1.7158e-06
4.52287e-07
-1.67552e-06
1.01059e-07
-1.62188e-06
-2.58319e-07
-1.55384e-06
-6.42431e-07
-1.46954e-06
-1.06478e-06
-1.36647e-06
-1.53632e-06
-1.24156e-06
-2.06643e-06
-1.09125e-06
-2.66254e-06
-9.11591e-07
-3.33067e-06
-6.98253e-07
-4.07507e-06
-4.46693e-07
-4.89917e-06
-1.5211e-07
-5.8038e-06
1.90184e-07
-6.78899e-06
5.85e-07
-7.84985e-06
1.0363e-06
-8.97932e-06
1.54781e-06
-1.01618e-05
2.12102e-06
-1.1373e-05
2.75632e-06
-1.25774e-05
3.44924e-06
-1.37186e-05
4.19328e-06
-1.47183e-05
4.97122e-06
-1.54853e-05
5.76854e-06
-1.58817e-05
6.5514e-06
-1.58573e-05
7.30696e-06
-1.52752e-05
7.98523e-06
-1.42716e-05
8.60415e-06
-1.26879e-05
9.08648e-06
-1.1051e-05
9.53276e-06
-8.89263e-06
9.78314e-06
-7.52777e-06
1.01135e-05
-6.05234e-06
-6.50863e-06
9.72667e-06
5.63364e-05
9.01858e-06
4.68475e-05
7.33668e-06
3.77246e-05
5.04042e-06
2.8671e-05
2.62368e-06
1.6986e-05
9.58516e-07
9.19787e-06
5.76089e-08
3.70692e-06
-2.86709e-07
2.63021e-06
-3.96937e-07
2.29456e-06
-4.76698e-07
2.96296e-06
-5.4527e-07
3.49462e-06
-6.47741e-07
3.88918e-06
-7.78766e-07
3.94601e-06
-9.46447e-07
3.55879e-06
-1.14082e-06
2.67528e-06
-1.35088e-06
1.32494e-06
-1.5489e-06
-1.72706e-07
-1.69275e-06
-1.13941e-06
-1.72909e-06
-6.43805e-07
-1.63472e-06
1.73602e-06
-1.48038e-06
4.72322e-06
-1.38716e-06
6.04352e-06
-1.38806e-06
5.44261e-06
-1.4332e-06
4.26188e-06
-1.47951e-06
3.1938e-06
-1.51047e-06
2.35962e-06
-1.52265e-06
1.72198e-06
-1.51748e-06
1.21796e-06
-1.49718e-06
7.9665e-07
-1.46357e-06
4.18669e-07
-1.4175e-06
5.49985e-08
-1.35892e-06
-3.16901e-07
-1.2868e-06
-7.14551e-07
-1.19933e-06
-1.15224e-06
-1.09403e-06
-1.64162e-06
-9.67863e-07
-2.1926e-06
-8.17296e-07
-2.81311e-06
-6.38385e-07
-3.50958e-06
-4.26806e-07
-4.28665e-06
-1.78012e-07
-5.14796e-06
1.12815e-07
-6.09462e-06
4.5039e-07
-7.12656e-06
8.39538e-07
-8.239e-06
1.28426e-06
-9.42404e-06
1.78827e-06
-1.06658e-05
2.35313e-06
-1.19379e-05
2.97921e-06
-1.32035e-05
3.66206e-06
-1.44014e-05
4.39508e-06
-1.54513e-05
5.1611e-06
-1.62513e-05
5.94533e-06
-1.6666e-05
6.71416e-06
-1.66262e-05
7.45445e-06
-1.60155e-05
8.11703e-06
-1.49342e-05
8.71951e-06
-1.32904e-05
9.18623e-06
-1.15177e-05
9.61651e-06
-9.32291e-06
9.85297e-06
-7.76423e-06
1.01652e-05
-6.36456e-06
-6.4805e-06
9.82004e-06
5.65164e-05
9.26813e-06
4.73994e-05
7.81971e-06
3.9173e-05
5.67824e-06
3.08124e-05
3.25205e-06
1.94122e-05
1.41674e-06
1.10332e-05
3.0576e-07
4.8179e-06
-1.5268e-07
3.08865e-06
-3.054e-07
2.44728e-06
-3.91682e-07
3.04924e-06
-4.54118e-07
3.55706e-06
-5.46272e-07
3.98133e-06
-6.66507e-07
4.06624e-06
-8.26044e-07
3.71833e-06
-1.01733e-06
2.86656e-06
-1.23134e-06
1.53895e-06
-1.44025e-06
3.62032e-08
-1.59791e-06
-9.81751e-07
-1.6428e-06
-5.98916e-07
-1.5428e-06
1.63602e-06
-1.36591e-06
4.54633e-06
-1.24154e-06
5.91915e-06
-1.21409e-06
5.41516e-06
-1.2378e-06
4.28559e-06
-1.26838e-06
3.22438e-06
-1.28722e-06
2.37846e-06
-1.28943e-06
1.72419e-06
-1.27566e-06
1.20419e-06
-1.24778e-06
7.68771e-07
-1.20746e-06
3.78346e-07
-1.15553e-06
3.07125e-09
-1.09193e-06
-3.80501e-07
-1.01567e-06
-7.90811e-07
-9.24976e-07
-1.24294e-06
-8.17401e-07
-1.7492e-06
-6.89937e-07
-2.32007e-06