/*--------------------------------*- C++ -*----------------------------------*\
| =========                 |                                                 |
| \\      /  F ield         | OpenFOAM: The Open Source CFD Toolbox           |
|  \\    /   O peration     | Version:  2.4.0                                 |
|   \\  /    A nd           | Web:      www.OpenFOAM.org                      |
|    \\/     M anipulation  |                                                 |
\*---------------------------------------------------------------------------*/
FoamFile
{
    version     2.0;
    format      ascii;
    class       surfaceScalarField;
    location    "0.4";
    object      phi;
}
// * * * * * * * * * * * * * * * * * * * * * * * * * * * * * * * * * * * * * //

dimensions      [0 3 -1 0 0 0 0];

internalField   nonuniform List<scalar> 
760
(
0.000163967
3.60332e-05
0.000149463
1.45041e-05
0.000147379
2.08377e-06
0.000148043
-6.63648e-07
0.000147908
1.34268e-07
0.000147831
7.74912e-08
0.000147832
-7.25812e-10
0.000147835
-3.39979e-09
0.000147835
-1.3889e-10
0.000147835
1.20506e-10
0.000147835
-8.73135e-13
0.000147835
-1.7673e-11
0.000147835
1.56567e-11
0.000147835
-1.24097e-11
0.000147835
6.5994e-11
0.000147835
-1.74523e-10
0.000147835
2.38354e-10
0.000147835
-3.0709e-10
0.000147835
1.19977e-10
1.02391e-09
0.000201015
3.50183e-05
0.000200998
1.45208e-05
0.000201094
1.98798e-06
0.000201119
-6.88856e-07
0.000201118
1.35229e-07
0.000201118
7.79787e-08
0.000201118
-1.12412e-09
0.000201118
-3.4258e-09
0.000201118
-1.23508e-10
0.000201118
1.22704e-10
0.000201118
-3.21838e-12
0.000201118
-1.88435e-11
0.000201118
1.6925e-11
0.000201118
-1.02204e-11
0.000201118
6.27213e-11
0.000201118
-1.77187e-10
0.000201118
2.53016e-10
0.000201118
-3.45825e-10
0.000201118
1.77873e-10
1.12819e-09
0.000204308
3.07098e-05
0.000205986
1.28429e-05
0.000206174
1.80059e-06
0.000206069
-5.84108e-07
0.000206086
1.18459e-07
0.000206094
6.98973e-08
0.000206094
-8.20145e-10
0.000206093
-3.01563e-09
0.000206093
-1.08877e-10
0.000206093
1.08867e-10
0.000206093
-3.34261e-12
0.000206093
-1.71173e-11
0.000206093
1.52135e-11
0.000206093
-8.29194e-12
0.000206093
5.4267e-11
0.000206093
-1.55773e-10
0.000206093
2.22177e-10
0.000206093
-3.02261e-10
0.000206093
1.61326e-10
9.93544e-10
0.000204476
2.62341e-05
0.00020628
1.10384e-05
0.000206488
1.59238e-06
0.000206383
-4.78377e-07
0.0002064
1.01046e-07
0.000206409
6.08226e-08
0.000206409
-5.19224e-10
0.000206408
-2.57827e-09
0.000206408
-9.42387e-11
0.000206408
9.3949e-11
0.000206408
-3.17442e-12
0.000206408
-1.51824e-11
0.000206408
1.32169e-11
0.000206408
-6.58662e-12
0.000206408
4.6045e-11
0.000206408
-1.33357e-10
0.000206409
1.88961e-10
0.000206408
-2.5317e-10
0.000206408
1.3506e-10
8.39321e-10
0.000204441
2.17929e-05
0.000206263
9.21652e-06
0.000206494
1.36182e-06
0.000206398
-3.82465e-07
0.000206415
8.38809e-08
0.000206424
5.13082e-08
0.000206424
-2.95874e-10
0.000206424
-2.1426e-09
0.000206424
-7.88745e-11
0.000206424
7.9046e-11
0.000206424
-3.01673e-12
0.000206424
-1.32242e-11
0.000206424
1.12241e-11
0.000206424
-4.98951e-12
0.000206424
3.80956e-11
0.000206424
-1.11278e-10
0.000206424
1.56545e-10
0.000206424
-2.06372e-10
0.000206424
1.08556e-10
6.87896e-10
0.000204404
1.73892e-05
0.000206236
7.38475e-06
0.000206485
1.11221e-06
0.000206398
-2.95363e-07
0.000206415
6.69154e-08
0.000206425
4.14483e-08
0.000206425
-1.44902e-10
0.000206424
-1.71024e-09
0.000206424
-6.29072e-11
0.000206424
6.42374e-11
0.000206424
-2.88e-12
0.000206424
-1.1303e-11
0.000206424
9.24609e-12
0.000206424
-3.43412e-12
0.000206424
3.03628e-11
0.000206424
-8.95539e-11
0.000206424
1.2494e-10
0.000206424
-1.6189e-10
0.000206424
8.24747e-11
5.40134e-10
0.000204374
1.30155e-05
0.000206213
5.54526e-06
0.000206478
8.474e-07
0.000206398
-2.15332e-07
0.000206415
5.00847e-08
0.000206425
3.13157e-08
0.000206425
-5.45192e-11
0.000206424
-1.28061e-09
0.000206424
-4.64681e-11
0.000206424
4.94959e-11
0.000206424
-2.77812e-12
0.000206424
-9.40996e-12
0.000206424
7.29558e-12
0.000206424
-1.91234e-12
0.000206424
2.27912e-11
0.000206424
-6.81088e-11
0.000206424
9.39672e-11
0.000206424
-1.19237e-10
0.000206424
5.68336e-11
3.95454e-10
0.000204351
8.66452e-06
0.000206196
3.70002e-06
0.000206472
5.71235e-07
0.000206398
-1.40602e-07
0.000206414
3.33413e-08
0.000206425
2.09807e-08
0.000206425
-1.09037e-11
0.000206424
-8.53161e-10
0.000206424
-2.9689e-11
0.000206424
3.48142e-11
0.000206424
-2.71037e-12
0.000206424
-7.55358e-12
0.000206424
5.37153e-12
0.000206424
-3.96435e-13
0.000206424
1.53232e-11
0.000206424
-4.68635e-11
0.000206424
6.34401e-11
0.000206424
-7.79214e-11
0.000206424
3.16208e-11
2.53214e-10
0.000204336
4.32851e-06
0.000206185
1.85095e-06
0.000206469
2.87515e-07
0.000206398
-6.94041e-08
0.000206414
1.66495e-08
0.000206425
1.05118e-08
0.000206425
8.57205e-13
0.000206424
-4.27239e-10
0.000206424
-1.26817e-11
0.000206424
2.01826e-11
0.000206424
-2.6793e-12
0.000206424
-5.73737e-12
0.000206424
3.47778e-12
0.000206424
1.13127e-12
0.000206424
7.90465e-12
0.000206424
-2.57385e-11
0.000206424
3.31791e-11
0.000206424
-3.7469e-11
0.000206424
6.82572e-12
1.12779e-10
0.000204329
3.57015e-13
0.000206179
-1.12516e-11
0.000206467
2.39525e-11
0.000206398
2.79197e-11
0.000206414
-1.81301e-11
0.000206425
-2.32509e-11
0.000206425
-3.5368e-12
0.000206424
-2.18166e-12
0.000206424
4.44794e-12
0.000206424
5.59417e-12
0.000206424
-2.68582e-12
0.000206424
-3.9641e-12
0.000206424
1.61567e-12
0.000206424
2.68995e-12
0.000206424
4.82162e-13
0.000206424
-4.65545e-12
0.000206424
3.01068e-12
0.000206424
2.57855e-12
0.000206424
-1.7561e-11
-2.64724e-11
0.000204329
-4.32851e-06
0.000206179
-1.85098e-06
0.000206467
-2.87468e-07
0.000206398
6.94589e-08
0.000206414
-1.6685e-08
0.000206425
-1.05574e-08
0.000206425
-8.0101e-12
0.000206424
4.22697e-10
0.000206424
2.15989e-11
0.000206424
-8.95719e-12
0.000206424
-2.73014e-12
0.000206424
-2.23631e-12
0.000206424
-2.13674e-13
0.000206424
4.2978e-12
0.000206424
-6.99653e-12
0.000206424
1.64624e-11
0.000206424
-2.72339e-11
0.000206424
4.26682e-11
0.000206424
-4.15484e-11
-1.65159e-10
0.000204336
-8.66452e-06
0.000206185
-3.70004e-06
0.000206469
-5.7119e-07
0.000206398
1.40654e-07
0.000206414
-3.33745e-08
0.000206425
-2.10235e-08
0.000206425
3.51462e-12
0.000206424
8.48082e-10
0.000206424
3.86697e-11
0.000206424
-2.34773e-11
0.000206424
-2.81192e-12
0.000206424
-5.56371e-13
0.000206424
-2.00944e-12
0.000206424
5.97238e-12
0.000206424
-1.45826e-11
0.000206424
3.76895e-11
0.000206424
-5.77154e-11
0.000206424
8.32327e-11
0.000206424
-6.51432e-11
-3.03891e-10
0.000204351
-1.30155e-05
0.000206196
-5.54528e-06
0.000206472
-8.47359e-07
0.000206398
2.15379e-07
0.000206414
-5.01143e-08
0.000206425
-3.1354e-08
0.000206425
4.67395e-11
0.000206424
1.27465e-09
0.000206424
5.5554e-11
0.000206424
-3.79731e-11
0.000206424
-2.93042e-12
0.000206424
1.07349e-12
0.000206424
-3.7711e-12
0.000206424
7.73105e-12
0.000206424
-2.23262e-11
0.000206424
5.90973e-11
0.000206424
-8.85897e-11
0.000206424
1.247e-10
0.000206424
-8.83539e-11
-4.4328e-10
0.000204374
-1.73892e-05
0.000206213
-7.38477e-06
0.000206478
-1.11217e-06
0.000206398
2.95404e-07
0.000206415
-6.694e-08
0.000206425
-4.14803e-08
0.000206425
1.36588e-10
0.000206424
1.70306e-09
0.000206424
7.21371e-11
0.000206424
-5.24531e-11
0.000206424
-3.08561e-12
0.000206424
2.65205e-12
0.000206424
-5.49857e-12
0.000206424
9.59126e-12
0.000206424
-3.02771e-11
0.000206424
8.07542e-11
0.000206424
-1.20009e-10
0.000206424
1.67496e-10
0.000206424
-1.11191e-10
-5.83933e-10
0.000204404
-2.17929e-05
0.000206236
-9.21653e-06
0.000206485
-1.36179e-06
0.000206398
3.82497e-07
0.000206415
-8.38994e-08
0.000206425
-5.13325e-08
0.000206425
2.86888e-10
0.000206424
2.13391e-09
0.000206424
8.82884e-11
0.000206424
-6.69286e-11
0.000206424
-3.27374e-12
0.000206424
4.17368e-12
0.000206424
-7.19194e-12
0.000206424
1.15717e-11
0.000206424
-3.84829e-11
0.000206424
1.02723e-10
0.000206424
-1.5212e-10
0.000206424
2.12044e-10
0.000206424
-1.33667e-10
-7.26457e-10
0.000204441
-2.62341e-05
0.000206263
-1.10384e-05
0.000206494
-1.59236e-06
0.000206398
4.78399e-07
0.000206415
-1.01057e-07
0.000206424
-6.08378e-08
0.000206424
5.0945e-10
0.000206424
2.56776e-09
0.000206424
1.03866e-10
0.000206424
-8.14139e-11
0.000206424
-3.49893e-12
0.000206424
5.64272e-12
0.000206424
-8.84799e-12
0.000206424
1.36849e-11
0.000206424
-4.69941e-11
0.000206424
1.25066e-10
0.000206424
-1.85059e-10
0.000206424
2.58748e-10
0.000206424
-1.5577e-10
-8.71386e-10
0.000204476
-3.07098e-05
0.00020628
-1.28429e-05
0.000206488
-1.80058e-06
0.000206383
5.84118e-07
0.0002064
-1.18463e-07
0.000206409
-6.99024e-08
0.000206409
8.09507e-10
0.000206408
3.00308e-09
0.000206408
1.18738e-10
0.000206408
-9.58768e-11
0.000206408
-3.76046e-12
0.000206408
7.03873e-12
0.000206408
-1.04653e-11
0.000206408
1.5965e-11
0.000206408
-5.58453e-11
0.000206408
1.47751e-10
0.000206409
-2.18765e-10
0.000206408
3.07485e-10
0.000206408
-1.76841e-10
-1.0178e-09
0.000204308
-3.50183e-05
0.000205986
-1.45208e-05
0.000206174
-1.98798e-06
0.000206069
6.88852e-07
0.000206086
-1.35225e-07
0.000206094
-7.79732e-08
0.000206094
1.11275e-09
0.000206093
3.41126e-09
0.000206093
1.33364e-10
0.000206093
-1.09357e-10
0.000206093
-4.15057e-12
0.000206093
8.29922e-12
0.000206093
-1.19028e-11
0.000206093
1.84037e-11
0.000206093
-6.4882e-11
0.000206093
1.69516e-10
0.000206093
-2.50072e-10
0.000206093
3.50319e-10
0.000206093
-1.87428e-10
-1.14331e-09
0.000201015
-3.60332e-05
0.000200998
-1.45041e-05
0.000201094
-2.08378e-06
0.000201119
6.63633e-07
0.000201118
-1.34259e-07
0.000201118
-7.74783e-08
0.000201118
7.16209e-10
0.000201118
3.38577e-09
0.000201118
1.46614e-10
0.000201118
-1.0887e-10
0.000201118
-5.05791e-12
0.000201118
8.36331e-12
0.000201118
-1.15904e-11
0.000201118
1.97081e-11
0.000201118
-6.794e-11
0.000201118
1.683e-10
0.000201118
-2.36332e-10
0.000201118
3.102e-10
0.000201118
-1.23107e-10
-1.02935e-09
0.000163967
0.000149463
0.000147379
0.000148043
0.000147908
0.000147831
0.000147832
0.000147835
0.000147835
0.000147835
0.000147835
0.000147835
0.000147835
0.000147835
0.000147835
0.000147835
0.000147835
0.000147835
0.000147835
)
;

boundaryField
{
    inlet
    {
        type            calculated;
        value           nonuniform List<scalar> 
20
(
-0.0002
-0.0002
-0.0002
-0.0002
-0.0002
-0.0002
-0.0002
-0.0002
-0.0002
-0.0002
-0.0002
-0.0002
-0.0002
-0.0002
-0.0002
-0.0002
-0.0002
-0.0002
-0.0002
-0.0002
)
;
    }
    outlet
    {
        type            calculated;
        value           nonuniform List<scalar> 
20
(
0.000147834
0.000201118
0.000206093
0.000206409
0.000206424
0.000206424
0.000206424
0.000206424
0.000206424
0.000206424
0.000206424
0.000206424
0.000206424
0.000206424
0.000206424
0.000206424
0.000206409
0.000206093
0.000201118
0.000147834
)
;
    }
    fixedWalls
    {
        type            calculated;
        value           uniform 0;
    }
    frontAndBack
    {
        type            empty;
        value           nonuniform 0();
    }
}


// ************************************************************************* //
