/*--------------------------------*- C++ -*----------------------------------*\
| =========                 |                                                 |
| \\      /  F ield         | OpenFOAM: The Open Source CFD Toolbox           |
|  \\    /   O peration     | Version:  2.4.0                                 |
|   \\  /    A nd           | Web:      www.OpenFOAM.org                      |
|    \\/     M anipulation  |                                                 |
\*---------------------------------------------------------------------------*/
FoamFile
{
    version     2.0;
    format      ascii;
    class       volScalarField;
    location    "4.97";
    object      p;
}
// * * * * * * * * * * * * * * * * * * * * * * * * * * * * * * * * * * * * * //

dimensions      [0 2 -2 0 0 0 0];

internalField   nonuniform List<scalar> 
6000
(
0.0496897
0.278856
0.275806
0.299136
0.304576
0.312257
0.315294
0.318909
0.320845
0.322925
0.324315
0.325716
0.326824
0.32792
0.328903
0.329892
0.330861
0.331866
0.332908
0.334023
0.335223
0.336536
0.337982
0.339587
0.341376
0.343373
0.345604
0.348095
0.350871
0.353954
0.357363
0.361114
0.365214
0.369665
0.374457
0.379567
0.384954
0.390564
0.396316
0.402119
0.407835
0.413342
0.41846
0.42305
0.426711
0.429405
0.430674
0.430708
0.428428
0.424861
0.417256
0.40932
0.393172
0.381097
0.349028
0.336956
0.269013
0.27502
0.111691
0.196339
0.064709
0.277071
0.275849
0.298987
0.304493
0.31217
0.315237
0.318856
0.320807
0.32289
0.324289
0.325693
0.326806
0.327906
0.328892
0.329884
0.330854
0.33186
0.332904
0.33402
0.335222
0.336535
0.337982
0.339588
0.341377
0.343375
0.345607
0.348099
0.350876
0.35396
0.357371
0.361124
0.365226
0.36968
0.374472
0.379582
0.384968
0.390576
0.396325
0.40212
0.407826
0.413319
0.418419
0.422996
0.426652
0.429336
0.430589
0.430597
0.428289
0.424674
0.417032
0.409015
0.392828
0.380605
0.348539
0.336154
0.268425
0.273618
0.111025
0.19373
0.0785534
0.274995
0.275946
0.29887
0.304421
0.312103
0.315188
0.318814
0.320774
0.322862
0.324266
0.325674
0.32679
0.327893
0.328881
0.329875
0.330847
0.331855
0.3329
0.334017
0.335219
0.336534
0.337981
0.339588
0.341377
0.343376
0.345608
0.348101
0.350877
0.353962
0.357373
0.361126
0.365229
0.369682
0.374474
0.379582
0.384966
0.39057
0.396311
0.402095
0.407785
0.413257
0.418332
0.422886
0.426536
0.429211
0.430452
0.430442
0.428109
0.424459
0.41678
0.408701
0.392472
0.380137
0.348045
0.335422
0.267758
0.272364
0.110154
0.191426
0.0900217
0.272818
0.276085
0.298779
0.304367
0.312048
0.315146
0.318778
0.320744
0.322837
0.324245
0.325656
0.326775
0.32788
0.328871
0.329866
0.33084
0.331848
0.332895
0.334012
0.335215
0.33653
0.337978
0.339585
0.341374
0.343372
0.345604
0.348096
0.350873
0.353956
0.357367
0.361118
0.36522
0.36967
0.374459
0.379563
0.38494
0.390535
0.396263
0.402031
0.4077
0.413147
0.41819
0.42271
0.426344
0.429012
0.430243
0.430221
0.427872
0.424198
0.416487
0.408364
0.392092
0.379672
0.347539
0.334733
0.267079
0.271231
0.109254
0.189525
0.100008
0.270645
0.276247
0.298712
0.30433
0.312002
0.31511
0.318745
0.320718
0.322814
0.324226
0.32564
0.326761
0.327868
0.328861
0.329857
0.330832
0.331841
0.332888
0.334006
0.335209
0.336525
0.337972
0.339578
0.341367
0.343364
0.345595
0.348086
0.350861
0.353942
0.35735
0.361099
0.365196
0.369641
0.374423
0.379518
0.384884
0.390465
0.396176
0.401923
0.407568
0.412988
0.417998
0.422474
0.426076
0.428726
0.429943
0.429908
0.427541
0.423849
0.416113
0.407957
0.391643
0.379158
0.346977
0.334026
0.26636
0.270133
0.108333
0.187874
0.109078
0.268545
0.276417
0.298668
0.304308
0.311964
0.315081
0.318717
0.320694
0.322793
0.324208
0.325624
0.326748
0.327856
0.32885
0.329848
0.330823
0.331833
0.33288
0.333999
0.335202
0.336517
0.337964
0.339569
0.341357
0.343353
0.345582
0.348071
0.350843
0.353921
0.357324
0.361067
0.365157
0.369594
0.374365
0.379448
0.384799
0.390362
0.396053
0.401777
0.407399
0.412795
0.417774
0.422201
0.425755
0.428373
0.429561
0.429503
0.427111
0.423397
0.415631
0.407446
0.391092
0.378557
0.346322
0.333258
0.265559
0.269021
0.107358
0.186376
0.117401
0.266558
0.276589
0.298643
0.3043
0.311933
0.315058
0.318692
0.320674
0.322773
0.324191
0.325609
0.326735
0.327845
0.32884
0.329838
0.330814
0.331824
0.332872
0.33399
0.335193
0.336507
0.337954
0.339559
0.341345
0.343339
0.345566
0.348052
0.350819
0.353892
0.357289
0.361024
0.365105
0.369531
0.37429
0.379357
0.384692
0.390236
0.395908
0.401612
0.407212
0.412587
0.417538
0.421917
0.425413
0.427986
0.429131
0.429034
0.426603
0.422856
0.415049
0.406832
0.390429
0.37785
0.345553
0.332401
0.264646
0.267863
0.106297
0.184979
0.125064
0.264707
0.276763
0.298621
0.304316
0.31191
0.315041
0.318671
0.320656
0.322756
0.324176
0.325595
0.326723
0.327834
0.328829
0.329828
0.330804
0.331815
0.332862
0.33398
0.335183
0.336497
0.337943
0.339546
0.341331
0.343323
0.345547
0.348029
0.350791
0.353858
0.357247
0.360973
0.365044
0.369457
0.374203
0.379255
0.384574
0.390101
0.395754
0.40144
0.407023
0.412379
0.417303
0.421635
0.425071
0.427592
0.428684
0.428537
0.426053
0.422259
0.414399
0.406137
0.389674
0.377049
0.344675
0.331451
0.263614
0.266642
0.105127
0.183643
0.132168
0.263004
0.276936
0.298607
0.304344
0.311896
0.315031
0.318654
0.320642
0.322741
0.324163
0.325583
0.326711
0.327823
0.328819
0.329818
0.330794
0.331805
0.332852
0.33397
0.335173
0.336486
0.337931
0.339533
0.341316
0.343306
0.345526
0.348002
0.350759
0.353819
0.3572
0.360917
0.364977
0.369378
0.374111
0.37915
0.384453
0.389966
0.395603
0.401273
0.406839
0.412178
0.417077
0.421364
0.424741
0.427207
0.428242
0.428036
0.425492
0.421639
0.413714
0.405396
0.388858
0.376178
0.343712
0.330419
0.262473
0.265355
0.103848
0.182343
0.138808
0.261455
0.277105
0.298597
0.304383
0.31189
0.315026
0.318642
0.32063
0.322729
0.324152
0.325572
0.326701
0.327813
0.328809
0.329808
0.330784
0.331795
0.332842
0.33396
0.335162
0.336475
0.337919
0.339519
0.3413
0.343286
0.345502
0.347974
0.350724
0.353777
0.35715
0.360858
0.364907
0.369298
0.374019
0.379046
0.384336
0.389835
0.395458
0.401114
0.406666
0.411987
0.41686
0.421106
0.424429
0.42684
0.427815
0.427548
0.424937
0.421019
0.41302
0.404636
0.388014
0.375268
0.342696
0.329331
0.261251
0.264013
0.102475
0.181067
0.145065
0.260063
0.277266
0.298585
0.304432
0.311892
0.315028
0.318633
0.320622
0.322718
0.324142
0.325562
0.326691
0.327803
0.3288
0.329799
0.330775
0.331785
0.332832
0.33395
0.335152
0.336464
0.337906
0.339504
0.341282
0.343264
0.345476
0.347943
0.350687
0.353733
0.357098
0.360797
0.364838
0.369219
0.373929
0.378945
0.384224
0.389711
0.395322
0.400965
0.406503
0.411807
0.416655
0.420862
0.424135
0.426493
0.427409
0.42708
0.424401
0.420413
0.412336
0.403878
0.387164
0.374343
0.341653
0.32821
0.259979
0.262637
0.101035
0.179817
0.150999
0.258832
0.277416
0.29857
0.304491
0.3119
0.315037
0.318629
0.320618
0.322711
0.324134
0.325553
0.326683
0.327795
0.328791
0.32979
0.330766
0.331776
0.332823
0.33394
0.335141
0.336452
0.337892
0.339488
0.341263
0.343242
0.345449
0.34791
0.350649
0.353688
0.357047
0.360738
0.36477
0.369142
0.373843
0.378849
0.384118
0.389595
0.395195
0.400826
0.40635
0.411638
0.41646
0.420631
0.423859
0.426165
0.427025
0.426633
0.423886
0.419826
0.41167
0.403133
0.386324
0.373421
0.340608
0.327079
0.258685
0.261247
0.0995596
0.178602
0.156658
0.257761
0.277552
0.298547
0.304556
0.311914
0.315052
0.318628
0.320616
0.322706
0.324129
0.325547
0.326677
0.327788
0.328784
0.329783
0.330758
0.331768
0.332814
0.333931
0.335131
0.33644
0.337878
0.339471
0.341243
0.343218
0.345421
0.347877
0.350611
0.353644
0.356995
0.360679
0.364704
0.369069
0.373762
0.378759
0.384019
0.389486
0.395076
0.400696
0.406208
0.411478
0.416276
0.420413
0.423599
0.425857
0.426662
0.426209
0.423394
0.419263
0.411026
0.402409
0.385503
0.372512
0.339576
0.325954
0.257391
0.259861
0.0980794
0.17743
0.162078
0.256851
0.277672
0.298515
0.304627
0.311933
0.315073
0.318632
0.320619
0.322703
0.324126
0.325543
0.326672
0.327783
0.328779
0.329777
0.330752
0.331761
0.332806
0.333922
0.33512
0.336428
0.337864
0.339455
0.341223
0.343194
0.345393
0.347845
0.350573
0.3536
0.356946
0.360623
0.364641
0.368999
0.373684
0.378674
0.383927
0.389385
0.394966
0.400575
0.406074
0.411327
0.416102
0.420207
0.423355
0.425567
0.426319
0.425806
0.422926
0.418722
0.410408
0.401708
0.384708
0.371625
0.338566
0.324846
0.256116
0.258494
0.09662
0.176309
0.167289
0.256099
0.277779
0.298473
0.3047
0.311956
0.3151
0.318641
0.320625
0.322703
0.324125
0.32554
0.32667
0.32778
0.328775
0.329773
0.330747
0.331755
0.3328
0.333914
0.335111
0.336417
0.337851
0.339438
0.341203
0.343171
0.345366
0.347813
0.350536
0.353558
0.356898
0.36057
0.364581
0.368933
0.373612
0.378595
0.38384
0.389291
0.394863
0.400462
0.405948
0.411184
0.415936
0.420012
0.423124
0.425292
0.425993
0.425423
0.422479
0.418205
0.409814
0.401031
0.383939
0.370762
0.337585
0.32376
0.254872
0.257154
0.0952016
0.175243
0.172313
0.255504
0.277874
0.298419
0.304775
0.311982
0.315132
0.318652
0.320634
0.322707
0.324127
0.325541
0.326669
0.327779
0.328774
0.32977
0.330744
0.331751
0.332794
0.333907
0.335102
0.336406
0.337838
0.339423
0.341185
0.343149
0.34534
0.347783
0.350502
0.353519
0.356853
0.360519
0.364525
0.368871
0.373545
0.378522
0.38376
0.389204
0.394767
0.400357
0.40583
0.411049
0.415778
0.419825
0.422904
0.425031
0.425683
0.425057
0.422052
0.417708
0.409243
0.400378
0.383198
0.369925
0.336637
0.322703
0.253667
0.255849
0.093839
0.174231
0.177166
0.25506
0.277963
0.298351
0.304848
0.312011
0.315169
0.318668
0.320648
0.322713
0.324132
0.325543
0.326672
0.32778
0.328774
0.32977
0.330742
0.331748
0.33279
0.333902
0.335095
0.336397
0.337826
0.339409
0.341168
0.343129
0.345316
0.347755
0.350469
0.353482
0.356811
0.360472
0.364473
0.368814
0.373482
0.378454
0.383686
0.389122
0.394678
0.400258
0.405719
0.410921
0.415627
0.419647
0.422695
0.424781
0.425387
0.424706
0.421642
0.41723
0.408695
0.399747
0.382485
0.369115
0.335723
0.321675
0.252507
0.254581
0.0925422
0.173272
0.181863
0.254762
0.27805
0.298271
0.304918
0.312039
0.315211
0.318687
0.320665
0.322722
0.32414
0.325549
0.326676
0.327784
0.328777
0.329772
0.330743
0.331748
0.332788
0.333898
0.33509
0.33639
0.337817
0.339396
0.341153
0.34311
0.345294
0.347729
0.350439
0.353448
0.356773
0.360429
0.364426
0.368762
0.373425
0.378391
0.383618
0.389047
0.394595
0.400165
0.405613
0.410798
0.415482
0.419477
0.422494
0.424542
0.425103
0.424369
0.421248
0.416768
0.408166
0.399138
0.381797
0.368329
0.334844
0.320677
0.251394
0.253352
0.0913179
0.172363
0.186413
0.254605
0.278141
0.298179
0.304983
0.312068
0.315257
0.31871
0.320685
0.322733
0.32415
0.325556
0.326684
0.32779
0.328783
0.329777
0.330746
0.33175
0.332789
0.333897
0.335087
0.336385
0.33781
0.339387
0.34114
0.343095
0.345275
0.347706
0.350413
0.353417
0.356738
0.360391
0.364383
0.368714
0.373373
0.378334
0.383555
0.388978
0.394519
0.400078
0.405514
0.410682
0.415343
0.419312
0.4223
0.424311
0.424829
0.424043
0.420867
0.416322
0.407656
0.398547
0.381134
0.367568
0.333999
0.31971
0.25033
0.252163
0.0901696
0.171498
0.190826
0.25458
0.278241
0.298078
0.305041
0.312095
0.315307
0.318736
0.320709
0.322748
0.324163
0.325567
0.326694
0.3278
0.328791
0.329784
0.330752
0.331754
0.332792
0.333899
0.335087
0.336383
0.337805
0.33938
0.341131
0.343082
0.34526
0.347688
0.350391
0.353391
0.356708
0.360357
0.364345
0.368672
0.373327
0.378283
0.383499
0.388915
0.394448
0.399997
0.40542
0.41057
0.41521
0.419153
0.422113
0.424087
0.424563
0.423726
0.420498
0.415888
0.407161
0.397974
0.380494
0.36683
0.333188
0.318772
0.249316
0.251014
0.0890991
0.170675
0.195108
0.254681
0.278356
0.297969
0.30509
0.31212
0.31536
0.318765
0.320738
0.322766
0.324179
0.32558
0.326707
0.327812
0.328803
0.329794
0.330761
0.331762
0.332798
0.333903
0.33509
0.336384
0.337804
0.339376
0.341125
0.343074
0.345248
0.347673
0.350372
0.353369
0.356683
0.360328
0.364312
0.368636
0.373286
0.378238
0.383448
0.388858
0.394383
0.399922
0.405331
0.410463
0.415081
0.418999
0.421932
0.423869
0.424305
0.423417
0.420138
0.415465
0.406681
0.397416
0.379876
0.366112
0.332408
0.317862
0.248352
0.249902
0.0881066
0.169887
0.199267
0.2549
0.27849
0.297857
0.30513
0.312141
0.315416
0.318797
0.32077
0.322787
0.324198
0.325596
0.326722
0.327826
0.328817
0.329807
0.330774
0.331773
0.332808
0.333911
0.335097
0.336389
0.337807
0.339377
0.341123
0.343069
0.345241
0.347663
0.350359
0.353353
0.356663
0.360305
0.364286
0.368605
0.373251
0.378199
0.383404
0.388807
0.394323
0.399852
0.405247
0.410361
0.414956
0.41885
0.421754
0.423656
0.424051
0.423115
0.419786
0.415052
0.406213
0.396871
0.379276
0.365414
0.33166
0.316979
0.247436
0.248828
0.0871912
0.169129
0.203306
0.255227
0.278648
0.297745
0.305162
0.312158
0.315473
0.318832
0.320806
0.322811
0.32422
0.325614
0.326741
0.327844
0.328835
0.329824
0.330789
0.331787
0.332821
0.333923
0.335107
0.336398
0.337814
0.339382
0.341126
0.34307
0.345238
0.347658
0.350351
0.353342
0.356649
0.360287
0.364265
0.368581
0.373223
0.378166
0.383365
0.388762
0.39427
0.399787
0.405168
0.410263
0.414836
0.418704
0.421581
0.423447
0.423803
0.422818
0.419441
0.414646
0.405755
0.396339
0.378695
0.364735
0.33094
0.316121
0.246568
0.247789
0.0863516
0.168399
0.207233
0.255656
0.278832
0.297637
0.305185
0.31217
0.31553
0.318869
0.320846
0.322838
0.324246
0.325636
0.326762
0.327866
0.328856
0.329845
0.330809
0.331806
0.332838
0.33394
0.335122
0.336411
0.337825
0.339392
0.341133
0.343075
0.345242
0.347658
0.350349
0.353337
0.356641
0.360276
0.364251
0.368564
0.373202
0.37814
0.383334
0.388723
0.394222
0.399728
0.405093
0.410169
0.414719
0.418561
0.42141
0.423241
0.423558
0.422525
0.419102
0.414246
0.405307
0.395817
0.37813
0.364072
0.330249
0.315288
0.245747
0.246783
0.0855859
0.16769
0.211051
0.256178
0.279045
0.297537
0.3052
0.312177
0.315588
0.318909
0.32089
0.322869
0.324275
0.325661
0.326787
0.32789
0.328881
0.32987
0.330833
0.331829
0.33286
0.33396
0.335141
0.336429
0.337842
0.339407
0.341147
0.343086
0.345251
0.347665
0.350353
0.353338
0.35664
0.360272
0.364244
0.368553
0.373187
0.378121
0.383309
0.388691
0.39418
0.399673
0.405023
0.410079
0.414605
0.418421
0.421242
0.423037
0.423315
0.422234
0.418766
0.413852
0.404868
0.395304
0.37758
0.363424
0.329585
0.314478
0.244971
0.245809
0.0848918
0.167
0.214765
0.256787
0.279288
0.297448
0.30521
0.312179
0.315646
0.318951
0.320938
0.322905
0.324309
0.325689
0.326816
0.327918
0.32891
0.329898
0.330862
0.331857
0.332887
0.333986
0.335166
0.336453
0.337865
0.339428
0.341166
0.343104
0.345266
0.347678
0.350364
0.353347
0.356646
0.360276
0.364244
0.36855
0.373181
0.378109
0.383291
0.388665
0.394144
0.399625
0.404958
0.409993
0.414494
0.418283
0.421076
0.422835
0.423074
0.421946
0.418433
0.413462
0.404434
0.3948
0.377044
0.36279
0.328945
0.313689
0.24424
0.244865
0.0842671
0.166324
0.218381
0.257473
0.279562
0.297373
0.305217
0.312176
0.315702
0.318996
0.320991
0.322944
0.324347
0.325721
0.326848
0.32795
0.328943
0.329931
0.330895
0.331889
0.332919
0.334017
0.335197
0.336482
0.337893
0.339455
0.341192
0.343128
0.345288
0.347698
0.350383
0.353363
0.35666
0.360287
0.364253
0.368556
0.373182
0.378105
0.38328
0.388647
0.394115
0.399581
0.404897
0.40991
0.414386
0.418148
0.420911
0.422633
0.422834
0.421658
0.418103
0.413074
0.404007
0.394302
0.37652
0.362169
0.32833
0.312921
0.243551
0.24395
0.0837096
0.16566
0.221902
0.258232
0.279867
0.297316
0.305222
0.31217
0.315757
0.319042
0.321049
0.322989
0.32439
0.325758
0.326885
0.327986
0.32898
0.329969
0.330933
0.331927
0.332957
0.334054
0.335233
0.336518
0.337928
0.339489
0.341224
0.343159
0.345318
0.347727
0.350409
0.353388
0.356682
0.360307
0.36427
0.368569
0.373191
0.378109
0.383278
0.388635
0.394092
0.399543
0.404841
0.409831
0.414281
0.418014
0.420747
0.422432
0.422594
0.421371
0.417774
0.412689
0.403585
0.393811
0.376009
0.361561
0.327739
0.312173
0.242904
0.243062
0.0832167
0.165005
0.225334
0.259055
0.280203
0.297278
0.305227
0.312161
0.315811
0.319091
0.321111
0.323039
0.324438
0.3258
0.326926
0.328026
0.329022
0.330012
0.330977
0.331971
0.333001
0.334098
0.335276
0.336561
0.33797
0.33953
0.341265
0.343198
0.345356
0.347763
0.350444
0.353421
0.356713
0.360336
0.364296
0.368592
0.37321
0.378122
0.383283
0.388631
0.394075
0.399511
0.40479
0.409755
0.414179
0.417881
0.420583
0.42223
0.422353
0.421084
0.417445
0.412305
0.403166
0.393324
0.375508
0.360964
0.327169
0.311444
0.242297
0.2422
0.0827862
0.164357
0.228681
0.259938
0.280568
0.29726
0.305236
0.312151
0.315864
0.319142
0.321177
0.323094
0.324493
0.325847
0.326973
0.328072
0.32907
0.33006
0.331026
0.332021
0.333051
0.334148
0.335326
0.336611
0.33802
0.339579
0.341313
0.343246
0.345402
0.347808
0.350488
0.353463
0.356754
0.360374
0.364332
0.368624
0.373237
0.378144
0.383297
0.388634
0.394066
0.399485
0.404743
0.409683
0.414079
0.41775
0.42042
0.422028
0.422112
0.420795
0.417116
0.411921
0.402751
0.392843
0.375017
0.360377
0.326621
0.310733
0.24173
0.241362
0.0824159
0.163714
0.231947
0.260873
0.280962
0.297265
0.305249
0.312141
0.315917
0.319195
0.321249
0.323156
0.324555
0.325901
0.327026
0.328123
0.329123
0.330114
0.331082
0.332078
0.333108
0.334206
0.335384
0.336668
0.338077
0.339637
0.34137
0.343302
0.345458
0.347863
0.350541
0.353515
0.356805
0.360423
0.364378
0.368666
0.373275
0.378175
0.383319
0.388646
0.394063
0.399465
0.404701
0.409615
0.41398
0.41762
0.420256
0.421825
0.421869
0.420505
0.416787
0.411537
0.402338
0.392365
0.374535
0.359801
0.326094
0.31004
0.2412
0.240549
0.0821035
0.163073
0.235138
0.261857
0.281383
0.297292
0.305269
0.312134
0.31597
0.319252
0.321326
0.323225
0.324624
0.325962
0.327086
0.328181
0.329182
0.330175
0.331145
0.332142
0.333173
0.334271
0.33545
0.336734
0.338144
0.339703
0.341436
0.343367
0.345523
0.347927
0.350605
0.353578
0.356866
0.360482
0.364434
0.368719
0.373322
0.378215
0.383351
0.388666
0.394068
0.39945
0.404663
0.40955
0.413884
0.41749
0.420092
0.42162
0.421625
0.420212
0.416455
0.411153
0.401927
0.39189
0.374062
0.359234
0.325587
0.309364
0.240709
0.239758
0.0818469
0.162434
0.238257
0.262884
0.281829
0.297342
0.305297
0.31213
0.316024
0.319311
0.321409
0.323301
0.324701
0.326031
0.327153
0.328246
0.329248
0.330243
0.331215
0.332213
0.333245
0.334344
0.335524
0.336809
0.338219
0.339779
0.341512
0.343443
0.345598
0.348003
0.35068
0.353652
0.356938
0.360553
0.364502
0.368783
0.373381
0.378266
0.383392
0.388694
0.39408
0.399442
0.404631
0.409488
0.41379
0.417361
0.419927
0.421413
0.421377
0.419917
0.416122
0.410767
0.401517
0.391418
0.373598
0.358676
0.325099
0.308704
0.240254
0.238989
0.0816442
0.161795
0.241309
0.263949
0.282299
0.297414
0.305335
0.312132
0.316081
0.319375
0.321498
0.323386
0.324787
0.32611
0.32723
0.328319
0.329323
0.330318
0.331292
0.332292
0.333327
0.334427
0.335608
0.336894
0.338304
0.339865
0.341598
0.343529
0.345685
0.348089
0.350766
0.353738
0.357023
0.360636
0.364582
0.368859
0.37345
0.378328
0.383443
0.388731
0.3941
0.399441
0.404603
0.409429
0.413697
0.417231
0.41976
0.421204
0.421127
0.419618
0.415786
0.41038
0.401108
0.390949
0.37314
0.358126
0.32463
0.30806
0.239834
0.238242
0.0814932
0.161156
0.244299
0.265048
0.282791
0.297509
0.305383
0.31214
0.316141
0.319444
0.321593
0.323479
0.324883
0.326198
0.327316
0.328402
0.329406
0.330402
0.331379
0.332381
0.333417
0.334519
0.335701
0.336988
0.3384
0.339961
0.341695
0.343627
0.345783
0.348188
0.350864
0.353836
0.35712
0.360731
0.364674
0.368947
0.373532
0.378401
0.383505
0.388778
0.394128
0.399445
0.40458
0.409373
0.413606
0.417102
0.419592
0.420991
0.420873
0.419316
0.415447
0.40999
0.400699
0.390481
0.372691
0.357586
0.32418
0.307432
0.239449
0.237515
0.0813923
0.160517
0.247231
0.266177
0.283304
0.297625
0.305441
0.312156
0.316205
0.319518
0.321696
0.323582
0.32499
0.326298
0.327413
0.328495
0.329498
0.330495
0.331475
0.332479
0.333518
0.334621
0.335805
0.337094
0.338507
0.340069
0.341804
0.343737
0.345894
0.348299
0.350976
0.353947
0.35723
0.360839
0.364779
0.369047
0.373626
0.378486
0.383577
0.388834
0.394164
0.399457
0.404562
0.409321
0.413516
0.416971
0.419421
0.420775
0.420614
0.419009
0.415105
0.409598
0.40029
0.390015
0.372248
0.357053
0.323747
0.306821
0.239098
0.23681
0.0813394
0.159876
0.250109
0.267333
0.283835
0.297763
0.305512
0.31218
0.316275
0.3196
0.321807
0.323694
0.325108
0.326409
0.327522
0.328599
0.329602
0.330599
0.331581
0.332588
0.333629
0.334734
0.33592
0.337211
0.338626
0.34019
0.341926
0.34386
0.346018
0.348423
0.351101
0.354072
0.357355
0.360962
0.364899
0.369161
0.373733
0.378582
0.383661
0.388901
0.394209
0.399475
0.404548
0.409271
0.413428
0.416841
0.419248
0.420556
0.420352
0.418698
0.414758
0.409202
0.399881
0.389551
0.371811
0.356529
0.323333
0.306225
0.238781
0.236124
0.0813328
0.159233
0.252938
0.268511
0.284383
0.29792
0.305593
0.312213
0.316351
0.319688
0.321926
0.323818
0.325239
0.326535
0.327645
0.328716
0.329718
0.330715
0.331699
0.332708
0.333752
0.33486
0.336048
0.337341
0.338758
0.340323
0.342061
0.343996
0.346155
0.348562
0.351241
0.354212
0.357494
0.361099
0.365032
0.36929
0.373853
0.378692
0.383756
0.388977
0.394262
0.3995
0.40454
0.409225
0.413339
0.416708
0.419072
0.420332
0.420084
0.418381
0.414407
0.408803
0.39947
0.389087
0.371381
0.356013
0.322935
0.305644
0.238496
0.235458
0.0813706
0.158589
0.25572
0.269709
0.284946
0.298096
0.305686
0.312257
0.316434
0.319785
0.322055
0.323954
0.325383
0.326674
0.327782
0.328848
0.329848
0.330844
0.331829
0.33284
0.333887
0.334998
0.336189
0.337484
0.338904
0.340471
0.34221
0.344148
0.346308
0.348716
0.351396
0.354367
0.357648
0.361251
0.365181
0.369433
0.373988
0.378815
0.383863
0.389064
0.394324
0.399531
0.404536
0.409181
0.413252
0.416575
0.418893
0.420103
0.41981
0.418058
0.41405
0.4084
0.399058
0.388625
0.370956
0.355504
0.322555
0.30508
0.238243
0.234812
0.0814513
0.157945
0.258461
0.270924
0.285522
0.298289
0.305791
0.31231
0.316524
0.31989
0.322193
0.324102
0.325541
0.326829
0.327935
0.328995
0.329993
0.330987
0.331973
0.332986
0.334036
0.33515
0.336344
0.337642
0.339064
0.340633
0.342375
0.344314
0.346477
0.348887
0.351567
0.354539
0.357819
0.36142
0.365346
0.369591
0.374137
0.378951
0.383982
0.389162
0.394395
0.39957
0.404538
0.409139
0.413165
0.416439
0.41871
0.419869
0.419531
0.417729
0.413688
0.407993
0.398645
0.388163
0.370538
0.355004
0.322191
0.304531
0.238021
0.234186
0.0815729
0.1573
0.261164
0.272152
0.28611
0.2985
0.305906
0.312373
0.316622
0.320005
0.322342
0.324264
0.325715
0.327001
0.328105
0.32916
0.330154
0.331146
0.332133
0.333148
0.3342
0.335317
0.336514
0.337815
0.33924
0.340812
0.342556
0.344498
0.346662
0.349074
0.351756
0.354728
0.358008
0.361606
0.365528
0.369766
0.374302
0.379102
0.384115
0.389271
0.394476
0.399616
0.404544
0.4091
0.413078
0.416301
0.418522
0.419629
0.419245
0.417393
0.413319
0.40758
0.398229
0.387701
0.370124
0.354511
0.321843
0.303998
0.23783
0.233581
0.0817336
0.156655
0.263834
0.273391
0.286708
0.298726
0.306032
0.312447
0.316729
0.320129
0.322502
0.324438
0.325904
0.32719
0.328293
0.329343
0.330334
0.331323
0.332309
0.333325
0.33438
0.3355
0.3367
0.338004
0.339433
0.341008
0.342754
0.344699
0.346866
0.349279
0.351962
0.354935
0.358214
0.36181
0.365727
0.369958
0.374482
0.379267
0.384261
0.389392
0.394566
0.399669
0.404554
0.409063
0.41299
0.416161
0.41833
0.419383
0.418951
0.41705
0.412944
0.407162
0.39781
0.387239
0.369716
0.354027
0.321512
0.303482
0.237668
0.232995
0.0819317
0.156011
0.266472
0.274638
0.287315
0.298966
0.306169
0.31253
0.316844
0.320262
0.322672
0.324627
0.326109
0.327397
0.328501
0.329546
0.330533
0.331518
0.332504
0.333521
0.334578
0.3357
0.336904
0.338212
0.339643
0.341222
0.342971
0.344919
0.347088
0.349504
0.352189
0.355162
0.35844
0.362034
0.365945
0.370167
0.37468
0.379448
0.38442
0.389524
0.394666
0.39973
0.40457
0.409028
0.412902
0.416017
0.418133
0.41913
0.41865
0.416698
0.412562
0.406739
0.397388
0.386778
0.369312
0.35355
0.321196
0.302982
0.237536
0.23243
0.0821653
0.155369
0.269085
0.275891
0.287929
0.29922
0.306315
0.312624
0.316967
0.320406
0.322854
0.324829
0.32633
0.327624
0.328729
0.32977
0.330754
0.331735
0.332719
0.333736
0.334795
0.33592
0.337127
0.338439
0.339874
0.341456
0.343208
0.345159
0.347331
0.349749
0.352436
0.355409
0.358686
0.362277
0.366182
0.370395
0.374895
0.379646
0.384594
0.389669
0.394775
0.399797
0.40459
0.408995
0.412813
0.41587
0.417929
0.41887
0.41834
0.416338
0.412171
0.40631
0.396963
0.386316
0.368912
0.353081
0.320895
0.302498
0.237431
0.231886
0.0824323
0.154731
0.271674
0.277146
0.288549
0.299486
0.30647
0.312727
0.317099
0.320559
0.323046
0.325045
0.326567
0.327869
0.328979
0.330016
0.330997
0.331974
0.332956
0.333972
0.335033
0.33616
0.337371
0.338686
0.340125
0.341711
0.343467
0.345421
0.347596
0.350017
0.352704
0.355678
0.358954
0.362541
0.36644
0.370643
0.375128
0.37986
0.384783
0.389827
0.394895
0.399873
0.404614
0.408963
0.412722
0.415719
0.41772
0.418601
0.418021
0.415969
0.411773
0.405874
0.396535
0.385854
0.368517
0.352621
0.320609
0.302032
0.237353
0.231363
0.0827307
0.154097
0.274243
0.278403
0.289173
0.299764
0.306633
0.31284
0.317239
0.320721
0.323249
0.325274
0.326821
0.328134
0.32925
0.330286
0.331265
0.332238
0.333217
0.334232
0.335293
0.336423
0.337636
0.338955
0.340398
0.341988
0.343748
0.345705
0.347884
0.350307
0.352996
0.35597
0.359244
0.362827
0.366719
0.370911
0.375381
0.380091
0.384987
0.389998
0.395025
0.399955
0.404643
0.408933
0.41263
0.415563
0.417503
0.418324
0.417693
0.415591
0.411366
0.405431
0.396102
0.385391
0.368126
0.352168
0.320337
0.301582
0.237302
0.230862
0.0830583
0.153469
0.276796
0.279658
0.2898
0.300052
0.306805
0.312961
0.317388
0.320893
0.323462
0.325517
0.327091
0.328418
0.329543
0.33058
0.331557
0.332526
0.333503
0.334516
0.335577
0.336709
0.337925
0.339248
0.340695
0.342289
0.344053
0.346014
0.348196
0.350622
0.353312
0.356287
0.359559
0.363137
0.367021
0.3712
0.375653
0.38034
0.385208
0.390182
0.395166
0.400045
0.404676
0.408903
0.412536
0.415403
0.417279
0.418038
0.417354
0.415202
0.410949
0.404981
0.395664
0.384927
0.367738
0.351723
0.32008
0.30115
0.237275
0.230383
0.0834126
0.15285
0.279337
0.280909
0.290429
0.300349
0.306984
0.313091
0.317544
0.321074
0.323685
0.325772
0.327376
0.328721
0.329858
0.330899
0.331876
0.332842
0.333816
0.334827
0.335888
0.337021
0.33824
0.339566
0.341018
0.342616
0.344384
0.346349
0.348534
0.350962
0.353655
0.356629
0.359898
0.363471
0.367346
0.371512
0.375946
0.380608
0.385444
0.390379
0.395317
0.400143
0.404713
0.408875
0.412439
0.415237
0.417048
0.417742
0.417005
0.414803
0.410523
0.404524
0.395222
0.384463
0.367353
0.351287
0.319835
0.300736
0.237272
0.229927
0.083791
0.15224
0.281867
0.282154
0.291058
0.300654
0.30717
0.31323
0.317708
0.321264
0.323918
0.326039
0.327676
0.329042
0.330194
0.331241
0.33222
0.333185
0.334158
0.335166
0.336227
0.33736
0.338582
0.339911
0.341367
0.34297
0.344743
0.346711
0.3489
0.351331
0.354024
0.356998
0.360264
0.363831
0.367696
0.371847
0.37626
0.380896
0.385698
0.390591
0.395479
0.400248
0.404755
0.408847
0.41234
0.415065
0.416808
0.417437
0.416646
0.414393
0.410087
0.404058
0.394774
0.383997
0.366971
0.350859
0.319602
0.30034
0.23729
0.229494
0.0841907
0.151641
0.284392
0.28339
0.291686
0.300966
0.307362
0.313376
0.317879
0.321462
0.32416
0.326318
0.32799
0.32938
0.330551
0.331607
0.332591
0.333557
0.334528
0.335535
0.336595
0.337729
0.338952
0.340285
0.341745
0.343352
0.34513
0.347103
0.349295
0.351728
0.354423
0.357395
0.360658
0.364218
0.368071
0.372206
0.376597
0.381204
0.385969
0.390817
0.395653
0.400361
0.4048
0.40882
0.412237
0.414888
0.41656
0.417121
0.416275
0.413972
0.409641
0.403585
0.394322
0.38353
0.366591
0.350439
0.319381
0.299961
0.237329
0.229086
0.0846086
0.151057
0.286914
0.284616
0.292312
0.301285
0.307561
0.31353
0.318058
0.321668
0.324411
0.326607
0.328317
0.329735
0.330927
0.331997
0.332988
0.333956
0.334928
0.335935
0.336994
0.338128
0.339353
0.340689
0.342153
0.343765
0.345547
0.347524
0.34972
0.352156
0.354851
0.357822
0.361081
0.364632
0.368473
0.37259
0.376957
0.381532
0.386257
0.391058
0.395838
0.400481
0.404849
0.408793
0.412132
0.414705
0.416303
0.416795
0.415893
0.413541
0.409186
0.403105
0.393864
0.383063
0.366212
0.350027
0.31917
0.299601
0.237385
0.228702
0.0850412
0.150488
0.289437
0.285828
0.292934
0.301609
0.307764
0.313692
0.318244
0.321883
0.324671
0.326907
0.328657
0.330105
0.331322
0.332408
0.33341
0.334384
0.335359
0.336365
0.337425
0.33856
0.339787
0.341125
0.342593
0.344209
0.345996
0.347978
0.350177
0.352615
0.355311
0.35828
0.361534
0.365076
0.368903
0.373001
0.37734
0.381881
0.386565
0.391314
0.396034
0.400609
0.404903
0.408766
0.412024
0.414515
0.416038
0.41646
0.4155
0.4131
0.408721
0.402618
0.393401
0.382595
0.365836
0.349624
0.318969
0.299259
0.237458
0.228343
0.0854849
0.149938
0.291964
0.287025
0.293551
0.301937
0.307973
0.31386
0.318437
0.322105
0.324939
0.327216
0.329008
0.330489
0.331734
0.33284
0.333856
0.334839
0.335818
0.336828
0.337889
0.339025
0.340254
0.341594
0.343066
0.344687
0.346479
0.348465
0.350668
0.353108
0.355804
0.358771
0.362018
0.365551
0.369362
0.373438
0.377749
0.382253
0.38689
0.391586
0.396242
0.400745
0.40496
0.40874
0.411913
0.41432
0.415765
0.416115
0.415099
0.412649
0.408248
0.402125
0.392934
0.382128
0.365462
0.34923
0.318776
0.298936
0.237543
0.228011
0.0859356
0.149409
0.294498
0.288204
0.294161
0.302269
0.308185
0.314035
0.318637
0.322335
0.325215
0.327535
0.329369
0.330887
0.332162
0.333291
0.334325
0.335319
0.336306
0.33732
0.338385
0.339524
0.340755
0.342099
0.343573
0.345199
0.346996
0.348986
0.351192
0.353635
0.35633
0.359294
0.362535
0.366056
0.36985
0.373902
0.378182
0.382646
0.387235
0.391872
0.396461
0.400889
0.405022
0.408715
0.4118
0.414121
0.415486
0.415763
0.414689
0.412191
0.407768
0.401628
0.392465
0.381662
0.365091
0.348845
0.31859
0.298632
0.23764
0.227706
0.0863892
0.148904
0.297042
0.289363
0.294764
0.302604
0.308401
0.314216
0.318843
0.322572
0.325498
0.327863
0.329741
0.331296
0.332605
0.33376
0.334815
0.335823
0.336822
0.337843
0.338913
0.340056
0.341291
0.342638
0.344117
0.345747
0.347548
0.349543
0.351753
0.354197
0.356892
0.359852
0.363085
0.366593
0.370368
0.374394
0.37864