/*--------------------------------*- C++ -*----------------------------------*\
| =========                 |                                                 |
| \\      /  F ield         | OpenFOAM: The Open Source CFD Toolbox           |
|  \\    /   O peration     | Version:  2.4.0                                 |
|   \\  /    A nd           | Web:      www.OpenFOAM.org                      |
|    \\/     M anipulation  |                                                 |
\*---------------------------------------------------------------------------*/
FoamFile
{
    version     2.0;
    format      ascii;
    class       volVectorField;
    location    "3.7";
    object      U;
}
// * * * * * * * * * * * * * * * * * * * * * * * * * * * * * * * * * * * * * //

dimensions      [0 1 -1 0 0 0 0];

internalField   nonuniform List<vector> 
6000
(
(0.513512 -0.0430707 -6.50586e-18)
(-0.31776 0.0668469 0)
(0.111774 -0.0273719 9.74538e-18)
(0.00905795 -0.00179422 0)
(0.00577462 7.91298e-05 0)
(-0.0294359 0.00568805 0)
(-0.0121898 0.00257655 4.17964e-18)
(-0.0278054 0.00500459 6.00611e-23)
(-0.0240122 0.00454992 0)
(-0.0379578 0.00670857 0)
(-0.0500151 0.00887199 3.50682e-18)
(-0.0707405 0.0115527 -6.73825e-18)
(-0.0892323 0.0136886 0)
(-0.105709 0.0146513 0)
(-0.112122 0.0138189 -1.51202e-18)
(-0.103472 0.0106765 0)
(-0.076592 0.00560154 0)
(-0.0323381 -0.000597307 -1.45898e-18)
(0.0228065 -0.00590029 -1.43317e-18)
(0.0649135 -0.00628956 0)
(0.0565142 -0.00248598 1.39451e-18)
(0.0122053 0.00225767 7.01798e-19)
(-0.050328 0.00849239 -6.78786e-19)
(-0.150787 0.0147261 0)
(-0.230159 0.015472 0)
(-0.282659 0.0133741 0)
(-0.317441 0.0108456 2.57007e-19)
(-0.342924 0.00809368 -2.47366e-19)
(-0.362252 0.00514174 0)
(-0.376991 0.00198051 0)
(-0.387523 -0.00133306 2.99058e-20)
(-0.393824 -0.00473867 0)
(-0.39546 -0.00820162 2.51185e-19)
(-0.392491 -0.011626 -2.62976e-19)
(-0.385129 -0.0147748 0)
(-0.372976 -0.0175932 0)
(-0.355617 -0.019952 6.52524e-19)
(-0.332575 -0.0217094 0)
(-0.3033 -0.0227044 7.89456e-19)
(-0.267171 -0.0227574 0)
(-0.223502 -0.0216625 0)
(-0.171589 -0.0191937 2.16014e-18)
(-0.110837 -0.0151015 -4.78026e-18)
(-0.0410152 -0.00913913 0)
(0.0375616 -0.000852779 0)
(0.124204 0.00964191 3.02478e-18)
(0.216807 0.0224728 0)
(0.312718 0.0374207 0)
(0.407703 0.0540715 -6.41879e-18)
(0.497722 0.0717001 -6.2971e-18)
(0.57803 0.0895784 -6.0453e-18)
(0.646651 0.106778 -1.67801e-20)
(0.700305 0.123182 5.35628e-18)
(0.739999 0.13743 0)
(0.754533 0.146856 -1.42462e-20)
(0.769758 0.155508 -4.41445e-18)
(0.755834 0.159901 3.76637e-18)
(0.783839 0.170069 3.73202e-18)
(0.750037 0.171525 1.58966e-20)
(0.825419 0.188647 0)
(0.726764 -0.108553 4.97519e-18)
(-0.209339 0.0626685 5.69903e-18)
(0.091859 -0.0316501 -4.72778e-18)
(-0.0222323 0.00869905 -5.04501e-18)
(0.00490571 0.0014341 0)
(-0.0418799 0.00878862 0)
(-0.0201118 0.00413077 -4.10849e-18)
(-0.0372875 0.00705195 7.88379e-18)
(-0.033828 0.00687811 0)
(-0.0497051 0.00963902 0)
(-0.0636791 0.0124576 -3.39457e-18)
(-0.0847056 0.0150962 3.24579e-18)
(-0.102198 0.0168592 1.55044e-18)
(-0.115726 0.0167981 0)
(-0.119306 0.0146515 1.43556e-18)
(-0.110441 0.0101158 0)
(-0.0845144 0.00342893 0)
(-0.0418067 -0.00421302 0)
(0.0109544 -0.00951369 0)
(0.0521731 -0.00700289 0)
(0.0528522 0.000828653 5.64245e-22)
(0.00117742 0.00962399 0)
(-0.0875437 0.019965 -6.45521e-19)
(-0.195071 0.0260767 0)
(-0.262997 0.0231831 0)
(-0.304723 0.0184652 2.49885e-19)
(-0.333621 0.0146006 -2.34972e-19)
(-0.355408 0.0110362 -2.50817e-22)
(-0.371966 0.00747543 1.09567e-19)
(-0.384232 0.00377031 0)
(-0.392459 -7.22551e-05 -2.70365e-20)
(-0.396758 -0.0040142 -1.09754e-19)
(-0.39724 -0.0079699 -3.44988e-22)
(-0.393709 -0.011882 2.36745e-19)
(-0.385581 -0.0155992 -2.50313e-19)
(-0.372497 -0.0190305 0)
(-0.354018 -0.0220401 0)
(-0.329654 -0.0244768 0)
(-0.29885 -0.0261657 0)
(-0.260981 -0.0269098 0)
(-0.215368 -0.0264768 -1.71249e-18)
(-0.161317 -0.0246028 0)
(-0.0982489 -0.0209848 2.09231e-18)
(-0.0259617 -0.0153276 2.27752e-18)
(0.0554111 -0.00712549 0)
(0.145258 0.00359714 0)
(0.241549 0.0171526 0)
(0.341657 0.0333991 0)
(0.441468 0.051972 5.62247e-18)
(0.537085 0.0720616 0)
(0.623983 0.0928865 0)
(0.700369 0.113289 -5.1156e-18)
(0.762731 0.132933 -4.83206e-18)
(0.815009 0.15061 0)
(0.853904 0.167444 -8.44212e-18)
(0.886694 0.181021 0)
(0.901017 0.194061 -6.90796e-18)
(0.927523 0.203712 -3.40297e-18)
(0.924035 0.216042 1.82932e-18)
(0.986402 0.227788 2.33375e-18)
(0.798653 -0.0913498 -3.36066e-19)
(-0.0779544 0.0480786 -5.32627e-18)
(0.067043 -0.0276983 0)
(-0.0541306 0.0169082 5.00357e-18)
(0.00185031 0.00269419 0)
(-0.0462243 0.0100452 0)
(-0.0240399 0.00503994 0)
(-0.04098 0.00795539 -3.83955e-18)
(-0.0379354 0.00830125 0)
(-0.053568 0.0113865 -3.44629e-18)
(-0.0670846 0.0145941 0)
(-0.0868897 0.0170543 0)
(-0.103264 0.0184197 -1.47236e-18)
(-0.116194 0.0176094 0)
(-0.120241 0.0144916 0)
(-0.112563 0.00864101 0)
(-0.0885903 0.000456597 0)
(-0.0484784 -0.00837926 0)
(0.00111296 -0.0135031 0)
(0.0402917 -0.00821255 1.25345e-18)
(0.0425528 0.00444972 -1.29797e-18)
(-0.0109603 0.0184237 0)
(-0.104886 0.0318522 -1.43431e-21)
(-0.202147 0.035737 -5.54124e-19)
(-0.260541 0.0288424 0)
(-0.298681 0.022012 -4.52079e-19)
(-0.326123 0.0171427 0)
(-0.347053 0.0129639 2.00624e-19)
(-0.363019 0.00894176 -9.7061e-20)
(-0.374874 0.00483127 0)
(-0.382863 0.000603657 0)
(-0.38708 -0.00372831 9.64907e-20)
(-0.387475 -0.00807479 -2.8012e-22)
(-0.383749 -0.0123634 0)
(-0.375448 -0.0165122 4.37683e-19)
(-0.362199 -0.0204119 0)
(-0.343556 -0.0239282 5.06526e-19)
(-0.31902 -0.0269115 0)
(-0.288029 -0.0291886 0)
(-0.249952 -0.0305628 0)
(-0.204104 -0.0307979 1.48278e-18)
(-0.149784 -0.0296172 0)
(-0.0864092 -0.0266884 0)
(-0.0137584 -0.0216643 -1.95157e-18)
(0.068146 -0.0140368 0)
(0.15859 -0.00372008 0)
(0.255545 0.00967964 2.31478e-18)
(0.356382 0.0260989 -2.37329e-18)
(0.457036 0.0452324 -2.38733e-18)
(0.553668 0.066231 0)
(0.641889 0.0882838 0)
(0.719991 0.110065 0)
(0.784707 0.131229 4.19646e-18)
(0.839546 0.150332 4.00961e-18)
(0.880954 0.169218 3.75718e-18)
(0.919004 0.184165 0)
(0.939532 0.200484 3.12112e-18)
(0.974827 0.210262 6.18214e-18)
(0.977151 0.227431 0)
(1.04923 0.235947 -2.14498e-18)
(0.836481 -0.0599368 -2.63434e-19)
(0.0438051 0.0395417 4.89568e-18)
(0.047279 -0.020498 -4.59324e-18)
(-0.0751655 0.0221566 0)
(-0.000815578 0.00310814 0)
(-0.048016 0.0108834 0)
(-0.0265446 0.00561657 0)
(-0.0429949 0.00861367 0)
(-0.0402686 0.00936121 0)
(-0.0552129 0.0127502 3.33502e-18)
(-0.0679209 0.0162138 3.1425e-18)
(-0.0865585 0.0185725 0)
(-0.102165 0.0196464 0)
(-0.11497 0.018276 0)
(-0.119753 0.0143177 1.2723e-18)
(-0.113515 0.00723797 0)
(-0.091761 -0.00240017 1.18252e-18)
(-0.0544843 -0.0124104 -1.15981e-18)
(-0.00809805 -0.0173798 0)
(0.0289386 -0.00944616 -1.19402e-18)
(0.0319109 0.00814795 0)
(-0.0222712 0.027422 -6.2242e-19)
(-0.114941 0.0429405 1.15788e-18)
(-0.201608 0.0441507 5.17648e-19)
(-0.253876 0.0339074 0)
(-0.289937 0.0253997 2.05918e-19)
(-0.316396 0.019633 0)
(-0.336707 0.0148723 1.80619e-19)
(-0.352241 0.0104124 0)
(-0.363797 0.0059264 0)
(-0.371601 0.00134563 0)
(-0.375714 -0.00333922 8.55712e-20)
(-0.376009 -0.00806576 -3.5153e-19)
(-0.372175 -0.0127673 0)
(-0.363812 -0.0173655 -1.93689e-19)
(-0.350533 -0.0217551 0)
(-0.331888 -0.0258052 -4.48536e-19)
(-0.30737 -0.0293695 0)
(-0.276411 -0.0322773 0)
(-0.238374 -0.0343335 0)
(-0.192566 -0.0352995 1.3004e-18)
(-0.138279 -0.0348859 0)
(-0.0749174 -0.0327306 1.56974e-18)
(-0.00222965 -0.0284396 -1.7057e-18)
(0.0797749 -0.0214593 0)
(0.170285 -0.0115934 -1.94162e-18)
(0.267289 0.00162245 -4.05859e-18)
(0.368138 0.0182027 2.08498e-18)
(0.468783 0.0378862 4.18301e-18)
(0.565411 0.0597803 -4.12372e-18)
(0.653716 0.0830026 -4.01205e-18)
(0.732039 0.106076 0)
(0.797294 0.12865 -3.70782e-18)
(0.852799 0.149127 -3.55036e-18)
(0.894925 0.169055 -3.29657e-18)
(0.934625 0.184789 0)
(0.957529 0.20262 0)
(0.996548 0.212619 -2.76457e-18)
(1.00273 0.232163 0)
(1.07853 0.238615 1.91763e-18)
(0.8615 -0.0344764 -2.46493e-19)
(0.153273 0.0356161 -8.98776e-20)
(0.0542264 -0.0147067 4.55214e-18)
(-0.0863078 0.0250017 4.94925e-18)
(-0.00323423 0.00302078 0)
(-0.0488764 0.0115551 -4.20666e-18)
(-0.0283258 0.00604053 0)
(-0.0442735 0.00916637 0)
(-0.0417131 0.010227 0)
(-0.0557977 0.0139121 3.24199e-18)
(-0.0675779 0.0175724 -3.03954e-18)
(-0.0851255 0.0198875 0)
(-0.100118 0.0207337 0)
(-0.112951 0.0188999 0)
(-0.118563 0.0141741 -1.2135e-18)
(-0.113907 0.00594427 0)
(-0.0945434 -0.00508193 -1.12245e-18)
(-0.0602678 -0.0162155 1.1004e-18)
(-0.0171104 -0.0210513 0)
(0.0177435 -0.0106821 0)
(0.0211808 0.0118338 6.10666e-19)
(-0.0326291 0.0362592 6.01329e-19)
(-0.121082 0.0531083 -1.10638e-18)
(-0.198197 0.0516099 -4.88304e-19)
(-0.24588 0.0385773 0)
(-0.280251 0.0286633 1.90631e-19)
(-0.305827 0.0220689 0)
(-0.325571 0.0167517 -1.64921e-19)
(-0.340707 0.0118663 7.91759e-20)
(-0.35198 0.00701383 0)
(-0.359592 0.00208529 0)
(-0.363574 -0.00295158 -1.54992e-19)
(-0.363761 -0.00805533 1.59038e-19)
(-0.359846 -0.0131718 0)
(-0.351449 -0.018224 -1.74368e-19)
(-0.338178 -0.0231098 0)
(-0.319577 -0.0277025 4.0337e-19)
(-0.295132 -0.0318591 0)
(-0.264272 -0.035412 0)
(-0.226352 -0.0381683 0)
(-0.180675 -0.0398873 -1.17917e-18)
(-0.126521 -0.040267 -1.29391e-18)
(-0.0632819 -0.0389155 -1.42474e-18)
(0.00932664 -0.0353913 6.06449e-21)
(0.0912585 -0.0290864 -1.65627e-18)
(0.181637 -0.0197002 1.75986e-18)
(0.278467 -0.00669462 3.65825e-18)
(0.379074 0.0100234 0)
(0.479414 0.0302303 -1.88657e-18)
(0.575681 0.0529891 3.72827e-18)
(0.66363 0.0773289 3.6254e-18)
(0.741651 0.101629 0)
(0.806793 0.125468 0)
(0.862317 0.147014 0)
(0.904514 0.167945 2.96822e-18)
(0.944706 0.184328 0)
(0.968608 0.203147 0)
(1.00925 0.213143 2.45416e-18)
(1.01776 0.234114 -1.2651e-18)
(1.0949 0.238733 -1.71833e-18)
(0.880281 -0.0137401 -2.28035e-19)
(0.251022 0.0348405 -4.50791e-18)
(0.081589 -0.00984728 0)
(-0.0883996 0.0268033 -4.92709e-18)
(-0.00563015 0.00273165 -4.43359e-18)
(-0.0492749 0.0121299 3.48266e-22)
(-0.0296129 0.00636533 0)
(-0.0450993 0.00964903 0)
(-0.0425673 0.0109443 0)
(-0.0557104 0.0149084 -3.16216e-18)
(-0.0665012 0.0187338 0)
(-0.083011 0.0210498 0)
(-0.0974562 0.0217259 1.29803e-18)
(-0.110375 0.0195114 0)
(-0.116859 0.0140993 0)
(-0.11388 0.00481264 0)
(-0.0970395 -0.00751266 0)
(-0.0659054 -0.0197084 -1.05162e-18)
(-0.0260094 -0.0244508 0)
(0.00662401 -0.0118589 1.11017e-18)
(0.0104083 0.015449 -5.96121e-19)
(-0.0419592 0.0446656 -5.83156e-19)
(-0.124613 0.0623217 1.06176e-18)
(-0.19321 0.0582452 9.26141e-19)
(-0.237135 0.0428917 0)
(-0.269971 0.0317802 -1.78047e-19)
(-0.294698 0.0244234 0)
(-0.313889 0.0185793 0)
(-0.328632 0.0132849 -1.46407e-19)
(-0.339617 0.00807799 0)
(-0.347021 0.00281019 0)
(-0.350852 -0.00257374 1.4265e-19)
(-0.350921 -0.00805 0)
(-0.346928 -0.0135757 0)
(-0.338504 -0.0190769 1.60594e-19)
(-0.325252 -0.0244551 0)
(-0.306709 -0.0295875 -3.71799e-19)
(-0.282359 -0.0343349 0)
(-0.251624 -0.0385328 0)
(-0.213857 -0.0419907 0)
(-0.168353 -0.0444658 0)
(-0.114381 -0.0456443 1.19764e-18)
(-0.0513187 -0.0451043 1.31042e-18)
(0.021145 -0.042355 5.15349e-21)
(0.102905 -0.0367321 1.53499e-18)
(0.193049 -0.0278348 1.61741e-18)
(0.289591 -0.0150493 -1.69081e-18)
(0.389831 0.00179607 0)
(0.489716 0.0225106 -1.72823e-18)
(0.585442 0.0461123 1.70516e-18)
(0.672815 0.0715312 -3.31074e-18)
(0.750273 0.0970109 0)
(0.814978 0.122028 0)
(0.870185 0.144583 -2.89205e-18)
(0.91215 0.166415 -2.68622e-18)
(0.952365 0.183377 2.58129e-18)
(0.976658 0.202908 2.21403e-18)
(1.01805 0.212866 -2.22671e-18)
(1.02796 0.23469 1.14347e-18)
(1.10547 0.237836 0)
(0.895348 0.0050026 -2.04996e-19)
(0.337913 0.0365087 0)
(0.120443 -0.00459343 4.3447e-18)
(-0.0787429 0.0275891 4.86417e-18)
(-0.00792051 0.00251982 -4.78255e-22)
(-0.0493694 0.0126155 4.11373e-18)
(-0.0304929 0.00661472 0)
(-0.0455816 0.0100714 0)
(-0.0429668 0.0115345 0)
(-0.0551304 0.0157565 1.54731e-18)
(-0.0648931 0.0197291 1.43996e-18)
(-0.0803961 0.0220847 0)
(-0.0943175 0.0226446 -1.25789e-18)
(-0.107337 0.0201247 1.18581e-18)
(-0.114705 0.0141087 0)
(-0.113462 0.00386148 0)
(-0.099247 -0.00967042 0)
(-0.0713776 -0.0228725 1.59731e-21)
(-0.0347958 -0.027576 0)
(-0.0043789 -0.0129549 -2.16163e-18)
(-0.000318962 0.0189237 5.84009e-19)
(-0.0502138 0.0525079 5.66857e-19)
(-0.126208 0.0706068 -2.54863e-22)
(-0.187184 0.0641681 -4.41914e-19)
(-0.227857 0.0468943 0)
(-0.259229 0.0347508 0)
(-0.283115 0.02669 0)
(-0.30175 0.0203472 7.1806e-20)
(-0.316091 0.0146605 1.37049e-19)
(-0.326775 0.00911101 0)
(-0.333953 0.00351301 0)
(-0.337613 -0.00221113 -1.33019e-19)
(-0.337554 -0.00805346 -6.80094e-20)
(-0.333479 -0.0139807 0)
(-0.325026 -0.0199233 0)
(-0.311792 -0.0257867 0)
(-0.293311 -0.0314526 0)
(-0.269063 -0.036785 0)
(-0.238466 -0.041623 0)
(-0.200869 -0.0457785 0)
(-0.15556 -0.0490073 0)
(-0.101799 -0.0509841 0)
(-0.0389453 -0.0512574 -4.16836e-21)
(0.0333274 -0.0492847 1.34153e-18)
(0.11485 -0.0443436 0)
(0.204693 -0.0359371 -3.04167e-18)
(0.300879 -0.0233743 -1.58001e-18)
(0.400676 -0.00640462 0)
(0.500013 0.0148103 1.62772e-18)
(0.595085 0.0392419 -1.6049e-18)
(0.68174 0.0657148 3.11277e-18)
(0.758471 0.0923401 -2.97158e-18)
(0.822539 0.118481 0)
(0.877223 0.142011 1.60524e-20)
(0.918772 0.164672 2.50191e-18)
(0.958766 0.182176 -4.77557e-18)
(0.98313 0.202258 -1.59394e-20)
(1.02484 0.212183 -2.02642e-18)
(1.03563 0.234516 1.00236e-18)
(1.11303 0.236458 1.40027e-18)
(0.907655 0.0222921 -9.76746e-19)
(0.414844 0.0400712 0)
(0.166648 0.00135139 9.92576e-21)
(-0.057134 0.0277558 -3.27536e-21)
(-0.00951465 0.00260433 4.46016e-18)
(-0.049202 0.0130158 4.09068e-18)
(-0.0309967 0.00679964 0)
(-0.0457674 0.0104378 3.49456e-18)
(-0.0429856 0.0120102 0)
(-0.0541583 0.0164684 -1.51776e-18)
(-0.0628657 0.0205777 2.30949e-22)
(-0.0773777 0.0230075 -1.3121e-18)
(-0.0907716 0.0235016 0)
(-0.103877 0.0207469 -2.30508e-18)
(-0.112117 0.0142094 0)
(-0.112639 0.00309879 0)
(-0.101125 -0.0115475 0)
(-0.0766242 -0.0257054 9.88453e-19)
(-0.043419 -0.0304245 0)
(-0.0151987 -0.0139719 1.05635e-18)
(-0.0108885 0.0221809 -1.14534e-18)
(-0.0573739 0.0597096 0)
(-0.126276 0.0780044 -3.96767e-22)
(-0.180394 0.0694669 0)
(-0.21815 0.0506197 0)
(-0.248093 0.0375813 -1.60106e-19)
(-0.271134 0.0288695 0)
(-0.289201 0.0220548 -1.35941e-19)
(-0.303127 0.0159915 -6.47644e-20)
(-0.313494 0.0101107 -1.57225e-20)
(-0.320426 0.00419122 1.55472e-20)
(-0.323897 -0.00186577 6.27054e-20)
(-0.323696 -0.00806712 1.28183e-19)
(-0.319532 -0.0143881 0)
(-0.311043 -0.0207644 1.40347e-19)
(-0.297823 -0.0271059 0)
(-0.279402 -0.0332984 0)
(-0.255256 -0.0392096 0)
(-0.224801 -0.044682 3.91211e-19)
(-0.187381 -0.0495302 0)
(-0.14228 -0.0535091 0)
(-0.0887466 -0.0562826 1.05835e-18)
(-0.0261232 -0.0573697 -1.16891e-18)
(0.0459221 -0.056173 0)
(0.12716 -0.051911 0)
(0.216659 -0.0439936 1.44785e-18)
(0.312441 -0.0316513 1.50786e-18)
(0.41174 -0.0145545 -1.53537e-18)
(0.510462 0.00716151 0)
(0.604796 0.0324189 0)
(0.690631 0.0599316 0)
(0.766513 0.0876807 1.64578e-20)
(0.829802 0.114908 0)
(0.883816 0.139387 2.54696e-18)
(0.924816 0.162823 0)
(0.96444 0.180844 2.23808e-18)
(0.988679 0.201374 -1.89597e-18)
(1.03047 0.211274 3.76448e-18)
(1.04181 0.2339 -9.27397e-19)
(1.11887 0.234832 -1.28978e-18)
(0.917689 0.0379235 1.71004e-19)
(0.482695 0.0449916 -3.92913e-18)
(0.217437 0.00795482 -4.10364e-18)
(-0.0265597 0.0280753 -3.26865e-21)
(-0.00923275 0.00313349 -4.47431e-18)
(-0.0487316 0.0133552 -4.08486e-18)
(-0.0311249 0.00692617 0)
(-0.0456749 0.0107507 -3.45716e-18)
(-0.0426688 0.0123799 0)
(-0.0528582 0.0170532 -1.49246e-18)
(-0.0604899 0.0212921 -1.38053e-18)
(-0.0740152 0.0238275 1.28319e-18)
(-0.0868599 0.0243028 -1.19546e-18)
(-0.100016 0.02138 1.12432e-18)
(-0.109094 0.0144033 -1.06808e-18)
(-0.111383 0.00252723 1.01954e-18)
(-0.102614 -0.0131406 0)
(-0.0815651 -0.0282071 0)
(-0.0517992 -0.0329998 0)
(-0.0257753 -0.0149223 5.1828e-19)
(-0.0211275 0.0251626 5.6226e-19)
(-0.0634416 0.0662161 0)
(-0.125091 0.0845574 -4.79207e-19)
(-0.173 0.0742085 0)
(-0.208072 0.054091 0)
(-0.236604 0.0402755 1.53271e-19)
(-0.25879 0.0309629 -1.39234e-19)
(-0.276274 0.0237017 6.48295e-20)
(-0.289767 0.0172769 0)
(-0.299799 0.0110753 2.99203e-20)
(-0.306467 0.00484277 -2.9567e-20)
(-0.309732 -0.00153974 0)
(-0.309377 -0.00809292 -6.09017e-20)
(-0.305113 -0.0148002 1.26232e-19)
(-0.29658 -0.0216027 -1.33544e-19)
(-0.283366 -0.0284152 0)
(-0.264999 -0.0351276 0)
(-0.240952 -0.0416113 0)
(-0.210638 -0.0477124 -3.7342e-19)
(-0.1734 -0.0532482 0)
(-0.128513 -0.0579734 0)
(-0.0752164 -0.0615416 -1.01458e-18)
(-0.0128372 -0.0634416 0)
(0.05895 -0.0630193 1.21492e-18)
(0.139869 -0.0594323 -1.30659e-18)
(0.228991 -0.0520005 0)
(0.324335 -0.0398742 1.44246e-18)
(0.423094 -0.0226439 2.95538e-18)
(0.521149 -0.000421683 -1.47759e-18)
(0.614678 0.0256627 0)
(0.699606 0.0542079 0)
(0.774543 0.0830653 1.36037e-18)
(0.836937 0.111353 0)
(0.890168 0.136753 2.4111e-18)
(0.930511 0.160926 0)
(0.969662 0.179443 2.10374e-18)
(0.993641 0.200347 1.76512e-18)
(1.03537 0.210227 -1.76766e-18)
(1.04704 0.233007 0)
(1.12361 0.233065 1.20367e-18)
(0.925861 0.0519029 2.70641e-19)
(0.542311 0.0508198 7.39948e-20)
(0.270645 0.0151042 4.01203e-18)
(0.0110229 0.029028 -3.43784e-21)
(-0.00594899 0.00419599 -5.79686e-22)
(-0.0478101 0.0136816 0)
(-0.0308555 0.00699984 0)
(-0.0453049 0.0110125 0)
(-0.0420441 0.0126505 -1.58e-18)
(-0.0512738 0.017518 2.94056e-18)
(-0.0578149 0.0218805 0)
(-0.0703492 0.0245501 1.2587e-18)
(-0.0826102 0.0250503 -1.94997e-22)
(-0.0957675 0.0220232 -1.10019e-18)
(-0.105628 0.014689 3.5804e-22)
(-0.109657 0.00214626 -9.9965e-19)
(-0.103649 -0.014449 0)
(-0.0861095 -0.0303774 0)
(-0.0598387 -0.0353056 0)
(-0.0360152 -0.0158178 -5.09486e-19)
(-0.0308752 0.0278146 0)
(-0.068433 0.071991 5.27498e-19)
(-0.122845 0.0903091 4.65242e-19)
(-0.165099 0.0784446 -3.94083e-19)
(-0.197658 0.0573235 0)
(-0.22479 0.0428356 0)
(-0.246109 0.0329698 1.33784e-19)
(-0.262993 0.025287 0)
(-0.276037 0.0185152 5.91138e-20)
(-0.285715 0.012003 -1.43278e-20)
(-0.292102 0.00546554 1.41503e-20)
(-0.295144 -0.00123521 -5.68526e-20)
(-0.294623 -0.008133 0)
(-0.290249 -0.0152192 -1.20882e-19)
(-0.281661 -0.0224407 0)
(-0.268444 -0.0297173 0)
(-0.250124 -0.0369431 2.9517e-19)
(-0.226171 -0.0439931 0)
(-0.195996 -0.050717 0)
(-0.158936 -0.0569352 0)
(-0.114266 -0.0624025 0)
(-0.0612115 -0.0667628 0)
(0.000913448 -0.0694738 0)
(0.0724172 -0.0698229 -2.3474e-18)
(0.152992 -0.0669061 1.26626e-18)
(0.241713 -0.0599557 1.33919e-18)
(0.336591 -0.0480392 -2.79795e-18)
(0.434778 -0.0306673 -1.43394e-18)
(0.532121 -0.00793083 1.43724e-18)
(0.624785 0.0189851 -1.40657e-18)
(0.708731 0.0485589 0)
(0.782638 0.0785129 7.63007e-21)
(0.844042 0.107838 -2.44622e-18)
(0.896394 0.134136 -2.33064e-18)
(0.935992 0.159012 -2.1156e-18)
(0.974588 0.178005 -4.02429e-18)
(0.998208 0.199229 -1.68462e-18)
(1.03978 0.209092 1.66511e-18)
(1.05162 0.231929 7.69429e-19)
(1.12762 0.231214 -1.13232e-18)
(0.932541 0.0644328 -1.49155e-19)
(0.594495 0.057212 3.75156e-18)
(0.324578 0.0226747 2.39135e-21)
(0.0547608 0.0306834 -3.81834e-21)
(0.0013863 0.00612208 4.40929e-18)
(-0.0461239 0.0140608 4.11979e-18)
(-0.0301405 0.00702992 -3.69382e-18)
(-0.044644 0.0112261 1.70304e-18)
(-0.0411265 0.0128278 -8.56175e-23)
(-0.049436 0.0178688 -1.45113e-18)
(-0.0548765 0.0223491 -1.33618e-18)
(-0.0664101 0.0251782 -1.23697e-18)
(-0.0780432 0.0257438 2.29797e-18)
(-0.091138 0.0226734 -2.03237e-23)
(-0.101709 0.0150623 1.02601e-18)
(-0.107423 0.00195255 0)
(-0.10416 -0.0154742 9.45926e-19)
(-0.0901616 -0.0322177 0)
(-0.0674287 -0.0373465 -9.42275e-19)
(-0.0458034 -0.0166737 -5.02337e-19)
(-0.0399867 0.0300922 -5.4438e-19)
(-0.0723737 0.0770145 1.35935e-22)
(-0.119684 0.0953026 -4.53731e-19)
(-0.156759 0.0822172 3.82776e-19)
(-0.186935 0.0603281 0)
(-0.212673 0.0452623 -1.42809e-19)
(-0.233114 0.0348895 0)
(-0.249381 0.0268092 0)
(-0.261958 0.0197048 -5.69677e-20)
(-0.271265 0.012892 0)
(-0.277354 0.00605747 0)
(-0.280159 -0.000954295 5.47376e-20)
(-0.279458 -0.00818954 0)
(-0.274963 -0.0156474 0)
(-0.26631 -0.023281 1.22173e-19)
(-0.253082 -0.031015 0)
(-0.234802 -0.0387478 -2.84636e-19)
(-0.210935 -0.0463579 0)
(-0.180893 -0.0536986 3.43265e-19)
(-0.144009 -0.0605938 0)
(-0.0995545 -0.0667989 0)
(-0.0467429 -0.0719484 0)
(0.0151209 -0.0754674 0)
(0.0863207 -0.0765838 1.14053e-18)
(0.166533 -0.074332 0)
(0.254835 -0.0678579 -2.61148e-18)
(0.349224 -0.0561442 1.36573e-18)
(0.44681 -0.0386212 -1.39261e-18)
(0.5434 -0.0153605 1.39514e-18)
(0.635145 0.0123934 1.37775e-18)
(0.718042 0.0429948 0)
(0.790842 0.0740357 1.2687e-18)
(0.851171 0.104378 3.57419e-18)
(0.902562 0.131553 -2.24272e-18)
(0.941337 0.157103 2.05264e-18)
(0.979313 0.176554 1.93933e-18)
(1.0025 0.198054 0)
(1.04385 0.207897 -1.59499e-18)
(1.05574 0.230725 -1.45076e-18)
(1.13112 0.22931 0)
(0.938039 0.075716 3.26567e-19)
(0.640001 0.0639025 0)
(0.37791 0.0305433 1.23974e-22)
(0.102836 0.0332047 -4.31571e-21)
(0.0155326 0.00850574 -4.33297e-18)
(-0.0430854 0.0145925 -8.30126e-18)
(-0.0288919 0.00703554 7.40761e-18)
(-0.043663 0.0113954 -1.69632e-18)
(-0.0399202 0.012918 1.55148e-18)
(-0.0473657 0.0181113 0)
(-0.0517019 0.0227021 -2.04743e-22)
(-0.0622216 0.0257133 0)
(-0.0731764 0.0263815 -2.26065e-18)
(-0.0861349 0.0233258 1.0613e-18)
(-0.0973257 0.0155172 0)
(-0.104646 0.00194023 0)
(-0.104081 -0.0162205 -9.3348e-19)
(-0.0936251 -0.0337308 0)
(-0.0744551 -0.0391275 9.30105e-19)
(-0.0550141 -0.0175076 4.95e-19)
(-0.0483367 0.0319608 -8.35046e-22)
(-0.0752962 0.0812824 -5.06935e-19)
(-0.115717 0.0995806 -4.42634e-19)
(-0.148024 0.085561 0)
(-0.17592 0.0631135 0)
(-0.200271 0.0475565 1.38659e-19)
(-0.219824 0.0367211 0)
(-0.235458 0.0282669 5.81452e-20)
(-0.247551 0.0208439 -5.51078e-20)
(-0.256472 0.0137403 1.33225e-20)
(-0.262247 0.00661662 -1.31311e-20)
(-0.264801 -0.000698993 5.27594e-20)
(-0.263909 -0.00826463 -5.38377e-20)
(-0.259281 -0.0160872 1.11721e-19)
(-0.250554 -0.0241259 -1.18202e-19)
(-0.237305 -0.0323108 0)
(-0.219055 -0.0405443 0)
(-0.195269 -0.0487085 0)
(-0.165352 -0.0566604 -1.1444e-21)
(-0.12864 -0.0642272 3.68986e-19)
(-0.0843966 -0.0711655 0)
(-0.0318262 -0.0771008 0)
(0.0297711 -0.0814238 0)
(0.100651 -0.0833028 0)
(0.180488 -0.0817106 0)
(0.268356 -0.0757073 4.30605e-21)
(0.362238 -0.0641887 0)
(0.459197 -0.0465035 2.73693e-18)
(0.554997 -0.0227071 -2.74313e-18)
(0.645771 0.0058929 -1.34398e-18)
(0.727555 0.0375224 0)
(0.799176 0.069642 0)
(0.858354 0.100984 -2.32354e-18)
(0.908711 0.129016 1.33601e-20)
(0.946595 0.155213 -1.97888e-18)
(0.983895 0.175101 1.86641e-18)
(1.00657 0.196843 1.53425e-18)
(1.04765 0.206659 -1.52634e-18)
(1.0595 0.229431 1.36348e-18)
(1.13423 0.227371 1.03546e-18)
(0.942608 0.0859018 1.31915e-19)
(0.679539 0.0706822 -3.48151e-18)
(0.429625 0.0385951 -7.54582e-18)
(0.1538 0.0366457 -4.94463e-21)
(0.0365893 0.0113114 4.24237e-18)
(-0.0376767 0.0154095 4.17484e-18)
(-0.0269561 0.00705525 -1.86154e-18)
(-0.042313 0.0115265 0)
(-0.0384171 0.0129276 0)
(-0.0450751 0.0182507 1.42151e-18)
(-0.0483116 0.0229431 1.3027e-18)
(-0.0578032 0.0261556 0)
(-0.0680254 0.0269604 1.11403e-18)
(-0.0807659 0.0239745 0)
(-0.0924727 0.0160458 0)
(-0.101294 0.0021011 0)
(-0.10335 -0.0166943 0)
(-0.0964061 -0.0349215 9.06443e-19)
(-0.0808036 -0.040655 4.59537e-19)
(-0.0635213 -0.0183361 -4.89071e-19)
(-0.0558237 0.0333971 -9.64807e-22)
(-0.0772387 0.0848024 0)
(-0.111032 0.103185 4.33503e-19)
(-0.138927 0.0885057 0)
(-0.164629 0.065687 0)
(-0.187601 0.0497187 1.35138e-19)
(-0.206256 0.0384637 -1.2203e-19)
(-0.221243 0.0296588 -5.65347e-20)
(-0.232837 0.0219311 5.3545e-20)
(-0.241356 0.0145462 -2.58669e-20)
(-0.246803 0.00714119 2.54824e-20)
(-0.249094 -0.000471172 -5.12218e-20)
(-0.248 -0.00836028 5.22641e-20)
(-0.24323 -0.0165407 -2.82999e-22)
(-0.234418 -0.024978 -1.14125e-19)
(-0.22114 -0.0336074 0)
(-0.202912 -0.0423356 0)
(-0.179198 -0.0510481 0)
(-0.1494 -0.0596055 -6.45908e-19)
(-0.112852 -0.0678386 -3.60022e-19)
(-0.0688143 -0.0755056 0)
(-0.0164806 -0.0822231 0)
(0.0448455 -0.0873452 -9.8964e-19)
(0.115396 -0.0899817 0)
(0.194848 -0.0890435 0)
(0.282272 -0.083505 2.51185e-18)
(0.375631 -0.0721728 -1.31273e-18)
(0.471938 -0.0543137 -2.6973e-18)
(0.56691 -0.0299688 6.2403e-21)
(0.656664 -0.000513001 2.65595e-18)
(0.737272 0.0321465 1.27485e-18)
(0.807647 0.0653376 0)
(0.865603 0.0976639 1.14383e-18)
(0.914861 0.126532 2.15328e-18)
(0.951793 0.153351 1.94294e-18)
(0.988369 0.173658 -1.82562e-18)
(1.01049 0.19561 -1.49436e-18)
(1.05125 0.205392 1.48072e-18)
(1.06299 0.228074 -6.51346e-19)
(1.13706 0.225411 -9.95878e-19)
(0.946454 0.0951121 1.24675e-19)
(0.713771 0.0773915 3.45161e-18)
(0.478964 0.0467195 3.65101e-21)
(0.206479 0.0409581 -5.65163e-21)
(0.0636657 0.0148095 0)
(-0.02837 0.0164525 0)
(-0.0240737 0.00715546 2.18785e-22)
(-0.040516 0.0116302 0)
(-0.0365958 0.0128642 0)
(-0.0425679 0.0182927 1.57737e-22)
(-0.0447205 0.023075 0)
(-0.0531715 0.0265051 0)
(-0.0626047 0.0274771 1.10021e-18)
(-0.07504 0.0246126 0)
(-0.0871463 0.0166389 0)
(-0.0973435 0.00242487 0)
(-0.101909 -0.0169047 0)
(-0.098417 -0.0357965 -1.01865e-21)
(-0.0863645 -0.0419361 -4.54712e-19)
(-0.0712085 -0.0191737 9.64954e-19)
(-0.062373 0.034389 -1.07804e-21)
(-0.0782443 0.0875921 4.90196e-19)
(-0.105702 0.106154 0)
(-0.129496 0.0910765 3.55402e-19)
(-0.153076 0.0680547 0)
(-0.174678 0.0517497 -1.32059e-19)
(-0.192427 0.0401166 -2.30041e-23)
(-0.206754 0.0309836 0)
(-0.217836 0.022965 0)
(-0.225939 0.0153083 1.03829e-23)
(-0.231046 0.00762958 -1.61001e-23)
(-0.233063 -0.000272556 2.48577e-20)
(-0.231755 -0.00847835 0)
(-0.226834 -0.01701 -1.05375e-19)
(-0.217928 -0.0258395 1.11192e-19)
(-0.204612 -0.0349073 0)
(-0.186399 -0.0441244 -2.58025e-19)
(-0.162748 -0.0533796 0)
(-0.133062 -0.0625372 1.11524e-21)
(-0.0966704 -0.0714315 0)
(-0.052831 -0.0798229 3.91215e-19)
(-0.000727898 -0.0873182 4.36949e-19)
(0.0603225 -0.0932345 3.26739e-21)
(0.130537 -0.0966229 -1.0657e-18)
(0.209599 -0.096333 0)
(0.296571 -0.0912527 -4.27531e-21)
(0.389392 -0.0800976 1.30246e-18)
(0.485025 -0.0620518 5.51599e-21)
(0.579133 -0.0371441 1.34212e-18)
(0.667816 -0.00682196 -7.00425e-21)
(0.747186 0.0268704 -7.48777e-21)
(0.816251 0.0611267 0)
(0.87292 0.0944219 0)
(0.921019 0.124106 0)
(0.956946 0.151524 0)
(0.992757 0.17223 0)
(1.01428 0.194365 1.44146e-18)
(1.05469 0.204104 0)
(1.06626 0.226672 0)
(1.13967 0.223436 -9.71469e-19)
(0.949747 0.10346 -4.83366e-19)
(0.743317 0.083915 0)
(0.525388 0.0548097 5.13982e-21)
(0.259882 0.046036 -6.37877e-21)
(0.0961507 0.0190538 0)
(-0.0139145 0.0177775 2.06829e-18)
(-0.0198343 0.00742116 -1.89063e-18)
(-0.0381518 0.0117242 0)
(-0.0344172 0.0127373 0)
(-0.0398375 0.0182436 -1.40258e-18)
(-0.0409379 0.023101 0)
(-0.0483399 0.0267612 0)
(-0.0569287 0.0279275 -1.08794e-18)
(-0.0689679 0.0252328 0)
(-0.0813477 0.0172858 -9.70126e-19)
(-0.0927746 0.00289939 0)
(-0.0997116 -0.0168629 0)
(-0.099579 -0.0363639 -9.90319e-22)
(-0.0910379 -0.0429778 0)
(-0.0779761 -0.0200308 -4.75911e-19)
(-0.0679375 0.0349353 5.09419e-19)
(-0.0783606 0.0896762 -9.64676e-19)
(-0.0997896 0.108528 4.17313e-19)
(-0.119751 0.0932956 -3.4882e-19)
(-0.141274 0.0702222 0)
(-0.161515 0.0536506 -1.2945e-19)
(-0.178353 0.0416795 2.33313e-19)
(-0.192009 0.0322405 0)
(-0.202566 0.0239443 -2.54835e-20)
(-0.210243 0.0160253 1.2299e-20)
(-0.214998 0.00808031 -1.21011e-20)
(-0.21673 -0.000104725 -2.42809e-20)
(-0.2152 -0.00862059 0)
(-0.210118 -0.017497 -1.02384e-19)
(-0.20111 -0.0267126 1.07991e-19)
(-0.187748 -0.036213 0)
(-0.169541 -0.0459134 2.52387e-19)
(-0.145946 -0.0557061 0)
(-0.116364 -0.0654588 3.07796e-19)
(-0.0801211 -0.0750095 0)
(-0.0364715 -0.0841208 -3.84729e-19)
(0.0154075 -0.0923895 -4.30315e-19)
(0.0761789 -0.0990945 3.27465e-21)
(0.146056 -0.103229 1.0535e-18)
(0.224726 -0.103582 0)
(0.311238 -0.0989527 -1.22915e-18)
(0.403509 -0.0879647 0)
(0.498444 -0.0697182 1.32889e-18)
(0.59165 -0.0442326 0)
(0.679212 -0.0130323 -1.31053e-18)
(0.757284 0.0216966 -2.51243e-18)
(0.824975 0.0570118 0)
(0.880296 0.0912616 0)
(0.927183 0.121743 0)
(0.962057 0.149737 9.31203e-19)
(0.997068 0.170821 0)
(1.01795 0.193117 -1.01618e-20)
(1.058 0.202801 0)
(1.06934 0.225237 5.8059e-19)
(1.14209 0.221451 9.43911e-19)
(0.952626 0.11105 0)
(0.768755 0.090174 3.25206e-18)
(0.568536 0.0627661 3.60266e-18)
(0.313142 0.0517443 -7.07381e-21)
(0.133292 0.0239971 0)
(0.00604706 0.0195075 -2.0393e-18)
(-0.0136814 0.00794426 0)
(-0.0350353 0.0118371 1.71225e-18)
(-0.0318194 0.0125598 1.5364e-18)
(-0.0368657 0.0181108 1.39775e-18)
(-0.0369665 0.023024 1.27098e-18)
(-0.0433191 0.0269233 1.16703e-18)
(-0.0510109 0.0283074 0)
(-0.062562 0.025827 0)
(-0.0750825 0.0179751 9.60559e-19)
(-0.0875773 0.00351091 0)
(-0.0967212 -0.0165821 0)
(-0.0998244 -0.0366336 -8.82395e-19)
(-0.0947368 -0.0437866 0)
(-0.0837458 -0.0209126 -4.70534e-19)
(-0.0724975 0.0350441 0)
(-0.0776393 0.0910847 4.74835e-19)
(-0.0933496 0.11034 -4.10662e-19)
(-0.109714 0.0951823 0)
(-0.129233 0.0721946 0)
(-0.148127 0.0554223 -4.31323e-23)
(-0.164049 0.043152 -1.14491e-19)
(-0.177025 0.0334285 0)
(-0.187047 0.0248681 2.49747e-20)
(-0.194286 0.0166959 1.20286e-20)
(-0.198681 0.00849209 -1.18205e-20)
(-0.200118 3.0892e-05 0)
(-0.198358 -0.00878859 0)
(-0.193107 -0.0180036 2.65711e-22)
(-0.183989 -0.0275993 -3.17487e-22)
(-0.170573 -0.0375267 0)
(-0.152366 -0.0477052 0)
(-0.128821 -0.0580305 2.70389e-19)
(-0.0993336 -0.0683734 0)
(-0.0632306 -0.0785759 0)
(-0.0197615 -0.0884032 0)
(0.0318992 -0.0974403 0)
(0.0923905 -0.104928 9.42463e-19)
(0.161932 -0.109804 1.03716e-18)
(0.240209 -0.110792 0)
(0.326257 -0.106607 0)
(0.417963 -0.0957757 1.28107e-18)
(0.512177 -0.0773138 0)
(0.604443 -0.0512339 0)
(0.69083 -0.019143 -1.30025e-18)
(0.767543 0.0166267 1.25634e-18)
(0.833798 0.0529948 0)
(0.887714 0.0881848 0)
(0.933343 0.119443 0)
(0.967123 0.147993 -9.26064e-19)
(1.00131 0.169435 8.5916e-19)
(1.02151 0.191869 -2.76713e-18)
(1.06118 0.201486 0)
(1.07225 0.223779 -5.68355e-19)
(1.14437 0.219459 -9.30941e-19)
(0.955201 0.117976 0)
(0.790619 0.0961186 -3.23454e-18)
(0.608196 0.0705001 0)
(0.365499 0.0579366 -5.75613e-18)