/*--------------------------------*- C++ -*----------------------------------*\
| =========                 |                                                 |
| \\      /  F ield         | OpenFOAM: The Open Source CFD Toolbox           |
|  \\    /   O peration     | Version:  2.4.0                                 |
|   \\  /    A nd           | Web:      www.OpenFOAM.org                      |
|    \\/     M anipulation  |                                                 |
\*---------------------------------------------------------------------------*/
FoamFile
{
    version     2.0;
    format      ascii;
    class       volScalarField;
    location    "6.24";
    object      p;
}
// * * * * * * * * * * * * * * * * * * * * * * * * * * * * * * * * * * * * * //

dimensions      [0 2 -2 0 0 0 0];

internalField   nonuniform List<scalar> 
6000
(
-0.124706
0.232117
0.189394
0.209255
0.201904
0.206689
0.203683
0.205631
0.204349
0.205078
0.204521
0.204759
0.204532
0.204606
0.204528
0.204582
0.204631
0.2048
0.205059
0.205463
0.206009
0.206735
0.207659
0.208798
0.210169
0.211791
0.213681
0.215855
0.218329
0.221118
0.224234
0.227688
0.231488
0.235638
0.240133
0.244967
0.25012
0.255571
0.261277
0.267201
0.273262
0.279422
0.28552
0.291565
0.297227
0.302672
0.307217
0.311414
0.313814
0.316099
0.314626
0.314541
0.30583
0.30415
0.280441
0.282619
0.223263
0.250736
0.0936598
0.219258
-0.0983669
0.228702
0.189467
0.209102
0.201925
0.206675
0.203695
0.20563
0.204362
0.205086
0.204535
0.204772
0.204549
0.204626
0.20455
0.204605
0.204654
0.204821
0.205076
0.205476
0.206018
0.206739
0.207658
0.208791
0.210156
0.211771
0.213654
0.21582
0.218286
0.221064
0.224175
0.227623
0.231417
0.235558
0.240045
0.24487
0.250013
0.255452
0.261144
0.267053
0.273096
0.279235
0.285309
0.291325
0.296952
0.302359
0.306868
0.311018
0.313373
0.315589
0.31406
0.31387
0.305098
0.303243
0.279492
0.281336
0.222076
0.248749
0.0922812
0.215827
-0.081479
0.225248
0.189496
0.20901
0.201933
0.206669
0.203702
0.205637
0.204374
0.205103
0.204552
0.204794
0.204573
0.204657
0.204584
0.204644
0.204693
0.20486
0.205113
0.20551
0.206048
0.206767
0.20768
0.208808
0.210166
0.211774
0.213648
0.215805
0.218261
0.221032
0.224126
0.227559
0.231336
0.23546
0.239928
0.244732
0.249854
0.255269
0.260935
0.266816
0.272828
0.278933
0.284969
0.290945
0.296527
0.301885
0.306343
0.310441
0.312733
0.314889
0.31328
0.313021
0.304143
0.302204
0.278315
0.280034
0.220592
0.246995
0.0902893
0.212951
-0.0692563
0.221395
0.189707
0.208926
0.201933
0.206664
0.203707
0.205646
0.204385
0.205123
0.204569
0.204819
0.204598
0.204689
0.204619
0.204682
0.204732
0.204899
0.20515
0.205545
0.206081
0.206795
0.207704
0.208826
0.210177
0.211777
0.213642
0.215789
0.218233
0.22099
0.224072
0.227489
0.231249
0.235355
0.239803
0.244585
0.249683
0.255073
0.260712
0.266563
0.272542
0.278613
0.284609
0.290544
0.296079
0.301389
0.305788
0.309832
0.312052
0.314148
0.312442
0.312122
0.303104
0.301114
0.277005
0.278696
0.218886
0.245277
0.0879005
0.21031
-0.0574492
0.217269
0.19009
0.208845
0.201932
0.206656
0.203712
0.205655
0.204394
0.205141
0.204584
0.204841
0.20462
0.204718
0.204649
0.204716
0.204765
0.204932
0.205181
0.205574
0.206107
0.206818
0.207722
0.208838
0.210183
0.211775
0.213631
0.215768
0.218202
0.220946
0.224016
0.227419
0.231163
0.235252
0.239682
0.244445
0.249522
0.254889
0.260502
0.266327
0.272276
0.278315
0.284276
0.290174
0.295665
0.300929
0.305271
0.309261
0.311408
0.313443
0.311636
0.311253
0.302083
0.300046
0.275688
0.277376
0.217127
0.243588
0.0854339
0.207858
-0.0458646
0.213032
0.190598
0.208749
0.201939
0.206644
0.203717
0.205663
0.204402
0.205157
0.204596
0.204861
0.204639
0.204742
0.204674
0.204743
0.204792
0.204959
0.205206
0.205597
0.206127
0.206835
0.207734
0.208844
0.210182
0.211767
0.213615
0.215743
0.218167
0.220901
0.223958
0.227349
0.23108
0.235154
0.239568
0.244314
0.249372
0.254719
0.260311
0.266112
0.272035
0.278046
0.283974
0.289838
0.295289
0.30051
0.304798
0.308735
0.31081
0.312785
0.310877
0.310431
0.301109
0.299022
0.274411
0.276094
0.215398
0.241937
0.0830226
0.205573
-0.0351241
0.208785
0.191137
0.208625
0.201959
0.206628
0.203722
0.205669
0.204408
0.205171
0.204607
0.204878
0.204654
0.204763
0.204694
0.204766
0.204814
0.204981
0.205226
0.205615
0.206142
0.206847
0.207741
0.208846
0.210178
0.211755
0.213596
0.215716
0.21813
0.220855
0.223902
0.227281
0.230999
0.235061
0.239461
0.244192
0.249233
0.254563
0.260135
0.265916
0.271815
0.2778
0.283699
0.289531
0.294945
0.300124
0.304361
0.308248
0.310254
0.312169
0.310163
0.309654
0.300181
0.298043
0.273183
0.274858
0.213723
0.240337
0.0807106
0.203452
-0.0252845
0.2046
0.191635
0.208482
0.201985
0.206609
0.203728
0.205674
0.204414
0.205183
0.204616
0.204893
0.204668
0.20478
0.204712
0.204785
0.204832
0.204999
0.205242
0.205629
0.206153
0.206854
0.207744
0.208844
0.21017
0.211741
0.213574
0.215686
0.218093
0.220808
0.223845
0.227214
0.230922
0.234971
0.239359
0.244077
0.249104
0.254418
0.259973
0.265734
0.271612
0.277575
0.283446
0.289249
0.294627
0.299769
0.303956
0.307795
0.309734
0.311591
0.309489
0.308919
0.299298
0.297109
0.272004
0.27367
0.212107
0.238792
0.0785094
0.201485
-0.016116
0.200539
0.192042
0.208337
0.202006
0.206591
0.203735
0.205678
0.20442
0.205193
0.204624
0.204906
0.204679
0.204795
0.204726
0.204801
0.204847
0.205013
0.205254
0.205639
0.206161
0.206859
0.207744
0.208839
0.210159
0.211724
0.213551
0.215656
0.218054
0.220761
0.22379
0.227149
0.230847
0.234886
0.239263
0.243969
0.248983
0.254283
0.259823
0.265568
0.271426
0.277368
0.283214
0.28899
0.294335
0.29944
0.303581
0.307373
0.309248
0.311049
0.308854
0.308223
0.298459
0.296218
0.270876
0.272529
0.210553
0.237302
0.0764233
0.199656
-0.00746384
0.196644
0.192336
0.208188
0.202022
0.206575
0.203744
0.20568
0.204426
0.205203
0.204632
0.204917
0.204689
0.204808
0.204738
0.204814
0.204859
0.205025
0.205264
0.205647
0.206166
0.20686
0.207742
0.208832
0.210146
0.211705
0.213526
0.215624
0.218015
0.220715
0.223735
0.227086
0.230775
0.234805
0.239172
0.243867
0.24887
0.254158
0.259684
0.265414
0.271255
0.277178
0.283002
0.288751
0.294066
0.299136
0.303233
0.306981
0.308793
0.310541
0.308255
0.307564
0.297662
0.295367
0.269797
0.271432
0.209062
0.235864
0.0744545
0.197949
0.000724584
0.192935
0.192512
0.208018
0.202059
0.20656
0.203755
0.205682
0.204432
0.205211
0.204638
0.204927
0.204697
0.204819
0.204747
0.204825
0.204869
0.205034
0.205272
0.205652
0.206168
0.20686
0.207737
0.208822
0.210132
0.211685
0.2135
0.215591
0.217976
0.220669
0.223681
0.227025
0.230706
0.234728
0.239086
0.243772
0.248765
0.254042
0.259556
0.265273
0.271098
0.277003
0.282806
0.288532
0.293818
0.298855
0.302911
0.306615
0.308368
0.310063
0.307691
0.30694
0.296904
0.294555
0.268766
0.270376
0.207636
0.234475
0.0726027
0.196349
0.00847795
0.189427
0.192572
0.207824
0.202127
0.206544
0.20377
0.205683
0.204438
0.205218
0.204644
0.204936
0.204704
0.204828
0.204756
0.204834
0.204877
0.205042
0.205277
0.205656
0.206169
0.206857
0.207731
0.208811
0.210116
0.211664
0.213473
0.215559
0.217937
0.220623
0.223629
0.226966
0.23064
0.234654
0.239004
0.243682
0.248666
0.253934
0.259437
0.265142
0.270953
0.276842
0.282626
0.288329
0.293588
0.298594
0.30261
0.306274
0.30797
0.309613
0.307158
0.306347
0.296184
0.293779
0.267781
0.26936
0.206272
0.233132
0.070866
0.194842
0.0158315
0.18613
0.192524
0.207596
0.202228
0.206522
0.203791
0.205685
0.204446
0.205225
0.20465
0.204944
0.204711
0.204836
0.204763
0.204842
0.204884
0.205048
0.205281
0.205658
0.206168
0.206854
0.207723
0.208799
0.210099
0.211642
0.213446
0.215526
0.217899
0.220579
0.223578
0.226909
0.230576
0.234584
0.238927
0.243598
0.248575
0.253834
0.259328
0.265021
0.27082
0.276694
0.28246
0.288142
0.293376
0.298352
0.302331
0.305954
0.307596
0.309188
0.306653
0.305784
0.295498
0.293035
0.26684
0.26838
0.204971
0.231832
0.0692411
0.193414
0.0228201
0.18305
0.192377
0.207329
0.20236
0.206484
0.203817
0.205688
0.204455
0.205232
0.204656
0.204952
0.204717
0.204843
0.204769
0.204848
0.204889
0.205053
0.205284
0.205659
0.206167
0.206849
0.207714
0.208787
0.210082
0.21162
0.213418
0.215493
0.217861
0.220535
0.223529
0.226854
0.230515
0.234517
0.238855
0.243519
0.248489
0.253741
0.259226
0.26491
0.270697
0.276557
0.282307
0.287969
0.293179
0.298126
0.302069
0.305654
0.307244
0.308787
0.306175
0.305247
0.294845
0.292322
0.265941
0.267434
0.203729
0.230572
0.0677245
0.192056
0.0294717
0.180188
0.192143
0.207019
0.202507
0.206444
0.203845
0.205693
0.204466
0.205239
0.204663
0.204959
0.204723
0.20485
0.204774
0.204854
0.204894
0.205057
0.205287
0.205659
0.206164
0.206844
0.207705
0.208774
0.210064
0.211598
0.213392
0.215462
0.217824
0.220493
0.223482
0.226801
0.230458
0.234454
0.238786
0.243445
0.248409
0.253654
0.259131
0.264807
0.270583
0.276431
0.282165
0.287808
0.292995
0.297915
0.301825
0.305373
0.306912
0.308407
0.305721
0.304735
0.294222
0.291635
0.265081
0.266518
0.202546
0.229348
0.0663123
0.190756
0.035808
0.177544
0.191834
0.206665
0.202654
0.206411
0.203871
0.205702
0.204479
0.205246
0.20467
0.204966
0.204729
0.204857
0.20478
0.20486
0.204899
0.205061
0.205289
0.205659
0.206162
0.206838
0.207696
0.208761
0.210047
0.211577
0.213366
0.215431
0.217789
0.220453
0.223437
0.226751
0.230403
0.234395
0.238722
0.243376
0.248334
0.253574
0.259044
0.264711
0.270478
0.276314
0.282034
0.287659
0.292824
0.297718
0.301595
0.305107
0.306598
0.308045
0.305289
0.304245
0.293627
0.290975
0.26426
0.265631
0.20142
0.228158
0.0650005
0.189506
0.0418474
0.175112
0.191462
0.206269
0.202792
0.206384
0.203898
0.205714
0.204496
0.205254
0.204679
0.204973
0.204735
0.204863
0.204786
0.204866
0.204904
0.205065
0.205291
0.205659
0.20616
0.206833
0.207688
0.208748
0.210031
0.211556
0.213341
0.215402
0.217755
0.220415
0.223394
0.226704
0.230352
0.23434
0.238662
0.243312
0.248265
0.253499
0.258963
0.264623
0.270381
0.276206
0.281912
0.28752
0.292665
0.297533
0.301379
0.304856
0.306301
0.307701
0.304878
0.303774
0.293058
0.290337
0.263474
0.26477
0.200348
0.226999
0.0637853
0.188297
0.0476066
0.172888
0.191041
0.205835
0.202917
0.206366
0.203928
0.20573
0.204518
0.205265
0.204689
0.204982
0.204742
0.204871
0.204792
0.204872
0.204909
0.205069
0.205294
0.20566
0.206158
0.206829
0.20768
0.208737
0.210016
0.211537
0.213318
0.215375
0.217723
0.220379
0.223354
0.22666
0.230304
0.234288
0.238607
0.243252
0.248201
0.25343
0.258889
0.264542
0.270291
0.276106
0.281799
0.287391
0.292516
0.29736
0.301176
0.304618
0.306019
0.307372
0.304485
0.303322
0.292513
0.289721
0.262722
0.263933
0.199329
0.225869
0.0626628
0.187123
0.0531004
0.170866
0.190582
0.205369
0.203024
0.206352
0.203969
0.205746
0.204545
0.205277
0.204702
0.204991
0.204751
0.204879
0.204799
0.204879
0.204915
0.205074
0.205297
0.205662
0.206158
0.206825
0.207673
0.208727
0.210002
0.21152
0.213296
0.215349
0.217694
0.220345
0.223317
0.226619
0.230259
0.23424
0.238555
0.243197
0.248142
0.253367
0.258821
0.264468
0.270209
0.276014
0.281695
0.287271
0.292377
0.297196
0.300983
0.304392
0.30575
0.307058
0.30411
0.302887
0.291991
0.289124
0.262003
0.263118
0.198361
0.224765
0.0616294
0.185977
0.0583425
0.169037
0.190097
0.204876
0.203108
0.20634
0.204028
0.205756
0.204577
0.205294
0.204717
0.205002
0.204762
0.204888
0.204808
0.204888
0.204923
0.205081
0.205302
0.205665
0.206158
0.206824
0.207669
0.208719
0.20999
0.211504
0.213277
0.215326
0.217667
0.220315
0.223283
0.226582
0.230219
0.234196
0.238508
0.243147
0.248089
0.25331
0.258758
0.264399
0.270133
0.275929
0.281598
0.287158
0.292246
0.297043
0.300802
0.304177
0.305494
0.306756
0.30375
0.302467
0.291491
0.288546
0.261314
0.262324
0.197443
0.223685
0.0606817
0.184853
0.0633454
0.167393
0.189596
0.204364
0.203167
0.206327
0.204104
0.205765
0.204614
0.205314
0.204737
0.205016
0.204774
0.2049
0.204819
0.204898
0.204932
0.205089
0.205309
0.20567
0.206161
0.206824
0.207666
0.208713
0.209981
0.211491
0.213261
0.215306
0.217643
0.220288
0.223252
0.226548
0.230182
0.234156
0.238466
0.243102
0.24804
0.253258
0.258702
0.264337
0.270064
0.27585
0.281508
0.287054
0.292123
0.296897
0.30063
0.303972
0.30525
0.306466
0.303405
0.302062
0.29101
0.287984
0.260655
0.261549
0.196572
0.222627
0.0598165
0.183745
0.0681206
0.165924
0.18909
0.203837
0.2032
0.206308
0.204194
0.205775
0.204655
0.20534
0.204761
0.205032
0.20479
0.204913
0.204832
0.20491
0.204944
0.2051
0.205318
0.205677
0.206166
0.206826
0.207665
0.208709
0.209974
0.211481
0.213247
0.215289
0.217623
0.220264
0.223226
0.226519
0.23015
0.234122
0.238429
0.243062
0.247997
0.253211
0.258651
0.264281
0.270001
0.275778
0.281425
0.286956
0.292009
0.29676
0.300466
0.303776
0.305016
0.306187
0.303074
0.301669
0.290548
0.287437
0.260025
0.260792
0.195748
0.22159
0.0590304
0.18265
0.0726792
0.164623
0.188585
0.203304
0.203207
0.206284
0.204294
0.205791
0.204698
0.205371
0.20479
0.205052
0.204809
0.20493
0.204848
0.204925
0.204958
0.205113
0.20533
0.205687
0.206174
0.206832
0.207668
0.208709
0.209971
0.211474
0.213237
0.215276
0.217606
0.220244
0.223203
0.226494
0.230122
0.234091
0.238396
0.243027
0.247959
0.25317
0.258606
0.264231
0.269944
0.275713
0.281349
0.286866
0.291901
0.29663
0.300311
0.303588
0.304792
0.305918
0.302755
0.301288
0.290104
0.286905
0.259421
0.260051
0.194969
0.22057
0.0583208
0.181563
0.0770318
0.163478
0.188088
0.202769
0.203189
0.206251
0.204403
0.205816
0.204745
0.205406
0.204825
0.205077
0.204832
0.20495
0.204867
0.204944
0.204976
0.20513
0.205345
0.2057
0.206185
0.20684
0.207674
0.208712
0.209971
0.211472
0.213231
0.215267
0.217594
0.220229
0.223185
0.226473
0.230099
0.234066
0.238369
0.242997
0.247927
0.253134
0.258566
0.264186
0.269894
0.275653
0.281279
0.286781
0.2918
0.296507
0.300163
0.303409
0.304577
0.305658
0.302449
0.300917
0.289677
0.286386
0.258843
0.259326
0.194233
0.219568
0.0576848
0.180481
0.0811883
0.162481
0.187606
0.202239
0.203148
0.20621
0.204518
0.205849
0.204798
0.205443
0.204868
0.205108
0.20486
0.204973
0.20489
0.204966
0.204997
0.20515
0.205364
0.205717
0.2062
0.206853
0.207684
0.208719
0.209975
0.211473
0.213229
0.215262
0.217586
0.220219
0.223172
0.226458
0.230082
0.234047
0.238347
0.242973
0.2479
0.253105
0.258533
0.264148
0.269849
0.2756
0.281215
0.286704
0.291706
0.296391
0.300023
0.303236
0.304371
0.305406
0.302153
0.300557
0.289265
0.285879
0.25829
0.258615
0.193541
0.218581
0.0571197
0.1794
0.0851583
0.161622
0.187143
0.201717
0.203087
0.206161
0.204637
0.20589
0.204861
0.205484
0.204917
0.205144
0.204893
0.205002
0.204918
0.204992
0.205023
0.205174
0.205387
0.205738
0.206219
0.20687
0.207698
0.208731
0.209984
0.211479
0.213233
0.215262
0.217584
0.220213
0.223164
0.226448
0.23007
0.234033
0.238331
0.242955
0.24788
0.253081
0.258506
0.264116
0.26981
0.275553
0.281158
0.286632
0.291618
0.296281
0.299889
0.303071
0.304173
0.305162
0.301867
0.300207
0.288869
0.285383
0.257761
0.257917
0.192889
0.217609
0.0566233
0.178317
0.0889512
0.160892
0.186703
0.201209
0.20301
0.206104
0.204758
0.205938
0.204936
0.205529
0.204973
0.205187
0.204933
0.205036
0.204951
0.205023
0.205053
0.205203
0.205414
0.205764
0.206243
0.206892
0.207718
0.208748
0.209998
0.21149
0.213241
0.215268
0.217587
0.220214
0.223162
0.226444
0.230063
0.234025
0.238321
0.242943
0.247865
0.253064
0.258485
0.264089
0.269778
0.275512
0.281106
0.286566
0.291536
0.296177
0.299762
0.302912
0.303982
0.304925
0.301591
0.299865
0.288486
0.284899
0.257255
0.257232
0.192278
0.216649
0.0561931
0.17723
0.0925758
0.160282
0.186288
0.200718
0.20292
0.206041
0.204879
0.205994
0.205023
0.205579
0.205034
0.205237
0.20498
0.205076
0.20499
0.20506
0.205089
0.205238
0.205447
0.205796
0.206272
0.206919
0.207742
0.20877
0.210017
0.211507
0.213255
0.215279
0.217595
0.22022
0.223167
0.226446
0.230064
0.234023
0.238317
0.242937
0.247857
0.253053
0.25847
0.26407
0.269751
0.275477
0.281061
0.286506
0.29146
0.296079
0.299641
0.302759
0.303798
0.304696
0.301325
0.299531
0.288118
0.284424
0.256772
0.256559
0.191706
0.215701
0.055827
0.176136
0.0960406
0.159783
0.185901
0.200247
0.202821
0.205974
0.204998
0.206057
0.205123
0.205637
0.205101
0.205293
0.205035
0.205123
0.205035
0.205102
0.205131
0.205278
0.205486
0.205833
0.206307
0.206952
0.207773
0.208798
0.210043
0.21153
0.213275
0.215297
0.217611
0.220233
0.223177
0.226455
0.230071
0.234028
0.238321
0.242938
0.247856
0.253049
0.258462
0.264056
0.269731
0.275448
0.281021
0.286452
0.29139
0.295987
0.299526
0.302611
0.30362
0.304472
0.301067
0.299206
0.287762
0.283959
0.25631
0.255897
0.191173
0.214765
0.0555231
0.175033
0.0993537
0.159388
0.185542
0.199798
0.202716
0.205905
0.205116
0.206126
0.205235
0.205703
0.205176
0.205356
0.205097
0.205177
0.205087
0.205151
0.205179
0.205324
0.205532
0.205876
0.206349
0.206991
0.20781
0.208833
0.210075
0.21156
0.213302
0.215321
0.217633
0.220253
0.223195
0.226471
0.230085
0.23404
0.238331
0.242947
0.247862
0.253051
0.25846
0.264049
0.269718
0.275425
0.280988
0.286404
0.291326
0.2959
0.299416
0.30247
0.30345
0.304255
0.300817
0.298887
0.287419
0.283503
0.25587
0.255246
0.190677
0.213838
0.0552793
0.17392
0.102523
0.159088
0.185213
0.199374
0.202608
0.205837
0.205232
0.206201
0.20536
0.20578
0.20526
0.205425
0.205167
0.205239
0.205147
0.205207
0.205234
0.205378
0.205584
0.205927
0.206398
0.207038
0.207855
0.208875
0.210115
0.211597
0.213337
0.215353
0.217662
0.22028
0.223221
0.226494
0.230107
0.23406
0.238349
0.242963
0.247875
0.253061
0.258466
0.264049
0.269711
0.275409
0.28096
0.286361
0.291267
0.295818
0.299313
0.302333
0.303285
0.304044
0.300576
0.298575
0.287088
0.283056
0.25545
0.254605
0.190217
0.21292
0.0550939
0.172795
0.105556
0.158876
0.184914
0.198975
0.2025
0.205771
0.205347
0.206281
0.205495
0.205868
0.205354
0.205502
0.205246
0.205309
0.205214
0.205271
0.205297
0.205439
0.205643
0.205985
0.206454
0.207092
0.207906
0.208925
0.210162
0.211641
0.213379
0.215392
0.217699
0.220316
0.223254
0.226526
0.230136
0.234088
0.238375
0.242986
0.247896
0.253078
0.258479
0.264057
0.269711
0.275399
0.280939
0.286325
0.291214
0.295742
0.299214
0.302202
0.303126
0.303838
0.300342
0.298271
0.286769
0.282617
0.25505
0.253974
0.189794
0.212011
0.0549652
0.171656
0.108459
0.158744
0.184645
0.198603
0.202396
0.205711
0.205461
0.206368
0.205642
0.20597
0.20546
0.205587
0.205332
0.205387
0.20529
0.205343
0.205367
0.205508
0.205711
0.20605
0.206518
0.207154
0.207966
0.208982
0.210217
0.211694
0.213429
0.21544
0.217745
0.220359
0.223296
0.226566
0.230175
0.234125
0.238409
0.243018
0.247925
0.253104
0.2585
0.264071
0.269718
0.275396
0.280925
0.286294
0.291167
0.295672
0.299122
0.302076
0.302973
0.303637
0.300115
0.297972
0.286461
0.282187
0.254669
0.253352
0.189405
0.21111
0.0548916
0.170502
0.11124
0.158687
0.184406
0.198257
0.202296
0.205656
0.205577
0.206461
0.205798
0.206084
0.205579
0.205682
0.205428
0.205473
0.205374
0.205423
0.205446
0.205585
0.205787
0.206125
0.206591
0.207225
0.208035
0.209049
0.210282
0.211756
0.213488
0.215497
0.2178
0.220412
0.223347
0.226615
0.230222
0.23417
0.238453
0.243059
0.247963
0.253137
0.258528
0.264093
0.269732
0.2754
0.280916
0.28627
0.291125
0.295607
0.299034
0.301955
0.302826
0.303442
0.299896
0.29768
0.286164
0.281763
0.254308
0.252739
0.189051
0.210216
0.0548717
0.169331
0.113904
0.158699
0.184197
0.197939
0.202204
0.20561
0.205696
0.206561
0.205963
0.206211
0.205713
0.205789
0.205533
0.205569
0.205468
0.205511
0.205534
0.20567
0.205872
0.206208
0.206672
0.207305
0.208113
0.209124
0.210355
0.211827
0.213557
0.215563
0.217864
0.220474
0.223407
0.226673
0.230278
0.234224
0.238505
0.243108
0.248009
0.253179
0.258565
0.264123
0.269754
0.275411
0.280915
0.286252
0.29109
0.295547
0.298952
0.301839
0.302684
0.303252
0.299684
0.297393
0.285878
0.281348
0.253965
0.252136
0.18873
0.209329
0.054904
0.168144
0.116458
0.158772
0.184016
0.197648
0.202121
0.205574
0.205818
0.20667
0.206138
0.206352
0.205862
0.205908
0.20565
0.205674
0.205571
0.20561
0.205631
0.205765
0.205966
0.206301
0.206764
0.207394
0.208201
0.20921
0.210438
0.211908
0.213635
0.215639
0.217938
0.220546
0.223477
0.226741
0.230345
0.234289
0.238567
0.243167
0.248064
0.25323
0.258611
0.264162
0.269784
0.275429
0.28092
0.28624
0.29106
0.295493
0.298876
0.301728
0.302548
0.303067
0.299478
0.297113
0.285602
0.28094
0.253641
0.251541
0.188443
0.208448
0.0549872
0.166939
0.118906
0.158903
0.183864
0.197383
0.202047
0.205548
0.205946
0.206789
0.206322
0.206506
0.206027
0.206042
0.205779
0.205789
0.205684
0.205717
0.205737
0.20587
0.20607
0.206403
0.206865
0.207493
0.208298
0.209306
0.210532
0.211999
0.213724
0.215726
0.218023
0.220629
0.223558
0.22682
0.230422
0.234363
0.238639
0.243236
0.24813
0.253291
0.258665
0.264208
0.269821
0.275455
0.280933
0.286235
0.291037
0.295445
0.298804
0.301622
0.302417
0.302887
0.299279
0.296838
0.285337
0.280539
0.253334
0.250954
0.188188
0.207572
0.0551201
0.165715
0.121255
0.159085
0.18374
0.197145
0.201984
0.205534
0.206079
0.20692
0.206515
0.206674
0.206208
0.206192
0.205922
0.205917
0.205808
0.205836
0.205854
0.205985
0.206184
0.206516
0.206977
0.207604
0.208407
0.209412
0.210637
0.212101
0.213824
0.215824
0.218118
0.220722
0.22365
0.22691
0.230509
0.234449
0.238722
0.243316
0.248205
0.253361
0.258729
0.264264
0.269868
0.275489
0.280953
0.286237
0.29102
0.295402
0.298739
0.301522
0.302292
0.302712
0.299087
0.296569
0.285082
0.280145
0.253046
0.250376
0.187965
0.206702
0.0553015
0.164472
0.123508
0.159315
0.183643
0.196933
0.201933
0.205532
0.20622
0.207063
0.206719
0.206854
0.206405
0.206359
0.206081
0.206058
0.205944
0.205965
0.205982
0.20611
0.206308
0.206639
0.207099
0.207725
0.208527
0.20953
0.210753
0.212215
0.213935
0.215933
0.218225
0.220828
0.223753
0.227011
0.230608
0.234545
0.238815
0.243406
0.248291
0.253441
0.258802
0.264329
0.269922
0.27553
0.28098
0.286245
0.291009
0.295365
0.298679
0.301426
0.302172
0.302541
0.298902
0.296305
0.284837
0.279759
0.252775
0.249806
0.187773
0.205838
0.0555304
0.16321
0.125672
0.159587
0.183571
0.196746
0.201894
0.205542
0.206367
0.207218
0.206935
0.207049
0.206618
0.206544
0.206257
0.206213
0.206094
0.206106
0.206121
0.206246
0.206444
0.206774
0.207233
0.207857
0.208658
0.20966
0.21088
0.212341
0.214059
0.216054
0.218345
0.220945
0.223868
0.227125
0.23072
0.234654
0.238921
0.243507
0.248387
0.253532
0.258886
0.264403
0.269986
0.27558
0.281015
0.286261
0.291005
0.295335
0.298625
0.301335
0.302058
0.302376
0.298723
0.296048
0.284602
0.279379
0.252521
0.249245
0.187612
0.204978
0.0558056
0.161927
0.127749
0.159899
0.183526
0.196583
0.201868
0.205565
0.206523
0.207388
0.207164
0.20726
0.206847
0.206748
0.206452
0.206386
0.206257
0.20626
0.206272
0.206394
0.206592
0.20692
0.207379
0.208002
0.208802
0.209802
0.211021
0.212479
0.214195
0.216189
0.218477
0.221075
0.223997
0.227251
0.230843
0.234775
0.239038
0.24362
0.248495
0.253633
0.25898
0.264487
0.270059
0.275639
0.281058
0.286284
0.291008
0.29531
0.298576
0.30125
0.301949
0.302217
0.298551
0.295796
0.284377
0.279007
0.252284
0.248692
0.187482
0.204123
0.0561263
0.160623
0.129744
0.160245
0.183505
0.196445
0.201854
0.205601
0.206688
0.20757
0.207405
0.207486
0.207092
0.20697
0.206666
0.206576
0.206437
0.206429
0.206437
0.206555
0.206752
0.207079
0.207537
0.208159
0.208958
0.209957
0.211174
0.21263
0.214344
0.216336
0.218622
0.221219
0.224138
0.22739
0.23098
0.234908
0.239168
0.243746
0.248615
0.253746
0.259085
0.264582
0.270142
0.275707
0.28111
0.286315
0.291018
0.295292
0.298534
0.301171
0.301846
0.302062
0.298385
0.29555
0.284162
0.278642
0.252065
0.248147
0.187382
0.203273
0.0564916
0.159299
0.131662
0.160622
0.183508
0.196331
0.201854
0.20565
0.20686
0.207767
0.20766
0.207729
0.207353
0.207211
0.2069
0.206787
0.206635
0.206614
0.206616
0.20673
0.206925
0.207251
0.207708
0.20833
0.209127
0.210126
0.211341
0.212795
0.214507
0.216497
0.218782
0.221376
0.224293
0.227543
0.23113
0.235055
0.239311
0.243884
0.248747
0.253871
0.259201
0.264687
0.270234
0.275784
0.28117
0.286353
0.291035
0.29528
0.298497
0.301096
0.301749
0.301913
0.298227
0.29531
0.283956
0.278285
0.251862
0.24761
0.187312
0.202427
0.0569006
0.157954
0.133505
0.161028
0.183534
0.196239
0.201866
0.205711
0.207042
0.207976
0.207929
0.20799
0.207631
0.207471
0.207156
0.207018
0.206853
0.206816
0.206811
0.20692
0.207112
0.207436
0.207893
0.208514
0.209311
0.210308
0.211522
0.212974
0.214685
0.216673
0.218955
0.221548
0.224463
0.22771
0.231294
0.235215
0.239467
0.244035
0.248892
0.254008
0.259328
0.264803
0.270337
0.275871
0.281239
0.2864
0.291059
0.295275
0.298467
0.301028
0.301657
0.301769
0.298074
0.295076
0.283761
0.277935
0.251675
0.247083
0.187271
0.201586
0.0573526
0.156588
0.135276
0.161459
0.183583
0.196171
0.201891
0.205785
0.207232
0.208198
0.208211
0.208269
0.207928
0.207751
0.207432
0.207271
0.207092
0.207038
0.207024
0.207125
0.207314
0.207636
0.208092
0.208712
0.209509
0.210505
0.211718
0.213168
0.214877
0.216863
0.219144
0.221735
0.224647
0.227891
0.231473
0.235391
0.239637
0.2442
0.24905
0.254158
0.259468
0.264931
0.270451
0.275967
0.281317
0.286455
0.291091
0.295277
0.298444
0.300965
0.301572
0.30163
0.297929
0.294849
0.283575
0.277593
0.251506
0.246564
0.18726
0.200749
0.0578469
0.155201
0.13698
0.161911
0.183654
0.196124
0.20193
0.205872
0.207431
0.208433
0.208505
0.208567
0.208243
0.208051
0.207729
0.207548
0.207353
0.207281
0.207256
0.207349
0.207533
0.207852
0.208307
0.208926
0.209722
0.210717
0.211929
0.213378
0.215085
0.21707
0.219349
0.221937
0.224847
0.228089
0.231667
0.235581
0.239823
0.244379
0.249222
0.254321
0.25962
0.26507
0.270575
0.276074
0.281404
0.286518
0.291131
0.295286
0.298427
0.300909
0.301492
0.301498
0.297791
0.294627
0.2834
0.277258
0.251353
0.246054
0.187277
0.199917
0.0583827
0.153794
0.138619
0.162384
0.183745
0.196098
0.201982
0.20597
0.207638
0.208679
0.208812
0.208881
0.208577
0.208371
0.208048
0.207848
0.207638
0.207547
0.207509
0.207591
0.20777
0.208085
0.208538
0.209156
0.209951
0.210945
0.212156
0.213604
0.21531
0.217293
0.21957
0.222156
0.225063
0.228302
0.231876
0.235786
0.240023
0.244573
0.249408
0.254497
0.259785
0.265222
0.270711
0.276191
0.281501
0.28659
0.291179
0.295302
0.298417
0.300859
0.301419
0.301371
0.29766
0.294413
0.283234
0.276932
0.251217
0.245553
0.187322
0.19909
0.0589595
0.152365
0.140196
0.162873
0.183857
0.196094
0.202047
0.206081
0.207853
0.208937
0.20913
0.209213
0.20893
0.208714
0.208388
0.208171
0.207948
0.207837
0.207785
0.207855
0.208027
0.208337
0.208787
0.209403
0.210197
0.211191
0.2124
0.213847
0.215551
0.217532
0.219807
0.222391
0.225297
0.228532
0.232103
0.236008
0.240239
0.244782
0.249609
0.254688
0.259964
0.265386
0.270859
0.276319
0.281608
0.286672
0.291235
0.295326
0.298414
0.300815
0.301353
0.30125
0.297536
0.294205
0.283078
0.276614
0.251097
0.245062
0.187396
0.198268
0.0595767
0.150916
0.141713
0.163377
0.183988
0.196109
0.202125
0.206204
0.208077
0.209205
0.209459
0.209559
0.209302
0.209078
0.20875
0.208518
0.208282
0.208152
0.208086
0.208142
0.208305
0.208609
0.209055
0.209668
0.210461
0.211454
0.212662
0.214107
0.21581
0.21779
0.220063
0.222645
0.225547
0.22878
0.232346
0.236246
0.240471
0.245007
0.249825
0.254893
0.260156
0.265563
0.271019
0.276459
0.281726
0.286763
0.2913
0.295358
0.298418
0.300778
0.301293
0.301136
0.297419
0.294004
0.282933
0.276305
0.250994
0.24458
0.187499
0.197451
0.0602337
0.149447
0.143173
0.163895
0.184138
0.196145
0.202217
0.20634
0.208309
0.209484
0.209799
0.209921
0.20969
0.209464
0.209136
0.208889
0.208643
0.208494
0.208412
0.208453
0.208606
0.208902
0.209343
0.209953
0.210744
0.211735
0.212943
0.214387
0.216088
0.218066
0.220337
0.222917
0.225816
0.229045
0.232607
0.236502
0.240721
0.245248
0.250057
0.255113
0.260363
0.265754
0.271192
0.27661
0.281854
0.286863
0.291374
0.295397
0.298429
0.300747
0.30124
0.301028
0.29731
0.293811
0.282798
0.276005
0.250907
0.244109
0.187629
0.196639
0.0609303
0.147958
0.144579
0.164423
0.184305
0.1962
0.202322
0.206487
0.20855
0.209773
0.210148
0.210295
0.210095
0.20987
0.209544
0.209284
0.209029
0.208863
0.208766
0.208791
0.208932
0.209218
0.209654
0.21026
0.211048
0.212037
0.213243
0.214686
0.216385
0.218361
0.220631
0.223208
0.226104
0.229329
0.232887
0.236776
0.240988
0.245506
0.250305
0.255349
0.260585
0.265958
0.271377
0.276773
0.281993
0.286974
0.291457
0.295445
0.298448
0.300724
0.301194
0.300927
0.297208
0.293625
0.282674
0.275714
0.250837
0.243648
0.187787
0.195833
0.0616658
0.14645
0.145932
0.16496
0.18449
0.196273
0.20244
0.206646
0.208799
0.210071
0.210506
0.210682
0.210514
0.210296
0.209975
0.209704
0.20944
0.20926
0.209148
0.209157
0.209284
0.20956
0.209988
0.210589
0.211373
0.21236
0.213565
0.215005
0.216703
0.218677
0.220944
0.223519
0.226412
0.229633
0.233186
0.237068
0.241273
0.245782
0.25057
0.255601
0.260821
0.266177
0.271576
0.276948
0.282143
0.287095
0.291549
0.295502
0.298475
0.300708
0.301155
0.300834
0.297115
0.293446
0.28256
0.275432
0.250784
0.243198
0.187972
0.195033
0.0624399
0.144922
0.147234
0.165505
0.184691
0.196365
0.202571
0.206817
0.209057
0.210378
0.210873
0.21108
0.210946
0.21074
0.210427
0.210149
0.209878
0.209684
0.209559
0.209551
0.209665
0.209929
0.210348
0.210942
0.211722
0.212706
0.213908
0.215347
0.217042
0.219015
0.221279
0.22385
0.22674
0.229957
0.233504
0.23738
0.241576
0.246076
0.250852
0.255869
0.261074
0.26641
0.271788
0.277136
0.282306
0.287227
0.291651
0.295567
0.298511
0.3007
0.301123
0.300747
0.29703
0.293276
0.282457
0.275161
0.250747
0.242759
0.188185
0.19424
0.0632523
0.143376
0.148489
0.166056
0.184908
0.196475
0.202715
0.206999
0.209323
0.210695
0.211248
0.211489
0.211391
0.211201
0.2109
0.210619
0.210341
0.210136
0.209999
0.209976
0.210076
0.210326
0.210735
0.211322
0.212096
0.213076
0.214275
0.215711
0.217405
0.219374
0.221636
0.224204
0.22709
0.230302
0.233843
0.237713
0.2419
0.246389
0.251153
0.256155
0.261342
0.266659
0.272015
0.277337
0.28248
0.287369
0.291763
0.295642
0.298554
0.3007
0.3011
0.300668
0.296952
0.293115
0.282365
0.2749
0.250728
0.242332
0.188426
0.193453
0.0641026
0.141812
0.149697
0.166611
0.18514
0.196601
0.202872
0.207194
0.209598
0.211021
0.211631
0.211907
0.211846
0.211675
0.21139
0.21111
0.21083
0.210615
0.210468
0.210431
0.210517
0.210754
0.211152
0.211729
0.212497
0.213472