/*--------------------------------*- C++ -*----------------------------------*\
| =========                 |                                                 |
| \\      /  F ield         | OpenFOAM: The Open Source CFD Toolbox           |
|  \\    /   O peration     | Version:  2.4.0                                 |
|   \\  /    A nd           | Web:      www.OpenFOAM.org                      |
|    \\/     M anipulation  |                                                 |
\*---------------------------------------------------------------------------*/
FoamFile
{
    version     2.0;
    format      ascii;
    class       volVectorField;
    location    "0.4";
    object      U;
}
// * * * * * * * * * * * * * * * * * * * * * * * * * * * * * * * * * * * * * //

dimensions      [0 1 -1 0 0 0 0];

internalField   nonuniform List<vector> 
400
(
(0.365216 0.121287 -1.81017e-18)
(0.280203 0.0585522 -5.39213e-18)
(0.17127 0.0405759 4.44796e-18)
(0.140905 0.0424561 3.42884e-20)
(0.124594 0.0472886 -7.14553e-18)
(0.114542 0.0534986 6.34556e-18)
(0.107359 0.0605092 7.68371e-18)
(0.101245 0.0678707 1.8014e-22)
(0.095363 0.0753121 7.22397e-19)
(0.0892902 0.0826303 -7.24022e-19)
(0.0828441 0.08969 -5.17447e-18)
(0.0759736 0.0964172 0)
(0.0686865 0.1028 0)
(0.0610389 0.108911 4.58451e-19)
(0.0530615 0.114852 -4.58451e-19)
(0.0448841 0.121026 0)
(0.0363306 0.127435 0)
(0.0279704 0.136512 0)
(0.0183919 0.144607 0)
(0.0115287 0.178891 0)
(0.734819 0.29192 4.76787e-18)
(0.659753 0.167844 7.64652e-18)
(0.47181 0.125671 -7.01283e-18)
(0.398556 0.127123 6.97164e-19)
(0.355957 0.138681 -6.97159e-19)
(0.328566 0.155243 -8.92838e-18)
(0.308388 0.174605 8.34653e-18)
(0.290935 0.195268 9.01137e-18)
(0.274022 0.216309 -7.41961e-18)
(0.25653 0.23708 -7.29015e-20)
(0.237977 0.257145 -1.83271e-18)
(0.218227 0.276262 8.71528e-19)
(0.197321 0.294372 0)
(0.175428 0.311634 -5.44609e-18)
(0.152674 0.328324 -5.63643e-19)
(0.129442 0.345434 -3.60516e-18)
(0.105434 0.363148 1.93576e-18)
(0.0821927 0.387166 -1.96746e-19)
(0.0568676 0.409459 -4.87972e-20)
(0.0387744 0.485203 -1.02827e-19)
(0.921665 0.350313 -2.31527e-18)
(0.900184 0.261596 -2.66259e-18)
(0.713434 0.215123 -8.38335e-19)
(0.621959 0.21279 0)
(0.5634 0.227351 0)
(0.523569 0.251536 -1.26179e-18)
(0.492962 0.281151 -8.53264e-18)
(0.465741 0.313421 1.11237e-18)
(0.438936 0.346598 -1.11237e-18)
(0.411018 0.379491 0)
(0.381335 0.411311 -7.41871e-18)
(0.349737 0.441618 0)
(0.316335 0.470261 6.15557e-18)
(0.281442 0.497433 1.10935e-17)
(0.245342 0.523509 -5.7196e-19)
(0.2087 0.549904 6.18799e-19)
(0.171388 0.576893 -1.77764e-18)
(0.135736 0.612393 -1.45888e-19)
(0.0994714 0.644914 1.45887e-19)
(0.0720603 0.743992 1.55255e-19)
(1.01053 0.347138 0)
(1.04294 0.325177 8.50167e-19)
(0.895437 0.293994 -7.34952e-18)
(0.807271 0.292142 0)
(0.744012 0.309693 1.12381e-17)
(0.697561 0.340423 1.28577e-18)
(0.659684 0.378988 -1.28576e-18)
(0.624607 0.421553 0)
(0.589241 0.465582 0)
(0.551993 0.509336 9.07867e-18)
(0.512215 0.551679 6.50375e-18)
(0.469828 0.59196 0)
(0.425064 0.629907 -5.55134e-18)
(0.378402 0.665698 -1.51924e-19)
(0.330331 0.699741 -1.23933e-18)
(0.281808 0.733704 4.88745e-18)
(0.233087 0.767822 1.98488e-19)
(0.186977 0.811331 -1.98487e-19)
(0.143158 0.850106 0)
(0.107123 0.959551 1.41183e-19)
(1.04618 0.316286 4.50556e-19)
(1.11851 0.357594 -4.85856e-18)
(1.02412 0.352887 7.50631e-18)
(0.954388 0.358744 -5.35035e-18)
(0.896438 0.381927 -1.22373e-17)
(0.849205 0.419667 1.07183e-17)
(0.80744 0.466721 1.00689e-17)
(0.766603 0.518706 9.4374e-18)
(0.724137 0.572512 -1.06971e-18)
(0.678738 0.625964 9.67011e-19)
(0.629955 0.67763 -1.01596e-18)
(0.577877 0.726663 9.11636e-19)
(0.522903 0.77267 0)
(0.465702 0.815777 -1.0734e-19)
(0.406993 0.856356 0)
(0.348019 0.896178 0)
(0.289534 0.935331 1.97224e-19)
(0.234542 0.983566 1.01738e-18)
(0.185223 1.02517 1.4237e-19)
(0.141468 1.13514 -7.71722e-20)
(1.05435 0.274087 0)
(1.14999 0.363947 9.40103e-19)
(1.10883 0.389054 -7.47666e-18)
(1.06598 0.408791 6.98426e-18)
(1.02083 0.44113 5.02029e-18)
(0.97789 0.487277 -1.09688e-17)
(0.935438 0.542988 -1.15445e-17)
(0.890923 0.603883 -8.41758e-18)
(0.84285 0.666581 0)
(0.790525 0.728654 -8.37422e-18)
(0.733874 0.788469 -1.47811e-19)
(0.673243 0.845034 0)
(0.609242 0.897849 -6.25909e-18)
(0.542746 0.946961 -5.73272e-18)
(0.474719 0.99266 0)
(0.406667 1.03668 -2.42246e-19)
(0.339891 1.0789 4.81969e-20)
(0.277393 1.12888 -2.51539e-18)
(0.223845 1.1705 -4.30807e-20)
(0.17362 1.27347 -2.4653e-20)
(1.04997 0.229143 4.29098e-19)
(1.15503 0.350424 2.27163e-18)
(1.16 0.403359 1.79578e-18)
(1.14675 0.440722 -8.11172e-19)
(1.11883 0.485439 -5.90799e-18)
(1.08384 0.541722 -1.09222e-17)
(1.04329 0.606611 0)
(0.996926 0.676138 0)
(0.944647 0.746972 0)
(0.886606 0.81664 -8.23071e-18)
(0.823241 0.883443 -7.759e-18)
(0.755228 0.946318 0)
(0.683419 1.00468 6.40772e-18)
(0.608896 1.05849 -5.52147e-18)
(0.532868 1.10792 0)
(0.457075 1.15454 -2.04406e-18)
(0.383352 1.19802 -1.8475e-18)
(0.314596 1.24712 1.40737e-18)
(0.257623 1.28649 5.28879e-19)
(0.202305 1.37684 5.56565e-20)
(1.04128 0.186212 4.21406e-19)
(1.1465 0.322784 -4.59181e-19)
(1.18781 0.398471 1.09714e-17)
(1.2026 0.454772 6.20778e-18)
(1.19321 0.514163 -6.62553e-18)
(1.16801 0.582116 1.11858e-17)
(1.131 0.656731 -1.02553e-17)
(1.08413 0.734661 0)
(1.02883 0.812895 1.0826e-18)
(0.966203 0.88913 7.34674e-18)
(0.897271 0.961745 -9.11502e-19)
(0.823074 1.02969 8.65439e-20)
(0.74471 1.09233 6.94428e-18)
(0.663461 1.14955 1.10695e-17)
(0.580758 1.20136 2.34767e-18)
(0.498543 1.24907 2.09338e-18)
(0.419124 1.29217 1.69868e-18)
(0.34527 1.33815 0)
(0.285389 1.37345 -3.67362e-19)
(0.226367 1.44719 -9.45792e-20)
(1.03251 0.147353 4.15786e-19)
(1.13329 0.285755 -1.32444e-18)
(1.20114 0.377908 8.03646e-19)
(1.23966 0.452563 6.51388e-19)
(1.24735 0.527746 -6.4962e-19)
(1.23185 0.608312 0)
(1.19882 0.692904 1.05066e-17)
(1.15216 0.778837 -9.51616e-18)
(1.0947 0.863624 0)
(1.02848 0.945314 0)
(0.955108 1.0225 0)
(0.875947 1.09424 6.69149e-18)
(0.792326 1.15988 -6.26931e-18)
(0.705692 1.21921 -5.54753e-18)
(0.617669 1.2721 -2.40521e-18)
(0.530352 1.31952 0)
(0.446432 1.36077 0)
(0.368596 1.40179 -6.81488e-19)
(0.306187 1.43156 -2.22578e-19)
(0.244831 1.48608 0)
(1.02561 0.112733 4.12218e-19)
(1.12112 0.242768 -4.52566e-19)
(1.20711 0.345366 -3.44143e-18)
(1.26343 0.436639 -9.00614e-19)
(1.28451 0.527583 1.27002e-17)
(1.27678 0.62086 0)
(1.24699 0.715102 0)
(1.20055 0.808254 9.75293e-18)
(1.14145 0.898487 -8.69692e-18)
(1.07252 0.984356 0)
(0.995795 1.06478 0)
(0.912927 1.13896 -1.33835e-17)
(0.825403 1.20629 0)
(0.734788 1.26646 -2.53648e-18)
(0.642843 1.31918 0)
(0.551772 1.36504 0)
(0.464537 1.40317 -1.61237e-19)
(0.383823 1.4378 6.27965e-19)
(0.319261 1.46085 7.6927e-19)
(0.256917 1.49481 0)
(1.02138 0.0813183 4.10728e-19)
(1.11342 0.195978 -1.33076e-18)
(1.21076 0.304299 8.7795e-19)
(1.27805 0.41003 -6.48319e-18)
(1.30712 0.515717 -6.04499e-18)
(1.30371 0.620821 0)
(1.27536 0.723606 0)
(1.22856 0.822635 0)
(1.16807 0.916833 8.91642e-18)
(1.0972 1.00536 0)
(1.01824 1.08753 7.06128e-18)
(0.932986 1.16273 6.69026e-18)
(0.842996 1.23041 -3.46799e-18)
(0.749887 1.29017 8.5182e-19)
(0.655493 1.34154 0)
(0.562074 1.38469 -1.96511e-19)
(0.472742 1.41864 3.45195e-19)
(0.390279 1.44585 -1.48684e-19)
(0.324042 1.46127 -3.17269e-19)
(0.262043 1.4744 2.3279e-20)
(1.02015 0.0513187 0)
(1.11194 0.146519 -8.84624e-19)
(1.21487 0.257783 1.71795e-18)
(1.2856 0.375926 -8.33319e-19)
(1.31606 0.494507 0)
(1.31245 0.609505 -4.09705e-18)
(1.28308 0.718817 -1.32544e-18)
(1.23499 0.821712 0)
(1.17323 0.91795 0)
(1.10119 1.00734 0)
(1.02119 1.0896 -2.98438e-18)
(0.934972 1.1643 -9.43123e-20)
(0.84407 1.23096 4.79683e-18)
(0.750072 1.28906 1.93447e-18)
(0.654808 1.33798 -1.37549e-18)
(0.560538 1.37746 1.55784e-18)
(0.470413 1.40634 -1.35029e-19)
(0.387389 1.42554 5.50486e-19)
(0.320147 1.4327 0)
(0.259828 1.4257 -1.00286e-20)
(1.02207 0.0204404 4.14883e-19)
(1.11712 0.094936 1.36869e-18)
(1.21976 0.208639 0)
(1.28553 0.337473 2.40963e-18)
(1.31 0.466289 -5.07927e-18)
(1.30123 0.588145 5.56282e-18)
(1.2682 0.701003 0)
(1.21792 0.805052 0)
(1.15513 0.900944 4.09399e-18)
(1.08288 0.989112 -9.01374e-19)
(1.00319 1.06962 -5.92064e-18)
(0.917603 1.14224 0)
(0.827506 1.20647 -2.12812e-18)
(0.734375 1.26172 -1.13151e-18)
(0.639968 1.30718 2.49515e-18)
(0.546482 1.34219 -1.59818e-18)
(0.457002 1.3654 5.34782e-19)
(0.374707 1.37643 -4.26219e-19)
(0.307386 1.375 -9.96969e-20)
(0.250101 1.3494 -1.4406e-20)
(1.02724 -0.0139142 4.21753e-19)
(1.12795 0.0418043 -2.34985e-18)
(1.2227 0.159752 0)
(1.27401 0.297654 -8.54633e-19)
(1.28493 0.433041 1.25992e-17)
(1.26637 0.557541 0)
(1.22756 0.670019 0)
(1.1747 0.77187 4.41502e-18)
(1.11155 0.864626 -8.19971e-18)
(1.04035 0.949239 0)
(0.962596 1.02604 6.59289e-18)
(0.879463 1.0949 2.80515e-18)
(0.792095 1.1553 -2.41871e-18)
(0.70179 1.20655 0)
(0.610163 1.24765 0)
(0.519283 1.27761 -1.5018e-19)
(0.432089 1.29483 1.82915e-19)
(0.351968 1.29798 -1.71547e-19)
(0.285791 1.28807 2.47789e-19)
(0.232913 1.24613 -4.75687e-21)
(1.03533 -0.0543678 0)
(1.14115 -0.0114237 0)
(1.217 0.114467 3.51495e-18)
(1.24324 0.259144 -8.35279e-20)
(1.23383 0.396014 -1.9115e-19)
(1.20224 0.517704 0)
(1.15683 0.625048 4.78193e-18)
(1.10197 0.720859 -4.53161e-18)
(1.0398 0.807407 8.01714e-18)
(0.971413 0.885978 -4.34636e-18)
(0.897577 0.957019 -2.4346e-18)
(0.819009 1.0204 -2.87923e-18)
(0.736554 1.07557 3.0311e-18)
(0.651285 1.12172 -1.00116e-18)
(0.564613 1.15772 4.52653e-19)
(0.478422 1.18228 -1.34839e-19)
(0.395426 1.19355 -3.52919e-19)
(0.319146 1.18962 -3.13542e-19)
(0.25565 1.17181 -2.8612e-20)
(0.208554 1.11648 4.93009e-21)
(1.04452 -0.103205 4.83976e-19)
(1.14918 -0.0613091 9.42853e-19)
(1.19039 0.0769725 -4.55115e-18)
(1.18089 0.224049 -3.27096e-18)
(1.14675 0.355303 -8.81058e-18)
(1.10153 0.467519 0)
(1.05076 0.564399 -4.90904e-18)
(0.995884 0.650082 0)
(0.936926 0.727249 -4.01699e-18)
(0.873684 0.797227 3.59294e-18)
(0.806149 0.860403 -7.21047e-19)
(0.734584 0.916569 7.21046e-19)
(0.659528 0.965117 -5.20796e-19)
(0.581808 1.00515 9.44838e-19)
(0.502597 1.03544 -4.24042e-19)
(0.42352 1.05453 0)
(0.346996 1.06034 0)
(0.276526 1.05067 2.66691e-19)
(0.217559 1.02622 4.1419e-20)
(0.177571 0.961139 1.11447e-20)
(1.04855 -0.161393 -1.03524e-18)
(1.13631 -0.100896 2.08955e-18)
(1.12284 0.0523743 0)
(1.06973 0.193305 -3.9628e-18)
(1.01144 0.309305 3.7196e-18)
(0.956073 0.404462 0)
(0.903817 0.485407 0)
(0.852464 0.556964 4.25506e-18)
(0.799856 0.62166 -3.81741e-18)
(0.744637 0.680523 0)
(0.686182 0.73372 -3.67119e-18)
(0.624399 0.780917 -1.84951e-18)
(0.55957 0.821455 4.99429e-19)
(0.492283 0.854415 -9.00722e-19)
(0.423443 0.878569 7.08271e-19)
(0.35436 0.892385 -4.15917e-19)
(0.28706 0.893723 -2.17411e-19)
(0.224765 0.880309 0)
(0.17245 0.851348 -4.02061e-20)
(0.140745 0.781 -1.4074e-20)
(1.0287 -0.221361 5.52124e-19)
(1.07142 -0.117383 -4.34942e-18)
(0.984005 0.0447598 0)
(0.888359 0.164625 3.2806e-18)
(0.814901 0.253657 0)
(0.758064 0.324262 2.60113e-18)
(0.710926 0.384427 4.72386e-18)
(0.66796 0.438357 -4.36863e-18)
(0.625519 0.487747 3.9193e-18)
(0.581623 0.533048 0)
(0.535368 0.574127 3.7421e-18)
(0.486488 0.610546 5.05149e-18)
(0.435096 0.641657 -1.0763e-18)
(0.38157 0.666618 2.19617e-18)
(0.326534 0.684328 0)
(0.270929 0.693373 -9.97308e-20)
(0.216269 0.691755 4.34795e-19)
(0.16514 0.677369 0)
(0.121935 0.647317 -7.7842e-21)
(0.099245 0.577506 7.16009e-21)
(0.92921 -0.239352 6.04892e-19)
(0.891648 -0.0928496 1.56363e-18)
(0.73158 0.0478833 -9.29885e-19)
(0.61526 0.126596 -8.64384e-19)
(0.546968 0.178936 2.86928e-18)
(0.502134 0.220307 -3.9312e-18)
(0.468409 0.256769 -3.58847e-18)
(0.439224 0.290563 0)
(0.410969 0.32219 0)
(0.38188 0.351536 3.43312e-18)
(0.351203 0.378272 -6.97234e-19)
(0.3187 0.401974 6.49714e-19)
(0.28441 0.422129 -4.82952e-19)
(0.248539 0.438108 -8.925e-19)
(0.211444 0.449107 -3.79586e-19)
(0.173669 0.454069 0)
(0.136119 0.451488 0)
(0.100405 0.439724 1.11241e-20)
(0.0697843 0.414058 -9.91965e-21)
(0.0559475 0.353499 0)
(0.579175 -0.111228 -7.23962e-19)
(0.463719 -0.0269069 0)
(0.314174 0.0299556 7.69209e-19)
(0.238744 0.054796 6.54653e-19)
(0.205941 0.070952 -3.35336e-18)
(0.187594 0.0844985 -9.83139e-19)
(0.174757 0.0971792 -8.97479e-19)
(0.163934 0.109398 2.60473e-18)
(0.153457 0.121053 0)
(0.142597 0.131952 -1.17597e-20)
(0.131072 0.1419 0)
(0.118806 0.1507 -2.02796e-18)
(0.105816 0.158142 1.21304e-18)
(0.0921788 0.163971 5.85442e-19)
(0.0780157 0.167865 4.2395e-19)
(0.0635115 0.169399 -2.12701e-19)
(0.0489763 0.167972 0)
(0.034983 0.162916 -2.86466e-20)
(0.0227752 0.150472 0)
(0.0175951 0.116385 -2.30633e-20)
)
;

boundaryField
{
    inlet
    {
        type            fixedValue;
        value           uniform (1 0 0);
    }
    outlet
    {
        type            zeroGradient;
    }
    fixedWalls
    {
        type            fixedValue;
        value           uniform (0 0 0);
    }
    frontAndBack
    {
        type            empty;
    }
}


// ************************************************************************* //
