/*--------------------------------*- C++ -*----------------------------------*\
| =========                 |                                                 |
| \\      /  F ield         | OpenFOAM: The Open Source CFD Toolbox           |
|  \\    /   O peration     | Version:  2.4.0                                 |
|   \\  /    A nd           | Web:      www.OpenFOAM.org                      |
|    \\/     M anipulation  |                                                 |
\*---------------------------------------------------------------------------*/
FoamFile
{
    version     2.0;
    format      ascii;
    class       surfaceScalarField;
    location    "1.1";
    object      phi;
}
// * * * * * * * * * * * * * * * * * * * * * * * * * * * * * * * * * * * * * //

dimensions      [0 3 -1 0 0 0 0];

internalField   nonuniform List<scalar> 
11830
(
2.94679e-06
5.32099e-08
2.8769e-06
6.98929e-08
2.80965e-06
6.72439e-08
2.74328e-06
6.63695e-08
2.67869e-06
6.45922e-08
2.61757e-06
6.11211e-08
2.56084e-06
5.67299e-08
2.5088e-06
5.20451e-08
2.46148e-06
4.73188e-08
2.41878e-06
4.26992e-08
2.38047e-06
3.83088e-08
2.34624e-06
3.42321e-08
2.31572e-06
3.05146e-08
2.28855e-06
2.71725e-08
2.26435e-06
2.42028e-08
2.24276e-06
2.15904e-08
2.22344e-06
1.93126e-08
2.2061e-06
1.73428e-08
2.19045e-06
1.56526e-08
2.17624e-06
1.42131e-08
2.16324e-06
1.29962e-08
2.15126e-06
1.19745e-08
2.14014e-06
1.11222e-08
2.12973e-06
1.04152e-08
2.1199e-06
9.83148e-09
2.11054e-06
9.35123e-09
2.10159e-06
8.95641e-09
2.09296e-06
8.63178e-09
2.08459e-06
8.36465e-09
2.07645e-06
8.14501e-09
2.06848e-06
7.96552e-09
2.06066e-06
7.82157e-09
2.05295e-06
7.7112e-09
2.04531e-06
7.63515e-09
2.03772e-06
7.59692e-09
2.03011e-06
7.60295e-09
2.02245e-06
7.66289e-09
2.01466e-06
7.79005e-09
2.00666e-06
8.00207e-09
1.99834e-06
8.32187e-09
1.98956e-06
8.77894e-09
1.98015e-06
9.41105e-09
1.96988e-06
1.02665e-08
1.95847e-06
1.14073e-08
1.94556e-06
1.29128e-08
1.93067e-06
1.48851e-08
1.91322e-06
1.74559e-08
1.89242e-06
2.07957e-08
1.8673e-06
2.51264e-08
1.83656e-06
3.07381e-08
1.79855e-06
3.80121e-08
1.7511e-06
4.74514e-08
1.69138e-06
5.97177e-08
1.6157e-06
7.56786e-08
1.51932e-06
9.63758e-08
1.39615e-06
1.23173e-07
1.23984e-06
1.56309e-07
1.04172e-06
1.98119e-07
7.96135e-07
2.45588e-07
2.38404e-07
5.57731e-07
3.02862e-06
2.45862e-08
3.05191e-06
4.66057e-08
3.06774e-06
5.14104e-08
3.07746e-06
5.66559e-08
3.08094e-06
6.11138e-08
3.07874e-06
6.33213e-08
3.07162e-06
6.38417e-08
3.06034e-06
6.3328e-08
3.0456e-06
6.20613e-08
3.02807e-06
6.02265e-08
3.00837e-06
5.80108e-08
2.98703e-06
5.5575e-08
2.9645e-06
5.30398e-08
2.94118e-06
5.04904e-08
2.9174e-06
4.79849e-08
2.89343e-06
4.55608e-08
2.8695e-06
4.32404e-08
2.84581e-06
4.10352e-08
2.82251e-06
3.89494e-08
2.79974e-06
3.69829e-08
2.77761e-06
3.5133e-08
2.75619e-06
3.33958e-08
2.73554e-06
3.17669e-08
2.71571e-06
3.02423e-08
2.69673e-06
2.88183e-08
2.67859e-06
2.74923e-08
2.66128e-06
2.6261e-08
2.64479e-06
2.51218e-08
2.62908e-06
2.40727e-08
2.61412e-06
2.31122e-08
2.59984e-06
2.22397e-08
2.58621e-06
2.14554e-08
2.57316e-06
2.07611e-08
2.56063e-06
2.01607e-08
2.54857e-06
1.96602e-08
2.5369e-06
1.92694e-08
2.52556e-06
1.90019e-08
2.51448e-06
1.88768e-08
2.50356e-06
1.89198e-08
2.49272e-06
1.9165e-08
2.48184e-06
1.96576e-08
2.47079e-06
2.04561e-08
2.45942e-06
2.16371e-08
2.44753e-06
2.32995e-08
2.43487e-06
2.55721e-08
2.42113e-06
2.86218e-08
2.40592e-06
3.26662e-08
2.38873e-06
3.79904e-08
2.36889e-06
4.49694e-08
2.34552e-06
5.41013e-08
2.31748e-06
6.6054e-08
2.2832e-06
8.17297e-08
2.24055e-06
1.02372e-07
2.18656e-06
1.29668e-07
2.1169e-06
1.66033e-07
2.02568e-06
2.14396e-07
1.90247e-06
2.79519e-07
1.73895e-06
3.61636e-07
1.49917e-06
4.85373e-07
5.21976e-07
1.21559e-06
3.00532e-06
1.92658e-08
3.01285e-06
3.90794e-08
3.01981e-06
4.44436e-08
3.02758e-06
4.88871e-08
3.03534e-06
5.33531e-08
3.0425e-06
5.61649e-08
3.04882e-06
5.75192e-08
3.05413e-06
5.80212e-08
3.05826e-06
5.79252e-08
3.06115e-06
5.73394e-08
3.06277e-06
5.63931e-08
3.06313e-06
5.52133e-08
3.06227e-06
5.39e-08
3.06024e-06
5.25257e-08
3.05708e-06
5.11424e-08
3.05285e-06
4.97852e-08
3.04762e-06
4.84763e-08
3.04143e-06
4.72273e-08
3.03433e-06
4.60426e-08
3.02639e-06
4.49211e-08
3.01767e-06
4.38585e-08
3.00822e-06
4.28479e-08
2.9981e-06
4.18817e-08
2.98739e-06
4.09525e-08
2.97616e-06
4.00533e-08
2.96447e-06
3.91788e-08
2.95241e-06
3.83241e-08
2.94004e-06
3.74868e-08
2.92745e-06
3.66662e-08
2.9147e-06
3.58643e-08
2.90185e-06
3.50855e-08
2.88897e-06
3.43369e-08
2.8761e-06
3.36291e-08
2.86329e-06
3.29761e-08
2.85055e-06
3.23958e-08
2.83791e-06
3.19113e-08
2.82536e-06
3.1551e-08
2.81289e-06
3.13505e-08
2.80045e-06
3.13545e-08
2.788e-06
3.16182e-08
2.77544e-06
3.22115e-08
2.76268e-06
3.32223e-08
2.74955e-06
3.4762e-08
2.73588e-06
3.69725e-08
2.72142e-06
4.00355e-08
2.70585e-06
4.41845e-08
2.6888e-06
4.97211e-08
2.66975e-06
5.70366e-08
2.64808e-06
6.66426e-08
2.62297e-06
7.92117e-08
2.59338e-06
9.56379e-08
2.558e-06
1.17115e-07
2.5151e-06
1.45276e-07
2.46247e-06
1.82298e-07
2.39711e-06
2.31394e-07
2.31529e-06
2.96214e-07
2.21024e-06
3.84565e-07
2.07657e-06
4.95307e-07
1.88747e-06
6.74471e-07
7.6537e-07
1.64408e-06
3.00342e-06
1.5846e-08
3.00771e-06
3.47898e-08
3.01095e-06
4.12032e-08
3.01456e-06
4.52804e-08
3.01853e-06
4.93835e-08
3.0226e-06
5.20915e-08
3.02675e-06
5.33725e-08
3.03092e-06
5.38439e-08
3.03504e-06
5.38101e-08
3.03901e-06
5.33722e-08
3.04276e-06
5.26359e-08
3.04626e-06
5.17143e-08
3.04947e-06
5.06968e-08
3.05234e-06
4.96463e-08
3.05488e-06
4.86065e-08
3.05706e-06
4.76069e-08
3.05887e-06
4.66659e-08
3.0603e-06
4.57933e-08
3.06135e-06
4.49923e-08
3.06201e-06
4.42617e-08
3.06227e-06
4.35975e-08
3.06213e-06
4.29935e-08
3.06157e-06
4.24428e-08
3.06058e-06
4.19385e-08
3.05916e-06
4.14741e-08
3.0573e-06
4.1044e-08
3.05498e-06
4.06432e-08
3.05219e-06
4.02684e-08
3.04894e-06
3.9918e-08
3.04521e-06
3.95924e-08
3.04101e-06
3.92945e-08
3.03631e-06
3.90301e-08
3.03113e-06
3.88085e-08
3.02547e-06
3.86428e-08
3.01931e-06
3.85513e-08
3.01266e-06
3.85584e-08
3.00552e-06
3.86958e-08
2.99786e-06
3.90047e-08
2.98968e-06
3.95381e-08
2.98094e-06
4.03638e-08
2.97158e-06
4.15682e-08
2.96154e-06
4.32622e-08
2.95071e-06
4.55871e-08
2.93896e-06
4.87237e-08
2.92609e-06
5.29043e-08
2.91185e-06
5.84267e-08
2.8959e-06
6.56754e-08
2.87779e-06
7.51474e-08
2.85694e-06
8.74892e-08
2.83261e-06
1.03546e-07
2.80381e-06
1.24431e-07
2.76931e-06
1.51617e-07
2.72749e-06
1.87096e-07
2.67632e-06
2.33472e-07
2.61315e-06
2.94556e-07
2.53493e-06
3.74439e-07
2.43695e-06
4.82547e-07
2.31592e-06
6.16334e-07
2.15839e-06
8.32e-07
9.67231e-07
1.95653e-06
3.00258e-06
1.32661e-08
3.00624e-06
3.11331e-08
3.00912e-06
3.83159e-08
3.01204e-06
4.2368e-08
3.01515e-06
4.62694e-08
3.01826e-06
4.89867e-08
3.02133e-06
5.02964e-08
3.02441e-06
5.07623e-08
3.02749e-06
5.07332e-08
3.03054e-06
5.03229e-08
3.03355e-06
4.96282e-08
3.0365e-06
4.87589e-08
3.03939e-06
4.78047e-08
3.04221e-06
4.68275e-08
3.04495e-06
4.58694e-08
3.0476e-06
4.49587e-08
3.05015e-06
4.4113e-08
3.0526e-06
4.33416e-08
3.05495e-06
4.26473e-08
3.05718e-06
4.20289e-08
3.0593e-06
4.14823e-08
3.06129e-06
4.10019e-08
3.06315e-06
4.05811e-08
3.06487e-06
4.02138e-08
3.06645e-06
3.98941e-08
3.06788e-06
3.96174e-08
3.06914e-06
3.93799e-08
3.07023e-06
3.91794e-08
3.07113e-06
3.90158e-08
3.07184e-06
3.88911e-08
3.07232e-06
3.88101e-08
3.07257e-06
3.87805e-08
3.07256e-06
3.88141e-08
3.07228e-06
3.89272e-08
3.07169e-06
3.91416e-08
3.07076e-06
3.94861e-08
3.06946e-06
3.99982e-08
3.06774e-06
4.07264e-08
3.06554e-06
4.17328e-08
3.06281e-06
4.30971e-08
3.05946e-06
4.49211e-08
3.05538e-06
4.73355e-08
3.05046e-06
5.05072e-08
3.04454e-06
5.46508e-08
3.0374e-06
6.00413e-08
3.02879e-06
6.7033e-08
3.01839e-06
7.60828e-08
3.00575e-06
8.77817e-08
2.99034e-06
1.02898e-07
2.97145e-06
1.22434e-07
2.94818e-06
1.47706e-07
2.91935e-06
1.80446e-07
2.88347e-06
2.22982e-07
2.83861e-06
2.78325e-07
2.78233e-06
3.50834e-07
2.7117e-06
4.45071e-07
2.62274e-06
5.71512e-07
2.51232e-06
7.26754e-07
2.37418e-06
9.70134e-07
1.13862e-06
2.2028e-06
3.00198e-06
1.12875e-08
3.00526e-06
2.78521e-08
3.00808e-06
3.54906e-08
3.01084e-06
3.96176e-08
3.01376e-06
4.33429e-08
3.01668e-06
4.60644e-08
3.01954e-06
4.74444e-08
3.02234e-06
4.79544e-08
3.02511e-06
4.79677e-08
3.02782e-06
4.76128e-08
3.03047e-06
4.69773e-08
3.03306e-06
4.61647e-08
3.03561e-06
4.52639e-08
3.0381e-06
4.43368e-08
3.04054e-06
4.34252e-08
3.04294e-06
4.25577e-08
3.0453e-06
4.17525e-08
3.04762e-06
4.10195e-08
3.04991e-06
4.03624e-08
3.05216e-06
3.97807e-08
3.05437e-06
3.92713e-08
3.05654e-06
3.88291e-08
3.05867e-06
3.84485e-08
3.06076e-06
3.81239e-08
3.06281e-06
3.78502e-08
3.0648e-06
3.76236e-08
3.06674e-06
3.74409e-08
3.06862e-06
3.73012e-08
3.07043e-06
3.72051e-08
3.07216e-06
3.71559e-08
3.07381e-06
3.71598e-08
3.07537e-06
3.72264e-08
3.07681e-06
3.73696e-08
3.07813e-06
3.76081e-08
3.07931e-06
3.79672e-08
3.08031e-06
3.84799e-08
3.08112e-06
3.9189e-08
3.0817e-06
4.01495e-08
3.082e-06
4.1432e-08
3.08197e-06
4.3127e-08
3.08154e-06
4.53503e-08
3.08063e-06
4.82499e-08
3.07912e-06
5.20158e-08
3.07688e-06
5.68912e-08
3.07373e-06
6.31889e-08
3.06945e-06
7.13111e-08
3.06376e-06
8.17771e-08
3.05628e-06
9.52584e-08
3.04655e-06
1.12628e-07
3.03396e-06
1.35022e-07
3.01773e-06
1.63937e-07
2.99685e-06
2.01332e-07
2.96999e-06
2.49838e-07
2.93547e-06
3.1285e-07
2.89106e-06
3.95241e-07
2.834e-06
5.02127e-07
2.76062e-06
6.44891e-07
2.66727e-06
8.20102e-07
2.55003e-06
1.08738e-06
1.28448e-06
2.40416e-06
3.00156e-06
9.72687e-09
3.00449e-06
2.49214e-08
3.00722e-06
3.27657e-08
3.00985e-06
3.69818e-08
3.01266e-06
4.05328e-08
3.01551e-06
4.32135e-08
3.01831e-06
4.46493e-08
3.02105e-06
4.52081e-08
3.02375e-06
4.52689e-08
3.02639e-06
4.49763e-08
3.02896e-06
4.44105e-08
3.03145e-06
4.36664e-08
3.03389e-06
4.28302e-08
3.03626e-06
4.1963e-08
3.03858e-06
4.11055e-08
3.04085e-06
4.02857e-08
3.04308e-06
3.95222e-08
3.04528e-06
3.88254e-08
3.04744e-06
3.81997e-08
3.04958e-06
3.76455e-08
3.05169e-06
3.71605e-08
3.05378e-06
3.67406e-08
3.05584e-06
3.6381e-08
3.05789e-06
3.60771e-08
3.05992e-06
3.58246e-08
3.06192e-06
3.56205e-08
3.0639e-06
3.54626e-08
3.06585e-06
3.53508e-08
3.06777e-06
3.52868e-08
3.06965e-06
3.52752e-08
3.07148e-06
3.53234e-08
3.07327e-06
3.54425e-08
3.07499e-06
3.56484e-08
3.07663e-06
3.59623e-08
3.07819e-06
3.64123e-08
3.07963e-06
3.70351e-08
3.08094e-06
3.78782e-08
3.08209e-06
3.90023e-08
3.08304e-06
4.04857e-08
3.08374e-06
4.24282e-08
3.08413e-06
4.49574e-08
3.08414e-06
4.82367e-08
3.08368e-06
5.24749e-08
3.08263e-06
5.794e-08
3.08085e-06
6.49752e-08
3.07814e-06
7.4022e-08
3.07427e-06
8.56489e-08
3.06893e-06
1.0059e-07
3.06177e-06
1.19796e-07
3.05228e-06
1.44504e-07
3.03989e-06
1.76334e-07
3.02381e-06
2.17406e-07
3.0031e-06
2.70553e-07
2.97651e-06
3.39434e-07
2.94246e-06
4.29292e-07
2.89889e-06
5.45698e-07
2.84298e-06
7.00801e-07
2.77115e-06
8.9193e-07
2.68068e-06
1.17786e-06
1.40427e-06
2.56089e-06
3.00126e-06
8.46463e-09
3.00387e-06
2.23159e-08
3.00647e-06
3.01585e-08
3.00902e-06
3.4438e-08
3.01173e-06
3.78228e-08
3.01452e-06
4.0427e-08
3.01727e-06
4.18958e-08
3.01998e-06
4.2498e-08
3.02265e-06
4.2601e-08
3.02526e-06
4.2365e-08
3.0278e-06
4.1866e-08
3.03028e-06
4.11902e-08
3.03269e-06
4.04201e-08
3.03504e-06
3.96152e-08
3.03733e-06
3.88153e-08
3.03956e-06
3.80476e-08
3.04176e-06
3.73301e-08
3.04391e-06
3.66736e-08
3.04603e-06
3.6083e-08
3.04811e-06
3.55594e-08
3.05017e-06
3.51009e-08
3.05221e-06
3.47044e-08
3.05422e-06
3.43659e-08
3.05622e-06
3.40815e-08
3.0582e-06
3.38477e-08
3.06015e-06
3.36622e-08
3.06209e-06
3.3524e-08
3.06401e-06
3.34336e-08
3.0659e-06
3.33939e-08
3.06777e-06
3.34105e-08
3.0696e-06
3.34922e-08
3.07139e-06
3.36517e-08
3.07313e-06
3.39066e-08
3.07481e-06
3.42805e-08
3.07642e-06
3.48044e-08
3.07794e-06
3.55184e-08
3.07934e-06
3.64743e-08
3.0806e-06
3.77388e-08
3.08169e-06
3.93968e-08
3.08256e-06
4.15572e-08
3.08316e-06
4.43587e-08
3.08342e-06
4.79789e-08
3.08325e-06
5.26445e-08
3.08255e-06
5.86458e-08
3.08117e-06
6.63542e-08
3.07894e-06
7.62464e-08
3.07566e-06
8.89344e-08
3.07104e-06
1.05206e-07
3.06476e-06
1.26078e-07
3.0564e-06
1.52867e-07
3.04545e-06
1.87284e-07
3.0313e-06
2.31555e-07
3.01322e-06
2.8863e-07
2.99037e-06
3.62287e-07
2.96176e-06
4.57902e-07
2.92626e-06
5.81198e-07
2.88254e-06
7.44514e-07
2.82826e-06
9.46211e-07
2.76378e-06
1.24234e-06
1.49797e-06
2.67008e-06
3.00104e-06
7.42183e-09
3.00336e-06
1.9998e-08
3.00584e-06
2.76745e-08
3.00831e-06
3.19734e-08
3.01093e-06
3.52026e-08
3.01365e-06
3.77056e-08
3.01636e-06
3.91839e-08
3.01904e-06
3.98211e-08
3.02168e-06
3.99601e-08
3.02427e-06
3.9773e-08
3.0268e-06
3.9335e-08
3.02927e-06
3.87237e-08
3.03167e-06
3.80172e-08
3.03402e-06
3.72733e-08
3.0363e-06
3.65305e-08
3.03853e-06
3.58151e-08
3.04072e-06
3.51447e-08
3.04286e-06
3.453e-08
3.04497e-06
3.39764e-08
3.04704e-06
3.34853e-08
3.04909e-06
3.30555e-08
3.05111e-06
3.26845e-08
3.0531e-06
3.23689e-08
3.05508e-06
3.21055e-08
3.05704e-06
3.18918e-08
3.05897e-06
3.17259e-08
3.06089e-06
3.16078e-08
3.06278e-06
3.15388e-08
3.06465e-06
3.15228e-08
3.0665e-06
3.15665e-08
3.06831e-06
3.16798e-08
3.07009e-06
3.1877e-08
3.07181e-06
3.21775e-08
3.07349e-06
3.2607e-08
3.07509e-06
3.31992e-08
3.07661e-06
3.39977e-08
3.07803e-06
3.50586e-08
3.07931e-06
3.64537e-08
3.08044e-06
3.82748e-08
3.08135e-06
4.06392e-08
3.08202e-06
4.36964e-08
3.08236e-06
4.76375e-08
3.0823e-06
5.27062e-08
3.08173e-06
5.92139e-08
3.08052e-06
6.7559e-08
3.07852e-06
7.8251e-08
3.07551e-06
9.19432e-08
3.07124e-06
1.09473e-07
3.0654e-06
1.31919e-07
3.0576e-06
1.60666e-07
3.04738e-06
1.97508e-07
3.03418e-06
2.44756e-07
3.01737e-06
3.0544e-07
2.99626e-06
3.83396e-07
2.97017e-06
4.83987e-07
2.93849e-06
6.12886e-07
2.90104e-06
7.81956e-07
2.85673e-06
9.90527e-07
2.81016e-06
1.28891e-06
1.56947e-06
2.73866e-06
3.00088e-06
6.54325e-09
3.00295e-06
1.79273e-08
3.00531e-06
2.53152e-08
3.0077e-06
2.9582e-08
3.01024e-06
3.26628e-08
3.0129e-06
3.50478e-08
3.01557e-06
3.65128e-08
3.01821e-06
3.71751e-08
3.02083e-06
3.73439e-08
3.0234e-06
3.71989e-08
3.02592e-06
3.68161e-08
3.02838e-06
3.62653e-08
3.03078e-06
3.56194e-08
3.03312e-06
3.49343e-08
3.0354e-06
3.42472e-08
3.03763e-06
3.35832e-08
3.03982e-06
3.29595e-08
3.04196e-06
3.23868e-08
3.04407e-06
3.18705e-08
3.04614e-06
3.14125e-08
3.04818e-06
3.10121e-08
3.0502e-06
3.06673e-08
3.0522e-06
3.03755e-08
3.05417e-06
3.01342e-08
3.05612e-06
2.99412e-08
3.05805e-06
2.97958e-08
3.05996e-06
2.96984e-08
3.06184e-06
2.96513e-08
3.06371e-06
2.96593e-08
3.06554e-06
2.97299e-08
3.06735e-06
2.98745e-08
3.06912e-06
3.01086e-08
3.07084e-06
3.04533e-08
3.07251e-06
3.09366e-08
3.07412e-06
3.15946e-08
3.07564e-06
3.24741e-08
3.07706e-06
3.36353e-08
3.07836e-06
3.51551e-08
3.07951e-06
3.71318e-08
3.08045e-06
3.96907e-08
3.08116e-06
4.29915e-08
3.08156e-06
4.72381e-08
3.08157e-06
5.26904e-08
3.08111e-06
5.96801e-08
3.08004e-06
6.86306e-08
3.0782e-06
8.00831e-08
3.07542e-06
9.47293e-08
3.07144e-06
1.13454e-07
3.06597e-06
1.37391e-07
3.05864e-06
1.67993e-07
3.04902e-06
2.07126e-07
3.0366e-06
2.57179e-07
3.02079e-06
3.21248e-07
3.00098e-06
4.03208e-07
2.9766e-06
5.08366e-07
2.94718e-06
6.42301e-07
2.91311e-06
8.16034e-07
2.87375e-06
1.02988e-06
2.8365e-06
1.32617e-06
1.62474e-06
2.78122e-06
3.00075e-06
5.78932e-09
3.00261e-06
1.60665e-08
3.00485e-06
2.30786e-08
3.00717e-06
2.72604e-08
3.00964e-06
3.01947e-08
3.01224e-06
3.24501e-08
3.01487e-06
3.38814e-08
3.01749e-06
3.45579e-08
3.02008e-06
3.47508e-08
3.02264e-06
3.46418e-08
3.02515e-06
3.43086e-08
3.0276e-06
3.38144e-08
3.02999e-06
3.32261e-08
3.03233e-06
3.25976e-08
3.03461e-06
3.19646e-08
3.03684e-06
3.13511e-08
3.03903e-06
3.07735e-08
3.04117e-06
3.02424e-08
3.04328e-06
2.97634e-08
3.04535e-06
2.93386e-08
3.0474e-06
2.89678e-08
3.04941e-06
2.86496e-08
3.05141e-06
2.83819e-08
3.05338e-06
2.81629e-08
3.05533e-06
2.79911e-08
3.05726e-06
2.78663e-08
3.05917e-06
2.77898e-08
3.06105e-06
2.77646e-08
3.06292e-06
2.77963e-08
3.06475e-06
2.78936e-08
3.06656e-06
2.80688e-08
3.06833e-06
2.8339e-08
3.07006e-06
2.87267e-08
3.07173e-06
2.92619e-08
3.07334e-06
2.99832e-08
3.07487e-06
3.09405e-08
3.07631e-06
3.21978e-08
3.07763e-06
3.38369e-08
3.0788e-06
3.5962e-08
3.07978e-06
3.87062e-08
3.08054e-06
4.22389e-08
3.081e-06
4.67761e-08
3.0811e-06
5.25929e-08
3.08074e-06
6.00401e-08
3.0798e-06
6.9565e-08
3.07815e-06
8.17381e-08
3.07559e-06
9.72874e-08
3.0719e-06
1.17142e-07
3.06681e-06
1.42487e-07
3.05996e-06
1.74838e-07
3.05096e-06
2.16126e-07
3.03933e-06
2.6881e-07
3.02453e-06
3.36043e-07
3.00601e-06
4.21734e-07
2.98326e-06
5.3111e-07
2.95588e-06
6.69682e-07
2.9244e-06
8.4752e-07
2.88831e-06
1.06597e-06
2.85543e-06
1.35905e-06
1.66896e-06
2.81121e-06
3.00066e-06
5.13134e-09
3.00234e-06
1.43826e-08
3.00446e-06
2.09594e-08
3.00672e-06
2.50055e-08
3.00912e-06
2.77903e-08
3.01166e-06
2.99085e-08
3.01425e-06
3.12885e-08
3.01684e-06
3.19679e-08
3.01942e-06
3.21792e-08
3.02196e-06
3.21006e-08
3.02445e-06
3.18119e-08
3.0269e-06
3.13704e-08
3.02929e-06
3.08371e-08
3.03162e-06
3.02631e-08
3.0339e-06
2.96827e-08
3.03614e-06
2.91186e-08
3.03832e-06
2.85865e-08
3.04047e-06
2.80967e-08
3.04258e-06
2.76547e-08
3.04465e-06
2.72631e-08
3.0467e-06
2.69221e-08
3.04872e-06
2.66306e-08
3.05071e-06
2.63872e-08
3.05268e-06
2.61905e-08
3.05464e-06
2.60399e-08
3.05657e-06
2.59358e-08
3.05848e-06
2.588e-08
3.06036e-06
2.58764e-08
3.06223e-06
2.59316e-08
3.06407e-06
2.60549e-08
3.06588e-06
2.62599e-08
3.06765e-06
2.65649e-08
3.06938e-06
2.6994e-08
3.07107e-06
2.75789e-08
3.07269e-06
2.83608e-08
3.07424e-06
2.93924e-08
3.07569e-06
3.07412e-08
3.07704e-06
3.24937e-08
3.07824e-06
3.47597e-08
3.07927e-06
3.76796e-08
3.08007e-06
4.14319e-08
3.0806e-06
4.62439e-08
3.08079e-06
5.24051e-08
3.08055e-06
6.02842e-08
3.07976e-06
7.03507e-08
3.0783e-06
8.32027e-08
3.07598e-06
9.96018e-08
3.07261e-06
1.20518e-07
3.06791e-06
1.47185e-07
3.06157e-06
1.81173e-07
3.05322e-06
2.24476e-07
3.04242e-06
2.79612e-07
3.02868e-06
3.49784e-07
3.01149e-06
4.38925e-07
2.99043e-06
5.52173e-07
2.96513e-06
6.9498e-07
2.93615e-06
8.76498e-07
2.90314e-06
1.09899e-06
2.87296e-06
1.38922e-06
1.70546e-06
2.83646e-06
3.00058e-06
4.54822e-09
3.00212e-06
1.28475e-08
3.00413e-06
1.89498e-08
3.00632e-06
2.28145e-08
3.00867e-06
2.54429e-08
3.01116e-06
2.74186e-08
3.01371e-06
2.87325e-08
3.01628e-06
2.94037e-08
3.01883e-06
2.96275e-08
3.02135e-06
2.95744e-08
3.02384e-06
2.93254e-08
3.02628e-06
2.89329e-08
3.02866e-06
2.8452e-08
3.031e-06
2.79305e-08
3.03328e-06
2.74013e-08
3.03551e-06
2.68856e-08
3.0377e-06
2.63984e-08
3.03985e-06
2.59495e-08
3.04196e-06
2.55445e-08
3.04403e-06
2.51861e-08
3.04608e-06
2.48747e-08
3.0481e-06
2.461e-08
3.0501e-06
2.43909e-08
3.05207e-06
2.42167e-08
3.05402e-06
2.40873e-08
3.05596e-06
2.40037e-08
3.05787e-06
2.39684e-08
3.05976e-06
2.39862e-08
3.06162e-06
2.40642e-08
3.06347e-06
2.42128e-08
3.06528e-06
2.44466e-08
3.06706e-06
2.47849e-08
3.0688e-06
2.52536e-08
3.07049e-06
2.58861e-08
3.07213e-06
2.67256e-08
3.07369e-06
2.78275e-08
3.07517e-06
2.92629e-08
3.07654e-06
3.11224e-08
3.07778e-06
3.35213e-08
3.07885e-06
3.66067e-08
3.07972e-06
4.05655e-08
3.08033e-06
4.56356e-08
3.08061e-06
5.212e-08
3.08049e-06
6.04039e-08
3.07987e-06
7.09775e-08
3.07861e-06
8.44645e-08
3.07655e-06
1.01657e-07
3.0735e-06
1.23564e-07
3.06923e-06
1.51463e-07
3.06343e-06
1.86973e-07
3.05576e-06
2.32145e-07
3.04582e-06
2.89552e-07
3.03317e-06
3.62433e-07
3.01735e-06
4.54741e-07
2.998e-06
5.71521e-07
2.97483e-06
7.18154e-07
2.94837e-06
9.02963e-07
2.91848e-06
1.12887e-06
2.89081e-06
1.41689e-06
1.73614e-06
2.86013e-06
3.00052e-06
4.02423e-09
3.00193e-06
1.1437e-08
3.00384e-06
1.70407e-08
3.00597e-06
2.06846e-08
3.00827e-06
2.31469e-08
3.01071e-06
2.49759e-08
3.01323e-06
2.62114e-08
3.01577e-06
2.68636e-08
3.01831e-06
2.7094e-08
3.02082e-06
2.70619e-08
3.0233e-06
2.68483e-08
3.02573e-06
2.65014e-08
3.02811e-06
2.60704e-08
3.03044e-06
2.55997e-08
3.03272e-06
2.51202e-08
3.03495e-06
2.46521e-08
3.03714e-06
2.42092e-08
3.03929e-06
2.38008e-08
3.0414e-06
2.34326e-08
3.04348e-06
2.31073e-08
3.04553e-06
2.28258e-08
3.04755e-06
2.25878e-08
3.04955e-06
2.23931e-08
3.05153e-06
2.22413e-08
3.05348e-06
2.2133e-08
3.05542e-06
2.20697e-08
3.05733e-06
2.20548e-08
3.05922e-06
2.20934e-08
3.06109e-06
2.21936e-08
3.06294e-06
2.23667e-08
3.06476e-06
2.26282e-08
3.06654e-06
2.29985e-08
3.06829e-06
2.35048e-08
3.07e-06
2.41823e-08
3.07165e-06
2.50761e-08
3.07323e-06
2.62443e-08
3.07473e-06
2.77611e-08
3.07613e-06
2.9721e-08
3.07741e-06
3.22443e-08
3.07853e-06
3.54843e-08
3.07946e-06
3.96358e-08
3.08015e-06
4.49466e-08
3.08054e-06
5.17319e-08
3.08055e-06
6.03922e-08
3.08009e-06
7.14369e-08
3.07904e-06
8.55129e-08
3.07726e-06
1.03442e-07
3.07456e-06
1.26265e-07
3.07072e-06
1.55301e-07
3.06548e-06
1.92216e-07
3.05851e-06
2.39109e-07
3.04947e-06
2.98599e-07
3.03794e-06
3.7396e-07
3.02353e-06
4.69154e-07
3.00591e-06
5.89133e-07
2.98487e-06
7.39195e-07
2.9609e-06
9.26936e-07
2.9341e-06
1.15567e-06
2.90905e-06
1.44194e-06
1.76214e-06
2.88306e-06
3.00048e-06
3.54738e-09
3.00178e-06
1.01307e-08
3.0036e-06
1.52224e-08
3.00567e-06
1.86121e-08
3.00792e-06
2.08972e-08
3.01032e-06
2.25758e-08
3.01281e-06
2.37229e-08
3.01533e-06
2.43461e-08
3.01785e-06
2.45774e-08
3.02035e-06
2.45622e-08
3.02281e-06
2.43801e-08
3.02524e-06
2.40755e-08
3.02762e-06
2.36921e-08
3.02995e-06
2.32705e-08
3.03223e-06
2.28395e-08
3.03446e-06
2.24181e-08
3.03665e-06
2.20189e-08
3.0388e-06
2.16508e-08
3.04092e-06
2.13192e-08
3.043e-06
2.10269e-08
3.04505e-06
2.07751e-08
3.04707e-06
2.0564e-08
3.04907e-06
2.03936e-08
3.05105e-06
2.02642e-08
3.053e-06
2.01769e-08
3.05494e-06
2.01338e-08
3.05686e-06
2.01388e-08
3.05875e-06
2.01979e-08
3.06063e-06
2.03197e-08
3.06248e-06
2.05164e-08
3.0643e-06
2.08042e-08
3.06609e-06
2.1205e-08
3.06785e-06
2.17469e-08
3.06957e-06
2.24667e-08
3.07123e-06
2.34116e-08
3.07283e-06
2.46418e-08
3.07436e-06
2.62344e-08
3.07579e-06
2.82877e-08
3.07711e-06
3.09265e-08
3.07829e-06
3.43099e-08
3.07928e-06
3.86397e-08
3.08006e-06
4.4173e-08
3.08055e-06
5.12359e-08
3.0807e-06
6.02433e-08
3.08042e-06
7.17216e-08
3.07959e-06
8.63391e-08
3.07809e-06
1.04943e-07
3.07575e-06
1.28606e-07
3.07236e-06
1.58684e-07
3.0677e-06
1.96883e-07
3.06146e-06
2.45344e-07
3.05333e-06
3.0673e-07
3.04295e-06
3.8434e-07
3.02996e-06
4.82142e-07
3.0141e-06
6.04999e-07
2.99518e-06
7.58115e-07
2.97366e-06
9.48455e-07
2.94983e-06
1.1795e-06
2.92744e-06
1.46432e-06
1.78423e-06
2.90534e-06
3.00044e-06
3.10843e-09
3.00166e-06
8.91156e-09
3.0034e-06
1.34848e-08
3.00541e-06
1.65931e-08
3.00762e-06
1.86891e-08
3.00998e-06
2.02138e-08
3.01244e-06
2.12644e-08
3.01494e-06
2.18496e-08
3.01744e-06
2.2076e-08
3.01993e-06
2.20741e-08
3.02239e-06
2.19199e-08
3.02481e-06
2.16547e-08
3.02719e-06
2.13168e-08
3.02951e-06
2.09427e-08
3.03179e-06
2.05592e-08
3.03403e-06
2.01835e-08
3.03622e-06
1.98275e-08
3.03837e-06
1.94993e-08
3.04049e-06
1.92041e-08
3.04257e-06
1.89448e-08
3.04462e-06
1.87227e-08
3.04665e-06
1.85384e-08
3.04865e-06
1.83924e-08
3.05063e-06
1.82854e-08
3.05258e-06
1.82189e-08
3.05452e-06
1.81958e-08
3.05644e-06
1.82204e-08
3.05834e-06
1.82994e-08
3.06022e-06
1.84421e-08
3.06207e-06
1.86614e-08
3.0639e-06
1.89744e-08
3.0657e-06
1.94039e-08
3.06747e-06
1.99793e-08
3.0692e-06
2.07388e-08
3.07088e-06
2.17311e-08
3.0725e-06
2.30189e-08
3.07405e-06
2.46817e-08
3.07552e-06
2.68211e-08
3.07688e-06
2.95663e-08
3.07811e-06
3.30812e-08
3.07917e-06
3.75746e-08
3.08004e-06
4.33113e-08
3.08064e-06
5.06279e-08
3.08094e-06
5.99517e-08
3.08083e-06
7.18248e-08
3.08024e-06
8.69348e-08
3.07903e-06
1.06152e-07
3.07706e-06
1.30577e-07
3.07414e-06
1.61597e-07
3.07007e-06
2.00955e-07
3.06459e-06
2.50831e-07
3.05739e-06
3.13923e-07
3.04818e-06
3.93552e-07
3.03663e-06
4.93688e-07
3.02252e-06
6.19112e-07
3.00571e-06
7.74927e-07
2.9866e-06
9.67563e-07
2.96558e-06
1.20052e-06
2.94579e-06
1.48412e-06
1.80303e-06
2.92699e-06
3.00041e-06
2.70007e-09
3.00156e-06
7.76488e-09
3.00322e-06
1.18183e-08
3.00519e-06
1.46231e-08
3.00736e-06
1.65184e-08
3.00969e-06
1.78856e-08
3.01212e-06
1.88332e-08
3.0146e-06
1.93724e-08
3.01709e-06
1.95886e-08
3.01956e-06
1.95964e-08
3.02202e-06
1.94672e-08
3.02443e-06
1.92387e-08
3.02681e-06
1.89442e-08
3.02913e-06
1.86162e-08
3.03141e-06
1.8279e-08
3.03365e-06
1.79485e-08
3.03584e-06
1.76352e-08
3.03799e-06
1.73466e-08
3.04011e-06
1.70876e-08
3.04219e-06
1.68612e-08
3.04425e-06
1.66688e-08
3.04627e-06
1.65113e-08
3.04828e-06
1.63895e-08
3.05026e-06
1.63047e-08
3.05222e-06
1.6259e-08
3.05416e-06
1.62555e-08
3.05608e-06
1.62994e-08
3.05798e-06
1.63977e-08
3.05986e-06
1.65606e-08
3.06172e-06
1.68014e-08
3.06356e-06
1.71383e-08
3.06537e-06
1.75949e-08
3.06714e-06
1.82016e-08
3.06889e-06
1.89978e-08
3.07058e-06
2.00341e-08
3.07223e-06
2.13747e-08
3.07381e-06
2.31018e-08
3.07531e-06
2.532e-08
3.07671e-06
2.81619e-08
3.078e-06
3.17964e-08
3.07913e-06
3.64379e-08
3.08009e-06
4.23585e-08
3.08081e-06
4.9904e-08
3.08125e-06
5.95128e-08
3.08133e-06
7.17409e-08
3.08097e-06
8.72928e-08
3.08007e-06
1.07059e-07
3.07848e-06
1.32166e-07
3.07605e-06
1.64027e-07
3.07258e-06
2.04419e-07
3.06786e-06
2.55552e-07
3.06163e-06
3.20159e-07
3.0536e-06
4.01577e-07
3.04351e-06
5.03777e-07
3.03116e-06
6.31466e-07
3.01643e-06
7.89652e-07
2.99969e-06
9.84302e-07
2.98136e-06
1.21885e-06
2.96405e-06
1.50142e-06
1.81903e-06
2.94805e-06
3.00038e-06
2.31647e-09
3.00147e-06
6.6783e-09
3.00308e-06
1.02134e-08
3.005e-06
1.26973e-08
3.00714e-06
1.43809e-08
3.00944e-06
1.5587e-08
3.01184e-06
1.64263e-08
3.0143e-06
1.69125e-08
3.01678e-06
1.71136e-08
3.01925e-06
1.7128e-08
3.02169e-06
1.70211e-08
3.02411e-06
1.68269e-08
3.02648e-06
1.6574e-08
3.0288e-06
1.62908e-08
3.03108e-06
1.59992e-08
3.03332e-06
1.5713e-08
3.03551e-06
1.54419e-08
3.03766e-06
1.51926e-08
3.03978e-06
1.49698e-08
3.04187e-06
1.47761e-08
3.04392e-06
1.46133e-08
3.04595e-06
1.44825e-08
3.04795e-06
1.43849e-08
3.04994e-06
1.43223e-08
3.0519e-06
1.4297e-08
3.05384e-06
1.4313e-08
3.05577e-06
1.43756e-08
3.05767e-06
1.44928e-08
3.05956e-06
1.46749e-08
3.06142e-06
1.49364e-08
3.06326e-06
1.52958e-08
3.06508e-06
1.57776e-08
3.06687e-06
1.64133e-08
3.06862e-06
1.72434e-08
3.07034e-06
1.83198e-08
3.072e-06
1.97086e-08
3.07361e-06
2.14939e-08
3.07515e-06
2.3783e-08
3.0766e-06
2.67119e-08
3.07794e-06
3.04535e-08
3.07915e-06
3.52273e-08
3.0802e-06
4.13119e-08
3.08104e-06
4.90608e-08
3.08163e-06
5.89223e-08
3.08191e-06
7.14646e-08
3.0818e-06
8.74068e-08
3.0812e-06
1.07658e-07
3.08e-06
1.33363e-07
3.07806e-06
1.65963e-07
3.07522e-06
2.0726e-07
3.07128e-06
2.59494e-07
3.06602e-06
3.25423e-07
3.05919e-06
4.08401e-07
3.05057e-06
5.12398e-07
3.03998e-06
6.42059e-07
3.02733e-06
8.02304e-07
3.01291e-06
9.98717e-07
2.99715e-06
1.23462e-06
2.9822e-06
1.51637e-06
1.83262e-06
2.96861e-06
3.00036e-06
1.95284e-09
3.0014e-06
5.64115e-09
3.00295e-06
8.66108e-09
3.00484e-06
1.08105e-08
3.00695e-06
1.22725e-08
3.00922e-06
1.33141e-08
3.01161e-06
1.40408e-08
3.01405e-06
1.44681e-08
3.01652e-06
1.46495e-08
3.01898e-06
1.46677e-08
3.02142e-06
1.45808e-08
3.02382e-06
1.44188e-08
3.02619e-06
1.4206e-08
3.02852e-06
1.39665e-08
3.0308e-06
1.37194e-08
3.03303e-06
1.34771e-08
3.03523e-06
1.32478e-08
3.03738e-06
1.30376e-08
3.0395e-06
1.28506e-08
3.04159e-06
1.26896e-08
3.04364e-06
1.25563e-08
3.04567e-06
1.24521e-08
3.04768e-06
1.23787e-08
3.04966e-06
1.2338e-08
3.05163e-06
1.2333e-08
3.05357e-06
1.23681e-08
3.0555e-06
1.24491e-08
3.05741e-06
1.25844e-08
3.0593e-06
1.27851e-08
3.06117e-06
1.3066e-08
3.06302e-06
1.34465e-08
3.06484e-06
1.39517e-08
3.06664e-06
1.46141e-08
3.06841e-06
1.5475e-08
3.07014e-06
1.65877e-08
3.07183e-06
1.80197e-08
3.07347e-06
1.98571e-08
3.07504e-06
2.22093e-08
3.07654e-06
2.52152e-08
3.07794e-06
2.90511e-08
3.07923e-06
3.39411e-08
3.08037e-06
4.01691e-08
3.08134e-06
4.80953e-08
3.08208e-06
5.81766e-08
3.08256e-06
7.09913e-08
3.08269e-06
8.72711e-08
3.08241e-06
1.0794e-07
3.08161e-06
1.34161e-07
3.08018e-06
1.67395e-07
3.07797e-06
2.09468e-07
3.07482e-06
2.62643e-07
3.07054e-06
3.29701e-07
3.06494e-06
4.1401e-07
3.05779e-06
5.1954e-07
3.04896e-06
6.50889e-07
3.03837e-06
8.12899e-07
3.02624e-06
1.01084e-06
3.01295e-06
1.24792e-06
3.00025e-06
1.52907e-06
1.8441e-06
2.98876e-06
3.00035e-06
1.60517e-09
3.00134e-06
4.64416e-09
3.00285e-06
7.15281e-09
3.00471e-06
8.95731e-09
3.00679e-06
1.01891e-08
3.00904e-06
1.1063e-08
3.01141e-06
1.16737e-08
3.01384e-06
1.20371e-08
3.01629e-06
1.21949e-08
3.01875e-06
1.22144e-08
3.02118e-06
1.21455e-08
3.02359e-06
1.2014e-08
3.02595e-06
1.18399e-08
3.02828e-06
1.16431e-08
3.03056e-06
1.14399e-08
3.03279e-06
1.12408e-08
3.03499e-06
1.1053e-08
3.03714e-06
1.08815e-08
3.03926e-06
1.07303e-08
3.04135e-06
1.06018e-08
3.04341e-06
1.04979e-08
3.04544e-06
1.04203e-08
3.04745e-06
1.03709e-08
3.04944e-06
1.0352e-08
3.0514e-06
1.0367e-08
3.05335e-06
1.04208e-08
3.05528e-06
1.05197e-08
3.05719e-06
1.06725e-08
3.05908e-06
1.08908e-08
3.06096e-06
1.11901e-08
3.06282e-06
1.15902e-08
3.06465e-06
1.2117e-08
3.06646e-06
1.28036e-08
3.06824e-06
1.36923e-08
3.06999e-06
1.48374e-08
3.07171e-06
1.63077e-08
3.07337e-06
1.81907e-08
3.07498e-06
2.05979e-08
3.07653e-06
2.36705e-08
3.07799e-06
2.75878e-08
3.07936e-06
3.25774e-08
3.0806e-06
3.89279e-08
3.08169e-06
4.70051e-08
3.08259e-06
5.72726e-08
3.08327e-06
7.03173e-08
3.08366e-06
8.68809e-08
3.0837e-06
1.079e-07
3.0833e-06
1.34552e-07
3.08238e-06
1.68315e-07
3.08082e-06
2.11032e-07
3.07848e-06
2.64988e-07
3.0752e-06
3.32981e-07
3.07081e-06
4.18392e-07
3.06516e-06
5.25195e-07
3.0581e-06
6.57951e-07
3.04955e-06
8.21448e-07
3.03968e-06
1.02072e-06
3.02876e-06
1.25883e-06
3.01821e-06
1.53962e-06
1.85373e-06
3.00859e-06
3.00034e-06
1.27009e-09
3.0013e-06
3.67915e-09
3.00277e-06
5.68051e-09
3.0046e-06
7.13236e-09
3.00666e-06
8.12666e-09
3.00889e-06
8.82981e-09
3.01124e-06
9.32175e-09
3.01366e-06
9.61744e-09
3.01611e-06
9.74817e-09
3.01856e-06
9.767e-09
3.02099e-06
9.7145e-09
3.02339e-06
9.61198e-09
3.02576e-06
9.47524e-09
3.02808e-06
9.32034e-09
3.03036e-06
9.16042e-09
3.0326e-06
9.00418e-09
3.03479e-06
8.85743e-09
3.03695e-06
8.72457e-09
3.03907e-06
8.60892e-09
3.04116e-06
8.51287e-09
3.04322e-06
8.43833e-09
3.04525e-06
8.38714e-09
3.04726e-06
8.3615e-09
3.04925e-06
8.3642e-09
3.05122e-06
8.39902e-09