/*--------------------------------*- C++ -*----------------------------------*\
| =========                 |                                                 |
| \\      /  F ield         | OpenFOAM: The Open Source CFD Toolbox           |
|  \\    /   O peration     | Version:  2.4.0                                 |
|   \\  /    A nd           | Web:      www.OpenFOAM.org                      |
|    \\/     M anipulation  |                                                 |
\*---------------------------------------------------------------------------*/
FoamFile
{
    version     2.0;
    format      ascii;
    class       volVectorField;
    location    "1.1";
    object      U;
}
// * * * * * * * * * * * * * * * * * * * * * * * * * * * * * * * * * * * * * //

dimensions      [0 1 -1 0 0 0 0];

internalField   nonuniform List<vector> 
6000
(
(0.990441 -0.000273757 0)
(0.970231 0.0020497 0)
(0.948316 0.00334879 0)
(0.925587 0.00413663 0)
(0.903364 0.00452023 0)
(0.882322 0.00453154 0)
(0.862685 0.00428822 0)
(0.844553 0.00390126 0)
(0.82799 0.00344516 0)
(0.812998 0.00296863 0)
(0.79952 0.00250387 0)
(0.78746 0.00207086 0)
(0.7767 0.00168054 0)
(0.767117 0.00133769 0)
(0.758585 0.00104305 0)
(0.750981 0.000794874 0)
(0.744191 0.000589967 0)
(0.738106 0.000424402 0)
(0.732629 0.000293948 0)
(0.727671 0.000194336 0)
(0.723153 0.000121401 0)
(0.719007 7.11539e-05 0)
(0.71517 3.98275e-05 0)
(0.711592 2.39289e-05 0)
(0.708227 2.02595e-05 0)
(0.705037 2.59762e-05 0)
(0.701992 3.85814e-05 0)
(0.699066 5.5906e-05 0)
(0.696237 7.61155e-05 0)
(0.693489 9.77309e-05 0)
(0.690807 0.000119636 0)
(0.688179 0.000141069 0)
(0.685592 0.000161598 0)
(0.683037 0.000181099 0)
(0.680501 0.000199725 0)
(0.677971 0.000217892 0)
(0.675431 0.00023626 0)
(0.672861 0.000255733 0)
(0.670236 0.000277476 0)
(0.667524 0.000302939 0)
(0.664685 0.000333915 0)
(0.661667 0.000372613 0)
(0.658405 0.000421764 0)
(0.654816 0.000484776 0)
(0.650792 0.000565935 0)
(0.646197 0.00067067 0)
(0.640855 0.000805924 0)
(0.634542 0.000980634 0)
(0.62697 0.0012064 0)
(0.617766 0.00149843 0)
(0.606449 0.0018767 0)
(0.59239 0.00236789 0)
(0.574786 0.00300679 0)
(0.552535 0.00384137 0)
(0.524399 0.00492317 0)
(0.488139 0.00634256 0)
(0.443262 0.00804505 0)
(0.381762 0.0103129 0)
(0.321404 0.0122823 0)
(0.182107 0.0112422 0)
(1.00417 0.00480515 0)
(1.01373 0.00718215 0)
(1.0207 0.00682435 0)
(1.02486 0.00641226 0)
(1.02687 0.00609189 0)
(1.02702 0.00572672 0)
(1.02543 0.0053509 0)
(1.02232 0.00499901 0)
(1.01792 0.00467253 0)
(1.01248 0.00436642 0)
(1.00623 0.00407884 0)
(0.999349 0.0038094 0)
(0.992003 0.00355768 0)
(0.984333 0.00332307 0)
(0.976458 0.00310482 0)
(0.968478 0.00290208 0)
(0.960477 0.00271392 0)
(0.952526 0.00253939 0)
(0.944682 0.00237756 0)
(0.936995 0.00222755 0)
(0.929502 0.00208858 0)
(0.922237 0.00195993 0)
(0.915221 0.00184094 0)
(0.908473 0.00173105 0)
(0.902003 0.00162975 0)
(0.895815 0.00153649 0)
(0.889909 0.00145092 0)
(0.884279 0.00137286 0)
(0.878915 0.00130219 0)
(0.873806 0.00123883 0)
(0.868937 0.00118273 0)
(0.86429 0.0011339 0)
(0.859847 0.00109242 0)
(0.85559 0.00105843 0)
(0.851496 0.0010322 0)
(0.847547 0.00101421 0)
(0.843718 0.00100518 0)
(0.839986 0.00100617 0)
(0.836325 0.00101868 0)
(0.832705 0.00104478 0)
(0.829094 0.00108729 0)
(0.82545 0.00114994 0)
(0.821726 0.00123764 0)
(0.817864 0.00135683 0)
(0.813792 0.0015159 0)
(0.809417 0.00172579 0)
(0.804624 0.00200076 0)
(0.799264 0.00235949 0)
(0.793146 0.00282652 0)
(0.786017 0.00343432 0)
(0.77755 0.00422624 0)
(0.767299 0.00526042 0)
(0.754679 0.006616 0)
(0.738835 0.0083989 0)
(0.718734 0.0107537 0)
(0.692294 0.013858 0)
(0.65857 0.0179251 0)
(0.608662 0.0230246 0)
(0.556391 0.030197 0)
(0.423724 0.0306119 0)
(1.00036 0.00116234 0)
(1.00263 0.00202372 0)
(1.00544 0.00239372 0)
(1.00803 0.00304093 0)
(1.01052 0.00370471 0)
(1.013 0.00418587 0)
(1.01529 0.00451 0)
(1.01726 0.00472085 0)
(1.01884 0.00483323 0)
(1.02001 0.0048611 0)
(1.02076 0.0048237 0)
(1.02109 0.00473967 0)
(1.021 0.00462418 0)
(1.02051 0.00448883 0)
(1.01964 0.00434231 0)
(1.01841 0.00419091 0)
(1.01683 0.00403901 0)
(1.01492 0.00388949 0)
(1.0127 0.00374418 0)
(1.01019 0.00360411 0)
(1.00741 0.00346981 0)
(1.00437 0.00334151 0)
(1.00111 0.00321924 0)
(0.997629 0.00310286 0)
(0.993966 0.00299203 0)
(0.990139 0.00288632 0)
(0.986174 0.00278544 0)
(0.982097 0.00268924 0)
(0.977931 0.00259768 0)
(0.973701 0.00251084 0)
(0.969429 0.00242889 0)
(0.965137 0.00235218 0)
(0.960841 0.00228122 0)
(0.956558 0.00221676 0)
(0.952297 0.00215978 0)
(0.948066 0.00211162 0)
(0.943868 0.00207401 0)
(0.939699 0.00204915 0)
(0.935551 0.00203989 0)
(0.931408 0.00204984 0)
(0.927247 0.00208359 0)
(0.923036 0.00214703 0)
(0.918732 0.00224764 0)
(0.914281 0.00239505 0)
(0.909611 0.00260161 0)
(0.904632 0.00288324 0)
(0.899227 0.00326062 0)
(0.893251 0.00376069 0)
(0.886517 0.00441881 0)
(0.878787 0.0052817 0)
(0.869759 0.00641181 0)
(0.859044 0.007893 0)
(0.846154 0.00984061 0)
(0.830419 0.0124095 0)
(0.811112 0.0158258 0)
(0.786759 0.0203531 0)
(0.757126 0.0265049 0)
(0.715427 0.0342368 0)
(0.673814 0.0464778 0)
(0.569943 0.0513662 0)
(1.00025 0.00137449 0)
(1.00159 0.00317762 0)
(1.00312 0.00385962 0)
(1.00435 0.00422169 0)
(1.00551 0.0044898 0)
(1.00681 0.00462059 0)
(1.00821 0.00464384 0)
(1.00962 0.00461185 0)
(1.01101 0.00454652 0)
(1.01236 0.00445806 0)
(1.01365 0.0043568 0)
(1.01486 0.00425151 0)
(1.01598 0.00414779 0)
(1.017 0.00404885 0)
(1.0179 0.00395647 0)
(1.01869 0.0038715 0)
(1.01935 0.00379414 0)
(1.01989 0.00372408 0)
(1.02031 0.00366074 0)
(1.02059 0.0036033 0)
(1.02075 0.00355085 0)
(1.02077 0.0035025 0)
(1.02065 0.00345738 0)
(1.02039 0.00341462 0)
(1.01999 0.0033734 0)
(1.01945 0.00333309 0)
(1.01875 0.0032932 0)
(1.0179 0.0032534 0)
(1.0169 0.00321355 0)
(1.01573 0.0031737 0)
(1.01441 0.00313416 0)
(1.01293 0.00309549 0)
(1.01128 0.00305856 0)
(1.00947 0.00302458 0)
(1.0075 0.00299515 0)
(1.00537 0.00297232 0)
(1.00307 0.00295867 0)
(1.0006 0.00295742 0)
(0.997966 0.00297261 0)
(0.995147 0.00300933 0)
(0.992133 0.00307393 0)
(0.988906 0.0031745 0)
(0.985437 0.00332127 0)
(0.981685 0.00352727 0)
(0.977597 0.00380918 0)
(0.973099 0.00418838 0)
(0.968094 0.00469242 0)
(0.962453 0.00535698 0)
(0.956008 0.00622854 0)
(0.948541 0.00736797 0)
(0.93977 0.00885579 0)
(0.929329 0.0107989 0)
(0.916757 0.0133427 0)
(0.901431 0.0166789 0)
(0.882684 0.02109 0)
(0.859252 0.0268864 0)
(0.831038 0.0347697 0)
(0.792801 0.0445827 0)
(0.75544 0.0605201 0)
(0.671743 0.0697216 0)
(1.00018 0.00117351 0)
(1.00125 0.00265202 0)
(1.00255 0.00313695 0)
(1.00361 0.00339465 0)
(1.00455 0.00368378 0)
(1.00554 0.00390459 0)
(1.00659 0.00402484 0)
(1.00763 0.00408063 0)
(1.00866 0.00409623 0)
(1.00967 0.00408009 0)
(1.01068 0.00403963 0)
(1.01168 0.00398306 0)
(1.01266 0.00391701 0)
(1.01361 0.0038463 0)
(1.01453 0.00377451 0)
(1.01543 0.00370424 0)
(1.0163 0.0036373 0)
(1.01713 0.00357479 0)
(1.01793 0.0035173 0)
(1.0187 0.00346504 0)
(1.01942 0.00341792 0)
(1.02011 0.00337571 0)
(1.02075 0.00333803 0)
(1.02135 0.00330445 0)
(1.0219 0.0032746 0)
(1.0224 0.00324818 0)
(1.02285 0.00322493 0)
(1.02324 0.00320469 0)
(1.02358 0.0031874 0)
(1.02385 0.00317316 0)
(1.02404 0.00316226 0)
(1.02417 0.0031552 0)
(1.02421 0.00315275 0)
(1.02416 0.00315602 0)
(1.02402 0.00316652 0)
(1.02377 0.0031863 0)
(1.0234 0.00321801 0)
(1.0229 0.00326515 0)
(1.02225 0.0033322 0)
(1.02144 0.00342499 0)
(1.02043 0.00355099 0)
(1.0192 0.00371979 0)
(1.01771 0.00394372 0)
(1.01591 0.00423858 0)
(1.01375 0.00462469 0)
(1.01115 0.00512819 0)
(1.00801 0.0057828 0)
(1.0042 0.00663215 0)
(0.999573 0.00773295 0)
(0.993916 0.00915923 0)
(0.986967 0.0110085 0)
(0.978384 0.0134091 0)
(0.967738 0.0165343 0)
(0.954446 0.0206092 0)
(0.937878 0.0259615 0)
(0.916871 0.0329377 0)
(0.891248 0.0423399 0)
(0.856594 0.0539196 0)
(0.822082 0.07236 0)
(0.751237 0.0846604 0)
(1.00014 0.000986939 0)
(1.00102 0.00234199 0)
(1.00218 0.00292823 0)
(1.00322 0.00327081 0)
(1.00413 0.00359505 0)
(1.00506 0.00382755 0)
(1.00603 0.0039415 0)
(1.00699 0.00398007 0)
(1.00792 0.00397618 0)
(1.00883 0.00394143 0)
(1.00972 0.00388359 0)
(1.01059 0.00381146 0)
(1.01145 0.00373254 0)
(1.01229 0.0036521 0)
(1.01311 0.00357368 0)
(1.01392 0.00349967 0)
(1.01471 0.0034315 0)
(1.01549 0.00336991 0)
(1.01626 0.00331508 0)
(1.01701 0.00326684 0)
(1.01776 0.00322481 0)
(1.01849 0.00318847 0)
(1.01921 0.00315725 0)
(1.01991 0.00313061 0)
(1.0206 0.00310808 0)
(1.02127 0.00308926 0)
(1.02193 0.00307384 0)
(1.02256 0.00306167 0)
(1.02318 0.00305274 0)
(1.02377 0.00304726 0)
(1.02434 0.00304566 0)
(1.02487 0.00304865 0)
(1.02537 0.00305725 0)
(1.02583 0.00307289 0)
(1.02625 0.00309748 0)
(1.02662 0.00313352 0)
(1.02692 0.00318427 0)
(1.02716 0.00325389 0)
(1.0273 0.00334776 0)
(1.02735 0.00347272 0)
(1.02728 0.00363755 0)
(1.02707 0.00385345 0)
(1.02667 0.00413478 0)
(1.02606 0.00449993 0)
(1.02517 0.00497251 0)
(1.02395 0.00558291 0)
(1.02231 0.00637032 0)
(1.02015 0.00738543 0)
(1.01732 0.00869408 0)
(1.01365 0.0103822 0)
(1.00891 0.0125624 0)
(1.00281 0.015383 0)
(0.99498 0.0190427 0)
(0.984899 0.0237984 0)
(0.972006 0.0300202 0)
(0.955248 0.038095 0)
(0.934386 0.0488998 0)
(0.905508 0.0621503 0)
(0.876001 0.0826252 0)
(0.816564 0.097286 0)
(1.00011 0.000842191 0)
(1.00084 0.00209722 0)
(1.00189 0.00272308 0)
(1.00289 0.00306789 0)
(1.00378 0.00335926 0)
(1.00468 0.00357136 0)
(1.00563 0.00368004 0)
(1.00656 0.00371977 0)
(1.00748 0.00372117 0)
(1.00836 0.00369494 0)
(1.00923 0.00364717 0)
(1.01007 0.00358548 0)
(1.0109 0.00351679 0)
(1.0117 0.00344593 0)
(1.01248 0.00337613 0)
(1.01324 0.00330956 0)
(1.01399 0.00324765 0)
(1.01473 0.00319118 0)
(1.01546 0.00314046 0)
(1.01617 0.00309551 0)
(1.01688 0.0030561 0)
(1.01758 0.00302189 0)
(1.01827 0.00299249 0)
(1.01896 0.00296752 0)
(1.01964 0.00294661 0)
(1.02031 0.00292951 0)
(1.02097 0.00291602 0)
(1.02163 0.00290609 0)
(1.02227 0.00289985 0)
(1.02291 0.00289761 0)
(1.02353 0.00289992 0)
(1.02413 0.00290763 0)
(1.02471 0.00292191 0)
(1.02528 0.00294439 0)
(1.02581 0.00297719 0)
(1.02631 0.0030231 0)
(1.02677 0.00308573 0)
(1.02719 0.00316974 0)
(1.02754 0.00328107 0)
(1.02781 0.00342734 0)
(1.028 0.00361832 0)
(1.02807 0.00386647 0)
(1.02801 0.0041878 0)
(1.02776 0.00460279 0)
(1.0273 0.00513778 0)
(1.02657 0.00582663 0)
(1.02549 0.00671301 0)
(1.02398 0.00785338 0)
(1.02192 0.00932102 0)
(1.01919 0.0112114 0)
(1.01559 0.0136496 0)
(1.01091 0.0168 0)
(1.00487 0.0208821 0)
(0.997093 0.0261799 0)
(0.987189 0.0331004 0)
(0.974358 0.0420733 0)
(0.958519 0.0540463 0)
(0.936395 0.0687672 0)
(0.913892 0.0910014 0)
(0.867614 0.107969 0)
(1.00009 0.000728813 0)
(1.00071 0.00188098 0)
(1.00166 0.00251236 0)
(1.00261 0.00285664 0)
(1.00348 0.00313202 0)
(1.00436 0.00334175 0)
(1.00529 0.0034588 0)
(1.00621 0.00350669 0)
(1.00711 0.00351445 0)
(1.00799 0.00349424 0)
(1.00885 0.00345228 0)
(1.00969 0.00339581 0)
(1.0105 0.00333169 0)
(1.01129 0.00326478 0)
(1.01207 0.00319834 0)
(1.01282 0.00313461 0)
(1.01356 0.00307508 0)
(1.01428 0.00302064 0)
(1.01499 0.00297168 0)
(1.01569 0.00292829 0)
(1.01638 0.0028903 0)
(1.01707 0.00285743 0)
(1.01774 0.00282933 0)
(1.01841 0.00280567 0)
(1.01907 0.00278613 0)
(1.01973 0.00277049 0)
(1.02038 0.00275863 0)
(1.02102 0.00275055 0)
(1.02165 0.00274645 0)
(1.02228 0.00274672 0)
(1.0229 0.00275201 0)
(1.0235 0.00276327 0)
(1.02409 0.00278185 0)
(1.02466 0.00280952 0)
(1.02521 0.00284865 0)
(1.02573 0.00290232 0)
(1.02622 0.0029745 0)
(1.02667 0.00307029 0)
(1.02706 0.00319622 0)
(1.02739 0.00336064 0)
(1.02764 0.00357422 0)
(1.02779 0.0038506 0)
(1.02781 0.00420722 0)
(1.02767 0.00466642 0)
(1.02734 0.00525681 0)
(1.02675 0.00601515 0)
(1.02585 0.00698872 0)
(1.02455 0.00823847 0)
(1.02276 0.00984324 0)
(1.02035 0.0119054 0)
(1.01717 0.0145584 0)
(1.01304 0.0179769 0)
(1.00774 0.0223929 0)
(1.00099 0.0281057 0)
(0.992546 0.0355426 0)
(0.98189 0.0451588 0)
(0.969214 0.0579439 0)
(0.95218 0.0737238 0)
(0.935708 0.0971477 0)
(0.902839 0.116522 0)
(1.00007 0.000636572 0)
(1.00061 0.00168643 0)
(1.00146 0.00230827 0)
(1.00237 0.00265444 0)
(1.00322 0.00291892 0)
(1.00409 0.00312325 0)
(1.00499 0.00324227 0)
(1.0059 0.00329259 0)
(1.00679 0.00330233 0)
(1.00766 0.00328529 0)
(1.00852 0.00324771 0)
(1.00935 0.00319614 0)
(1.01016 0.00313701 0)
(1.01095 0.00307502 0)
(1.01172 0.00301331 0)
(1.01248 0.00295399 0)
(1.01321 0.0028985 0)
(1.01393 0.00284769 0)
(1.01464 0.00280197 0)
(1.01534 0.00276143 0)
(1.01602 0.00272594 0)
(1.0167 0.00269528 0)
(1.01737 0.00266915 0)
(1.01803 0.00264725 0)
(1.01869 0.00262937 0)
(1.01934 0.00261532 0)
(1.01998 0.00260507 0)
(1.02061 0.0025987 0)
(1.02124 0.00259647 0)
(1.02186 0.00259888 0)
(1.02247 0.00260668 0)
(1.02307 0.00262096 0)
(1.02365 0.00264319 0)
(1.02422 0.00267536 0)
(1.02477 0.00272004 0)
(1.02529 0.0027806 0)
(1.02578 0.00286135 0)
(1.02623 0.00296783 0)
(1.02664 0.00310713 0)
(1.02698 0.00328828 0)
(1.02725 0.00352284 0)
(1.02742 0.00382555 0)
(1.02747 0.00421524 0)
(1.02738 0.004716 0)
(1.02709 0.00535863 0)
(1.02657 0.00618262 0)
(1.02575 0.00723859 0)
(1.02455 0.00859163 0)
(1.02289 0.0103255 0)
(1.02065 0.0125485 0)
(1.01769 0.0154008 0)
(1.01383 0.0190642 0)
(1.00888 0.0237781 0)
(1.00262 0.0298476 0)
(0.994853 0.0377039 0)
(0.985218 0.0478046 0)
(0.974024 0.0611256 0)
(0.959804 0.077575 0)
(0.946632 0.101456 0)
(0.924199 0.123036 0)
(1.00006 0.000559605 0)
(1.00052 0.00151227 0)
(1.0013 0.00211482 0)
(1.00216 0.00246017 0)
(1.003 0.00271329 0)
(1.00385 0.00290875 0)
(1.00473 0.0030269 0)
(1.00563 0.00307919 0)
(1.00651 0.00309151 0)
(1.00738 0.00307827 0)
(1.00823 0.00304559 0)
(1.00906 0.00299927 0)
(1.00987 0.0029453 0)
(1.01066 0.00288824 0)
(1.01143 0.00283113 0)
(1.01218 0.00277601 0)
(1.01291 0.00272429 0)
(1.01363 0.00267681 0)
(1.01434 0.00263402 0)
(1.01504 0.00259605 0)
(1.01572 0.00256282 0)
(1.0164 0.00253417 0)
(1.01707 0.00250985 0)
(1.01773 0.00248963 0)
(1.01838 0.00247334 0)
(1.01903 0.00246086 0)
(1.01967 0.00245222 0)
(1.0203 0.00244756 0)
(1.02093 0.00244723 0)
(1.02154 0.00245179 0)
(1.02215 0.00246211 0)
(1.02275 0.00247937 0)
(1.02333 0.00250519 0)
(1.0239 0.00254173 0)
(1.02444 0.00259177 0)
(1.02497 0.00265894 0)
(1.02546 0.00274789 0)
(1.02591 0.00286457 0)
(1.02632 0.0030166 0)
(1.02667 0.00321367 0)
(1.02695 0.00346817 0)
(1.02714 0.00379591 0)
(1.02722 0.00421705 0)
(1.02715 0.00475732 0)
(1.0269 0.00544963 0)
(1.02643 0.00633602 0)
(1.02568 0.00747033 0)
(1.02457 0.00892151 0)
(1.02301 0.0107781 0)
(1.02091 0.0131537 0)
(1.01812 0.0161947 0)
(1.01449 0.0200894 0)
(1.00984 0.0250828 0)
(1.00396 0.0314836 0)
(0.996674 0.0397191 0)
(0.987703 0.0502395 0)
(0.977322 0.0639636 0)
(0.964641 0.0808782 0)
(0.952787 0.104702 0)
(0.936635 0.127988 0)
(1.00005 0.000494162 0)
(1.00046 0.00135607 0)
(1.00117 0.00193158 0)
(1.00199 0.00227173 0)
(1.00281 0.00251315 0)
(1.00364 0.00269857 0)
(1.00451 0.00281463 0)
(1.00539 0.00286855 0)
(1.00626 0.00288321 0)
(1.00712 0.00287318 0)
(1.00797 0.0028447 0)
(1.00879 0.00280302 0)
(1.0096 0.00275372 0)
(1.01039 0.00270122 0)
(1.01116 0.00264845 0)
(1.01191 0.00259736 0)
(1.01265 0.00254932 0)
(1.01337 0.00250517 0)
(1.01408 0.00246535 0)
(1.01477 0.00243004 0)
(1.01546 0.00239919 0)
(1.01614 0.00237267 0)
(1.01681 0.00235029 0)
(1.01747 0.00233187 0)
(1.01812 0.00231728 0)
(1.01877 0.00230648 0)
(1.01941 0.00229952 0)
(1.02004 0.00229664 0)
(1.02066 0.00229823 0)
(1.02128 0.00230496 0)
(1.02189 0.00231776 0)
(1.02248 0.00233795 0)
(1.02307 0.00236727 0)
(1.02363 0.00240804 0)
(1.02418 0.00246325 0)
(1.02471 0.00253678 0)
(1.02521 0.00263359 0)
(1.02567 0.00276003 0)
(1.02608 0.00292422 0)
(1.02644 0.00313648 0)
(1.02674 0.00341001 0)
(1.02694 0.0037616 0)
(1.02704 0.00421267 0)
(1.02701 0.00479054 0)
(1.0268 0.00553006 0)
(1.02638 0.00647573 0)
(1.02569 0.00768436 0)
(1.02467 0.00922858 0)
(1.02323 0.0112012 0)
(1.02126 0.013721 0)
(1.01866 0.0169401 0)
(1.01526 0.0210524 0)
(1.0109 0.026308 0)
(1.0054 0.0330186 0)
(0.998593 0.0416057 0)
(0.990245 0.0525128 0)
(0.980563 0.0665838 0)
(0.969004 0.0838877 0)
(0.95785 0.107461 0)
(0.94491 0.13189 0)
(1.00005 0.000437554 0)
(1.00041 0.0012151 0)
(1.00106 0.00175793 0)
(1.00184 0.00208869 0)
(1.00264 0.00231827 0)
(1.00346 0.0024931 0)
(1.00431 0.00260572 0)
(1.00518 0.00266034 0)
(1.00605 0.00267672 0)
(1.0069 0.00266932 0)
(1.00774 0.00264455 0)
(1.00856 0.0026072 0)
(1.00937 0.00256241 0)
(1.01016 0.00251435 0)
(1.01093 0.00246585 0)
(1.01168 0.00241878 0)
(1.01241 0.00237441 0)
(1.01314 0.00233358 0)
(1.01384 0.00229676 0)
(1.01454 0.00226411 0)
(1.01523 0.00223563 0)
(1.01591 0.00221125 0)
(1.01657 0.0021908 0)
(1.01723 0.00217417 0)
(1.01789 0.00216127 0)
(1.01854 0.00215212 0)
(1.01918 0.00214682 0)
(1.01981 0.00214568 0)
(1.02043 0.00214916 0)
(1.02105 0.00215799 0)
(1.02166 0.00217321 0)
(1.02226 0.00219623 0)
(1.02284 0.00222893 0)
(1.02341 0.00227377 0)
(1.02396 0.00233395 0)
(1.02449 0.00241356 0)
(1.025 0.00251788 0)
(1.02546 0.00265364 0)
(1.02589 0.00282941 0)
(1.02626 0.00305613 0)
(1.02657 0.00334773 0)
(1.0268 0.00372195 0)
(1.02693 0.0042014 0)
(1.02692 0.00481487 0)
(1.02676 0.00559906 0)
(1.02639 0.00660074 0)
(1.02578 0.00787954 0)
(1.02485 0.00951147 0)
(1.02352 0.0115934 0)
(1.02171 0.0142487 0)
(1.01929 0.0176347 0)
(1.01614 0.0219504 0)
(1.01209 0.0274503 0)
(1.00698 0.0344484 0)
(1.00067 0.0433593 0)
(0.992957 0.0546219 0)
(0.984 0.0690038 0)
(0.973463 0.0866539 0)
(0.963064 0.109976 0)
(0.951851 0.135084 0)
(1.00004 0.000387797 0)
(1.00037 0.00108696 0)
(1.00097 0.0015933 0)
(1.00172 0.00191092 0)
(1.0025 0.00212824 0)
(1.0033 0.00229199 0)
(1.00413 0.00239986 0)
(1.00499 0.00245421 0)
(1.00585 0.00247181 0)
(1.0067 0.00246664 0)
(1.00754 0.00244522 0)
(1.00836 0.00241195 0)
(1.00916 0.00237145 0)
(1.00995 0.00232768 0)
(1.01072 0.00228333 0)
(1.01147 0.00224017 0)
(1.01221 0.00219941 0)
(1.01293 0.00216187 0)
(1.01364 0.002128 0)
(1.01433 0.002098 0)
(1.01502 0.00207191 0)
(1.0157 0.00204965 0)
(1.01637 0.00203115 0)
(1.01703 0.00201632 0)
(1.01768 0.00200511 0)
(1.01833 0.0019976 0)
(1.01897 0.00199397 0)
(1.01961 0.00199454 0)
(1.02023 0.00199987 0)
(1.02085 0.00201076 0)
(1.02146 0.00202833 0)
(1.02206 0.00205409 0)
(1.02265 0.00209003 0)
(1.02322 0.00213876 0)
(1.02377 0.00220367 0)
(1.02431 0.00228907 0)
(1.02482 0.00240052 0)
(1.02529 0.0025451 0)
(1.02573 0.00273183 0)
(1.02612 0.00297221 0)
(1.02644 0.00328086 0)
(1.02669 0.00367642 0)
(1.02685 0.00418259 0)
(1.02688 0.00482955 0)
(1.02677 0.00565572 0)
(1.02646 0.00670999 0)
(1.02592 0.00805458 0)
(1.02508 0.00976864 0)
(1.02388 0.0119528 0)
(1.02223 0.0147346 0)
(1.02001 0.018276 0)
(1.01711 0.0227807 0)
(1.01339 0.0285067 0)
(1.00869 0.0357695 0)
(1.00288 0.0449765 0)
(0.995809 0.0565616 0)
(0.9876 0.0712222 0)
(0.978047 0.0891709 0)
(0.968548 0.112294 0)
(0.958562 0.137755 0)
(1.00004 0.000343415 0)
(1.00034 0.000969605 0)
(1.00089 0.00143701 0)
(1.00161 0.0017382 0)
(1.00237 0.00194256 0)
(1.00316 0.00209481 0)
(1.00398 0.00219687 0)
(1.00483 0.00225007 0)
(1.00568 0.00226843 0)
(1.00652 0.00226512 0)
(1.00736 0.0022467 0)
(1.00817 0.0022172 0)
(1.00898 0.00218079 0)
(1.00976 0.00214115 0)
(1.01053 0.00210083 0)
(1.01128 0.00206151 0)
(1.01202 0.00202432 0)
(1.01274 0.00199004 0)
(1.01345 0.00195911 0)
(1.01415 0.00193177 0)
(1.01484 0.00190805 0)
(1.01552 0.00188795 0)
(1.01619 0.00187139 0)
(1.01685 0.00185835 0)
(1.0175 0.00184884 0)
(1.01815 0.00184297 0)
(1.01879 0.00184097 0)
(1.01943 0.00184323 0)
(1.02005 0.00185037 0)
(1.02067 0.00186325 0)
(1.02128 0.00188307 0)
(1.02189 0.00191144 0)
(1.02248 0.00195048 0)
(1.02305 0.00200291 0)
(1.02361 0.0020723 0)
(1.02415 0.00216317 0)
(1.02467 0.00228134 0)
(1.02515 0.00243422 0)
(1.0256 0.00263125 0)
(1.026 0.00288444 0)
(1.02635 0.00320907 0)
(1.02662 0.0036246 0)
(1.0268 0.00415574 0)
(1.02688 0.00483398 0)
(1.02681 0.00569929 0)
(1.02657 0.00680256 0)
(1.02611 0.00820837 0)
(1.02537 0.00999876 0)
(1.0243 0.0122777 0)
(1.02281 0.0151767 0)
(1.0208 0.0188617 0)
(1.01817 0.0235407 0)
(1.01477 0.0294743 0)
(1.01049 0.0369793 0)
(1.0052 0.0464555 0)
(0.998771 0.0583307 0)
(0.991318 0.0732399 0)
(0.982712 0.091437 0)
(0.974166 0.114406 0)
(0.965282 0.140012 0)
(1.00003 0.000303299 0)
(1.00031 0.000861298 0)
(1.00083 0.00128831 0)
(1.00151 0.00157024 0)
(1.00226 0.00176079 0)
(1.00303 0.00190121 0)
(1.00385 0.00199657 0)
(1.00468 0.0020478 0)
(1.00553 0.00206646 0)
(1.00637 0.00206466 0)
(1.0072 0.00204891 0)
(1.00801 0.00202292 0)
(1.00881 0.0019904 0)
(1.0096 0.00195475 0)
(1.01037 0.00191837 0)
(1.01112 0.00188281 0)
(1.01186 0.00184914 0)
(1.01258 0.00181809 0)
(1.01329 0.0017901 0)
(1.01399 0.0017654 0)
(1.01468 0.00174407 0)
(1.01536 0.00172611 0)
(1.01603 0.0017115 0)
(1.01669 0.00170026 0)
(1.01734 0.00169243 0)
(1.01799 0.00168818 0)
(1.01863 0.00168779 0)
(1.01927 0.0016917 0)
(1.0199 0.00170059 0)
(1.02052 0.0017154 0)
(1.02113 0.00173738 0)
(1.02173 0.00176825 0)
(1.02233 0.00181022 0)
(1.02291 0.00186615 0)
(1.02347 0.00193975 0)
(1.02402 0.00203576 0)
(1.02454 0.00216022 0)
(1.02503 0.00232086 0)
(1.02549 0.00252749 0)
(1.02591 0.00279261 0)
(1.02627 0.00313209 0)
(1.02657 0.00356615 0)
(1.02679 0.00412046 0)
(1.0269 0.00482764 0)
(1.02689 0.00572917 0)
(1.02671 0.00687768 0)
(1.02633 0.00833997 0)
(1.0257 0.0102007 0)
(1.02477 0.0125668 0)
(1.02344 0.0155734 0)
(1.02165 0.01939 0)
(1.01929 0.0242283 0)
(1.01624 0.0303511 0)
(1.01238 0.0380759 0)
(1.00761 0.0477951 0)
(1.00182 0.0599293 0)
(0.995124 0.0750595 0)
(0.98743 0.0934605 0)
(0.979825 0.116304 0)
(0.971984 0.141927 0)
(1.00003 0.000266596 0)
(1.00029 0.000760564 0)
(1.00078 0.00114642 0)
(1.00143 0.00140673 0)
(1.00216 0.00158254 0)
(1.00293 0.00171082 0)
(1.00373 0.00179877 0)
(1.00456 0.00184729 0)
(1.0054 0.00186577 0)
(1.00623 0.00186518 0)
(1.00706 0.00185179 0)
(1.00787 0.00182906 0)
(1.00867 0.00180027 0)
(1.00945 0.00176847 0)
(1.01022 0.00173593 0)
(1.01097 0.00170406 0)
(1.01171 0.00167387 0)
(1.01244 0.00164603 0)
(1.01315 0.00162096 0)
(1.01385 0.0015989 0)
(1.01453 0.00157995 0)
(1.01521 0.00156413 0)
(1.01588 0.00155147 0)
(1.01655 0.00154202 0)
(1.0172 0.00153587 0)
(1.01785 0.00153322 0)
(1.0185 0.00153441 0)
(1.01913 0.00153994 0)
(1.01976 0.00155053 0)
(1.02038 0.00156718 0)
(1.021 0.00159124 0)
(1.0216 0.00162448 0)
(1.0222 0.00166921 0)
(1.02278 0.00172842 0)
(1.02335 0.00180596 0)
(1.0239 0.00190675 0)
(1.02443 0.00203707 0)
(1.02494 0.00220489 0)
(1.02541 0.0024204 0)
(1.02584 0.00269652 0)
(1.02623 0.00304969 0)
(1.02655 0.00350079 0)
(1.0268 0.00407636 0)
(1.02695 0.0048101 0)
(1.02699 0.00574479 0)
(1.02688 0.00693468 0)
(1.02659 0.00844855 0)
(1.02607 0.0103734 0)
(1.02527 0.0128189 0)
(1.02413 0.0159232 0)
(1.02256 0.0198593 0)
(1.02047 0.0248416 0)
(1.01777 0.0311352 0)
(1.01434 0.0390576 0)
(1.0101 0.0489947 0)
(1.00496 0.0613587 0)
(0.999 0.0766844 0)
(0.992187 0.0952529 0)
(0.985484 0.117991 0)
(0.978618 0.143555 0)
(1.00003 0.000232643 0)
(1.00027 0.000666154 0)
(1.00073 0.00101057 0)
(1.00137 0.00124734 0)
(1.00208 0.00140747 0)
(1.00283 0.0015233 0)
(1.00363 0.00160327 0)
(1.00445 0.00164839 0)
(1.00528 0.00166625 0)
(1.00611 0.00166657 0)
(1.00693 0.0016553 0)
(1.00774 0.00163561 0)
(1.00854 0.00161036 0)
(1.00933 0.00158231 0)
(1.01009 0.00155351 0)
(1.01085 0.00152528 0)
(1.01158 0.00149852 0)
(1.01231 0.00147386 0)
(1.01302 0.0014517 0)
(1.01372 0.00143227 0)
(1.01441 0.00141569 0)
(1.01509 0.00140202 0)
(1.01576 0.00139131 0)
(1.01642 0.00138364 0)
(1.01708 0.00137915 0)
(1.01773 0.00137809 0)
(1.01837 0.00138084 0)
(1.01901 0.00138794 0)
(1.01964 0.00140017 0)
(1.02027 0.00141859 0)
(1.02088 0.00144461 0)
(1.02149 0.00148008 0)
(1.02209 0.0015274 0)
(1.02267 0.00158967 0)
(1.02325 0.00167087 0)
(1.02381 0.00177608 0)
(1.02434 0.00191178 0)
(1.02486 0.0020862 0)
(1.02534 0.00230984 0)
(1.02579 0.00259601 0)
(1.0262 0.00296165 0)
(1.02655 0.00342826 0)
(1.02683 0.00402314 0)
(1.02703 0.00478095 0)
(1.02712 0.00574565 0)
(1.02708 0.00697295 0)
(1.02688 0.00853334 0)
(1.02648 0.0105159 0)
(1.02582 0.0130328 0)
(1.02485 0.0162249 0)
(1.02351 0.0202679 0)
(1.02171 0.0253792 0)
(1.01936 0.0318251 0)
(1.01637 0.0399234 0)
(1.01266 0.0500536 0)
(1.00815 0.0626202 0)
(1.00294 0.078118 0)
(0.996976 0.0968254 0)
(0.991136 0.119473 0)
(0.985166 0.14494 0)
(1.00003 0.000200913 0)
(1.00025 0.000577004 0)
(1.0007 0.000879974 0)
(1.00131 0.00109167 0)
(1.00201 0.00123522 0)
(1.00275 0.00133831 0)
(1.00354 0.00140983 0)
(1.00435 0.00145096 0)
(1.00518 0.00146778 0)
(1.00601 0.00146876 0)
(1.00683 0.00145936 0)
(1.00764 0.00144251 0)
(1.00843 0.00142066 0)
(1.00922 0.00139624 0)
(1.00998 0.00137111 0)
(1.01074 0.00134646 0)
(1.01147 0.0013231 0)
(1.0122 0.00130159 0)
(1.01291 0.00128232 0)
(1.01361 0.00126552 0)
(1.0143 0.00125131 0)
(1.01498 0.00123978 0)
(1.01565 0.00123101 0)
(1.01632 0.00122511 0)
(1.01697 0.00122228 0)
(1.01763 0.00122278 0)
(1.01827 0.00122705 0)
(1.01891 0.00123567 0)
(1.01954 0.00124949 0)
(1.02016 0.0012696 0)
(1.02078 0.00129747 0)
(1.02139 0.00133503 0)
(1.02199 0.00138477 0)
(1.02258 0.00144987 0)
(1.02316 0.00153443 0)
(1.02373 0.00164368 0)
(1.02427 0.00178428 0)
(1.0248 0.00196469 0)
(1.0253 0.00219568 0)
(1.02576 0.00249093 0)
(1.02619 0.00286779 0)
(1.02657 0.00334833 0)
(1.02689 0.00396051 0)
(1.02713 0.00473984 0)
(1.02728 0.00573132 0)
(1.02731 0.00699192 0)
(1.0272 0.00859369 0)
(1.02691 0.0106275 0)
(1.0264 0.0132077 0)
(1.02562 0.0164773 0)
(1.02451 0.0206147 0)
(1.02299 0.0258395 0)
(1.021 0.0324194 0)
(1.01845 0.0406722 0)
(1.01528 0.0509718 0)
(1.01141 0.0637153 0)
(1.00693 0.0793639 0)
(1.00179 0.0981881 0)
(0.996778 0.120761 0)
(0.991628 0.146118 0)
(1.00003 0.000170978 0)
(1.00024 0.000492201 0)
(1.00067 0.000753916 0)
(1.00126 0.000939326 0)
(1.00195 0.00106547 0)
(1.00268 0.00115554 0)
(1.00346 0.00121822 0)
(1.00427 0.00125484 0)
(1.00509 0.00127026 0)
(1.00592 0.00127164 0)
(1.00673 0.00126393 0)
(1.00754 0.00124973 0)
(1.00834 0.00123114 0)
(1.00912 0.00121026 0)
(1.00989 0.00118873 0)
(1.01064 0.00116761 0)
(1.01138 0.0011476 0)
(1.0121 0.00112923 0)
(1.01282 0.00111284 0)
(1.01352 0.00109865 0)
(1.01421 0.00108681 0)
(1.01489 0.00107741 0)
(1.01556 0.00107057 0)
(1.01623 0.00106644 0)
(1.01688 0.00106524 0)
(1.01754 0.00106728 0)
(1.01818 0.00107304 0)
(1.01882 0.00108314 0)
(1.01945 0.00109847 0)
(1.02008 0.00112018 0)
(1.0207 0.0011498 0)
(1.02131 0.00118931 0)
(1.02192 0.00124127 0)
(1.02251 0.00130896 0)
(1.0231 0.00139659 0)
(1.02367 0.0015095 0)
(1.02422 0.00165451 0)
(1.02476 0.00184028 0)
(1.02527 0.00207784 0)
(1.02575 0.00238114 0)
(1.0262 0.00276795 0)
(1.02661 0.00326078 0)
(1.02696 0.00388821 0)
(1.02725 0.00468646 0)
(1.02746 0.00570141 0)
(1.02757 0.00699114 0)
(1.02755 0.008629 0)
(1.02738 0.0107074 0)
(1.02702 0.0133425 0)
(1.02642 0.0166795 0)
(1.02554 0.0208986 0)
(1.02432 0.0262214 0)
(1.0227 0.032917 0)
(1.02059 0.041303 0)
(1.01796 0.0517489 0)
(1.01473 0.0646453 0)
(1.01096 0.0804253 0)
(1.00663 0.0993495 0)
(1.00241 0.121866 0)
(0.998017 0.147116 0)
(1.00003 0.000142486 0)
(1.00023 0.000410958 0)
(1.00064 0.000631697 0)
(1.00122 0.000789889 0)
(1.0019 0.000897892 0)
(1.00263 0.000974652 0)
(1.0034 0.00102818 0)
(1.0042 0.00105988 0)
(1.00502 0.00107355 0)
(1.00584 0.00107513 0)
(1.00666 0.00106893 0)
(1.00746 0.00105723 0)
(1.00826 0.00104178 0)
(1.00904 0.00102436 0)
(1.00981 0.00100636 0)
(1.01056 0.000988718 0)
(1.0113 0.000972041 0)
(1.01203 0.000956781 0)
(1.01274 0.000943256 0)
(1.01344 0.00093168 0)
(1.01413 0.000922195 0)
(1.01481 0.000914926 0)
(1.01548 0.000910011 0)
(1.01615 0.00090763 0)
(1.01681 0.000908038 0)
(1.01746 0.000911594 0)
(1.01811 0.000918797 0)
(1.01875 0.00093033 0)
(1.01938 0.000947106 0)
(1.02001 0.000970331 0)
(1.02063 0.00100158 0)
(1.02125 0.00104289 0)
(1.02185 0.00109689 0)
(1.02245 0.00116693 0)
(1.02304 0.0012573 0)
(1.02362 0.00137347 0)
(1.02418 0.00152239 0)
(1.02473 0.00171289 0)
(1.02526 0.00195619 0)
(1.02576 0.00226653 0)
(1.02623 0.00266198 0)
(1.02667 0.00316545 0)
(1.02706 0.00380602 0)
(1.02739 0.00462051 0)
(1.02766 0.00565558 0)
(1.02784 0.00697018 0)
(1.02792 0.00863878 0)
(1.02787 0.0107551 0)
(1.02766 0.0134367 0)
(1.02725 0.0168305 0)
(1.02661 0.0211185 0)
(1.02569 0.0265239 0)
(1.02443 0.0333169 0)
(1.02278 0.0418151 0)
(1.02068 0.0523848 0)
(1.01809 0.0654111 0)
(1.01504 0.0813051 0)
(1.0115 0.100317 0)
(1.00804 0.122794 0)
(1.00435 0.147957 0)
(1.00002 0.000115141 0)
(1.00022 0.000332581 0)
(1.00062 0.000512657 0)
(1.00119 0.000642922 0)
(1.00186 0.000732157 0)
(1.00258 0.000795357 0)
(1.00335 0.000839496 0)
(1.00414 0.000865915 0)
(1.00496 0.000877532 0)
(1.00578 0.000879126 0)
(1.00659 0.000874303 0)
(1.0074 0.00086497 0)
(1.00819 0.00085256 0)
(1.00898 0.000838513 0)
(1.00974 0.000824002 0)
(1.0105 0.000809801 0)
(1.01123 0.000796424 0)
(1.01196 0.000784258 0)
(1.01267 0.000773586 0)
(1.01337 0.000764608 0)
(1.01407 0.000757473 0)
(1.01475 0.000752324 0)
(1.01542 0.000749321 0)
(1.01609 0.000748677 0)
(1.01675 0.000750676 0)
(1.0174 0.000755715 0)
(1.01805 0.000764328 0)
(1.01869 0.000777236 0)
(1.01932 0.00079539 0)
(1.01995 0.000820037 0)
(1.02058 0.000852796 0)
(1.02119 0.000895754 0)
(1.02181 0.00095159 0)
(1.02241 0.00102373 0)
(1.023 0.00111653 0)
(1.02359 0.00123556 0)
(1.02416 0.00138788 0)
(1.02472 0.00158246 0)
(1.02526 0.00183068 0)
(1.02578 0.00214701 0)
(1.02628 0.00254976 0)
(1.02674 0.00306219 0)
(1.02717 0.00371375 0)
(1.02755 0.00454179 0)
(1.02788 0.00559353 0)
(1.02814 0.0069287 0)
(1.02831 0.0086226 0)
(1.02838 0.01077 0)
(1.02832 0.0134897 0)
(1.02811 0.0169297 0)
(1.02772 0.0212737 0)
(1.02709 0.0267462 0)
(1.02621 0.0336182 0)
(1.025 0.0422078 0)
(1.02345 0.0528792 0)
(1.02149 0.0660137 0)
(1.01916 0.0820055 0)
(1.01638 0.101096 0)
(1.01367 0.123555 0)
(1.01063 0.148657 0)
(1.00002 8.86855e-05 0)
(1.00022 0.000256457 0)
(1.00061 0.000396171 0)
(1.00116 0.000497983 0)
(1.00182 0.000567935 0)
(1.00254 0.000617355 0)
(1.00331 0.000651904 0)
(1.0041 0.000672764 0)
(1.00491 0.000682092 0)
(1.00573 0.000683546 0)
(1.00654 0.000679977 0)
(1.00735 0.000672908 0)
(1.00814 0.00066345 0)