/*--------------------------------*- C++ -*----------------------------------*\
| =========                 |                                                 |
| \\      /  F ield         | OpenFOAM: The Open Source CFD Toolbox           |
|  \\    /   O peration     | Version:  2.4.0                                 |
|   \\  /    A nd           | Web:      www.OpenFOAM.org                      |
|    \\/     M anipulation  |                                                 |
\*---------------------------------------------------------------------------*/
FoamFile
{
    version     2.0;
    format      ascii;
    class       volScalarField;
    location    "125";
    object      k;
}
// * * * * * * * * * * * * * * * * * * * * * * * * * * * * * * * * * * * * * //

dimensions      [0 2 -2 0 0 0 0];

internalField   nonuniform List<scalar> 
10000
(
0.0700326
0.0663874
0.0634314
0.0610055
0.0589927
0.0573066
0.0558867
0.0546879
0.0536735
0.0528137
0.0520847
0.0514672
0.0509454
0.0505066
0.0501391
0.0498309
0.0495642
0.0493041
0.0489594
0.0480932
0.0700326
0.0663875
0.0634315
0.0610057
0.058993
0.057307
0.0558873
0.0546887
0.0536745
0.0528151
0.0520864
0.0514692
0.0509478
0.0505094
0.0501425
0.0498352
0.0495709
0.0493197
0.0490199
0.0485228
0.0700326
0.0663874
0.0634313
0.0610054
0.0589925
0.0573064
0.0558863
0.0546873
0.0536727
0.0528127
0.0520834
0.0514654
0.0509433
0.050504
0.0501364
0.049829
0.049567
0.0493268
0.0490697
0.0487373
0.0700325
0.0663873
0.063431
0.0610048
0.0589915
0.0573048
0.055884
0.0546841
0.0536684
0.0528071
0.0520763
0.0514567
0.0509328
0.0504916
0.050122
0.0498133
0.0495527
0.0493221
0.0490966
0.0488461
0.0700325
0.0663871
0.0634305
0.0610038
0.0589899
0.0573024
0.0558806
0.0546793
0.053662
0.0527988
0.0520659
0.0514439
0.0509173
0.0504732
0.0501007
0.0497896
0.049529
0.0493049
0.0490999
0.0488947
0.0700324
0.0663868
0.0634299
0.0610026
0.058988
0.0572995
0.0558763
0.0546733
0.053654
0.0527884
0.0520528
0.0514278
0.0508978
0.05045
0.0500738
0.0497593
0.0494971
0.0492759
0.0490829
0.0489031
0.0700323
0.0663865
0.0634292
0.0610013
0.0589857
0.0572961
0.0558714
0.0546665
0.0536448
0.0527765
0.0520378
0.0514093
0.0508754
0.0504234
0.0500427
0.049724
0.0494586
0.0492373
0.0490497
0.0488831
0.0700322
0.0663862
0.0634285
0.0609998
0.0589833
0.0572925
0.0558661
0.0546591
0.0536349
0.0527636
0.0520215
0.0513892
0.0508512
0.0503946
0.0500089
0.0496852
0.0494154
0.0491915
0.0490045
0.0488432
0.0700321
0.0663859
0.0634277
0.0609983
0.0589809
0.0572888
0.0558607
0.0546515
0.0536246
0.0527503
0.0520047
0.0513685
0.050826
0.0503645
0.0499736
0.0496444
0.0493693
0.049141
0.0489514
0.0487902
0.070032
0.0663856
0.0634269
0.0609968
0.0589784
0.0572851
0.0558553
0.054644
0.0536144
0.052737
0.0519879
0.0513477
0.0508007
0.0503343
0.049938
0.0496031
0.0493221
0.0490882
0.0488938
0.0487294
0.0700319
0.0663852
0.0634261
0.0609953
0.058976
0.0572815
0.0558502
0.0546367
0.0536046
0.0527242
0.0519715
0.0513274
0.0507761
0.0503048
0.0499032
0.0495624
0.0492753
0.0490351
0.0488347
0.048665
0.0700318
0.0663849
0.0634254
0.0609939
0.0589737
0.0572782
0.0558454
0.0546299
0.0535953
0.052712
0.0519561
0.0513082
0.0507527
0.0502768
0.0498699
0.0495235
0.0492302
0.0489835
0.0487764
0.0486003
0.0700317
0.0663846
0.0634247
0.0609926
0.0589716
0.0572752
0.055841
0.0546237
0.0535868
0.0527009
0.0519418
0.0512904
0.050731
0.0502506
0.0498389
0.049487
0.0491878
0.0489346
0.0487206
0.0485377
0.0700316
0.0663843
0.063424
0.0609913
0.0589697
0.0572725
0.0558371
0.0546181
0.0535792
0.0526908
0.051929
0.0512743
0.0507113
0.0502268
0.0498105
0.0494536
0.0491487
0.0488893
0.0486687
0.0484789
0.0700315
0.0663841
0.0634234
0.0609902
0.058968
0.0572701
0.0558338
0.0546134
0.0535726
0.052682
0.0519176
0.0512601
0.0506937
0.0502056
0.0497852
0.0494236
0.0491136
0.0488484
0.0486215
0.0484252
0.0700314
0.0663838
0.0634229
0.0609892
0.0589666
0.0572682
0.055831
0.0546094
0.053567
0.0526745
0.0519078
0.0512478
0.0506785
0.0501871
0.049763
0.0493973
0.0490826
0.0488122
0.0485795
0.0483771
0.0700313
0.0663836
0.0634224
0.0609883
0.0589653
0.0572665
0.0558288
0.0546061
0.0535624
0.0526682
0.0518997
0.0512374
0.0506656
0.0501713
0.049744
0.0493746
0.0490557
0.0487807
0.0485429
0.0483349
0.0700312
0.0663834
0.0634219
0.0609875
0.0589642
0.0572652
0.0558271
0.0546036
0.0535588
0.0526632
0.051893
0.0512288
0.0506549
0.0501582
0.049728
0.0493555
0.049033
0.0487539
0.0485116
0.0482988
0.0700311
0.0663832
0.0634215
0.0609869
0.0589633
0.0572642
0.0558259
0.0546018
0.0535561
0.0526594
0.0518878
0.051222
0.0506462
0.0501475
0.049715
0.0493398
0.0490142
0.0487316
0.0484854
0.0482684
0.070031
0.066383
0.0634212
0.0609862
0.0589625
0.0572634
0.0558251
0.0546007
0.0535542
0.0526566
0.0518839
0.0512168
0.0506396
0.0501391
0.0497046
0.0493272
0.0489991
0.0487135
0.048464
0.0482435
0.0700309
0.0663829
0.0634208
0.0609857
0.0589618
0.0572629
0.0558246
0.0546001
0.0535531
0.0526548
0.0518812
0.0512131
0.0506346
0.0501328
0.0496967
0.0493174
0.0489872
0.0486992
0.048447
0.0482234
0.0700308
0.0663827
0.0634205
0.0609853
0.0589613
0.0572625
0.0558245
0.0545999
0.0535527
0.0526538
0.0518796
0.0512107
0.0506313
0.0501283
0.0496909
0.0493102
0.0489782
0.0486882
0.0484338
0.0482078
0.0700307
0.0663825
0.0634203
0.0609848
0.0589608
0.0572622
0.0558246
0.0546002
0.0535529
0.0526537
0.051879
0.0512094
0.0506293
0.0501254
0.0496871
0.0493051
0.0489718
0.0486802
0.048424
0.048196
0.0700307
0.0663824
0.06342
0.0609845
0.0589604
0.0572621
0.0558249
0.0546009
0.0535536
0.0526542
0.0518791
0.0512092
0.0506285
0.050124
0.0496848
0.049302
0.0489676
0.0486748
0.0484171
0.0481875
0.0700306
0.0663822
0.0634198
0.0609841
0.0589601
0.057262
0.0558253
0.0546017
0.0535547
0.0526552
0.05188
0.0512097
0.0506287
0.0501237
0.049684
0.0493005
0.0489653
0.0486715
0.0484127
0.0481819
0.0700305
0.0663821
0.0634196
0.0609838
0.0589598
0.0572619
0.0558258
0.0546028
0.0535561
0.0526567
0.0518815
0.0512111
0.0506298
0.0501245
0.0496844
0.0493003
0.0489645
0.04867
0.0484104
0.0481787
0.0700304
0.066382
0.0634194
0.0609836
0.0589595
0.0572618
0.0558262
0.0546039
0.0535577
0.0526586
0.0518835
0.051213
0.0506316
0.0501261
0.0496857
0.0493013
0.0489651
0.0486701
0.0484098
0.0481774
0.0700302
0.0663818
0.0634192
0.0609833
0.0589592
0.0572618
0.0558267
0.054605
0.0535594
0.0526608
0.0518858
0.0512155
0.050634
0.0501284
0.0496879
0.0493033
0.0489668
0.0486714
0.0484107
0.0481778
0.0700301
0.0663817
0.063419
0.0609831
0.058959
0.0572617
0.0558271
0.0546061
0.0535612
0.0526631
0.0518885
0.0512183
0.0506369
0.0501314
0.0496908
0.0493061
0.0489694
0.0486738
0.0484128
0.0481795
0.07003
0.0663816
0.0634189
0.0609829
0.0589588
0.0572617
0.0558274
0.0546071
0.0535629
0.0526654
0.0518912
0.0512214
0.0506402
0.0501348
0.0496943
0.0493095
0.0489727
0.048677
0.0484158
0.0481823
0.0700299
0.0663815
0.0634187
0.0609827
0.0589586
0.0572616
0.0558277
0.0546079
0.0535644
0.0526676
0.051894
0.0512246
0.0506437
0.0501385
0.0496981
0.0493134
0.0489767
0.0486809
0.0484196
0.048186
0.0700298
0.0663813
0.0634186
0.0609825
0.0589584
0.0572615
0.055828
0.0546087
0.0535658
0.0526697
0.0518967
0.0512278
0.0506473
0.0501424
0.0497022
0.0493177
0.048981
0.0486852
0.0484239
0.0481903
0.0700297
0.0663812
0.0634184
0.0609823
0.0589583
0.0572615
0.0558282
0.0546093
0.0535671
0.0526716
0.0518992
0.0512309
0.0506508
0.0501463
0.0497063
0.049322
0.0489855
0.0486898
0.0484286
0.0481949
0.0700296
0.0663811
0.0634183
0.0609822
0.0589582
0.0572615
0.0558283
0.0546099
0.0535681
0.0526733
0.0519015
0.0512337
0.0506541
0.05015
0.0497104
0.0493263
0.04899
0.0486945
0.0484334
0.0481998
0.0700295
0.066381
0.0634182
0.0609821
0.0589581
0.0572615
0.0558285
0.0546104
0.0535691
0.0526747
0.0519035
0.0512362
0.0506572
0.0501534
0.0497142
0.0493305
0.0489944
0.0486991
0.0484381
0.0482046
0.0700294
0.0663809
0.0634181
0.060982
0.058958
0.0572615
0.0558287
0.0546108
0.0535699
0.052676
0.0519053
0.0512385
0.0506599
0.0501566
0.0497178
0.0493344
0.0489986
0.0487035
0.0484426
0.0482093
0.0700293
0.0663808
0.063418
0.060982
0.058958
0.0572616
0.0558289
0.0546113
0.0535707
0.0526772
0.0519069
0.0512405
0.0506624
0.0501595
0.049721
0.049338
0.0490024
0.0487076
0.0484469
0.0482137
0.0700292
0.0663807
0.063418
0.0609819
0.058958
0.0572617
0.0558291
0.0546117
0.0535714
0.0526782
0.0519083
0.0512424
0.0506646
0.0501621
0.049724
0.0493412
0.049006
0.0487114
0.0484509
0.0482178
0.0700291
0.0663806
0.0634179
0.0609819
0.0589581
0.0572618
0.0558294
0.0546122
0.0535721
0.0526792
0.0519096
0.051244
0.0506666
0.0501645
0.0497267
0.0493442
0.0490092
0.0487148
0.0484545
0.0482216
0.070029
0.0663805
0.0634178
0.0609819
0.0589581
0.0572619
0.0558297
0.0546126
0.0535728
0.0526802
0.0519109
0.0512456
0.0506685
0.0501666
0.0497291
0.0493469
0.0490122
0.048718
0.0484578
0.0482251
0.0700289
0.0663804
0.0634178
0.0609819
0.0589582
0.0572621
0.05583
0.0546131
0.0535735
0.0526811
0.0519121
0.0512471
0.0506703
0.0501687
0.0497314
0.0493495
0.0490149
0.0487209
0.0484609
0.0482283
0.0700288
0.0663804
0.0634178
0.0609819
0.0589583
0.0572623
0.0558304
0.0546136
0.0535742
0.052682
0.0519132
0.0512485
0.0506719
0.0501705
0.0497335
0.0493518
0.0490175
0.0487236
0.0484637
0.0482313
0.0700287
0.0663803
0.0634177
0.060982
0.0589584
0.0572626
0.0558307
0.0546141
0.0535749
0.0526829
0.0519143
0.0512498
0.0506735
0.0501723
0.0497355
0.0493539
0.0490198
0.0487261
0.0484664
0.048234
0.0700286
0.0663802
0.0634177
0.060982
0.0589586
0.0572628
0.0558311
0.0546147
0.0535756
0.0526838
0.0519154
0.0512511
0.0506749
0.050174
0.0497373
0.049356
0.0490219
0.0487284
0.0484687
0.0482365
0.0700285
0.0663802
0.0634177
0.0609821
0.0589587
0.0572631
0.0558315
0.0546152
0.0535762
0.0526846
0.0519164
0.0512523
0.0506763
0.0501755
0.0497391
0.0493578
0.0490239
0.0487305
0.048471
0.0482388
0.0700284
0.0663801
0.0634177
0.0609822
0.0589589
0.0572633
0.0558318
0.0546157
0.0535769
0.0526855
0.0519174
0.0512534
0.0506776
0.0501769
0.0497406
0.0493595
0.0490258
0.0487324
0.048473
0.0482409
0.0700284
0.0663801
0.0634177
0.0609822
0.058959
0.0572636
0.0558322
0.0546162
0.0535775
0.0526862
0.0519183
0.0512545
0.0506788
0.0501783
0.0497421
0.0493611
0.0490275
0.0487342
0.0484749
0.0482428
0.0700283
0.0663801
0.0634177
0.0609823
0.0589592
0.0572638
0.0558326
0.0546167
0.0535781
0.052687
0.0519192
0.0512555
0.0506799
0.0501795
0.0497435
0.0493626
0.049029
0.0487359
0.0484766
0.0482446
0.0700282
0.06638
0.0634178
0.0609824
0.0589594
0.0572641
0.0558329
0.0546172
0.0535787
0.0526877
0.05192
0.0512564
0.050681
0.0501807
0.0497447
0.0493639
0.0490305
0.0487374
0.0484781
0.0482462
0.0700282
0.06638
0.0634178
0.0609825
0.0589595
0.0572643
0.0558333
0.0546176
0.0535793
0.0526883
0.0519208
0.0512573
0.050682
0.0501818
0.0497459
0.0493652
0.0490318
0.0487387
0.0484795
0.0482477
0.0700281
0.06638
0.0634178
0.0609826
0.0589597
0.0572646
0.0558336
0.054618
0.0535798
0.052689
0.0519215
0.0512581
0.0506828
0.0501828
0.049747
0.0493663
0.049033
0.04874
0.0484808
0.048249
0.0700281
0.06638
0.0634178
0.0609827
0.0589598
0.0572648
0.0558339
0.0546184
0.0535803
0.0526895
0.0519222
0.0512588
0.0506837
0.0501837
0.0497479
0.0493673
0.049034
0.0487411
0.048482
0.0482502
0.070028
0.0663799
0.0634179
0.0609827
0.05896
0.057265
0.0558342
0.0546188
0.0535808
0.0526901
0.0519228
0.0512595
0.0506844
0.0501845
0.0497488
0.0493683
0.049035
0.0487421
0.0484831
0.0482513
0.070028
0.0663799
0.0634179
0.0609828
0.0589601
0.0572652
0.0558345
0.0546192
0.0535812
0.0526906
0.0519234
0.0512601
0.0506851
0.0501852
0.0497496
0.0493691
0.0490359
0.0487431
0.048484
0.0482523
0.0700279
0.0663799
0.0634179
0.0609829
0.0589602
0.0572654
0.0558348
0.0546195
0.0535816
0.052691
0.0519239
0.0512607
0.0506857
0.0501859
0.0497503
0.0493699
0.0490367
0.0487439
0.0484849
0.0482532
0.0700279
0.0663799
0.0634179
0.060983
0.0589604
0.0572656
0.055835
0.0546198
0.0535819
0.0526914
0.0519243
0.0512612
0.0506863
0.0501865
0.049751
0.0493706
0.0490375
0.0487446
0.0484857
0.048254
0.0700278
0.0663799
0.063418
0.060983
0.0589605
0.0572658
0.0558352
0.0546201
0.0535823
0.0526918
0.0519248
0.0512617
0.0506868
0.0501871
0.0497516
0.0493712
0.0490381
0.0487453
0.0484864
0.0482547
0.0700278
0.0663799
0.063418
0.0609831
0.0589606
0.0572659
0.0558354
0.0546203
0.0535826
0.0526922
0.0519252
0.0512621
0.0506873
0.0501876
0.0497521
0.0493718
0.0490387
0.0487459
0.048487
0.0482553
0.0700278
0.0663799
0.063418
0.0609832
0.0589607
0.0572661
0.0558356
0.0546205
0.0535828
0.0526925
0.0519255
0.0512625
0.0506877
0.050188
0.0497526
0.0493723
0.0490392
0.0487465
0.0484875
0.0482559
0.0700278
0.0663799
0.063418
0.0609832
0.0589608
0.0572662
0.0558358
0.0546207
0.0535831
0.0526928
0.0519258
0.0512629
0.0506881
0.0501884
0.049753
0.0493727
0.0490397
0.048747
0.048488
0.0482564
0.0700277
0.0663799
0.063418
0.0609833
0.0589609
0.0572663
0.0558359
0.0546209
0.0535833
0.052693
0.0519261
0.0512632
0.0506884
0.0501888
0.0497534
0.0493731
0.0490401
0.0487474
0.0484885
0.0482569
0.0700277
0.0663798
0.0634181
0.0609833
0.058961
0.0572664
0.0558361
0.0546211
0.0535835
0.0526933
0.0519264
0.0512635
0.0506887
0.0501891
0.0497537
0.0493735
0.0490405
0.0487478
0.0484889
0.0482573
0.0700277
0.0663798
0.0634181
0.0609834
0.058961
0.0572665
0.0558362
0.0546213
0.0535837
0.0526935
0.0519266
0.0512637
0.050689
0.0501894
0.0497541
0.0493738
0.0490408
0.0487481
0.0484892
0.0482576
0.0700277
0.0663798
0.0634181
0.0609834
0.0589611
0.0572666
0.0558363
0.0546214
0.0535839
0.0526936
0.0519268
0.051264
0.0506893
0.0501897
0.0497543
0.0493741
0.0490411
0.0487484
0.0484895
0.048258
0.0700277
0.0663798
0.0634181
0.0609834
0.0589612
0.0572667
0.0558364
0.0546215
0.053584
0.0526938
0.051927
0.0512642
0.0506895
0.0501899
0.0497546
0.0493743
0.0490414
0.0487487
0.0484898
0.0482582
0.0700276
0.0663798
0.0634181
0.0609835
0.0589612
0.0572668
0.0558365
0.0546217
0.0535841
0.052694
0.0519272
0.0512643
0.0506897
0.0501901
0.0497548
0.0493746
0.0490416
0.0487489
0.0484901
0.0482585
0.0700276
0.0663798
0.0634182
0.0609835
0.0589613
0.0572669
0.0558366
0.0546218
0.0535843
0.0526941
0.0519273
0.0512645
0.0506898
0.0501903
0.049755
0.0493748
0.0490418
0.0487491
0.0484903
0.0482587
0.0700276
0.0663798
0.0634182
0.0609835
0.0589613
0.0572669
0.0558367
0.0546219
0.0535844
0.0526942
0.0519274
0.0512646
0.05069
0.0501904
0.0497551
0.0493749
0.049042
0.0487493
0.0484905
0.0482589
0.0700276
0.0663798
0.0634182
0.0609836
0.0589613
0.057267
0.0558368
0.0546219
0.0535845
0.0526943
0.0519276
0.0512648
0.0506901
0.0501906
0.0497553
0.0493751
0.0490422
0.0487495
0.0484906
0.0482591
0.0700276
0.0663798
0.0634182
0.0609836
0.0589614
0.057267
0.0558368
0.054622
0.0535845
0.0526944
0.0519277
0.0512649
0.0506902
0.0501907
0.0497554
0.0493752
0.0490423
0.0487496
0.0484908
0.0482592
0.0700276
0.0663798
0.0634182
0.0609836
0.0589614
0.0572671
0.0558369
0.0546221
0.0535846
0.0526945
0.0519278
0.051265
0.0506904
0.0501908
0.0497555
0.0493754
0.0490424
0.0487498
0.0484909
0.0482594
0.0700276
0.0663798
0.0634182
0.0609836
0.0589614
0.0572671
0.0558369
0.0546221
0.0535847
0.0526946
0.0519278
0.0512651
0.0506904
0.0501909
0.0497556
0.0493755
0.0490425
0.0487499
0.048491
0.0482595
0.0700276
0.0663798
0.0634182
0.0609836
0.0589615
0.0572671
0.055837
0.0546222
0.0535847
0.0526946
0.0519279
0.0512651
0.0506905
0.050191
0.0497557
0.0493755
0.0490426
0.04875
0.0484911
0.0482596
0.0700276
0.0663798
0.0634182
0.0609837
0.0589615
0.0572672
0.055837
0.0546222
0.0535848
0.0526947
0.051928
0.0512652
0.0506906
0.0501911
0.0497558
0.0493756
0.0490427
0.0487501
0.0484912
0.0482597
0.0700275
0.0663798
0.0634182
0.0609837
0.0589615
0.0572672
0.0558371
0.0546223
0.0535848
0.0526947
0.051928
0.0512653
0.0506907
0.0501911
0.0497559
0.0493757
0.0490428
0.0487501
0.0484913
0.0482597
0.0700275
0.0663798
0.0634182
0.0609837
0.0589615
0.0572672
0.0558371
0.0546223
0.0535849
0.0526948
0.0519281
0.0512653
0.0506907
0.0501912
0.0497559
0.0493758
0.0490428
0.0487502
0.0484914
0.0482598
0.0700275
0.0663798
0.0634182
0.0609837
0.0589615
0.0572672
0.0558371
0.0546223
0.0535849
0.0526948
0.0519281
0.0512654
0.0506908
0.0501912
0.049756
0.0493758
0.0490429
0.0487503
0.0484914
0.0482599
0.0700275
0.0663798
0.0634182
0.0609837
0.0589616
0.0572673
0.0558371
0.0546224
0.0535849
0.0526949
0.0519281
0.0512654
0.0506908
0.0501913
0.049756
0.0493759
0.0490429
0.0487503
0.0484915
0.0482599
0.0700275
0.0663798
0.0634183
0.0609837
0.0589616
0.0572673
0.0558372
0.0546224
0.053585
0.0526949
0.0519282
0.0512654
0.0506908
0.0501913
0.0497561
0.0493759
0.049043
0.0487503
0.0484915
0.04826
0.0700275
0.0663798
0.0634183
0.0609837
0.0589616
0.0572673
0.0558372
0.0546224
0.053585
0.0526949
0.0519282
0.0512655
0.0506909
0.0501914
0.0497561
0.0493759
0.049043
0.0487504
0.0484915
0.04826
0.0700275
0.0663798
0.0634183
0.0609837
0.0589616
0.0572673
0.0558372
0.0546224
0.053585
0.0526949
0.0519282
0.0512655
0.0506909
0.0501914
0.0497561
0.049376
0.049043
0.0487504
0.0484916
0.04826
0.0700275
0.0663798
0.0634183
0.0609837
0.0589616
0.0572673
0.0558372
0.0546224
0.053585
0.052695
0.0519282
0.0512655
0.0506909
0.0501914
0.0497561
0.049376
0.0490431
0.0487504
0.0484916
0.0482601
0.0700275
0.0663798
0.0634183
0.0609837
0.0589616
0.0572673
0.0558372
0.0546224
0.053585
0.052695
0.0519283
0.0512655
0.0506909
0.0501914
0.0497562
0.049376
0.0490431
0.0487505
0.0484916
0.0482601
0.0700275
0.0663798
0.0634183
0.0609837
0.0589616
0.0572673
0.0558372
0.0546225
0.053585
0.052695
0.0519283
0.0512655
0.0506909
0.0501914
0.0497562
0.049376
0.0490431
0.0487505
0.0484916
0.0482601
0.0700275
0.0663798
0.0634183
0.0609837
0.0589616
0.0572673
0.0558372
0.0546225
0.0535851
0.052695
0.0519283
0.0512656
0.050691
0.0501915
0.0497562
0.049376
0.0490431
0.0487505
0.0484917
0.0482601
0.0700275
0.0663798
0.0634183
0.0609837
0.0589616
0.0572674
0.0558372
0.0546225
0.0535851
0.052695
0.0519283
0.0512656
0.050691
0.0501915
0.0497562
0.049376
0.0490431
0.0487505
0.0484917
0.0482601
0.0700275
0.0663798
0.0634183
0.0609838
0.0589616
0.0572674
0.0558372
0.0546225
0.0535851
0.052695
0.0519283
0.0512656
0.050691
0.0501915
0.0497562
0.0493761
0.0490431
0.0487505
0.0484917
0.0482601
0.0700275
0.0663798
0.0634183
0.0609838
0.0589616
0.0572674
0.0558372
0.0546225
0.0535851
0.052695
0.0519283
0.0512656
0.050691
0.0501915
0.0497562
0.0493761
0.0490432
0.0487505
0.0484917
0.0482601
0.0700275
0.0663798
0.0634183
0.0609838
0.0589616
0.0572674
0.0558373
0.0546225
0.0535851
0.052695
0.0519283
0.0512656
0.050691
0.0501915
0.0497562
0.0493761
0.0490432
0.0487505
0.0484917
0.0482602
0.0700275
0.0663798
0.0634183
0.0609838
0.0589616
0.0572674
0.0558373
0.0546225
0.0535851
0.052695
0.0519283
0.0512656
0.050691
0.0501915
0.0497563
0.0493761
0.0490432
0.0487505
0.0484917
0.0482602
0.0700275
0.0663798
0.0634183
0.0609838
0.0589617
0.0572674
0.0558373
0.0546225
0.0535851
0.052695
0.0519283
0.0512656
0.050691
0.0501915
0.0497563
0.0493761
0.0490432
0.0487505
0.0484917
0.0482602
0.0700275
0.0663798
0.0634183
0.0609838
0.0589617
0.0572674
0.0558373
0.0546225
0.0535851
0.0526951
0.0519283
0.0512656
0.050691
0.0501915
0.0497563
0.0493761
0.0490432
0.0487506
0.0484917
0.0482602
0.0700275
0.0663798
0.0634183
0.0609838
0.0589617
0.0572674
0.0558373
0.0546225
0.0535851
0.0526951
0.0519284
0.0512656
0.050691
0.0501915
0.0497563
0.0493761
0.0490432
0.0487506
0.0484917
0.0482602
0.0700275
0.0663798
0.0634183
0.0609838
0.0589617
0.0572674
0.0558373
0.0546225
0.0535851
0.0526951
0.0519284
0.0512656
0.050691
0.0501915
0.0497563
0.0493761
0.0490432
0.0487506
0.0484917
0.0482602
0.0700275
0.0663798
0.0634183
0.0609838
0.0589617
0.0572674
0.0558373
0.0546225
0.0535851
0.0526951
0.0519284
0.0512656
0.050691
0.0501916
0.0497563
0.0493761
0.0490432
0.0487506
0.0484918
0.0482602
0.0700275
0.0663798
0.0634183
0.0609838
0.0589617
0.0572674
0.0558373
0.0546225
0.0535851
0.0526951
0.0519284
0.0512657
0.0506911
0.0501916
0.0497563
0.0493761
0.0490432
0.0487506
0.0484918
0.0482602
0.0700275
0.0663798
0.0634183
0.0609838
0.0589617
0.0572674
0.0558373
0.0546226
0.0535852
0.0526951
0.0519284
0.0512657
0.0506911
0.0501916
0.0497563
0.0493762
0.0490433
0.0487506
0.0484918
0.0482602
0.0700275
0.0663798
0.0634183
0.0609838
0.0589617
0.0572674
0.0558373
0.0546226
0.0535852
0.0526951
0.0519284
0.0512657
0.0506911
0.0501916
0.0497564
0.0493762
0.0490433
0.0487507
0.0484918
0.0482603
0.0700275
0.0663798
0.0634183
0.0609838
0.0589617
0.0572674
0.0558373
0.0546226
0.0535852
0.0526951
0.0519285
0.0512657
0.0506911
0.0501916
0.0497564
0.0493762
0.0490433
0.0487507
0.0484919
0.0482603
0.0700275
0.0663798
0.0634183
0.0609838
0.0589617
0.0572675
0.0558374
0.0546226
0.0535853
0.0526952
0.0519285
0.0512658
0.0506912
0.0501917
0.0497565
0.0493763
0.0490434
0.0487508
0.0484919
0.0482604
0.0420841
0.0369305
0.0328589
0.0295862
0.0269171
0.0247124
0.0228704
0.0213151
0.0199892
0.0188489
0.0178601
0.0169959
0.0162353
0.0155613
0.0149603
0.0144211
0.0139348
0.0134939
0.0130922
0.0127246
0.0123869
0.0120753
0.011787
0.0115193
0.0112699
0.0110371
0.0108191
0.0106146
0.0104223
0.0102413
0.0100704
0.00990891
0.00975606
0.00961117
0.00947364
0.0093429
0.00921845
0.00909981
0.00898654
0.00887821
0.00877445
0.00867486
0.00857913
0.00848687
0.00839782
0.00831164
0.00822813
0.00814696
0.00806802
0.00799105
0.007916
0.00784268
0.00777117
0.0077013
0.00763332
0.0075671
0.00750302
0.007441
0.00738158
0.00732465
0.00727096
0.00722032
0.0071737
0.00713076
0.00709268
0.00705887
0.00703078
0.00700737
0.00699037
0.00697809
0.00697261
0.00697129
0.00697675
0.00698508
0.00699979
0.00701535
0.00703676
0.00705636
0.00708151
0.00710077
0.047344
0.0457745
0.0440858
0.0423772
0.0406981
0.0390751
0.0375225
0.0360469
0.0346506
0.0333329
0.0320915
0.030923
0.0298236
0.0287892
0.0278157
0.0268991
0.0260354
0.0252211
0.0244529
0.0237274
0.0230418
0.0223935
0.0217798
0.0211986
0.0206477
0.0201253
0.0196295
0.0191587
0.0187113
0.0182861
0.0178816
0.0174967
0.0171301
0.0167808
0.0164477
0.0161299
0.0158264
0.0155362
0.0152585
0.0149923
0.0147367
0.0144911
0.0142545
0.0140261
0.0138053
0.0135913
0.0133835
0.0131814
0.0129845
0.0127925
0.0126049
0.012422
0.0122434
0.0120695
0.0119003
0.0117366
0.0115786
0.0114273
0.0112831
0.0111473
0.0110205
0.0109043
0.010799
0.0107067
0.0106274
0.0105631
0.0105135
0.0104805
0.0104628
0.0104623
0.0104761
0.0105062
0.010548
0.0106037
0.0106668
0.0107406
0.0108162
0.0108997
0.0109787
0.0110602
0.048225
0.0475294
0.0467029
0.0457866
0.0448102
0.0437956
0.0427598
0.0417155
0.0406728
0.0396394
0.0386211
0.0376224
0.0366465
0.0356959
0.0347722
0.0338764
0.0330093
0.0321711
0.0313617
0.030581
0.0298285
0.0291037
0.0284061
0.0277348
0.0270893
0.0264687
0.0258722
0.025299
0.0247483
0.0242193
0.0237112
0.0232231
0.0227541
0.0223035
0.0218703
0.0214537
0.0210529
0.0206668
0.0202947
0.0199356
0.0195886
0.0192528
0.0189273
0.0186112
0.0183037
0.0180041
0.0177115
0.0174256
0.0171457
0.0168716
0.016603
0.0163399
0.0160825
0.0158312
0.0155864
0.015349
0.0151198
0.0148999
0.0146905
0.0144932
0.0143093
0.0141406
0.0139884
0.0138548
0.0137408
0.0136483
0.0135777
0.0135308
0.0135066
0.0135063
0.0135275
0.0135707
0.0136316
0.0137105
0.0138013
0.013905
0.0140136
0.0141298
0.014244
0.014357
0.0485231
0.0481094
0.0476125
0.0470448
0.0464186
0.0457449
0.0450333
0.0442923
0.0435291
0.0427501
0.0419608
0.041166
0.0403697
0.0395755
0.0387864
0.038005
0.0372334
0.0364735
0.0357268
0.0349944
0.0342775
0.0335769
0.032893
0.0322265
0.0315775
0.0309464
0.0303332
0.0297378
0.0291602
0.0286002
0.0280576
0.0275319
0.0270229
0.02653
0.0260526
0.0255903
0.0251424
0.0247082
0.0242868
0.0238777
0.0234799
0.0230925
0.0227149
0.0223462
0.0219856
0.0216325
0.0212861
0.020946
0.0206119
0.0202835
0.0199608
0.019644
0.0193335
0.0190298
0.0187337
0.0184465
0.0181691
0.0179033
0.0176504
0.0174125
0.0171912
0.0169889
0.016807
0.0166481
0.0165133
0.0164048
0.0163232
0.0162699
0.0162441
0.0162466
0.0162748
0.0163283
0.016403
0.0164979
0.0166072
0.0167301
0.0168598
0.0169968
0.0171331
0.0172653
0.0486553
0.048365
0.0480221
0.0476291
0.0471904
0.0467108
0.0461952
0.0456483
0.0450747
0.0444784
0.0438633
0.0432331
0.042591
0.0419401
0.0412831
0.0406225
0.0399607
0.0392997
0.0386415
0.0379876
0.0373395
0.0366986
0.0360661
0.0354428
0.0348298
0.0342278
0.0336373
0.0330588
0.0324928
0.0319395
0.031399
0.0308714
0.0303567
0.0298548
0.0293653
0.028888
0.0284225
0.0279682
0.0275247
0.0270913
0.0266673
0.0262521
0.025845
0.0254453
0.0250523
0.0246654
0.0242843
0.0239085
0.0235378
0.0231723
0.0228121
0.0224576
0.0221094
0.0217685
0.0214359
0.021113
0.0208014
0.0205028
0.0202192
0.0199529
0.0197058
0.0194805
0.0192789
0.0191036
0.018956
0.0188382
0.0187509
0.0186953
0.0186707
0.018677
0.018712
0.0187745
0.0188602
0.0189672
0.0190901
0.019227
0.0193717
0.0195234
0.0196751
0.0198203
0.0487076
0.0484823
0.0482231
0.0479292
0.0476011
0.0472406
0.0468499
0.0464312
0.0459872
0.0455203
0.0450331
0.044528
0.0440073
0.0434734
0.0429283
0.0423742
0.0418129
0.0412464
0.0406763
0.0401043
0.0395319
0.0389604
0.0383912
0.0378255
0.0372642
0.0367084
0.0361588
0.0356163
0.0350814
0.0345546
0.0340364
0.0335271
0.0330268
0.0325357
0.0320536
0.0315805
0.0311162
0.0306603
0.0302123
0.0297719
0.0293386
0.0289117
0.0284906
0.0280749
0.0276641
0.0272577
0.0268553
0.0264569
0.0260624
0.0256721
0.0252862
0.0249055
0.0245309
0.0241635
0.0238047
0.0234561
0.0231198
0.0227977
0.0224921
0.0222056
0.0219404
0.0216992
0.0214844
0.0212983
0.0211429
0.0210199
0.0209302
0.0208746
0.0208525
0.0208634
0.0209048
0.0209749
0.0210696
0.0211864
0.0213198
0.0214675
0.0216236
0.0217863
0.0219496
0.0221042
0.0487114
0.0485224
0.0483121
0.0480782
0.0478197
0.0475365
0.0472292
0.0468985
0.0465458
0.0461725
0.04578
0.0453698
0.0449436
0.0445029
0.0440493
0.0435843
0.0431095
0.0426263
0.0421361
0.0416404
0.0411405
0.0406377
0.0401331
0.0396278
0.039123
0.0386196
0.0381185
0.0376204
0.0371262
0.0366363
0.0361514
0.0356717
0.0351977
0.0347294
0.034267
0.0338105
0.0333597
0.0329145
0.0324744
0.0320392
0.0316084
0.0311815
0.0307581
0.0303378
0.0299202
0.0295049
0.0290919
0.0286811
0.0282727
0.0278671
0.0274649
0.0270671
0.0266747
0.0262892
0.0259123
0.0255459
0.0251922
0.0248536
0.0245326
0.0242319
0.0239543
0.0237024
0.0234789
0.0232862
0.0231262
0.0230008
0.0229107
0.0228566
0.0228377
0.0228532
0.0229005
0.0229774
0.0230798
0.0232045
0.0233465
0.0235028
0.0236678
0.0238394
0.0240118
0.0241734
0.0486831
0.0485138
0.0483318
0.0481346
0.0479205
0.0476885
0.047438
0.0471692
0.0468821
0.0465775
0.046256
0.0459185
0.0455659
0.0451994
0.0448198
0.0444284
0.0440263
0.0436146
0.0431943
0.0427667
0.0423328
0.0418936
0.0414503
0.0410037
0.0405549
0.0401047
0.039654
0.0392034
0.0387538
0.0383056
0.0378594
0.0374157
0.0369747
0.0365366
0.0361016
0.0356697
0.0352408
0.0348147
0.0343912
0.0339699
0.0335504
0.0331325
0.0327156
0.0322994
0.0318837
0.0314682
0.031053
0.0306381
0.0302239
0.029811
0.0294002
0.0289927
0.0285898
0.0281932
0.0278048
0.0274269
0.0270619
0.0267124
0.0263812
0.0260713
0.0257856
0.025527
0.0252982
0.0251018
0.0249397
0.0248138
0.0247247
0.0246729
0.0246576
0.0246776
0.0247303
0.0248132
0.024922
0.0250535
0.0252026
0.0253659
0.0255384
0.0257173
0.0258973
0.0260645
0.0486341
0.0484738
0.0483066
0.0481305
0.0479437
0.0477447
0.0475326
0.0473067
0.0470667
0.0468125
0.0465443
0.0462624
0.0459673
0.0456595
0.0453397
0.0450087
0.0446671
0.0443158
0.0439557
0.0435875
0.0432121
0.0428304
0.0424432
0.0420513
0.0416555
0.0412566
0.0408553
0.0404522
0.040048
0.0396431
0.0392381
0.0388333
0.038429
0.0380254
0.0376225
0.0372204
0.0368189
0.0364179
0.0360171
0.0356162
0.0352148
0.0348125
0.034409
0.034004
0.0335972
0.0331885
0.0327781
0.0323661
0.031953
0.0315395
0.0311267
0.0307159
0.0303087
0.0299069
0.0295127
0.0291287
0.0287573
0.0284017
0.0280647
0.0277495
0.0274593
0.0271971
0.0269657
0.0267678
0.0266054
0.0264802
0.026393
0.026344
0.0263324
0.0263568
0.0264144
0.0265025
0.026617
0.0267543
0.0269094
0.0270788
0.0272577
0.027443
0.0276295
0.0278013
0.0485722
0.048414
0.0482527
0.0480869
0.0479151
0.0477358
0.047548
0.0473507
0.0471432
0.0469251
0.046696
0.046456
0.046205
0.0459433
0.0456712
0.045389
0.0450973
0.0447966
0.0444874
0.0441703
0.043846
0.0435151
0.0431782
0.0428361
0.0424892
0.0421383
0.0417839
0.0414266
0.0410668
0.040705
0.0403416
0.0399768
0.0396108
0.0392438
0.0388758
0.0385067
0.0381363
0.0377645
0.0373908
0.037015
0.0366367
0.0362554
0.0358708
0.0354826
0.0350905
0.0346946
0.0342948
0.0338916
0.0334855
0.0330773
0.0326683
0.0322597
0.0318535
0.0314517
0.0310567
0.0306712
0.0302979
0.0299401
0.029601
0.0292839
0.0289921
0.0287288
0.0284969
0.0282992
0.0281378
0.0280143
0.0279296
0.0278836
0.0278757
0.0279041
0.0279662
0.028059
0.0281785
0.0283208
0.0284813
0.0286561
0.0288406
0.0290317
0.0292242
0.0294001
0.0485038
0.0483431
0.0481817
0.0480186
0.0478529
0.0476834
0.0475091
0.047329
0.0471423
0.0469483
0.0467466
0.0465367
0.0463185
0.0460919
0.0458568
0.0456135
0.045362
0.0451027
0.0448359
0.044562
0.0442815
0.0439947
0.0437021
0.0434043
0.0431017
0.0427947
0.0424838
0.0421695
0.0418521
0.0415318
0.041209
0.0408839
0.0405565
0.040227
0.0398951
0.0395608
0.0392239
0.0388839
0.0385406
0.0381934
0.037842
0.0374859
0.0371246
0.0367578
0.0363853
0.036007
0.0356231
0.0352338
0.0348398
0.034442
0.0340417
0.0336404
0.0332401
0.0328429
0.0324514
0.0320684
0.0316971
0.0313407
0.0310026
0.0306864
0.0303954
0.0301331
0.0299025
0.0297064
0.0295469
0.0294258
0.0293438
0.0293011
0.0292966
0.0293287
0.0293949
0.0294919
0.0296158
0.0297627
0.029928
0.0301079
0.0302977
0.0304943
0.0306924
0.0308721
0.0484332
0.0482673
0.048102
0.0479367
0.0477709
0.0476038
0.0474347
0.0472627
0.0470873
0.0469076
0.0467232
0.0465334
0.0463379
0.0461364
0.0459288
0.0457148
0.0454946
0.0452682
0.0450357
0.0447974
0.0445534
0.0443041
0.0440497
0.0437905
0.043527
0.0432594
0.042988
0.0427132
0.0424352
0.0421541
0.0418702
0.0415834
0.0412939
0.0410015
0.0407061
0.0404074
0.040105
0.0397986
0.0394877
0.0391717
0.0388501
0.0385223
0.0381879
0.0378464
0.0374975
0.0371412
0.0367774
0.0364065
0.0360292
0.0356464
0.0352593
0.0348697
0.0344795
0.034091
0.033707
0.0333304
0.0329644
0.0326125
0.0322783
0.0319654