/*--------------------------------*- C++ -*----------------------------------*\
| =========                 |                                                 |
| \\      /  F ield         | OpenFOAM: The Open Source CFD Toolbox           |
|  \\    /   O peration     | Version:  2.4.0                                 |
|   \\  /    A nd           | Web:      www.OpenFOAM.org                      |
|    \\/     M anipulation  |                                                 |
\*---------------------------------------------------------------------------*/
FoamFile
{
    version     2.0;
    format      ascii;
    class       volScalarField;
    location    "7.16";
    object      nut;
}
// * * * * * * * * * * * * * * * * * * * * * * * * * * * * * * * * * * * * * //

dimensions      [0 2 -1 0 0 0 0];

internalField   nonuniform List<scalar> 
6000
(
1.24054e-05
1.01564e-05
5.68961e-06
3.08078e-06
1.7182e-06
2.89462e-06
2.65076e-06
3.50163e-06
3.81182e-06
4.47334e-06
4.97172e-06
5.60939e-06
6.20669e-06
6.8676e-06
7.52047e-06
8.19462e-06
8.86202e-06
9.52963e-06
1.01867e-05
1.0834e-05
1.14697e-05
1.21139e-05
1.27631e-05
1.33899e-05
1.3992e-05
1.45673e-05
1.51134e-05
1.56282e-05
1.61096e-05
1.65557e-05
1.6966e-05
1.73375e-05
1.76669e-05
1.79528e-05
1.81931e-05
1.83863e-05
1.85306e-05
1.86247e-05
1.8667e-05
1.86572e-05
1.85931e-05
1.84766e-05
1.83036e-05
1.80796e-05
1.77989e-05
1.74642e-05
1.73015e-05
1.71884e-05
1.6996e-05
1.68255e-05
1.65341e-05
1.63295e-05
1.59229e-05
1.5729e-05
1.51764e-05
1.50714e-05
1.43182e-05
1.44443e-05
1.34303e-05
1.42755e-05
2.33582e-05
3.47759e-05
1.72153e-05
7.91067e-06
4.09267e-06
6.59915e-06
1.20493e-05
1.42534e-05
1.85387e-05
2.26496e-05
2.6906e-05
3.18873e-05
3.67528e-05
4.24008e-05
4.81085e-05
5.43193e-05
6.06184e-05
6.71543e-05
7.37382e-05
8.03926e-05
8.69678e-05
9.32713e-05
9.92863e-05
0.000105216
0.000111069
0.000116836
0.000122503
0.00012806
0.000133497
0.000138801
0.000143923
0.000148639
0.000153154
0.00015746
0.000161539
0.000165374
0.000168947
0.000172243
0.000175237
0.000177919
0.000180256
0.00018225
0.000183851
0.000185072
0.000185839
0.000186035
0.000182412
0.000177191
0.000171453
0.000164949
0.000157999
0.000150375
0.000142294
0.000133788
0.000124656
0.000115627
0.000104961
9.6306e-05
8.43196e-05
7.92022e-05
2.89001e-05
5.03117e-05
2.44382e-05
9.90573e-06
9.42492e-06
1.5547e-05
2.6211e-05
3.25493e-05
4.1295e-05
5.08158e-05
6.00333e-05
7.10268e-05
8.17385e-05
9.40623e-05
0.000106581
0.000120087
0.000133815
0.00014799
0.000162262
0.000176632
0.000190825
0.000204606
0.000217966
0.000231138
0.000244118
0.000256876
0.000269373
0.000281579
0.000293459
0.000304964
0.000315977
0.00032623
0.000335996
0.000345252
0.000353958
0.000362075
0.00036956
0.000376376
0.000382472
0.000387821
0.000392355
0.00039607
0.000398868
0.000400751
0.000401531
0.000400807
0.000394436
0.000385496
0.000375198
0.000363577
0.00035056
0.000336603
0.000320886
0.000305121
0.000286649
0.000269968
0.00024809
0.000232154
0.000206226
0.000201196
3.21952e-05
5.72159e-05
2.78234e-05
1.06957e-05
1.55728e-05
2.5884e-05
4.04226e-05
5.15658e-05
6.46545e-05
7.9518e-05
9.3822e-05
0.000110592
0.000127171
0.000145889
0.000165055
0.000185536
0.00020641
0.000227879
0.000249501
0.000271227
0.000292723
0.000313758
0.000334315
0.000354571
0.000374502
0.000394052
0.000413158
0.000431763
0.000449812
0.000467222
0.000483832
0.000499399
0.000514184
0.000528145
0.000541224
0.00055336
0.000564488
0.000574551
0.000583474
0.000591213
0.000597675
0.00060284
0.000606576
0.000608847
0.000609321
0.000607496
0.000599481
0.000588328
0.000575032
0.000559991
0.000542662
0.000524211
0.000502817
0.000481698
0.000456081
0.000433612
0.000403131
0.000381589
0.000346749
0.000342168
3.39567e-05
5.94464e-05
3.42329e-05
1.13762e-05
2.08411e-05
3.52644e-05
5.31016e-05
6.89152e-05
8.62714e-05
0.000106065
0.000125322
0.00014743
0.000169589
0.000194223
0.000219597
0.000246526
0.000274027
0.000302233
0.00033065
0.000359172
0.000387438
0.000415223
0.000442483
0.00046933
0.000495713
0.00052155
0.000546754
0.000571247
0.000594953
0.000617767
0.000639491
0.000659932
0.000679308
0.000697567
0.00071463
0.000730421
0.000744856
0.000757861
0.000769344
0.000779244
0.000787448
0.00079392
0.000798499
0.000801099
0.000801246
0.000798552
0.0007896
0.00077712
0.000761863
0.00074447
0.000724109
0.000702362
0.000676852
0.000651608
0.000620783
0.000593609
0.000556996
0.000530556
0.000490069
0.000485144
3.49043e-05
5.90455e-05
4.15975e-05
1.17715e-05
2.38055e-05
4.2864e-05
6.37424e-05
8.40139e-05
0.000105534
0.000129876
0.000153869
0.000180914
0.000208314
0.000238409
0.000269535
0.000302395
0.000335998
0.000370391
0.000405046
0.000439807
0.000474294
0.000508285
0.0005417
0.000574589
0.000606873
0.000638446
0.000669197
0.00069903
0.000727851
0.000755546
0.000781874
0.000806707
0.000830213
0.000852329
0.000872963
0.000892025
0.000909418
0.000925053
0.000938826
0.000950663
0.000960436
0.000968091
0.000973446
0.000976354
0.000976254
0.000972974
0.000963548
0.000950304
0.000933801
0.000914793
0.000892333
0.000868147
0.000839708
0.000811238
0.000776715
0.000745634
0.00070482
0.000673967
0.000630048
0.00062376
3.5415e-05
5.72037e-05
4.71221e-05
1.43837e-05
2.32258e-05
4.83397e-05
7.21579e-05
9.67478e-05
0.000122305
0.000150885
0.000179379
0.000211016
0.000243325
0.000278476
0.000314923
0.000353242
0.000392456
0.000432525
0.0004729
0.000513376
0.000553565
0.000593235
0.000632273
0.000670672
0.000708323
0.000745098
0.000780866
0.000815511
0.000848928
0.000881006
0.000911445
0.0009402
0.000967387
0.000992932
0.00101673
0.00103869
0.0010587
0.00107666
0.00109246
0.00110602
0.00111719
0.00112591
0.00113197
0.00113516
0.00113494
0.00113131
0.00112172
0.00110809
0.00109085
0.00107076
0.00104689
0.00102092
0.000990455
0.000959477
0.000922415
0.000888102
0.000844556
0.000809757
0.000764007
0.000755446
3.56743e-05
5.46515e-05
5.0809e-05
2.14538e-05
2.03672e-05
5.142e-05
7.82573e-05
0.000107116
0.000136586
0.00016916
0.000201923
0.000237859
0.000274768
0.000314614
0.000355991
0.000399343
0.000443721
0.000489002
0.000534623
0.000580336
0.000625745
0.000670608
0.000714774
0.000758186
0.000800709
0.000842192
0.000882484
0.000921456
0.000958992
0.000994988
0.00102909
0.00106133
0.00109178
0.00112035
0.00114695
0.00117146
0.00119376
0.00121376
0.00123134
0.0012464
0.0012588
0.00126846
0.00127515
0.00127861
0.0012784
0.0012746
0.00126504
0.00125128
0.00123367
0.00121288
0.00118814
0.00116089
0.00112909
0.0010962
0.00105749
0.00102055
0.000975378
0.000937117
0.00089069
0.000879189
3.57842e-05
5.18378e-05
5.29258e-05
2.99123e-05
1.84628e-05
5.18015e-05
8.19816e-05
0.000115135
0.000148406
0.000184787
0.000221606
0.000261588
0.000302816
0.000347039
0.000392992
0.000440997
0.000490136
0.00054021
0.00059065
0.000641166
0.000691358
0.000740967
0.000789809
0.000837783
0.000884728
0.00093047
0.000974843
0.0010177
0.00105893
0.00109841
0.00113577
0.0011711
0.00120443
0.00123568
0.00126472
0.00129146
0.00131577
0.00133755
0.00135667
0.00137304
0.00138651
0.00139698
0.00140423
0.00140793
0.00140785
0.00140399
0.00139461
0.00138089
0.00136315
0.00134197
0.00131674
0.00128862
0.00125602
0.00122171
0.00118204
0.00114301
0.00109707
0.00105584
0.00100956
0.000994692
3.58064e-05
4.90332e-05
5.37464e-05
3.79937e-05
1.91945e-05
4.91944e-05
8.3294e-05
0.000120809
0.000157796
0.000197843
0.000238526
0.000282337
0.000327631
0.000375949
0.000426163
0.00047848
0.000532016
0.000586509
0.000641381
0.000696311
0.00075089
0.000804843
0.000857956
0.000910086
0.000961047
0.00101065
0.0010587
0.00110506
0.00114958
0.00119217
0.00123244
0.00127051
0.00130638
0.00133997
0.00137116
0.00139984
0.00142589
0.0014492
0.00146966
0.00148715
0.00150154
0.00151271
0.00152043
0.00152437
0.00152448
0.00152066
0.00151151
0.00149795
0.00148027
0.00145892
0.00143349
0.00140482
0.00137184
0.00133653
0.00129643
0.00125581
0.00120972
0.00116602
0.00112047
0.00110201
3.57786e-05
4.63919e-05
5.35442e-05
4.46945e-05
2.31505e-05
4.38089e-05
8.22021e-05
0.000124136
0.000164774
0.000208386
0.000252767
0.000300218
0.000349353
0.000401516
0.000455707
0.000512031
0.000569641
0.000628216
0.000687175
0.000746168
0.00080478
0.000862716
0.000919735
0.000975658
0.00103028
0.00108338
0.00113476
0.00118427
0.00123175
0.00127711
0.00131997
0.00136046
0.00139857
0.00143422
0.00146728
0.00149765
0.0015252
0.00154983
0.00157143
0.00158988
0.00160505
0.00161681
0.00162491
0.00162911
0.00162942
0.00162569
0.00161682
0.00160348
0.00158598
0.00156463
0.00153921
0.00151026
0.00147719
0.00144125
0.00140112
0.00135934
0.0013136
0.0012679
0.00122351
0.00120139
3.57236e-05
4.39936e-05
5.25783e-05
4.98126e-05
2.97797e-05
3.74274e-05
7.88144e-05
0.000125115
0.000169354
0.000216459
0.000264391
0.00031532
0.000368093
0.00042388
0.000481796
0.000541856
0.000603251
0.000665607
0.000728345
0.000791088
0.000853414
0.000915011
0.000975612
0.00103501
0.00109296
0.00114925
0.00120366
0.001256
0.00130614
0.00135397
0.00139914
0.00144178
0.00148187
0.00151932
0.00155402
0.00158585
0.00161469
0.00164046
0.00166301
0.00168227
0.00169808
0.00171032
0.00171874
0.0017232
0.00172371
0.00172008
0.0017115
0.00169843
0.00168119
0.00165994
0.00163469
0.00160567
0.00157276
0.00153648
0.00149664
0.0014541
0.00140906
0.00136183
0.00131887
0.00129315
3.5655e-05
4.18697e-05
5.10795e-05
5.33663e-05
3.69599e-05
3.23961e-05
7.34256e-05
0.000123773
0.000171551
0.000222092
0.000273447
0.000327713
0.000383944
0.000443157
0.000504574
0.000568129
0.00063305
0.00069892
0.000765161
0.000831373
0.00089713
0.000962101
0.001026
0.00108857
0.00114959
0.00120878
0.00126593
0.00132085
0.00137339
0.00142344
0.00147067
0.00151522
0.00155706
0.00159609
0.00163221
0.0016653
0.00169526
0.00172197
0.00174534
0.00176526
0.0017816
0.00179422
0.0018029
0.00180759
0.00180828
0.00180477
0.00179647
0.00178368
0.00176673
0.00174568
0.00172071
0.00169177
0.0016592
0.00162283
0.00158352
0.00154056
0.00149651
0.00144816
0.00140683
0.00137765
3.55811e-05
4.00229e-05
4.92428e-05
5.5494e-05
4.3581e-05
3.0405e-05
6.66086e-05
0.000120198
0.000171396
0.000225314
0.000279977
0.000337454
0.00039698
0.000459444
0.00052416
0.000590996
0.000659213
0.000728358
0.000797856
0.000867288
0.000936224
0.00100431
0.00107125
0.00113676
0.00120058
0.00126244
0.00132209
0.00137935
0.00143406
0.00148609
0.00153518
0.00158143
0.00162481
0.00166523
0.00170259
0.00173677
0.00176768
0.0017952
0.00181924
0.0018397
0.00185645
0.00186935
0.00187826
0.00188313
0.00188397
0.00188058
0.00187253
0.00186
0.00184337
0.00182257
0.00179795
0.00176922
0.00173712
0.00170087
0.00166228
0.00161919
0.00157635
0.00152727
0.00148769
0.00145525
3.55071e-05
3.84386e-05
4.7226e-05
5.63909e-05
4.92767e-05
3.35509e-05
5.9469e-05
0.000114594
0.000168957
0.000226165
0.00028402
0.000344594
0.000407265
0.000472822
0.000540657
0.000610582
0.00068189
0.000754097
0.000826634
0.000899065
0.000970954
0.00104194
0.00111168
0.0011799
0.00124631
0.00131062
0.00137258
0.00143197
0.00148864
0.00154247
0.00159322
0.00164098
0.00168574
0.00172739
0.00176582
0.00180095
0.00183266
0.00186085
0.00188544
0.00190633
0.00192339
0.0019365
0.00194559
0.00195059
0.00195154
0.00194824
0.0019404
0.00192813
0.00191181
0.00189129
0.00186707
0.00183865
0.00180711
0.00177114
0.00173341
0.00169046
0.00164898
0.00159953
0.00156177
0.00152633
3.54358e-05
3.70935e-05
4.5151e-05
5.62718e-05
5.38764e-05
3.95426e-05
5.34097e-05
0.000107343
0.000164368
0.000224705
0.000285624
0.000349182
0.000414858
0.000483361
0.000554153
0.000626994
0.000701211
0.000776292
0.000851672
0.000926905
0.00100155
0.00107522
0.00114758
0.00121832
0.00128712
0.0013537
0.00141777
0.00147911
0.00153758
0.00159303
0.00164528
0.00169441
0.00174038
0.00178311
0.00182249
0.00185842
0.00189081
0.00191956
0.00194459
0.0019658
0.00198309
0.00199635
0.00200555
0.00201064
0.00201165
0.00200841
0.00200075
0.0019887
0.00197267
0.00195245
0.00192866
0.0019006
0.00186969
0.00183416
0.00179737
0.0017548
0.00171478
0.00166528
0.00162939
0.00159124
3.53691e-05
3.59605e-05
4.31081e-05
5.53512e-05
5.73061e-05
4.64476e-05
4.9606e-05
9.90632e-05
0.000157856
0.000221038
0.000284856
0.000351277
0.000419817
0.000491128
0.000564727
0.00064033
0.000717291
0.000795076
0.000873128
0.000950986
0.00102821
0.0011044
0.00117919
0.00125227
0.0013233
0.00139198
0.001458
0.00152115
0.00158126
0.00163818
0.00169179
0.00174215
0.00178921
0.0018329
0.0018731
0.00190972
0.00194268
0.00197189
0.00199726
0.00201871
0.00203614
0.00204949
0.00205876
0.00206387
0.0020649
0.00206168
0.00205416
0.0020423
0.00202653
0.00200661
0.00198324
0.00195561
0.00192536
0.00189037
0.00185462
0.00181259
0.00177413
0.00172487
0.00169086
0.00165031
3.53077e-05
3.50122e-05
4.11603e-05
5.38305e-05
5.95678e-05
5.31272e-05
5.01228e-05
9.06811e-05
0.000149779
0.00021533
0.000281816
0.000350953
0.000422211
0.000496194
0.000572456
0.000650677
0.000730234
0.000810572
0.000891139
0.000971468
0.00105111
0.00112965
0.00120673
0.001282
0.00135511
0.00142575
0.00149359
0.00155839
0.00162001
0.00167829
0.00173314
0.00178461
0.00183265
0.00187718
0.0019181
0.00195532
0.00198876
0.00201833
0.00204395
0.00206556
0.00208307
0.00209646
0.00210573
0.00211082
0.00211181
0.00210858
0.00210114
0.00208943
0.0020739
0.00205425
0.00203131
0.00200413
0.00197458
0.00194021
0.00190553
0.00186423
0.00182738
0.00177861
0.00174648
0.00170384
3.5252e-05
3.42226e-05
3.93488e-05
5.18914e-05
6.07238e-05
5.89958e-05
5.40557e-05
8.32857e-05
0.000140649
0.000207829
0.000276651
0.000348314
0.000422123
0.000498637
0.000577422
0.000658125
0.000740141
0.000822893
0.000905836
0.000988494
0.00107041
0.00115118
0.0012304
0.00130772
0.00138279
0.00145525
0.00152478
0.00159114
0.00165415
0.00171367
0.00176965
0.00182213
0.00187105
0.00191634
0.00195789
0.00199562
0.00202945
0.0020593
0.00208511
0.0021068
0.00212435
0.00213772
0.00214692
0.00215194
0.00215285
0.00214958
0.00214216
0.00213055
0.00211522
0.00209584
0.0020733
0.00204659
0.00201774
0.00198406
0.00195049
0.00191005
0.00187485
0.00182679
0.00179653
0.00175214
3.52019e-05
3.35678e-05
3.76969e-05
4.96911e-05
6.08808e-05
6.37551e-05
5.97125e-05
7.82155e-05
0.000131143
0.000198893
0.000269569
0.000343502
0.000419665
0.00049855
0.000579714
0.000662764
0.000747109
0.000832148
0.000917338
0.0010022
0.00108627
0.00116913
0.00125037
0.00132963
0.00140653
0.00148072
0.00155184
0.00161963
0.00168393
0.0017446
0.00180163
0.00185503
0.00190475
0.00195071
0.00199281
0.00203097
0.00206512
0.00209519
0.00212112
0.00214285
0.00216037
0.00217366
0.00218276
0.00218765
0.00218844
0.00218507
0.00217764
0.00216609
0.00215092
0.00213177
0.00210961
0.00208337
0.00205522
0.00202228
0.00198984
0.00195037
0.00191683
0.0018697
0.00184129
0.00179547
3.51572e-05
3.3027e-05
3.6215e-05
4.73608e-05
6.01757e-05
6.72715e-05
6.57803e-05
7.70113e-05
0.000122071
0.000188992
0.000260854
0.000336708
0.000414978
0.000496051
0.000579436
0.000664696
0.00075124
0.000838443
0.000925761
0.00101271
0.00109881
0.00118365
0.0012668
0.00134789
0.00142653
0.00150234
0.00157495
0.0016441
0.00170959
0.00177133
0.00182933
0.00188358
0.00193403
0.00198059
0.00202317
0.0020617
0.00209612
0.00212634
0.00215233
0.00217404
0.00219149
0.00220465
0.0022136
0.00221832
0.00221895
0.00221544
0.00220794
0.00219641
0.00218135
0.00216241
0.00214061
0.00211483
0.00208737
0.0020552
0.0020239
0.00198548
0.00195362
0.00190758
0.00188101
0.00183409
3.51175e-05
3.25816e-05
3.49037e-05
4.50059e-05
5.87621e-05
6.95164e-05
7.14959e-05
7.92881e-05
0.000114272
0.0001787
0.000250874
0.000328185
0.000408249
0.000491287
0.000576714
0.000664033
0.000752646
0.000841891
0.000931222
0.00102014
0.00110818
0.00119489
0.00127985
0.00136268
0.00144296
0.0015203
0.00159433
0.00166474
0.00173135
0.00179409
0.00185299
0.00190802
0.00195913
0.00200623
0.00204924
0.00208809
0.00212271
0.00215303
0.00217903
0.00220069
0.00221801
0.00223101
0.00223976
0.00224426
0.00224469
0.002241
0.0022334
0.00222184
0.00220685
0.00218809
0.00216661
0.00214128
0.00211449
0.00208312
0.00205294
0.00201567
0.00198548
0.00194069
0.00191592
0.00186824
3.50825e-05
3.22161e-05
3.37567e-05
4.27074e-05
5.67995e-05
7.05351e-05
7.63991e-05
8.35849e-05
0.000109583
0.000168667
0.000240079
0.000318247
0.00039971
0.000484442
0.000571699
0.000660909
0.000751449
0.000842611
0.000933839
0.00102463
0.00111449
0.00120298
0.00128966
0.00137413
0.00145597
0.00153477
0.00161013
0.00168173
0.00174939
0.00181308
0.00187282
0.00192857
0.00198029
0.00202788
0.00207127
0.00211038
0.00214515
0.00217553
0.0022015
0.00222306
0.00224022
0.00225301
0.00226152
0.00226578
0.00226596
0.00226206
0.00225431
0.00224268
0.00222772
0.0022091
0.00218791
0.00216302
0.00213687
0.00210631
0.00207725
0.00204117
0.00201264
0.00196924
0.00194625
0.00189812
3.50517e-05
3.19169e-05
3.27637e-05
4.05243e-05
5.44427e-05
7.04257e-05
8.02142e-05
8.86909e-05
0.000108453
0.000159838
0.000228988
0.000307275
0.000389649
0.00047574
0.000564576
0.000655481
0.00074779
0.000840734
0.00093374
0.00102629
0.00111787
0.00120805
0.00129636
0.00138238
0.00146571
0.00154589
0.00162251
0.00169524
0.00176389
0.00182847
0.001889
0.00194542
0.0019977
0.00204573
0.00208945
0.00212878
0.00216366
0.00219406
0.00221997
0.00224139
0.00225836
0.00227091
0.00227914
0.00228311
0.00228301
0.00227886
0.00227092
0.00225919
0.00224422
0.00222571
0.00220477
0.0021803
0.00215478
0.00212502
0.00209705
0.00206222
0.00203533
0.00199344
0.00197221
0.00192395
3.50247e-05
3.16728e-05
3.19117e-05
3.84965e-05
5.18356e-05
6.93244e-05
8.27921e-05
9.37418e-05
0.00011012
0.000153519
0.000218159
0.000295701
0.000378405
0.000465449
0.000555563
0.000647932
0.000741829
0.000836404
0.000931059
0.00102525
0.00111846
0.00121022
0.00130007
0.00138758
0.00147231
0.00155381
0.00163163
0.00170542
0.001775
0.00184042
0.0019017
0.00195874
0.00201153
0.00205997
0.00210397
0.00214347
0.00217843
0.00220882
0.00223464
0.00225589
0.00227263
0.00228491
0.00229284
0.0022965
0.00229608
0.00229165
0.00228349
0.00227161
0.00225659
0.00223816
0.00221744
0.00219336
0.00216843
0.00213949
0.00211259
0.00207903
0.00205377
0.00201348
0.001994
0.00194592
3.5001e-05
3.14743e-05
3.11865e-05
3.66478e-05
4.91049e-05
6.73923e-05
8.40795e-05
9.81533e-05
0.000113535
0.000150029
0.000208776
0.00028399
0.00036636
0.00045388
0.000544915
0.000638475
0.00073375
0.000829785
0.000925947
0.00102166
0.00111639
0.00120964
0.00130094
0.00138985
0.00147591
0.00155866
0.00163761
0.00171241
0.00178287
0.00184909
0.00191106
0.00196869
0.00202196
0.00207075
0.00211499
0.00215464
0.00218965
0.00222
0.00224569
0.00226675
0.00228323
0.00229521
0.00230281
0.00230613
0.00230537
0.00230063
0.00229221
0.00228016
0.00226506
0.00224667
0.00222614
0.00220243
0.00217807
0.00214992
0.00212407
0.00209181
0.00206815
0.00202956
0.0020118
0.00196419
3.49803e-05
3.13135e-05
3.05738e-05
3.49891e-05
4.63581e-05
6.48035e-05
8.40999e-05
0.000101544
0.000117716
0.000149137
0.000201462
0.000273045
0.000353956
0.000441378
0.000532922
0.000627354
0.000723762
0.00082106
0.000918566
0.00101567
0.0011118
0.00120643
0.00129909
0.00138932
0.00147664
0.00156057
0.00164059
0.00171632
0.00178762
0.00185459
0.00191722
0.0019754
0.00202909
0.0020782
0.00212267
0.00216243
0.00219747
0.00222775
0.00225329
0.00227413
0.00229034
0.00230199
0.00230924
0.00231218
0.00231106
0.00230599
0.00229729
0.00228503
0.00226981
0.00225144
0.00223106
0.0022077
0.00218387
0.00215651
0.00213168
0.00210074
0.00207865
0.00204183
0.00202578
0.00197893
3.49623e-05
3.11836e-05
3.00597e-05
3.35216e-05
4.3681e-05
6.17339e-05
8.29388e-05
0.000103682
0.000121872
0.000150232
0.00019651
0.00026341
0.000341892
0.00042844
0.000519905
0.000614841
0.000712098
0.000810431
0.000909096
0.00100743
0.00110483
0.00120074
0.00129466
0.00138611
0.00147461
0.00155965
0.00164068
0.00171729
0.00178939
0.00185707
0.0019203
0.00197898
0.00203307
0.00208247
0.00212713
0.00216698
0.00220201
0.00223221
0.00225758
0.00227818
0.00229409
0.0023054
0.00231227
0.00231483
0.00231333
0.00230789
0.00229888
0.00228639
0.00227103
0.00225265
0.0022324
0.00220936
0.00218603
0.00215944
0.00213561
0.00210599
0.00208543
0.00205045
0.00203611
0.00199029
3.49465e-05
3.10792e-05
2.96312e-05
3.2239e-05
4.11391e-05
5.83528e-05
8.07304e-05
0.000104447
0.00012541
0.000152541
0.000193845
0.000255498
0.00033065
0.000415546
0.00050634
0.000601322
0.00069902
0.000798121
0.000897732
0.000997131
0.00109565
0.00119271
0.00128778
0.00138036
0.00146996
0.00155603
0.001638
0.00171541
0.00178826
0.00185661
0.00192041
0.00197955
0.00203401
0.00208367
0.00212849
0.00216842
0.00220342
0.0022335
0.00225869
0.00227903
0.00229463
0.00230558
0.00231206
0.00231421
0.0023123
0.00230649
0.00229715
0.0022844
0.00226888
0.00225046
0.00223031
0.00220757
0.00218471
0.00215888
0.00213601
0.00210772
0.00208867
0.00205559
0.00204294
0.00199843
3.49327e-05
3.09957e-05
2.92764e-05
3.11303e-05
3.8778e-05
5.48144e-05
7.7644e-05
0.000103815
0.000127907
0.000155306
0.000193075
0.000249508
0.000320639
0.000403112
0.000492607
0.000587127
0.000684867
0.000784416
0.000884717
0.000984967
0.00108443
0.0011825
0.00127859
0.0013722
0.00146279
0.00154981
0.00163264
0.0017108
0.00178436
0.00185332
0.00191765
0.00197723
0.00203202
0.00208192
0.00212688
0.00216684
0.0022018
0.00223176
0.00225674
0.0022768
0.00229207
0.00230264
0.00230871
0.00231045
0.00230812
0.00230192
0.00229223
0.00227921
0.0022635
0.00224503
0.00222496
0.00220248
0.00218008
0.00215498
0.00213304
0.00210608
0.00208851
0.00205737
0.00204641
0.00200345
3.49206e-05
3.09292e-05
2.89845e-05
3.01814e-05
3.66264e-05
5.12531e-05
7.38706e-05
0.000101838
0.000129085
0.000157867
0.000193612
0.000245397
0.000312138
0.000391507
0.000479076
0.000572593
0.00066994
0.000769579
0.000870281
0.000971145
0.00107136
0.00117026
0.00126724
0.00136175
0.00145324
0.00154112
0.00162473
0.00170358
0.00177779
0.00184732
0.00191213
0.00197211
0.0020272
0.00207731
0.00212238
0.00216236
0.00219726
0.00222706
0.00225182
0.0022716
0.00228652
0.00229671
0.00230236
0.00230366
0.0023009
0.0022943
0.00228425
0.00227094
0.00225503
0.00223648
0.00221647
0.00219425
0.00217227
0.00214789
0.00212685
0.00210122
0.00208508
0.00205593
0.00204666
0.00200551
3.49101e-05
3.08767e-05
2.8746e-05
2.93766e-05
3.4698e-05
4.77798e-05
6.96097e-05
9.86361e-05
0.000128779
0.000159692
0.000194802
0.000242887
0.000305257
0.000381018
0.000466079
0.000558047
0.000654538
0.000753879
0.000854661
0.000955876
0.00105662
0.00115618
0.00125389
0.00134916
0.00144143
0.00153007
0.00161437
0.00169385
0.00176865
0.00183871
0.00190396
0.00196429
0.00201965
0.00206993
0.00211508
0.00215507
0.00218988
0.00221952
0.00224404
0.00226352
0.00227808
0.00228787
0.00229309
0.00229396
0.00229076
0.00228374
0.00227332
0.00225971
0.00224359
0.00222495
0.00220497
0.00218299
0.00216142
0.00213774
0.00211757
0.00209325
0.00207853
0.0020514
0.00204382
0.0020047
3.49009e-05
3.08355e-05
2.85525e-05
2.86998e-05
3.29953e-05
4.44805e-05
6.50566e-05
9.43793e-05
0.000126932
0.000160376
0.000196009
0.000241538
0.000299923
0.000371817
0.000453889
0.000543786
0.000638954
0.000737584
0.000838103
0.000939378
0.00104041
0.00114042
0.00123868
0.00133457
0.00142749
0.00151678
0.00160168
0.00168171
0.00175704
0.00182757
0.00189322
0.00195387
0.00200945
0.00205987
0.00210509
0.00214505
0.00217975
0.0022092
0.00223347
0.00225264
0.00226684
0.00227622
0.00228101
0.00228143
0.00227779
0.00227035
0.00225955
0.00224564
0.00222929
0.00221055
0.0021906
0.00216884
0.00214765
0.00212465
0.00210533
0.00208232
0.00206897
0.00204389
0.00203801
0.00200113
3.48929e-05
3.08035e-05
2.83968e-05
2.81351e-05
3.15115e-05
4.14174e-05
6.03926e-05
8.92771e-05
0.000123578
0.000159634
0.000196676
0.000240813
0.000295887
0.000363938
0.000442694
0.000530064
0.000623453
0.000720954
0.000820844
0.000921869
0.00102293
0.00112316
0.00122178
0.00131813
0.00141156
0.00150138
0.00158676
0.00166728
0.00174307
0.00181401
0.00187999
0.00194091
0.00199668
0.00204722
0.00209246
0.00213237
0.00216694
0.0021962
0.0022202
0.00223905
0.00225287
0.00226184
0.00226619
0.00226616
0.00226208
0.00225422
0.00224303
0.00222881
0.00221223
0.00219339
0.00217345
0.0021519
0.00213108
0.00210875
0.00209025
0.00206853
0.00205652
0.00203353
0.00202933
0.00199493
3.48858e-05
3.07789e-05
2.82725e-05
2.76678e-05
3.02338e-05
3.863e-05
5.57759e-05
8.35616e-05
0.000118829
0.000157295
0.000196337
0.000240156
0.000292773
0.000357272
0.000432574
0.000517063
0.000608263
0.000704226
0.000803116
0.000903564
0.00100437
0.00110458
0.00120335
0.00129998
0.00139377
0.00148399
0.00156973
0.00165066
0.00172684
0.00179811
0.00186438
0.00192552
0.00198143
0.00203204
0.00207728
0.00211711
0.00215154
0.00218058
0.0022043
0.00222281
0.00223625
0.00224481
0.00224872
0.00224823
0.0022437
0.00223542
0.00222386
0.00220932
0.00219251
0.00217356
0.00215362
0.00213228
0.00211181
0.00209013
0.00207243
0.002052
0.0020413
0.0020204
0.0020179
0.00198616
3.48797e-05
3.07603e-05
2.81743e-05
2.7284e-05
2.91455e-05
3.61383e-05
5.13368e-05
7.74713e-05
0.00011287
0.000153293
0.000194633
0.000239038
0.000290118
0.000351582
0.000423498
0.000504885
0.000593556
0.000687602
0.000785128
0.000884665
0.00098492
0.00108485
0.00118356
0.00128027
0.00137425
0.00146472
0.0015507
0.00163195
0.00170842
0.00177997
0.00184645
0.00190775
0.00196377
0.00201441
0.00205962
0.00209934
0.0021336
0.0021624
0.00218583
0.002204
0.00221705
0.00222518
0.00222865
0.00222772
0.00222274
0.00221404
0.0022021
0.00218725
0.00217021
0.00215114
0.00213122
0.00211008
0.00208994
0.00206891
0.00205199
0.00203282
0.00202341
0.00200463
0.00200383
0.00197494
3.48743e-05
3.07464e-05
2.80976e-05
2.69714e-05
2.82277e-05
3.39462e-05
4.71751e-05
7.12365e-05
0.000105938
0.000147661
0.000191312
0.00023699
0.000287431
0.000346526
0.000415317
0.000493542
0.000579439
0.000671242
0.000767059
0.000865357
0.00096476
0.00106415
0.00116255
0.00125914
0.00135313
0.0014437
0.00152979
0.00161125
0.00168793
0.00175966
0.00182629
0.0018877
0.00194377
0.0019944
0.00203953
0.00207912
0.00211318
0.00214173
0.00216486
0.00218267
0.00219533
0.00220304
0.00220606
0.00220468
0.00219926
0.00219014
0.00217783
0.00216268
0.00214541
0.00212624
0.00210632
0.00208537
0.00206557
0.00204518
0.00202901
0.00201111
0.00200295
0.0019863
0.0019872
0.00196135
3.48695e-05
3.07364e-05
2.80384e-05
2.67189e-05
2.74609e-05
3.20453e-05
4.33599e-05
6.50656e-05
9.83059e-05
0.000140526
0.000186225
0.000233623
0.000284226
0.000341696
0.000407788
0.000482945
0.00056594
0.000655246
0.000749051
0.000845796
0.00094405
0.00104262
0.00114048
0.00123673
0.00133054
0.00142104
0.00150712
0.00158866
0.00166544
0.00173727
0.00180398
0.00186543
0.00192149
0.00197206
0.00201708
0.00205651
0.00209035
0.00211863
0.00214143
0.00215888
0.00217114
0.00217842
0.002181
0.00217917
0.00217332
0.0021638
0.00215112
0.00213568
0.00211819
0.00209892
0.00207901
0.00205826
0.00203879
0.00201902
0.0020036
0.00198694
0.00198002
0.00196551
0.00196811
0.00194547
3.48654e-05
3.07294e-05
2.79936e-05
2.65168e-05
2.68258e-05
3.04182e-05
3.99319e-05
5.91348e-05
9.02658e-05
0.000132098
0.000179335
0.000228636
0.000280057
0.000336653
0.000400586
0.00047292
0.00055301
0.000639653
0.000731196
0.000826107
0.000922929
0.00102042
0.00111748
0.00121316
0.0013066
0.00139685
0.00148278
0.00156427
0.00164105
0.00171288
0.00177958
0.001841
0.001897
0.00194747
0.00199234
0.00203157
0.00206515
0.00209314
0.0021156
0.00213267
0.00214453
0.00215139
0.00215353
0.00215126
0.00214498
0.00213506
0.00212204
0.0021063
0.00208861
0.00206925
0.00204936
0.00202881
0.00200967
0.00199053
0.00197583
0.00196042
0.0019547
0.00194235
0.00194666
0.00192737
3.48617e-05
3.07248e-05
2.79604e-05
2.63567e-05
2.63046e-05
2.90417e-05
3.69071e-05
5.35819e-05
8.2105e-05
0.000122656
0.000170706
0.000221828
0.000274537
0.000330956
0.000393335
0.000463215
0.00054052
0.000624435
0.000713535
0.000806373
0.0009015
0.000997645
0.00109366
0.00118856
0.00128141
0.00137123
0.00145687
0.00153818
0.00161483
0.00168657
0.00175318
0.00181449
0.00187036
0.00192067
0.00196534
0.00200433
0.00203765
0.00206531
0.00208743
0.00210411
0.00211556
0.00212199
0.00212369
0.00212099
0.0021143
0.002104
0.00209063
0.00207463
0.00205674
0.0020373
0.00201744
0.00199711
0.0019783
0.00195979
0.00194581
0.00193163
0.00192709
0.00191689
0.00192292
0.00190713
3.48586e-05
3.07221e-05
2.79364e-05
2.62313e-05
2.58804e-05
2.78897e-05
3.42817e-05
4.85037e-05
7.40886e-05
0.000112525
0.00016051
0.000213102
0.000267352
0.00032419
0.000385636
0.000453516
0.00052827
0.000609494
0.00069605
0.000786629
0.000879837
0.000974397
0.00106914
0.00116302
0.00125508
0.00134428
0.00142948
0.00151046
0.00158687
0.0016584
0.00172483
0.00178595
0.00184162
0.00189172
0.00193615
0.00197487
0.00200787
0.0020352
0.00205694
0.00207323
0.00208426
0.00209026
0.00209154
0.00208842
0.00208131
0.00207064
0.00205695
0.0020407
0.00202263
0.00200314
0.00198332
0.00196321
0.00194474
0.00192686
0.00191359
0.00190064
0.00189726
0.00188924
0.00189697
0.00188483
3.48558e-05
3.07209e-05
2.79199e-05
2.61344e-05
2.55383e-05
2.69352e-05
3.20364e-05
4.39583e-05
6.64423e-05
0.00010206
0.000149011
0.000202474
0.000258277
0.000315987
0.000377085
0.000443474
0.000516002
0.00059467
0.000678664
0.000766863
0.00085797
0.000950735
0.00104397
0.00113663
0.0012277
0.00131609
0.00140068
0.00148121
0.00155723
0.00162845
0.00169459
0.00175545
0.00181085
0.00186067
0.0019048
0.00194321
0.00197587
0.00200284
0.0020242
0.00204008
0.00205069
0.00205627
0.00205711
0.00205358
0.00204608
0.00203506
0.00202106
0.00200458
0.00198635
0.00196682
0.00194706
0.00192719
0.00190907
0.00189183
0.00187927
0.00186754
0.00186531
0.00185945
0.0018689
0.00186052
3.48533e-05
3.07208e-05
2.79092e-05
2.60606e-05
2.5265e-05
2.61518e-05
3.01418e-05
3.99682e-05
5.93419e-05
9.16123e-05
0.000136555
0.000190074
0.000247184
0.000306038
0.000367303
0.00043272
0.000503413
0.000579747
0.000661246
0.000747013
0.000835888
0.000926681
0.00101823
0.00110945
0.00119933
0.00128671
0.00137056
0.00145047
0.00152599
0.00159677
0.00166253
0.00172303
0.00177809
0.00182757
0.00187136
0.0019094
0.0019417
0.00196827
0.00198922
0.00200469
0.00201488
0.00202003
0.00202046
0.00201652
0.00200864
0.00199728
0.001983
0.0019663
0.00194795
0.00192839