/*--------------------------------*- C++ -*----------------------------------*\
| =========                 |                                                 |
| \\      /  F ield         | OpenFOAM: The Open Source CFD Toolbox           |
|  \\    /   O peration     | Version:  2.4.0                                 |
|   \\  /    A nd           | Web:      www.OpenFOAM.org                      |
|    \\/     M anipulation  |                                                 |
\*---------------------------------------------------------------------------*/
FoamFile
{
    version     2.0;
    format      ascii;
    class       volScalarField;
    location    "2.3";
    object      epsilon;
}
// * * * * * * * * * * * * * * * * * * * * * * * * * * * * * * * * * * * * * //

dimensions      [0 2 -3 0 0 0 0];

internalField   nonuniform List<scalar> 
6000
(
56.3178
0.599633
0.00961225
0.127127
0.0752415
0.0913502
0.0638397
0.0628583
0.0501309
0.0483037
0.0439047
0.0447509
0.0437516
0.0429588
0.0377266
0.0314097
0.0268014
0.0277932
0.0370668
0.0591907
0.0999675
0.166833
0.262213
0.386156
0.534602
0.695188
0.855697
1.00245
1.11164
1.14022
1.04843
0.813339
0.492208
0.200056
0.0463709
0.0809636
0.216231
0.367432
0.488542
0.553212
0.568116
0.555476
0.52777
0.496306
0.470884
0.47138
0.480037
0.5544
0.620829
0.804108
0.98238
1.37014
1.73543
2.52922
3.19183
4.89911
5.92312
10.2518
10.6397
27.7259
18.7073
0.808551
0.0144518
0.0702745
0.0431506
0.0498826
0.0355547
0.0342729
0.0275776
0.0262216
0.0238134
0.0239254
0.0231927
0.0224811
0.0196836
0.0164656
0.014234
0.0149295
0.0198514
0.0307325
0.0493468
0.077423
0.114408
0.159189
0.209333
0.260432
0.308917
0.350767
0.379016
0.382009
0.349818
0.276285
0.17622
0.0791995
0.0244997
0.0437581
0.0932377
0.143441
0.182135
0.20282
0.208503
0.205752
0.19821
0.189686
0.183261
0.186277
0.19232
0.221318
0.249872
0.318032
0.388045
0.528255
0.66664
0.946049
1.19631
1.78245
2.19096
3.63529
3.97443
9.33353
7.20567
0.643177
0.0187977
0.0410601
0.0259446
0.0286156
0.0207525
0.0196236
0.0159369
0.0149978
0.0136472
0.0135733
0.0130985
0.0125949
0.011064
0.00940168
0.00837614
0.00908866
0.0122885
0.0187189
0.0289064
0.0430484
0.0602872
0.0797167
0.0999729
0.119287
0.136481
0.150252
0.158145
0.156641
0.14299
0.115354
0.0779354
0.0396585
0.0176743
0.0277974
0.0471773
0.0646797
0.0775216
0.0842611
0.0862051
0.0854514
0.0831091
0.0806197
0.0790136
0.081272
0.0848351
0.0970325
0.110363
0.138099
0.168384
0.224313
0.28236
0.391517
0.496582
0.720778
0.900816
1.43902
1.65145
3.50875
3.30945
0.477305
0.0214477
0.0254985
0.0163578
0.0172023
0.0126526
0.0117564
0.00964195
0.00901181
0.00824504
0.00816033
0.00787994
0.00756794
0.00672849
0.0058874
0.00550093
0.00630792
0.00880327
0.0133452
0.0200264
0.0286062
0.0383316
0.0485451
0.0584465
0.0672354
0.0745125
0.0798628
0.0821375
0.0802545
0.0732629
0.0605548
0.0436401
0.0261391
0.0162147
0.0209583
0.0286621
0.0346865
0.0384753
0.0400424
0.0401419
0.0395504
0.0385543
0.0377009
0.0373121
0.038668
0.0406656
0.0461096
0.0526963
0.0648852
0.0789883
0.103233
0.129613
0.17618
0.224115
0.318076
0.403691
0.623969
0.747529
1.44702
1.78004
0.361534
0.0234117
0.0170606
0.0108611
0.0108401
0.00805164
0.00735973
0.00610015
0.00568528
0.00525157
0.00520337
0.00505894
0.00489056
0.00444255
0.00405469
0.00403825
0.00496298
0.00717946
0.010868
0.0159342
0.0219999
0.0284383
0.0347701
0.0405118
0.0452794
0.0489795
0.051477
0.0520909
0.0506744
0.0467418
0.040138
0.0313871
0.0222359
0.0168437
0.0184744
0.0209549
0.0224496
0.0228037
0.0222459
0.0213181
0.0204598
0.0197229
0.0192656
0.0191328
0.0198734
0.0209633
0.023523
0.0268966
0.0326145
0.0395642
0.0508386
0.0636089
0.0850006
0.108338
0.15089
0.194002
0.291659
0.362255
0.645759
1.10257
0.284553
0.0253756
0.0125464
0.00766415
0.00718444
0.00535739
0.00481847
0.00403909
0.00377037
0.00353146
0.00352456
0.00347122
0.00340136
0.00318733
0.00306574
0.00330019
0.00434811
0.00647349
0.00975563
0.0139998
0.0187871
0.0236037
0.0281107
0.0320289
0.0351806
0.0375795
0.0391342
0.0394954
0.0387517
0.0365879
0.0329008
0.0277422
0.021995
0.0183777
0.0181049
0.0179824
0.0173383
0.0161643
0.0146557
0.0131382
0.0119716
0.0111768
0.0107475
0.0106083
0.0109722
0.0115502
0.0128019
0.0145709
0.0174024
0.0209831
0.0265479
0.033053
0.0435143
0.0554751
0.0760647
0.0987459
0.145109
0.185463
0.30856
0.769973
0.235012
0.0276767
0.0103354
0.00582912
0.00504415
0.00374432
0.00330921
0.00280589
0.00263466
0.0025112
0.00253862
0.00254447
0.0025428
0.00247841
0.002537
0.00296242
0.00413046
0.00625008
0.00933511
0.0131358
0.0172436
0.0212536
0.0249384
0.0281383
0.0307599
0.0327993
0.0341702
0.0346717
0.0344886
0.0333485
0.0310751
0.0275006
0.0233618
0.0203188
0.0187892
0.0172333
0.0154128
0.0133835
0.0113429
0.00944999
0.00801806
0.00708423
0.00657591
0.00636332
0.00649861
0.00678758
0.00741133
0.00835404
0.00982065
0.0117365
0.0146278
0.0180895
0.0234876
0.0298869
0.0404313
0.0527999
0.0761501
0.0994267
0.156587
0.59685
0.199521
0.0304014
0.00958375
0.00485312
0.00379298
0.00276964
0.00239625
0.00205309
0.00194496
0.00189044
0.00194318
0.00198893
0.00203835
0.00208046
0.00227945
0.00285977
0.00414134
0.00629672
0.00930183
0.0128827
0.0166715
0.020355
0.0237714
0.0268072
0.02938
0.0314269
0.0328586
0.0335505
0.0337046
0.0331086
0.0315821
0.0288405
0.0254179
0.0224084
0.0200142
0.0175439
0.0150093
0.0124303
0.010001
0.00782
0.00614831
0.00505776
0.00444313
0.00414584
0.00413688
0.00425907
0.00456505
0.00507145
0.00585922
0.00692251
0.00849335
0.0104156
0.0133363
0.0168994
0.0225762
0.0295418
0.0419266
0.0555559
0.0839085
0.501336
0.175541
0.0336056
0.00982772
0.0044639
0.00309525
0.00219041
0.00184258
0.00159038
0.00152076
0.00150767
0.00157873
0.00165381
0.00174602
0.00187483
0.00219083
0.00290244
0.00429094
0.00650888
0.00950656
0.0130267
0.0167413
0.0203921
0.0238364
0.0269649
0.0296814
0.0318715
0.0334348
0.0342898
0.0346392
0.0343616
0.0332458
0.0308957
0.0277163
0.024492
0.0214745
0.0184061
0.0153769
0.012389
0.0096494
0.00722065
0.00531724
0.00405653
0.00332658
0.00294902
0.00283604
0.00285806
0.00299893
0.00326746
0.00370191
0.00431462
0.00520407
0.00632125
0.00796954
0.0100387
0.013234
0.0172878
0.0241691
0.0323065
0.0473432
0.443278
0.163183
0.0373502
0.0108065
0.00451406
0.00277013
0.00187224
0.00151739
0.00131158
0.00126272
0.00127446
0.00135931
0.00145889
0.00159092
0.00179541
0.00221323
0.00304073
0.00453629
0.00684123
0.00990041
0.0134655
0.0172481
0.0210247
0.0246471
0.0279905
0.0309377
0.0333291
0.0350441
0.0360304
0.0364907
0.0363698
0.0354472
0.0332202
0.0300084
0.026458
0.0229755
0.0195096
0.0161488
0.0128517
0.00983514
0.00717665
0.00504794
0.00360585
0.00274888
0.00229101
0.00209869
0.00205183
0.00210337
0.00223887
0.00248141
0.00284697
0.00337203
0.0040523
0.00502314
0.00628117
0.00815502
0.0106003
0.0145977
0.0195636
0.0280941
0.406892
0.156704
0.041516
0.0124037
0.0049167
0.00272155
0.00174168
0.00134849
0.00115716
0.00111591
0.0011417
0.00123767
0.00136005
0.00153095
0.00180378
0.0023128
0.00324686
0.00485074
0.00726444
0.0104375
0.0141397
0.0181021
0.0221044
0.0259752
0.0295741
0.0327708
0.0353719
0.0372336
0.0383203
0.0388263
0.0387356
0.0378456
0.0355566
0.03214
0.0282184
0.0243785
0.020659
0.0170983
0.0135856
0.0103311
0.00744482
0.00510321
0.00347371
0.00247859
0.00193401
0.00167423
0.00157368
0.0015705
0.00163239
0.00176573
0.001988
0.00231153
0.00274601
0.00334331
0.00414494
0.00529157
0.00682812
0.00925071
0.0123575
0.0175316
0.383601
0.153275
0.0459067
0.0144786
0.00564854
0.00289471
0.00176026
0.00129684
0.00109445
0.00104996
0.00108188
0.00118734
0.00133217
0.00154141
0.00187704
0.00246967
0.0035046
0.00522097
0.00776347
0.0110913
0.0149875
0.019187
0.0234595
0.0276059
0.0314728
0.0349232
0.0377341
0.0397359
0.040893
0.0413881
0.0412194
0.0402314
0.037743
0.03401
0.0297018
0.025578
0.0217171
0.0180746
0.0144446
0.0110061
0.00791059
0.00535433
0.0035355
0.00239585
0.00175636
0.00143178
0.0012866
0.0012416
0.00126183
0.00133089
0.00146613
0.00167277
0.00196361
0.00234687
0.00288226
0.00361471
0.00462244
0.00615585
0.00815328
0.0114961
0.368474
0.15146
0.0503204
0.0169319
0.00667122
0.0032745
0.00190798
0.00134191
0.00110616
0.00104841
0.00107981
0.00119327
0.00136027
0.00160748
0.00200168
0.00267219
0.00380486
0.00563892
0.0083271
0.0118388
0.0159636
0.0204291
0.024988
0.0294136
0.0335423
0.0372368
0.0402462
0.0423733
0.0435734
0.0440058
0.0436645
0.0424674
0.0396738
0.0355499
0.0308516
0.0264937
0.0225801
0.0189658
0.0153238
0.011773
0.0084954
0.00574361
0.00372396
0.00243346
0.0016924
0.00130139
0.00111443
0.00103516
0.00102654
0.00105892
0.00113918
0.0012735
0.00147692
0.00173232
0.0021063
0.00259358
0.00328226
0.00429657
0.00561961
0.00790195
0.358581
0.150517
0.0545813
0.0196654
0.00796212
0.00384808
0.00218354
0.00147632
0.00118407
0.00110225
0.00112686
0.00124673
0.00143632
0.00172121
0.00216996
0.00291384
0.00414227
0.00609867
0.00894491
0.0126588
0.0170291
0.0217695
0.0266138
0.0313077
0.0356806
0.0395995
0.0427866
0.0450177
0.0462376
0.046559
0.0459643
0.0444642
0.0412779
0.0367145
0.0316161
0.0270417
0.0231589
0.019684
0.0161399
0.0125644
0.00915054
0.00622029
0.00400672
0.00255325
0.00170502
0.00124413
0.00101495
0.000906234
0.000873274
0.000883915
0.000929777
0.00101702
0.00116453
0.00134083
0.00161324
0.00194936
0.0024382
0.00313715
0.00404123
0.00567066
0.352108
0.150065
0.0585538
0.0225773
0.00949537
0.00460991
0.00258512
0.00170066
0.00132852
0.00121031
0.0012212
0.00134487
0.00155605
0.00187799
0.00237802
0.00319125
0.00451337
0.00659488
0.00960626
0.0135303
0.0181497
0.0231606
0.0282778
0.0332202
0.0378117
0.0419277
0.0452642
0.0475727
0.0487932
0.0489607
0.0480466
0.0461623
0.0425117
0.0374606
0.0319509
0.0272159
0.0233912
0.0201511
0.0168229
0.013323
0.00983675
0.00675474
0.00435391
0.00273829
0.00177045
0.00123773
0.000964105
0.000827825
0.000773706
0.000768429
0.000793995
0.000850653
0.000959339
0.00108575
0.0012922
0.00153166
0.0018911
0.00239055
0.00302778
0.00423235
0.347892
0.149914
0.0621468
0.0255644
0.0112372
0.00555589
0.00311739
0.0020177
0.0015414
0.00137263
0.00136204
0.00148598
0.00171752
0.00207622
0.00262466
0.00350317
0.00491583
0.00712227
0.0103002
0.0144339
0.0192955
0.0245629
0.0299332
0.0350981
0.0398771
0.0441577
0.0476097
0.0499651
0.0511687
0.051148
0.0498645
0.0475225
0.0433492
0.0377718
0.0319337
0.0270182
0.0232945
0.0203186
0.0173155
0.0139977
0.0105187
0.00732353
0.00474857
0.00297041
0.0018805
0.00126776
0.000947758
0.000784066
0.00071121
0.000691736
0.000705571
0.000742461
0.000823797
0.000917814
0.00108027
0.00125613
0.00152964
0.00189804
0.00236131
0.00327713
0.345174
0.149952
0.0653107
0.0285269
0.0131436
0.00667797
0.00378563
0.00243391
0.00182814
0.00159322
0.00155157
0.00167111
0.00192097
0.00231619
0.0029106
0.00384978
0.00534809
0.00767565
0.0110158
0.0153512
0.0204404
0.0259438
0.0315422
0.0368999
0.0418316
0.0462405
0.0497705
0.0521427
0.053306
0.0530764
0.0513893
0.0485269
0.0437551
0.0377191
0.0315025
0.026415
0.0228133
0.0201805
0.017557
0.0145421
0.0111629
0.00790589
0.00517747
0.00323985
0.00202395
0.00132789
0.000957285
0.000765331
0.000674898
0.000642339
0.000648797
0.000672917
0.000735007
0.000807603
0.000939937
0.0010731
0.00128863
0.00156821
0.00191591
0.00262946
0.343449
0.150111
0.0680333
0.0313743
0.0151613
0.00796096
0.00459307
0.00295699
0.0021957
0.00187829
0.00179379
0.00190299
0.00216809
0.00259954
0.00323799
0.00423244
0.00580935
0.0082502
0.0117427
0.0162656
0.0215617
0.0272761
0.0330746
0.0385931
0.0436405
0.048139
0.0517082
0.0540671
0.0551619
0.0547196
0.0526029
0.0491561
0.0438123
0.0372504
0.0306762
0.0254271
0.0219561
0.0196992
0.0175386
0.0149159
0.0117375
0.00848208
0.00562905
0.00353917
0.00219517
0.00141211
0.000987273
0.000765606
0.00065808
0.000612994
0.000613983
0.000629788
0.000678355
0.000736667
0.000847708
0.000951856
0.00112792
0.00134578
0.00161568
0.00218491
0.342376
0.150412
0.0703337
0.0340312
0.0172291
0.00938062
0.00553836
0.00359384
0.00265204
0.00223523
0.00209424
0.00218572
0.00246162
0.00292881
0.00360998
0.00465356
0.0062997
0.00884187
0.0124717
0.0171628
0.0226409
0.0285373
0.0345064
0.0401525
0.0452775
0.0498267
0.053396
0.0557117
0.0567074
0.0560607
0.0534979
0.0494155
0.0434771
0.0363865
0.029485
0.024092
0.0207527
0.0188822
0.0172247
0.0150802
0.0122119
0.00903301
0.00609237
0.00386198
0.00238994
0.00151664
0.00103487
0.000780925
0.000655928
0.000599285
0.000594789
0.000605499
0.000644225
0.000692695
0.000788496
0.000872594
0.00102158
0.00119569
0.00141276
0.00187796
0.341727
0.15081
0.0722514
0.0364411
0.019283
0.0109031
0.00661335
0.0043487
0.00320503
0.00267167
0.00245985
0.0025245
0.00280518
0.00330709
0.00403035
0.00511654
0.00682032
0.00944789
0.0131952
0.0180306
0.0236623
0.0297101
0.035819
0.0415594
0.0467242
0.0512853
0.054818
0.0570584
0.0579281
0.0570889
0.0540669
0.0493579
0.0427586
0.0351547
0.0279688
0.0224621
0.0192524
0.0177586
0.0166108
0.0150096
0.0125585
0.00954056
0.0065568
0.00420234
0.00260471
0.0016388
0.00109723
0.000808971
0.00066553
0.000597355
0.000587265
0.000594803
0.000626328
0.000667588
0.000752087
0.000822165
0.00095227
0.00109482
0.0012758
0.00166551
0.341348
0.151292
0.0738391
0.038569
0.02126
0.0124856
0.00780142
0.00522117
0.0038609
0.0031953
0.00289784
0.0029254
0.00320295
0.00373774
0.00450312
0.00562571
0.00737367
0.0100671
0.0139075
0.0188595
0.0246141
0.0307813
0.0369984
0.0428005
0.0479686
0.0525044
0.0559661
0.0580973
0.0588213
0.0578005
0.0543111
0.0489528
0.0416792
0.0335885
0.0261752
0.0206008
0.0175217
0.0163784
0.0157104
0.0146785
0.0127522
0.00998853
0.00701205
0.0045544
0.00283619
0.0017764
0.00117258
0.000847801
0.000684822
0.000604932
0.000588219
0.000593436
0.000619837
0.000655906
0.000731553
0.000791658
0.000908118
0.00102757
0.00118368
0.00151825
0.341134
0.151834
0.0751546
0.0404004
0.0231038
0.0140792
0.0090767
0.00620434
0.00462265
0.00381257
0.00341527
0.00339508
0.00365955
0.00422403
0.00503221
0.00618604
0.00796344
0.0107003
0.0146055
0.0196433
0.025488
0.031741
0.0380355
0.0438677
0.0490042
0.0534796
0.0568386
0.0588277
0.0593884
0.0581816
0.0542731
0.0482168
0.040264
0.0317263
0.0241583
0.0185796
0.0156392
0.0148105
0.0145549
0.0140737
0.0127713
0.0103647
0.00744852
0.00491231
0.00308111
0.00192746
0.00125944
0.000896079
0.000712261
0.000620292
0.000596177
0.000599204
0.000620949
0.000653212
0.000722083
0.000774889
0.000880978
0.000983195
0.00112197
0.00141587
0.341011
0.152407
0.0762522
0.0419394
0.0247686
0.0156318
0.0104044
0.00728333
0.00548842
0.00452727
0.00401833
0.00393947
0.00418033
0.00476883
0.00562101
0.00680278
0.00859456
0.0113505
0.0152885
0.0203786
0.0262787
0.0325832
0.0389246
0.0447571
0.0498296
0.054212
0.0574394
0.0592506
0.0596354
0.0582654
0.0539303
0.0471651
0.0385404
0.0296116
0.0219767
0.0164736
0.0136902
0.0131374
0.0131907
0.0132419
0.0125634
0.0106632
0.00785757
0.00527021
0.00333611
0.00209004
0.0013565
0.000952718
0.000746664
0.00064205
0.000609807
0.000610302
0.000627807
0.000656787
0.000719814
0.00076735
0.000865282
0.00095425
0.00108068
0.00134414
0.340931
0.152989
0.0771801
0.0432054
0.0262225
0.0170927
0.0117425
0.00843453
0.0064498
0.00533903
0.00471099
0.00456329
0.00477089
0.00537429
0.00627203
0.00748074
0.00927279
0.0120225
0.0159586
0.0210653
0.0269846
0.0333056
0.0396641
0.0454689
0.0504473
0.0547074
0.0577738
0.0593835
0.0596011
0.0580545
0.0532897
0.0458121
0.0365381
0.0272926
0.0196926
0.0143575
0.0117595
0.011436
0.0116845
0.0122788
0.0120938
0.0108099
0.00823163
0.00562227
0.00359768
0.00226214
0.0014625
0.00101676
0.000787073
0.000669079
0.000628204
0.000625027
0.000638816
0.000664806
0.000722213
0.000765615
0.000857026
0.000935524
0.00105289
0.00129309
0.340864
0.153561
0.0779788
0.0442293
0.0274489
0.018417
0.0130443
0.00962576
0.00749057
0.00624185
0.00549372
0.00526964
0.00543558
0.00604182
0.00698645
0.00822354
0.0100041
0.012723
0.0166207
0.0217062
0.0276073
0.0339088
0.0402554
0.0460063
0.0508637
0.0549745
0.057858
0.059246
0.0592911
0.0575523
0.0523576
0.0441715
0.0342894
0.0248224
0.0173699
0.0123017
0.00992368
0.009758
0.0101288
0.0111579
0.0114809
0.0107267
0.00857691
0.00596252
0.00386207
0.00244164
0.00157613
0.00108731
0.000832663
0.000700435
0.00065054
0.000642077
0.000652856
0.000675755
0.00072756
0.000767407
0.000853324
0.000923349
0.00103377
0.00125573
0.340793
0.154106
0.0786804
0.0450491
0.0284466
0.0195691
0.0142625
0.0108177
0.00858594
0.00722274
0.00636199
0.00605879
0.00617658
0.00677179
0.00776358
0.00903278
0.0107942
0.0134595
0.0172823
0.0223068
0.0281513
0.0343968
0.040703
0.0463757
0.0510876
0.0550255
0.0577062
0.0588514
0.0587281
0.0567711
0.0511388
0.042256
0.0318296
0.0222582
0.0150729
0.0103675
0.0082409
0.00816544
0.00860053
0.00989601
0.0108043
0.0104548
0.00882985
0.00628221
0.00412527
0.00262628
0.00169604
0.00116345
0.000882682
0.000735308
0.000676025
0.000660779
0.00066888
0.000688387
0.000734443
0.00077119
0.000852099
0.000915131
0.00101995
0.00122712
0.340709
0.154614
0.079309
0.0457059
0.0292278
0.0205256
0.0153529
0.0119665
0.00970267
0.00826087
0.00730494
0.00692691
0.00699274
0.00756304
0.00860009
0.00990719
0.0116471
0.0142394
0.0179529
0.0228755
0.0286242
0.0347763
0.0410139
0.0465856
0.0511303
0.0548745
0.0573324
0.0582227
0.0579282
0.0557277
0.0496377
0.0400793
0.0291977
0.0196612
0.0128632
0.00860329
0.00674845
0.00671691
0.0071676
0.00855796
0.0100471
0.0100344
0.00894003
0.00657825
0.00438341
0.00281365
0.00182077
0.00124426
0.000936405
0.000772986
0.000703917
0.000680622
0.00068597
0.000701772
0.000741835
0.000775767
0.000851873
0.000909041
0.00100907
0.00120382
0.340611
0.155073
0.0798859
0.0462351
0.0298143
0.0212767
0.016279
0.0130274
0.0108003
0.00932754
0.00830425
0.00786485
0.00787824
0.00841233
0.00948945
0.0108417
0.0125645
0.015068
0.0186435
0.0234226
0.0290357
0.0350562
0.0411974
0.0466465
0.0510055
0.054536
0.0567524
0.0573838
0.0569083
0.0544361
0.0478573
0.0376564
0.0264381
0.0170946
0.0107967
0.00704149
0.005466
0.00545367
0.00588158
0.0072167
0.00918656
0.0095631
0.00886731
0.00685744
0.00463272
0.0030012
0.00194878
0.00132876
0.000993111
0.000812827
0.000733508
0.000701266
0.000703295
0.000715139
0.000749021
0.000780286
0.000851622
0.000903801
0.000999513
0.00118342
0.340502
0.155477
0.0804287
0.0466658
0.0302345
0.0218257
0.0170146
0.0139585
0.0118334
0.010387
0.00933362
0.00885707
0.00882105
0.00931383
0.0104213
0.0118264
0.013544
0.0159472
0.0193652
0.0239598
0.0293975
0.0352476
0.0412643
0.0465712
0.0507253
0.0540249
0.055982
0.0563587
0.0556845
0.0529066
0.0458
0.035007
0.0236011
0.0146208
0.00891886
0.00569788
0.00439745
0.00439314
0.00477312
0.00595074
0.0082343
0.0090543
0.00866656
0.00707383
0.00486655
0.00318612
0.00207844
0.00141591
0.00105207
0.000854234
0.000764122
0.000722506
0.00071995
0.000727923
0.000755536
0.000784148
0.000850597
0.000898532
0.000990129
0.00116428
0.340387
0.155824
0.0809456
0.0470284
0.0305209
0.0221878
0.0175467
0.0147251
0.0127559
0.0113983
0.0103591
0.00987949
0.00980272
0.0102575
0.011382
0.0128461
0.0145771
0.0168747
0.0201266
0.0244995
0.0297225
0.0353628
0.0412272
0.0463703
0.0503042
0.0533559
0.0550358
0.0551708
0.0542697
0.051146
0.0434688
0.0321567
0.0207437
0.0122978
0.00726109
0.00457317
0.00353183
0.00353201
0.003852
0.00485049
0.0071981
0.00850062
0.0083556
0.00719689
0.00508045
0.00336571
0.00220802
0.00150464
0.00111252
0.000896636
0.000795157
0.000744046
0.000735175
0.000739721
0.000761077
0.000786972
0.000848287
0.000892662
0.000979996
0.00114539
0.34027
0.156113
0.0814368
0.0473519
0.0307086
0.0223879
0.0178764
0.0153015
0.0135262
0.012317
0.0113407
0.0108996
0.0108001
0.0112239
0.0123555
0.0138798
0.0156476
0.0178431
0.0209308
0.0250531
0.0300234
0.0354146
0.0410982
0.0460562
0.0497556
0.0525422
0.0539274
0.0538428
0.0526709
0.0491563
0.0408696
0.0291409
0.0179287
0.0101744
0.00583872
0.00365574
0.00284826
0.00285203
0.00311139
0.00393818
0.00613501
0.00789529
0.00798438
0.00719932
0.0052822
0.00353782
0.0023358
0.0015938
0.00117368
0.000939472
0.000826083
0.000765335
0.000749203
0.000749784
0.000765346
0.000788403
0.000844364
0.000885654
0.000968662
0.00112611
0.340158
0.156349
0.0818981
0.0476592
0.0308323
0.0224565
0.0180172
0.0156735
0.0141123
0.0130996
0.0122347
0.0118776
0.011783
0.0121873
0.0133218
0.0149014
0.0167306
0.0188394
0.0217704
0.0256295
0.0303122
0.0354153
0.040888
0.0456411
0.0490915
0.051595
0.0526717
0.0523821
0.0508974
0.0469355
0.038014
0.0260065
0.0152221
0.00828631
0.00465125
0.00292522
0.00232039
0.00232743
0.00253248
0.00320051
0.00511095
0.00723156
0.00760035
0.00709358
0.00546099
0.00369958
0.00245996
0.00168223
0.00123477
0.000982183
0.000856431
0.000785865
0.000762257
0.000757257
0.000768423
0.00078836
0.000838625
0.000877142
0.000955914
0.00110602
0.340054
0.156538
0.0823238
0.0479647
0.0309229
0.0224358
0.0180004
0.0158401
0.0144938
0.0137075
0.0129977
0.0127686
0.0127133
0.0131158
0.014256
0.0158801
0.0177924
0.0198442
0.0226246
0.026233
0.0305975
0.0353764
0.0406085
0.0451347
0.0483212
0.0505222
0.0512847
0.0507879
0.0489522
0.0444749
0.034924
0.0228141
0.0126881
0.0066533
0.00368507
0.00235647
0.00192099
0.00193082
0.00209099
0.00261862
0.00417545
0.00652847
0.00719849
0.00689358
0.00558865
0.00384613
0.00257851
0.0017687
0.00129497
0.00102421
0.00088577
0.000805222
0.000774078
0.000762242
0.000769997
0.000786522
0.000830971
0.00086696
0.000941667
0.00108489
0.339963
0.156687
0.0827091
0.0482738
0.0310054
0.0223619
0.0178819
0.0158216
0.0146636
0.0141116
0.0135918
0.0135243
0.0135449
0.0139747
0.0151291
0.0167813
0.0187906
0.02083
0.0234593
0.0268583
0.0308829
0.0353042
0.0402677
0.0445437
0.0474507
0.0493282
0.0497796
0.0490581
0.0468287
0.0417565
0.03164
0.019637
0.0103824
0.00527873
0.00291767
0.00192315
0.00162501
0.00163742
0.00176211
0.00217082
0.00336807
0.0058015
0.00677766
0.00663491
0.00565125
0.00397379
0.00268954
0.001852
0.00135349
0.001065
0.000913699
0.000823074
0.000784378
0.000765045
0.000769914
0.000782781
0.000821441
0.00085509
0.000925945
0.00106265
0.339885
0.156805
0.0830523
0.0485849
0.0310979
0.0222545
0.0176513
0.015671
0.014637
0.0142964
0.0139902
0.014094
0.0142338
0.014724
0.0159058
0.0175683
0.0196761
0.0217584
0.0242311
0.0274843
0.031165
0.0352017
0.0398692
0.0438707
0.046481
0.0480129
0.0481671
0.0471843
0.0445119
0.0387709
0.0282108
0.0165572
0.00834635
0.00415162
0.00232204
0.00160051
0.00141109
0.00142652
0.00152493
0.00183587
0.00274573
0.00503977
0.00633552
0.00633653
0.00563884
0.00408538
0.00279166
0.00193091
0.00140954
0.001104
0.000939837
0.000839152
0.00079288
0.00076609
0.000767773
0.000777115
0.000810202
0.000841626
0.000908789
0.00103935
0.339824
0.156901
0.0833537
0.0488932
0.0312104
0.0221489
0.0173699
0.0153676
0.0144551
0.0142683
0.0141705
0.0144444
0.0147419
0.0153188
0.0165453
0.0182038
0.020397
0.022579
0.0248935
0.028067
0.0314309
0.0350633
0.0394105
0.0431128
0.0454071
0.0465717
0.0464564
0.0451481
0.04198
0.0355413
0.0246806
0.0136592
0.00660192
0.00325035
0.00187028
0.00136699
0.00126195
0.00128343
0.00136488
0.00159683
0.00228098
0.00429474
0.00586594
0.00602754
0.00555223
0.00418799
0.00288387
0.00200431
0.00146239
0.00114066
0.000963827
0.000853236
0.00079938
0.000765624
0.00076323
0.000769657
0.000797481
0.000826724
0.000890325
0.00101511
0.339779
0.156983
0.0836155
0.0491933
0.0313466
0.0220648
0.0170731
0.0149775
0.0140952
0.0140672
0.0141192
0.0145612
0.0150442
0.0157169
0.0170019
0.0186512
0.0209021
0.0232322
0.0254012
0.0285397
0.0316534
0.0348731
0.0388812
0.0422593
0.0442164
0.0450018
0.0446298
0.0429342
0.0392078
0.0320998
0.0211264
0.011021
0.00515141
0.00254706
0.00153621
0.0012049
0.00116406
0.00121342
0.00127757
0.00143924
0.00194066
0.00360572
0.00537664
0.00571477
0.00539447
0.00425816
0.00296347
0.00207098
0.00151133
0.00117444
0.000985339
0.000865146
0.0008038
0.000763626
0.000756326
0.000760477
0.000783472
0.000810572
0.000870734
0.000990125
0.33975
0.157059
0.0838423
0.0494796
0.0315052
0.0220146
0.0167918
0.0145384
0.0136274
0.0136661
0.0138575
0.0144551
0.0151114
0.0158859
0.0172385
0.0188782
0.0211468
0.0236544
0.0257089
0.0288235
0.0317848
0.0346019
0.0382599
0.0412909
0.0428883
0.0433013
0.0426563
0.0405189
0.0361999
0.0284679
0.0176472
0.0087028
0.00397989
0.0020116
0.00129676
0.00110017
0.00111473
0.00120211
0.00124797
0.0013489
0.00169983
0.00299634
0.00487886
0.00539738
0.00519534
0.00428644
0.00302764
0.00212969
0.00155562
0.00120491
0.00100409
0.000874725
0.000806025
0.000760025
0.000747613
0.000749562
0.000768305
0.000793366
0.000850233
0.0009646
0.339734
0.157134
0.0840395
0.049748
0.0316821
0.0220048
0.0165494
0.0140869
0.0130881
0.0131337
0.0133839
0.0141103
0.0149514
0.0158123
0.0172282
0.0188605
0.0210993
0.0237851
0.0257703
0.0288369
0.0317584
0.0342063
0.0375135
0.0401776
0.0413933
0.0414641
0.0405022
0.0378726
0.0329642
0.0246968
0.0143561
0.0067388
0.00306002
0.00161465
0.00113274
0.00104126
0.00110056
0.00124945
0.00127367
0.00131821
0.00154107
0.00248243
0.00438079
0.00507544
0.0049682
0.00427238
0.00307504
0.00217943
0.00159458
0.00123164
0.00101983
0.000881864
0.00080629
0.000754775
0.000737529
0.000736923
0.000752213
0.000775322
0.000829048
0.000938782
0.339732
0.157213
0.0842135
0.0499959
0.0318719
0.022026
0.0163598
0.013655
0.0125148
0.0125141
0.012769
0.0135296
0.0145376
0.0154927
0.0169747
0.0185953
0.0207487
0.0235811
0.0255451
0.0285134
0.0314919
0.0336297
0.0365954
0.0388782
0.0396949
0.0394829
0.038122
0.0349854
0.0295036
0.0208752
0.0113648
0.00513421
0.00235758
0.00132958
0.00102874
0.00101331
0.00114417
0.0013567
0.00136102
0.00134117
0.00145349
0.00210463
0.00386389
0.00474804
0.00472253
0.00421919
0.00310859
0.00221963
0.00162762
0.00125428
0.00103239
0.00088652
0.000804416
0.000747887
0.000726391
0.000722624
0.000735445
0.000756667
0.000807417
0.000912935
0.339738
0.157298
0.0843706
0.0502224
0.032068
0.0220817
0.01623
0.0132677
0.0119506
0.0118349
0.0120649
0.012783
0.0138888
0.0149037
0.0164367
0.0180501
0.0200719
0.023006
0.0249825
0.0277972
0.0308873
0.0328059
0.0354471
0.0373405
0.0377696
0.037299
0.0354868
0.0318626
0.0258464
0.01713
0.0087636
0.00386878
0.0018363
0.00113342
0.000974596
0.00100436
0.00126476
0.00153366
0.00151898
0.00141191
0.00143449
0.00185195
0.00335827
0.00441395
0.00446985
0.00411217
0.0031334
0.0022501
0.00165423
0.00127251
0.00104161
0.000888648
0.000800501
0.000739452
0.000714268
0.000707184
0.000718113
0.000737607
0.000785592
0.000887338
0.339753
0.157391
0.0845167
0.0504287
0.0322647
0.0221679
0.0161602
0.0129431
0.0114248
0.0111384
0.0113159
0.011929
0.0130558
0.014093
0.0156436
0.0172484
0.0190976
0.0220522
0.0240524
0.0266771
0.0298647
0.0316613
0.034003
0.0355063
0.0355965
0.0348591
0.0325643
0.0285201
0.0220554
0.013613
0.00660362
0.00290423
0.00146148
0.00100756
0.000950228
0.00102902
0.00147525
0.00179776
0.00176039
0.00155854
0.00145382
0.0016996
0.00289713
0.00407554
0.00422123
0.00396601
0.00313676
0.00226981
0.00167397
0.00128609
0.00104743
0.000888357
0.000794655
0.000729613
0.000701267
0.000691012
0.000700439
0.000718359
0.000763826
0.000862275
0.339775
0.157492
0.0846569
0.0506166
0.0324578
0.0222738
0.0161445
0.0126913
0.0109579
0.0104614
0.0105628
0.0110354
0.0120846
0.0131049
0.014631
0.0162165
0.0178625
0.0207503
0.0227523
0.025169
0.0283794
0.0301229
0.0322013
0.0333196
0.0331621
0.0321169
0.0293618
0.0249696
0.0182382
0.0104735
0.00488989
0.0021929
0.00120232
0.000938795
0.000943317
0.00110357
0.00179991
0.0021635
0.00209697
0.00180053
0.00150506
0.00162435
0.00250231
0.00374094
0.00397619
0.00379668
0.00311783
0.00227796
0.00168648
0.0012948
0.00104984
0.000885513
0.000786992
0.000718544
0.000687527
0.000674452
0.000682686
0.000699155
0.00074238
0.000838033
0.339801
0.157602
0.0847953
0.0507893
0.0326444
0.0223931
0.0161652
0.0125137
0.0105639
0.00983588
0.00983426
0.010154
0.0110405
0.0119988
0.0134488
0.0149951
0.0164226
0.019152
0.0211098
0.0233129
0.026434
0.0281454
0.0299965
0.0307581
0.0304163
0.0290667
0.0259143
0.0212668
0.0145505
0.00782306
0.00358769
0.00168531
0.00103324
0.000907519
0.000954453
0.00124989
0.00226066
0.00264346
0.00254021
0.00214436
0.00160345
0.00161108
0.00218319
0.00341482
0.00373524
0.00361364
0.00307361
0.00227441
0.00169156
0.00129856
0.0010489
0.000880219
0.000777655
0.000706443
0.000673214
0.000657808
0.000665067
0.000680289
0.000721541
0.000814898
0.33983
0.157718
0.0849348
0.0509498
0.0328231
0.02252
0.0162194
0.0124057
0.0102494
0.0092965
0.00912975
0.00932557
0.00999816
0.0108423
0.01216
0.0136373
0.0148512
0.0173285
0.019188
0.021166
0.0240854
0.0257393
0.0273749
0.0278301
0.0273449
0.0257226
0.0222893
0.0175197
0.0111761
0.00570951
0.00263697
0.00133577
0.000933494
0.000897066
0.00100224
0.00149663
0.00287416
0.00324775
0.00310002
0.00259581
0.0017729
0.0016246
0.00197774
0.00308019
0.00349808
0.00342318
0.0030047
0.00225956
0.00168928
0.00129742
0.00104452
0.000872593
0.000766813
0.000693524
0.000658524
0.000641364
0.000647829
0.000662031
0.00070159
0.000793156
0.33986
0.15784
0.0850775
0.0511014
0.0329935
0.0226498
0.0162993
0.0123582
0.0100156
0.00885013
0.00848414
0.00856598
0.00901112
0.0097017
0.0108338
0.0122049
0.0132228
0.015372
0.0170803
0.01881
0.0214351
0.0229791
0.0243755
0.0245851
0.023989
0.0221345
0.0186003
0.0138899
0.00828277
0.00411338
0.00196791
0.0011055
0.000884235
0.000898482
0.00109736
0.00188994
0.00364585
0.00398131
0.0037824
0.00315849
0.00202762
0.00166263
0.00185797
0.00276661
0.00326664
0.00323001
0.00291442
0.00223364
0.00167975
0.00129134
0.0010368
0.000862797
0.00075466
0.000680008
0.00064368
0.00062539
0.00063123
0.000644645
0.000682807
0.000773091
0.339891
0.157966
0.0852242
0.0512469
0.0331559
0.0227801
0.0163932
0.0123592
0.00985742
0.00849724
0.00792538
0.00787719
0.00812281
0.00863223
0.00953738
0.0107638
0.0116008
0.0133885
0.0148971
0.0163545
0.0186155
0.0199919
0.0211029
0.0211305
0.0204466
0.0184351
0.0149812
0.0105726
0.0059703
0.00296603
0.00151313
0.000963065
0.000864098
0.000923594
0.00125946
0.00249889
0.00454695
0.004843
0.00458792
0.00383182
0.00237417
0.00173537
0.00180259
0.0024897
0.00304414