/*--------------------------------*- C++ -*----------------------------------*\
| =========                 |                                                 |
| \\      /  F ield         | OpenFOAM: The Open Source CFD Toolbox           |
|  \\    /   O peration     | Version:  2.4.0                                 |
|   \\  /    A nd           | Web:      www.OpenFOAM.org                      |
|    \\/     M anipulation  |                                                 |
\*---------------------------------------------------------------------------*/
FoamFile
{
    version     2.0;
    format      ascii;
    class       volVectorField;
    location    "2.47";
    object      U;
}
// * * * * * * * * * * * * * * * * * * * * * * * * * * * * * * * * * * * * * //

dimensions      [0 1 -1 0 0 0 0];

internalField   nonuniform List<vector> 
6000
(
(0.513443 -0.043056 -5.01813e-18)
(-0.317862 0.0668589 0)
(0.11291 -0.0275582 1.11305e-17)
(0.00631962 -0.0011831 0)
(0.00737585 -0.000276972 0)
(-0.0278979 0.00526456 0)
(0.00114018 -0.000262559 4.73558e-18)
(-0.0132457 0.00267469 -1.96658e-22)
(-0.0140782 0.00337778 0)
(-0.0398692 0.00738124 0)
(-0.0507214 0.00769261 3.90866e-18)
(-0.0330067 0.00105695 -7.69816e-18)
(0.0534775 -0.0152649 0)
(0.202916 -0.0370393 0)
(0.357581 -0.0479232 -1.49659e-18)
(0.39929 -0.0407166 0)
(0.278627 -0.0241954 0)
(0.1803 -0.0186541 -1.38784e-18)
(0.201331 -0.0201355 -1.41751e-18)
(0.172352 -0.00838184 0)
(-0.0352057 0.0184948 1.00723e-18)
(-0.288878 0.0377575 2.59443e-19)
(-0.491913 0.0417312 -5.43636e-20)
(-0.619831 0.0384188 0)
(-0.68944 0.0324783 0)
(-0.716031 0.0252334 0)
(-0.709019 0.0170216 -2.39346e-20)
(-0.680008 0.00943514 -3.41159e-20)
(-0.632856 0.00248494 0)
(-0.569128 -0.00361317 0)
(-0.490148 -0.00855143 3.77789e-20)
(-0.397458 -0.0120062 0)
(-0.293618 -0.0136381 5.06285e-19)
(-0.182836 -0.0131254 -5.95723e-19)
(-0.0707339 -0.0102137 0)
(0.0352879 -0.00519828 0)
(0.128166 0.00128712 1.46894e-18)
(0.20296 0.00811628 0)
(0.256133 0.0144206 1.46378e-18)
(0.287576 0.0198279 0)
(0.298804 0.0242352 0)
(0.295021 0.0263972 2.84281e-18)
(0.286523 0.0276955 -5.66814e-18)
(0.279254 0.0289701 0)
(0.27501 0.030569 0)
(0.273985 0.0325751 2.86454e-18)
(0.276164 0.0350512 0)
(0.281561 0.0381163 0)
(0.290087 0.0415858 -5.87966e-18)
(0.302097 0.0453893 -5.93927e-18)
(0.317769 0.0500251 -5.99031e-18)
(0.337076 0.0555877 -3.76864e-21)
(0.359762 0.0620944 6.02814e-18)
(0.386231 0.0696482 0)
(0.415591 0.0782656 -7.12524e-21)
(0.451452 0.0884214 -5.66484e-18)
(0.486212 0.0994765 5.24079e-18)
(0.544574 0.114532 4.66437e-18)
(0.569004 0.126039 1.84517e-20)
(0.703429 0.156323 0)
(0.726693 -0.108529 3.64026e-18)
(-0.209228 0.0626055 6.37535e-18)
(0.092695 -0.0317 -5.40132e-18)
(-0.0268751 0.00964944 -5.68847e-18)
(0.00773211 0.000556527 0)
(-0.0380299 0.00746594 0)
(-0.00560208 0.000514817 -4.65206e-18)
(-0.0224464 0.0046715 8.92472e-18)
(-0.025452 0.00625108 0)
(-0.0527254 0.0107726 0)
(-0.0619043 0.00961437 -3.77443e-18)
(-0.0436676 -0.000671244 3.66386e-18)
(0.040564 -0.0226288 1.80312e-18)
(0.190313 -0.0508067 0)
(0.345535 -0.0591185 1.41973e-18)
(0.433412 -0.044246 0)
(0.375682 -0.023884 0)
(0.264103 -0.0188674 0)
(0.228448 -0.0176006 0)
(0.110891 0.0133777 0)
(-0.242506 0.0604172 -2.44826e-22)
(-0.540791 0.0764006 0)
(-0.689093 0.0669734 -4.64413e-20)
(-0.745718 0.0528928 0)
(-0.763552 0.0402093 0)
(-0.759963 0.0285376 -5.81298e-20)
(-0.741311 0.0178063 2.29535e-20)
(-0.705246 0.0073518 2.09018e-21)
(-0.65188 -0.00227714 5.17057e-20)
(-0.582756 -0.0108052 0)
(-0.499064 -0.0178741 -3.56695e-20)
(-0.402229 -0.0230675 -1.90212e-19)
(-0.294693 -0.0258831 -1.89551e-21)
(-0.180512 -0.0258248 5.61776e-19)
(-0.0650406 -0.0225556 -6.31792e-19)
(0.0454812 -0.0165316 0)
(0.144451 -0.00792796 0)
(0.227084 0.0020265 0)
(0.289807 0.0122812 0)
(0.331235 0.021714 0)
(0.353652 0.0293419 -2.82873e-18)
(0.362008 0.0345829 0)
(0.360205 0.0378137 2.80298e-18)
(0.353699 0.0398088 2.80441e-18)
(0.347088 0.0414459 0)
(0.343011 0.0432449 0)
(0.342669 0.0454622 0)
(0.346669 0.0482646 0)
(0.35554 0.0518392 5.82603e-18)
(0.369177 0.0566012 0)
(0.387228 0.0623112 0)
(0.409464 0.069092 -5.95796e-18)
(0.435641 0.077036 -5.96049e-18)
(0.466187 0.0862924 0)
(0.500291 0.0968548 -1.15892e-17)
(0.541551 0.109353 0)
(0.582716 0.122844 -1.0318e-17)
(0.648014 0.14148 -4.55253e-18)
(0.682063 0.15578 3.25158e-18)
(0.837188 0.193804 2.23872e-18)
(0.798585 -0.0913303 -3.36075e-19)
(-0.0778278 0.0479914 -5.95829e-18)
(0.067284 -0.0274976 0)
(-0.0581187 0.0176538 5.6358e-18)
(0.00459263 0.00150089 0)
(-0.0422255 0.00828305 0)
(-0.0112878 0.00135391 0)
(-0.0282457 0.00629382 -4.3668e-18)
(-0.0324521 0.00889093 0)
(-0.0593976 0.0131784 -3.85106e-18)
(-0.0692892 0.0102416 0)
(-0.0527717 -0.00397051 0)
(0.026573 -0.031096 -1.69638e-18)
(0.170948 -0.0632479 0)
(0.325771 -0.0683232 0)
(0.412098 -0.0429263 0)
(0.378342 -0.0164053 0)
(0.282143 -0.0129403 0)
(0.212864 -0.00350471 0)
(-0.00497898 0.0528537 1.22695e-18)
(-0.389106 0.105687 -9.16398e-19)
(-0.61426 0.10238 0)
(-0.695334 0.0763176 6.01061e-21)
(-0.736612 0.055697 7.79624e-20)
(-0.756349 0.039954 0)
(-0.756295 0.0261149 1.12383e-19)
(-0.737637 0.0134183 0)
(-0.700583 0.00130349 2.87363e-20)
(-0.646638 -0.00994644 -4.86364e-20)
(-0.577137 -0.0199472 0)
(-0.493218 -0.0283502 0)
(-0.396252 -0.0346804 1.78593e-19)
(-0.288629 -0.0382951 -1.87629e-21)
(-0.174344 -0.0385225 0)
(-0.0586073 -0.0349166 1.19882e-18)
(0.0524888 -0.0279768 0)
(0.152394 -0.0178244 1.35872e-18)
(0.23641 -0.00588281 0)
(0.301078 0.00654584 0)
(0.345553 0.0180817 0)
(0.37196 0.0275327 2.79601e-18)
(0.384272 0.0347078 0)
(0.386609 0.0394104 0)
(0.38336 0.0423092 -2.78903e-18)
(0.378638 0.0443124 0)
(0.375471 0.0461298 0)
(0.375674 0.0482206 2.84313e-18)
(0.380233 0.050876 -2.87009e-18)
(0.38961 0.054381 -2.89893e-18)
(0.403829 0.0588146 0)
(0.422722 0.0643809 0)
(0.446231 0.0711465 0)
(0.474147 0.0791682 5.9216e-18)
(0.506857 0.0885523 5.87584e-18)
(0.543665 0.0993646 5.76519e-18)
(0.587906 0.112002 0)
(0.633061 0.126142 5.13309e-18)
(0.702018 0.144206 9.05398e-18)
(0.740886 0.160731 0)
(0.902812 0.195599 -2.22646e-18)
(0.836415 -0.0599201 -2.63436e-19)
(0.0438817 0.0394652 5.49718e-18)
(0.0469465 -0.0200875 -5.24779e-18)
(-0.0773244 0.022438 0)
(0.000954795 0.00187797 0)
(-0.0447304 0.00897391 0)
(-0.0163846 0.00208382 0)
(-0.0329805 0.00772602 0)
(-0.0381057 0.0112532 0)
(-0.064798 0.0154854 3.75529e-18)
(-0.0759961 0.0111781 3.53102e-18)
(-0.0621233 -0.0068132 0)
(0.0114668 -0.0393211 0)
(0.148716 -0.0754816 0)
(0.303171 -0.0775398 1.28312e-18)
(0.389277 -0.0422838 0)
(0.362611 -0.00858173 1.12823e-18)
(0.277252 -0.00371004 -1.28927e-18)
(0.175297 0.0185113 0)
(-0.120276 0.0970572 -1.18803e-18)
(-0.470222 0.143647 0)
(-0.616143 0.117955 -2.07597e-19)
(-0.678759 0.0821043 6.79932e-20)
(-0.723555 0.0588084 -7.41323e-20)
(-0.745722 0.0409106 0)
(-0.746583 0.0250532 -5.42264e-20)
(-0.727815 0.0100024 0)
(-0.690726 -0.00410928 2.30247e-20)
(-0.636908 -0.0171708 0)
(-0.567626 -0.0288535 0)
(-0.483996 -0.0388043 0)
(-0.387357 -0.0464791 1.68441e-19)
(-0.280077 -0.0510819 -8.49114e-19)
(-0.166136 -0.051757 0)
(-0.0507097 -0.0479327 -5.77057e-19)
(0.0599817 -0.0399217 0)
(0.159595 -0.0280043 -1.318e-18)
(0.243643 -0.0138266 0)
(0.30866 0.00101611 0)
(0.353623 0.0148794 0)
(0.380491 0.0265271 2.75323e-18)
(0.393452 0.0350879 0)
(0.397067 0.0406965 2.75658e-18)
(0.395439 0.0441964 -2.7657e-18)
(0.392046 0.0464953 0)
(0.3896 0.0483468 -2.80181e-18)
(0.39 0.0503047 -5.65363e-18)
(0.394442 0.0527868 2.85487e-18)
(0.403552 0.0560576 5.76598e-18)
(0.417625 0.0601919 -5.81113e-18)
(0.436637 0.0655295 -5.8512e-18)
(0.460483 0.0721857 0)
(0.488963 0.0802337 -5.87847e-18)
(0.522432 0.0897536 -5.83042e-18)
(0.560275 0.100861 -5.69932e-18)
(0.605618 0.113754 0)
(0.652494 0.12862 0)
(0.72246 0.146361 -4.4729e-18)
(0.764525 0.164676 0)
(0.925097 0.195457 2.13873e-18)
(0.861435 -0.0344593 -2.46479e-19)
(0.153291 0.0355627 -8.98633e-20)
(0.0537071 -0.0142116 5.19863e-18)
(-0.086714 0.0249032 5.56501e-18)
(-0.00277553 0.0018974 0)
(-0.0466309 0.0095723 -4.78394e-18)
(-0.0209773 0.00278298 0)
(-0.0371679 0.00908309 0)
(-0.0430739 0.0135037 0)
(-0.0696859 0.0177892 3.683e-18)
(-0.0825467 0.0121794 -3.46221e-18)
(-0.0718819 -0.00924106 0)
(-0.00469584 -0.0469803 0)
(0.123947 -0.087234 0)
(0.277761 -0.0867838 -1.25433e-18)
(0.365258 -0.0420268 0)
(0.342404 -0.000940522 -1.10604e-18)
(0.262335 0.00802121 1.26585e-18)
(0.122313 0.0472599 0)
(-0.216555 0.139825 0)
(-0.504789 0.170928 3.98265e-19)
(-0.600279 0.127464 1.99731e-19)
(-0.664469 0.0876218 -5.20531e-20)
(-0.710522 0.062125 7.98502e-20)
(-0.732967 0.0417417 0)
(-0.733784 0.0235248 -5.63438e-20)
(-0.714901 0.00640852 0)
(-0.677907 -0.00970095 -2.21545e-20)
(-0.624316 -0.0245974 4.12963e-20)
(-0.555371 -0.0379764 0)
(-0.472159 -0.0494776 0)
(-0.375992 -0.0584837 -3.25042e-19)
(-0.269214 -0.0640387 4.10657e-19)
(-0.155825 -0.0651022 0)
(-0.0410351 -0.0609803 -5.588e-19)
(0.0687538 -0.0518963 0)
(0.167474 -0.0383055 1.28329e-18)
(0.250953 -0.0219896 0)
(0.315873 -0.00475272 0)
(0.360848 0.0114265 0)
(0.387367 0.0248266 -2.72209e-18)
(0.399625 0.03461 -2.72904e-18)
(0.4027 0.0410285 -2.73234e-18)
(0.40099 0.0449386 1.67914e-21)
(0.397803 0.0473343 -2.75852e-18)
(0.395539 0.0490381 2.7815e-18)
(0.395949 0.0506557 5.61079e-18)
(0.400266 0.0526161 0)
(0.409267 0.05527 -2.86129e-18)
(0.423241 0.0591544 5.76523e-18)
(0.44222 0.0642211 5.79921e-18)
(0.466148 0.0706086 0)
(0.494819 0.0784141 0)
(0.528566 0.0877075 0)
(0.566802 0.0986095 5.62265e-18)
(0.612549 0.111246 0)
(0.660126 0.125911 0)
(0.730301 0.14311 4.34683e-18)
(0.773995 0.161183 -3.04888e-18)
(0.932095 0.189616 -2.07258e-18)
(0.880219 -0.013721 -2.28007e-19)
(0.250985 0.0348135 -5.07261e-18)
(0.0809858 -0.00935145 0)
(-0.087527 0.0264607 -5.54176e-18)
(-0.00640395 0.00176909 -4.99765e-18)
(-0.0481593 0.0101231 4.74354e-22)
(-0.0250024 0.0034446 0)
(-0.0408874 0.0103759 0)
(-0.047474 0.0156689 0)
(-0.0741332 0.0200996 -3.62806e-18)
(-0.0888339 0.0133489 0)
(-0.0817518 -0.0112017 0)
(-0.0214219 -0.0538442 1.53291e-18)
(0.0974274 -0.0982845 0)
(0.249918 -0.0959023 0)
(0.339617 -0.0420131 0)
(0.320144 0.00657075 0)
(0.241411 0.0222866 -1.24258e-18)
(0.0616353 0.0801315 0)
(-0.288523 0.178303 1.07832e-18)
(-0.512132 0.189928 -3.8678e-19)
(-0.583949 0.134931 -1.69537e-19)
(-0.650895 0.0933097 3.65074e-20)
(-0.696062 0.065397 -1.592e-19)
(-0.717954 0.0424928 0)
(-0.71841 0.0219528 5.46284e-20)
(-0.699396 0.00272527 0)
(-0.662511 -0.0153391 0)
(-0.609185 -0.0320353 -7.91122e-20)
(-0.540644 -0.0470736 0)
(-0.457944 -0.0600881 0)
(-0.362356 -0.0703889 3.14922e-19)
(-0.256202 -0.0768586 0)
(-0.14351 -0.078272 0)
(-0.029565 -0.073809 5.4582e-19)
(0.0790313 -0.0636454 0)
(0.176448 -0.0484257 -1.25665e-18)
(0.258834 -0.0300691 0)
(0.323257 -0.010532 0)
(0.368156 0.0079392 0)
(0.394311 0.023258 0)
(0.405548 0.0343477 2.7104e-18)
(0.407344 0.0414311 2.70931e-18)
(0.404658 0.045568 1.72209e-21)
(0.400965 0.0479393 2.7391e-18)
(0.3985 0.0494575 2.759e-18)
(0.398818 0.050777 -2.78484e-18)
(0.403064 0.0524195 0)
(0.411975 0.0548329 -2.8366e-18)
(0.425927 0.0581811 2.85509e-18)
(0.444935 0.0628317 -5.73584e-18)
(0.468933 0.0689002 0)
(0.497716 0.0764494 0)
(0.531606 0.0855238 -5.65593e-18)
(0.570028 0.0962434 -5.51476e-18)
(0.61597 0.108665 5.27019e-18)
(0.663841 0.123212 4.84025e-18)
(0.734139 0.139884 -4.23994e-18)
(0.778521 0.158207 2.95755e-18)
(0.934785 0.18427 0)
(0.895288 0.0050247 -2.04954e-19)
(0.337829 0.0365082 0)
(0.119779 -0.0041345 4.95463e-18)
(-0.0773252 0.0271693 5.47635e-18)
(-0.00958538 0.00171483 -3.79614e-22)
(-0.0493362 0.0106194 4.69951e-18)
(-0.0283616 0.00405234 0)
(-0.0440834 0.0115982 0)
(-0.051253 0.0177473 0)
(-0.0780253 0.0224053 1.79092e-18)
(-0.0946146 0.0146729 1.67977e-18)
(-0.0913366 -0.0127241 0)
(-0.038145 -0.0599167 -1.51524e-18)
(0.0701604 -0.108657 1.44179e-18)
(0.220011 -0.1049 0)
(0.312381 -0.0422068 0)
(0.296415 0.0140194 0)
(0.216058 0.0390238 3.77222e-21)
(-0.000263255 0.114919 0)
(-0.338118 0.211541 -2.0774e-18)
(-0.505646 0.203775 3.45511e-19)
(-0.569337 0.141832 1.63147e-19)
(-0.636367 0.0989756 -7.39594e-21)
(-0.679813 0.0684908 7.98044e-20)
(-0.700783 0.043105 0)
(-0.700744 0.0202911 0)
(-0.681579 -0.00101268 0)
(-0.644803 -0.0209855 7.02827e-21)
(-0.591775 -0.0394403 7.48966e-20)
(-0.523696 -0.0561004 0)
(-0.441587 -0.0705964 0)
(-0.34667 -0.0821665 -3.06197e-19)
(-0.241236 -0.0895277 -1.9358e-19)
(-0.129344 -0.0912658 0)
(-0.0163784 -0.086424 0)
(0.0908567 -0.0751499 0)
(0.186699 -0.0583065 0)
(0.267527 -0.0379774 0)
(0.33095 -0.0162456 0)
(0.375583 0.00447504 0)
(0.40155 0.0217735 0)
(0.411923 0.0342304 0)
(0.412238 0.0419841 -2.07381e-21)
(0.408104 0.0462831 2.7056e-18)
(0.403443 0.0485399 0)
(0.400495 0.0498036 -5.48645e-18)
(0.400618 0.0507825 -2.76637e-18)
(0.404794 0.0520099 0)
(0.413699 0.0539217 2.81977e-18)
(0.427658 0.0569194 -2.83628e-18)
(0.446707 0.0612315 5.69194e-18)
(0.470774 0.0669901 -5.68849e-18)
(0.499651 0.0742709 0)
(0.533652 0.0831098 7.66725e-21)
(0.572212 0.0936128 5.43833e-18)
(0.618296 0.10581 -1.03573e-17)
(0.666377 0.12012 -1.48415e-20)
(0.736758 0.136415 -4.10492e-18)
(0.781691 0.154361 2.8226e-18)
(0.93644 0.178858 1.85764e-18)
(0.907599 0.0223179 7.35234e-20)
(0.414723 0.040096 0)
(0.165948 0.00176655 9.9132e-21)
(-0.0557583 0.0273923 -3.40808e-21)
(-0.0116022 0.00195589 5.01994e-18)
(-0.0501087 0.0110575 4.67199e-18)
(-0.0309604 0.00458772 0)
(-0.04665 0.0127376 4.10842e-18)
(-0.054292 0.0197245 0)
(-0.0811823 0.0246851 -1.77248e-18)
(-0.0996054 0.0161255 -2.99481e-21)
(-0.100228 -0.0138459 -1.55342e-18)
(-0.0543283 -0.0652516 0)
(0.0431328 -0.118371 -2.85637e-18)
(0.188196 -0.113752 0)
(0.28371 -0.0426591 0)
(0.271505 0.0214857 0)
(0.187052 0.0579958 1.20366e-18)
(-0.0594294 0.150025 0)
(-0.369587 0.239476 1.00235e-18)
(-0.493111 0.21441 -6.53937e-19)
(-0.555366 0.148488 0)
(-0.620369 0.104412 -7.69354e-21)
(-0.661788 0.0713515 0)
(-0.681648 0.0435657 0)
(-0.681049 0.0185429 5.94807e-20)
(-0.661719 -0.00478833 0)
(-0.625054 -0.0266281 -1.24564e-20)
(-0.572348 -0.0468052 -3.6062e-20)
(-0.504777 -0.0650556 -1.73746e-20)
(-0.423322 -0.0810082 2.70089e-20)
(-0.329152 -0.0938291 1.4973e-19)
(-0.224514 -0.102065 3.79181e-19)
(-0.113495 -0.104106 0)
(-0.00160182 -0.0988449 5.20717e-19)
(0.104175 -0.0864176 0)
(0.198283 -0.0679289 0)
(0.277204 -0.0456632 0)
(0.339093 -0.0218419 1.28154e-18)
(0.383084 0.00103874 0)
(0.408943 0.0203357 0)
(0.418779 0.0342564 2.67368e-18)
(0.417746 0.0427441 -2.67897e-18)
(0.411959 0.0471743 0)
(0.405992 0.0492315 0)
(0.402299 0.0501625 2.73195e-18)
(0.402098 0.050751 2.75585e-18)
(0.406171 0.0515549 -2.77992e-18)
(0.415061 0.053052 0)
(0.429049 0.0556367 0)
(0.448149 0.0595741 0)
(0.472284 0.0650108 4.93968e-21)
(0.50124 0.072015 0)
(0.535332 0.0806109 5.53306e-18)
(0.574002 0.0908835 0)
(0.620201 0.102854 5.10936e-18)
(0.668455 0.11689 -4.65988e-18)
(0.738902 0.132868 8.04384e-18)
(0.784294 0.150301 -2.7548e-18)
(0.937729 0.173618 -1.80593e-18)
(0.917639 0.0379536 1.70934e-19)
(0.482545 0.0450404 -4.46189e-18)
(0.216713 0.00832899 -4.67861e-18)
(-0.025467 0.027815 -3.38907e-21)
(-0.0113446 0.00261659 -5.03692e-18)
(-0.0503729 0.0114566 -4.6567e-18)
(-0.0327258 0.00503574 0)
(-0.0484693 0.0137797 -4.07554e-18)
(-0.0564478 0.0215796 0)
(-0.0834077 0.0269111 -1.755e-18)
(-0.103528 0.0176731 -1.64894e-18)
(-0.108045 -0.0146051 1.54396e-18)
(-0.0695146 -0.0699025 -1.4701e-18)
(0.0170994 -0.1274 1.41504e-18)
(0.154463 -0.122375 -1.20066e-18)
(0.253796 -0.043432 1.02124e-18)
(0.245616 0.0290592 0)
(0.154638 0.0788493 0)
(-0.113533 0.184279 0)
(-0.387258 0.262486 4.64047e-19)
(-0.478392 0.222888 3.09381e-19)
(-0.541031 0.154942 0)
(-0.60284 0.109508 1.02574e-21)
(-0.642118 0.0739662 0)
(-0.660772 0.0438755 0)
(-0.659583 0.0167116 -5.82282e-20)
(-0.640078 -0.008596 3.49679e-20)
(-0.603522 -0.0322638 5.46873e-21)
(-0.551151 -0.0541296 0)
(-0.484118 -0.0739406 3.37834e-20)
(-0.403367 -0.0913265 -5.27607e-20)
(-0.31 -0.105382 0)
(-0.206218 -0.114479 -1.8609e-19)
(-0.0961263 -0.116799 4.45521e-19)
(0.0146176 -0.111078 -5.12178e-19)
(0.118879 -0.0974519 0)
(0.211169 -0.0772817 0)
(0.28796 -0.0530846 0)
(0.347849 -0.0272627 -1.26596e-18)
(0.390697 -0.0023463 0)
(0.416333 0.0189104 0)
(0.425943 0.0343786 -2.65982e-18)
(0.423889 0.043702 0)
(0.416475 0.0482813 2.67651e-18)
(0.408982 0.0500785 -2.69757e-18)
(0.404298 0.0505995 0)
(0.403619 0.0507454 2.746e-18)
(0.407522 0.0511031 5.54545e-18)
(0.416383 0.0521609 -2.7978e-18)
(0.430395 0.0543293 0)
(0.449539 0.0578937 0)
(0.473726 0.0630057 2.81581e-18)
(0.502742 0.0697274 0)
(0.5369 0.0780738 5.48778e-18)
(0.575652 0.0881059 0)
(0.621941 0.0998471 5.04493e-18)
(0.670341 0.113583 4.58336e-18)
(0.740831 0.129282 -3.96204e-18)
(0.78663 0.1461 0)
(0.938866 0.168502 1.7367e-18)
(0.925816 0.0519376 -7.4757e-19)
(0.542141 0.0508916 7.40867e-20)
(0.269903 0.0154457 4.57248e-18)
(0.0117352 0.0288832 -3.55078e-21)
(-0.00780463 0.00372887 -5.07861e-22)
(-0.0499423 0.0118583 0)
(-0.0336144 0.00538774 0)
(-0.0494354 0.0147097 0)
(-0.0575785 0.0232899 -1.87134e-18)
(-0.0845154 0.0290531 3.47996e-18)
(-0.106135 0.0192812 0)
(-0.11446 -0.0150334 1.52315e-18)
(-0.083359 -0.0738342 9.15323e-21)
(-0.00756279 -0.135673 -1.39182e-18)
(0.118926 -0.130672 2.8446e-21)
(0.222905 -0.0446009 -1.02222e-18)
(0.218882 0.0368561 0)
(0.118455 0.101378 0)
(-0.1605 0.216571 0)
(-0.394754 0.281151 -4.53663e-19)
(-0.463063 0.229877 0)
(-0.525785 0.161156 1.07334e-19)
(-0.583868 0.114219 -1.66743e-20)
(-0.62097 0.0763385 9.82217e-20)
(-0.638375 0.0440411 0)
(-0.636583 0.0148047 0)
(-0.616894 -0.0124305 -3.42731e-20)
(-0.580442 -0.0378891 0)
(-0.52841 -0.0614108 3.08393e-20)
(-0.461932 -0.0827531 -1.64446e-20)
(-0.381916 -0.101549 2.58071e-20)
(-0.289395 -0.116823 -1.41573e-19)
(-0.186515 -0.126768 0)
(-0.0773912 -0.129344 -4.39574e-19)
(0.0321307 -0.123122 0)
(0.134842 -0.108256 0)
(0.225272 -0.08636 1.16197e-18)
(0.299811 -0.0602116 0)
(0.35735 -0.0324492 0)
(0.398533 -0.00563267 0)
(0.423648 0.0174904 0)
(0.433208 0.0345454 0)
(0.430531 0.0448155 0)
(0.421705 0.0496073 -5.32738e-18)
(0.412613 0.0511189 2.68814e-18)
(0.406736 0.0511608 2.71258e-18)
(0.405411 0.0508036 -5.48021e-18)
(0.409055 0.05068 -2.76803e-18)
(0.417849 0.0512832 2.79465e-18)
(0.431867 0.0530313 -2.80637e-18)
(0.451037 0.0562198 0)
(0.475253 0.0610033 2.32095e-21)
(0.504299 0.0674376 -5.5592e-18)
(0.538492 0.0755291 -5.46978e-18)
(0.577295 0.0853127 -5.28845e-18)
(0.623641 0.09682 -1.00274e-17)
(0.672158 0.110238 -4.55241e-18)
(0.742665 0.125679 3.89679e-18)
(0.78882 0.141826 2.61405e-18)
(0.939935 0.163489 -1.71347e-18)
(0.932502 0.0644724 -1.49059e-19)
(0.594314 0.0573059 4.26985e-18)
(0.323826 0.0229936 2.39355e-21)
(0.0551074 0.0306405 -3.91804e-21)
(-0.000132658 0.00567735 4.9774e-18)
(-0.0484895 0.0123193 4.66502e-18)
(-0.0336068 0.00564511 -4.27326e-18)
(-0.0494735 0.0155143 2.00911e-18)
(-0.0575639 0.0248334 -4.8098e-22)
(-0.0843495 0.0310832 -1.72576e-18)
(-0.107228 0.0209186 -1.61647e-18)
(-0.11922 -0.0151584 -1.51719e-18)
(-0.0955668 -0.0770964 2.88158e-18)
(-0.030657 -0.142983 7.40984e-21)
(0.0821991 -0.138626 1.19816e-18)
(0.191435 -0.0462512 0)
(0.191357 0.0450058 1.01606e-18)
(0.0794073 0.124965 0)
(-0.199401 0.246231 -1.06091e-18)
(-0.394869 0.296114 -4.16656e-19)
(-0.447574 0.23582 -2.4932e-19)
(-0.509396 0.167065 -1.03089e-20)
(-0.563583 0.118542 1.63121e-20)
(-0.598512 0.078477 -9.61553e-20)
(-0.614657 0.0440708 0)
(-0.61226 0.0128297 6.43098e-20)
(-0.592381 -0.0162868 0)
(-0.556025 -0.0435005 0)
(-0.504326 -0.0686463 -3.03096e-20)
(-0.438407 -0.0914905 0)
(-0.359144 -0.111674 0)
(-0.267498 -0.128151 1.39691e-19)
(-0.165555 -0.138931 0)
(-0.0574325 -0.141742 0)
(0.0507955 -0.134979 4.92885e-19)
(0.151938 -0.118833 0)
(0.240485 -0.0951648 -1.14615e-18)
(0.312713 -0.0670281 0)
(0.367674 -0.0373542 1.23094e-18)
(0.406718 -0.00876308 0)
(0.430894 0.0160923 0)
(0.440416 0.034717 0)
(0.437485 0.0460302 0)
(0.427585 0.051128 2.6504e-18)
(0.416969 0.052366 0)
(0.409775 0.0518769 -5.4093e-18)
(0.407648 0.0509553 2.73467e-18)
(0.410927 0.0503094 -2.76235e-18)
(0.419599 0.0504389 2.79016e-18)
(0.433592 0.05176 2.80505e-18)
(0.45276 0.0545693 0)
(0.476974 0.0590213 2.79981e-18)
(0.506014 0.0651638 8.32479e-18)
(0.540202 0.0729946 -5.44671e-18)
(0.579016 0.0825222 5.27676e-18)
(0.625383 0.0937894 4.99416e-18)
(0.673981 0.106878 0)
(0.744473 0.122067 -3.8773e-18)
(0.790935 0.137517 -5.16954e-18)
(0.940979 0.158555 0)
(0.938006 0.0757604 1.3234e-18)
(0.639816 0.0640176 0)
(0.377156 0.0308492 1.11672e-22)
(0.10286 0.0332414 -4.39081e-21)
(0.0142502 0.0081158 -4.89643e-18)
(-0.045444 0.0129282 -9.36986e-18)
(-0.0326868 0.00582491 8.52826e-18)
(-0.0485504 0.016183 -1.99518e-18)
(-0.056321 0.0261909 1.84252e-18)
(-0.0827987 0.0329778 0)
(-0.106672 0.0225599 3.76107e-21)
(-0.122151 -0.0149998 0)
(-0.105928 -0.0797022 -2.84699e-18)
(-0.0520487 -0.149177 1.36859e-18)
(0.0455182 -0.146303 0)
(0.159847 -0.0484381 0)
(0.163039 0.0535995 -1.01426e-18)
(0.0390728 0.148926 0)
(-0.230438 0.272923 1.03966e-18)
(-0.389684 0.30798 4.07711e-19)
(-0.431921 0.240997 1.34314e-20)
(-0.491805 0.172609 -9.25577e-20)
(-0.54212 0.122485 3.17107e-20)
(-0.574901 0.0803923 0)
(-0.589796 0.0439733 0)
(-0.586798 0.0107934 -6.31116e-20)
(-0.566726 -0.0201601 0)
(-0.530457 -0.0490951 -2.32762e-22)
(-0.479079 -0.0758342 -2.70253e-20)
(-0.413713 -0.100152 1.49256e-20)
(-0.33521 -0.121698 -2.40926e-20)
(-0.244456 -0.139364 1.35403e-19)
(-0.143475 -0.150969 -1.74718e-19)
(-0.0363819 -0.153989 4.23378e-19)
(0.0704825 -0.146647 -4.86509e-19)
(0.170046 -0.129188 0)
(0.256691 -0.1037 0)
(0.326585 -0.0735288 0)
(0.378838 -0.0419446 -2.71089e-21)
(0.415366 -0.0116818 1.25086e-18)
(0.438136 0.0147502 0)
(0.447471 0.034873 0)
(0.444559 0.0472916 0)
(0.43398 0.0528014 0)
(0.422042 0.0538123 0)
(0.413507 0.0527647 1.46798e-21)
(0.410455 0.0512236 0)
(0.413258 0.0500114 5.51789e-18)
(0.42174 0.0496442 -5.577e-18)
(0.435665 0.0505288 -2.8015e-18)
(0.454797 0.0529552 0)
(0.47897 0.0570727 0)
(0.507963 0.0629192 -5.54036e-18)
(0.542102 0.0704835 6.6523e-21)
(0.580884 0.0797478 -5.25517e-18)
(0.627227 0.0907669 4.96737e-18)
(0.675868 0.103518 4.48755e-18)
(0.746306 0.118452 -3.83715e-18)
(0.793026 0.133196 5.11169e-18)
(0.942031 0.153682 1.64743e-18)
(0.94258 0.0859511 1.31799e-19)
(0.679356 0.0708175 -3.98847e-18)
(0.428878 0.0388959 -8.59895e-18)
(0.15355 0.0367439 -4.99952e-21)
(0.0354211 0.0110008 4.79729e-18)
(-0.0398602 0.0137985 4.70254e-18)
(-0.0308052 0.00596808 -2.13169e-18)
(-0.0466759 0.0167097 0)
(-0.0538151 0.0273473 0)
(-0.0798053 0.0347196 1.69654e-18)
(-0.1044 0.0241868 1.5907e-18)
(-0.123165 -0.0145683 0)
(-0.114306 -0.08165 1.41089e-18)
(-0.0716095 -0.154312 0)
(0.0104364 -0.153668 0)
(0.128404 -0.0511239 0)
(0.133848 0.0626673 0)
(-0.00117233 0.172716 1.07798e-18)
(-0.254216 0.296446 4.94193e-19)
(-0.380708 0.317271 -3.72803e-19)
(-0.415957 0.245574 1.26321e-20)
(-0.47304 0.177747 0)
(-0.519606 0.126065 -3.1093e-20)
(-0.550278 0.0820953 0)
(-0.563943 0.043757 0)
(-0.560355 0.00870219 -6.77904e-20)
(-0.540091 -0.0240464 4.35258e-20)
(-0.503901 -0.054671 2.28887e-22)
(-0.452829 -0.0829742 2.66109e-20)
(-0.388003 -0.108736 -2.908e-20)
(-0.310257 -0.131623 4.72417e-20)
(-0.220402 -0.150463 -1.33958e-19)
(-0.120398 -0.16288 1.73064e-19)
(-0.014375 -0.166082 -2.30455e-21)
(0.0910857 -0.15813 -4.7685e-19)
(0.189057 -0.139325 0)
(0.273781 -0.111971 0)
(0.341329 -0.0797144 0)
(0.39081 -0.0462008 -2.40645e-18)
(0.42455 -0.0143412 -1.24132e-18)
(0.445461 0.0135081 0)
(0.454336 0.035012 0)
(0.451596 0.0485544 -2.59821e-18)
(0.440722 0.0545768 0)
(0.427758 0.0554329 0)
(0.417956 0.0538269 5.37059e-18)
(0.413909 0.0516235 -2.7198e-18)
(0.416138 0.0498017 -5.50892e-18)
(0.424353 0.0489111 1.39449e-21)
(0.438158 0.0493477 5.60132e-18)
(0.457213 0.0513869 2.80074e-18)
(0.481305 0.0551671 0)
(0.510206 0.0607137 2.76844e-18)
(0.54425 0.0680057 5.43534e-18)
(0.582951 0.0769997 5.25418e-18)
(0.629224 0.0877621 -4.96604e-18)
(0.677863 0.100167 -4.48488e-18)
(0.748204 0.114838 3.83401e-18)
(0.795132 0.128879 -2.54196e-18)
(0.943115 0.148862 -1.64441e-18)
(0.946431 0.095166 1.2455e-19)
(0.713594 0.077546 3.95412e-18)
(0.478233 0.0470218 3.69696e-21)
(0.206004 0.0411053 -5.69245e-21)
(0.0625747 0.0145556 0)
(-0.0303546 0.0149028 0)
(-0.0278268 0.00614578 4.65868e-22)
(-0.0438929 0.0170959 0)
(-0.0500628 0.028292 0)
(-0.0753672 0.0362976 -7.12657e-22)
(-0.100407 0.0257879 0)
(-0.122242 -0.0138695 0)
(-0.120621 -0.0829381 1.38065e-18)
(-0.089112 -0.158456 0)
(-0.0217477 -0.16067 0)
(0.0968165 -0.0541358 0)
(0.103551 0.0721616 0)
(-0.040232 0.195856 -5.09813e-21)
(-0.271471 0.316735 -4.85716e-19)
(-0.369015 0.324424 7.17971e-19)
(-0.399522 0.249652 1.18153e-20)
(-0.453168 0.182456 6.0665e-20)
(-0.496152 0.129301 0)
(-0.524764 0.083597 -1.16148e-19)
(-0.537229 0.0434303 0)
(-0.533066 0.00656192 6.66121e-20)
(-0.512615 -0.027942 2.89515e-21)
(-0.476499 -0.0602266 0)
(-0.425718 -0.0900664 0)
(-0.361415 -0.117245 3.65281e-22)
(-0.284414 -0.141449 -3.65447e-22)
(-0.195456 -0.161447 6.49427e-20)
(-0.0964359 -0.174664 0)
(0.00846797 -0.178023 -4.13093e-19)
(0.112505 -0.169429 4.71861e-19)
(0.208868 -0.149247 0)
(0.291652 -0.119982 -1.09609e-18)
(0.356845 -0.085589 0)
(0.403531 -0.0501134 3.13724e-21)
(0.434303 -0.0167042 0)
(0.452955 0.0124129 1.26407e-18)
(0.461024 0.0351483 1.28854e-18)
(0.458475 0.0497858 2.93545e-21)
(0.447643 0.0564025 -2.60425e-18)
(0.433998 0.0571914 0)
(0.42309 0.0550528 -1.44176e-21)
(0.41804 0.052161 2.71333e-18)
(0.419617 0.0496907 1.28741e-21)
(0.427489 0.0482489 2.78381e-18)
(0.441117 0.048224 -1.50905e-21)
(0.460048 0.0498706 -1.7652e-21)
(0.484017 0.0533108 0)
(0.512782 0.0585543 0)
(0.546684 0.0655688 0)
(0.585258 0.0742857 0)
(0.631411 0.0847824 0)
(0.680004 0.0968352 4.46227e-18)
(0.750202 0.111233 0)
(0.797288 0.124579 0)
(0.944251 0.144086 -1.61739e-18)
(0.949729 0.103518 -9.72073e-19)
(0.74315 0.0840877 0)
(0.524681 0.0551188 5.20298e-21)
(0.259224 0.0462234 -6.40944e-21)
(0.0950552 0.0188444 0)
(-0.0157747 0.0163026 2.32942e-18)
(-0.023472 0.00644854 -2.14712e-18)
(-0.0402579 0.0173537 0)
(-0.0451283 0.029019 0)
(-0.069533 0.0377062 -1.66913e-18)
(-0.0947465 0.0273578 0)
(-0.119419 -0.0129075 0)
(-0.124819 -0.0835733 -1.37244e-18)
(-0.104278 -0.161631 0)
(-0.0506864 -0.167188 -1.17959e-18)
(0.0641295 -0.0571803 0)
(0.0716706 0.0820048 0)
(-0.0771305 0.217927 -3.36353e-21)
(-0.28294 0.333836 0)
(-0.355352 0.329797 -3.45922e-19)
(-0.38248 0.253292 1.93086e-19)
(-0.432273 0.186728 -1.10338e-19)
(-0.471859 0.132211 -5.23147e-20)
(-0.498465 0.0849083 1.14071e-19)
(-0.509765 0.043001 0)
(-0.505045 0.00437816 7.1284e-20)
(-0.484417 -0.0318433 -9.27756e-20)
(-0.448372 -0.0657607 0)
(-0.397869 -0.0971111 -1.07904e-20)
(-0.334072 -0.125679 1.36456e-20)
(-0.257801 -0.151178 -2.25848e-20)
(-0.169732 -0.172319 -6.43913e-20)
(-0.071693 -0.186321 0)
(0.0320388 -0.18981 -4.04899e-19)
(0.134647 -0.180546 4.63127e-19)
(0.229387 -0.158955 0)
(0.310211 -0.127736 1.08688e-18)
(0.373038 -0.0911573 0)
(0.416924 -0.0536798 1.17993e-18)
(0.444624 -0.0187444 0)
(0.460689 0.0115095 -1.25784e-18)
(0.467573 0.035308 -1.28306e-18)
(0.465123 0.0509674 3.07436e-21)
(0.454585 0.0582308 2.59224e-18)
(0.440619 0.0590444 0)
(0.428833 0.0564209 -2.66424e-18)
(0.422833 0.0528331 0)
(0.423713 0.0496833 2.74421e-18)
(0.431172 0.0476634 0)
(0.444564 0.047162 -2.79756e-18)
(0.463323 0.0484099 -5.59491e-18)
(0.487125 0.0515073 0)
(0.515713 0.0564448 0)
(0.549429 0.0631772 0)
(0.58783 0.0716113 2.61702e-18)
(0.633817 0.0818335 0)
(0.682319 0.0935286 -1.15955e-20)
(0.752324 0.107639 0)
(0.799521 0.120303 2.49746e-18)
(0.945459 0.139352 1.62017e-18)
(0.952612 0.111113 0)
(0.768601 0.090364 3.74704e-18)
(0.56786 0.0630863 4.10624e-18)
(0.312342 0.0519667 -7.09992e-21)
(0.132134 0.0238304 0)
(0.00423442 0.0181189 -2.29835e-18)
(-0.0172899 0.00697259 0)
(-0.0358082 0.0175102 1.96279e-18)
(-0.0391145 0.0295271 1.79291e-18)
(-0.0623929 0.0389438 1.65481e-18)
(-0.0875147 0.0288946 1.53889e-18)
(-0.114769 -0.0116879 1.43942e-18)
(-0.126876 -0.0835747 0)
(-0.116949 -0.163877 0)
(-0.0766045 -0.172977 1.16966e-18)
(0.0291956 -0.0600361 0)
(0.0379432 0.0921235 0)
(-0.110834 0.238386 -1.02795e-18)
(-0.289317 0.347875 0)
(-0.340227 0.333686 -3.17093e-19)
(-0.364734 0.256526 0)
(-0.410442 0.190565 4.98919e-20)
(-0.446813 0.134816 5.14247e-20)
(-0.471472 0.0860396 0)
(-0.481642 0.0424767 0)
(-0.476388 0.00215626 2.86471e-21)
(-0.455596 -0.0357469 4.70881e-20)
(-0.419625 -0.0712718 0)
(-0.369391 -0.104109 1.06514e-20)
(-0.306081 -0.134042 1.27601e-20)
(-0.230522 -0.160812 -2.16339e-20)
(-0.143328 -0.18308 0)
(-0.0462658 -0.197849 0)
(0.0562399 -0.201441 2.59154e-21)
(0.157423 -0.191483 -2.3369e-21)
(0.250525 -0.168453 0)
(0.32937 -0.135236 0)
(0.389819 -0.096424 1.1223e-18)
(0.430907 -0.0569015 0)
(0.455482 -0.020445 0)
(0.468713 0.0108368 0)
(0.474037 0.0355237 0)
(0.4715 0.0520942 2.5576e-18)
(0.461418 0.0600223 2.57615e-18)
(0.447469 0.0609463 0)
(0.435079 0.0579018 0)
(0.428238 0.0536289 2.69481e-18)
(0.428411 0.0497789 0)
(0.435402 0.0471568 0)
(0.448498 0.0461635 -2.79374e-18)
(0.467038 0.0470058 2.79585e-18)
(0.490632 0.0497574 0)
(0.519003 0.0543865 0)
(0.552493 0.060833 0)
(0.590681 0.0689793 -2.6184e-18)
(0.636458 0.078919 2.46833e-18)
(0.684827 0.0902517 -8.90731e-18)
(0.754593 0.104061 0)
(0.801854 0.11606 -2.50134e-18)
(0.946753 0.134657 -1.5979e-18)
(0.95519 0.118042 0)
(0.790479 0.0963247 -3.72677e-18)
(0.607559 0.0708349 0)
(0.364592 0.0581919 -6.50558e-18)
(0.173002 0.0294439 0)
(0.0296837 0.0204483 -2.25793e-18)
(-0.00867207 0.00786816 0)
(-0.0305152 0.0176129 -1.96321e-18)
(-0.0321512 0.0298209 -1.78286e-18)
(-0.054067 0.0400109 -1.6423e-18)
(-0.0788339 0.0303972 -1.526e-18)
(-0.108385 -0.0102201 -1.43248e-18)
(-0.126805 -0.0829662 0)
(-0.127099 -0.165204 0)
(-0.100082 -0.177855 0)
(-0.00759001 -0.062362 0)
(0.00296621 0.102234 0)
(-0.140638 0.256779 5.07811e-19)
(-0.291219 0.35904 0)
(-0.32397 0.336334 3.11788e-19)
(-0.346224 0.259374 0)