/*--------------------------------*- C++ -*----------------------------------*\
| =========                 |                                                 |
| \\      /  F ield         | OpenFOAM: The Open Source CFD Toolbox           |
|  \\    /   O peration     | Version:  2.4.0                                 |
|   \\  /    A nd           | Web:      www.OpenFOAM.org                      |
|    \\/     M anipulation  |                                                 |
\*---------------------------------------------------------------------------*/
FoamFile
{
    version     2.0;
    format      ascii;
    class       surfaceScalarField;
    location    "3.98";
    object      phi;
}
// * * * * * * * * * * * * * * * * * * * * * * * * * * * * * * * * * * * * * //

dimensions      [0 3 -1 0 0 0 0];

internalField   nonuniform List<scalar> 
11840
(
7.83615e-07
9.21638e-06
-9.35754e-07
1.71937e-06
6.58081e-07
-1.59384e-06
1.4489e-07
5.13191e-07
-2.06632e-07
3.51522e-07
-2.94272e-07
8.76398e-08
-3.76144e-07
8.18719e-08
-4.51742e-07
7.55984e-08
-6.32482e-07
1.8074e-07
-8.45617e-07
2.13135e-07
-1.19322e-06
3.47604e-07
-1.5308e-06
3.37581e-07
-1.88386e-06
3.53061e-07
-2.12125e-06
2.37383e-07
-2.18638e-06
6.51306e-08
-1.98256e-06
-2.03821e-07
-1.48707e-06
-4.95482e-07
-7.4935e-07
-7.37723e-07
-4.36306e-08
-7.0572e-07
1.89201e-07
-2.32831e-07
-3.36227e-07
5.25428e-07
-1.54225e-06
1.20602e-06
-3.04104e-06
1.49879e-06
-4.31581e-06
1.27478e-06
-5.18122e-06
8.65405e-07
-5.78365e-06
6.02431e-07
-6.24546e-06
4.61811e-07
-6.62108e-06
3.75615e-07
-6.93132e-06
3.10243e-07
-7.18271e-06
2.5139e-07
-7.37486e-06
1.92156e-07
-7.5034e-06
1.28537e-07
-7.56075e-06
5.73526e-08
-7.5395e-06
-2.12572e-08
-7.43912e-06
-1.00375e-07
-7.25787e-06
-1.81252e-07
-6.99042e-06
-2.67449e-07
-6.63183e-06
-3.58595e-07
-6.17758e-06
-4.54245e-07
-5.62336e-06
-5.54218e-07
-4.96597e-06
-6.5739e-07
-4.20214e-06
-7.63832e-07
-3.33177e-06
-8.70368e-07
-2.35406e-06
-9.77714e-07
-1.27611e-06
-1.07795e-06
-1.03234e-07
-1.17287e-06
1.12718e-06
-1.23042e-06
2.41012e-06
-1.28293e-06
3.68835e-06
-1.27824e-06
4.95072e-06
-1.26237e-06
6.10508e-06
-1.15436e-06
7.1859e-06
-1.08082e-06
8.02247e-06
-8.36562e-07
8.79579e-06
-7.73319e-07
9.13903e-06
-3.43245e-07
9.59607e-06
-4.57035e-07
9.28889e-06
3.07179e-07
9.70469e-06
-4.15802e-07
8.65655e-06
1.04813e-06
-1.19621e-06
2.45164e-06
1.67647e-05
-5.06369e-07
4.67738e-06
3.67237e-07
-2.46744e-06
-8.77502e-08
9.68178e-07
-3.10793e-07
5.74565e-07
-4.50455e-07
2.27303e-07
-5.24104e-07
1.55521e-07
-6.23343e-07
1.74837e-07
-8.20121e-07
3.77518e-07
-1.07525e-06
4.68262e-07
-1.42628e-06
6.98632e-07
-1.77291e-06
6.8421e-07
-2.08988e-06
6.70035e-07
-2.29029e-06
4.37796e-07
-2.32413e-06
9.8972e-08
-2.1222e-06
-4.05756e-07
-1.6515e-06
-9.66182e-07
-9.65542e-07
-1.42368e-06
-2.97345e-07
-1.37392e-06
-7.69454e-08
-4.53231e-07
-7.24043e-07
1.17253e-06
-2.13227e-06
2.61425e-06
-3.65307e-06
3.01959e-06
-4.76144e-06
2.38314e-06
-5.48162e-06
1.58558e-06
-6.0062e-06
1.12702e-06
-6.42235e-06
8.77953e-07
-6.7644e-06
7.17666e-07
-7.04489e-06
5.90739e-07
-7.26713e-06
4.73629e-07
-7.42957e-06
3.54592e-07
-7.52869e-06
2.27654e-07
-7.56133e-06
8.99911e-08
-7.52479e-06
-5.77923e-08
-7.41236e-06
-2.12802e-07
-7.21688e-06
-3.7673e-07
-6.93292e-06
-5.51413e-07
-6.5553e-06
-7.36216e-07
-6.07931e-06
-9.30237e-07
-5.50069e-06
-1.13284e-06
-4.81604e-06
-1.34204e-06
-4.0227e-06
-1.55717e-06
-3.11998e-06
-1.77309e-06
-2.10908e-06
-1.98862e-06
-9.95995e-07
-2.19103e-06
2.07355e-07
-2.37623e-06
1.48287e-06
-2.50593e-06
2.80492e-06
-2.60498e-06
4.13416e-06
-2.60748e-06
5.43754e-06
-2.56575e-06
6.65977e-06
-2.37659e-06
7.7796e-06
-2.20065e-06
8.71729e-06
-1.77425e-06
9.51343e-06
-1.56946e-06
1.00181e-05
-8.47899e-07
1.04896e-05
-9.28537e-07
1.04788e-05
3.17967e-07
1.08347e-05
-7.71734e-07
1.03066e-05
1.57623e-06
-1.8685e-06
3.60719e-06
2.31576e-05
1.76345e-08
8.26694e-06
5.74757e-08
-2.50728e-06
-3.05462e-07
1.33112e-06
-3.65927e-07
6.3503e-07
-5.15789e-07
3.77165e-07
-5.80139e-07
2.19871e-07
-6.90325e-07
2.85023e-07
-8.7625e-07
5.63443e-07
-1.1342e-06
7.26208e-07
-1.4618e-06
1.02623e-06
-1.79571e-06
1.01813e-06
-2.09542e-06
9.69741e-07
-2.29663e-06
6.39005e-07
-2.3424e-06
1.44747e-07
-2.16773e-06
-5.80424e-07
-1.73917e-06
-1.39474e-06
-1.11046e-06
-2.0524e-06
-4.97409e-07
-1.98696e-06
-3.11067e-07
-6.39573e-07
-9.69767e-07
1.83122e-06
-2.33582e-06
3.98031e-06
-3.71799e-06
4.40175e-06
-4.6999e-06
3.36506e-06
-5.36436e-06
2.25004e-06
-5.86392e-06
1.62658e-06
-6.26388e-06
1.27792e-06
-6.59308e-06
1.04686e-06
-6.86274e-06
8.60407e-07
-7.07585e-06
6.8674e-07
-7.23101e-06
5.09746e-07
-7.32499e-06
3.21632e-07
-7.35409e-06
1.19095e-07
-7.31388e-06
-9.80008e-08
-7.19778e-06
-3.28902e-07
-6.99921e-06
-5.75298e-07
-6.71271e-06
-8.3792e-07
-6.33298e-06
-1.11594e-06
-5.85522e-06
-1.40801e-06
-5.27508e-06
-1.71297e-06
-4.58905e-06
-2.02807e-06
-3.79454e-06
-2.35168e-06
-2.8906e-06
-2.67703e-06
-1.87876e-06
-3.00046e-06
-7.64553e-07
-3.30524e-06
4.40531e-07
-3.58131e-06
1.71963e-06
-3.78504e-06
3.0446e-06
-3.92994e-06
4.37906e-06
-3.94194e-06
5.68467e-06
-3.87136e-06
6.91583e-06
-3.60774e-06
8.03604e-06
-3.32087e-06
8.99369e-06
-2.7319e-06
9.78326e-06
-2.35903e-06
1.0338e-05
-1.40267e-06
1.07647e-05
-1.35524e-06
1.08801e-05
2.02564e-07
1.10906e-05
-9.82228e-07
1.08366e-05
1.83024e-06
-2.22591e-06
4.5287e-06
2.86289e-05
7.56773e-07
1.20389e-05
-2.34888e-07
-1.51562e-06
-4.60637e-07
1.55686e-06
-3.96887e-07
5.7128e-07
-5.50222e-07
5.305e-07
-6.08989e-07
2.78638e-07
-7.24955e-07
4.00989e-07
-8.98676e-07
7.37164e-07
-1.14919e-06
9.76724e-07
-1.45601e-06
1.33305e-06
-1.77627e-06
1.33838e-06
-2.06606e-06
1.25953e-06
-2.27155e-06
8.44492e-07
-2.33379e-06
2.06997e-07
-2.19023e-06
-7.23988e-07
-1.80714e-06
-1.77784e-06
-1.23497e-06
-2.62456e-06
-6.76148e-07
-2.54579e-06
-5.19054e-07
-7.96667e-07
-1.16236e-06
2.47453e-06
-2.43759e-06
5.25555e-06
-3.68396e-06
5.64811e-06
-4.57473e-06
4.25583e-06
-5.20148e-06
2.87679e-06
-5.6818e-06
2.1069e-06
-6.06841e-06
1.66452e-06
-6.38687e-06
1.36533e-06
-6.64761e-06
1.12114e-06
-6.85337e-06
8.925e-07
-7.00279e-06
6.59165e-07
-7.09263e-06
4.11473e-07
-7.11877e-06
1.45235e-07
-7.07609e-06
-1.40683e-07
-6.9582e-06
-4.46789e-07
-6.75885e-06
-7.74645e-07
-6.47248e-06
-1.1243e-06
-6.09371e-06
-1.4947e-06
-5.61764e-06
-1.88408e-06
-5.03986e-06
-2.29075e-06
-4.35675e-06
-2.71119e-06
-3.56568e-06
-3.14275e-06
-2.66557e-06
-3.57714e-06
-1.65794e-06
-4.00809e-06
-5.48028e-07
-4.41515e-06
6.53097e-07
-4.78243e-06
1.92843e-06
-5.06037e-06
3.24873e-06
-5.25024e-06
4.5787e-06
-5.27191e-06
5.87825e-06
-5.17091e-06
7.10519e-06
-4.83468e-06
8.21775e-06
-4.43343e-06
9.17487e-06
-3.68902e-06
9.95365e-06
-3.13781e-06
1.05212e-05
-1.97024e-06
1.09207e-05
-1.75469e-06
1.10856e-05
3.76335e-08
1.12133e-05
-1.10994e-06
1.1094e-05
1.94953e-06
-2.37861e-06
5.30478e-06
3.33241e-05
1.49075e-06
1.58529e-05
-2.60353e-07
2.35486e-07
-5.51572e-07
1.84808e-06
-4.18664e-07
4.38372e-07
-5.70948e-07
6.82784e-07
-6.26287e-07
3.33977e-07
-7.44113e-07
5.18815e-07
-9.06082e-07
8.99132e-07
-1.14477e-06
1.21542e-06
-1.43256e-06
1.62083e-06
-1.73924e-06
1.64507e-06
-2.02157e-06
1.54186e-06
-2.23212e-06
1.05504e-06
-2.31224e-06
2.87111e-07
-2.2014e-06
-8.34829e-07
-1.86537e-06
-2.11386e-06
-1.34993e-06
-3.14001e-06
-8.44035e-07
-3.05168e-06
-7.12933e-07
-9.2777e-07
-1.32253e-06
3.08413e-06
-2.48909e-06
6.4221e-06
-3.60966e-06
6.76868e-06
-4.4256e-06
5.07178e-06
-5.02028e-06
3.47147e-06
-5.48294e-06
2.56956e-06
-5.85706e-06
2.03864e-06
-6.16556e-06
1.67382e-06
-6.41805e-06
1.37363e-06
-6.61706e-06
1.09151e-06
-6.7612e-06
8.03307e-07
-6.84714e-06
4.97415e-07
-6.87047e-06
1.68562e-07
-6.82577e-06
-1.85386e-07
-6.70679e-06
-5.65764e-07
-6.50745e-06
-9.73981e-07
-6.22211e-06
-1.40965e-06
-5.84533e-06
-1.87148e-06
-5.3721e-06
-2.3573e-06
-4.79798e-06
-2.86487e-06
-4.11922e-06
-3.38994e-06
-3.33317e-06
-3.9288e-06
-2.43863e-06
-4.47168e-06
-1.43703e-06
-5.00969e-06
-3.33321e-07
-5.51886e-06
8.6158e-07
-5.97733e-06
2.13019e-06
-6.32898e-06
3.44276e-06
-6.56281e-06
4.76455e-06
-6.5937e-06
6.05476e-06
-6.46112e-06
7.27278e-06
-6.0527e-06
8.37457e-06
-5.53522e-06
9.3241e-06
-4.63855e-06
1.00906e-05
-3.90436e-06
1.06577e-05
-2.53726e-06
1.1038e-05
-2.13498e-06
1.12216e-05
-1.45966e-07
1.13029e-05
-1.19127e-06
1.12456e-05
2.00685e-06
-2.41023e-06
5.97565e-06
3.73484e-05
2.24028e-06
1.95883e-05
-6.29527e-08
2.53872e-06
-5.82939e-07
2.36807e-06
-4.37242e-07
2.92675e-07
-5.83503e-07
8.29044e-07
-6.36554e-07
3.87029e-07
-7.53741e-07
6.36002e-07
-9.04093e-07
1.04948e-06
-1.12886e-06
1.44018e-06
-1.39839e-06
1.89037e-06
-1.69161e-06
1.93829e-06
-1.96731e-06
1.81755e-06
-2.18299e-06
1.27073e-06
-2.28141e-06
3.85527e-07
-2.2041e-06
-9.12138e-07
-1.91612e-06
-2.40184e-06
-1.45769e-06
-3.59844e-06
-1.00366e-06
-3.5057e-06
-8.93867e-07
-1.03757e-06
-1.45636e-06
3.64662e-06
-2.50688e-06
7.47262e-06
-3.51119e-06
7.773e-06
-4.26185e-06
5.82244e-06
-4.82711e-06
4.03673e-06
-5.27275e-06
3.0152e-06
-5.63476e-06
2.40065e-06
-5.93359e-06
1.97266e-06
-6.17811e-06
1.61814e-06
-6.37059e-06
1.284e-06
-6.50959e-06
9.42301e-07
-6.59166e-06
5.79486e-07
-6.61219e-06
1.89096e-07
-6.56564e-06
-2.31937e-07
-6.44587e-06
-6.85533e-07
-6.24688e-06
-1.17297e-06
-5.96296e-06
-1.69357e-06
-5.58862e-06
-2.24581e-06
-5.11879e-06
-2.82714e-06
-4.54893e-06
-3.43473e-06
-3.87525e-06
-4.06362e-06
-3.09502e-06
-4.70903e-06
-2.20692e-06
-5.35977e-06
-1.2123e-06
-6.00431e-06
-1.15854e-07
-6.61531e-06
1.07146e-06
-7.16465e-06
2.33164e-06
-7.58916e-06
3.63472e-06
-7.86589e-06
4.94632e-06
-7.9053e-06
6.22531e-06
-7.74011e-06
7.43196e-06
-7.25935e-06
8.52117e-06
-6.62443e-06
9.45972e-06
-5.5771e-06
1.02129e-05
-4.65758e-06
1.07735e-05
-3.09779e-06
1.11377e-05
-2.4992e-06
1.13266e-05
-3.34879e-07
1.13785e-05
-1.24312e-06
1.1349e-05
2.03629e-06
-2.36536e-06
6.56088e-06
4.07875e-05
2.9742e-06
2.31749e-05
2.30619e-07
5.2823e-06
-5.36136e-07
3.13483e-06
-4.5348e-07
2.10018e-07
-5.9006e-07
9.65625e-07
-6.41425e-07
4.38393e-07
-7.56466e-07
7.51044e-07
-8.95171e-07
1.18819e-06
-1.10491e-06
1.64992e-06
-1.35655e-06
2.14201e-06
-1.63624e-06
2.21798e-06
-1.90543e-06
2.08674e-06
-2.12591e-06
1.49121e-06
-2.24255e-06
5.02168e-07
-2.19908e-06
-9.55616e-07
-1.95969e-06
-2.64123e-06
-1.55839e-06
-3.99974e-06
-1.15496e-06
-3.90913e-06
-1.06106e-06
-1.13146e-06
-1.56654e-06
4.15209e-06
-2.49892e-06
8.40501e-06
-3.39557e-06
8.66965e-06
-4.08731e-06
6.51418e-06
-4.62458e-06
4.57399e-06
-5.05343e-06
3.44405e-06
-5.40342e-06
2.75065e-06
-5.69269e-06
2.26193e-06
-5.92931e-06
1.85476e-06
-6.1153e-06
1.47e-06
-6.24913e-06
1.07613e-06
-6.32726e-06
6.57615e-07
-6.34494e-06
2.06783e-07
-6.29659e-06
-2.80293e-07
-6.17614e-06
-8.0598e-07
-5.97764e-06
-1.37147e-06
-5.69532e-06
-1.97588e-06
-5.32366e-06
-2.61748e-06
-4.85751e-06
-3.29329e-06
-4.29227e-06
-3.99997e-06
-3.62407e-06
-4.73181e-06
-2.85014e-06
-5.48296e-06
-1.96906e-06
-6.24086e-06
-9.82028e-07
-6.99134e-06
1.06422e-07
-7.70376e-06
1.28517e-06
-8.3434e-06
2.53574e-06
-8.83972e-06
3.82812e-06
-9.15827e-06
5.12817e-06
-9.20536e-06
6.39462e-06
-9.00656e-06
7.58831e-06
-8.45304e-06
8.6636e-06
-7.69972e-06
9.58914e-06
-6.50264e-06
1.0328e-05
-5.39648e-06
1.08788e-05
-3.64856e-06
1.12281e-05
-2.84853e-06
1.14156e-05
-5.22367e-07
1.14461e-05
-1.27364e-06
1.14278e-05
2.05461e-06
-2.26744e-06
7.0719e-06
4.37156e-05
3.68679e-06
2.65601e-05
6.54371e-07
8.31472e-06
-4.06286e-07
4.19548e-06
-4.63215e-07
2.66947e-07
-5.91398e-07
1.09381e-06
-6.41534e-07
4.8853e-07
-7.53602e-07
8.63111e-07
-8.80638e-07
1.31522e-06
-1.07475e-06
1.84403e-06
-1.30863e-06
2.37589e-06
-1.57461e-06
2.48397e-06
-1.83703e-06
2.34916e-06
-2.06168e-06
1.71587e-06
-2.19608e-06
6.36567e-07
-2.1863e-06
-9.65398e-07
-1.99565e-06
-2.83188e-06
-1.65131e-06
-4.34408e-06
-1.29685e-06
-4.26359e-06
-1.21337e-06
-1.21494e-06
-1.65477e-06
4.59348e-06
-2.46992e-06
9.22016e-06
-3.26657e-06
9.46629e-06
-3.90399e-06
7.1516e-06
-4.41407e-06
5.08408e-06
-4.82618e-06
3.85616e-06
-5.16411e-06
3.08858e-06
-5.44377e-06
2.54158e-06
-5.67244e-06
2.08343e-06
-5.85188e-06
1.64944e-06
-5.98044e-06
1.20468e-06
-6.0545e-06
7.3168e-07
-6.06925e-06
2.21528e-07
-6.01906e-06
-3.30483e-07
-5.89795e-06
-9.2709e-07
-5.69998e-06
-1.56944e-06
-5.41935e-06
-2.25651e-06
-5.05048e-06
-2.98635e-06
-4.58817e-06
-3.7556e-06
-4.02776e-06
-4.56038e-06
-3.36533e-06
-5.39424e-06
-2.59802e-06
-6.25027e-06
-1.72434e-06
-7.11454e-06
-7.45333e-07
-7.97035e-06
3.34547e-07
-8.78364e-06
1.50395e-06
-9.51281e-06
2.744e-06
-1.00798e-05
4.02475e-06
-1.0439e-05
5.31222e-06
-1.04928e-05
6.56509e-06
-1.02594e-05
7.74461e-06
-9.63256e-06
8.80491e-06
-8.76002e-06
9.71592e-06
-7.41365e-06
1.04396e-05
-6.12018e-06
1.09785e-05
-4.18741e-06
1.13132e-05
-3.18326e-06
1.14953e-05
-7.04514e-07
1.15087e-05
-1.28704e-06
1.14925e-05
2.07087e-06
-2.12971e-06
7.51731e-06
4.61983e-05
4.37175e-06
2.97056e-05
1.18114e-06
1.15053e-05
-2.0729e-07
5.58392e-06
-4.56922e-07
5.16579e-07
-5.8734e-07
1.22423e-06
-6.37046e-07
5.38236e-07
-7.45831e-07
9.71896e-07
-8.61281e-07
1.43068e-06
-1.03949e-06
2.02223e-06
-1.25563e-06
2.59204e-06
-1.5076e-06
2.73594e-06
-1.76271e-06
2.60427e-06
-1.99069e-06
1.94385e-06
-2.14205e-06
7.87926e-07
-2.16543e-06
-9.42019e-07
-2.02324e-06
-2.97407e-06
-1.73536e-06
-4.63196e-06
-1.4279e-06
-4.57105e-06
-1.34971e-06
-1.29312e-06
-1.72238e-06
4.96615e-06
-2.42307e-06
9.92085e-06
-3.12652e-06
1.01697e-05
-3.71307e-06
7.73815e-06
-4.19648e-06
5.56749e-06
-4.59176e-06
4.25144e-06
-4.9175e-06
3.41432e-06
-5.18742e-06
2.81151e-06
-5.40804e-06
2.30404e-06
-5.5808e-06
1.8222e-06
-5.70395e-06
1.32783e-06
-5.77381e-06
8.01536e-07
-5.78549e-06
2.33212e-07
-5.73339e-06
-3.82579e-07
-5.61159e-06
-1.0489e-06
-5.41414e-06
-1.76689e-06
-5.13521e-06
-2.53544e-06
-4.76919e-06
-3.35237e-06
-4.31081e-06
-4.21398e-06
-3.75538e-06
-5.11582e-06
-3.09888e-06
-6.05074e-06
-2.33843e-06
-7.01073e-06
-1.47242e-06
-7.98055e-06
-5.01782e-07
-8.94099e-06
5.69048e-07
-9.85447e-06
1.72846e-06
-1.06722e-05
2.95728e-06
-1.13086e-05
4.22564e-06
-1.17074e-05
5.49968e-06
-1.17669e-05
6.73809e-06
-1.14978e-05
7.90242e-06
-1.07969e-05
8.94677e-06
-9.80437e-06
9.84204e-06
-8.30892e-06
1.05497e-05
-6.8278e-06
1.1075e-05
-4.71275e-06
1.1395e-05
-3.5033e-06
1.15693e-05
-8.78765e-07
1.15678e-05
-1.28558e-06
1.15483e-05
2.09043e-06
-1.96029e-06
7.90481e-06
4.82935e-05
5.02323e-06
3.25872e-05
1.77405e-06
1.47545e-05
5.80862e-08
7.29987e-06
-4.24543e-07
9.99209e-07
-5.76711e-07
1.37639e-06
-6.27806e-07
5.89331e-07
-7.33466e-07
1.07756e-06
-8.37583e-07
1.53479e-06
-9.99831e-07
2.18448e-06
-1.19821e-06
2.79042e-06
-1.43579e-06
2.97351e-06
-1.6829e-06
2.85138e-06
-1.91316e-06
2.1741e-06
-2.08038e-06
9.55149e-07
-2.136e-06
-8.86404e-07
-2.04158e-06
-3.06849e-06
-1.80929e-06
-4.86425e-06
-1.54663e-06
-4.83372e-06
-1.46925e-06
-1.37051e-06
-1.7706e-06
5.2675e-06
-2.36073e-06
1.0511e-05
-2.97699e-06
1.0786e-05
-3.51537e-06
8.27653e-06
-3.9724e-06
6.02452e-06
-4.35072e-06
4.62975e-06
-4.66409e-06
3.72769e-06
-4.92413e-06
3.07154e-06
-5.13653e-06
2.51645e-06
-5.30246e-06
1.98813e-06
-5.42004e-06
1.44541e-06
-5.48552e-06
8.67021e-07
-5.49401e-06
2.41702e-07
-5.43992e-06
-4.36675e-07
-5.31734e-06
-1.17147e-06
-5.12037e-06
-1.96386e-06
-4.84313e-06
-2.81267e-06
-4.47997e-06
-3.71553e-06
-4.02558e-06
-4.66838e-06
-3.47519e-06
-5.6662e-06
-2.82476e-06
-6.70116e-06
-2.07133e-06
-7.76416e-06
-1.2132e-06
-8.83868e-06
-2.51199e-07
-9.90299e-06
8.10168e-07
-1.09158e-05
1.95904e-06
-1.18211e-05
3.17603e-06
-1.25256e-05
4.43137e-06
-1.29627e-05
5.69125e-06
-1.30267e-05
6.91441e-06
-1.2721e-05
8.06266e-06
-1.19451e-05
9.09018e-06
-1.08319e-05
9.96866e-06
-9.1874e-06
1.06594e-05
-7.51851e-06
1.11699e-05
-5.22326e-06
1.14749e-05
-3.80833e-06
1.16394e-05
-1.04329e-06
1.16244e-05
-1.27052e-06
1.15981e-05
2.1167e-06
-1.76448e-06
8.24136e-06
5.00522e-05
5.63659e-06
3.5192e-05
2.41143e-06
1.79797e-05
4.35095e-07
9.27621e-06
-3.55314e-07
1.78962e-06
-5.56947e-07
1.57803e-06
-6.13336e-07
6.4572e-07
-7.16552e-07
1.18077e-06
-8.09811e-07
1.62805e-06
-9.56247e-07
2.33092e-06
-1.13683e-06
2.97099e-06
-1.35959e-06
3.19627e-06
-1.59789e-06
3.08968e-06
-1.82922e-06
2.40543e-06
-2.01093e-06
1.13687e-06
-2.09749e-06
-7.99849e-07
-2.04975e-06
-3.11623e-06
-1.87184e-06
-5.04216e-06
-1.65166e-06
-5.0539e-06
-1.57143e-06
-1.45074e-06
-1.80062e-06
5.49669e-06
-2.28473e-06
1.09951e-05
-2.81915e-06
1.13204e-05
-3.3115e-06
8.76887e-06
-3.74233e-06
6.45535e-06
-4.10352e-06
4.99094e-06
-4.40431e-06
4.02848e-06
-4.65427e-06
3.3215e-06
-4.85829e-06
2.72047e-06
-5.01721e-06
2.14706e-06
-5.12904e-06
1.55724e-06
-5.19e-06
9.27974e-07
-5.19515e-06
2.46857e-07
-5.13895e-06
-4.9288e-07
-5.01553e-06
-1.29489e-06
-4.81896e-06
-2.16043e-06
-4.54338e-06
-3.08826e-06
-4.18306e-06
-4.07584e-06
-3.73267e-06
-5.11877e-06
-3.18738e-06
-6.21149e-06
-2.5431e-06
-7.34545e-06
-1.7968e-06
-8.51047e-06
-9.46707e-07
-9.68877e-06
6.43846e-09
-1.08561e-05
1.05798e-06
-1.19674e-05
2.19585e-06
-1.2959e-05
3.40053e-06
-1.37303e-05
4.64228e-06
-1.42045e-05
5.88735e-06
-1.42718e-05
7.09456e-06
-1.39282e-05
8.22591e-06
-1.30765e-05
9.23578e-06
-1.18418e-05
1.00965e-05
-1.00481e-05
1.07695e-05
-8.1915e-06
1.12641e-05
-5.71784e-06
1.15536e-05
-4.0979e-06
1.1707e-05
-1.19667e-06
1.1679e-05
-1.2425e-06
1.16437e-05
2.15197e-06
-1.54597e-06
8.53318e-06
5.1519e-05
6.20856e-06
3.75166e-05
3.0711e-06
2.11171e-05
8.68518e-07
1.14788e-05
-2.23234e-07
2.88137e-06
-5.23164e-07
1.87796e-06
-5.92708e-07
7.15265e-07
-6.9488e-07
1.28294e-06
-7.78058e-07
1.71123e-06
-9.0903e-07
2.46189e-06
-1.0718e-06
3.13377e-06
-1.27931e-06
3.40378e-06
-1.50789e-06
3.31827e-06
-1.73895e-06
2.63649e-06
-1.93355e-06
1.33147e-06
-2.0494e-06
-6.84005e-07
-2.04683e-06
-3.11879e-06
-1.92176e-06
-5.16723e-06
-1.74177e-06
-5.23389e-06
-1.65599e-06
-1.53651e-06
-1.81362e-06
5.65432e-06
-2.19664e-06
1.13781e-05
-2.65389e-06
1.17777e-05
-3.10192e-06
9.2169e-06
-3.50667e-06
6.8601e-06
-3.85053e-06
5.33479e-06
-4.13852e-06
4.31648e-06
-4.3782e-06
3.56118e-06
-4.57365e-06
2.91592e-06
-4.72539e-06
2.2988e-06
-4.83131e-06
1.66316e-06
-4.88757e-06
9.84231e-07
-4.88925e-06
2.4854e-07
-4.83082e-06
-5.51308e-07
-4.70645e-06
-1.41926e-06
-4.51023e-06
-2.35665e-06
-4.23624e-06
-3.36225e-06
-3.87875e-06
-4.43334e-06
-3.43235e-06
-5.56517e-06
-2.89218e-06
-6.75165e-06
-2.25409e-06
-7.98354e-06
-1.51499e-06
-9.24956e-06
-6.73056e-07
-1.05307e-05
2.71043e-07
-1.18002e-05
1.31246e-06
-1.30088e-05
2.43894e-06
-1.40854e-05
3.63088e-06
-1.49222e-05
4.85857e-06
-1.54322e-05
6.08825e-06
-1.55015e-05
7.27883e-06
-1.51188e-05
8.39253e-06
-1.41902e-05
9.38395e-06
-1.28332e-05
1.0226e-05
-1.08902e-05
1.08805e-05
-8.84596e-06
1.13581e-05
-6.19547e-06
1.16317e-05
-4.37151e-06
1.17728e-05
-1.33775e-06
1.17321e-05
-1.20184e-06
1.16862e-05
2.19789e-06
-1.30745e-06
8.78582e-06
5.27332e-05
6.73717e-06
3.95652e-05
3.73703e-06
2.41173e-05
1.36265e-06
1.38532e-05
-8.08286e-09
4.2521e-06
-4.66763e-07
2.33664e-06
-5.64296e-07
8.12798e-07
-6.67967e-07
1.38661e-06
-7.42245e-07
1.78551e-06
-8.58332e-07
2.57798e-06
-1.00336e-06
3.2788e-06
-1.19518e-06
3.59559e-06
-1.41311e-06
3.5362e-06
-1.64245e-06
2.86583e-06
-1.84812e-06
1.53714e-06
-1.99127e-06
-5.4085e-07
-2.03199e-06
-3.07808e-06
-1.95793e-06
-5.24129e-06
-1.81598e-06
-5.37584e-06
-1.72296e-06
-1.62953e-06
-1.81083e-06
5.74219e-06
-2.09776e-06
1.1665e-05
-2.48196e-06
1.21619e-05
-2.88705e-06
9.622e-06
-3.26577e-06
7.23882e-06
-3.5921e-06
5.66112e-06
-3.86707e-06
4.59145e-06
-4.09626e-06
3.79037e-06
-4.28295e-06
3.10262e-06
-4.42733e-06
2.44317e-06
-4.52716e-06
1.76299e-06
-4.57856e-06
1.03564e-06
-4.57664e-06
2.46614e-07
-4.51587e-06
-6.12072e-07
-4.39047e-06
-1.54466e-06
-4.1945e-06
-2.55261e-06
-3.92204e-06
-3.63471e-06
-3.56733e-06
-4.78805e-06
-3.12491e-06
-6.00759e-06
-2.58986e-06
-7.2867e-06
-1.95799e-06
-8.61542e-06
-1.22614e-06
-9.98141e-06
-3.92423e-07
-1.13644e-05
5.42469e-07
-1.27351e-05
1.57349e-06
-1.40398e-05
2.68828e-06
-1.52002e-05
3.86713e-06
-1.61011e-05
5.08032e-06
-1.66454e-05
6.29408e-06
-1.67152e-05
7.46741e-06
-1.62921e-05
8.56273e-06
-1.52855e-05
9.53493e-06
-1.38054e-05
1.03575e-05
-1.17127e-05
1.09926e-05
-9.48109e-06
1.14523e-05
-6.65522e-06
1.17094e-05
-4.62861e-06
1.18372e-05
-1.46552e-06
1.1784e-05
-1.14862e-06
1.17262e-05
2.25567e-06
-1.05097e-06
9.00427e-06
5.37289e-05
7.2217e-06
4.13478e-05
4.3971e-06
2.69419e-05
1.90715e-06
1.63431e-05
2.3858e-07
5.92067e-06
-3.74555e-07
2.94977e-06
-5.25355e-07
9.63597e-07
-6.34967e-07
1.49623e-06
-7.02102e-07
1.85264e-06
-8.04165e-07
2.68004e-06
-9.31637e-07
3.40627e-06
-1.10738e-06
3.77133e-06
-1.31369e-06
3.74252e-06
-1.5398e-06
3.09194e-06
-1.75453e-06
1.75188e-06
-1.92272e-06
-3.72664e-07
-2.00446e-06
-2.99633e-06
-1.97935e-06
-5.26641e-06
-1.87352e-06
-5.48167e-06
-1.77255e-06
-1.7305e-06
-1.79345e-06
5.76309e-06
-1.9893e-06
1.18609e-05
-2.30399e-06
1.24766e-05
-2.66726e-06
9.98527e-06
-3.01995e-06
7.5915e-06
-3.32854e-06
5.96971e-06
-3.59025e-06
4.85316e-06
-3.80875e-06
4.00887e-06
-3.9865e-06
3.28036e-06
-4.12334e-06
2.58002e-06
-4.21692e-06
1.85656e-06
-4.26332e-06
1.08204e-06
-4.25766e-06
2.40948e-07
-4.19444e-06
-6.75286e-07
-4.0679e-06
-1.67121e-06
-3.87211e-06
-2.7484e-06
-3.60113e-06
-3.90569e-06
-3.24914e-06
-5.14003e-06
-2.81066e-06
-6.44607e-06
-2.28073e-06
-7.81663e-06
-1.65506e-06
-9.24109e-06
-9.30485e-07
-1.0706e-05
-1.05034e-07
-1.21899e-05
8.20516e-07
-1.36607e-05
1.84093e-06
-1.50602e-05
2.94378e-06
-1.63031e-05
4.10924e-06
-1.72665e-05
5.30756e-06
-1.78437e-05
6.5049e-06
-1.79126e-05
7.6604e-06
-1.74476e-05
8.73664e-06
-1.63618e-05
9.68886e-06
-1.47576e-05
1.0491e-05
-1.25149e-05
1.1106e-05
-1.00961e-05
1.1547e-05
-7.09621e-06
1.1787e-05
-4.86862e-06
1.19006e-05
-1.57912e-06
1.18348e-05
-1.08281e-06
1.17643e-05
2.32624e-06
-7.78128e-07
9.19306e-06
5.45358e-05
7.66242e-06
4.28784e-05
5.04175e-06
2.95625e-05
2.49307e-06
1.88918e-05
5.7763e-07
7.83611e-06
-2.34296e-07
3.7617e-06
-4.71561e-07
1.20086e-06
-5.94531e-07
1.6192e-06
-6.57129e-07
1.91524e-06
-7.46398e-07
2.76931e-06
-8.5666e-07
3.51653e-06
-1.01602e-06
3.93069e-06
-1.20978e-06
3.93629e-06
-1.4311e-06
3.31325e-06
-1.65276e-06
1.97354e-06
-1.84343e-06
-1.81988e-07
-1.96361e-06
-2.87616e-06
-1.98515e-06
-5.24487e-06
-1.91379e-06
-5.55303e-06
-1.80512e-06
-1.83917e-06
-1.76263e-06
5.7206e-06
-1.87234e-06
1.19706e-05
-2.1206e-06
1.27248e-05
-2.4429e-06
1.03076e-05
-2.76951e-06
7.91811e-06
-3.06015e-06
6.26035e-06
-3.30837e-06
5.10139e-06
-3.51598e-06
4.21648e-06
-3.6846e-06
3.44899e-06
-3.81374e-06
2.70916e-06
-3.90091e-06
1.94374e-06
-3.94218e-06
1.12331e-06
-3.93265e-06
2.3142e-07
-3.86688e-06
-7.41055e-07
-3.73911e-06
-1.79898e-06
-3.54341e-06
-2.9441e-06
-3.27383e-06
-4.17527e-06
-2.92453e-06
-5.48934e-06
-2.48995e-06
-6.88064e-06
-1.96509e-06
-8.34149e-06
-1.34562e-06
-9.86056e-06
-6.28302e-07
-1.14233e-05
1.88856e-07
-1.3007e-05
1.10495e-06
-1.45768e-05
2.1146e-06
-1.60699e-05
3.20531e-06
-1.73938e-05
4.35714e-06
-1.84183e-05
5.54024e-06
-1.90268e-05
6.72072e-06
-1.90931e-05
7.85781e-06
-1.85847e-05
8.91431e-06
-1.74183e-05
9.84581e-06
-1.56891e-05
1.06268e-05
-1.32959e-05
1.12209e-05
-1.06902e-05
1.16423e-05
-7.51758e-06
1.18646e-05
-5.09096e-06
1.19632e-05
-1.67774e-06
1.18847e-05
-1.00428e-06
1.18006e-05
2.41034e-06
-4.90233e-07
9.35624e-06
5.51796e-05
8.06045e-06
4.41742e-05
5.66338e-06
3.19596e-05
3.11e-06
2.14452e-05
9.96126e-07
9.94999e-06
-4.31379e-08
4.80096e-06
-3.96732e-07
1.55446e-06
-5.44583e-07
1.76705e-06
-6.06529e-07
1.97719e-06
-6.84723e-07
2.8475e-06
-7.78366e-07
3.61018e-06
-9.21151e-07
4.07347e-06
-1.10149e-06
4.11663e-06
-1.31644e-06
3.5282e-06
-1.54279e-06
2.19988e-06
-1.75319e-06
2.84162e-08
-1.90891e-06
-2.72044e-06
-1.97464e-06
-5.17914e-06
-1.93639e-06
-5.59128e-06
-1.82111e-06
-1.95444e-06
-1.71949e-06
5.61898e-06
-1.74785e-06
1.1999e-05
-1.93234e-06
1.29093e-05
-2.21432e-06
1.05896e-05
-2.51476e-06
8.21854e-06
-2.78721e-06
6.5328e-06
-3.02172e-06
5.3359e-06
-3.21823e-06
4.41298e-06
-3.37755e-06
3.60831e-06
-3.49883e-06
2.83043e-06
-3.57945e-06
2.02436e-06
-3.61545e-06
1.1593e-06
-3.60195e-06
2.17917e-07
-3.53352e-06
-8.0948e-07
-3.40443e-06
-1.92807e-06
-3.20875e-06
-3.13977e-06
-2.94051e-06
-4.44352e-06
-2.59382e-06
-5.83603e-06
-2.1631e-06
-7.31136e-06
-1.64328e-06
-8.86132e-06
-1.02997e-06
-1.04739e-05
-3.19882e-07
-1.21334e-05
4.88965e-07
-1.38159e-05
1.39552e-06
-1.54833e-05
2.39428e-06
-1.70686e-05
3.47273e-06
-1.84722e-05
4.61072e-06
-1.95563e-05
5.77831e-06
-2.01944e-05
6.94149e-06
-2.02562e-05
8.05964e-06
-1.97029e-05
9.09574e-06
-1.84544e-05
1.00058e-05
-1.65991e-05
1.07648e-05
-1.40548e-05
1.13372e-05
-1.12627e-05
1.17381e-05
-7.91852e-06
1.19422e-05
-5.29503e-06
1.20251e-05
-1.76065e-06
1.19337e-05
-9.12866e-07
1.18355e-05
2.50855e-06
-1.88378e-07
9.49746e-06
5.56821e-05
8.41756e-06
4.52541e-05
6.256e-06
3.41212e-05
3.74721e-06
2.3954e-05
1.48506e-06
1.22121e-05
2.28671e-07
6.05735e-06
-2.92878e-07
2.07601e-06
-4.81992e-07
1.95616e-06
-5.49108e-07
2.0443e-06
-6.1862e-07
2.91702e-06
-6.96565e-07
3.68812e-06
-8.22762e-07
4.19967e-06
-9.88885e-07
4.28275e-06
-1.19594e-06
3.73526e-06
-1.42468e-06
2.42863e-06
-1.65188e-06
2.55613e-07
-1.83999e-06
-2.53234e-06
-1.94727e-06
-5.07186e-06
-1.94102e-06
-5.59753e-06
-1.82097e-06
-2.07448e-06
-1.66503e-06
5.46304e-06
-1.61676e-06
1.19507e-05
-1.73975e-06
1.30323e-05
-1.98186e-06
1.08317e-05
-2.25598e-06
8.49267e-06
-2.51001e-06
6.78683e-06
-2.73057e-06
5.55646e-06
-2.91578e-06
4.59819e-06
-3.06563e-06
3.75816e-06
-3.17891e-06
2.94371e-06
-3.25285e-06
2.09831e-06
-3.28346e-06
1.18991e-06
-3.26587e-06
2.00332e-07
-3.1947e-06
-8.80655e-07
-3.0642e-06
-2.05856e-06
-2.86847e-06
-3.33551e-06
-2.6015e-06
-4.71049e-06
-2.25738e-06
-6.18015e-06
-1.83046e-06
-7.73828e-06
-1.31563e-06
-9.37615e-06
-7.08433e-07
-1.10811e-05
-5.52519e-09
-1.28363e-05
7.94998e-07
-1.46164e-05
1.69197e-06
-1.63803e-05
2.67978e-06
-1.80564e-05
3.74585e-06
-1.95383e-05
4.86985e-06
-2.06803e-05
6.02164e-06
-2.13462e-05
7.16714e-06
-2.14017e-05
8.26582e-06
-2.08016e-05
9.28088e-06
-1.94694e-05
1.01688e-05
-1.7487e-05
1.09049e-05
-1.4791e-05
1.14549e-05
-1.18126e-05
1.18346e-05
-8.29821e-06
1.20198e-05
-5.48025e-06
1.20863e-05
-1.82716e-06
1.19818e-05
-8.08365e-07
1.1869e-05
2.62136e-06
1.26554e-07
9.61997e-06
5.60621e-05
8.73607e-06
4.6138e-05
6.81499e-06
3.60423e-05
4.39418e-06
2.63748e-05
2.03203e-06
1.45743e-05
5.61845e-07
7.52753e-06
-1.4653e-07
2.78438e-06
-4.02134e-07
2.21177e-06
-4.83133e-07
2.1253e-06
-5.47299e-07
2.98118e-06
-6.10914e-07
3.75174e-06
-7.20739e-07
4.30949e-06
-8.71997e-07
4.43401e-06
-1.06969e-06
3.93295e-06
-1.29852e-06
2.65745e-06
-1.53945e-06
4.96545e-07
-1.75658e-06
-2.31521e-06
-1.90263e-06
-4.9258e-06
-1.92749e-06
-5.57268e-06
-1.8051e-06
-2.19687e-06
-1.60013e-06
5.25806e-06
-1.47989e-06
1.18305e-05
-1.54335e-06
1.30958e-05
-1.74587e-06
1.10342e-05
-1.99348e-06
8.74028e-06
-2.22882e-06
7.02216e-06
-2.43519e-06
5.76284e-06
-2.60891e-06
4.77191e-06
-2.74913e-06
3.89838e-06
-2.85426e-06
3.04883e-06
-2.9214e-06
2.16545e-06
-2.94651e-06
1.21502e-06
-2.92475e-06
1.78571e-07
-2.85074e-06
-9.54664e-07
-2.71877e-06
-2.19054e-06
-2.52291e-06
-3.53136e-06
-2.25714e-06
-4.97626e-06
-1.91553e-06
-6.52176e-06
-1.49237e-06
-8.16144e-06
-9.82465e-07
-9.88605e-06
-3.81323e-07
-1.16822e-05
3.14443e-07
-1.35321e-05
1.10665e-06
-1.54086e-05
1.994e-06
-1.72676e-05
2.97084e-06
-1.90333e-05
4.02449e-06
-2.05919e-05
5.13435e-06
-2.17902e-05
6.27013e-06
-2.24819e-05
7.39756e-06
-2.25292e-05
8.47627e-06
-2.18803e-05
9.46965e-06
-2.04628e-05
1.03346e-05
-1.8352e-05
1.10472e-05
-1.55035e-05
1.15739e-05
-1.23394e-05
1.19316e-05
-8.65587e-06
1.20974e-05
-5.64604e-06
1.21469e-05
-1.87664e-06
1.20291e-05
-6.90576e-07
1.19013e-05
2.74913e-06
4.53818e-07
9.72665e-06
5.63355e-05
9.01863e-06
4.68461e-05
7.33705e-06
3.77238e-05
5.04107e-06
2.86708e-05
2.62515e-06
1.69902e-05
9.58538e-07
9.19414e-06
5.27657e-08
3.69015e-06
-2.98556e-07
2.56309e-06
-4.06133e-07
2.23288e-06
-4.69608e-07
3.04466e-06
-5.20885e-07
3.80301e-06
-6.14858e-07
4.40347e-06
-7.50793e-07
4.56994e-06
-9.37767e-07
4.11992e-06
-1.16441e-06
2.8841e-06
-1.41595e-06
7.48088e-07
-1.65857e-06
-2.0726e-06
-1.84048e-06
-4.74389e-06
-1.89568e-06
-5.51748e-06
-1.77383e-06
-2.31872e-06
-1.52548e-06
5.00971e-06
-1.33796e-06
1.16429e-05
-1.34367e-06
1.31015e-05
-1.50671e-06
1.11972e-05
-1.72754e-06
8.96111e-06
-1.9439e-06
7.23852e-06
-2.13584e-06
5.95478e-06
-2.29788e-06
4.93395e-06
-2.42831e-06
4.02881e-06
-2.52516e-06
3.14568e-06
-2.58538e-06
2.22567e-06
-2.6049e-06
1.23454e-06
-2.57888e-06
1.52549e-07
-2.50196e-06
-1.03158e-06
-2.36844e-06
-2.32406e-06
-2.17239e-06
-3.72741e-06
-1.90777e-06
-5.24087e-06
-1.56861e-06
-6.86093e-06
-1.14914e-06
-8.58091e-06
-6.44109e-07
-1.03911e-05
-4.8954e-08
-1.22774e-05
6.39719e-07
-1.42207e-05
1.42362e-06
-1.61925e-05
2.30137e-06
-1.81454e-05
3.26724e-06
-1.99992e-05
4.30843e-06
-2.16331e-05
5.40408e-06
-2.28859e-05
6.52362e-06
-2.36015e-05
7.63263e-06
-2.36382e-05
8.69088e-06
-2.29385e-05
9.66195e-06
-2.14339e-05
1.05033e-05
-1.91934e-05
1.11915e-05
-1.61917e-05
1.16942e-05
-1.28421e-05
1.2029e-05
-8.99072e-06
1.21748e-05
-5.79183e-06
1.22066e-05
-1.90849e-06
1.20754e-05
-5.59302e-07
1.19323e-05
2.89219e-06
7.92694e-07
9.82002e-06
5.65155e-05
9.26817e-06
4.73979e-05
7.82005e-06
3.9172e-05
5.67891e-06
3.08119e-05
3.25354e-06
1.94156e-05
1.41731e-06
1.10304e-05
3.02456e-07
4.805e-06
-1.63133e-07
3.02868e-06
-3.14651e-07
2.3844e-06
-3.83921e-07
3.11393e-06
-4.25703e-07
3.84479e-06
-5.04753e-07
4.48252e-06
-6.25155e-07
4.69035e-06
-8.00209e-07
4.29498e-06
-1.02248e-06
3.10637e-06
-1.2815e-06
1.0071e-06
-1.54594e-06
-1.80815e-06
-1.76067e-06
-4.52916e-06
-1.84551e-06
-5.43264e-06
-1.72737e-06
-2.43685e-06
-1.44163e-06
4.72397e-06
-1.19159e-06
1.13929e-05
-1.14117e-06
1.3051e-05
-1.26475e-06
1.13208e-05
-1.45846e-06
9.15482e-06
-1.65551e-06
7.43557e-06
-1.83277e-06
6.13203e-06
-1.98293e-06
5.08412e-06
-2.10342e-06
4.14931e-06
-2.19188e-06
3.23413e-06
-2.24509e-06
2.27888e-06
-2.25893e-06
1.24838e-06
-2.22856e-06
1.22188e-07
-2.14866e-06
-1.11148e-06
-2.01353e-06
-2.4592e-06
-1.81723e-06
-3.92371e-06