/*--------------------------------*- C++ -*----------------------------------*\
| =========                 |                                                 |
| \\      /  F ield         | OpenFOAM: The Open Source CFD Toolbox           |
|  \\    /   O peration     | Version:  2.4.0                                 |
|   \\  /    A nd           | Web:      www.OpenFOAM.org                      |
|    \\/     M anipulation  |                                                 |
\*---------------------------------------------------------------------------*/
FoamFile
{
    version     2.0;
    format      ascii;
    class       volVectorField;
    location    "6.99";
    object      U;
}
// * * * * * * * * * * * * * * * * * * * * * * * * * * * * * * * * * * * * * //

dimensions      [0 1 -1 0 0 0 0];

internalField   nonuniform List<vector> 
6000
(
(0.165117 -0.00671281 1.27942e-18)
(-0.00974653 0.0018586 0)
(0.000828203 -0.000234128 7.21554e-18)
(-0.006634 0.00128765 0)
(-0.00500579 0.000987419 0)
(-0.00607617 0.00113989 0)
(-0.00534306 0.000983952 4.00475e-18)
(-0.00550672 0.000961759 3.33573e-22)
(-0.00512273 0.000866043 0)
(-0.0051224 0.000821081 0)
(-0.00494491 0.000758545 3.90619e-18)
(-0.00496643 0.000720627 -7.73803e-18)
(-0.00495832 0.000683049 0)
(-0.00507704 0.000658851 0)
(-0.00522682 0.000639257 -1.87712e-18)
(-0.00547052 0.000626408 0)
(-0.00576816 0.000616739 0)
(-0.00614441 0.000609405 -1.82862e-18)
(-0.00658277 0.00060235 -1.81538e-18)
(-0.00709208 0.000593972 0)
(-0.00766434 0.000582531 1.7942e-18)
(-0.00829991 0.000566191 8.93252e-19)
(-0.00899113 0.000543168 -8.9044e-19)
(-0.00973144 0.000511627 0)
(-0.0105091 0.000469974 0)
(-0.0113113 0.000416817 0)
(-0.0121218 0.000351159 4.45443e-19)
(-0.0129223 0.000272387 -4.47129e-19)
(-0.0136906 0.000180423 0)
(-0.014401 7.58371e-05 0)
(-0.0150246 -4.00164e-05 5.70842e-20)
(-0.0155296 -0.000164967 0)
(-0.0158818 -0.000296151 4.67103e-19)
(-0.0160457 -0.00043032 -4.7361e-19)
(-0.0159845 -0.00055223 0)
(-0.01566 -0.00066444 0)
(-0.0150372 -0.000757411 9.96573e-19)
(-0.0140795 -0.000821894 0)
(-0.0127568 -0.000847655 1.03749e-18)
(-0.011034 -0.000824134 0)
(-0.00889378 -0.000739606 0)
(-0.00630469 -0.000583008 2.21417e-18)
(-0.00329912 -0.000344134 -4.52357e-18)
(0.000161982 -9.04456e-06 0)
(0.00361283 0.000384031 0)
(0.00727111 0.000846515 2.39779e-18)
(0.0109679 0.00138018 0)
(0.0150317 0.00200517 0)
(0.0189679 0.00270335 -4.97117e-18)
(0.0235619 0.00352307 -4.99881e-18)
(0.0275116 0.00438105 -4.97831e-18)
(0.0329255 0.00544357 -1.78315e-21)
(0.0363728 0.00641763 4.82089e-18)
(0.0434849 0.00785473 0)
(0.0452402 0.00879513 -2.99047e-21)
(0.0563833 0.0109983 -4.28083e-18)
(0.0536621 0.0114151 3.4356e-18)
(0.0745975 0.0155398 3.53289e-18)
(0.061981 0.0144294 4.15778e-21)
(0.103789 0.0228198 0)
(0.360297 -0.0164517 -1.78233e-18)
(0.00301535 0.00650639 4.27746e-18)
(0.00549026 -0.00089338 -4.32736e-18)
(-0.0149566 0.00337602 -4.5915e-18)
(-0.01243 0.00257922 0)
(-0.0157697 0.00305955 0)
(-0.0142792 0.00266461 -4.57198e-18)
(-0.014874 0.00262439 9.05636e-18)
(-0.0140222 0.00238104 0)
(-0.0140814 0.00226714 0)
(-0.0136843 0.00210961 -4.33376e-18)
(-0.0137709 0.00201422 4.2697e-18)
(-0.0137901 0.00192259 2.10295e-18)
(-0.0141283 0.00186553 0)
(-0.0145566 0.00182164 2.04509e-18)
(-0.015227 0.00179545 0)
(-0.0160433 0.00177777 0)
(-0.0170626 0.00176587 0)
(-0.0182433 0.0017541 0)
(-0.019603 0.00173786 0)
(-0.0211189 0.00171216 -9.80622e-24)
(-0.0227868 0.00167171 0)
(-0.0245832 0.00161144 -9.51123e-19)
(-0.026486 0.00152611 0)
(-0.0284611 0.00141125 0)
(-0.0304713 0.00126309 4.72913e-19)
(-0.0324718 0.001079 -4.73527e-19)
(-0.0344125 0.000857383 -3.95211e-24)
(-0.0362349 0.000598106 2.38608e-19)
(-0.0378726 0.000302865 0)
(-0.0392528 -2.44473e-05 -6.05514e-20)
(-0.0402965 -0.000377629 -2.44714e-19)
(-0.04092 -0.000748147 1.07222e-23)
(-0.0410355 -0.00112513 5.02371e-19)
(-0.0405557 -0.00148155 -5.10325e-19)
(-0.0393908 -0.00181106 0)
(-0.037454 -0.00209027 0)
(-0.034657 -0.00229502 0)
(-0.0309236 -0.00239803 0)
(-0.0261665 -0.00237099 0)
(-0.020336 -0.00218172 -2.30532e-18)
(-0.0133565 -0.00179832 0)
(-0.00531055 -0.00118994 2.40451e-18)
(0.00378907 -0.000302382 2.45051e-18)
(0.0127593 0.000766772 0)
(0.0222449 0.00200922 0)
(0.0318431 0.003437 0)
(0.0422671 0.0050958 0)
(0.0524277 0.00694835 5.41798e-18)
(0.0640402 0.00910097 0)
(0.0742893 0.0113723 0)
(0.087731 0.0141305 -5.48976e-18)
(0.097018 0.0167257 -5.38322e-18)
(0.114214 0.0203957 0)
(0.120105 0.0229885 -9.95164e-18)
(0.146136 0.0284726 0)
(0.142874 0.0300257 -7.95636e-18)
(0.190357 0.0399121 -4.10852e-18)
(0.16663 0.0382178 1.68998e-18)
(0.261213 0.0572422 2.95822e-18)
(0.500824 -0.0113658 -1.73808e-19)
(0.041277 0.00906186 -4.24077e-18)
(0.0141208 -0.00129236 0)
(-0.018873 0.00483458 4.59883e-18)
(-0.0175055 0.00374073 0)
(-0.0234473 0.00457151 0)
(-0.02181 0.00403359 0)
(-0.0229955 0.00400708 -4.53371e-18)
(-0.0219305 0.00367036 0)
(-0.0221287 0.00351193 -4.40503e-18)
(-0.0216287 0.00329533 0)
(-0.0218166 0.00316383 0)
(-0.0219091 0.00304396 -2.10421e-18)
(-0.0224707 0.00297299 0)
(-0.0231788 0.00292409 0)
(-0.0242517 0.00290064 0)
(-0.0255532 0.00289035 0)
(-0.0271619 0.00288751 0)
(-0.0290169 0.00288381 0)
(-0.0311386 0.0028713 1.93673e-18)
(-0.0334901 0.00284199 -1.92209e-18)
(-0.0360588 0.00278704 0)
(-0.0388042 0.00269813 4.58447e-24)
(-0.0416866 0.0025667 -9.46848e-19)
(-0.0446483 0.00238554 0)
(-0.0476269 0.00214876 -9.4434e-19)
(-0.0505496 0.00185243 0)
(-0.0533354 0.00149427 4.73962e-19)
(-0.0558914 0.00107438 -2.38041e-19)
(-0.0581151 0.000595902 0)
(-0.0598949 6.55912e-05 0)
(-0.0611128 -0.000506022 2.43861e-19)
(-0.061645 -0.0011042 -2.06371e-24)
(-0.0613642 -0.00170923 0)
(-0.0601454 -0.00229611 1.015e-18)
(-0.0578636 -0.00283823 0)
(-0.0543997 -0.0033025 1.04997e-18)
(-0.0496362 -0.00365318 0)
(-0.0434754 -0.00384969 0)
(-0.0358126 -0.00385079 0)
(-0.0266054 -0.00360879 2.26387e-18)
(-0.0157993 -0.00307588 0)
(-0.00358659 -0.00220198 0)
(0.00986063 -0.000894428 -2.36195e-18)
(0.023299 0.000727411 0)
(0.0376541 0.00261509 0)
(0.0523347 0.00480444 2.56724e-18)
(0.0682444 0.00734147 -2.62416e-18)
(0.0839189 0.0102008 -2.6671e-18)
(0.101616 0.013483 0)
(0.117616 0.0170159 0)
(0.137934 0.02118 0)
(0.15289 0.0252866 5.34434e-18)
(0.178424 0.0307173 5.29417e-18)
(0.18919 0.0350273 4.96165e-18)
(0.226838 0.0428765 0)
(0.225886 0.0462069 3.97769e-18)
(0.292955 0.0597418 8.22969e-18)
(0.265361 0.059365 0)
(0.399348 0.0841628 -2.97685e-18)
(0.605048 0.000253986 -1.44285e-19)
(0.0969914 0.0110055 4.1164e-18)
(0.027898 -0.00122656 -4.31584e-18)
(-0.0183301 0.00584452 0)
(-0.0201017 0.00456452 0)
(-0.0290464 0.00577074 0)
(-0.0278654 0.0051413 0)
(-0.0298279 0.00516427 0)
(-0.0288021 0.00476713 0)
(-0.0292302 0.0045902 4.40783e-18)
(-0.0287428 0.00433638 4.33866e-18)
(-0.0290719 0.00418856 0)
(-0.0292807 0.00405784 0)
(-0.0300687 0.00398916 0)
(-0.0310522 0.00394992 2.04529e-18)
(-0.0324977 0.00394265 0)
(-0.0342414 0.00395183 1.99405e-18)
(-0.0363751 0.00396901 -1.97176e-18)
(-0.0388219 0.00398312 0)
(-0.0415999 0.003983 -1.9341e-18)
(-0.044658 0.00395757 0)
(-0.0479717 0.00389448 -9.53048e-19)
(-0.0514821 0.00378217 1.89592e-18)
(-0.0551295 0.00360882 9.44195e-19)
(-0.0588324 0.00336475 0)
(-0.0625033 0.00304238 4.70403e-19)
(-0.066042 0.00263688 0)
(-0.0693391 0.00214569 4.71639e-19)
(-0.0722719 0.0015695 0)
(-0.0747074 0.000913228 0)
(-0.0765044 0.000186642 0)
(-0.0775162 -0.00059551 2.41875e-19)
(-0.0775925 -0.00141295 -9.77725e-19)
(-0.0765825 -0.00223918 0)
(-0.0743428 -0.00304333 -5.01171e-19)
(-0.0707337 -0.00378856 0)
(-0.0656283 -0.00443297 -1.0323e-18)
(-0.0589076 -0.00493162 0)
(-0.0504832 -0.005234 0)
(-0.0402713 -0.00528936 0)
(-0.0282749 -0.00503883 2.19027e-18)
(-0.0145028 -0.00442136 0)
(0.000746681 -0.00337057 2.22606e-18)
(0.0172183 -0.00177209 -2.23968e-18)
(0.0341255 0.000247875 0)
(0.052386 0.00261941 -2.3943e-18)
(0.0712922 0.00540999 -4.93452e-18)
(0.0918055 0.00866432 2.53515e-18)
(0.11226 0.0123705 5.17472e-18)
(0.135144 0.0166082 -5.26552e-18)
(0.156306 0.0212399 -5.30366e-18)
(0.182427 0.0265916 0)
(0.20276 0.032061 -5.26031e-18)
(0.235048 0.0389204 -5.22672e-18)
(0.25111 0.0448824 -4.8945e-18)
(0.297482 0.0544729 0)
(0.300992 0.0597544 0)
(0.381521 0.0755793 -4.0904e-18)
(0.355845 0.0773256 0)
(0.516885 0.10466 2.91108e-18)
(0.684215 0.0143676 -1.25455e-19)
(0.162875 0.0131491 -3.18918e-20)
(0.0478625 -0.000606548 4.29001e-18)
(-0.0132822 0.00654004 4.59226e-18)
(-0.0200996 0.00513331 0)
(-0.0325203 0.00670575 -4.63129e-18)
(-0.0323859 0.00602075 0)
(-0.0353421 0.00611908 0)
(-0.0346021 0.00568836 0)
(-0.0353636 0.00551403 4.40882e-18)
(-0.0350007 0.00524234 -4.33964e-18)
(-0.035515 0.00509501 0)
(-0.0358794 0.00496854 0)
(-0.036895 0.00491583 0)
(-0.0381439 0.00489836 -2.04408e-18)
(-0.0399259 0.00491797 0)
(-0.0420597 0.00495576 -1.99163e-18)
(-0.0446427 0.00500068 1.96862e-18)
(-0.0475847 0.00503881 0)
(-0.0508969 0.00505587 0)
(-0.0545128 0.00503768 9.56499e-19)
(-0.0583932 0.00496845 9.49597e-19)
(-0.0624594 0.0048335 -1.88777e-18)
(-0.0666306 0.00461808 -9.39425e-19)
(-0.0708018 0.00431045 0)
(-0.0748617 0.00390187 4.67213e-19)
(-0.078686 0.00338723 0)
(-0.0821418 0.00276425 -4.67457e-19)
(-0.0850838 0.00203476 2.34312e-19)
(-0.0873588 0.00120589 0)
(-0.0888084 0.000290723 0)
(-0.0892726 -0.000691826 -4.76564e-19)
(-0.0885921 -0.00171629 4.8057e-19)
(-0.0866148 -0.00275052 0)
(-0.0831991 -0.00375676 -4.90078e-19)
(-0.078213 -0.00469199 0)
(-0.0715438 -0.00550745 1.00298e-18)
(-0.0630927 -0.0061516 0)
(-0.0527985 -0.00656714 0)
(-0.0406112 -0.00669653 0)
(-0.0265776 -0.00647276 -2.0916e-18)
(-0.0107497 -0.00582294 -2.10137e-18)
(0.00653886 -0.00466681 -2.1035e-18)
(0.025071 -0.00288819 1.06779e-21)
(0.0445674 -0.000613021 -2.17903e-18)
(0.0657867 0.00208531 2.25868e-18)
(0.0879914 0.00530508 4.66596e-18)
(0.112149 0.00909675 0)
(0.136541 0.0134635 -2.46663e-18)
(0.163692 0.0184679 5.04396e-18)
(0.189348 0.0240133 5.10236e-18)
(0.220316 0.0303488 0)
(0.245627 0.0370079 0)
(0.283416 0.0450317 0)
(0.30489 0.0525178 4.78619e-18)
(0.357819 0.0633985 0)
(0.367079 0.0706503 0)
(0.456524 0.0878018 4.00902e-18)
(0.436528 0.0920291 -1.62351e-18)
(0.614833 0.119719 -2.88421e-18)
(0.745566 0.0291107 -1.12207e-19)
(0.233415 0.0160033 -3.94314e-18)
(0.0745657 0.00058083 0)
(-0.00365235 0.00707855 -4.58227e-18)
(-0.0173879 0.00552817 -4.60646e-18)
(-0.0338195 0.00742424 5.12775e-22)
(-0.0353135 0.00670543 0)
(-0.03951 0.00689551 0)
(-0.0392992 0.00645152 0)
(-0.0405102 0.00629637 -4.4095e-18)
(-0.0403809 0.00602279 0)
(-0.0411282 0.00588958 0)
(-0.0416838 0.00577991 2.10312e-18)
(-0.0429267 0.00575409 0)
(-0.044425 0.00576785 0)
(-0.0465013 0.00582213 0)
(-0.0489638 0.00589463 0)
(-0.0519099 0.00597164 -1.96349e-18)
(-0.0552369 0.00603637 0)
(-0.0589456 0.00607149 1.92152e-18)
(-0.0629535 0.00605978 -9.51895e-19)
(-0.0672043 0.00598224 -9.44087e-19)
(-0.0715997 0.00582136 1.87486e-18)
(-0.0760384 0.0055599 1.8638e-18)
(-0.0803949 0.00518474 0)
(-0.0845384 0.00468675 -4.62197e-19)
(-0.0883276 0.00406123 0)
(-0.091615 0.00330694 0)
(-0.0942447 0.00242742 -4.61128e-19)
(-0.0960569 0.00143249 0)
(-0.096892 0.000338644 0)
(-0.0965937 -0.000831209 4.65681e-19)
(-0.0950118 -0.00204719 0)
(-0.0920083 -0.00327244 0)
(-0.0874558 -0.00446424 4.74528e-19)
(-0.0812401 -0.00557528 0)
(-0.0732683 -0.00655217 -9.64529e-19)
(-0.0634621 -0.00733894 0)
(-0.0517809 -0.00787367 0)
(-0.0381952 -0.00809347 0)
(-0.0227699 -0.00792459 0)
(-0.00556609 -0.00728268 1.98598e-18)
(0.0131027 -0.00607624 1.98153e-18)
(0.0331072 -0.00420152 1.10317e-21)
(0.0545058 -0.00178206 2.0466e-18)
(0.0778815 0.00111895 2.11548e-18)
(0.10252 0.00462014 -2.18717e-18)
(0.129372 0.00878125 0)
(0.156775 0.0136193 -2.31604e-18)
(0.1872 0.0191907 2.37439e-18)
(0.216514 0.0254378 -4.81911e-18)
(0.251353 0.0325425 0)
(0.281036 0.0401793 0)
(0.323274 0.0491327 -4.8639e-18)
(0.349954 0.0579566 -4.59363e-18)
(0.407918 0.0698045 4.56921e-18)
(0.423471 0.0789218 3.74225e-18)
(0.518827 0.0967721 -3.91788e-18)
(0.506518 0.103528 1.59246e-18)
(0.695035 0.130222 0)
(0.793857 0.0436849 -1.01237e-19)
(0.304739 0.019793 0)
(0.107928 0.00233913 4.21763e-18)
(0.0106807 0.00762093 4.56601e-18)
(-0.0118644 0.00582725 -6.13919e-23)
(-0.0328853 0.00797355 4.63063e-18)
(-0.0365884 0.00722891 0)
(-0.0423008 0.00751793 0)
(-0.0428619 0.00707421 0)
(-0.044651 0.00695053 2.20441e-18)
(-0.0448633 0.00668726 2.16906e-18)
(-0.0458954 0.00657869 0)
(-0.0466748 0.00649545 -2.10157e-18)
(-0.0481433 0.00650459 2.06937e-18)
(-0.0498696 0.00655621 0)
(-0.0521921 0.00665002 0)
(-0.0549135 0.00676019 0)
(-0.0581271 0.00687032 4.96525e-23)
(-0.0617188 0.00696076 0)
(-0.0656763 0.00701129 -3.82056e-18)
(-0.0699019 0.00700181 9.45134e-19)
(-0.0743225 0.00691056 9.36152e-19)
(-0.0788225 0.00671766 -2.81707e-23)
(-0.0832844 0.00640416 -9.21144e-19)
(-0.0875685 0.00595633 0)
(-0.0915333 0.00536551 0)
(-0.0950303 0.00462823 0)
(-0.0979096 0.00374483 2.25911e-19)
(-0.100017 0.002721 4.51013e-19)
(-0.101199 0.00156926 0)
(-0.101307 0.000309253 0)
(-0.100198 -0.00103281 -4.5181e-19)
(-0.0977383 -0.00242371 -2.26388e-19)
(-0.0938051 -0.00382337 0)
(-0.0882852 -0.005186 0)
(-0.0810785 -0.00646117 0)
(-0.072105 -0.00759235 0)
(-0.0612973 -0.00852036 0)
(-0.0486239 -0.00917962 0)
(-0.034061 -0.00950224 0)
(-0.0176746 -0.00940815 0)
(0.000482635 -0.00880214 0)
(0.0201405 -0.00758468 -8.961e-22)
(0.0412582 -0.00567232 1.87831e-18)
(0.064064 -0.00318812 0)
(0.0889988 -0.00017347 -3.97188e-18)
(0.115391 0.00349943 -2.04547e-18)
(0.14416 0.00789952 0)
(0.173746 0.013052 2.16501e-18)
(0.206528 0.019015 -2.22017e-18)
(0.238607 0.0257601 4.51171e-18)
(0.276327 0.0334243 -4.58157e-18)
(0.309563 0.041801 0)
(0.355228 0.0514564 8.75331e-21)
(0.386536 0.061369 4.35688e-18)
(0.448354 0.0739296 -8.69919e-18)
(0.470094 0.0846898 -1.28886e-20)
(0.569447 0.102851 -3.74256e-18)
(0.565526 0.111955 1.51161e-18)
(0.759479 0.136923 2.68462e-18)
(0.832278 0.057655 3.09779e-18)
(0.374266 0.0245447 0)
(0.147308 0.00468617 2.61595e-21)
(0.0298533 0.00828962 -2.75671e-22)
(-0.00343233 0.00613357 4.59338e-18)
(-0.029647 0.00840201 4.62697e-18)
(-0.0361463 0.00762608 0)
(-0.0436774 0.00801172 4.53913e-18)
(-0.0452563 0.00757484 0)
(-0.0477648 0.00749058 -2.20392e-18)
(-0.0484275 0.00724575 -9.40405e-23)
(-0.0498004 0.00716914 -2.13379e-18)
(-0.0508346 0.00711885 0)
(-0.0525259 0.00716813 -4.13184e-18)
(-0.0544545 0.00726132 0)
(-0.0569713 0.00739657 0)
(-0.0598765 0.00754444 0)
(-0.0632579 0.0076858 1.94567e-18)
(-0.0669913 0.00779829 0)
(-0.0710522 0.00785903 1.89504e-18)
(-0.0753294 0.00784553 -1.87225e-18)
(-0.0797368 0.00773379 0)
(-0.0841472 0.00750236 -3.10189e-23)
(-0.088434 0.00713137 0)
(-0.092452 0.00660731 0)
(-0.096058 0.00592267 -4.46334e-19)
(-0.0991066 0.00507569 0)
(-0.101454 0.00406854 -4.41027e-19)
(-0.102956 0.00290892 -2.1958e-19)
(-0.10347 0.00161168 -5.47207e-20)
(-0.102862 0.000198903 5.46178e-20)
(-0.101003 -0.00130084 2.18279e-19)
(-0.0977731 -0.00285202 4.36367e-19)
(-0.0930587 -0.00441267 0)
(-0.0867559 -0.00593483 4.37525e-19)
(-0.078773 -0.00736569 0)
(-0.0690357 -0.00864626 0)
(-0.0574811 -0.00971449 0)
(-0.0440796 -0.0105015 8.87508e-19)
(-0.0288068 -0.0109345 0)
(-0.0117228 -0.0109274 0)
(0.00713383 -0.0103756 1.78535e-18)
(0.0275433 -0.00917487 -1.78274e-18)
(0.0495366 -0.00726492 0)
(0.0733997 -0.0047702 0)
(0.0994713 -0.00170334 1.874e-18)
(0.127129 0.00206479 1.92395e-18)
(0.157249 0.0066114 -1.97394e-18)
(0.188387 0.0119635 0)
(0.222808 0.018186 0)
(0.256886 0.0252651 0)
(0.296635 0.0333156 7.05957e-21)
(0.332571 0.0422123 0)
(0.380708 0.0523669 4.28524e-18)
(0.415815 0.0630925 0)
(0.480446 0.0761525 4.08466e-18)
(0.507736 0.0882374 -3.3747e-18)
(0.609762 0.106474 7.08845e-18)
(0.613977 0.117566 -1.44282e-18)
(0.810222 0.140523 -2.56803e-18)
(0.863047 0.0707584 8.43613e-20)
(0.440358 0.0301576 -3.62605e-18)
(0.19167 0.00764463 -4.11279e-18)
(0.053879 0.00919626 -1.83063e-22)
(0.00808279 0.00653787 -4.58108e-18)
(-0.0240219 0.00875988 -4.62201e-18)
(-0.033917 0.00793319 0)
(-0.0435948 0.00840286 -4.5374e-18)
(-0.0464444 0.00797238 0)
(-0.0498267 0.00793098 -2.20278e-18)
(-0.0510516 0.00770862 -2.1667e-18)
(-0.0528266 0.00766808 2.13165e-18)
(-0.0541466 0.00765406 -2.09579e-18)
(-0.0560582 0.00774582 2.06124e-18)
(-0.0581623 0.00788153 -2.02707e-18)
(-0.0608205 0.00805757 1.99427e-18)
(-0.0638353 0.0082408 0)
(-0.0672891 0.0084095 0)
(-0.0710508 0.0085388 0)
(-0.0750863 0.00860371 9.37971e-19)
(-0.0792761 0.00857986 9.25065e-19)
(-0.0835263 0.00844175 0)
(-0.087705 0.00816705 -9.01645e-19)
(-0.0916837 0.00773567 0)
(-0.095319 0.00713486 0)
(-0.0984731 0.00635864 4.36557e-19)
(-0.101008 0.00540697 -4.3273e-19)
(-0.10279 0.00428365 2.14736e-19)
(-0.103687 0.00299798 0)
(-0.103567 0.00156653 1.06122e-19)
(-0.102307 1.31531e-05 -1.05709e-19)
(-0.0997904 -0.00163201 0)
(-0.0959036 -0.003332 -2.1027e-19)
(-0.0905391 -0.00504349 4.20091e-19)
(-0.0835989 -0.00671672 -4.20323e-19)
(-0.0749952 -0.00829684 0)
(-0.0646567 -0.00972266 0)
(-0.0525215 -0.0109294 0)
(-0.0385595 -0.0118451 -8.49192e-19)
(-0.0227436 -0.0123921 0)
(-0.00512596 -0.0124792 0)
(0.0142712 -0.0119939 -1.70771e-18)
(0.0352764 -0.0108303 0)
(0.0579746 -0.00895074 1.70985e-18)
(0.0826439 -0.00648115 -1.73964e-18)
(0.109554 -0.00340357 0)
(0.138133 0.00040774 1.81765e-18)
(0.169208 0.0050375 3.72067e-18)
(0.201447 0.0105095 -1.89651e-18)
(0.236997 0.0168985 0)
(0.272495 0.0241923 0)
(0.313627 0.0325013 1.99265e-18)
(0.351541 0.041743 0)
(0.401373 0.0522372 3.97204e-18)
(0.439426 0.0635245 0)
(0.50598 0.0769135 3.78575e-18)
(0.537899 0.089974 3.1291e-18)
(0.641584 0.108143 -3.31557e-18)
(0.653057 0.120757 0)
(0.849536 0.14171 2.38663e-18)
(0.887776 0.0828604 -3.34937e-18)
(0.502042 0.0364637 2.00264e-20)
(0.239773 0.0112256 4.05864e-18)
(0.0826529 0.010451 -1.62633e-22)
(0.0228649 0.00710691 -6.62317e-22)
(-0.0159132 0.00909962 0)
(-0.0298247 0.00818793 0)
(-0.0419989 0.0087178 0)
(-0.0463826 0.00828638 -2.23389e-18)
(-0.0508069 0.00828655 4.40266e-18)
(-0.0527114 0.00808661 0)
(-0.0549561 0.00808302 2.12864e-18)
(-0.0565955 0.00810554 6.31116e-23)
(-0.0587284 0.00823948 -2.05514e-18)
(-0.0609835 0.0084163 5.61697e-23)
(-0.0637357 0.00863059 -1.98376e-18)
(-0.0667938 0.00884539 0)
(-0.0702381 0.00903671 0)
(-0.073935 0.00917751 0)
(-0.0778452 0.00924121 -9.27025e-19)
(-0.0818462 0.00920211 0)
(-0.0858417 0.00903388 8.98864e-19)
(-0.089701 0.00871378 8.86025e-19)
(-0.0932987 0.00822194 -8.74069e-19)
(-0.0964976 0.00754655 0)
(-0.0991675 0.00668314 0)
(-0.10118 0.00563316 4.2203e-19)
(-0.102411 0.00440172 0)
(-0.102736 0.00299921 2.0732e-19)
(-0.102036 0.00144346 -5.14845e-20)
(-0.100194 -0.000240412 5.12063e-20)
(-0.0971014 -0.00202125 -2.03773e-19)
(-0.0926481 -0.00386115 0)
(-0.0867309 -0.00571553 -4.05337e-19)
(-0.0792555 -0.00753302 0)
(-0.0701366 -0.0092569 0)
(-0.0593044 -0.0108239 8.11764e-19)
(-0.0466968 -0.0121667 0)
(-0.032283 -0.0132104 0)
(-0.0160322 -0.0138727 0)
(0.0020117 -0.0140581 0)
(0.0218432 -0.0136483 0)
(0.0433331 -0.0125376 0)
(0.0666048 -0.0107081 -3.29294e-18)
(0.0918951 -0.00828657 1.67014e-18)
(0.119429 -0.005226 1.69921e-18)
(0.148681 -0.0014067 -3.46249e-18)
(0.180432 0.00326311 -1.76509e-18)
(0.213453 0.00880037 1.7939e-18)
(0.249775 0.0152919 -1.82102e-18)
(0.286276 0.0227166 0)
(0.328336 0.0311942 3.27145e-21)
(0.367677 0.040652 -3.68148e-18)
(0.418628 0.0513703 -3.70279e-18)
(0.458899 0.0630174 -3.50416e-18)
(0.526688 0.0766105 -7.02971e-18)
(0.562293 0.0903277 -2.91169e-18)
(0.666867 0.108346 3.05525e-18)
(0.684437 0.122004 1.22148e-18)
(0.879837 0.141123 -2.22639e-18)
(0.907674 0.0939179 -7.31272e-20)
(0.558804 0.0432708 3.48693e-18)
(0.290319 0.0154163 2.24651e-21)
(0.11591 0.0121365 -2.02823e-22)
(0.0410942 0.00790919 4.54043e-18)
(-0.00521228 0.00947434 4.60161e-18)
(-0.0237883 0.00842951 -4.57035e-18)
(-0.0388267 0.00898346 2.26493e-18)
(-0.0450212 0.00853708 4.43398e-23)
(-0.0506702 0.00857262 -2.19937e-18)
(-0.0533799 0.00839099 -2.16204e-18)
(-0.0561708 0.00842207 -2.12503e-18)
(-0.058169 0.0084786 4.17255e-18)
(-0.0605309 0.00865219 5.34451e-23)
(-0.06292 0.00886692 2.00931e-18)
(-0.0657291 0.00911575 0)
(-0.0687787 0.00935782 1.93432e-18)
(-0.0721515 0.00956722 0)
(-0.0757161 0.00971503 -1.8637e-18)
(-0.0794327 0.00977357 -9.15236e-19)
(-0.08318 0.00971624 -8.99387e-19)
(-0.086864 0.00951624 -3.13809e-23)
(-0.0903583 0.00915073 -8.70273e-19)
(-0.0935435 0.00860021 8.57085e-19)
(-0.0962898 0.00785378 0)
(-0.0984753 0.00690827 -4.16856e-19)
(-0.09998 0.0057664 0)
(-0.100688 0.00443417 0)
(-0.100483 0.0029228 -2.01816e-19)
(-0.0992525 0.00125102 0)
(-0.096887 -0.000555129 0)
(-0.0932803 -0.00246384 1.97667e-19)
(-0.0883264 -0.00443643 0)
(-0.0819251 -0.00642709 0)
(-0.0739852 -0.00838296 3.91866e-19)
(-0.0644228 -0.0102456 0)
(-0.0531692 -0.0119497 -7.8494e-19)
(-0.0401624 -0.0134256 0)
(-0.0253702 -0.0145955 7.88794e-19)
(-0.00875861 -0.0153733 0)
(0.0096366 -0.0156595 0)
(0.0298261 -0.0153316 0)
(0.0517162 -0.0142861 0)
(0.0754558 -0.0125207 1.59332e-18)
(0.101226 -0.0101617 0)
(0.129223 -0.00713659 -3.26907e-18)
(0.158968 -0.00333319 1.6596e-18)
(0.191194 0.00134715 -1.68357e-18)
(0.224766 0.00691212 1.70455e-18)
(0.261608 0.013462 1.72815e-18)
(0.298811 0.020959 0)
(0.341478 0.0295426 1.74993e-18)
(0.38184 0.0391242 5.18423e-18)
(0.433506 0.0499853 -3.4512e-18)
(0.475427 0.0618405 3.27285e-18)
(0.543955 0.0755509 3.26913e-18)
(0.582429 0.0896642 0)
(0.687338 0.107494 -2.83783e-18)
(0.709849 0.121768 -2.25333e-18)
(0.903378 0.139299 0)
(0.92368 0.103944 3.57697e-18)
(0.610446 0.0503878 0)
(0.342074 0.020176 2.02966e-21)
(0.153221 0.0143093 -2.83354e-22)
(0.0629154 0.00900584 -4.51398e-18)
(0.00820253 0.00994296 -9.17388e-18)
(-0.0157209 0.00869878 9.12764e-18)
(-0.0340053 0.00922731 -2.26232e-18)
(-0.042304 0.00874558 2.22987e-18)
(-0.0493758 0.00880517 0)
(-0.0530273 0.0086338 4.36759e-23)
(-0.056452 0.00869428 0)
(-0.0588575 0.00877972 -4.16042e-18)
(-0.0614662 0.00898858 2.03963e-18)
(-0.0639836 0.00923677 0)
(-0.0668269 0.0095159 0)
(-0.0698339 0.009781 -1.91831e-18)
(-0.0730945 0.0100046 0)
(-0.0764839 0.010156 1.84246e-18)
(-0.0799656 0.0102068 9.03381e-19)
(-0.0834231 0.0101297 2.79335e-23)
(-0.086767 0.0098977 -8.70244e-19)
(-0.0898771 0.00948796 -8.55047e-19)
(-0.0926412 0.0088813 0)
(-0.0949372 0.00806765 0)
(-0.0966506 0.00704497 4.07988e-19)
(-0.097669 0.00581695 0)
(-0.0978832 0.00439029 1.98927e-19)
(-0.0971838 0.00277677 -1.96875e-19)
(-0.0954634 0.000995846 4.87883e-20)
(-0.0926177 -0.00092581 -4.84077e-20)
(-0.0885426 -0.00295594 1.92313e-19)
(-0.0831352 -0.0050551 -1.91341e-19)
(-0.0762983 -0.00717627 3.81389e-19)
(-0.0679431 -0.00926521 -3.80786e-19)
(-0.0579874 -0.0112618 0)
(-0.0463632 -0.0130991 0)
(-0.0330086 -0.0147047 0)
(-0.0178903 -0.0159988 -2.02426e-22)
(-0.000971685 -0.0168911 7.68058e-19)
(0.01772 -0.0172794 0)
(0.0382093 -0.0170386 0)
(0.0604315 -0.0160674 0)
(0.0845514 -0.0143759 0)
(0.110693 -0.0120882 0)
(0.139031 -0.00911098 1.02325e-21)
(0.169129 -0.00533979 0)
(0.20168 -0.000669421 3.23652e-18)
(0.235631 0.00489704 -3.26615e-18)
(0.27281 0.0114741 -1.64685e-18)
(0.310496 0.0190023 0)
(0.353542 0.0276477 0)
(0.394627 0.0372873 -3.26016e-18)
(0.446722 0.048234 7.64839e-21)
(0.489863 0.0601861 -3.05506e-18)
(0.558785 0.073955 3.03879e-18)
(0.599474 0.0882632 2.49102e-18)
(0.704343 0.105891 -2.6126e-18)
(0.730792 0.120435 2.06201e-18)
(0.92201 0.136641 1.87182e-18)
(0.936534 0.112984 6.54408e-20)
(0.656981 0.0576407 -3.3456e-18)
(0.393924 0.0254381 -7.77198e-18)
(0.194007 0.0170017 -3.9442e-22)
(0.0883954 0.0104507 4.48158e-18)
(0.0244699 0.0105632 4.56704e-18)
(-0.00553074 0.00904015 -2.27655e-18)
(-0.0274511 0.00947735 0)
(-0.0381675 0.00893402 0)
(-0.0468762 0.00900095 2.19406e-18)
(-0.0516198 0.00882799 2.15554e-18)
(-0.0557794 0.00890973 0)
(-0.058653 0.00901669 2.07368e-18)
(-0.0615396 0.00925493 0)
(-0.0641933 0.00953124 0)
(-0.0670637 0.00983613 0)
(-0.0700109 0.0101202 0)
(-0.0731374 0.0103547 1.86112e-18)
(-0.0763285 0.0105071 9.10804e-19)
(-0.0795541 0.0105485 -8.91907e-19)
(-0.0827046 0.0104509 2.73037e-23)
(-0.0856969 0.0101874 0)
(-0.0884182 0.00973492 8.40992e-19)
(-0.0907637 0.00907477 0)
(-0.0926186 0.00819749 0)
(-0.0938755 0.00710201 3.99965e-19)
(-0.0944285 0.00579281 -3.94365e-19)
(-0.0941743 0.00427711 -1.94727e-19)
(-0.0930088 0.00256713 1.92591e-19)
(-0.0908294 0.000682872 -9.53934e-20)
(-0.0875357 -0.00134857 9.45637e-20)
(-0.0830252 -0.00349459 -1.87763e-19)
(-0.0771984 -0.00571493 1.86735e-19)
(-0.0699609 -0.00796141 -6.54688e-23)
(-0.061226 -0.0101785 -3.71246e-19)
(-0.050913 -0.0123046 0)
(-0.0389551 -0.014271 0)
(-0.0252906 -0.016003 0)
(-0.00988543 -0.0174185 -1.49331e-18)
(0.00729959 -0.018424 -7.48752e-19)
(0.0262453 -0.0189151 0)
(0.0469876 -0.0187646 0)
(0.0694855 -0.0178748 -1.50498e-18)
(0.0939116 -0.0162638 0)
(0.120336 -0.0140527 0)
(0.148919 -0.0111313 3.07027e-18)
(0.179262 -0.0074035 -1.54866e-18)
(0.212024 -0.00275752 -3.12696e-18)
(0.246223 0.00279183 1.60511e-21)
(0.283601 0.00937381 3.16456e-18)
(0.321604 0.0169036 1.57824e-18)
(0.364861 0.025579 0)
(0.406446 0.035229 1.55003e-18)
(0.458765 0.0462204 3.07686e-18)
(0.502805 0.058188 2.88677e-18)
(0.571879 0.0719751 -2.86076e-18)
(0.614279 0.0863272 -2.33616e-18)
(0.718858 0.103757 2.44156e-18)
(0.748432 0.118303 -9.52858e-19)
(0.937126 0.133436 -1.73834e-18)
(0.946832 0.121102 6.2462e-20)
(0.698566 0.0648795 3.30647e-18)
(0.444921 0.0311159 -1.56916e-21)
(0.237581 0.0202221 -5.31256e-22)
(0.117496 0.0122886 0)
(0.0437079 0.0113939 0)
(0.00690362 0.00949635 1.72217e-22)
(-0.0190693 0.00976269 0)
(-0.0325395 0.00912567 0)
(-0.0431158 0.00917757 -7.61493e-24)
(-0.0491179 0.00898751 0)
(-0.0541291 0.00907958 0)
(-0.0575462 0.00919858 2.06704e-18)
(-0.0607561 0.00945891 0)
(-0.0635687 0.00975713 0)
(-0.0664739 0.010083 0)
(-0.0693594 0.0103821 0)
(-0.0723449 0.0106245 -3.46317e-23)
(-0.075329 0.0107756 -9.01049e-19)
(-0.0782906 0.0108063 1.76254e-18)
(-0.0811287 0.0106879 2.61082e-23)
(-0.0837678 0.0103933 8.44783e-19)
(-0.0861031 0.00989967 0)
(-0.088037 0.00918844 8.12806e-19)
(-0.0894621 0.00825069 0)
(-0.0902776 0.00708619 -3.92925e-19)
(-0.0903834 0.00570007 3.23886e-23)
(-0.0896813 0.00409995 0)
(-0.088072 0.00229837 0)
(-0.085457 0.00031577 5.58944e-24)
(-0.0817393 -0.00182052 -6.10382e-24)
(-0.0768179 -0.00407755 9.19042e-20)
(-0.070597 -0.0064142 0)
(-0.0629846 -0.00878123 -3.64093e-19)
(-0.0538964 -0.0111219 3.63279e-19)
(-0.0432532 -0.0133732 0)
(-0.0309896 -0.0154646 -7.26594e-19)
(-0.0170441 -0.0173195 0)
(-0.00138238 -0.0188536 1.64323e-22)
(0.0160371 -0.0199705 0)
(0.0352028 -0.0205641 7.33444e-19)
(0.0561592 -0.0205063 7.3501e-19)
(0.0788842 -0.0197028 4.98043e-22)
(0.103553 -0.0181766 -1.47737e-18)
(0.130187 -0.0160446 0)
(0.158938 -0.0131842 -8.56002e-22)
(0.189441 -0.00950733 1.50838e-18)
(0.222322 -0.00489597 1.24112e-21)
(0.256666 0.000622875 1.5241e-18)
(0.294136 0.00719342 -1.7548e-21)
(0.332325 0.0147031 -2.06665e-21)
(0.375668 0.0233849 0)
(0.417582 0.0330103 0)
(0.469975 0.0440164 0)
(0.514667 0.0559394 0)
(0.583722 0.0697166 0)
(0.627444 0.0839993 2.18254e-18)
(0.731571 0.101242 0)
(0.76363 0.115589 0)
(0.94972 0.129874 -1.60054e-18)
(0.95506 0.12837 -1.92064e-18)
(0.735451 0.0719809 0)
(0.494284 0.0371096 -1.37635e-21)
(0.283186 0.0239552 -6.88165e-22)
(0.150058 0.014553 0)
(0.0660034 0.0124927 2.25822e-18)
(0.0217195 0.0101092 -2.26182e-18)
(-0.00875391 0.0101136 0)
(-0.0253386 0.00934508 0)
(-0.0380292 0.00935348 -2.188e-18)
(-0.0454743 0.00912728 0)
(-0.0514705 0.00921599 0)
(-0.0555227 0.00933547 -2.06079e-18)
(-0.0591167 0.00960915 0)
(-0.0621249 0.00992217 -1.96601e-18)
(-0.0650858 0.0102636 0)
(-0.06792 0.0105736 0)
(-0.070769 0.0108208 -2.8131e-23)
(-0.0735478 0.0109686 0)
(-0.0762467 0.0109872 -8.7164e-19)
(-0.0787745 0.0108475 8.5222e-19)
(-0.0810644 0.0105224 -1.66788e-18)
(-0.08302 0.00998885 8.16856e-19)
(-0.0845515 0.00922858 -8.01089e-19)
(-0.0855583 0.00823305 0)
(-0.0859458 0.00700278 -3.86707e-19)
(-0.0856197 0.00554341 7.61704e-19)
(-0.0844863 0.00386284 0)
(-0.0824507 0.00197389 -9.28068e-20)
(-0.0794184 -0.000102698 4.59276e-20)
(-0.0752947 -0.00233948 -4.54762e-20)
(-0.0699812 -0.00470312 -9.02336e-20)
(-0.0633853 -0.00715161 0)
(-0.0554178 -0.00963473 -3.57229e-19)
(-0.0459965 -0.0120946 3.56386e-19)
(-0.0350442 -0.0144668 0)
(-0.0224966 -0.0166793 7.13018e-19)
(-0.00829313 -0.0186534 0)
(0.00760084 -0.020303 7.16251e-19)
(0.025229 -0.0215292 0)
(0.0445862 -0.0222245 -7.19635e-19)
(0.0657232 -0.0222606 -7.21449e-19)
(0.0886332 -0.0215467 4.6175e-22)
(0.11349 -0.0201076 1.45065e-18)
(0.140274 -0.0180558 0)
(0.169129 -0.0152593 -1.46632e-18)
(0.199719 -0.0116384 0)
(0.232646 -0.00706896 1.48089e-18)
(0.26705 -0.00159035 0)
(0.304527 0.00495653 -1.48366e-18)
(0.3428 0.0124299 -2.94307e-18)
(0.386128 0.0211001 0)
(0.428236 0.0306746 0)
(0.480589 0.0416727 0)
(0.525742 0.053506 1.30245e-18)
(0.594653 0.0672528 0)
(0.639397 0.0813813 -9.79997e-21)
(0.742961 0.0984483 0)
(0.777007 0.11245 8.02137e-19)
(0.96049 0.126084 1.50261e-18)
(0.961619 0.134866 0)
(0.767943 0.0788481 3.21807e-18)
(0.541402 0.0433142 3.73584e-18)
(0.330043 0.0281642 -8.56562e-22)
(0.185797 0.0172648 0)
(0.0913996 0.0139109 -2.24292e-18)
(0.039054 0.0109206 0)
(0.00360954 0.0105626 2.24519e-18)
(-0.0164749 0.0096182 2.21822e-18)
(-0.0315401 0.00954799 2.18501e-18)
(-0.0406315 0.00926317 2.14506e-18)
(-0.0477635 0.00933193 2.10219e-18)
(-0.0525589 0.0094382 0)
(-0.0566134 0.00971494 0)
(-0.0598675 0.0100345 1.95684e-18)
(-0.0629174 0.0103855 0)
(-0.0657212 0.0107017 0)
(-0.0684477 0.0109503 -1.81295e-18)
(-0.0710305 0.0110923 0)
(-0.0734742 0.0110974 -8.63074e-19)
(-0.0756988 0.0109358 0)
(-0.0776472 0.0105803 8.24381e-19)
(-0.0792318 0.0100079 -8.06919e-19)
(-0.0803706 0.00920026 0)
(-0.0809702 0.00814923 0)
(-0.0809421 0.00685596 2.59551e-23)
(-0.0801972 0.0053265 -3.75406e-19)
(-0.0786463 0.00356894 0)
(-0.0761985 0.00159632 9.14289e-20)
(-0.0727633 -0.000570399 4.52069e-20)
(-0.0682478 -0.00290377 -4.47519e-20)
(-0.0625568 -0.00536996 0)