/*--------------------------------*- C++ -*----------------------------------*\
| =========                 |                                                 |
| \\      /  F ield         | OpenFOAM: The Open Source CFD Toolbox           |
|  \\    /   O peration     | Version:  2.4.0                                 |
|   \\  /    A nd           | Web:      www.OpenFOAM.org                      |
|    \\/     M anipulation  |                                                 |
\*---------------------------------------------------------------------------*/
FoamFile
{
    version     2.0;
    format      ascii;
    class       surfaceScalarField;
    location    "1.76";
    object      phi_0;
}
// * * * * * * * * * * * * * * * * * * * * * * * * * * * * * * * * * * * * * //

dimensions      [0 3 -1 0 0 0 0];

internalField   nonuniform List<scalar> 
4456
(
2.71406e-06
-2.14064e-07
2.15193e-06
5.62136e-07
2.29825e-06
-1.46319e-07
2.43519e-06
-1.36941e-07
2.3383e-06
9.6887e-08
2.6174e-06
-2.79099e-07
2.52692e-06
9.04828e-08
2.44378e-06
8.31369e-08
2.55969e-06
-1.15909e-07
2.3257e-06
2.33987e-07
2.36436e-06
-3.86573e-08
2.41997e-06
-5.56069e-08
2.16728e-06
2.52687e-07
2.53593e-06
-3.68649e-07
2.38087e-06
1.55057e-07
2.36367e-06
1.7196e-08
2.46104e-06
-9.73628e-08
2.48057e-06
-1.95326e-08
2.38849e-06
9.20767e-08
1.7992e-09
2.38669e-06
2.61029e-06
-3.24355e-07
2.63069e-06
5.41735e-07
2.48378e-06
5.95143e-10
2.67992e-06
-3.33087e-07
2.61472e-06
1.62092e-07
2.48862e-06
-1.52998e-07
2.6293e-06
-5.01968e-08
2.59312e-06
1.19312e-07
2.45573e-06
2.1483e-08
2.71251e-06
-2.27897e-08
2.53799e-06
1.35861e-07
2.50546e-06
-2.30783e-08
2.65648e-06
1.0167e-07
2.37218e-06
-8.4348e-08
2.46331e-06
6.39273e-08
2.58579e-06
-1.05289e-07
2.33278e-06
1.55649e-07
2.43324e-06
-1.19992e-07
2.54439e-06
-1.90769e-08
1.79637e-07
2.36655e-06
2.49787e-06
-3.22224e-07
2.61963e-06
4.19971e-07
2.53227e-06
8.79574e-08
2.54383e-06
-3.44649e-07
2.57326e-06
1.32667e-07
2.5182e-06
-9.79401e-08
2.49196e-06
-2.39591e-08
2.57698e-06
3.42913e-08
2.37656e-06
2.21907e-07
2.5314e-06
-1.77626e-07
2.54136e-06
1.25897e-07
2.43377e-06
8.45153e-08
2.65066e-06
-1.15223e-07
2.49546e-06
7.08515e-08
2.52687e-06
3.25189e-08
2.58986e-06
-1.68278e-07
2.58226e-06
1.63246e-07
2.46703e-06
-4.76143e-09
2.49218e-06
-4.42249e-08
8.76033e-08
2.58421e-06
2.48046e-06
-3.02682e-07
2.54271e-06
3.5772e-07
2.55398e-06
7.669e-08
2.49427e-06
-2.84943e-07
2.45434e-06
1.72602e-07
2.5287e-06
-1.72303e-07
2.43528e-06
6.94639e-08
2.50058e-06
-3.10124e-08
2.48555e-06
2.3694e-07
2.47633e-06
-1.68407e-07
2.54216e-06
6.0062e-08
2.5244e-06
1.02279e-07
2.53506e-06
-1.25879e-07
2.5147e-06
9.12107e-08
2.51385e-06
3.3367e-08
2.51411e-06
-1.68543e-07
2.61093e-06
6.64293e-08
2.46278e-06
1.43388e-07
2.54274e-06
-1.24184e-07
1.06179e-07
2.52416e-06
2.4128e-06
-2.15483e-07
2.51651e-06
2.54013e-07
2.54808e-06
4.51178e-08
2.46914e-06
-2.06e-07
2.48297e-06
1.58765e-07
2.47719e-06
-1.66523e-07
2.4551e-06
9.15586e-08
2.47795e-06
-5.38685e-08
2.53137e-06
1.83529e-07
2.46323e-06
-1.00276e-07
2.52121e-06
2.09014e-09
2.54015e-06
8.33386e-08
2.51168e-06
-9.74139e-08
2.50753e-06
9.53594e-08
2.51789e-06
2.30136e-08
2.47569e-06
-1.26346e-07
2.53812e-06
3.99386e-09
2.50873e-06
1.72783e-07
2.53667e-06
-1.52125e-07
1.10381e-07
2.53247e-06
2.41814e-06
-1.33626e-07
2.52183e-06
1.50323e-07
2.51221e-06
5.47367e-08
2.46212e-06
-1.55903e-07
2.5017e-06
1.19178e-07
2.47199e-06
-1.36805e-07
2.47929e-06
8.42591e-08
2.49022e-06
-6.48067e-08
2.51767e-06
1.56083e-07
2.4801e-06
-6.27047e-08
2.49978e-06
-1.75907e-08
2.53325e-06
4.98685e-08
2.50485e-06
-6.90113e-08
2.50811e-06
9.20982e-08
2.54027e-06
-9.15109e-09
2.48991e-06
-7.5984e-08
2.50924e-06
-1.53401e-08
2.55459e-06
1.27441e-07
2.49864e-06
-9.61778e-08
4.27719e-08
2.56625e-06
2.46223e-06
-9.5859e-08
2.52373e-06
8.88246e-08
2.5061e-06
7.23714e-08
2.47805e-06
-1.27857e-07
2.49283e-06
1.04402e-07
2.48441e-06
-1.28385e-07
2.4884e-06
8.0269e-08
2.51063e-06
-8.70434e-08
2.52643e-06
1.4029e-07
2.49309e-06
-2.93708e-08
2.50368e-06
-2.81799e-08
2.52432e-06
2.92296e-08
2.49085e-06
-3.55416e-08
2.52752e-06
5.5425e-08
2.52869e-06
-1.03143e-08
2.51681e-06
-6.4104e-08
2.51084e-06
-9.36835e-09
2.5234e-06
1.14874e-07
2.53932e-06
-1.12096e-07
2.22553e-08
2.55984e-06
2.46854e-06
-6.43987e-08
2.51081e-06
4.65506e-08
2.51494e-06
6.82448e-08
2.48724e-06
-1.00159e-07
2.49399e-06
9.76599e-08
2.47251e-06
-1.06907e-07
2.49676e-06
5.60159e-08
2.5001e-06
-9.03823e-08
2.51808e-06
1.2231e-07
2.50566e-06
-1.69472e-08
2.49565e-06
-1.81682e-08
2.51476e-06
1.01155e-08
2.50253e-06
-2.33118e-08
2.5131e-06
4.48572e-08
2.54141e-06
-3.8632e-08
2.50047e-06
-2.316e-08
2.48641e-06
4.68844e-09
2.52116e-06
8.01263e-08
2.53917e-06
-1.30101e-07
1.39229e-08
2.5475e-06
2.46435e-06
-2.87519e-08
2.49504e-06
1.58666e-08
2.5164e-06
4.68867e-08
2.48897e-06
-7.2735e-08
2.49267e-06
9.39602e-08
2.47484e-06
-8.90761e-08
2.49917e-06
3.16901e-08
2.50103e-06
-9.22482e-08
2.52091e-06
1.02434e-07
2.50792e-06
-3.95801e-09
2.49061e-06
-8.64436e-10
2.5059e-06
-5.17175e-09
2.47933e-06
3.25499e-09
2.52605e-06
-1.85751e-09
2.52257e-06
-3.51562e-08
2.48941e-06
1.00052e-08
2.49423e-06
-1.34822e-10
2.51695e-06
5.74079e-08
2.53402e-06
-1.47169e-07
4.79461e-09
2.54315e-06
2.46686e-06
4.39162e-09
2.50277e-06
-2.0049e-08
2.51171e-06
3.79464e-08
2.50555e-06
-6.65711e-08
2.50317e-06
9.63381e-08
2.48345e-06
-6.93596e-08
2.50648e-06
8.66752e-09
2.48622e-06
-7.19929e-08
2.51707e-06
7.1581e-08
2.50494e-06
8.17594e-09
2.4961e-06
7.97431e-09
2.49116e-06
-2.32311e-10
2.48285e-06
1.15706e-08
2.52672e-06
-4.57337e-08
2.49847e-06
-6.90084e-09
2.51157e-06
-3.0944e-09
2.49013e-06
2.1306e-08
2.53249e-06
1.50451e-08
2.52551e-06
-1.40189e-07
1.02183e-08
2.52009e-06
2.48301e-06
2.13792e-08
2.50892e-06
-4.59604e-08
2.50739e-06
3.94792e-08
2.51117e-06
-7.03536e-08
2.50359e-06
1.0392e-07
2.50489e-06
-7.06581e-08
2.48789e-06
2.56679e-08
2.47815e-06
-6.2248e-08
2.50209e-06
4.76373e-08
2.50347e-06
6.79223e-09
2.51026e-06
1.18454e-09
2.48888e-06
2.11516e-08
2.49359e-06
6.85768e-09
2.51962e-06
-7.17612e-08
2.49232e-06
2.04017e-08
2.51499e-06
-2.57702e-08
2.50457e-06
3.17262e-08
2.55558e-06
-3.59613e-08
2.48534e-06
-6.99484e-08
-3.88223e-08
2.53438e-06
2.502e-06
1.93799e-08
2.50002e-06
-4.39766e-08
2.49613e-06
4.33653e-08
2.49528e-06
-6.9509e-08
2.50647e-06
9.27352e-08
2.51141e-06
-7.55995e-08
2.47707e-06
6.00055e-08
2.47334e-06
-5.85102e-08
2.4878e-06
3.31687e-08
2.50787e-06
-1.32743e-08
2.5105e-06
-1.44278e-09
2.50251e-06
2.91381e-08
2.51013e-06
-7.56909e-10
2.50005e-06
-6.16865e-08
2.49958e-06
2.08758e-08
2.50721e-06
-3.33995e-08
2.50551e-06
3.34212e-08
2.54474e-06
-7.51892e-08
2.47944e-06
-4.65183e-09
-8.33323e-08
2.52395e-06
2.50213e-06
1.72512e-08
2.4989e-06
-4.07492e-08
2.48867e-06
5.3594e-08
2.47937e-06
-6.02081e-08
2.5056e-06
6.65041e-08
2.50729e-06
-7.72823e-08
2.48139e-06
8.58993e-08
2.48445e-06
-6.15685e-08
2.48536e-06
3.22554e-08
2.51803e-06
-4.59427e-08
2.49325e-06
2.33377e-08
2.52397e-06
-1.5833e-09
2.50565e-06
1.75642e-08
2.5023e-06
-5.8338e-08
2.48568e-06
3.75036e-08
2.50763e-06
-5.53518e-08
2.49413e-06
4.69151e-08
2.52199e-06
-1.03048e-07
2.48289e-06
3.44542e-08
-1.2036e-07
2.51991e-06
2.49813e-06
1.91201e-08
2.49806e-06
-4.06782e-08
2.49589e-06
5.57627e-08
2.48186e-06
-4.6173e-08
2.50362e-06
4.47372e-08
2.49689e-06
-7.05519e-08
2.49575e-06
8.70425e-08
2.49465e-06
-6.04652e-08
2.50313e-06
2.37752e-08
2.50921e-06
-5.20281e-08
2.49071e-06
4.18359e-08
2.50885e-06
-1.97224e-08
2.51896e-06
7.45639e-09
2.49324e-06
-3.26163e-08
2.49831e-06
3.24337e-08
2.49954e-06
-5.65875e-08
2.48926e-06
5.72026e-08
2.49461e-06
-1.08405e-07
2.49104e-06
3.80272e-08
-1.46766e-07
2.51745e-06
2.49375e-06
2.5368e-08
2.49427e-06
-4.11935e-08
2.50069e-06
4.93415e-08
2.49446e-06
-3.99491e-08
2.49841e-06
4.07894e-08
2.49215e-06
-6.42905e-08
2.49911e-06
8.00848e-08
2.51226e-06
-7.36157e-08
2.49733e-06
3.87043e-08
2.52196e-06
-7.66582e-08
2.47429e-06
8.95083e-08
2.52333e-06
-6.87635e-08
2.48763e-06
4.31537e-08
2.5167e-06
-6.16821e-08
2.48537e-06
6.37597e-08
2.50775e-06
-7.897e-08
2.4945e-06
7.04533e-08
2.47959e-06
-9.34919e-08
2.49625e-06
2.13625e-08
-1.61481e-07
2.51097e-06
2.49845e-06
2.69144e-08
2.49129e-06
-3.40259e-08
2.5075e-06
3.31264e-08
2.5006e-06
-3.30473e-08
2.50755e-06
3.38387e-08
2.48567e-06
-4.24111e-08
2.51814e-06
4.76166e-08
2.50032e-06
-5.57931e-08
2.51367e-06
2.53471e-08
2.49202e-06
-5.50055e-08
2.50579e-06
7.57343e-08
2.48388e-06
-4.68506e-08
2.51254e-06
1.44995e-08
2.48265e-06
-3.17929e-08
2.50942e-06
3.69856e-08
2.48461e-06
-5.41544e-08
2.50717e-06
4.78906e-08
2.46868e-06
-5.49999e-08
2.5155e-06
-2.54592e-08
-1.22109e-07
2.47613e-06
2.50209e-06
2.48198e-08
2.49326e-06
-2.51886e-08
2.50605e-06
2.0333e-08
2.50267e-06
-2.96643e-08
2.50482e-06
3.16865e-08
2.49573e-06
-3.33168e-08
2.51085e-06
3.24884e-08
2.512e-06
-5.69408e-08
2.49215e-06
4.51988e-08
2.50458e-06
-6.74358e-08
2.48401e-06
9.63084e-08
2.51759e-06
-8.04392e-08
2.466e-06
6.60912e-08
2.51852e-06
-8.43142e-08
2.47235e-06
8.31597e-08
2.49601e-06
-7.78154e-08
2.49566e-06
4.82431e-08
2.47061e-06
-2.99481e-08
2.5039e-06
-5.87516e-08
-9.28325e-08
2.47462e-06
2.50936e-06
1.54584e-08
2.49633e-06
-1.21605e-08
2.5107e-06
5.96341e-09
2.49818e-06
-1.71396e-08
2.50977e-06
2.00897e-08
2.49523e-06
-1.87744e-08
2.51512e-06
1.26039e-08
2.49415e-06
-3.59727e-08
2.5091e-06
3.02467e-08
2.48081e-06
-3.91464e-08
2.5164e-06
6.07156e-08
2.48504e-06
-4.90776e-08
2.51015e-06
4.09875e-08
2.47519e-06
-4.93592e-08
2.50787e-06
5.04774e-08
2.48169e-06
-5.16311e-08
2.49399e-06
3.59453e-08
2.48536e-06
-2.13182e-08
2.50777e-06
-8.11634e-08
-1.00057e-08
2.42494e-06
2.51466e-06
8.00752e-10
2.50081e-06
1.68302e-09
2.51335e-06
-6.57309e-09
2.49806e-06
-1.84989e-09
2.51449e-06
3.6592e-09
2.5006e-06
-4.87946e-09
2.5102e-06
3.00308e-09
2.49087e-06
-1.66421e-08
2.50009e-06
2.10203e-08
2.48815e-06
-2.72034e-08
2.49668e-06
5.21885e-08
2.50242e-06
-5.48196e-08
2.46994e-06
7.34694e-08
2.49719e-06
-7.66119e-08
2.45321e-06
9.44536e-08
2.48192e-06
-8.03404e-08
2.46434e-06
5.35257e-08
2.44756e-06
-4.54013e-09
2.47147e-06
-1.05067e-07
5.63659e-08
2.4051e-06
2.5008e-06
2.50248e-06
2.49591e-06
2.49406e-06
2.49772e-06
2.49284e-06
2.49584e-06
2.4792e-06
2.50022e-06
2.47302e-06
2.52521e-06
2.47039e-06
2.54386e-06
2.46724e-06
2.5617e-06
2.48136e-06
2.53488e-06
2.53034e-06
2.42528e-06
2.48164e-06
2.63139e-06
-2.44695e-07
2.19436e-06
4.37031e-07
2.58124e-06
-3.86877e-07
2.52742e-06
5.3813e-08
2.25902e-06
2.68403e-07
2.70476e-06
-4.45736e-07
2.37351e-06
3.31243e-07
5.25061e-08
2.32101e-06
2.6129e-06
-4.91037e-07
2.51674e-06
5.33184e-07
2.66204e-06
-5.32173e-07
2.7203e-06
-4.4484e-09
2.4987e-06
4.90002e-07
2.67348e-06
-6.20518e-07
2.60611e-06
3.9862e-07
3.1706e-07
2.34155e-06
2.51037e-06
-4.17198e-07
2.59476e-06
4.48797e-07
2.59555e-06
-5.32966e-07
2.65859e-06
-6.74906e-08
2.52361e-06
6.24982e-07
2.49871e-06
-5.95615e-07
2.63782e-06
2.59513e-07
3.61742e-07
2.59314e-06
2.38795e-06
-2.80979e-07
2.6251e-06
2.1164e-07
2.3964e-06
-3.04259e-07
2.48072e-06
-1.51815e-07
2.61897e-06
4.86736e-07
2.44363e-06
-4.20277e-07
2.54262e-06
1.60522e-07
2.47421e-07
2.65694e-06
2.47087e-06
-2.19381e-07
2.60217e-06
8.03427e-08
2.45535e-06
-1.5744e-07
2.49976e-06
-1.96228e-07
2.64238e-06
3.44112e-07
2.48815e-06
-2.66039e-07
2.57462e-06
7.40456e-08
2.03068e-07
2.61898e-06
2.53657e-06
-1.89705e-07
2.54776e-06
6.91576e-08
2.50532e-06
-1.14999e-07
2.52445e-06
-2.15363e-07
2.5837e-06
2.84861e-07
2.50418e-06
-1.86514e-07
2.57296e-06
5.26797e-09
1.57605e-07
2.61842e-06
2.48921e-06
-1.1908e-07
2.54202e-06
1.63453e-08
2.50312e-06
-7.60947e-08
2.4822e-06
-1.94439e-07
2.57368e-06
1.93375e-07
2.50139e-06
-1.1422e-07
2.54267e-06
-3.60112e-08
7.68621e-08
2.62341e-06
2.48893e-06
-6.05106e-08
2.5276e-06
-2.233e-08
2.51397e-06
-6.24595e-08
2.50952e-06
-1.8999e-07
2.53438e-06
1.68518e-07
2.50492e-06
-8.47577e-08
2.56219e-06
-9.32835e-08
5.50841e-08
2.58397e-06
2.48601e-06
-3.37449e-09
2.53581e-06
-7.21295e-08
2.52465e-06
-5.13008e-08
2.51237e-06
-1.77712e-07
2.52723e-06
1.53661e-07
2.53341e-06
-9.09374e-08
2.53275e-06
-9.26278e-08
7.05688e-09
2.58078e-06
2.51708e-06
-3.6691e-10
2.52417e-06
-7.92181e-08
2.53161e-06
-5.87472e-08
2.50055e-06
-1.46649e-07
2.51949e-06
1.34718e-07
2.52365e-06
-9.5091e-08
2.51384e-06
-8.28189e-08
-3.91744e-08
2.56007e-06
2.51326e-06
2.07521e-08
2.53764e-06
-1.036e-07
2.52422e-06
-4.53261e-08
2.49581e-06
-1.18237e-07
2.51564e-06
1.14886e-07
2.51546e-06
-9.49078e-08
2.49552e-06
-6.28777e-08
-7.20334e-08
2.52838e-06
2.50535e-06
3.93592e-08
2.55966e-06
-1.5792e-07
2.50376e-06
1.05793e-08
2.50938e-06
-1.2386e-07
2.49757e-06
1.26699e-07
2.51556e-06
-1.129e-07
2.48653e-06
-3.3848e-08
-1.14678e-07
2.52918e-06
2.50793e-06
5.13417e-08
2.562e-06
-2.11988e-07
2.50758e-06
6.49963e-08
2.53848e-06
-1.54753e-07
2.49269e-06
1.72484e-07
2.54308e-06
-1.63292e-07
2.45778e-06
5.14494e-08
-1.98589e-07
2.5417e-06
2.51022e-06
5.85681e-08
2.57103e-06
-2.72796e-07
2.50741e-06
1.28615e-07
2.54658e-06
-1.93927e-07
2.46825e-06
2.50823e-07
2.52876e-06
-2.23807e-07
2.42446e-06
1.55747e-07
-3.19734e-07
2.54561e-06
2.52826e-06
4.12757e-08
2.57029e-06
-3.14825e-07
2.518e-06
1.80908e-07
2.58573e-06
-2.61659e-07
2.48341e-06
3.53146e-07
2.52883e-06
-2.69228e-07
2.38565e-06
2.98921e-07
-4.706e-07
2.53652e-06
2.54106e-06
-2.36534e-08
2.57205e-06
-3.45815e-07
2.53552e-06
2.17436e-07
2.57778e-06
-3.03925e-07
2.45538e-06
4.7555e-07
2.48444e-06
-2.9829e-07
2.32215e-06
4.61211e-07
-6.77927e-07
2.52948e-06
2.5427e-06
-9.17276e-08
2.53543e-06
-3.38549e-07
2.57546e-06
1.77403e-07
2.622e-06
-3.50456e-07
2.48331e-06
6.14239e-07
2.46705e-06
-2.8203e-07
2.24684e-06
6.81422e-07
-8.83748e-07
2.45266e-06
2.5615e-06
-2.2829e-07
2.55658e-06
-3.33625e-07
2.65257e-06
8.14117e-08
2.61288e-06
-3.1077e-07
2.46323e-06
7.63896e-07
2.42354e-06
-2.42343e-07
2.19618e-06
9.08784e-07
-1.12219e-06
2.43462e-06
2.534e-06
-3.57192e-07
2.46687e-06
-2.66498e-07
2.68384e-06
-1.35559e-07
2.67147e-06
-2.98399e-07
2.43617e-06
9.99194e-07
2.23239e-06
-3.85624e-08
1.79672e-06
1.34445e-06
-1.42165e-06
2.09619e-06
2.37454e-06
-2.50084e-07
2.25966e-06
-1.51621e-07
2.45541e-06
-3.31308e-07
2.43563e-06
-2.78622e-07
2.59155e-06
8.43276e-07
2.53171e-06
2.12725e-08
2.17313e-06
1.70304e-06
2.30743e-06
-1.55595e-06
2.58398e-06
-2.62978e-07
2.25258e-06
3.31401e-07
2.49899e-06
-2.46406e-07
1.88742e-06
6.11566e-07
2.13963e-06
-2.52204e-07
2.32958e-06
-1.89955e-07
1.81221e-06
5.17374e-07
2.7158e-06
-9.03587e-07
2.77053e-06
-5.47344e-08
2.16648e-06
6.04046e-07
2.52375e-06
-3.57268e-07
2.82528e-06
-3.01526e-07
2.69214e-06
1.33137e-07
3.36858e-06
-6.76441e-07
3.10923e-06
2.59352e-07
3.68453e-06
-5.75302e-07
3.78167e-06
-9.71385e-08
3.86548e-06
-8.38066e-08
4.59872e-06
-7.33243e-07
4.69076e-06
-9.20354e-08
4.95838e-06
-2.67623e-07
5.26216e-06
-3.03782e-07
5.30384e-06
-4.16802e-08
5.53786e-06
-2.3402e-07
5.61678e-06
-7.89146e-08
5.76181e-06
-1.45031e-07
5.58123e-06
1.80581e-07
-8.42923e-08
5.66552e-06
2.67713e-06
-5.98559e-07
2.33643e-06
6.72106e-07
2.68307e-06
-5.93051e-07
2.79653e-06
4.98104e-07
2.48646e-06
5.78727e-08
3.03368e-06
-7.37173e-07
2.68989e-06
8.61157e-07
2.08e-06
-2.93692e-07
2.6799e-06
-6.54641e-07
2.79578e-06
4.88175e-07
2.69504e-06
-2.56532e-07
2.81869e-06
-4.25176e-07
2.83102e-06
1.20805e-07
3.15512e-06
-1.00054e-06
3.02473e-06
3.89745e-07
3.24152e-06
-7.92093e-07
3.61648e-06
-4.721e-07
3.64727e-06
-1.14598e-07
4.10947e-06
-1.19545e-06
4.37479e-06
-3.57352e-07
4.6962e-06
-5.89032e-07
5.02167e-06
-6.29256e-07
5.15918e-06
-1.79189e-07
5.3906e-06
-4.65441e-07
5.50564e-06
-1.93954e-07
5.45123e-06
-9.06177e-08
5.43523e-06
1.96583e-07
5.43737e-08
5.29656e-06
2.64893e-06
-6.54357e-07
2.64367e-06
6.77373e-07
2.73274e-06
-6.82123e-07
2.98703e-06
2.43818e-07
2.64955e-06
3.95353e-07
2.76526e-06
-8.52887e-07
2.99363e-06
6.32791e-07
2.83627e-06
-1.36331e-07
2.68716e-06
-5.05533e-07
2.94581e-06
2.29521e-07
3.23811e-06
-5.48826e-07
3.16968e-06
-3.56753e-07
3.05037e-06
2.40116e-07
3.21831e-06
-1.16848e-06
3.43177e-06
1.76292e-07
3.35911e-06
-7.19438e-07
3.88042e-06
-9.93409e-07
3.82941e-06
-6.35864e-08
4.27466e-06
-1.6407e-06
4.54677e-06
-6.29468e-07
4.8578e-06
-9.00053e-07
5.05913e-06
-8.30587e-07
5.35334e-06
-4.73401e-07
5.58172e-06
-6.9382e-07
5.66044e-06
-2.72675e-07
5.79099e-06
-2.21168e-07
5.62486e-06
3.62709e-07
1.01936e-07
5.5773e-06
2.55726e-06
-5.54675e-07
2.62363e-06
6.10996e-07
2.45599e-06
-5.14483e-07
2.64885e-06
5.09625e-08
2.63413e-06
4.10076e-07
2.6096e-06
-8.28364e-07
2.74368e-06
4.98709e-07
2.86637e-06
-2.59015e-07
2.6309e-06
-2.70066e-07
2.79525e-06
6.5175e-08
2.84034e-06
-5.93916e-07
2.85281e-06
-3.69231e-07
2.93641e-06
1.56522e-07
3.06233e-06
-1.2944e-06
3.32304e-06
-8.4423e-08
3.4754e-06
-8.71793e-07
3.69746e-06
-1.21547e-06
4.01581e-06
-3.81937e-07
4.38771e-06
-2.01259e-06
4.55267e-06
-7.94431e-07
4.93299e-06
-1.28038e-06
5.13231e-06
-1.0299e-06
5.46446e-06
-8.05558e-07
5.67363e-06
-9.02986e-07
5.78635e-06
-3.8539e-07
5.92104e-06
-3.55863e-07
5.84917e-06
4.34582e-07
1.6701e-07
5.78409e-06
2.55734e-06
-4.93043e-07
2.72526e-06
4.43078e-07
2.50213e-06
-2.91355e-07
2.62973e-06
-7.66325e-08
2.73351e-06
3.06296e-07
2.61908e-06
-7.13933e-07
2.76163e-06
3.56156e-07
2.67034e-06
-1.67725e-07
2.74982e-06
-3.49541e-07
2.87316e-06
-5.81714e-08
2.6524e-06
-3.73151e-07
2.85245e-06
-5.69287e-07
3.07928e-06
-7.03045e-08
3.05694e-06
-1.27206e-06
3.24035e-06
-2.67826e-07
3.53471e-06
-1.16615e-06
3.62194e-06
-1.30271e-06
4.04917e-06
-8.09173e-07
4.12695e-06
-2.09037e-06
4.48121e-06
-1.14869e-06
4.82144e-06
-1.6206e-06
5.09001e-06
-1.29847e-06
5.46355e-06
-1.1791e-06
5.66813e-06
-1.10757e-06
5.77553e-06
-4.92786e-07
5.93476e-06
-5.15097e-07
5.88414e-06
4.852e-07
2.3373e-07
5.81742e-06
2.56643e-06
-4.41049e-07
2.71466e-06
2.94842e-07
2.5652e-06
-1.41897e-07
2.66415e-06
-1.75579e-07
2.74788e-06
2.22565e-07
2.596e-06
-5.62051e-07
2.72756e-06
2.24599e-07
2.6948e-06
-1.34964e-07
2.70632e-06
-3.61061e-07
2.81705e-06
-1.68904e-07
2.79377e-06
-3.49872e-07
2.82711e-06
-6.02625e-07
3.02534e-06
-2.68539e-07
2.92127e-06
-1.16798e-06
3.32208e-06
-6.68636e-07
3.37355e-06
-1.21762e-06
3.50844e-06
-1.4376e-06
3.99246e-06
-1.29319e-06
4.04168e-06
-2.13959e-06
4.44526e-06
-1.55227e-06
4.77087e-06
-1.94621e-06
5.15784e-06
-1.68544e-06
5.47813e-06
-1.49939e-06
5.69874e-06
-1.32818e-06
5.87515e-06
-6.69194e-07
5.97215e-06
-6.12098e-07
5.99916e-06
4.5819e-07
3.83644e-07
5.84925e-06
2.5243e-06
-3.41938e-07
2.63718e-06
1.81962e-07
2.55952e-06
-6.42422e-08
2.61404e-06
-2.30099e-07
2.6973e-06
1.39312e-07
2.58906e-06
-4.53815e-07
2.67185e-06
1.41812e-07
2.72738e-06
-1.90497e-07
2.64576e-06
-2.79439e-07
2.74846e-06
-2.71611e-07
2.73673e-06
-3.3814e-07
2.80263e-06
-6.68525e-07
2.94795e-06
-4.13856e-07
2.89188e-06
-1.11192e-06
3.22122e-06
-9.97977e-07
3.25856e-06
-1.25496e-06
3.59786e-06
-1.7769e-06
3.94826e-06
-1.6436e-06
4.03948e-06
-2.23081e-06
4.54731e-06
-2.0601e-06
4.87196e-06
-2.27086e-06
5.27857e-06
-2.09205e-06
5.58508e-06
-1.80591e-06
5.86706e-06
-1.61015e-06
6.0697e-06
-8.71837e-07
6.1716e-06
-7.13993e-07
6.18998e-06
4.39808e-07
5.49754e-07
6.02387e-06
2.53027e-06
-2.88237e-07
2.61319e-06
9.90399e-08
2.59178e-06
-4.28354e-08
2.61422e-06
-2.52537e-07
2.66797e-06
8.55656e-08
2.56473e-06
-3.50577e-07
2.64797e-06
5.85731e-08
2.65339e-06
-1.95925e-07
2.66251e-06
-2.88551e-07
2.6879e-06
-2.97001e-07
2.67233e-06
-3.2257e-07
2.75085e-06
-7.47046e-07
2.87275e-06
-5.35763e-07
2.90959e-06
-1.14875e-06
3.07249e-06
-1.16088e-06
3.25902e-06
-1.44148e-06
3.49096e-06
-2.00884e-06
3.76395e-06
-1.91658e-06
4.06516e-06
-2.53202e-06
4.57427e-06
-2.56921e-06
4.88929e-06
-2.58589e-06
5.32227e-06
-2.52502e-06
5.67939e-06
-2.16303e-06
5.9721e-06
-1.90286e-06
6.18145e-06
-1.0812e-06
6.26008e-06
-7.92622e-07
6.26724e-06
4.32654e-07
6.71915e-07
6.14507e-06
2.53964e-06
-2.47096e-07
2.59682e-06
4.1863e-08
2.60374e-06
-4.97623e-08
2.59965e-06
-2.48443e-07
2.64264e-06
4.25794e-08
2.55258e-06
-2.6052e-07
2.63347e-06
-2.23165e-08
2.62315e-06
-1.85602e-07
2.63658e-06
-3.01985e-07
2.63422e-06
-2.94646e-07
2.6915e-06
-3.79848e-07
2.67973e-06
-7.35274e-07
2.79383e-06
-6.49864e-07
2.81713e-06
-1.17205e-06
2.96066e-06
-1.30442e-06
3.21916e-06
-1.69998e-06
3.34066e-06
-2.13034e-06
3.72217e-06
-2.29809e-06
4.05158e-06
-2.86143e-06
4.47307e-06
-2.9907e-06
4.8951e-06
-3.00791e-06
5.33339e-06
-2.96331e-06
5.6778e-06
-2.50745e-06
5.8824e-06
-2.10745e-06
6.02719e-06
-1.22599e-06
6.05014e-06
-8.15569e-07
6.0469e-06
4.35895e-07
7.39923e-07
5.97889e-06
2.50587e-06
-1.92899e-07
2.60291e-06
-5.5176e-08
2.59416e-06
-4.10092e-08
2.56572e-06
-2.20004e-07
2.61387e-06
-5.57358e-09
2.55157e-06
-1.98217e-07
2.61029e-06
-8.1034e-08
2.61562e-06
-1.90936e-07
2.59693e-06
-2.83294e-07
2.59331e-06
-2.91024e-07
2.64862e-06
-4.3516e-07
2.62167e-06
-7.0832e-07
2.76504e-06
-7.93235e-07
2.73384e-06
-1.14085e-06
2.87622e-06
-1.4468e-06
3.07985e-06
-1.90361e-06
3.24196e-06
-2.29246e-06
3.66253e-06
-2.71865e-06
3.99662e-06
-3.19553e-06
4.49076e-06
-3.48483e-06
4.95429e-06
-3.47144e-06
5.20461e-06
-3.21363e-06
5.3555e-06
-2.65835e-06
5.4004e-06
-2.15234e-06
5.45229e-06
-1.27788e-06
5.43959e-06
-8.02863e-07
5.45127e-06
4.24207e-07
7.54499e-07
5.4367e-06
2.52846e-06
-1.92982e-07
2.5877e-06
-1.14417e-07
2.58547e-06
-3.87807e-08
2.58399e-06
-2.18528e-07
2.5783e-06
1.19765e-10
2.57464e-06
-1.94557e-07
2.59545e-06
-1.01839e-07
2.59294e-06
-1.88432e-07
2.57904e-06
-2.69393e-07
2.58052e-06
-2.92506e-07
2.58717e-06
-4.41804e-07
2.5884e-06
-7.09548e-07
2.67435e-06
-8.7919e-07
2.67297e-06
-1.13947e-06
2.82777e-06
-1.6016e-06
2.97174e-06
-2.04758e-06
3.18119e-06
-2.5019e-06
3.55015e-06
-3.08761e-06
3.97996e-06
-3.62534e-06
4.40444e-06
-3.90931e-06
4.54655e-06
-3.61355e-06
4.55056e-06
-3.21764e-06
4.56418e-06
-2.67197e-06
4.52893e-06
-2.11709e-06
4.56293e-06
-1.31189e-06
4.52167e-06
-7.61602e-07
4.5473e-06
3.98581e-07
7.92002e-07
4.50979e-06
2.55828e-06
-2.2208e-07
2.57985e-06
-1.35987e-07
2.61757e-06
-7.6502e-08
2.5734e-06
-1.74366e-07
2.59996e-06
-2.64402e-08
2.57143e-06
-1.66027e-07
2.57586e-06
-1.06268e-07
2.5779e-06
-1.90469e-07
2.52309e-06
-2.14579e-07
2.5605e-06
-3.29919e-07
2.54223e-06
-4.23534e-07
2.5481e-06
-7.15422e-07
2.55625e-06
-8.87333e-07
2.59915e-06
-1.18237e-06
2.6966e-06
-1.69905e-06
2.80097e-06
-2.15196e-06
3.06294e-06
-2.76386e-06
3.49244e-06
-3.51712e-06
3.80865e-06
-3.94154e-06
3.82156e-06
-3.92222e-06
3.71137e-06
-3.50336e-06
3.68741e-06
-3.19368e-06
3.64516e-06
-2.62972e-06
3.5637e-06
-2.03563e-06
3.54762e-06
-1.29581e-06
3.46951e-06
-6.83496e-07
3.56001e-06
3.08084e-07
8.51616e-07
3.5004e-06
2.56059e-06
-2.4097e-07
2.57392e-06
-1.4932e-07
2.60845e-06
-1.11029e-07
2.57719e-06
-1.43109e-07
2.60748e-06
-5.67349e-08
2.55464e-06
-1.13187e-07
2.5673e-06
-1.18924e-07
2.52096e-06
-1.44133e-07
2.51671e-06
-2.10326e-07
2.49903e-06
-3.12241e-07
2.47983e-06
-4.04329e-07
2.49193e-06
-7.27522e-07
2.45158e-06
-8.46984e-07
2.52682e-06
-1.25761e-06
2.53936e-06
-1.71159e-06
2.64876e-06
-2.26136e-06
3.00586e-06
-3.12095e-06
3.23379e-06
-3.74506e-06
3.15576e-06
-3.86352e-06
2.99853e-06
-3.76499e-06
2.90921e-06
-3.41405e-06
2.75404e-06
-3.0385e-06
2.55206e-06
-2.42774e-06
2.41565e-06
-1.89922e-06
2.42023e-06
-1.3004e-06
2.35094e-06
-6.14201e-07
2.41435e-06
2.44669e-07
9.11202e-07
2.35477e-06
2.54966e-06
-2.45019e-07
2.57555e-06
-1.75215e-07
2.60777e-06
-1.43244e-07
2.58972e-06
-1.25063e-07
2.60084e-06
-6.78496e-08
2.56579e-06
-7.81367e-08
2.54753e-06
-1.00669e-07
2.49182e-06
-8.84261e-08
2.49554e-06
-2.14046e-07
2.4461e-06
-2.62793e-07
2.45534e-06
-4.13573e-07
2.38195e-06
-6.54132e-07
2.38078e-06
-8.45818e-07
2.40657e-06
-1.2834e-06
2.35086e-06
-1.65588e-06
2.54539e-06
-2.45589e-06
2.7424e-06
-3.31797e-06
2.6265e-06
-3.62915e-06
2.41159e-06
-3.64861e-06
2.17426e-06
-3.52766e-06
1.86205e-06
-3.10184e-06
1.56634e-06
-2.74279e-06
1.39601e-06
-2.25741e-06
1.25848e-06
-1.76168e-06
1.11305e-06
-1.15497e-06
1.03644e-06
-5.37584e-07
1.14883e-06
1.32272e-07
8.45258e-07
1.21478e-06
2.53112e-06
-2.39619e-07
2.55156e-06
-1.9565e-07
2.58482e-06
-1.76509e-07
2.57845e-06
-1.18691e-07
2.58174e-06
-7.11452e-08
2.54712e-06
-4.35114e-08
2.52452e-06
-7.8072e-08
2.48725e-06
-5.11507e-08
2.45405e-06
-1.80849e-07
2.41522e-06
-2.23965e-07
2.39589e-06
-3.94242e-07
2.30968e-06
-5.67921e-07
2.30944e-06
-8.45581e-07
2.21866e-06
-1.19262e-06
2.21411e-06
-1.65134e-06
2.32746e-06
-2.56923e-06
2.22574e-06
-3.21625e-06
1.94549e-06
-3.3489e-06
1.53978e-06
-3.24291e-06
1.10022e-06
-3.0881e-06
7.66201e-07
-2.76782e-06
4.65484e-07
-2.44207e-06
1.76597e-07
-1.96853e-06
-5.54017e-08
-1.52969e-06
-1.85564e-07
-1.0248e-06
-1.94537e-07
-5.28611e-07
-2.07174e-07
1.44909e-07
7.32194e-07
-9.41093e-08
2.52643e-06
-2.36571e-07
2.56574e-06
-2.34956e-07
2.58119e-06
-1.91962e-07
2.58019e-06
-1.17693e-07
2.56137e-06
-5.23261e-08
2.53203e-06
-1.41651e-08
2.49196e-06
-3.80064e-08
2.47206e-06
-3.1249e-08
2.42888e-06
-1.37668e-07
2.36932e-06
-1.64411e-07
2.32842e-06
-3.53336e-07
2.23725e-06
-4.76754e-07
2.18763e-06
-7.95962e-07
2.06185e-06
-1.06684e-06
2.01663e-06
-1.60611e-06
1.93468e-06
-2.48728e-06
1.60639e-06
-2.88796e-06
1.09375e-06
-2.83626e-06
5.50925e-07
-2.70009e-06
8.84994e-08
-2.62567e-06
-3.51701e-07
-2.32762e-06
-7.80218e-07
-2.01356e-06
-1.07027e-06
-1.67847e-06
-1.32683e-06
-1.27313e-06
-1.49958e-06
-8.52054e-07
-1.58454e-06
-4.43646e-07
-1.55444e-06
1.1481e-07
5.46391e-07
-1.36864e-06
2.43508e-06
-2.18999e-07
2.49036e-06
-2.90236e-07
2.50841e-06
-2.10003e-07
2.50472e-06
-1.14008e-07
2.493e-06
-4.06066e-08
2.47704e-06
1.79917e-09
2.44054e-06
-1.51327e-09
2.42473e-06
-1.54311e-08
2.37585e-06
-8.8796e-08
2.33228e-06
-1.20837e-07
2.2496e-06
-2.70657e-07
2.15299e-06
-3.80145e-07
2.03383e-06
-6.76796e-07
1.84566e-06
-8.78675e-07
1.71496e-06
-1.4754e-06
1.40061e-06
-2.17294e-06
8.23587e-07
-2.31093e-06
2.17424e-07
-2.2301e-06
-3.82309e-07
-2.10035e-06
-9.78838e-07
-2.02915e-06
-1.45257e-06
-1.85389e-06
-1.89299e-06
-1.57314e-06
-2.28103e-06
-1.29043e-06
-2.57835e-06
-9.75803e-07
-2.75792e-06
-6.72487e-07
-2.85079e-06
-3.50779e-07
-2.80526e-06
6.92876e-08
4.29483e-07
-2.68836e-06
2.39402e-06
-1.78399e-07
2.40256e-06
-2.98779e-07
2.38788e-06
-1.95323e-07
2.37009e-06
-9.62174e-08
2.35419e-06
-2.47064e-08
2.34772e-06
8.27355e-09
2.33237e-06
1.38322e-08
2.30839e-06
8.55242e-09
2.25644e-06
-3.68518e-08
2.21726e-06
-8.16512e-08
2.1177e-06
-1.71095e-07
2.00108e-06
-2.6353e-07
1.80475e-06
-4.80469e-07
1.56714e-06
-6.41059e-07
1.27206e-06
-1.18032e-06
7.27633e-07
-1.62851e-06
2.68006e-08
-1.6101e-06
-7.04517e-07
-1.49878e-06
-1.34821e-06
-1.45667e-06
-1.96744e-06
-1.40991e-06
-2.57527e-06
-1.24606e-06
-3.06945e-06
-1.07896e-06
-3.47962e-06
-8.80261e-07
-3.79405e-06
-6.61374e-07
-4.00336e-06
-4.63178e-07
-4.10389e-06
-2.50248e-07
-4.06845e-06
3.38489e-08
3.0273e-07
-3.9417e-06
2.09813e-06
-1.80342e-07
2.06669e-06
-2.67345e-07
2.03182e-06
-1.60448e-07
2.01643e-06
-8.0832e-08
2.01895e-06
-2.72202e-08
2.0256e-06
1.62382e-09
2.02597e-06
1.34561e-08
2.02223e-06
1.22957e-08
1.9936e-06
-8.21854e-09
1.95228e-06
-4.03372e-08
1.8537e-06
-7.25103e-08
1.72036e-06
-1.3019e-07
1.48347e-06
-2.4358e-07
1.18725e-06
-3.44837e-07
7.2233e-07
-7.15404e-07
-9.97039e-10
-9.05186e-07
-7.90685e-07
-8.20412e-07
-1.52064e-06
-7.68822e-07
-2.22026e-06
-7.57053e-07
-2.93193e-06
-6.98239e-07
-3.56832e-06
-6.09673e-07
-4.10776e-06
-5.39517e-07
-4.55504e-06
-4.32979e-07
-4.87586e-06
-3.40551e-07
-5.09844e-06
-2.406e-07
-5.2095e-06
-1.39186e-07
-5.18847e-06
1.28183e-08
1.4379e-07
-5.02953e-06
2.12709e-06
1.85974e-06
1.6993e-06
1.61847e-06
1.59124e-06
1.59287e-06
1.60632e-06
1.61862e-06
1.6104e-06
1.57006e-06
1.49755e-06
1.36736e-06
1.12378e-06
7.78947e-07
6.35434e-08
-8.41643e-07
-1.66205e-06
-2.43088e-06
-3.18793e-06
-3.88617e-06
-4.49584e-06
-5.03536e-06
-5.46834e-06
-5.80889e-06
-6.04949e-06
-6.18867e-06
-6.17586e-06
-6.03206e-06
5.19087e-06
1.28648e-06
-8.11829e-07
5.24277e-06
5.85965e-07
-6.37863e-07
4.41848e-06
1.54996e-06
-7.25672e-07
4.46148e-06
4.14492e-08
-8.44473e-08
3.97447e-06
-1.01282e-06
1.49983e-06
2.93084e-06
5.67033e-07
4.766e-07
1.60814e-06
-5.64055e-07
1.88676e-06
-3.02176e-06
-7.05506e-07
5.33541e-06
5.31707e-06
1.26596e-06
5.3513e-06
5.51739e-07
5.36241e-06
1.53886e-06
4.58219e-06
8.21671e-07
4.29384e-06
-7.24474e-07
3.9563e-06
9.04564e-07
2.93414e-06
4.58106e-07
-2.40736e-06
2.31975e-06
5.45191e-06
1.39135e-06
5.24337e-06
7.60272e-07
5.33536e-06
1.44687e-06
4.88515e-06
1.27188e-06
3.90146e-06
2.59217e-07
3.75017e-06
1.05586e-06
3.30204e-06
9.0623e-07
-1.93911e-07
1.08859e-06
5.6792e-06
1.49625e-06
5.4863e-06
9.53168e-07
5.2112e-06
1.72197e-06
4.9724e-06
1.51068e-06
4.08737e-06
1.14425e-06
3.86463e-06
1.2786e-06
3.23696e-06
1.5339e-06
9.74564e-07
2.06849e-06
5.78212e-06
1.53156e-06
5.51126e-06
1.22402e-06
5.32143e-06
1.9118e-06
4.96258e-06
1.86952e-06
4.37202e-06
1.73481e-06
3.96449e-06
1.68612e-06
3.32389e-06
2.1745e-06
1.04828e-06
3.25018e-06
5.81186e-06
1.56894e-06
5.51559e-06
1.52029e-06
5.29751e-06
2.12988e-06
4.99678e-06
2.17025e-06
4.48561e-06
2.24599e-06
4.0968e-06
2.07493e-06
3.69564e-06
2.57566e-06
1.63495e-06
3.10897e-06
5.89309e-06
1.69972e-06
5.55182e-06
1.86157e-06
5.25051e-06
2.43119e-06
4.9236e-06
2.49716e-06
4.46166e-06
2.70792e-06
4.14302e-06
2.39357e-06
3.68211e-06
3.03658e-06
2.09633e-06
3.22073e-06
5.98371e-06
1.86108e-06
5.66937e-06
2.17591e-06
5.29936e-06
2.80121e-06
4.89135e-06
2.90517e-06
4.42203e-06
3.17724e-06
4.13722e-06
2.67837e-06
3.78092e-06
3.39288e-06
2.44643e-06
3.43082e-06
5.84369e-06
1.99629e-06
5.67148e-06
2.34812e-06
5.32741e-06
3.14528e-06
4.96186e-06
3.27072e-06
4.47948e-06
3.65962e-06
4.05195e-06
3.10591e-06
3.74871e-06
3.69612e-06
2.77435e-06
3.42079e-06
5.37307e-06
2.05991e-06
5.35335e-06
2.36783e-06
5.17141e-06
3.32722e-06
4.9227e-06
3.51943e-06
4.55562e-06
4.0267e-06
4.13761e-06
3.52392e-06
3.80843e-06
4.02531e-06
3.17761e-06
3.40516e-06
4.52278e-06
2.04693e-06
4.60077e-06
2.28984e-06
4.61232e-06
3.31567e-06
4.55653e-06
3.57523e-06
4.34619e-06
4.23704e-06
4.09216e-06
3.77794e-06
3.81361e-06
4.30386e-06
3.49848e-06
3.49275e-06
3.62437e-06
1.92295e-06
3.70972e-06
2.2045e-06
3.77802e-06
3.24737e-06
4.00924e-06