/*--------------------------------*- C++ -*----------------------------------*\
| =========                 |                                                 |
| \\      /  F ield         | OpenFOAM: The Open Source CFD Toolbox           |
|  \\    /   O peration     | Version:  2.4.0                                 |
|   \\  /    A nd           | Web:      www.OpenFOAM.org                      |
|    \\/     M anipulation  |                                                 |
\*---------------------------------------------------------------------------*/
FoamFile
{
    version     2.0;
    format      ascii;
    class       volScalarField;
    location    "5.68";
    object      p;
}
// * * * * * * * * * * * * * * * * * * * * * * * * * * * * * * * * * * * * * //

dimensions      [0 2 -2 0 0 0 0];

internalField   nonuniform List<scalar> 
6000
(
0.050061
0.279228
0.276178
0.299507
0.304947
0.312626
0.315662
0.319277
0.321213
0.323291
0.324681
0.326081
0.327187
0.328283
0.329265
0.330251
0.331216
0.332215
0.333249
0.334353
0.335541
0.336837
0.338264
0.339847
0.341607
0.34357
0.34576
0.348199
0.350911
0.353914
0.357226
0.360857
0.364814
0.369092
0.373681
0.378554
0.38367
0.388975
0.394392
0.399834
0.405173
0.410301
0.415044
0.419297
0.422666
0.425149
0.42627
0.42629
0.424054
0.42074
0.413369
0.406012
0.390183
0.379093
0.347152
0.336692
0.268081
0.276955
0.110732
0.201263
0.0650802
0.277443
0.276221
0.299359
0.304864
0.31254
0.315606
0.319224
0.321174
0.323256
0.324655
0.326058
0.32717
0.328269
0.329253
0.330243
0.331209
0.33221
0.333246
0.334351
0.335539
0.336836
0.338264
0.339847
0.341608
0.343572
0.345762
0.348202
0.350915
0.353919
0.357233
0.360866
0.364825
0.369106
0.373695
0.378568
0.383683
0.388986
0.394399
0.399835
0.405165
0.41028
0.415007
0.419246
0.422611
0.425083
0.426189
0.426183
0.423921
0.42056
0.413155
0.405716
0.389853
0.378613
0.346679
0.335898
0.267511
0.275551
0.110086
0.198618
0.0789247
0.275367
0.276318
0.299241
0.304791
0.312473
0.315556
0.319182
0.321141
0.323228
0.324631
0.326038
0.327154
0.328255
0.329242
0.330234
0.331202
0.332204
0.333241
0.334347
0.335536
0.336835
0.338263
0.339846
0.341608
0.343572
0.345762
0.348203
0.350916
0.353921
0.357234
0.360868
0.364827
0.369108
0.373697
0.378569
0.383682
0.388981
0.394388
0.399813
0.405129
0.410225
0.414928
0.419146
0.422504
0.424968
0.426061
0.426036
0.42375
0.420354
0.412913
0.405412
0.389509
0.378153
0.346199
0.335171
0.266857
0.274294
0.109229
0.196283
0.0903929
0.273189
0.276457
0.29915
0.304738
0.312418
0.315515
0.319146
0.321111
0.323203
0.324611
0.326021
0.327139
0.328243
0.329232
0.330225
0.331195
0.332198
0.333236
0.334342
0.335532
0.336831
0.338259
0.339842
0.341604
0.343568
0.345758
0.348198
0.35091
0.353915
0.357228
0.360861
0.364818
0.369098
0.373684
0.378552
0.383659
0.388951
0.394346
0.399757
0.405053
0.410126
0.414801
0.418986
0.422329
0.424784
0.425867
0.42583
0.423526
0.420106
0.412633
0.405087
0.389141
0.377699
0.345704
0.33449
0.26619
0.27316
0.108339
0.194356
0.10038
0.271017
0.276619
0.299083
0.304701
0.312372
0.315479
0.319113
0.321085
0.32318
0.324591
0.326004
0.327125
0.328231
0.329222
0.330216
0.331187
0.33219
0.333229
0.334336
0.335526
0.336825
0.338253
0.339835
0.341596
0.343559
0.345748
0.348187
0.350898
0.353901
0.357212
0.360842
0.364796
0.369071
0.373651
0.378512
0.383609
0.388888
0.394268
0.39966
0.404934
0.409982
0.414627
0.418771
0.422083
0.424522
0.425589
0.425539
0.423216
0.419776
0.412275
0.404695
0.388707
0.377198
0.345154
0.333791
0.26548
0.272063
0.107426
0.192683
0.109449
0.268917
0.276789
0.299039
0.304678
0.312333
0.31545
0.319085
0.321062
0.323159
0.324573
0.325988
0.327111
0.328219
0.329211
0.330206
0.331178
0.332182
0.333221
0.334329
0.335518
0.336816
0.338244
0.339826
0.341585
0.343547
0.345735
0.348171
0.35088
0.353879
0.357186
0.360811
0.36476
0.369027
0.373598
0.378448
0.383532
0.388795
0.394157
0.399529
0.404781
0.409806
0.414422
0.418521
0.421788
0.424196
0.425235
0.425161
0.422811
0.419348
0.411815
0.404204
0.388171
0.376609
0.34451
0.33303
0.264685
0.27095
0.106456
0.191158
0.117772
0.26693
0.276961
0.299015
0.304671
0.312303
0.315427
0.31906
0.321041
0.32314
0.324557
0.325974
0.327099
0.328207
0.329201
0.330197
0.331169
0.332173
0.333213
0.33432
0.335509
0.336807
0.338233
0.339814
0.341572
0.343532
0.345717
0.348151
0.350856
0.353851
0.357152
0.36077
0.36471
0.368968
0.373528
0.378365
0.383434
0.388681
0.394025
0.399377
0.40461
0.409616
0.414205
0.41826
0.421472
0.423838
0.424835
0.424722
0.422332
0.418834
0.411258
0.403612
0.387526
0.375917
0.34375
0.332179
0.263773
0.269787
0.10539
0.189728
0.125435
0.265079
0.277135
0.298992
0.304687
0.31228
0.31541
0.319039
0.321023
0.323123
0.324542
0.32596
0.327086
0.328196
0.32919
0.330187
0.331159
0.332164
0.333203
0.33431
0.335499
0.336796
0.338222
0.339801
0.341557
0.343515
0.345697
0.348127
0.350827
0.353816
0.357111
0.360721
0.364652
0.368899
0.373447
0.37827
0.383325
0.388557
0.393884
0.39922
0.404436
0.409424
0.413989
0.418
0.421155
0.423471
0.424417
0.424255
0.421813
0.418267
0.410635
0.402942
0.38679
0.375131
0.34288
0.331232
0.262736
0.268557
0.104208
0.18835
0.132538
0.263376
0.277308
0.298978
0.304715
0.312266
0.315399
0.319022
0.321009
0.323108
0.324529
0.325947
0.327075
0.328185
0.32918
0.330177
0.331149
0.332154
0.333193
0.3343
0.335488
0.336784
0.338209
0.339787
0.341541
0.343496
0.345674
0.3481
0.350795
0.353777
0.357065
0.360667
0.364588
0.368825
0.373361
0.378172
0.383214
0.388432
0.393745
0.399066
0.404267
0.409239
0.41378
0.41775
0.42085
0.423113
0.424003
0.423785
0.421282
0.417677
0.409977
0.402225
0.385994
0.374275
0.341924
0.330202
0.261587
0.267255
0.102907
0.186997
0.139179
0.261826
0.277477
0.298968
0.304753
0.31226
0.315395
0.31901
0.320997
0.323095
0.324517
0.325936
0.327064
0.328175
0.32917
0.330167
0.331139
0.332144
0.333183
0.334289
0.335477
0.336773
0.338196
0.339771
0.341523
0.343475
0.345649
0.34807
0.350759
0.353736
0.357015
0.360609
0.364522
0.368749
0.373275
0.378075
0.383106
0.388311
0.393612
0.398921
0.404108
0.409063
0.413581
0.417512
0.42056
0.42277
0.423604
0.423326
0.420757
0.417086
0.409311
0.40149
0.385169
0.37338
0.340913
0.329113
0.260352
0.265894
0.101505
0.185658
0.145436
0.260435
0.277638
0.298957
0.304803
0.312261
0.315397
0.319001
0.320989
0.323085
0.324507
0.325926
0.327055
0.328165
0.32916
0.330157
0.33113
0.332135
0.333173
0.334279
0.335466
0.33676
0.338181
0.339755
0.341504
0.343452
0.345622
0.348038
0.350722
0.353692
0.356965
0.360551
0.364456
0.368674
0.373191
0.377982
0.383002
0.388198
0.393487
0.398784
0.403959
0.408898
0.413392
0.417287
0.420287
0.422447
0.423223
0.422884
0.420248
0.416508
0.408654
0.400757
0.384339
0.37247
0.339876
0.327992
0.259065
0.264496
0.100031
0.18434
0.151369
0.259203
0.277788
0.298941
0.304861
0.31227
0.315406
0.318997
0.320985
0.323077
0.3245
0.325918
0.327046
0.328157
0.329152
0.330149
0.331121
0.332126
0.333164
0.334269
0.335455
0.336748
0.338167
0.339738
0.341483
0.343428
0.345594
0.348005
0.350683
0.353647
0.356914
0.360494
0.364391
0.368601
0.373111
0.377893
0.382905
0.388091
0.393371
0.398657
0.40382
0.408744
0.413214
0.417075
0.420031
0.422142
0.422863
0.422464
0.419761
0.41595
0.408014
0.400037
0.383518
0.371562
0.338836
0.32686
0.257755
0.263082
0.0985181
0.183054
0.157028
0.258133
0.277923
0.298918
0.304927
0.312284
0.315421
0.318996
0.320983
0.323072
0.324494
0.325911
0.32704
0.32815
0.329145
0.330142
0.331114
0.332118
0.333155
0.334259
0.335444
0.336735
0.338152
0.33972
0.341462
0.343403
0.345565
0.347972
0.350644
0.353603
0.356864
0.360437
0.364328
0.368532
0.373035
0.37781
0.382814
0.387993
0.393263
0.39854
0.40369
0.408598
0.413046
0.416875
0.419792
0.421856
0.422524
0.422065
0.419296
0.415413
0.407397
0.399337
0.382717
0.37067
0.337809
0.325733
0.256445
0.261671
0.0969998
0.181811
0.162448
0.257222
0.278044
0.298887
0.304997
0.312303
0.315442
0.319
0.320986
0.323069
0.324491
0.325907
0.327035
0.328145
0.329139
0.330136
0.331107
0.33211
0.333147
0.33425
0.335433
0.336722
0.338136
0.339702
0.341441
0.343378
0.345536
0.347938
0.350606
0.35356
0.356815
0.360383
0.364268
0.368467
0.372964
0.377733
0.38273
0.387901
0.393164
0.398431
0.40357
0.408462
0.412888
0.416687
0.419567
0.421587
0.422204
0.421688
0.418854
0.4149
0.406804
0.39866
0.381941
0.369798
0.336805
0.324624
0.255154
0.260277
0.0955029
0.18062
0.167659
0.25647
0.278151
0.298844
0.305071
0.312326
0.315468
0.319008
0.320992
0.32307
0.324491
0.325905
0.327032
0.328141
0.329135
0.330131
0.331102
0.332104
0.33314
0.334241
0.335422
0.336709
0.338121
0.339684
0.34142
0.343353
0.345507
0.347905
0.350569
0.353518
0.356769
0.360332
0.364212
0.368405
0.372897
0.377661
0.382652
0.387817
0.393072
0.39833
0.403457
0.408334
0.412738
0.416509
0.419355
0.421333
0.421902
0.421329
0.418433
0.414409
0.406236
0.398008
0.381193
0.368951
0.335831
0.323538
0.253895
0.258912
0.0940485
0.179484
0.172682
0.255874
0.278246
0.29879
0.305145
0.312352
0.315501
0.31902
0.321001
0.323073
0.324493
0.325905
0.327032
0.32814
0.329134
0.330128
0.331098
0.332099
0.333134
0.334234
0.335413
0.336698
0.338107
0.339667
0.341399
0.34333
0.34548
0.347874
0.350534
0.353479
0.356725
0.360284
0.364159
0.368348
0.372835
0.377594
0.38258
0.387739
0.392987
0.398236
0.403353
0.408214
0.412597
0.416341
0.419155
0.421093
0.421615
0.420988
0.418032
0.413939
0.405692
0.397379
0.380473
0.36813
0.33489
0.32248
0.252676
0.25758
0.0926518
0.178406
0.177536
0.25543
0.278334
0.298723
0.305219
0.31238
0.315538
0.319036
0.321015
0.323079
0.324497
0.325907
0.327034
0.328141
0.329134
0.330128
0.331096
0.332096
0.333129
0.334228
0.335405
0.336687
0.338094
0.339651
0.341381
0.343308
0.345455
0.347845
0.350501
0.353442
0.356684
0.360239
0.364111
0.368296
0.372779
0.377533
0.382515
0.387667
0.392909
0.39815
0.403255
0.4081
0.412462
0.416181
0.418965
0.420865
0.421343
0.420662
0.417649
0.413488
0.40517
0.396774
0.37978
0.367336
0.333984
0.321452
0.251502
0.256286
0.0913233
0.177382
0.182232
0.255133
0.278421
0.298642
0.305289
0.312409
0.31558
0.319055
0.321032
0.323088
0.324505
0.325912
0.327038
0.328145
0.329136
0.330129
0.331097
0.332095
0.333127
0.334223
0.335399
0.336679
0.338083
0.339637
0.341364
0.343288
0.345431
0.347818
0.350471
0.353408
0.356647
0.360198
0.364066
0.368248
0.372727
0.377478
0.382455
0.387602
0.392837
0.398069
0.403163
0.407993
0.412334
0.416028
0.418784
0.420647
0.421082
0.42035
0.417281
0.413054
0.404668
0.39619
0.379114
0.366568
0.333113
0.320455
0.250377
0.255032
0.0900696
0.176409
0.186782
0.254975
0.278512
0.29855
0.305353
0.312438
0.315626
0.319078
0.321052
0.323099
0.324515
0.32592
0.327046
0.328151
0.329142
0.330133
0.331099
0.332097
0.333126
0.334221
0.335395
0.336672
0.338074
0.339625
0.341349
0.34327
0.345411
0.347795
0.350444
0.353378
0.356613
0.360161
0.364026
0.368205
0.372681
0.377428
0.382401
0.387543
0.392771
0.397995
0.403078
0.407892
0.412213
0.415882
0.41861
0.420438
0.420832
0.42005
0.416928
0.412636
0.404186
0.395626
0.378474
0.365824
0.332278
0.319488
0.249302
0.253817
0.0888943
0.175483
0.191195
0.25495
0.278612
0.298448
0.305411
0.312465
0.315676
0.319104
0.321076
0.323114
0.324528
0.32593
0.327055
0.328159
0.329149
0.33014
0.331105
0.332101
0.333129
0.334222
0.335393
0.336669
0.338068
0.339616
0.341338
0.343256
0.345393
0.347774
0.35042
0.353351
0.356584
0.360129
0.363992
0.368167
0.37264
0.377384
0.382352
0.38749
0.392711
0.397926
0.402997
0.407796
0.412096
0.415742
0.418444
0.420237
0.420591
0.41976
0.416587
0.412231
0.40372
0.395079
0.377857
0.365104
0.331476
0.318551
0.248278
0.252642
0.0877991
0.174599
0.195477
0.255051
0.278726
0.29834
0.30546
0.31249
0.315729
0.319133
0.321104
0.323132
0.324544
0.325943
0.327068
0.328171
0.32916
0.330149
0.331113
0.332107
0.333134
0.334225
0.335394
0.336668
0.338065
0.339611
0.341329
0.343245
0.34538
0.347758
0.350401
0.35333
0.356559
0.360102
0.363962
0.368135
0.372605
0.377345
0.38231
0.387442
0.392657
0.397864
0.402923
0.407705
0.411985
0.415608
0.418284
0.420043
0.420358
0.419479
0.416256
0.411838
0.403269
0.394549
0.377263
0.364405
0.330708
0.317642
0.247305
0.251505
0.0867841
0.173751
0.199635
0.255269
0.278861
0.298227
0.305501
0.312511
0.315784
0.319165
0.321136
0.323152
0.324563
0.325959
0.327083
0.328185
0.329174
0.330162
0.331124
0.332117
0.333142
0.334232
0.335399
0.336671
0.338065
0.339609
0.341325
0.343238
0.34537
0.347746
0.350387
0.353313
0.35654
0.36008
0.363938
0.368108
0.372576
0.377313
0.382274
0.387401
0.392609
0.397806
0.402853
0.407619
0.411879
0.415478
0.418128
0.419854
0.420131
0.419205
0.415935
0.411456
0.402832
0.394034
0.376689
0.363727
0.329971
0.316761
0.246381
0.250405
0.0858485
0.172934
0.203675
0.255596
0.279018
0.298115
0.305532
0.312528
0.315841
0.319199
0.321172
0.323176
0.324585
0.325977
0.327101
0.328202
0.329191
0.330178
0.331139
0.332131
0.333154
0.334242
0.335408
0.336677
0.33807
0.339611
0.341325
0.343236
0.345366
0.347739
0.350378
0.353301
0.356526
0.360064
0.36392
0.368088
0.372553
0.377287
0.382244
0.387366
0.392567
0.397754
0.402789
0.407538
0.411777
0.415352
0.417977
0.419669
0.419909
0.418937
0.415621
0.411082
0.402406
0.393531
0.376133
0.363068
0.329264
0.315906
0.245506
0.24934
0.0849907
0.172145
0.207601
0.256025
0.279202
0.298007
0.305555
0.31254
0.315899
0.319237
0.321212
0.323204
0.32461
0.325998
0.327123
0.328223
0.329211
0.330198
0.331158
0.332148
0.33317
0.334257
0.335421
0.336688
0.338079
0.339618
0.34133
0.343239
0.345366
0.347737
0.350374
0.353295
0.356519
0.360055
0.363908
0.368075
0.372537
0.377268
0.38222
0.387337
0.39253
0.397708
0.402729
0.407461
0.411679
0.415231
0.41783
0.419489
0.419693
0.418674
0.415313
0.410715
0.401991
0.39304
0.375596
0.362425
0.328586
0.315075
0.244679
0.248308
0.0842087
0.171377
0.211419
0.256547
0.279415
0.297907
0.30557
0.312546
0.315957
0.319277
0.321257
0.323235
0.32464
0.326023
0.327147
0.328247
0.329235
0.330221
0.331181
0.33217
0.333191
0.334276
0.335438
0.336704
0.338093
0.33963
0.34134
0.343247
0.345373
0.347742
0.350376
0.353296
0.356517
0.360052
0.363904
0.368068
0.372528
0.377255
0.382204
0.387314
0.3925
0.397667
0.402675
0.407388
0.411585
0.415112
0.417686
0.419312
0.419479
0.418416
0.415011
0.410355
0.401586
0.392559
0.375074
0.361799
0.327936
0.314267
0.243898
0.247308
0.0835001
0.170627
0.215133
0.257155
0.279658
0.297817
0.30558
0.312548
0.316014
0.319319
0.321305
0.32327
0.324673
0.326051
0.327175
0.328274
0.329263
0.330249
0.331208
0.332196
0.333216
0.334299
0.335461
0.336725
0.338112
0.339648
0.341356
0.343261
0.345385
0.347753
0.350385
0.353304
0.356523
0.360056
0.363906
0.368068
0.372526
0.37725
0.382194
0.387298
0.392476
0.397632
0.402625
0.407319
0.411495
0.414997
0.417545
0.419137
0.419269
0.41816
0.414714
0.410001
0.401188
0.392087
0.374567
0.361188
0.327312
0.313481
0.243162
0.246337
0.0828628
0.169892
0.218748
0.257842
0.279931
0.297743
0.305586
0.312545
0.31607
0.319363
0.321358
0.32331
0.324711
0.326083
0.327207
0.328305
0.329295
0.330281
0.33124
0.332227
0.333246
0.334329
0.335489
0.336752
0.338138
0.339672
0.341379
0.343282
0.345404
0.34777
0.350402
0.353319
0.356537
0.360069
0.363917
0.368077
0.372532
0.377252
0.382191
0.387289
0.392458
0.397602
0.40258
0.407255
0.411408
0.414885
0.417407
0.418965
0.419061
0.417907
0.41442
0.40965
0.400798
0.391624
0.374074
0.36059
0.326712
0.312715
0.242469
0.245394
0.0822942
0.169167
0.222269
0.2586
0.280236
0.297685
0.305591
0.312539
0.316125
0.31941
0.321415
0.323354
0.324754
0.326119
0.327243
0.328341
0.329332
0.330317
0.331277
0.332264
0.333282
0.334364
0.335523
0.336785
0.338169
0.339703
0.341408
0.34331
0.345431
0.347796
0.350426
0.353341
0.356559
0.360089
0.363936
0.368094
0.372546
0.377262
0.382196
0.387286
0.392446
0.397578
0.40254
0.407195
0.411324
0.414776
0.41727
0.418794
0.418855
0.417656
0.41413
0.409304
0.400414
0.391168
0.373594
0.360005
0.326137
0.31197
0.241819
0.244478
0.0817918
0.16845
0.225701
0.259423
0.280571
0.297646
0.305596
0.312529
0.316179
0.319458
0.321477
0.323404
0.324802
0.326161
0.327284
0.328381
0.329373
0.330359
0.331319
0.332306
0.333323
0.334405
0.335563
0.336824
0.338208
0.33974
0.341445
0.343345
0.345465
0.347829
0.350458
0.353373
0.356589
0.360118
0.363963
0.368119
0.372568
0.377281
0.382209
0.387292
0.392441
0.397559
0.402505
0.407139
0.411244
0.414669
0.417135
0.418624
0.41865
0.417407
0.413841
0.40896
0.400035
0.390718
0.373125
0.359432
0.325585
0.311243
0.24121
0.243587
0.0813533
0.167738
0.229047
0.260305
0.280936
0.297629
0.305604
0.312519
0.316232
0.319509
0.321544
0.323459
0.324856
0.326208
0.327331
0.328426
0.329419
0.330406
0.331367
0.332354
0.333372
0.334453
0.335611
0.336871
0.338254
0.339786
0.341489
0.343389
0.345508
0.347871
0.350499
0.353413
0.356629
0.360156
0.364
0.368154
0.3726
0.377308
0.38223
0.387305
0.392443
0.397547
0.402475
0.407087
0.411167
0.414564
0.417002
0.418456
0.418445
0.417158
0.413554
0.408619
0.399662
0.390274
0.372668
0.35887
0.325055
0.310534
0.240641
0.24272
0.0809765
0.16703
0.232313
0.26124
0.281329
0.297633
0.305617
0.312509
0.316284
0.319562
0.321615
0.323521
0.324918
0.326261
0.327383
0.328476
0.329471
0.330459
0.331421
0.332409
0.333427
0.334508
0.335665
0.336926
0.338309
0.33984
0.341542
0.343441
0.34556
0.347922
0.35055
0.353463
0.356678
0.360205
0.364047
0.368198
0.372641
0.377344
0.38226
0.387325
0.392452
0.397541
0.40245
0.407038
0.411093
0.414461
0.416869
0.418287
0.418241
0.416909
0.413268
0.408279
0.399292
0.389836
0.372222
0.358319
0.324546
0.309843
0.240111
0.241876
0.080659
0.166322
0.235504
0.262224
0.28175
0.29766
0.305637
0.312502
0.316337
0.319618
0.321692
0.323589
0.324986
0.326322
0.327442
0.328533
0.32953
0.330518
0.331482
0.33247
0.333489
0.33457
0.335728
0.336989
0.338371
0.339902
0.341604
0.343503
0.345621
0.347983
0.350611
0.353524
0.356738
0.360264
0.364104
0.368253
0.372692
0.37739
0.382299
0.387354
0.392469
0.397541
0.40243
0.406994
0.411022
0.41436
0.416738
0.418119
0.418037
0.41666
0.412983
0.407941
0.398927
0.389402
0.371786
0.357778
0.324058
0.309168
0.239619
0.241053
0.0803988
0.165613
0.238623
0.26325
0.282196
0.297709
0.305664
0.312498
0.316391
0.319677
0.321774
0.323665
0.325063
0.326391
0.327509
0.328598
0.329595
0.330584
0.33155
0.33254
0.333559
0.334641
0.335799
0.33706
0.338443
0.339974
0.341676
0.343574
0.345693
0.348055
0.350682
0.353595
0.356808
0.360333
0.364172
0.368319
0.372754
0.377446
0.382347
0.387392
0.392493
0.397548
0.402415
0.406954
0.410954
0.414261
0.416607
0.417951
0.417833
0.41641
0.412698
0.407603
0.398565
0.388973
0.371359
0.357247
0.323591
0.30851
0.239164
0.240251
0.0801938
0.164903
0.241675
0.264315
0.282666
0.297781
0.305701
0.312499
0.316447
0.319741
0.321863
0.323749
0.325149
0.326469
0.327585
0.32867
0.329668
0.330658
0.331626
0.332617
0.333638
0.334721
0.33588
0.337141
0.338525
0.340056
0.341758
0.343656
0.345775
0.348137
0.350765
0.353678
0.356891
0.360415
0.364252
0.368396
0.372827
0.377513
0.382405
0.387439
0.392525
0.397561
0.402406
0.406918
0.410888
0.414163
0.416477
0.417782
0.417627
0.41616
0.412413
0.407266
0.398205
0.388547
0.370941
0.356725
0.323143
0.307867
0.238745
0.23947
0.0800421
0.16419
0.244665
0.265414
0.283158
0.297875
0.305749
0.312506
0.316506
0.319809
0.321958
0.323842
0.325245
0.326557
0.327671
0.328752
0.32975
0.330741
0.331711
0.332703
0.333726
0.33481
0.33597
0.337233
0.338617
0.340149
0.341851
0.34375
0.345869
0.348232
0.35086
0.353773
0.356986
0.360509
0.364344
0.368485
0.372911
0.37759
0.382473
0.387494
0.392565
0.397581
0.402402
0.406886
0.410825
0.414066
0.416346
0.417612
0.41742
0.415908
0.412127
0.406929
0.397848
0.388125
0.370532
0.356213
0.322714
0.30724
0.238361
0.238707
0.0799418
0.163473
0.247596
0.266543
0.28367
0.297991
0.305807
0.312521
0.31657
0.319883
0.32206
0.323944
0.325351
0.326656
0.327767
0.328844
0.329842
0.330833
0.331805
0.332799
0.333824
0.334909
0.336071
0.337335
0.33872
0.340253
0.341956
0.343856
0.345976
0.348339
0.350968
0.353881
0.357093
0.360616
0.364449
0.368586
0.373007
0.377679
0.382552
0.38756
0.392613
0.397608
0.402404
0.406858
0.410765
0.413971
0.416216
0.417442
0.417212
0.415655
0.41184
0.406592
0.397493
0.387707
0.370131
0.35571
0.322304
0.306629
0.238012
0.237964
0.0798912
0.162751
0.250474
0.267698
0.2842
0.298128
0.305877
0.312545
0.316639
0.319964
0.32217
0.324057
0.325469
0.326767
0.327875
0.328947
0.329945
0.330935
0.331909
0.332906
0.333933
0.33502
0.336183
0.337448
0.338835
0.340369
0.342074
0.343974
0.346095
0.34846
0.351089
0.354002
0.357215
0.360736
0.364567
0.368701
0.373116
0.37778
0.382641
0.387635
0.39267
0.397642
0.402411
0.406834
0.410707
0.413876
0.416085
0.41727
0.417002
0.415399
0.411552
0.406255
0.39714
0.387292
0.369739
0.355215
0.321912
0.306033
0.237697
0.237239
0.0798884
0.162025
0.253302
0.268876
0.284748
0.298285
0.305958
0.312578
0.316715
0.320052
0.322289
0.32418
0.325599
0.326891
0.327997
0.329064
0.33006
0.33105
0.332025
0.333024
0.334053
0.335142
0.336308
0.337575
0.338963
0.340499
0.342204
0.344106
0.346229
0.348594
0.351224
0.354139
0.357351
0.360871
0.3647
0.368829
0.373238
0.377893
0.382742
0.38772
0.392735
0.397683
0.402424
0.406814
0.410651
0.413783
0.415954
0.417096
0.41679
0.415142
0.411263
0.405916
0.396789
0.38688
0.369354
0.35473
0.321539
0.305452
0.237415
0.236532
0.079932
0.161294
0.256084
0.270074
0.28531
0.29846
0.306051
0.31262
0.316797
0.320147
0.322417
0.324315
0.325742
0.32703
0.328133
0.329194
0.330188
0.331177
0.332154
0.333154
0.334186
0.335277
0.336445
0.337714
0.339105
0.340642
0.342349
0.344253
0.346377
0.348744
0.351375
0.35429
0.357502
0.361021
0.364847
0.368972
0.373374
0.378019
0.382855
0.387816
0.392809
0.397732
0.402442
0.406797
0.410597
0.413689
0.415821
0.41692
0.416575
0.414881
0.410971
0.405577
0.396439
0.386472
0.368978
0.354253
0.321184
0.304887
0.237166
0.235844
0.0800203
0.160558
0.258825
0.271288
0.285886
0.298653
0.306154
0.312673
0.316886
0.320252
0.322554
0.324462
0.325899
0.327184
0.328285
0.32934
0.330332
0.331319
0.332296
0.333298
0.334332
0.335426
0.336597
0.337868
0.339261
0.340801
0.34251
0.344415
0.346541
0.348909
0.351542
0.354458
0.35767
0.361187
0.36501
0.36913
0.373524
0.378158
0.38298
0.387922
0.392893
0.397788
0.402466
0.406785
0.410546
0.413596
0.415688
0.416743
0.416358
0.414618
0.410678
0.405237
0.39609
0.386066
0.368609
0.353785
0.320846
0.304337
0.236949
0.235173
0.0801517
0.159817
0.261528
0.272516
0.286474
0.298863
0.306269
0.312736
0.316984
0.320366
0.322702
0.324622
0.326071
0.327354
0.328454
0.329503
0.330492
0.331476
0.332454
0.333457
0.334494
0.33559
0.336764
0.338038
0.339434
0.340975
0.342686
0.344594
0.346722
0.349092
0.351726
0.354642
0.357854
0.36137
0.36519
0.369303
0.373689
0.378311
0.383117
0.38804
0.392986
0.397851
0.402496
0.406776
0.410496
0.413503
0.415553
0.416562
0.416137
0.414352
0.410381
0.404895
0.395742
0.385663
0.368247
0.353326
0.320526
0.303802
0.236764
0.234521
0.0803247
0.159071
0.264197
0.273755
0.287072
0.299089
0.306395
0.312809
0.31709
0.320489
0.322861
0.324796
0.326259
0.327542
0.328641
0.329685
0.33067
0.331651
0.332628
0.333632
0.334671
0.33577
0.336947
0.338224
0.339622
0.341167
0.34288
0.34479
0.34692
0.349293
0.351928
0.354845
0.358056
0.36157
0.365386
0.369494
0.37387
0.378479
0.383268
0.388169
0.393089
0.397923
0.402531
0.40677
0.410448
0.41341
0.415416
0.416379
0.415913
0.414082
0.410082
0.404551
0.395395
0.385263
0.367893
0.352877
0.320223
0.303284
0.236609
0.233887
0.0805377
0.158323
0.266836
0.275001
0.287678
0.299329
0.306531
0.312892
0.317204
0.320622
0.32303
0.324983
0.326463
0.327748
0.328848
0.329886
0.330867
0.331845
0.332821
0.333825
0.334866
0.335968
0.337147
0.338427
0.339829
0.341376
0.343093
0.345005
0.347138
0.349512
0.352149
0.355067
0.358278
0.361789
0.365601
0.369701
0.374067
0.378662
0.383432
0.38831
0.393202
0.398002
0.402572
0.406768
0.410401
0.413317
0.415277
0.416192
0.415685
0.413808
0.40978
0.404206
0.395049
0.384865
0.367546
0.352436
0.319938
0.302781
0.236485
0.233271
0.0807893
0.157571
0.269448
0.276254
0.288292
0.299582
0.306676
0.312984
0.317327
0.320764
0.32321
0.325184
0.326682
0.327973
0.329074
0.330109
0.331086
0.332059
0.333034
0.334037
0.33508
0.336184
0.337367
0.33865
0.340055
0.341606
0.343325
0.345241
0.347375
0.349752
0.352391
0.355309
0.358519
0.362028
0.365834
0.369926
0.374281
0.37886
0.383611
0.388463
0.393324
0.398089
0.402618
0.40677
0.410355
0.413222
0.415136
0.416002
0.415453
0.41353
0.409475
0.403859
0.394703
0.38447
0.367206
0.352005
0.319669
0.302295
0.236391
0.232674
0.0810779
0.156817
0.272036
0.277509
0.288911
0.299848
0.30683
0.313087
0.317458
0.320916
0.323401
0.325398
0.326919
0.328217
0.329322
0.330354
0.331327
0.332296
0.333268
0.334271
0.335314
0.336421
0.337606
0.338893
0.340302
0.341856
0.343579
0.345497
0.347635
0.350013
0.352653
0.355572
0.358781
0.362287
0.366087
0.37017
0.374512
0.379075
0.383803
0.388628
0.393457
0.398183
0.40267
0.406774
0.410311
0.413126
0.414992
0.415807
0.415216
0.413247
0.409166
0.403509
0.394357
0.384079
0.366873
0.351584
0.319418
0.301825
0.236326
0.232096
0.0814019
0.156062
0.274605
0.278766
0.289535
0.300125
0.306993
0.313199
0.317597
0.321077
0.323603
0.325626
0.327171
0.32848
0.329591
0.330621
0.331592
0.332557
0.333526
0.334527
0.335571
0.336679
0.337868
0.339158
0.340571
0.342128
0.343855
0.345776
0.347916
0.350297
0.352939
0.355857
0.359065
0.362567
0.366361
0.370434
0.374762
0.379306
0.384011
0.388807
0.393601
0.398286
0.402727
0.406782
0.410267
0.413029
0.414844
0.415608
0.414974
0.41296
0.408852
0.403157
0.394011
0.383689
0.366547
0.351173
0.319183
0.301372
0.23629
0.231537
0.0817596
0.155307
0.277158
0.28002
0.290162
0.300412
0.307164
0.313319
0.317744
0.321248
0.323815
0.325867
0.327439
0.328762
0.329882
0.330913
0.331882
0.332843
0.333809
0.334808
0.335852
0.336961
0.338153
0.339446
0.340863
0.342424
0.344154
0.346079
0.348222
0.350606
0.353248
0.356167
0.359372
0.36287
0.366656
0.370718
0.375031
0.379554
0.384234
0.388998
0.393755
0.398397
0.40279
0.406792
0.410223
0.41293
0.414693
0.415405
0.414726
0.412667
0.408535
0.402802
0.393664
0.383303
0.366228
0.350771
0.318964
0.300937
0.236282
0.230998
0.0821494
0.154554
0.279698
0.281271
0.29079
0.300709
0.307343
0.313449
0.317899
0.321428
0.324037
0.326121
0.327722
0.329063
0.330194
0.331228
0.332198
0.333155
0.334118
0.335115
0.336158
0.337269
0.338462
0.33976
0.34118
0.342745
0.344479
0.346408
0.348554
0.350939
0.353583
0.356501
0.359704
0.363196
0.366974
0.371024
0.375319
0.379821
0.384472
0.389203
0.39392
0.398516
0.402858
0.406805
0.410179
0.412829
0.414538
0.415196
0.414473
0.412369
0.408212
0.402445
0.393318
0.382919
0.365915
0.35038
0.318762
0.30052
0.2363
0.23048
0.0825693
0.153805
0.282229
0.282515
0.291419
0.301013
0.307528
0.313586
0.318062
0.321616
0.324268
0.326386
0.32802
0.329381
0.330528
0.331568
0.332539
0.333495
0.334456
0.33545
0.336493
0.337603
0.338799
0.340099
0.341524
0.343093
0.344831
0.346763
0.348912
0.351299
0.353944
0.356861
0.360061
0.363547
0.367316
0.371352
0.375628
0.380106
0.384727
0.389421
0.394095
0.398643
0.402931
0.40682
0.410135
0.412726
0.414378
0.414981
0.414214
0.412064
0.407885
0.402084
0.39297
0.382538
0.365609
0.349999
0.318575
0.300121
0.236345
0.229984
0.0830175
0.15306
0.284754
0.283751
0.292047
0.301325
0.30772
0.313732
0.318233
0.321813
0.324509
0.326663
0.328332
0.329717
0.330882
0.331931
0.332907
0.333863
0.334822
0.335814
0.336856
0.337967
0.339164
0.340467
0.341895
0.343469
0.345211
0.347146
0.349299
0.351688
0.354333
0.357248
0.360444
0.363924
0.367682
0.371702
0.375959
0.38041
0.384999
0.389654
0.394282
0.398778
0.403009
0.406837
0.410091
0.412619
0.414214
0.414761
0.413948
0.411754
0.407553
0.40172
0.392622
0.38216
0.365309
0.349628
0.318403
0.29974
0.236414
0.229509
0.0834918
0.152323
0.287276
0.284977
0.292672
0.301643
0.307918
0.313885
0.31841
0.322018
0.324758
0.326951
0.328657
0.330069
0.331255
0.332317
0.3333
0.334258
0.335218
0.336209
0.33725
0.338361
0.339559
0.340865
0.342296
0.343874
0.34562
0.34756
0.349715
0.352106
0.354751
0.357665
0.360856
0.364327
0.368073
0.372077
0.376311
0.380733
0.385287
0.3899
0.39448
0.398921
0.403092
0.406857
0.410046
0.41251
0.414045
0.414534
0.413675
0.411438
0.407215
0.401353
0.392273
0.381784
0.365015
0.349268
0.318246
0.299378
0.236507
0.229057
0.0839899
0.151594
0.289798
0.286189
0.293294
0.301967
0.308121
0.314046
0.318595
0.322231
0.325016
0.327249
0.328994
0.330437
0.331647
0.332725
0.333718
0.334681
0.335643
0.336634
0.337675
0.338786
0.339986
0.341294
0.342728
0.34431
0.346061
0.348004
0.350162
0.352554
0.355199
0.35811
0.361296
0.364759
0.368491
0.372476
0.376685
0.381077
0.385593
0.390161
0.394689
0.399072
0.40318
0.406878
0.409999
0.412397
0.41387
0.414302
0.413396
0.411114
0.406871
0.400983
0.391923
0.381411
0.364727
0.348919
0.318102
0.299036
0.236623
0.228628
0.0845093
0.150876
0.292324
0.287385
0.29391
0.302295
0.308328
0.314213
0.318788
0.322453
0.325283
0.327556
0.329343
0.330818
0.332056
0.333154
0.33416
0.335131
0.336097
0.337091
0.338132
0.339244
0.340446
0.341755
0.343193
0.344779
0.346534
0.34848
0.350641
0.353035
0.355679
0.358587
0.361766
0.365218
0.368935
0.3729
0.377083
0.381441
0.385916
0.390437
0.39491
0.399231
0.403273
0.406901
0.409952
0.41228
0.413691
0.414062
0.413109
0.410785
0.406523
0.400609
0.391571
0.381041
0.364444
0.348581
0.317972
0.298713
0.23676
0.228225
0.0850474
0.150172
0.294858
0.288564
0.29452
0.302626
0.30854
0.314387
0.318986
0.322681
0.325557
0.327873
0.329702
0.331213
0.332481
0.333601
0.334625
0.335607
0.33658
0.337577
0.338621
0.339735
0.340939
0.342251
0.343692
0.345281
0.34704
0.34899
0.351153
0.353548
0.356191
0.359095
0.362267
0.365707
0.369408
0.37335
0.377504
0.381826
0.386258
0.390727
0.395142
0.399398
0.403371
0.406926
0.409904
0.412161
0.413506
0.413817
0.412816
0.41045
0.406169
0.400233
0.391219
0.380674
0.364166
0.348254
0.317854
0.29841
0.236915
0.227846
0.085601
0.149485
0.297402
0.289722
0.295123
0.302961
0.308756
0.314568
0.319192
0.322917
0.325839
0.328199
0.330071
0.33162
0.332921
0.334066
0.33511
0.336106
0.337089
0.338093
0.339142
0.34026
0.341466
0.342781
0.344225
0.345818
0.347581
0.349534
0.3517
0.354095
0.356737
0.359636
0.362799
0.366226
0.369908