/*--------------------------------*- C++ -*----------------------------------*\
| =========                 |                                                 |
| \\      /  F ield         | OpenFOAM: The Open Source CFD Toolbox           |
|  \\    /   O peration     | Version:  2.4.0                                 |
|   \\  /    A nd           | Web:      www.OpenFOAM.org                      |
|    \\/     M anipulation  |                                                 |
\*---------------------------------------------------------------------------*/
FoamFile
{
    version     2.0;
    format      ascii;
    class       volVectorField;
    location    "5.68";
    object      U;
}
// * * * * * * * * * * * * * * * * * * * * * * * * * * * * * * * * * * * * * //

dimensions      [0 1 -1 0 0 0 0];

internalField   nonuniform List<vector> 
6000
(
(0.165118 -0.00671286 1.30246e-18)
(-0.00974582 0.00185844 0)
(0.000828828 -0.000234262 7.24047e-18)
(-0.00663357 0.00128755 0)
(-0.00500561 0.000987381 0)
(-0.00607631 0.00113992 0)
(-0.00534358 0.000984042 4.01689e-18)
(-0.00550773 0.000961943 3.33613e-22)
(-0.00512468 0.000866359 0)
(-0.00512617 0.000821723 0)
(-0.00495249 0.000759705 3.91776e-18)
(-0.00498088 0.000722723 -7.76093e-18)
(-0.00498407 0.000686707 0)
(-0.00511934 0.000664529 0)
(-0.00529146 0.000647449 -1.8828e-18)
(-0.00556305 0.000637351 0)
(-0.0058934 0.000630508 0)
(-0.00630633 0.000625823 -1.83467e-18)
(-0.00678384 0.000621037 -1.82168e-18)
(-0.00733332 0.00061435 0)
(-0.00794494 0.000603868 1.80124e-18)
(-0.00861704 0.000587631 8.97015e-19)
(-0.00933971 0.000563819 -8.94486e-19)
(-0.0101042 0.000530597 0)
(-0.0108968 0.000486467 0)
(-0.0117034 0.000430234 0)
(-0.0125075 0.000361148 4.48193e-19)
(-0.0132904 0.000278842 -4.50089e-19)
(-0.01403 0.000183515 0)
(-0.0147014 7.59946e-05 0)
(-0.0152767 -4.21482e-05 5.75346e-20)
(-0.0157252 -0.00016858 0)
(-0.0160143 -0.000300494 4.71113e-19)
(-0.0161095 -0.000431521 -4.77804e-19)
(-0.0159747 -0.000552386 0)
(-0.0155729 -0.000661428 0)
(-0.0148692 -0.000749623 1.00591e-18)
(-0.0138267 -0.000807788 0)
(-0.0124146 -0.000825544 1.04729e-18)
(-0.0105963 -0.000792212 0)
(-0.00835487 -0.000695841 0)
(-0.00565995 -0.000525481 2.23438e-18)
(-0.00253835 -0.000269678 -4.56398e-18)
(0.000975705 7.76149e-05 0)
(0.00447925 0.000483803 0)
(0.00819165 0.000959152 2.41815e-18)
(0.0119393 0.00150712 0)
(0.0160557 0.0021463 0)
(0.0200255 0.00285861 -5.00994e-18)
(0.0246628 0.00369189 -5.03679e-18)
(0.028614 0.0045616 -5.01397e-18)
(0.0340622 0.0056354 -1.81733e-21)
(0.0374588 0.00661581 4.85116e-18)
(0.0446045 0.00806016 0)
(0.0462346 0.00899479 -3.00677e-21)
(0.0574234 0.0112029 -4.30703e-18)
(0.0544971 0.0115986 3.4454e-18)
(0.0754824 0.0157239 3.55678e-18)
(0.0626422 0.0145909 4.13815e-21)
(0.104465 0.0229668 0)
(0.360298 -0.0164518 -1.80892e-18)
(0.00301732 0.00650591 4.29224e-18)
(0.00549216 -0.000893769 -4.3423e-18)
(-0.0149551 0.00337573 -4.60615e-18)
(-0.0124292 0.0025791 0)
(-0.0157697 0.00305961 0)
(-0.0142803 0.00266486 -4.58584e-18)
(-0.0148763 0.00262492 9.08352e-18)
(-0.0140269 0.00238204 0)
(-0.0140908 0.00226915 0)
(-0.0137035 0.00211342 -4.34655e-18)
(-0.0138077 0.00202108 4.28227e-18)
(-0.013856 0.00193422 2.10913e-18)
(-0.0142368 0.00188329 0)
(-0.0147224 0.00184685 2.05116e-18)
(-0.015464 0.00182863 0)
(-0.016363 0.00181896 0)
(-0.0174739 0.00181434 0)
(-0.018751 0.00180855 0)
(-0.0202078 0.00179642 0)
(-0.0218167 0.00177255 -1.25645e-23)
(-0.023568 0.00173132 0)
(-0.0254327 0.00166755 -9.55179e-19)
(-0.0273834 0.0015761 0)
(-0.0293811 0.0014529 0)
(-0.0313861 0.00129486 4.75461e-19)
(-0.0333532 0.00110012 -4.76278e-19)
(-0.0352322 0.000867807 -2.46372e-24)
(-0.0369654 0.000598619 2.40196e-19)
(-0.0384891 0.000294972 0)
(-0.0397328 -3.86385e-05 -6.1002e-20)
(-0.0406208 -0.000395503 -2.46617e-19)
(-0.0410729 -0.000766995 9.33154e-24)
(-0.0410043 -0.00113807 5.06532e-19)
(-0.0403294 -0.00148946 -5.14639e-19)
(-0.0389595 -0.00180927 0)
(-0.0368086 -0.00207477 0)
(-0.033787 -0.00226191 0)
(-0.0298171 -0.0023431 0)
(-0.0248079 -0.00228973 0)
(-0.0187122 -0.00206886 -2.32312e-18)
(-0.0114597 -0.00164899 0)
(-0.00314037 -0.000992725 2.42015e-18)
(0.00604601 -6.9266e-05 2.46978e-18)
(0.0151411 0.00103223 0)
(0.0247497 0.00230773 0)
(0.0344645 0.00377261 0)
(0.0450044 0.00546794 0)
(0.0552412 0.00735772 5.45587e-18)
(0.066942 0.00954455 0)
(0.0771947 0.0118478 0)
(0.090693 0.0146328 -5.52501e-18)
(0.0998688 0.0172478 -5.41423e-18)
(0.117101 0.0209316 0)
(0.122723 0.0235203 -9.99746e-18)
(0.148791 0.0290033 0)
(0.145094 0.030525 -7.97621e-18)
(0.192594 0.0403852 -4.1352e-18)
(0.168406 0.0386607 1.68201e-18)
(0.262906 0.0576112 2.98565e-18)
(0.500824 -0.011366 -1.73808e-19)
(0.0412801 0.00906106 -4.25542e-18)
(0.0141241 -0.00129303 0)
(-0.0188702 0.00483408 4.6135e-18)
(-0.0175037 0.00374049 0)
(-0.0234468 0.00457156 0)
(-0.0218111 0.00403398 0)
(-0.0229985 0.00400792 -4.5473e-18)
(-0.0219371 0.00367209 0)
(-0.0221422 0.00351539 -4.41808e-18)
(-0.0216567 0.00330214 0)
(-0.0218708 0.00317608 0)
(-0.0220069 0.00306437 -2.11035e-18)
(-0.0226324 0.00300384 0)
(-0.0234263 0.00296732 0)
(-0.0246054 0.0029569 0)
(-0.0260294 0.00295936 0)
(-0.0277725 0.00296775 0)
(-0.0297671 0.00297282 0)
(-0.0320268 0.00296573 1.94313e-18)
(-0.0345072 0.00293782 -1.92878e-18)
(-0.0371875 0.00287975 0)
(-0.0400183 0.0027831 7.09095e-24)
(-0.0429521 0.00263957 -9.50865e-19)
(-0.0459247 0.00244279 0)
(-0.0488703 0.00218821 -9.48977e-19)
(-0.0517158 0.00187326 0)
(-0.0543808 0.00149687 4.76629e-19)
(-0.0567749 0.00106057 -2.39463e-19)
(-0.0587997 0.000568681 0)
(-0.0603482 2.88893e-05 0)
(-0.0613075 -0.000547414 2.45524e-19)
(-0.0615596 -0.00114521 -4.46842e-24)
(-0.0609817 -0.0017435 0)
(-0.0594525 -0.00231889 1.02215e-18)
(-0.0568486 -0.0028438 0)
(-0.0530533 -0.00328526 1.05707e-18)
(-0.0479484 -0.00360784 0)
(-0.0414364 -0.00377063 0)
(-0.0334121 -0.00373212 0)
(-0.023843 -0.0034434 2.2739e-18)
(-0.0126903 -0.00285695 0)
(-0.00017846 -0.00191057 0)
(0.0133531 -0.000548119 -2.37625e-18)
(0.026992 0.00112129 0)
(0.0415417 0.00306099 0)
(0.0564096 0.00530956 2.58207e-18)
(0.0725029 0.00790527 -2.63937e-18)
(0.0883108 0.0108267 -2.68245e-18)
(0.106148 0.0141643 0)
(0.122177 0.0177538 0)
(0.142575 0.0219595 0)
(0.157397 0.0261072 5.37182e-18)
(0.182957 0.0315543 5.32304e-18)
(0.193367 0.0358799 4.98262e-18)
(0.231009 0.0437077 0)
(0.229474 0.047028 3.98668e-18)
(0.296471 0.0604824 8.28176e-18)
(0.268259 0.0601014 0)
(0.40201 0.0847343 -3.00415e-18)
(0.605049 0.000253599 -1.44286e-19)
(0.0969956 0.0110044 4.13084e-18)
(0.0279027 -0.00122753 -4.33073e-18)
(-0.0183257 0.00584376 0)
(-0.0200987 0.00456413 0)
(-0.0290449 0.00577073 0)
(-0.027866 0.00514177 0)
(-0.029831 0.00516538 0)
(-0.0288096 0.00476953 0)
(-0.0292462 0.0045951 4.42087e-18)
(-0.0287768 0.00434619 4.35141e-18)
(-0.0291385 0.00420629 0)
(-0.029402 0.00408725 0)
(-0.03027 0.00403339 0)
(-0.0313612 0.0040114 2.05112e-18)
(-0.0329389 0.00402188 0)
(-0.0348341 0.00404799 1.99972e-18)
(-0.0371314 0.00407948 -1.9774e-18)
(-0.0397451 0.00410399 0)
(-0.0426839 0.00410917 -1.93984e-18)
(-0.0458863 0.00408311 0)
(-0.0493171 0.00401279 -9.56078e-19)
(-0.0529061 0.00388669 1.90224e-18)
(-0.0565839 0.00369356 9.47515e-19)
(-0.0602613 0.00342516 0)
(-0.0638478 0.00307604 4.72253e-19)
(-0.0672438 0.00264339 0)
(-0.0703421 0.00212638 4.73695e-19)
(-0.0730245 0.00152773 0)
(-0.0751649 0.000853906 0)
(-0.0766292 0.000115883 0)
(-0.0772787 -0.000670569 2.43045e-19)
(-0.0769712 -0.00148485 -9.82328e-19)
(-0.0755639 -0.0023002 0)
(-0.0729189 -0.00308609 -5.03333e-19)
(-0.0689007 -0.00380608 0)
(-0.0633871 -0.00441852 -1.03588e-18)
(-0.0562612 -0.00487921 0)
(-0.0474389 -0.00513756 0)
(-0.03684 -0.00514268 0)
(-0.024483 -0.00483415 2.18955e-18)
(-0.0103947 -0.00415074 0)
(0.005089 -0.00301137 2.2198e-18)
(0.0216702 -0.0013479 -2.24646e-18)
(0.0388332 0.000727412 0)
(0.0573427 0.00316512 -2.40168e-18)
(0.0764948 0.00603197 -4.94991e-18)
(0.0972528 0.00936341 2.5435e-18)
(0.117904 0.0131543 5.19245e-18)
(0.140986 0.0174685 -5.28494e-18)
(0.16223 0.0221835 -5.32349e-18)
(0.188468 0.0275946 0)
(0.208688 0.0331332 -5.28036e-18)
(0.241001 0.0400142 -5.24949e-18)
(0.256681 0.0460213 -4.91063e-18)
(0.302996 0.0555705 0)
(0.30585 0.0608769 0)
(0.386193 0.0765629 -4.11459e-18)
(0.359815 0.0783477 0)
(0.520433 0.105415 2.93753e-18)
(0.684215 0.0143671 -1.25456e-19)
(0.16288 0.0131476 -3.18917e-20)
(0.0478688 -0.000607843 4.30481e-18)
(-0.013276 0.00653898 4.60692e-18)
(-0.020095 0.00513272 0)
(-0.0325175 0.00670565 -4.64546e-18)
(-0.0323855 0.00602123 0)
(-0.0353446 0.0061204 0)
(-0.0346096 0.00569134 0)
(-0.0353806 0.0055203 4.42183e-18)
(-0.0350377 0.00525504 -4.35233e-18)
(-0.0355888 0.00511809 0)
(-0.0360152 0.00500682 0)
(-0.0371219 0.00497315 0)
(-0.0384931 0.0049775 -2.04966e-18)
(-0.0404239 0.00501898 0)
(-0.042726 0.00507696 -1.9968e-18)
(-0.0454873 0.005138 1.97358e-18)
(-0.0486057 0.0051866 0)
(-0.0520806 0.00520703 0)
(-0.0558329 0.00518413 9.58706e-19)
(-0.0598099 0.00510149 9.51745e-19)
(-0.0639204 0.0049447 -1.89197e-18)
(-0.0680731 0.00470006 -9.41492e-19)
(-0.0721557 0.00435805 0)
(-0.0760552 0.00391303 4.68229e-19)
(-0.0796507 0.00336259 0)
(-0.0828144 0.00270675 -4.6845e-19)
(-0.0854092 0.0019499 2.34793e-19)
(-0.0872924 0.00110103 0)
(-0.0883164 0.000174491 0)
(-0.0883332 -0.000809755 -4.77304e-19)
(-0.0871948 -0.00182609 4.81091e-19)
(-0.0847599 -0.00284288 0)
(-0.0808938 -0.00382295 -4.90185e-19)
(-0.0754707 -0.00472421 0)
(-0.0683832 -0.00549868 1.00191e-18)
(-0.059535 -0.00609605 0)
(-0.0488693 -0.00645924 0)
(-0.0363386 -0.00653054 0)
(-0.0220024 -0.00624092 -2.08077e-18)
(-0.00592307 -0.00551633 -2.08749e-18)
(0.0115377 -0.00426343 -2.08842e-18)
(0.0302313 -0.00241559 1.16836e-21)
(0.0500091 -8.27959e-05 -2.17836e-18)
(0.0715028 0.00269038 2.25803e-18)
(0.0939827 0.0059967 4.66469e-18)
(0.118418 0.00987712 0)
(0.14305 0.0143443 -2.46711e-18)
(0.170445 0.0194413 5.04711e-18)
(0.19624 0.0250929 5.10694e-18)
(0.227371 0.0315057 0)
(0.252622 0.0382639 0)
(0.290459 0.0463194 0)
(0.311581 0.0538867 4.79404e-18)
(0.364425 0.0647136 0)
(0.373026 0.0720352 0)
(0.462187 0.0889959 4.02938e-18)
(0.441464 0.0933137 -1.61345e-18)
(0.619162 0.120636 -2.90899e-18)
(0.745566 0.02911 -1.12209e-19)
(0.233421 0.0160014 -3.95708e-18)
(0.0745738 0.000579159 0)
(-0.00364417 0.00707716 -4.5969e-18)
(-0.0173814 0.00552735 -4.6209e-18)
(-0.033815 0.007424 5.12924e-22)
(-0.0353116 0.00670588 0)
(-0.0395113 0.00689696 0)
(-0.0393057 0.00645496 0)
(-0.0405264 0.00630386 -4.42247e-18)
(-0.0404179 0.00603815 0)
(-0.0412038 0.00591767 0)
(-0.0418249 0.0058265 2.10896e-18)
(-0.0431644 0.00582361 0)
(-0.0447917 0.00586315 0)
(-0.0470234 0.00594252 0)
(-0.049658 0.00603717 0)
(-0.0527807 0.00613046 -1.96734e-18)
(-0.0562745 0.00620372 0)
(-0.0601255 0.00623804 1.92422e-18)
(-0.0642368 0.00621523 -9.52942e-19)
(-0.0685377 0.00611585 -9.44822e-19)
(-0.072917 0.00592311 1.87571e-18)
(-0.0772642 0.00562157 1.86405e-18)
(-0.081449 0.00520127 0)
(-0.0853428 0.00465722 -4.61963e-19)
(-0.0888119 0.00398819 0)
(-0.0917187 0.00319565 0)
(-0.0939197 0.00228613 -4.60435e-19)
(-0.0952699 0.00127134 0)
(-0.0956238 0.000168881 0)
(-0.0948392 -0.000997587 4.6439e-19)
(-0.092779 -0.00219855 0)
(-0.0893143 -0.00339837 0)
(-0.0843238 -0.00455566 4.7244e-19)
(-0.0776976 -0.00562443 0)
(-0.0693457 -0.00655249 -9.59049e-19)
(-0.0591895 -0.00728543 0)
(-0.0471906 -0.00776165 0)
(-0.0333178 -0.00791776 0)
(-0.0176448 -0.00767733 0)
(-0.000236264 -0.00695383 1.96556e-18)
(0.0185776 -0.0056475 1.96083e-18)
(0.0387934 -0.00370247 1.20703e-21)
(0.0604794 -0.00122485 2.03891e-18)
(0.0841347 0.00175608 2.10749e-18)
(0.109054 0.00534943 -2.17908e-18)
(0.13619 0.00960566 0)
(0.163849 0.014553 -2.30822e-18)
(0.194535 0.0202267 2.36742e-18)
(0.22402 0.0265951 -4.80669e-18)
(0.259052 0.0337903 0)
(0.288728 0.0415505 0)
(0.331042 0.0505472 -4.86151e-18)
(0.35743 0.0594875 -4.58952e-18)
(0.415311 0.0712778 4.57456e-18)
(0.430255 0.0805135 3.73795e-18)
(0.525267 0.0981345 -3.93215e-18)
(0.512259 0.10504 1.5812e-18)
(0.700009 0.131276 0)
(0.793858 0.043684 -1.01239e-19)
(0.304746 0.0197909 0)
(0.107938 0.00233704 4.23215e-18)
(0.0106911 0.00761915 4.58058e-18)
(-0.0118557 0.00582617 -6.12635e-23)
(-0.0328786 0.00797311 4.6448e-18)
(-0.0365846 0.00722927 0)
(-0.0423003 0.00751941 0)
(-0.0428664 0.00707798 0)
(-0.0446648 0.00695899 2.21086e-18)
(-0.0448971 0.00670487 2.1753e-18)
(-0.0459671 0.00661113 0)
(-0.0468115 0.00654935 -2.10719e-18)
(-0.0483761 0.00658475 2.07456e-18)
(-0.05023 0.00666524 0)
(-0.0527036 0.0067861 0)
(-0.0555873 0.00691874 0)
(-0.0589594 0.0070433 5.44735e-23)
(-0.0626889 0.00713807 0)
(-0.0667476 0.00718127 -3.82053e-18)
(-0.0710223 0.00715208 9.44519e-19)
(-0.0754265 0.00702872 9.34919e-19)
(-0.0798342 0.00679279 -3.05176e-23)
(-0.0841222 0.00642802 -9.18687e-19)
(-0.0881508 0.00592493 0)
(-0.0917857 0.00528 0)
(-0.0948912 0.00449375 0)
(-0.0973312 0.00356948 2.24758e-19)
(-0.0989671 0.0025159 4.48471e-19)
(-0.0996619 0.00134717 0)
(-0.0992807 8.35674e-05 0)
(-0.097694 -0.0012485 -4.48502e-19)
(-0.0947791 -0.0026168 -2.24626e-19)
(-0.0904176 -0.00398324 0)
(-0.0845003 -0.00530379 0)
(-0.0769286 -0.00652966 0)
(-0.0676226 -0.00760576 0)
(-0.0565123 -0.00847449 0)
(-0.0435661 -0.00907053 0)
(-0.028757 -0.009325 0)
(-0.0121571 -0.00915459 0)
(0.00618201 -0.00846125 0)
(0.0259831 -0.00714352 -9.66951e-22)
(0.0473473 -0.00516193 1.86406e-18)
(0.0704375 -0.00261879 0)
(0.0956489 0.000479046 -3.94454e-18)
(0.122319 0.00424745 -2.03141e-18)
(0.151366 0.00874643 0)
(0.181207 0.0140133 2.15086e-18)
(0.214248 0.0200844 -2.20649e-18)
(0.246507 0.02696 4.48538e-18)
(0.284426 0.0347232 -4.55782e-18)
(0.317683 0.0432396 0)
(0.363438 0.0529474 8.99388e-21)
(0.394507 0.0630041 4.34047e-18)
(0.456249 0.0755078 -8.68593e-18)
(0.477448 0.0864301 -1.31736e-20)
(0.576432 0.104337 -3.74851e-18)
(0.571873 0.113648 1.49789e-18)
(0.76494 0.138085 2.7023e-18)
(0.832278 0.0576539 3.12153e-18)
(0.374273 0.0245422 0)
(0.147319 0.00468362 2.61608e-21)
(0.0298661 0.00828741 -2.75835e-22)
(-0.00342111 0.00613217 4.60777e-18)
(-0.0296378 0.00840131 4.64112e-18)
(-0.03614 0.00762627 0)
(-0.0436744 0.00801314 4.55271e-18)
(-0.045258 0.00757876 0)
(-0.0477746 0.00749969 -2.21034e-18)
(-0.0484552 0.00726505 -9.44661e-23)
(-0.0498625 0.00720502 -2.1396e-18)
(-0.050957 0.00717857 0)
(-0.0527377 0.00725666 -4.14118e-18)
(-0.0547844 0.0073807 0)
(-0.0574369 0.00754348 0)
(-0.0604815 0.0077123 0)
(-0.0639883 0.00786416 1.94562e-18)
(-0.0678152 0.00797464 0)
(-0.0719213 0.00801962 1.89151e-18)
(-0.0761819 0.00797639 -1.86685e-18)
(-0.0805002 0.00782165 0)
(-0.0847432 0.00753628 -3.28021e-23)
(-0.0887834 0.00710406 0)
(-0.0924809 0.00651667 0)
(-0.0957043 0.00577251 -4.42897e-19)
(-0.0983237 0.00487401 0)
(-0.100211 0.00382613 -4.37008e-19)
(-0.101236 0.00263936 -2.17453e-19)
(-0.101274 0.00132969 -5.41633e-20)
(-0.1002 -8.07188e-05 5.4038e-20)
(-0.0978969 -0.00156367 2.15818e-19)
(-0.0942502 -0.00308526 4.31339e-19)
(-0.0891487 -0.00460591 0)
(-0.0824907 -0.00607965 4.32271e-19)
(-0.0741834 -0.00745546 0)
(-0.0641518 -0.0086759 0)
(-0.0523287 -0.00968042 0)
(-0.0386843 -0.0104003 8.75759e-19)
(-0.0231897 -0.0107612 0)
(-0.00590979 -0.0106736 0)
(0.0131217 -0.0100297 1.75875e-18)
(0.0336845 -0.00872992 -1.75695e-18)
(0.0559453 -0.00675314 0)
(0.0800869 -0.00419801 0)
(0.106431 -0.00104548 1.856e-18)
(0.134361 0.00282056 1.90563e-18)
(0.164752 0.00746888 -1.95525e-18)
(0.196139 0.012939 0)
(0.230811 0.0192737 0)
(0.265068 0.0264897 0)
(0.305009 0.0346454 7.2862e-21)
(0.340975 0.0436928 0)
(0.389199 0.0539065 4.25706e-18)
(0.424098 0.0647957 0)
(0.488652 0.0778007 4.06702e-18)
(0.515456 0.0900814 -3.3543e-18)
(0.6171 0.108049 7.08286e-18)
(0.620744 0.119395 -1.42693e-18)
(0.816019 0.141768 -2.58037e-18)
(0.863048 0.0707571 8.43634e-20)
(0.440365 0.0301547 -3.63924e-18)
(0.191683 0.00764158 -4.12695e-18)
(0.0538945 0.00919357 -1.83191e-22)
(0.00809681 0.00653611 -4.59543e-18)
(-0.0240097 0.00875887 -4.63615e-18)
(-0.0339077 0.00793314 0)
(-0.0435886 0.00840412 -4.55096e-18)
(-0.0464424 0.00797625 0)
(-0.049831 0.00794035 -2.20915e-18)
(-0.0510702 0.0077289 -2.17274e-18)
(-0.0528735 0.0077062 2.13723e-18)
(-0.0542449 0.00771772 -2.10069e-18)
(-0.0562334 0.00783986 2.06521e-18)
(-0.0584377 0.00800712 -2.0298e-18)
(-0.061207 0.00820964 1.99544e-18)
(-0.0643276 0.00841052 0)
(-0.0678633 0.00858405 0)
(-0.0716655 0.00870355 0)
(-0.0756855 0.00874334 9.34182e-19)
(-0.0797936 0.00867957 9.20059e-19)
(-0.0838896 0.00848827 0)
(-0.0878404 0.00815028 -8.94359e-19)
(-0.0915213 0.00764996 0)
(-0.0947979 0.00698039 0)
(-0.0975461 0.0061419 4.3162e-19)
(-0.0996438 0.0051385 -4.27494e-19)
(-0.100972 0.0039764 2.12001e-19)
(-0.10141 0.00266731 0)
(-0.100841 0.00122847 1.04675e-19)
(-0.0991497 -0.000316724 -1.04228e-19)
(-0.0962255 -0.00193895 0)
(-0.091959 -0.00360335 -2.07221e-19)
(-0.0862435 -0.00526913 4.1397e-19)
(-0.0789817 -0.00688865 -4.14179e-19)
(-0.0700842 -0.00840895 0)
(-0.0594778 -0.00977042 0)
(-0.0470965 -0.0109097 0)
(-0.0329095 -0.0117548 -8.36321e-19)
(-0.016885 -0.0122262 0)
(0.00092117 -0.0122291 0)
(0.0204951 -0.0116482 -1.67956e-18)
(0.0416683 -0.0103877 0)
(0.0646443 -0.00844408 1.68761e-18)
(0.0895863 -0.00591209 -1.71824e-18)
(0.116765 -0.0027467 0)
(0.145611 0.00116462 1.79598e-18)
(0.176952 0.00589867 3.67693e-18)
(0.209435 0.0114919 -1.87438e-18)
(0.245229 0.017997 0)
(0.280901 0.0254328 0)
(0.322216 0.0338524 1.97179e-18)
(0.360161 0.0432532 0)
(0.41007 0.0538126 3.93543e-18)
(0.447929 0.0652774 0)
(0.514397 0.0786139 3.75944e-18)
(0.545865 0.0918946 3.10199e-18)
(0.649156 0.109784 -3.30511e-18)
(0.660109 0.122691 0)
(0.855559 0.143023 2.39393e-18)
(0.887776 0.082859 -3.37248e-18)
(0.502049 0.0364605 2.0025e-20)
(0.239787 0.011222 4.07259e-18)
(0.082671 0.0104478 -1.62711e-22)
(0.022882 0.00710474 -6.62174e-22)
(-0.0158975 0.00909822 0)
(-0.0298121 0.00818757 0)
(-0.0419891 0.00871878 0)
(-0.046376 0.00828998 -2.24047e-18)
(-0.0508043 0.00829575 4.41528e-18)
(-0.0527183 0.00810704 0)
(-0.054983 0.00812196 2.13393e-18)
(-0.056661 0.00817092 6.45979e-23)
(-0.0588528 0.00833579 -2.05823e-18)
(-0.0611837 0.00854359 5.92475e-23)
(-0.064015 0.00878189 -1.98307e-18)
(-0.0671389 0.00900971 0)
(-0.0706174 0.00919912 0)
(-0.0743012 0.00932176 0)
(-0.0781395 0.00935113 -9.21147e-19)
(-0.0820034 0.00926283 0)
(-0.0857946 0.0090328 8.90219e-19)
(-0.089385 0.00864216 8.76184e-19)
(-0.0926559 0.00807596 -8.63198e-19)
(-0.0954803 0.00732861 0)
(-0.0977418 0.00640204 0)
(-0.0993264 0.0053015 4.15591e-19)
(-0.100122 0.004034 0)
(-0.100016 0.00261204 2.03961e-19)
(-0.0988975 0.0010537 -5.06375e-20)
(-0.0966577 -0.000616791 5.03412e-20)
(-0.0931901 -0.00236943 -2.00316e-19)
(-0.0883877 -0.00416866 0)
(-0.0821477 -0.00597251 -3.98533e-19)
(-0.0743758 -0.00773182 0)
(-0.0649845 -0.00939184 0)
(-0.053902 -0.0108909 7.98264e-19)
(-0.0410622 -0.012163 0)
(-0.0264335 -0.013133 0)
(-0.00998026 -0.0137169 0)
(0.00825099 -0.0138151 0)
(0.0282656 -0.0133071 0)
(0.0499393 -0.0121019 0)
(0.0734928 -0.010211 -3.24322e-18)
(0.0990512 -0.00772479 1.64611e-18)
(0.126851 -0.00457447 1.67519e-18)
(0.156368 -0.000653149 -3.41422e-18)
(0.188382 0.00412356 -1.74084e-18)
(0.221643 0.00978512 1.76948e-18)
(0.258203 0.0163967 -1.79661e-18)
(0.294874 0.0239682 0)
(0.337108 0.0325619 3.35499e-21)
(0.376478 0.0421861 -3.6354e-18)
(0.427497 0.0529754 -3.66089e-18)
(0.467579 0.0648111 -3.46365e-18)
(0.535271 0.0783549 -6.96549e-18)
(0.570444 0.0923107 -2.8803e-18)
(0.67461 0.110044 3.03903e-18)
(0.691694 0.124023 1.20178e-18)
(0.886023 0.142495 -2.22902e-18)
(0.907674 0.0939163 -7.31297e-20)
(0.558811 0.0432671 3.49969e-18)
(0.290335 0.0154121 2.24718e-21)
(0.115931 0.0121327 -2.02824e-22)
(0.0411147 0.00790653 4.55465e-18)
(-0.00519285 0.00947249 4.61568e-18)
(-0.0237717 0.00842877 -4.58419e-18)
(-0.0388126 0.00898404 2.27169e-18)
(-0.0450094 0.00854019 4.4435e-23)
(-0.0506597 0.00858119 -2.20561e-18)
(-0.053373 0.00841069 -2.16778e-18)
(-0.0561736 0.00846031 -2.12997e-18)
(-0.0581945 0.0085433 4.18005e-18)
(-0.060593 0.00874736 5.54664e-23)
(-0.063029 0.0089914 2.00922e-18)
(-0.0658816 0.00926077 0)
(-0.0689551 0.00951045 1.92856e-18)
(-0.0723156 0.0097109 0)
(-0.0758188 0.00983244 -1.85129e-18)
(-0.0794165 0.00984833 -9.07375e-19)
(-0.0829847 0.0097339 -8.89967e-19)
(-0.0864302 0.00946526 -3.24652e-23)
(-0.0896316 0.00902387 -8.58236e-19)
(-0.0924775 0.00839538 8.44051e-19)
(-0.0948483 0.00757529 0)
(-0.0966345 0.00656683 -4.09672e-19)
(-0.0977288 0.00537613 0)
(-0.0980251 0.00401073 0)
(-0.0974161 0.00248364 -1.98057e-19)
(-0.0957961 0.000813559 0)
(-0.093061 -0.000974727 0)
(-0.0891062 -0.00285081 1.93908e-19)
(-0.0838273 -0.00477843 0)
(-0.0771246 -0.00671446 0)
(-0.0689062 -0.00860836 3.8464e-19)
(-0.0590862 -0.0104037 0)
(-0.0475937 -0.0120368 -7.70693e-19)
(-0.0343629 -0.0134391 0)
(-0.0193607 -0.0145329 7.74484e-19)
(-0.00254846 -0.0152297 0)
(0.0160371 -0.0154264 0)
(0.0364183 -0.0149987 0)
(0.0585075 -0.013861 0)
(0.0825297 -0.0120363 1.56641e-18)
(0.108565 -0.00961027 0)
(0.136828 -0.00649366 -3.21694e-18)
(0.166836 -0.00258622 1.63351e-18)
(0.199324 0.00220369 -1.65735e-18)
(0.233133 0.0078961 1.67823e-18)
(0.270209 0.0145701 1.70205e-18)
(0.307579 0.0222187 0)
(0.350415 0.030924 1.72472e-18)
(0.390803 0.0406788 5.11011e-18)
(0.442528 0.0516171 -3.40554e-18)
(0.484261 0.0636705 3.22908e-18)
(0.552683 0.0773356 3.23317e-18)
(0.590734 0.0917022 0)
(0.695224 0.109243 -2.81756e-18)
(0.71727 0.123861 -2.21258e-18)
(0.909695 0.140726 0)
(0.92368 0.103942 3.59966e-18)
(0.610453 0.0503837 0)
(0.34209 0.0201713 2.03061e-21)
(0.153244 0.0143049 -2.83241e-22)
(0.0629395 0.00900262 -4.52811e-18)
(0.00822615 0.0099406 -9.20193e-18)
(-0.0156999 0.00869759 9.15527e-18)
(-0.0339864 0.00922737 -2.26906e-18)
(-0.0422864 0.00874798 2.23639e-18)
(-0.0493567 0.00881264 0)
(-0.0530054 0.00865186 4.38807e-23)
(-0.056428 0.00873027 0)
(-0.0588383 0.00884138 -4.16656e-18)
(-0.061459 0.00907938 2.04064e-18)
(-0.0639924 0.0093544 0)
(-0.0668428 0.00965001 0)
(-0.0698336 0.0099171 -1.91003e-18)
(-0.0730404 0.0101249 0)
(-0.0763281 0.0102427 1.82678e-18)
(-0.0796547 0.0102437 8.93767e-19)
(-0.0829034 0.010103 2.91445e-23)
(-0.0859875 0.00979709 -8.57591e-19)
(-0.0887931 0.00930755 -8.41211e-19)
(-0.0912159 0.00862057 0)
(-0.0931432 0.00773247 0)
(-0.0944719 0.00664754 4.00034e-19)
(-0.0950997 0.0053726 0)
(-0.0949257 0.00391548 1.9486e-19)
(-0.0938472 0.00228958 -1.92816e-19)
(-0.0917623 0.000514085 4.77805e-20)
(-0.0885706 -0.00138591 -4.73912e-20)
(-0.0841686 -0.00337969 1.88325e-19)
(-0.078455 -0.00543023 -1.87427e-19)
(-0.0713327 -0.00749329 3.73695e-19)
(-0.0627119 -0.00951705 -3.73209e-19)
(-0.0525084 -0.0114434 0)
(-0.0406523 -0.0132071 0)
(-0.0270779 -0.0147368 0)
(-0.0117512 -0.0159525 -2.13615e-22)
(0.00536947 -0.0167618 7.52936e-19)
(0.024257 -0.0170589 0)
(0.0449477 -0.0167171 0)
(0.0673836 -0.0156559 0)
(0.0917855 -0.0139066 0)
(0.11819 -0.0115497 0)
(0.146794 -0.00847927 1.08612e-21)
(0.177156 -0.00460203 0)
(0.20997 0.000180677 3.18104e-18)
(0.244158 0.00587782 -3.21065e-18)
(0.281569 0.0125833 -1.61928e-18)
(0.319419 0.0202679 0)
(0.362628 0.0290408 0)
(0.403737 0.0388601 -3.20822e-18)
(0.455883 0.0498904 7.75116e-21)
(0.498837 0.0620495 -3.00881e-18)
(0.567644 0.0757776 3.00018e-18)
(0.607915 0.0903521 2.45466e-18)
(0.712357 0.107689 -2.5897e-18)
(0.738352 0.122596 2.02059e-18)
(0.928443 0.138122 1.86878e-18)
(0.936534 0.112982 6.54438e-20)
(0.656988 0.0576362 -3.35802e-18)
(0.393942 0.0254328 -7.79868e-18)
(0.194033 0.0169967 -3.94152e-22)
(0.0884234 0.0104469 4.49561e-18)
(0.0244982 0.0105602 4.581e-18)
(-0.00550492 0.00903842 -2.28344e-18)
(-0.0274269 0.00947679 0)
(-0.0381437 0.00893551 0)
(-0.0468481 0.00900691 2.20016e-18)
(-0.0515824 0.00884358 2.16092e-18)
(-0.0557279 0.00894204 0)
(-0.0585875 0.00907316 2.07608e-18)
(-0.0614606 0.00933852 0)
(-0.0640994 0.00963864 0)
(-0.0669423 0.00995577 0)
(-0.0698373 0.0102364 0)
(-0.0728747 0.0104489 1.84654e-18)
(-0.0759322 0.0105612 9.01551e-19)
(-0.078976 0.0105467 -8.80818e-19)
(-0.0818979 0.0103804 2.82818e-23)
(-0.0846185 0.0100387 0)
(-0.0870317 0.00950362 8.25729e-19)
(-0.0890399 0.00876158 0)
(-0.090537 0.00780956 0)
(-0.0914253 0.00665276 3.91422e-19)
(-0.0916074 0.00529847 -3.85738e-19)
(-0.0909865 0.00375476 -1.90411e-19)
(-0.0894638 0.0020353 1.88303e-19)
(-0.0869412 0.000159639 -9.32583e-20)
(-0.0833208 -0.00184698 9.24355e-20)
(-0.0785004 -0.00395352 -1.83599e-19)
(-0.0723818 -0.00612215 1.82659e-19)
(-0.0648706 -0.0083076 -6.6466e-23)
(-0.0558792 -0.0104568 -3.63385e-19)
(-0.0453249 -0.0125102 0)
(-0.033139 -0.0144007 0)
(-0.019256 -0.0160548 0)
(-0.00364125 -0.0173902 -1.46244e-18)
(0.0137494 -0.018311 -7.33078e-19)
(0.0328982 -0.0187096 0)
(0.0538522 -0.0184576 0)
(0.0765771 -0.0174797 -1.47371e-18)
(0.101285 -0.0158116 0)
(0.127972 -0.0135292 0)
(0.156823 -0.0105131 3.01185e-18)
(0.187432 -0.00667719 -1.51949e-18)
(0.220458 -0.00191602 -3.06884e-18)
(0.254895 0.00376732 1.66984e-21)
(0.292503 0.0104821 3.10712e-18)
(0.330668 0.0181731 1.54976e-18)
(0.374085 0.0269819 0)
(0.415691 0.036818 1.52311e-18)
(0.468056 0.0478997 3.02682e-18)
(0.511906 0.0600825 2.83894e-18)
(0.580858 0.0738339 -2.82033e-18)
(0.622842 0.0884637 -2.29868e-18)
(0.726987 0.105602 2.41667e-18)
(0.756114 0.120527 -9.32155e-19)
(0.94366 0.134968 -1.73314e-18)
(0.946832 0.1211 6.24651e-20)
(0.698573 0.0648746 3.31874e-18)
(0.444938 0.0311098 -1.57073e-21)
(0.237609 0.0202163 -5.30789e-22)
(0.117528 0.012284 0)
(0.043741 0.0113903 0)
(0.00693478 0.00949401 1.72174e-22)
(-0.0190393 0.0097614 0)
(-0.0325091 0.00912609 0)
(-0.0430788 0.00918167 -7.32745e-24)
(-0.0490658 0.00899991 0)
(-0.0540511 0.00910697 0)
(-0.0574358 0.00924802 2.06884e-18)
(-0.0606075 0.00953295 0)
(-0.0633759 0.00985171 0)
(-0.066222 0.0101856 0)
(-0.0690239 0.0104762 0)
(-0.0718913 0.010691 -3.67344e-23)
(-0.0747172 0.0107966 -8.90643e-19)
(-0.077478 0.0107663 1.73799e-18)
(-0.080075 0.0105748 2.67995e-23)
(-0.0824369 0.0101989 8.295e-19)
(-0.0844651 0.00962044 0)
(-0.0860693 0.00882625 7.95643e-19)
(-0.0871491 0.00781374 0)
(-0.0876121 0.00658888 -3.83935e-19)
(-0.0873653 0.00515934 3.14974e-23)
(-0.0863157 0.00353334 0)
(-0.0843683 0.00172475 0)
(-0.0814281 -0.00024661 5.47693e-24)
(-0.077399 -0.00235546 -6.019e-24)
(-0.0721814 -0.00457039 8.97536e-20)
(-0.0656798 -0.00685276 0)
(-0.0578025 -0.00915628 -3.55855e-19)
(-0.0484639 -0.0114268 3.5519e-19)
(-0.0375833 -0.0136032 0)
(-0.0250931 -0.015617 -7.10834e-19)
(-0.0109285 -0.0173923 0)
(0.00494591 -0.0188448 1.73991e-22)
(0.0225765 -0.0198757 0)
(0.0419534 -0.0203759 7.17398e-19)
(0.0631319 -0.0202165 7.18943e-19)
(0.0860967 -0.0193263 5.37643e-22)
(0.111047 -0.0177431 -1.44626e-18)
(0.137946 -0.0155381 0)
(0.166969 -0.0125814 -9.09666e-22)
(0.197739 -0.00879445 1.47806e-18)
(0.230886 -0.00406499 1.2992e-21)
(0.265469 0.00159124 1.49403e-18)
(0.303169 0.00829908 -1.81353e-21)
(0.34152 0.0159749 -2.12711e-21)
(0.385018 0.0247961 0)
(0.42695 0.0346139 0)
(0.479384 0.0457172 0)
(0.523884 0.0578631 0)
(0.592811 0.0716099 0)
(0.636118 0.0861811 2.14402e-18)
(0.739803 0.103131 0)
(0.77142 0.117874 0)
(0.956344 0.131458 -1.59419e-18)
(0.95506 0.128368 -1.93181e-18)
(0.735457 0.0719755 0)
(0.494301 0.0371028 -1.37827e-21)
(0.283216 0.0239486 -6.87454e-22)
(0.150093 0.0145476 0)
(0.0660416 0.0124883 2.26511e-18)
(0.0217564 0.0101062 -2.26866e-18)
(-0.00871752 0.0101114 0)
(-0.0253014 0.00934429 0)
(-0.0379837 0.00935545 -2.194e-18)
(-0.0454087 0.00913593 0)
(-0.0513687 0.00923746 0)
(-0.0553714 0.00937638 -2.06211e-18)
(-0.0589042 0.00967181 0)
(-0.0618414 0.010002 -1.96053e-18)
(-0.0647152 0.0103475 0)
(-0.0674391 0.0106444 0)
(-0.0701466 0.0108592 -2.93811e-23)
(-0.0727484 0.0109566 0)
(-0.0752332 0.0109099 -8.58452e-19)
(-0.0775125 0.0106937 8.37405e-19)
(-0.0795239 0.0102846 -1.63557e-18)
(-0.0811766 0.00966462 7.99663e-19)
(-0.0823872 0.00882063 -7.83149e-19)
(-0.0830615 0.00775047 0)
(-0.0831121 0.00646075 -3.77385e-19)
(-0.0824502 0.00495941 7.43014e-19)
(-0.0809863 0.00325477 0)
(-0.0786291 0.00136088 -9.05096e-20)
(-0.0752865 -0.000702308 4.47713e-20)
(-0.0708642 -0.00290951 -4.4347e-20)
(-0.0652652 -0.00522887 -8.80293e-20)
(-0.0583974 -0.00762094 0)
(-0.0501712 -0.0100385 -3.48796e-19)
(-0.0405037 -0.0124263 3.4811e-19)
(-0.0293156 -0.0147219 0)
(-0.0165411 -0.0168553 6.96916e-19)
(-0.00211621 -0.0187485 0)
(0.013995 -0.0203153 6.99914e-19)
(0.0318409 -0.0214545 0)
(0.0514179 -0.0220558 -7.0333e-19)
(0.0727878 -0.0219905 -7.05116e-19)
(0.0959496 -0.021191 4.98877e-22)
(0.121089 -0.0196947 1.41863e-18)
(0.148141 -0.017568 0)
(0.177271 -0.0146738 -1.43484e-18)
(0.208134 -0.0109408 0)
(0.241328 -0.00625027 1.44966e-18)
(0.275973 -0.000630781 0)
(0.31368 0.00605803 -1.45298e-18)
(0.352114 0.0137025 -2.88243e-18)
(0.395595 0.0225184 0)
(0.437719 0.0322914 0)
(0.490107 0.0433936 0)
(0.535066 0.0554572 1.27719e-18)
(0.603842 0.0691792 0)
(0.648171 0.083606 -9.89775e-21)
(0.751287 0.100381 0)
(0.784893 0.114793 7.81436e-19)
(0.967192 0.127717 1.49478e-18)
(0.961618 0.134864 0)
(0.767949 0.0788424 3.23012e-18)
(0.541419 0.0433067 3.74867e-18)
(0.330074 0.0281567 -8.55559e-22)
(0.185836 0.0172586 0)
(0.0914431 0.0139058 -2.24977e-18)
(0.0390972 0.0109168 0)
(0.00365288 0.0105596 2.25188e-18)
(-0.0164304 0.0096161 2.22468e-18)
(-0.0314862 0.00954763 2.191e-18)
(-0.0405541 0.00926769 2.15013e-18)
(-0.0476415 0.00934675 2.10564e-18)
(-0.0523728 0.00946949 0)
(-0.0563455 0.00976485 0)
(-0.0595048 0.0100981 1.95056e-18)
(-0.062443 0.0104495 0)
(-0.0651141 0.0107485 0)
(-0.0676799 0.0109605 -1.79322e-18)
(-0.0700716 0.011048 0)
(-0.0722922 0.0109843 -8.49214e-19)
(-0.0742646 0.0107432 0)
(-0.0759356 0.0103016 8.07595e-19)
(-0.0772231 0.00964142 -7.89128e-19)
(-0.0780507 0.00874953 0)
(-0.0783304 0.00762405 0)
(-0.0779798 0.00627215 2.47746e-23)
(-0.0769143 0.00470194 -3.65838e-19)
(-0.075048 0.00292182 0)
(-0.0722929 0.000945963 8.90824e-20)
(-0.0685599 -0.00120565 4.40284e-20)
(-0.0637563 -0.0035077 -4.36013e-20)