/*--------------------------------*- C++ -*----------------------------------*\
| =========                 |                                                 |
| \\      /  F ield         | OpenFOAM: The Open Source CFD Toolbox           |
|  \\    /   O peration     | Version:  2.4.0                                 |
|   \\  /    A nd           | Web:      www.OpenFOAM.org                      |
|    \\/     M anipulation  |                                                 |
\*---------------------------------------------------------------------------*/
FoamFile
{
    version     2.0;
    format      ascii;
    class       volScalarField;
    location    "1.17";
    object      epsilon;
}
// * * * * * * * * * * * * * * * * * * * * * * * * * * * * * * * * * * * * * //

dimensions      [0 2 -3 0 0 0 0];

internalField   nonuniform List<scalar> 
6000
(
0.994601
0.374728
0.0466805
0.0062249
0.00859834
0.0199373
0.0345279
0.0373467
0.0242438
0.0476558
0.0832236
0.100597
0.0874553
0.0606734
0.0391693
0.0234507
0.0129489
0.00674983
0.00354419
0.0021312
0.00193808
0.00293041
0.00415031
0.00550182
0.00695736
0.00848313
0.010036
0.0115689
0.0130392
0.0144185
0.0156979
0.0168876
0.0180119
0.0191022
0.0201925
0.0213169
0.0225097
0.0238061
0.0252437
0.026864
0.0287139
0.0308484
0.0333335
0.0362508
0.0397025
0.0438198
0.048773
0.0547864
0.062161
0.0713067
0.0827893
0.0974138
0.116317
0.141252
0.174595
0.221041
0.284564
0.384914
0.508636
0.785529
0.558188
0.344585
0.0210083
0.00568156
0.00366767
0.00899484
0.014138
0.0279326
0.057743
0.0525721
0.0316211
0.0202612
0.0116089
0.00669558
0.00482178
0.00335042
0.00220873
0.00146629
0.00109194
0.000980645
0.00107027
0.00126022
0.0014843
0.00174343
0.0020416
0.00238187
0.00276213
0.00317205
0.00359331
0.00400414
0.00438643
0.00473121
0.0050393
0.00531798
0.00557673
0.00582471
0.00607041
0.00632228
0.00658941
0.00688169
0.00720984
0.00758546
0.00802143
0.00853258
0.00913672
0.00985584
0.0107179
0.0117593
0.0130279
0.014588
0.0165275
0.0189683
0.0220851
0.0261272
0.0314827
0.0386862
0.0488151
0.0628638
0.0853446
0.11941
0.416938
0.400743
0.0274184
0.00370591
0.00353406
0.00968272
0.0186575
0.0428154
0.0464801
0.0231574
0.0112656
0.00631995
0.00376312
0.00309428
0.00283653
0.00235718
0.00171976
0.00120392
0.000925183
0.000817459
0.00080494
0.00082955
0.000870258
0.000923784
0.00099149
0.00107667
0.00118242
0.00130905
0.00145211
0.00160256
0.00174944
0.00188391
0.00200187
0.00210371
0.00219236
0.00227123
0.00234347
0.00241202
0.00248
0.00255084
0.00262823
0.00271593
0.00281778
0.00293778
0.00308035
0.0032506
0.00345478
0.00370072
0.00399849
0.00436131
0.00480688
0.00535892
0.00605132
0.0069287
0.00806753
0.00954045
0.0115982
0.0141607
0.0185899
0.0226428
0.367685
0.397216
0.0471711
0.00271676
0.00347031
0.00951641
0.0230045
0.0421355
0.027914
0.0114682
0.00585878
0.00362948
0.00295373
0.00300545
0.00299426
0.00259764
0.00189863
0.0012738
0.000919066
0.000762143
0.000703422
0.000685419
0.000681962
0.000685357
0.000693181
0.000705854
0.000725495
0.000754384
0.000793257
0.00084019
0.00089091
0.000940493
0.000985329
0.00102399
0.00105677
0.00108474
0.00110904
0.00113074
0.00115095
0.00117098
0.00119224
0.00121618
0.00124423
0.00127776
0.00131818
0.00136698
0.00142591
0.00149706
0.00158306
0.00168723
0.00181394
0.00196888
0.0021601
0.00239729
0.00269859
0.00307486
0.0035931
0.00417819
0.00527417
0.00581142
0.343364
0.369535
0.0691038
0.00268726
0.00322755
0.00798625
0.0231756
0.031403
0.016332
0.00705193
0.00413238
0.00319059
0.00318538
0.00347019
0.00353653
0.00311062
0.00226926
0.00146095
0.000980005
0.000759454
0.000668596
0.00063235
0.000614782
0.000604307
0.00059555
0.000586582
0.000578011
0.000571926
0.000570526
0.00057483
0.000584107
0.000596341
0.000609329
0.000621574
0.000632479
0.000642033
0.000650444
0.000657975
0.00066495
0.000671802
0.000679063
0.000687324
0.000697172
0.000709175
0.000723886
0.000741879
0.000763794
0.000790379
0.000822555
0.000861474
0.000908624
0.000965904
0.00103598
0.00112204
0.0012299
0.00136301
0.00154402
0.00174274
0.00212046
0.00229128
0.329784
0.335567
0.091796
0.00396967
0.00286402
0.00621016
0.017588
0.0204529
0.0103343
0.00522747
0.00362788
0.00334195
0.00362328
0.00401715
0.00413549
0.00369206
0.00273451
0.00173622
0.00109876
0.000795277
0.00066694
0.000613386
0.000586696
0.000570985
0.000557962
0.000543479
0.000526519
0.000508375
0.000491492
0.000478095
0.000469214
0.000464529
0.000462923
0.000463206
0.000464525
0.000466395
0.000468564
0.000470903
0.00047338
0.000476063
0.000479109
0.000482741
0.00048721
0.000492773
0.000499691
0.000508242
0.000518736
0.000531542
0.000547112
0.000566011
0.000588974
0.000616937
0.000651225
0.000693393
0.000746458
0.00081189
0.000901596
0.00100164
0.00119347
0.00131607
0.321585
0.302793
0.109341
0.00854447
0.00268586
0.00451901
0.0109058
0.0130399
0.00733282
0.00443738
0.00360318
0.00365471
0.00406698
0.00452714
0.00469631
0.00425891
0.00323622
0.00208309
0.00127594
0.000868977
0.000691417
0.000613878
0.00057513
0.000554178
0.000539503
0.000524595
0.000506552
0.000485431
0.00046329
0.000442778
0.000425864
0.000413258
0.000404604
0.000399053
0.000395731
0.000393955
0.000393238
0.000393253
0.000393796
0.00039477
0.000396167
0.000398045
0.000400504
0.000403666
0.000407673
0.000412687
0.000418901
0.000426549
0.000435925
0.000447404
0.000461477
0.000478778
0.000500217
0.000526904
0.00056093
0.000603572
0.000663549
0.000731519
0.0008664
0.000976421
0.316127
0.273976
0.121722
0.017015
0.0029199
0.003493
0.00676016
0.00880234
0.00583174
0.00413393
0.0037746
0.00399251
0.00446607
0.00498021
0.00519686
0.00476449
0.00370903
0.00246481
0.00150286
0.0009795
0.000741964
0.000631329
0.000574948
0.000545529
0.000527981
0.000513313
0.000496536
0.000476091
0.000453171
0.000430365
0.000410129
0.000393843
0.000381711
0.00037319
0.000367481
0.000363828
0.000361633
0.000360462
0.000360023
0.00036014
0.000360728
0.000361768
0.000363285
0.000365336
0.000368004
0.000371394
0.000375642
0.000380921
0.000387456
0.000395541
0.000405569
0.000418063
0.000433772
0.00045363
0.000479384
0.000512316
0.000559649
0.000614832
0.000728868
0.000833248
0.312166
0.249772
0.129675
0.0279677
0.0037179
0.00319228
0.00483739
0.00657011
0.00509667
0.00409122
0.00402664
0.00432312
0.00483903
0.00541498
0.00567079
0.00521512
0.00411162
0.00283389
0.00176061
0.0011224
0.000817598
0.000665423
0.000585652
0.000543667
0.000520543
0.00050483
0.000489403
0.000470828
0.000449041
0.000426184
0.000404903
0.000387033
0.000373212
0.000363168
0.000356207
0.000351565
0.00034859
0.000346792
0.00034583
0.000345488
0.000345646
0.000346245
0.000347276
0.000348764
0.000350757
0.000353336
0.000356606
0.000360711
0.000365844
0.00037226
0.000380305
0.000390441
0.000403354
0.000419874
0.000441719
0.000469871
0.000511285
0.000560243
0.000665067
0.000765672
0.30914
0.229954
0.133872
0.040133
0.00537684
0.00336842
0.00414265
0.00547505
0.00477467
0.00420134
0.00431647
0.00465871
0.00523088
0.00588573
0.00616925
0.00565266
0.00444632
0.00314914
0.00202314
0.00129022
0.000914566
0.000714824
0.000607
0.000548728
0.000517071
0.000498267
0.000483215
0.000466522
0.000446557
0.000424672
0.000403447
0.000385031
0.00037042
0.00035959
0.000351958
0.000346785
0.000343397
0.000341269
0.000340033
0.00033945
0.00033938
0.00033975
0.00034053
0.000341729
0.000343382
0.00034555
0.000348326
0.000351836
0.000356254
0.000361812
0.000368825
0.000377722
0.000389149
0.000403903
0.000423606
0.000449303
0.000487702
0.000533436
0.000633597
0.000731451
0.306763
0.213969
0.135042
0.0520887
0.00882341
0.00382348
0.0040745
0.00501499
0.00469397
0.00440902
0.00463535
0.0050265
0.00568497
0.00643339
0.00672883
0.00611981
0.00475105
0.00339265
0.00226293
0.00147282
0.00102689
0.000776688
0.00063785
0.000560588
0.000517874
0.000493845
0.000477745
0.000462352
0.000444294
0.00042382
0.000403194
0.000384751
0.000369797
0.000358543
0.000350528
0.000345051
0.000341433
0.000339129
0.00033775
0.000337043
0.000336858
0.000337111
0.000337766
0.000338824
0.000340309
0.000342278
0.000344812
0.000348029
0.000352092
0.000357219
0.000363713
0.000371986
0.000382658
0.000396496
0.00041508
0.000439441
0.000476201
0.000520173
0.000617744
0.00071336
0.30486
0.201191
0.13393
0.0627461
0.0145527
0.00448835
0.00433863
0.00491982
0.00476879
0.00468632
0.00499001
0.00545419
0.00623235
0.00707912
0.00736299
0.00663769
0.00507052
0.00357705
0.00245922
0.0016569
0.00114677
0.000847036
0.000676155
0.000578471
0.00052297
0.000491894
0.00047324
0.00045827
0.000441875
0.000422956
0.000403211
0.000385018
0.000369951
0.000358451
0.00035019
0.000344515
0.000340753
0.000338344
0.000336886
0.000336114
0.000335869
0.000336064
0.000336659
0.000337649
0.000339057
0.000340933
0.000343355
0.000346436
0.000350332
0.000355255
0.000361499
0.000369466
0.00037976
0.000393134
0.000411143
0.000434809
0.000470699
0.00051372
0.000609643
0.000703374
0.303312
0.191033
0.131226
0.0715303
0.021487
0.00542567
0.00479436
0.00504754
0.00495507
0.00502088
0.00539319
0.00596488
0.00689226
0.00782967
0.00806877
0.00720527
0.00543101
0.00373627
0.00261275
0.00182085
0.00126547
0.000921319
0.000719316
0.000601049
0.000531952
0.000492549
0.000469986
0.00045445
0.000439277
0.000421889
0.000403176
0.000385402
0.000370353
0.000358702
0.00035026
0.000344435
0.000340564
0.000338083
0.000336574
0.000335763
0.000335485
0.00033565
0.000336215
0.000337174
0.000338547
0.000340382
0.000342756
0.000345778
0.000349602
0.000354434
0.000360568
0.000368395
0.000378513
0.000391669
0.000409404
0.00043273
0.000468179
0.000510709
0.000605405
0.000697494
0.30204
0.182987
0.127525
0.0781821
0.0291002
0.00684371
0.00537196
0.00532486
0.00522983
0.0054093
0.00585886
0.00657649
0.00767569
0.00868363
0.00883525
0.00780896
0.0058343
0.00390548
0.00273442
0.00195497
0.00137481
0.000994939
0.000764576
0.000626688
0.000544066
0.000495688
0.000468171
0.000451103
0.000436595
0.000420594
0.000402985
0.000385746
0.000370806
0.000359062
0.000350475
0.000344521
0.000340558
0.000338016
0.000336468
0.000335631
0.000335332
0.000335479
0.000336028
0.000336971
0.000338328
0.000340146
0.000342501
0.000345501
0.000349296
0.000354095
0.000360185
0.000367956
0.000378004
0.00039107
0.00040869
0.000431873
0.000467115
0.000509407
0.000603089
0.000693692
0.300987
0.17663
0.123305
0.0827004
0.0365914
0.00925779
0.00603494
0.00571497
0.00558137
0.00585323
0.00640019
0.00730289
0.00858893
0.00963606
0.00964919
0.00843147
0.00626607
0.00410479
0.00284541
0.00205859
0.00146876
0.00106376
0.000809345
0.000653703
0.000558355
0.000500965
0.000467841
0.000448403
0.000433954
0.000419105
0.000402613
0.000385995
0.000371236
0.000359443
0.000350733
0.000344663
0.000340614
0.000338017
0.000336436
0.000335576
0.000335262
0.000335396
0.000335934
0.000336869
0.000338219
0.000340031
0.000342379
0.000345372
0.00034916
0.000353949
0.000360027
0.000367784
0.000377812
0.000390853
0.00040844
0.000431582
0.000466738
0.000508926
0.000601711
0.000690932
0.300109
0.171617
0.118923
0.0852603
0.043658
0.0127396
0.00676562
0.00620009
0.00600433
0.00635684
0.00702868
0.00815503
0.00963615
0.010681
0.0104979
0.0090569
0.00670703
0.00434115
0.0029611
0.00213894
0.00154478
0.00112461
0.000851432
0.000680556
0.000573814
0.00050789
0.000468909
0.00044646
0.000431477
0.000417481
0.000402064
0.000386129
0.000371616
0.000359811
0.000350998
0.000344819
0.000340688
0.000338039
0.000336426
0.000335547
0.000335219
0.000335343
0.000335874
0.000336803
0.00033815
0.00033996
0.000342307
0.0003453
0.000349089
0.00035388
0.00035996
0.00036772
0.000377752
0.000390798
0.000408391
0.00043154
0.000466671
0.000508822
0.000600778
0.000688694
0.299375
0.167673
0.114636
0.0861409
0.0499558
0.0172459
0.0075837
0.00677158
0.00649703
0.00692511
0.00775382
0.0091417
0.0108206
0.0118121
0.0113699
0.00967255
0.00713991
0.0046077
0.00309266
0.00220712
0.00160409
0.00117575
0.000889214
0.000705993
0.000589511
0.000515907
0.000471186
0.000445316
0.000429267
0.000415789
0.000401357
0.000386144
0.000371933
0.000360154
0.000351255
0.000344974
0.000340764
0.000338062
0.000336419
0.000335522
0.000335183
0.000335299
0.000335824
0.000336749
0.000338093
0.000339903
0.000342252
0.000345248
0.000349041
0.000353839
0.000359927
0.000367698
0.000377744
0.000390808
0.000408424
0.000431603
0.000466736
0.00050888
0.000600051
0.000686725
0.29876
0.164576
0.110609
0.0856701
0.0552075
0.0225227
0.00864207
0.00742441
0.00705984
0.00756272
0.00858286
0.0102698
0.0121442
0.0130215
0.0122544
0.0102689
0.00755211
0.00489199
0.00324325
0.00227329
0.00165071
0.001217
0.000921736
0.000729105
0.000604672
0.00052447
0.000474414
0.000444951
0.000427401
0.000414094
0.000400519
0.000386041
0.000372181
0.000360463
0.000351496
0.000345122
0.000340834
0.000338082
0.000336409
0.000335496
0.000335146
0.000335255
0.000335775
0.000336697
0.000338041
0.000339851
0.000342203
0.000345203
0.000349002
0.000353807
0.000359906
0.00036769
0.000377755
0.000390843
0.00040849
0.000431707
0.000466852
0.000508998
0.000599418
0.000684906
0.298242
0.162151
0.106941
0.0841836
0.0592413
0.0281988
0.0101379
0.00815501
0.00769397
0.00827317
0.00952045
0.0115438
0.013607
0.0142989
0.0131408
0.0108386
0.00793552
0.00518227
0.00340904
0.00234387
0.00168968
0.00124953
0.000948728
0.000749348
0.000618722
0.000533093
0.000478311
0.000445291
0.000425926
0.000412458
0.000399581
0.000385827
0.000372358
0.000360736
0.00035172
0.000345259
0.000340897
0.000338096
0.000336394
0.000335465
0.000335106
0.000335209
0.000335725
0.000336645
0.000337988
0.0003398
0.000342154
0.000345159
0.000348965
0.000353779
0.000359889
0.000367688
0.000377772
0.000390886
0.000408565
0.000431823
0.000466984
0.000509133
0.00059883
0.000683188
0.297805
0.160258
0.10368
0.0819958
0.0619978
0.0339358
0.0121661
0.00897262
0.00840025
0.0090581
0.0105681
0.0129653
0.015205
0.0156304
0.0140176
0.011376
0.00828542
0.00546956
0.00358274
0.00242108
0.00172551
0.00127535
0.000970522
0.000766521
0.00063129
0.000541388
0.000482596
0.00044623
0.00042486
0.000410933
0.000398574
0.00038551
0.000372463
0.000360971
0.000351925
0.000345386
0.000340952
0.000338102
0.000336372
0.000335429
0.000335062
0.00033516
0.000335672
0.000336591
0.000337934
0.000339748
0.000342106
0.000345116
0.000348928
0.00035375
0.000359872
0.000367686
0.00037779
0.00039093
0.000408641
0.00043194
0.000467116
0.000509265
0.000598268
0.000681547
0.297436
0.158788
0.100839
0.0793812
0.0635176
0.0393871
0.0147673
0.00990301
0.0091779
0.00991666
0.0117236
0.0145319
0.0169292
0.016998
0.014873
0.0118761
0.00859916
0.00574859
0.00375627
0.00250386
0.00176123
0.00129671
0.000987882
0.000780712
0.0006422
0.000549073
0.00048702
0.000447639
0.000424196
0.000409561
0.000397532
0.000385104
0.000372498
0.000361165
0.000352108
0.000345501
0.000340999
0.000338101
0.000336344
0.000335386
0.000335013
0.000335107
0.000335617
0.000336535
0.000337879
0.000339695
0.000342056
0.000345071
0.000348891
0.000353722
0.000359855
0.000367684
0.000377807
0.000390972
0.000408715
0.000432053
0.000467243
0.000509387
0.000597724
0.000679978
0.297123
0.157653
0.0984054
0.0765658
0.0639197
0.0442424
0.017932
0.0109688
0.0100295
0.0108451
0.0129802
0.0162356
0.0187634
0.0183796
0.0156946
0.0123347
0.00888649
0.00600507
0.00392221
0.00258931
0.00179822
0.00131554
0.00100178
0.00079222
0.000651433
0.000555974
0.000491377
0.000449388
0.000423904
0.00040837
0.000396487
0.000384623
0.000372465
0.000361318
0.00035227
0.000345603
0.000341037
0.000338092
0.000336309
0.000335338
0.000334959
0.00033505
0.000335559
0.000336477
0.000337822
0.00033964
0.000342006
0.000345026
0.000348852
0.000353692
0.000359837
0.00036768
0.000377822
0.000391013
0.000408786
0.000432162
0.000467363
0.000509497
0.000597196
0.000678475
0.296858
0.156782
0.0963517
0.073725
0.0633753
0.0482585
0.0215834
0.0122069
0.0109533
0.0118366
0.0143258
0.0180616
0.0206831
0.0197496
0.0164704
0.0127481
0.00915386
0.00623131
0.00407482
0.00267382
0.00183647
0.00133322
0.00101321
0.000801471
0.00065909
0.000562011
0.000495512
0.00045135
0.000423943
0.000407378
0.000395467
0.000384081
0.000372368
0.000361429
0.000352409
0.000345692
0.000341065
0.000338076
0.000336267
0.000335284
0.0003349
0.00033499
0.000335498
0.000336416
0.000337763
0.000339585
0.000341954
0.00034498
0.000348813
0.000353662
0.000359818
0.000367676
0.000377836
0.00039105
0.000408853
0.000432266
0.000467475
0.000509596
0.000596683
0.000677039
0.296632
0.156123
0.0946429
0.0709867
0.062083
0.0512775
0.0255845
0.0136609
0.0119524
0.0128767
0.0157419
0.0199862
0.0226527
0.0210784
0.0171888
0.0131134
0.00940358
0.00642551
0.00421
0.00275389
0.00187506
0.0013505
0.001023
0.000808934
0.000665352
0.000567178
0.00049932
0.000453414
0.000424259
0.000406593
0.000394497
0.000383495
0.000372211
0.0003615
0.000352524
0.000345767
0.000341085
0.000338053
0.000336218
0.000335225
0.000334837
0.000334925
0.000335435
0.000336354
0.000337703
0.000339528
0.000341902
0.000344933
0.000348774
0.000353631
0.000359798
0.00036767
0.000377848
0.000391086
0.000408917
0.000432364
0.000467579
0.000509683
0.000596187
0.000675668
0.29644
0.155631
0.09324
0.0684371
0.0602468
0.053232
0.0297495
0.015372
0.0130248
0.013963
0.0171987
0.021973
0.0246226
0.0223332
0.01784
0.013427
0.00963874
0.0065867
0.00432504
0.00282655
0.00191264
0.00136758
0.00103179
0.000815055
0.000670439
0.000571527
0.000502743
0.000455491
0.000424798
0.00040601
0.000393598
0.000382881
0.000372002
0.00036153
0.000352615
0.000345829
0.000341096
0.000338022
0.000336164
0.00033516
0.000334769
0.000334858
0.000335368
0.000336289
0.000337641
0.00033947
0.000341848
0.000344886
0.000348733
0.0003536
0.000359777
0.000367662
0.000377858
0.000391119
0.000408977
0.000432456
0.000467676
0.000509759
0.000595706
0.00067436
0.296275
0.155271
0.0921041
0.0661281
0.0580585
0.0541392
0.0338604
0.0173693
0.014171
0.015113
0.0186511
0.0239647
0.0265247
0.0234794
0.0184157
0.0137217
0.00983324
0.00671409
0.00441837
0.00288953
0.00194776
0.00138427
0.00103994
0.000820216
0.000674579
0.000575145
0.000505759
0.000457509
0.000425506
0.000405619
0.000392785
0.000382255
0.000371747
0.000361521
0.000352682
0.000345877
0.000341098
0.000337985
0.000336103
0.000335089
0.000334696
0.000334787
0.000335299
0.000336223
0.000337578
0.00033941
0.000341794
0.000344838
0.000348692
0.000353567
0.000359755
0.000367654
0.000377867
0.000391149
0.000409033
0.000432543
0.000467766
0.000509827
0.000595243
0.000673116
0.296134
0.155016
0.0911978
0.0640848
0.0556869
0.0540865
0.0376871
0.0196598
0.0153956
0.0163148
0.0201286
0.0258544
0.0282611
0.0244834
0.0189074
0.0140063
0.0099831
0.00680769
0.00448935
0.00294127
0.00197913
0.00140014
0.00104764
0.000824708
0.000677988
0.000578138
0.000508379
0.00045942
0.000426333
0.000405405
0.00039207
0.000381632
0.000371453
0.000361475
0.000352726
0.000345911
0.000341091
0.00033794
0.000336036
0.000335014
0.00033462
0.000334712
0.000335228
0.000336155
0.000337513
0.00033935
0.000341739
0.000344789
0.00034865
0.000353534
0.000359732
0.000367644
0.000377873
0.000391177
0.000409086
0.000432625
0.000467849
0.000509885
0.000594796
0.000671933
0.296013
0.154845
0.0904865
0.0623126
0.0532709
0.0532123
0.0410124
0.0222203
0.0167079
0.0175521
0.0216175
0.0276071
0.0296953
0.02534
0.0193705
0.0142336
0.0100876
0.00686809
0.00453803
0.00298086
0.00200569
0.00141471
0.0010549
0.000828734
0.000680852
0.00058062
0.000510633
0.000461193
0.000427235
0.000405348
0.000391459
0.000381024
0.000371129
0.000361396
0.000352746
0.00034593
0.000341074
0.000337889
0.000335964
0.000334933
0.000334539
0.000334634
0.000335154
0.000336085
0.000337447
0.000339289
0.000341683
0.000344739
0.000348608
0.0003535
0.000359709
0.000367633
0.000377878
0.000391202
0.000409135
0.000432702
0.000467926
0.000509935
0.000594366
0.00067081
0.295908
0.15474
0.0899394
0.0608028
0.0509178
0.0516849
0.0436558
0.0249935
0.0181206
0.0188061
0.0230851
0.0291809
0.0308592
0.0260456
0.0197425
0.0143957
0.0101467
0.00689629
0.00456496
0.00300795
0.00202669
0.00142749
0.00106164
0.000832416
0.000683322
0.000582698
0.000512563
0.000462816
0.000428177
0.000405427
0.000390954
0.000380443
0.000370783
0.000361285
0.000352742
0.000345936
0.000341049
0.000337832
0.000335887
0.000334848
0.000334454
0.000334553
0.000335077
0.000336013
0.00033738
0.000339227
0.000341627
0.000344689
0.000348565
0.000353466
0.000359684
0.000367622
0.000377882
0.000391225
0.00040918
0.000432773
0.000467996
0.000509978
0.000593953
0.000669745
0.295818
0.154687
0.0895294
0.0595378
0.0487045
0.0496832
0.0454936
0.0278882
0.0196462
0.0200579
0.0244946
0.0305471
0.0317731
0.0265799
0.0200072
0.0144907
0.0101612
0.00689361
0.00457111
0.00302262
0.0020417
0.00143807
0.00106773
0.000835813
0.000685513
0.000584469
0.000514221
0.000464288
0.00042913
0.000405622
0.000390555
0.000379899
0.000370422
0.000361146
0.000352717
0.000345927
0.000341015
0.000337768
0.000335804
0.000334758
0.000334365
0.000334469
0.000334998
0.000335939
0.000337312
0.000339164
0.00034157
0.000344638
0.000348522
0.000353431
0.000359659
0.000367609
0.000377884
0.000391245
0.000409223
0.00043284
0.000468061
0.000510014
0.000593558
0.000668739
0.295739
0.154674
0.089233
0.0584951
0.0466809
0.0473798
0.0464698
0.0307835
0.0212934
0.0212925
0.025808
0.0316855
0.0324402
0.0269297
0.0201595
0.014519
0.0101323
0.00686166
0.0045577
0.0030253
0.00205055
0.00144615
0.00107303
0.00083894
0.000687506
0.000586019
0.000515659
0.000465617
0.000430076
0.000405912
0.000390259
0.000379401
0.000370054
0.000360982
0.000352671
0.000345904
0.000340971
0.000337698
0.000335716
0.000334664
0.000334273
0.000334382
0.000334917
0.000335864
0.000337242
0.0003391
0.000341512
0.000344587
0.000348478
0.000353395
0.000359634
0.000367594
0.000377884
0.000391263
0.000409261
0.000432902
0.00046812
0.000510044
0.000593179
0.000667788
0.29567
0.154693
0.08903
0.0576498
0.0448746
0.0449291
0.0465974
0.0335377
0.0230611
0.0225005
0.0269893
0.0325795
0.0328559
0.0270885
0.0201996
0.0144821
0.010062
0.00680232
0.00452616
0.00301668
0.0020533
0.00145156
0.00107741
0.000841785
0.000689359
0.000587418
0.000516929
0.00046682
0.000431
0.000406279
0.000390061
0.000378953
0.000369686
0.000360799
0.000352605
0.000345868
0.00034092
0.000337622
0.000335624
0.000334567
0.000334178
0.000334292
0.000334834
0.000335787
0.000337172
0.000339036
0.000341454
0.000344536
0.000348434
0.000353359
0.000359607
0.000367579
0.000377883
0.000391279
0.000409297
0.000432959
0.000468173
0.000510069
0.000592818
0.000666894
0.29561
0.154736
0.0889032
0.0569767
0.0432952
0.04246
0.0459502
0.0360005
0.024934
0.0236801
0.0280095
0.0332151
0.0330147
0.0270572
0.0201315
0.0143833
0.00995271
0.00671762
0.00447804
0.00299765
0.00205021
0.00145424
0.00108077
0.000844327
0.000691107
0.000588721
0.000518078
0.000467918
0.000431896
0.000406707
0.000389954
0.00037856
0.000369325
0.000360599
0.000352521
0.000345819
0.00034086
0.00033754
0.000335527
0.000334465
0.000334079
0.0003342
0.000334749
0.000335709
0.0003371
0.000338971
0.000341395
0.000344484
0.00034839
0.000353323
0.00035958
0.000367563
0.00037788
0.000391293
0.000409329
0.000433011
0.000468221
0.000510088
0.000592474
0.000666053
0.295558
0.154796
0.0888382
0.0564516
0.04194
0.040073
0.0446479
0.0380279
0.0268783
0.0248356
0.0288508
0.0335831
0.0329154
0.0268442
0.0199634
0.0142268
0.00980719
0.00660974
0.004415
0.00296919
0.00204168
0.00145425
0.00108306
0.000846545
0.000692773
0.000589975
0.000519149
0.000468932
0.000432761
0.000407182
0.000389931
0.000378225
0.000368977
0.000360387
0.000352421
0.000345757
0.000340792
0.000337453
0.000335426
0.00033436
0.000333977
0.000334105
0.000334663
0.00033563
0.000337028
0.000338905
0.000341337
0.000344432
0.000348345
0.000353287
0.000359553
0.000367546
0.000377876
0.000391304
0.000409358
0.000433059
0.000468264
0.000510104
0.000592147
0.000665266
0.295511
0.15487
0.0888228
0.0560522
0.0407969
0.0378399
0.0428386
0.0394984
0.0288399
0.0259753
0.0295101
0.0336832
0.0325661
0.0264666
0.0197072
0.0140181
0.00962848
0.00648095
0.00433872
0.00293238
0.00202822
0.00145171
0.00108429
0.000848425
0.000694373
0.000591212
0.000520178
0.000469885
0.000433597
0.000407695
0.000389984
0.00037795
0.000368648
0.000360166
0.000352306
0.000345684
0.000340716
0.000337361
0.000335322
0.000334252
0.000333873
0.000334009
0.000334575
0.00033555
0.000336955
0.000338839
0.000341277
0.00034438
0.0003483
0.00035325
0.000359525
0.000367529
0.00037787
0.000391314
0.000409383
0.000433103
0.000468302
0.000510115
0.000591838
0.000664531
0.295471
0.154952
0.0888466
0.0557584
0.0398485
0.0358069
0.04068
0.0403282
0.0307449
0.0271069
0.0300003
0.0335295
0.0319887
0.0259503
0.0193776
0.0137632
0.00941971
0.00633353
0.00425089
0.00288834
0.00201041
0.00144685
0.00108449
0.000849967
0.000695917
0.000592461
0.000521197
0.0004708
0.000434408
0.000408235
0.000390105
0.000377735
0.000368342
0.000359941
0.000352178
0.000345599
0.000340632
0.000337264
0.000335214
0.000334141
0.000333767
0.00033391
0.000334485
0.000335469
0.000336882
0.000338773
0.000341218
0.000344328
0.000348255
0.000353213
0.000359496
0.00036751
0.000377863
0.000391321
0.000409406
0.000433142
0.000468336
0.000510123
0.000591545
0.000663849
0.295435
0.15504
0.088901
0.0555524
0.0390747
0.0339988
0.0383244
0.0404817
0.0325026
0.0282328
0.0303482
0.0331531
0.0312212
0.0253298
0.0189916
0.013468
0.00918397
0.00616976
0.00415321
0.00283819
0.00198887
0.00143992
0.00108374
0.000851188
0.000697417
0.000593742
0.000522233
0.000471698
0.000435202
0.000408799
0.000390288
0.000377578
0.000368063
0.000359716
0.00035204
0.000345505
0.000340541
0.000337162
0.000335103
0.000334028
0.000333658
0.00033381
0.000334394
0.000335387
0.000336808
0.000338707
0.000341159
0.000344276
0.00034821
0.000353175
0.000359467
0.000367491
0.000377855
0.000391326
0.000409426
0.000433177
0.000468366
0.000510128
0.000591271
0.000663217
0.295404
0.155131
0.0889787
0.0554187
0.038454
0.032423
0.0359064
0.039975
0.0340121
0.029345
0.0305906
0.032603
0.030318
0.0246462
0.0185659
0.0131378
0.00892416
0.00599185
0.00404732
0.00278306
0.00196426
0.00143124
0.00108215
0.000852118
0.000698889
0.000595074
0.000523306
0.000472597
0.000435985
0.00040938
0.000390525
0.000377479
0.000367813
0.000359494
0.000351893
0.000345401
0.000340444
0.000337056
0.000334989
0.000333913
0.000333548
0.000333709
0.000334302
0.000335304
0.000336734
0.00033864
0.0003411
0.000344224
0.000348165
0.000353138
0.000359438
0.00036747
0.000377845
0.000391329
0.000409442
0.000433208
0.000468391
0.000510131
0.000591013
0.000662636
0.295376
0.155224
0.0890737
0.0553441
0.0379659
0.0310744
0.033536
0.038873
0.0351719
0.0304215
0.0307673
0.0319415
0.0293457
0.0239429
0.0181155
0.0127768
0.00864288
0.00580195
0.00393486
0.00272405
0.00193724
0.00142113
0.00107985
0.000852802
0.000700348
0.00059647
0.000524436
0.000473514
0.000436766
0.000409977
0.00039081
0.000377435
0.000367597
0.000359278
0.00035174
0.000345289
0.00034034
0.000336946
0.000334872
0.000333796
0.000333436
0.000333606
0.00033421
0.000335221
0.00033666
0.000338574
0.000341041
0.000344172
0.000348121
0.0003531
0.000359408
0.000367449
0.000377834
0.00039133
0.000409456
0.000433235
0.000468412
0.00051013
0.000590773
0.000662105
0.295352
0.155316
0.0891809
0.055317
0.0375907
0.0299394
0.0312962
0.037279
0.0358912
0.0314236
0.0309138
0.0312375
0.0283755
0.0232602
0.0176511
0.0123877
0.00834243
0.00560218
0.00381744
0.00266225
0.00190846
0.00140994
0.00107699
0.000853293
0.000701814
0.000597943
0.000525635
0.000474462
0.000437552
0.000410588
0.000391137
0.000377444
0.000367415
0.000359072
0.000351583
0.00034517
0.000340231
0.000336833
0.000334754
0.000333677
0.000333323
0.000333502
0.000334116
0.000335138
0.000336585
0.000338507
0.000340982
0.00034412
0.000348076
0.000353063
0.000359378
0.000367428
0.000377822
0.000391328
0.000409467
0.000433258
0.000468429
0.000510128
0.000590551
0.000661624
0.29533
0.155407
0.0892961
0.0553277
0.0373107
0.0289991
0.0292428
0.0353205
0.0361028
0.0322958
0.0310539
0.0305563
0.0274737
0.0226291
0.017177
0.0119711
0.00802485
0.00539462
0.00369663
0.00259872
0.00187855
0.001398
0.00107373
0.000853654
0.000703309
0.000599504
0.000526914
0.000475453
0.000438351
0.000411214
0.000391503
0.000377502
0.000367268
0.000358878
0.000351424
0.000345045
0.000340117
0.000336716
0.000334633
0.000333557
0.000333209
0.000333398
0.000334022
0.000335054
0.000336511
0.000338441
0.000340923
0.000344069
0.000348032
0.000353026
0.000359348
0.000367406
0.000377809
0.000391326
0.000409474
0.000433277
0.000468443
0.000510124
0.000590345
0.000661191
0.295311
0.155495
0.0894161
0.055368
0.03711
0.0282322
0.0274082
0.0331338
0.0357741
0.0329689
0.0311937
0.0299495
0.0266909
0.0220651
0.01669
0.0115264
0.00769208
0.0051814
0.00357403
0.00253449
0.00184813
0.00138565
0.00107023
0.000853952
0.000704856
0.00060116
0.00052828
0.000476497
0.000439169
0.000411854
0.000391902
0.000377608
0.000367158
0.0003587
0.000351265
0.000344916
0.000339998
0.000336596
0.000334511
0.000333436
0.000333095
0.000333293
0.000333928
0.000334971
0.000336437
0.000338375
0.000340865
0.000344018
0.000347988
0.000352988
0.000359318
0.000367383
0.000377795
0.000391321
0.00040948
0.000433292
0.000468454
0.000510118
0.000590157
0.000660807
0.295294
0.15558
0.0895381
0.0554308
0.0369746
0.0276166
0.0258051
0.0308489
0.0349142
0.0333657
0.0313174
0.0294467
0.026054
0.0215644
0.0161791
0.0110516
0.00734622
0.00496475
0.00345123
0.00247052
0.00181777
0.0013732
0.00106665
0.000854252
0.000706476
0.000602919
0.000529739
0.000477599
0.000440013
0.000412509
0.000392331
0.000377757
0.000367084
0.000358538
0.000351109
0.000344783
0.000339876
0.000336474
0.000334387
0.000333315
0.00033298
0.000333188
0.000333834
0.000334887
0.000336363
0.00033831
0.000340807
0.000343967
0.000347944
0.000352951
0.000359288
0.00036736
0.000377779
0.000391314
0.000409482
0.000433304
0.000468461
0.000510112
0.000589987
0.000660472
0.29528
0.155662
0.0896601
0.0555104
0.0368925
0.027131
0.0244316
0.0285793
0.0335745
0.0334113
0.0313853
0.0290491
0.0255598
0.0211021
0.0156273
0.010545
0.00698981
0.00474709
0.0033298
0.00240777
0.001788
0.00136095
0.00106313
0.000854614
0.00070819
0.000604785