/*--------------------------------*- C++ -*----------------------------------*\
| =========                 |                                                 |
| \\      /  F ield         | OpenFOAM: The Open Source CFD Toolbox           |
|  \\    /   O peration     | Version:  2.4.0                                 |
|   \\  /    A nd           | Web:      www.OpenFOAM.org                      |
|    \\/     M anipulation  |                                                 |
\*---------------------------------------------------------------------------*/
FoamFile
{
    version     2.0;
    format      ascii;
    class       volScalarField;
    location    "4.64";
    object      p;
}
// * * * * * * * * * * * * * * * * * * * * * * * * * * * * * * * * * * * * * //

dimensions      [0 2 -2 0 0 0 0];

internalField   nonuniform List<scalar> 
6000
(
-0.128756
0.228073
0.18534
0.205225
0.197839
0.202664
0.199646
0.201661
0.200349
0.201056
0.200326
0.200387
0.199988
0.200083
0.200291
0.200915
0.201637
0.202391
0.20314
0.203832
0.20418
0.204434
0.205067
0.206204
0.207847
0.209971
0.212547
0.215544
0.218925
0.222643
0.226651
0.230893
0.235311
0.239852
0.244461
0.249094
0.25371
0.258282
0.262784
0.267217
0.27155
0.275829
0.279974
0.284129
0.288033
0.2921
0.295552
0.299471
0.301916
0.305454
0.30543
0.308413
0.302233
0.305288
0.283875
0.291763
0.231629
0.265362
0.0985816
0.234353
-0.102416
0.224658
0.185414
0.205073
0.197859
0.202649
0.199657
0.20166
0.200367
0.201077
0.200357
0.200417
0.200009
0.200084
0.200262
0.200856
0.201573
0.20236
0.203178
0.203924
0.204283
0.204507
0.205104
0.206217
0.207838
0.209945
0.212506
0.215489
0.218851
0.222564
0.226566
0.230801
0.235214
0.239749
0.244352
0.248978
0.253586
0.258149
0.26264
0.267059
0.271376
0.275635
0.279758
0.283885
0.287757
0.291785
0.295195
0.299058
0.301458
0.304919
0.304838
0.307698
0.301459
0.304301
0.282854
0.29034
0.230272
0.263163
0.0969884
0.230636
-0.0855283
0.221204
0.185442
0.204981
0.197868
0.202643
0.199663
0.201668
0.200384
0.201107
0.200392
0.200458
0.20004
0.200095
0.200241
0.200807
0.201516
0.202344
0.203232
0.204033
0.204408
0.204612
0.205178
0.206262
0.207861
0.209948
0.21249
0.215457
0.21881
0.222501
0.226485
0.230705
0.235103
0.239623
0.244211
0.248822
0.253413
0.257958
0.262428
0.266823
0.271113
0.275343
0.279429
0.283518
0.287341
0.29132
0.294665
0.298465
0.300787
0.304171
0.303989
0.306752
0.300378
0.303099
0.281481
0.288801
0.228551
0.261114
0.0946751
0.22746
-0.0733053
0.217351
0.185653
0.204897
0.197867
0.202637
0.199667
0.201678
0.2004
0.201139
0.200426
0.2005
0.20007
0.200108
0.200223
0.200763
0.201468
0.202334
0.203283
0.20413
0.204515
0.204704
0.205247
0.206307
0.207884
0.209951
0.212475
0.215423
0.21876
0.222435
0.226403
0.230607
0.23499
0.239495
0.244067
0.248661
0.253233
0.257758
0.262205
0.266576
0.270836
0.275034
0.279082
0.28313
0.286903
0.290831
0.294108
0.297845
0.300077
0.303385
0.30308
0.305757
0.299207
0.301842
0.279965
0.287222
0.22658
0.259096
0.0919588
0.224539
-0.0614978
0.213225
0.186035
0.204815
0.197865
0.202628
0.199671
0.201688
0.200414
0.201168
0.200456
0.200537
0.200096
0.20012
0.200208
0.200726
0.201429
0.202327
0.203324
0.204204
0.204594
0.204775
0.205301
0.206342
0.2079
0.209949
0.212455
0.215388
0.218708
0.222371
0.226325
0.230515
0.234885
0.239376
0.243934
0.248512
0.253068
0.257575
0.262001
0.266348
0.27058
0.274747
0.278758
0.282768
0.286492
0.290372
0.293586
0.297262
0.299406
0.30264
0.302211
0.304805
0.298071
0.300628
0.278464
0.285683
0.224572
0.257129
0.0891848
0.221838
-0.0499128
0.208988
0.186544
0.20472
0.197872
0.202616
0.199675
0.201696
0.200425
0.201193
0.20048
0.200569
0.200118
0.200131
0.200195
0.200696
0.201398
0.202322
0.203355
0.204258
0.204653
0.204829
0.205344
0.20637
0.20791
0.209942
0.212434
0.215352
0.218659
0.222309
0.226251
0.230431
0.234789
0.239268
0.243814
0.248379
0.25292
0.25741
0.261816
0.266141
0.270347
0.274485
0.278461
0.282435
0.286114
0.289948
0.293103
0.29672
0.298779
0.301941
0.301394
0.303907
0.296993
0.299473
0.277024
0.284204
0.222617
0.255222
0.0864992
0.21933
-0.0391719
0.204741
0.187083
0.204596
0.197891
0.202599
0.199679
0.201703
0.200435
0.201215
0.200502
0.200596
0.200137
0.20014
0.200184
0.200671
0.201372
0.202318
0.203378
0.204298
0.204696
0.204873
0.20538
0.206392
0.207917
0.209934
0.212412
0.215318
0.218613
0.222252
0.226184
0.230354
0.234702
0.239172
0.243707
0.24826
0.252787
0.257261
0.261648
0.265952
0.270133
0.274244
0.278187
0.282125
0.285761
0.28955
0.292649
0.296209
0.298188
0.301282
0.30062
0.303055
0.295967
0.298372
0.275644
0.282786
0.220734
0.253382
0.0839425
0.217006
-0.0293319
0.200556
0.187581
0.204453
0.197918
0.202579
0.199685
0.201708
0.200445
0.201234
0.20052
0.20062
0.200154
0.200148
0.200174
0.200649
0.20135
0.202314
0.203394
0.204327
0.204729
0.204908
0.205411
0.20641
0.207922
0.209926
0.21239
0.215285
0.21857
0.2222
0.226123
0.230285
0.234625
0.239086
0.243612
0.248154
0.252668
0.257127
0.261496
0.265779
0.269936
0.27402
0.277931
0.281835
0.28543
0.289175
0.29222
0.295726
0.297628
0.300655
0.299883
0.302243
0.294988
0.297321
0.274322
0.281425
0.218924
0.251611
0.0815207
0.214851
-0.0201629
0.196495
0.187989
0.204307
0.197938
0.202561
0.199691
0.201712
0.200454
0.201251
0.200537
0.200642
0.200168
0.200155
0.200165
0.200629
0.201331
0.20231
0.203406
0.204348
0.204753
0.204938
0.205437
0.206427
0.207926
0.209917
0.21237
0.215254
0.21853
0.222152
0.226069
0.230224
0.234557
0.239011
0.243528
0.24806
0.252562
0.257006
0.261358
0.265622
0.269754
0.273813
0.277692
0.281563
0.285118
0.28882
0.291814
0.295267
0.297096
0.300059
0.299181
0.30147
0.294051
0.296315
0.273056
0.28012
0.217187
0.249906
0.0792345
0.212845
-0.0115102
0.1926
0.188283
0.204158
0.197955
0.202544
0.199699
0.201715
0.200463
0.201266
0.200552
0.200662
0.200181
0.200161
0.200156
0.200611
0.201313
0.202305
0.203413
0.204361
0.204771
0.204962
0.205461
0.206441
0.207929
0.209908
0.212351
0.215226
0.218494
0.22211
0.22602
0.23017
0.234498
0.238945
0.243455
0.247978
0.252468
0.256899
0.261234
0.265478
0.269587
0.27362
0.277469
0.281308
0.284824
0.288484
0.291429
0.29483
0.296588
0.29949
0.29851
0.30073
0.293156
0.295353
0.271842
0.278865
0.215523
0.248262
0.0770831
0.210968
-0.00332129
0.188891
0.188459
0.203988
0.197992
0.202529
0.19971
0.201717
0.200473
0.20128
0.200567
0.20068
0.200193
0.200166
0.200148
0.200595
0.201297
0.2023
0.203417
0.204368
0.204783
0.204983
0.205482
0.206455
0.207932
0.209901
0.212334
0.215201
0.218463
0.222072
0.225978
0.230123
0.234447
0.238889
0.243392
0.247907
0.252386
0.256804
0.261123
0.265348
0.269434
0.273442
0.277261
0.281067
0.284545
0.288165
0.291062
0.294412
0.296104
0.298946
0.297869
0.300022
0.292299
0.294429
0.270679
0.277657
0.213929
0.246674
0.075064
0.209201
0.00443264
0.185383
0.188519
0.203794
0.19806
0.202513
0.199725
0.201719
0.200483
0.201294
0.200581
0.200696
0.200203
0.200171
0.20014
0.200579
0.201282
0.202295
0.203418
0.20437
0.204791
0.205001
0.205502
0.206468
0.207935
0.209895
0.212319
0.215179
0.218435
0.22204
0.225943
0.230085
0.234404
0.238842
0.243339
0.247847
0.252316
0.256721
0.261023
0.26523
0.269294
0.273276
0.277066
0.28084
0.284281
0.287861
0.290711
0.294013
0.295639
0.298424
0.297253
0.299341
0.291476
0.293539
0.269562
0.276491
0.212403
0.245138
0.0731728
0.207529
0.0117867
0.182087
0.188472
0.203566
0.19816
0.202491
0.199746
0.201722
0.200494
0.201307
0.200594
0.200712
0.200214
0.200175
0.200133
0.200565
0.201267
0.20229
0.203417
0.204369
0.204796
0.205017
0.205521
0.206481
0.20794
0.20989
0.212307
0.215161
0.218411
0.222013
0.225913
0.230053
0.23437
0.238805
0.243297
0.247797
0.252257
0.256649
0.260935
0.265123
0.269165
0.273122
0.276883
0.280626
0.28403
0.287571
0.290375
0.293628
0.295193
0.297921
0.296661
0.298685
0.290684
0.292681
0.268489
0.275362
0.210942
0.243647
0.0714044
0.205938
0.018776
0.179007
0.188326
0.203298
0.198293
0.202454
0.199772
0.201726
0.200507
0.20132
0.200608
0.200727
0.200224
0.200179
0.200126
0.20055
0.201253
0.202284
0.203414
0.204366
0.204799
0.205032
0.205539
0.206494
0.207945
0.209887
0.212297
0.215146
0.218392
0.221992
0.22589
0.230029
0.234345
0.238776
0.243264
0.247757
0.252207
0.256587
0.260858
0.265028
0.269047
0.272979
0.276711
0.280422
0.283791
0.287292
0.290052
0.293258
0.294762
0.297435
0.29609
0.298051
0.289921
0.29185
0.267456
0.274267
0.209543
0.242199
0.0697535
0.204414
0.0254282
0.176145
0.188092
0.202988
0.19844
0.202414
0.199802
0.201733
0.200523
0.201333
0.200623
0.200742
0.200234
0.200183
0.200119
0.200537
0.201239
0.202277
0.203411
0.20436
0.2048
0.205045
0.205557
0.206508
0.207952
0.209887
0.21229
0.215134
0.218378
0.221976
0.225874
0.230012
0.234327
0.238757
0.24324
0.247727
0.252168
0.256536
0.260792
0.264942
0.268939
0.272846
0.276549
0.280229
0.283562
0.287025
0.289741
0.2929
0.294346
0.296965
0.295537
0.297436
0.289184
0.291044
0.266462
0.273202
0.208203
0.240788
0.0682148
0.202946
0.031765
0.173501
0.187783
0.202633
0.198588
0.202381
0.19983
0.201744
0.200541
0.201348
0.200639
0.200757
0.200244
0.200187
0.200113
0.200524
0.201225
0.20227
0.203406
0.204354
0.204801
0.205059
0.205576
0.206524
0.207961
0.209889
0.212287
0.215127
0.218369
0.221966
0.225864
0.230003
0.234318
0.238746
0.243226
0.247707
0.252139
0.256495
0.260735
0.264866
0.268841
0.272723
0.276396
0.280045
0.283342
0.286767
0.28944
0.292552
0.293943
0.296507
0.295001
0.296838
0.28847
0.29026
0.265502
0.272163
0.206919
0.239411
0.066783
0.201525
0.0378051
0.17107
0.187412
0.202237
0.198728
0.202355
0.199859
0.201759
0.200564
0.201364
0.200657
0.200773
0.200255
0.200191
0.200107
0.200511
0.201211
0.202263
0.203401
0.204348
0.204802
0.205073
0.205595
0.20654
0.207972
0.209893
0.212287
0.215123
0.218364
0.221962
0.225861
0.230001
0.234316
0.238744
0.243221
0.247697
0.25212
0.256463
0.260687
0.2648
0.268752
0.272608
0.276253
0.27987
0.283132
0.286518
0.289149
0.292215
0.293551
0.296062
0.29448
0.296255
0.287778
0.289494
0.264574
0.271149
0.205689
0.238064
0.0654531
0.200141
0.0435649
0.168847
0.186991
0.201803
0.198854
0.202337
0.19989
0.201779
0.200592
0.201383
0.200677
0.20079
0.200267
0.200197
0.200103
0.200499
0.201198
0.202256
0.203396
0.204342
0.204804
0.205088
0.205615
0.206559
0.207985
0.209901
0.21229
0.215125
0.218365
0.221963
0.225864
0.230006
0.234323
0.23875
0.243225
0.247695
0.25211
0.256441
0.260649
0.264743
0.268672
0.272503
0.276118
0.279703
0.282929
0.286277
0.288866
0.291886
0.293169
0.295627
0.293973
0.295685
0.287105
0.288747
0.263677
0.270156
0.20451
0.236744
0.0642205
0.198787
0.0490593
0.166825
0.186533
0.201336
0.198963
0.202325
0.199933
0.201798
0.200625
0.201405
0.2007
0.200808
0.200281
0.200204
0.2001
0.200488
0.201185
0.202248
0.203392
0.204336
0.204807
0.205104
0.205638
0.20658
0.208001
0.209913
0.212298
0.21513
0.218371
0.221971
0.225875
0.230019
0.234338
0.238766
0.243238
0.247703
0.252109
0.256428
0.26062
0.264694
0.2686
0.272405
0.275991
0.279543
0.282735
0.286043
0.288591
0.291565
0.292796
0.295201
0.293478
0.295127
0.286451
0.288014
0.262809
0.269182
0.20338
0.235448
0.0630806
0.197456
0.0543021
0.164996
0.186049
0.200843
0.199049
0.202314
0.199995
0.201812
0.200665
0.201431
0.200727
0.200829
0.200298
0.200212
0.200098
0.200479
0.201172
0.20224
0.203387
0.204333
0.204812
0.205122
0.205662
0.206603
0.208021
0.209928
0.21231
0.215141
0.218382
0.221985
0.225892
0.23004
0.234362
0.23879
0.243261
0.24772
0.252118
0.256424
0.2606
0.264654
0.268537
0.272315
0.275871
0.279391
0.282547
0.285817
0.288323
0.291251
0.292433
0.294784
0.292995
0.29458
0.285814
0.287295
0.261967
0.268225
0.202297
0.234174
0.0620293
0.19614
0.0593055
0.163353
0.18555
0.200331
0.19911
0.202301
0.200074
0.201825
0.200709
0.201463
0.200759
0.200853
0.200317
0.200223
0.200099
0.200471
0.201161
0.202233
0.203383
0.204331
0.204819
0.205143
0.205689
0.206629
0.208044
0.209947
0.212327
0.215157
0.2184
0.222006
0.225917
0.230069
0.234394
0.238823
0.243292
0.247747
0.252135
0.25643
0.260589
0.264623
0.268482
0.272233
0.275759
0.279246
0.282367
0.285597
0.288063
0.290944
0.292076
0.294375
0.292522
0.294043
0.285192
0.286589
0.261151
0.267283
0.201258
0.232918
0.0610628
0.194836
0.0640814
0.161885
0.185044
0.199805
0.199144
0.202284
0.200166
0.201838
0.200759
0.2015
0.200796
0.200881
0.20034
0.200236
0.200103
0.200465
0.201151
0.202225
0.20338
0.204331
0.20483
0.205167
0.205719
0.206659
0.20807
0.20997
0.212348
0.215179
0.218424
0.222034
0.22595
0.230107
0.234434
0.238865
0.243333
0.247783
0.252163
0.256444
0.260587
0.2646
0.268435
0.272159
0.275654
0.279108
0.282193
0.285383
0.287808
0.290644
0.291728
0.293972
0.292059
0.293514
0.284584
0.285893
0.260358
0.266354
0.200262
0.231678
0.0601772
0.193538
0.0686407
0.160584
0.18454
0.199271
0.199153
0.20226
0.200271
0.201857
0.200809
0.201543
0.20084
0.200914
0.200367
0.200253
0.20011
0.200462
0.201143
0.202219
0.203377
0.204333
0.204844
0.205195
0.205752
0.206693
0.208101
0.209998
0.212375
0.215207
0.218454
0.222069
0.22599
0.230152
0.234484
0.238916
0.243383
0.247828
0.252199
0.256468
0.260593
0.264586
0.268396
0.272092
0.275557
0.278976
0.282026
0.285176
0.287561
0.290349
0.291386
0.293576
0.291604
0.292993
0.28399
0.285207
0.259588
0.265438
0.199308
0.230453
0.0593693
0.192242
0.0729939
0.15944
0.184044
0.198737
0.199137
0.202229
0.200383
0.201885
0.200862
0.201589
0.200892
0.200953
0.2004
0.200275
0.200121
0.200463
0.201137
0.202213
0.203375
0.204338
0.204862
0.205226
0.20579
0.206731
0.208137
0.210032
0.212408
0.215241
0.218492
0.222111
0.226039
0.230206
0.234542
0.238977
0.243443
0.247883
0.252245
0.2565
0.260609
0.26458
0.268365
0.272032
0.275466
0.278851
0.281865
0.284975
0.287319
0.29006
0.291051
0.293187
0.291158
0.292479
0.283409
0.28453
0.25884
0.264532
0.198394
0.229241
0.0586357
0.190944
0.077151
0.158444
0.183563
0.198207
0.199098
0.202189
0.200503
0.201922
0.200921
0.201638
0.200951
0.200999
0.200439
0.200302
0.200137
0.200467
0.201134
0.202209
0.203375
0.204344
0.204884
0.205262
0.205833
0.206774
0.208178
0.210071
0.212446
0.215281
0.218536
0.222162
0.226096
0.23027
0.23461
0.239047
0.243512
0.247948
0.2523
0.256542
0.260633
0.264582
0.268342
0.27198
0.275383
0.278733
0.28171
0.284779
0.287083
0.289777
0.290722
0.292802
0.29072
0.291972
0.282839
0.283861
0.258112
0.263636
0.197518
0.22804
0.0579737
0.189641
0.0811217
0.157585
0.183101
0.197686
0.19904
0.202141
0.200626
0.201966
0.200989
0.201688
0.201016
0.201051
0.200485
0.200335
0.200159
0.200477
0.201135
0.202207
0.203376
0.204354
0.20491
0.205303
0.20588
0.206823
0.208225
0.210116
0.212492
0.215329
0.218589
0.222221
0.226161
0.230342
0.234688
0.239128
0.243591
0.248022
0.252366
0.256594
0.260666
0.264593
0.268327
0.271936
0.275306
0.278621
0.281562
0.28459
0.286853
0.289499
0.290399
0.292424
0.29029
0.29147
0.282282
0.2832
0.257403
0.262749
0.196679
0.226849
0.0573803
0.188329
0.0849152
0.156856
0.182662
0.197179
0.198965
0.202086
0.200751
0.202018
0.201069
0.201741
0.201087
0.201111
0.20054
0.200375
0.200188
0.200493
0.20114
0.202208
0.203379
0.204366
0.20494
0.20535
0.205934
0.206877
0.208279
0.210168
0.212544
0.215384
0.218649
0.222288
0.226236
0.230424
0.234775
0.239218
0.243681
0.248106
0.252441
0.256654
0.260708
0.264613
0.26832
0.271899
0.275237
0.278516
0.28142
0.284406
0.286629
0.289226
0.290083
0.292051
0.289868
0.290975
0.281735
0.282545
0.256714
0.261869
0.195876
0.225666
0.056853
0.187007
0.0885404
0.156247
0.182248
0.196688
0.198877
0.202025
0.200876
0.202078
0.201162
0.201797
0.201162
0.201179
0.200603
0.200424
0.200226
0.200515
0.201151
0.202213
0.203384
0.204381
0.204974
0.205401
0.205993
0.206938
0.208339
0.210228
0.212605
0.215448
0.218719
0.222364
0.226321
0.230516
0.234873
0.239318
0.24378
0.248201
0.252525
0.256725
0.26076
0.264641
0.268322
0.27187
0.275175
0.278418
0.281285
0.284228
0.286411
0.28896
0.289772
0.291683
0.289452
0.290485
0.281199
0.281897
0.256043
0.260997
0.195108
0.22449
0.0563894
0.185671
0.0920058
0.155749
0.181862
0.196218
0.19878
0.20196
0.201
0.202144
0.201267
0.20186
0.201242
0.201252
0.200675
0.200482
0.200272
0.200546
0.20117
0.202222
0.203392
0.204399
0.205012
0.205458
0.206059
0.207006
0.208407
0.210295
0.212673
0.21552
0.218797
0.222451
0.226415
0.230618
0.234981
0.23943
0.243891
0.248306
0.252621
0.256805
0.260821
0.264678
0.268332
0.271849
0.275121
0.278327
0.281156
0.284057
0.286199
0.288698
0.289468
0.29132
0.289044
0.290001
0.280673
0.281254
0.25539
0.260131
0.194374
0.223321
0.055987
0.18432
0.0953196
0.155354
0.181504
0.19577
0.198677
0.201893
0.201121
0.202216
0.201384
0.201931
0.201327
0.201332
0.200756
0.200549
0.200328
0.200586
0.201196
0.202237
0.203404
0.20442
0.205054
0.205519
0.206131
0.207082
0.208482
0.210371
0.21275
0.215601
0.218885
0.222547
0.22652
0.230731
0.2351
0.239552
0.244012
0.248422
0.252726
0.256895
0.260891
0.264724
0.26835
0.271836
0.275074
0.278242
0.281034
0.283891
0.285993
0.288442
0.28917
0.290962
0.288643
0.289522
0.280157
0.280618
0.254754
0.259272
0.193673
0.222156
0.0556439
0.182951
0.0984896
0.155055
0.181176
0.195347
0.198571
0.201827
0.201241
0.202294
0.201512
0.202011
0.201419
0.201416
0.200846
0.200627
0.200395
0.200637
0.201231
0.202259
0.203421
0.204445
0.2051
0.205586
0.20621
0.207165
0.208566
0.210455
0.212837
0.215693
0.218983
0.222653
0.226636
0.230855
0.235231
0.239685
0.244145
0.248549
0.252842
0.256996
0.260971
0.26478
0.268377
0.271831
0.275035
0.278165
0.280919
0.283733
0.285794
0.288192
0.288878
0.29061
0.288249
0.289048
0.279651
0.279986
0.254135
0.258418
0.193003
0.220996
0.0553579
0.181565
0.101523
0.154843
0.180878
0.194949
0.198466
0.201763
0.20136
0.202377
0.201652
0.202103
0.20152
0.201506
0.200944
0.200716
0.200474
0.200699
0.201278
0.20229
0.203444
0.204474
0.20515
0.205658
0.206295
0.207256
0.208659
0.210549
0.212933
0.215794
0.219092
0.222771
0.226763
0.230991
0.235373
0.239831
0.244289
0.248687
0.252969
0.257107
0.261061
0.264845
0.268413
0.271835
0.275004
0.278096
0.280811
0.28358
0.285601
0.287949
0.288592
0.290264
0.287862
0.28858
0.279155
0.27936
0.253531
0.257569
0.192365
0.219839
0.0551272
0.180158
0.104427
0.154713
0.18061
0.194578
0.198364
0.201705
0.201478
0.202466
0.201802
0.202206
0.201631
0.201603
0.20105
0.200814
0.200565
0.200774
0.201335
0.202331
0.203475
0.204509
0.205204
0.205735
0.206388
0.207356
0.208762
0.210653
0.21304
0.215906
0.219212
0.2229
0.226902
0.231138
0.235527
0.239988
0.244445
0.248837
0.253107
0.257228
0.261162
0.264919
0.268458
0.271847
0.274981
0.278034
0.280711
0.283435
0.285415
0.287711
0.288314
0.289923
0.287483
0.288117
0.278669
0.27874
0.252944
0.256725
0.191758
0.218685
0.05495
0.17873
0.107208
0.154656
0.180373
0.194233
0.198267
0.201652
0.201598
0.202561
0.201962
0.202322
0.201755
0.201707
0.201164
0.200923
0.200668
0.200862
0.201406
0.202382
0.203514
0.204549
0.205262
0.205817
0.206487
0.207464
0.208873
0.210767
0.213158
0.21603
0.219343
0.223041
0.227053
0.231298
0.235693
0.240157
0.244612
0.248998
0.253257
0.257361
0.261272
0.265003
0.268513
0.271868
0.274967
0.27798
0.280618
0.283297
0.285236
0.28748
0.288042
0.289588
0.287111
0.287659
0.278193
0.278124
0.252373
0.255886
0.19118
0.217533
0.0548245
0.17728
0.109873
0.154668
0.180164
0.193916
0.198177
0.201609
0.20172
0.202663
0.20213
0.20245
0.201892
0.201821
0.201286
0.201042
0.200785
0.200964
0.201491
0.202446
0.203562
0.204595
0.205325
0.205904
0.206592
0.20758
0.208995
0.210892
0.213287
0.216166
0.219487
0.223195
0.227217
0.231471
0.235873
0.240339
0.244793
0.249171
0.253418
0.257504
0.261394
0.265098
0.268577
0.271898
0.274961
0.277934
0.280533
0.283167
0.285065
0.287256
0.287777
0.28926
0.286747
0.287208
0.277726
0.277513
0.251817
0.255051
0.190631
0.216383
0.0547492
0.175807
0.112427
0.154743
0.179985
0.193626
0.198096
0.201574
0.201846
0.202774
0.202306
0.202591
0.202044
0.201947
0.201418
0.201171
0.200914
0.201081
0.201591
0.202523
0.203622
0.20465
0.205395
0.205997
0.206704
0.207705
0.209126
0.211028
0.213428
0.216313
0.219644
0.223362
0.227394
0.231657
0.236065
0.240534
0.244986
0.249357
0.253591
0.257659
0.261526
0.265202
0.268651
0.271937
0.274964
0.277897
0.280456
0.283044
0.284901
0.287039
0.28752
0.288938
0.286391
0.286762
0.277269
0.276908
0.251276
0.25422
0.19011
0.215235
0.0547225
0.174311
0.114876
0.154874
0.179834
0.193362
0.198024
0.201551
0.201977
0.202895
0.202492
0.202745
0.202211
0.202086
0.201561
0.20131
0.201055
0.201212
0.201705
0.202615
0.203693
0.204714
0.20547
0.206095
0.206823
0.207837
0.209267
0.211175
0.213581
0.216474
0.219814
0.223542
0.227584
0.231857
0.236271
0.240743
0.245192
0.249555
0.253776
0.257826
0.261669
0.265317
0.268735
0.271986
0.274976
0.277869
0.280388
0.282929
0.284745
0.286829
0.287271
0.288622
0.286042
0.286322
0.276821
0.276308
0.250751
0.253394
0.189617
0.214087
0.054743
0.172791
0.117226
0.155057
0.179711
0.193125
0.197964
0.201539
0.202113
0.203027
0.202687
0.202911
0.202393
0.202241
0.201718
0.20146
0.201209
0.201357
0.201836
0.202722
0.203778
0.204789
0.205554
0.206199
0.206948
0.207978
0.209418
0.211333
0.213747
0.216648
0.219997
0.223736
0.227789
0.232071
0.236491
0.240965
0.245411
0.249766
0.253973
0.258004
0.261823
0.265443
0.268829
0.272044
0.274998
0.27785
0.280329
0.282823
0.284598
0.286627
0.287029
0.288314
0.285703
0.285888
0.276384
0.275713
0.25024
0.252572
0.189151
0.21294
0.0548093
0.171246
0.11948
0.155287
0.179614
0.192914
0.197915
0.201539
0.202256
0.203171
0.202892
0.20309
0.202591
0.202412
0.201888
0.201623
0.201376
0.201517
0.201983
0.202845
0.203878
0.204875
0.205646
0.20631
0.20708
0.208127
0.209579
0.211503
0.213925
0.216835
0.220195
0.223945
0.228008
0.232299
0.236725
0.241201
0.245644
0.24999
0.254183
0.258194
0.261989
0.26558
0.268934
0.272113
0.27503
0.27784
0.280279
0.282726
0.284459
0.286434
0.286797
0.288014
0.285372
0.285461
0.275957
0.275124
0.249743
0.251754
0.188711
0.211794
0.05492
0.169676
0.121644
0.155561
0.179544
0.192728
0.197878
0.201551
0.202407
0.203328
0.203108
0.203283
0.202804
0.2026
0.202076
0.2018
0.201556
0.201692
0.202146
0.202984
0.203993
0.204974
0.205749
0.206429
0.20722
0.208285
0.20975
0.211684
0.214115
0.217035
0.220406
0.224167
0.228242
0.232541
0.236974
0.241451
0.245891
0.250228
0.254406
0.258396
0.262166
0.265728
0.269049
0.272192
0.275071
0.277839
0.280238
0.282638
0.28433
0.286249
0.286573
0.287721
0.285049
0.285041
0.27554
0.274541
0.249262
0.25094
0.188298
0.210647
0.055074
0.168082
0.123722
0.155873
0.1795
0.192567
0.197854
0.201576
0.202565
0.203498
0.203337
0.203491
0.203033
0.202806
0.202281
0.201993
0.201751
0.201881
0.202325
0.203141
0.204124
0.205088
0.205863
0.206558
0.207368
0.208451
0.209931
0.211876
0.214319
0.21725
0.220632
0.224405
0.22849
0.232799
0.237237
0.241715
0.246151
0.250479
0.254641
0.258611
0.262355
0.265887
0.269175
0.272282
0.275123
0.277849
0.280207
0.282559
0.28421
0.286073
0.286358
0.287437
0.284737
0.284628
0.275133
0.273963
0.248794
0.25013
0.187909
0.209501
0.05527
0.166464
0.125718
0.15622
0.17948
0.19243
0.197843
0.201614
0.202732
0.203682
0.203578
0.203714
0.203277
0.203031
0.202506
0.202204
0.201962
0.202086
0.20252
0.203315
0.204273
0.205217
0.205989
0.206696
0.207524
0.208626
0.210121
0.21208
0.214535
0.217478
0.220872
0.224657
0.228754
0.233071
0.237515
0.241995
0.246426
0.250743
0.25489
0.258838
0.262557
0.266058
0.269313
0.272383
0.275186
0.27787
0.280187
0.28249
0.2841
0.285907
0.286153
0.287161
0.284433
0.284223
0.274737
0.273392
0.248341
0.249325
0.187546
0.208355
0.0555069
0.16482
0.127636
0.156598
0.179484
0.192317
0.197844
0.201665
0.202907
0.203878
0.203832
0.203954
0.203537
0.203274
0.20275
0.202434
0.202191
0.202308
0.202732
0.203507
0.204439
0.205363
0.206131
0.206847
0.207691
0.208811
0.210323
0.212296
0.214764
0.21772
0.221127
0.224925
0.229033
0.233359
0.237808
0.242289
0.246715
0.251022
0.255152
0.259079
0.262771
0.266241
0.269462
0.272495
0.275259
0.277901
0.280177
0.282432
0.284001
0.285751
0.285959
0.286895
0.28414
0.283827
0.274351
0.272827
0.247903
0.248524
0.187207
0.207209
0.0557836
0.163152
0.129479
0.157004
0.179512
0.192227
0.197858
0.201728
0.203091
0.204088
0.2041
0.204212
0.203813
0.203536
0.203016
0.202685
0.202438
0.202547
0.202962
0.203716
0.204624
0.205526
0.206287
0.20701
0.207869
0.209006
0.210535
0.212524
0.215006
0.217976
0.221396
0.225207
0.229327
0.233662
0.238117
0.242597
0.247019
0.251314
0.255428
0.259332
0.262997
0.266436
0.269623
0.272618
0.275344
0.277943
0.280178
0.282385
0.283912
0.285605
0.285775
0.286638
0.283858
0.283438
0.273977
0.272268
0.247478
0.247727
0.186892
0.206063
0.0560989
0.16146
0.131252
0.157435
0.179562
0.192159
0.197886
0.201804
0.203283
0.204311
0.204381
0.204487
0.204108
0.203818
0.203302
0.202959
0.202707
0.202805
0.203209
0.203944
0.204828
0.205708
0.206461
0.207189
0.20806
0.209213
0.210758
0.212763
0.215261
0.218245
0.221681
0.225505
0.229636
0.233981
0.23844
0.242921
0.247336
0.25162
0.255717
0.259598
0.263236
0.266643
0.269796
0.272753
0.275441
0.277996
0.280191
0.282349
0.283834
0.28547
0.285601
0.286392
0.283586
0.283058
0.273614
0.271717
0.247068
0.246935
0.1866
0.204917
0.0564519
0.159744
0.132956
0.157889
0.179633
0.192113
0.197926
0.201893
0.203484
0.204545
0.204674
0.204781
0.204421
0.204119
0.20361
0.203255
0.202998
0.203084
0.203476
0.204191
0.205051
0.20591
0.206654
0.207383
0.208265
0.209433
0.210994
0.213016
0.215529
0.218529
0.221979
0.225818
0.229961
0.234315
0.238779
0.243259
0.247669
0.251941
0.256019
0.259877
0.263487
0.266863
0.269981
0.2729
0.275549
0.278061
0.280215
0.282324
0.283768
0.285346
0.28544
0.286156
0.283325
0.282688
0.273262
0.271173
0.246671
0.246148
0.186331
0.203771
0.0568416
0.158005
0.134596
0.158362
0.179726
0.192089
0.19798
0.201993
0.203693
0.204792
0.204979
0.205091
0.204753
0.204442
0.203939
0.203575
0.203313
0.203385
0.203763
0.204457
0.205295
0.206133
0.206866
0.207596
0.208485
0.209667
0.211244
0.213282
0.215812
0.218828
0.222293
0.226145
0.230301
0.234664
0.239133
0.243612
0.248016
0.252275
0.256335
0.260169
0.263751
0.267095
0.270178
0.273059
0.275669
0.278138
0.280251
0.282311
0.283715
0.285234
0.28529
0.285931
0.283076
0.282328
0.272922
0.270637
0.246289
0.245366
0.186085
0.202625
0.057267
0.156244
0.136173
0.158852
0.179838
0.192085
0.198047
0.202106
0.20391
0.205049
0.205295
0.205418
0.205104
0.204786
0.204291
0.203919
0.203652
0.203709
0.204072
0.204745
0.205559
0.206376
0.207099
0.207828
0.208724
0.209917
0.211508
0.213562
0.216108
0.219141
0.222622
0.226488
0.230656
0.235028
0.239501
0.24398
0.248377
0.252623
0.256665
0.260475
0.264029
0.26734
0.270388
0.27323
0.275802
0.278228
0.2803
0.282311
0.283673
0.285135
0.285153
0.285718
0.282839
0.281977
0.272594
0.270109
0.245921
0.24459
0.185861
0.20148
0.0577272
0.15446
0.137691
0.159357
0.17997
0.192102
0.198127
0.202231
0.204136
0.205318
0.205623
0.205761
0.205474
0.205152
0.204664
0.204287
0.204017
0.204059
0.204405
0.205055
0.205846
0.206642
0.207354
0.208081
0.208982
0.210184
0.211789
0.213858
0.21642
0.219469
0.222965
0.226847
0.231026
0.235407
0.239885
0.244362
0.248752
0.252985
0.257008
0.260794
0.264319
0.267597
0.270611
0.273415
0.275947
0.278331
0.280362
0.282324
0.283645
0.285048
0.285028
0.285517
0.282615
0.281638
0.272279
0.269589
0.245566
0.243819
0.185658
0.200336
0.0582213
0.152656
0.139151
0.159875
0.180121
0.192139
0.198221
0.202368
0.20437
0.205597
0.205961
0.206119
0.20586
0.205541
0.205061
0.20468
0.204407
0.204435
0.204763
0.205388
0.206155
0.206931
0.207632
0.208357
0.20926
0.210471
0.212087
0.21417
0.216748
0.219812
0.223324
0.22722
0.231412
0.235801
0.240282
0.244759
0.249141
0.253361
0.257364
0.261126
0.264622
0.267868
0.270846
0.273612
0.276106
0.278446
0.280437
0.28235
0.28363
0.284975
0.284917
0.285329
0.282404
0.281309
0.271976
0.269078
0.245226
0.243054
0.185477
0.199193
0.0587483
0.150831
0.140558
0.160404
0.180289
0.192195
0.198327
0.202517
0.204612
0.205885
0.206308
0.206489
0.206263
0.20595
0.205481
0.205097
0.204823
0.204837
0.205147
0.205747
0.20649
0.207245
0.207935
0.208656
0.209562
0.21078
0.212405
0.214501
0.217093
0.220172
0.223699
0.227609
0.231812
0.236209
0.240695
0.245169
0.249544
0.25375
0.257734
0.261471
0.264938
0.268151
0.271095
0.273822
0.276278
0.278575
0.280525
0.28239
0.283629
0.284915
0.28482
0.285154
0.282206
0.280993
0.271686
0.268575
0.2449
0.242294
0.185316
0.198051
0.0593075
0.148988
0.141911
0.160942
0.180475
0.19227
0.198447
0.202677
0.204863
0.206184
0.206665
0.206873
0.20668
0.206379
0.205925
0.20554
0.205265
0.205267
0.205558
0.206132
0.206849
0.207585
0.208264
0.208981
0.209888
0.211111
0.212745
0.214851
0.217456
0.220549
0.224091
0.228013
0.232227
0.236632
0.241121
0.245593
0.24996
0.254152
0.258116
0.261828
0.265267
0.268448
0.271357
0.274046
0.276463
0.278718
0.280628
0.282445
0.283643
0.28487
0.284738
0.284992
0.282022
0.280688
0.271409
0.268083
0.244588
0.241542
0.185176
0.196911
0.0598979
0.147126
0.143215
0.161487
0.180677
0.192363
0.19858
0.20285
0.205122
0.206491
0.20703
0.207268
0.207111
0.206827
0.20639
0.206007
0.205733
0.205724
0.205997
0.206544
0.207236
0.207951
0.20862
0.209334
0.210241
0.211467
0.213108
0.215223
0.217839
0.220945
0.224499
0.228433
0.232658
0.237069
0.241561
0.246031
0.250389
0.254567
0.258512
0.262199
0.265609
0.268757
0.271632
0.274283
0.276663
0.278876
0.280746
0.282514
0.283671
0.284839
0.28467
0.284845
0.281853
0.280397
0.271145
0.2676
0.24429
0.240796
0.185055
0.195773
0.0605187
0.145248
0.14447
0.162039
0.180895
0.192473
0.198726
0.203034
0.205389
0.206808
0.207404
0.207673
0.207553
0.20729
0.206875
0.206499
0.206228
0.206208
0.206464
0.206986
0.207652
0.208346
0.209005
0.209715
0.210621
0.21185
0.213496
0.215618
0.218244
0.22136
0.224926
0.22887
0.233104
0.237521
0.242015
0.246481
0.250831
0.254995
0.25892
0.262583
0.265964
0.26908
0.27192
0.274535
0.276877
0.279047
0.280878
0.282598
0.283715
0.284824
0.284618
0.284714
0.281699
0.280118
0.270896
0.267128
0.244006
0.240056
0.184954
0.194638
0.0611689
0.143355
0.145678
0.162595
0.181128
0.192601
0.198884
0.20323
0.205665
0.207134
0.207786
0.208089
0.208008
0.207768
0.207379
0.207015
0.206748
0.20672
0.206959
0.207456
0.208097
0.208771
0.20942
0.210125
0.211031
0.212261
0.213911
0.216038
0.218671
0.221797
0.225371