/*--------------------------------*- C++ -*----------------------------------*\
| =========                 |                                                 |
| \\      /  F ield         | OpenFOAM: The Open Source CFD Toolbox           |
|  \\    /   O peration     | Version:  2.4.0                                 |
|   \\  /    A nd           | Web:      www.OpenFOAM.org                      |
|    \\/     M anipulation  |                                                 |
\*---------------------------------------------------------------------------*/
FoamFile
{
    version     2.0;
    format      ascii;
    class       surfaceScalarField;
    location    "6.07";
    object      phi;
}
// * * * * * * * * * * * * * * * * * * * * * * * * * * * * * * * * * * * * * //

dimensions      [0 3 -1 0 0 0 0];

internalField   nonuniform List<scalar> 
11840
(
7.85116e-07
9.21488e-06
-2.0322e-08
8.05438e-07
-4.80692e-08
2.77472e-08
-7.30477e-08
2.49785e-08
-8.37744e-08
1.07266e-08
-8.51751e-08
1.40076e-09
-8.91364e-08
3.96128e-09
-8.8651e-08
-4.85398e-10
-9.10591e-08
2.40806e-09
-9.16457e-08
5.86645e-10
-9.44749e-08
2.82917e-09
-9.71788e-08
2.70394e-09
-1.01875e-07
4.6957e-09
-1.07468e-07
5.59369e-09
-1.14963e-07
7.49486e-09
-1.23859e-07
8.89542e-09
-1.34598e-07
1.07399e-08
-1.46952e-07
1.23531e-08
-1.61078e-07
1.41262e-08
-1.7683e-07
1.57525e-08
-1.94187e-07
1.73563e-08
-2.12951e-07
1.8764e-08
-2.32924e-07
1.99739e-08
-2.53783e-07
2.08586e-08
-2.75154e-07
2.13707e-08
-2.96589e-07
2.14355e-08
-3.17588e-07
2.09986e-08
-3.37558e-07
1.99696e-08
-3.55832e-07
1.82749e-08
-3.71671e-07
1.58386e-08
-3.84275e-07
1.26043e-08
-3.92809e-07
8.53392e-09
-3.96428e-07
3.61904e-09
-3.94293e-07
-2.13499e-09
-3.85574e-07
-8.71918e-09
-3.69538e-07
-1.60365e-08
-3.45571e-07
-2.39671e-08
-3.13107e-07
-3.24633e-08
-2.71868e-07
-4.12396e-08
-2.21532e-07
-5.03359e-08
-1.6244e-07
-5.90914e-08
-9.4843e-08
-6.75973e-08
-2.08956e-08
-7.39475e-08
5.55111e-08
-7.64067e-08
1.29457e-07
-7.39462e-08
2.03886e-07
-7.4429e-08
2.75328e-07
-7.14416e-08
3.48618e-07
-7.32897e-08
4.14428e-07
-6.581e-08
4.85048e-07
-7.062e-08
5.39207e-07
-5.41592e-08
6.07741e-07
-6.85338e-08
6.41851e-07
-3.41101e-08
7.14877e-07
-7.30264e-08
7.16271e-07
-1.39409e-09
8.11485e-07
-9.52142e-08
7.60791e-07
5.0694e-08
9.18126e-07
-1.57334e-07
7.91489e-07
1.26637e-07
-4.08282e-07
1.91811e-06
1.72968e-05
1.02204e-07
2.62135e-06
-7.43177e-08
2.04269e-07
-1.77874e-07
1.28535e-07
-2.09724e-07
4.25763e-08
-2.27252e-07
1.89287e-08
-2.37716e-07
1.44252e-08
-2.42607e-07
4.40616e-09
-2.48863e-07
8.66404e-09
-2.53572e-07
5.2957e-09
-2.61234e-07
1.04911e-08
-2.70216e-07
1.1686e-08
-2.83115e-07
1.75944e-08
-2.99199e-07
2.16781e-08
-3.19727e-07
2.80222e-08
-3.44311e-07
3.34796e-08
-3.73467e-07
3.98959e-08
-4.06937e-07
4.58232e-08
-4.44807e-07
5.19968e-08
-4.86771e-07
5.77165e-08
-5.32562e-07
6.31471e-08
-5.81625e-07
6.7827e-08
-6.33289e-07
7.16378e-08
-6.86628e-07
7.41974e-08
-7.40567e-07
7.53099e-08
-7.93878e-07
7.47469e-08
-8.45196e-07
7.23159e-08
-8.92962e-07
6.77358e-08
-9.35457e-07
6.07699e-08
-9.7081e-07
5.1192e-08
-9.97046e-07
3.88397e-08
-1.01213e-06
2.36181e-08
-1.01401e-06
5.50136e-09
-1.00067e-06
-1.54746e-08
-9.70254e-07
-3.91378e-08
-9.20995e-07
-6.52951e-08
-8.51441e-07
-9.35216e-08
-7.60323e-07
-1.23581e-07
-6.46865e-07
-1.54698e-07
-5.10503e-07
-1.86698e-07
-3.51819e-07
-2.17775e-07
-1.72275e-07
-2.47142e-07
2.22196e-08
-2.68442e-07
2.19077e-07
-2.73264e-07
4.10112e-07
-2.64982e-07
5.99918e-07
-2.64234e-07
7.84245e-07
-2.55769e-07
9.67155e-07
-2.562e-07
1.13767e-06
-2.36323e-07
1.30773e-06
-2.40677e-07
1.45361e-06
-2.00048e-07
1.60769e-06
-2.2261e-07
1.71677e-06
-1.4319e-07
1.86026e-06
-2.1652e-07
1.91796e-06
-5.90888e-08
2.07182e-06
-2.49075e-07
2.06074e-06
6.17758e-08
2.28174e-06
-3.78338e-07
2.19008e-06
2.18298e-07
-1.06684e-06
2.91718e-06
2.43796e-05
3.96498e-07
5.14203e-06
-4.05029e-08
6.4127e-07
-2.39341e-07
3.27373e-07
-3.02455e-07
1.05691e-07
-3.44188e-07
6.06612e-08
-3.64209e-07
3.44457e-08
-3.78196e-07
1.83941e-08
-3.89562e-07
2.00297e-08
-4.00113e-07
1.58461e-08
-4.1306e-07
2.34384e-08
-4.28876e-07
2.75024e-08
-4.49787e-07
3.85055e-08
-4.76054e-07
4.79445e-08
-5.08783e-07
6.07509e-08
-5.47967e-07
7.26637e-08
-5.93988e-07
8.59175e-08
-6.46645e-07
9.84803e-08
-7.05832e-07
1.11183e-07
-7.71076e-07
1.22961e-07
-8.41784e-07
1.33855e-07
-9.17011e-07
1.43055e-07
-9.95561e-07
1.50187e-07
-1.07589e-06
1.54526e-07
-1.15621e-06
1.55633e-07
-1.23454e-06
1.53072e-07
-1.30867e-06
1.46447e-07
-1.37616e-06
1.35222e-07
-1.43433e-06
1.18948e-07
-1.48036e-06
9.72194e-08
-1.51129e-06
6.97673e-08
-1.52413e-06
3.64629e-08
-1.51595e-06
-2.6852e-09
-1.48391e-06
-4.75126e-08
-1.42547e-06
-9.75787e-08
-1.33835e-06
-1.52418e-07
-1.22072e-06
-2.11146e-07
-1.07122e-06
-2.73084e-07
-8.89199e-07
-3.36718e-07
-6.74773e-07
-4.01123e-07
-4.29734e-07
-4.62814e-07
-1.58221e-07
-5.18655e-07
1.30093e-07
-5.56755e-07
4.20465e-07
-5.63636e-07
7.07002e-07
-5.51519e-07
9.93092e-07
-5.50325e-07
1.27431e-06
-5.36987e-07
1.55086e-06
-5.32751e-07
1.81372e-06
-4.99181e-07
2.06866e-06
-4.95623e-07
2.29818e-06
-4.29562e-07
2.52319e-06
-4.47625e-07
2.70552e-06
-3.25518e-07
2.90157e-06
-4.12566e-07
3.02423e-06
-1.81748e-07
3.20865e-06
-4.33496e-07
3.26305e-06
7.37312e-09
3.49483e-06
-6.10116e-07
3.49778e-06
2.15346e-07
-1.81108e-06
3.80892e-06
3.05707e-05
8.13253e-07
8.13769e-06
5.24844e-08
1.40204e-06
-2.53269e-07
6.33126e-07
-3.61913e-07
2.14336e-07
-4.33774e-07
1.32522e-07
-4.68328e-07
6.9e-08
-4.94098e-07
4.41641e-08
-5.12757e-07
3.86888e-08
-5.30351e-07
3.34397e-08
-5.49453e-07
4.25406e-08
-5.72371e-07
5.04204e-08
-6.01237e-07
6.73712e-08
-6.37155e-07
8.38627e-08
-6.81194e-07
1.0479e-07
-7.33635e-07
1.25104e-07
-7.94742e-07
1.47025e-07
-8.64294e-07
1.68032e-07
-9.41956e-07
1.88845e-07
-1.02702e-06
2.08024e-07
-1.11851e-06
2.25348e-07
-1.21504e-06
2.39584e-07
-1.31485e-06
2.49997e-07
-1.41576e-06
2.55439e-07
-1.5153e-06
2.55172e-07
-1.61075e-06
2.48517e-07
-1.69915e-06
2.34848e-07
-1.77728e-06
2.13357e-07
-1.84171e-06
1.8338e-07
-1.88886e-06
1.44367e-07
-1.91509e-06
9.59957e-08
-1.91681e-06
3.81856e-08
-1.89059e-06
-2.89079e-08
-1.83328e-06
-1.0482e-07
-1.74215e-06
-1.88708e-07
-1.61496e-06
-2.7961e-07
-1.45014e-06
-3.75967e-07
-1.24686e-06
-4.76361e-07
-1.00534e-06
-5.78236e-07
-7.27074e-07
-6.79394e-07
-4.15616e-07
-7.74272e-07
-7.76557e-08
-8.56616e-07
2.759e-07
-9.1031e-07
6.34096e-07
-9.21833e-07
9.94863e-07
-9.12286e-07
1.35846e-06
-9.13917e-07
1.71979e-06
-8.98322e-07
2.07537e-06
-8.88332e-07
2.41734e-06
-8.41146e-07
2.74597e-06
-8.24259e-07
3.04838e-06
-7.31973e-07
3.33627e-06
-7.35514e-07
3.58254e-06
-5.71791e-07
3.82659e-06
-6.5661e-07
4.00461e-06
-3.5977e-07
4.21942e-06
-6.48306e-07
4.32595e-06
-9.91586e-08
4.57148e-06
-8.55643e-07
4.65024e-06
1.36584e-07
-2.58355e-06
4.61532e-06
3.59554e-05
1.3242e-06
1.14288e-05
2.12508e-07
2.51373e-06
-2.18474e-07
1.06411e-06
-3.86899e-07
3.8276e-07
-4.9518e-07
2.40803e-07
-5.49356e-07
1.23176e-07
-5.89767e-07
8.45749e-08
-6.17945e-07
6.68667e-08
-6.43846e-07
5.93414e-08
-6.69959e-07
6.86528e-08
-7.00231e-07
8.06927e-08
-7.3692e-07
1.0406e-07
-7.81865e-07
1.28808e-07
-8.36173e-07
1.59098e-07
-9.00331e-07
1.89262e-07
-9.74483e-07
2.21177e-07
-1.0583e-06
2.51854e-07
-1.15119e-06
2.8173e-07
-1.25212e-06
3.08951e-07
-1.35968e-06
3.32914e-07
-1.472e-06
3.51903e-07
-1.58674e-06
3.64733e-07
-1.7011e-06
3.69799e-07
-1.81196e-06
3.66036e-07
-1.91599e-06
3.5254e-07
-2.00961e-06
3.28468e-07
-2.08904e-06
2.92786e-07
-2.15034e-06
2.44682e-07
-2.18952e-06
1.83551e-07
-2.20267e-06
1.09143e-07
-2.18604e-06
2.15594e-08
-2.13623e-06
-7.87175e-08
-2.05028e-06
-1.9077e-07
-1.92579e-06
-3.13204e-07
-1.76102e-06
-4.44379e-07
-1.55507e-06
-5.81909e-07
-1.30799e-06
-7.23447e-07
-1.02096e-06
-8.65266e-07
-6.96666e-07
-1.00369e-06
-3.39802e-07
-1.13114e-06
4.18967e-08
-1.23831e-06
4.3865e-07
-1.30706e-06
8.44504e-07
-1.32769e-06
1.25978e-06
-1.32757e-06
1.6817e-06
-1.33584e-06
2.10491e-06
-1.32153e-06
2.52329e-06
-1.30671e-06
2.92998e-06
-1.24784e-06
3.32058e-06
-1.21486e-06
3.6859e-06
-1.0973e-06
4.02932e-06
-1.07893e-06
4.33289e-06
-8.75358e-07
4.62119e-06
-9.44919e-07
4.84907e-06
-5.8764e-07
5.09376e-06
-8.93001e-07
5.24426e-06
-2.49661e-07
5.50511e-06
-1.11649e-06
5.64262e-06
-9.27094e-10
-3.34364e-06
5.34679e-06
4.06086e-05
1.90191e-06
1.48737e-05
4.47722e-07
3.96792e-06
-1.33807e-07
1.64564e-06
-3.76244e-07
6.25197e-07
-5.27574e-07
3.92134e-07
-6.06598e-07
2.02199e-07
-6.64699e-07
1.42676e-07
-7.04681e-07
1.06849e-07
-7.40227e-07
9.48877e-08
-7.74202e-07
1.02628e-07
-8.12069e-07
1.18559e-07
-8.56383e-07
1.48375e-07
-9.09635e-07
1.8206e-07
-9.73019e-07
2.22481e-07
-1.04716e-06
2.63401e-07
-1.13205e-06
3.06071e-07
-1.2272e-06
3.47004e-07
-1.33168e-06
3.86208e-07
-1.44409e-06
4.21362e-07
-1.56257e-06
4.51392e-07
-1.68472e-06
4.74059e-07
-1.80768e-06
4.8769e-07
-1.92811e-06
4.90232e-07
-2.0424e-06
4.80324e-07
-2.14676e-06
4.56899e-07
-2.23728e-06
4.18984e-07
-2.3099e-06
3.65411e-07
-2.36056e-06
2.95339e-07
-2.38525e-06
2.08246e-07
-2.3802e-06
1.04086e-07
-2.34193e-06
-1.67102e-08
-2.26743e-06
-1.53217e-07
-2.15419e-06
-3.04004e-07
-2.00034e-06
-4.67061e-07
-1.80471e-06
-6.40004e-07
-1.56702e-06
-8.196e-07
-1.28792e-06
-1.00255e-06
-9.69185e-07
-1.184e-06
-6.14061e-07
-1.35881e-06
-2.27554e-07
-1.51764e-06
1.82697e-07
-1.64857e-06
6.08753e-07
-1.73312e-06
1.04819e-06
-1.76712e-06
1.50204e-06
-1.78141e-06
1.96535e-06
-1.79915e-06
2.43284e-06
-1.78903e-06
2.89704e-06
-1.7709e-06
3.3522e-06
-1.70299e-06
3.79074e-06
-1.6534e-06
4.20675e-06
-1.51331e-06
4.59651e-06
-1.4687e-06
4.95023e-06
-1.22907e-06
5.2784e-06
-1.27309e-06
5.55307e-06
-8.62317e-07
5.8265e-06
-1.16643e-06
6.01865e-06
-4.4181e-07
6.29428e-06
-1.39213e-06
6.48008e-06
-1.86722e-07
-4.06358e-06
6.00884e-06
4.45997e-05
2.52346e-06
1.83591e-05
7.56501e-07
5.73488e-06
-2.4936e-09
2.40463e-06
-3.28771e-07
9.51474e-07
-5.30044e-07
5.93407e-07
-6.3932e-07
3.11476e-07
-7.18366e-07
2.21722e-07
-7.72523e-07
1.61005e-07
-8.19137e-07
1.41502e-07
-8.6184e-07
1.45331e-07
-9.07537e-07
1.64256e-07
-9.59218e-07
2.00056e-07
-1.01997e-06
2.42809e-07
-1.09109e-06
2.93609e-07
-1.1733e-06
3.45607e-07
-1.26642e-06
3.99187e-07
-1.36972e-06
4.50303e-07
-1.48192e-06
4.9841e-07
-1.60124e-06
5.40685e-07
-1.72538e-06
5.75533e-07
-1.85152e-06
6.00193e-07
-1.97635e-06
6.12528e-07
-2.09621e-06
6.10091e-07
-2.2072e-06
5.91316e-07
-2.30538e-06
5.55079e-07
-2.38678e-06
5.00378e-07
-2.4474e-06
4.26029e-07
-2.48333e-06
3.31275e-07
-2.49086e-06
2.15774e-07
-2.46655e-06
7.97746e-08
-2.40737e-06
-7.58917e-08
-2.31072e-06
-2.49864e-07
-2.17451e-06
-4.40218e-07
-1.99725e-06
-6.44321e-07
-1.77819e-06
-8.59064e-07
-1.51737e-06
-1.08042e-06
-1.21576e-06
-1.30415e-06
-8.75362e-07
-1.5244e-06
-4.99564e-07
-1.73461e-06
-9.32811e-08
-1.92393e-06
3.36429e-07
-2.07828e-06
7.83311e-07
-2.18e-06
1.2468e-06
-2.23061e-06
1.7276e-06
-2.26221e-06
2.21945e-06
-2.29099e-06
2.71717e-06
-2.28675e-06
3.2127e-06
-2.26643e-06
3.70128e-06
-2.19158e-06
4.17364e-06
-2.12576e-06
4.6265e-06
-1.96617e-06
5.05123e-06
-1.89342e-06
5.44492e-06
-1.62277e-06
5.80591e-06
-1.63408e-06
6.12242e-06
-1.17883e-06
6.42147e-06
-1.46547e-06
6.65478e-06
-6.75126e-07
6.94278e-06
-1.68013e-06
7.17207e-06
-4.16014e-07
-4.72534e-06
6.6053e-06
4.79944e-05
3.16987e-06
2.17945e-05
1.13521e-06
7.76954e-06
1.93229e-07
3.34661e-06
-2.43211e-07
1.38791e-06
-5.01556e-07
8.51751e-07
-6.467e-07
4.5662e-07
-7.50169e-07
3.25191e-07
-8.20985e-07
2.31821e-07
-8.80195e-07
2.00712e-07
-9.32526e-07
1.97661e-07
-9.86302e-07
2.18033e-07
-1.04505e-06
2.58807e-07
-1.11242e-06
3.10178e-07
-1.18986e-06
3.71049e-07
-1.27811e-06
4.33858e-07
-1.37683e-06
4.97907e-07
-1.48506e-06
5.58528e-07
-1.60118e-06
6.14532e-07
-1.72308e-06
6.62589e-07
-1.84813e-06
7.00583e-07
-1.97322e-06
7.2528e-07
-2.09483e-06
7.34139e-07
-2.20916e-06
7.24418e-07
-2.31229e-06
6.94443e-07
-2.40034e-06
6.43129e-07
-2.4695e-06
5.69538e-07
-2.51601e-06
4.72545e-07
-2.53627e-06
3.51535e-07
-2.52689e-06
2.06394e-07
-2.48481e-06
3.76886e-08
-2.40733e-06
-1.53368e-07
-2.29217e-06
-3.65029e-07
-2.13749e-06
-5.949e-07
-1.94206e-06
-8.39745e-07
-1.70536e-06
-1.09577e-06
-1.42759e-06
-1.35819e-06
-1.10985e-06
-1.6219e-06
-7.54185e-07
-1.88006e-06
-3.63978e-07
-2.12482e-06
5.61045e-08
-2.34401e-06
4.99729e-07
-2.5219e-06
9.61948e-07
-2.64222e-06
1.44289e-06
-2.71155e-06
1.94248e-06
-2.76181e-06
2.45373e-06
-2.80224e-06
2.97155e-06
-2.80457e-06
3.48767e-06
-2.78255e-06
3.99803e-06
-2.70194e-06
4.49258e-06
-2.62031e-06
4.97e-06
-2.44359e-06
5.41859e-06
-2.34202e-06
5.84083e-06
-2.045e-06
6.22588e-06
-2.01912e-06
6.57586e-06
-1.52881e-06
6.89504e-06
-1.78465e-06
7.16625e-06
-9.46335e-07
7.46254e-06
-1.97642e-06
7.73195e-06
-6.85424e-07
-5.31856e-06
7.13976e-06
5.08547e-05
3.8253e-06
2.5109e-05
1.57704e-06
1.00178e-05
4.38148e-07
4.4855e-06
-1.17645e-07
1.94371e-06
-4.40926e-07
1.17503e-06
-6.27806e-07
6.435e-07
-7.59404e-07
4.56789e-07
-8.49511e-07
3.21927e-07
-9.22974e-07
2.74175e-07
-9.85895e-07
2.60582e-07
-1.04804e-06
2.80178e-07
-1.11356e-06
3.24326e-07
-1.18666e-06
3.83278e-07
-1.26896e-06
4.53352e-07
-1.36126e-06
5.26158e-07
-1.46308e-06
5.99719e-07
-1.57325e-06
6.68699e-07
-1.68993e-06
7.31213e-07
-1.81079e-06
7.8345e-07
-1.93301e-06
8.22803e-07
-2.05337e-06
8.45638e-07
-2.16832e-06
8.4909e-07
-2.27411e-06
8.30206e-07
-2.36694e-06
7.87279e-07
-2.44314e-06
7.19332e-07
-2.49913e-06
6.25528e-07
-2.53143e-06
5.04841e-07
-2.53671e-06
3.56811e-07
-2.51187e-06
1.81561e-07
-2.45414e-06
-2.00385e-08
-2.36107e-06
-2.46445e-07
-2.23053e-06
-4.95566e-07
-2.06089e-06
-7.64538e-07
-1.85109e-06
-1.04955e-06
-1.6007e-06
-1.34615e-06
-1.31003e-06
-1.64885e-06
-9.80237e-07
-1.95169e-06
-6.13354e-07
-2.24695e-06
-2.12673e-07
-2.5255e-06
2.17427e-07
-2.77411e-06
6.71331e-07
-2.9758e-06
1.14504e-06
-3.11593e-06
1.63866e-06
-3.20517e-06
2.15124e-06
-3.27439e-06
2.67545e-06
-3.32645e-06
3.20624e-06
-3.33535e-06
3.73536e-06
-3.31167e-06
4.25918e-06
-3.22576e-06
4.7674e-06
-3.12853e-06
5.25997e-06
-2.93616e-06
5.72349e-06
-2.80554e-06
6.16421e-06
-2.48572e-06
6.56501e-06
-2.41993e-06
6.93888e-06
-1.90268e-06
7.27179e-06
-2.11756e-06
7.57404e-06
-1.24859e-06
7.87377e-06
-2.27615e-06
8.17793e-06
-9.89584e-07
-5.83967e-06
7.61602e-06
5.32386e-05
4.47658e-06
2.82484e-05
2.07322e-06
1.24212e-05
7.37866e-07
5.82086e-06
5.00151e-08
2.63156e-06
-3.46828e-07
1.57187e-06
-5.81588e-07
8.7826e-07
-7.45248e-07
6.20449e-07
-8.57456e-07
4.34135e-07
-9.46984e-07
3.63703e-07
-1.02156e-06
3.35156e-07
-1.09244e-06
3.51062e-07
-1.16449e-06
3.96371e-07
-1.2425e-06
4.61289e-07
-1.32833e-06
5.39181e-07
-1.42287e-06
6.20706e-07
-1.52559e-06
7.02439e-07
-1.63524e-06
7.78345e-07
-1.74984e-06
8.45815e-07
-1.86698e-06
9.00594e-07
-1.98381e-06
9.39626e-07
-2.09712e-06
9.58949e-07
-2.20346e-06
9.5543e-07
-2.29922e-06
9.25969e-07
-2.38081e-06
8.68868e-07
-2.44476e-06
7.83283e-07
-2.48773e-06
6.68498e-07
-2.50648e-06
5.23586e-07
-2.49791e-06
3.48246e-07
-2.45918e-06
1.42826e-07
-2.38769e-06
-9.15276e-08
-2.28114e-06
-3.52996e-07
-2.13755e-06
-6.3915e-07
-1.95543e-06
-9.46658e-07
-1.73382e-06
-1.27116e-06
-1.4724e-06
-1.60758e-06
-1.17151e-06
-1.94974e-06
-8.32335e-07
-2.29087e-06
-4.56888e-07
-2.6224e-06
-4.83473e-08
-2.93404e-06
3.89207e-07
-3.21166e-06
8.50809e-07
-3.43741e-06
1.33311e-06
-3.59823e-06
1.83583e-06
-3.70789e-06
2.35714e-06
-3.79571e-06
2.88965e-06
-3.85896e-06
3.42834e-06
-3.87405e-06
3.96509e-06
-3.84841e-06
4.49651e-06
-3.75718e-06
5.01233e-06
-3.64435e-06
5.51328e-06
-3.43711e-06
5.98511e-06
-3.27737e-06
6.43657e-06
-2.93717e-06
6.84646e-06
-2.82983e-06
7.23568e-06
-2.2919e-06
7.5765e-06
-2.45838e-06
7.90149e-06
-1.57358e-06
8.20025e-06
-2.57491e-06
8.53141e-06
-1.32074e-06
-6.29061e-06
8.03816e-06
5.52005e-05
5.11299e-06
3.11736e-05
2.61362e-06
1.49205e-05
1.09196e-06
7.34251e-06
2.61082e-07
3.46244e-06
-2.17827e-07
2.05078e-06
-5.06876e-07
1.16731e-06
-7.06745e-07
8.20318e-07
-8.44074e-07
5.71464e-07
-9.51661e-07
4.7129e-07
-1.0391e-06
4.22591e-07
-1.11923e-06
4.31194e-07
-1.19769e-06
4.74832e-07
-1.27996e-06
5.4356e-07
-1.36821e-06
6.27431e-07
-1.46354e-06
7.16042e-07
-1.56546e-06
8.04358e-07
-1.67274e-06
8.85626e-07
-1.78341e-06
9.56478e-07
-1.89507e-06
1.01226e-06
-2.00493e-06
1.04948e-06
-2.1099e-06
1.06392e-06
-2.20667e-06
1.0522e-06
-2.29183e-06
1.01113e-06
-2.36197e-06
9.39008e-07
-2.41384e-06
8.3515e-07
-2.44429e-06
6.98953e-07
-2.45029e-06
5.29589e-07
-2.42895e-06
3.26905e-07
-2.37759e-06
9.14648e-08
-2.29377e-06
-1.75351e-07
-2.17529e-06
-4.71476e-07
-2.0203e-06
-7.94137e-07
-1.82742e-06
-1.13954e-06
-1.59578e-06
-1.5028e-06
-1.32512e-06
-1.87824e-06
-1.01584e-06
-2.25902e-06
-6.69126e-07
-2.63758e-06
-2.86966e-07
-3.00456e-06
1.27584e-07
-3.34859e-06
5.70731e-07
-3.65481e-06
1.03806e-06
-3.90474e-06
1.52665e-06
-4.08682e-06
2.03567e-06
-4.2169e-06
2.5625e-06
-4.32255e-06
3.09982e-06
-4.39628e-06
3.64269e-06
-4.41692e-06
4.18314e-06
-4.38886e-06
4.71795e-06
-4.29199e-06
5.23701e-06
-4.16341e-06
5.74152e-06
-3.94162e-06
6.21688e-06
-3.75273e-06
6.67342e-06
-3.39371e-06
7.08742e-06
-3.24382e-06
7.48525e-06
-2.68974e-06
7.82938e-06
-2.80251e-06
8.16938e-06
-1.91358e-06
8.46384e-06
-2.86937e-06
8.81345e-06
-1.67035e-06
-6.6769e-06
8.41041e-06
5.67901e-05
5.72602e-06
3.3858e-05
3.18745e-06
1.74591e-05
1.49849e-06
9.03148e-06
5.18524e-07
4.4424e-06
-5.25488e-08
2.62186e-06
-4.02378e-07
1.51714e-06
-6.42804e-07
1.06074e-06
-8.08511e-07
7.3717e-07
-9.36365e-07
5.99144e-07
-1.03807e-06
5.24293e-07
-1.12815e-06
5.2128e-07
-1.21313e-06
5.59809e-07
-1.29926e-06
6.29695e-07
-1.38915e-06
7.17321e-07
-1.48423e-06
8.1112e-07
-1.58416e-06
9.04282e-07
-1.68783e-06
9.89301e-07
-1.79337e-06
1.06201e-06
-1.89848e-06
1.11737e-06
-2.00049e-06
1.15149e-06
-2.09647e-06
1.1599e-06
-2.18327e-06
1.13901e-06
-2.25768e-06
1.08553e-06
-2.31647e-06
9.978e-07
-2.35658e-06
8.75262e-07
-2.37505e-06
7.17426e-07
-2.36902e-06
5.23554e-07
-2.33575e-06
2.93636e-07
-2.27272e-06
2.84356e-08
-2.1776e-06
-2.7047e-07
-2.0483e-06
-6.00781e-07
-1.88307e-06
-9.59363e-07
-1.68064e-06
-1.34197e-06
-1.44022e-06
-1.74323e-06
-1.16161e-06
-2.15684e-06
-8.4525e-07
-2.57538e-06
-4.9234e-07
-2.99049e-06
-1.04831e-07
-3.39207e-06
3.1434e-07
-3.76776e-06
7.61643e-07
-4.10212e-06
1.23312e-06
-4.37621e-06
1.7261e-06
-4.5798e-06
2.23915e-06
-4.72995e-06
2.76899e-06
-4.85238e-06
3.30844e-06
-4.93574e-06
3.85265e-06
-4.96113e-06
4.39384e-06
-4.93005e-06
4.92891e-06
-4.82706e-06
5.44798e-06
-4.68248e-06
5.95254e-06
-4.44617e-06
6.42792e-06
-4.22812e-06
6.88545e-06
-3.85124e-06
7.29987e-06
-3.65824e-06
7.7013e-06
-3.09117e-06
8.04529e-06
-3.1465e-06
8.39396e-06
-2.26225e-06
8.68188e-06
-3.15729e-06
9.04209e-06
-2.03056e-06
-7.00549e-06
8.73704e-06
5.8053e-05
6.30917e-06
3.62858e-05
3.78385e-06
1.99844e-05
1.95391e-06
1.08614e-05
8.23517e-07
5.57279e-06
1.51631e-07
3.29374e-06
-2.6667e-07
1.93544e-06
-5.52182e-07
1.34626e-06
-7.4979e-07
9.34778e-07
-9.0036e-07
7.49714e-07
-1.01798e-06
6.41908e-07
-1.11897e-06
6.22279e-07
-1.21084e-06
6.51675e-07
-1.30075e-06
7.19607e-07
-1.39186e-06
8.08428e-07
-1.48605e-06
9.05307e-07
-1.58323e-06
1.00147e-06
-1.68254e-06
1.08861e-06
-1.78224e-06
1.16171e-06
-1.88021e-06
1.21534e-06
-1.97391e-06
1.24519e-06
-2.06059e-06
1.24658e-06
-2.13729e-06
1.21572e-06
-2.20098e-06
1.14921e-06
-2.24861e-06
1.04543e-06
-2.2773e-06
9.03949e-07
-2.28424e-06
7.24366e-07
-2.26672e-06
5.06036e-07
-2.22216e-06
2.49077e-07
-2.14816e-06
-4.556e-08
-2.0425e-06
-3.76134e-07
-1.90317e-06
-7.40109e-07
-1.72856e-06
-1.13398e-06
-1.51746e-06
-1.55307e-06
-1.26918e-06
-1.99151e-06
-9.83576e-07
-2.44245e-06
-6.61123e-07
-2.89783e-06
-3.03035e-07
-3.34857e-06
8.87673e-08
-3.78387e-06
5.11467e-07
-4.19046e-06
9.61759e-07
-4.55241e-06
1.43604e-06
-4.85049e-06
1.93182e-06
-5.07558e-06
2.44702e-06
-5.24516e-06
2.97783e-06
-5.38319e-06
3.51728e-06
-5.47518e-06
4.06059e-06
-5.50444e-06
4.60022e-06
-5.46968e-06
5.13313e-06
-5.35997e-06
5.64975e-06
-5.19911e-06
6.1517e-06
-4.94811e-06
6.62447e-06
-4.70089e-06
7.07994e-06
-4.30671e-06
7.49205e-06
-4.07034e-06
7.89336e-06
-3.49248e-06
8.23468e-06
-3.48782e-06
8.58711e-06
-2.61469e-06
8.86703e-06
-3.43721e-06
9.23136e-06
-2.39489e-06
-7.28329e-06
9.02229e-06
5.90308e-05
6.85774e-06
3.84504e-05
4.39226e-06
2.24499e-05
2.45321e-06
1.28005e-05
1.1766e-06
6.8494e-06
3.95797e-07
4.07454e-06
-9.79725e-08
2.42921e-06
-4.33464e-07
1.68175e-06
-6.66788e-07
1.1681e-06
-8.42785e-07
9.25711e-07
-9.78244e-07
7.77367e-07
-1.09141e-06
7.35442e-07
-1.19084e-06
7.51112e-07
-1.28477e-06
8.13537e-07
-1.37702e-06
9.00673e-07
-1.47004e-06
9.98324e-07
-1.56411e-06
1.09554e-06
-1.65864e-06
1.18315e-06
-1.75213e-06
1.2552e-06
-1.84263e-06
1.30584e-06
-1.92779e-06
1.33036e-06
-2.00506e-06
1.32384e-06
-2.07165e-06
1.28231e-06
-2.1247e-06
1.20227e-06
-2.16137e-06
1.0821e-06
-2.17892e-06
9.21492e-07
-2.17468e-06
7.20133e-07
-2.1461e-06
4.77457e-07
-2.09073e-06
1.93708e-07
-2.00629e-06
-1.30004e-07
-1.89063e-06
-4.9179e-07
-1.74188e-06
-8.88863e-07
-1.55851e-06
-1.31735e-06
-1.33942e-06
-1.77216e-06
-1.08398e-06
-2.24695e-06
-7.92117e-07
-2.73431e-06
-4.64343e-07
-3.22561e-06
-1.01887e-07
-3.71103e-06
2.93357e-07
-4.17911e-06
7.18687e-07
-4.61579e-06
1.17098e-06
-5.0047e-06
1.64692e-06
-5.32643e-06
2.14409e-06
-5.57274e-06
2.65987e-06
-5.76095e-06
3.18998e-06
-5.9133e-06
3.72767e-06
-6.01288e-06
4.26827e-06
-6.04504e-06
4.80447e-06
-6.00587e-06
5.3333e-06
-5.8888e-06
5.8455e-06
-5.71131e-06
6.34277e-06
-5.44538e-06
6.81087e-06
-5.16899e-06
7.26198e-06
-4.75781e-06
7.66966e-06
-4.47803e-06
8.06808e-06
-3.89089e-06
8.4048e-06
-3.82455e-06
8.75729e-06
-2.96718e-06
9.02827e-06
-3.70819e-06
9.39167e-06
-2.75829e-06
-7.51645e-06
9.27026e-06
5.97605e-05
7.36863e-06
4.0352e-05
5.00283e-06
2.48157e-05
2.99006e-06
1.48132e-05
1.5772e-06
8.26227e-06
6.81767e-07
4.96998e-06
1.05592e-07
3.00538e-06
-2.85067e-07
2.07241e-06
-5.58213e-07
1.44125e-06
-7.62613e-07
1.13011e-06
-9.18149e-07
9.32903e-07
-1.04504e-06
8.62334e-07
-1.15305e-06
8.59122e-07
-1.25156e-06
9.12042e-07
-1.34517e-06
9.94287e-07
-1.43704e-06
1.09019e-06
-1.52789e-06
1.18639e-06
-1.6175e-06
1.27276e-06
-1.70461e-06
1.3423e-06
-1.78751e-06
1.38874e-06
-1.86406e-06
1.40691e-06
-1.93188e-06
1.39166e-06
-1.9884e-06
1.33883e-06
-2.03094e-06
1.24481e-06
-2.05681e-06
1.10798e-06
-2.06344e-06
9.28122e-07
-2.04832e-06
7.05008e-07
-2.009e-06
4.38144e-07
-1.94319e-06
1.2789e-07
-1.84868e-06
-2.24506e-07
-1.72346e-06
-6.17014e-07
-1.56574e-06
-1.04659e-06
-1.3741e-06
-1.50899e-06
-1.14753e-06
-1.99872e-06
-8.85498e-07
-2.50898e-06
-5.87971e-07
-3.03183e-06
-2.55507e-07
-3.55807e-06
1.10649e-07
-4.07719e-06
5.08627e-07
-4.57709e-06
9.3582e-07
-5.04298e-06
1.38925e-06
-5.45814e-06
1.86584e-06
-5.80302e-06
2.36317e-06
-6.07007e-06
2.87816e-06
-6.27593e-06
3.40615e-06
-6.44128e-06
3.94061e-06
-6.54734e-06
4.47698e-06
-6.58141e-06
5.00819e-06
-6.53708e-06
5.53135e-06
-6.41196e-06
6.03753e-06
-6.21748e-06
6.52844e-06
-5.93629e-06
6.99021e-06
-5.63076e-06
7.43513e-06
-5.20273e-06
7.83673e-06
-4.87963e-06
8.23011e-06
-4.28427e-06
8.56076e-06
-4.1552e-06
8.91049e-06
-3.31691e-06
9.17188e-06
-3.96959e-06
9.53052e-06
-3.11693e-06
-7.71017e-06
9.48491e-06
6.02756e-05
7.84006e-06
4.19969e-05
5.60666e-06
2.70491e-05
3.55715e-06
1.68627e-05
2.02355e-06
9.79586e-06
1.01098e-06
5.98255e-06
3.46077e-07
3.67029e-06
-1.05289e-07
2.52377e-06
-4.22594e-07
1.75855e-06
-6.58618e-07
1.36614e-06
-8.36773e-07
1.11106e-06
-9.79275e-07
1.00484e-06
-1.09718e-06
9.77029e-07
-1.20113e-06
1.01599e-06
-1.29662e-06
1.08978e-06
-1.38761e-06
1.18118e-06
-1.47536e-06
1.27414e-06
-1.56007e-06
1.35748e-06
-1.6408e-06
1.42303e-06
-1.7161e-06
1.46404e-06
-1.78404e-06
1.47484e-06
-1.84245e-06
1.45008e-06
-1.88897e-06
1.38535e-06
-1.92111e-06
1.27694e-06
-1.93635e-06
1.12321e-06
-1.93225e-06
9.2403e-07
-1.90646e-06
6.79217e-07
-1.85667e-06
3.88352e-07
-1.78069e-06
5.1907e-08
-1.67643e-06
-3.28761e-07
-1.54197e-06
-7.51474e-07
-1.37564e-06
-1.21292e-06
-1.17614e-06
-1.7085e-06
-9.42529e-07
-2.23233e-06
-6.74352e-07
-2.77716e-06
-3.71652e-07
-3.33453e-06
-3.50271e-08
-3.8947e-06
3.34261e-07
-4.44647e-06
7.34363e-07
-4.97719e-06
1.16274e-06
-5.47136e-06
1.61656e-06
-5.91195e-06
2.09288e-06
-6.27934e-06
2.58928e-06
-6.56648e-06
3.10227e-06
-6.78893e-06
3.62691e-06
-6.96592e-06
4.15687e-06
-7.07731e-06
4.68771e-06
-7.11224e-06
5.21261e-06
-7.06198e-06
5.72875e-06
-6.9281e-06
6.22753e-06
-6.71626e-06
6.71068e-06
-6.41945e-06
7.16473e-06
-6.08481e-06
7.60197e-06
-5.63998e-06
7.99613e-06
-5.27379e-06
8.38279e-06
-4.67093e-06
8.70618e-06
-4.47858e-06
9.05097e-06
-3.6617e-06
9.30229e-06
-4.22091e-06
9.6533e-06
-3.46794e-06
-7.86875e-06
9.66997e-06
6.06056e-05
8.27141e-06
4.33954e-05
6.19595e-06
2.91246e-05
4.14647e-06
1.89122e-05
2.51257e-06
1.14298e-05
1.38423e-06
7.11089e-06
6.25542e-07
4.42898e-06
1.07799e-07
3.04151e-06
-2.583e-07
2.12465e-06
-5.29366e-07
1.6372e-06
-7.32974e-07
1.31467e-06
-8.93273e-07
1.16514e-06
-1.02272e-06
1.10647e-06
-1.13325e-06
1.12652e-06
-1.2314e-06
1.18793e-06
-1.322e-06
1.27178e-06
-1.40695e-06
1.35909e-06
-1.48696e-06
1.43749e-06
-1.56143e-06
1.4975e-06
-1.62921e-06
1.53181e-06
-1.68861e-06
1.53425e-06
-1.73771e-06
1.49917e-06
-1.77433e-06
1.42197e-06
-1.79618e-06
1.2988e-06
-1.80093e-06
1.12795e-06
-1.78628e-06
9.09386e-07
-1.75002e-06
6.42952e-07
-1.68996e-06
3.28298e-07
-1.60404e-06
-3.40106e-08
-1.49029e-06
-4.42519e-07
-1.34687e-06
-8.94893e-07
-1.17224e-06
-1.38755e-06
-9.6519e-07
-1.91555e-06
-7.24899e-07
-2.47262e-06
-4.50972e-07
-3.05109e-06
-1.43522e-07
-3.64198e-06
1.96805e-07
-4.23502e-06
5.68732e-07
-4.8184e-06
9.70416e-07
-5.37888e-06
1.39938e-06
-5.90032e-06
1.85287e-06
-6.36544e-06
2.3281e-06
-6.75457e-06
2.82258e-06
-7.06096e-06
3.3325e-06
-7.29885e-06
3.85271e-06
-7.48613e-06
4.37707e-06
-7.60167e-06
4.90124e-06
-7.63642e-06
5.41867e-06
-7.57941e-06
5.92661e-06
-7.43604e-06
6.41679e-06
-7.20645e-06
6.89098e-06
-6.89364e-06
7.33611e-06
-6.52994e-06
7.76442e-06
-6.06829e-06
8.14997e-06
-5.65934e-06
8.52854e-06
-5.04951e-06
8.84367e-06
-4.79371e-06
9.18182e-06
-3.99984e-06
9.42267e-06
-4.46176e-06
9.7639e-06
-3.80916e-06
-7.99568e-06
9.82894e-06
6.07767e-05
8.66299e-06
4.45614e-05
6.76411e-06
3.10234e-05
4.74968e-06
2.09267e-05
3.03991e-06
1.31395e-05
1.80147e-06
8.34932e-06
9.45666e-07
5.28478e-06
3.56107e-07
3.63107e-06
-6.3493e-08
2.54425e-06
-3.73229e-07
1.94694e-06
-6.05383e-07
1.54682e-06
-7.85945e-07
1.3457e-06
-9.28864e-07
1.24939e-06
-1.04744e-06
1.2451e-06
-1.14926e-06
1.28975e-06
-1.24018e-06
1.3627e-06
-1.32281e-06
1.44172e-06
-1.39844e-06
1.51311e-06
-1.46688e-06
1.56594e-06
-1.52731e-06
1.59224e-06
-1.57832e-06
1.58526e-06
-1.61823e-06
1.53908e-06
-1.64508e-06
1.44883e-06
-1.65679e-06
1.3105e-06
-1.65118e-06
1.12235e-06
-1.62615e-06
8.8435e-07
-1.57958e-06
5.9639e-07
-1.50945e-06
2.58169e-07
-1.4138e-06
-1.29662e-07
-1.29076e-06
-5.65562e-07
-1.13862e-06
-1.04703e-06
-9.55955e-07
-1.57021e-06
-7.41656e-07
-2.12985e-06
-4.94997e-07
-2.71928e-06
-2.15664e-07
-3.33042e-06
9.61608e-08
-3.95381e-06
4.39785e-07
-4.57865e-06
8.13907e-07
-5.19252e-06
1.21668e-06
-5.78165e-06
1.64567e-06
-6.32931e-06
2.0982e-06
-6.81797e-06
2.57156e-06
-7.22794e-06
3.06323e-06
-7.55262e-06
3.56912e-06
-7.80474e-06
4.08392e-06
-8.00093e-06
4.60169e-06
-8.11943e-06
5.11818e-06
-8.15291e-06
5.62709e-06
-8.08833e-06
6.12578e-06
-7.93472e-06
6.60632e-06
-7.68699e-06
7.07047e-06
-7.35778e-06
7.50562e-06
-6.96509e-06
7.9239e-06
-6.48658e-06
8.29984e-06
-6.03528e-06
8.66917e-06
-5.41883e-06
8.97519e-06
-5.09973e-06
9.3053e-06
-4.32995e-06
9.53533e-06
-4.6918e-06
9.86515e-06
-4.13898e-06
-8.09384e-06
9.96508e-06
6.08116e-05
9.01586e-06
4.55106e-05
7.30582e-06
3.27335e-05
5.35847e-06
2.2874e-05
3.60006e-06
1.48979e-05
2.26162e-06
9.68776e-06
1.30768e-06
6.23872e-06
6.41455e-07
4.2973e-06
1.63757e-07
3.02195e-06
-1.88427e-07
2.29912e-06
-4.52421e-07
1.81081e-06
-6.55952e-07
1.54923e-06
-8.14575e-07
1.40801e-06
-9.42901e-07
1.37343e-06
-1.04967e-06
1.39652e-06
-1.14182e-06
1.45485e-06
-1.22279e-06
1.52269e-06
-1.2945e-06
1.58482e-06
-1.35725e-06
1.62869e-06
-1.41059e-06
1.64559e-06
-1.45342e-06
1.62809e-06
-1.48432e-06
1.56998e-06
-1.50157e-06
1.46608e-06
-1.50329e-06
1.31222e-06
-1.48749e-06
1.10655e-06
-1.45223e-06
8.4909e-07
-1.39554e-06
5.39701e-07
-1.31552e-06
1.78146e-07
-1.21032e-06
-2.3486e-07
-1.07819e-06
-6.97691e-07
-9.17556e-07
-1.20767e-06
-7.27093e-07
-1.76068e-06
-5.05806e-07
-2.35113e-06
-2.53064e-07
-2.97202e-06
3.13606e-08
-3.61485e-06
3.47221e-07
-4.26967e-06
6.93772e-07
-4.9252e-06
1.06968e-06
-5.56843e-06
1.47308e-06
-6.18505e-06
1.90158e-06
-6.75781e-06
2.35255e-06
-7.26893e-06
2.82334e-06
-7.69873e-06
3.31136e-06
-8.04064e-06
3.81234e-06
-8.30571e-06
4.32085e-06
-8.50944e-06
4.83112e-06
-8.6297e-06
5.339e-06
-8.66079e-06
5.83847e-06
-8.5878e-06
6.32695e-06
-8.4232e-06
6.79688e-06
-8.15691e-06
7.25002e-06
-7.81092e-06
7.67424e-06
-7.3893e-06
8.08153e-06
-6.89387e-06
8.44695e-06
-6.4007e-06
8.80603e-06
-5.77791e-06
9.10217e-06
-5.39588e-06
9.4231e-06
-4.65088e-06
9.64198e-06
-4.91068e-06
9.95915e-06
-4.45614e-06
-8.16559e-06
1.00814e-05
6.07302e-05
9.33169e-06
4.62603e-05
7.81694e-06
3.42482e-05
5.96482e-06
2.47261e-05
4.18658e-06
1.66762e-05
2.76245e-06
1.11119e-05
1.71222e-06
7.28894e-06
9.65609e-07
5.04391e-06
4.25517e-07
3.56204e-06
2.68972e-08
2.69774e-06
-2.72338e-07
2.11005e-06
-5.01728e-07
1.77862e-06
-6.78539e-07
1.58482e-06
-8.18602e-07
1.51349e-06
-9.31843e-07
1.50976e-06
-1.02636e-06
1.54936e-06
-1.10648e-06
1.60281e-06
-1.17488e-06
1.65322e-06
-1.2324e-06
1.68621e-06
-1.27901e-06
1.6922e-06
-1.31395e-06
1.66303e-06
-1.33608e-06
1.5921e-06
-1.34393e-06
1.47393e-06
-1.33585e-06
1.30414e-06
-1.31005e-06
1.08075e-06
-1.26475e-06
8.03783e-07
-1.19811e-06
4.73065e-07
-1.10838e-06
8.84092e-08
-9.93816e-07
-3.4942e-07
-8.52797e-07
-8.38709e-07
-6.83872e-07
-1.37659e-06
-4.85841e-07
-1.95871e-06
-2.57815e-07
-2.57916e-06
7.388e-10
-3.23058e-06
2.89963e-07
-3.90407e-06
6.09544e-07
-4.58925e-06
9.58675e-07
-5.27433e-06
1.33598e-06
-5.94574e-06
1.73958e-06
-6.58865e-06
2.16709e-06
-7.18532e-06
2.61593e-06
-7.71777e-06
3.08348e-06