/*--------------------------------*- C++ -*----------------------------------*\
| =========                 |                                                 |
| \\      /  F ield         | OpenFOAM: The Open Source CFD Toolbox           |
|  \\    /   O peration     | Version:  2.4.0                                 |
|   \\  /    A nd           | Web:      www.OpenFOAM.org                      |
|    \\/     M anipulation  |                                                 |
\*---------------------------------------------------------------------------*/
FoamFile
{
    version     2.0;
    format      ascii;
    class       volScalarField;
    location    "3.61";
    object      nut;
}
// * * * * * * * * * * * * * * * * * * * * * * * * * * * * * * * * * * * * * //

dimensions      [0 2 -1 0 0 0 0];

internalField   nonuniform List<scalar> 
6000
(
1.24054e-05
1.01569e-05
5.69024e-06
3.07109e-06
1.72853e-06
2.93338e-06
2.61623e-06
3.48859e-06
3.95197e-06
4.99924e-06
6.09873e-06
7.38041e-06
8.61675e-06
9.85177e-06
1.10371e-05
1.22675e-05
1.3412e-05
1.42039e-05
1.4342e-05
1.26475e-05
1.04529e-05
9.72091e-06
1.40995e-05
1.78918e-05
2.12151e-05
2.37513e-05
2.55074e-05
2.67389e-05
2.76113e-05
2.82245e-05
2.86328e-05
2.88741e-05
2.89884e-05
2.8984e-05
2.88744e-05
2.86713e-05
2.83839e-05
2.80194e-05
2.75829e-05
2.70761e-05
2.64953e-05
2.58317e-05
2.5072e-05
2.43776e-05
2.44407e-05
2.43605e-05
2.41175e-05
2.37178e-05
2.31809e-05
2.25446e-05
2.18292e-05
2.10604e-05
2.01909e-05
1.92332e-05
1.81333e-05
1.70439e-05
1.58155e-05
1.4847e-05
1.35898e-05
1.29479e-05
2.33582e-05
3.4783e-05
1.72035e-05
7.96287e-06
4.61764e-06
7.33493e-06
1.44445e-05
1.73429e-05
2.34401e-05
2.90898e-05
3.56935e-05
4.4117e-05
5.36569e-05
6.57754e-05
8.03819e-05
9.62137e-05
0.000113159
0.000127672
0.000124893
9.5097e-05
6.31805e-05
6.94209e-05
9.62004e-05
0.000111393
0.000137531
0.000164029
0.000183144
0.000196359
0.000205641
0.000212412
0.000217448
0.00022123
0.000223567
0.000225088
0.000226392
0.000227684
0.000229128
0.000230849
0.000232935
0.000235413
0.000238199
0.000241064
0.000243518
0.000240273
0.000228278
0.000213975
0.000197211
0.000178331
0.000158094
0.000137554
0.000117677
9.93315e-05
8.19713e-05
6.76969e-05
5.62924e-05
4.84674e-05
4.17696e-05
3.75065e-05
3.19797e-05
2.90268e-05
2.89001e-05
5.03166e-05
2.44248e-05
1.00464e-05
1.05295e-05
1.73112e-05
2.97649e-05
3.66044e-05
4.68675e-05
5.82395e-05
7.20424e-05
9.01305e-05
0.000110468
0.000134954
0.000162871
0.000192703
0.000223829
0.000247899
0.00024207
0.000182984
0.000120591
0.000125778
0.000173343
0.000219267
0.000290363
0.000355501
0.000401785
0.000434267
0.000457327
0.000473886
0.000485562
0.000493355
0.000497484
0.000499351
0.000499938
0.000499738
0.000499153
0.000498512
0.000498059
0.000497906
0.000497921
0.000497632
0.000495946
0.00048547
0.000465685
0.000441478
0.000412278
0.000378398
0.000340977
0.000301824
0.000262678
0.000225321
0.000188617
0.000155099
0.000124745
0.000102151
8.16779e-05
7.068e-05
5.63234e-05
5.23407e-05
3.21951e-05
5.72186e-05
2.78113e-05
1.09768e-05
1.69409e-05
2.80051e-05
4.34267e-05
5.41239e-05
6.79371e-05
8.49088e-05
0.000106004
0.000133204
0.000163333
0.000197996
0.000236122
0.000276392
0.000317312
0.000346817
0.00033763
0.00025618
0.000169043
0.000174028
0.00024366
0.000326594
0.000442071
0.000542799
0.000615014
0.000666425
0.000703123
0.000729151
0.000746861
0.000757803
0.000762843
0.000763898
0.000762235
0.000758645
0.000753788
0.000748225
0.000742392
0.000736538
0.000730551
0.000723808
0.000714755
0.00069679
0.00067114
0.000639866
0.000602063
0.000557924
0.000508724
0.000456636
0.000403808
0.00035245
0.000301843
0.000254018
0.000208773
0.000172254
0.00013795
0.000117289
9.26789e-05
8.55268e-05
3.39566e-05
5.94472e-05
3.42279e-05
1.17752e-05
2.22065e-05
3.71157e-05
5.48439e-05
6.9158e-05
8.64762e-05
0.000108705
0.000136659
0.000171998
0.000210625
0.000253542
0.000299437
0.000347177
0.000394528
0.000426856
0.000414123
0.000316602
0.000209457
0.000217425
0.000309068
0.000429063
0.000584155
0.000715979
0.000811495
0.000880156
0.000929271
0.000963752
0.000986597
0.000999901
0.00100515
0.00100463
0.000999842
0.000991873
0.000981627
0.000969889
0.000957297
0.000944257
0.000930736
0.000916046
0.000898395
0.000873277
0.000842045
0.000804704
0.000760136
0.000708419
0.000650863
0.00058977
0.000527467
0.00046631
0.000406097
0.000348291
0.000292665
0.000245481
0.000200341
0.000170369
0.000136374
0.000125068
3.49041e-05
5.9045e-05
4.15902e-05
1.21549e-05
2.51155e-05
4.419e-05
6.41889e-05
8.20642e-05
0.000102917
0.000130043
0.0001643
0.000206853
0.000252823
0.000302462
0.000354223
0.000407103
0.000458378
0.000491751
0.000475399
0.00036689
0.000243417
0.000257463
0.0003705
0.000525567
0.000715285
0.000874125
0.000990314
0.00107441
0.0011346
0.0011765
0.00120368
0.00121874
0.00122369
0.00122107
0.00121266
0.00119976
0.00118353
0.00116494
0.00114483
0.00112379
0.00110188
0.00107844
0.00105171
0.00101963
0.000982654
0.000939612
0.000889277
0.000831644
0.000767998
0.000700627
0.000631883
0.000564088
0.000497387
0.00043283
0.000370178
0.00031529
0.000262291
0.000224505
0.000182953
0.000166865
3.54148e-05
5.72023e-05
4.71102e-05
1.46571e-05
2.46235e-05
4.91878e-05
7.16552e-05
9.319e-05
0.000117613
0.000149305
0.00018931
0.000238264
0.000290601
0.000345736
0.000401867
0.000458073
0.000511386
0.000544544
0.000524551
0.000409108
0.000272101
0.000294877
0.00042847
0.000615918
0.000835745
0.00101812
0.00115264
0.00125051
0.00132058
0.00136901
0.00139989
0.00141624
0.00142053
0.00141551
0.00140317
0.00138505
0.00136249
0.00133668
0.00130862
0.00127907
0.00124824
0.00121552
0.00117957
0.00114053
0.00109751
0.00104887
0.000993368
0.00093094
0.000862809
0.000791151
0.000718226
0.0006462
0.000575392
0.000506514
0.000439321
0.000379095
0.000320629
0.000276687
0.000229421
0.000208604
3.56741e-05
5.46495e-05
5.07964e-05
2.16362e-05
2.18288e-05
5.20477e-05
7.7341e-05
0.000102742
0.00013079
0.000166768
0.000212009
0.00026666
0.000324541
0.000384193
0.000443514
0.000501635
0.000555557
0.000587605
0.000564143
0.000444581
0.0002971
0.000330169
0.000483299
0.000700231
0.000946219
0.00114921
0.00130005
0.00141027
0.00148919
0.00154344
0.00157752
0.00159487
0.00159826
0.00159065
0.00157423
0.00155073
0.00152168
0.00148842
0.00145213
0.00141373
0.0013736
0.00133123
0.00128606
0.00123985
0.00119047
0.00113622
0.00107593
0.00100951
0.000938093
0.000863667
0.000788308
0.000713938
0.000640899
0.000569587
0.000499757
0.000436074
0.000374011
0.000325431
0.000274032
0.000248912
3.5784e-05
5.18356e-05
5.29138e-05
3.00236e-05
1.97107e-05
5.26108e-05
8.12499e-05
0.0001108
0.000142564
0.000182618
0.000232638
0.000292381
0.000355118
0.000418503
0.000480085
0.000539031
0.00059248
0.000622809
0.000596283
0.000474237
0.000320348
0.000363706
0.000535214
0.000778731
0.00104746
0.00126862
0.00143406
0.00155544
0.00164238
0.00170189
0.00173883
0.00175696
0.0017593
0.00174901
0.00172845
0.00169951
0.00166388
0.00162304
0.00157833
0.00153083
0.00148109
0.00142874
0.00137445
0.00132076
0.00126467
0.00120472
0.00113989
0.00107009
0.000996317
0.000920328
0.000843934
0.000768734
0.000694985
0.000622751
0.000551791
0.000486166
0.000421986
0.00037009
0.000315857
0.000287027
3.58062e-05
4.90308e-05
5.37353e-05
3.80522e-05
2.00566e-05
5.0669e-05
8.33208e-05
0.000117342
0.000152968
0.000196967
0.000251379
0.000315692
0.00038271
0.000449199
0.000512319
0.000571261
0.00062344
0.000651681
0.000622664
0.000499569
0.000342948
0.000395792
0.000584395
0.000851683
0.0011402
0.00137743
0.00155605
0.00168759
0.00178189
0.00184622
0.00188578
0.00190456
0.00190579
0.0018928
0.00186807
0.00183368
0.00179143
0.00174293
0.00168966
0.00163286
0.00157325
0.0015106
0.0014474
0.00138577
0.00132263
0.00125686
0.00118764
0.00111492
0.00103955
0.000962987
0.00088671
0.000811936
0.000738732
0.000666823
0.000595963
0.00052964
0.000464536
0.000410457
0.000354452
0.000322556
3.57785e-05
4.63896e-05
5.35341e-05
4.47207e-05
2.36795e-05
4.6336e-05
8.34724e-05
0.000122271
0.000161957
0.000209867
0.000268359
0.000336802
0.000407619
0.000476714
0.000540822
0.00059915
0.000649502
0.000675499
0.000644709
0.00052211
0.000365714
0.000426709
0.000631
0.000919365
0.00122509
0.00147664
0.0016672
0.00180808
0.00190919
0.00197804
0.00202004
0.00203941
0.00203951
0.00202382
0.00199497
0.00195515
0.00190628
0.00185007
0.00178813
0.00172184
0.00165213
0.00157901
0.00150692
0.00143692
0.00136641
0.00129466
0.00122114
0.00114586
0.00106951
0.000993201
0.000918017
0.000844731
0.000773139
0.000702607
0.000632874
0.000566891
0.000501848
0.000446554
0.000389653
0.000355328
3.57235e-05
4.39913e-05
5.25691e-05
4.98187e-05
3.00951e-05
4.09159e-05
8.16723e-05
0.000125439
0.000169424
0.000221317
0.000283663
0.00035587
0.00043009
0.000501404
0.000566094
0.000623387
0.000671569
0.00069536
0.000663649
0.000543241
0.000389366
0.000456736
0.000675174
0.000982053
0.00130273
0.00156706
0.00176853
0.00191805
0.00202555
0.00209867
0.00214301
0.00216295
0.00216194
0.0021436
0.00211068
0.00206547
0.00200998
0.00194604
0.00187534
0.00179941
0.00171935
0.00163574
0.00155465
0.00147589
0.00139767
0.00131977
0.001242
0.00116443
0.00108762
0.00101228
0.000939029
0.000868149
0.000799089
0.000730842
0.000663112
0.000598354
0.0005342
0.000478524
0.000421457
0.000385306
3.56549e-05
4.18677e-05
5.1071e-05
5.336e-05
3.71351e-05
3.62864e-05
7.80264e-05
0.000126685
0.000175205
0.000231259
0.000297333
0.000373016
0.000450316
0.000523559
0.000588555
0.000644559
0.000690423
0.00071223
0.000680555
0.000564139
0.000414538
0.000486158
0.000717056
0.00104002
0.00137367
0.00164944
0.00186089
0.00201847
0.00213201
0.00220923
0.00225584
0.00227635
0.00227428
0.00225336
0.00221644
0.00216589
0.00210382
0.00203212
0.00195258
0.00186687
0.00177626
0.00168228
0.00159194
0.00150405
0.00141782
0.00133359
0.00125156
0.00117194
0.00109509
0.00102133
0.000950744
0.000883075
0.000817353
0.000752189
0.000687228
0.000624459
0.0005619
0.000506563
0.00044995
0.000412532
3.5581e-05
4.00211e-05
4.92351e-05
5.54803e-05
4.3679e-05
3.39821e-05
7.28707e-05
0.00012588
0.000179095
0.000239584
0.000309368
0.000388324
0.000468454
0.000543419
0.00060856
0.00066317
0.000706746
0.00072695
0.000696343
0.000585716
0.000441772
0.000515272
0.000756791
0.00109353
0.00143837
0.00172438
0.00194502
0.00211016
0.00222945
0.00231062
0.00235948
0.00238059
0.00237752
0.0023541
0.00231325
0.00225744
0.00218882
0.00210935
0.00202092
0.0019253
0.00182394
0.00171988
0.00161991
0.00152258
0.00142804
0.0013373
0.00125099
0.00116948
0.00109296
0.00102129
0.000954019
0.000890273
0.000828606
0.000767235
0.000705719
0.00064561
0.000585262
0.000530893
0.000475268
0.000437093
3.5507e-05
3.8437e-05
4.7219e-05
5.6373e-05
4.93306e-05
3.64191e-05
6.6981e-05
0.000122997
0.000180874
0.000246125
0.000319724
0.000401843
0.000484622
0.00056118
0.000626405
0.00067965
0.000721126
0.000740248
0.000711761
0.000608593
0.00047149
0.000544388
0.000794528
0.00114286
0.00149726
0.00179243
0.00202154
0.00219378
0.00231857
0.0024036
0.00245469
0.00247645
0.00247247
0.00244663
0.00240195
0.00234094
0.00226581
0.00217856
0.00208119
0.00197557
0.00186335
0.0017495
0.00163953
0.00153246
0.00142937
0.00133193
0.0012413
0.00115802
0.00108213
0.00101301
0.000949605
0.000890413
0.000833436
0.000776501
0.000719036
0.000662184
0.000604586
0.000551742
0.000497566
0.000459102
3.54357e-05
3.7092e-05
4.51447e-05
5.62518e-05
5.39034e-05
4.1748e-05
6.14468e-05
0.000118192
0.000180343
0.000250669
0.000328307
0.000413583
0.000498904
0.000576999
0.000642338
0.000694365
0.000734064
0.000752723
0.000727372
0.000633092
0.000503947
0.000573831
0.00083043
0.00118824
0.00155073
0.00185406
0.00209096
0.00226991
0.0024
0.00248879
0.00254212
0.00256458
0.00255976
0.00253161
0.00248319
0.00241705
0.00233546
0.00224045
0.0021341
0.00201838
0.00189543
0.00177187
0.00165161
0.00153455
0.00142268
0.00131839
0.00122339
0.00113844
0.00106341
0.000997218
0.000938171
0.000884088
0.000832369
0.000780451
0.000727584
0.000674522
0.000620157
0.000569329
0.000517011
0.000478682
3.5369e-05
3.59592e-05
4.31024e-05
5.53304e-05
5.73157e-05
4.81527e-05
5.73017e-05
0.000111871
0.000177392
0.000252962
0.000334972
0.000423514
0.000511348
0.000590992
0.000656558
0.000707613
0.000745962
0.000764834
0.000743547
0.000659268
0.000539195
0.000603926
0.000864673
0.00122994
0.00159912
0.00190967
0.00215375
0.00233903
0.00247421
0.00256671
0.00262229
0.0026455
0.00263994
0.00260957
0.0025575
0.00248631
0.00239831
0.00229557
0.00218022
0.00205433
0.001921
0.00178762
0.00165684
0.00152963
0.0014088
0.00129753
0.00119811
0.00111155
0.00103757
0.000974613
0.000920332
0.000871841
0.000825883
0.000779504
0.00073173
0.000682939
0.000632239
0.000583867
0.000533769
0.000495963
3.53076e-05
3.50111e-05
4.11553e-05
5.38101e-05
5.95657e-05
5.44603e-05
5.67433e-05
0.000104762
0.000172072
0.000252746
0.000339519
0.000431563
0.000521967
0.000603239
0.000669218
0.000719624
0.000757123
0.0007769
0.00076047
0.000686966
0.000577058
0.000634989
0.000897447
0.0012682
0.00164276
0.00195962
0.00221027
0.00240154
0.00254164
0.00263778
0.00269561
0.00271965
0.00271343
0.00268094
0.00262531
0.00254916
0.00245481
0.00234436
0.00222
0.00208392
0.00194074
0.0017973
0.00165587
0.00151836
0.00138846
0.00127013
0.00116626
0.00107813
0.00100534
0.000945851
0.000896668
0.000854175
0.00081442
0.000774043
0.000731809
0.000687724
0.000641078
0.000595558
0.000548004
0.000511073
3.52519e-05
3.42216e-05
3.93443e-05
5.18719e-05
6.07135e-05
6.00453e-05
5.95101e-05
9.77954e-05
0.000164678
0.000249808
0.000341704
0.000437602
0.000530731
0.000613778
0.000680419
0.000730563
0.00076775
0.000789095
0.00077816
0.000715876
0.000617144
0.000667301
0.000928963
0.00130328
0.00168192
0.00200421
0.00226087
0.00245778
0.00260262
0.00270233
0.00276245
0.00278736
0.00278057
0.00274607
0.00268698
0.00260595
0.00250531
0.0023872
0.00225384
0.00210778
0.00195505
0.00180139
0.00164923
0.00150137
0.00136235
0.00123691
0.0011286
0.00103895
0.000967433
0.000911585
0.000867747
0.000831576
0.000798398
0.000764428
0.000728132
0.000689145
0.000646904
0.00060459
0.000559871
0.000524138
3.52018e-05
3.35671e-05
3.7693e-05
4.96729e-05
6.08647e-05
6.45843e-05
6.42267e-05
9.21384e-05
0.000155795
0.00024405
0.000341252
0.000441456
0.000537566
0.000622607
0.000690216
0.000740517
0.000777949
0.000801463
0.000796501
0.000745602
0.000658887
0.000701073
0.000959446
0.00133542
0.00171687
0.00204372
0.00230583
0.00250804
0.00265744
0.00276068
0.00282308
0.00284893
0.00284166
0.00280523
0.00274279
0.00265696
0.00255012
0.00242439
0.00228206
0.00212649
0.00196429
0.00180032
0.00163743
0.00147924
0.00133111
0.00119861
0.0010859
0.000994776
0.000924599
0.000872479
0.000834141
0.000804527
0.000778222
0.000751004
0.000720996
0.000687452
0.000649931
0.000611144
0.000569522
0.000535281
3.51571e-05
3.30263e-05
3.62116e-05
4.73442e-05
6.01555e-05
6.79266e-05
6.95473e-05
8.95854e-05
0.000146292
0.000235586
0.000337902
0.000442898
0.000542347
0.000629674
0.000698614
0.000749523
0.000787742
0.000813945
0.000815283
0.000775705
0.000701614
0.000736409
0.000989132
0.00136488
0.00174786
0.00207839
0.00234538
0.00255256
0.00270635
0.00281304
0.00287774
0.00290459
0.00289692
0.00285867
0.00279296
0.00270245
0.00258947
0.00245618
0.00230502
0.00214046
0.00196875
0.00179447
0.00162092
0.00145248
0.00129536
0.00115593
0.00103893
0.000946416
0.000877606
0.000829228
0.000796445
0.00077352
0.0007543
0.000734109
0.000710683
0.000682887
0.000650364
0.000615388
0.000577099
0.000544619
3.51175e-05
3.25811e-05
3.49007e-05
4.4991e-05
5.87393e-05
7.00325e-05
7.4657e-05
9.03045e-05
0.000137171
0.000224827
0.000331462
0.000441663
0.000544899
0.000634881
0.000705566
0.000757564
0.000797077
0.000826395
0.000834231
0.000805743
0.000744616
0.000773277
0.00101826
0.00139189
0.00177511
0.00210844
0.00237974
0.00259155
0.00274956
0.00285963
0.00292664
0.00295452
0.00294654
0.00290656
0.0028377
0.00274258
0.00262356
0.00248279
0.00232319
0.0021499
0.00196871
0.0017842
0.00160012
0.00142162
0.00125571
0.00110957
0.000988495
0.00089471
0.000827278
0.000782579
0.000755296
0.000739075
0.000727054
0.000714086
0.000697476
0.000675682
0.0006484
0.000617488
0.000582741
0.000552267
3.50825e-05
3.22156e-05
3.37542e-05
4.26942e-05
5.67751e-05
7.09391e-05
7.90573e-05
9.31284e-05
0.000130485
0.000212527
0.000321893
0.000437475
0.000544995
0.000638076
0.000710972
0.000764569
0.000805849
0.000838613
0.000853039
0.000835296
0.000787206
0.000811485
0.00104706
0.00141671
0.00179881
0.00213406
0.00240909
0.0026252
0.00278723
0.00290061
0.00296992
0.00299889
0.00299067
0.00294907
0.00287715
0.00277753
0.00265255
0.00250445
0.00233691
0.00215502
0.00196443
0.00176982
0.00157541
0.00138711
0.00121273
0.00106023
0.000935404
0.000840546
0.000774506
0.000733351
0.000711386
0.00070175
0.000696929
0.000691289
0.00068166
0.000666068
0.000644229
0.000617599
0.00058658
0.000558332
3.50517e-05
3.19165e-05
3.27616e-05
4.05128e-05
5.44179e-05
7.07391e-05
8.24474e-05
9.69285e-05
0.000127096
0.000200119
0.000309415
0.000430094
0.000542366
0.000639056
0.00071468
0.000770413
0.000813905
0.000850365
0.000871389
0.00086398
0.000828766
0.000850682
0.00107572
0.00143957
0.00181915
0.0021554
0.0024336
0.00265365
0.00281952
0.00293612
0.00300772
0.00303782
0.00302944
0.00298631
0.00291144
0.00280741
0.00267658
0.00252156
0.00234634
0.00215599
0.00195613
0.00175162
0.00154717
0.00134942
0.001167
0.00100863
0.000880499
0.000784865
0.000720256
0.000682441
0.000665481
0.000662158
0.000664407
0.000666094
0.00066353
0.000654281
0.000638041
0.000615876
0.000588746
0.000562921
3.50247e-05
3.16725e-05
3.19099e-05
3.84865e-05
5.1811e-05
6.95645e-05
8.4662e-05
0.000100843
0.000126574
0.000189225
0.000294672
0.000419421
0.000536826
0.000637618
0.000716481
0.000774921
0.000821059
0.000861398
0.00088897
0.000891452
0.000868761
0.000890385
0.00110443
0.00146066
0.00183628
0.00217262
0.0024534
0.00267704
0.00284654
0.00296628
0.00304016
0.00307141
0.00306295
0.00301838
0.00294066
0.00283233
0.00269589
0.0025343
0.00235161
0.00215296
0.00194403
0.00172987
0.00151573
0.00130897
0.00111907
0.000955454
0.000824635
0.000728653
0.000665572
0.000630843
0.000618436
0.000620981
0.000630018
0.000638906
0.000643396
0.000640559
0.000630028
0.000612472
0.000589363
0.000566138
3.5001e-05
3.14741e-05
3.11849e-05
3.66392e-05
4.90813e-05
6.75733e-05
8.56368e-05
0.000104265
0.000128022
0.000180936
0.00027879
0.000405566
0.000528154
0.000633601
0.000716174
0.000777871
0.000827098
0.000871458
0.000905481
0.00091741
0.000906751
0.000930021
0.00113327
0.00148018
0.00185033
0.00218584
0.00246862
0.00269548
0.00286841
0.00299119
0.00306732
0.00309977
0.00309129
0.00304536
0.0029649
0.00285245
0.00271071
0.00254279
0.00235284
0.0021461
0.00192832
0.00170482
0.0014814
0.00126618
0.00106947
0.000901396
0.000768668
0.00067292
0.000611556
0.000579644
0.000571202
0.000578979
0.000594347
0.000610168
0.000621591
0.000625157
0.000620385
0.000607541
0.000588558
0.000568084
3.49803e-05
3.13132e-05
3.05725e-05
3.49818e-05
4.63359e-05
6.49372e-05
8.53879e-05
0.000106792
0.000130477
0.00017562
0.000263189
0.000388951
0.000516217
0.000626772
0.000713597
0.000779008
0.00083178
0.00088029
0.000920643
0.000941591
0.000942384
0.000968988
0.0011623
0.00149825
0.00186137
0.00219514
0.00247934
0.00270907
0.00288522
0.00301093
0.00308929
0.00312294
0.00311451
0.00306733
0.00298427
0.00286795
0.00272115
0.00254712
0.00235014
0.00213553
0.00190917
0.0016767
0.00144449
0.00122143
0.00101872
0.000847115
0.000713429
0.000618671
0.000559344
0.000530002
0.000524825
0.000536999
0.000558045
0.000580368
0.000598477
0.000608342
0.000609314
0.00060124
0.000586456
0.00056886
3.49623e-05
3.11834e-05
3.00586e-05
3.35155e-05
4.36606e-05
6.18302e-05
8.39951e-05
0.000108172
0.000133117
0.000172956
0.000249253
0.000370374
0.000501041
0.000616925
0.000708531
0.000778114
0.000834831
0.000887646
0.000934196
0.000963766
0.000975382
0.0010067
0.00119135
0.00151454
0.00186961
0.00220078
0.00248574
0.0027179
0.00289704
0.00302557
0.00310611
0.003141
0.00313269
0.00308438
0.00299891
0.00287892
0.00272729
0.00254739
0.00234361
0.00212139
0.00188676
0.00164573
0.00140527
0.0011751
0.000967282
0.000793229
0.000659695
0.000566849
0.000510038
0.000483109
0.000480436
0.000495976
0.000521834
0.000550041
0.000574445
0.0005904
0.000597029
0.00059373
0.000583182
0.000568566
3.49465e-05
3.1079e-05
2.96303e-05
3.22339e-05
4.11207e-05
5.84199e-05
8.15883e-05
0.00010827
0.000135311
0.000172205
0.000237956
0.000350973
0.000482893
0.000603922
0.000700758
0.000774973
0.00083597
0.000893282
0.000945898
0.000983736
0.00100553
0.00104265
0.00121968
0.00152896
0.00187509
0.00220287
0.00248796
0.00272212
0.00290398
0.00303519
0.00311788
0.00315401
0.0031459
0.0030966
0.00300889
0.00288544
0.0027292
0.00254367
0.00233335
0.00210379
0.00186125
0.00161212
0.00136402
0.00112752
0.000915613
0.000740303
0.000608157
0.000518282
0.000464629
0.000440107
0.000439202
0.000456924
0.000486503
0.000519771
0.00054992
0.000571639
0.000583755
0.000585177
0.000578865
0.000567304
3.49327e-05
3.09955e-05
2.92756e-05
3.11261e-05
3.87617e-05
5.48592e-05
7.83333e-05
0.00010705
0.000136605
0.0001725
0.000229633
0.000332066
0.000462343
0.000587749
0.000690087
0.000769374
0.00083494
0.000896946
0.000955524
0.00100132
0.00103268
0.00107643
0.00124651
0.00154135
0.00187783
0.00220148
0.00248611
0.00272184
0.00290615
0.00303988
0.00312466
0.00316206
0.00315422
0.00310406
0.00301429
0.00288758
0.00272696
0.00253604
0.00231944
0.00208285
0.00183278
0.00157605
0.00132096
0.00107901
0.000864114
0.000688827
0.000559383
0.000473625
0.000423903
0.000401977
0.000402243
0.000420903
0.000452901
0.000490191
0.00052536
0.000552386
0.000569728
0.000575757
0.000573638
0.000565175
3.49206e-05
3.09291e-05
2.89839e-05
3.0178e-05
3.66121e-05
5.12812e-05
7.44179e-05
0.000104558
0.000136695
0.000173037
0.000224003
0.000314875
0.000440275
0.000568583
0.000676389
0.000761113
0.000831547
0.00089841
0.000962862
0.00101636
0.0010567
0.00110764
0.00127112
0.00155152
0.00187781
0.00219668
0.00248028
0.00271716
0.00290364
0.00303974
0.00312653
0.00316521
0.00315773
0.00310684
0.00301516
0.0028854
0.00272063
0.00252458
0.00230197
0.00205868
0.00180148
0.00153769
0.00127634
0.00102986
0.000813145
0.000639213
0.000513806
0.000433315
0.000388365
0.000369417
0.000370512
0.000388953
0.000421912
0.000461965
0.000501248
0.000532991
0.000555199
0.000565651
0.000567637
0.000562284
3.49101e-05
3.08766e-05
2.87455e-05
2.93738e-05
3.46858e-05
4.77957e-05
7.00388e-05
0.000100903
0.000135404
0.000173155
0.000220375
0.000300237
0.000417812
0.000546841
0.000659639
0.000750021
0.000825608
0.000897475
0.000967709
0.00102871
0.00107751
0.00113578
0.00129302
0.00155924
0.00187497
0.00218848
0.00247052
0.00270816
0.00289653
0.00303483
0.00312357
0.00316353
0.00315648
0.00310498
0.00301157
0.00287895
0.00271027
0.00250934
0.00228102
0.00203138
0.0017675
0.00149723
0.00123036
0.000980347
0.000763021
0.000591788
0.000471709
0.000397564
0.000358207
0.000342757
0.000344655
0.000361985
0.000394407
0.000435776
0.000478086
0.000513817
0.000540431
0.000555051
0.000561003
0.000558739
3.49009e-05
3.08354e-05
2.85521e-05
2.86975e-05
3.29849e-05
4.4488e-05
6.53886e-05
9.6253e-05
0.000132665
0.000172356
0.000217895
0.000288442
0.00039614
0.000523209
0.00063997
0.000735987
0.000816958
0.000893962
0.000969892
0.00103822
0.00109505
0.0011604
0.00131178
0.00156428
0.00186921
0.0021769
0.0024569
0.00269489
0.00288488
0.00302522
0.00311584
0.00315708
0.00315052
0.00309853
0.00300356
0.0028683
0.00269594
0.00249039
0.00225667
0.00200104
0.00173096
0.00145481
0.00118322
0.000930707
0.000714012
0.000546795
0.000433242
0.000366387
0.000333337
0.000321948
0.000324909
0.000340648
0.000371173
0.000412291
0.000456378
0.000495235
0.000525695
0.000544153
0.000553882
0.000554649
3.48929e-05
3.08034e-05
2.83965e-05
2.81333e-05
3.15029e-05
4.14192e-05
6.06459e-05
9.0811e-05
0.000128503
0.000170292
0.00021573
0.000279241
0.000376281
0.000498603
0.000617713
0.000718997
0.000805466
0.00088772
0.000969312
0.00104476
0.00110933
0.00118114
0.00132707
0.00156641
0.00186044
0.00216189
0.00243942
0.0026774
0.00286874
0.00301096
0.00310338
0.0031459
0.00313991
0.00308756
0.00299119
0.00285349
0.00267768
0.0024678
0.00222898
0.00196776
0.00169197
0.00141058
0.00113512
0.000881167
0.000666346
0.000504402
0.000398439
0.000339642
0.000313462
0.00030664
0.000311102
0.000325211
0.000352807
0.000392126
0.000436616
0.000477617
0.000511266
0.000533162
0.000546426
0.000550128
3.48858e-05
3.07788e-05
2.82722e-05
2.76663e-05
3.02267e-05
3.86282e-05
5.59665e-05
8.48047e-05
0.00012303
0.000166753
0.00021317
0.000272003
0.000358874
0.000474061
0.000593418
0.000699168
0.000791055
0.000878607
0.000965885
0.00104822
0.00112032
0.00119766
0.00133864
0.00156542
0.00184852
0.00214342
0.0024181
0.00265572
0.00284815
0.00299209
0.00308624
0.00313005
0.00312469
0.0030721
0.0029745
0.00283456
0.00265555
0.00244161
0.00219803
0.00193164
0.00165065
0.00136469
0.00108623
0.000831932
0.000620212
0.000464715
0.000367253
0.000317098
0.000298175
0.000296313
0.000302756
0.000315544
0.000339631
0.00037579
0.000419257
0.000461322
0.000497421
0.000522283
0.000538788
0.000545293
3.48797e-05
3.07602e-05
2.81741e-05
2.72829e-05
2.91397e-05
3.61346e-05
5.14784e-05
7.84685e-05
0.000116423
0.00016165
0.000209661
0.000265919
0.000344078
0.000450579
0.000567834
0.000676783
0.000773731
0.000866503
0.00095948
0.00104862
0.00112782
0.00120992
0.00134634
0.00156117
0.00183334
0.00212142
0.00239291
0.00262986
0.00282315
0.00296865
0.00306445
0.00310955
0.00310489
0.00305218
0.00295353
0.00281156
0.0026296
0.00241188
0.0021639
0.00189274
0.0016071
0.00131727
0.00103671
0.000783189
0.000575767
0.000427789
0.000339583
0.000298478
0.000287042
0.000290396
0.000299241
0.000311196
0.00033165
0.000363631
0.000404705
0.000446692
0.000484426
0.000511723
0.000531127
0.000540261
3.48743e-05
3.07464e-05
2.80974e-05
2.69705e-05
2.82231e-05
3.39417e-05
4.72789e-05
7.20281e-05
0.000108916
0.000155004
0.000204812
0.000260166
0.0003316
0.000428922
0.000541835
0.000652302
0.000753612
0.000851323
0.000949986
0.00104579
0.00113176
0.00121799
0.00135012
0.00155356
0.00181481
0.00209583
0.00236382
0.00259983
0.00279375
0.00294067
0.00303805
0.00308444
0.00308055
0.00302784
0.0029283
0.00278453
0.00259987
0.00237867
0.00212664
0.00185117
0.00156144
0.00126846
0.000986747
0.000735113
0.000533141
0.000393645
0.000315298
0.000283497
0.000279649
0.000288353
0.000299908
0.000311541
0.000328581
0.000355794
0.000393285
0.00043404
0.00047254
0.000501686
0.000523599
0.000535154
3.48695e-05
3.07364e-05
2.80383e-05
2.67182e-05
2.74572e-05
3.20406e-05
4.34351e-05
6.56877e-05
0.000100779
0.000146937
0.000198385
0.000254016
0.000320827
0.000409487
0.000516299
0.000626343
0.000730946
0.000833157
0.000937321
0.00103959
0.00113209
0.00122195
0.00135
0.00154256
0.00179288
0.00206658
0.00233081
0.00256562
0.00275996
0.00290816
0.00300706
0.00305475
0.00305169
0.00299911
0.00289887
0.0027535
0.0025664
0.00234204
0.00208632
0.00180701
0.00151377
0.0012184
0.000936492
0.000687871
0.000492439
0.000362277
0.00029425
0.000271883
0.000275627
0.000289718
0.00030417
0.000315921
0.000329958
0.000352224
0.000385218
0.000423642
0.000462005
0.000492371
0.000516364
0.000530093
3.48654e-05
3.07294e-05
2.79935e-05
2.65163e-05
2.6823e-05
3.04138e-05
3.99859e-05
5.9619e-05
9.23011e-05
0.000137653
0.000190282
0.000246888
0.000310989
0.00039226
0.000491963
0.000599634
0.00070612
0.000812166
0.000921442
0.00102991
0.00112876
0.00122192
0.00134607
0.00152821
0.00176755
0.00203364
0.00229383
0.0025272
0.00272178
0.00287113
0.00297148
0.00302048
0.00301834
0.00296602
0.00286525
0.00271851
0.00252924
0.00230203
0.00204302
0.00176034
0.00146419
0.00116722
0.000886111
0.000641615
0.00045375
0.000333663
0.000276291
0.000263382
0.000274653
0.000294096
0.000311533
0.000323729
0.000335233
0.000352688
0.000380605
0.000415727
0.000453045
0.000483968
0.000509578
0.000525203
3.48617e-05
3.07248e-05
2.79603e-05
2.63563e-05
2.63023e-05
2.90378e-05
3.69457e-05
5.39556e-05
8.3764e-05
0.000127431
0.000180535
0.000238369
0.000301303
0.000376867
0.000469295
0.000572917
0.000679651
0.00078856
0.00090235
0.00101668
0.00112169
0.001218
0.00133845
0.00151061
0.00173889
0.00199702
0.00225286
0.00248455
0.0026792
0.00282958
0.00293133
0.00298166
0.00298051
0.00292859
0.00282747
0.00267959
0.00248843
0.0022587
0.0019968
0.00171124
0.00141283
0.00111507
0.00083577
0.000596494
0.000417147
0.00030777
0.000261267
0.000257761
0.000276448
0.000301157
0.000321589
0.000334452
0.000343867
0.000356847
0.000379429
0.000410466
0.000445863
0.000476659
0.000503391
0.000520604
3.48586e-05
3.07221e-05
2.79363e-05
2.6231e-05
2.58787e-05
2.78865e-05
3.43092e-05
4.87901e-05
7.54285e-05
0.000116595
0.000169295
0.000228209
0.000291071
0.000362696
0.000448429
0.000546838
0.000652136
0.000762653
0.000880106
0.000999833
0.00111082
0.00121029
0.0013273
0.0014899
0.00170701
0.00195677
0.00220791
0.00243767
0.0026322
0.00278351
0.00288661
0.0029383
0.00293823
0.00288685
0.00278557
0.00263679
0.00244401
0.00221211
0.00194773
0.00165982
0.0013598
0.00106209
0.000785636
0.000552647
0.000382693
0.000284558
0.00024903
0.000254809
0.000280769
0.000310625
0.000334008
0.000347673
0.000355377
0.000364309
0.000381564
0.000407962
0.000440636
0.000470617
0.000497954
0.000516418
3.48558e-05
3.07209e-05
2.79198e-05
2.61341e-05
2.5537e-05
2.69326e-05
3.20561e-05
4.41764e-05
6.7515e-05
0.000105498
0.000156815
0.00021632
0.00027974
0.000349025
0.00042917
0.000521845
0.000624189
0.000734862
0.000854838
0.000979388
0.00109608
0.00119884
0.00131278
0.00146626
0.0016721
0.001913
0.002159
0.00238655
0.00258079
0.00273293
0.00283732
0.0028904
0.0028915
0.00284081
0.00273957
0.00259013
0.00239604
0.00216231
0.00189589
0.00160617
0.00130521
0.00100843
0.00073588
0.000510205
0.000350442
0.000263979
0.000239431
0.000254331
0.000287401
0.000322262
0.000348519
0.000363061
0.000369359
0.000374687
0.00038681
0.000408246
0.000437511
0.000466001
0.000493408
0.000512765
3.48533e-05
3.07208e-05
2.79091e-05
2.60604e-05
2.5264e-05
2.61498e-05