/*--------------------------------*- C++ -*----------------------------------*\
| =========                 |                                                 |
| \\      /  F ield         | OpenFOAM: The Open Source CFD Toolbox           |
|  \\    /   O peration     | Version:  2.4.0                                 |
|   \\  /    A nd           | Web:      www.OpenFOAM.org                      |
|    \\/     M anipulation  |                                                 |
\*---------------------------------------------------------------------------*/
FoamFile
{
    version     2.0;
    format      ascii;
    class       volVectorField;
    location    "0.35";
    object      U;
}
// * * * * * * * * * * * * * * * * * * * * * * * * * * * * * * * * * * * * * //

dimensions      [0 1 -1 0 0 0 0];

internalField   nonuniform List<vector> 
2320
(
(0.878565 -1.4305e-05 0)
(0.87812 -4.75009e-05 0)
(0.875428 -8.58244e-05 0)
(0.874954 -0.000131312 0)
(0.876112 -0.000189339 0)
(0.87746 -0.000266468 0)
(0.878721 -0.00036985 0)
(0.880316 -0.000508497 0)
(0.882621 -0.000694663 0)
(0.885851 -0.000944719 0)
(0.890235 -0.00127998 0)
(0.896139 -0.00172778 0)
(0.904083 -0.00232272 0)
(0.914746 -0.00310764 0)
(0.928985 -0.00413394 0)
(0.947872 -0.00546034 0)
(0.972728 -0.00714956 0)
(1.00513 -0.00926137 0)
(1.04687 -0.0118418 0)
(1.09989 -0.0149076 0)
(0.878564 -4.3974e-05 0)
(0.878114 -0.000141707 0)
(0.875417 -0.000254198 0)
(0.874934 -0.000389709 0)
(0.876076 -0.000563208 0)
(0.877402 -0.000793138 0)
(0.878633 -0.00110081 0)
(0.880186 -0.00151349 0)
(0.882436 -0.00206786 0)
(0.885591 -0.00281272 0)
(0.889876 -0.00381163 0)
(0.895649 -0.00514633 0)
(0.903423 -0.00692047 0)
(0.913868 -0.00926264 0)
(0.927833 -0.0123274 0)
(0.946385 -0.0162919 0)
(0.970844 -0.0213463 0)
(1.0028 -0.0276727 0)
(1.04406 -0.035413 0)
(1.0966 -0.0446215 0)
(0.878563 -7.37424e-05 0)
(0.878107 -0.000232441 0)
(0.875398 -0.000414992 0)
(0.874895 -0.000637716 0)
(0.876007 -0.000923481 0)
(0.87729 -0.00130102 0)
(0.878462 -0.00180555 0)
(0.879935 -0.00248257 0)
(0.882076 -0.00339269 0)
(0.885085 -0.00461619 0)
(0.889175 -0.00625791 0)
(0.894691 -0.00845317 0)
(0.902131 -0.0113741 0)
(0.912148 -0.0152351 0)
(0.925574 -0.020295 0)
(0.943465 -0.026852 0)
(0.96714 -0.0352294 0)
(0.998198 -0.0457399 0)
(1.0385 -0.0586333 0)
(1.0901 -0.0740124 0)
(0.878562 -0.000101318 0)
(0.878097 -0.000317206 0)
(0.87537 -0.000565744 0)
(0.874838 -0.000870552 0)
(0.875906 -0.00126179 0)
(0.877126 -0.00177787 0)
(0.878211 -0.00246732 0)
(0.879565 -0.00339309 0)
(0.881545 -0.00463857 0)
(0.884338 -0.00631411 0)
(0.88814 -0.00856434 0)
(0.893276 -0.0115767 0)
(0.90022 -0.0155907 0)
(0.909599 -0.0209061 0)
(0.92222 -0.0278876 0)
(0.939119 -0.0369588 0)
(0.96161 -0.0485852 0)
(0.991313 -0.0632241 0)
(1.03015 -0.0812548 0)
(1.0803 -0.102847 0)
(0.87856 -0.000126222 0)
(0.878085 -0.000394367 0)
(0.875335 -0.000703016 0)
(0.874764 -0.00108233 0)
(0.875775 -0.00156947 0)
(0.876914 -0.00221182 0)
(0.877886 -0.00307005 0)
(0.879086 -0.00422319 0)
(0.880856 -0.00577586 0)
(0.883367 -0.0078666 0)
(0.886792 -0.0106777 0)
(0.89143 -0.0144464 0)
(0.897722 -0.0194779 0)
(0.906259 -0.0261566 0)
(0.917813 -0.0349546 0)
(0.933389 -0.0464264 0)
(0.95429 -0.0611928 0)
(0.982159 -0.0798748 0)
(1.01901 -0.103014 0)
(1.06715 -0.130875 0)
(0.878559 -0.000147974 0)
(0.87807 -0.000461951 0)
(0.875292 -0.000823224 0)
(0.874675 -0.00126773 0)
(0.875617 -0.00183903 0)
(0.876657 -0.00259242 0)
(0.877493 -0.00359922 0)
(0.878506 -0.0049529 0)
(0.880024 -0.00677728 0)
(0.882192 -0.00923667 0)
(0.885159 -0.0125481 0)
(0.889188 -0.0169958 0)
(0.894681 -0.0229477 0)
(0.902181 -0.0308714 0)
(0.912412 -0.0413478 0)
(0.926336 -0.0550681 0)
(0.945233 -0.0728252 0)
(0.970767 -0.0954274 0)
(1.00504 -0.123626 0)
(1.05058 -0.157829 0)
(0.878557 -0.00016608 0)
(0.878054 -0.00051825 0)
(0.875243 -0.000923374 0)
(0.874573 -0.00142226 0)
(0.875436 -0.00206393 0)
(0.876363 -0.00291031 0)
(0.877043 -0.00404178 0)
(0.877841 -0.0055642 0)
(0.879065 -0.00761818 0)
(0.880838 -0.0103907 0)
(0.883274 -0.0141301 0)
(0.886595 -0.0191632 0)
(0.891153 -0.0259173 0)
(0.897433 -0.0349398 0)
(0.906095 -0.0469216 0)
(0.91804 -0.0626949 0)
(0.934512 -0.0832474 0)
(0.957183 -0.109595 0)
(0.988233 -0.142781 0)
(1.03054 -0.183403 0)
(0.878555 -0.000180108 0)
(0.878035 -0.000561865 0)
(0.875189 -0.00100098 0)
(0.87446 -0.0015421 0)
(0.875235 -0.00223856 0)
(0.876038 -0.00315753 0)
(0.876544 -0.00438661 0)
(0.877104 -0.00604175 0)
(0.878003 -0.00827737 0)
(0.879335 -0.0112995 0)
(0.881177 -0.0153832 0)
(0.883702 -0.0208931 0)
(0.887205 -0.0283103 0)
(0.892096 -0.0382576 0)
(0.898958 -0.051535 0)
(0.908605 -0.0691178 0)
(0.922229 -0.0922154 0)
(0.941461 -0.122061 0)
(0.968617 -0.160148 0)
(1.00692 -0.207173 0)
(0.878553 -0.000189716 0)
(0.878016 -0.000591708 0)
(0.875132 -0.00105408 0)
(0.874339 -0.00162422 0)
(0.87502 -0.0023585 0)
(0.87569 -0.0033278 0)
(0.87601 -0.00462489 0)
(0.876314 -0.00637316 0)
(0.876862 -0.00873752 0)
(0.877717 -0.0119388 0)
(0.878914 -0.0162734 0)
(0.880572 -0.0221374 0)
(0.882915 -0.0300591 0)
(0.886269 -0.0407293 0)
(0.89112 -0.0550538 0)
(0.898162 -0.0741504 0)
(0.908521 -0.0994736 0)
(0.923684 -0.13249 0)
(0.946287 -0.175333 0)
(0.979334 -0.228555 0)
(0.878551 -0.000194663 0)
(0.877996 -0.000607023 0)
(0.875072 -0.00108131 0)
(0.874214 -0.00166651 0)
(0.874797 -0.00242066 0)
(0.875327 -0.00341665 0)
(0.875453 -0.00475024 0)
(0.875488 -0.00654939 0)
(0.875668 -0.00898573 0)
(0.876021 -0.01229 0)
(0.876536 -0.016774 0)
(0.877272 -0.0228575 0)
(0.878374 -0.0311069 0)
(0.880068 -0.0422711 0)
(0.882721 -0.0573549 0)
(0.886877 -0.0776114 0)
(0.893553 -0.104758 0)
(0.904017 -0.140533 0)
(0.921297 -0.187808 0)
(0.947394 -0.247031 0)
(0.878549 -0.000194823 0)
(0.877975 -0.000607407 0)
(0.875011 -0.00108196 0)
(0.874086 -0.00166782 0)
(0.874569 -0.00242332 0)
(0.874958 -0.00342156 0)
(0.874886 -0.00475898 0)
(0.874647 -0.00656503 0)
(0.874451 -0.009014 0)
(0.874288 -0.0123412 0)
(0.874099 -0.0168667 0)
(0.873878 -0.0230249 0)
(0.873683 -0.03141 0)
(0.873624 -0.0428135 0)
(0.873928 -0.0583319 0)
(0.874957 -0.0793258 0)
(0.877526 -0.107817 0)
(0.882756 -0.14578 0)
(0.893485 -0.196952 0)
(0.911561 -0.262358 0)
(0.878547 -0.000190183 0)
(0.877955 -0.000592824 0)
(0.874951 -0.00105593 0)
(0.873959 -0.00162801 0)
(0.874344 -0.00236622 0)
(0.874592 -0.00334207 0)
(0.874323 -0.00465027 0)
(0.873811 -0.00641855 0)
(0.873239 -0.00881956 0)
(0.872559 -0.0120873 0)
(0.871662 -0.0165426 0)
(0.870471 -0.0226236 0)
(0.868952 -0.0309402 0)
(0.867083 -0.0423057 0)
(0.864935 -0.0579024 0)
(0.862639 -0.0791298 0)
(0.860726 -0.108439 0)
(0.860258 -0.147668 0)
(0.862633 -0.20232 0)
(0.873425 -0.273781 0)
(0.878545 -0.000180853 0)
(0.877936 -0.000563607 0)
(0.874893 -0.00100382 0)
(0.873837 -0.00154796 0)
(0.874126 -0.00225058 0)
(0.874239 -0.00317979 0)
(0.873779 -0.00442616 0)
(0.873002 -0.00611245 0)
(0.872063 -0.00840518 0)
(0.870878 -0.011531 0)
(0.869286 -0.0158029 0)
(0.867136 -0.0216512 0)
(0.864299 -0.0296874 0)
(0.860604 -0.0407198 0)
(0.855966 -0.0560133 0)
(0.850188 -0.0768893 0)
(0.843588 -0.106472 0)
(0.836795 -0.145466 0)
(0.829183 -0.203884 0)
(0.834064 -0.277905 0)
(0.878543 -0.000167058 0)
(0.877918 -0.000520453 0)
(0.874839 -0.000926854 0)
(0.873722 -0.00142955 0)
(0.873922 -0.00207909 0)
(0.873906 -0.00293843 0)
(0.873267 -0.00409165 0)
(0.872239 -0.00565329 0)
(0.870953 -0.00777927 0)
(0.869289 -0.0106825 0)
(0.867034 -0.0146597 0)
(0.863962 -0.02012 0)
(0.85985 -0.0276608 0)
(0.854355 -0.0380558 0)
(0.847272 -0.0526437 0)
(0.837882 -0.0725308 0)
(0.826743 -0.101815 0)
(0.812465 -0.138534 0)
(0.795328 -0.201962 0)
(0.791636 -0.267543 0)
(0.878541 -0.000149141 0)
(0.877901 -0.000464411 0)
(0.87479 -0.000826877 0)
(0.873618 -0.00127561 0)
(0.873735 -0.00185587 0)
(0.873603 -0.00262373 0)
(0.872799 -0.0036546 0)
(0.871543 -0.00505167 0)
(0.869939 -0.0069559 0)
(0.867833 -0.00956026 0)
(0.864965 -0.0131361 0)
(0.861034 -0.0180584 0)
(0.855728 -0.0248912 0)
(0.848511 -0.0343459 0)
(0.839118 -0.0478051 0)
(0.826018 -0.0660695 0)
(0.810943 -0.0943801 0)
(0.787231 -0.126758 0)
(0.76567 -0.196811 0)
(0.740958 -0.236089 0)
(0.87854 -0.000127556 0)
(0.877887 -0.000396852 0)
(0.874747 -0.000706329 0)
(0.873526 -0.00108992 0)
(0.873572 -0.00158631 0)
(0.873337 -0.00224327 0)
(0.87239 -0.00312549 0)
(0.870932 -0.00432198 0)
(0.869048 -0.00595458 0)
(0.866551 -0.00819043 0)
(0.863138 -0.0112664 0)
(0.858438 -0.0155112 0)
(0.852059 -0.0214319 0)
(0.84325 -0.0296561 0)
(0.831759 -0.041544 0)
(0.814943 -0.0576089 0)
(0.796819 -0.0840838 0)
(0.761213 -0.110685 0)
(0.745401 -0.188456 0)
(0.675051 -0.185421 0)
(0.878539 -0.000102874 0)
(0.877876 -0.000319405 0)
(0.874711 -0.000568176 0)
(0.87345 -0.00087715 0)
(0.873435 -0.00127722 0)
(0.873116 -0.0018065 0)
(0.872048 -0.00251737 0)
(0.870422 -0.00348215 0)
(0.868303 -0.00479983 0)
(0.865478 -0.00660649 0)
(0.861606 -0.00909605 0)
(0.856253 -0.0125392 0)
(0.848955 -0.0173608 0)
(0.838756 -0.0240872 0)
(0.825427 -0.0339498 0)
(0.805085 -0.0472972 0)
(0.78463 -0.0708639 0)
(0.735359 -0.0912423 0)
(0.735179 -0.177497 0)
(0.586236 -0.117257 0)
(0.878538 -7.58486e-05 0)
(0.877867 -0.000233864 0)
(0.874683 -0.000415547 0)
(0.87339 -0.000642391 0)
(0.87333 -0.00093623 0)
(0.872945 -0.00132439 0)
(0.871784 -0.00184555 0)
(0.870027 -0.00255334 0)
(0.867725 -0.00352084 0)
(0.864644 -0.00484862 0)
(0.860414 -0.00668034 0)
(0.854548 -0.00921881 0)
(0.846523 -0.012782 0)
(0.835206 -0.0177792 0)
(0.820342 -0.0251689 0)
(0.796934 -0.0353183 0)
(0.774243 -0.0543978 0)
(0.711459 -0.0698926 0)
(0.730352 -0.162524 0)
(0.471697 -0.00245881 0)
(0.878537 -4.74052e-05 0)
(0.877862 -0.000142856 0)
(0.874665 -0.000252481 0)
(0.87335 -0.000391175 0)
(0.873258 -0.000571258 0)
(0.872828 -0.000808467 0)
(0.871604 -0.00112656 0)
(0.869757 -0.00155879 0)
(0.86733 -0.00215001 0)
(0.864075 -0.00296206 0)
(0.859598 -0.00408269 0)
(0.853379 -0.00563942 0)
(0.844844 -0.00782209 0)
(0.83276 -0.0109152 0)
(0.81672 -0.0154376 0)
(0.791123 -0.0219823 0)
(0.765298 -0.0340245 0)
(0.691254 -0.047614 0)
(0.725595 -0.12497 0)
(0.360907 -0.0299971 0)
(0.878538 -1.64734e-05 0)
(0.87786 -4.81979e-05 0)
(0.874656 -8.44751e-05 0)
(0.87333 -0.000131094 0)
(0.873221 -0.000191869 0)
(0.872769 -0.000271716 0)
(0.871512 -0.000378629 0)
(0.869619 -0.000523935 0)
(0.867127 -0.000722786 0)
(0.863781 -0.00099605 0)
(0.859176 -0.00137318 0)
(0.852779 -0.00189775 0)
(0.843966 -0.00263307 0)
(0.831533 -0.00367737 0)
(0.814678 -0.00521726 0)
(0.788624 -0.00735887 0)
(0.757507 -0.0121327 0)
(0.68372 -0.0141582 0)
(0.660353 -0.0712444 0)
(0.166632 0.142718 0)
(1.16611 -0.0184291 0)
(1.24725 -0.0223209 0)
(1.34455 -0.0264434 0)
(1.45868 -0.0306411 0)
(1.58968 -0.0348042 0)
(1.73722 -0.0388821 0)
(1.90085 -0.0428432 0)
(2.08005 -0.0466657 0)
(1.16241 -0.0552109 0)
(1.24324 -0.066923 0)
(1.34039 -0.0793285 0)
(1.4545 -0.091952 0)
(1.58555 -0.104461 0)
(1.73318 -0.116696 0)
(1.89692 -0.12856 0)
(2.07635 -0.140023 0)
(1.15508 -0.0917368 0)
(1.23531 -0.111371 0)
(1.33217 -0.132164 0)
(1.44625 -0.153276 0)
(1.57738 -0.17414 0)
(1.72526 -0.194549 0)
(1.88964 -0.214433 0)
(2.06987 -0.233752 0)
(1.144 -0.127821 0)
(1.22333 -0.155565 0)
(1.31976 -0.18491 0)
(1.43372 -0.214581 0)
(1.5652 -0.243924 0)
(1.7141 -0.272844 0)
(1.87928 -0.300999 0)
(2.05817 -0.327712 0)
(1.12909 -0.163277 0)
(1.20719 -0.199394 0)
(1.30293 -0.237487 0)
(1.41709 -0.275992 0)
(1.54984 -0.314326 0)
(1.69915 -0.351778 0)
(1.86087 -0.386701 0)
(2.03279 -0.418272 0)
(1.11024 -0.197888 0)
(1.18657 -0.242695 0)
(1.28176 -0.290016 0)
(1.39722 -0.338056 0)
(1.53005 -0.38506 0)
(1.67382 -0.428537 0)
(1.82746 -0.467553 0)
(2.00136 -0.505711 0)
(1.08714 -0.231345 0)
(1.16128 -0.285475 0)
(1.25711 -0.343049 0)
(1.37284 -0.400212 0)
(1.49873 -0.452597 0)
(1.63388 -0.500088 0)
(1.79766 -0.549355 0)
(2.01512 -0.609054 0)
(1.05933 -0.263371 0)
(1.13198 -0.328218 0)
(1.22839 -0.396149 0)
(1.33705 -0.458731 0)
(1.45294 -0.514899 0)
(1.60423 -0.576964 0)
(1.82836 -0.657075 0)
(2.12898 -0.753181 0)
(1.02692 -0.294059 0)
(1.09908 -0.370933 0)
(1.1897 -0.445871 0)
(1.28587 -0.511631 0)
(1.41808 -0.584817 0)
(1.64135 -0.687147 0)
(1.96056 -0.81187 0)
(2.32041 -0.931479 0)
(0.990864 -0.323579 0)
(1.05887 -0.411107 0)
(1.13442 -0.489308 0)
(1.23972 -0.57111 0)
(1.44783 -0.691571 0)
(1.77766 -0.849113 0)
(2.15601 -0.998346 0)
(2.49259 -1.10249 0)
(0.950715 -0.350595 0)
(1.00306 -0.444874 0)
(1.07318 -0.534853 0)
(1.24779 -0.66627 0)
(1.57407 -0.854314 0)
(1.97175 -1.04386 0)
(2.32037 -1.17152 0)
(2.55619 -1.22477 0)
(0.900964 -0.371354 0)
(0.929904 -0.474657 0)
(1.04611 -0.608581 0)
(1.34836 -0.820796 0)
(1.76233 -1.05584 0)
(2.13587 -1.2255 0)
(2.37596 -1.29111 0)
(2.4877 -1.28531 0)
(0.832415 -0.382904 0)
(0.861431 -0.51864 0)
(1.1001 -0.740737 0)
(1.5229 -1.02547 0)
(1.93336 -1.25113 0)
(2.19808 -1.35312 0)
(2.30495 -1.34542 0)
(2.32974 -1.30347 0)
(0.742549 -0.391294 0)
(0.843638 -0.610039 0)
(1.24188 -0.937574 0)
(1.70428 -1.23947 0)
(2.01631 -1.39602 0)
(2.13805 -1.41226 0)
(2.14664 -1.35309 0)
(2.152 -1.3154 0)
(0.649555 -0.419639 0)
(0.91244 -0.77501 0)
(1.42573 -1.16947 0)
(1.82079 -1.41456 0)
(1.98267 -1.46892 0)
(1.98646 -1.41761 0)
(1.96476 -1.34709 0)
(2.00255 -1.34949 0)
(0.595488 -0.502146 0)
(1.05877 -1.00486 0)
(1.584 -1.3868 0)
(1.83025 -1.51848 0)
(1.8516 -1.47763 0)
(1.80038 -1.40129 0)
(1.80815 -1.35295 0)
(1.88215 -1.40788 0)
(0.620669 -0.659573 0)
(1.23535 -1.26008 0)
(1.65947 -1.54574 0)
(1.73243 -1.54757 0)
(1.67376 -1.45236 0)
(1.62949 -1.3946 0)
(1.68971 -1.3779 0)
(1.75943 -1.47198 0)
(0.726671 -0.898433 0)
(1.38153 -1.49756 0)
(1.62366 -1.62597 0)
(1.56546 -1.5258 0)
(1.50223 -1.42832 0)
(1.49219 -1.41164 0)
(1.59281 -1.41476 0)
(1.6047 -1.53364 0)
(0.876168 -1.23167 0)
(1.4428 -1.67633 0)
(1.48708 -1.63296 0)
(1.38865 -1.49021 0)
(1.36489 -1.42441 0)
(1.37734 -1.44079 0)
(1.48515 -1.44342 0)
(1.39663 -1.60521 0)
(1.02218 -1.61754 0)
(1.39186 -1.75272 0)
(1.3009 -1.59453 0)
(1.25154 -1.46756 0)
(1.25745 -1.43263 0)
(1.26807 -1.4528 0)
(1.33079 -1.43061 0)
(1.10546 -1.64107 0)
(2.27431 -0.0503598 0)
(2.48321 -0.0539653 0)
(2.70649 -0.0575213 0)
(2.94384 -0.061006 0)
(3.1946 -0.0642499 0)
(3.45709 -0.0668842 0)
(3.72792 -0.0683815 0)
(4.00152 -0.0681802 0)
(4.27026 -0.0658327 0)
(4.52507 -0.0611125 0)
(4.75637 -0.0540449 0)
(4.95507 -0.0448751 0)
(5.11339 -0.0340115 0)
(5.22546 -0.0219667 0)
(5.28758 -0.00929374 0)
(5.29837 0.00348057 0)
(5.25857 0.0158022 0)
(5.17123 0.0270835 0)
(5.04157 0.0367998 0)
(4.87672 0.044539 0)
(4.6852 0.0500203 0)
(4.4764 0.0531147 0)
(4.26001 0.0538388 0)
(4.04538 0.0523522 0)
(3.84128 0.0486935 0)
(3.65599 0.0434907 0)
(3.49835 0.0335519 0)
(3.38415 0.0282855 0)
(2.27101 -0.151168 0)
(2.48033 -0.162127 0)
(2.70372 -0.172969 0)
(2.94059 -0.183533 0)
(3.19022 -0.193222 0)
(3.45123 -0.200892 0)
(3.7208 -0.205008 0)
(3.99399 -0.203984 0)
(4.26355 -0.19657 0)
(4.52038 -0.182134 0)
(4.7545 -0.16075 0)
(4.95628 -0.133127 0)
(5.11737 -0.100473 0)
(5.23142 -0.0643303 0)
(5.29447 -0.0264129 0)
(5.30507 0.0116302 0)
(5.26415 0.0482437 0)
(5.17486 0.0817395 0)
(5.04257 0.110602 0)
(4.87462 0.133615 0)
(4.67977 0.149924 0)
(4.46764 0.15912 0)
(4.24809 0.161253 0)
(4.03063 0.156717 0)
(3.82394 0.146024 0)
(3.63607 0.129302 0)
(3.47465 0.105479 0)
(3.34762 0.0681697 0)
(2.26462 -0.252469 0)
(2.47238 -0.270533 0)
(2.69235 -0.287938 0)
(2.92507 -0.304603 0)
(3.17204 -0.31994 0)
(3.43442 -0.332471 0)
(3.71097 -0.33983 0)
(3.9967 -0.339219 0)
(4.28268 -0.328145 0)
(4.55733 -0.30512 0)
(4.80838 -0.269976 0)
(5.02449 -0.223805 0)
(5.19639 -0.168687 0)
(5.31737 -0.107335 0)
(5.38341 -0.0427878 0)
(5.39336 0.0218718 0)
(5.34889 0.0837955 0)
(5.25343 0.14019 0)
(5.11274 0.188586 0)
(4.93463 0.226983 0)
(4.72845 0.253985 0)
(4.50452 0.268952 0)
(4.27339 0.272027 0)
(4.04503 0.263963 0)
(3.82839 0.245716 0)
(3.6311 0.217836 0)
(3.45947 0.17905 0)
(3.31755 0.124002 0)
(2.24844 -0.352549 0)
(2.45031 -0.37587 0)
(2.66733 -0.398885 0)
(2.90497 -0.422802 0)
(3.16793 -0.447389 0)
(3.45697 -0.470019 0)
(3.76695 -0.485915 0)
(4.08716 -0.489547 0)
(4.4037 -0.476448 0)
(4.70228 -0.444423 0)
(4.97019 -0.393732 0)
(5.1971 -0.326575 0)
(5.37525 -0.246424 0)
(5.49933 -0.157416 0)
(5.56637 -0.063922 0)
(5.57557 0.0297223 0)
(5.52785 0.119399 0)
(5.42634 0.201128 0)
(5.27666 0.271287 0)
(5.08661 0.326872 0)
(4.86586 0.36579 0)
(4.62533 0.387116 0)
(4.37641 0.391136 0)
(4.13002 0.379102 0)
(3.89582 0.352685 0)
(3.68167 0.313221 0)
(3.49322 0.260411 0)
(3.33265 0.190681 0)
(2.21878 -0.447953 0)
(2.42769 -0.478888 0)
(2.66826 -0.514066 0)
(2.94439 -0.55416 0)
(3.25297 -0.596017 0)
(3.5843 -0.632909 0)
(3.92487 -0.656559 0)
(4.26087 -0.659753 0)
(4.58035 -0.638242 0)
(4.87345 -0.591163 0)
(5.13194 -0.520337 0)
(5.34877 -0.429338 0)
(5.51817 -0.322799 0)
(5.63591 -0.205889 0)
(5.69968 -0.0838963 0)
(5.70871 0.0381364 0)
(5.66317 0.155374 0)
(5.5653 0.262878 0)
(5.41947 0.355892 0)
(5.23215 0.430256 0)
(5.01174 0.4829 0)
(4.76837 0.512288 0)
(4.51315 0.51858 0)
(4.25728 0.503381 0)
(4.01109 0.469136 0)
(3.78309 0.418252 0)
(3.57926 0.351974 0)
(3.40161 0.269039 0)
(2.21162 -0.548638 0)
(2.46751 -0.599372 0)
(2.76496 -0.656714 0)
(3.08976 -0.715834 0)
(3.42463 -0.769346 0)
(3.75533 -0.809044 0)
(4.07401 -0.827815 0)
(4.37785 -0.820801 0)
(4.66472 -0.785672 0)
(4.93003 -0.722372 0)
(5.16673 -0.63276 0)
(5.36709 -0.520378 0)
(5.52444 -0.390174 0)
(5.6341 -0.24799 0)
(5.69362 -0.0999354 0)
(5.70262 0.0481074 0)
(5.66209 0.190573 0)
(5.5739 0.321796 0)
(5.44157 0.436235 0)
(5.27029 0.528859 0)
(5.0669 0.595718 0)
(4.83975 0.634548 0)
(4.59832 0.645075 0)
(4.35252 0.62888 0)
(4.11195 0.588861 0)
(3.885 0.528379 0)
(3.67785 0.450229 0)
(3.49303 0.35558 0)
(2.29315 -0.680228 0)
(2.61346 -0.755581 0)
(2.94573 -0.826353 0)
(3.26424 -0.886376 0)
(3.55717 -0.93187 0)
(3.82826 -0.960503 0)
(4.08998 -0.969844 0)
(4.35128 -0.955932 0)
(4.61029 -0.914089 0)
(4.85667 -0.841288 0)
(5.07805 -0.73777 0)
(5.2644 -0.607127 0)
(5.4092 -0.455395 0)
(5.5091 -0.289739 0)
(5.56307 -0.117377 0)
(5.57154 0.0549499 0)
(5.53546 0.220955 0)
(5.4564 0.374242 0)
(5.33753 0.508478 0)
(5.18368 0.617874 0)
(5.00121 0.697883 0)
(4.79761 0.745841 0)
(4.58094 0.761243 0)
(4.35926 0.745625 0)
(4.14026 0.702102 0)
(3.93076 0.634675 0)
(3.73592 0.547362 0)
(3.55807 0.443391 0)
(2.47017 -0.848612 0)
(2.80357 -0.927287 0)
(3.09518 -0.984141 0)
(3.33687 -1.02342 0)
(3.54599 -1.05248 0)
(3.75301 -1.07576 0)
(3.97914 -1.08914 0)
(4.22263 -1.08061 0)
(4.46601 -1.03824 0)
(4.6909 -0.956707 0)
(4.88534 -0.837752 0)
(5.04343 -0.687607 0)
(5.16298 -0.514577 0)
(5.24398 -0.327279 0)
(5.28766 -0.133594 0)
(5.2953 0.0596787 0)
(5.26681 0.246248 0)
(5.20218 0.419341 0)
(5.10271 0.571728 0)
(4.97162 0.696522 0)
(4.8143 0.788346 0)
(4.6379 0.844192 0)
(4.45017 0.863644 0)
(4.25847 0.848548 0)
(4.06914 0.802444 0)
(3.88728 0.729931 0)
(3.71637 0.635976 0)
(3.55763 0.525337 0)
(2.65371 -1.0197 0)
(2.91904 -1.06957 0)
(3.11152 -1.0932 0)
(3.25942 -1.11112 0)
(3.40936 -1.13925 0)
(3.59387 -1.17725 0)
(3.80854 -1.20586 0)
(4.02687 -1.20117 0)
(4.22709 -1.1503 0)
(4.40005 -1.05312 0)
(4.54343 -0.916015 0)
(4.65668 -0.747527 0)
(4.74013 -0.556886 0)
(4.7954 -0.353064 0)
(4.82509 -0.143848 0)
(4.83148 0.064426 0)
(4.81457 0.266032 0)
(4.77266 0.454453 0)
(4.70421 0.621953 0)
(4.60917 0.760489 0)
(4.49 0.863406 0)
(4.35189 0.926804 0)
(4.20171 0.950062 0)
(4.04659 0.935385 0)
(3.89267 0.887013 0)
(3.74443 0.81041 0)
(3.60435 0.711539 0)
(3.47265 0.596388 0)
(2.73859 -1.1495 0)
(2.89344 -1.15528 0)
(2.99216 -1.15203 0)
(3.09068 -1.17083 0)
(3.23051 -1.22019 0)
(3.40239 -1.27787 0)
(3.56931 -1.30885 0)
(3.71321 -1.29228 0)
(3.83717 -1.22597 0)
(3.94459 -1.11507 0)
(4.03297 -0.965631 0)
(4.09922 -0.785115 0)
(4.14372 -0.582977 0)
(4.17024 -0.368872 0)
(4.1838 -0.150634 0)
(4.18805 0.0661643 0)
(4.18302 0.276748 0)
(4.16589 0.475174 0)
(4.13329 0.65356 0)
(4.08259 0.803107 0)
(4.013 0.916019 0)
(3.92625 0.987193 0)
(3.82635 1.01523 0)
(3.71868 1.00218 0)
(3.60875 0.952776 0)
(3.50092 0.873433 0)
(3.39754 0.771254 0)
(3.29864 0.653415 0)
(2.68564 -1.21953 0)
(2.75243 -1.19334 0)
(2.81299 -1.18912 0)
(2.91228 -1.23033 0)
(3.03659 -1.29767 0)
(3.13263 -1.35029 0)
(3.19022 -1.36358 0)
(3.24139 -1.3351 0)
(3.30012 -1.26475 0)
(3.35301 -1.1499 0)
(3.38638 -0.992691 0)
(3.39872 -0.802516 0)
(3.39676 -0.592184 0)
(3.38939 -0.373097 0)
(3.38448 -0.152802 0)
(3.38663 0.064985 0)
(3.39457 0.277577 0)
(3.40339 0.480069 0)
(3.40775 0.664353 0)
(3.40344 0.820936 0)
(3.38786 0.941275 0)
(3.35999 1.01935 0)
(3.32035 1.05292 0)
(3.27099 1.0433 0)
(3.21521 0.995112 0)
(3.15643 0.915366 0)
(3.09682 0.812153 0)
(3.03664 0.693744 0)
(2.53414 -1.24488 0)
(2.57503 -1.21523 0)
(2.64712 -1.23042 0)
(2.73448 -1.28432 0)
(2.76078 -1.33321 0)
(2.70921 -1.35664 0)
(2.66007 -1.36317 0)
(2.6577 -1.34618 0)
(2.66841 -1.28119 0)
(2.65536 -1.1586 0)
(2.61539 -0.988878 0)
(2.56294 -0.789722 0)
(2.51224 -0.576684 0)
(2.47283 -0.360358 0)
(2.45112 -0.14641 0)
(2.45173 0.0638084 0)
(2.47377 0.270277 0)
(2.5102 0.469945 0)
(2.55282 0.654545 0)
(2.59551 0.813574 0)
(2.63458 0.937739 0)
(2.66769 1.02039 0)
(2.6928 1.05897 0)
(2.70843 1.05392 0)
(2.71473 1.00924 0)
(2.71301 0.931958 0)
(2.70447 0.830661 0)
(2.68931 0.714395 0)
(2.35986 -1.25852 0)
(2.42461 -1.24553 0)
(2.49817 -1.2678 0)
(2.48442 -1.28884 0)
(2.32503 -1.28546 0)
(2.14139 -1.29995 0)
(2.05467 -1.33873 0)
(2.01696 -1.34008 0)
(1.95031 -1.26406 0)
(1.84558 -1.12338 0)
(1.7292 -0.94466 0)
(1.62369 -0.747077 0)
(1.53906 -0.541923 0)
(1.47887 -0.33658 0)
(1.44586 -0.135689 0)
(1.44362 0.0605144 0)
(1.47384 0.254355 0)
(1.53094 0.445004 0)
(1.60611 0.624514 0)
(1.69163 0.781448 0)
(1.78231 0.90567 0)
(1.87456 0.989896 0)
(1.96429 1.032 0)
(2.04666 1.03158 0)
(2.11864 0.991977 0)
(2.17886 0.91977 0)
(2.22673 0.823489 0)
(2.26176 0.71245 0)
(2.21879 -1.28721 0)
(2.30348 -1.28012 0)
(2.30083 -1.25767 0)
(2.07784 -1.19712 0)
(1.74011 -1.15844 0)
(1.52625 -1.22481 0)
(1.42875 -1.30546 0)
(1.30765 -1.2945 0)
(1.13602 -1.19318 0)
(0.951199 -1.0442 0)
(0.781813 -0.872557 0)
(0.641622 -0.687556 0)
(0.534005 -0.496016 0)
(0.459422 -0.304928 0)
(0.419353 -0.119885 0)
(0.41366 0.0588192 0)
(0.443946 0.235709 0)
(0.5111 0.411653 0)
(0.608617 0.579545 0)
(0.729187 0.728299 0)
(0.865214 0.847723 0)
(1.01164 0.929249 0)
(1.16261 0.972619 0)
(1.30954 0.976043 0)
(1.44658 0.942229 0)
(1.56962 0.877079 0)
(1.67592 0.788577 0)
(1.76376 0.685825 0)
(2.1161 -1.33356 0)
(2.15918 -1.28549 0)
(1.97525 -1.14871 0)
(1.49967 -1.00288 0)
(1.11853 -1.00823 0)
(0.931667 -1.15626 0)
(0.759097 -1.23316 0)
(0.522224 -1.18991 0)
(0.269138 -1.07891 0)
(0.0305694 -0.938776 0)
(-0.181529 -0.78255 0)
(-0.354604 -0.613676 0)
(-0.48562 -0.43982 0)
(-0.573577 -0.267866 0)
(-0.620198 -0.102191 0)
(-0.629432 0.0580727 0)
(-0.598235 0.216566 0)
(-0.523882 0.373559 0)
(-0.409228 0.523935 0)
(-0.259809 0.65825 0)
(-0.0846751 0.766698 0)
(0.111948 0.842596 0)
(0.31951 0.883515 0)
(0.526069 0.889 0)
(0.724134 0.86095 0)
(0.907219 0.804148 0)
(1.0704 0.725621 0)
(1.2105 0.633857 0)
(2.01738 -1.36498 0)
(1.91894 -1.21095 0)
(1.48458 -0.916417 0)
(0.839981 -0.761247 0)
(0.572224 -0.888327 0)
(0.330832 -1.05999 0)
(0.0373144 -1.09846 0)
(-0.287698 -1.04248 0)
(-0.598518 -0.939115 0)
(-0.887703 -0.812852 0)
(-1.14145 -0.674983 0)
(-1.34819 -0.528628 0)
(-1.50411 -0.379139 0)
(-1.60874 -0.23103 0)
(-1.66425 -0.0872722 0)
(-1.67384 0.0524714 0)
(-1.63798 0.190282 0)
(-1.55338 0.325845 0)
(-1.42074 0.455124 0)
(-1.24401 0.570472 0)
(-1.03113 0.663844 0)
(-0.790024 0.730978 0)
(-0.53344 0.766654 0)
(-0.273558 0.772855 0)
(-0.0203266 0.750138 0)
(0.217599 0.702487 0)
(0.432938 0.635632 0)
(0.621824 0.557388 0)
(1.88106 -1.31475 0)
(1.51072 -1.01229 0)
(0.873972 -0.590644 0)
(0.26135 -0.564292 0)
(0.0922993 -0.775576 0)
(-0.292253 -0.898826 0)
(-0.679571 -0.917857 0)
(-1.07374 -0.865933 0)
(-1.44319 -0.774033 0)
(-1.77874 -0.666147 0)
(-2.06982 -0.551025 0)
(-2.30813 -0.430986 0)
(-2.48882 -0.309119 0)
(-2.61089 -0.188363 0)
(-2.67572 -0.0706065 0)
(-2.68578 0.0440155 0)
(-2.64223 0.156474 0)
(-2.54362 0.266674 0)
(-2.39044 0.371236 0)
(-2.18667 0.464404 0)
(-1.94031 0.540242 0)
(-1.66148 0.594899 0)
(-1.36279 0.624814 0)
(-1.0571 0.630491 0)
(-0.756287 0.612765 0)
(-0.471198 0.574755 0)
(-0.210246 0.521119 0)
(0.0207876 0.458075 0)
(1.68224 -1.13263 0)
(0.86563 -0.695144 0)
(0.300154 -0.262638 0)
(-0.131883 -0.439963 0)
(-0.381356 -0.604068 0)
(-0.865523 -0.687593 0)
(-1.33872 -0.700212 0)
(-1.80449 -0.656569 0)
(-2.23007 -0.583832 0)
(-2.60845 -0.499361 0)
(-2.93227 -0.410662 0)
(-3.19634 -0.319944 0)
(-3.3971 -0.228895 0)
(-3.53332 -0.139081 0)
(-3.60555 -0.0515065 0)
(-3.61539 0.0337034 0)
(-3.56404 0.116989 0)
(-3.45147 0.198219 0)
(-3.27916 0.274961 0)
(-3.05181 0.343288 0)
(-2.77765 0.399098 0)
(-2.46746 0.439332 0)
(-2.13418 0.461736 0)
(-1.79156 0.466088 0)
(-1.45291 0.453213 0)
(-1.13034 0.425338 0)
(-0.833455 0.385939 0)
(-0.569452 0.339229 0)
(1.4292 -0.878717 0)
(-0.0286189 -0.341417 0)
(0.0228539 -0.0627027 0)
(-0.425276 -0.286021 0)
(-0.768298 -0.384374 0)
(-1.32904 -0.435918 0)
(-1.88423 -0.443189 0)
(-2.4222 -0.415249 0)
(-2.90692 -0.368472 0)
(-3.32956 -0.314175 0)
(-3.68468 -0.257435 0)
(-3.97013 -0.199943 0)
(-4.18497 -0.142674 0)
(-4.32961 -0.0864311 0)
(-4.40538 -0.0316982 0)
(-4.41405 0.021496 0)
(-4.35654 0.0732952 0)
(-4.23308 0.12341 0)
(-4.04609 0.170519 0)
(-3.80081 0.21232 0)
(-3.50582 0.246418 0)
(-3.17249 0.270929 0)
(-2.81428 0.284538 0)
(-2.4456 0.287009 0)
(-2.08056 0.278819 0)
(-1.73194 0.261357 0)
(-1.41015 0.236724 0)
(-1.12242 0.207519 0)
(1.20508 -0.614006 0)
(-0.817014 -0.0712103 0)
(-0.0588223 -0.0229582 0)
(-0.607335 -0.100001 0)
(-0.991158 -0.133502 0)
(-1.60844 -0.150659 0)
(-2.22537 -0.152996 0)
(-2.82444 -0.143031 0)
(-3.36495 -0.126486 0)
(-3.8348 -0.107284 0)
(-4.22777 -0.0873108 0)
(-4.54223 -0.0672391 0)
(-4.77813 -0.0474226 0)
(-4.93663 -0.0281249 0)
(-5.01961 -0.00948718 0)
(-5.02948 0.00852014 0)
(-4.9689 0.0259423 0)
(-4.83998 0.0426193 0)
(-4.64527 0.0581761 0)
(-4.39053 0.0718402 0)
(-4.08462 0.0828355 0)
(-3.73928 0.0905451 0)
(-3.36831 0.0945565 0)
(-2.98642 0.0948108 0)
(-2.60813 0.0915261 0)
(-2.24661 0.0852638 0)
(-1.91264 0.0768207 0)
(-1.61372 0.067169 0)
(3.32517 -0.0298469 0)
(3.36628 -0.207197 0)
(3.36668 -0.516342 0)
(3.11167 -0.915869 0)
(2.52204 -1.23151 0)
(1.7518 -1.34478 0)
(1.10666 -1.26855 0)
(0.0368736 -1.28978 0)
(3.26825 0.00186981 0)
(3.20152 -0.173191 0)
(3.0516 -0.447854 0)
(2.74444 -0.740601 0)
(2.29529 -0.949477 0)
(1.7587 -1.03208 0)
(1.25368 -0.963341 0)
(0.556505 -0.908264 0)
(3.20652 0.0385409 0)
(3.102 -0.116143 0)
(2.94669 -0.327574 0)
(2.69021 -0.546643 0)
(2.32817 -0.715319 0)
(1.88075 -0.786247 0)
(1.43972 -0.72033 0)
(0.845693 -0.58474 0)
(3.19682 0.0951747 0)
(3.0672 -0.0434047 0)
(2.90523 -0.220795 0)
(2.67308 -0.402126 0)
(2.36562 -0.536082 0)
(1.99573 -0.582472 0)
(1.63175 -0.507638 0)
(1.16015 -0.352117 0)
(3.24652 0.165285 0)
(3.09951 0.0336764 0)
(2.93384 -0.121238 0)
(2.72306 -0.271695 0)
(2.46068 -0.377824 0)
(2.1518 -0.408831 0)
(1.84807 -0.333417 0)
(1.46736 -0.179146 0)
(3.32776 0.243997 0)
(3.17148 0.114443 0)
(3.00531 -0.0259329 0)
(2.81007 -0.156076 0)
(2.57947 -0.244439 0)
(2.3153 -0.264861 0)
(2.05797 -0.189502 0)
(1.74753 -0.0416379 0)
(3.39525 0.325271 0)
(3.23978 0.196067 0)
(3.07884 0.0644787 0)
(2.89815 -0.0519012 0)
(2.69314 -0.127442 0)
(2.46513 -0.140558 0)
(2.24566 -0.0678243 0)
(1.99585 0.0672136 0)
(3.40913 0.402678 0)
(3.26498 0.273663 0)
(3.11606 0.14796 0)
(2.95299 0.0413708 0)
(2.77259 -0.0250121 0)
(2.57742 -0.033835 0)
(2.39104 0.0335748 0)
(2.19566 0.153923 0)
(3.34707 0.471133 0)
(3.22271 0.343008 0)
(3.09291 0.222222 0)
(2.95159 0.122976 0)
(2.79755 0.0628891 0)
(2.63464 0.0557008 0)
(2.4793 0.116302 0)
(2.33496 0.223414 0)
(3.20199 0.527243 0)
(3.10356 0.400917 0)
(2.99845 0.284716 0)
(2.88296 0.1914 0)
(2.75717 0.135651 0)
(2.62689 0.128273 0)
(2.50244 0.181467 0)
(2.40561 0.276261 0)
(2.97425 0.568427 0)
(2.90664 0.444967 0)
(2.83053 0.333447 0)
(2.74415 0.245307 0)
(2.64861 0.192874 0)
(2.55149 0.184735 0)
(2.45772 0.229896 0)
(2.40439 0.312991 0)
(2.66649 0.592145 0)
(2.63422 0.473016 0)
(2.59078 0.366772 0)
(2.53613 0.283663 0)
(2.47232 0.233998 0)
(2.40853 0.224649 0)
(2.34527 0.26166 0)
(2.3315 0.334125 0)
(2.28316 0.59592 0)
(2.29014 0.483063 0)
(2.2824 0.383229 0)
(2.26153 0.305578 0)
(2.23042 0.258671 0)
(2.19983 0.248154 0)
(2.16683 0.277406 0)
(2.18883 0.340382 0)
(1.83208 0.577858 0)
(1.88074 0.473553 0)
(1.91061 0.381726 0)
(1.92462 0.310472 0)
(1.92649 0.266811 0)
(1.92847 0.255573 0)
(1.92518 0.277752 0)
(1.97934 0.33238 0)
(1.32569 0.537149 0)
(1.41619 0.443735 0)
(1.48376 0.361787 0)
(1.53231 0.29824 0)
(1.56626 0.258695 0)
(1.59937 0.247453 0)
(1.62454 0.263441 0)
(1.70723 0.310827 0)
(0.780968 0.474462 0)
(0.910923 0.394169 0)
(1.01415 0.324006 0)
(1.09501 0.269591 0)
(1.15852 0.235226 0)
(1.22015 0.224775 0)
(1.27136 0.235563 0)
(1.37836 0.276723 0)
(0.217574 0.391044 0)
(0.382205 0.325733 0)
(0.517532 0.269578 0)
(0.626627 0.225995 0)
(0.715408 0.198057 0)
(0.801654 0.189249 0)
(0.874959 0.195782 0)
(1.00255 0.23133 0)
(-0.340798 0.290173 0)
(-0.146816 0.242177 0)
(0.0122348 0.200891 0)
(0.142904 0.169733 0)
(0.251612 0.149747 0)
(0.357792 0.142626 0)
(0.447362 0.146833 0)
(0.592081 0.17666 0)
(-0.871933 0.176804 0)
(-0.659873 0.146758 0)
(-0.485008 0.120426 0)
(-0.339862 0.101991 0)
(-0.215236 0.0911379 0)
(-0.0944832 0.0900033 0)
(-0.0104874 0.0891427 0)
(0.160006 0.11462 0)
(-1.3538 0.057423 0)
(-1.13375 0.0486132 0)
(-0.950684 0.041645 0)
(-0.797248 0.037306 0)
(-0.663657 0.0350768 0)
(-0.540431 0.0342838 0)
(-0.421805 0.0325875 0)
(-0.282162 0.0364504 0)
(-0.611506 -0.421993 0)
(0.494765 0.0601439 0)
(1.06362 0.464622 0)
(1.48502 0.762315 5.47768e-17)
(1.88945 0.90788 3.22019e-18)
(2.37807 0.876537 0)
(2.61444 0.710275 2.51947e-17)
(2.62287 0.588316 1.66307e-18)
(2.59447 0.527625 2.41464e-17)
(2.61507 0.484393 2.43777e-17)
(2.67049 0.45456 0)
(2.73656 0.434636 2.09819e-17)