/*--------------------------------*- C++ -*----------------------------------*\
| =========                 |                                                 |
| \\      /  F ield         | OpenFOAM: The Open Source CFD Toolbox           |
|  \\    /   O peration     | Version:  2.4.0                                 |
|   \\  /    A nd           | Web:      www.OpenFOAM.org                      |
|    \\/     M anipulation  |                                                 |
\*---------------------------------------------------------------------------*/
FoamFile
{
    version     2.0;
    format      ascii;
    class       surfaceScalarField;
    location    "0.67";
    object      phi;
}
// * * * * * * * * * * * * * * * * * * * * * * * * * * * * * * * * * * * * * //

dimensions      [0 3 -1 0 0 0 0];

internalField   nonuniform List<scalar> 
4456
(
2.16381e-06
3.36192e-07
2.59786e-06
-4.34051e-07
2.80133e-06
-2.03475e-07
2.53788e-06
2.6345e-07
2.63166e-06
-9.3777e-08
2.68198e-06
-5.03182e-08
2.25455e-06
4.27434e-07
2.66722e-06
-4.12674e-07
2.86626e-06
-1.99044e-07
2.3856e-06
4.80668e-07
2.95045e-06
-5.64856e-07
2.26072e-06
6.89731e-07
2.40249e-06
-1.41771e-07
2.78826e-06
-3.85763e-07
2.07195e-06
7.16305e-07
2.79532e-06
-7.23373e-07
3.11791e-06
-3.22586e-07
1.87647e-06
1.24144e-06
3.15543e-06
-1.27896e-06
3.35853e-07
2.81958e-06
2.66838e-06
1.67811e-07
2.12931e-06
1.05024e-07
2.24368e-06
-3.17848e-07
2.58905e-06
-8.19195e-08
2.35442e-06
1.40851e-07
2.48647e-06
-1.82364e-07
2.51187e-06
4.02031e-07
2.45017e-06
-3.50977e-07
2.25022e-06
9.05695e-10
2.85038e-06
-1.19489e-07
2.47881e-06
-1.93287e-07
2.67202e-06
4.96523e-07
2.68953e-06
-1.59285e-07
2.53165e-06
-2.27879e-07
2.35945e-06
8.88507e-07
2.22971e-06
-5.93641e-07
2.82485e-06
-9.17718e-07
2.84871e-06
1.21757e-06
3.23006e-06
-1.66031e-06
2.13925e-07
3.35199e-06
2.64751e-06
2.02993e-08
2.79139e-06
-3.88594e-08
2.3831e-06
9.04466e-08
2.56078e-06
-2.59598e-07
2.57685e-06
1.24782e-07
2.29854e-06
9.59477e-08
2.55208e-06
1.48483e-07
2.40772e-06
-2.06614e-07
2.62143e-06
-2.12801e-07
2.34521e-06
1.5673e-07
2.27736e-06
-1.2544e-07
2.97017e-06
-1.96285e-07
2.36784e-06
4.43041e-07
2.67523e-06
-5.35261e-07
2.66082e-06
9.0291e-07
2.44801e-06
-3.80828e-07
2.95134e-06
-1.42105e-06
3.21839e-06
9.50519e-07
2.61561e-06
-1.05753e-06
-1.59214e-07
2.98875e-06
2.54525e-06
-2.49488e-08
2.5216e-06
-1.52162e-08
2.34792e-06
2.64131e-07
2.4322e-06
-3.43875e-07
2.60611e-06
-4.91298e-08
2.47172e-06
2.30342e-07
2.56738e-06
5.2815e-08
2.54552e-06
-1.84746e-07
2.52407e-06
-1.91355e-07
2.42553e-06
2.55264e-07
2.33307e-06
-3.29727e-08
2.5681e-06
-4.31314e-07
2.80357e-06
2.07569e-07
2.41561e-06
-1.47304e-07
2.78995e-06
5.28572e-07
2.77626e-06
-3.67134e-07
2.43423e-06
-1.07902e-06
3.20907e-06
1.75679e-07
2.84842e-06
-6.9688e-07
-2.86394e-07
2.9756e-06
2.41575e-06
5.93032e-08
2.38675e-06
1.378e-08
2.46525e-06
1.85636e-07
2.43649e-06
-3.15122e-07
2.63716e-06
-2.49797e-07
2.60571e-06
2.61796e-07
2.50115e-06
1.5737e-07
2.53698e-06
-2.20571e-07
2.55544e-06
-2.09824e-07
2.53274e-06
2.77969e-07
2.4457e-06
5.40669e-08
2.42092e-06
-4.06531e-07
2.72137e-06
-9.28834e-08
2.48344e-06
9.06252e-08
2.58263e-06
4.29386e-07
2.42383e-06
-2.08335e-07
2.43153e-06
-1.08673e-06
2.87451e-06
-2.67301e-07
2.61509e-06
-4.37457e-07
-5.43072e-07
2.87177e-06
2.52379e-06
3.55162e-08
2.56553e-06
-2.79643e-08
2.41472e-06
3.36443e-07
2.45077e-06
-3.51169e-07
2.54526e-06
-3.44289e-07
2.49323e-06
3.13826e-07
2.47878e-06
1.71825e-07
2.40617e-06
-1.4796e-07
2.51482e-06
-3.18475e-07
2.53325e-06
2.59538e-07
2.45622e-06
1.31101e-07
2.58739e-06
-5.37707e-07
2.47819e-06
1.6318e-08
2.5238e-06
4.50193e-08
2.67656e-06
2.7662e-07
2.58669e-06
-1.1846e-07
2.64701e-06
-1.14704e-06
2.78007e-06
-4.00368e-07
2.81537e-06
-4.72749e-07
-4.56924e-07
2.72922e-06
2.52837e-06
7.14517e-09
2.4813e-06
1.91068e-08
2.47858e-06
3.39163e-07
2.32085e-06
-1.93443e-07
2.43352e-06
-4.56957e-07
2.61888e-06
1.2847e-07
2.52255e-06
2.68149e-07
2.37824e-06
-3.65173e-09
2.48586e-06
-4.26095e-07
2.59281e-06
1.52595e-07
2.49038e-06
2.33527e-07
2.40512e-06
-4.5244e-07
2.64116e-06
-2.19723e-07
2.50402e-06
1.82154e-07
2.68988e-06
9.07596e-08
2.75721e-06
-1.85792e-07
2.47037e-06
-8.60205e-07
2.91062e-06
-8.40612e-07
2.74077e-06
-3.02905e-07
-3.62231e-07
2.64608e-06
2.47738e-06
2.97659e-08
2.62319e-06
-1.267e-07
2.53419e-06
4.28156e-07
2.38017e-06
-3.94165e-08
2.50649e-06
-5.83279e-07
2.59931e-06
3.56493e-08
2.47025e-06
3.97212e-07
2.50739e-06
-4.07924e-08
2.596e-06
-5.14708e-07
2.57698e-06
1.71615e-07
2.63533e-06
1.75174e-07
2.48362e-06
-3.00724e-07
2.52865e-06
-2.64759e-07
2.62343e-06
8.73713e-08
2.67064e-06
4.35486e-08
2.65541e-06
-1.70553e-07
2.81984e-06
-1.02464e-06
2.85207e-06
-8.72835e-07
2.75767e-06
-2.08503e-07
-4.71815e-07
2.86725e-06
2.47222e-06
5.75458e-08
2.57486e-06
-2.29343e-07
2.54659e-06
4.5643e-07
2.45353e-06
5.36468e-08
2.53334e-06
-6.63091e-07
2.48087e-06
8.81128e-08
2.49855e-06
3.79533e-07
2.54109e-06
-8.33331e-08
2.50539e-06
-4.79006e-07
2.61164e-06
6.53663e-08
2.5924e-06
1.94416e-07
2.34521e-06
-5.35347e-08
2.54982e-06
-4.69365e-07
2.66782e-06
-3.06282e-08
2.50076e-06
2.10604e-07
2.74115e-06
-4.10939e-07
2.74459e-06
-1.02809e-06
2.64899e-06
-7.7723e-07
2.85889e-06
-4.18403e-07
-5.46407e-07
2.93348e-06
2.48435e-06
7.31924e-08
2.5314e-06
-2.76387e-07
2.45457e-06
5.33254e-07
2.48711e-06
2.11094e-08
2.5719e-06
-7.4788e-07
2.47011e-06
1.89899e-07
2.54147e-06
3.08174e-07
2.61688e-06
-1.58735e-07
2.59636e-06
-4.58487e-07
2.53961e-06
1.22109e-07
2.60388e-06
1.30149e-07
2.51007e-06
4.02778e-08
2.70949e-06
-6.68789e-07
2.65967e-06
1.91927e-08
2.56263e-06
3.07646e-07
2.72926e-06
-5.77574e-07
2.6699e-06
-9.68733e-07
2.51324e-06
-6.20568e-07
2.65955e-06
-5.64713e-07
-8.58023e-07
2.97117e-06
2.5626e-06
1.05889e-08
2.47723e-06
-1.91012e-07
2.36692e-06
6.43562e-07
2.60776e-06
-2.19733e-07
2.64443e-06
-7.84542e-07
2.51277e-06
3.21559e-07
2.50426e-06
3.16681e-07
2.54905e-06
-2.03525e-07
2.60524e-06
-5.14679e-07
2.46448e-06
2.62868e-07
2.51721e-06
7.74195e-08
2.68874e-06
-1.31256e-07
2.5771e-06
-5.57142e-07
2.52903e-06
6.72609e-08
2.65737e-06
1.79308e-07
2.56618e-06
-4.86382e-07
2.51187e-06
-9.14432e-07
2.38229e-06
-4.90982e-07
2.58822e-06
-7.70641e-07
-8.9574e-07
2.62593e-06
2.53779e-06
-2.7198e-08
2.32934e-06
1.74326e-08
2.45655e-06
5.16358e-07
2.69947e-06
-4.62656e-07
2.64157e-06
-7.26641e-07
2.57678e-06
3.86342e-07
2.52043e-06
3.73031e-07
2.55212e-06
-2.35215e-07
2.44945e-06
-4.12006e-07
2.37242e-06
3.39901e-07
2.65207e-06
-2.02236e-07
2.61095e-06
-9.01349e-08
2.35207e-06
-2.98259e-07
2.45619e-06
-3.68581e-08
2.64795e-06
-1.24518e-08
2.48861e-06
-3.27047e-07
2.39775e-06
-8.23568e-07
2.42562e-06
-5.18851e-07
2.44959e-06
-7.94611e-07
-8.93671e-07
2.44752e-06
2.51651e-06
-4.37124e-08
2.36696e-06
1.66985e-07
2.49741e-06
3.8591e-07
2.72435e-06
-6.89594e-07
2.56887e-06
-5.71167e-07
2.3549e-06
6.00319e-07
2.55167e-06
1.76263e-07
2.52527e-06
-2.08822e-07
2.22043e-06
-1.07167e-07
2.45234e-06
1.07996e-07
2.64549e-06
-3.95392e-07
2.47514e-06
8.0221e-08
2.41716e-06
-2.4028e-07
2.4429e-06
-6.25966e-08
2.49126e-06
-6.08138e-08
2.40577e-06
-2.41556e-07
2.37985e-06
-7.97651e-07
2.39773e-06
-5.36726e-07
2.32198e-06
-7.18859e-07
-1.00129e-06
2.42959e-06
2.48632e-06
-3.00315e-08
2.35738e-06
2.95922e-07
2.58848e-06
1.54808e-07
2.65208e-06
-7.53187e-07
2.38034e-06
-2.99432e-07
2.36847e-06
6.12193e-07
2.57615e-06
-3.14165e-08
2.37439e-06
-7.06395e-09
2.28796e-06
-2.07307e-08
2.55195e-06
-1.56004e-07
2.38957e-06
-2.3301e-07
2.27625e-06
1.93548e-07
2.46668e-06
-4.30715e-07
2.43462e-06
-3.05362e-08
2.33366e-06
4.01481e-08
2.42369e-06
-3.31588e-07
2.35218e-06
-7.26139e-07
2.20831e-06
-3.92857e-07
2.2782e-06
-7.88748e-07
-1.32192e-06
2.59882e-06
2.43794e-06
3.20322e-08
2.4546e-06
2.79258e-07
2.68472e-06
-7.53083e-08
2.4888e-06
-5.57274e-07
2.23893e-06
-4.95625e-08
2.41707e-06
4.34053e-07
2.54945e-06
-1.63799e-07
2.39865e-06
1.43745e-07
2.40643e-06
-2.85114e-08
2.52829e-06
-2.77868e-07
2.36258e-06
-6.72959e-08
2.35323e-06
2.02898e-07
2.46767e-06
-5.45157e-07
2.35885e-06
7.8282e-08
2.41193e-06
-1.29276e-08
2.51233e-06
-4.31994e-07
2.34635e-06
-5.60153e-07
2.11979e-06
-1.66305e-07
2.27665e-06
-9.45606e-07
-1.62008e-06
2.57482e-06
2.47191e-06
6.01251e-08
2.54678e-06
2.04381e-07
2.64237e-06
-1.70895e-07
2.42858e-06
-3.43478e-07
2.28663e-06
9.23814e-08
2.51001e-06
2.10672e-07
2.53382e-06
-1.87605e-07
2.42941e-06
2.48153e-07
2.41929e-06
-1.83918e-08
2.49744e-06
-3.56013e-07
2.3744e-06
5.57398e-08
2.50026e-06
7.70363e-08
2.43686e-06
-4.8175e-07
2.24808e-06
2.67057e-07
2.36763e-06
-1.32479e-07
2.44371e-06
-5.08076e-07
2.2788e-06
-3.95239e-07
2.1876e-06
-7.5107e-08
2.32258e-06
-1.08058e-06
-1.68114e-06
2.38364e-06
2.47881e-06
8.13143e-08
2.56744e-06
1.15754e-07
2.61103e-06
-2.14483e-07
2.40607e-06
-1.38521e-07
2.39085e-06
1.07599e-07
2.50383e-06
9.76909e-08
2.46111e-06
-1.44883e-07
2.47377e-06
2.35492e-07
2.42193e-06
3.34448e-08
2.47693e-06
-4.11013e-07
2.52643e-06
6.24324e-09
2.50083e-06
1.02635e-07
2.39395e-06
-3.74868e-07
2.21057e-06
4.50436e-07
2.30287e-06
-2.24782e-07
2.46224e-06
-6.67446e-07
2.28106e-06
-2.14062e-07
2.22112e-06
-1.51609e-08
2.32667e-06
-1.18614e-06
-1.59084e-06
2.23637e-06
2.55105e-06
3.02651e-08
2.55342e-06
1.13381e-07
2.51135e-06
-1.72409e-07
2.47962e-06
-1.06789e-07
2.4154e-06
1.71811e-07
2.48089e-06
3.22065e-08
2.42593e-06
-8.99219e-08
2.49958e-06
1.6184e-07
2.51888e-06
1.41463e-08
2.49135e-06
-3.83489e-07
2.50327e-06
-5.67469e-09
2.48323e-06
1.22679e-07
2.33519e-06
-2.26829e-07
2.32869e-06
4.56934e-07
2.38261e-06
-2.787e-07
2.36548e-06
-6.50315e-07
2.17984e-06
-2.84215e-08
2.25567e-06
-9.09938e-08
2.1883e-06
-1.11877e-06
-1.05065e-06
1.64811e-06
2.56082e-06
-3.05546e-08
2.50157e-06
1.7263e-07
2.46976e-06
-1.40594e-07
2.43656e-06
-7.35971e-08
2.52947e-06
7.89086e-08
2.50608e-06
5.55957e-08
2.41756e-06
-1.40153e-09
2.58633e-06
-6.93225e-09
2.5893e-06
1.11801e-08
2.46505e-06
-2.59242e-07
2.42116e-06
3.82094e-08
2.38944e-06
1.544e-07
2.32221e-06
-1.59597e-07
2.47034e-06
3.0881e-07
2.4731e-06
-2.8146e-07
2.2077e-06
-3.84921e-07
2.01885e-06
1.60435e-07
2.17992e-06
-2.52071e-07
1.76062e-06
-6.99465e-07
-4.14272e-07
1.12424e-06
2.46945e-06
2.64208e-06
2.50148e-06
2.42788e-06
2.50679e-06
2.56239e-06
2.56099e-06
2.55405e-06
2.56523e-06
2.30599e-06
2.3442e-06
2.4986e-06
2.33901e-06
2.64782e-06
2.36636e-06
1.98143e-06
2.14187e-06
1.8898e-06
1.19033e-06
7.7606e-07
1.9267e-06
8.9288e-07
3.95505e-06
-2.02835e-06
3.27445e-06
6.80597e-07
2.88546e-06
3.88993e-07
4.58422e-06
-1.69876e-06
3.80307e-06
7.81151e-07
4.06009e-06
-2.57015e-07
-1.28461e-07
4.18855e-06
2.996e-06
1.24887e-06
2.84602e-06
-1.87837e-06
3.29437e-06
2.32246e-07
3.167e-06
5.16366e-07
3.52529e-06
-2.05705e-06
4.11426e-06
1.92173e-07
4.83565e-06
-9.78406e-07
3.64041e-07
4.34315e-06
3.33977e-06
8.97853e-07
2.66622e-06
-1.20482e-06
3.41738e-06
-5.18912e-07
3.7932e-06
1.40549e-07
3.66546e-06
-1.92932e-06
4.3312e-06
-4.73562e-07
4.20002e-06
-8.47225e-07
-4.31276e-07
4.99534e-06
3.20586e-06
6.67593e-07
2.95445e-06
-9.53421e-07
3.42363e-06
-9.88089e-07
3.81225e-06
-2.48072e-07
3.87636e-06
-1.99342e-06
4.24563e-06
-8.42833e-07
4.34642e-06
-9.48018e-07
-1.10766e-06
5.02281e-06
3.21802e-06
3.21336e-07
3.13438e-06
-8.69778e-07
3.38965e-06
-1.24336e-06
3.81857e-06
-6.76986e-07
3.59895e-06
-1.77381e-06
4.07024e-06
-1.31412e-06
4.41261e-06
-1.29039e-06
-1.36054e-06
4.66549e-06
2.95135e-06
9.92087e-08
3.21466e-06
-1.13309e-06
3.4493e-06
-1.478e-06
3.69769e-06
-9.25376e-07
3.78776e-06
-1.86388e-06
4.23044e-06
-1.7568e-06
4.36215e-06
-1.4221e-06
-1.42719e-06
4.42881e-06
3.1605e-06
-4.15212e-07
3.13347e-06
-1.10606e-06
3.21203e-06
-1.55656e-06
3.58332e-06
-1.29667e-06
3.71235e-06
-1.99291e-06
3.97878e-06
-2.02323e-06
4.20329e-06
-1.64662e-06
-1.46221e-06
4.23831e-06
3.16403e-06
-7.11995e-07
3.16725e-06
-1.10928e-06
3.18454e-06
-1.57385e-06
3.52693e-06
-1.63906e-06
3.72188e-06
-2.18786e-06
4.04819e-06
-2.34953e-06
4.22309e-06
-1.82152e-06
-1.49079e-06
4.25167e-06
3.24766e-06
-1.02617e-06
3.22031e-06
-1.08192e-06
3.20189e-06
-1.55543e-06
3.56019e-06
-1.99736e-06
3.85735e-06
-2.48502e-06
4.10972e-06
-2.60189e-06
4.20393e-06
-1.91573e-06
-1.47188e-06
4.18502e-06
3.21371e-06
-1.26872e-06
3.19899e-06
-1.0672e-06
3.24209e-06
-1.59853e-06
3.51404e-06
-2.26931e-06
3.84792e-06
-2.81891e-06
4.06573e-06
-2.8197e-06
4.08231e-06
-1.93231e-06
-1.28664e-06
3.89707e-06
2.72188e-06
-1.36466e-06
2.90231e-06
-1.24764e-06
3.15521e-06
-1.85143e-06
3.50677e-06
-2.62088e-06
3.58258e-06
-2.89472e-06
3.70263e-06
-2.93975e-06
3.80939e-06
-2.03907e-06
-1.15542e-06
3.67817e-06
2.55218e-06
-1.46932e-06
2.95964e-06
-1.6551e-06
3.15222e-06
-2.04401e-06
3.08117e-06
-2.54983e-06
3.12253e-06
-2.93607e-06
3.18258e-06
-2.9998e-06
3.26873e-06
-2.12522e-06
-1.10039e-06
3.2137e-06
2.66765e-06
-1.70738e-06
2.83716e-06
-1.82461e-06
2.64478e-06
-1.85163e-06
2.43217e-06
-2.33722e-06
2.45758e-06
-2.96148e-06
2.43239e-06
-2.97461e-06
2.48873e-06
-2.18156e-06
-1.03665e-06
2.42499e-06
2.71644e-06
-1.825e-06
2.44548e-06
-1.55365e-06
2.13189e-06
-1.53803e-06
2.0037e-06
-2.20903e-06
1.9142e-06
-2.87198e-06
1.64403e-06
-2.70444e-06
1.41095e-06
-1.94848e-06
-8.48991e-07
1.2233e-06
2.36806e-06
-1.61824e-06
2.09487e-06
-1.28046e-06
1.94177e-06
-1.38493e-06
1.66344e-06
-1.93071e-06
1.36538e-06
-2.57392e-06
1.1415e-06
-2.48057e-06
8.78929e-07
-1.68591e-06
-5.8601e-07
6.15948e-07
2.18365e-06
-1.41826e-06
1.9026e-06
-9.99406e-07
1.76109e-06
-1.24342e-06
1.49602e-06
-1.66564e-06
1.13691e-06
-2.21481e-06
7.27873e-07
-2.07153e-06
2.39271e-07
-1.19731e-06
-3.34303e-07
-1.24366e-08
1.79437e-06
-9.76255e-07
1.63529e-06
-8.40322e-07
1.59003e-06
-1.19816e-06
1.20176e-06
-1.27737e-06
7.2984e-07
-1.74289e-06
1.3616e-07
-1.47785e-06
-3.44041e-07
-7.17104e-07
-7.89008e-08
-5.99443e-07
1.3189e-06
-6.4704e-07
1.39783e-06
-9.19258e-07
1.36903e-06
-1.16936e-06
1.12427e-06
-1.03261e-06
7.26405e-07
-1.34502e-06
2.42821e-07
-9.94264e-07
-3.56977e-07
-1.17307e-07
7.29926e-07
-1.1658e-06
1.09385e-06
-6.16649e-07
1.06305e-06
-8.88452e-07
9.32521e-07
-1.03883e-06
7.61573e-07
-8.61663e-07
3.69593e-07
-9.5304e-07
-8.03117e-08
-5.44359e-07
-2.97977e-07
1.00358e-07
1.64551e-06
-1.21356e-06
7.51709e-07
-5.92298e-07
5.35059e-07
-6.71801e-07
4.03321e-07
-9.07093e-07
2.47596e-07
-7.05938e-07
-3.57491e-07
-3.47953e-07
-1.33052e-06
4.28671e-07
-1.89114e-06
6.60981e-07
-2.38107e-06
2.13543e-06
3.99412e-06
1.94428e-07
5.37811e-06
-1.38399e-06
5.45163e-06
-7.35254e-08
6.17594e-06
-7.24312e-07
5.82841e-06
3.47535e-07
6.42158e-06
-5.9317e-07
6.89022e-06
-4.68641e-07
8.02205e-06
-1.13183e-06
8.90653e-06
-8.84482e-07
9.77617e-06
-8.69644e-07
1.03991e-05
-6.22973e-07
1.10028e-05
-6.03627e-07
1.12344e-05
-2.31666e-07
1.13206e-05
-8.61798e-08
1.14364e-05
-1.15796e-07
1.13791e-05
5.73076e-08
1.12093e-05
1.69809e-07
1.08733e-05
3.3597e-07
1.05273e-05
3.45992e-07
1.00005e-05
5.2684e-07
9.51036e-06
4.90134e-07
8.77072e-06
7.39646e-07
8.24286e-06
5.27854e-07
7.49309e-06
7.49769e-07
6.85369e-06
6.394e-07
6.0121e-06
8.41591e-07
4.62886e-06
1.38324e-06
-9.24158e-08
4.72128e-06
3.90384e-06
6.33744e-07
4.53517e-06
-2.01532e-06
4.64739e-06
-1.85748e-07
5.3061e-06
-1.38302e-06
5.94124e-06
-2.87607e-07
6.65656e-06
-1.30849e-06
7.37295e-06
-1.18503e-06
8.04941e-06
-1.80828e-06
8.61706e-06
-1.45213e-06
9.29943e-06
-1.55201e-06
9.74698e-06
-1.07053e-06
1.0319e-05
-1.17565e-06
1.07127e-05
-6.25333e-07
1.11384e-05
-5.11944e-07
1.14379e-05
-4.15273e-07
1.14469e-05
4.83547e-08
1.1411e-05
2.05656e-07
1.10944e-05
6.52631e-07
1.07854e-05
6.54961e-07
1.01037e-05
1.20851e-06
9.37128e-06
1.22258e-06
8.47875e-06
1.63217e-06
7.85442e-06
1.15218e-06
6.93657e-06
1.66763e-06
6.36162e-06
1.21435e-06
5.84881e-06
1.3544e-06
4.67248e-06
2.55957e-06
1.82676e-07
4.39739e-06
5.26022e-06
3.68859e-07
4.87531e-06
-1.63041e-06
5.06483e-06
-3.7527e-07
5.19076e-06
-1.50894e-06
6.18868e-06
-1.28553e-06
6.971e-06
-2.09081e-06
7.62689e-06
-1.84092e-06
8.30078e-06
-2.48217e-06
8.85696e-06
-2.00831e-06
9.49276e-06
-2.18781e-06
1.00253e-05
-1.60307e-06
1.06407e-05
-1.79107e-06
1.10984e-05
-1.083e-06
1.15442e-05
-9.57721e-07
1.17043e-05
-5.7536e-07
1.16598e-05
9.28197e-08
1.14934e-05
3.71998e-07
1.12145e-05
9.31595e-07
1.07809e-05
1.0885e-06
1.01889e-05
1.80058e-06
9.4775e-06
1.93396e-06
8.79543e-06
2.31424e-06
7.994e-06
1.95361e-06
7.27097e-06
2.39066e-06
6.36434e-06
2.12097e-06
6.00294e-06
1.7158e-06
5.59026e-06
2.97225e-06
6.32196e-07
5.14074e-06
5.191e-06
2.00666e-07
5.21765e-06
-1.65706e-06
5.7249e-06
-8.82521e-07
5.93233e-06
-1.71637e-06
6.66095e-06
-2.01415e-06
6.88251e-06
-2.31237e-06
7.37602e-06
-2.33443e-06
8.12002e-06
-3.22617e-06
8.75836e-06
-2.64666e-06
9.44684e-06
-2.87629e-06
1.01191e-05
-2.27536e-06
1.06788e-05
-2.35075e-06
1.11536e-05
-1.55775e-06
1.15572e-05
-1.36135e-06
1.16267e-05
-6.44863e-07
1.16271e-05
9.24215e-08
1.1521e-05
4.78083e-07
1.1237e-05
1.21562e-06
1.07683e-05
1.55715e-06
1.0204e-05
2.36493e-06
9.58312e-06
2.55481e-06
8.80099e-06
3.09637e-06
8.05666e-06
2.69794e-06
7.47405e-06
2.97328e-06
6.63729e-06
2.95773e-06
6.05661e-06
2.29648e-06
5.67209e-06
3.35677e-06
1.17911e-06
5.12517e-06
4.96903e-06
-1.02869e-07
5.0399e-06
-1.72793e-06
5.33995e-06
-1.18257e-06
5.65281e-06
-2.02924e-06
6.36301e-06
-2.72434e-06
6.82129e-06
-2.77065e-06
7.59441e-06
-3.10756e-06
8.30809e-06
-3.93984e-06
8.93928e-06
-3.27785e-06
9.61974e-06
-3.55676e-06
1.02881e-05
-2.94374e-06
1.07746e-05
-2.83723e-06
1.12058e-05
-1.9889e-06
1.15594e-05
-1.71502e-06
1.15598e-05
-6.45242e-07
1.16932e-05
-4.09682e-08
1.15641e-05
6.0724e-07
1.12517e-05
1.52795e-06
1.07649e-05
2.04396e-06
1.01437e-05
2.98611e-06
9.40779e-06
3.29075e-06
8.63769e-06
3.86646e-06
7.79535e-06
3.54027e-06
7.16315e-06
3.60548e-06
6.52347e-06
3.59741e-06
6.04943e-06
2.77052e-06
5.80932e-06
3.59688e-06
1.84617e-06
5.14226e-06
4.79416e-06
-4.68225e-07
4.78388e-06
-1.71764e-06
5.36887e-06
-1.76757e-06
5.87085e-06
-2.53122e-06
6.17871e-06
-3.03221e-06
6.68321e-06
-3.27514e-06
7.56686e-06
-3.99121e-06
8.2296e-06
-4.60258e-06
8.97407e-06
-4.02232e-06
9.6786e-06
-4.26129e-06
1.02685e-05
-3.5336e-06
1.06775e-05
-3.24624e-06
1.1091e-05
-2.40243e-06
1.13009e-05
-1.92494e-06
1.12836e-05
-6.27941e-07
1.13725e-05
-1.2989e-07
1.1198e-05
7.81732e-07
1.09443e-05
1.78174e-06
1.06672e-05
2.32106e-06
1.01599e-05
3.49335e-06
9.59485e-06
3.85582e-06
8.89742e-06
4.56389e-06
8.05359e-06
4.3841e-06
7.28361e-06
4.37546e-06
6.59626e-06
4.28476e-06
6.06068e-06
3.3061e-06
5.9e-06
3.75756e-06
2.60739e-06
5.13877e-06
4.66815e-06
-8.98071e-07
4.68824e-06
-1.73773e-06
5.24389e-06
-2.32323e-06
5.57398e-06
-2.8613e-06
5.99725e-06
-3.45548e-06
6.88625e-06
-4.16414e-06
7.58783e-06
-4.69279e-06
8.02308e-06
-5.03783e-06
8.76974e-06
-4.76898e-06
9.20712e-06
-4.69867e-06
9.55351e-06
-3.87999e-06
9.87994e-06
-3.57268e-06
1.01444e-05
-2.66686e-06
1.0262e-05
-2.04254e-06
1.03233e-05
-6.89263e-07
1.03561e-05
-1.62742e-07
1.02092e-05
9.28705e-07
1.01114e-05
1.87949e-06
9.85936e-06
2.57312e-06
9.46126e-06
3.89144e-06
9.03982e-06
4.27726e-06
8.52938e-06
5.07433e-06
7.91347e-06
5.00002e-06
7.19045e-06
5.09848e-06
6.66168e-06
4.81353e-06
6.10054e-06
3.86725e-06
5.72171e-06
4.13638e-06
3.24243e-06
5.08668e-06
4.60423e-06
-1.25064e-06
4.63762e-06
-1.77112e-06
4.97313e-06
-2.65874e-06
5.34521e-06
-3.23337e-06
6.07242e-06
-4.18269e-06
6.68836e-06
-4.78009e-06
7.09302e-06
-5.09744e-06
7.52667e-06
-5.47149e-06
7.95856e-06
-5.20087e-06
8.18813e-06
-4.92824e-06
8.5214e-06
-4.21326e-06
8.76077e-06
-3.81205e-06
8.92959e-06
-2.83567e-06
8.9393e-06
-2.05225e-06
9.01441e-06
-7.64375e-07
8.99639e-06
-1.44727e-07
8.89086e-06
1.03424e-06
8.93115e-06
1.83921e-06
8.73759e-06
2.76668e-06
8.56055e-06
4.06849e-06
8.23096e-06
4.60685e-06
7.74831e-06
5.55698e-06
7.47083e-06
5.27749e-06
6.9651e-06
5.60421e-06
6.4101e-06
5.36853e-06
5.92761e-06
4.34974e-06
5.54548e-06
4.51851e-06
3.78877e-06
4.99914e-06
4.32912e-06
-1.39473e-06
4.45188e-06
-1.89388e-06
4.71489e-06
-2.92175e-06
5.29838e-06
-3.81686e-06
5.73996e-06
-4.62427e-06
6.10081e-06
-5.14094e-06
6.54112e-06
-5.53775e-06
6.63463e-06
-5.56499e-06
6.7316e-06
-5.29784e-06
6.86333e-06
-5.05998e-06
7.09153e-06
-4.44145e-06
7.19249e-06
-3.91301e-06
7.3219e-06
-2.96508e-06
7.45515e-06
-2.1855e-06
7.58968e-06
-8.98901e-07
7.54045e-06
-9.54992e-08
7.44558e-06
1.1291e-06
7.4194e-06
1.86539e-06
7.22929e-06
2.95679e-06
7.22649e-06
4.07128e-06
7.13283e-06
4.70051e-06
6.80684e-06
5.88297e-06
6.55225e-06
5.53209e-06
6.24997e-06
5.90649e-06
5.96497e-06
5.65353e-06
5.45673e-06
4.85798e-06
5.01557e-06
4.95967e-06
4.05188e-06
4.75246e-06
4.06003e-06
-1.55769e-06
4.19256e-06
-2.02641e-06
4.43589e-06
-3.16507e-06
4.8574e-06
-4.23837e-06
5.10304e-06
-4.86991e-06
5.35349e-06
-5.3914e-06
5.27975e-06
-5.464e-06
5.16651e-06
-5.45176e-06
5.28239e-06
-5.41372e-06
5.34523e-06
-5.12282e-06
5.39965e-06
-4.49588e-06
5.38764e-06
-3.901e-06
5.55985e-06
-3.13729e-06
5.62612e-06
-2.25177e-06
5.68009e-06
-9.52875e-07
5.74539e-06
-1.608e-07
5.82121e-06
1.05328e-06
5.77821e-06
1.90839e-06
5.68328e-06
3.05173e-06
5.6895e-06
4.06506e-06
5.54789e-06
4.84213e-06
5.61199e-06
5.81887e-06
5.56956e-06
5.57452e-06
5.21679e-06
6.25926e-06
5.06413e-06
5.80619e-06
4.89512e-06
5.02699e-06
4.5831e-06
5.27168e-06
4.37175e-06
4.26323e-06
3.60888e-06
-1.4884e-06
3.75982e-06
-2.17735e-06
4.00931e-06
-3.41457e-06
4.20458e-06
-4.43364e-06
4.29146e-06
-4.95678e-06
4.05878e-06
-5.15872e-06
3.84107e-06
-5.24629e-06
3.73551e-06
-5.3462e-06
3.59108e-06
-5.26929e-06
3.48266e-06
-5.0144e-06
3.58736e-06
-4.60057e-06
3.62077e-06
-3.93442e-06
3.62372e-06
-3.14023e-06
3.57187e-06
-2.19992e-06
3.70904e-06
-1.09005e-06
3.78024e-06
-2.31995e-07
3.78e-06
1.05351e-06
3.73347e-06
1.95492e-06
3.82461e-06
2.96059e-06
4.13928e-06
3.75038e-06
3.97262e-06
5.00879e-06
3.96846e-06
5.82303e-06
4.09125e-06
5.45173e-06
4.16137e-06
6.18913e-06
4.07747e-06
5.89009e-06
3.81991e-06
5.28455e-06
3.78144e-06
5.31016e-06
4.40869e-06
3.7445e-06
3.14633e-06
-1.42103e-06
3.18157e-06
-2.21259e-06
3.31544e-06
-3.54843e-06
3.30119e-06
-4.41939e-06
3.05479e-06
-4.71038e-06
2.74355e-06
-4.84749e-06
2.39669e-06
-4.89943e-06
2.08749e-06
-5.037e-06
2.02279e-06
-5.20459e-06
2.05109e-06
-5.04269e-06
1.9426e-06
-4.49209e-06
1.75942e-06
-3.75123e-06
1.71386e-06
-3.09467e-06
1.69587e-06
-2.18193e-06
1.6402e-06
-1.03438e-06
1.57711e-06
-1.689e-07
1.69287e-06
9.37752e-07
1.87221e-06
1.77558e-06
1.90238e-06
2.93042e-06
2.01434e-06
3.63842e-06
2.23348e-06
4.78965e-06
2.59799e-06
5.45852e-06
2.59903e-06
5.4507e-06
2.66307e-06
6.12509e-06
2.9444e-06
5.60876e-06
2.98165e-06
5.2473e-06
2.88085e-06
5.41096e-06
4.34252e-06
2.94702e-06
2.24193e-06
-1.23797e-06
2.36036e-06
-2.33103e-06
2.44206e-06
-3.63013e-06
2.1895e-06
-4.16684e-06
1.78405e-06
-4.30493e-06
1.3766e-06
-4.44003e-06
1.05018e-06
-4.57301e-06
7.99364e-07
-4.78618e-06
5.13388e-07
-4.91861e-06
2.01533e-07
-4.73084e-06
2.81869e-08
-4.31874e-06
-1.43054e-07
-3.57999e-06
-4.05946e-07
-2.83178e-06
-5.54513e-07
-2.03337e-06
-5.70228e-07
-1.01866e-06
-4.90311e-07
-2.48817e-07
-4.61287e-07
9.08729e-07
-3.85705e-07
1.7e-06
-4.19756e-08
2.58669e-06
1.20272e-07
3.47617e-06
4.38615e-07
4.47131e-06
6.23711e-07
5.27342e-06
1.01644e-06
5.05797e-06
1.48365e-06
5.65789e-06
1.58753e-06
5.50488e-06
1.7102e-06
5.12462e-06
2.02284e-06
5.09832e-06
4.12453e-06
2.24083e-06
1.31156e-06
-1.32624e-06
1.51035e-06
-2.52981e-06
1.37492e-06
-3.4947e-06
9.42437e-07
-3.73435e-06
5.58063e-07
-3.92055e-06
1.16979e-07
-3.99895e-06
-3.5587e-07
-4.10017e-06
-8.18174e-07
-4.32387e-06
-1.22723e-06
-4.50955e-06
-1.59362e-06
-4.36445e-06
-1.94691e-06
-3.96546e-06
-2.21491e-06
-3.31199e-06
-2.44609e-06
-2.60059e-06
-2.64218e-06
-1.83728e-06
-2.72927e-06
-9.31568e-07
-2.8054e-06
-1.72695e-07
-2.66659e-06
7.69924e-07
-2.41953e-06
1.45294e-06
-2.2086e-06
2.37576e-06
-1.95589e-06
3.22347e-06
-1.44836e-06
3.96377e-06
-9.29619e-07
4.75468e-06
-5.31441e-07
4.65979e-06
-5.44299e-09
5.13189e-06
3.79625e-07
5.11981e-06
7.46424e-07
4.75783e-06
8.75212e-07
4.96953e-06
3.73542e-06
1.26432e-06
6.95923e-07
-1.40622e-06
5.31972e-07
-2.36586e-06
9.66731e-08
-3.0594e-06
-2.29059e-07
-3.40862e-06
-6.62747e-07
-3.48687e-06
-1.183e-06
-3.4787e-06
-1.74415e-06
-3.53901e-06
-2.3153e-06
-3.75272e-06
-2.85249e-06
-3.97237e-06
-3.33408e-06
-3.88286e-06
-3.78574e-06
-3.51381e-06
-4.1504e-06
-2.94734e-06
-4.45993e-06
-2.29106e-06
-4.71127e-06
-1.58594e-06
-4.83127e-06
-8.1157e-07
-4.88638e-06
-1.17584e-07
-4.77417e-06
6.57721e-07
-4.61008e-06
1.28885e-06
-4.34161e-06
2.10728e-06
-3.83905e-06
2.72091e-06
-3.32414e-06
3.44886e-06
-2.84902e-06
4.27956e-06
-2.2192e-06
4.02996e-06
-1.43309e-06
4.34578e-06
-1.03515e-06
4.72187e-06
-6.01989e-07
4.32466e-06
-7.55578e-08
4.4431e-06
3.49487e-06
1.64992e-07
-1.84656e-07
-1.234e-06
-5.57511e-07
-1.99301e-06
-7.99859e-07
-2.81705e-06
-1.27753e-06
-2.93095e-06
-2.03795e-06
-2.72645e-06
-2.6195e-06
-2.89714e-06
-3.03454e-06
-3.12398e-06
-3.63244e-06
-3.15482e-06
-4.32702e-06
-3.27779e-06
-4.96993e-06
-3.23994e-06
-5.53606e-06
-2.94768e-06
-5.99066e-06
-2.49273e-06
-6.34727e-06
-1.93444e-06
-6.61509e-06
-1.31812e-06
-6.75048e-06
-6.76184e-07
-6.78551e-06
-8.25531e-08
-6.66706e-06
5.39275e-07
-6.47682e-06
1.0986e-06
-6.12587e-06
1.75634e-06
-5.6804e-06
2.27543e-06
-5.19574e-06
2.96421e-06
-4.41771e-06
3.50153e-06
-3.70746e-06
3.31972e-06
-3.11288e-06
3.7512e-06
-2.44968e-06
4.05867e-06
-1.66694e-06
3.54192e-06
-1.20002e-06
3.97618e-06
2.90026e-06
-6.05412e-07
-9.427e-07
-8.90738e-07
-1.48606e-06
-1.44965e-06
-1.78242e-06
-2.52069e-06
-2.35116e-06
-2.3622e-06
-3.03083e-06
-2.04679e-06
-3.80186e-06
-2.12611e-06
-4.55273e-06
-2.37311e-06
-5.16017e-06
-2.54737e-06
-5.81206e-06
-2.6259e-06
-6.49516e-06
-2.55684e-06
-7.10887e-06
-2.33397e-06
-7.63756e-06
-1.96405e-06
-8.03788e-06
-1.53412e-06
-8.32621e-06
-1.02979e-06
-8.45479e-06
-5.47605e-07
-8.47513e-06
-6.22177e-08
-8.3719e-06
4.36048e-07
-8.13028e-06
8.56975e-07
-7.78561e-06
1.41167e-06
-7.30046e-06
1.79028e-06
-6.70474e-06
2.36849e-06
-5.85604e-06
2.65283e-06
-5.15403e-06
2.6177e-06
-4.34268e-06
2.93985e-06
-3.38618e-06
3.10218e-06
-2.62096e-06
2.77669e-06
-1.71731e-06
3.07253e-06
2.24614e-06
-1.06319e-06
-1.50254e-06
-5.53997e-07
-1.9315e-06
-1.02069e-06
-2.45655e-06
-1.99564e-06
-3.04612e-06
-1.77264e-06
-3.8747e-06
-1.21821e-06
-4.7029e-06
-1.29791e-06
-5.48477e-06
-1.59124e-06
-6.2878e-06
-1.74435e-06
-7.09057e-06
-1.82312e-06
-7.88711e-06
-1.76031e-06
-8.59134e-06
-1.62974e-06
-9.17505e-06
-1.38034e-06
-9.62844e-06
-1.08073e-06
-9.92704e-06
-7.31185e-07
-1.00711e-05
-4.03583e-07
-1.00951e-05
-3.81722e-08
-9.93485e-06
2.75787e-07
-9.66646e-06
5.8859e-07
-9.23667e-06
9.81882e-07
-8.66943e-06
1.22304e-06
-7.96382e-06
1.66288e-06
-7.08995e-06
1.77896e-06
-6.32189e-06
1.84964e-06
-5.36142e-06
1.97937e-06
-4.40499e-06
2.14576e-06
-3.41388e-06
1.78558e-06
-2.4448e-06
2.10346e-06
1.64094e-06
-1.83961e-06
-1.72835e-06
-3.92051e-08
-2.30285e-06
-4.46193e-07
-3.24308e-06
-1.05541e-06
-4.0768e-06
-9.3891e-07
-4.71686e-06
-5.78146e-07
-5.3935e-06
-6.2128e-07
-6.27899e-06
-7.05744e-07
-7.15463e-06
-8.68711e-07
-8.03965e-06
-9.38094e-07
-8.92708e-06
-8.72883e-07
-9.70934e-06
-8.47476e-07
-1.03918e-05
-6.97832e-07
-1.09034e-05
-5.69141e-07
-1.12382e-05
-3.96386e-07
-1.14281e-05
-2.13748e-07
-1.14312e-05
-3.50196e-08
-1.12887e-05
1.33278e-07
-1.09935e-05
2.93378e-07
-1.05208e-05
5.09168e-07
-9.91884e-06
6.21079e-07
-9.09984e-06
8.43879e-07
-8.22866e-06
9.07783e-07
-7.30145e-06
9.22434e-07
-6.34576e-06
1.02369e-06
-5.34842e-06
1.14842e-06
-4.36164e-06
7.98797e-07
-3.40646e-06
1.14828e-06
7.92632e-07
-2.55815e-06
-2.42027e-06
-2.86647e-06
-3.92188e-06
-4.86079e-06
-5.43893e-06
-6.06021e-06
-6.76596e-06
-7.63467e-06
-8.57276e-06
-9.44564e-06
-1.02931e-05
-1.0991e-05
-1.15601e-05
-1.19565e-05
-1.21702e-05
-1.22052e-05
-1.2072e-05
-1.17786e-05
-1.12694e-05
-1.06483e-05
-9.80446e-06
-8.89668e-06
-7.97425e-06
-6.95056e-06
-5.80214e-06
-5.00334e-06
-3.85506e-06
-3.06243e-06
4.83178e-06
1.55533e-06
-1.66583e-06
3.96716e-06
-3.49699e-07
1.21432e-06
3.48263e-06
1.4401e-06
-9.55573e-07
4.11047e-06
-1.07287e-06
4.45031e-07
4.5126e-06
-2.19706e-06
1.79493e-06
2.73997e-06
-2.57359e-06
4.34622e-06
7.40482e-07
-5.84192e-07
2.58368e-06
-3.66074e-06
-1.22624e-06
5.62746e-06
4.70753e-06
1.2452e-06
3.97827e-06
3.79554e-07
4.00914e-06
1.40923e-06
4.01047e-06
-1.0742e-06
3.55851e-06
-1.7451e-06
1.71364e-06
-7.28719e-07
1.18833e-06
-5.88885e-08
-3.44814e-06
9.75731e-07
4.92836e-06
1.45757e-06
4.29149e-06
1.01643e-06
4.16221e-06
1.53851e-06
3.43822e-06
-3.50208e-07
2.42659e-06
-7.33466e-07
2.43104e-06
-7.33163e-07
2.74068e-06
-3.68527e-07
-1.78649e-06
1.07903e-06
4.78513e-06
1.79761e-06
4.23901e-06
1.56255e-06
4.66953e-06
1.10799e-06
4.32504e-06
-5.71825e-09
3.24406e-06
3.47522e-07
2.56912e-06
-5.82253e-08
2.15639e-06
4.41981e-08
-1.22471e-06
1.59461e-06
4.6743e-06
2.26557e-06
4.20553e-06
2.03132e-06
4.02653e-06
1.287e-06
3.76133e-06
2.59475e-07
3.40263e-06
7.06221e-07
2.77915e-06
5.65258e-07
2.22898e-06
5.94367e-07
-6.2422e-07
1.6285e-06
4.56969e-06
2.83465e-06
4.1586e-06
2.44241e-06
3.79996e-06
1.64564e-06
3.47704e-06
5.82395e-07
3.23479e-06
9.48469e-07
3.00878e-06
7.91269e-07
2.50413e-06
1.09902e-06
5.37376e-08
1.82617e-06
4.63899e-06
3.28234e-06
4.33826e-06
2.74314e-06
3.79448e-06
2.18942e-06
3.38232e-06
9.94551e-07
3.03341e-06
1.29738e-06
2.78669e-06
1.03799e-06
2.42243e-06
1.46328e-06
2.61531e-07
2.21464e-06
4.5268e-06
3.75468e-06
4.21976e-06
3.05017e-06
3.8193e-06
2.58988e-06
3.39032e-06
1.42353e-06
3.12298e-06
1.56472e-06
2.86936e-06
1.29161e-06
2.77737e-06
1.55527e-06
3.95573e-07
2.64333e-06
4.24083e-06
4.26632e-06
3.79475e-06
3.49625e-06
3.60737e-06
2.77726e-06
3.32604e-06
1.70486e-06
3.16247e-06
1.72829e-06
2.91609e-06
1.53799e-06
2.81874e-06
1.65262e-06
5.8636e-07
2.62795e-06
3.94752e-06
4.58203e-06
3.7335e-06
3.71027e-06
3.54428e-06
2.96648e-06
3.14693e-06
2.10221e-06
2.85944e-06
2.01578e-06
2.68926e-06
1.70817e-06
2.66392e-06
1.67796e-06
8.32486e-07
2.41779e-06
3.57039e-06
4.75615e-06
3.51968e-06
3.76097e-06
3.3821e-06
3.10406e-06
3.12872e-06
2.35559e-06
2.85259e-06
2.29192e-06
2.85646e-06
1.70429e-06
2.95605e-06
1.57838e-06