/*--------------------------------*- C++ -*----------------------------------*\
| =========                 |                                                 |
| \\      /  F ield         | OpenFOAM: The Open Source CFD Toolbox           |
|  \\    /   O peration     | Version:  2.4.0                                 |
|   \\  /    A nd           | Web:      www.OpenFOAM.org                      |
|    \\/     M anipulation  |                                                 |
\*---------------------------------------------------------------------------*/
FoamFile
{
    version     2.0;
    format      ascii;
    class       volScalarField;
    location    "850";
    object      p;
}
// * * * * * * * * * * * * * * * * * * * * * * * * * * * * * * * * * * * * * //

dimensions      [0 2 -2 0 0 0 0];

internalField   nonuniform List<scalar> 
12032
(
1.08162e-05
1.09222e-05
1.14042e-05
1.03338e-05
2.84431e-06
-1.69428e-05
-6.61354e-05
-0.000259908
-0.000868236
-0.00166817
-0.00263619
-0.00174455
-0.000529379
-0.000171936
-5.40155e-05
-1.93544e-05
-9.52866e-06
-7.13437e-06
-6.23562e-06
-7.74155e-06
2.50298e-05
2.49179e-05
2.50878e-05
1.95641e-05
-5.87133e-06
-8.88718e-05
-0.000316633
-0.000993949
-0.00274932
-0.00477898
-0.00634469
-0.00394444
-0.00153318
-0.000579515
-0.000212795
-8.63295e-05
-4.27723e-05
-2.93147e-05
-2.56285e-05
-2.63613e-05
3.2694e-05
3.06623e-05
2.45576e-05
-1.14658e-06
-8.11992e-05
-0.000299297
-0.000862095
-0.00224774
-0.00534785
-0.00864549
-0.0108595
-0.00699724
-0.00310649
-0.00130925
-0.000548178
-0.000233442
-0.000109815
-6.48024e-05
-4.89237e-05
-4.65855e-05
5.66918e-05
4.91055e-05
2.59955e-05
-4.30238e-05
-0.000221965
-0.000650182
-0.00164552
-0.00385184
-0.00829925
-0.0127075
-0.015028
-0.0102764
-0.00495398
-0.00226824
-0.00101583
-0.000446967
-0.000199271
-9.84625e-05
-5.99752e-05
-4.85558e-05
0.00011442
9.55038e-05
4.15399e-05
-9.57268e-05
-0.000418722
-0.00113004
-0.00263118
-0.00571697
-0.0114356
-0.0168766
-0.0184671
-0.0131282
-0.00681024
-0.00335963
-0.00158238
-0.000713359
-0.000304678
-0.000120964
-4.27484e-05
-1.68502e-05
0.0002133
0.000175593
7.40831e-05
-0.00016133
-0.000672022
-0.00173009
-0.00382229
-0.00783805
-0.0148194
-0.0210291
-0.0223109
-0.0159803
-0.00881219
-0.00458797
-0.00226016
-0.00104075
-0.000425765
-0.000127786
7.7055e-06
5.80108e-05
0.000345776
0.000280792
0.000112655
-0.000253229
-0.000999365
-0.00246132
-0.00522783
-0.0102581
-0.0186411
-0.0256638
-0.0268944
-0.0195806
-0.0111875
-0.00601707
-0.00306802
-0.00143881
-0.000571671
-0.000127426
8.59973e-05
0.000168803
0.000492749
0.000389751
0.000133537
-0.000397299
-0.00142654
-0.00335348
-0.00685196
-0.0129742
-0.0228525
-0.0309144
-0.0326184
-0.0239992
-0.0139234
-0.00766934
-0.00400765
-0.00191474
-0.000756797
-0.000138698
0.000169866
0.000294851
0.000620234
0.000468114
0.000101529
-0.000628547
-0.00199083
-0.00444015
-0.0087287
-0.016014
-0.0274373
-0.0365165
-0.0381569
-0.0283113
-0.0167924
-0.00950129
-0.00509144
-0.00249474
-0.00101328
-0.00019592
0.000227527
0.000403582
0.000688358
0.000476294
-2.36907e-05
-0.000988006
-0.00273024
-0.00576882
-0.0109234
-0.0194487
-0.032458
-0.0424845
-0.0433757
-0.0326633
-0.0198635
-0.0115328
-0.00635223
-0.00322547
-0.0013864
-0.000341135
0.000215782
0.000454372
0.000656015
0.000373213
-0.000281663
-0.00151269
-0.00367776
-0.00736293
-0.0134738
-0.0233691
-0.0382699
-0.049515
-0.049766
-0.0374993
-0.0233306
-0.013856
-0.00785722
-0.00415154
-0.0019171
-0.000614781
9.57975e-05
0.000405029
0.000494005
0.000129097
-0.000703047
-0.00223429
-0.00486643
-0.00925021
-0.0164035
-0.0278196
-0.0449212
-0.0575112
-0.0578893
-0.043597
-0.0274186
-0.0165833
-0.00965614
-0.00530929
-0.0026376
-0.00104876
-0.000167101
0.000222757
0.000181814
-0.000275852
-0.00130742
-0.00317497
-0.00632911
-0.0114987
-0.0198292
-0.0330377
-0.0527795
-0.0668406
-0.0669648
-0.050854
-0.0321823
-0.0197632
-0.0117863
-0.00672371
-0.00356751
-0.00166227
-0.000590723
-0.000113168
-0.000284629
-0.000845263
-0.00209786
-0.00433898
-0.00807751
-0.0141406
-0.0238527
-0.0392382
-0.0623407
-0.0783958
-0.0775449
-0.0589573
-0.0375691
-0.0233781
-0.0142257
-0.00838109
-0.0047033
-0.00245544
-0.00117861
-0.000603971
-0.000893903
-0.00156324
-0.00304881
-0.00568028
-0.0100244
-0.0170067
-0.0281098
-0.0456811
-0.0722915
-0.0901095
-0.0874401
-0.066601
-0.0428392
-0.0270587
-0.0168098
-0.0101999
-0.00599929
-0.00340207
-0.00191115
-0.00123594
-0.00161636
-0.00239387
-0.00410765
-0.00711106
-0.0120081
-0.0197716
-0.0319197
-0.0507562
-0.0786189
-0.0957106
-0.0916487
-0.0708428
-0.0468317
-0.0303022
-0.0192925
-0.0120549
-0.00737993
-0.00445216
-0.00275352
-0.00197803
-0.00241997
-0.00330198
-0.00523678
-0.00860254
-0.0140488
-0.0226353
-0.036015
-0.0566463
-0.0862497
-0.100422
-0.0958618
-0.0770308
-0.0517557
-0.0338679
-0.0218838
-0.0139615
-0.00881157
-0.0055639
-0.00366529
-0.00279419
-0.00328842
-0.0042879
-0.00648375
-0.0103229
-0.0166153
-0.0267881
-0.0434146
-0.0712978
-0.118636
-0.157714
-0.154367
-0.104195
-0.0640174
-0.0401102
-0.0254684
-0.016251
-0.010404
-0.00675712
-0.00463471
-0.00366009
-0.00424422
-0.00540698
-0.00798975
-0.0125945
-0.0203712
-0.033448
-0.0557875
-0.094714
-0.16306
-0.239689
-0.32596
-0.141071
-0.0828042
-0.0499967
-0.0308687
-0.0193892
-0.0123808
-0.00812579
-0.00569003
-0.00458109
-0.00533027
-0.00672467
-0.0098564
-0.0155312
-0.0252891
-0.0419269
-0.0703155
-0.117822
-0.186074
-0.509127
-0.634065
-0.231578
-0.100168
-0.0613208
-0.0376193
-0.0233938
-0.0148426
-0.00974854
-0.00687936
-0.00558599
-0.00656805
-0.00822992
-0.0119477
-0.0185968
-0.029685
-0.0474993
-0.074978
-0.114824
-0.213244
-0.695544
-0.259773
-0.100222
-0.0659423
-0.0424284
-0.0270925
-0.0174271
-0.0115414
-0.00820102
-0.00669294
-0.0079166
-0.00979667
-0.0138899
-0.0208085
-0.0311537
-0.0444297
-0.0554979
-0.0436506
0.0568423
0.356831
0.451237
0.0210393
-0.0478588
-0.0520798
-0.0406839
-0.0285971
-0.0193824
-0.0132274
-0.00956746
-0.00787788
-0.0092785
-0.0112412
-0.0153166
-0.0215755
-0.0292982
-0.0351736
-0.0291523
0.0132125
0.128493
0.276776
0.250791
0.0963591
0.000459545
-0.0309559
-0.0335915
-0.027385
-0.0201886
-0.0145094
-0.0108368
-0.00907006
-0.0105301
-0.0123938
-0.0160139
-0.0208295
-0.0249426
-0.0233877
-0.00533608
0.046286
0.137601
0.219769
0.206061
0.115669
0.032308
-0.0103701
-0.0238699
-0.0239586
-0.0197234
-0.0151945
-0.0118709
-0.0101741
-0.0115621
-0.0131476
-0.0159486
-0.0188565
-0.0192305
-0.011662
0.0128016
0.0626589
0.131078
0.182122
0.174197
0.11595
0.0501515
0.00635944
-0.0137012
-0.0191931
-0.0181693
-0.0152318
-0.0125754
-0.0111001
-0.0122972
-0.0134641
-0.0152141
-0.0160732
-0.0131048
-0.00133951
0.0254325
0.0697946
0.12159
0.156133
0.151117
0.110786
0.0593001
0.0187196
-0.00436169
-0.0138807
-0.0158458
-0.0146792
-0.0129096
-0.0117817
-0.0126704
-0.0133279
-0.0139251
-0.0128211
-0.00714702
0.00714852
0.0337973
0.0721002
0.11221
0.137117
0.133688
0.1042
0.0634412
0.0273884
0.00361413
-0.00854497
-0.0130318
-0.0136166
-0.0128501
-0.0121583
-0.0126012
-0.0126975
-0.0121253
-0.00925944
-0.00156796
0.01395
0.0391558
0.0718172
0.103499
0.122258
0.119777
0.0973836
0.0646957
0.0333062
0.0102423
-0.00339509
-0.00985742
-0.0120681
-0.0123502
-0.0121541
-0.0121085
-0.011642
-0.00997066
-0.00562206
0.00345763
0.019291
0.0424608
0.0701898
0.0956019
0.110149
0.108283
0.0908303
0.0643233
0.0372494
0.0156243
0.00136417
-0.00654063
-0.0101676
-0.0114637
-0.0117781
-0.0115786
-0.0107154
-0.00829705
-0.00301022
0.00682078
0.0225725
0.0441348
0.0686244
0.0902437
0.102353
0.100832
0.0862637
0.0635532
0.0393919
0.0190038
0.00459739
-0.00412959
-0.00867462
-0.0106721
-0.0113523
-0.620429
-0.672006
-0.50883
-0.621029
-0.672962
-0.353027
-0.467206
-0.633868
-0.352948
-0.467545
0.232228
0.588654
-0.695542
0.232226
0.588703
-0.445353
0.559827
0.150616
-0.44645
0.559869
0.150607
0.486657
0.347611
0.639649
0.345796
0.639941
0.486128
-0.752369
-0.672823
-0.759394
-0.673055
-0.756785
-0.752298
-0.752341
-0.673085
-0.754371
-0.673037
-0.756226
-0.752292
-0.759905
-0.673086
0.338964
-0.673348
0.338246
-0.759767
-0.759962
-0.673663
0.336447
-0.673424
0.341542
-0.759856
0.593944
-0.752974
0.641501
-0.747267
0.641393
0.593615
0.594206
-0.749064
0.641743
-0.747187
0.641466
0.594688
0.486769
0.349028
0.639931
0.346397
0.640018
0.486237
-0.222542
-0.461093
-0.351787
-0.32597
-0.222517
-0.461027
-0.351688
-0.309628
-0.20942
-0.454979
-0.186074
-0.309635
-0.209436
-0.455328
-0.706759
-0.634019
-0.588273
-0.700177
-0.588231
-0.700067
-0.70679
-0.154247
-0.347181
-0.175188
-0.231531
-0.154236
-0.347275
-0.175176
-0.468641
-0.119922
-0.070273
-0.213219
-0.46867
-0.119934
-0.0703
0.541109
-0.694615
-0.789279
-0.182929
-0.78643
-0.182677
0.54019
0.59848
0.658384
0.658164
0.598384
-0.183451
-0.0670439
-0.109904
-0.259863
-0.183468
-0.0670648
-0.109918
-0.788104
-0.672381
-0.58311
-0.807265
-0.583495
-0.805651
-0.788054
-0.665334
-0.622064
-0.621818
-0.665332
-0.788174
-0.672566
-0.582729
-0.803728
-0.583355
-0.80535
-0.788267
-0.663305
-0.618593
-0.619054
-0.662835
-0.675692
-0.632821
-0.632815
-0.675779
-0.745174
-0.467414
-0.44347
0.219057
-0.443573
0.199373
-0.744486
-0.706679
-0.633923
-0.587985
-0.700016
-0.588126
-0.699989
-0.706528
-0.675033
-0.631911
-0.632204
-0.674937
-0.745455
-0.467485
-0.443577
0.206986
-0.443739
0.201621
-0.745357
0.643817
0.656891
0.656374
0.644389
0.541394
-0.694826
-0.784038
-0.183462
-0.786188
-0.182811
0.541406
0.637433
0.650614
0.650634
0.637427
0.159058
-0.445709
0.0941922
-0.168145
0.0973282
-0.168443
0.1589
0.597553
0.656718
0.656592
0.59765
0.159007
-0.446298
0.0955522
-0.168754
0.0964004
-0.168671
0.158667
0.598545
0.657815
0.658066
0.598743
0.540066
0.346157
0.402922
0.403114
0.540054
0.539924
0.40353
0.345418
0.403224
0.539896
-0.665183
-0.620845
-0.664773
-0.621556
-0.708783
-0.653071
-0.758704
-0.776634
-0.776706
-0.650217
-0.708807
-0.708857
-0.776672
-0.642416
-0.75826
-0.776787
-0.708738
-0.649438
-0.663567
-0.620443
-0.664462
-0.619342
-0.70774
-0.637155
-0.754507
-0.776039
-0.776287
-0.635908
-0.707303
-0.7082
-0.776598
-0.641257
-0.754876
-0.708543
-0.776495
-0.636052
-0.721277
-0.739798
-0.762962
-0.759817
-0.739758
-0.762861
-0.721333
-0.675829
-0.632842
-0.632846
-0.675673
-0.704116
0.330505
-0.802974
-0.803112
-0.704404
-0.703932
-0.805103
0.329523
-0.803104
-0.703433
-0.721216
-0.759766
-0.739655
-0.762733
-0.739704
-0.762808
-0.721171
-0.72141
-0.73983
-0.763145
-0.759975
-0.721364
-0.73984
-0.763337
-0.675173
-0.632755
-0.632356
-0.675551
-0.702646
0.340008
-0.809516
-0.810022
-0.70261
-0.702726
-0.805909
0.340605
-0.703246
-0.808908
-0.721489
-0.759932
-0.739786
-0.7633
-0.739811
-0.763489
-0.721602
0.643388
0.653955
0.655972
0.640898
0.635875
-0.751018
0.596206
0.596212
0.636423
0.63541
0.594908
-0.750629
0.596031
0.633273
0.63763
0.653066
0.639855
0.650809
0.6309
-0.747518
0.592753
0.592956
0.630825
0.631027
0.594382
-0.747254
0.632537
0.593063
0.597524
0.657533
0.598495
0.656504
0.539626
0.348018
0.402603
0.402789
0.539643
0.539501
0.403343
0.347197
0.539693
0.402965
0.654387
0.679369
0.679272
0.655412
0.499455
0.30505
0.406076
0.356836
0.499467
0.305054
0.406081
0.236409
0.377757
0.236912
0.451246
0.236408
0.37776
0.236912
-0.583389
-0.595365
-0.596416
-0.583952
-0.573921
-0.579559
-0.579288
-0.573811
-0.645374
-0.619127
-0.618938
-0.648285
-0.641055
-0.609068
-0.610429
-0.64177
0.649688
0.664046
0.664122
0.650798
0.597644
0.588797
0.625449
0.561823
0.625586
0.561952
0.597436
0.668412
0.681356
0.677178
0.67145
0.597797
0.58882
0.625716
0.561887
0.625716
0.561977
0.597733
0.468239
0.55996
0.599248
0.436196
0.599318
0.436297
0.468094
0.654364
0.686325
0.683642
0.654709
0.468308
0.559974
0.599345
0.436193
0.599357
0.436297
0.468209
0.654353
0.676821
0.677901
0.657371
0.454968
0.511726
0.347268
0.339802
0.340001
0.512037
0.455252
0.618899
0.653418
0.639824
0.601959
0.653562
0.602183
0.618539
0.453378
0.339117
0.506438
0.34503
0.339121
0.505327
0.453544
0.619284
0.602452
0.653757
0.639919
0.653711
0.602353
0.619388
-0.580229
-0.587832
-0.579111
-0.590589
-0.739868
-0.723785
-0.759339
-0.774996
-0.775
-0.721874
-0.739938
-0.737533
-0.774318
-0.710758
-0.757294
-0.774447
-0.736979
-0.713856
-0.576657
-0.58706
-0.578528
-0.583442
-0.731729
-0.705773
-0.754427
-0.772197
-0.772429
-0.705043
-0.731192
-0.735275
-0.774031
-0.709865
-0.755737
-0.773705
-0.736142
-0.707161
-0.641679
-0.616425
-0.617687
-0.640543
-0.672421
-0.649423
-0.673256
-0.697205
-0.697367
-0.649522
-0.672309
0.33778
-0.672576
-0.697387
-0.649755
-0.673353
-0.697414
-0.649659
-0.672678
0.327613
-0.639995
-0.616128
-0.61443
-0.640505
-0.672813
-0.649828
-0.673663
-0.697884
-0.649817
-0.697864
-0.672917
0.338396
-0.67278
-0.69749
-0.649799
-0.673581
-0.649811
-0.672741
-0.697721
0.345477
0.626041
0.598151
0.621511
0.593781
0.598231
0.62143
0.625846
0.653903
0.666027
0.66538
0.657296
-0.745211
-0.752498
0.599678
0.598722
-0.724852
0.641262
0.649719
0.641529
0.635228
0.649552
0.635286
0.641417
0.595085
-0.703891
-0.748653
0.595271
-0.709475
0.640918
0.635282
0.648539
0.641452
0.64913
0.635262
0.640558
0.626309
0.593685
0.59834
0.621345
0.598357
0.621399
0.626394
0.626055
0.598213
0.621723
0.594504
0.625835
0.598481
0.62203
0.662878
0.666332
0.658723
0.666795
-0.70167
-0.748131
0.599255
0.599673
-0.700185
0.640587
0.647718
0.641758
0.635964
0.635945
0.647734
0.640612
0.595146
-0.703836
-0.746666
0.594769
-0.700172
0.640425
0.635439
0.648
0.641646
0.640369
0.635723
0.64774
0.626325
0.594682
0.59877
0.622272
0.598747
0.622251
0.62639
0.656492
0.676196
0.657626
0.675061
0.454145
0.510872
0.348574
0.338737
0.338804
0.510459
0.454418
0.618504
0.653128
0.640087
0.602264
0.653279
0.602459
0.61817
0.452385
0.338547
0.507421
0.34632
0.337963
0.45307
0.507571
0.618889
0.602544
0.653683
0.640108
0.619209
0.653481
0.602554
-0.788825
0.570253
0.570202
0.195781
-0.961061
-0.960267
0.193761
0.56926
-0.788763
0.570126
0.196849
-0.960709
-0.96026
0.199067
0.653987
0.678846
0.679161
0.653485
0.639366
0.596376
0.596324
0.640833
0.653606
0.663516
0.658374
0.651323
0.663292
0.65134
0.653671
0.63906
0.596245
0.639563
0.596252
0.653432
0.651309
0.662169
0.658286
0.662824
0.653233
0.651317
-0.80681
-0.845519
-0.845706
-0.873882
-0.944394
-0.944437
-0.873894
-0.846201
-0.806511
-0.845945
-0.873877
-0.944584
-0.944429
-0.873778
-0.583275
-0.594894
-0.59587
-0.58207
-0.600455
-0.625404
-0.625179
-0.601607
-0.5999
-0.624126
-0.597392
-0.624627
-0.804251
-0.846868
-0.84683
-0.874027
-0.94543
-0.945229
-0.874087
-0.846439
-0.804512
-0.846648
-0.873888
-0.944626
-0.873755
-0.944934
-0.573875
-0.580675
-0.579199
-0.574662
-0.585206
-0.615503
-0.615753
-0.585043
-0.585319
-0.617171
-0.586151
-0.616266
-0.650338
-0.675508
-0.657316
-0.675816
-0.650343
-0.657339
-0.676799
-0.645527
-0.618631
-0.618984
-0.643165
-0.643943
-0.630067
-0.632819
-0.643505
-0.629957
-0.643465
-0.644101
-0.649163
-0.648318
-0.648848
-0.649323
-0.64373
-0.643368
-0.629461
-0.632805
-0.629709
-0.643523
-0.643424
-0.650333
-0.675817
-0.657439
-0.677218
-0.657378
-0.676938
-0.65039
0.200968
-0.880258
-0.880031
-0.638381
-0.658173
-0.655194
-0.63908
-0.881112
0.198165
-0.880802
-0.664339
-0.656674
-0.664482
-0.654966
-0.649115
-0.655733
-0.66856
-0.675018
-0.649074
-0.655475
-0.66803
-0.640805
-0.612317
-0.610743
-0.640265
-0.640614
-0.624057
-0.631976
-0.641973
-0.624286
-0.642026
-0.64058
-0.647422
-0.647693
-0.640732
-0.642274
-0.625106
-0.632076
-0.62465
-0.640973
-0.64213
-0.646978
-0.646652
-0.6492
-0.674969
-0.655196
-0.668108
-0.655288
-0.667941
-0.649492
0.204843
-0.879093
-0.883933
-0.664185
-0.657775
-0.655502
-0.66381
-0.881435
0.204436
-0.883206
-0.664473
-0.657383
-0.664541
-0.656034
0.645696
0.650839
0.637362
0.644095
0.645444
0.637868
0.651296
0.649768
0.664453
0.664124
0.650924
0.65029
0.645686
0.641999
0.651857
0.649045
0.653637
0.65685
0.655335
0.653484
0.655287
0.649054
0.648979
0.654644
0.653104
0.656652
0.653271
0.648822
0.655045
0.64997
0.6391
0.65008
0.641339
0.645734
0.64433
0.637872
0.651647
0.637944
0.651586
0.645685
-0.782641
0.56747
0.567092
0.191646
-0.961216
-0.960641
0.188717
0.568527
-0.782745
0.566958
0.192789
-0.960743
0.19802
-0.960696
0.642696
0.638573
0.643298
0.637401
0.643439
0.638272
0.643212
0.667358
0.671106
0.675038
0.665985
0.656202
0.647336
0.646527
0.657831
0.645086
0.65093
0.6507
0.647177
0.65106
0.647265
0.64498
0.655455
0.646132
0.654031
0.646252
0.645307
0.647304
0.651029
0.650673
0.651041
0.645738
0.647276
0.642586
0.637437
0.637939
0.64327
0.63817
0.643258
0.642513
0.0940661
0.140047
0.140692
-0.251022
-0.562943
-0.561377
-0.251219
0.141265
0.0961251
0.141168
-0.252112
-0.562244
-0.56075
-0.253943
0.654035
0.67861
0.682089
0.654205
0.638322
0.595828
0.595631
0.639511
0.652718
0.660057
0.656751
0.649723
0.660028
0.649726
0.652799
0.637988
0.595416
0.638589
0.595519
0.652528
0.649515
0.659874
0.656688
0.659904
0.652275
0.64965
0.0941575
0.138944
0.139564
-0.253864
-0.56498
-0.564038
-0.253994
0.140726
0.0931901
0.14013
-0.254594
-0.564847
-0.564893
-0.255162
0.653574
0.678643
0.65327
0.678177
0.642025
0.596923
0.596606
0.645266
0.653412
0.661133
0.657929
0.651148
0.651405
0.66116
0.653324
0.641019
0.596229
0.63998
0.59641
0.653264
0.65131
0.661515
0.658007
0.653135
0.651411
0.661197
0.528502
0.543132
0.574782
0.574946
0.543832
0.528679
0.454617
0.346855
0.509382
0.339602
0.340008
0.454204
0.512211
0.528339
0.57383
0.542824
0.574699
0.528032
0.543812
0.527337
0.539453
0.573621
0.573368
0.539482
0.527846
0.453494
0.344996
0.508438
0.339348
0.339368
0.453674
0.505476
0.527346
0.573233
0.542034
0.573368
0.527587
0.540327
-0.58006
-0.594255
-0.581541
-0.591486
-0.594428
-0.622116
-0.622606
-0.592593
-0.594831
-0.62343
-0.596544
-0.623124
-0.700784
-0.689157
-0.65264
-0.670473
-0.670312
-0.689176
-0.700865
-0.739545
-0.759054
-0.774847
-0.718565
-0.77491
-0.739111
-0.721321
-0.700565
-0.669525
-0.652057
-0.687708
-0.669887
-0.700385
-0.688742
-0.699251
-0.682995
-0.667409
-0.645904
-0.667894
-0.698889
-0.684753
-0.738179
-0.757819
-0.774691
-0.717737
-0.774565
-0.738585
-0.714732
-0.699577
-0.668807
-0.646941
-0.687066
-0.668303
-0.70003
-0.685489
-0.576109
-0.580955
-0.57496
-0.582857
-0.589117
-0.621054
-0.591655
-0.619887
-0.588428
-0.61809
-0.586623
-0.618873
-0.695575
-0.685116
-0.636705
-0.661784
-0.66207
-0.683955
-0.695304
-0.732368
-0.754361
-0.773005
-0.704567
-0.772709
-0.733144
-0.704839
-0.695925
-0.663246
-0.636535
-0.682344
-0.662515
-0.696322
-0.683517
-0.697736
-0.682473
-0.666448
-0.638412
-0.698319
-0.665484
-0.681718
-0.734563
-0.755287
-0.77325
-0.704791
-0.773434
-0.7339
-0.706508
-0.697226
-0.663946
-0.637558
-0.682096
-0.664595
-0.696774
-0.68162
-0.65009
-0.675082
-0.657259
-0.67582
-0.650337
-0.657167
-0.673983
-0.641715
-0.618594
-0.643297
-0.61783
-0.642649
-0.627811
-0.632854
-0.643071
-0.628225
-0.643172
-0.64241
-0.648253
-0.64802
-0.648847
-0.64883
-0.642966
-0.643321
-0.629083
-0.632849
-0.643311
-0.628649
-0.643252
-0.649993
-0.675771
-0.656936
-0.672271
-0.657059
-0.673516
-0.649833
-0.739011
-0.698023
-0.732216
-0.704244
-0.69979
-0.738938
-0.732231
0.336366
-0.80313
-0.76029
-0.760247
-0.760566
-0.80313
-0.760259
-0.739113
-0.704325
-0.700607
-0.732048
-0.700145
-0.732154
-0.738893
-0.738559
-0.697424
-0.732307
-0.703824
-0.732386
-0.696407
-0.738657
-0.75608
-0.804373
-0.761834
-0.76141
-0.756929
0.327057
-0.756076
-0.760653
-0.803713
-0.761009
-0.755841
-0.738785
-0.703671
-0.732704
-0.694633
-0.732511
-0.695901
-0.738882
-0.649142
-0.656002
-0.675358
-0.668896
-0.64912
-0.656233
-0.670183
-0.639963
-0.612497
-0.640114
-0.614058
-0.641694
-0.627251
-0.632624
-0.64291
-0.626675
-0.642092
-0.642745
-0.647015
-0.647541
-0.64139
-0.642438
-0.625631
-0.632487
-0.641199
-0.626119
-0.642597
-0.649231
-0.675478
-0.656733
-0.671854
-0.649689
-0.656469
-0.670578
-0.646689
-0.64665
-0.74445
-0.73389
-0.689633
-0.702677
-0.687877
-0.741841
-0.733952
0.338846
-0.786071
-0.810489
-0.767355
-0.767271
-0.787781
-0.780749
-0.765651
-0.810744
-0.770074
-0.766779
-0.745675
-0.7026
-0.687481
-0.733285
-0.687456
-0.733718
-0.746156
-0.739472
-0.702972
-0.733614
-0.690371
-0.733406
-0.692619
-0.741096
-0.759131
-0.76228
-0.806582
-0.757426
-0.762959
0.344926
-0.7394
-0.703099
-0.732904
-0.694377
-0.738988
-0.733086
-0.693156
-0.760721
-0.764592
-0.807544
-0.76355
-0.76756
0.644918
0.65016
0.637011
0.642777
0.645314
0.636125
0.649312
0.652958
0.664529
0.651526
0.665203
0.652568
0.641018
0.639621
0.653809
0.647764
0.653027
0.654781
0.651001
0.653086
0.652167
0.647391
0.648204
0.654022
0.65306
0.655459
0.648576
0.653072
0.653207
0.652123
0.638781
0.650412
0.638887
0.644794
0.641927
0.636114
0.647244
0.635972
0.648305
0.644846
0.624734
0.626691
0.633059
0.636198
0.633358
0.624045
0.62683
0.638915
0.6344
-0.752258
0.597064
-0.715274
0.598418
-0.72653
0.619145
0.596029
0.596238
0.613073
0.594636
0.613082
0.619454
0.618933
0.61291
0.59454
0.596249
0.594213
0.618471
0.61305
0.63505
0.634249
0.624933
0.636389
0.632763
0.626984
0.633134
0.626945
0.625174
0.623104
0.626351
0.632823
0.634843
0.625877
0.632467
0.623833
0.617874
0.596003
0.595379
0.611098
0.595823
0.611766
0.617564
0.639109
0.637416
-0.748981
0.596844
-0.716489
0.595614
-0.708898
0.618015
0.612667
0.595765
0.594908
0.595711
0.612306
0.618372
0.635356
0.636991
0.62293
0.634096
0.624601
0.633247
0.625269
0.632504
0.622542
0.645062
0.638532
0.638153
0.643617
0.643787
0.638054
0.644268
0.664248
0.669881
0.666302
0.667521
0.65497
0.641805
0.654208
0.64385
0.647301
0.652957
0.649922
0.6522
0.647293
0.64897
0.652725
0.654837
0.646041
0.653905
0.644683
0.645338
0.638939
0.636449
0.646165
0.644994
0.637726
0.645148
0.647099
0.647515
0.651495
0.651384
0.646465
0.648114
0.652228
0.617412
0.631379
0.622166
0.63089
0.631307
0.617512
0.622066
0.630798
0.64447
0.643048
0.63842
-0.748009
-0.699635
0.596204
0.59946
-0.700112
0.615342
0.594994
0.592825
0.608762
0.594039
0.60879
0.616168
0.629359
0.639994
0.642104
0.630516
0.615
0.608767
0.593884
0.592901
0.59371
0.614517
0.608799
0.617383
0.630888
0.631061
0.621977
0.631292
0.622027
0.618014
0.621378
0.631507
0.631403
0.622327
0.622636
0.633012
0.617862
0.616574
0.596109
0.610421
0.593825
0.595954
0.617441
0.609777
0.639431
0.638818
-0.74688
-0.699368
0.59563
0.594764
-0.700028
0.639353
0.638916
0.631658
0.62195
0.631918
0.623881
0.63361
0.622377
0.623218
0.633307
0.61588
0.608858
0.593326
0.594278
0.595455
0.609247
0.614659
0.655747
0.677721
0.654287
0.675029
0.641936
0.596721
0.645225
0.596
0.652361
0.660874
0.650662
0.657055
0.652877
0.660423
0.65006
0.640818
0.595443
0.638994
0.59577
0.652038
0.649446
0.659856
0.656633
0.652047
0.66002
0.64962
0.528437
0.541696
0.57463
0.574816
0.541962
0.528609
0.453714
0.348415
0.508373
0.338297
0.3387
0.510658
0.453044
0.528264
0.573677
0.541708
0.574555
0.541954
0.527916
0.527347
0.539782
0.573911
0.527877
0.542253
0.573878
0.452262
0.346488
0.507758
0.338052
0.33803
0.507102
0.452271
0.527255
0.573177
0.541494
0.542224
0.573573
0.527419
-0.326468
-0.349603
-0.458173
-0.239649
-0.32651
-0.349463
-0.458449
-0.169922
-0.695295
-0.957146
-0.608724
-0.608363
-0.95587
-0.172449
-0.669402
-0.620819
-0.55665
-0.690288
-0.556699
-0.690231
-0.66966
-0.669157
-0.62106
-0.556669
-0.69
-0.556754
-0.690071
-0.668898
-0.629409
-0.353045
-0.528848
-0.416461
-0.529054
-0.416597
-0.629104
-0.629296
-0.353056
-0.528641
-0.416602
-0.529046
-0.416732
-0.628695
0.475439
0.232318
0.132335
0.465734
0.132449
0.465875
0.47521
-0.172549
-0.69513
-0.957172
-0.611033
-0.609696
-0.956567
-0.177415
0.475588
0.232313
0.132266
0.465817
0.132449
0.465909
0.475499
-0.673331
-0.643393
-0.673024
-0.700587
-0.700767
-0.643531
-0.673095
-0.673564
-0.700661
-0.643713
-0.673125
-0.700809
-0.673753
-0.643645
-0.67383
-0.64356
-0.673135
-0.700415
-0.700522
-0.643607
-0.673814
-0.673844
-0.700552
-0.643716
-0.673125
-0.673825
-0.700586
-0.643657
0.428572
0.339385
0.368588
0.42819
0.367565
0.410134
0.334242
0.407972
0.423189
0.337073
0.407109
0.423257
0.39782
0.412415
0.34379
0.41369
-0.74018
-0.752025
-0.739912
-0.733733
-0.746962
-0.734232
-0.730946
-0.748304
-0.730443
-0.732449
-0.746312
-0.731101
-0.468628
-0.321419
-0.321384
-0.267032
-0.33898
-0.338898
-0.267065
-0.46849
-0.321623
-0.321402
-0.267039
-0.338954
-0.338881
-0.267162
0.54447
0.540862
0.544265
0.359627
0.374422
0.374241
0.360689
-0.168172
-0.694714
-0.955273
-0.607607
-0.608296
-0.954525
-0.162573
-0.78917
0.596346
0.5952
0.541297
-0.860335
-0.860342
0.548116
0.591186
-0.78775
0.589021
0.530112
-0.860234
-0.860287
0.53463
0.540502
0.543746
0.543965
0.358174
0.373588
0.373903
0.35726
0.630681
0.596563
0.631986
0.598453
0.630609
0.59683
0.632032
0.647329
0.641825
0.620834
0.62314
0.630791
0.598433
0.597026
0.632044
0.597001
0.632071
0.630857
-0.807238
-0.81769
-0.817729
-0.860126
-0.852641
-0.852648
-0.860045
-0.817315
-0.805933
-0.817425
-0.859958
-0.852088
-0.852235
-0.859873
-0.623207
-0.637543
-0.650078
-0.66534
-0.622487
-0.637781
-0.650596
-0.603565
-0.611578
-0.622015
-0.621902
-0.611112
-0.621833
-0.603708
-0.598263
-0.60986
-0.608734
-0.598075
-0.603055
-0.621503
-0.609209
-0.621937
-0.610279
-0.60227
-0.6217
-0.600679
-0.608257
-0.601065
-0.608177
-0.623734
-0.66534
-0.637978
-0.651238
-0.637888
-0.651045
-0.623995
-0.803847
-0.815952
-0.816144
-0.858864
-0.850872
-0.850949
-0.858685
-0.817189
-0.805072
-0.817036
-0.859612
-0.851933
-0.859749
-0.851783
-0.613693
-0.633104
-0.643587
-0.663104
-0.614221
-0.632733
-0.643036
-0.594445
-0.597694
-0.618705
-0.617564
-0.597929
-0.617698
-0.594221
-0.58898
-0.60357
-0.603245
-0.589137
-0.594712
-0.618168
-0.598998
-0.618848
-0.598306
-0.595173
-0.617898
-0.587579
-0.601522
-0.587456
-0.601739
-0.613234
-0.662941
-0.632259
-0.642205
-0.632444
-0.642584
-0.612809
-0.765598
-0.744791
-0.765057
-0.633253
-0.59549
-0.595333
-0.633802
0.214072
-0.802565
-0.651018
-0.649661
-0.803428
0.194132
-0.800296
-0.645374
-0.801853
-0.63912
-0.744612
-0.765159
-0.764935
-0.632886
-0.5955
-0.595445
-0.63315
-0.7661
-0.745501
-0.766333
-0.634429
-0.595511
-0.634239
-0.595471
0.207193
-0.800719
-0.649436
-0.648532
-0.801716
0.20464
-0.80232
-0.648438
-0.801987
-0.650611
-0.745697
-0.765302
-0.76629
-0.634383
-0.595543
-0.595625
-0.633665
0.544436
0.541637
0.544372
0.359286
0.374562
0.360548
0.374548
-0.170424
-0.694947
-0.95563
-0.608406
-0.609084
-0.163336
-0.956365
-0.782943
0.596141
0.594907
0.533224
-0.861312
-0.861031
0.537858
0.591271
-0.784537
0.589357
0.532816
-0.860256
0.535253
-0.860314
0.541588
0.544208
0.544369
0.357945
0.373942
0.3743
0.356792
0.629683
0.595798
0.630938
0.597649
0.629559
0.596118
0.631101
0.640773
0.636985
0.625109
0.62518
0.629824
0.597706
0.59633
0.631185
0.596315
0.631202
0.629876
0.630547
0.596483
0.632042
0.598694
0.630555
0.596657
0.632234
0.626019
0.623987
0.618163
0.61533
0.63041
0.598777
0.59655
0.632198
0.596702
0.632301
0.630186
0.589152
0.615111
0.614059
0.589783
0.587423
0.606006
0.60641
0.587252
0.585695
0.60693
0.604835
0.586868
0.585435
0.604797
0.603009
0.586486
-0.620866
-0.66502
-0.637098
-0.649465
-0.62164
-0.636706
-0.648992
-0.600061
-0.604372
-0.620255
-0.621053
-0.620494
-0.599428
-0.605404
-0.594555
-0.602951
-0.603332
-0.593889
-0.620254
-0.664867
-0.635967
-0.647877
-0.63631
-0.648486
-0.619384
-0.600641
-0.621125
-0.607812
-0.621289
-0.601365
-0.620788
-0.606503
-0.596906
-0.607677
-0.598866
-0.605732
-0.67073
-0.664863
-0.653033
-0.654687
-0.654618
-0.664833
-0.670846
-0.669299
-0.653055
-0.651193
-0.662611
-0.653483
-0.669037
-0.663173
-0.665963
-0.657774
-0.647527
-0.643877
-0.648378
-0.665697
-0.658466
-0.668196
-0.652606
-0.648828
-0.662011
-0.651881
-0.668714
-0.661555
-0.615999
-0.663824
-0.633608
-0.644308
-0.615027
-0.63413
-0.645115
-0.597345
-0.602964
-0.619777
-0.620017
-0.598379
-0.619274
-0.601601
-0.590267
-0.602425
-0.59179
-0.601579
-0.617025
-0.66414
-0.635358
-0.646893
-0.618166
-0.634726
-0.645976
-0.596499
-0.618496
-0.599769
-0.619637
-0.595814
-0.618831
-0.600552
-0.587641
-0.601158
-0.587555
-0.600674
-0.662044
-0.656547
-0.637107
-0.638476
-0.638676
-0.656454
-0.662062
-0.662048
-0.640028
-0.636177
-0.654926
-0.639547
-0.662342
-0.655219
-0.664835
-0.657183
-0.646847
-0.640447
-0.6654
-0.646046
-0.656777
-0.662518
-0.640509
-0.636547
-0.654843
-0.641234
-0.662429
-0.654935
0.332679
0.421896
0.361607
0.36229
0.424362
0.329121
0.418611
0.360376
0.358658
0.41488
0.339509
0.395561
0.415382
0.392305
0.417314
0.342554
0.396772
0.413512
0.412486
-0.750928
-0.74152
-0.741323
-0.749293
-0.739817
-0.738147
-0.747299
-0.729363
-0.729339
-0.746523
-0.729237
-0.728956
0.629341
0.597724
0.595661
0.630892
0.6294
0.595858
0.631105
0.627951
0.630032
0.629458
0.598069
0.59627
0.631878
0.629824
0.596047
0.631454
0.624799
0.624589
0.586837
0.612311
0.611409
0.587453
0.586086
0.606534
0.606324
0.586254
0.586998
0.608055
0.587247
0.608563
0.585503
0.606143
0.605565
0.585972
0.690748
0.687988
0.670179
0.65457
0.688854
0.692155
0.670524
0.697506
0.679278
0.675359
0.675395
0.697975
0.696591
0.675464
0.679269
0.693305
0.675621
0.691559
0.654836
0.696769
0.670807
0.695819
0.670593
0.691707
-0.569307
-0.583494
-0.573327
-0.583369
-0.571002
-0.583427
-0.572289
-0.608943
-0.62398
-0.595339
-0.577606
-0.615904
-0.577725
-0.616684
-0.605418
-0.579703
-0.59742
-0.596739
-0.606894
-0.595967
-0.579248
-0.567225
-0.58369
-0.583831
-0.570812
-0.58371
-0.57163
-0.565971
-0.556127
-0.568155
-0.562227
-0.573905
-0.556005
-0.567909
-0.562177
-0.558205
-0.566937
-0.57948
-0.570256
-0.5674
-0.570068
-0.558555
-0.558302
-0.558409
-0.557936
-0.569965
-0.565467
-0.579421
-0.566885
-0.55768
-0.569886
-0.557971
-0.558312
-0.556008
-0.573862
-0.567715
-0.562301
-0.567792
-0.562235
-0.556079
-0.644108
-0.64648
-0.64506
-0.615424
-0.618958
-0.624363
-0.616015
-0.62416
-0.624809
-0.618413
-0.618784
-0.616546
-0.62452
-0.648055
-0.648767
-0.646096
-0.634805
-0.641359
-0.634761
-0.604592
-0.609263
-0.623566
-0.604367
-0.623512
-0.62319
-0.604831
-0.609843
-0.604339
-0.62342
-0.641689
-0.635668
-0.635156
0.651457
0.649899
0.651923
0.663996
0.660214
0.659813
0.658678
0.663938
0.659323
0.650334
0.653026