/*--------------------------------*- C++ -*----------------------------------*\
| =========                 |                                                 |
| \\      /  F ield         | OpenFOAM: The Open Source CFD Toolbox           |
|  \\    /   O peration     | Version:  2.4.0                                 |
|   \\  /    A nd           | Web:      www.OpenFOAM.org                      |
|    \\/     M anipulation  |                                                 |
\*---------------------------------------------------------------------------*/
FoamFile
{
    version     2.0;
    format      ascii;
    class       volScalarField;
    location    "5.57";
    object      k;
}
// * * * * * * * * * * * * * * * * * * * * * * * * * * * * * * * * * * * * * //

dimensions      [0 2 -2 0 0 0 0];

internalField   nonuniform List<scalar> 
6000
(
0.168224
0.0132708
0.000978678
0.00362135
0.00250554
0.00292601
0.00242156
0.00239113
0.00212499
0.00205029
0.00191721
0.00188054
0.00184584
0.00187145
0.00191958
0.0020115
0.00213156
0.00228747
0.00247264
0.00268952
0.00293479
0.00320794
0.00350567
0.00382496
0.00416107
0.00450906
0.00486312
0.00521652
0.0055612
0.0058879
0.00618605
0.00644402
0.00664932
0.00678823
0.00684718
0.0068133
0.00667561
0.00642491
0.00605825
0.00557736
0.00500027
0.0043531
0.0036876
0.00348672
0.00456617
0.00591579
0.00750622
0.00949036
0.0116813
0.0144855
0.0172624
0.0212421
0.0244248
0.030513
0.0334335
0.0441774
0.0446724
0.0671994
0.0598053
0.111343
0.0762047
0.0101511
0.000944611
0.00240516
0.00171401
0.00192203
0.00160848
0.00156914
0.00140153
0.00134557
0.00126099
0.00123371
0.0012112
0.00122508
0.00125442
0.00131016
0.00138354
0.00147813
0.00159008
0.00172021
0.00186648
0.00202827
0.00220368
0.00239103
0.00258797
0.00279221
0.00300123
0.00321227
0.00342213
0.00362728
0.00382381
0.00400759
0.00417431
0.00431904
0.00443745
0.00452558
0.00458062
0.00460093
0.00458795
0.00454597
0.00448684
0.00442585
0.00438035
0.00448129
0.00498694
0.00557167
0.00624804
0.0070856
0.00801848
0.00921247
0.0104229
0.0121376
0.0135881
0.0162196
0.0177049
0.0222959
0.0230823
0.0324973
0.030658
0.0515797
0.0412217
0.00802996
0.000973404
0.00168801
0.00122334
0.00131298
0.00110731
0.00106721
0.000957752
0.000916394
0.000862589
0.000845023
0.000833982
0.000847006
0.000872413
0.000916069
0.000973196
0.00104562
0.00113133
0.00123072
0.00134279
0.00146722
0.00160311
0.00174972
0.00190603
0.00207118
0.00224431
0.00242456
0.00261099
0.00280267
0.00299871
0.00319831
0.00340084
0.00360526
0.00381098
0.00401811
0.00422758
0.00444131
0.00466276
0.00489707
0.00515196
0.00543393
0.00573353
0.00601592
0.00630764
0.006565
0.0068237
0.00712168
0.0074513
0.00788052
0.00833377
0.00899764
0.0095992
0.0106888
0.0114034
0.0133733
0.0139846
0.0180427
0.0179081
0.0267889
0.0260623
0.00677419
0.00107073
0.00126676
0.000916191
0.000934358
0.000790035
0.000751536
0.000677381
0.000647226
0.000613962
0.000605636
0.000605311
0.000622956
0.000652176
0.00069636
0.000753166
0.000823829
0.000907603
0.001005
0.00111581
0.00124018
0.00137794
0.00152902
0.00169323
0.00187053
0.00206097
0.00226466
0.00248175
0.00271253
0.00295737
0.00321686
0.00349174
0.00378142
0.00408659
0.00440826
0.00474785
0.00510725
0.00548879
0.00589534
0.00632974
0.00679092
0.00725333
0.00763675
0.00790956
0.00809093
0.00821706
0.00830874
0.00838009
0.00845791
0.00853796
0.00868374
0.00882734
0.00915634
0.00939896
0.010132
0.0104526
0.0121285
0.0123712
0.0162346
0.0187963
0.00609215
0.00123214
0.00103245
0.000726718
0.000696222
0.000585838
0.000548815
0.000496443
0.000474898
0.000456134
0.000456556
0.000466553
0.000492008
0.000529659
0.000581784
0.00064762
0.000728373
0.000824226
0.000936008
0.00106415
0.00120921
0.00137154
0.00155149
0.00174933
0.0019654
0.00220013
0.00245398
0.00272742
0.00302099
0.00333527
0.00367094
0.00402806
0.00440496
0.00480232
0.00522034
0.00565927
0.00611953
0.00660142
0.00710544
0.00763169
0.00817591
0.00870542
0.00914798
0.00947042
0.0096849
0.00981966
0.00988398
0.00989459
0.00985786
0.00979313
0.00971239
0.00962761
0.00957988
0.0095347
0.00964409
0.0096946
0.0102242
0.0103991
0.0120876
0.015049
0.00576627
0.00144815
0.000925027
0.000617012
0.000547644
0.000454054
0.000417285
0.000378357
0.000363461
0.000355573
0.000364434
0.000384724
0.000420141
0.000469349
0.000534222
0.00061508
0.000713333
0.000829849
0.000965779
0.00112199
0.00129931
0.00149832
0.00171951
0.00196322
0.00222981
0.00251961
0.00283296
0.00317011
0.00353129
0.00391665
0.00432633
0.00475806
0.00521006
0.00568225
0.00617374
0.00668354
0.00721082
0.00775453
0.00831399
0.00888858
0.00947287
0.0100315
0.0105135
0.0108924
0.0111642
0.0113502
0.0114531
0.0114885
0.0114523
0.0113692
0.011228
0.0110672
0.0108671
0.0106824
0.010494
0.01036
0.010323
0.010333
0.0110542
0.0130163
0.00565588
0.00170753
0.00090987
0.00056518
0.000459053
0.000370672
0.000332414
0.000301509
0.00029175
0.000292512
0.000309679
0.000340475
0.000387444
0.000450466
0.000531342
0.000631134
0.000751496
0.000893734
0.0010592
0.00124896
0.00146387
0.00170451
0.00197122
0.00226416
0.00258339
0.00292898
0.00330091
0.003699
0.00412298
0.0045724
0.00504649
0.00554074
0.00605417
0.00658566
0.00713344
0.00769567
0.00827072
0.00885676
0.00945258
0.0100577
0.0106647
0.0112395
0.0117499
0.012174
0.0124965
0.0127333
0.0128839
0.0129633
0.0129625
0.012908
0.012778
0.0126204
0.0123884
0.0121694
0.011872
0.0116571
0.0113658
0.0112568
0.0115441
0.011878
0.00567208
0.00199813
0.000965413
0.000559068
0.000413095
0.000321239
0.000279433
0.000252778
0.000246919
0.000254907
0.000280338
0.000321945
0.000381649
0.000460081
0.000559082
0.000680173
0.000825173
0.000995586
0.00119281
0.00141789
0.00167156
0.00195422
0.00226596
0.00260665
0.00297603
0.00337383
0.00379965
0.0042529
0.00473281
0.00523842
0.0057674
0.00631478
0.00687967
0.00746017
0.00805382
0.00865816
0.00927101
0.00989002
0.0105137
0.011142
0.0117631
0.0123496
0.0128806
0.0133367
0.0136967
0.0139726
0.0141617
0.0142793
0.014314
0.0142942
0.0141928
0.0140635
0.0138463
0.0136441
0.0133314
0.0131123
0.0127378
0.0125916
0.0126857
0.0112303
0.00575859
0.0023073
0.00107767
0.000590925
0.00039971
0.000297012
0.000249314
0.000224031
0.000220972
0.000235183
0.000268839
0.000321525
0.000394777
0.000489635
0.000607959
0.000751491
0.000922092
0.00112128
0.0013504
0.00161036
0.00190174
0.00222472
0.00257916
0.00296462
0.00338055
0.00382638
0.00430136
0.00480451
0.00533465
0.00589038
0.00646727
0.00706135
0.00767118
0.00829418
0.00892737
0.00956775
0.0102127
0.0108596
0.0115066
0.0121536
0.012784
0.0133796
0.0139248
0.0144017
0.0147868
0.0150892
0.0153048
0.0154493
0.0155101
0.0155174
0.0154413
0.0153401
0.0151468
0.014975
0.0146809
0.014493
0.0141153
0.0139927
0.0139975
0.0108621
0.00588
0.00262257
0.00123561
0.000655965
0.000413432
0.000292814
0.00023654
0.000210182
0.000208836
0.000228447
0.000270214
0.00033412
0.000421383
0.000533176
0.000671297
0.000837521
0.00103366
0.00126117
0.00152128
0.00181479
0.00214214
0.00250331
0.00289795
0.00332536
0.00378469
0.00427509
0.00479551
0.00534457
0.00592071
0.00652197
0.00714214
0.00777847
0.00842874
0.00908981
0.00975821
0.0104305
0.0111037
0.0117748
0.0124421
0.0131033
0.0137403
0.0143424
0.0148965
0.0153854
0.0157853
0.0161036
0.0163352
0.0164959
0.0165726
0.016597
0.0165379
0.0164571
0.0162835
0.0161393
0.0158695
0.0157205
0.0153675
0.0152955
0.0152506
0.010657
0.00601447
0.0029325
0.00142907
0.000750807
0.00045157
0.000305808
0.000237832
0.000208077
0.000207277
0.000231489
0.000281121
0.00035622
0.000457647
0.000586487
0.000744384
0.000933027
0.00115415
0.0014091
0.00169904
0.00202469
0.00238635
0.00278385
0.00321664
0.00368375
0.00418405
0.0047164
0.00527944
0.00587145
0.00649047
0.00713354
0.00779384
0.00846908
0.00915639
0.00985214
0.0105524
0.0112533
0.0119517
0.0126441
0.0133288
0.0139994
0.0146412
0.0152473
0.0158056
0.0162993
0.0167061
0.0170318
0.0172707
0.0174388
0.0175229
0.0175557
0.0175053
0.0174365
0.0172757
0.0171517
0.0169021
0.0167881
0.0164639
0.0164472
0.0163648
0.0105488
0.00614911
0.00322752
0.00164795
0.000873055
0.000512234
0.000334785
0.000251419
0.000215849
0.000214271
0.000242202
0.000299293
0.000385384
0.000500887
0.000646627
0.000824017
0.00103459
0.00128001
0.00156152
0.00188024
0.00223683
0.00263148
0.00306388
0.00353324
0.00403834
0.00457773
0.00515001
0.00575351
0.00638614
0.00704564
0.00772754
0.00842539
0.00913679
0.00985831
0.0105859
0.011315
0.0120417
0.0127624
0.0134734
0.014172
0.0148484
0.0154932
0.0161005
0.0166586
0.0171516
0.0175589
0.0178853
0.0181248
0.0182934
0.0183781
0.0184121
0.0183639
0.0182997
0.0181452
0.0180339
0.0177986
0.0177124
0.0174127
0.0174464
0.017329
0.0104986
0.00627688
0.0035005
0.00188207
0.00101991
0.000594021
0.000379767
0.000276592
0.000232539
0.000228634
0.000259254
0.000323225
0.000419949
0.00054928
0.000711641
0.000908155
0.00114017
0.00140925
0.00171659
0.00206327
0.00244989
0.00287654
0.00334272
0.00384743
0.00438917
0.00496615
0.00557671
0.00621888
0.00689019
0.00758818
0.00830633
0.00903946
0.00978458
0.0105378
0.0112945
0.01205
0.0127996
0.01354
0.0142671
0.0149748
0.0156547
0.0163003
0.016906
0.0174603
0.017948
0.0183505
0.0186723
0.018907
0.0190706
0.0191506
0.0191805
0.0191291
0.0190639
0.0189103
0.0188055
0.018579
0.0185136
0.0182326
0.0183089
0.0181565
0.0104827
0.00639444
0.00374694
0.00212153
0.00118765
0.000696058
0.000440868
0.000313454
0.000257862
0.000249804
0.000281884
0.000351976
0.00045884
0.000601656
0.000780317
0.000995601
0.00124863
0.0015409
0.00187352
0.00224755
0.0026635
0.00312136
0.00362044
0.00415951
0.00473675
0.00535004
0.00599744
0.0066767
0.00738498
0.00811929
0.00887173
0.00963801
0.0104146
0.011197
0.0119804
0.0127596
0.0135297
0.0142872
0.0150268
0.0157398
0.0164211
0.0170651
0.0176665
0.0182136
0.0186921
0.0190858
0.0193985
0.0196241
0.0197785
0.0198496
0.019871
0.0198124
0.0197419
0.0195852
0.019482
0.0192597
0.0192093
0.0189417
0.0190528
0.0188651
0.010487
0.00650069
0.00396476
0.00235731
0.00137146
0.000817397
0.000517996
0.000362763
0.000292067
0.0002777
0.000309771
0.000385036
0.000501428
0.000657324
0.000851967
0.00108573
0.00135945
0.00167457
0.00203206
0.00243297
0.00287772
0.00336615
0.00389739
0.00446993
0.00508166
0.0057301
0.00641302
0.00712791
0.00787154
0.00864006
0.00942495
0.0102223
0.0110281
0.0118375
0.0126451
0.0134455
0.0142335
0.0150054
0.015753
0.0164687
0.0171492
0.0177892
0.0183835
0.0189203
0.0193864
0.0197677
0.0200679
0.0202808
0.0204226
0.0204815
0.0204913
0.0204223
0.0203431
0.0201802
0.0200749
0.0198534
0.0198134
0.0195547
0.0196937
0.0194711
0.0105025
0.00659577
0.00415394
0.00258178
0.00156554
0.000956377
0.000611102
0.000425366
0.000335857
0.000312639
0.000342949
0.000422235
0.000547415
0.000715938
0.000926262
0.00117827
0.00147245
0.00181018
0.00219225
0.00261967
0.00309276
0.0036112
0.00417392
0.00477913
0.00542441
0.00610686
0.00682403
0.00757313
0.00835057
0.0091512
0.00996671
0.0107931
0.0116259
0.0124599
0.0132894
0.0141084
0.0149116
0.0156944
0.0164461
0.0171622
0.0178396
0.0184733
0.0190578
0.0195814
0.0200324
0.0203983
0.0206829
0.0208804
0.0210067
0.0210509
0.0210464
0.0209648
0.0208745
0.020703
0.0205928
0.0203697
0.0203362
0.0200832
0.0202442
0.0199877
0.0105238
0.0066805
0.00431597
0.00278909
0.00176345
0.00111037
0.000720124
0.000501651
0.00039034
0.000355285
0.000381756
0.000463671
0.000596752
0.000777392
0.0010031
0.00127317
0.00158765
0.00194782
0.00235424
0.00280786
0.00330889
0.00385683
0.00445037
0.00508745
0.00576533
0.00648068
0.00723081
0.00801271
0.00882243
0.00965308
0.0104973
0.0113507
0.0122083
0.0130645
0.0139133
0.0147485
0.0155642
0.016353
0.0171065
0.0178207
0.0184926
0.0191174
0.0196895
0.0201974
0.0206307
0.0209787
0.0212452
0.021425
0.0215336
0.021561
0.0215403
0.0214443
0.0213409
0.0211593
0.0210421
0.0208154
0.0207856
0.0205358
0.0207139
0.020425
0.0105474
0.00675592
0.00445332
0.00297538
0.00195868
0.00127569
0.000844366
0.000591915
0.000456631
0.000406624
0.000426803
0.000509677
0.000649585
0.000841744
0.00108251
0.0013705
0.00170516
0.00208765
0.00251823
0.00299777
0.00352635
0.00410326
0.00472697
0.00539512
0.00610464
0.00685175
0.00763354
0.00844677
0.00928694
0.0101457
0.0110167
0.0118949
0.0127751
0.0136511
0.0145167
0.0153654
0.0161894
0.0169811
0.0177339
0.0184438
0.0191077
0.0197211
0.0202783
0.0207682
0.0211816
0.0215094
0.0217558
0.0219158
0.0220049
0.0220139
0.0219755
0.0218638
0.0217459
0.021553
0.0214272
0.0211958
0.0211674
0.0209193
0.0211101
0.0207911
0.0105712
0.0068231
0.00456902
0.00313864
0.00214516
0.00144771
0.000982268
0.000696359
0.000535402
0.000467934
0.000478965
0.0005608
0.000706224
0.000909179
0.00116464
0.0014704
0.00182513
0.00222984
0.00268441
0.00318961
0.00374534
0.0043507
0.00500388
0.00570226
0.00644242
0.0072201
0.00803218
0.00887527
0.00974383
0.010629
0.0115247
0.0124255
0.0133258
0.0142192
0.0150991
0.0159576
0.016786
0.0175781
0.0183278
0.0190308
0.0196843
0.0202838
0.0208238
0.0212934
0.0216848
0.0219905
0.0222149
0.0223535
0.0224217
0.022411
0.0223538
0.0222254
0.0220923
0.0218873
0.0217519
0.021515
0.0214861
0.0212387
0.0214386
0.0210923
0.0105941
0.00688304
0.00466625
0.00327858
0.00231777
0.00162115
0.00113127
0.000814596
0.000627205
0.000540418
0.000539375
0.0006178
0.000767137
0.000979986
0.00124969
0.00157304
0.00194773
0.0023746
0.00285298
0.00338355
0.00396602
0.00459926
0.0052812
0.00600891
0.00677866
0.00758566
0.00842661
0.009298
0.0101928
0.0111024
0.0120208
0.0129419
0.0138599
0.0147682
0.0156591
0.0165231
0.0173532
0.0181433
0.0188872
0.0195808
0.0202214
0.0208046
0.021325
0.0217722
0.0221398
0.0224217
0.0226224
0.0227382
0.0227843
0.0227531
0.0226764
0.0225307
0.0223817
0.0221643
0.0220185
0.0217757
0.021745
0.0214978
0.0217038
0.0213333
0.0106153
0.0069366
0.00474806
0.0033962
0.00247269
0.00179052
0.00128782
0.00094545
0.000732288
0.000624977
0.000609412
0.000681651
0.000832947
0.00105455
0.00133791
0.00167864
0.00207314
0.00252208
0.00302409
0.00357973
0.0041885
0.00484901
0.00555893
0.00631502
0.00711325
0.00794824
0.00881655
0.00971466
0.0106335
0.0115656
0.0125043
0.0134434
0.0143766
0.0152967
0.0161941
0.017061
0.0178902
0.0186755
0.019411
0.0200927
0.0207178
0.0212823
0.0217808
0.0222037
0.0225458
0.0228022
0.022978
0.0230699
0.023093
0.0230406
0.0229438
0.0227807
0.0226155
0.0223856
0.0222291
0.0219804
0.0219468
0.0216996
0.0219093
0.0215181
0.0106345
0.00698453
0.00481727
0.00349345
0.0026076
0.00195055
0.00144751
0.00108681
0.000850301
0.000722173
0.000690533
0.000753543
0.000904447
0.00113337
0.0014296
0.00178741
0.00220154
0.00267244
0.00319787
0.00377826
0.00441283
0.00509996
0.00583702
0.00662046
0.00744599
0.00830756
0.00920165
0.0101247
0.0110653
0.0120177
0.0129746
0.0139291
0.0148746
0.015802
0.0167032
0.0175701
0.0183957
0.0191735
0.019898
0.020565
0.0211722
0.0217155
0.02219
0.0225868
0.0229018
0.0231314
0.0232809
0.023348
0.0233475
0.0232734
0.0231564
0.0229758
0.0227946
0.0225524
0.0223851
0.0221306
0.0220935
0.0218467
0.0220581
0.0216498
0.0106516
0.00702745
0.0048763
0.00357286
0.00272158
0.00209671
0.00160537
0.0012356
0.000980113
0.000832106
0.000783618
0.000835225
0.000982606
0.00121704
0.00152512
0.00189957
0.00233308
0.0028258
0.0033744
0.00397916
0.00463901
0.00535205
0.00611534
0.00692504
0.00777658
0.00866325
0.00958143
0.0105271
0.0114876
0.0124581
0.0134306
0.0143974
0.015351
0.016283
0.0171851
0.0180493
0.0188683
0.0196359
0.0203466
0.0209964
0.0215831
0.0221029
0.0225513
0.0229202
0.0232066
0.0234081
0.0235305
0.023572
0.0235474
0.0234515
0.0233142
0.0231163
0.0229193
0.0226653
0.0224876
0.0222278
0.0221867
0.0219408
0.0221523
0.0217311
0.0106666
0.00706586
0.00492717
0.00363718
0.00281507
0.00222551
0.00175629
0.00138781
0.00111967
0.000954239
0.000889035
0.000928
0.00106916
0.00130625
0.00162486
0.00201535
0.00246785
0.00298223
0.0035537
0.00418243
0.00486698
0.00560515
0.00639369
0.00722844
0.00810465
0.00901483
0.00995533
0.0109214
0.0118995
0.0128857
0.0138702
0.0148458
0.0158047
0.0167384
0.0176386
0.0184971
0.0193067
0.0200612
0.0207553
0.0213852
0.0219489
0.0224429
0.0228632
0.0232025
0.023459
0.0236313
0.0237256
0.023741
0.023692
0.0235743
0.0234171
0.0232024
0.0229902
0.022725
0.0225372
0.0222729
0.0222278
0.0219836
0.0221942
0.0217642
0.0106796
0.00710023
0.00497153
0.00368917
0.00288949
0.0023348
0.00189547
0.00153877
0.00126595
0.00108722
0.00100661
0.00103235
0.00116568
0.0014027
0.00172926
0.00213493
0.00260594
0.0031417
0.00373571
0.00438795
0.00509656
0.00585901
0.00667175
0.00753027
0.00842971
0.00936172
0.0103227
0.0113067
0.0122997
0.0132979
0.0142915
0.015273
0.0162344
0.0171669
0.0180621
0.0189119
0.0197092
0.0204477
0.0211224
0.0217298
0.0222679
0.0227339
0.0231241
0.0234323
0.0236576
0.0237997
0.0238653
0.0238542
0.0237808
0.0236414
0.0234647
0.0232339
0.0230073
0.0227319
0.0225348
0.0222669
0.0222178
0.0219764
0.0221854
0.0217509
0.0106909
0.00713093
0.00501066
0.00373138
0.00294701
0.00242375
0.00201884
0.00168347
0.001415
0.00122876
0.00113542
0.00114827
0.00127263
0.00150772
0.00184026
0.00225849
0.00274731
0.00330411
0.00392025
0.00459548
0.00532745
0.00611328
0.00694909
0.00783001
0.00875114
0.00970318
0.0106823
0.0116806
0.0126859
0.0136933
0.0146933
0.0156778
0.0166385
0.0175668
0.018454
0.0192921
0.020074
0.0207936
0.0214461
0.0220283
0.0225384
0.0229742
0.0233325
0.023608
0.023801
0.0239121
0.0239484
0.0239105
0.0238128
0.0236522
0.0234567
0.0232107
0.0229707
0.0226862
0.0224807
0.0222103
0.0221577
0.0219204
0.0221274
0.0216928
0.0107005
0.00715831
0.00504554
0.00376607
0.00299022
0.00249279
0.00212341
0.00181697
0.00156216
0.0013756
0.0012737
0.00127511
0.00139001
0.00162154
0.00195825
0.00238757
0.00289296
0.0034692
0.00410698
0.00480464
0.00555921
0.00636745
0.00722511
0.00812695
0.00906724
0.0100371
0.0110317
0.0120417
0.0130567
0.0140706
0.015074
0.0160585
0.0170156
0.0179364
0.0188125
0.0196359
0.0203993
0.021097
0.0217246
0.0222789
0.0227586
0.023162
0.0234866
0.0237281
0.0238877
0.023967
0.0239737
0.023909
0.0237872
0.0236061
0.0233926
0.0231325
0.0228803
0.0225881
0.0223754
0.0221039
0.0220484
0.0218166
0.0220217
0.0215915
0.0107087
0.00718268
0.00507692
0.00379513
0.00302183
0.00254339
0.00220751
0.00193489
0.00170235
0.00152356
0.00141866
0.0014114
0.00151727
0.00174401
0.00208309
0.00252185
0.00304255
0.00363729
0.0042958
0.00501493
0.005791
0.00662031
0.00749825
0.0084192
0.00937668
0.0103621
0.0113694
0.0123888
0.0134106
0.0144281
0.0154319
0.0164133
0.0173636
0.0182739
0.0191358
0.0199411
0.0206831
0.021356
0.0219557
0.0224795
0.0229266
0.0232955
0.0235847
0.0237909
0.0239162
0.0239631
0.02394
0.0238486
0.0237032
0.0235023
0.023272
0.0229991
0.022736
0.0224376
0.0222191
0.021948
0.0218905
0.0216659
0.0218694
0.0214481
0.0107156
0.00720434
0.00510534
0.00382007
0.00304448
0.00257781
0.0022708
0.00203378
0.0018305
0.00166775
0.00156658
0.00155472
0.00165305
0.00187444
0.00221427
0.00266074
0.00319528
0.00380741
0.00448565
0.00522521
0.0060216
0.00687059
0.00776718
0.00870537
0.00967801
0.0106768
0.0116939
0.01272
0.0137459
0.0147641
0.0157652
0.0167404
0.0176807
0.0185772
0.0194216
0.0202058
0.0209233
0.0215684
0.0221375
0.0226283
0.0230403
0.0233728
0.023625
0.0237947
0.023885
0.0238992
0.023846
0.0237283
0.02356
0.0233403
0.0230944
0.0228101
0.0225379
0.0222351
0.0220122
0.0217433
0.0216849
0.0214693
0.0216719
0.0212639
0.0107215
0.00722356
0.00513122
0.00384205
0.00306056
0.00259873
0.00231418
0.00211143
0.001942
0.00180291
0.00171282
0.00170165
0.00179511
0.00201142
0.00235077
0.00280322
0.00334999
0.00397826
0.0046751
0.00543399
0.00624946
0.00711669
0.00803026
0.00898378
0.00996947
0.0109792
0.0120033
0.0130335
0.0140606
0.0150764
0.0160717
0.0170374
0.0179645
0.0188441
0.0196677
0.0204277
0.0211175
0.0217319
0.0222677
0.0227229
0.0230977
0.023392
0.0236058
0.023738
0.0237926
0.0237738
0.0236908
0.0235471
0.0233567
0.0231194
0.0228593
0.0225654
0.0222858
0.0219805
0.0217551
0.0214902
0.0214322
0.0212275
0.0214301
0.0210399
0.0107263
0.00724059
0.00515485
0.00386193
0.00307211
0.00260902
0.00233957
0.00216704
0.00203316
0.00192382
0.00185212
0.0018478
0.00194021
0.00215271
0.0024909
0.00294775
0.00350507
0.00414809
0.00486229
0.00563933
0.00647262
0.00735662
0.00828546
0.00925236
0.0102489
0.0112668
0.0122955
0.013327
0.0143523
0.0153627
0.0163491
0.0173021
0.0182127
0.019072
0.0198716
0.0206042
0.0212633
0.0218443
0.022344
0.0227614
0.0230968
0.0233512
0.0235253
0.0236191
0.0236375
0.0235856
0.0234731
0.0233042
0.0230927
0.0228391
0.0225665
0.0222649
0.0219798
0.0216741
0.0214482
0.0211893
0.0211331
0.0209415
0.0211453
0.0207774
0.0107304
0.00725567
0.00517648
0.00388031
0.0030808
0.00261149
0.00234962
0.00220117
0.00210156
0.00202578
0.00197899
0.00198803
0.00208414
0.0022951
0.00263217
0.00309214
0.00365835
0.0043146
0.00504485
0.0058388
0.00668859
0.00758789
0.0085303
0.00950861
0.0105139
0.0115372
0.0125678
0.0135979
0.0146184
0.0156204
0.0165946
0.0175317
0.0184225
0.0192582
0.0200307
0.0207327
0.0213583
0.0219029
0.0223642
0.0227413
0.0230355
0.0232483
0.0233816
0.0234364
0.0234183
0.0233335
0.0231919
0.0229987
0.0227674
0.022499
0.0222157
0.0219084
0.02162
0.0213161
0.0210918
0.0208412
0.0207886
0.0206122
0.0208185
0.0204772
0.0107337
0.007269
0.00519627
0.00389758
0.00308792
0.00260867
0.00234739
0.00221559
0.00214623
0.00210506
0.00208809
0.0021167
0.00222186
0.00243447
0.00277124
0.00323348
0.003807
0.00447493
0.0052198
0.00602938
0.00689436
0.00780748
0.00876176
0.00974954
0.0107614
0.0117874
0.0128174
0.0138433
0.0148559
0.0158464
0.0168053
0.0177231
0.0185909
0.0193999
0.0201421
0.0208105
0.0213996
0.0219052
0.0223256
0.0226604
0.0229116
0.0230816
0.0231731
0.0231883
0.0231337
0.0230162
0.0228464
0.0226299
0.0223802
0.0220988
0.0218067
0.0214959
0.0212067
0.020907
0.0206865
0.0204466
0.0203993
0.0202405
0.0204509
0.0201404
0.0107365
0.00728081
0.0052144
0.003914
0.0030944
0.00260275
0.00233604
0.00221303
0.00216769
0.00215933
0.00217479
0.00222815
0.00234772
0.00256584
0.0029039
0.00336806
0.0039475
0.00462552
0.00538354
0.0062074
0.00708625
0.00801174
0.00897623
0.00997156
0.0109878
0.012014
0.0130406
0.0140595
0.0150615
0.0160373
0.0169777
0.0178732
0.0187148
0.0194939
0.0202027
0.0208346
0.0213844
0.0218486
0.0222257
0.0225164
0.0227231
0.022849
0.022898
0.0228734
0.0227825
0.022633
0.0224358
0.0221973
0.0219308
0.0216384
0.0213398
0.0210279
0.0207401
0.0204473
0.020233
0.0200061
0.0199662
0.0198275
0.0200437
0.0197682
0.0107388
0.00729126
0.005231
0.00392969
0.00310086
0.00259548
0.00231856
0.00219678
0.00216785
0.0021878
0.00223564
0.00231717
0.0024559
0.00268363
0.00302517
0.00349144
0.00407564
0.00476216
0.00553176
0.00636852
0.0072599
0.00819635
0.00916945
0.0101705
0.0111888
0.0122128
0.0132337
0.0142429
0.0152312
0.0161894
0.0171082
0.0179782
0.0187905
0.0195367
0.0202092
0.0208019
0.0213098
0.0217302
0.0220621
0.0223069
0.0224677
0.0225488
0.0225548
0.0224904
0.0223636
0.0221829
0.0219595
0.0217006
0.0214192
0.0211178
0.020815
0.0205045
0.0202209
0.0199376
0.0197321
0.0195208
0.0194904
0.0193741
0.0195981
0.0193616
0.0107407
0.00730053
0.0052462
0.00394473
0.00310768
0.00258819
0.00229765
0.00217038
0.00214966
0.00219132
0.00226872
0.00237951
0.00254087
0.00278201
0.00312952
0.0035985
0.00418654
0.00487999
0.00565953
0.00650769
0.00741026
0.00835629
0.00933647
0.0103415
0.0113596
0.0123793
0.013392
0.0143888
0.0153607
0.0162985
0.0171928
0.0180343
0.0188143
0.0195246
0.0201581
0.0207089
0.0211727
0.0215471
0.021832
0.0220295
0.0221435
0.0221791
0.0221421
0.0220382
0.0218762
0.0216653
0.0214173
0.0211398
0.0208455
0.0205375
0.020233
0.0199266
0.0196498
0.0193788
0.0191848
0.0189917
0.018973
0.0188817
0.0191155
0.0189218
0.0107422
0.00730876
0.00526011
0.00395914
0.00311504
0.00258181
0.00227552
0.00213729
0.00211683
0.00217223
0.00227386
0.00241239
0.00259794
0.00285535
0.0032112
0.00368372
0.00427487
0.00497364
0.00576134
0.00661929
0.00753161
0.00848585
0.00947167
0.010479
0.011495
0.0125084
0.0135105
0.0144925
0.0154454
0.0163599
0.0172268
0.0180371
0.018782
0.0194538
0.0200458
0.0205523
0.0209698
0.0212965
0.021533
0.021682
0.0217485
0.0217384
0.0216585
0.0215157
0.0213196
0.02108
0.0208091
0.020515
0.0202101
0.0198981
0.0195945
0.019295
0.0190279
0.018772
0.0185921
0.01842
0.0184153
0.0183515
0.0185972
0.0184499
0.0107434
0.0073161
0.00527285
0.00397292
0.003123
0.00257692
0.00225391
0.00210068
0.00207335
0.00213402
0.00225264
0.00241478
0.00262374
0.0028988
0.00326472
0.00374151
0.00433503
0.00503743
0.00583129
0.00669719
0.00761767
0.00857871
0.00956876
0.0105769
0.0115889
0.0125941
0.0135836
0.0145486
0.01548
0.0163687
0.0172057
0.017982
0.0186894
0.0193202
0.0198683
0.0203285
0.0206979
0.0209754
0.0211624
0.0212623
0.0212809
0.0212252
0.0211031
0.0209224
0.0206936
0.0204271
0.0201353
0.0198269
0.019514
0.0192005
0.0189007
0.0186109
0.0183564
0.0181186
0.0179556
0.0178072
0.0178188
0.0177851
0.0180448
0.0179473
0.0107444
0.00732265
0.00528452
0.00398606
0.00313151
0.00257383
0.00223407
0.00206322
0.00202319
0.00208096
0.00220817
0.00238758
0.00261671
0.0029088
0.00328534
0.0037666
0.00436156
0.00506566
0.00586333
0.00673499
0.00766181
0.00862809
0.00962093
0.0106284
0.0116349
0.0126302
0.0136052
0.014551
0.0154587
0.0163194
0.0171241
0.0178642
0.0185317
0.0191196
0.0196218
0.0200341
0.020354
0.0205812
0.0207178
0.0207683
0.0207392
0.0206386
0.0204752
0.0202581
0.0199983
0.0197069
0.0193967
0.0190765
0.0187583
0.0184462
0.0181531
0.0178761
0.0176371
0.0174203
0.017277
0.0171548
0.0171853
0.0171841
0.01746
0.0174155
0.0107452
0.00732852
0.00529524
0.00399858
0.00314047
0.00257261
0.00221681
0.00202702
0.00196997
0.00201762
0.00214478
0.00233354
0.00257727
0.00288356
0.00326964
0.00375463
0.00434956
0.00505299
0.00585166
0.00672638
0.00765725
0.00862693
0.00962101
0.0106263
0.011626
0.0126099
0.0135686
0.0144935
0.0153757
0.0162063
0.0169767
0.0176786
0.0183044
0.0188475
0.0193023
0.0196653
0.0199347
0.020111
0.0201971
0.0201984
0.0201223
0.0199777
0.0197746
0.0195229
0.0192343
0.0189206
0.0185945
0.0182655
0.0179449
0.0176372
0.0173539
0.0170925
0.0168721
0.016679
0.0165582
0.016465
0.0165167
0.0165502
0.0168446
0.0168559
0.0107458
0.00733382
0.00530509
0.00401046
0.00314976
0.00257321
0.00220257
0.0019936
0.00191675
0.00194849
0.00206747
0.00225691
0.00250792
0.00282338
0.003216
0.00370266
0.00429524
0.00499497
0.00579114
0.00666551
0.00759752
0.00856829
0.00956175
0.0105634
0.011555
0.012526
0.0134672
0.0143697
0.0152246
0.0160236
0.016758
0.0174202
0.0180027
0.0184996
0.018906
0.0192189
0.0194374
0.0195626
0.0195985
0.0195513
0.0194293
0.0192425
0.0190016
0.0187176
0.0184029
0.0180697
0.0177308
0.0173961
0.0170763
0.0167761
0.0165055
0.0162628
0.0160638
0.0158974
0.0158018
0.01574
0.0158151
0.0158857
0.0162005
0.0162702
0.0107463
0.0073386
0.00531416
0.00402171
0.00315925
0.00257546
0.00219149
0.00196398
0.00186595
0.00187759
0.00198148
0.00216307
0.00241296
0.00273076
0.003125
0.00360965
0.00419641
0.00488851
0.00567782
0.00654753
0.00747691
0.00844573
0.00943624
0.0104325
0.0114145
0.0123715
0.0132939
0.0141727
0.0149992
0.0157652
0.0164625
0.0170836
0.017622
0.0180719
0.0184292
0.0186918
0.0188593
0.018934
0.0189206
0.0188262
0.0186601
0.0184332
0.0181571
0.0178438
0.017506
0.0171566
0.0168083
0.0164712
0.0161554
0.0158659
0.0156112
0.0153902
0.0152154
0.0150783
0.0150104
0.0149823
0.0150832
0.0151928
0.0155302
0.0156604
0.0107467
0.00734295
0.00532254
0.00403237
0.00316883
0.00257913
0.00218349
0.00193868
0.00181929
0.0018083
0.00189176
0.00205788
0.00229809
0.00261022
0.00299949
0.00347684
0.004053
0.00473246
0.0055095
0.00636916
0.00729104
0.0082539
0.00923834
0.0102269
0.0111978
0.0121395
0.013042
0.0138961
0.0146932
0.0154253
0.0160846
0.0166642
0.0171578
0.0175604
0.0178687
0.0180812
0.0181986
0.0182238
0.0181627
0.0180231
0.0178154
0.0175512
0.0172431
0.0169038
0.0165467
0.0161847
0.0158307
0.0154947
0.0151865
0.0149109
0.014675
0.0144785
0.0143306
0.0142252
0.0141873
0.0141952
0.0143238
0.0144742
0.0148359
0.0150284
0.010747
0.00734694
0.0053303
0.00404244
0.00317839
0.00258398
0.00217835
0.00191786
0.00177787
0.0017432
0.00180265
0.00194718
0.00216981
0.00246792
0.00284454
0.00330791
0.00386737
0.00452804
0.0052863
0.00612929
0.00703751
0.00798917
0.00896338
0.00994121
0.0108989
0.0118238
0.0127053
0.0135338
0.0143009
0.0149987
0.0156197
0.0161574
0.0166062
0.0169619
0.0172218
0.0173853
0.0174538
0.0174315
0.0173249
0.0171429
0.0168967
0.0165988
0.0162626
0.0159013
0.0155289
0.0151585
0.0148027
0.0144717
0.0141744
0.0139159
0.0137019
0.0135324
0.0134138
0.0133422
0.0133365
0.013382
0.0135402
0.0137328
0.0141206
0.0143765
0.0107473
0.0073506
0.00533752
0.00405196
0.00318784
0.00258977
0.00217575
0.00190142
0.00174224
0.00168408
0.00171766
0.00183625
0.00203477
0.00231106
0.00266701
0.00310886
0.00364447
0.00427914
0.00501103
0.00582952
0.00671654
0.00765031
0.0086088
0.00957171
0.0105134
0.0114196
0.0122788
0.013081
0.0138176
0.0144807
0.0150634
0.0155597
0.0159644
0.0162741
0.0164869
0.016603
0.0166249
0.0165576
0.0164086
0.0161877
0.015907
0.0155797
0.0152197
0.0148412
0.014458
0.0140836
0.0137304
0.0134082
0.0131254
0.0128871
0.0126976
0.0125574
0.0124703
0.0124343
0.0124625
0.0125469
0.0127361
0.0129719
0.0133872
0.0137073
0.0107475
0.007354
0.00534426
0.00406097
0.00319711
0.00259628
0.00217535
0.00188905
0.00171252
0.00163197
0.00163932
0.00172952
0.00189919
0.00214713
0.00247493
0.00288754
0.00339163
0.00399242
0.00468952
0.00547461
0.00633154
0.0072392
0.00817492
0.00911719
0.010039
0.0109239
0.0117591
0.012534
0.0132396
0.0138682
0.0144131
0.0148686
0.0152304
0.0154957
0.0156634
0.0157346
0.0157129
0.015604
0.0154166
0.0151612
0.0148507
0.0144989
0.0141205
0.0137299
0.0133411
0.0129676
0.0126212
0.0123118
0.0120471
0.0118318
0.0116693
0.0115603
0.0115062
0.011507
0.0115702
0.0116945
0.0119158
0.0121953
0.0126391
0.0130236
0.0107476
0.00735716
0.00535058
0.0040695
0.00320617
0.0026033
0.00217677
0.00188033
0.00168848
0.00158733
0.00156928
0.00163032
0.00176839
0.00198325
0.0022767
0.00265305
0.00311812
0.00367701
0.00433055
0.00507265
0.00588951
0.00676141
0.00766569
0.00857972