/*--------------------------------*- C++ -*----------------------------------*\
| =========                 |                                                 |
| \\      /  F ield         | OpenFOAM: The Open Source CFD Toolbox           |
|  \\    /   O peration     | Version:  2.4.0                                 |
|   \\  /    A nd           | Web:      www.OpenFOAM.org                      |
|    \\/     M anipulation  |                                                 |
\*---------------------------------------------------------------------------*/
FoamFile
{
    version     2.0;
    format      ascii;
    class       surfaceScalarField;
    location    "4.02";
    object      phi;
}
// * * * * * * * * * * * * * * * * * * * * * * * * * * * * * * * * * * * * * //

dimensions      [0 3 -1 0 0 0 0];

internalField   nonuniform List<scalar> 
11840
(
7.85136e-07
9.21486e-06
-2.02922e-08
8.05428e-07
-4.80486e-08
2.77564e-08
-7.30442e-08
2.49956e-08
-8.37958e-08
1.07516e-08
-8.52275e-08
1.43168e-09
-8.92287e-08
4.00117e-09
-8.87971e-08
-4.31631e-10
-9.12792e-08
2.4821e-09
-9.19431e-08
6.6395e-10
-9.48411e-08
2.898e-09
-9.76435e-08
2.80241e-09
-1.02585e-07
4.94158e-09
-1.08671e-07
6.08629e-09
-1.16882e-07
8.21021e-09
-1.26532e-07
9.6508e-09
-1.37852e-07
1.13193e-08
-1.5052e-07
1.26684e-08
-1.64862e-07
1.43414e-08
-1.81137e-07
1.62754e-08
-1.99858e-07
1.87216e-08
-2.2133e-07
2.14719e-08
-2.45695e-07
2.43644e-08
-2.72748e-07
2.7053e-08
-3.02039e-07
2.92908e-08
-3.32866e-07
3.0827e-08
-3.64368e-07
3.1502e-08
-3.95555e-07
3.11872e-08
-4.25351e-07
2.97962e-08
-4.52604e-07
2.72526e-08
-4.76087e-07
2.34829e-08
-4.94505e-07
1.84186e-08
-5.06503e-07
1.19981e-08
-5.10694e-07
4.19078e-09
-5.05619e-07
-5.0749e-09
-4.89803e-07
-1.58157e-08
-4.61879e-07
-2.7924e-08
-4.20535e-07
-4.13445e-08
-3.64739e-07
-5.57962e-08
-2.937e-07
-7.1039e-08
-2.07502e-07
-8.61979e-08
-1.07e-07
-1.00502e-07
2.71377e-09
-1.09714e-07
1.12529e-07
-1.09816e-07
2.19625e-07
-1.07096e-07
3.2555e-07
-1.05924e-07
4.27376e-07
-1.01826e-07
5.24792e-07
-9.74159e-08
6.11015e-07
-8.62226e-08
6.89748e-07
-7.87337e-08
7.49032e-07
-5.9284e-08
8.04993e-07
-5.59605e-08
8.31094e-07
-2.61009e-08
8.72626e-07
-4.15321e-08
8.62211e-07
1.0415e-08
9.12222e-07
-5.00109e-08
8.56784e-07
5.54377e-08
9.58542e-07
-1.01759e-07
8.37751e-07
1.20792e-07
-3.10465e-07
1.91816e-06
1.72967e-05
1.02306e-07
2.62128e-06
-7.42438e-08
2.04307e-07
-1.77843e-07
1.28595e-07
-2.09759e-07
4.26669e-08
-2.27372e-07
1.90448e-08
-2.37946e-07
1.45754e-08
-2.4299e-07
4.61205e-09
-2.49451e-07
8.94306e-09
-2.5438e-07
5.59273e-09
-2.62251e-07
1.07692e-08
-2.71554e-07
1.21055e-08
-2.85198e-07
1.85852e-08
-3.02691e-07
2.35795e-08
-3.25169e-07
3.06886e-08
-3.51707e-07
3.61889e-08
-3.82223e-07
4.18349e-08
-4.16269e-07
4.6715e-08
-4.54471e-07
5.2543e-08
-4.97724e-07
5.95285e-08
-5.47263e-07
6.826e-08
-6.03855e-07
7.80644e-08
-6.67626e-07
8.81353e-08
-7.37794e-07
9.72216e-08
-8.12861e-07
1.04357e-07
-8.90729e-07
1.08694e-07
-9.68932e-07
1.09705e-07
-1.04477e-06
1.07024e-07
-1.1154e-06
1.00424e-07
-1.17786e-06
8.97211e-08
-1.22912e-06
7.47364e-08
-1.266e-06
5.5303e-08
-1.28528e-06
3.12719e-08
-1.28359e-06
2.50309e-09
-1.25757e-06
-3.10929e-08
-1.20389e-06
-6.94971e-08
-1.11931e-06
-1.12504e-07
-1.00086e-06
-1.59799e-07
-8.46102e-07
-2.1055e-07
-6.53381e-07
-2.63759e-07
-4.23003e-07
-3.16576e-07
-1.58309e-07
-3.65196e-07
1.2417e-07
-3.92192e-07
4.03849e-07
-3.89495e-07
6.75789e-07
-3.79036e-07
9.42152e-07
-3.72288e-07
1.19723e-06
-3.56901e-07
1.43709e-06
-3.37277e-07
1.65124e-06
-3.00373e-07
1.84042e-06
-2.67915e-07
1.99057e-06
-2.0943e-07
2.11758e-06
-1.82978e-07
2.19528e-06
-1.03796e-07
2.27217e-06
-1.18423e-07
2.28235e-06
2.36411e-10
2.34531e-06
-1.12975e-07
2.29358e-06
1.07174e-07
2.41103e-06
-2.19211e-07
2.28907e-06
2.42749e-07
-7.89901e-07
2.91726e-06
2.43794e-05
3.96649e-07
5.1419e-06
-4.03572e-08
6.41312e-07
-2.39263e-07
3.27501e-07
-3.02478e-07
1.05881e-07
-3.44344e-07
6.09112e-08
-3.6454e-07
3.47717e-08
-3.78772e-07
1.88442e-08
-3.90466e-07
2.06367e-08
-4.01374e-07
1.65007e-08
-4.14682e-07
2.40771e-08
-4.31071e-07
2.84946e-08
-4.53249e-07
4.0763e-08
-4.81817e-07
5.21472e-08
-5.17625e-07
6.64973e-08
-5.59771e-07
7.83345e-08
-6.0769e-07
8.97541e-08
-6.60948e-07
9.99727e-08
-7.20393e-07
1.11989e-07
-7.87558e-07
1.26694e-07
-8.64255e-07
1.44956e-07
-9.51563e-07
1.65373e-07
-1.04938e-06
1.85948e-07
-1.15615e-06
2.03998e-07
-1.26919e-06
2.17396e-07
-1.38493e-06
2.2443e-07
-1.49929e-06
2.24073e-07
-1.60796e-06
2.15694e-07
-1.70649e-06
1.9895e-07
-1.79035e-06
1.73586e-07
-1.85498e-06
1.39361e-07
-1.89574e-06
9.60593e-08
-1.90795e-06
4.34874e-08
-1.88691e-06
-1.85376e-08
-1.82801e-06
-8.9991e-08
-1.72684e-06
-1.7067e-07
-1.57933e-06
-2.60013e-07
-1.38203e-06
-3.57102e-07
-1.13255e-06
-4.60023e-07
-8.30268e-07
-5.66046e-07
-4.77998e-07
-6.68846e-07
-8.44921e-08
-7.58703e-07
3.27282e-07
-8.03966e-07
7.3792e-07
-8.00133e-07
1.14491e-06
-7.86021e-07
1.54615e-06
-7.73537e-07
1.93232e-06
-7.43066e-07
2.29455e-06
-6.99504e-07
2.62041e-06
-6.26239e-07
2.90551e-06
-5.53012e-07
3.1376e-06
-4.4152e-07
3.32594e-06
-3.71317e-07
3.45402e-06
-2.31876e-07
3.55715e-06
-2.21559e-07
3.595e-06
-3.76135e-08
3.65458e-06
-1.72552e-07
3.62637e-06
1.35388e-07
3.72148e-06
-3.14329e-07
3.64665e-06
3.1758e-07
-1.30692e-06
3.80902e-06
3.05704e-05
8.13462e-07
8.13746e-06
5.26837e-08
1.40209e-06
-2.53124e-07
6.33309e-07
-3.61895e-07
2.14653e-07
-4.33931e-07
1.32947e-07
-4.6872e-07
6.95607e-08
-4.94818e-07
4.49419e-08
-5.13918e-07
3.97361e-08
-5.32e-07
3.4583e-08
-5.51621e-07
4.3698e-08
-5.7538e-07
5.2254e-08
-6.06034e-07
7.14174e-08
-6.45092e-07
9.12047e-08
-6.93207e-07
1.14613e-07
-7.49419e-07
1.34546e-07
-8.12743e-07
1.53078e-07
-8.82724e-07
1.69953e-07
-9.60408e-07
1.89673e-07
-1.04782e-06
2.1411e-07
-1.14717e-06
2.44304e-07
-1.25959e-06
2.77792e-07
-1.3845e-06
3.10858e-07
-1.51941e-06
3.38907e-07
-1.66032e-06
3.58309e-07
-1.80223e-06
3.66333e-07
-1.9396e-06
3.61442e-07
-2.06672e-06
3.42817e-07
-2.17788e-06
3.10109e-07
-2.26741e-06
2.63122e-07
-2.32974e-06
2.01683e-07
-2.35934e-06
1.25662e-07
-2.35081e-06
3.4958e-08
-2.29891e-06
-7.04415e-08
-2.19871e-06
-1.90191e-07
-2.04573e-06
-3.23649e-07
-1.83621e-06
-4.69533e-07
-1.56746e-06
-6.25847e-07
-1.23849e-06
-7.88994e-07
-8.50913e-07
-9.53623e-07
-4.1073e-07
-1.10903e-06
6.90723e-08
-1.2385e-06
5.67549e-07
-1.30244e-06
1.07376e-06
-1.30634e-06
1.58621e-06
-1.29848e-06
2.09692e-06
-1.28425e-06
2.5925e-06
-1.23864e-06
3.05912e-06
-1.16613e-06
3.48194e-06
-1.04906e-06
3.8519e-06
-9.22972e-07
4.15738e-06
-7.46994e-07
4.40249e-06
-6.16427e-07
4.57667e-06
-4.06056e-07
4.70684e-06
-3.51734e-07
4.76846e-06
-9.92293e-08
4.82964e-06
-2.33735e-07
4.81626e-06
1.48771e-07
4.89616e-06
-3.94225e-07
4.8548e-06
3.5894e-07
-1.81996e-06
4.61545e-06
3.5955e-05
1.32447e-06
1.14284e-05
2.12802e-07
2.51376e-06
-2.18244e-07
1.06435e-06
-3.86813e-07
3.83222e-07
-4.95304e-07
2.41438e-07
-5.49765e-07
1.24022e-07
-5.90577e-07
8.57533e-08
-6.19294e-07
6.84534e-08
-6.45806e-07
6.1095e-08
-6.72596e-07
7.0488e-08
-7.03982e-07
8.36396e-08
-7.42958e-07
1.10394e-07
-7.91796e-07
1.40043e-07
-8.5102e-07
1.73837e-07
-9.19557e-07
2.03084e-07
-9.96045e-07
2.29566e-07
-1.07995e-06
2.53862e-07
-1.17244e-06
2.82162e-07
-1.27583e-06
3.17501e-07
-1.39246e-06
3.60927e-07
-1.52323e-06
4.08564e-07
-1.66688e-06
4.54505e-07
-1.81985e-06
4.91877e-07
-1.97689e-06
5.15356e-07
-2.13176e-06
5.21201e-07
-2.27781e-06
5.0749e-07
-2.4084e-06
4.7341e-07
-2.5171e-06
4.1881e-07
-2.59774e-06
3.43755e-07
-2.64439e-06
2.48333e-07
-2.65142e-06
1.32699e-07
-2.6135e-06
-2.96462e-09
-2.52567e-06
-1.5827e-07
-2.38346e-06
-3.32403e-07
-2.18302e-06
-5.24085e-07
-1.92152e-06
-7.31038e-07
-1.59745e-06
-9.49912e-07
-1.21127e-06
-1.17518e-06
-7.66297e-07
-1.3986e-06
-2.70148e-07
-1.60518e-06
2.63188e-07
-1.77184e-06
8.18408e-07
-1.85766e-06
1.39169e-06
-1.87962e-06
1.98063e-06
-1.88742e-06
2.57318e-06
-1.87679e-06
3.15359e-06
-1.81905e-06
3.70454e-06
-1.71708e-06
4.2091e-06
-1.55362e-06
4.65379e-06
-1.36766e-06
5.02656e-06
-1.11977e-06
5.32642e-06
-9.16289e-07
5.54629e-06
-6.25922e-07
5.70643e-06
-5.11879e-07
5.79231e-06
-1.85101e-07
5.86067e-06
-3.02104e-07
5.85824e-06
1.51209e-07
5.9293e-06
-4.65288e-07
5.90966e-06
3.78573e-07
-2.30198e-06
5.34693e-06
4.0608e-05
1.90223e-06
1.48731e-05
4.48113e-07
3.96788e-06
-1.33472e-07
1.64594e-06
-3.76064e-07
6.25813e-07
-5.27628e-07
3.93003e-07
-6.06979e-07
2.03372e-07
-6.6554e-07
1.44315e-07
-7.06145e-07
1.09058e-07
-7.42411e-07
9.73608e-08
-7.77216e-07
1.05293e-07
-8.16456e-07
1.22879e-07
-8.63506e-07
1.57444e-07
-9.2129e-07
1.97826e-07
-9.90252e-07
2.42799e-07
-1.06918e-06
2.82009e-07
-1.15635e-06
3.16735e-07
-1.25109e-06
3.48605e-07
-1.35455e-06
3.85619e-07
-1.4691e-06
4.32059e-07
-1.59697e-06
4.88794e-07
-1.73862e-06
5.50217e-07
-1.892e-06
6.07882e-07
-2.05257e-06
6.52449e-07
-2.21412e-06
6.76901e-07
-2.36957e-06
6.76655e-07
-2.51172e-06
6.49644e-07
-2.63363e-06
5.95315e-07
-2.72876e-06
5.13943e-07
-2.79105e-06
4.06044e-07
-2.81485e-06
2.7213e-07
-2.79492e-06
1.12773e-07
-2.72649e-06
-7.13956e-08
-2.60517e-06
-2.79587e-07
-2.42709e-06
-5.10485e-07
-2.1891e-06
-7.62076e-07
-1.88912e-06
-1.03102e-06
-1.52648e-06
-1.31256e-06
-1.10238e-06
-1.59927e-06
-6.2087e-07
-1.88011e-06
-8.97893e-08
-2.13626e-06
4.77773e-07
-2.3394e-06
1.0716e-06
-2.45149e-06
1.69136e-06
-2.49939e-06
2.33279e-06
-2.52885e-06
2.98171e-06
-2.52571e-06
3.62168e-06
-2.45902e-06
4.23401e-06
-2.32941e-06
4.80108e-06
-2.1207e-06
5.3065e-06
-1.87308e-06
5.7378e-06
-1.55107e-06
6.08893e-06
-1.26742e-06
6.35477e-06
-8.91766e-07
6.54845e-06
-7.05551e-07
6.66259e-06
-2.99245e-07
6.74422e-06
-3.83736e-07
6.75434e-06
1.41089e-07
6.82196e-06
-5.32905e-07
6.81715e-06
3.83386e-07
-2.73714e-06
6.00899e-06
4.4599e-05
2.52385e-06
1.83583e-05
7.56997e-07
5.73473e-06
-2.03329e-09
2.40497e-06
-3.28468e-07
9.52248e-07
-5.29991e-07
5.94526e-07
-6.39624e-07
3.13006e-07
-7.19177e-07
2.23868e-07
-7.74022e-07
1.63903e-07
-8.21448e-07
1.44787e-07
-8.65121e-07
1.48966e-07
-9.12422e-07
1.7018e-07
-9.67212e-07
2.12234e-07
-1.03299e-06
2.63602e-07
-1.11016e-06
3.19974e-07
-1.19737e-06
3.69211e-07
-1.29254e-06
4.11913e-07
-1.39482e-06
4.50885e-07
-1.50521e-06
4.96004e-07
-1.62597e-06
5.52819e-07
-1.75902e-06
6.21849e-07
-1.90435e-06
6.95544e-07
-2.05921e-06
7.62737e-07
-2.21837e-06
8.11617e-07
-2.3751e-06
8.3363e-07
-2.52205e-06
8.236e-07
-2.65198e-06
7.79573e-07
-2.75812e-06
7.01463e-07
-2.8343e-06
5.90115e-07
-2.87484e-06
4.4659e-07
-2.8746e-06
2.71888e-07
-2.82887e-06
6.70378e-08
-2.73337e-06
-1.66889e-07
-2.58419e-06
-4.28771e-07
-2.37786e-06
-7.16809e-07
-2.11173e-06
-1.02821e-06
-1.78415e-06
-1.3586e-06
-1.39486e-06
-1.70185e-06
-9.45384e-07
-2.04874e-06
-4.39887e-07
-2.38561e-06
1.14137e-07
-2.69028e-06
7.05153e-07
-2.93042e-06
1.32644e-06
-3.07277e-06
1.97852e-06
-3.15147e-06
2.65507e-06
-3.20539e-06
3.34095e-06
-3.21159e-06
4.01972e-06
-3.13779e-06
4.67259e-06
-2.98228e-06
5.28235e-06
-2.73046e-06
5.83145e-06
-2.42217e-06
6.30783e-06
-2.02746e-06
6.70169e-06
-1.66127e-06
7.00951e-06
-1.19959e-06
7.23701e-06
-9.33054e-07
7.38279e-06
-4.45027e-07
7.48264e-06
-4.83587e-07
7.51031e-06
1.1342e-07
7.57894e-06
-6.01535e-07
7.58718e-06
3.7515e-07
-3.11764e-06
6.60547e-06
4.79936e-05
3.17031e-06
2.17934e-05
1.13581e-06
7.76923e-06
1.93832e-07
3.34695e-06
-2.4276e-07
1.38884e-06
-5.01358e-07
8.53123e-07
-6.46879e-07
4.58527e-07
-7.50885e-07
3.27874e-07
-8.22435e-07
2.35453e-07
-8.82531e-07
2.04882e-07
-9.35947e-07
2.02382e-07
-9.91513e-07
2.25746e-07
-1.05365e-06
2.74368e-07
-1.12638e-06
3.36331e-07
-1.21013e-06
4.03729e-07
-1.30341e-06
4.62496e-07
-1.40389e-06
5.12391e-07
-1.51047e-06
5.57465e-07
-1.62395e-06
6.09484e-07
-1.74639e-06
6.7526e-07
-1.87939e-06
7.54847e-07
-2.0225e-06
8.38648e-07
-2.17252e-06
9.12758e-07
-2.32392e-06
9.63016e-07
-2.46984e-06
9.79549e-07
-2.60306e-06
9.56828e-07
-2.71668e-06
8.93185e-07
-2.80432e-06
7.89105e-07
-2.86024e-06
6.46042e-07
-2.87926e-06
4.65605e-07
-2.85664e-06
2.49268e-07
-2.7881e-06
-1.49999e-09
-2.6697e-06
-2.85284e-07
-2.49779e-06
-6.00682e-07
-2.26921e-06
-9.45391e-07
-1.98158e-06
-1.31584e-06
-1.63352e-06
-1.70666e-06
-1.22497e-06
-2.11041e-06
-7.57555e-07
-2.51615e-06
-2.35345e-07
-2.90782e-06
3.34732e-07
-3.26036e-06
9.42763e-07
-3.53845e-06
1.58412e-06
-3.71413e-06
2.25871e-06
-3.82606e-06
2.9584e-06
-3.90508e-06
3.66767e-06
-3.92086e-06
4.37035e-06
-3.84047e-06
5.04799e-06
-3.65992e-06
5.68418e-06
-3.36664e-06
6.26129e-06
-2.99928e-06
6.76822e-06
-2.53439e-06
7.19306e-06
-2.08611e-06
7.53409e-06
-1.54062e-06
7.79076e-06
-1.18973e-06
7.96711e-06
-6.21381e-07
8.08669e-06
-6.03169e-07
8.13624e-06
6.38737e-08
8.20874e-06
-6.74035e-07
8.23154e-06
3.52353e-07
-3.44079e-06
7.13993e-06
5.08537e-05
3.82578e-06
2.51076e-05
1.57776e-06
1.00173e-05
4.38904e-07
4.4858e-06
-1.17018e-07
1.94476e-06
-4.40547e-07
1.17665e-06
-6.27811e-07
6.45791e-07
-7.5996e-07
4.60024e-07
-8.50825e-07
3.26318e-07
-9.25223e-07
2.7928e-07
-9.89315e-07
2.66474e-07
-1.05338e-06
2.89808e-07
-1.12244e-06
3.4343e-07
-1.20105e-06
4.14946e-07
-1.28975e-06
4.92427e-07
-1.387e-06
5.59746e-07
-1.49027e-06
6.15663e-07
-1.5983e-06
6.65496e-07
-1.71168e-06
7.22863e-07
-1.83223e-06
7.95809e-07
-1.96124e-06
8.83859e-07
-2.09797e-06
9.75378e-07
-2.23902e-06
1.0538e-06
-2.37882e-06
1.10282e-06
-2.51071e-06
1.11144e-06
-2.62782e-06
1.07394e-06
-2.72368e-06
9.89039e-07
-2.79236e-06
8.57791e-07
-2.82855e-06
6.82233e-07
-2.82743e-06
4.64478e-07
-2.7846e-06
2.06437e-07
-2.69607e-06
-9.00276e-08
-2.55808e-06
-4.23271e-07
-2.36717e-06
-7.91595e-07
-2.12039e-06
-1.19217e-06
-1.81558e-06
-1.62066e-06
-1.45151e-06
-2.07073e-06
-1.02822e-06
-2.53369e-06
-5.47368e-07
-2.997e-06
-1.28456e-08
-3.44234e-06
5.69031e-07
-3.84224e-06
1.18982e-06
-4.15924e-06
1.84596e-06
-4.37028e-06
2.53608e-06
-4.51617e-06
3.25058e-06
-4.61958e-06
3.9739e-06
-4.64418e-06
4.6902e-06
-4.55677e-06
5.38155e-06
-4.35127e-06
6.03231e-06
-4.0174e-06
6.62527e-06
-3.59225e-06
7.1504e-06
-3.05951e-06
7.59487e-06
-2.53058e-06
7.95874e-06
-1.90449e-06
8.23697e-06
-1.46795e-06
8.43855e-06
-8.22967e-07
8.57552e-06
-7.40142e-07
8.64771e-06
-8.312e-09
8.72462e-06
-7.5094e-07
8.76378e-06
3.13185e-07
-3.70697e-06
7.61619e-06
5.32375e-05
4.4771e-06
2.82467e-05
2.07404e-06
1.24203e-05
7.3879e-07
5.82106e-06
5.08356e-08
2.63272e-06
-3.46231e-07
1.57372e-06
-5.81369e-07
8.80929e-07
-7.45577e-07
6.24231e-07
-8.58546e-07
4.39286e-07
-9.49031e-07
3.69766e-07
-1.02483e-06
3.4227e-07
-1.09769e-06
3.62668e-07
-1.17331e-06
4.1905e-07
-1.25682e-06
4.98458e-07
-1.34897e-06
5.84574e-07
-1.44833e-06
6.59108e-07
-1.55232e-06
7.19659e-07
-1.6596e-06
7.72767e-07
-1.77053e-06
8.33795e-07
-1.88669e-06
9.11969e-07
-2.0091e-06
1.00627e-06
-2.13681e-06
1.1031e-06
-2.26642e-06
1.18341e-06
-2.39255e-06
1.22894e-06
-2.50887e-06
1.22776e-06
-2.60899e-06
1.17406e-06
-2.68687e-06
1.06691e-06
-2.737e-06
9.07927e-07
-2.75442e-06
6.99651e-07
-2.73459e-06
4.4465e-07
-2.67339e-06
1.45232e-07
-2.56699e-06
-1.96426e-07
-2.41176e-06
-5.785e-07
-2.20439e-06
-9.98966e-07
-1.94212e-06
-1.45444e-06
-1.62292e-06
-1.93985e-06
-1.2457e-06
-2.44795e-06
-8.10574e-07
-2.96882e-06
-3.1917e-07
-3.48841e-06
2.24808e-07
-3.98632e-06
8.15641e-07
-4.43307e-06
1.4461e-06
-4.78969e-06
2.11305e-06
-5.03722e-06
2.81355e-06
-5.21668e-06
3.53691e-06
-5.34295e-06
4.26773e-06
-5.375e-06
4.99051e-06
-5.27955e-06
5.68784e-06
-5.0486e-06
6.34482e-06
-4.67438e-06
6.94482e-06
-4.19225e-06
7.47876e-06
-3.59345e-06
7.93358e-06
-2.9854e-06
8.31094e-06
-2.28185e-06
8.60279e-06
-1.7598e-06
8.82243e-06
-1.0426e-06
8.97217e-06
-8.89878e-07
9.06421e-06
-1.0036e-07
9.14397e-06
-8.30699e-07
9.19946e-06
2.57703e-07
-3.91844e-06
8.03833e-06
5.51991e-05
5.11354e-06
3.11715e-05
2.61454e-06
1.49193e-05
1.09306e-06
7.34254e-06
2.62134e-07
3.46364e-06
-2.16977e-07
2.05283e-06
-5.06387e-07
1.17034e-06
-7.06783e-07
8.24628e-07
-8.44852e-07
5.77355e-07
-9.53392e-07
4.78305e-07
-1.04206e-06
4.30937e-07
-1.12415e-06
4.44763e-07
-1.2061e-06
5.00999e-07
-1.29371e-06
5.86062e-07
-1.38808e-06
6.78953e-07
-1.48812e-06
7.59139e-07
-1.59132e-06
8.22864e-07
-1.69631e-06
8.77755e-07
-1.80325e-06
9.40739e-07
-1.91343e-06
1.02215e-06
-2.0276e-06
1.12043e-06
-2.14472e-06
1.22022e-06
-2.2615e-06
1.30019e-06
-2.37287e-06
1.34031e-06
-2.47297e-06
1.32786e-06
-2.55588e-06
1.25697e-06
-2.61599e-06
1.12702e-06
-2.64817e-06
9.40107e-07
-2.64773e-06
6.99211e-07
-2.61037e-06
4.07297e-07
-2.53217e-06
6.70306e-08
-2.40942e-06
-3.19178e-07
-2.23859e-06
-7.49336e-07
-2.0165e-06
-1.22105e-06
-1.74056e-06
-1.73038e-06
-1.40887e-06
-2.27155e-06
-1.02042e-06
-2.8364e-06
-5.75393e-07
-3.41385e-06
-7.5393e-08
-3.98841e-06
4.76077e-07
-4.53779e-06
1.07381e-06
-5.03081e-06
1.71156e-06
-5.42744e-06
2.38617e-06
-5.71183e-06
3.09317e-06
-5.92367e-06
3.82103e-06
-6.07081e-06
4.5546e-06
-6.10858e-06
5.27874e-06
-6.00369e-06
5.97658e-06
-5.74644e-06
6.63383e-06
-5.33164e-06
7.23452e-06
-4.79293e-06
7.77037e-06
-4.1293e-06
8.22849e-06
-3.44352e-06
8.61183e-06
-2.66519e-06
8.91044e-06
-2.05841e-06
9.14111e-06
-1.27328e-06
9.29846e-06
-1.04722e-06
9.40565e-06
-2.07551e-07
9.4856e-06
-9.10655e-07
9.55511e-06
1.88192e-07
-4.0787e-06
8.41057e-06
5.67886e-05
5.72658e-06
3.38554e-05
3.18848e-06
1.74574e-05
1.49977e-06
9.03125e-06
5.19824e-07
4.44359e-06
-5.14195e-08
2.62407e-06
-4.01572e-07
1.52049e-06
-6.4249e-07
1.06555e-06
-8.08895e-07
7.43761e-07
-9.37669e-07
6.07079e-07
-1.04057e-06
5.3384e-07
-1.13254e-06
5.36731e-07
-1.22081e-06
5.89265e-07
-1.31198e-06
6.77234e-07
-1.40773e-06
7.74706e-07
-1.50744e-06
8.5885e-07
-1.60887e-06
9.24291e-07
-1.71063e-06
9.79515e-07
-1.81265e-06
1.04276e-06
-1.91587e-06
1.12537e-06
-2.02081e-06
1.22537e-06
-2.12639e-06
1.32581e-06
-2.22954e-06
1.40334e-06
-2.32562e-06
1.43639e-06
-2.40925e-06
1.4115e-06
-2.475e-06
1.32271e-06
-2.51768e-06
1.1697e-06
-2.53246e-06
9.54891e-07
-2.51491e-06
6.81662e-07
-2.46093e-06
3.53316e-07
-2.36673e-06
-2.71652e-08
-2.22871e-06
-4.57203e-07
-2.04342e-06
-9.34624e-07
-1.80785e-06
-1.45662e-06
-1.51951e-06
-2.01871e-06
-1.17664e-06
-2.61442e-06
-7.78306e-07
-3.23473e-06
-3.24747e-07
-3.8674e-06
1.82458e-07
-4.49561e-06
7.39986e-07
-5.09532e-06
1.34306e-06
-5.63388e-06
1.98618e-06
-6.07056e-06
2.66592e-06
-6.39157e-06
3.37639e-06
-6.63414e-06
4.10545e-06
-6.79987e-06
4.83824e-06
-6.84136e-06
5.55996e-06
-6.72541e-06
6.25427e-06
-6.44076e-06
6.90746e-06
-5.98482e-06
7.50417e-06
-5.38965e-06
8.03686e-06
-4.66199e-06
8.49298e-06
-3.89964e-06
8.8765e-06
-3.04871e-06
9.17638e-06
-2.35828e-06
9.41209e-06
-1.509e-06
9.57237e-06
-1.2075e-06
9.68953e-06
-3.24713e-07
9.76687e-06
-9.87994e-07
9.84669e-06
1.0838e-07
-4.19196e-06
8.73719e-06
5.80514e-05
6.30974e-06
3.62829e-05
3.78496e-06
1.99822e-05
1.95537e-06
1.08608e-05
8.25082e-07
5.57388e-06
1.53088e-07
3.29607e-06
-2.65503e-07
1.93908e-06
-5.51455e-07
1.3515e-06
-7.49703e-07
9.42009e-07
-9.01134e-07
7.5851e-07
-1.01988e-06
6.5259e-07
-1.12262e-06
6.39468e-07
-1.21748e-06
6.84125e-07
-1.31203e-06
7.71779e-07
-1.40868e-06
8.71356e-07
-1.50749e-06
9.57665e-07
-1.60658e-06
1.02337e-06
-1.70457e-06
1.07751e-06
-1.80113e-06
1.13932e-06
-1.89683e-06
1.22107e-06
-1.99194e-06
1.32047e-06
-2.08543e-06
1.4193e-06
-2.17452e-06
1.49243e-06
-2.25505e-06
1.51692e-06
-2.32216e-06
1.47861e-06
-2.3709e-06
1.37146e-06
-2.39647e-06
1.19526e-06
-2.39433e-06
9.52752e-07
-2.36026e-06
6.47593e-07
-2.29033e-06
2.83387e-07
-2.18087e-06
-1.36619e-07
-2.02836e-06
-6.09718e-07
-1.82946e-06
-1.13353e-06
-1.58127e-06
-1.70481e-06
-1.28146e-06
-2.31852e-06
-9.28355e-07
-2.96753e-06
-5.21118e-07
-3.64196e-06
-6.00246e-08
-4.3285e-06
4.53355e-07
-5.00899e-06
1.01585e-06
-5.65781e-06
1.62303e-06
-6.24106e-06
2.26992e-06
-6.71745e-06
2.95272e-06
-7.07437e-06
3.66426e-06
-7.34568e-06
4.39196e-06
-7.52757e-06
5.12125e-06
-7.57065e-06
5.83768e-06
-7.44184e-06
6.52541e-06
-7.12849e-06
7.17123e-06
-6.63065e-06
7.76045e-06
-5.97887e-06
8.28614e-06
-5.18768e-06
8.73622e-06
-4.34972e-06
9.11551e-06
-3.428e-06
9.41235e-06
-2.65512e-06
9.64827e-06
-1.74492e-06
9.8076e-06
-1.36683e-06
9.92998e-06
-4.47089e-07
1.00022e-05
-1.06024e-06
1.00881e-05
2.24891e-08
-4.26262e-06
9.02243e-06
5.90289e-05
6.85832e-06
3.8447e-05
4.39343e-06
2.24471e-05
2.45485e-06
1.27994e-05
1.17844e-06
6.85029e-06
3.97602e-07
4.0769e-06
-9.63987e-08
2.43308e-06
-4.3227e-07
1.68737e-06
-6.66159e-07
1.1759e-06
-8.42935e-07
9.35286e-07
-9.79428e-07
7.89084e-07
-1.09413e-06
7.54173e-07
-1.19619e-06
7.8618e-07
-1.29426e-06
8.69848e-07
-1.39167e-06
9.68773e-07
-1.48935e-06
1.05534e-06
-1.58582e-06
1.11985e-06
-1.6798e-06
1.17148e-06
-1.77061e-06
1.23013e-06
-1.85846e-06
1.30893e-06
-1.94341e-06
1.40542e-06
-2.0245e-06
1.50039e-06
-2.09932e-06
1.56724e-06
-2.16421e-06
1.58181e-06
-2.21486e-06
1.52926e-06
-2.24678e-06
1.40338e-06
-2.25553e-06
1.20402e-06
-2.23686e-06
9.34083e-07
-2.18674e-06
5.97468e-07
-2.10138e-06
1.98029e-07
-1.97722e-06
-2.60781e-07
-1.8108e-06
-7.76141e-07
-1.5989e-06
-1.34542e-06
-1.33877e-06
-1.96494e-06
-1.02817e-06
-2.62912e-06
-6.65531e-07
-3.33017e-06
-2.50111e-07
-4.05738e-06
2.17766e-07
-4.79638e-06
7.36535e-07
-5.52776e-06
1.30314e-06
-6.22441e-06
1.91339e-06
-6.85132e-06
2.56273e-06
-7.36678e-06
3.24685e-06
-7.7585e-06
3.95752e-06
-8.05635e-06
4.68185e-06
-8.25189e-06
5.4055e-06
-8.29431e-06
6.11438e-06
-8.15072e-06
6.79312e-06
-7.80723e-06
7.42901e-06
-7.26654e-06
8.00798e-06
-6.55784e-06
8.52368e-06
-5.70338e-06
8.96459e-06
-4.79064e-06
9.33621e-06
-3.79962e-06
9.62664e-06
-2.94555e-06
9.85894e-06
-1.97723e-06
1.00142e-05
-1.52209e-06
1.01377e-05
-5.7063e-07
1.02029e-05
-1.12538e-06
1.02908e-05
-6.54462e-08
-4.29491e-06
9.27039e-06
5.97585e-05
7.3692e-06
4.03482e-05
5.00406e-06
2.48122e-05
2.99187e-06
1.48116e-05
1.57933e-06
8.26283e-06
6.83946e-07
4.97229e-06
1.07611e-07
3.00942e-06
-2.83352e-07
2.07833e-06
-5.56973e-07
1.44952e-06
-7.62051e-07
1.14036e-06
-9.18494e-07
9.45527e-07
-1.04669e-06
8.82366e-07
-1.15687e-06
8.96366e-07
-1.25894e-06
9.71918e-07
-1.3573e-06
1.06713e-06
-1.45385e-06
1.15189e-06
-1.54767e-06
1.21367e-06
-1.63752e-06
1.26134e-06
-1.72247e-06
1.31507e-06
-1.80234e-06
1.3888e-06
-1.87697e-06
1.48005e-06
-1.94555e-06
1.56897e-06
-2.00603e-06
1.62772e-06
-2.0553e-06
1.63108e-06
-2.08961e-06
1.56357e-06
-2.10492e-06
1.41869e-06
-2.09714e-06
1.19624e-06
-2.06228e-06
8.99218e-07
-1.99648e-06
5.31666e-07
-1.8961e-06
9.76493e-08
-1.75765e-06
-3.99224e-07
-1.57777e-06
-9.56023e-07
-1.35336e-06
-1.56983e-06
-1.08178e-06
-2.23652e-06
-7.6091e-07
-2.95e-06
-3.89281e-07
-3.70179e-06
3.3766e-08
-4.48043e-06
5.07851e-07
-5.27046e-06
1.03139e-06
-6.0513e-06
1.6014e-06
-6.79442e-06
2.21389e-06
-7.46382e-06
2.86452e-06
-8.01741e-06
3.54852e-06
-8.44249e-06
4.25674e-06
-8.76457e-06
4.97604e-06
-8.9712e-06
5.69235e-06
-9.01062e-06
6.39186e-06
-8.85022e-06
7.05968e-06
-8.47504e-06
7.68355e-06
-7.89041e-06
8.25004e-06
-7.12433e-06
8.75334e-06
-6.20669e-06
9.18257e-06
-5.21986e-06
9.54378e-06
-4.16082e-06
9.82511e-06
-3.22688e-06
1.00508e-05
-2.20287e-06
1.01994e-05
-1.67077e-06
1.03208e-05
-6.92004e-07
1.03773e-05
-1.18188e-06
1.04637e-05
-1.5187e-07
-4.2927e-06
9.48503e-06
6.02735e-05
7.84062e-06
4.19926e-05
5.60792e-06
2.70449e-05
3.55911e-06
1.68604e-05
2.02596e-06
9.79597e-06
1.01356e-06
5.9847e-06
3.48585e-07
3.67439e-06
-1.03001e-07
2.52992e-06
-4.2068e-07
1.7672e-06
-6.57263e-07
1.37695e-06
-8.36174e-07
1.12444e-06
-9.79704e-07
1.0259e-06
-1.09929e-06
1.01595e-06
-1.20616e-06
1.07878e-06
-1.30589e-06
1.16686e-06
-1.40153e-06
1.24753e-06
-1.49279e-06
1.30493e-06
-1.57858e-06
1.34713e-06
-1.65768e-06
1.39417e-06
-1.72955e-06
1.46067e-06
-1.79387e-06
1.54437e-06
-1.84994e-06
1.62504e-06
-1.89615e-06
1.67393e-06
-1.92993e-06
1.66487e-06
-1.94807e-06
1.58171e-06
-1.94699e-06
1.41761e-06
-1.92296e-06
1.1722e-06
-1.87219e-06
8.48456e-07
-1.79103e-06
4.50505e-07
-1.67596e-06
-1.74207e-08
-1.52358e-06
-5.51608e-07
-1.3306e-06
-1.149e-06
-1.09405e-06
-1.80638e-06
-8.11416e-07
-2.51915e-06
-4.80678e-07
-3.28074e-06
-1.00474e-07
-4.082e-06
3.29771e-07
-4.91067e-06
8.0961e-07
-5.7503e-06
1.33742e-06
-6.57911e-06
1.91026e-06
-7.36726e-06
2.52427e-06
-8.07783e-06
3.17522e-06
-8.66836e-06
3.85786e-06
-9.12514e-06
4.56231e-06
-9.46902e-06
5.27525e-06
-9.68414e-06
5.9828e-06
-9.71817e-06
6.67144e-06
-9.53886e-06
7.32671e-06
-9.13031e-06
7.93683e-06
-8.50053e-06
8.48899e-06
-7.67649e-06
8.97792e-06
-6.69561e-06
9.39338e-06
-5.63532e-06
9.74193e-06
-4.50938e-06
1.0012e-05
-3.49693e-06
1.02285e-05
-2.41939e-06
1.03686e-05
-1.81088e-06
1.04851e-05
-8.085e-07
1.05318e-05
-1.22856e-06
1.06137e-05
-2.33771e-07
-4.25939e-06
9.67007e-06
6.06034e-05
8.27195e-06
4.33907e-05
6.19723e-06
2.91197e-05
4.14855e-06
1.89091e-05
2.51526e-06
1.14293e-05
1.38722e-06
7.11274e-06
6.28574e-07
4.43303e-06
1.10712e-07
3.04778e-06
-2.55652e-07
2.13356e-06
-5.27143e-07
1.64844e-06
-7.31338e-07
1.32863e-06
-8.92367e-07
1.18693e-06
-1.02296e-06
1.14655e-06
-1.13571e-06
1.19153e-06
-1.2375e-06
1.26866e-06
-1.33264e-06
1.34267e-06
-1.42158e-06
1.39387e-06
-1.50345e-06
1.429e-06
-1.57681e-06
1.46753e-06
-1.6408e-06
1.52466e-06
-1.69492e-06
1.59849e-06
-1.73864e-06
1.66875e-06
-1.77075e-06
1.70604e-06
-1.78924e-06
1.68336e-06
-1.79144e-06
1.58391e-06
-1.77423e-06
1.4004e-06
-1.7342e-06
1.13217e-06
-1.66781e-06
7.82073e-07
-1.57158e-06
3.54272e-07
-1.4421e-06
-1.46899e-07
-1.27606e-06
-7.1765e-07
-1.07027e-06
-1.35479e-06
-8.21901e-07
-2.05475e-06
-5.28525e-07
-2.81253e-06
-1.88245e-07
-3.62102e-06
2.00205e-07
-4.47045e-06
6.37306e-07
-5.34778e-06
1.12253e-06
-6.23552e-06
1.65419e-06
-7.11077e-06
2.22939e-06
-7.94246e-06
2.84431e-06
-8.69275e-06
3.49473e-06
-9.31878e-06
4.17497e-06
-9.80537e-06
4.87453e-06
-1.01686e-05
5.57998e-06
-1.03896e-05
6.27758e-06
-1.04158e-05
6.95408e-06
-1.02154e-05
7.59545e-06
-9.77169e-06
8.19034e-06
-9.09542e-06
8.72659e-06
-8.21273e-06
9.19943e-06
-7.16845e-06
9.59935e-06
-6.03525e-06
9.93338e-06
-4.84341e-06
1.01903e-05
-3.75387e-06
1.03957e-05
-2.62477e-06
1.05256e-05
-1.94075e-06
1.0635e-05
-9.17901e-07
1.06709e-05
-1.26453e-06
1.07458e-05
-3.0867e-07
-4.19791e-06
9.82903e-06
6.07744e-05
8.66349e-06
4.45563e-05
6.7654e-06
3.10178e-05
4.75187e-06
2.09226e-05
3.04286e-06
1.31383e-05
1.80488e-06
8.35072e-06
9.49253e-07
5.28865e-06
3.5969e-07
3.63734e-06
-6.00473e-08
2.5533e-06
-3.70065e-07
1.95846e-06
-6.02621e-07
1.56119e-06
-7.83601e-07
1.3679e-06
-9.27112e-07
1.29006e-06
-1.04713e-06
1.31154e-06
-1.1519e-06
1.37344e-06
-1.24712e-06
1.43789e-06
-1.3341e-06
1.48084e-06
-1.41229e-06
1.5072e-06
-1.48013e-06
1.53537e-06
-1.53646e-06
1.58099e-06
-1.58063e-06
1.64266e-06
-1.61226e-06
1.70038e-06
-1.63054e-06
1.72433e-06
-1.63403e-06
1.68685e-06
-1.62058e-06
1.57046e-06
-1.58752e-06
1.36734e-06
-1.53177e-06
1.07641e-06
-1.45003e-06
7.00341e-07
-1.33899e-06
2.43231e-07
-1.19536e-06
-2.90531e-07
-1.01591e-06
-8.971e-07
-7.97577e-07
-1.57312e-06
-5.37635e-07
-2.3147e-06
-2.33782e-07
-3.11638e-06
1.15778e-07
-3.97058e-06
5.12206e-07
-4.86688e-06
9.55882e-07
-5.79145e-06
1.44618e-06
-6.72582e-06
1.98136e-06
-7.64595e-06
2.55849e-06
-8.51959e-06
3.17378e-06
-9.30803e-06
3.82295e-06
-9.96795e-06
4.49988e-06
-1.04823e-05
5.19362e-06
-1.08623e-05
5.8906e-06
-1.10866e-05
6.57725e-06
-1.11024e-05
7.24052e-06
-1.08786e-05
7.8668e-06
-1.0398e-05
8.44517e-06
-9.67379e-06
8.9641e-06
-8.73167e-06
9.41937e-06
-7.62372e-06
9.80223e-06
-6.4181e-06
1.01201e-05
-5.16128e-06
1.03624e-05
-3.99613e-06
1.05549e-05
-2.81729e-06
1.06731e-05
-2.059e-06
1.07736e-05
-1.01838e-06
1.07981e-05
-1.28908e-06
1.0864e-05
-3.74553e-07
-4.11077e-06
9.96516e-06
6.08093e-05
9.01633e-06
4.55051e-05
7.30708e-06
3.2727e-05
5.36074e-06
2.2869e-05
3.60325e-06
1.48958e-05
2.26544e-06
9.68853e-06
1.31185e-06
6.24225e-06
6.45754e-07
4.30343e-06
1.68057e-07
3.031e-06
-1.8425e-07
2.31076e-06
-4.48452e-07
1.82539e-06
-6.5208e-07
1.57153e-06
-8.10727e-07
1.4487e-06
-9.39679e-07
1.44049e-06
-1.04861e-06
1.48236e-06
-1.14466e-06
1.53394e-06
-1.23017e-06
1.56635e-06
-1.30504e-06
1.58208e-06
-1.36768e-06
1.598e-06
-1.41668e-06
1.62999e-06
-1.45125e-06
1.67723e-06
-1.47116e-06
1.72028e-06
-1.476e-06
1.72917e-06
-1.46485e-06
1.6757e-06
-1.43609e-06
1.5417e-06
-1.3875e-06
1.31874e-06
-1.31633e-06
1.00524e-06
-1.21952e-06
6.03536e-07
-1.09393e-06
1.17638e-07
-9.3638e-07
-4.4808e-07
-7.43753e-07
-1.08973e-06
-5.13101e-07
-1.80377e-06
-2.41816e-07
-2.58598e-06
7.22898e-08
-3.43049e-06
4.30908e-07
-4.32919e-06
8.3509e-07
-5.27106e-06
1.2851e-06
-6.24146e-06
1.78022e-06
-7.22094e-06
2.31862e-06
-8.18435e-06
2.89733e-06
-9.0983e-06
3.51252e-06
-9.92322e-06
4.15979e-06
-1.06152e-05
4.83264e-06
-1.11552e-05
5.51972e-06
-1.15494e-05
6.20741e-06
-1.17742e-05
6.88221e-06
-1.17772e-05
7.53128e-06
-1.15277e-05
8.14141e-06
-1.10081e-05
8.70211e-06
-1.02345e-05
9.2025e-06
-9.23206e-06
9.63888e-06
-8.0601e-06
1.00033e-05
-6.78251e-06
1.03036e-05
-5.46159e-06
1.05298e-05
-4.22232e-06
1.0708e-05
-2.9955e-06
1.08134e-05
-2.16443e-06
1.09035e-05
-1.10839e-06
1.0916e-05
-1.3016e-06
1.09712e-05
-4.29792e-07
-4.00011e-06
1.00815e-05
6.07278e-05
9.33213e-06
4.62544e-05
7.81817e-06
3.4241e-05
5.96714e-06
2.472e-05
4.18998e-06
1.66729e-05
2.76668e-06
1.11118e-05
1.71698e-06
7.29195e-06
9.70661e-07
5.04975e-06
4.30731e-07
3.57093e-06
3.21676e-08
2.70933e-06
-2.67079e-07
2.12464e-06
-4.96248e-07
1.8007e-06
-6.7252e-07
1.62498e-06
-8.12364e-07
1.58034e-06
-9.26865e-07
1.59686e-06
-1.02472e-06
1.6318e-06
-1.10939e-06
1.65102e-06
-1.18142e-06
1.6541e-06
-1.23926e-06
1.65584e-06
-1.28136e-06
1.67209e-06
-1.3068e-06
1.70268e-06
-1.31547e-06
1.72895e-06
-1.30734e-06
1.72103e-06
-1.28199e-06
1.65036e-06
-1.23834e-06
1.49805e-06
-1.17459e-06
1.25499e-06
-1.08832e-06
9.18978e-07
-9.7674e-07
4.91954e-07
-8.36858e-07
-2.22442e-08
-6.6563e-07
-6.19308e-07
-4.60048e-07
-1.29531e-06
-2.17292e-07
-2.04653e-06
6.51272e-08
-2.8684e-06
3.89289e-07
-3.75465e-06
7.56771e-07
-4.69668e-06
1.16851e-06
-5.6828e-06
1.62465e-06
-6.6976e-06
2.12435e-06
-7.72065e-06
2.66571e-06
-8.72571e-06
3.24568e-06
-9.67827e-06
3.86035e-06
-1.05379e-05
4.50516e-06
-1.126e-05
5.17324e-06
-1.18232e-05
5.85295e-06
-1.22291e-05
6.5306e-06
-1.24519e-05