/*--------------------------------*- C++ -*----------------------------------*\
| =========                 |                                                 |
| \\      /  F ield         | OpenFOAM: The Open Source CFD Toolbox           |
|  \\    /   O peration     | Version:  2.4.0                                 |
|   \\  /    A nd           | Web:      www.OpenFOAM.org                      |
|    \\/     M anipulation  |                                                 |
\*---------------------------------------------------------------------------*/
FoamFile
{
    version     2.0;
    format      ascii;
    class       volScalarField;
    location    "235";
    object      k;
}
// * * * * * * * * * * * * * * * * * * * * * * * * * * * * * * * * * * * * * //

dimensions      [0 2 -2 0 0 0 0];

internalField   nonuniform List<scalar> 
10000
(
0.0700316
0.0663836
0.0634217
0.060986
0.058959
0.0572539
0.0558095
0.0545803
0.0535294
0.052627
0.051849
0.0511761
0.0505923
0.0500843
0.0496407
0.0492502
0.0488987
0.0485599
0.0481553
0.0472652
0.0700316
0.0663836
0.0634217
0.060986
0.058959
0.0572539
0.0558095
0.0545803
0.0535294
0.052627
0.0518491
0.0511762
0.0505924
0.0500844
0.0496408
0.0492505
0.0489001
0.0485669
0.0481992
0.0476566
0.0700316
0.0663836
0.0634217
0.060986
0.058959
0.0572539
0.0558096
0.0545804
0.0535295
0.0526271
0.0518492
0.0511763
0.0505925
0.0500846
0.049641
0.0492512
0.0489027
0.0485773
0.0482436
0.0478487
0.0700316
0.0663836
0.0634217
0.060986
0.058959
0.057254
0.0558097
0.0545805
0.0535297
0.0526273
0.0518493
0.0511764
0.0505927
0.0500848
0.0496414
0.0492521
0.0489057
0.048588
0.0482789
0.0479536
0.0700316
0.0663836
0.0634217
0.060986
0.058959
0.0572541
0.0558098
0.0545807
0.0535298
0.0526275
0.0518495
0.0511767
0.0505929
0.050085
0.0496418
0.0492531
0.0489088
0.0485973
0.048305
0.048017
0.0700315
0.0663836
0.0634216
0.0609859
0.0589591
0.0572542
0.05581
0.0545809
0.0535301
0.0526277
0.0518498
0.0511769
0.0505932
0.0500854
0.0496424
0.0492542
0.0489116
0.0486048
0.0483236
0.0480569
0.0700315
0.0663835
0.0634216
0.0609859
0.0589591
0.0572544
0.0558103
0.0545812
0.0535304
0.052628
0.0518502
0.0511773
0.0505936
0.0500858
0.0496429
0.0492552
0.048914
0.0486106
0.0483364
0.0480825
0.0700315
0.0663835
0.0634216
0.0609859
0.0589591
0.0572546
0.0558105
0.0545815
0.0535307
0.0526284
0.0518506
0.0511778
0.0505941
0.0500864
0.0496436
0.0492563
0.048916
0.0486148
0.0483451
0.0480988
0.0700315
0.0663835
0.0634215
0.0609858
0.0589592
0.0572548
0.0558109
0.0545819
0.0535312
0.0526289
0.0518511
0.0511783
0.0505946
0.050087
0.0496443
0.0492572
0.0489176
0.0486179
0.048351
0.0481094
0.0700315
0.0663834
0.0634214
0.0609858
0.0589593
0.0572551
0.0558113
0.0545824
0.0535317
0.0526294
0.0518517
0.0511789
0.0505953
0.0500876
0.0496451
0.0492582
0.0489191
0.0486203
0.0483551
0.0481163
0.0700314
0.0663834
0.0634214
0.0609857
0.0589593
0.0572554
0.0558117
0.0545829
0.0535323
0.0526301
0.0518523
0.0511796
0.050596
0.0500884
0.0496459
0.0492592
0.0489204
0.0486222
0.0483581
0.0481209
0.0700314
0.0663833
0.0634213
0.0609856
0.0589594
0.0572557
0.0558123
0.0545835
0.053533
0.0526308
0.0518531
0.0511804
0.0505969
0.0500893
0.0496469
0.0492603
0.0489216
0.0486239
0.0483604
0.0481241
0.0700314
0.0663833
0.0634212
0.0609856
0.0589595
0.0572561
0.0558129
0.0545842
0.0535337
0.0526316
0.051854
0.0511813
0.0505978
0.0500903
0.0496479
0.0492614
0.0489229
0.0486254
0.0483622
0.0481266
0.0700313
0.0663832
0.0634211
0.0609855
0.0589595
0.0572564
0.0558135
0.054585
0.0535346
0.0526326
0.051855
0.0511824
0.0505989
0.0500915
0.0496491
0.0492627
0.0489243
0.0486269
0.048364
0.0481287
0.0700313
0.0663832
0.063421
0.0609854
0.0589596
0.0572569
0.0558142
0.0545859
0.0535356
0.0526336
0.0518561
0.0511835
0.0506001
0.0500927
0.0496504
0.049264
0.0489257
0.0486284
0.0483656
0.0481305
0.0700312
0.0663831
0.0634209
0.0609853
0.0589597
0.0572573
0.055815
0.0545868
0.0535366
0.0526348
0.0518573
0.0511848
0.0506015
0.0500941
0.0496519
0.0492655
0.0489272
0.04863
0.0483673
0.0481324
0.0700312
0.066383
0.0634208
0.0609851
0.0589597
0.0572577
0.0558159
0.0545879
0.0535378
0.052636
0.0518586
0.0511862
0.050603
0.0500957
0.0496535
0.0492672
0.0489289
0.0486318
0.0483692
0.0481343
0.0700311
0.0663829
0.0634207
0.060985
0.0589597
0.0572582
0.0558168
0.0545891
0.0535391
0.0526374
0.0518601
0.0511878
0.0506046
0.0500974
0.0496552
0.049269
0.0489308
0.0486337
0.0483711
0.0481363
0.070031
0.0663828
0.0634205
0.0609849
0.0589598
0.0572587
0.0558177
0.0545903
0.0535405
0.052639
0.0518618
0.0511896
0.0506064
0.0500992
0.0496572
0.049271
0.0489328
0.0486358
0.0483732
0.0481384
0.070031
0.0663827
0.0634204
0.0609847
0.0589598
0.0572591
0.0558187
0.0545917
0.0535421
0.0526407
0.0518636
0.0511914
0.0506084
0.0501013
0.0496593
0.0492731
0.048935
0.048638
0.0483755
0.0481408
0.0700309
0.0663826
0.0634203
0.0609845
0.0589597
0.0572596
0.0558197
0.0545932
0.0535438
0.0526425
0.0518655
0.0511935
0.0506105
0.0501035
0.0496616
0.0492755
0.0489375
0.0486405
0.048378
0.0481433
0.0700308
0.0663825
0.0634201
0.0609844
0.0589597
0.05726
0.0558208
0.0545947
0.0535456
0.0526445
0.0518677
0.0511957
0.0506129
0.0501059
0.0496641
0.0492781
0.0489401
0.0486432
0.0483808
0.0481461
0.0700307
0.0663824
0.0634199
0.0609842
0.0589596
0.0572603
0.0558218
0.0545963
0.0535475
0.0526466
0.05187
0.0511982
0.0506154
0.0501086
0.0496668
0.0492809
0.0489429
0.0486461
0.0483837
0.0481491
0.0700306
0.0663823
0.0634198
0.060984
0.0589595
0.0572607
0.0558228
0.0545979
0.0535496
0.0526489
0.0518724
0.0512008
0.0506181
0.0501114
0.0496697
0.0492839
0.048946
0.0486492
0.0483869
0.0481523
0.0700305
0.0663822
0.0634196
0.0609838
0.0589594
0.0572609
0.0558238
0.0545996
0.0535517
0.0526514
0.0518751
0.0512036
0.0506211
0.0501145
0.0496729
0.0492871
0.0489493
0.0486526
0.0483903
0.0481558
0.0700304
0.0663821
0.0634195
0.0609836
0.0589593
0.0572611
0.0558247
0.0546012
0.0535539
0.052654
0.0518779
0.0512066
0.0506243
0.0501178
0.0496763
0.0492906
0.0489529
0.0486562
0.048394
0.0481595
0.0700303
0.0663819
0.0634193
0.0609834
0.0589591
0.0572613
0.0558254
0.0546028
0.0535562
0.0526567
0.0518809
0.0512098
0.0506276
0.0501213
0.0496799
0.0492944
0.0489568
0.0486602
0.048398
0.0481636
0.0700302
0.0663818
0.0634191
0.0609832
0.058959
0.0572614
0.0558261
0.0546042
0.0535583
0.0526594
0.051884
0.0512132
0.0506312
0.050125
0.0496838
0.0492984
0.0489609
0.0486644
0.0484023
0.0481679
0.0700301
0.0663817
0.063419
0.060983
0.0589588
0.0572615
0.0558267
0.0546055
0.0535604
0.0526621
0.0518872
0.0512167
0.050635
0.050129
0.0496879
0.0493026
0.0489652
0.0486688
0.0484069
0.0481726
0.07003
0.0663816
0.0634188
0.0609828
0.0589587
0.0572615
0.0558271
0.0546067
0.0535623
0.0526647
0.0518904
0.0512203
0.0506389
0.0501331
0.0496923
0.0493071
0.0489699
0.0486736
0.0484117
0.0481775
0.0700299
0.0663814
0.0634187
0.0609826
0.0589585
0.0572615
0.0558275
0.0546077
0.0535641
0.0526672
0.0518934
0.0512239
0.0506428
0.0501374
0.0496967
0.0493118
0.0489747
0.0486785
0.0484167
0.0481826
0.0700298
0.0663813
0.0634186
0.0609825
0.0589584
0.0572615
0.0558278
0.0546085
0.0535656
0.0526694
0.0518963
0.0512273
0.0506467
0.0501416
0.0497013
0.0493165
0.0489796
0.0486836
0.048422
0.048188
0.0700297
0.0663812
0.0634184
0.0609823
0.0589582
0.0572614
0.0558281
0.0546092
0.0535669
0.0526714
0.051899
0.0512305
0.0506504
0.0501457
0.0497057
0.0493213
0.0489846
0.0486887
0.0484273
0.0481934
0.0700296
0.0663811
0.0634183
0.0609822
0.0589581
0.0572614
0.0558283
0.0546098
0.053568
0.0526731
0.0519013
0.0512334
0.0506538
0.0501496
0.04971
0.0493258
0.0489894
0.0486938
0.0484325
0.0481987
0.0700295
0.066381
0.0634182
0.0609821
0.0589581
0.0572614
0.0558285
0.0546103
0.053569
0.0526746
0.0519034
0.0512361
0.050657
0.0501532
0.0497139
0.0493301
0.048994
0.0486986
0.0484375
0.0482039
0.0700294
0.0663809
0.0634181
0.060982
0.058958
0.0572615
0.0558287
0.0546108
0.0535698
0.0526759
0.0519052
0.0512384
0.0506598
0.0501564
0.0497176
0.0493341
0.0489983
0.0487032
0.0484422
0.0482088
0.0700293
0.0663808
0.063418
0.060982
0.058958
0.0572615
0.0558289
0.0546112
0.0535706
0.0526771
0.0519068
0.0512404
0.0506623
0.0501594
0.0497209
0.0493378
0.0490022
0.0487074
0.0484466
0.0482134
0.0700292
0.0663807
0.0634179
0.0609819
0.058958
0.0572616
0.0558291
0.0546117
0.0535714
0.0526782
0.0519083
0.0512423
0.0506645
0.050162
0.0497239
0.0493411
0.0490058
0.0487112
0.0484507
0.0482176
0.0700291
0.0663806
0.0634179
0.0609819
0.058958
0.0572618
0.0558294
0.0546121
0.0535721
0.0526792
0.0519096
0.051244
0.0506666
0.0501644
0.0497266
0.0493441
0.0490091
0.0487147
0.0484544
0.0482215
0.070029
0.0663805
0.0634178
0.0609819
0.0589581
0.0572619
0.0558297
0.0546126
0.0535728
0.0526802
0.0519109
0.0512456
0.0506685
0.0501666
0.0497291
0.0493469
0.0490121
0.0487179
0.0484577
0.048225
0.0700289
0.0663804
0.0634178
0.0609819
0.0589582
0.0572621
0.05583
0.0546131
0.0535735
0.0526811
0.0519121
0.051247
0.0506702
0.0501686
0.0497314
0.0493494
0.0490149
0.0487208
0.0484608
0.0482282
0.0700288
0.0663804
0.0634178
0.0609819
0.0589583
0.0572623
0.0558304
0.0546136
0.0535742
0.052682
0.0519132
0.0512484
0.0506719
0.0501705
0.0497335
0.0493517
0.0490174
0.0487235
0.0484637
0.0482312
0.0700287
0.0663803
0.0634177
0.060982
0.0589584
0.0572626
0.0558307
0.0546141
0.0535749
0.0526829
0.0519143
0.0512498
0.0506734
0.0501723
0.0497355
0.0493539
0.0490197
0.048726
0.0484663
0.0482339
0.0700286
0.0663802
0.0634177
0.060982
0.0589586
0.0572628
0.0558311
0.0546147
0.0535755
0.0526838
0.0519154
0.051251
0.0506749
0.0501739
0.0497373
0.0493559
0.0490219
0.0487283
0.0484687
0.0482364
0.0700285
0.0663802
0.0634177
0.0609821
0.0589587
0.057263
0.0558315
0.0546152
0.0535762
0.0526846
0.0519164
0.0512522
0.0506763
0.0501755
0.049739
0.0493578
0.0490239
0.0487304
0.0484709
0.0482387
0.0700284
0.0663801
0.0634177
0.0609822
0.0589589
0.0572633
0.0558318
0.0546157
0.0535769
0.0526854
0.0519174
0.0512534
0.0506776
0.0501769
0.0497406
0.0493595
0.0490257
0.0487324
0.0484729
0.0482409
0.0700284
0.0663801
0.0634177
0.0609822
0.058959
0.0572636
0.0558322
0.0546162
0.0535775
0.0526862
0.0519183
0.0512544
0.0506788
0.0501783
0.0497421
0.0493611
0.0490274
0.0487342
0.0484748
0.0482428
0.0700283
0.0663801
0.0634177
0.0609823
0.0589592
0.0572638
0.0558326
0.0546167
0.0535781
0.052687
0.0519192
0.0512554
0.0506799
0.0501795
0.0497435
0.0493626
0.049029
0.0487358
0.0484765
0.0482446
0.0700282
0.06638
0.0634178
0.0609824
0.0589593
0.0572641
0.0558329
0.0546171
0.0535787
0.0526877
0.05192
0.0512564
0.050681
0.0501807
0.0497447
0.0493639
0.0490304
0.0487373
0.0484781
0.0482462
0.0700282
0.06638
0.0634178
0.0609825
0.0589595
0.0572643
0.0558333
0.0546176
0.0535793
0.0526883
0.0519208
0.0512573
0.0506819
0.0501817
0.0497459
0.0493651
0.0490317
0.0487387
0.0484795
0.0482476
0.0700281
0.06638
0.0634178
0.0609826
0.0589597
0.0572646
0.0558336
0.054618
0.0535798
0.0526889
0.0519215
0.0512581
0.0506828
0.0501827
0.0497469
0.0493663
0.0490329
0.0487399
0.0484808
0.048249
0.0700281
0.06638
0.0634178
0.0609826
0.0589598
0.0572648
0.0558339
0.0546184
0.0535803
0.0526895
0.0519222
0.0512588
0.0506837
0.0501836
0.0497479
0.0493673
0.049034
0.0487411
0.048482
0.0482502
0.070028
0.0663799
0.0634179
0.0609827
0.05896
0.057265
0.0558342
0.0546188
0.0535807
0.0526901
0.0519228
0.0512595
0.0506844
0.0501844
0.0497488
0.0493682
0.049035
0.0487421
0.048483
0.0482513
0.070028
0.0663799
0.0634179
0.0609828
0.0589601
0.0572652
0.0558345
0.0546191
0.0535812
0.0526906
0.0519233
0.0512601
0.0506851
0.0501852
0.0497496
0.0493691
0.0490359
0.048743
0.048484
0.0482523
0.0700279
0.0663799
0.0634179
0.0609829
0.0589602
0.0572654
0.0558348
0.0546195
0.0535816
0.052691
0.0519239
0.0512607
0.0506857
0.0501859
0.0497503
0.0493699
0.0490367
0.0487439
0.0484848
0.0482531
0.0700279
0.0663799
0.0634179
0.060983
0.0589604
0.0572656
0.055835
0.0546198
0.0535819
0.0526914
0.0519243
0.0512612
0.0506863
0.0501865
0.049751
0.0493706
0.0490374
0.0487446
0.0484856
0.0482539
0.0700278
0.0663799
0.063418
0.060983
0.0589605
0.0572658
0.0558352
0.05462
0.0535822
0.0526918
0.0519248
0.0512617
0.0506868
0.050187
0.0497516
0.0493712
0.0490381
0.0487453
0.0484863
0.0482547
0.0700278
0.0663799
0.063418
0.0609831
0.0589606
0.0572659
0.0558354
0.0546203
0.0535825
0.0526922
0.0519251
0.0512621
0.0506873
0.0501876
0.0497521
0.0493717
0.0490387
0.0487459
0.0484869
0.0482553
0.0700278
0.0663799
0.063418
0.0609831
0.0589607
0.0572661
0.0558356
0.0546205
0.0535828
0.0526925
0.0519255
0.0512625
0.0506877
0.050188
0.0497526
0.0493722
0.0490392
0.0487464
0.0484875
0.0482559
0.0700278
0.0663799
0.063418
0.0609832
0.0589608
0.0572662
0.0558358
0.0546207
0.0535831
0.0526928
0.0519258
0.0512629
0.0506881
0.0501884
0.049753
0.0493727
0.0490397
0.0487469
0.048488
0.0482564
0.0700277
0.0663799
0.063418
0.0609833
0.0589609
0.0572663
0.0558359
0.0546209
0.0535833
0.052693
0.0519261
0.0512632
0.0506884
0.0501888
0.0497534
0.0493731
0.0490401
0.0487474
0.0484885
0.0482568
0.0700277
0.0663798
0.0634181
0.0609833
0.0589609
0.0572664
0.0558361
0.0546211
0.0535835
0.0526932
0.0519264
0.0512635
0.0506887
0.0501891
0.0497537
0.0493735
0.0490405
0.0487477
0.0484889
0.0482573
0.0700277
0.0663798
0.0634181
0.0609834
0.058961
0.0572665
0.0558362
0.0546213
0.0535837
0.0526935
0.0519266
0.0512637
0.050689
0.0501894
0.049754
0.0493738
0.0490408
0.0487481
0.0484892
0.0482576
0.0700277
0.0663798
0.0634181
0.0609834
0.0589611
0.0572666
0.0558363
0.0546214
0.0535838
0.0526936
0.0519268
0.0512639
0.0506892
0.0501897
0.0497543
0.0493741
0.0490411
0.0487484
0.0484895
0.0482579
0.0700277
0.0663798
0.0634181
0.0609834
0.0589612
0.0572667
0.0558364
0.0546215
0.053584
0.0526938
0.051927
0.0512642
0.0506895
0.0501899
0.0497545
0.0493743
0.0490413
0.0487487
0.0484898
0.0482582
0.0700276
0.0663798
0.0634181
0.0609835
0.0589612
0.0572668
0.0558365
0.0546216
0.0535841
0.052694
0.0519272
0.0512643
0.0506897
0.0501901
0.0497548
0.0493745
0.0490416
0.0487489
0.04849
0.0482585
0.0700276
0.0663798
0.0634182
0.0609835
0.0589613
0.0572669
0.0558366
0.0546218
0.0535842
0.0526941
0.0519273
0.0512645
0.0506898
0.0501903
0.049755
0.0493747
0.0490418
0.0487491
0.0484903
0.0482587
0.0700276
0.0663798
0.0634182
0.0609835
0.0589613
0.0572669
0.0558367
0.0546218
0.0535844
0.0526942
0.0519274
0.0512646
0.05069
0.0501904
0.0497551
0.0493749
0.049042
0.0487493
0.0484905
0.0482589
0.0700276
0.0663798
0.0634182
0.0609836
0.0589613
0.057267
0.0558368
0.0546219
0.0535844
0.0526943
0.0519276
0.0512648
0.0506901
0.0501906
0.0497553
0.0493751
0.0490421
0.0487495
0.0484906
0.0482591
0.0700276
0.0663798
0.0634182
0.0609836
0.0589614
0.057267
0.0558368
0.054622
0.0535845
0.0526944
0.0519277
0.0512649
0.0506902
0.0501907
0.0497554
0.0493752
0.0490423
0.0487496
0.0484908
0.0482592
0.0700276
0.0663798
0.0634182
0.0609836
0.0589614
0.0572671
0.0558369
0.0546221
0.0535846
0.0526945
0.0519277
0.051265
0.0506903
0.0501908
0.0497555
0.0493753
0.0490424
0.0487498
0.0484909
0.0482594
0.0700276
0.0663798
0.0634182
0.0609836
0.0589614
0.0572671
0.0558369
0.0546221
0.0535847
0.0526946
0.0519278
0.0512651
0.0506904
0.0501909
0.0497556
0.0493754
0.0490425
0.0487499
0.048491
0.0482595
0.0700276
0.0663798
0.0634182
0.0609836
0.0589615
0.0572671
0.055837
0.0546222
0.0535847
0.0526946
0.0519279
0.0512651
0.0506905
0.050191
0.0497557
0.0493755
0.0490426
0.04875
0.0484911
0.0482596
0.0700276
0.0663798
0.0634182
0.0609837
0.0589615
0.0572672
0.055837
0.0546222
0.0535848
0.0526947
0.051928
0.0512652
0.0506906
0.0501911
0.0497558
0.0493756
0.0490427
0.0487501
0.0484912
0.0482597
0.0700275
0.0663798
0.0634182
0.0609837
0.0589615
0.0572672
0.0558371
0.0546223
0.0535848
0.0526947
0.051928
0.0512653
0.0506907
0.0501911
0.0497559
0.0493757
0.0490428
0.0487501
0.0484913
0.0482597
0.0700275
0.0663798
0.0634182
0.0609837
0.0589615
0.0572672
0.0558371
0.0546223
0.0535849
0.0526948
0.0519281
0.0512653
0.0506907
0.0501912
0.0497559
0.0493758
0.0490428
0.0487502
0.0484914
0.0482598
0.0700275
0.0663798
0.0634182
0.0609837
0.0589615
0.0572672
0.0558371
0.0546223
0.0535849
0.0526948
0.0519281
0.0512654
0.0506908
0.0501912
0.049756
0.0493758
0.0490429
0.0487503
0.0484914
0.0482599
0.0700275
0.0663798
0.0634182
0.0609837
0.0589616
0.0572673
0.0558371
0.0546224
0.0535849
0.0526949
0.0519281
0.0512654
0.0506908
0.0501913
0.049756
0.0493759
0.0490429
0.0487503
0.0484915
0.0482599
0.0700275
0.0663798
0.0634183
0.0609837
0.0589616
0.0572673
0.0558372
0.0546224
0.053585
0.0526949
0.0519282
0.0512654
0.0506908
0.0501913
0.0497561
0.0493759
0.049043
0.0487503
0.0484915
0.04826
0.0700275
0.0663798
0.0634183
0.0609837
0.0589616
0.0572673
0.0558372
0.0546224
0.053585
0.0526949
0.0519282
0.0512655
0.0506909
0.0501914
0.0497561
0.0493759
0.049043
0.0487504
0.0484915
0.04826
0.0700275
0.0663798
0.0634183
0.0609837
0.0589616
0.0572673
0.0558372
0.0546224
0.053585
0.0526949
0.0519282
0.0512655
0.0506909
0.0501914
0.0497561
0.049376
0.049043
0.0487504
0.0484916
0.04826
0.0700275
0.0663798
0.0634183
0.0609837
0.0589616
0.0572673
0.0558372
0.0546224
0.053585
0.052695
0.0519283
0.0512655
0.0506909
0.0501914
0.0497562
0.049376
0.0490431
0.0487504
0.0484916
0.0482601
0.0700275
0.0663798
0.0634183
0.0609837
0.0589616
0.0572673
0.0558372
0.0546224
0.053585
0.052695
0.0519283
0.0512655
0.0506909
0.0501914
0.0497562
0.049376
0.0490431
0.0487505
0.0484916
0.0482601
0.0700275
0.0663798
0.0634183
0.0609837
0.0589616
0.0572673
0.0558372
0.0546225
0.0535851
0.052695
0.0519283
0.0512655
0.050691
0.0501915
0.0497562
0.049376
0.0490431
0.0487505
0.0484917
0.0482601
0.0700275
0.0663798
0.0634183
0.0609837
0.0589616
0.0572673
0.0558372
0.0546225
0.0535851
0.052695
0.0519283
0.0512656
0.050691
0.0501915
0.0497562
0.049376
0.0490431
0.0487505
0.0484917
0.0482601
0.0700275
0.0663798
0.0634183
0.0609837
0.0589616
0.0572674
0.0558372
0.0546225
0.0535851
0.052695
0.0519283
0.0512656
0.050691
0.0501915
0.0497562
0.0493761
0.0490431
0.0487505
0.0484917
0.0482601
0.0700275
0.0663798
0.0634183
0.0609838
0.0589616
0.0572674
0.0558372
0.0546225
0.0535851
0.052695
0.0519283
0.0512656
0.050691
0.0501915
0.0497562
0.0493761
0.0490432
0.0487505
0.0484917
0.0482602
0.0700275
0.0663798
0.0634183
0.0609838
0.0589616
0.0572674
0.0558373
0.0546225
0.0535851
0.052695
0.0519283
0.0512656
0.050691
0.0501915
0.0497562
0.0493761
0.0490432
0.0487505
0.0484917
0.0482602
0.0700275
0.0663798
0.0634183
0.0609838
0.0589616
0.0572674
0.0558373
0.0546225
0.0535851
0.052695
0.0519283
0.0512656
0.050691
0.0501915
0.0497563
0.0493761
0.0490432
0.0487506
0.0484917
0.0482602
0.0700275
0.0663798
0.0634183
0.0609838
0.0589617
0.0572674
0.0558373
0.0546225
0.0535851
0.052695
0.0519283
0.0512656
0.050691
0.0501915
0.0497563
0.0493761
0.0490432
0.0487506
0.0484917
0.0482602
0.0700275
0.0663798
0.0634183
0.0609838
0.0589617
0.0572674
0.0558373
0.0546225
0.0535851
0.0526951
0.0519284
0.0512656
0.050691
0.0501915
0.0497563
0.0493761
0.0490432
0.0487506
0.0484917
0.0482602
0.0700275
0.0663798
0.0634183
0.0609838
0.0589617
0.0572674
0.0558373
0.0546225
0.0535851
0.0526951
0.0519284
0.0512656
0.050691
0.0501915
0.0497563
0.0493761
0.0490432
0.0487506
0.0484917
0.0482602
0.0700275
0.0663798
0.0634183
0.0609838
0.0589617
0.0572674
0.0558373
0.0546225
0.0535851
0.0526951
0.0519284
0.0512656
0.050691
0.0501916
0.0497563
0.0493761
0.0490432
0.0487506
0.0484918
0.0482602
0.0700275
0.0663798
0.0634183
0.0609838
0.0589617
0.0572674
0.0558373
0.0546225
0.0535851
0.0526951
0.0519284
0.0512656
0.0506911
0.0501916
0.0497563
0.0493761
0.0490432
0.0487506
0.0484918
0.0482602
0.0700275
0.0663798
0.0634183
0.0609838
0.0589617
0.0572674
0.0558373
0.0546225
0.0535851
0.0526951
0.0519284
0.0512657
0.0506911
0.0501916
0.0497563
0.0493762
0.0490432
0.0487506
0.0484918
0.0482602
0.0700275
0.0663798
0.0634183
0.0609838
0.0589617
0.0572674
0.0558373
0.0546226
0.0535852
0.0526951
0.0519284
0.0512657
0.0506911
0.0501916
0.0497563
0.0493762
0.0490433
0.0487506
0.0484918
0.0482603
0.0700275
0.0663798
0.0634183
0.0609838
0.0589617
0.0572674
0.0558373
0.0546226
0.0535852
0.0526951
0.0519284
0.0512657
0.0506911
0.0501916
0.0497564
0.0493762
0.0490433
0.0487507
0.0484918
0.0482603
0.0700275
0.0663798
0.0634183
0.0609838
0.0589617
0.0572674
0.0558373
0.0546226
0.0535852
0.0526951
0.0519285
0.0512657
0.0506911
0.0501917
0.0497564
0.0493762
0.0490433
0.0487507
0.0484919
0.0482603
0.0700275
0.0663798
0.0634183
0.0609838
0.0589617
0.0572674
0.0558374
0.0546226
0.0535852
0.0526952
0.0519285
0.0512658
0.0506912
0.0501917
0.0497564
0.0493763
0.0490434
0.0487508
0.0484919
0.0482604
0.0700275
0.0663798
0.0634183
0.0609838
0.0589617
0.0572675
0.0558374
0.0546227
0.0535853
0.0526952
0.0519286
0.0512658
0.0506913
0.0501918
0.0497565
0.0493764
0.0490435
0.0487508
0.048492
0.0482605
0.0413887
0.0363445
0.0323523
0.0291374
0.0265107
0.0243369
0.022517
0.0209773
0.019662
0.0185281
0.0175423
0.0166786
0.0159162
0.0152386
0.0146323
0.0140866
0.0135924
0.0131426
0.0127311
0.0123528
0.0120035
0.0116796
0.0113783
0.0110969
0.0108333
0.0105855
0.0103521
0.0101317
0.00992294
0.0097249
0.00953667
0.00935741
0.00918645
0.00902313
0.00886693
0.00871731
0.00857388
0.00843618
0.00830391
0.00817667
0.00805426
0.00793628
0.00782264
0.00771293
0.00760715
0.00750485
0.00740616
0.00731057
0.0072183
0.00712878
0.00704237
0.00695837
0.00687734
0.00679837
0.00672228
0.00664792
0.00657641
0.00650627
0.00643903
0.00637276
0.00630952
0.00624681
0.00618737
0.00612794
0.00607215
0.00601575
0.0059635
0.00590992
0.0058612
0.00581025
0.00576514
0.00571666
0.00567534
0.00562921
0.005592
0.0055481
0.00551549
0.00547361
0.0054463
0.00540589
0.0464617
0.0448889
0.0432011
0.0414941
0.0398155
0.038191
0.0366342
0.0351518
0.0337457
0.0324153
0.0311583
0.0299715
0.0288511
0.027793
0.0267932
0.0258479
0.0249532
0.0241055
0.0233016
0.0225384
0.021813
0.0211227
0.0204651
0.0198381
0.0192395
0.0186676
0.0181205
0.0175968
0.0170951
0.0166139
0.0161522
0.0157088
0.0152826
0.0148729
0.0144787
0.0140992
0.0137337
0.0133817
0.0130423
0.0127151
0.0123994
0.012095
0.0118012
0.0115178
0.0112441
0.01098
0.0107249
0.0104789
0.0102412
0.010012
0.00979054
0.00957721
0.00937098
0.00917258
0.00898075
0.0087965
0.00861831
0.00844753
0.00828233
0.00812444
0.00797162
0.00782612
0.00768519
0.00755166
0.00742217
0.00730029
0.00718189
0.00707142
0.0069638
0.00686464
0.00676757
0.00667976
0.00659305
0.00651685
0.00644028
0.00637626
0.00630941
0.00625876
0.00620074
0.00616454
0.0472859
0.0465469
0.0456817
0.0447297
0.0437193
0.0426717
0.0416028
0.040525
0.0394478
0.0383786
0.0373229
0.0362849
0.0352678
0.0342737
0.0333042
0.0323604
0.0314427
0.0305513
0.0296863
0.0288474
0.0280341
0.027246
0.0264824
0.0257426
0.025026
0.0243318
0.0236594
0.0230079
0.0223766
0.0217649
0.021172
0.0205973
0.0200401
0.0194998
0.0189758
0.0184675
0.0179744
0.0174961
0.0170318
0.0165813
0.016144
0.0157196
0.0153075
0.0149076
0.0145192
0.0141423
0.0137762
0.013421
0.013076
0.0127413
0.0124163
0.0121011
0.0117951
0.0114985
0.0112105
0.0109317
0.0106611
0.0103994
0.0101454
0.00990017
0.00966227
0.00943313
0.00921086
0.00899744
0.00879046
0.00859255
0.00840066
0.00821824
0.00804139
0.00787462
0.00771293
0.00756219
0.00741597
0.00728194
0.00715165
0.00703534
0.00692157
0.00682435
0.00672771
0.00665099
0.047563
0.0470856
0.0465277
0.0459011
0.0452173
0.0444869
0.043719
0.0429215
0.0421015
0.0412648
0.0404168
0.0395618
0.0387038
0.0378462
0.0369917
0.0361427
0.0353013
0.0344691
0.0336476
0.032838
0.0320411
0.0312577
0.0304883
0.0297335
0.0289936
0.0282686
0.0275589
0.0268644
0.026185
0.0255209
0.0248718
0.0242376
0.0236181
0.0230132
0.0224226
0.0218462
0.0212836
0.0207346
0.020199
0.0196766
0.019167
0.0186701
0.0181855
0.0177132
0.0172527
0.0168039
0.0163665
0.0159404
0.0155252
0.0151209
0.0147271
0.0143438
0.0139706
0.0136076
0.0132543
0.012911
0.012577
0.0122527
0.0119375
0.0116318
0.0113349
0.0110475
0.0107685
0.0104992
0.0102379
0.00998664
0.00974315
0.00951
0.00928444
0.00906984
0.00886264
0.00866727
0.00847915
0.00830406
0.00813602
0.00798258
0.0078359
0.00770585
0.00758206
0.00747739
0.0476987
0.0473315
0.0469129
0.046445
0.0459319
0.045378
0.0447879
0.0441661
0.0435168
0.0428439
0.0421511
0.0414418
0.040719
0.0399856
0.0392443
0.0384973
0.0377469
0.0369949
0.0362432
0.0354932
0.0347464
0.034004
0.0332671
0.0325368
0.0318137
0.0310988
0.0303926
0.0296957
0.0290085
0.0283315
0.027665
0.0270093
0.0263646
0.0257311
0.0251088
0.024498
0.0238986
0.0233108
0.0227345
0.0221697
0.0216163
0.0210745
0.020544
0.0200248
0.0195168
0.01902
0.0185343
0.0180595
0.0175955
0.0171423
0.0166997
0.0162678
0.0158461
0.0154349
0.0150338
0.0146431
0.0142622
0.0138915
0.0135305
0.0131796
0.0128382
0.012507
0.0121851
0.0118735
0.0115712
0.0112794
0.0109967
0.0107251
0.0104626
0.0102117
0.0099701
0.00974102
0.00952135
0.00931542
0.00911915
0.00893814
0.00876709
0.00861307
0.00846939
0.00834502
0.0477759
0.0474649
0.0471196
0.0467393
0.0463242
0.0458759
0.0453964
0.044888
0.0443529
0.0437936
0.0432123
0.0426115
0.0419932
0.0413597
0.0407129
0.0400548
0.0393872
0.0387118
0.0380303
0.0373442
0.0366549
0.0359637
0.0352718
0.0345805
0.0338907
0.0332034
0.0325195
0.0318398
0.0311651
0.0304959
0.029833
0.0291769
0.0285279
0.0278867
0.0272536
0.0266289
0.0260129
0.0254059
0.0248081
0.0242198
0.023641
0.023072
0.0225129
0.0219637
0.0214246
0.0208955
0.0203766
0.019868
0.0193695
0.0188812
0.0184031
0.0179353
0.0174777
0.0170303
0.016593
0.0161661
0.0157491
0.0153425
0.0149458
0.0145596
0.0141833
0.0138175
0.0134616
0.0131164
0.0127813
0.0124571
0.0121431
0.0118407
0.0115485
0.0112686
0.0109994
0.0107434
0.0104985
0.010268
0.0100493
0.00984659
0.00965632
0.00948374
0.00932453
0.00918542
0.0478225
0.0475429
0.0472401
0.0469118
0.0465572
0.0461762
0.0457691
0.045337
0.0448808
0.044402
0.0439018
0.0433818
0.0428433
0.0422879
0.0417171
0.0411323
0.0405349
0.0399264
0.0393081
0.0386813
0.0380472
0.0374072
0.0367623
0.0361137
0.0354624
0.0348095
0.0341558
0.0335023
0.0328499
0.0321993
0.0315512
0.0309063
0.0302654
0.0296289
0.0289975
0.0283717
0.0277519
0.0271385
0.026532
0.0259327
0.0253409
0.024757
0.0241813
0.0236139
0.023055
0.022505
0.0219639
0.0214319
0.0209092
0.0203959
0.019892
0.0193978
0.0189132
0.0184385
0.0179735
0.0175185
0.0170735
0.0166386
0.0162137
0.0157992
0.0153949
0.0150011
0.0146176
0.0142451
0.0138831
0.0135324
0.0131926
0.0128647
0.012548
0.0122441
0.0119519
0.0116736
0.0114077
0.0111571
0.0109197
0.0106992
0.010493
0.0103054
0.0101334
0.00998262
0.0478512
0.0475902
0.0473127
0.0470168
0.046701
0.0463643
0.0460064
0.0456273
0.0452272
0.0448068
0.0443666
0.0439075
0.0434305
0.0429364
0.0424263
0.0419012
0.0413622
0.0408103
0.0402466
0.0396723
0.0390883
0.0384956
0.0378954
0.0372885
0.036676
0.0360589
0.035438
0.0348142
0.0341884
0.0335614
0.0329339
0.0323068
0.0316808
0.0310564
0.0304345
0.0298155
0.0292001
0.0285887
0.027982
0.0273803
0.0267842
0.026194
0.0256101
0.0250329
0.0244628
0.0239
0.0233448
0.0227975
0.0222583
0.0217275
0.0212053
0.0206918
0.0201873
0.019692
0.0192059
0.0187294
0.0182624
0.0178052
0.0173579
0.0169207
0.0164936
0.0160771
0.0156711
0.015276
0.0148917
0.014519
0.0141575
0.0138082
0.0134709
0.0131467
0.0128351
0.0125379
0.0122543
0.0119864
0.0117332
0.0114976
0.0112779
0.0110775
0.0108946
0.0107341
0.047869
0.0476191
0.0473572
0.0470816
0.0467909
0.0464839
0.0461598
0.0458181
0.0454585
0.045081
0.0446859
0.0442734
0.0438441
0.0433984
0.0429369
0.0424605
0.0419697
0.0414654
0.0409484
0.0404196
0.0398797
0.0393295
0.0387701
0.0382021
0.0376265
0.0370441
0.0364558
0.0358623
0.0352645
0.0346632
0.0340591
0.033453
0.0328456
0.0322376
0.0316297
0.0310226
0.0304168
0.029813
0.0292118
0.0286136
0.0280191
0.0274287
0.0268429
0.0262622
0.0256869
0.0251175
0.0245543
0.0239978
0.0234481
0.0229058
0.022371
0.021844
0.0213251
0.0208146
0.0203127
0.0198197
0.0193357
0.0188611
0.018396
0.0179407
0.0174953
0.0170602
0.0166356
0.0162218
0.015819
0.0154278
0.0150481
0.0146808
0.0143258
0.0139844
0.0136562
0.0133427
0.0130437
0.012761
0.0124941
0.0122453
0.0120138
0.0118022
0.0116097
0.0114409
0.0478803
0.047637
0.0473845
0.0471216
0.0468471
0.0465599
0.046259
0.0459436
0.0456133
0.0452676
0.0449064
0.0445297
0.0441375
0.0437301
0.0433078
0.042871
0.0424202
0.0419558
0.0414784
0.0409887
0.0404872
0.0399747
0.0394518
0.0389193
0.0383778
0.037828
0.0372708
0.0367068
0.0361368
0.0355615
0.0349816
0.0343978
0.0338109
0.0332215
0.0326303
0.032038
0.0314452
0.0308525
0.0302606
0.02967
0.0290814
0.0284952
0.0279119
0.0273322
0.0267564
0.0261851
0.0256186
0.0250575
0.0245021
0.0239528
0.02341
0.0228741
0.0223453
0.021824
0.0213106
0.0208053
0.0203085
0.0198204
0.0193413
0.0188717
0.0184116
0.0179615
0.0175216
0.0170925
0.0166742
0.0162674
0.0158723
0.0154898
0.0151198
0.0147634
0.0144208
0.0140933
0.0137808
0.0134852
0.0132061
0.0129457
0.0127036
0.0124821
0.0122809
0.0121045
0.0478874
0.0476481
0.0474013
0.0471463
0.0468822
0.0466079
0.0463227
0.0460257
0.0457162
0.0453938
0.045058
0.0447085
0.0443452
0.0439681
0.0435772
0.0431726
0.0427546
0.0423235
0.0418797
0.0414235
0.0409553
0.0404758
0.0399854
0.0394846
0.0389741
0.0384545
0.0379263
0.0373903
0.0368469
0.036297
0.0357411
0.0351799
0.0346141
0.0340444
0.0334712
0.0328954
0.0323176
0.0317383
0.0311582
0.0305779
0.029998
0.0294191
0.0288417
0.0282663
0.0276935
0.0271238
0.0265577
0.0259957
0.0254382
0.0248857
0.0243386
0.0237973
0.0232623
0.0227338
0.0222124
0.0216984
0.0211921
0.0206939
0.0202041
0.0197232
0.0192515
0.0187893
0.0183371
0.0178953
0.0174642
0.0170445
0.0166365
0.0162409
0.015858
0.0154888
0.0151337
0.0147939
0.0144696
0.0141624
0.0138724
0.0136016
0.0133499
0.0131194
0.0129101
0.0127266
0.0478922
0.0476551
0.0474118
0.0471616
0.0469039
0.046638
0.0463631
0.0460786
0.0457838
0.045478
0.0451609
0.0448319
0.0444908
0.0441373
0.0437713
0.0433927
0.0430017
0.0425982
0.0421825
0.0417548
0.0413153
0.0408645
0.0404026
0.0399302
0.0394476
0.0389553
0.0384539
0.0379438
0.0374256
0.0368999
0.0363672
0.0358282
0.0352834
0.0347335
0.034179
0.0336205
0.0330587
0.0324942
0.0319275
0.0313593
0.0307902
0.0302207
0.0296514
0.0290828
0.0285156
0.0279503
0.0273873
0.0268272
0.0262705
0.0257178
0.0251693