/*--------------------------------*- C++ -*----------------------------------*\
| =========                 |                                                 |
| \\      /  F ield         | OpenFOAM: The Open Source CFD Toolbox           |
|  \\    /   O peration     | Version:  2.4.0                                 |
|   \\  /    A nd           | Web:      www.OpenFOAM.org                      |
|    \\/     M anipulation  |                                                 |
\*---------------------------------------------------------------------------*/
FoamFile
{
    version     2.0;
    format      ascii;
    class       volScalarField;
    location    "0.36";
    object      nut;
}
// * * * * * * * * * * * * * * * * * * * * * * * * * * * * * * * * * * * * * //

dimensions      [0 2 -1 0 0 0 0];

internalField   nonuniform List<scalar> 
6000
(
2.40581e-05
2.70589e-05
2.95828e-05
3.16183e-05
3.31911e-05
3.43497e-05
3.5154e-05
3.56671e-05
3.59506e-05
3.60609e-05
3.6047e-05
3.59505e-05
3.58051e-05
3.56369e-05
3.54652e-05
3.53019e-05
3.51532e-05
3.50204e-05
3.49021e-05
3.4796e-05
3.46998e-05
3.46123e-05
3.45333e-05
3.4463e-05
3.44021e-05
3.43509e-05
3.43095e-05
3.42772e-05
3.42532e-05
3.4236e-05
3.42241e-05
3.42159e-05
3.42102e-05
3.42057e-05
3.42017e-05
3.41975e-05
3.41927e-05
3.41867e-05
3.41793e-05
3.41698e-05
3.41577e-05
3.41422e-05
3.41222e-05
3.40965e-05
3.40634e-05
3.40207e-05
3.39657e-05
3.38945e-05
3.38026e-05
3.36834e-05
3.35288e-05
3.33274e-05
3.30641e-05
3.27174e-05
3.22573e-05
3.16374e-05
3.07958e-05
2.96069e-05
2.80297e-05
2.54124e-05
4.52336e-05
3.94811e-05
3.46739e-05
3.09943e-05
2.83855e-05
2.66592e-05
2.56042e-05
2.5048e-05
2.48653e-05
2.49667e-05
2.52861e-05
2.57703e-05
2.63724e-05
2.70466e-05
2.7748e-05
2.84334e-05
2.90652e-05
2.96153e-05
3.00663e-05
3.04106e-05
3.0648e-05
3.07828e-05
3.0822e-05
3.0776e-05
3.06588e-05
3.04888e-05
3.02868e-05
3.00742e-05
2.98694e-05
2.96862e-05
2.95324e-05
2.94104e-05
2.93185e-05
2.92523e-05
2.92066e-05
2.91764e-05
2.91573e-05
2.91461e-05
2.91407e-05
2.91397e-05
2.91425e-05
2.91487e-05
2.91586e-05
2.91728e-05
2.91922e-05
2.92185e-05
2.92538e-05
2.93013e-05
2.93656e-05
2.94536e-05
2.95751e-05
2.97452e-05
2.99868e-05
3.03365e-05
3.08545e-05
3.1644e-05
3.28943e-05
3.49587e-05
3.83374e-05
4.65964e-05
4.98371e-05
4.8695e-05
4.71852e-05
4.52937e-05
4.30852e-05
4.06998e-05
3.82879e-05
3.59709e-05
3.38316e-05
3.19176e-05
3.0249e-05
2.88274e-05
2.7642e-05
2.66738e-05
2.58986e-05
2.5289e-05
2.48169e-05
2.44555e-05
2.41814e-05
2.3976e-05
2.3826e-05
2.37227e-05
2.36605e-05
2.36347e-05
2.36401e-05
2.36697e-05
2.37147e-05
2.37652e-05
2.38115e-05
2.38462e-05
2.3865e-05
2.38675e-05
2.38561e-05
2.38351e-05
2.3809e-05
2.37812e-05
2.37538e-05
2.37275e-05
2.37021e-05
2.36765e-05
2.36491e-05
2.36184e-05
2.35821e-05
2.35381e-05
2.34837e-05
2.34159e-05
2.33311e-05
2.32255e-05
2.30948e-05
2.29347e-05
2.27419e-05
2.25154e-05
2.22594e-05
2.19888e-05
2.17398e-05
2.15943e-05
2.17223e-05
2.24969e-05
2.46348e-05
3.00863e-05
5.00841e-05
4.95483e-05
4.89993e-05
4.84048e-05
4.77345e-05
4.69685e-05
4.61006e-05
4.51365e-05
4.40922e-05
4.29904e-05
4.18571e-05
4.07176e-05
3.95947e-05
3.85065e-05
3.7466e-05
3.64812e-05
3.55566e-05
3.46946e-05
3.38979e-05
3.31704e-05
3.25186e-05
3.19519e-05
3.14819e-05
3.11203e-05
3.08759e-05
3.07506e-05
3.0736e-05
3.08133e-05
3.09553e-05
3.11309e-05
3.1311e-05
3.14731e-05
3.16039e-05
3.1699e-05
3.17607e-05
3.17946e-05
3.18072e-05
3.18039e-05
3.17883e-05
3.17622e-05
3.17255e-05
3.16769e-05
3.1614e-05
3.1533e-05
3.1429e-05
3.12954e-05
3.11237e-05
3.09032e-05
3.062e-05
3.02564e-05
2.97901e-05
2.91929e-05
2.84306e-05
2.74629e-05
2.62464e-05
2.47582e-05
2.30133e-05
2.13101e-05
2.01424e-05
2.1358e-05
5.00958e-05
4.96032e-05
4.91474e-05
4.87184e-05
4.83057e-05
4.78992e-05
4.74898e-05
4.70694e-05
4.66322e-05
4.61752e-05
4.56975e-05
4.52013e-05
4.46902e-05
4.41695e-05
4.36449e-05
4.31226e-05
4.26086e-05
4.21094e-05
4.16316e-05
4.11833e-05
4.07735e-05
4.04128e-05
4.0113e-05
3.98863e-05
3.97432e-05
3.96896e-05
3.9724e-05
3.9836e-05
4.00072e-05
4.0214e-05
4.0432e-05
4.06406e-05
4.08248e-05
4.09769e-05
4.1095e-05
4.11815e-05
4.12408e-05
4.12779e-05
4.1297e-05
4.13014e-05
4.12931e-05
4.12728e-05
4.12401e-05
4.11937e-05
4.11306e-05
4.10469e-05
4.09366e-05
4.07916e-05
4.06004e-05
4.03472e-05
4.00092e-05
3.95537e-05
3.89319e-05
3.80701e-05
3.68524e-05
3.51075e-05
3.25562e-05
2.90748e-05
2.44272e-05
2.1253e-05
5.00963e-05
4.96062e-05
4.91573e-05
4.87436e-05
4.83595e-05
4.80003e-05
4.76613e-05
4.73384e-05
4.70275e-05
4.67252e-05
4.64289e-05
4.61365e-05
4.58468e-05
4.55595e-05
4.52755e-05
4.49964e-05
4.47251e-05
4.44654e-05
4.42225e-05
4.40023e-05
4.38118e-05
4.36581e-05
4.35484e-05
4.34888e-05
4.34837e-05
4.35341e-05
4.36367e-05
4.37837e-05
4.3963e-05
4.41603e-05
4.43608e-05
4.45515e-05
4.4723e-05
4.48698e-05
4.49899e-05
4.50842e-05
4.51554e-05
4.52069e-05
4.52422e-05
4.52644e-05
4.52759e-05
4.52787e-05
4.52737e-05
4.52612e-05
4.52411e-05
4.52121e-05
4.51725e-05
4.51192e-05
4.50478e-05
4.49518e-05
4.48213e-05
4.46411e-05
4.43868e-05
4.40164e-05
4.34539e-05
4.25565e-05
4.10159e-05
3.83409e-05
3.32557e-05
2.71115e-05
5.00962e-05
4.96062e-05
4.91577e-05
4.8745e-05
4.83636e-05
4.80094e-05
4.7679e-05
4.73695e-05
4.70781e-05
4.68025e-05
4.65407e-05
4.6291e-05
4.60522e-05
4.58235e-05
4.56049e-05
4.53974e-05
4.52029e-05
4.50243e-05
4.48658e-05
4.47324e-05
4.46294e-05
4.45622e-05
4.45353e-05
4.45515e-05
4.46116e-05
4.47132e-05
4.48512e-05
4.50175e-05
4.52022e-05
4.53942e-05
4.5583e-05
4.57599e-05
4.59184e-05
4.60548e-05
4.61679e-05
4.62586e-05
4.6329e-05
4.6382e-05
4.64206e-05
4.64476e-05
4.64655e-05
4.64764e-05
4.64817e-05
4.64825e-05
4.64794e-05
4.64726e-05
4.64619e-05
4.64468e-05
4.64261e-05
4.63981e-05
4.63603e-05
4.63081e-05
4.62342e-05
4.61248e-05
4.59521e-05
4.56554e-05
4.50787e-05
4.38707e-05
4.08061e-05
3.51557e-05
5.00962e-05
4.96061e-05
4.91575e-05
4.87448e-05
4.83634e-05
4.80095e-05
4.768e-05
4.73719e-05
4.7083e-05
4.68112e-05
4.65549e-05
4.63124e-05
4.6083e-05
4.5866e-05
4.56614e-05
4.54703e-05
4.52945e-05
4.51368e-05
4.50014e-05
4.48928e-05
4.48161e-05
4.47759e-05
4.47759e-05
4.48177e-05
4.49005e-05
4.5021e-05
4.51728e-05
4.53476e-05
4.55356e-05
4.57269e-05
4.59122e-05
4.60841e-05
4.62374e-05
4.63692e-05
4.64787e-05
4.65669e-05
4.66359e-05
4.66884e-05
4.67273e-05
4.67553e-05
4.67749e-05
4.67881e-05
4.67966e-05
4.68016e-05
4.6804e-05
4.68044e-05
4.68032e-05
4.68008e-05
4.67971e-05
4.67923e-05
4.67863e-05
4.6779e-05
4.677e-05
4.67579e-05
4.67378e-05
4.66944e-05
4.65744e-05
4.62241e-05
4.49476e-05
4.15835e-05
5.00962e-05
4.9606e-05
4.91573e-05
4.87444e-05
4.8363e-05
4.8009e-05
4.76794e-05
4.73714e-05
4.70827e-05
4.68113e-05
4.65556e-05
4.63142e-05
4.60862e-05
4.58711e-05
4.56691e-05
4.54811e-05
4.53091e-05
4.51561e-05
4.50259e-05
4.49233e-05
4.48532e-05
4.48202e-05
4.48274e-05
4.48765e-05
4.4966e-05
4.50922e-05
4.52485e-05
4.54263e-05
4.56158e-05
4.58072e-05
4.59918e-05
4.61624e-05
4.63142e-05
4.64445e-05
4.65528e-05
4.664e-05
4.67084e-05
4.67606e-05
4.67993e-05
4.68275e-05
4.68475e-05
4.68613e-05
4.68707e-05
4.68768e-05
4.68808e-05
4.68834e-05
4.68851e-05
4.68864e-05
4.68878e-05
4.68901e-05
4.68939e-05
4.69007e-05
4.69125e-05
4.69324e-05
4.69642e-05
4.70113e-05
4.70658e-05
4.70842e-05
4.67511e-05
4.52979e-05
5.00962e-05
4.96059e-05
4.91571e-05
4.87442e-05
4.83626e-05
4.80085e-05
4.76788e-05
4.73708e-05
4.7082e-05
4.68105e-05
4.65548e-05
4.63135e-05
4.60856e-05
4.58707e-05
4.56691e-05
4.54816e-05
4.53103e-05
4.51582e-05
4.50291e-05
4.49279e-05
4.48593e-05
4.4828e-05
4.48371e-05
4.4888e-05
4.49794e-05
4.51073e-05
4.52649e-05
4.54435e-05
4.56335e-05
4.58251e-05
4.60096e-05
4.61798e-05
4.63312e-05
4.64611e-05
4.65689e-05
4.66559e-05
4.6724e-05
4.67761e-05
4.68148e-05
4.68429e-05
4.6863e-05
4.6877e-05
4.68865e-05
4.6893e-05
4.68974e-05
4.69005e-05
4.6903e-05
4.69053e-05
4.69082e-05
4.69124e-05
4.6919e-05
4.69298e-05
4.69477e-05
4.69771e-05
4.70248e-05
4.71008e-05
4.72148e-05
4.73702e-05
4.74454e-05
4.70694e-05
5.00962e-05
4.96059e-05
4.9157e-05
4.8744e-05
4.83623e-05
4.80081e-05
4.76783e-05
4.73702e-05
4.70813e-05
4.68098e-05
4.6554e-05
4.63126e-05
4.60846e-05
4.58698e-05
4.56681e-05
4.54807e-05
4.53095e-05
4.51575e-05
4.50287e-05
4.49278e-05
4.48597e-05
4.48288e-05
4.48385e-05
4.489e-05
4.4982e-05
4.51104e-05
4.52684e-05
4.54474e-05
4.56375e-05
4.58292e-05
4.60136e-05
4.61837e-05
4.63349e-05
4.64646e-05
4.65724e-05
4.66592e-05
4.67272e-05
4.67792e-05
4.68179e-05
4.6846e-05
4.6866e-05
4.688e-05
4.68897e-05
4.68962e-05
4.69007e-05
4.6904e-05
4.69066e-05
4.69092e-05
4.69124e-05
4.69171e-05
4.69244e-05
4.69362e-05
4.69557e-05
4.69875e-05
4.70394e-05
4.71231e-05
4.72541e-05
4.74531e-05
4.76844e-05
4.78111e-05
5.00962e-05
4.96058e-05
4.91569e-05
4.87438e-05
4.8362e-05
4.80078e-05
4.76779e-05
4.73697e-05
4.70807e-05
4.68091e-05
4.65532e-05
4.63117e-05
4.60838e-05
4.58688e-05
4.56672e-05
4.54797e-05
4.53086e-05
4.51566e-05
4.50279e-05
4.49271e-05
4.48592e-05
4.48286e-05
4.48385e-05
4.48903e-05
4.49826e-05
4.51112e-05
4.52694e-05
4.54485e-05
4.56388e-05
4.58304e-05
4.60148e-05
4.61849e-05
4.63359e-05
4.64655e-05
4.65732e-05
4.66599e-05
4.67279e-05
4.67798e-05
4.68185e-05
4.68466e-05
4.68666e-05
4.68806e-05
4.68902e-05
4.68968e-05
4.69013e-05
4.69046e-05
4.69073e-05
4.69099e-05
4.69132e-05
4.6918e-05
4.69254e-05
4.69375e-05
4.69572e-05
4.69894e-05
4.70418e-05
4.71264e-05
4.72599e-05
4.74677e-05
4.7749e-05
4.80784e-05
5.00962e-05
4.96058e-05
4.91568e-05
4.87436e-05
4.83618e-05
4.80075e-05
4.76776e-05
4.73692e-05
4.70802e-05
4.68085e-05
4.65526e-05
4.63111e-05
4.6083e-05
4.5868e-05
4.56663e-05
4.54789e-05
4.53077e-05
4.51558e-05
4.50271e-05
4.49264e-05
4.48586e-05
4.48282e-05
4.48383e-05
4.48903e-05
4.49828e-05
4.51115e-05
4.52699e-05
4.54491e-05
4.56394e-05
4.58311e-05
4.60154e-05
4.61854e-05
4.63364e-05
4.64659e-05
4.65735e-05
4.66602e-05
4.67281e-05
4.678e-05
4.68186e-05
4.68467e-05
4.68667e-05
4.68807e-05
4.68903e-05
4.68969e-05
4.69014e-05
4.69047e-05
4.69074e-05
4.691e-05
4.69133e-05
4.69181e-05
4.69256e-05
4.69376e-05
4.69573e-05
4.69893e-05
4.70412e-05
4.71247e-05
4.72562e-05
4.74607e-05
4.77503e-05
4.81442e-05
5.00962e-05
4.96058e-05
4.91567e-05
4.87435e-05
4.83616e-05
4.80073e-05
4.76773e-05
4.73689e-05
4.70798e-05
4.68081e-05
4.6552e-05
4.63105e-05
4.60824e-05
4.58673e-05
4.56656e-05
4.54781e-05
4.5307e-05
4.51551e-05
4.50265e-05
4.49259e-05
4.48582e-05
4.48279e-05
4.48382e-05
4.48903e-05
4.49829e-05
4.51118e-05
4.52703e-05
4.54496e-05
4.564e-05
4.58316e-05
4.60159e-05
4.61859e-05
4.63368e-05
4.64662e-05
4.65737e-05
4.66604e-05
4.67283e-05
4.67801e-05
4.68187e-05
4.68468e-05
4.68668e-05
4.68808e-05
4.68904e-05
4.68969e-05
4.69014e-05
4.69047e-05
4.69074e-05
4.69101e-05
4.69134e-05
4.69181e-05
4.69256e-05
4.69376e-05
4.69571e-05
4.69888e-05
4.704e-05
4.71219e-05
4.725e-05
4.74477e-05
4.77304e-05
4.81306e-05
5.00962e-05
4.96058e-05
4.91567e-05
4.87434e-05
4.83615e-05
4.80071e-05
4.7677e-05
4.73686e-05
4.70794e-05
4.68076e-05
4.65516e-05
4.63099e-05
4.60818e-05
4.58667e-05
4.5665e-05
4.54775e-05
4.53063e-05
4.51545e-05
4.50259e-05
4.49254e-05
4.48578e-05
4.48276e-05
4.4838e-05
4.48903e-05
4.4983e-05
4.51121e-05
4.52707e-05
4.54501e-05
4.56405e-05
4.58321e-05
4.60163e-05
4.61862e-05
4.63371e-05
4.64665e-05
4.65739e-05
4.66605e-05
4.67284e-05
4.67802e-05
4.68187e-05
4.68468e-05
4.68668e-05
4.68808e-05
4.68904e-05
4.68969e-05
4.69015e-05
4.69047e-05
4.69074e-05
4.69101e-05
4.69134e-05
4.69181e-05
4.69255e-05
4.69375e-05
4.69569e-05
4.69883e-05
4.70387e-05
4.7119e-05
4.72436e-05
4.74338e-05
4.77049e-05
4.80896e-05
5.00962e-05
4.96058e-05
4.91566e-05
4.87433e-05
4.83614e-05
4.80069e-05
4.76768e-05
4.73683e-05
4.70791e-05
4.68073e-05
4.65512e-05
4.63095e-05
4.60813e-05
4.58662e-05
4.56644e-05
4.54769e-05
4.53058e-05
4.51539e-05
4.50254e-05
4.49249e-05
4.48574e-05
4.48273e-05
4.48379e-05
4.48903e-05
4.49832e-05
4.51124e-05
4.5271e-05
4.54505e-05
4.56409e-05
4.58325e-05
4.60167e-05
4.61866e-05
4.63374e-05
4.64667e-05
4.65741e-05
4.66607e-05
4.67285e-05
4.67802e-05
4.68188e-05
4.68468e-05
4.68668e-05
4.68808e-05
4.68904e-05
4.68969e-05
4.69015e-05
4.69047e-05
4.69074e-05
4.69101e-05
4.69134e-05
4.69181e-05
4.69255e-05
4.69374e-05
4.69566e-05
4.69877e-05
4.70375e-05
4.71162e-05
4.72375e-05
4.74206e-05
4.76796e-05
4.80422e-05
5.00962e-05
4.96057e-05
4.91566e-05
4.87433e-05
4.83613e-05
4.80068e-05
4.76766e-05
4.73681e-05
4.70788e-05
4.6807e-05
4.65508e-05
4.63091e-05
4.60809e-05
4.58658e-05
4.5664e-05
4.54765e-05
4.53053e-05
4.51535e-05
4.5025e-05
4.49246e-05
4.48571e-05
4.48271e-05
4.48378e-05
4.48903e-05
4.49833e-05
4.51126e-05
4.52713e-05
4.54508e-05
4.56413e-05
4.58329e-05
4.60171e-05
4.61869e-05
4.63376e-05
4.64669e-05
4.65743e-05
4.66608e-05
4.67285e-05
4.67803e-05
4.68188e-05
4.68469e-05
4.68668e-05
4.68808e-05
4.68904e-05
4.68969e-05
4.69015e-05
4.69047e-05
4.69074e-05
4.69101e-05
4.69133e-05
4.69181e-05
4.69255e-05
4.69373e-05
4.69564e-05
4.69872e-05
4.70364e-05
4.71136e-05
4.7232e-05
4.74086e-05
4.76561e-05
4.79966e-05
5.00962e-05
4.96057e-05
4.91566e-05
4.87432e-05
4.83612e-05
4.80066e-05
4.76764e-05
4.73679e-05
4.70786e-05
4.68067e-05
4.65505e-05
4.63088e-05
4.60805e-05
4.58654e-05
4.56636e-05
4.54761e-05
4.53049e-05
4.51531e-05
4.50246e-05
4.49243e-05
4.48569e-05
4.4827e-05
4.48377e-05
4.48904e-05
4.49834e-05
4.51128e-05
4.52716e-05
4.54511e-05
4.56416e-05
4.58332e-05
4.60174e-05
4.61871e-05
4.63379e-05
4.64671e-05
4.65744e-05
4.66609e-05
4.67286e-05
4.67803e-05
4.68188e-05
4.68469e-05
4.68668e-05
4.68808e-05
4.68904e-05
4.68969e-05
4.69015e-05
4.69047e-05
4.69074e-05
4.69101e-05
4.69133e-05
4.69181e-05
4.69254e-05
4.69372e-05
4.69562e-05
4.69868e-05
4.70353e-05
4.71113e-05
4.7227e-05
4.7398e-05
4.76352e-05
4.79556e-05
5.00961e-05
4.96057e-05
4.91565e-05
4.87432e-05
4.83611e-05
4.80065e-05
4.76763e-05
4.73677e-05
4.70784e-05
4.68065e-05
4.65503e-05
4.63085e-05
4.60802e-05
4.58651e-05
4.56632e-05
4.54757e-05
4.53046e-05
4.51528e-05
4.50243e-05
4.4924e-05
4.48567e-05
4.48268e-05
4.48377e-05
4.48904e-05
4.49835e-05
4.5113e-05
4.52718e-05
4.54514e-05
4.56419e-05
4.58335e-05
4.60176e-05
4.61874e-05
4.63381e-05
4.64673e-05
4.65745e-05
4.6661e-05
4.67287e-05
4.67804e-05
4.68189e-05
4.68469e-05
4.68669e-05
4.68808e-05
4.68904e-05
4.6897e-05
4.69015e-05
4.69047e-05
4.69074e-05
4.69101e-05
4.69133e-05
4.69181e-05
4.69254e-05
4.69371e-05
4.6956e-05
4.69863e-05
4.70344e-05
4.71093e-05
4.72226e-05
4.73887e-05
4.76169e-05
4.79199e-05
5.00961e-05
4.96057e-05
4.91565e-05
4.87431e-05
4.8361e-05
4.80064e-05
4.76762e-05
4.73676e-05
4.70782e-05
4.68063e-05
4.65501e-05
4.63083e-05
4.608e-05
4.58648e-05
4.56629e-05
4.54754e-05
4.53043e-05
4.51525e-05
4.50241e-05
4.49238e-05
4.48565e-05
4.48267e-05
4.48376e-05
4.48904e-05
4.49836e-05
4.51131e-05
4.5272e-05
4.54516e-05
4.56421e-05
4.58337e-05
4.60179e-05
4.61876e-05
4.63382e-05
4.64674e-05
4.65746e-05
4.6661e-05
4.67287e-05
4.67804e-05
4.68189e-05
4.68469e-05
4.68669e-05
4.68808e-05
4.68904e-05
4.6897e-05
4.69015e-05
4.69047e-05
4.69074e-05
4.69101e-05
4.69133e-05
4.6918e-05
4.69254e-05
4.69371e-05
4.69559e-05
4.6986e-05
4.70336e-05
4.71075e-05
4.72188e-05
4.73807e-05
4.76013e-05
4.78894e-05
5.00961e-05
4.96057e-05
4.91565e-05
4.87431e-05
4.8361e-05
4.80064e-05
4.76761e-05
4.73675e-05
4.70781e-05
4.68061e-05
4.65499e-05
4.63081e-05
4.60798e-05
4.58646e-05
4.56627e-05
4.54752e-05
4.53041e-05
4.51523e-05
4.50239e-05
4.49236e-05
4.48564e-05
4.48266e-05
4.48376e-05
4.48904e-05
4.49837e-05
4.51132e-05
4.52722e-05
4.54518e-05
4.56423e-05
4.58339e-05
4.6018e-05
4.61877e-05
4.63383e-05
4.64675e-05
4.65747e-05
4.66611e-05
4.67288e-05
4.67804e-05
4.68189e-05
4.68469e-05
4.68669e-05
4.68808e-05
4.68904e-05
4.6897e-05
4.69015e-05
4.69047e-05
4.69074e-05
4.69101e-05
4.69133e-05
4.6918e-05
4.69253e-05
4.6937e-05
4.69557e-05
4.69857e-05
4.70329e-05
4.7106e-05
4.72156e-05
4.7374e-05
4.75881e-05
4.7864e-05
5.00961e-05
4.96057e-05
4.91565e-05
4.87431e-05
4.83609e-05
4.80063e-05
4.7676e-05
4.73674e-05
4.7078e-05
4.6806e-05
4.65498e-05
4.63079e-05
4.60796e-05
4.58644e-05
4.56625e-05
4.5475e-05
4.53039e-05
4.51521e-05
4.50237e-05
4.49235e-05
4.48563e-05
4.48266e-05
4.48376e-05
4.48904e-05
4.49838e-05
4.51133e-05
4.52723e-05
4.5452e-05
4.56425e-05
4.58341e-05
4.60182e-05
4.61878e-05
4.63385e-05
4.64676e-05
4.65748e-05
4.66611e-05
4.67288e-05
4.67805e-05
4.68189e-05
4.68469e-05
4.68669e-05
4.68808e-05
4.68904e-05
4.6897e-05
4.69015e-05
4.69047e-05
4.69074e-05
4.691e-05
4.69133e-05
4.6918e-05
4.69253e-05
4.69369e-05
4.69556e-05
4.69854e-05
4.70323e-05
4.71048e-05
4.7213e-05
4.73685e-05
4.75774e-05
4.78433e-05
5.00961e-05
4.96057e-05
4.91565e-05
4.87431e-05
4.83609e-05
4.80063e-05
4.7676e-05
4.73673e-05
4.70779e-05
4.68059e-05
4.65497e-05
4.63078e-05
4.60795e-05
4.58643e-05
4.56624e-05
4.54749e-05
4.53037e-05
4.5152e-05
4.50236e-05
4.49234e-05
4.48562e-05
4.48265e-05
4.48376e-05
4.48905e-05
4.49838e-05
4.51134e-05
4.52724e-05
4.54521e-05
4.56426e-05
4.58342e-05
4.60183e-05
4.61879e-05
4.63385e-05
4.64676e-05
4.65748e-05
4.66612e-05
4.67288e-05
4.67805e-05
4.68189e-05
4.68469e-05
4.68669e-05
4.68808e-05
4.68904e-05
4.6897e-05
4.69015e-05
4.69047e-05
4.69074e-05
4.691e-05
4.69133e-05
4.6918e-05
4.69253e-05
4.69369e-05
4.69555e-05
4.69852e-05
4.70319e-05
4.71038e-05
4.7211e-05
4.73643e-05
4.75691e-05
4.78271e-05
5.00961e-05
4.96057e-05
4.91565e-05
4.8743e-05
4.83609e-05
4.80063e-05
4.76759e-05
4.73673e-05
4.70779e-05
4.68059e-05
4.65496e-05
4.63077e-05
4.60794e-05
4.58642e-05
4.56623e-05
4.54748e-05
4.53037e-05
4.51519e-05
4.50235e-05
4.49233e-05
4.48562e-05
4.48265e-05
4.48375e-05
4.48905e-05
4.49838e-05
4.51134e-05
4.52725e-05
4.54521e-05
4.56427e-05
4.58343e-05
4.60183e-05
4.6188e-05
4.63386e-05
4.64677e-05
4.65748e-05
4.66612e-05
4.67288e-05
4.67805e-05
4.68189e-05
4.68469e-05
4.68669e-05
4.68808e-05
4.68904e-05
4.68969e-05
4.69015e-05
4.69047e-05
4.69074e-05
4.691e-05
4.69133e-05
4.6918e-05
4.69253e-05
4.69368e-05
4.69554e-05
4.6985e-05
4.70316e-05
4.71031e-05
4.72096e-05
4.73613e-05
4.75631e-05
4.78152e-05
5.00961e-05
4.96057e-05
4.91565e-05
4.8743e-05
4.83609e-05
4.80062e-05
4.76759e-05
4.73672e-05
4.70779e-05
4.68058e-05
4.65496e-05
4.63077e-05
4.60794e-05
4.58642e-05
4.56623e-05
4.54748e-05
4.53036e-05
4.51519e-05
4.50235e-05
4.49233e-05
4.48561e-05
4.48265e-05
4.48375e-05
4.48905e-05
4.49838e-05
4.51135e-05
4.52725e-05
4.54521e-05
4.56427e-05
4.58343e-05
4.60183e-05
4.6188e-05
4.63385e-05
4.64676e-05
4.65748e-05
4.66612e-05
4.67288e-05
4.67805e-05
4.68189e-05
4.68469e-05
4.68669e-05
4.68808e-05
4.68904e-05
4.68969e-05
4.69015e-05
4.69047e-05
4.69074e-05
4.691e-05
4.69133e-05
4.6918e-05
4.69252e-05
4.69368e-05
4.69554e-05
4.69849e-05
4.70314e-05
4.71027e-05
4.72088e-05
4.73596e-05
4.75594e-05
4.78073e-05
5.00961e-05
4.96057e-05
4.91565e-05
4.8743e-05
4.83609e-05
4.80062e-05
4.76759e-05
4.73672e-05
4.70779e-05
4.68058e-05
4.65496e-05
4.63077e-05
4.60794e-05
4.58642e-05
4.56623e-05
4.54748e-05
4.53036e-05
4.51519e-05
4.50235e-05
4.49233e-05
4.48561e-05
4.48265e-05
4.48375e-05
4.48904e-05
4.49838e-05
4.51134e-05
4.52724e-05
4.54521e-05
4.56426e-05
4.58342e-05
4.60183e-05
4.61879e-05
4.63385e-05
4.64676e-05
4.65747e-05
4.66611e-05
4.67288e-05
4.67804e-05
4.68189e-05
4.68469e-05
4.68668e-05
4.68808e-05
4.68904e-05
4.68969e-05
4.69015e-05
4.69047e-05
4.69074e-05
4.691e-05
4.69133e-05
4.6918e-05
4.69252e-05
4.69368e-05
4.69553e-05
4.69849e-05
4.70313e-05
4.71026e-05
4.72086e-05
4.7359e-05
4.7558e-05
4.78036e-05
5.00961e-05
4.96057e-05
4.91565e-05
4.8743e-05
4.83609e-05
4.80063e-05
4.76759e-05
4.73673e-05
4.70779e-05
4.68059e-05
4.65496e-05
4.63077e-05
4.60794e-05
4.58642e-05
4.56623e-05
4.54748e-05
4.53037e-05
4.51519e-05
4.50235e-05
4.49233e-05
4.48561e-05
4.48265e-05
4.48375e-05
4.48904e-05
4.49838e-05
4.51134e-05
4.52724e-05
4.5452e-05
4.56425e-05
4.58341e-05
4.60181e-05
4.61878e-05
4.63383e-05
4.64674e-05
4.65746e-05
4.6661e-05
4.67287e-05
4.67804e-05
4.68188e-05
4.68469e-05
4.68668e-05
4.68808e-05
4.68904e-05
4.68969e-05
4.69014e-05
4.69047e-05
4.69074e-05
4.691e-05
4.69133e-05
4.6918e-05
4.69252e-05
4.69368e-05
4.69553e-05
4.69849e-05
4.70313e-05
4.71028e-05
4.7209e-05
4.73597e-05
4.75589e-05
4.78039e-05
5.00961e-05
4.96057e-05
4.91565e-05
4.87431e-05
4.83609e-05
4.80063e-05
4.7676e-05
4.73673e-05
4.70779e-05
4.68059e-05
4.65497e-05
4.63078e-05
4.60795e-05
4.58643e-05
4.56624e-05
4.54749e-05
4.53037e-05
4.5152e-05
4.50236e-05
4.49234e-05
4.48562e-05
4.48265e-05
4.48375e-05
4.48904e-05
4.49837e-05
4.51133e-05
4.52722e-05
4.54518e-05
4.56423e-05
4.58339e-05
4.60179e-05
4.61876e-05
4.63382e-05
4.64673e-05
4.65745e-05
4.66609e-05
4.67286e-05
4.67803e-05
4.68188e-05
4.68468e-05
4.68668e-05
4.68807e-05
4.68903e-05
4.68969e-05
4.69014e-05
4.69047e-05
4.69074e-05
4.691e-05
4.69133e-05
4.6918e-05
4.69252e-05
4.69368e-05
4.69553e-05
4.69849e-05
4.70315e-05
4.71032e-05
4.721e-05
4.73617e-05
4.75621e-05
4.78084e-05
5.00961e-05
4.96057e-05
4.91565e-05
4.87431e-05
4.83609e-05
4.80063e-05
4.7676e-05
4.73674e-05
4.7078e-05
4.6806e-05
4.65498e-05
4.63079e-05
4.60796e-05
4.58644e-05
4.56625e-05
4.5475e-05
4.53039e-05
4.51521e-05
4.50237e-05
4.49235e-05
4.48563e-05
4.48265e-05
4.48375e-05
4.48903e-05
4.49836e-05
4.51131e-05
4.52721e-05
4.54516e-05
4.56421e-05
4.58337e-05
4.60177e-05
4.61874e-05
4.6338e-05
4.64671e-05
4.65743e-05
4.66607e-05
4.67285e-05
4.67802e-05
4.68187e-05
4.68467e-05
4.68667e-05
4.68807e-05
4.68903e-05
4.68969e-05
4.69014e-05
4.69047e-05
4.69074e-05
4.691e-05
4.69133e-05
4.6918e-05
4.69252e-05
4.69368e-05
4.69553e-05
4.6985e-05
4.70318e-05
4.71039e-05
4.72116e-05
4.73649e-05
4.75677e-05
4.78171e-05
5.00961e-05
4.96057e-05
4.91565e-05
4.87431e-05
4.8361e-05
4.80064e-05
4.76761e-05
4.73675e-05
4.70781e-05
4.68061e-05
4.65499e-05
4.63081e-05
4.60798e-05
4.58646e-05
4.56627e-05
4.54752e-05
4.53041e-05
4.51523e-05
4.50239e-05
4.49236e-05
4.48564e-05
4.48266e-05
4.48375e-05
4.48903e-05
4.49835e-05
4.5113e-05
4.52719e-05
4.54514e-05
4.56418e-05
4.58334e-05
4.60174e-05
4.61871e-05
4.63377e-05
4.64669e-05
4.65742e-05
4.66606e-05
4.67284e-05
4.67801e-05
4.68186e-05
4.68467e-05
4.68667e-05
4.68807e-05
4.68903e-05
4.68969e-05
4.69014e-05
4.69047e-05
4.69074e-05
4.691e-05
4.69133e-05
4.6918e-05
4.69252e-05
4.69368e-05
4.69554e-05
4.69852e-05
4.70322e-05
4.7105e-05
4.72138e-05
4.73695e-05
4.75759e-05
4.78305e-05
5.00961e-05
4.96057e-05
4.91565e-05
4.87431e-05
4.8361e-05
4.80064e-05
4.76762e-05
4.73676e-05
4.70782e-05
4.68063e-05
4.65501e-05
4.63083e-05
4.608e-05
4.58648e-05
4.56629e-05
4.54754e-05
4.53043e-05
4.51525e-05
4.50241e-05
4.49238e-05
4.48565e-05
4.48267e-05
4.48375e-05
4.48902e-05
4.49834e-05
4.51128e-05
4.52716e-05
4.54511e-05
4.56415e-05
4.58331e-05
4.60171e-05
4.61868e-05
4.63375e-05
4.64667e-05
4.6574e-05
4.66604e-05
4.67282e-05
4.678e-05
4.68186e-05
4.68466e-05
4.68666e-05
4.68806e-05
4.68903e-05
4.68969e-05
4.69014e-05
4.69047e-05
4.69074e-05
4.691e-05
4.69133e-05
4.6918e-05
4.69252e-05
4.69368e-05
4.69554e-05
4.69853e-05
4.70327e-05
4.71062e-05
4.72167e-05
4.73755e-05
4.75867e-05
4.78487e-05
5.00961e-05
4.96057e-05
4.91565e-05
4.87432e-05
4.83611e-05
4.80065e-05
4.76763e-05
4.73677e-05
4.70784e-05
4.68065e-05
4.65503e-05
4.63085e-05
4.60802e-05
4.58651e-05
4.56632e-05
4.54757e-05
4.53046e-05
4.51528e-05
4.50243e-05
4.4924e-05
4.48567e-05
4.48268e-05
4.48376e-05
4.48902e-05
4.49833e-05
4.51126e-05
4.52714e-05
4.54508e-05
4.56412e-05
4.58328e-05
4.60168e-05
4.61865e-05
4.63372e-05
4.64664e-05
4.65738e-05
4.66603e-05
4.67281e-05
4.67799e-05
4.68185e-05
4.68466e-05
4.68666e-05
4.68806e-05
4.68903e-05
4.68968e-05
4.69014e-05
4.69047e-05
4.69073e-05
4.691e-05
4.69133e-05
4.6918e-05
4.69252e-05
4.69368e-05
4.69555e-05
4.69856e-05
4.70333e-05
4.71078e-05
4.72202e-05
4.73829e-05
4.76002e-05
4.78723e-05
5.00962e-05
4.96057e-05
4.91566e-05
4.87432e-05
4.83612e-05
4.80066e-05
4.76764e-05
4.73679e-05
4.70786e-05
4.68067e-05
4.65505e-05
4.63088e-05
4.60805e-05
4.58654e-05
4.56636e-05
4.54761e-05
4.53049e-05
4.51531e-05
4.50246e-05
4.49243e-05
4.48569e-05
4.48269e-05
4.48376e-05
4.48901e-05
4.49831e-05
4.51124e-05
4.52711e-05
4.54505e-05
4.56408e-05
4.58324e-05
4.60164e-05
4.61862e-05
4.63369e-05
4.64662e-05
4.65735e-05
4.66601e-05
4.6728e-05
4.67798e-05
4.68184e-05
4.68465e-05
4.68666e-05
4.68806e-05
4.68902e-05
4.68968e-05
4.69014e-05
4.69047e-05
4.69073e-05
4.691e-05
4.69133e-05
4.6918e-05
4.69252e-05
4.69369e-05
4.69556e-05
4.69859e-05
4.70341e-05
4.71097e-05
4.72244e-05
4.73919e-05
4.76168e-05
4.79019e-05
5.00962e-05
4.96057e-05
4.91566e-05
4.87433e-05
4.83613e-05
4.80068e-05
4.76766e-05
4.73681e-05
4.70788e-05
4.6807e-05
4.65508e-05
4.63091e-05
4.60809e-05
4.58658e-05
4.5664e-05
4.54765e-05
4.53053e-05
4.51535e-05
4.5025e-05
4.49246e-05
4.48571e-05
4.48271e-05
4.48377e-05
4.48901e-05
4.4983e-05
4.51121e-05
4.52708e-05
4.54501e-05
4.56404e-05
4.58319e-05
4.6016e-05
4.61858e-05
4.63366e-05
4.64659e-05
4.65733e-05
4.66599e-05
4.67278e-05
4.67797e-05
4.68183e-05
4.68464e-05
4.68665e-05
4.68805e-05
4.68902e-05
4.68968e-05
4.69014e-05
4.69047e-05
4.69073e-05
4.691e-05
4.69133e-05
4.6918e-05
4.69252e-05
4.69369e-05
4.69557e-05
4.69862e-05
4.70349e-05
4.71118e-05
4.72292e-05
4.74024e-05
4.76366e-05
4.79383e-05
5.00962e-05
4.96058e-05
4.91566e-05
4.87433e-05
4.83614e-05
4.80069e-05
4.76768e-05
4.73683e-05
4.70791e-05
4.68073e-05
4.65512e-05
4.63095e-05
4.60813e-05
4.58662e-05
4.56644e-05
4.5477e-05
4.53058e-05
4.51539e-05
4.50254e-05
4.49249e-05
4.48574e-05
4.48272e-05
4.48377e-05
4.48901e-05
4.49828e-05
4.51119e-05
4.52704e-05
4.54497e-05
4.564e-05
4.58315e-05
4.60156e-05
4.61854e-05
4.63362e-05
4.64656e-05
4.65731e-05
4.66597e-05
4.67277e-05
4.67795e-05
4.68182e-05
4.68464e-05
4.68665e-05
4.68805e-05
4.68902e-05
4.68968e-05
4.69013e-05
4.69046e-05
4.69073e-05
4.691e-05
4.69133e-05
4.69179e-05
4.69252e-05
4.69369e-05
4.69559e-05
4.69866e-05
4.70359e-05
4.71142e-05
4.72347e-05
4.74148e-05
4.76598e-05
4.79825e-05
5.00962e-05
4.96058e-05
4.91567e-05
4.87434e-05
4.83615e-05
4.80071e-05
4.7677e-05
4.73686e-05
4.70794e-05
4.68076e-05
4.65516e-05
4.63099e-05
4.60818e-05
4.58667e-05
4.5665e-05
4.54775e-05
4.53063e-05
4.51545e-05
4.50259e-05
4.49253e-05
4.48577e-05
4.48275e-05
4.48378e-05
4.489e-05
4.49827e-05
4.51116e-05
4.527e-05
4.54492e-05
4.56394e-05
4.5831e-05
4.60151e-05
4.6185e-05
4.63358e-05
4.64653e-05
4.65728e-05
4.66595e-05
4.67275e-05
4.67794e-05
4.68181e-05
4.68463e-05
4.68664e-05
4.68805e-05
4.68902e-05
4.68968e-05
4.69013e-05
4.69046e-05
4.69073e-05
4.691e-05
4.69133e-05
4.69179e-05
4.69252e-05
4.6937e-05
4.6956e-05
4.69869e-05
4.70369e-05
4.71168e-05
4.72409e-05
4.74289e-05
4.76869e-05
4.80361e-05
5.00962e-05
4.96058e-05
4.91567e-05
4.87435e-05
4.83616e-05
4.80073e-05
4.76773e-05
4.73689e-05
4.70798e-05
4.68081e-05
4.6552e-05
4.63105e-05
4.60824e-05
4.58673e-05
4.56656e-05
4.54781e-05
4.5307e-05
4.51551e-05
4.50265e-05
4.49258e-05
4.48581e-05
4.48277e-05
4.4838e-05
4.489e-05
4.49825e-05
4.51113e-05
4.52696e-05
4.54487e-05
4.56389e-05
4.58304e-05
4.60146e-05
4.61845e-05
4.63354e-05
4.64649e-05
4.65725e-05
4.66593e-05
4.67273e-05
4.67793e-05
4.6818e-05
4.68463e-05
4.68664e-05
4.68804e-05
4.68901e-05
4.68968e-05
4.69013e-05
4.69046e-05
4.69073e-05
4.691e-05
4.69132e-05
4.69179e-05
4.69253e-05
4.6937e-05
4.69561e-05
4.69873e-05
4.7038e-05
4.71197e-05
4.72478e-05
4.74451e-05
4.77182e-05
4.81007e-05
5.00962e-05
4.96058e-05
4.91568e-05
4.87436e-05
4.83618e-05
4.80075e-05
4.76776e-05
4.73692e-05
4.70802e-05
4.68085e-05
4.65526e-05
4.63111e-05
4.6083e-05
4.5868e-05
4.56663e-05
4.54789e-05
4.53077e-05
4.51558e-05
4.50271e-05
4.49264e-05
4.48586e-05
4.48281e-05
4.48381e-05
4.489e-05
4.49823e-05
4.51109e-05
4.52691e-05
4.54481e-05
4.56383e-05
4.58298e-05
4.6014e-05
4.6184e-05
4.6335e-05
4.64646e-05
4.65722e-05
4.66591e-05
4.67272e-05
4.67792e-05
4.68179e-05
4.68462e-05
4.68663e-05
4.68804e-05
4.68901e-05
4.68967e-05
4.69013e-05
4.69046e-05
4.69073e-05
4.691e-05
4.69132e-05
4.69179e-05
4.69253e-05
4.6937e-05
4.69563e-05
4.69878e-05
4.70392e-05
4.71228e-05
4.72553e-05
4.74635e-05
4.77542e-05
4.81788e-05
5.00962e-05
4.96058e-05
4.91569e-05
4.87438e-05
4.8362e-05
4.80078e-05
4.76779e-05
4.73697e-05
4.70807e-05
4.68091e-05
4.65532e-05
4.63118e-05
4.60838e-05
4.58688e-05
4.56672e-05
4.54798e-05
4.53086e-05
4.51566e-05
4.50279e-05
4.49271e-05
4.48591e-05
4.48284e-05
4.48383e-05
4.489e-05
4.49821e-05
4.51105e-05
4.52685e-05
4.54475e-05
4.56375e-05
4.58291e-05
4.60133e-05
4.61833e-05
4.63344e-05
4.64641e-05
4.65719e-05
4.66588e-05
4.67269e-05
4.6779e-05
4.68178e-05
4.6846e-05
4.68662e-05
4.68803e-05
4.689e-05
4.68966e-05
4.69012e-05
4.69045e-05
4.69072e-05
4.69099e-05
4.69132e-05
4.69179e-05
4.69252e-05
4.6937e-05
4.69564e-05
4.69882e-05
4.70403e-05
4.7126e-05
4.72635e-05
4.74841e-05
4.77953e-05
4.82736e-05
5.00962e-05
4.96059e-05
4.9157e-05
4.8744e-05
4.83623e-05
4.80081e-05
4.76783e-05
4.73702e-05
4.70813e-05
4.68098e-05
4.6554e-05
4.63126e-05
4.60846e-05
4.58698e-05
4.56681e-05
4.54807e-05
4.53095e-05
4.51575e-05
4.50287e-05
4.49278e-05
4.48596e-05
4.48287e-05
4.48383e-05
4.48897e-05
4.49815e-05
4.51097e-05
4.52675e-05
4.54463e-05
4.56363e-05
4.58278e-05
4.60121e-05
4.61822e-05
4.63334e-05
4.64632e-05
4.6571e-05
4.6658e-05
4.67262e-05
4.67783e-05
4.68172e-05
4.68455e-05
4.68657e-05
4.68798e-05
4.68895e-05
4.68961e-05
4.69007e-05
4.6904e-05
4.69067e-05
4.69094e-05
4.69127e-05
4.69174e-05
4.69248e-05
4.69367e-05
4.69561e-05
4.69882e-05
4.70413e-05
4.71292e-05
4.72721e-05
4.75071e-05
4.78421e-05
4.83896e-05
5.00962e-05
4.96059e-05
4.91571e-05
4.87442e-05
4.83626e-05
4.80085e-05
4.76788e-05
4.73708e-05
4.7082e-05
4.68105e-05
4.65548e-05
4.63135e-05
4.60856e-05
4.58707e-05
4.56691e-05
4.54816e-05
4.53103e-05
4.51582e-05
4.50291e-05
4.49278e-05
4.48592e-05
4.48278e-05
4.48369e-05
4.48877e-05
4.4979e-05
4.51066e-05
4.5264e-05
4.54425e-05
4.56323e-05
4.58238e-05
4.60081e-05
4.61784e-05
4.63297e-05
4.64597e-05
4.65677e-05
4.66548e-05
4.67232e-05
4.67754e-05
4.68143e-05
4.68427e-05
4.68629e-05
4.6877e-05
4.68868e-05
4.68934e-05
4.6898e-05
4.69014e-05
4.69041e-05
4.69068e-05
4.69101e-05
4.69149e-05
4.69223e-05