/*--------------------------------*- C++ -*----------------------------------*\
| =========                 |                                                 |
| \\      /  F ield         | OpenFOAM: The Open Source CFD Toolbox           |
|  \\    /   O peration     | Version:  2.4.0                                 |
|   \\  /    A nd           | Web:      www.OpenFOAM.org                      |
|    \\/     M anipulation  |                                                 |
\*---------------------------------------------------------------------------*/
FoamFile
{
    version     2.0;
    format      ascii;
    class       volScalarField;
    location    "6.7";
    object      p;
}
// * * * * * * * * * * * * * * * * * * * * * * * * * * * * * * * * * * * * * //

dimensions      [0 2 -2 0 0 0 0];

internalField   nonuniform List<scalar> 
6000
(
-0.124885
0.231939
0.189216
0.209064
0.201732
0.206497
0.203505
0.205437
0.204171
0.204898
0.20435
0.204577
0.204333
0.204381
0.204281
0.204323
0.204367
0.204532
0.204782
0.205169
0.205691
0.206381
0.207257
0.208342
0.209649
0.211201
0.213013
0.215104
0.217491
0.220189
0.223212
0.226571
0.230276
0.234331
0.238736
0.243483
0.248558
0.253939
0.259588
0.26547
0.271507
0.27766
0.283776
0.289859
0.295583
0.301116
0.305769
0.310091
0.312632
0.31506
0.313746
0.313788
0.305241
0.303622
0.280099
0.282188
0.223133
0.250199
0.0938137
0.218322
-0.0985459
0.228523
0.18929
0.208911
0.201753
0.206484
0.203518
0.205435
0.204183
0.204905
0.204364
0.204592
0.204351
0.204401
0.204303
0.204345
0.204389
0.204552
0.204799
0.205183
0.205701
0.206387
0.207258
0.208337
0.209639
0.211183
0.212989
0.215073
0.217452
0.22014
0.223154
0.226509
0.230207
0.234255
0.238651
0.243389
0.248454
0.253824
0.259459
0.265326
0.271344
0.277477
0.283568
0.289622
0.295313
0.300806
0.305423
0.309697
0.312193
0.314551
0.313182
0.313119
0.304512
0.302717
0.279152
0.280906
0.221943
0.248215
0.0924345
0.214899
-0.081658
0.225069
0.189319
0.208819
0.201761
0.206478
0.203524
0.205441
0.204193
0.20492
0.20438
0.204615
0.204376
0.204433
0.204336
0.204382
0.204426
0.20459
0.204835
0.205217
0.205732
0.206415
0.207282
0.208356
0.209651
0.211189
0.212986
0.215061
0.21743
0.220109
0.223111
0.226449
0.230131
0.234161
0.238539
0.243257
0.2483
0.253646
0.259255
0.265094
0.271081
0.27718
0.283233
0.289247
0.294891
0.300335
0.3049
0.309122
0.311555
0.313853
0.312403
0.31227
0.303558
0.301678
0.277976
0.279604
0.220463
0.246462
0.0904465
0.21203
-0.0694353
0.221217
0.18953
0.208735
0.201762
0.206472
0.203529
0.20545
0.204203
0.204938
0.204397
0.20464
0.204403
0.204466
0.204371
0.20442
0.204464
0.204628
0.204873
0.205253
0.205765
0.206445
0.207308
0.208376
0.209665
0.211195
0.212983
0.215048
0.217406
0.220073
0.223061
0.226384
0.230049
0.234061
0.238419
0.243115
0.248134
0.253455
0.259037
0.264846
0.2708
0.276864
0.282877
0.28885
0.294447
0.299842
0.304349
0.308516
0.310876
0.313113
0.311567
0.311372
0.30252
0.300588
0.276667
0.278266
0.21876
0.244744
0.0880626
0.209394
-0.0576282
0.217091
0.189913
0.208653
0.201761
0.206464
0.203534
0.205458
0.204211
0.204955
0.204412
0.204663
0.204426
0.204495
0.2044
0.204452
0.204497
0.204661
0.204904
0.205282
0.205792
0.206469
0.207327
0.20839
0.209672
0.211195
0.212975
0.21503
0.217378
0.220033
0.223009
0.226318
0.229967
0.233963
0.238303
0.24298
0.247978
0.253276
0.258833
0.264614
0.270539
0.276572
0.282548
0.288484
0.294036
0.299386
0.303835
0.307948
0.310235
0.312411
0.310763
0.310505
0.301502
0.299521
0.275353
0.276947
0.217006
0.243056
0.0856043
0.206947
-0.0460437
0.212854
0.190421
0.208557
0.201768
0.206452
0.203538
0.205465
0.204218
0.20497
0.204424
0.204684
0.204445
0.204519
0.204425
0.204479
0.204523
0.204688
0.204929
0.205305
0.205812
0.206486
0.207341
0.208398
0.209674
0.211189
0.212962
0.215009
0.217346
0.219991
0.222955
0.226252
0.229888
0.233869
0.238193
0.242853
0.247833
0.253111
0.258646
0.264404
0.270302
0.276306
0.282251
0.288152
0.293665
0.298971
0.303366
0.307425
0.309641
0.311756
0.310008
0.309686
0.30053
0.298499
0.274079
0.275666
0.215282
0.241406
0.083202
0.204665
-0.0353032
0.208607
0.19096
0.208433
0.201788
0.206436
0.203543
0.205471
0.204224
0.204983
0.204435
0.204701
0.204461
0.20454
0.204446
0.204502
0.204545
0.204709
0.204948
0.205323
0.205828
0.206499
0.207349
0.208401
0.209671
0.21118
0.212945
0.214984
0.217313
0.219947
0.222902
0.226187
0.229811
0.233779
0.238089
0.242735
0.247698
0.252959
0.258474
0.264211
0.270085
0.276065
0.281979
0.287849
0.293324
0.29859
0.302933
0.306942
0.309089
0.311144
0.309298
0.308912
0.299607
0.297522
0.272856
0.274432
0.213613
0.239807
0.0808996
0.202549
-0.0254638
0.204422
0.191458
0.208291
0.201814
0.206418
0.203549
0.205476
0.204229
0.204995
0.204444
0.204716
0.204475
0.204558
0.204463
0.204521
0.204563
0.204727
0.204964
0.205337
0.205839
0.206507
0.207353
0.2084
0.209665
0.211167
0.212925
0.214957
0.217277
0.219904
0.222848
0.226124
0.229737
0.233694
0.237991
0.242623
0.247572
0.252817
0.258315
0.264034
0.269887
0.275843
0.28173
0.287571
0.293011
0.298238
0.302533
0.306493
0.308573
0.31057
0.308629
0.30818
0.298729
0.296591
0.271683
0.273246
0.212003
0.238263
0.0787084
0.200586
-0.0162953
0.200361
0.191865
0.208146
0.201834
0.2064
0.203556
0.205479
0.204234
0.205005
0.204452
0.204729
0.204487
0.204573
0.204477
0.204537
0.204578
0.204741
0.204977
0.205348
0.205847
0.206512
0.207354
0.208396
0.209656
0.211152
0.212904
0.214928
0.217241
0.219859
0.222796
0.226062
0.229665
0.233612
0.237898
0.242519
0.247455
0.252686
0.258169
0.263871
0.269704
0.275639
0.281502
0.287315
0.292723
0.297914
0.302162
0.306075
0.308092
0.310032
0.307998
0.307488
0.297895
0.295704
0.27056
0.272106
0.210456
0.236775
0.0766327
0.198761
-0.00764327
0.196466
0.192159
0.207997
0.20185
0.206383
0.203565
0.205481
0.204239
0.205013
0.204459
0.204741
0.204497
0.204586
0.20449
0.20455
0.20459
0.204753
0.204986
0.205355
0.205852
0.206514
0.207352
0.20839
0.209644
0.211135
0.21288
0.214898
0.217204
0.219815
0.222743
0.226001
0.229596
0.233533
0.23781
0.24242
0.247345
0.252564
0.258033
0.26372
0.269536
0.275452
0.281293
0.28708
0.292458
0.297614
0.301818
0.305687
0.307642
0.309528
0.307405
0.306834
0.297103
0.294857
0.269487
0.271012
0.208973
0.235339
0.0746745
0.197058
0.000545048
0.192757
0.192333
0.207828
0.201887
0.206368
0.203576
0.205482
0.204245
0.205021
0.204465
0.204751
0.204505
0.204598
0.2045
0.204561
0.2046
0.204762
0.204994
0.205361
0.205855
0.206513
0.207347
0.208381
0.20963
0.211116
0.212856
0.214867
0.217167
0.219771
0.222692
0.225942
0.22953
0.233459
0.237727
0.242328
0.247243
0.252451
0.257908
0.263582
0.269382
0.275281
0.2811
0.286864
0.292213
0.297337
0.3015
0.305326
0.307222
0.309055
0.306846
0.306214
0.296351
0.294049
0.268462
0.26996
0.207555
0.233952
0.0728335
0.195461
0.0082983
0.189249
0.192393
0.207634
0.201955
0.206352
0.203591
0.205483
0.204251
0.205028
0.204471
0.20476
0.204513
0.204607
0.204508
0.20457
0.204608
0.204769
0.204999
0.205364
0.205855
0.206511
0.207341
0.208371
0.209615
0.211096
0.21283
0.214836
0.21713
0.219728
0.222642
0.225886
0.229466
0.233388
0.237648
0.242241
0.247147
0.252346
0.257792
0.263454
0.26924
0.275123
0.280923
0.286665
0.291987
0.29708
0.301204
0.304989
0.306829
0.30861
0.306318
0.305627
0.295636
0.293277
0.267483
0.268947
0.2062
0.232612
0.0711076
0.193956
0.0156517
0.185951
0.192345
0.207407
0.202056
0.206329
0.203611
0.205484
0.204258
0.205034
0.204477
0.204768
0.20452
0.204616
0.204516
0.204578
0.204614
0.204775
0.205002
0.205365
0.205854
0.206507
0.207334
0.208359
0.209599
0.211075
0.212804
0.214805
0.217093
0.219685
0.222593
0.225831
0.229405
0.23332
0.237574
0.24216
0.247058
0.252248
0.257685
0.263336
0.269109
0.274978
0.28076
0.286481
0.291778
0.296841
0.300928
0.304674
0.306459
0.30819
0.305819
0.305069
0.294956
0.292538
0.266549
0.267971
0.204907
0.231314
0.0694936
0.192532
0.0226402
0.182871
0.192198
0.20714
0.202188
0.206291
0.203637
0.205487
0.204266
0.205041
0.204483
0.204775
0.204526
0.204623
0.204522
0.204585
0.20462
0.20478
0.205005
0.205366
0.205852
0.206502
0.207325
0.208347
0.209582
0.211054
0.212778
0.214774
0.217057
0.219643
0.222546
0.225778
0.229346
0.233256
0.237504
0.242083
0.246974
0.252157
0.257585
0.263227
0.268989
0.274843
0.28061
0.28631
0.291584
0.296618
0.30067
0.304378
0.306112
0.307794
0.305346
0.304537
0.294309
0.291829
0.265657
0.267028
0.203674
0.230057
0.0679878
0.191175
0.0292917
0.180009
0.191964
0.20683
0.202334
0.206251
0.203664
0.205491
0.204276
0.205047
0.204489
0.204782
0.204532
0.204631
0.204528
0.204591
0.204625
0.204783
0.205007
0.205366
0.205849
0.206496
0.207316
0.208334
0.209565
0.211032
0.212752
0.214743
0.217022
0.219603
0.222501
0.225728
0.229291
0.233195
0.237438
0.242012
0.246897
0.252073
0.257493
0.263126
0.268877
0.274719
0.28047
0.286152
0.291404
0.296411
0.300429
0.3041
0.305785
0.307418
0.304897
0.304029
0.293692
0.291148
0.264805
0.266116
0.202499
0.228836
0.0665863
0.189877
0.0356278
0.177364
0.191655
0.206476
0.20248
0.206218
0.203689
0.205499
0.204289
0.205054
0.204496
0.20479
0.204539
0.204638
0.204534
0.204597
0.204629
0.204787
0.205008
0.205365
0.205846
0.206491
0.207307
0.208321
0.209549
0.211012
0.212727
0.214714
0.216987
0.219564
0.222457
0.22568
0.229238
0.233138
0.237376
0.241945
0.246824
0.251995
0.257408
0.263032
0.268774
0.274604
0.280341
0.286005
0.291235
0.296217
0.300203
0.303838
0.305475
0.307061
0.304471
0.303544
0.293103
0.290491
0.26399
0.265233
0.201382
0.227649
0.065285
0.188628
0.0416671
0.174933
0.191283
0.20608
0.202618
0.206192
0.203715
0.205511
0.204305
0.205062
0.204504
0.204797
0.204545
0.204645
0.20454
0.204603
0.204634
0.20479
0.20501
0.205365
0.205844
0.206485
0.207298
0.208309
0.209533
0.210992
0.212703
0.214686
0.216955
0.219527
0.222416
0.225634
0.229189
0.233084
0.237318
0.241882
0.246757
0.251922
0.257329
0.262946
0.268679
0.274498
0.280221
0.285869
0.291078
0.296035
0.29999
0.303591
0.305182
0.306721
0.304065
0.303078
0.29254
0.289859
0.263211
0.264376
0.200318
0.226493
0.06408
0.187421
0.0474261
0.172709
0.190861
0.205647
0.202742
0.206173
0.203744
0.205526
0.204325
0.205071
0.204515
0.204806
0.204553
0.204652
0.204547
0.204609
0.204639
0.204794
0.205012
0.205365
0.205841
0.20648
0.20729
0.208298
0.209518
0.210973
0.212681
0.214659
0.216924
0.219493
0.222378
0.225592
0.229143
0.233035
0.237264
0.241825
0.246695
0.251855
0.257256
0.262867
0.268591
0.2744
0.28011
0.285741
0.290931
0.295863
0.29979
0.303356
0.304904
0.306397
0.303677
0.302631
0.292002
0.289247
0.262467
0.263543
0.199308
0.225365
0.0629676
0.186247
0.0529198
0.170686
0.190402
0.205181
0.202848
0.20616
0.203785
0.20554
0.204351
0.205083
0.204527
0.204816
0.204562
0.204661
0.204555
0.204617
0.204645
0.204799
0.205015
0.205366
0.20584
0.206476
0.207283
0.208287
0.209504
0.210956
0.21266
0.214635
0.216896
0.219461
0.222342
0.225553
0.2291
0.232989
0.237215
0.241771
0.246638
0.251794
0.25719
0.262794
0.26851
0.274309
0.280007
0.285623
0.290794
0.295702
0.2996
0.303133
0.304639
0.306086
0.303307
0.302201
0.291485
0.288655
0.261754
0.262732
0.198348
0.224264
0.0619439
0.185101
0.0581618
0.168857
0.189917
0.204688
0.202932
0.206148
0.203844
0.20555
0.204382
0.205098
0.204542
0.204827
0.204574
0.204671
0.204564
0.204625
0.204652
0.204805
0.205019
0.205368
0.20584
0.206474
0.207278
0.208279
0.209492
0.210941
0.212641
0.214613
0.216871
0.219432
0.22231
0.225517
0.229061
0.232947
0.23717
0.241723
0.246586
0.251738
0.257129
0.262727
0.268435
0.274225
0.279911
0.285512
0.290665
0.29555
0.299421
0.302921
0.304387
0.305788
0.302952
0.301785
0.29099
0.288081
0.261072
0.261942
0.197438
0.223186
0.0610057
0.183977
0.0631645
0.167212
0.189416
0.204176
0.202991
0.206134
0.203919
0.205558
0.204416
0.205118
0.204561
0.204841
0.204587
0.204683
0.204575
0.204636
0.204661
0.204813
0.205025
0.205372
0.205842
0.206473
0.207275
0.208273
0.209483
0.210928
0.212625
0.214593
0.216848
0.219406
0.222281
0.225485
0.229026
0.232909
0.237129
0.24168
0.246539
0.251687
0.257073
0.262666
0.268367
0.274147
0.279822
0.285408
0.290544
0.295407
0.299251
0.302719
0.304146
0.305502
0.302611
0.301383
0.290515
0.287523
0.260419
0.26117
0.196575
0.22213
0.0601495
0.18287
0.0679396
0.165744
0.18891
0.20365
0.203023
0.206116
0.204008
0.205567
0.204456
0.205142
0.204584
0.204858
0.204603
0.204698
0.204589
0.204648
0.204672
0.204822
0.205033
0.205379
0.205846
0.206475
0.207274
0.208269
0.209476
0.210918
0.212612
0.214577
0.216829
0.219383
0.222255
0.225457
0.228996
0.232876
0.237093
0.241641
0.246498
0.251642
0.257024
0.26261
0.268305
0.274076
0.27974
0.285312
0.29043
0.295271
0.29909
0.302525
0.303915
0.305226
0.302284
0.300994
0.290058
0.28698
0.259795
0.260417
0.195759
0.221095
0.0593722
0.181774
0.0724981
0.164442
0.188404
0.203116
0.203029
0.206091
0.204107
0.205583
0.204498
0.205172
0.204613
0.204878
0.204623
0.204715
0.204605
0.204663
0.204686
0.204835
0.205044
0.205387
0.205853
0.20648
0.207276
0.208268
0.209472
0.210912
0.212603
0.214565
0.216813
0.219365
0.222234
0.225433
0.22897
0.232847
0.237062
0.241608
0.246461
0.251602
0.25698
0.262561
0.268249
0.274011
0.279665
0.285222
0.290324
0.295142
0.298936
0.30234
0.303694
0.30496
0.301969
0.300617
0.289619
0.286452
0.259197
0.259679
0.194987
0.220077
0.058671
0.180686
0.0768505
0.163297
0.187908
0.202582
0.203011
0.206059
0.204215
0.205607
0.204543
0.205205
0.204647
0.204904
0.204647
0.204736
0.204625
0.204682
0.204703
0.20485
0.205058
0.205399
0.205863
0.206487
0.207281
0.208271
0.209472
0.210909
0.212597
0.214556
0.216802
0.219351
0.222218
0.225415
0.228949
0.232824
0.237037
0.24158
0.24643
0.251568
0.256941
0.262518
0.268199
0.273953
0.279595
0.285138
0.290224
0.29502
0.29879
0.302162
0.303482
0.304703
0.301666
0.300251
0.289196
0.285936
0.258624
0.258957
0.194259
0.219077
0.0580429
0.179603
0.0810068
0.1623
0.187426
0.202051
0.202969
0.206017
0.20433
0.20564
0.204595
0.205241
0.204688
0.204934
0.204675
0.204761
0.204649
0.204704
0.204724
0.20487
0.205075
0.205415
0.205876
0.206499
0.20729
0.208278
0.209476
0.21091
0.212596
0.214552
0.216795
0.219342
0.222206
0.225401
0.228933
0.232806
0.237017
0.241557
0.246405
0.251539
0.256909
0.26248
0.268155
0.2739
0.279532
0.285061
0.29013
0.294905
0.298651
0.301991
0.303278
0.304454
0.301373
0.299894
0.288789
0.285433
0.258076
0.258249
0.193572
0.218092
0.0574855
0.17852
0.0849767
0.161441
0.186962
0.20153
0.202908
0.205968
0.204448
0.20568
0.204657
0.20528
0.204736
0.20497
0.20471
0.204791
0.204678
0.20473
0.204749
0.204893
0.205097
0.205435
0.205894
0.206515
0.207304
0.208289
0.209485
0.210916
0.212599
0.214553
0.216793
0.219337
0.2222
0.225392
0.228922
0.232793
0.237002
0.24154
0.246386
0.251517
0.256883
0.262448
0.268116
0.273853
0.279475
0.284989
0.290043
0.294795
0.298518
0.301827
0.303081
0.304212
0.301091
0.299546
0.288396
0.284941
0.257552
0.257554
0.192927
0.21712
0.0569963
0.177436
0.0887694
0.16071
0.186522
0.201022
0.20283
0.205911
0.204568
0.205728
0.204731
0.205324
0.20479
0.205012
0.20475
0.204826
0.204711
0.204762
0.204779
0.204921
0.205123
0.205459
0.205917
0.206535
0.207322
0.208305
0.209498
0.210927
0.212608
0.214559
0.216797
0.219339
0.222199
0.22539
0.228918
0.232787
0.236994
0.24153
0.246373
0.251501
0.256862
0.262423
0.268084
0.273812
0.279423
0.284923
0.289961
0.294692
0.298392
0.301669
0.302892
0.303978
0.300818
0.299208
0.288018
0.284459
0.257051
0.256871
0.192322
0.216162
0.056573
0.176346
0.0923938
0.1601
0.186107
0.200531
0.20274
0.205848
0.204688
0.205784
0.204818
0.205373
0.204849
0.20506
0.204797
0.204867
0.204751
0.204798
0.204815
0.204955
0.205155
0.205489
0.205945
0.206561
0.207346
0.208326
0.209518
0.210944
0.212622
0.214571
0.216806
0.219346
0.222205
0.225393
0.228919
0.232787
0.236992
0.241526
0.246366
0.251491
0.256848
0.262403
0.268058
0.273777
0.279377
0.284863
0.289885
0.294594
0.298272
0.301517
0.30271
0.30375
0.300554
0.298877
0.287653
0.283987
0.256572
0.2562
0.191756
0.215215
0.0562134
0.17525
0.0958585
0.159601
0.185719
0.20006
0.20264
0.205781
0.204807
0.205847
0.204916
0.205429
0.204914
0.205115
0.204852
0.204915
0.204797
0.204841
0.204856
0.204994
0.205193
0.205525
0.205978
0.206593
0.207375
0.208353
0.209543
0.210967
0.212643
0.214589
0.216822
0.21936
0.222217
0.225404
0.228928
0.232794
0.236997
0.241529
0.246366
0.251487
0.256841
0.26239
0.268038
0.273748
0.279338
0.284809
0.289815
0.294502
0.298157
0.301371
0.302534
0.303529
0.300299
0.298553
0.2873
0.283525
0.256115
0.25554
0.191228
0.214279
0.0559155
0.174145
0.0991715
0.159206
0.18536
0.199611
0.202534
0.205712
0.204924
0.205916
0.205028
0.205495
0.204987
0.205176
0.204913
0.204969
0.20485
0.204891
0.204904
0.20504
0.205237
0.205567
0.206018
0.206631
0.207411
0.208387
0.209574
0.210996
0.21267
0.214613
0.216845
0.219381
0.222236
0.225421
0.228944
0.232808
0.237009
0.241538
0.246373
0.251491
0.25684
0.262384
0.268025
0.273725
0.279304
0.284761
0.28975
0.294415
0.298048
0.30123
0.302364
0.303313
0.300051
0.298237
0.28696
0.283071
0.255678
0.254891
0.190737
0.213353
0.0556775
0.17303
0.102341
0.158906
0.185031
0.199187
0.202426
0.205644
0.205039
0.205991
0.205152
0.205571
0.205069
0.205244
0.204982
0.205031
0.204911
0.204948
0.204959
0.205092
0.205288
0.205616
0.206065
0.206675
0.207454
0.208428
0.209613
0.211033
0.212704
0.214646
0.216875
0.219409
0.222262
0.225446
0.228967
0.232829
0.237028
0.241556
0.246388
0.251502
0.256847
0.262384
0.268018
0.273709
0.279276
0.284718
0.289691
0.294333
0.297944
0.301094
0.302201
0.303103
0.299812
0.297927
0.286632
0.282626
0.255261
0.254252
0.190282
0.212436
0.0554974
0.171901
0.105373
0.158693
0.184732
0.198788
0.202317
0.205578
0.205153
0.206071
0.205287
0.205658
0.205162
0.205319
0.205059
0.205101
0.204979
0.205012
0.205022
0.205152
0.205346
0.205672
0.20612
0.206728
0.207505
0.208476
0.209659
0.211077
0.212746
0.214685
0.216913
0.219445
0.222297
0.225479
0.228998
0.232859
0.237056
0.241581
0.24641
0.25152
0.25686
0.262392
0.268018
0.273699
0.279255
0.284681
0.289638
0.294257
0.297846
0.300964
0.302043
0.302898
0.299579
0.297624
0.286315
0.282189
0.254864
0.253622
0.189862
0.211527
0.0553737
0.170759
0.108277
0.158562
0.184463
0.198415
0.202212
0.205517
0.205267
0.206157
0.205433
0.205759
0.205266
0.205402
0.205144
0.205178
0.205055
0.205084
0.205092
0.205221
0.205412
0.205736
0.206182
0.206788
0.207563
0.208533
0.209714
0.211129
0.212796
0.214733
0.216959
0.21949
0.22234
0.22552
0.229038
0.232897
0.237092
0.241614
0.24644
0.251547
0.256882
0.262407
0.268025
0.273695
0.27924
0.28465
0.28959
0.294186
0.297753
0.300838
0.301891
0.302699
0.299354
0.297327
0.286009
0.28176
0.254486
0.253002
0.189478
0.210625
0.0553049
0.169602
0.111057
0.158505
0.184223
0.19807
0.202112
0.205463
0.205382
0.20625
0.205588
0.205872
0.205384
0.205495
0.205237
0.205263
0.205139
0.205165
0.205172
0.205297
0.205487
0.205809
0.206253
0.206857
0.20763
0.208598
0.209777
0.21119
0.212855
0.21479
0.217014
0.219543
0.222391
0.22557
0.229087
0.232944
0.237137
0.241656
0.246479
0.251581
0.256911
0.262429
0.26804
0.273699
0.279231
0.284625
0.289548
0.294121
0.297666
0.300717
0.301744
0.302504
0.299136
0.297036
0.285714
0.281339
0.254128
0.25239
0.189127
0.209731
0.0552893
0.168428
0.113721
0.158516
0.184014
0.197751
0.20202
0.205417
0.2055
0.20635
0.205753
0.205999
0.205516
0.205599
0.20534
0.205358
0.205233
0.205254
0.205259
0.205382
0.205571
0.20589
0.206333
0.206935
0.207706
0.208672
0.209849
0.21126
0.212923
0.214856
0.217079
0.219606
0.222453
0.22563
0.229145
0.233
0.23719
0.241707
0.246527
0.251624
0.256949
0.26246
0.268061
0.273709
0.279229
0.284606
0.289512
0.294061
0.297583
0.300601
0.301603
0.302315
0.298925
0.296751
0.28543
0.280925
0.253787
0.251787
0.188809
0.208843
0.0553256
0.167238
0.116274
0.158589
0.183833
0.19746
0.201936
0.20538
0.205622
0.206459
0.205927
0.20614
0.205664
0.205716
0.205455
0.205461
0.205335
0.205352
0.205357
0.205477
0.205664
0.205982
0.206422
0.207023
0.207792
0.208756
0.209931
0.21134
0.213001
0.214932
0.217153
0.219679
0.222524
0.225699
0.229212
0.233066
0.237254
0.241768
0.246584
0.251677
0.256995
0.262498
0.268091
0.273727
0.279234
0.284594
0.289482
0.294006
0.297506
0.30049
0.301467
0.302131
0.298721
0.296472
0.285156
0.280518
0.253465
0.251193
0.188525
0.207961
0.0554126
0.166029
0.118723
0.158719
0.183681
0.197195
0.201861
0.205354
0.205749
0.206579
0.20611
0.206293
0.205827
0.205848
0.205581
0.205575
0.205448
0.20546
0.205463
0.205581
0.205767
0.206082
0.206521
0.20712
0.207888
0.20885
0.210023
0.21143
0.213089
0.215019
0.217237
0.219762
0.222605
0.225779
0.229291
0.233142
0.237328
0.241838
0.24665
0.251738
0.25705
0.262545
0.268129
0.273753
0.279246
0.284588
0.289458
0.293957
0.297435
0.300384
0.301336
0.301951
0.298523
0.296198
0.284892
0.280118
0.25316
0.250607
0.188272
0.207085
0.055549
0.164801
0.121071
0.158901
0.183556
0.196957
0.201798
0.20534
0.205882
0.206709
0.206303
0.20646
0.206007
0.205996
0.205722
0.2057
0.205571
0.205578
0.20558
0.205696
0.20588
0.206194
0.206631
0.207228
0.207994
0.208955
0.210126
0.211531
0.213188
0.215116
0.217333
0.219856
0.222698
0.22587
0.22938
0.233229
0.237412
0.241919
0.246727
0.251809
0.257115
0.262602
0.268175
0.273786
0.279265
0.284589
0.28944
0.293914
0.297369
0.300283
0.301211
0.301776
0.298331
0.29593
0.284638
0.279725
0.252873
0.250029
0.188051
0.206214
0.0557336
0.163554
0.123325
0.159131
0.183459
0.196744
0.201747
0.205337
0.206022
0.206852
0.206507
0.206641
0.206203
0.206161
0.205879
0.205839
0.205705
0.205707
0.205707
0.20582
0.206004
0.206316
0.206752
0.207347
0.208112
0.209071
0.210241
0.211644
0.213298
0.215225
0.21744
0.219961
0.222802
0.225973
0.22948
0.233327
0.237507
0.242011
0.246814
0.25189
0.257189
0.262667
0.26823
0.273828
0.279292
0.284597
0.289429
0.293876
0.297308
0.300187
0.301091
0.301607
0.298146
0.295667
0.284393
0.279339
0.252602
0.24946
0.187862
0.205348
0.0559654
0.162287
0.125488
0.159403
0.183387
0.196557
0.201707
0.205347
0.206169
0.207008
0.206723
0.206836
0.206414
0.206345
0.206053
0.205993
0.205853
0.205847
0.205846
0.205956
0.206139
0.206449
0.206884
0.207478
0.208241
0.209198
0.210367
0.211768
0.213421
0.215345
0.217559
0.220079
0.222918
0.226087
0.229592
0.233436
0.237614
0.242114
0.246912
0.251982
0.257273
0.262742
0.268294
0.273878
0.279327
0.284612
0.289424
0.293845
0.297253
0.300096
0.300976
0.301442
0.297968
0.29541
0.284159
0.27896
0.25235
0.248899
0.187703
0.204487
0.0562435
0.161
0.127565
0.159714
0.183341
0.196395
0.201681
0.20537
0.206325
0.207178
0.206951
0.207046
0.206642
0.206546
0.206245
0.206163
0.206015
0.206
0.205997
0.206104
0.206285
0.206594
0.207028
0.207621
0.208382
0.209338
0.210505
0.211904
0.213555
0.215479
0.217691
0.220209
0.223047
0.226214
0.229717
0.233558
0.237732
0.242228
0.247021
0.252085
0.257368
0.262827
0.268367
0.273936
0.27937
0.284634
0.289426
0.293819
0.297204
0.300011
0.300867
0.301282
0.297796
0.295158
0.283934
0.278588
0.252113
0.248345
0.187574
0.203631
0.0565668
0.159692
0.12956
0.16006
0.18332
0.196257
0.201666
0.205406
0.206489
0.20736
0.207193
0.207272
0.206886
0.206767
0.206457
0.206351
0.206193
0.206168
0.206161
0.206264
0.206444
0.206751
0.207184
0.207776
0.208536
0.209491
0.210656
0.212054
0.213703
0.215625
0.217836
0.220353
0.223188
0.226353
0.229855
0.233693
0.237864
0.242355
0.247142
0.252199
0.257474
0.262922
0.26845
0.274004
0.279421
0.284665
0.289435
0.2938
0.297161
0.29993
0.300764
0.301127
0.29763
0.294913
0.283719
0.278224
0.251894
0.247801
0.187475
0.202779
0.0569345
0.158364
0.131478
0.160438
0.183323
0.196142
0.201665
0.205454
0.206661
0.207557
0.207448
0.207515
0.207146
0.207006
0.206689
0.206559
0.206389
0.206351
0.206339
0.206438
0.206616
0.206922
0.207354
0.207944
0.208704
0.209657
0.210821
0.212217
0.213865
0.215785
0.217995
0.22051
0.223344
0.226507
0.230006
0.233841
0.238008
0.242494
0.247276
0.252325
0.257591
0.263028
0.268543
0.274081
0.279481
0.284703
0.289451
0.293788
0.297124
0.299856
0.300666
0.300977
0.297471
0.294673
0.283514
0.277867
0.251691
0.247264
0.187405
0.201932
0.0573458
0.157014
0.13332
0.160843
0.183349
0.19605
0.201677
0.205516
0.206842
0.207766
0.207716
0.207776
0.207423
0.207265
0.206943
0.206789
0.206605
0.206552
0.206533
0.206627
0.206803
0.207106
0.207537
0.208126
0.208885
0.209837
0.211
0.212395
0.214041
0.21596
0.218168
0.220681
0.223513
0.226675
0.230171
0.234003
0.238166
0.242647
0.247422
0.252464
0.25772
0.263145
0.268646
0.274168
0.279549
0.284749
0.289475
0.293782
0.297094
0.299787
0.300574
0.300833
0.297319
0.294439
0.283318
0.277517
0.251505
0.246736
0.187365
0.201089
0.0577999
0.155643
0.135092
0.161274
0.183398
0.195981
0.201702
0.205589
0.207032
0.207989
0.207998
0.208055
0.207719
0.207543
0.207217
0.20704
0.206842
0.206772
0.206745
0.206831
0.207004
0.207305
0.207735
0.208322
0.20908
0.210032
0.211194
0.212587
0.214232
0.216149
0.218356
0.220868
0.223698
0.226857
0.23035
0.234179
0.238338
0.242813
0.247582
0.252615
0.25786
0.263273
0.26876
0.274265
0.279627
0.284803
0.289507
0.293783
0.297069
0.299724
0.300488
0.300695
0.297173
0.294211
0.283132
0.277174
0.251335
0.246217
0.187354
0.200251
0.0582961
0.154252
0.136796
0.161726
0.183468
0.195934
0.201741
0.205676
0.20723
0.208223
0.208292
0.208352
0.208033
0.207841
0.207512
0.207315
0.207102
0.207013
0.206975
0.207053
0.207222
0.207519
0.207948
0.208534
0.209291
0.210242
0.211402
0.212794
0.214438
0.216354
0.218559
0.22107
0.223898
0.227055
0.230545
0.23437
0.238524
0.242994
0.247755
0.252779
0.258014
0.263413
0.268886
0.274372
0.279715
0.284867
0.289546
0.293792
0.297052
0.299667
0.300409
0.300561
0.297034
0.293989
0.282955
0.27684
0.251181
0.245707
0.187371
0.199417
0.0588338
0.152839
0.138434
0.162198
0.18356
0.195909
0.201792
0.205774
0.207437
0.20847
0.208599
0.208666
0.208366
0.20816
0.207829
0.207613
0.207385
0.207278
0.207227
0.207295
0.207457
0.207751
0.208177
0.208762
0.209518
0.210468
0.211627
0.213018
0.214661
0.216575
0.218779
0.221288
0.224114
0.227268
0.230756
0.234577
0.238726
0.243189
0.247943
0.252957
0.25818
0.263566
0.269022
0.27449
0.279812
0.284939
0.289594
0.293808
0.297041
0.299616
0.300335
0.300434
0.296902
0.293774
0.282789
0.276513
0.251044
0.245205
0.187417
0.198588
0.0594124
0.151405
0.140011
0.162688
0.183671
0.195904
0.201857
0.205885
0.207653
0.208728
0.208917
0.208997
0.208718
0.208501
0.208168
0.207934
0.207693
0.207566
0.207501
0.207557
0.207713
0.208001
0.208424
0.209007
0.209762
0.210711
0.211869
0.213259
0.2149
0.216813
0.219016
0.221523
0.224347
0.227499
0.230983
0.2348
0.238943
0.2434
0.248145
0.253149
0.25836
0.263731
0.269171
0.274618
0.279919
0.28502
0.28965
0.293831
0.297037
0.299571
0.300268
0.300313
0.296777
0.293566
0.282632
0.276194
0.250923
0.244714
0.18749
0.197764
0.0600314
0.149951
0.141528
0.163192
0.183802
0.19592
0.201935
0.206008
0.207876
0.208996
0.209246
0.209344
0.209089
0.208864
0.208529
0.20828
0.208026
0.20788
0.2078
0.207842
0.207989
0.208271
0.20869
0.20927
0.210024
0.210971
0.212129
0.213517
0.215157
0.217069
0.21927
0.221775
0.224597
0.227746
0.231227
0.235039
0.239177
0.243626
0.248362
0.253356
0.258554
0.26391
0.269332
0.274759
0.280038
0.285112
0.289715
0.293863
0.297041
0.299534
0.300207
0.300198
0.296659
0.293364
0.282485
0.275884
0.250819
0.244231
0.187592
0.196946
0.0606902
0.148477
0.142988
0.163709
0.183951
0.195955
0.202026
0.206143
0.208108
0.209275
0.209586
0.209705
0.209477
0.209249
0.208912
0.208649
0.208385
0.208221
0.208125
0.208152
0.208288
0.208563
0.208977
0.209554
0.210305
0.211251
0.212407
0.213794
0.215433
0.217344
0.219543
0.222046
0.224866
0.228012
0.231488
0.235296
0.239427
0.243869
0.248596
0.253577
0.258762
0.264102
0.269506
0.274911
0.280166
0.285213
0.289789
0.293903
0.297052
0.299503
0.300153
0.300089
0.296549
0.293169
0.282349
0.275583
0.250731
0.243759
0.187722
0.196132
0.0613884
0.146982
0.144393
0.164237
0.184119
0.19601
0.202131
0.20629
0.208349
0.209564
0.209935
0.210079
0.209881
0.209654
0.209319
0.209044
0.20877
0.208589
0.208477
0.208488
0.208613
0.208877
0.209286
0.209858
0.210606
0.21155
0.212705
0.214091
0.215728
0.217637
0.219835
0.222336
0.225153
0.228296
0.231768
0.235571
0.239695
0.244129
0.248846
0.253815
0.258986
0.264308
0.269693
0.275075
0.280306
0.285324
0.289872
0.293951
0.297071
0.299479
0.300106
0.299988
0.296446
0.292982
0.282223
0.275291
0.250659
0.243298
0.187879
0.195324
0.0621256
0.145468
0.145746
0.164774
0.184303
0.196083
0.202249
0.206449
0.208598
0.209862
0.210293
0.210466
0.210299
0.210079
0.209749
0.209463
0.20918
0.208984
0.208858
0.208852
0.208963
0.209217
0.209618
0.210185
0.21093
0.211871
0.213024
0.214408
0.216044
0.217952
0.220147
0.222646
0.225461
0.2286
0.232067
0.235864
0.239982
0.244406
0.249112
0.254069
0.259224
0.264528
0.269893
0.275252
0.280458
0.285446
0.289965
0.294007
0.297098
0.299463
0.300066
0.299893
0.296351
0.292803
0.282107
0.275009
0.250604
0.242847
0.188063
0.194523
0.0629014
0.143935
0.147049
0.165319
0.184504
0.196175
0.202379
0.20662
0.208855
0.210169
0.21066
0.210864
0.21073
0.210522
0.2102
0.209906
0.209617
0.209407
0.209268
0.209246
0.209342
0.209584
0.209976
0.210537
0.211277
0.212215
0.213366
0.214748
0.216381
0.218287
0.220481
0.222977
0.225788
0.228923
0.232386
0.236177
0.240287
0.244702
0.249396
0.254339
0.259479
0.264764
0.270108
0.275441
0.280622
0.285579
0.290068
0.294073
0.297133
0.299455
0.300034
0.299805
0.296264
0.292632
0.282002
0.274736
0.250566
0.242407
0.188275
0.193727
0.0637154
0.142383
0.148303
0.16587
0.184721
0.196284
0.202523
0.206802
0.209121
0.210486
0.211035
0.211273
0.211174
0.210981
0.210671
0.210374
0.210079
0.209858
0.209706
0.209669
0.209751
0.20998
0.210362
0.210914
0.211649
0.212583
0.213731
0.21511
0.216742
0.218645
0.220836
0.22333
0.226138
0.229268
0.232726
0.23651
0.240611
0.245016
0.249699
0.254627
0.259749
0.265015
0.270336
0.275645
0.280797
0.285723
0.29018
0.294148
0.297177
0.299454
0.300009
0.299725
0.296185
0.292468
0.281908
0.274474
0.250544
0.24198
0.188514
0.192939
0.0645675
0.140813
0.149511
0.166425
0.184953
0.196411
0.20268
0.206996
0.209395
0.210811
0.211418
0.211691
0.211629
0.211454
0.211161
0.210865
0.210567
0.210336
0.210174
0.210122
0.210191
0.210406
0.210776
0.21132
0.212048
0.212976
0.214121
0.215497