/*--------------------------------*- C++ -*----------------------------------*\
| =========                 |                                                 |
| \\      /  F ield         | OpenFOAM: The Open Source CFD Toolbox           |
|  \\    /   O peration     | Version:  2.4.0                                 |
|   \\  /    A nd           | Web:      www.OpenFOAM.org                      |
|    \\/     M anipulation  |                                                 |
\*---------------------------------------------------------------------------*/
FoamFile
{
    version     2.0;
    format      ascii;
    class       volScalarField;
    location    "6.38";
    object      epsilon;
}
// * * * * * * * * * * * * * * * * * * * * * * * * * * * * * * * * * * * * * //

dimensions      [0 2 -3 0 0 0 0];

internalField   nonuniform List<scalar> 
6000
(
54.173
1.09757
0.0202901
0.134482
0.0725457
0.0863289
0.0616069
0.0575613
0.046103
0.0419191
0.036472
0.0341779
0.0321251
0.0317562
0.0319917
0.0333362
0.0353895
0.0383649
0.0421344
0.0468137
0.0523808
0.058898
0.066356
0.0747539
0.0840326
0.0941122
0.104865
0.116112
0.127599
0.139
0.149903
0.159825
0.168218
0.174462
0.177925
0.178014
0.174244
0.166257
0.154042
0.137861
0.118708
0.0978839
0.0775392
0.0674175
0.104941
0.160887
0.23878
0.353031
0.501055
0.721749
0.979037
1.40229
1.81207
2.67799
3.24055
5.27043
5.70178
11.4393
10.3372
29.1853
17.7229
0.975459
0.025369
0.0742195
0.0418215
0.0473864
0.0343734
0.0316225
0.0254888
0.0230015
0.0200298
0.0186534
0.0174679
0.0171318
0.0171232
0.0176575
0.0185367
0.019841
0.0214998
0.0235493
0.0259672
0.028767
0.0319335
0.0354568
0.039306
0.0434457
0.0478259
0.0523811
0.0570227
0.061639
0.0660926
0.0702233
0.0738479
0.0767514
0.0787205
0.0795338
0.0789929
0.0769208
0.0732314
0.0679075
0.0611783
0.0533954
0.0453538
0.0419561
0.0604257
0.0863229
0.120512
0.168075
0.227696
0.312883
0.411437
0.5665
0.721288
1.02579
1.24745
1.93392
2.16555
4.03091
3.93506
9.817
7.13598
0.71115
0.030307
0.043542
0.0252882
0.0273076
0.0200748
0.0182024
0.0147588
0.0132368
0.0115518
0.0107189
0.0100315
0.00980109
0.00976478
0.010018
0.0104602
0.0111233
0.0119699
0.0130124
0.0142374
0.0156478
0.0172348
0.0189921
0.0209055
0.0229602
0.0251363
0.0274085
0.0297429
0.0320973
0.0344197
0.0366489
0.0387131
0.0405265
0.0420026
0.043038
0.0435334
0.0433866
0.0425185
0.0408658
0.038463
0.0354055
0.0320501
0.0312568
0.0419867
0.0563348
0.0743769
0.098109
0.126768
0.165613
0.209954
0.275897
0.343534
0.46607
0.565437
0.828344
0.954015
1.63521
1.71423
3.76155
3.42004
0.518233
0.0345358
0.0274544
0.0160621
0.0164816
0.0122295
0.0109325
0.00891192
0.00795575
0.00697055
0.00646573
0.00607202
0.00594037
0.00593355
0.00609529
0.00637327
0.0067812
0.00729985
0.00793437
0.00867803
0.00953194
0.0104918
0.0115547
0.0127141
0.0139635
0.0152943
0.0166951
0.018151
0.0196428
0.021147
0.0226355
0.0240723
0.0254261
0.0266463
0.0276805
0.0284749
0.0289714
0.0291175
0.0288647
0.028208
0.0271699
0.0259321
0.0263006
0.0333281
0.0424251
0.0534775
0.0673818
0.0837329
0.104822
0.128657
0.161917
0.196879
0.25444
0.305874
0.421179
0.493359
0.77354
0.859534
1.65178
1.89782
0.395525
0.0386504
0.0190397
0.0107891
0.0104254
0.00776285
0.00683685
0.00559855
0.0049829
0.00439342
0.00409078
0.00387428
0.0038183
0.00384847
0.00398555
0.00420183
0.00450394
0.00488231
0.00533983
0.0058736
0.00648446
0.00717055
0.00793036
0.00876069
0.00965817
0.0106183
0.0116354
0.0127015
0.0138069
0.0149398
0.0160859
0.0172278
0.0183536
0.0194332
0.020439
0.0213419
0.0221084
0.0227055
0.0230988
0.0232732
0.0232234
0.023051
0.0239689
0.0290247
0.0353993
0.0429417
0.0520975
0.062693
0.075834
0.0906957
0.110287
0.13151
0.16323
0.194283
0.253012
0.298926
0.430261
0.498105
0.842283
1.19136
0.318419
0.0429762
0.0149622
0.0077692
0.00694119
0.00514208
0.00445159
0.00365707
0.00325069
0.00289243
0.00271653
0.00260899
0.00260643
0.00266701
0.00280106
0.00299377
0.0032491
0.00356262
0.00393653
0.00436995
0.00486376
0.00541723
0.00602964
0.00669929
0.00742448
0.008203
0.00903197
0.00990763
0.0108254
0.0117797
0.0127637
0.0137713
0.0147958
0.0158193
0.016826
0.0177982
0.0187146
0.0195517
0.0202836
0.0208937
0.0213675
0.0217677
0.0229552
0.0268702
0.0316928
0.0372719
0.0438362
0.0513351
0.0603403
0.0705737
0.0834677
0.0979056
0.117787
0.138995
0.173347
0.205777
0.27608
0.328276
0.496717
0.829185
0.268834
0.047567
0.0135342
0.0061235
0.00490764
0.00357066
0.00302465
0.0024873
0.00221124
0.00199153
0.00189597
0.00185615
0.00188964
0.00197199
0.00210879
0.00229235
0.00252562
0.00280707
0.00313874
0.00352089
0.00395455
0.00443974
0.00497639
0.00556398
0.00620209
0.00689023
0.00762765
0.00841321
0.0092454
0.0101221
0.01104
0.011999
0.0129919
0.0140076
0.0150357
0.0160636
0.0170758
0.0180546
0.0189799
0.0198373
0.0206098
0.021339
0.0226636
0.0258671
0.0297303
0.0341137
0.0391312
0.0447899
0.0513945
0.0589173
0.0680558
0.0785735
0.0921738
0.107763
0.130088
0.154642
0.196854
0.238158
0.329351
0.628421
0.235882
0.0523305
0.0138405
0.00540422
0.00373699
0.00262082
0.00215505
0.00176721
0.00157226
0.00143685
0.00139239
0.00139497
0.00145229
0.00154961
0.00169041
0.00187106
0.00209425
0.00236011
0.00267079
0.00302728
0.00343092
0.00388242
0.00438241
0.00493137
0.00552998
0.00617902
0.0068791
0.0076306
0.00843356
0.00928744
0.010191
0.011144
0.0121402
0.0131717
0.0142304
0.0153064
0.0163876
0.0174598
0.0185076
0.0195194
0.0204748
0.0214068
0.0228016
0.0255317
0.0287581
0.0323582
0.0363814
0.040861
0.0459587
0.0517561
0.0585866
0.0665917
0.0764609
0.088384
0.103985
0.123209
0.150893
0.18415
0.237472
0.510221
0.213249
0.0571112
0.0153574
0.00536372
0.0031186
0.00205795
0.00162276
0.00131865
0.00117278
0.00108868
0.00107662
0.00110602
0.00117933
0.00128737
0.00143272
0.00161415
0.00183435
0.00209451
0.00239698
0.00274337
0.00313542
0.00357446
0.0040618
0.0045987
0.00518662
0.00582709
0.00652149
0.00727087
0.00807594
0.00893672
0.00985254
0.0108219
0.0118395
0.0128991
0.0139936
0.0151145
0.0162518
0.0173937
0.0185283
0.0196463
0.0207199
0.0217853
0.0232142
0.0256115
0.0283894
0.0314428
0.034785
0.0384599
0.0425498
0.0471808
0.0524977
0.0587926
0.0662726
0.0756328
0.0871098
0.102406
0.121788
0.148693
0.181804
0.437373
0.197245
0.0617384
0.0177426
0.00586847
0.00289309
0.0017532
0.00130511
0.00104101
0.000922076
0.000868378
0.000876635
0.000923352
0.00100797
0.00112457
0.00127528
0.00146033
0.00168253
0.00194379
0.00224674
0.00259351
0.00298628
0.0034269
0.00391723
0.00445904
0.00505427
0.00570484
0.00641249
0.00717847
0.00800372
0.00888837
0.00983107
0.0108296
0.0118793
0.0129745
0.0141086
0.0152737
0.0164613
0.0176611
0.0188634
0.0200586
0.0212137
0.0223704
0.0238125
0.0259649
0.0284106
0.031062
0.0339113
0.0370065
0.0403844
0.0441862
0.0484567
0.0535375
0.0594028
0.0669111
0.0756925
0.0880229
0.102287
0.124108
0.145773
0.390905
0.185658
0.0660577
0.0207412
0.00683904
0.00298452
0.00163816
0.00113382
0.000877076
0.00076839
0.000731086
0.000751645
0.000809894
0.000903241
0.00102756
0.00118471
0.00137584
0.0016039
0.00187134
0.00218109
0.00253575
0.00293787
0.00338974
0.00389359
0.00445154
0.00506573
0.00573829
0.00647105
0.00726529
0.00812193
0.00904081
0.0100193
0.0110551
0.0121439
0.0132798
0.0144566
0.0156664
0.0169016
0.0181528
0.0194121
0.0206636
0.0218787
0.0230994
0.0245415
0.0265064
0.0286957
0.0310378
0.0335133
0.036171
0.0390212
0.0422071
0.0457198
0.0499067
0.054631
0.0607698
0.0677037
0.0777828
0.0887089
0.106523
0.121407
0.360498
0.177122
0.0699514
0.0241405
0.00822576
0.00335303
0.0016807
0.00107231
0.000794749
0.000682257
0.000651105
0.000678343
0.000744493
0.000845188
0.000977127
0.00114195
0.00134131
0.00157837
0.00185595
0.00217732
0.00254545
0.00296322
0.00343326
0.00395803
0.00453985
0.00518095
0.00588352
0.00664937
0.00747966
0.00837522
0.009335
0.0103554
0.0114342
0.0125667
0.0137471
0.0149688
0.016224
0.0175054
0.0188039
0.0201117
0.021405
0.0226661
0.0239317
0.0253649
0.027181
0.0291652
0.0312601
0.0334406
0.0357544
0.0381969
0.0409072
0.0438479
0.0473545
0.0512395
0.0563426
0.061958
0.0703206
0.0789674
0.093671
0.104369
0.340228
0.170763
0.0733479
0.0277501
0.00998268
0.00397863
0.00187242
0.00110324
0.00077701
0.000647327
0.000613874
0.000643396
0.000714961
0.000822256
0.000962085
0.00113579
0.00134531
0.00159397
0.00188492
0.0022217
0.00260762
0.00304583
0.00353919
0.00409034
0.00470166
0.0053754
0.00611371
0.00691834
0.00779026
0.00873019
0.00973532
0.010802
0.0119277
0.0131073
0.0143348
0.015603
0.0169039
0.0182302
0.0195731
0.0209203
0.0222465
0.023543
0.0248393
0.0262571
0.0279511
0.0297659
0.0316569
0.0335962
0.0356304
0.037746
0.0400762
0.0425689
0.0455416
0.0487863
0.0530881
0.0577277
0.0647684
0.0717955
0.0841006
0.0921043
0.326536
0.166004
0.0762217
0.031398
0.0120561
0.0048537
0.00221366
0.00122199
0.000816346
0.00065526
0.000611512
0.000639352
0.000714345
0.000827756
0.000975873
0.00115961
0.001381
0.00164351
0.0019505
0.00230581
0.002713
0.00317544
0.00369615
0.00427787
0.00492301
0.00563372
0.0064121
0.00725981
0.0081775
0.00916578
0.0102194
0.0113355
0.0125108
0.0137399
0.015016
0.0163315
0.0176778
0.0190478
0.0204317
0.0218091
0.0231628
0.0244861
0.0258017
0.0271991
0.0287896
0.0304606
0.0321782
0.0339144
0.0357142
0.0375593
0.0395765
0.0417067
0.0442482
0.0469884
0.0506555
0.0545489
0.0605573
0.0663911
0.076841
0.0830345
0.317206
0.162446
0.0785872
0.0349345
0.0143791
0.00597304
0.00270781
0.00143334
0.0009118
0.000702953
0.000640381
0.000662423
0.000738927
0.000857999
0.0010148
0.00120963
0.00144443
0.00172274
0.0020481
0.00242458
0.00285593
0.00334571
0.00389705
0.00451272
0.0051951
0.00594621
0.00676803
0.00766213
0.00862878
0.00966796
0.0107726
0.0119403
0.013167
0.0144468
0.0157723
0.0171353
0.0185265
0.0199385
0.0213566
0.022759
0.024135
0.0254776
0.026803
0.0281757
0.0296758
0.0312214
0.032788
0.0343485
0.0359465
0.0375616
0.0393141
0.0411424
0.0433269
0.0456577
0.0488106
0.0521162
0.0573046
0.0622304
0.0712315
0.076156
0.310816
0.159806
0.0804882
0.0382382
0.0168705
0.00732506
0.00336142
0.00174632
0.00106756
0.000791103
0.000699791
0.000711289
0.000787145
0.00091129
0.00107709
0.00128396
0.00153354
0.00182942
0.0021752
0.00257512
0.00303314
0.0035529
0.0041376
0.00479002
0.00551243
0.00630669
0.00717464
0.00811773
0.00913582
0.0102276
0.0113849
0.0126056
0.0138848
0.015216
0.0165909
0.0180007
0.0194353
0.0208861
0.0223312
0.0237551
0.0251484
0.0265033
0.0278305
0.0291746
0.0305931
0.0320268
0.0334588
0.0348638
0.0362842
0.0376988
0.0392222
0.040793
0.0426749
0.0446649
0.0473924
0.0502223
0.0547479
0.0589624
0.0668161
0.0708147
0.306431
0.157877
0.0819865
0.0412212
0.019439
0.00888695
0.00418253
0.00216896
0.00129244
0.000923554
0.000791356
0.000786488
0.000859016
0.000987375
0.00116231
0.00138204
0.00164766
0.0019627
0.00233072
0.00275613
0.00324299
0.00379501
0.00441542
0.00510692
0.00587169
0.00671133
0.00762755
0.00862168
0.00969312
0.0108385
0.0120496
0.0133238
0.0146559
0.0160381
0.0174617
0.0189172
0.0203934
0.0218757
0.0233439
0.0247855
0.0261909
0.0275515
0.0288732
0.0301848
0.0315279
0.0328593
0.0341689
0.0354335
0.0366943
0.0379306
0.0392519
0.040598
0.0422184
0.0439183
0.0462868
0.0487227
0.0527027
0.0563455
0.0632758
0.0665737
0.303426
0.156499
0.0831519
0.0438308
0.02199
0.010622
0.00517424
0.00271057
0.00159707
0.00110711
0.000918739
0.000890117
0.000955837
0.00108714
0.00127113
0.00150438
0.00178713
0.00212277
0.0025147
0.00296741
0.00348504
0.00407132
0.00472944
0.005462
0.00627104
0.00715787
0.00812402
0.00917075
0.010297
0.0114961
0.0127614
0.0140893
0.0154738
0.0169064
0.0183773
0.0198766
0.0213891
0.0228971
0.0243851
0.0258399
0.0272522
0.0286121
0.0299214
0.0311968
0.0324683
0.0337044
0.0349005
0.0360359
0.0371511
0.038226
0.0393657
0.0405124
0.0419028
0.0433509
0.0454111
0.0475139
0.051037
0.0542096
0.0603844
0.0631348
0.301375
0.155549
0.0840541
0.0460473
0.0244341
0.0124796
0.00633133
0.00338126
0.00199035
0.00135161
0.00108762
0.00102573
0.00108005
0.00121244
0.00140508
0.00165232
0.00195315
0.0023107
0.00272802
0.00320966
0.00375977
0.00438205
0.00507959
0.00585487
0.00670973
0.00764517
0.00866251
0.00976296
0.0109441
0.0121975
0.0135168
0.0148978
0.0163337
0.0178151
0.0193312
0.0208706
0.0224123
0.0239425
0.0254461
0.0269096
0.0283231
0.029676
0.0309663
0.0322017
0.0334035
0.0345491
0.0356384
0.0366533
0.0376334
0.0385602
0.0395345
0.0405013
0.0416864
0.0429124
0.0447037
0.0465196
0.0496541
0.0524325
0.0579784
0.0602893
0.299986
0.154932
0.0847573
0.0478791
0.0266946
0.0143978
0.00763751
0.00418742
0.00248248
0.00166685
0.00130583
0.00119838
0.0012352
0.00136605
0.00156651
0.00182797
0.00214764
0.00252823
0.00297227
0.0034843
0.00406839
0.00472816
0.00546656
0.00628591
0.00718781
0.00817292
0.00924229
0.0103972
0.0116329
0.0129403
0.0143129
0.0157458
0.0172315
0.0187595
0.0203181
0.0218894
0.0234564
0.0250049
0.0265195
0.0279863
0.0293951
0.0307346
0.0319996
0.0331909
0.0343238
0.0353821
0.0363694
0.0372702
0.0381236
0.0389126
0.0397345
0.0405372
0.0415366
0.042564
0.0441176
0.0456829
0.0484816
0.0509238
0.0559381
0.0578885
0.299055
0.154568
0.0853167
0.0493557
0.0287138
0.0163081
0.00906404
0.00512913
0.00308327
0.00206161
0.0015832
0.00141467
0.00142596
0.00155162
0.00175852
0.00203411
0.00237316
0.00277777
0.00324967
0.00379334
0.0044127
0.00511122
0.00589166
0.0067561
0.00770595
0.00874141
0.00986328
0.011073
0.0123622
0.0137229
0.0151475
0.0166304
0.0181638
0.0197356
0.0213287
0.0229276
0.0245157
0.0260777
0.027598
0.0290625
0.0304605
0.03178
0.0330134
0.0341564
0.03522
0.0361928
0.0370816
0.0378732
0.0386065
0.0392661
0.0399462
0.0405975
0.0414276
0.0422754
0.0436163
0.0449599
0.0474648
0.0496161
0.0541741
0.0558237
0.298442
0.154397
0.0857773
0.0505205
0.0304564
0.0181421
0.0105701
0.0061977
0.00379924
0.00254594
0.0019284
0.00168295
0.00165823
0.00177372
0.00198493
0.00227419
0.0026329
0.00306231
0.00356302
0.00413938
0.00479506
0.00553333
0.0063567
0.00726695
0.00826527
0.00935141
0.0105258
0.0117904
0.0131314
0.014544
0.0160187
0.0175494
0.0191274
0.0207352
0.0223583
0.0239804
0.0255845
0.0271546
0.0286749
0.0301309
0.0315116
0.0328044
0.034
0.0350902
0.0360833
0.0369714
0.0377639
0.0384501
0.0390687
0.0396057
0.0401529
0.0406637
0.0413378
0.0420219
0.0431708
0.0443163
0.046561
0.0484579
0.0526189
0.0540144
0.298046
0.154368
0.0861738
0.0514238
0.0319091
0.0198381
0.0121052
0.00737401
0.00463147
0.00312827
0.00235058
0.00201193
0.00193917
0.00203781
0.00225032
0.00255228
0.0029306
0.00338534
0.0039156
0.00452547
0.00521829
0.00599703
0.0068639
0.00782034
0.00886729
0.0100041
0.0112307
0.0125488
0.01394
0.0154028
0.016925
0.0185001
0.0201151
0.0217545
0.0234028
0.0250428
0.0266573
0.0282295
0.0297435
0.0311844
0.0325409
0.0338002
0.0349516
0.0359845
0.0369051
0.0377084
0.0384062
0.0389899
0.039498
0.0399185
0.0403402
0.0407197
0.0412494
0.0417834
0.0427577
0.0437247
0.0457369
0.047409
0.0512207
0.0523997
0.2978
0.154442
0.0865316
0.0521173
0.0330787
0.0213466
0.0136133
0.00862797
0.00557348
0.00381369
0.00285836
0.00241006
0.00227698
0.00235028
0.00255992
0.00287298
0.0032705
0.00375086
0.00431113
0.00495509
0.00568557
0.00650522
0.00741582
0.00841845
0.00951381
0.0107008
0.0119788
0.0133484
0.0147879
0.0162983
0.0178635
0.0194765
0.021124
0.0227899
0.0244578
0.02611
0.0277286
0.0292964
0.030797
0.0322158
0.033541
0.0347597
0.0358606
0.0368313
0.037677
0.0383949
0.0389987
0.0394821
0.0398835
0.0401924
0.0404955
0.0407519
0.0411475
0.0415432
0.0423577
0.0431631
0.0449657
0.0464379
0.0499391
0.0509329
0.297654
0.154587
0.0868679
0.0526497
0.0339878
0.0226345
0.0150383
0.00991964
0.00660961
0.00460205
0.00345823
0.00288537
0.00267962
0.00271865
0.0029196
0.00324141
0.00365728
0.00416321
0.00475371
0.00543204
0.00620043
0.00706106
0.00801528
0.0090637
0.0102068
0.0114431
0.0127713
0.0141896
0.0156747
0.0172265
0.01883
0.0204763
0.022151
0.0238377
0.0255191
0.0271769
0.0287927
0.0303488
0.0318288
0.0332179
0.0345044
0.0356754
0.0367192
0.0376228
0.0383906
0.0390221
0.0395323
0.0399171
0.0402149
0.0404168
0.0406073
0.0407481
0.0410188
0.0412869
0.0419549
0.0426134
0.0442259
0.0455196
0.0487423
0.0495776
0.297576
0.154779
0.0871933
0.0530638
0.0346697
0.0236864
0.0163297
0.0112019
0.00771425
0.00548613
0.00415287
0.00344434
0.00315421
0.00315009
0.00333665
0.00366299
0.00409585
0.00462699
0.00524764
0.00596035
0.00676655
0.0076679
0.00866522
0.0097586
0.0109483
0.0122325
0.0136094
0.0150704
0.0165968
0.0181857
0.0198226
0.0214966
0.0231928
0.0248939
0.026582
0.0282382
0.0298436
0.0313803
0.0328318
0.0341833
0.0354234
0.0365393
0.0375196
0.038351
0.0390378
0.0395813
0.0399979
0.0402855
0.0404827
0.0405819
0.0406654
0.0406977
0.040852
0.0410023
0.0415357
0.0420606
0.0435
0.0446336
0.0476051
0.0483051
0.297541
0.155
0.0875136
0.0533958
0.0351633
0.0245041
0.0174474
0.0124246
0.00885246
0.00645012
0.00493948
0.00409054
0.00370652
0.00365052
0.00381682
0.00414437
0.0045922
0.00514683
0.00579726
0.00654407
0.00738767
0.00832911
0.00936859
0.0105056
0.0117396
0.0130685
0.0144902
0.0159899
0.0175531
0.0191743
0.020839
0.0225347
0.0242457
0.0259542
0.0276414
0.0292881
0.0308751
0.0323841
0.0337987
0.0351045
0.0362902
0.0373436
0.0382537
0.0390078
0.0396103
0.040064
0.0403868
0.0405787
0.0406778
0.0406784
0.0406605
0.040591
0.0406371
0.040679
0.0410886
0.0414921
0.0427734
0.0437636
0.0465071
0.0470927
0.297533
0.155235
0.0878311
0.0536739
0.0355089
0.0251039
0.0183658
0.0135399
0.00998194
0.00746902
0.00580806
0.00482306
0.00433979
0.00422448
0.00436473
0.00468988
0.00515074
0.0057278
0.00640718
0.00718719
0.00806709
0.00904717
0.010127
0.0113054
0.0125808
0.0139516
0.0154131
0.0169474
0.0185423
0.0201901
0.0218762
0.0235868
0.0253054
0.0270135
0.0286918
0.0303205
0.0318804
0.0333529
0.034722
0.0359735
0.0370966
0.03808
0.0389133
0.0395849
0.0400996
0.0404619
0.0406907
0.040788
0.0407918
0.0406979
0.040584
0.0404194
0.0403651
0.0403076
0.0406038
0.0408973
0.0420341
0.0428959
0.045432
0.045922
0.297542
0.155474
0.0881457
0.0539194
0.035745
0.0255124
0.0190745
0.0145067
0.0110566
0.00850912
0.00674028
0.00563487
0.00505337
0.00487409
0.00498336
0.00530267
0.0057746
0.00637294
0.00708031
0.00789245
0.00880724
0.00982413
0.010942
0.0121589
0.0134727
0.014882
0.0163777
0.0179415
0.0195622
0.0212303
0.0229309
0.024649
0.0263671
0.0280664
0.0297269
0.0313287
0.0328521
0.034279
0.0355935
0.0367819
0.0378342
0.03874
0.0394901
0.0400741
0.0404976
0.0407667
0.0409014
0.0409053
0.0408166
0.0406324
0.040428
0.040175
0.0400282
0.0398801
0.0400728
0.0402672
0.0412721
0.0420195
0.0443664
0.0447781
0.29756
0.155711
0.0884561
0.0541475
0.0359053
0.0257629
0.0195785
0.0152955
0.0120311
0.00952997
0.00770914
0.00651156
0.0058412
0.00559777
0.00567307
0.00598386
0.00646523
0.0070839
0.00781837
0.0086615
0.0096096
0.0106612
0.0118144
0.0130667
0.0144151
0.015859
0.0173824
0.0189699
0.0206099
0.0222914
0.0239987
0.025716
0.027425
0.0291064
0.0307398
0.032305
0.0337824
0.035154
0.0364045
0.037521
0.0384941
0.0393148
0.0399753
0.0404668
0.0407959
0.0409702
0.0410107
0.040923
0.0407447
0.0404746
0.0401854
0.0398508
0.0396194
0.0393895
0.0394884
0.0395942
0.040479
0.0411252
0.0432995
0.043649
0.297582
0.15594
0.0887603
0.0543679
0.036018
0.0258909
0.0198953
0.0158906
0.0128657
0.0104876
0.00867975
0.0074305
0.00669051
0.00638892
0.00643049
0.00673161
0.00722164
0.0078602
0.00862123
0.00949438
0.0104742
0.0115583
0.0127439
0.0140278
0.0154067
0.0168795
0.0184246
0.0200294
0.0216815
0.0233685
0.0250743
0.0267818
0.0284725
0.0301263
0.0317227
0.0332412
0.0346625
0.035969
0.037146
0.0381814
0.0390671
0.0397954
0.0403602
0.0407545
0.0409862
0.0410643
0.041011
0.0408334
0.0405689
0.0402176
0.0398495
0.0394405
0.0391324
0.0388297
0.0388443
0.038872
0.0396478
0.0402054
0.0422223
0.0425249
0.297606
0.156158
0.0890563
0.0545863
0.0361053
0.0259308
0.0200516
0.016291
0.0135303
0.0113388
0.00961147
0.00836101
0.0075809
0.00723471
0.00724729
0.0075401
0.00803941
0.0086984
0.00948615
0.0103888
0.0113991
0.0125133
0.0137282
0.0150399
0.0164448
0.0179398
0.0195003
0.0211153
0.0227717
0.0244557
0.0261509
0.0278393
0.0295017
0.0311177
0.0326666
0.034128
0.035483
0.0367142
0.0378081
0.0387535
0.0395436
0.0401724
0.0406356
0.0409285
0.0410603
0.0410413
0.0408949
0.0406297
0.0402827
0.0398552
0.0394145
0.0389384
0.0385619
0.0381955
0.0381353
0.0380952
0.038773
0.039254
0.0411278
0.0413977
0.297629
0.156365
0.0893421
0.0548054
0.0361834
0.0259136
0.0200796
0.0165089
0.014008
0.0120459
0.0104613
0.00926572
0.00848418
0.00811516
0.00810915
0.0083984
0.00890973
0.00959114
0.0104069
0.0113395
0.0123793
0.0135219
0.014763
0.0160984
0.0175245
0.0190345
0.0206036
0.0222212
0.0238734
0.0255455
0.0272204
0.0288796
0.0305033
0.0320709
0.0335616
0.0349552
0.0362332
0.0373791
0.0383802
0.0392268
0.0399135
0.0404361
0.0407924
0.0409802
0.0410098
0.0408935
0.0406551
0.0403051
0.0398798
0.0393818
0.0388751
0.0383397
0.0379033
0.0374823
0.0373572
0.0372594
0.0378499
0.038266
0.0400102
0.040261
0.29765
0.156558
0.0896164
0.0550259
0.0362633
0.0258653
0.0200128
0.0165673
0.0142961
0.0125809
0.0111883
0.0101031
0.00936523
0.00900292
0.00899499
0.00928964
0.00981847
0.0105263
0.0113729
0.0123369
0.0134066
0.0145762
0.015841
0.0171961
0.0186389
0.0201562
0.0217266
0.0233386
0.0249777
0.0266284
0.0282731
0.0298925
0.0314668
0.032975
0.0343964
0.0357113
0.0369017
0.0379522
0.0388512
0.0395904
0.0401663
0.0405766
0.0408214
0.0409008
0.040827
0.0406135
0.0402851
0.0398536
0.0393549
0.0387923
0.0382269
0.0376403
0.0371528
0.0366867
0.0365063
0.0363613
0.036875
0.0372376
0.0388649
0.0391095
0.297669
0.156739
0.0898782
0.0552472
0.0363517
0.0258066
0.0198833
0.0164962
0.0144054
0.0129286
0.0117579
0.0108314
0.0101841
0.0098639
0.00987676
0.0101904
0.0107454
0.011486
0.0123683
0.0133671
0.0144681
0.0156645
0.016951
0.0183224
0.0197766
0.0212944
0.0228586
0.0244566
0.0260735
0.027693
0.0292969
0.0308659
0.0323796
0.0338173
0.0351584
0.0363837
0.0374761
0.0384214
0.0392092
0.0398331
0.0402913
0.0405838
0.0407131
0.0406819
0.0405039
0.0401943
0.0397786
0.0392698
0.038703
0.0380826
0.0374661
0.0368368
0.0363073
0.0358059
0.0355802
0.0353982
0.0358455
0.036166
0.0376887
0.0379394
0.297685
0.156907
0.0901271
0.0554679
0.0364519
0.0257523
0.0197196
0.0163288
0.014358
0.0130882
0.0121461
0.0114128
0.0108991
0.0106591
0.0107202
0.0110709
0.011664
0.0124463
0.0133714
0.0144101
0.0155459
0.0167702
0.0180776
0.0194626
0.0209225
0.0224351
0.0239859
0.0255616
0.0271469
0.0287252
0.0302779
0.0317856
0.0332277
0.0345836
0.0358334
0.0369585
0.0379428
0.0387734
0.0394416
0.0399429
0.0402774
0.0404475
0.0404583
0.0403151
0.0400333
0.0396296
0.03913
0.0385489
0.0379203
0.0372493
0.0365898
0.0359268
0.0353648
0.034838
0.034577
0.0343685
0.0347597
0.035049
0.036479
0.0367474
0.297699
0.157063
0.0903628
0.0556866
0.0365649
0.0257124
0.019545
0.0160978
0.0141836
0.0130722
0.0123427
0.0118178
0.0114711
0.0113472
0.0114863
0.0118953
0.0125416
0.0133769
0.014354
0.0154402
0.016616
0.0178714
0.0192005
0.0205976
0.0220586
0.0235607
0.0250911
0.0266363
0.028181
0.0297083
0.0311995
0.0326351
0.0339946
0.035258
0.0364059
0.0374205
0.0382872
0.0389944
0.0395353
0.0399075
0.0401134
0.0401576
0.0400481
0.0397926
0.0394085
0.0389137
0.0383347
0.0376871
0.0370035
0.0362899
0.0355961
0.0349088
0.0343241
0.033782
0.033496
0.0332713
0.0336168
0.0338856
0.0352344
0.0355315
0.297711
0.157208
0.0905856
0.0559017
0.0366898
0.0256926
0.019377
0.0158331
0.013916
0.0129046
0.0123514
0.0120294
0.0118678
0.011889
0.0121343
0.0126242
0.0133404
0.0142419
0.0152821
0.0164252
0.0176485
0.0189401
0.0202934
0.0217028
0.0231618
0.0246491
0.026153
0.0276604
0.0291559
0.0306228
0.0320425
0.0333956
0.0346623
0.0358227
0.0368586
0.0377533
0.0384936
0.0390697
0.0394768
0.0397147
0.0397881
0.0397043
0.0394738
0.0391072
0.0386233
0.0380416
0.0373889
0.0366815
0.0359507
0.0352031
0.0344843
0.0337825
0.033185
0.0326381
0.0323372
0.0321068
0.0324167
0.0326755
0.0339542
0.0342903
0.29772
0.157344
0.0907961
0.056112
0.0368249
0.0256954
0.0192282
0.0155598
0.0135889
0.0126172
0.0121898
0.0120448
0.0120682
0.0122512
0.0126252
0.0132168
0.0140196
0.0150011
0.0161164
0.0173271
0.0186072
0.0199422
0.0213245
0.0227482
0.0242042
0.0256737
0.0271462
0.0286093
0.030048
0.0314459
0.0327849
0.0340461
0.0352101
0.0362582
0.037173
0.0379393
0.0385456
0.0389841
0.0392521
0.0393519
0.0392905
0.0390781
0.0387277
0.0382525
0.0376729
0.0370098
0.03629
0.0355306
0.0347612
0.0339888
0.0332548
0.0325485
0.0319486
0.0314072
0.0311018
0.0308758
0.0311602
0.0314192
0.0326386
0.0330232
0.297728
0.15747
0.0909948
0.0563164
0.0369679
0.0257208
0.0191061
0.0152973
0.0132334
0.0122451
0.0118862
0.0118758
0.012065
0.012411
0.0129261
0.0136347
0.0145383
0.015612
0.0168139
0.0181035
0.0194508
0.0208381
0.0222561
0.0236984
0.0251522
0.0266028
0.0280408
0.0294545
0.0308301
0.0321517
0.033402
0.0345629
0.0356158
0.0365432
0.0373291
0.03796
0.0384262
0.0387221
0.0388475
0.038807
0.0386104
0.0382705
0.0378027
0.0372232
0.0365536
0.0358159
0.035037
0.0342343
0.0334358
0.0326485
0.0319093
0.031209
0.0306171
0.0300915
0.0297918
0.0295804
0.0298492
0.0301182
0.0312885
0.0317305
0.297734
0.157588
0.0911825
0.0565142
0.0371165
0.0257671
0.0190143
0.0150595
0.0128754
0.0118235
0.0114756
0.0115471
0.0118663
0.012359
0.0130142
0.0138463
0.0148592
0.0160337
0.0173311
0.0187094
0.0201342
0.0215836
0.0230456
0.0245125
0.0259678
0.0274004
0.0288026
0.0301639
0.0314717
0.0327113
0.0338665
0.0349202
0.0358552
0.0366552
0.0373061
0.0377962
0.038118
0.0382683
0.0382494
0.0380686
0.0377383
0.0372739
0.0366936
0.0360156
0.0352633
0.0344594
0.0336306
0.0327944
0.0319769
0.0311851
0.0304514
0.0297675
0.029194
0.0286945
0.0284106
0.0282235
0.0284863
0.0287745
0.0299057
0.0304129
0.297738
0.157698
0.0913601
0.0567051
0.0372685
0.0258318
0.0189536
0.0148548
0.0125352
0.011384
0.0109956
0.011093
0.0114943
0.0121018
0.0128807
0.0138308
0.0149527
0.0162302
0.0176273
0.0191006
0.0206112
0.022132
0.0236468
0.025146
0.0266082
0.0280262
0.0293936
0.0307016
0.0319392
0.0330932
0.0341488
0.0350904
0.0359025
0.0365707
0.0370825
0.0374286
0.0376038
0.0376077
0.0374452
0.0371264
0.0366662
0.0360827
0.0353965
0.0346282
0.0338022
0.032942
0.0320736
0.0312147
0.0303892
0.0296037
0.0288862
0.0282291
0.0276844
0.027221
0.0269626
0.0268091
0.0270752
0.0273913
0.0284927
0.0290721
0.297742
0.157802
0.0915283
0.0568889
0.037422
0.0259118
0.0189224
0.0146875
0.0122269
0.0109529
0.0104824
0.0105528
0.0109827
0.0116608
0.0125326
0.0135816
0.0148013
0.016175
0.0176686
0.0192373
0.0208378
0.0224367
0.0240125
0.0255519
0.0270285
0.0284372
0.0297731
0.0310293
0.0321966
0.0332638
0.0342177
0.0350449
0.0357316
0.0362656
0.0366367
0.0368382
0.0368674
0.0367268
0.036424
0.0359719
0.0353882
0.0346934
0.0339105
0.0330619
0.032173
0.0312678
0.0303715
0.0295015
0.0286794
0.0279115
0.0272209
0.0266011
0.026095
0.0256771
0.0254535
0.0253423
0.0256204
0.0259723
0.0270528
0.0277103
0.297744
0.157901
0.091688
0.0570655
0.0375754
0.0260039
0.0189179
0.0145585
0.0119591
0.0105499
0.00996769
0.00996631
0.0103723
0.0110703
0.0119928
0.0131089
0.0144028
0.0158552
0.0174325
0.019089
0.0207768
0.0224558
0.0240977
0.0256841
0.0271831
0.0285893
0.0298991
0.0311073
0.0322069
0.0331885
0.0340416
0.0347545
0.0353161
0.0357166
0.0359484
0.0360075
0.0358942
0.0356138
0.0351769
0.0345993
0.0339012
0.0331057
0.0322374
0.0313208
0.0303817
0.0294442
0.0285328
0.0276641
0.0268573
0.0261181
0.025465
0.0248923
0.0244343
0.0240708
0.0238905
0.0238295
0.0241278
0.0245226
0.0255902
0.0263306
0.297746
0.157994
0.09184
0.0572353
0.0377274
0.0261053
0.0189367
0.014466
0.0117357
0.0101883
0.00947655
0.00936975
0.00970605
0.0103731
0.0112978
0.0124389
0.0137723
0.0152748
0.0169123
0.0186386
0.0204022
0.022156
0.023864
0.025501
0.0270292
0.0284402
0.0297306
0.0308968
0.0319335
0.0328338
0.0335894
0.0341914
0.0346314
0.0349021
0.0349991
0.0349213
0.0346721
0.0342601
0.0336987
0.0330064
0.0322061
0.0313229
0.0303832
0.0294128
0.0284379
0.0274825
0.0265695
0.025715
0.0249355
0.024236
0.0236305
0.0231141
0.0227129
0.0224115
0.0222823
0.0222784
0.022604
0.0230477
0.0241099
0.0249366
0.297747
0.158082
0.0919851
0.0573984
0.0378771
0.0262134
0.0189748
0.014407
0.011557
0.00987567
0.009027
0.00879324
0.00902442
0.00961532
0.0104933
0.0116122
0.0129419
0.0144559
0.0161197
0.0178872
0.0197043
0.0215181
0.0232845
0.0249701
0.0265312
0.0279529
0.0292309
0.0303622
0.031343
0.0321686
0.0328332
0.0333308
0.0336556
0.0338038
0.0337739
0.0335683
0.0331937
0.0326615
0.0319884
0.0311957
0.0303083
0.0293533
0.0283586
0.0273509
0.0263561
0.025398
0.0244978
0.0236706
0.0229301
0.0222807
0.0217322
0.0212803
0.0209432
0.0207106
0.020639
0.0206978
0.021057
0.0215544
0.0226175
0.0235326
0.297748
0.158167
0.092124
0.0575554
0.038024
0.0263259
0.0190287
0.0143773
0.0114207
0.00961455
0.00863018
0.00825921
0.00836188
0.00884129
0.00962914
0.010679
0.0119581
0.0134384
0.015086
0.0168559
0.0186935
0.0205417
0.0223488
0.0240731
0.025665
0.0271002
0.0283716
0.0294753
0.0304084
0.0311679
0.0317505
0.0321529
0.0323725
0.0324088
0.0322637
0.031943
0.0314567
0.0308196
0.0300513
0.0291755
0.0282192
0.0272112
0.0261801
0.0251532
0.024156
0.0232111
0.0223383
0.0215512
0.0208611
0.0202714
0.0197879
0.0194072
0.0191404
0.0189815
0.0189725
0.0190981
0.019496
0.0200505
0.0211199
0.0221238
0.297749
0.158249
0.0922575
0.0577065
0.0381675
0.0264411
0.0190948
0.0143725
0.011323
0.00940406
0.00829125
0.00778223
0.00774474
0.00808931
0.00875335
0.00969316
0.0108767
0.0122765
0.0138605
0.0155868
0.0174025
0.0192487
0.0210681
0.0228113
0.024424
0.0258697
0.0271368
0.0282188
0.0291124
0.0298156
0.0303271
0.0306463
0.0307737
0.030712
0.0304668
0.0300473
0.029467
0.0287438
0.0279
0.0269618
0.0259578
0.0249177
0.023871
0.0228444
0.021863
0.0209479
0.0201169
0.0193822
0.0187525
0.0182304
0.0178186
0.0175139
0.0173214
0.0172394
0.0172963
0.0174911
0.0179313
0.0185445
0.0196243
0.020716
0.297749
0.158328
0.0923862
0.0578524
0.0383075
0.0265575
0.0191704
0.0143883
0.0112592
0.00924077
0.00801069
0.00736982
0.00719061
0.00738897
0.00790756
0.00870662
0.00975678
0.0110329
0.0125065
0.0141404
0.0158856
0.0176848