/*--------------------------------*- C++ -*----------------------------------*\
| =========                 |                                                 |
| \\      /  F ield         | OpenFOAM: The Open Source CFD Toolbox           |
|  \\    /   O peration     | Version:  2.4.0                                 |
|   \\  /    A nd           | Web:      www.OpenFOAM.org                      |
|    \\/     M anipulation  |                                                 |
\*---------------------------------------------------------------------------*/
FoamFile
{
    version     2.0;
    format      ascii;
    class       volScalarField;
    location    "5.45";
    object      nut;
}
// * * * * * * * * * * * * * * * * * * * * * * * * * * * * * * * * * * * * * //

dimensions      [0 2 -1 0 0 0 0];

internalField   nonuniform List<scalar> 
6000
(
4.7015e-05
1.44417e-05
4.24755e-06
8.77709e-06
7.78857e-06
8.92561e-06
8.56588e-06
8.93815e-06
8.81176e-06
9.01833e-06
9.05602e-06
9.28545e-06
9.49746e-06
9.84766e-06
1.02458e-05
1.07506e-05
1.13198e-05
1.19706e-05
1.26808e-05
1.34507e-05
1.42656e-05
1.51177e-05
1.5993e-05
1.6879e-05
1.77607e-05
1.8624e-05
1.94543e-05
2.02371e-05
2.09566e-05
2.15962e-05
2.21388e-05
2.25664e-05
2.28612e-05
2.30037e-05
2.29752e-05
2.2758e-05
2.2336e-05
2.16936e-05
2.0822e-05
1.97153e-05
1.839e-05
1.68736e-05
1.52434e-05
1.45447e-05
1.62705e-05
1.80649e-05
1.98067e-05
2.16238e-05
2.32356e-05
2.49854e-05
2.62631e-05
2.79489e-05
2.86559e-05
3.0482e-05
3.02473e-05
3.27593e-05
3.08868e-05
3.52264e-05
3.06997e-05
3.82499e-05
2.94897e-05
9.50748e-06
3.16519e-06
7.01521e-06
6.32248e-06
7.0163e-06
6.77367e-06
7.00659e-06
6.93331e-06
7.07932e-06
7.13449e-06
7.32433e-06
7.52429e-06
7.82855e-06
8.18469e-06
8.62524e-06
9.12525e-06
9.69172e-06
1.03105e-05
1.09788e-05
1.16865e-05
1.24266e-05
1.31899e-05
1.39679e-05
1.47521e-05
1.5535e-05
1.631e-05
1.70716e-05
1.78146e-05
1.85353e-05
1.92315e-05
1.99035e-05
2.05548e-05
2.11912e-05
2.18253e-05
2.24807e-05
2.31964e-05
2.40361e-05
2.51031e-05
2.65687e-05
2.87084e-05
3.196e-05
3.67626e-05
3.9273e-05
3.41486e-05
3.01661e-05
2.74063e-05
2.54788e-05
2.42234e-05
2.34194e-05
2.28809e-05
2.26705e-05
2.23614e-05
2.25495e-05
2.21015e-05
2.27844e-05
2.17664e-05
2.34022e-05
2.12374e-05
2.44006e-05
2.14309e-05
8.16038e-06
2.81359e-06
5.88991e-06
5.32639e-06
5.68168e-06
5.49666e-06
5.63047e-06
5.59171e-06
5.70581e-06
5.78874e-06
5.98023e-06
6.21289e-06
6.54313e-06
6.94558e-06
7.43793e-06
8.00909e-06
8.66143e-06
9.38825e-06
1.01864e-05
1.10501e-05
1.19744e-05
1.29539e-05
1.39845e-05
1.50632e-05
1.61889e-05
1.73632e-05
1.85902e-05
1.98774e-05
2.1237e-05
2.26872e-05
2.42548e-05
2.59786e-05
2.79035e-05
3.00955e-05
3.26595e-05
3.57457e-05
3.95818e-05
4.45069e-05
5.10515e-05
5.99821e-05
7.23825e-05
8.87668e-05
9.62411e-05
7.93922e-05
6.46411e-05
5.32593e-05
4.42778e-05
3.7698e-05
3.2461e-05
2.87351e-05
2.56307e-05
2.34811e-05
2.15888e-05
2.02689e-05
1.91618e-05
1.81713e-05
1.77952e-05
1.66642e-05
1.71762e-05
1.78746e-05
7.96953e-06
2.98757e-06
5.26063e-06
4.70356e-06
4.76723e-06
4.593e-06
4.64892e-06
4.63206e-06
4.73526e-06
4.8596e-06
5.09182e-06
5.40622e-06
5.8385e-06
6.38641e-06
7.06282e-06
7.8719e-06
8.81837e-06
9.90643e-06
1.11377e-05
1.25147e-05
1.40384e-05
1.57115e-05
1.75374e-05
1.95233e-05
2.16792e-05
2.40207e-05
2.65689e-05
2.93533e-05
3.24132e-05
3.58016e-05
3.959e-05
4.38763e-05
4.87316e-05
5.4317e-05
6.08452e-05
6.86029e-05
7.79988e-05
8.95933e-05
0.000104189
0.000122785
0.000146533
0.000174714
0.000185995
0.000158335
0.000131002
0.000107794
8.79698e-05
7.23287e-05
5.91547e-05
4.92782e-05
4.07094e-05
3.46823e-05
2.90342e-05
2.54827e-05
2.16426e-05
1.96565e-05
1.70056e-05
1.58861e-05
1.43652e-05
1.67546e-05
8.44521e-06
3.53506e-06
5.03886e-06
4.40555e-06
4.18444e-06
3.9787e-06
3.96423e-06
3.96021e-06
4.06981e-06
4.25464e-06
4.57175e-06
5.03089e-06
5.66203e-06
6.48917e-06
7.53244e-06
8.81905e-06
1.0367e-05
1.22006e-05
1.43358e-05
1.67921e-05
1.95846e-05
2.27314e-05
2.62512e-05
3.01676e-05
3.45082e-05
3.93086e-05
4.46133e-05
5.04776e-05
5.69706e-05
6.41791e-05
7.2214e-05
8.11877e-05
9.11354e-05
0.000102293
0.000114908
0.000129296
0.000145889
0.000165237
0.000188079
0.000215223
0.000247387
0.000282147
0.000294753
0.000261899
0.000225693
0.000192144
0.00016123
0.000134807
0.000111126
9.20101e-05
7.4767e-05
6.17822e-05
4.9534e-05
4.13062e-05
3.26374e-05
2.79336e-05
2.17277e-05
1.93966e-05
1.56165e-05
1.71085e-05
9.39797e-06
4.39167e-06
5.14705e-06
4.41018e-06
3.8886e-06
3.60809e-06
3.51963e-06
3.52114e-06
3.65345e-06
3.92556e-06
4.38382e-06
5.07561e-06
6.04189e-06
7.3436e-06
9.02443e-06
1.11485e-05
1.37617e-05
1.69202e-05
2.06652e-05
2.50408e-05
3.00816e-05
3.58237e-05
4.23006e-05
4.95479e-05
5.76024e-05
6.65072e-05
7.63116e-05
8.7071e-05
9.8849e-05
0.00011172
0.000125784
0.000140977
0.000157307
0.000174985
0.000194182
0.000215124
0.00023813
0.000263601
0.000292085
0.000324128
0.000360038
0.000396127
0.000408488
0.000375631
0.000335849
0.00029628
0.000257541
0.000222089
0.000188521
0.000159392
0.000131997
0.000109665
8.8292e-05
7.24838e-05
5.63781e-05
4.63674e-05
3.45122e-05
2.90906e-05
2.21424e-05
1.83893e-05
1.07093e-05
5.51651e-06
5.50506e-06
4.69472e-06
3.86436e-06
3.46276e-06
3.28704e-06
3.28718e-06
3.45951e-06
3.85633e-06
4.53176e-06
5.58151e-06
7.07797e-06
9.1356e-06
1.18399e-05
1.53055e-05
1.96167e-05
2.48662e-05
3.11196e-05
3.84394e-05
4.6869e-05
5.64459e-05
6.71965e-05
7.91403e-05
9.22897e-05
0.000106657
0.000122253
0.000139084
0.000157155
0.000176469
0.000197033
0.000218499
0.000240927
0.000264431
0.000289083
0.000314998
0.00034238
0.000371496
0.000402737
0.000436493
0.00047272
0.00050718
0.00051876
0.00048894
0.000449591
0.000408081
0.000365469
0.00032431
0.000283631
0.000246159
0.000209642
0.000177701
0.000146572
0.000121341
9.61035e-05
7.81462e-05
5.86543e-05
4.7637e-05
3.64086e-05
2.02058e-05
1.22753e-05
6.86637e-06
6.06046e-06
5.205e-06
4.10954e-06
3.5432e-06
3.25977e-06
3.25131e-06
3.48374e-06
4.0564e-06
5.05209e-06
6.63266e-06
8.92425e-06
1.21104e-05
1.63297e-05
2.17483e-05
2.84836e-05
3.66485e-05
4.63129e-05
5.753e-05
7.03223e-05
8.46948e-05
0.000100631
0.000118096
0.00013704
0.000157409
0.000179141
0.000202165
0.000226401
0.00025177
0.000278086
0.000304882
0.000332244
0.000360204
0.000388754
0.000417934
0.000447863
0.000478717
0.000510786
0.000544376
0.000579077
0.000610768
0.000621576
0.000596101
0.000559526
0.000518873
0.000475465
0.00043169
0.000386949
0.000343765
0.00030047
0.000260418
0.000220698
0.000186004
0.000151561
0.000124136
9.60795e-05
7.71389e-05
6.0954e-05
2.2247e-05
1.39955e-05
8.38927e-06
6.80586e-06
5.85884e-06
4.61032e-06
3.85719e-06
3.44576e-06
3.42184e-06
3.73872e-06
4.55392e-06
6.00297e-06
8.33413e-06
1.17447e-05
1.64903e-05
2.27562e-05
3.07392e-05
4.05633e-05
5.23263e-05
6.60679e-05
8.17972e-05
9.94838e-05
0.000119071
0.000140473
0.000163578
0.000188259
0.000214385
0.00024182
0.000270417
0.000300024
0.000330501
0.000361398
0.000392355
0.000423426
0.000454579
0.000485757
0.000516946
0.000548211
0.000579663
0.000611522
0.000644023
0.000676465
0.000705198
0.000715416
0.000694573
0.000661884
0.000623716
0.000581511
0.000537395
0.000491048
0.000444646
0.000397037
0.00035107
0.000304746
0.00026192
0.000219404
0.000182527
0.000146167
0.000118043
9.69149e-05
2.42783e-05
1.57758e-05
1.00262e-05
7.74407e-06
6.59847e-06
5.31659e-06
4.40036e-06
3.85624e-06
3.8142e-06
4.24527e-06
5.38293e-06
7.44112e-06
1.07694e-05
1.56398e-05
2.23626e-05
3.11423e-05
4.21677e-05
5.55314e-05
7.12796e-05
8.93925e-05
0.000109813
0.000132442
0.000157151
0.00018378
0.00021214
0.00024203
0.000273257
0.000305623
0.000338924
0.000372954
0.000407511
0.000441942
0.000476068
0.000509877
0.000543293
0.000576224
0.000608618
0.000640503
0.000671943
0.000703109
0.000734127
0.00076419
0.000790176
0.000799999
0.000783536
0.000755084
0.000720206
0.000680356
0.000637388
0.000591166
0.000543517
0.000493663
0.000443939
0.00039307
0.000344043
0.000295116
0.000249975
0.000206321
0.000169093
0.000143497
2.61484e-05
1.75358e-05
1.17163e-05
8.86134e-06
7.41763e-06
6.14823e-06
5.13639e-06
4.48699e-06
4.43584e-06
5.01629e-06
6.56068e-06
9.38548e-06
1.39442e-05
2.057e-05
2.95915e-05
4.11945e-05
5.55182e-05
7.25942e-05
9.23938e-05
0.000114828
0.000139769
0.000167052
0.000196481
0.000227829
0.000260844
0.000295263
0.000330844
0.000367348
0.000404526
0.000442138
0.000479879
0.000517068
0.000553615
0.000589462
0.0006245
0.000658609
0.000691713
0.000723811
0.000754931
0.000785213
0.000814619
0.000842462
0.000866045
0.000875614
0.00086304
0.000838732
0.000807426
0.000770505
0.000729575
0.000684606
0.000637126
0.000586593
0.000534925
0.000481312
0.00042806
0.00037444
0.000322807
0.000273178
0.000227961
0.000198491
2.77811e-05
1.9213e-05
1.34023e-05
1.01244e-05
8.33894e-06
7.04153e-06
5.99991e-06
5.30151e-06
5.26689e-06
6.0349e-06
8.05954e-06
1.17797e-05
1.77429e-05
2.63178e-05
3.78099e-05
5.23511e-05
7.00024e-05
9.07213e-05
0.0001144
0.000140885
0.000169986
0.000201481
0.000235118
0.000270615
0.000307667
0.000345962
0.000385224
0.000425179
0.000465551
0.000506075
0.000546316
0.000585683
0.000624111
0.0006615
0.000697718
0.000732625
0.000766127
0.000798203
0.000828855
0.00085817
0.000886018
0.000911869
0.000933398
0.000942793
0.000933531
0.000913044
0.000885272
0.000851479
0.000813059
0.000770024
0.000723674
0.000673582
0.000621372
0.000566461
0.000510729
0.000453975
0.000397736
0.000343484
0.000291939
0.000259107
2.91563e-05
2.07652e-05
1.50353e-05
1.14877e-05
9.37735e-06
7.98058e-06
6.92984e-06
6.23614e-06
6.25179e-06
7.24e-06
9.79041e-06
1.44781e-05
2.19286e-05
3.25194e-05
4.64993e-05
6.39238e-05
8.47641e-05
0.000108904
0.000136164
0.000166335
0.000199177
0.000234419
0.000271763
0.000310882
0.000351424
0.000393039
0.000435423
0.000478279
0.000521305
0.00056423
0.000606456
0.000647573
0.000687483
0.000726058
0.000763143
0.000798587
0.000832281
0.000864192
0.000894304
0.000922617
0.000949032
0.000973119
0.000992901
0.00100215
0.00099562
0.000978519
0.000954064
0.000923368
0.000887647
0.000846917
0.000802306
0.000753421
0.0007017
0.000646604
0.000589812
0.000531246
0.000472129
0.000414512
0.000358426
0.000322623
3.02873e-05
2.21682e-05
1.65773e-05
1.29011e-05
1.05287e-05
8.98225e-06
7.89947e-06
7.23083e-06
7.31706e-06
8.53741e-06
1.16165e-05
1.7272e-05
2.6194e-05
3.87505e-05
5.51134e-05
7.52534e-05
9.90509e-05
0.000126324
0.000156829
0.000190313
0.000226491
0.000265056
0.000305666
0.000347955
0.000391533
0.000436016
0.000481074
0.000526395
0.000571655
0.000616551
0.000660412
0.000702956
0.000744049
0.000783542
0.000821264
0.000857054
0.000890795
0.000922447
0.000951964
0.000979286
0.0010044
0.00102692
0.0010452
0.00105428
0.00104996
0.00103577
0.00101432
0.000986553
0.000953539
0.000915274
0.000872757
0.000825581
0.000775072
0.000720622
0.000663871
0.000604575
0.000544037
0.000484171
0.000425199
0.000386728
3.12037e-05
2.34127e-05
1.80021e-05
1.43156e-05
1.17719e-05
1.00656e-05
8.91525e-06
8.25688e-06
8.40494e-06
9.83551e-06
1.33961e-05
1.99476e-05
3.0239e-05
4.46221e-05
6.31853e-05
8.58138e-05
0.000112301
0.000142407
0.000175831
0.000212283
0.000251441
0.00029296
0.000336465
0.000381551
0.000427796
0.000474781
0.000522157
0.000569596
0.000616758
0.000663285
0.000708518
0.000752235
0.00079428
0.000834483
0.000872663
0.000908653
0.00094233
0.000973653
0.00100251
0.00102889
0.0010528
0.00107393
0.0010909
0.00109977
0.00109716
0.00108543
0.00106663
0.00104155
0.00101114
0.000975359
0.000935114
0.000889955
0.000841147
0.000787947
0.000732062
0.000672896
0.000612109
0.000550955
0.000490504
0.000449631
3.19396e-05
2.45008e-05
1.92943e-05
1.56882e-05
1.30741e-05
1.12362e-05
9.99564e-06
9.31846e-06
9.49385e-06
1.10792e-05
1.50279e-05
2.23421e-05
3.38346e-05
4.98455e-05
7.03828e-05
9.52493e-05
0.000124155
0.000156808
0.000192855
0.000231969
0.000273798
0.000317961
0.000364049
0.000411626
0.000460234
0.000509422
0.000558826
0.000608104
0.000656902
0.000704792
0.000751184
0.000795871
0.00083868
0.000879425
0.000917919
0.000953989
0.000987511
0.00101843
0.0010466
0.00107207
0.00109487
0.00111473
0.00113053
0.00113913
0.00113782
0.0011281
0.00111159
0.00108893
0.00106095
0.00102759
0.000989667
0.000946694
0.000899898
0.000848376
0.000793955
0.000735595
0.000675467
0.000613836
0.000553044
0.000510034
3.25279e-05
2.54415e-05
2.04482e-05
1.6984e-05
1.43969e-05
1.24841e-05
1.11555e-05
1.04357e-05
1.05941e-05
1.22594e-05
1.64716e-05
2.4372e-05
3.68513e-05
5.42534e-05
7.65157e-05
0.000103364
0.000134425
0.00016936
0.000207761
0.000249271
0.000293502
0.000340043
0.000388452
0.000438261
0.00048898
0.000540124
0.000591315
0.000642201
0.000692414
0.000741452
0.000788825
0.000834314
0.00087773
0.000918877
0.000957562
0.000993611
0.0010269
0.00105732
0.0010848
0.00110939
0.00113114
0.00114983
0.00116455
0.00117282
0.00117245
0.00116435
0.00114978
0.00112925
0.0011035
0.00107243
0.00103681
0.000996093
0.000951493
0.00090194
0.000849405
0.000792373
0.000733589
0.000672163
0.000611916
0.000567051
3.29974e-05
2.62483e-05
2.14654e-05
1.81777e-05
1.57007e-05
1.37868e-05
1.23976e-05
1.16266e-05
1.17345e-05
1.34e-05
1.77405e-05
2.60289e-05
3.92535e-05
5.77877e-05
8.15135e-05
0.000110086
0.00014305
0.00018002
0.000220533
0.000264198
0.000310596
0.000359283
0.000409786
0.000461604
0.000514219
0.000567109
0.00061988
0.000672176
0.000723606
0.000773626
0.000821828
0.000867974
0.000911863
0.000953291
0.00099206
0.001028
0.00106095
0.00109083
0.00111761
0.00114133
0.00116207
0.00117966
0.00119338
0.00120125
0.00120151
0.00119468
0.00118173
0.00116306
0.00113931
0.00111038
0.00107699
0.00103853
0.000996212
0.000948818
0.000898455
0.000843147
0.000786215
0.000725557
0.000666529
0.000620115
3.33723e-05
2.69364e-05
2.23527e-05
1.92538e-05
1.6949e-05
1.51129e-05
1.37119e-05
1.29004e-05
1.29466e-05
1.45401e-05
1.88809e-05
2.73576e-05
4.10761e-05
6.04718e-05
8.53927e-05
0.000115434
0.000150055
0.000188828
0.000231225
0.000276827
0.000325178
0.000375803
0.000428197
0.00048183
0.00053615
0.0005906
0.000644773
0.000698306
0.000750773
0.000801641
0.000850538
0.000897214
0.000941457
0.000983058
0.00102182
0.00105754
0.00109008
0.00111939
0.00114544
0.00116831
0.00118807
0.00120461
0.00121736
0.00122476
0.0012254
0.00121953
0.00120791
0.00119083
0.00116889
0.00114193
0.00111064
0.0010744
0.00103439
0.000989274
0.000941269
0.00088798
0.000833266
0.000773841
0.000716537
0.000668896
3.36719e-05
2.7521e-05
2.31207e-05
2.02052e-05
1.81109e-05
1.64266e-05
1.50773e-05
1.42551e-05
1.42466e-05
1.57307e-05
1.99523e-05
2.84321e-05
4.23973e-05
6.23818e-05
8.82266e-05
0.000119482
0.000155519
0.000195869
0.000239936
0.000287268
0.000337374
0.000389745
0.000443846
0.000499114
0.000554969
0.000610812
0.000666224
0.00072084
0.00077419
0.000825781
0.000875255
0.000922346
0.000966837
0.00100851
0.00104716
0.00108258
0.00111465
0.00114334
0.00116865
0.00119066
0.00120946
0.00122499
0.0012368
0.00124367
0.00124448
0.00123931
0.00122875
0.00121303
0.00119267
0.00116752
0.00113822
0.00110412
0.00106641
0.00102362
0.000978079
0.000927026
0.000874788
0.000816973
0.000761766
0.000713235
3.3912e-05
2.80167e-05
2.37816e-05
2.10324e-05
1.91636e-05
1.76912e-05
1.64642e-05
1.56778e-05
1.5638e-05
1.70148e-05
2.10181e-05
2.93364e-05
4.33172e-05
6.36237e-05
9.01218e-05
0.000122338
0.000159551
0.000201258
0.000246786
0.000295649
0.000347321
0.000401257
0.000456891
0.000513629
0.00057086
0.00062794
0.000684442
0.000739999
0.000794096
0.000846298
0.000896237
0.000943638
0.000988279
0.00102993
0.00106836
0.0011034
0.00113495
0.001163
0.00118755
0.0012087
0.00122654
0.00124108
0.00125196
0.00125824
0.00125904
0.00125435
0.00124463
0.00123005
0.00121108
0.00118757
0.00116013
0.00112809
0.00109262
0.00105218
0.00100916
0.000960495
0.000910907
0.000855012
0.00080217
0.000753093
3.41047e-05
2.84367e-05
2.43486e-05
2.17411e-05
2.00924e-05
1.88727e-05
1.78371e-05
1.71455e-05
1.71128e-05
1.84012e-05
2.21656e-05
3.01531e-05
4.39421e-05
6.4317e-05
9.12023e-05
0.000124127
0.000162276
0.000205123
0.000251906
0.000302107
0.000355159
0.000410485
0.000467484
0.000525533
0.00058399
0.000642162
0.000699612
0.000755974
0.000810699
0.000863404
0.000913706
0.000961319
0.00100601
0.00104752
0.00108565
0.00112026
0.00115126
0.00117863
0.00120239
0.00122266
0.00123956
0.00125311
0.00126308
0.00126872
0.00126937
0.00126497
0.00125588
0.00124225
0.0012245
0.00120248
0.00117676
0.00114669
0.00111339
0.00107528
0.0010348
0.000988631
0.000941804
0.000888076
0.000837793
0.000788513
3.42598e-05
2.87926e-05
2.48341e-05
2.23413e-05
2.08911e-05
1.99428e-05
1.91579e-05
1.86267e-05
1.86529e-05
1.98866e-05
2.34277e-05
3.10052e-05
4.43764e-05
6.45837e-05
9.15984e-05
0.000124982
0.000163829
0.000207599
0.000255431
0.000306776
0.000361028
0.00041757
0.000475772
0.000534976
0.000594514
0.000653635
0.000711896
0.000768934
0.000824179
0.000877284
0.000927852
0.000975563
0.00102018
0.00106148
0.00109926
0.00113338
0.00116378
0.00119043
0.00121338
0.00123276
0.00124871
0.00126129
0.00127034
0.00127531
0.00127568
0.00127141
0.0012628
0.00124995
0.00123326
0.00121258
0.00118847
0.00116026
0.00112906
0.00109326
0.0010553
0.00101169
0.000967687
0.000916327
0.000868737
0.000819591
3.43849e-05
2.90943e-05
2.52501e-05
2.28449e-05
2.15608e-05
2.08809e-05
2.03896e-05
2.00841e-05
2.02303e-05
2.14567e-05
2.48078e-05
3.19712e-05
4.47712e-05
6.45428e-05
9.14405e-05
0.000125039
0.000164346
0.000208822
0.000257497
0.000309793
0.000365061
0.000422649
0.00048189
0.000542096
0.000602571
0.000662501
0.00072144
0.000779034
0.000834692
0.000888099
0.000938798
0.000986505
0.00103098
0.00107199
0.00110936
0.00114295
0.00117269
0.00119859
0.00122072
0.00123918
0.00125418
0.00126578
0.00127392
0.00127817
0.00127819
0.00127392
0.00126563
0.00125342
0.00123766
0.0012182
0.00119557
0.00116913
0.00113995
0.00110641
0.00107094
0.00102993
0.000988784
0.000939949
0.000895144
0.00084646
3.4486e-05
2.93504e-05
2.56073e-05
2.3265e-05
2.21083e-05
2.16747e-05
2.14992e-05
2.14769e-05
2.18091e-05
2.30862e-05
2.6296e-05
3.30662e-05
4.52519e-05
6.43783e-05
9.08556e-05
0.000124431
0.000163962
0.000208927
0.000258238
0.000311291
0.000367392
0.000425851
0.000485967
0.000547021
0.00060829
0.00066889
0.000728374
0.000786411
0.000842363
0.000895931
0.000946672
0.000994294
0.00103855
0.00107922
0.00111611
0.00114911
0.00117817
0.00120328
0.00122454
0.00124209
0.00125612
0.00126675
0.00127397
0.00127749
0.00127707
0.00127269
0.00126461
0.00125292
0.00123796
0.0012196
0.00119836
0.0011736
0.00114636
0.00111503
0.00108201
0.00104362
0.00100532
0.000959139
0.000917178
0.000869273
3.45679e-05
2.9568e-05
2.59149e-05
2.36148e-05
2.25452e-05
2.23206e-05
2.24606e-05
2.27643e-05
2.33471e-05
2.47404e-05
2.78697e-05
3.42884e-05
4.58504e-05
6.42319e-05
9.0082e-05
0.000123287
0.000162809
0.000208047
0.000257785
0.000311399
0.000368148
0.000427303
0.000488128
0.000549872
0.00061179
0.000672919
0.000732806
0.000791129
0.000847271
0.000900905
0.000951602
0.000999059
0.00104303
0.00108328
0.00111965
0.00115201
0.00118033
0.00120463
0.00122501
0.00124162
0.00125467
0.00126433
0.00127063
0.00127338
0.00127247
0.00126791
0.00125994
0.00124865
0.0012344
0.00121705
0.0011971
0.00117394
0.00114856
0.00111939
0.00108876
0.00105299
0.00101754
0.000974101
0.00093502
0.000888194
3.46343e-05
2.97531e-05
2.61808e-05
2.39064e-05
2.28854e-05
2.28225e-05
2.32565e-05
2.39092e-05
2.47988e-05
2.63764e-05
2.94948e-05
3.56207e-05
4.65788e-05
6.41534e-05
8.9223e-05
0.000121844
0.000161102
0.00020631
0.000256265
0.000310243
0.000367453
0.000427126
0.000488492
0.000550764
0.000613136
0.000674641
0.000734804
0.000793301
0.00084953
0.000903137
0.000953703
0.00100092
0.00104452
0.0010843
0.00112008
0.00115176
0.00117931
0.00120276
0.00122223
0.00123788
0.00124995
0.00125863
0.00126401
0.00126599
0.00126454
0.00125972
0.00125178
0.00124083
0.00122719
0.00121077
0.00119202
0.00117039
0.0011468
0.00111974
0.00109145
0.00105829
0.00102565
0.000985037
0.000948855
0.000903394
3.46882e-05
2.99107e-05
2.64116e-05
2.41509e-05
2.31444e-05
2.31912e-05
2.38789e-05
2.48809e-05
2.61188e-05
2.79455e-05
3.11273e-05
3.70319e-05
4.74302e-05
6.41721e-05
8.83438e-05
0.000120193
0.000158956
0.0002039
0.00025384
0.000307959
0.000365419
0.000425411
0.000487132
0.000549761
0.000612427
0.000674158
0.000734474
0.000793032
0.000849243
0.000902729
0.000953077
0.000999966
0.00104314
0.00108238
0.00111752
0.00114847
0.00117521
0.00119778
0.00121631
0.00123098
0.00124206
0.00124976
0.00125422
0.00125541
0.00125339
0.00124827
0.0012403
0.00122961
0.00121652
0.00120096
0.00118335
0.00116317
0.00114131
0.00111631
0.0010903
0.00105973
0.00102988
0.000992144
0.000958868
0.000915041
3.4732e-05
3.0045e-05
2.66128e-05
2.43579e-05
2.33375e-05
2.34417e-05
2.43292e-05
2.56579e-05
2.72654e-05
2.93959e-05
3.27148e-05
3.8478e-05
4.83801e-05
6.42959e-05
8.74892e-05
0.000118407
0.000156464
0.00020092
0.000250613
0.000304652
0.000362152
0.000422264
0.000484152
0.000546962
0.000609761
0.000671564
0.000731914
0.000790419
0.000846506
0.000899776
0.000949817
0.000996304
0.00103897
0.00107761
0.00111206
0.00114224
0.00116812
0.00118978
0.00120734
0.00122103
0.00123111
0.00123782
0.00124135
0.00124176
0.00123915
0.00123369
0.00122564
0.00121516
0.00120256
0.00118779
0.00117127
0.0011525
0.00113231
0.00110931
0.00108555
0.00105754
0.00103042
0.000995616
0.000965243
0.000923304
3.47677e-05
3.01596e-05
2.6789e-05
2.45352e-05
2.34793e-05
2.35922e-05
2.46176e-05
2.62293e-05
2.82041e-05
3.06772e-05
3.42004e-05
3.99047e-05
4.93883e-05
6.45126e-05
8.66827e-05
0.000116543
0.000153703
0.000197458
0.000246681
0.000300423
0.000357751
0.000417784
0.00047965
0.000542465
0.000605232
0.000666958
0.000727216
0.000785552
0.000841408
0.000894364
0.000944011
0.000990015
0.00103211
0.00107008
0.00110379
0.00113314
0.00115813
0.00117884
0.00119542
0.0012081
0.00121717
0.0012229
0.00122551
0.00122512
0.00122191
0.00121608
0.00120792
0.00119761
0.00118546
0.00117145
0.00115596
0.00113855
0.00111998
0.00109895
0.00107737
0.00105191
0.00102749
0.000995638
0.00096816
0.000928345
3.47966e-05
3.02575e-05
2.69436e-05
2.46893e-05
2.35829e-05
2.36621e-05
2.47605e-05
2.65951e-05
2.89106e-05
3.17437e-05
3.55254e-05
4.12502e-05
5.04009e-05
6.4791e-05
8.59266e-05
0.000114636
0.000150735
0.000193593
0.000242131
0.00029536
0.00035231
0.000412063
0.000473719
0.000536359
0.000598928
0.000660437
0.000720469
0.000778518
0.000834032
0.000886576
0.000935738
0.000981179
0.00102263
0.00105988
0.00109278
0.00112125
0.00114532
0.00116505
0.00118062
0.00119228
0.00120033
0.00120507
0.00120676
0.00120558
0.00120176
0.00119555
0.00118726
0.00117709
0.00116536
0.00115207
0.00113758
0.0011215
0.00110451
0.00108541
0.00106597
0.00104303
0.00102125
0.000992386
0.000967793
0.000930322
3.48202e-05
3.03411e-05
2.70799e-05
2.48251e-05
2.36592e-05
2.36704e-05
2.47793e-05
2.67658e-05
2.93728e-05
3.25584e-05
3.6634e-05
4.24493e-05
5.13542e-05
6.50835e-05
8.52024e-05
0.0001127
0.000147603
0.000189385
0.000237035
0.000289545
0.000345913
0.000405189
0.000466444
0.000528731
0.00059093
0.000652087
0.000711756
0.000769397
0.000824459
0.00087649
0.000925075
0.000969871
0.0010106
0.00104706
0.0010791
0.00110666
0.00112975
0.00114848
0.00116302
0.00117364
0.00118066
0.00118441
0.00118519
0.00118323
0.00117881
0.0011722
0.00116377
0.00115372
0.00114239
0.00112979
0.00111628
0.00110149
0.00108606
0.00106886
0.00105152
0.00103107
0.0010119
0.000986031
0.000964308
0.000929385
3.48393e-05
3.04126e-05
2.72001e-05
2.49465e-05
2.37174e-05
2.36351e-05
2.46981e-05
2.67606e-05
2.95914e-05
3.30962e-05
3.74777e-05
4.34373e-05
5.21784e-05
6.53293e-05
8.44732e-05
0.00011073
0.000144331
0.00018488
0.000231455
0.000283047
0.000338635
0.000397238
0.000457905
0.000519662
0.000581318
0.000641985
0.000701156
0.000758266
0.000812762
0.000864178
0.000912095
0.000956161
0.0009961
0.0010317
0.00106283
0.00108942
0.00111151
0.00112919
0.00114268
0.00115225
0.00115824
0.001161
0.00116088
0.00115815
0.00115312
0.00114613
0.00113754
0.00112761
0.00111667
0.00110475
0.0010922
0.00107869
0.00106478
0.00104945
0.00103418
0.0010162
0.000999599
0.000976733
0.000957866
0.00092568
3.48548e-05
3.04737e-05
2.73064e-05
2.50563e-05
2.37646e-05
2.35718e-05
2.45416e-05
2.66052e-05
2.95793e-05
3.33466e-05
3.80193e-05
4.41553e-05
5.28022e-05
6.54589e-05
8.36868e-05
0.000108701
0.000140925
0.000180108
0.000225436
0.000275924
0.000330539
0.000388281
0.000448176
0.000509224
0.000570172
0.000630208
0.000688744
0.000745199
0.000799014
0.000849711
0.000896864
0.000940117
0.000979189
0.00101387
0.00104403
0.00106961
0.00109065
0.00110727
0.00111968
0.00112818
0.00113313
0.00113492
0.0011339
0.0011304
0.00112478
0.00111741
0.00110868
0.00109887
0.00108831
0.00107707
0.00106547
0.00105322
0.00104082
0.00102734
0.00101411
0.000998571
0.000984502
0.000964649
0.000948621
0.000919346
3.48674e-05
3.05261e-05
2.74005e-05
2.51564e-05
2.38059e-05
2.34937e-05
2.43333e-05
2.63293e-05
2.93603e-05
3.33136e-05
3.82362e-05
4.45549e-05
5.31587e-05
6.53992e-05
8.27797e-05
0.000106574
0.000137371
0.00017508
0.000219009
0.000268219
0.00032168
0.000378378
0.000437319
0.000497485
0.000557575
0.000616826
0.000674588
0.000730262
0.00078328
0.000833153
0.000879448
0.000921803
0.000959933
0.000993629
0.00102276
0.00104728
0.00106724
0.00108276
0.00109408
0.0011015
0.00110542
0.00110622
0.00110432
0.00110007
0.00109388
0.00108614
0.00107727
0.00106758
0.00105741
0.00104686
0.0010362
0.00102521
0.00101431
0.00100267
0.000991453
0.00097834
0.000966763
0.000949926
0.000936723
0.000910515
3.48776e-05
3.0571e-05
2.74838e-05
2.52484e-05
2.38449e-05
2.34112e-05
2.40947e-05
2.59641e-05
2.89663e-05
3.30161e-05
3.81228e-05
4.46025e-05
5.31903e-05
6.5079e-05
8.16828e-05
0.000104295
0.000133643
0.000169793
0.000212191
0.000259963
0.000312098
0.000367575
0.000425389
0.000484503
0.000543586
0.000601901
0.000658752
0.000713519
0.000765625
0.000814568
0.000859909
0.00090128
0.000938393
0.000971038
0.000999089
0.00102251
0.00104134
0.00105574
0.00106594
0.00107228
0.00107515
0.00107499
0.00107222
0.00106724
0.00106049
0.0010524
0.00104342
0.00103387
0.0010241
0.00101423
0.00100452
0.00099479
0.000985382
0.000975568
0.000966351
0.000955646
0.000946529
0.000932706
0.000922313
0.000899317
3.48859e-05
3.06095e-05
2.75577e-05
2.53333e-05
2.3884e-05
2.3332e-05
2.3844e-05
2.55401e-05
2.84344e-05
3.24851e-05
3.76908e-05
4.42825e-05
5.28539e-05
6.44355e-05
8.03273e-05
0.000101806
0.000129701
0.000164231
0.000204986
0.000251176
0.000301824
0.000355914
0.000412431
0.000470327
0.000528259
0.00058549
0.000641294
0.000695028
0.000746106
0.000794014
0.000838305
0.000878607
0.000914628
0.000946157
0.000973072
0.000995338
0.00101302
0.00102627
0.00103534
0.00104059
0.00104242
0.00104129
0.00103767
0.00103199
0.0010247
0.00101629
0.00100721
0.000997821
0.000988467
0.0009793
0.000970555
0.000962084
0.000954168
0.000946176
0.000938939
0.000930627
0.00092394
0.000913128
0.00090553
0.000885876
3.48925e-05
3.06426e-05
2.76232e-05
2.54118e-05
2.39244e-05
2.32616e-05
2.3596e-05
2.50853e-05
2.78036e-05
3.17613e-05
3.69686e-05
4.35992e-05
5.21255e-05
6.34199e-05
7.8651e-05
9.9045e-05
0.0001255
0.000158368
0.000197386
0.000241865
0.000290877
0.000343422
0.000398482
0.000455
0.000511637
0.000567644
0.000622266
0.000674844
0.000724779
0.000771546
0.000814693
0.000853841
0.000888695
0.000919045
0.00094477
0.000965843
0.000982332
0.000994409
0.00100234
0.00100649
0.00100728
0.00100521
0.00100076
0.000994391
0.000986608
0.000977902
0.000968753
0.000959544
0.000950629
0.000942181
0.000934412
0.000927212
0.000920791
0.000914618
0.000909351
0.000903416
0.000899133
0.000891325
0.000886508
0.00087031
3.48978e-05
3.06711e-05
2.76813e-05
2.54844e-05
2.39667e-05
2.32032e-05
2.33619e-05
2.46237e-05
2.71123e-05
3.08911e-05
3.59982e-05
4.25767e-05
5.10026e-05
6.20024e-05
7.66048e-05
9.59588e-05
0.000120994
0.000152173
0.000189378
0.000232031
0.000279271
0.000330121
0.000383571
0.000438555
0.000493761
0.000548405
0.000601715
0.000653014
0.000701693
0.000747217
0.000789126
0.000827036
0.000860651
0.000889759
0.000914243
0.00093408
0.00094935
0.000960233
0.00096701
0.000970057
0.00096983
0.000966828
0.000961567
0.000954549
0.000946296
0.000937329
0.000928143
0.000919148
0.000910698
0.000902991
0.000896214
0.000890298
0.000885378
0.000881023
0.000877717
0.000874146
0.00087224
0.00086743
0.000865378
0.000852738
3.49021e-05
3.06958e-05
2.7733e-05
2.55516e-05
2.40108e-05
2.31584e-05
2.31493e-05
2.41749e-05
2.63955e-05
2.99228e-05
3.48317e-05
4.12571e-05
4.95053e-05
6.01761e-05
7.41587e-05
9.25047e-05
0.000116141
0.000145617
0.000180947
0.000221674
0.000267014
0.000316029
0.000367722
0.000421022
0.000474665
0.000527812
0.000579682
0.000629584
0.000676896
0.000721076
0.000761656
0.000798248
0.000830553
0.000858359
0.000881552
0.000900116
0.000914138
0.00092381
0.000929427
0.00093138
0.00093014
0.000926231
0.000920193
0.000912558
0.000903873
0.000894682
0.000885498
0.00087675
0.000868796
0.000861854
0.00085609
0.00085147
0.000848059
0.000845521
0.000844169
0.000842949
0.000843397
0.000841572
0.00084227
0.000833273
3.49056e-05
3.07171e-05
2.77789e-05
2.56137e-05
2.40564e-05
2.31275e-05
2.29631e-05
2.37537e-05
2.56835e-05
2.89033e-05
3.35268e-05
3.96969e-05
4.76755e-05
5.79592e-05
7.13062e-05
8.86593e-05
0.000110915
0.000138678
0.000172082
0.000210791
0.000254114
0.00030116
0.000350956
0.000402443
0.000454381
0.0005059
0.000556207
0.000604596
0.000650435
0.000693173
0.000732335
0.000767531
0.000798458
0.000824906
0.000846763
0.000864019
0.00087677
0.000885219
0.000889674
0.000890541
0.000888309
0.000883521
0.00087674
0.000868529
0.000859455
0.000850085
0.000840944
0.00083248
0.000825054
0.000818903
0.000814173
0.000810863
0.000808968
0.000808248
0.000808841
0.000809958
0.000812737
0.000813881
0.000817313
0.00081203
3.49083e-05
3.07356e-05
2.78198e-05
2.5671e-05
2.41029e-05
2.31099e-05
2.28054e-05
2.33706e-05
2.50006e-05
2.78749e-05
3.21421e-05
3.79622e-05
4.55736e-05
5.53943e-05
6.80672e-05
8.44229e-05
0.000105305
0.000131347
0.000162782
0.000199393
0.000240586
0.000285536
0.000333299
0.000382843
0.000432942
0.000482706
0.00053133
0.000578093
0.000622356
0.000663557
0.000701218
0.000734943