/*--------------------------------*- C++ -*----------------------------------*\
| =========                 |                                                 |
| \\      /  F ield         | OpenFOAM: The Open Source CFD Toolbox           |
|  \\    /   O peration     | Version:  2.4.0                                 |
|   \\  /    A nd           | Web:      www.OpenFOAM.org                      |
|    \\/     M anipulation  |                                                 |
\*---------------------------------------------------------------------------*/
FoamFile
{
    version     2.0;
    format      ascii;
    class       volVectorField;
    location    "5.45";
    object      U;
}
// * * * * * * * * * * * * * * * * * * * * * * * * * * * * * * * * * * * * * //

dimensions      [0 1 -1 0 0 0 0];

internalField   nonuniform List<vector> 
6000
(
(0.165118 -0.00671287 1.30047e-18)
(-0.00974569 0.00185841 0)
(0.000828936 -0.000234286 7.23831e-18)
(-0.0066335 0.00128754 0)
(-0.00500561 0.000987379 0)
(-0.00607637 0.00113993 0)
(-0.00534373 0.000984069 4.01585e-18)
(-0.00550797 0.000961986 3.33615e-22)
(-0.00512506 0.000866422 0)
(-0.00512677 0.000821823 0)
(-0.00495344 0.000759851 3.91678e-18)
(-0.00498234 0.000722935 -7.75901e-18)
(-0.00498633 0.000687026 0)
(-0.00512286 0.000665003 0)
(-0.00529688 0.000648142 -1.88235e-18)
(-0.00557099 0.0006383 0)
(-0.00590444 0.000631736 0)
(-0.006321 0.000627334 -1.83427e-18)
(-0.00680278 0.000622834 -1.8213e-18)
(-0.00735732 0.000616435 0)
(-0.00797496 0.000606237 1.80091e-18)
(-0.00865408 0.00059026 8.96869e-19)
(-0.00938472 0.000566649 -8.9436e-19)
(-0.010158 0.00053354 0)
(-0.0109599 0.000489405 0)
(-0.0117761 0.00043303 0)
(-0.01259 0.000363651 4.48189e-19)
(-0.0133825 0.000280895 -4.50106e-19)
(-0.0141315 0.000184963 0)
(-0.0148119 7.66862e-05 0)
(-0.0153956 -4.23521e-05 5.75468e-20)
(-0.0158515 -0.000169803 0)
(-0.016147 -0.000302827 4.71286e-19)
(-0.0162467 -0.00043518 -4.78025e-19)
(-0.0161144 -0.00055712 0)
(-0.0157122 -0.000667212 0)
(-0.0150042 -0.000756281 1.00673e-18)
(-0.0139527 -0.000814983 0)
(-0.0125258 -0.00083277 1.04843e-18)
(-0.0106861 -0.000798748 0)
(-0.00841539 -0.000700749 0)
(-0.00568359 -0.000527604 2.23784e-18)
(-0.002516 -0.000267563 -4.57171e-18)
(0.00104439 8.49361e-05 0)
(0.00459373 0.00049687 0)
(0.0083498 0.00097844 2.42313e-18)
(0.0121443 0.00153342 0)
(0.0163017 0.00217998 0)
(0.0203169 0.00290041 -5.02066e-18)
(0.0249842 0.00374114 -5.04707e-18)
(0.028974 0.00461899 -5.02386e-18)
(0.034429 0.00569805 -1.82914e-21)
(0.0378556 0.00668548 4.85907e-18)
(0.0449713 0.00812983 0)
(0.0466292 0.00907 -3.02885e-21)
(0.0577379 0.0112694 -4.30782e-18)
(0.0548549 0.0116717 3.44812e-18)
(0.0756889 0.0157737 3.55134e-18)
(0.0629398 0.0146545 4.16694e-21)
(0.104457 0.0229741 0)
(0.360298 -0.0164519 -1.80663e-18)
(0.00301768 0.00650582 4.29096e-18)
(0.00549249 -0.000893839 -4.34101e-18)
(-0.0149548 0.00337569 -4.60488e-18)
(-0.0124292 0.00257909 0)
(-0.0157699 0.00305964 0)
(-0.0142806 0.00266494 -4.58465e-18)
(-0.0148769 0.00262505 9.0812e-18)
(-0.0140279 0.00238224 0)
(-0.0140924 0.00226946 0)
(-0.013706 0.00211387 -4.34546e-18)
(-0.0138115 0.00202175 4.2812e-18)
(-0.013862 0.00193523 2.10861e-18)
(-0.0142461 0.0018848 0)
(-0.0147368 0.00184903 2.05065e-18)
(-0.015485 0.0018316 0)
(-0.0163921 0.00182275 0)
(-0.0175123 0.00181896 0)
(-0.0188004 0.00181402 0)
(-0.0202701 0.00180277 0)
(-0.0218942 0.00177979 -1.23263e-23)
(-0.0236634 0.00173937 0)
(-0.0255482 0.00167624 -9.55e-19)
(-0.0275207 0.00158517 0)
(-0.0295415 0.00146199 0)
(-0.03157 0.00130358 4.75404e-19)
(-0.0335605 0.00110804 -4.76235e-19)
(-0.0354621 0.000874509 -2.58561e-24)
(-0.0372169 0.00060369 2.40194e-19)
(-0.0387605 0.000298027 0)
(-0.0400219 -3.79567e-05 -6.1008e-20)
(-0.0409249 -0.000397511 -2.46658e-19)
(-0.0413883 -0.000771935 9.40667e-24)
(-0.0413263 -0.00114629 5.06695e-19)
(-0.0406519 -0.00150068 -5.14851e-19)
(-0.0392747 -0.0018234 0)
(-0.0371067 -0.00209139 0)
(-0.034056 -0.00228025 0)
(-0.0300424 -0.00236194 0)
(-0.024973 -0.00230732 0)
(-0.018798 -0.00208286 -2.32572e-18)
(-0.011448 -0.00165644 0)
(-0.0030116 -0.000989534 2.42325e-18)
(0.00628765 -5.24047e-05 2.47344e-18)
(0.0154953 0.00106431 0)
(0.0252116 0.00235628 0)
(0.0350406 0.0038396 0)
(0.0456799 0.00555436 0)
(0.0560245 0.0074653 5.46677e-18)
(0.0677961 0.00967179 0)
(0.0781378 0.011996 0)
(0.0916503 0.0147954 -5.53395e-18)
(0.100892 0.0174282 -5.42254e-18)
(0.118051 0.0211135 0)
(0.12373 0.0237158 -1.00084e-17)
(0.149609 0.0291789 0)
(0.146001 0.0307154 -7.98194e-18)
(0.193147 0.0405208 -4.12871e-18)
(0.16915 0.0388284 1.68528e-18)
(0.26294 0.0576501 2.96925e-18)
(0.500824 -0.0113661 -1.73808e-19)
(0.0412807 0.0090609 -4.25415e-18)
(0.0141247 -0.00129315 0)
(-0.0188697 0.004834 4.61223e-18)
(-0.0175035 0.00374047 0)
(-0.0234469 0.0045716 0)
(-0.0218115 0.0040341 0)
(-0.0229993 0.00400813 -4.54614e-18)
(-0.0219386 0.00367242 0)
(-0.0221446 0.00351591 -4.41697e-18)
(-0.0216606 0.00330293 0)
(-0.0218767 0.00317726 0)
(-0.022016 0.00306615 -2.10983e-18)
(-0.0226468 0.00300653 0)
(-0.0234485 0.0029712 0)
(-0.0246377 0.00296209 0)
(-0.026074 0.00296592 0)
(-0.0278312 0.00297569 0)
(-0.0298421 0.0029822 0)
(-0.0321211 0.00297663 1.94263e-18)
(-0.0346242 0.00295027 -1.92829e-18)
(-0.0373308 0.00289362 0)
(-0.0401911 0.0027981 6.92306e-24)
(-0.0431567 0.00265522 -9.50633e-19)
(-0.0461622 0.00245848 0)
(-0.0491409 0.0022033 -9.48766e-19)
(-0.0520185 0.00188705 0)
(-0.0547139 0.00150871 4.76541e-19)
(-0.0571358 0.00106984 -2.39425e-19)
(-0.0591851 0.000574801 0)
(-0.0607542 3.13529e-05 0)
(-0.0617291 -0.000549062 2.45515e-19)
(-0.0619905 -0.00115135 -4.62811e-24)
(-0.061414 -0.00175431 0)
(-0.0598766 -0.00233442 1.0223e-18)
(-0.0572526 -0.00286385 0)
(-0.0534223 -0.00330928 1.05739e-18)
(-0.048265 -0.00363475 0)
(-0.0416804 -0.00379878 0)
(-0.0335612 -0.00375908 0)
(-0.0238729 -0.00346592 2.27522e-18)
(-0.0125797 -0.00287083 0)
(9.2424e-05 -0.00190964 0)
(0.0137782 -0.000527589 -2.37841e-18)
(0.027581 0.00116444 0)
(0.0422917 0.00312943 0)
(0.0573315 0.00540663 2.5863e-18)
(0.0735769 0.00803321 -2.644e-18)
(0.0895473 0.010988 -2.68738e-18)
(0.107494 0.0143576 0)
(0.123656 0.0179801 0)
(0.144081 0.0222109 0)
(0.158998 0.0263858 5.38e-18)
(0.184458 0.0318401 5.32866e-18)
(0.194943 0.0361845 4.98822e-18)
(0.232315 0.0439893 0)
(0.230889 0.0473266 3.98966e-18)
(0.297382 0.0607094 8.26906e-18)
(0.269411 0.0603661 0)
(0.402148 0.0848324 -2.98778e-18)
(0.605049 0.000253527 -1.44286e-19)
(0.0969964 0.0110042 4.12959e-18)
(0.0279036 -0.0012277 -4.32944e-18)
(-0.0183249 0.00584363 0)
(-0.0200982 0.00456409 0)
(-0.0290449 0.00577079 0)
(-0.0278665 0.00514192 0)
(-0.029832 0.00516566 0)
(-0.0288114 0.00476999 0)
(-0.0292493 0.00459584 4.41975e-18)
(-0.0287817 0.00434732 4.35031e-18)
(-0.0291461 0.00420798 0)
(-0.0294138 0.00408986 0)
(-0.0302886 0.00403734 0)
(-0.0313899 0.00401708 2.05058e-18)
(-0.0329806 0.00402942 0)
(-0.0348913 0.00405742 1.99917e-18)
(-0.0372063 0.00409081 -1.97683e-18)
(-0.0398402 0.00411731 0)
(-0.0428026 0.00412462 -1.93924e-18)
(-0.0460325 0.00410074 0)
(-0.0494948 0.00403242 -9.55746e-19)
(-0.0531185 0.00390785 1.90154e-18)
(-0.056833 0.00371554 9.47147e-19)
(-0.0605477 0.00344712 0)
(-0.0641705 0.00309707 4.72053e-19)
(-0.0676005 0.00266257 0)
(-0.0707295 0.00214287 4.73482e-19)
(-0.0734383 0.00154078 0)
(-0.0756001 0.000862857 0)
(-0.07708 0.000120143 0)
(-0.0777383 -0.000671517 2.42935e-19)
(-0.0774313 -0.00149143 -9.81904e-19)
(-0.0760148 -0.00231262 0)
(-0.0733489 -0.00310446 -5.03139e-19)
(-0.0692958 -0.00383021 0)
(-0.0637305 -0.00444785 -1.03555e-18)
(-0.0565337 -0.00491254 0)
(-0.0476188 -0.00517307 0)
(-0.0369045 -0.00517762 0)
(-0.0244079 -0.00486476 2.18901e-18)
(-0.0101603 -0.00417201 0)
(0.00550001 -0.0030158 2.21909e-18)
(0.0222592 -0.0013296 -2.24677e-18)
(0.0396216 0.000772717 0)
(0.0583324 0.00324187 -2.40372e-18)
(0.0777023 0.00614525 -4.95563e-18)
(0.0986578 0.00951735 2.54698e-18)
(0.119519 0.0133526 5.20046e-18)
(0.142751 0.017711 -5.2933e-18)
(0.164167 0.022471 -5.33224e-18)
(0.190453 0.0279193 0)
(0.210791 0.0334948 -5.28824e-18)
(0.242995 0.0403919 -5.25503e-18)
(0.258758 0.0464227 -4.91627e-18)
(0.304754 0.0559519 0)
(0.30772 0.0612738 0)
(0.38746 0.0768832 -4.10853e-18)
(0.361332 0.0787038 0)
(0.520732 0.105593 2.92162e-18)
(0.684215 0.014367 -1.25456e-19)
(0.162881 0.0131473 -3.18916e-20)
(0.04787 -0.000608075 4.30353e-18)
(-0.0132749 0.0065388 4.60566e-18)
(-0.0200943 0.00513266 0)
(-0.0325173 0.0067057 -4.64424e-18)
(-0.0323858 0.00602142 0)
(-0.0353456 0.00612074 0)
(-0.0346116 0.00569193 0)
(-0.0353841 0.00552126 4.42071e-18)
(-0.0350434 0.00525652 -4.35122e-18)
(-0.0355977 0.00512031 0)
(-0.0360291 0.00501027 0)
(-0.0371438 0.0049784 0)
(-0.0385266 0.00498502 -2.0491e-18)
(-0.0404726 0.00502888 0)
(-0.0427925 0.0050892 -1.99618e-18)
(-0.0455735 0.00515256 1.97292e-18)
(-0.0487141 0.00520359 0)
(-0.0522142 0.00522662 0)
(-0.0559953 0.00520638 9.58268e-19)
(-0.0600047 0.00512612 9.51257e-19)
(-0.0641501 0.00497105 -1.89088e-18)
(-0.0683383 0.00472718 -9.40889e-19)
(-0.0724556 0.00438485 0)
(-0.0763873 0.00393842 4.67865e-19)
(-0.0800111 0.00338551 0)
(-0.0831984 0.00272628 -4.68023e-19)
(-0.0858113 0.00196527 2.34565e-19)
(-0.0877065 0.00111161 0)
(-0.0887363 0.000179714 0)
(-0.0887516 -0.000810387 -4.76768e-19)
(-0.0876036 -0.00183298 4.80537e-19)
(-0.0851494 -0.00285632 0)
(-0.0812529 -0.00384312 -4.896e-19)
(-0.0757858 -0.00475105 0)
(-0.0686381 -0.00553174 1.00071e-18)
(-0.0597114 -0.00613425 0)
(-0.0489463 -0.00650083 0)
(-0.0362943 -0.00657273 0)
(-0.0218135 -0.0062797 -2.07842e-18)
(-0.00557041 -0.00554612 -2.08506e-18)
(0.0120722 -0.00427597 -2.08605e-18)
(0.0309589 -0.0024043 1.19505e-21)
(0.0509581 -4.24509e-05 -2.17796e-18)
(0.0726796 0.00276578 2.25852e-18)
(0.0954084 0.0061139 4.66741e-18)
(0.120075 0.0100422 0)
(0.144954 0.0145625 -2.46995e-18)
(0.172533 0.0197147 5.0536e-18)
(0.198536 0.0254225 5.11431e-18)
(0.229741 0.0318851 0)
(0.255137 0.0386907 0)
(0.292871 0.0467739 0)
(0.314086 0.0543704 4.79992e-18)
(0.366589 0.0651853 0)
(0.375295 0.07252 0)
(0.463798 0.0894077 4.02393e-18)
(0.443306 0.0937566 -1.61688e-18)
(0.619672 0.120908 -2.89372e-18)
(0.745566 0.0291099 -1.12209e-19)
(0.233422 0.0160011 -3.95588e-18)
(0.0745752 0.000578859 0)
(-0.00364271 0.00707692 -4.59563e-18)
(-0.0173803 0.00552726 -4.61966e-18)
(-0.0338145 0.00742404 5.12933e-22)
(-0.0353118 0.00670608 0)
(-0.0395123 0.00689736 0)
(-0.0393078 0.00645567 0)
(-0.0405301 0.00630501 -4.42134e-18)
(-0.040424 0.00603994 0)
(-0.0412134 0.00592039 0)
(-0.04184 0.00583078 2.1084e-18)
(-0.0431883 0.00583014 0)
(-0.0448285 0.00587246 0)
(-0.0470764 0.00595464 0)
(-0.0497297 0.00605196 0)
(-0.0528725 0.00614781 -1.96653e-18)
(-0.0563879 0.00622373 0)
(-0.0602628 0.00626089 1.92315e-18)
(-0.0644004 0.00624093 -9.52315e-19)
(-0.0687298 0.00614399 -9.44094e-19)
(-0.0731385 0.00595285 1.87403e-18)
(-0.0775143 0.00565175 1.86214e-18)
(-0.0817253 0.00523065 0)
(-0.0856416 0.00468461 -4.61362e-19)
(-0.0891285 0.00401251 0)
(-0.0920481 0.00321606 0)
(-0.0942568 0.00230197 -4.59657e-19)
(-0.0956094 0.00128208 0)
(-0.0959605 0.000174061 0)
(-0.0951672 -0.000998439 4.6347e-19)
(-0.0930917 -0.00220587 0)
(-0.0896037 -0.00341258 0)
(-0.0845798 -0.00457714 4.71437e-19)
(-0.0779079 -0.00565335 0)
(-0.069495 -0.00658869 -9.57017e-19)
(-0.0592601 -0.00732809 0)
(-0.0471617 -0.0078092 0)
(-0.033168 -0.00796747 0)
(-0.0173503 -0.00772504 0)
(0.000222962 -0.0069935 1.96191e-18)
(0.0192219 -0.00567049 1.95738e-18)
(0.0396414 -0.00370173 1.23274e-21)
(0.061562 -0.00119441 2.03736e-18)
(0.0854613 0.00182351 2.10674e-18)
(0.110648 0.00546192 -2.17924e-18)
(0.138037 0.00977102 0)
(0.165966 0.0147781 -2.30995e-18)
(0.196864 0.0205155 2.3697e-18)
(0.226583 0.0269498 -4.81253e-18)
(0.261717 0.0342067 0)
(0.291561 0.0420246 0)
(0.333793 0.051062 -4.86689e-18)
(0.360286 0.0600385 -4.59574e-18)
(0.417828 0.0718284 4.57667e-18)
(0.432869 0.0810768 3.74246e-18)
(0.527202 0.0986341 -3.92782e-18)
(0.514395 0.105564 1.58512e-18)
(0.700772 0.131651 0)
(0.793858 0.0436839 -1.01239e-19)
(0.304747 0.0197905 0)
(0.107939 0.00233667 4.23089e-18)
(0.010693 0.00761885 4.57932e-18)
(-0.0118542 0.00582603 -6.12516e-23)
(-0.0328777 0.00797313 4.64358e-18)
(-0.0365844 0.00722948 0)
(-0.042301 0.00751986 0)
(-0.0428684 0.0070788 0)
(-0.0446685 0.00696033 2.2103e-18)
(-0.0449034 0.00670695 2.17473e-18)
(-0.0459769 0.00661432 0)
(-0.0468271 0.00655439 -2.10661e-18)
(-0.0484008 0.00659246 2.07394e-18)
(-0.050268 0.00667618 0)
(-0.0527579 0.00680016 0)
(-0.0556596 0.00693562 0)
(-0.0590502 0.00706273 5.4721e-23)
(-0.0627985 0.00716011 0)
(-0.0668766 0.00720607 -3.81755e-18)
(-0.0711717 0.00717961 9.43631e-19)
(-0.0755967 0.00705845 9.33871e-19)
(-0.0800246 0.00682374 -3.01411e-23)
(-0.0843309 0.00645893 -9.17285e-19)
(-0.0883747 0.0059545 0)
(-0.0920212 0.0053071 0)
(-0.0951342 0.00451744 0)
(-0.0975779 0.00358906 2.24234e-19)
(-0.0992139 0.00253088 4.4735e-19)
(-0.0999053 0.00135715 0)
(-0.0995173 8.8122e-05 0)
(-0.0979196 -0.00124988 -4.47216e-19)
(-0.0949885 -0.00262466 -2.23965e-19)
(-0.0906039 -0.00399823 0)
(-0.0846541 -0.00532658 0)
(-0.0770378 -0.00656074 0)
(-0.067672 -0.00764531 0)
(-0.0564842 -0.00852196 0)
(-0.0434396 -0.00912455 0)
(-0.0285102 -0.00938295 0)
(-0.0117656 -0.00921215 0)
(0.0067393 -0.00851202 0)
(0.0267288 -0.00717868 -9.86225e-22)
(0.0483046 -0.00517418 1.86098e-18)
(0.0716376 -0.00260147 0)
(0.0971031 0.000534286 -3.94148e-18)
(0.124051 0.0043498 -2.03071e-18)
(0.153365 0.00890511 0)
(0.18349 0.0142366 2.15184e-18)
(0.216759 0.0203781 -2.2081e-18)
(0.24927 0.0273273 4.49015e-18)
(0.287313 0.0351624 -4.56306e-18)
(0.320757 0.043746 0)
(0.366453 0.0535073 9.04455e-21)
(0.397641 0.0636082 4.34733e-18)
(0.459064 0.076125 -8.69255e-18)
(0.480357 0.0870622 -1.31899e-20)
(0.57867 0.104919 -3.74589e-18)
(0.57428 0.114251 1.50248e-18)
(0.765989 0.138566 2.69022e-18)
(0.832278 0.0576537 3.11948e-18)
(0.374275 0.0245417 0)
(0.147321 0.00468316 2.61611e-21)
(0.0298685 0.00828703 -2.75861e-22)
(-0.0034192 0.00613199 4.60653e-18)
(-0.0296364 0.0084013 4.6399e-18)
(-0.0361394 0.00762648 0)
(-0.0436747 0.00801362 4.55154e-18)
(-0.0452597 0.00757966 0)
(-0.047778 0.00750117 -2.20977e-18)
(-0.0484612 0.00726738 -9.44877e-23)
(-0.0498721 0.00720861 -2.13902e-18)
(-0.0509722 0.00718428 0)
(-0.0527619 0.0072654 -4.13985e-18)
(-0.0548212 0.00739299 0)
(-0.0574891 0.00755905 0)
(-0.0605497 0.0077306 0)
(-0.0640717 0.00788477 1.94429e-18)
(-0.0679124 0.00799751 0)
(-0.0720314 0.0080449 1.88952e-18)
(-0.0763043 0.00800401 -1.86445e-18)
(-0.0806342 0.00785105 0)
(-0.0848873 0.00756646 -3.22949e-23)
(-0.0889356 0.00713376 0)
(-0.0926386 0.00654469 0)
(-0.0958649 0.00579786 -4.41738e-19)
(-0.0984847 0.00489591 0)
(-0.10037 0.00384406 -4.35661e-19)
(-0.101392 0.00265294 -2.16742e-19)
(-0.101424 0.00133858 -5.39775e-20)
(-0.100343 -7.69554e-05 5.38457e-20)
(-0.0980283 -0.00156566 2.15031e-19)
(-0.094366 -0.00309376 4.29743e-19)
(-0.0892423 -0.00462185 0)
(-0.0825526 -0.00610401 4.30671e-19)
(-0.0742016 -0.00748907 0)
(-0.0641107 -0.00871925 0)
(-0.0522105 -0.00973324 0)
(-0.0384676 -0.0104614 8.72869e-19)
(-0.0228523 -0.010828 0)
(-0.00542699 -0.0107417 0)
(0.0137721 -0.0100925 1.75388e-18)
(0.034527 -0.00877844 -1.75258e-18)
(0.0570051 -0.00677998 0)
(0.081395 -0.00419584 0)
(0.107999 -0.00100504 1.85403e-18)
(0.136214 0.00290945 1.90448e-18)
(0.166879 0.00761662 -1.95486e-18)
(0.198558 0.0131551 0)
(0.233469 0.0195657 0)
(0.267987 0.0268616 0)
(0.308068 0.0350976 7.34913e-21)
(0.344234 0.0442206 0)
(0.392423 0.0544993 4.26311e-18)
(0.427451 0.0654408 0)
(0.491712 0.0784723 4.07174e-18)
(0.518612 0.0907726 -3.36128e-18)
(0.619611 0.108703 7.08194e-18)
(0.623399 0.120073 -1.43224e-18)
(0.81737 0.142356 -2.57073e-18)
(0.863048 0.0707569 8.43638e-20)
(0.440367 0.0301541 -3.6381e-18)
(0.191686 0.00764103 -4.12572e-18)
(0.0538973 0.00919311 -1.83213e-22)
(0.00809926 0.00653586 -4.5942e-18)
(-0.0240078 0.00875881 -4.63493e-18)
(-0.0339066 0.00793333 0)
(-0.0435885 0.00840461 -4.54979e-18)
(-0.0464435 0.0079772 0)
(-0.0498339 0.00794194 -2.20858e-18)
(-0.0510755 0.00773141 -2.17216e-18)
(-0.0528822 0.00771009 2.13663e-18)
(-0.0542588 0.00772395 -2.10004e-18)
(-0.0562555 0.0078494 2.06448e-18)
(-0.0584712 0.00802041 -2.02893e-18)
(-0.0612537 0.00822617 1.99437e-18)
(-0.0643871 0.0084295 0)
(-0.0679335 0.00860485 0)
(-0.0717437 0.00872606 0)
(-0.0757694 0.00876773 9.32909e-19)
(-0.0798816 0.00870583 9.18532e-19)
(-0.0839804 0.00851591 0)
(-0.0879327 0.00817836 -8.92299e-19)
(-0.0916136 0.00767731 0)
(-0.0948886 0.00700597 0)
(-0.0976338 0.00616486 4.30222e-19)
(-0.0997277 0.00515822 -4.25997e-19)
(-0.101051 0.00399247 2.11209e-19)
(-0.101484 0.00267942 0)
(-0.100909 0.00123626 1.04248e-19)
(-0.0992094 -0.000313777 -1.03791e-19)
(-0.0962746 -0.00194164 0)
(-0.0919927 -0.00361268 -2.0633e-19)
(-0.0862551 -0.00528629 4.12195e-19)
(-0.0789615 -0.00691494 -4.12424e-19)
(-0.0700198 -0.00844551 0)
(-0.0593535 -0.00981804 0)
(-0.046894 -0.0109683 0)
(-0.0326076 -0.0118235 -8.3324e-19)
(-0.016461 -0.0123025 0)
(0.00149216 -0.0123085 0)
(0.0212361 -0.0117237 -1.67451e-18)
(0.0426049 -0.0104505 0)
(0.0658028 -0.0084866 1.68389e-18)
(0.0909967 -0.00592637 -1.71525e-18)
(0.11844 -0.0027227 0)
(0.147575 0.001238 1.79456e-18)
(0.179194 0.00603289 3.67569e-18)
(0.211972 0.0116975 -1.87461e-18)
(0.248011 0.018283 0)
(0.283949 0.0258041 0)
(0.325415 0.0343113 1.97421e-18)
(0.363566 0.0437949 0)
(0.413458 0.0544291 3.9419e-18)
(0.451454 0.065954 0)
(0.517657 0.0793292 3.76548e-18)
(0.549223 0.0926358 3.11023e-18)
(0.651904 0.110502 -3.30692e-18)
(0.662985 0.123438 0)
(0.857209 0.143709 2.38728e-18)
(0.887776 0.0828587 -3.37049e-18)
(0.50205 0.0364599 2.00248e-20)
(0.23979 0.0112213 4.07138e-18)
(0.0826743 0.0104472 -1.62727e-22)
(0.0228851 0.00710442 -6.62156e-22)
(-0.015895 0.0090981 0)
(-0.0298103 0.00818773 0)
(-0.0419883 0.00871926 0)
(-0.0463765 0.00829096 -2.23989e-18)
(-0.0508064 0.00829741 4.41412e-18)
(-0.0527225 0.00810967 0)
(-0.0549901 0.00812604 2.1333e-18)
(-0.0566726 0.00817748 6.46427e-23)
(-0.0588713 0.00834584 -2.05741e-18)
(-0.0612117 0.00855746 5.93518e-23)
(-0.0640535 0.00879882 -1.98179e-18)
(-0.0671863 0.00902863 0)
(-0.0706706 0.00921924 0)
(-0.0743565 0.00934294 0)
(-0.0781939 0.00937363 -9.19606e-19)
(-0.0820548 0.00928677 0)
(-0.0858418 0.00905782 8.88097e-19)
(-0.089427 0.00866743 8.73773e-19)
(-0.092692 0.00810046 -8.60513e-19)
(-0.09551 0.00735143 0)
(-0.0977649 0.00642248 0)
(-0.0993429 0.00531902 4.13915e-19)
(-0.100132 0.00404826 0)
(-0.10002 0.00262272 2.03052e-19)
(-0.0988941 0.0010604 -5.04046e-20)
(-0.0966459 -0.000614724 5.01049e-20)
(-0.093167 -0.00237297 -1.99364e-19)
(-0.0883485 -0.00417904 0)
(-0.0820854 -0.0059912 -3.96652e-19)
(-0.0742804 -0.00776042 0)
(-0.0648433 -0.00943178 0)
(-0.0536991 -0.0109433 7.94762e-19)
(-0.0407794 -0.0122279 0)
(-0.0260491 -0.0132098 0)
(-0.00947181 -0.0138031 0)
(0.00890863 -0.0139062 0)
(0.029096 -0.0133959 0)
(0.0509687 -0.0121796 0)
(0.0747478 -0.01027 -3.23563e-18)
(0.100561 -0.00775641 1.64305e-18)
(0.128628 -0.00456798 1.67286e-18)
(0.158435 -0.000596544 -3.41122e-18)
(0.19073 0.00424263 -1.74015e-18)
(0.224287 0.00997828 1.76965e-18)
(0.261095 0.0166741 -1.79751e-18)
(0.298033 0.0243357 0)
(0.340425 0.0330232 3.38286e-21)
(0.380003 0.0427366 -3.64203e-18)
(0.43102 0.0536092 -3.66789e-18)
(0.471242 0.0655123 -3.47247e-18)
(0.538694 0.0791051 -6.9799e-18)
(0.573966 0.0930936 -2.8896e-18)
(0.677559 0.110816 3.04286e-18)
(0.69476 0.124832 1.20846e-18)
(0.887946 0.143269 -2.22507e-18)
(0.907675 0.093916 -7.31302e-20)
(0.558812 0.0432664 3.49859e-18)
(0.290338 0.0154114 2.2473e-21)
(0.115935 0.012132 -2.02829e-22)
(0.0411184 0.00790612 4.55342e-18)
(-0.00518953 0.00947231 4.61446e-18)
(-0.0237692 0.00842888 -4.58299e-18)
(-0.0388111 0.0089845 2.2711e-18)
(-0.045009 0.00854116 4.44217e-23)
(-0.0506608 0.00858286 -2.20502e-18)
(-0.0533759 0.00841334 -2.16717e-18)
(-0.0561787 0.00846446 -2.12931e-18)
(-0.058203 0.00855001 4.17853e-18)
(-0.0606068 0.00875762 5.54813e-23)
(-0.0630499 0.00900543 2.00805e-18)
(-0.0659097 0.00927756 0)
(-0.0689883 0.00952869 1.92666e-18)
(-0.0723501 0.00972966 0)
(-0.0758503 0.00985161 -1.84834e-18)
(-0.0794416 0.00986829 -9.05598e-19)
(-0.0830013 0.00975497 -8.87882e-19)
(-0.0864372 0.00948723 -3.191e-23)
(-0.0896286 0.00904603 -8.55547e-19)
(-0.0924643 0.00841686 8.41088e-19)
(-0.0948251 0.00759528 0)
(-0.096602 0.00658474 -4.0796e-19)
(-0.0976876 0.00539149 0)
(-0.0979758 0.0040232 0)
(-0.0973591 0.00249288 -1.97094e-19)
(-0.0957309 0.000819092 0)
(-0.0929861 -0.00097369 0)
(-0.0890185 -0.00285543 1.92917e-19)
(-0.0837218 -0.00479017 0)
(-0.0769939 -0.00673505 0)
(-0.0687401 -0.00863967 3.82735e-19)
(-0.0588718 -0.0104474 0)
(-0.0473152 -0.0120944 -7.67119e-19)
(-0.0340017 -0.0135109 0)
(-0.0188955 -0.0146182 7.71249e-19)
(-0.00195656 -0.0153262 0)
(0.0167808 -0.0155296 0)
(0.0373377 -0.0151013 0)
(0.0596293 -0.0139542 0)
(0.0838799 -0.0121123 1.56263e-18)
(0.110172 -0.00965985 0)
(0.138703 -0.00650538 -3.21233e-18)
(0.169002 -0.00254722 1.63203e-18)
(0.201771 0.00230662 -1.65664e-18)
(0.235876 0.00807559 1.6784e-18)
(0.273202 0.0148372 1.70302e-18)
(0.310838 0.0225804 0)
(0.353835 0.0313849 1.72724e-18)
(0.394431 0.0412348 5.12045e-18)
(0.446163 0.0522636 -3.41292e-18)
(0.488036 0.0643911 3.23843e-18)
(0.556237 0.0781139 3.24131e-18)
(0.594388 0.0925203 0)
(0.698338 0.11006 -2.82303e-18)
(0.720492 0.124724 -2.22679e-18)
(0.911856 0.141575 0)
(0.92368 0.103942 3.59771e-18)
(0.610454 0.0503829 0)
(0.342093 0.0201704 2.03077e-21)
(0.153249 0.0143041 -2.83229e-22)
(0.062944 0.00900212 -4.52688e-18)
(0.0082303 0.00994033 -9.19951e-18)
(-0.0156966 0.00869764 9.15289e-18)
(-0.0339839 0.00922778 -2.26847e-18)
(-0.0422851 0.00874892 2.23581e-18)
(-0.0493565 0.00881428 0)
(-0.0530065 0.00865446 4.38655e-23)
(-0.0564307 0.00873436 0)
(-0.0588431 0.00884802 -4.16491e-18)
(-0.0614671 0.00908955 2.03961e-18)
(-0.064005 0.00936821 0)
(-0.0668595 0.00966622 0)
(-0.0698518 0.00993419 -1.90786e-18)
(-0.0730559 0.0101419 0)
(-0.0763366 0.0102595 1.82347e-18)
(-0.0796526 0.0102608 8.91799e-19)
(-0.0828886 0.010121 2.86953e-23)
(-0.0859591 0.00981582 -8.54993e-19)
(-0.0887509 0.00932651 -8.38319e-19)
(-0.0911603 0.00863899 0)
(-0.0930748 0.00774963 0)
(-0.0943917 0.00666294 3.98233e-19)
(-0.0950089 0.00538578 0)
(-0.094825 0.00392612 1.93886e-19)
(-0.0937369 0.00229729 -1.91818e-19)
(-0.0916421 0.000518286 4.75274e-20)
(-0.0884387 -0.00138614 -4.71369e-20)
(-0.0840217 -0.0033857 1.87311e-19)
(-0.0782877 -0.0054437 -1.86422e-19)
(-0.0711374 -0.00751621 3.71718e-19)
(-0.0624782 -0.00955154 -3.71277e-19)
(-0.0522234 -0.0114915 0)
(-0.0403 -0.0132703 0)
(-0.0266398 -0.0148158 0)
(-0.0112059 -0.0160468 -2.17682e-22)
(0.00604445 -0.0168692 7.499e-19)
(0.0250868 -0.0171747 0)
(0.0459561 -0.0168341 0)
(0.0685976 -0.0157652 0)
(0.0932305 -0.0140002 0)
(0.119893 -0.0116178 0)
(0.148767 -0.00850968 1.10296e-21)
(0.179419 -0.00458117 0)
(0.212514 0.000266821 3.17982e-18)
(0.246996 0.00604284 -3.21119e-18)
(0.284656 0.0128391 -1.62032e-18)
(0.322769 0.0206224 0)
(0.366142 0.0294994 0)
(0.407455 0.0394193 -3.21538e-18)
(0.459615 0.0505465 7.79652e-21)
(0.502707 0.0627859 -3.01854e-18)
(0.571308 0.076579 3.00899e-18)
(0.611676 0.0912001 2.46529e-18)
(0.715607 0.108544 -2.59639e-18)
(0.741702 0.123507 2.03532e-18)
(0.930803 0.139035 1.86921e-18)
(0.936534 0.112982 6.54443e-20)
(0.656989 0.0576354 -3.35695e-18)
(0.393945 0.0254318 -7.79637e-18)
(0.194038 0.0169958 -3.94114e-22)
(0.0884285 0.0104463 4.49439e-18)
(0.0245032 0.0105599 4.57979e-18)
(-0.00550063 0.0090384 -2.28284e-18)
(-0.0274234 0.00947713 0)
(-0.0381412 0.00893638 0)
(-0.0468465 0.00900847 2.19955e-18)
(-0.0515817 0.00884606 2.16027e-18)
(-0.0557278 0.00894593 0)
(-0.0585882 0.00907954 2.07519e-18)
(-0.0614626 0.00934835 0)
(-0.0641033 0.00965191 0)
(-0.0669472 0.00997107 0)
(-0.0698406 0.010252 0)
(-0.0728722 0.0104638 1.84357e-18)
(-0.0759196 0.0105754 8.99757e-19)
(-0.0789497 0.0105608 -8.78704e-19)
(-0.0818557 0.0103951 2.77697e-23)
(-0.0845597 0.0100541 0)
(-0.0869561 0.00951933 8.22695e-19)
(-0.0889481 0.0087769 0)
(-0.09043 0.00782386 0)
(-0.0913042 0.00666559 3.89564e-19)
(-0.0914734 0.00530941 -3.83802e-19)
(-0.0908405 0.00376345 -1.89414e-19)
(-0.0893061 0.00204129 1.87285e-19)
(-0.0867711 0.00016226 -9.27436e-20)
(-0.0831363 -0.00184879 9.19196e-20)
(-0.078298 -0.00396129 -1.82572e-19)
(-0.072156 -0.00613777 1.81644e-19)
(-0.0646135 -0.0083333 -6.70584e-23)
(-0.0555802 -0.010495 -3.61443e-19)
(-0.0449709 -0.0125631 0)
(-0.032714 -0.0144701 0)
(-0.0187416 -0.0161417 0)
(-0.00301623 -0.017494 -1.45595e-18)
(0.0145075 -0.0184297 -7.30055e-19)
(0.0338142 -0.0188385 0)
(0.05495 -0.0185894 0)
(0.0778836 -0.0176054 -1.46939e-18)
(0.102825 -0.0159231 0)
(0.12977 -0.013616 0)
(0.158893 -0.0105625 3.00766e-18)
(0.189791 -0.0066748 -1.5182e-18)
(0.223096 -0.00184705 -3.0679e-18)
(0.257824 0.00391742 1.69016e-21)
(0.29568 0.010726 3.10953e-18)
(0.334105 0.0185196 1.55186e-18)
(0.377684 0.027437 0)
(0.419491 0.037379 1.52685e-18)
(0.471873 0.0485632 3.03503e-18)
(0.515857 0.0608322 2.84905e-18)
(0.584614 0.0746547 -2.82972e-18)
(0.626691 0.0893376 -2.30971e-18)
(0.730349 0.106488 2.42427e-18)
(0.759566 0.12148 -9.39635e-19)
(0.946186 0.135936 -1.7349e-18)
(0.946832 0.121099 6.24656e-20)
(0.698574 0.0648737 3.31768e-18)
(0.444942 0.0311087 -1.571e-21)
(0.237614 0.0202153 -5.30718e-22)
(0.117534 0.0122832 0)
(0.043747 0.0113898 0)
(0.00694014 0.0094939 1.72176e-22)
(-0.0190347 0.00976166 0)
(-0.0325053 0.00912686 0)
(-0.0430756 0.00918309 -7.26378e-24)
(-0.049063 0.00900219 0)
(-0.0540481 0.00911057 0)
(-0.0574322 0.00925397 2.0679e-18)
(-0.0606032 0.00954221 0)
(-0.0633711 0.00986419 0)
(-0.0662155 0.0101997 0)
(-0.0690132 0.0104902 0)
(-0.0718724 0.0107037 -3.63088e-23)
(-0.0746857 0.010808 -8.88746e-19)
(-0.0774306 0.0107773 1.73356e-18)
(-0.0800093 0.0105862 2.62137e-23)
(-0.082352 0.0102109 8.26657e-19)
(-0.084361 0.00963285 0)
(-0.0859465 0.00883841 7.92262e-19)
(-0.0870086 0.00782511 0)
(-0.0874551 0.00659905 -3.82042e-19)
(-0.0871931 0.00516789 3.09907e-23)
(-0.0861291 0.00353988 0)
(-0.0841673 0.00172877 0)
(-0.0812119 -0.000245876 5.4456e-24)
(-0.0771654 -0.00235921 -6.00713e-24)
(-0.0719266 -0.00458034 8.92381e-20)
(-0.065398 -0.006871 0)
(-0.0574855 -0.00918529 -3.53863e-19)
(-0.0481012 -0.0114692 3.53252e-19)
(-0.0371615 -0.0136615 0)
(-0.0245963 -0.0156931 -7.07248e-19)
(-0.0103383 -0.0174874 0)
(0.00565055 -0.0189586 1.77617e-22)
(0.0234179 -0.0200062 0)
(0.042956 -0.0205183 7.14694e-19)
(0.0643195 -0.0203635 7.16536e-19)
(0.0874961 -0.0194689 5.48548e-22)
(0.112682 -0.0178729 -1.4428e-18)
(0.139841 -0.0156439 0)
(0.169134 -0.0126501 -9.24244e-22)
(0.200192 -0.00881075 1.47696e-18)
(0.233618 -0.00401339 1.3169e-21)
(0.268488 0.00172619 1.49462e-18)
(0.306434 0.00853076 -1.83417e-21)
(0.345039 0.016313 -2.14843e-21)
(0.388699 0.0252471 0)
(0.430825 0.0351757 0)
(0.483278 0.0463865 0)
(0.527907 0.0586242 0)
(0.596647 0.0724474 0)
(0.640039 0.0870779 2.15531e-18)
(0.743258 0.104045 0)
(0.774954 0.118863 0)
(0.959007 0.132471 -1.59703e-18)
(0.95506 0.128368 -1.93085e-18)
(0.735458 0.0719745 0)
(0.494305 0.0371016 -1.37861e-21)
(0.283221 0.0239474 -6.87341e-22)
(0.1501 0.0145467 0)
(0.0660486 0.0124877 2.26452e-18)
(0.021763 0.0101059 -2.26807e-18)
(-0.00871156 0.0101116 0)
(-0.0252962 0.00934494 0)
(-0.0379788 0.0093567 -2.19339e-18)
(-0.0454038 0.00913795 0)
(-0.0513627 0.00924066 0)
(-0.0553636 0.00938178 -2.06112e-18)
(-0.0588939 0.00968033 0)
(-0.0618282 0.0100135 -1.95887e-18)
(-0.0646979 0.0103603 0)
(-0.0674155 0.0106566 0)
(-0.0701128 0.0108696 -2.87902e-23)
(-0.0727004 0.0109652 0)
(-0.0751675 0.0109178 -8.56163e-19)
(-0.0774267 0.0107017 8.34801e-19)
(-0.0794168 0.0102933 -1.62976e-18)
(-0.081048 0.00967366 7.96481e-19)
(-0.0822376 0.00882956 -7.79719e-19)
(-0.0828918 0.00775879 0)
(-0.0829235 0.0064681 -3.75476e-19)
(-0.0822438 0.00496537 7.39056e-19)
(-0.0807628 0.00325892 0)
(-0.0783883 0.00136264 -8.99937e-20)
(-0.0750274 -0.000703822 4.45116e-20)
(-0.0705842 -0.00291562 -4.40876e-20)
(-0.0649604 -0.00524147 -8.75147e-20)
(-0.0580616 -0.00764233 0)
(-0.0497961 -0.0100714 -3.46813e-19)
(-0.0400785 -0.0124735 3.46183e-19)
(-0.028827 -0.0147861 0)
(-0.0159731 -0.0169387 6.93371e-19)
(-0.00145055 -0.0188525 0)
(0.0147793 -0.0204397 6.96746e-19)
(0.0327658 -0.0215974 0)
(0.0525077 -0.0222124 -7.007e-19)
(0.0740658 -0.0221534 -7.02791e-19)
(0.0974423 -0.021351 5.09425e-22)
(0.122819 -0.0198431 1.41535e-18)
(0.150132 -0.0176931 0)
(0.179532 -0.014762 -1.4331e-18)
(0.210681 -0.0109759 0)
(0.244152 -0.00621614 1.44958e-18)
(0.279081 -0.000511093 0)
(0.31703 0.0062773 -1.45458e-18)
(0.355714 0.0140319 -2.88744e-18)
(0.399353 0.0229647 0)
(0.441665 0.0328534 0)
(0.494072 0.0440678 0)
(0.539152 0.0562285 1.28255e-18)
(0.607748 0.0700313 0)
(0.652153 0.0845235 -9.91957e-21)
(0.754819 0.101319 0)
(0.788493 0.115815 7.88881e-19)
(0.969968 0.12877 1.49829e-18)
(0.961618 0.134863 0)
(0.76795 0.0788413 3.22909e-18)
(0.541422 0.0433054 3.74756e-18)
(0.33008 0.0281554 -8.55396e-22)
(0.185844 0.0172575 0)
(0.0914511 0.013905 -2.24918e-18)
(0.039105 0.0109164 0)
(0.00366025 0.0105596 2.2513e-18)
(-0.0164236 0.0096166 2.22409e-18)
(-0.0314795 0.00954868 2.19038e-18)
(-0.040547 0.00926938 2.14945e-18)
(-0.0476327 0.00934947 2.10483e-18)
(-0.052361 0.00947421 0)
(-0.0563295 0.00977247 0)
(-0.0594838 0.0101085 1.94883e-18)
(-0.0624158 0.0104608 0)
(-0.0650787 0.0107588 0)
(-0.0676329 0.0109686 -1.78983e-18)
(-0.0700092 0.0110539 0)
(-0.0722107 0.0109891 -8.46885e-19)
(-0.0741615 0.0107479 0)
(-0.0758095 0.0103069 8.04659e-19)
(-0.0770734 0.00964703 -7.8592e-19)
(-0.0778778 0.0087551 0)
(-0.078135 0.00762917 0)
(-0.0777631 0.00627649 2.41785e-23)
(-0.0766771 0.00470508 -3.63858e-19)
(-0.0747907 0.00292329 0)
(-0.0720152 0.000945108 8.85674e-20)
(-0.0682604 -0.00120981 4.37697e-20)
(-0.0634323 -0.00351663 -4.33431e-20)
(-0.0574359 -0.0059436 0)