/*--------------------------------*- C++ -*----------------------------------*\
| =========                 |                                                 |
| \\      /  F ield         | OpenFOAM: The Open Source CFD Toolbox           |
|  \\    /   O peration     | Version:  2.4.0                                 |
|   \\  /    A nd           | Web:      www.OpenFOAM.org                      |
|    \\/     M anipulation  |                                                 |
\*---------------------------------------------------------------------------*/
FoamFile
{
    version     2.0;
    format      ascii;
    class       volVectorField;
    location    "0.09";
    object      U;
}
// * * * * * * * * * * * * * * * * * * * * * * * * * * * * * * * * * * * * * //

dimensions      [0 1 -1 0 0 0 0];

internalField   nonuniform List<vector> 
2320
(
(1.00058 -2.38194e-06 0)
(0.999183 -2.46299e-05 0)
(1.00062 -3.42924e-05 0)
(1.00152 -6.9507e-05 0)
(0.998623 -5.96131e-05 0)
(1.00116 -0.000154633 0)
(1.00319 -5.48334e-05 0)
(1.00311 -0.00043961 0)
(0.999539 0.000156595 0)
(1.0086 -0.00125705 0)
(1.00315 0.000996479 0)
(1.01652 -0.00338039 0)
(1.00147 0.00323198 0)
(1.02942 -0.00763813 0)
(1.0115 0.00677726 0)
(1.04067 -0.01384 0)
(1.04293 0.00901808 0)
(1.06035 -0.0196629 0)
(1.09717 0.00756788 0)
(1.11226 -0.0245034 0)
(1.00058 -3.68277e-06 0)
(0.999181 -7.45784e-05 0)
(1.00061 -0.000102444 0)
(1.00152 -0.00020214 0)
(0.998594 -0.000181177 0)
(1.00117 -0.000457707 0)
(1.00307 -0.000169587 0)
(1.00322 -0.00128925 0)
(0.999195 0.000444194 0)
(1.00895 -0.00373233 0)
(1.00231 0.00295224 0)
(1.01736 -0.0100782 0)
(1.00004 0.00966012 0)
(1.03054 -0.0229112 0)
(1.01011 0.0204253 0)
(1.04083 -0.0416416 0)
(1.04258 0.027284 0)
(1.05876 -0.0591286 0)
(1.09688 0.0231417 0)
(1.10914 -0.0739575 0)
(1.00058 -5.23488e-06 0)
(0.999175 -0.00012947 0)
(1.00059 -0.000167121 0)
(1.00152 -0.000326677 0)
(0.998537 -0.000310423 0)
(1.00119 -0.000734412 0)
(1.00285 -0.000304909 0)
(1.00339 -0.00206222 0)
(0.998542 0.000660523 0)
(1.00958 -0.00608715 0)
(1.00076 0.00479984 0)
(1.01887 -0.0166217 0)
(0.997415 0.0160168 0)
(1.03249 -0.0382238 0)
(1.00771 0.0344165 0)
(1.04074 -0.0698919 0)
(1.04238 0.0463416 0)
(1.05524 -0.0991079 0)
(1.09675 0.0400706 0)
(1.10281 -0.124746 0)
(1.00058 5.49735e-06 0)
(0.999169 -0.00018187 0)
(1.00057 -0.000223963 0)
(1.0015 -0.000441074 0)
(0.998461 -0.000448297 0)
(1.00121 -0.000957682 0)
(1.00255 -0.000490557 0)
(1.00361 -0.00269569 0)
(0.997622 0.000731221 0)
(1.01042 -0.00815988 0)
(0.998597 0.00635636 0)
(1.02084 -0.0227668 0)
(0.993837 0.0220776 0)
(1.03487 -0.0533994 0)
(1.00479 0.0487623 0)
(1.03976 -0.0986099 0)
(1.04297 0.066257 0)
(1.04941 -0.139282 0)
(1.09709 0.0582237 0)
(1.09381 -0.176665 0)
(1.00057 9.25782e-06 0)
(0.99915 -0.000245041 0)
(1.00055 -0.00027968 0)
(1.00147 -0.000552102 0)
(0.998378 -0.000595037 0)
(1.00121 -0.00110944 0)
(1.00221 -0.000773222 0)
(1.00383 -0.00308606 0)
(0.996531 0.000518855 0)
(1.01131 -0.00968983 0)
(0.996045 0.00732482 0)
(1.02291 -0.0281319 0)
(0.989656 0.0274866 0)
(1.03716 -0.0681901 0)
(1.00185 0.0633949 0)
(1.03727 -0.127812 0)
(1.04487 0.0869991 0)
(1.04112 -0.179302 0)
(1.09799 0.077678 0)
(1.08282 -0.230212 0)
(1.00057 5.82785e-05 0)
(0.999143 -0.000320519 0)
(1.00053 -0.000299256 0)
(1.00143 -0.000629526 0)
(0.998312 -0.000765685 0)
(1.00116 -0.00113753 0)
(1.00188 -0.00119319 0)
(1.00395 -0.00311369 0)
(0.995419 -0.000134573 0)
(1.01202 -0.010239 0)
(0.993368 0.00720597 0)
(1.02462 -0.0320432 0)
(0.985236 0.031612 0)
(1.03877 -0.082137 0)
(0.999245 0.077923 0)
(1.03279 -0.157324 0)
(1.04823 0.107991 0)
(1.03022 -0.218215 0)
(1.09948 0.0978439 0)
(1.06881 -0.284671 0)
(1.00055 4.3873e-05 0)
(0.999095 -0.000374859 0)
(1.00052 -0.000360784 0)
(1.00133 -0.000730995 0)
(0.998284 -0.00094381 0)
(1.00102 -0.00112135 0)
(1.00164 -0.00181474 0)
(1.00386 -0.00269007 0)
(0.99455 -0.00158435 0)
(1.0122 -0.00923092 0)
(0.990933 0.00527731 0)
(1.02545 -0.0336109 0)
(0.980865 0.0336097 0)
(1.03897 -0.0939515 0)
(0.997179 0.0913049 0)
(1.02545 -0.186792 0)
(1.05367 0.128333 0)
(1.01333 -0.255993 0)
(1.10467 0.117827 0)
(1.0436 -0.341861 0)
(1.00056 0.000223302 0)
(0.999097 -0.000589395 0)
(1.00051 -0.000218551 0)
(1.00123 -0.000824104 0)
(0.998313 -0.00114626 0)
(1.00072 -0.000719712 0)
(1.00165 -0.00276842 0)
(1.00333 -0.00138225 0)
(0.994314 -0.00401182 0)
(1.01149 -0.00596513 0)
(0.989138 0.000353822 0)
(1.02488 -0.0300476 0)
(0.97689 0.0303434 0)
(1.03665 -0.0990825 0)
(0.99554 0.102591 0)
(1.0129 -0.21302 0)
(1.06401 0.148154 0)
(0.981169 -0.29284 0)
(1.12046 0.138719 0)
(0.996778 -0.40413 0)
(1.00049 8.05527e-05 0)
(0.999008 -0.000489254 0)
(1.00055 -0.000418405 0)
(1.00094 -0.000806445 0)
(0.998559 -0.00137514 0)
(1.00017 -0.000628401 0)
(1.002 -0.0037665 0)
(1.00224 8.64609e-05 0)
(0.995081 -0.0079167 0)
(1.00918 -3.01514e-05 0)
(0.989324 -0.00908479 0)
(1.02191 -0.0195097 0)
(0.974299 0.0186455 0)
(1.03233 -0.0949704 0)
(0.993974 0.104792 0)
(0.992124 -0.229669 0)
(1.08425 0.168431 0)
(0.923775 -0.321993 0)
(1.15191 0.158344 0)
(0.932034 -0.46418 0)
(1.00056 0.000623402 0)
(0.999029 -0.00121559 0)
(1.00055 0.000280272 0)
(1.00085 -0.00135783 0)
(0.998671 -0.00134756 0)
(0.999444 0.000236476 0)
(1.00283 -0.00568836 0)
(1.00003 0.00359859 0)
(0.99776 -0.0134376 0)
(1.00463 0.00883018 0)
(0.992681 -0.0210966 0)
(1.01599 -0.00374964 0)
(0.97502 0.00255802 0)
(1.02416 -0.0837494 0)
(0.996549 0.101279 0)
(0.96081 -0.241205 0)
(1.11523 0.184827 0)
(0.842343 -0.345914 0)
(1.1981 0.176287 0)
(0.869352 -0.508629 0)
(1.00032 5.60912e-05 0)
(0.998957 -0.000464951 0)
(1.00064 -0.000535446 0)
(1.00018 -0.000578237 0)
(0.999639 -0.00201888 0)
(0.997855 0.000523222 0)
(1.00462 -0.00659324 0)
(0.996937 0.00547003 0)
(1.00191 -0.0188505 0)
(0.998131 0.0184415 0)
(1.00007 -0.0362108 0)
(1.00641 0.0152599 0)
(0.982762 -0.0158796 0)
(1.00998 -0.0711724 0)
(1.00969 0.100045 0)
(0.916761 -0.25291 0)
(1.15593 0.199386 0)
(0.745122 -0.358267 0)
(1.24632 0.171947 0)
(0.804147 -0.523077 0)
(1.0006 0.00142683 0)
(0.998922 -0.0025751 0)
(1.00073 0.0017156 0)
(1.00017 -0.00293156 0)
(0.999561 -0.000457179 0)
(0.99698 0.000735567 0)
(1.00637 -0.00916434 0)
(0.99224 0.0110173 0)
(1.00956 -0.0273373 0)
(0.98686 0.0306616 0)
(1.01508 -0.0519361 0)
(0.989402 0.0353847 0)
(1.00534 -0.0343963 0)
(0.983072 -0.0579963 0)
(1.04315 0.105535 0)
(0.860472 -0.270345 0)
(1.20306 0.225675 0)
(0.650746 -0.360438 0)
(1.29142 0.150335 0)
(0.70908 -0.496155 0)
(0.99984 -0.000175915 0)
(0.999231 -1.76285e-05 0)
(1.0006 -0.00104537 0)
(0.999157 0.00029236 0)
(1.00176 -0.00325638 0)
(0.993233 0.00245841 0)
(1.01108 -0.00966617 0)
(0.985335 0.0111502 0)
(1.01936 -0.0304068 0)
(0.971618 0.0376973 0)
(1.04065 -0.0671193 0)
(0.956453 0.0546677 0)
(1.05893 -0.0544046 0)
(0.929491 -0.0452817 0)
(1.10951 0.113203 0)
(0.792595 -0.284059 0)
(1.25164 0.249354 0)
(0.565056 -0.354065 0)
(1.3303 0.103508 0)
(0.600591 -0.428495 0)
(1.00075 0.0027238 0)
(0.998744 -0.00499805 0)
(1.00107 0.00470671 0)
(0.99921 -0.00647881 0)
(1.00096 0.00300641 0)
(0.99341 -0.00139227 0)
(1.01259 -0.00979253 0)
(0.977599 0.0161154 0)
(1.03538 -0.0388815 0)
(0.942584 0.0473547 0)
(1.08669 -0.0782369 0)
(0.891878 0.0647441 0)
(1.15254 -0.06358 0)
(0.828598 -0.0379274 0)
(1.22008 0.12462 0)
(0.701576 -0.290358 0)
(1.30299 0.286072 0)
(0.504082 -0.344294 0)
(1.35885 0.0788744 0)
(0.509335 -0.340222 0)
(0.998679 -0.00078585 0)
(1.00065 0.00125842 0)
(0.999587 -0.00252111 0)
(0.998875 0.00246889 0)
(1.00412 -0.00522854 0)
(0.986524 0.00456981 0)
(1.02246 -0.0109269 0)
(0.963162 0.0115713 0)
(1.05387 -0.0306793 0)
(0.909197 0.0378139 0)
(1.1362 -0.073216 0)
(0.804379 0.0627964 0)
(1.26222 -0.0667032 0)
(0.679627 -0.0296824 0)
(1.35132 0.121784 0)
(0.58961 -0.270856 0)
(1.35896 0.290899 0)
(0.477964 -0.31882 0)
(1.38335 0.0361526 0)
(0.465324 -0.283007 0)
(1.00093 0.00420893 0)
(0.998738 -0.00820585 0)
(1.00097 0.00933382 0)
(0.999205 -0.0125528 0)
(1.00102 0.0107904 0)
(0.991063 -0.00927064 0)
(1.01849 -0.00169937 0)
(0.958884 0.00954504 0)
(1.06962 -0.0312845 0)
(0.870745 0.0366366 0)
(1.1844 -0.0617368 0)
(0.719079 0.0461235 0)
(1.33377 -0.0456155 0)
(0.555217 -0.0336428 0)
(1.44269 0.118296 0)
(0.483185 -0.25243 0)
(1.42559 0.299336 0)
(0.540652 -0.313032 0)
(1.38329 0.0285748 0)
(0.584225 -0.244006 0)
(0.995943 -0.00186469 0)
(1.00535 0.00369431 0)
(0.994771 -0.00552357 0)
(1.00354 0.00655145 0)
(1.00169 -0.00829366 0)
(0.983847 0.00588189 0)
(1.03169 -0.00605912 0)
(0.942089 0.000228473 0)
(1.08228 -0.00731936 0)
(0.858747 0.00692604 0)
(1.18656 -0.0323326 0)
(0.708701 0.0279482 0)
(1.33223 -0.0335558 0)
(0.536454 -0.0326072 0)
(1.44701 0.103019 0)
(0.501455 -0.218468 0)
(1.41847 0.217728 0)
(0.754333 -0.219013 0)
(1.23888 -0.0624051 0)
(0.786383 -0.264079 0)
(1.00035 0.00462333 0)
(1.00054 -0.010209 0)
(0.997623 0.0137675 0)
(1.00489 -0.0196902 0)
(0.992545 0.0222003 0)
(1.00158 -0.0233831 0)
(1.00814 0.0162944 0)
(0.965573 -0.00797267 0)
(1.06722 -0.00714016 0)
(0.865905 0.0138976 0)
(1.17821 -0.0240556 0)
(0.73704 0.0159165 0)
(1.27741 -0.00914665 0)
(0.649517 -0.0395763 0)
(1.32881 0.0896367 0)
(0.67743 -0.176843 0)
(1.22746 0.132378 0)
(0.886376 -0.15286 0)
(1.04568 -0.0628059 0)
(0.723841 -0.282883 0)
(0.984983 -0.00351012 0)
(1.02912 0.00773366 0)
(0.961285 -0.0109275 0)
(1.05084 0.0138319 0)
(0.943579 -0.0145454 0)
(1.04438 0.00885568 0)
(0.97789 0.000103501 0)
(0.978786 -0.0155939 0)
(1.06077 0.0208611 0)
(0.888991 -0.0208014 0)
(1.12908 -0.00543689 0)
(0.836728 0.0216232 0)
(1.16947 -0.040018 0)
(0.766249 -0.00333085 0)
(1.22139 0.0318668 0)
(0.73713 -0.102267 0)
(1.08909 0.032777 0)
(0.807023 -0.0728024 0)
(0.963853 -0.0729356 0)
(0.563165 -0.178177 0)
(1.0118 -0.00199137 0)
(0.975705 0.000630472 0)
(1.0317 0.00428751 0)
(0.958885 -0.0118553 0)
(1.0409 0.0236337 0)
(0.965855 -0.0359757 0)
(1.00354 0.043805 0)
(1.03394 -0.0392668 0)
(0.917688 0.0215465 0)
(1.07831 0.00955064 0)
(0.950815 -0.033523 0)
(0.925556 0.0408401 0)
(1.16118 -0.020848 0)
(0.700258 -0.0127656 0)
(1.23484 0.0435187 0)
(0.742118 -0.0559204 0)
(1.02823 0.0362811 0)
(0.766608 -0.0287614 0)
(0.961076 -0.00630154 0)
(0.45496 -0.0777476 0)
(1.17751 0.00363213 0)
(1.1995 -0.0283904 0)
(1.29897 -0.0105207 0)
(1.36733 -0.0207453 0)
(1.41842 -0.0165505 0)
(1.51275 -0.0150087 0)
(1.52779 -0.0227004 0)
(1.7043 -0.019164 0)
(1.17676 0.0122782 0)
(1.19113 -0.0866904 0)
(1.29965 -0.0310165 0)
(1.36384 -0.0617237 0)
(1.4155 -0.052306 0)
(1.51654 -0.0381752 0)
(1.51009 -0.0753638 0)
(1.72221 -0.0556371 0)
(1.17639 0.0254274 0)
(1.17306 -0.150059 0)
(1.3045 -0.0460666 0)
(1.34795 -0.1121 0)
(1.42949 -0.0773153 0)
(1.48386 -0.0679423 0)
(1.54608 -0.123843 0)
(1.63408 -0.0915689 0)
(1.17684 0.044444 0)
(1.14697 -0.218255 0)
(1.30683 -0.0563513 0)
(1.33398 -0.171861 0)
(1.42934 -0.0910424 0)
(1.47891 -0.106937 0)
(1.50854 -0.155158 0)
(1.65117 -0.16259 0)
(1.18023 0.0711485 0)
(1.10921 -0.291085 0)
(1.3125 -0.0638944 0)
(1.30607 -0.238724 0)
(1.44365 -0.100651 0)
(1.44529 -0.137401 0)
(1.50706 -0.202162 0)
(1.60009 -0.197905 0)
(1.18791 0.107614 0)
(1.05589 -0.366959 0)
(1.31843 -0.0690274 0)
(1.26773 -0.316275 0)
(1.44947 -0.0977786 0)
(1.42194 -0.180792 0)
(1.48509 -0.218426 0)
(1.57915 -0.27001 0)
(1.20205 0.156142 0)
(0.980393 -0.444467 0)
(1.32658 -0.0747402 0)
(1.20355 -0.39829 0)
(1.45383 -0.0962484 0)
(1.38432 -0.219619 0)
(1.49252 -0.242298 0)
(1.53551 -0.303142 0)
(1.21876 0.2152 0)
(0.905587 -0.524991 0)
(1.32729 -0.0776532 0)
(1.13471 -0.485774 0)
(1.4467 -0.0908056 0)
(1.35493 -0.281718 0)
(1.51024 -0.242255 0)
(1.5173 -0.347848 0)
(1.22455 0.271042 0)
(0.892329 -0.602773 0)
(1.30321 -0.0811411 0)
(1.1128 -0.570717 0)
(1.44897 -0.09065 0)
(1.33962 -0.35192 0)
(1.55004 -0.251662 0)
(1.54965 -0.37042 0)
(1.20573 0.311585 0)
(0.967141 -0.666257 0)
(1.23282 -0.0793242 0)
(1.15998 -0.666916 0)
(1.47001 -0.0798814 0)
(1.35233 -0.439227 0)
(1.59588 -0.25831 0)
(1.6564 -0.441978 0)
(1.16146 0.307695 0)
(1.05443 -0.709984 0)
(1.13566 -0.0681137 0)
(1.16564 -0.814562 0)
(1.48508 -0.0527731 0)
(1.32899 -0.534793 0)
(1.6683 -0.281346 0)
(1.75735 -0.573816 0)
(1.12101 0.269905 0)
(1.0599 -0.72985 0)
(1.0842 -0.0343859 0)
(1.09514 -0.996764 0)
(1.43323 -0.0187894 0)
(1.21023 -0.659113 0)
(1.78112 -0.319097 0)
(1.79214 -0.741794 0)
(1.11518 0.183505 0)
(0.970502 -0.748679 0)
(1.10962 -0.0103087 0)
(1.09944 -1.12971 0)
(1.32287 0.0250306 0)
(1.14876 -0.884627 0)
(1.88674 -0.401407 0)
(1.76464 -0.872228 0)
(1.15513 0.076274 0)
(0.796759 -0.749566 0)
(1.16554 -0.0326169 0)
(1.13683 -1.18357 0)
(1.23656 0.0687953 0)
(1.37258 -1.18563 0)
(1.96011 -0.486 0)
(1.66704 -0.971299 0)
(1.3333 -0.0276046 0)
(0.532283 -0.760121 0)
(1.42887 -0.132525 0)
(0.988401 -1.15505 0)
(1.40867 0.0110915 0)
(1.56677 -1.34236 0)
(2.02591 -0.436551 0)
(1.55788 -1.06597 0)
(1.55284 -0.0405004 0)
(0.416985 -0.767277 0)
(1.82933 -0.318382 0)
(0.729348 -1.10567 0)
(1.82281 -0.179006 0)
(1.37509 -1.45685 0)
(1.95531 -0.322312 0)
(1.49213 -1.28317 0)
(1.46504 -0.0482915 0)
(0.713755 -0.744525 0)
(1.65271 -0.433497 0)
(0.571505 -1.11176 0)
(1.95613 -0.394614 0)
(1.03495 -1.50209 0)
(1.88608 -0.300035 0)
(1.57243 -1.58968 0)
(1.06955 -0.0724268 0)
(0.731146 -0.729972 0)
(1.26422 -0.363477 0)
(0.751463 -1.18025 0)
(1.86256 -0.553132 0)
(0.945632 -1.49757 0)
(2.25605 -0.447723 0)
(1.75098 -1.94004 0)
(0.776089 -0.192919 0)
(0.600129 -0.835755 0)
(1.30036 -0.53586 0)
(0.968567 -1.2008 0)
(1.61677 -0.66332 0)
(1.01014 -1.54711 0)
(2.22715 -0.653958 0)
(1.64431 -2.36709 0)
(0.588576 -0.135486 0)
(0.766161 -0.867752 0)
(1.14305 -0.696918 0)
(0.897184 -1.14153 0)
(1.23918 -0.793595 0)
(1.0162 -1.53418 0)
(1.72837 -1.1202 0)
(1.50788 -2.42068 0)
(1.67125 -0.0346155 0)
(1.96332 -0.00602693 0)
(1.79038 -0.0431654 0)
(2.17874 0.0154842 0)
(1.86888 -0.0416143 0)
(2.28349 0.0165414 0)
(1.97405 -0.0184976 0)
(2.23959 0.00248081 0)
(2.10111 -0.00298063 0)
(2.10985 0.0235696 0)
(2.13898 -0.0437482 0)
(2.07344 0.0801588 0)
(2.05224 -0.0754745 0)
(2.07455 0.0647343 0)
(2.04193 -0.0384324 0)
(2.0014 0.0637366 0)
(1.95529 -0.110735 0)
(2.27524 0.128841 0)
(1.45661 -0.040177 0)
(2.63822 -0.180762 0)
(1.54667 0.326308 0)
(1.97149 -0.367392 0)
(2.46214 0.0840251 0)
(1.41083 -0.0673368 0)
(2.5419 -0.0741004 0)
(1.81739 -0.0875487 0)
(2.63521 -0.185584 0)
(2.12457 0.00986569 0)
(1.63986 -0.092983 0)
(2.01039 -0.0543643 0)
(1.74004 -0.0649844 0)
(2.25265 -0.0493571 0)
(1.7988 -0.0151157 0)
(2.38103 -0.0579289 0)
(1.86893 0.0276068 0)
(2.38556 -0.0478372 0)
(1.92837 0.043942 0)
(2.30357 -0.0207319 0)
(1.97304 0.0395149 0)
(2.16748 -0.0158228 0)
(2.0624 0.0552749 0)
(1.98958 -0.0437486 0)
(2.15727 0.0658222 0)
(1.86769 -0.0213377 0)
(2.2252 -0.00780617 0)
(1.67566 0.0801377 0)
(2.46151 -0.0954651 0)
(1.48525 0.0900858 0)
(2.32497 0.0346683 0)
(1.94861 -0.121168 0)
(1.74854 0.194152 0)
(2.30507 0.0139576 0)
(1.89141 -0.171505 0)
(2.16893 0.138158 0)
(2.11666 -0.137506 0)
(2.21393 -0.141922 0)
(1.76477 -0.167667 0)
(1.83468 -0.0654749 0)
(1.98271 -0.152667 0)
(1.98663 -0.0188133 0)
(2.11214 -0.0989048 0)
(2.09257 -0.0181075 0)
(2.15771 -0.0229929 0)
(2.16255 -0.0208897 0)
(2.12126 0.0285654 0)
(2.16824 0.0135404 0)
(2.0673 0.0124595 0)
(2.12557 0.0474546 0)
(2.03967 0.00456212 0)
(2.07633 0.0232396 0)
(2.02286 0.021281 0)
(2.01801 0.02611 0)
(2.06168 -0.00502674 0)
(1.89099 0.00306841 0)
(2.14622 0.0864756 0)
(1.78472 -0.144175 0)
(2.19117 0.136159 0)
(1.82663 -0.0997399 0)
(2.06704 0.00360979 0)
(2.09588 -0.143017 0)
(1.87722 0.0439733 0)
(2.19315 -0.244233 0)
(2.12474 -0.131821 0)
(2.2999 -0.369229 0)
(1.70725 -0.191398 0)
(1.89103 -0.163954 0)
(1.91978 -0.136543 0)
(2.04938 -0.109422 0)
(2.06693 -0.0702804 0)
(2.11352 -0.0688319 0)
(2.17634 -0.0225002 0)
(2.11383 -0.0111781 0)
(2.21735 0.0145883 0)
(2.04868 0.0310298 0)
(2.21657 0.0347065 0)
(1.96155 0.0231167 0)
(2.20644 0.0547036 0)
(1.91235 -0.0141027 0)
(2.16115 0.0772213 0)
(1.92121 -0.0329955 0)
(2.09713 0.0616947 0)
(1.92478 0.00675898 0)
(2.06045 -0.00817025 0)
(1.95475 0.0179314 0)
(1.97093 0.0580091 0)
(2.09524 -0.124524 0)
(1.88002 0.0572044 0)
(2.12699 0.0510206 0)
(2.06018 -0.229338 0)
(2.00893 -0.00510289 0)
(2.13932 -0.19419 0)
(2.19163 -0.238178 0)
(1.72086 -0.279037 0)
(1.84385 -0.18401 0)
(1.95071 -0.218133 0)
(2.0398 -0.102954 0)
(2.06139 -0.120573 0)
(2.16905 -0.0786066 0)
(2.10767 -0.0183715 0)
(2.24339 -0.0433842 0)
(2.07609 0.0604805 0)
(2.23131 0.0145251 0)
(2.01785 0.055799 0)
(2.17155 0.0498761 0)
(1.99417 0.0328903 0)
(2.10811 0.0384579 0)
(1.99164 0.0291048 0)
(2.06267 0.0443725 0)
(1.98732 0.00777025 0)
(2.0106 0.0133302 0)
(2.00141 0.0781702 0)
(1.98156 -0.0925101 0)
(1.9683 0.0605174 0)
(2.05359 -0.0167562 0)
(1.89069 -0.030033 0)
(2.10659 -0.158062 0)
(1.91935 0.0637716 0)
(2.10526 -0.224895 0)
(2.02247 -0.243526 0)
(2.01113 -0.3114 0)
(1.66928 -0.317403 0)
(1.81451 -0.280334 0)
(1.9419 -0.22836 0)
(2.00575 -0.160862 0)
(2.10659 -0.136568 0)
(2.10835 -0.0807687 0)
(2.19843 -0.0719965 0)
(2.16541 0.0159876 0)
(2.17963 0.00539445 0)
(2.14124 0.0761829 0)
(2.10499 0.0491901 0)
(2.09519 0.0516075 0)
(2.03861 0.0676394 0)
(2.08991 0.005626 0)
(1.96772 0.0839796 0)
(2.10003 -0.0194204 0)
(1.92086 0.0812528 0)
(2.07349 -0.00657018 0)
(1.89867 0.0196179 0)
(2.07365 0.0150764 0)
(1.86061 0.0269867 0)
(2.07096 -0.0952293 0)
(1.87846 0.0211666 0)
(2.05019 0.0028862 0)
(1.93425 -0.206204 0)
(2.00272 -0.114998 0)
(1.93459 -0.105871 0)
(2.1092 -0.382676 0)
(1.60752 -0.398048 0)
(1.74767 -0.329464 0)
(1.88575 -0.29731 0)
(2.00134 -0.194172 0)
(2.06431 -0.158502 0)
(2.14229 -0.131158 0)
(2.17973 -0.0432528 0)
(2.19406 -0.0342945 0)
(2.19378 0.0664162 0)
(2.11968 0.0594862 0)
(2.14904 0.0705047 0)
(2.01593 0.0886004 0)
(2.13272 0.0321305 0)
(1.95256 0.0754204 0)
(2.12541 0.0255422 0)
(1.92779 0.069141 0)
(2.07692 0.0188179 0)
(1.93224 0.0374087 0)
(2.0233 0.0595918 0)
(1.93375 -0.0440013 0)
(1.97713 0.0372551 0)
(1.9793 0.0127509 0)
(1.92456 -0.060607 0)
(1.97202 -0.112903 0)
(1.96038 0.0276071 0)
(2.01639 -0.175814 0)
(1.86987 -0.30149 0)
(1.96862 -0.234463 0)
(1.55196 -0.428361 0)
(1.66737 -0.414195 0)
(1.83105 -0.347476 0)
(1.94952 -0.247056 0)
(2.05964 -0.206776 0)
(2.12405 -0.136777 0)
(2.1859 -0.0987409 0)
(2.22151 0.00511101 0)
(2.16734 0.0479639 0)
(2.1756 0.0932322 0)
(2.07196 0.102205 0)
(2.09572 0.0553937 0)
(2.0268 0.0939309 0)
(2.05407 0.015511 0)
(2.01956 0.0830201 0)
(2.00785 0.0159854 0)
(2.03233 0.062348 0)
(1.92713 0.0297101 0)
(2.05107 0.00430355 0)
(1.89284 0.0503758 0)
(2.04143 -0.0205203 0)
(1.84778 -0.0453291 0)
(2.0864 0.00375511 0)
(1.83646 -0.0273557 0)
(2.0262 -0.21306 0)
(1.84274 -0.087728 0)
(2.0617 -0.107842 0)
(1.8795 -0.349361 0)
(1.60932 -0.466551 0)
(1.6828 -0.462089 0)
(1.81305 -0.419821 0)
(1.95013 -0.311606 0)
(2.0439 -0.237779 0)
(2.1186 -0.196303 0)
(2.18969 -0.0961786 0)
(2.20814 -0.0208832 0)
(2.20303 0.0816633 0)
(2.13126 0.118721 0)
(2.09691 0.105359 0)
(2.04522 0.117926 0)
(2.0331 0.0556987 0)
(2.04232 0.0800755 0)
(1.99446 0.0602407 0)
(2.05093 0.0571977 0)
(1.93563 0.0691376 0)
(2.04797 0.0281414 0)
(1.90173 0.0772989 0)
(1.99652 -0.0282425 0)
(1.93698 0.0497471 0)
(1.95294 0.00417901 0)
(1.93087 -0.0724772 0)
(1.91021 -0.0413963 0)
(2.02211 -0.0202544 0)
(1.79831 -0.172781 0)
(1.93163 -0.292388 0)
(1.7934 -0.094486 0)
(1.82465 -0.482437 0)
(1.85725 -0.504446 0)
(1.91356 -0.476295 0)
(2.00694 -0.365085 0)
(2.0803 -0.288322 0)
(2.11658 -0.215901 0)
(2.1702 -0.138819 0)
(2.2071 -0.00961654 0)
(2.17706 0.090419 0)
(2.13573 0.13161 0)
(2.07193 0.139431 0)
(2.02785 0.0813879 0)
(2.03944 0.0851713 0)
(1.99606 0.0415972 0)
(2.04022 0.0584698 0)
(1.97654 0.0572815 0)
(2.00846 0.0436289 0)
(1.95133 0.0538842 0)
(1.96387 0.0204453 0)
(1.97505 0.0341908 0)
(1.8812 -0.00196371 0)
(2.00514 -0.0418438 0)
(1.87351 0.0253173 0)
(1.96403 -0.105187 0)
(1.81584 -0.115371 0)
(2.00738 -0.070215 0)
(1.83358 -0.133085 0)
(1.71596 -0.37964 0)
(2.05063 -0.528721 0)
(2.10155 -0.50414 0)
(2.07311 -0.508329 0)
(2.11422 -0.402376 0)
(2.13701 -0.290446 0)
(2.1187 -0.24671 0)
(2.1328 -0.149121 0)
(2.15752 -0.0164629 0)
(2.1474 0.12064 0)
(2.08658 0.185118 0)
(2.02859 0.164623 0)
(2.00428 0.139335 0)
(1.99132 0.0820095 0)
(2.01622 0.0798143 0)
(1.99779 0.0863084 0)
(1.99794 0.0692912 0)
(1.98147 0.0932556 0)
(1.94915 0.0571436 0)
(1.96728 0.0608073 0)
(1.89942 0.0301731 0)
(1.98162 0.020474 0)
(1.87273 0.0220514 0)
(1.92984 -0.0569205 0)
(1.93813 0.0018117 0)
(1.85499 -0.056019 0)
(1.87109 -0.184403 0)
(1.82382 -0.0956223 0)
(1.94864 -0.156507 0)
(2.11661 -0.601321 0)
(2.2092 -0.51389 0)
(2.17858 -0.499417 0)
(2.19587 -0.408141 0)
(2.18951 -0.278293 0)
(2.10971 -0.214553 0)
(2.06865 -0.157477 0)
(2.0777 -0.026707 0)
(2.06842 0.114943 0)
(2.03908 0.171857 0)
(1.99522 0.165022 0)
(1.96954 0.0955625 0)
(1.98323 0.0653525 0)
(1.98031 0.0429028 0)
(1.99005 0.04846 0)
(1.97896 0.0661455 0)
(1.94762 0.0537761 0)
(1.95508 0.0563541 0)
(1.91987 0.0430799 0)
(1.93471 0.0161224 0)
(1.90816 0.0122856 0)
(1.91569 -0.0205914 0)
(1.92478 -0.0155089 0)
(1.82374 -0.0661621 0)
(1.95334 -0.0843379 0)
(1.80232 -0.0526857 0)
(1.79659 -0.209003 0)
(1.78638 -0.172648 0)
(2.05567 -0.646281 0)
(2.18025 -0.55674 0)
(2.22021 -0.507371 0)
(2.24199 -0.394839 0)
(2.23905 -0.24546 0)
(2.10329 -0.174217 0)
(1.97617 -0.12249 0)
(1.95414 -0.0056931 0)
(1.96632 0.152557 0)
(1.95253 0.238486 0)
(1.9338 0.211273 0)
(1.93203 0.150578 0)
(1.9421 0.0904274 0)
(1.96131 0.0798261 0)
(1.96618 0.100347 0)
(1.95151 0.0954947 0)
(1.94661 0.111857 0)
(1.9149 0.0849673 0)
(1.91464 0.065672 0)
(1.90828 0.0536513 0)
(1.89333 0.0255833 0)
(1.91062 0.0177769 0)
(1.87295 -0.000943614 0)
(1.91287 -0.0225489 0)
(1.82063 -0.0393326 0)
(1.85397 -0.101987 0)
(1.85256 -0.0771512 0)
(1.6561 -0.173041 0)
(2.0292 -0.661713 0)
(2.15981 -0.627856 0)
(2.31502 -0.553702 0)
(2.32764 -0.381072 0)
(2.2875 -0.197007 0)
(2.14203 -0.120059 0)
(1.94179 -0.103908 0)
(1.83877 -0.0297643 0)
(1.84323 0.0990148 0)
(1.88582 0.169859 0)
(1.91385 0.155008 0)
(1.91847 0.0847764 0)
(1.91796 0.0384627 0)
(1.9066 0.0295041 0)
(1.90187 0.0409174 0)
(1.89637 0.0676531 0)
(1.88476 0.0661031 0)
(1.892 0.0609143 0)
(1.89075 0.0471742 0)
(1.88534 0.0144596 0)
(1.90115 0.00976489 0)
(1.87524 -0.0123209 0)
(1.87884 -0.0267534 0)
(1.85605 -0.0330608 0)
(1.83836 -0.0578775 0)
(1.81228 -0.0794349 0)
(1.74984 -0.102772 0)
(1.79837 -0.139159 0)
(2.16676 -0.698242 0)
(2.30123 -0.755391 0)
(2.46163 -0.589411 0)
(2.44651 -0.383891 0)
(2.33185 -0.125616 0)
(2.13057 0.0187973 0)
(1.89216 0.0344415 0)
(1.75415 0.0586982 0)
(1.75482 0.150656 0)
(1.81918 0.21977 0)
(1.86912 0.2073 0)
(1.87986 0.155919 0)
(1.86561 0.1092 0)
(1.85279 0.0955181 0)
(1.85078 0.112932 0)
(1.85436 0.113383 0)
(1.86902 0.115833 0)
(1.87695 0.0951406 0)
(1.88753 0.0671732 0)
(1.89855 0.0578477 0)
(1.89011 0.0342391 0)
(1.89675 0.0269408 0)
(1.88396 0.0200107 0)
(1.85563 -0.00826281 0)
(1.85295 -0.0178548 0)
(1.80281 -0.0441009 0)
(1.78034 -0.0822252 0)
(1.71936 -0.0929015 0)
(2.48718 -0.832785 0)
(2.52197 -0.895235 0)
(2.58322 -0.573194 0)
(2.45698 -0.323832 0)
(2.28901 -0.0828452 0)
(2.10625 0.0578704 0)
(1.89776 0.0594834 0)
(1.73163 0.0283702 0)
(1.68887 0.0530572 0)
(1.74452 0.0961152 0)
(1.8058 0.105605 0)
(1.81782 0.0780612 0)
(1.79448 0.0447275 0)
(1.76883 0.0318541 0)
(1.77312 0.0346543 0)
(1.80795 0.0490485 0)
(1.85174 0.0530475 0)
(1.89124 0.0441218 0)
(1.90744 0.0346117 0)
(1.89891 0.0098855 0)
(1.88825 0.00427501 0)
(1.86238 -0.00649243 0)
(1.84192 -0.0157252 0)
(1.83077 -0.015292 0)
(1.79296 -0.0308038 0)
(1.77931 -0.0519429 0)
(1.74649 -0.0529588 0)
(1.69707 -0.0982437 0)
(2.88736 -1.03928 0)
(2.54341 -0.997507 0)
(2.48239 -0.457856 0)
(2.18965 -0.182117 0)
(2.00296 0.0750153 0)
(1.86077 0.204417 0)
(1.74587 0.230396 0)
(1.65985 0.193116 0)
(1.63472 0.168891 0)
(1.67364 0.170819 0)
(1.73129 0.171142 0)
(1.7686 0.160417 0)
(1.77972 0.138453 0)
(1.78068 0.112393 0)
(1.79511 0.0961231 0)
(1.82849 0.081479 0)
(1.8771 0.074608 0)
(1.92145 0.0711904 0)
(1.94884 0.0634148 0)
(1.95522 0.0641741 0)
(1.9374 0.0567838 0)
(1.9125 0.0466106 0)
(1.88293 0.0410973 0)
(1.84492 0.0175008 0)
(1.82137 0.00314447 0)
(1.78238 -0.012408 0)
(1.74289 -0.0440937 0)
(1.71189 -0.0505435 0)
(3.12893 -1.14503 0)
(2.08658 -1.02901 0)
(2.0031 -0.375286 0)
(1.53826 -0.166067 0)
(1.41613 0.0792979 0)
(1.33897 0.122284 0)
(1.36858 0.127354 0)
(1.41212 0.0780023 0)
(1.46567 0.0444832 0)
(1.52368 0.0469386 0)
(1.57935 0.0605175 0)
(1.63166 0.061728 0)
(1.68144 0.045731 0)
(1.72438 0.0252014 0)
(1.7602 0.00937826 0)
(1.78753 0.00306372 0)
(1.80587 0.00611728 0)
(1.81562 0.0104982 0)
(1.81725 0.019378 0)
(1.81099 0.0223504 0)
(1.80447 0.025649 0)
(1.79379 0.0257718 0)
(1.78208 0.0180343 0)
(1.77297 0.013286 0)
(1.75549 0.00401522 0)
(1.73677 -0.0143667 0)
(1.71397 -0.0190698 0)
(1.67456 -0.0423148 0)
(2.84063 -0.585262 0)
(0.945396 -0.371113 0)
(1.28524 0.0226898 0)
(0.639939 0.0596524 0)
(0.792844 0.258475 0)
(0.771479 0.207626 0)
(0.935096 0.214683 0)
(1.07148 0.166185 0)
(1.19892 0.12428 0)
(1.3064 0.104652 0)
(1.39279 0.0996359 0)
(1.46448 0.0941666 0)
(1.51954 0.0831108 0)
(1.55062 0.0705625 0)
(1.56112 0.0630569 0)
(1.56038 0.0591818 0)
(1.56109 0.0589787 0)
(1.56803 0.0612907 0)
(1.58309 0.0615492 0)
(1.60487 0.0625098 0)
(1.63032 0.0600561 0)
(1.65688 0.051991 0)
(1.68111 0.0457526 0)
(1.69715 0.0331023 0)
(1.70711 0.0189838 0)
(1.70515 0.00877874 0)
(1.68988 -0.00791015 0)
(1.66811 -0.018037 0)
(2.45757 -1.09071 0)
(-0.745133 -0.69164 0)
(0.149779 -0.0440438 0)
(-0.650781 -0.0327893 0)
(0.0943318 0.107666 0)
(0.105094 -0.0106614 0)
(0.405813 -0.0241793 0)
(0.52672 -0.0601144 0)
(0.606435 -0.0600997 0)
(0.668402 -0.0370811 0)
(0.741088 -0.010675 0)
(0.830499 0.00577775 0)
(0.925064 0.0111307 0)
(1.01097 0.0109785 0)
(1.08561 0.00886295 0)
(1.15164 0.00689936 0)
(1.2143 0.00599264 0)
(1.27693 0.00482431 0)
(1.34113 0.00547364 0)
(1.40551 0.00495278 0)
(1.46969 0.00458381 0)
(1.5291 0.00509054 0)
(1.58024 0.00304543 0)
(1.62162 0.00145725 0)
(1.64922 0.00168739 0)
(1.66241 -0.00292776 0)
(1.66176 -0.00299027 0)
(1.64505 -0.00552027 0)
(3.00515 -0.844847 0)
(3.26835 -1.13569 0)
(2.82204 -1.17952 0)
(1.46611 -1.28459 0)
(1.15387 -1.47995 0)
(1.20738 -1.3307 0)
(0.288711 -1.40655 0)
(-0.192194 -1.14814 0)
(2.43249 -0.960403 0)
(1.29251 -0.812545 0)
(1.11735 -0.932872 0)
(1.43513 -1.37362 0)
(1.05995 -1.61162 0)
(1.15527 -1.21551 0)
(0.505652 -1.15813 0)
(0.271135 -1.13568 0)
(2.21351 -0.485725 0)
(2.05137 -0.723365 0)
(2.49151 -1.07953 0)
(2.37293 -0.965565 0)
(1.21872 -1.0661 0)
(0.95895 -0.911785 0)
(0.619841 -0.80939 0)
(-0.278895 -0.621668 0)
(2.09601 -0.512773 0)
(2.10637 -0.906637 0)
(1.40725 -0.860053 0)
(1.15577 -0.866352 0)
(0.902893 -1.19101 0)
(0.688361 -1.11328 0)
(0.902157 -0.735426 0)
(0.531428 -0.902516 0)
(2.08611 -0.519147 0)
(1.86265 -0.531132 0)
(1.6686 -0.806341 0)
(1.9296 -0.793651 0)
(1.74657 -0.668324 0)
(0.859357 -0.753269 0)
(1.15906 -0.574923 0)
(0.451483 -0.275235 0)
(1.82144 -0.349097 0)
(1.97625 -0.612272 0)
(1.56765 -0.759319 0)
(1.2382 -0.709836 0)
(1.55437 -0.674578 0)
(0.960249 -0.929341 0)
(0.566637 -0.662163 0)
(1.08044 -0.457771 0)
(1.80776 -0.396324 0)
(2.03431 -0.476879 0)
(1.60423 -0.517701 0)
(1.23177 -0.878825 0)
(1.49003 -0.661346 0)
(1.32422 -0.286996 0)
(0.837161 -0.566404 0)
(0.856542 -0.53432 0)
(1.71905 -0.413254 0)
(1.74672 -0.462006 0)
(1.80323 -0.355907 0)
(1.64751 -0.587117 0)
(0.924257 -0.643475 0)
(1.17993 -0.511194 0)
(1.13048 -0.370768 0)
(0.497719 -0.218461 0)
(2.07283 -0.302106 0)
(1.38271 -0.512758 0)
(1.58238 -0.495944 0)
(1.74014 -0.376493 0)
(1.32886 -0.464844 0)
(0.938877 -0.482059 0)
(1.26537 -0.370202 0)
(1.38518 -0.362338 0)
(1.83226 -0.239072 0)
(1.83025 -0.211395 0)
(1.55047 -0.494984 0)
(1.22204 -0.519011 0)
(1.61949 -0.266025 0)
(1.13294 -0.396 0)
(1.28438 -0.44199 0)
(0.321408 -0.0830027 0)
(1.51553 -0.317058 0)
(1.76193 -0.363733 0)
(1.65082 -0.219984 0)
(1.49603 -0.380466 0)
(1.19973 -0.389218 0)
(1.37303 -0.369477 0)
(1.26905 -0.146587 0)
(0.869 -0.00809432 0)
(1.7913 -0.170524 0)
(1.57799 -0.297978 0)
(1.53316 -0.324994 0)
(1.55813 -0.284592 0)
(1.29069 -0.258432 0)
(1.4199 -0.344685 0)
(0.818148 -0.116801 0)
(1.26579 -0.187853 0)
(1.79034 -0.207099 0)
(1.61441 -0.194768 0)
(1.57897 -0.251268 0)
(1.40238 -0.2579 0)
(1.48953 -0.290876 0)
(1.17342 -0.161265 0)
(1.24415 -0.145638 0)
(1.29121 -0.165433 0)
(1.61257 -0.148923 0)
(1.66683 -0.207402 0)
(1.52911 -0.198221 0)
(1.50993 -0.225809 0)
(1.32623 -0.175528 0)
(1.31879 -0.208187 0)
(1.32048 -0.159592 0)
(1.10506 -0.0382731 0)
(1.69371 -0.138108 0)
(1.60204 -0.14979 0)
(1.55532 -0.168076 0)
(1.45721 -0.173047 0)
(1.40288 -0.173184 0)
(1.34792 -0.159864 0)
(1.20975 -0.0609705 0)
(1.23281 -0.103456 0)
(1.6641 -0.0970885 0)
(1.60214 -0.122437 0)
(1.53244 -0.141142 0)
(1.47658 -0.132797 0)
(1.4023 -0.134336 0)
(1.31563 -0.112824 0)
(1.29032 -0.102158 0)
(1.27822 -0.0468676 0)
(1.64785 -0.0774968 0)
(1.60226 -0.0950301 0)
(1.54119 -0.0924557 0)
(1.46441 -0.112821 0)
(1.40679 -0.095612 0)
(1.35092 -0.0945584 0)
(1.29156 -0.054839 0)
(1.24349 -0.0452582 0)
(1.64002 -0.0514024 0)
(1.58696 -0.0589513 0)
(1.52729 -0.0762806 0)
(1.4727 -0.0691603 0)
(1.40766 -0.0693098 0)
(1.34836 -0.06404 0)
(1.29924 -0.0477124 0)
(1.28543 -0.0299698 0)
(1.62853 -0.0259702 0)
(1.58316 -0.0398095 0)
(1.53044 -0.0374696 0)
(1.46792 -0.0443955 0)
(1.41041 -0.0419596 0)
(1.35791 -0.036704 0)
(1.30805 -0.0247715 0)
(1.27425 -0.0180024 0)
(1.61588 -0.0106836 0)
(1.5752 -0.00910204 0)
(1.52298 -0.0142748 0)
(1.46831 -0.0142142 0)
(1.41081 -0.0118218 0)
(1.35676 -0.0125137 0)
(1.31097 -0.0105965 0)
(1.28374 -0.00643498 0)
(-0.915222 -0.509788 0)
(0.326077 0.151072 0)
(0.22587 0.260803 0)
(0.501289 0.30811 6.37543e-18)
(0.817876 0.435226 6.17106e-19)
(1.03329 0.380184 0)
(1.45958 0.378993 4.83895e-18)
(1.36178 0.293488 2.5839e-19)
(1.52412 0.292265 3.27148e-18)
(1.39648 0.242086 3.02965e-18)
(1.61873 0.259914 0)
(1.45499 0.211604 2.46733e-18)
(1.74032 0.247083 -1.02832e-19)
(1.56948 0.205984 1.97312e-18)
(1.85959 0.249761 2.39545e-20)