/*--------------------------------*- C++ -*----------------------------------*\
| =========                 |                                                 |
| \\      /  F ield         | OpenFOAM: The Open Source CFD Toolbox           |
|  \\    /   O peration     | Version:  2.4.0                                 |
|   \\  /    A nd           | Web:      www.OpenFOAM.org                      |
|    \\/     M anipulation  |                                                 |
\*---------------------------------------------------------------------------*/
FoamFile
{
    version     2.0;
    format      ascii;
    class       volVectorField;
    location    "80";
    object      U;
}
// * * * * * * * * * * * * * * * * * * * * * * * * * * * * * * * * * * * * * //

dimensions      [0 1 -1 0 0 0 0];

internalField   nonuniform List<vector> 
10000
(
(0.995266 0.00069455 0)
(0.971581 0.00177061 0)
(0.918972 0.00296761 0)
(0.854837 0.00344255 0)
(0.796172 0.00335909 0)
(0.747523 0.00309162 0)
(0.708117 0.00280857 0)
(0.676381 0.00255415 0)
(0.65066 0.00233815 0)
(0.629697 0.0021535 0)
(0.612511 0.00199206 0)
(0.598385 0.00184399 0)
(0.586788 0.00170021 0)
(0.577332 0.00155131 0)
(0.569728 0.00138736 0)
(0.563767 0.00119589 0)
(0.559297 0.000957342 0)
(0.556222 0.000656573 0)
(0.55426 0.000461004 0)
(0.553807 0.00333227 0)
(0.995735 0.00197502 0)
(0.974803 0.0050563 0)
(0.927639 0.00860207 0)
(0.867169 0.0101842 0)
(0.810233 0.0100607 0)
(0.762227 0.00932676 0)
(0.722985 0.00851011 0)
(0.691176 0.00776344 0)
(0.665281 0.00712381 0)
(0.644093 0.00657509 0)
(0.626659 0.00609431 0)
(0.61228 0.00565285 0)
(0.60043 0.00522322 0)
(0.59073 0.00477646 0)
(0.582901 0.00428169 0)
(0.576747 0.00370269 0)
(0.572121 0.00299684 0)
(0.568882 0.00216432 0)
(0.566634 0.00143614 0)
(0.565859 0.00193193 0)
(0.996138 0.00313675 0)
(0.97763 0.00805708 0)
(0.935718 0.0138642 0)
(0.879603 0.0167222 0)
(0.825085 0.0167337 0)
(0.778214 0.015637 0)
(0.73946 0.0143392 0)
(0.707797 0.0131277 0)
(0.681875 0.0120786 0)
(0.660565 0.0111744 0)
(0.642958 0.0103802 0)
(0.628375 0.00965009 0)
(0.616305 0.00893799 0)
(0.606377 0.00819421 0)
(0.598319 0.00736504 0)
(0.591938 0.00639198 0)
(0.587076 0.00522779 0)
(0.583555 0.00393045 0)
(0.581047 0.00286028 0)
(0.579688 0.00299587 0)
(0.996494 0.00419355 0)
(0.980159 0.0107974 0)
(0.943347 0.0187843 0)
(0.892106 0.023035 0)
(0.840597 0.0233345 0)
(0.795321 0.0219771 0)
(0.757371 0.0202551 0)
(0.726073 0.0186105 0)
(0.700278 0.0171702 0)
(0.678958 0.0159228 0)
(0.66126 0.0148241 0)
(0.646532 0.0138131 0)
(0.634281 0.012826 0)
(0.624142 0.0117927 0)
(0.615844 0.0106383 0)
(0.609179 0.0092881 0)
(0.603955 0.00770131 0)
(0.599946 0.00597863 0)
(0.596856 0.00450201 0)
(0.594653 0.00398019 0)
(0.996817 0.00515819 0)
(0.982455 0.0132652 0)
(0.950586 0.0232943 0)
(0.904599 0.0290224 0)
(0.856612 0.0297763 0)
(0.813356 0.0282831 0)
(0.776519 0.0262125 0)
(0.745807 0.0241799 0)
(0.720298 0.022376 0)
(0.699084 0.0208037 0)
(0.681379 0.0194147 0)
(0.666569 0.0181358 0)
(0.65418 0.0168872 0)
(0.643852 0.0155822 0)
(0.635306 0.014131 0)
(0.628312 0.0124551 0)
(0.622639 0.0105347 0)
(0.618039 0.00850861 0)
(0.61426 0.0067463 0)
(0.611235 0.00576966 0)
(0.997114 0.00603664 0)
(0.984555 0.0154613 0)
(0.957424 0.0273559 0)
(0.91694 0.0346088 0)
(0.87291 0.0359814 0)
(0.83207 0.0344907 0)
(0.796647 0.0321621 0)
(0.766742 0.0297981 0)
(0.741682 0.0276668 0)
(0.720695 0.0257947 0)
(0.703076 0.024135 0)
(0.688253 0.022606 0)
(0.675775 0.0211162 0)
(0.665287 0.0195669 0)
(0.656502 0.017862 0)
(0.649166 0.0159305 0)
(0.643028 0.0137785 0)
(0.637841 0.0115658 0)
(0.633409 0.00962278 0)
(0.629677 0.0083285 0)
(0.99739 0.00683239 0)
(0.986479 0.0173894 0)
(0.963824 0.0309431 0)
(0.928967 0.0397288 0)
(0.889255 0.0418747 0)
(0.851197 0.0405343 0)
(0.817482 0.0380509 0)
(0.788608 0.0354235 0)
(0.764164 0.0330095 0)
(0.743532 0.0308693 0)
(0.726097 0.0289637 0)
(0.711339 0.0272077 0)
(0.698829 0.0255025 0)
(0.688223 0.0237437 0)
(0.679226 0.0218364 0)
(0.671574 0.0197233 0)
(0.665012 0.0174319 0)
(0.659316 0.0151238 0)
(0.654339 0.0130754 0)
(0.65004 0.0115598 0)
(0.997649 0.00754901 0)
(0.988237 0.0190564 0)
(0.969743 0.0340394 0)
(0.940517 0.0443258 0)
(0.905412 0.0473841 0)
(0.870468 0.0463466 0)
(0.838745 0.0438227 0)
(0.811127 0.04101 0)
(0.787473 0.0383666 0)
(0.767331 0.0359966 0)
(0.750186 0.0338752 0)
(0.735575 0.0319201 0)
(0.723102 0.0300301 0)
(0.712432 0.0281009 0)
(0.703273 0.0260442 0)
(0.695361 0.0238173 0)
(0.688455 0.0214605 0)
(0.682361 0.0191214 0)
(0.676969 0.0170196 0)
(0.672244 0.0153515 0)
(0.997893 0.0081902 0)
(0.989839 0.0204725 0)
(0.975138 0.0366388 0)
(0.95143 0.048352 0)
(0.921142 0.0524401 0)
(0.889612 0.0518585 0)
(0.860157 0.0494174 0)
(0.83402 0.0465073 0)
(0.811335 0.0436959 0)
(0.791824 0.0411408 0)
(0.775083 0.0388393 0)
(0.760713 0.0367172 0)
(0.748352 0.0346765 0)
(0.737686 0.0326177 0)
(0.728434 0.030462 0)
(0.720341 0.0281786 0)
(0.713188 0.0258114 0)
(0.706816 0.023485 0)
(0.701138 0.0213671 0)
(0.696119 0.0195999 0)
(0.998124 0.00875992 0)
(0.99129 0.0216515 0)
(0.979979 0.038746 0)
(0.961558 0.0517707 0)
(0.936215 0.0569769 0)
(0.90836 0.0570002 0)
(0.881436 0.0547713 0)
(0.857006 0.0518601 0)
(0.835473 0.0489502 0)
(0.816744 0.0462613 0)
(0.800529 0.0438204 0)
(0.7865 0.0415673 0)
(0.77434 0.0394126 0)
(0.763758 0.0372647 0)
(0.754493 0.0350552 0)
(0.74631 0.0327613 0)
(0.739018 0.0304228 0)
(0.732484 0.0281381 0)
(0.726638 0.0260311 0)
(0.72144 0.0242061 0)
(0.998342 0.00926218 0)
(0.992599 0.0226107 0)
(0.98425 0.0403773 0)
(0.970772 0.0545573 0)
(0.950409 0.0609347 0)
(0.926447 0.061701 0)
(0.902301 0.0598172 0)
(0.879802 0.0570084 0)
(0.859611 0.0540768 0)
(0.841819 0.0513117 0)
(0.826259 0.048777 0)
(0.812682 0.0464325 0)
(0.800819 0.0442016 0)
(0.790414 0.0420038 0)
(0.781228 0.0397799 0)
(0.773055 0.0375114 0)
(0.765729 0.0352292 0)
(0.759141 0.0330055 0)
(0.753231 0.0309294 0)
(0.747957 0.0290786 0)
(0.998549 0.00970103 0)
(0.993776 0.0233696 0)
(0.987955 0.0415603 0)
(0.978972 0.0567027 0)
(0.963523 0.0642617 0)
(0.943617 0.0658919 0)
(0.922475 0.064485 0)
(0.902126 0.0618877 0)
(0.883467 0.0590177 0)
(0.866775 0.0562397 0)
(0.852009 0.0536612 0)
(0.839002 0.0512679 0)
(0.827544 0.0489998 0)
(0.817413 0.0467889 0)
(0.808406 0.0445848 0)
(0.800343 0.0423697 0)
(0.793086 0.0401633 0)
(0.786545 0.0380146 0)
(0.780663 0.0359849 0)
(0.7754 0.0341333 0)
(0.998746 0.0100804 0)
(0.994831 0.0239495 0)
(0.99112 0.0423326 0)
(0.986091 0.058214 0)
(0.975377 0.0669171 0)
(0.959626 0.0695069 0)
(0.941684 0.0687031 0)
(0.923695 0.0664289 0)
(0.906762 0.0637089 0)
(0.891336 0.0609867 0)
(0.877507 0.0584188 0)
(0.865198 0.0560217 0)
(0.854256 0.0537557 0)
(0.844508 0.0515668 0)
(0.835783 0.049412 0)
(0.827933 0.0472727 0)
(0.820844 0.0451571 0)
(0.814439 0.0430942 0)
(0.80867 0.0411242 0)
(0.803495 0.0392921 0)
(0.998931 0.0104041 0)
(0.995777 0.0243713 0)
(0.993787 0.0427398 0)
(0.992108 0.0591172 0)
(0.985824 0.0688745 0)
(0.974246 0.072486 0)
(0.959665 0.0723995 0)
(0.944229 0.0705597 0)
(0.929209 0.0680818 0)
(0.91522 0.0654882 0)
(0.902478 0.0629888 0)
(0.890998 0.0606353 0)
(0.880693 0.058411 0)
(0.871439 0.056277 0)
(0.863103 0.0541978 0)
(0.855567 0.0521532 0)
(0.848739 0.0501409 0)
(0.842558 0.0481737 0)
(0.836977 0.0462757 0)
(0.83196 0.044481 0)
(0.999104 0.0106754 0)
(0.996628 0.0246557 0)
(0.996011 0.0428327 0)
(0.997046 0.0594576 0)
(0.994763 0.0701264 0)
(0.987278 0.0747785 0)
(0.976163 0.0755047 0)
(0.963453 0.0742055 0)
(0.950526 0.072063 0)
(0.938141 0.0696739 0)
(0.926638 0.0673038 0)
(0.916124 0.0650429 0)
(0.906581 0.0629002 0)
(0.897936 0.0608529 0)
(0.890096 0.0588733 0)
(0.882973 0.05694 0)
(0.876498 0.0550425 0)
(0.870621 0.0531813 0)
(0.865301 0.0513679 0)
(0.860504 0.0496277 0)
(0.999266 0.0108972 0)
(0.997396 0.0248214 0)
(0.997856 0.0426636 0)
(1.00098 0.0592984 0)
(1.00215 0.0706879 0)
(0.998561 0.0763488 0)
(0.99095 0.0779546 0)
(0.9811 0.0772918 0)
(0.970431 0.075576 0)
(0.959813 0.0734687 0)
(0.949699 0.0712907 0)
(0.940288 0.0691727 0)
(0.931633 0.0671515 0)
(0.923713 0.0652217 0)
(0.916477 0.0633642 0)
(0.909866 0.061558 0)
(0.903832 0.0597872 0)
(0.898336 0.0580429 0)
(0.893344 0.0563275 0)
(0.888829 0.0546588 0)
(0.999415 0.0110723 0)
(0.998089 0.0248849 0)
(0.999383 0.0422825 0)
(1.00403 0.0587174 0)
(1.00801 0.0706004 0)
(1.00798 0.0771811 0)
(1.00382 0.0796958 0)
(0.996921 0.0797475 0)
(0.988647 0.0785434 0)
(0.979946 0.0767938 0)
(0.971368 0.0748712 0)
(0.963197 0.0729471 0)
(0.955555 0.0710872 0)
(0.948476 0.0693053 0)
(0.941948 0.0675916 0)
(0.935945 0.0659282 0)
(0.930437 0.0642961 0)
(0.925397 0.062681 0)
(0.920799 0.0610782 0)
(0.916623 0.0594987 0)
(0.999552 0.0112031 0)
(0.998715 0.0248603 0)
(1.00065 0.0417343 0)
(1.00633 0.0577999 0)
(1.01243 0.0699333 0)
(1.01551 0.0772867 0)
(1.01463 0.0806917 0)
(1.01069 0.0815092 0)
(1.00491 0.0808895 0)
(0.998259 0.0795692 0)
(0.991352 0.0779637 0)
(0.98455 0.076284 0)
(0.978043 0.0746251 0)
(0.971916 0.0730206 0)
(0.9662 0.0714724 0)
(0.960896 0.0699674 0)
(0.955995 0.0684872 0)
(0.951482 0.0670146 0)
(0.947343 0.0655399 0)
(0.943562 0.0640683 0)
(0.999676 0.0112918 0)
(0.999278 0.0247594 0)
(1.00172 0.0410572 0)
(1.00805 0.0566295 0)
(1.0156 0.0687807 0)
(1.02118 0.0767102 0)
(1.02329 0.0809304 0)
(1.02223 0.082528 0)
(1.01899 0.0825458 0)
(1.01448 0.0817165 0)
(1.00936 0.0804857 0)
(1.00405 0.0790988 0)
(0.998786 0.0776794 0)
(0.993718 0.0762814 0)
(0.988909 0.0749201 0)
(0.984391 0.0735896 0)
(0.980175 0.0722749 0)
(0.976259 0.0709587 0)
(0.972638 0.0696287 0)
(0.969307 0.0682843 0)
(0.999788 0.0113408 0)
(0.999782 0.0245911 0)
(1.00261 0.0402821 0)
(1.00932 0.0552793 0)
(1.01774 0.0672534 0)
(1.02516 0.0755325 0)
(1.0298 0.0804344 0)
(1.03144 0.0827782 0)
(1.0307 0.0834572 0)
(1.02837 0.0831645 0)
(1.02512 0.0823574 0)
(1.02139 0.0813073 0)
(1.01748 0.0801635 0)
(1.01356 0.0789999 0)
(1.00975 0.0778462 0)
(1.0061 0.0767063 0)
(1.00264 0.0755709 0)
(0.999381 0.0744255 0)
(0.996336 0.0732569 0)
(0.993507 0.0720593 0)
(0.999889 0.0113524 0)
(1.00023 0.0243629 0)
(1.00337 0.0394331 0)
(1.01025 0.0538068 0)
(1.01911 0.065463 0)
(1.0277 0.0738674 0)
(1.03431 0.0792676 0)
(1.03829 0.0822686 0)
(1.0399 0.0835919 0)
(1.03974 0.0838567 0)
(1.03839 0.0835078 0)
(1.03631 0.0828303 0)
(1.03382 0.0819933 0)
(1.03113 0.0810894 0)
(1.02839 0.0801628 0)
(1.02567 0.0792288 0)
(1.02303 0.0782862 0)
(1.0205 0.0773252 0)
(1.01808 0.076334 0)
(1.0158 0.0753023 0)
(0.99998 0.011329 0)
(1.00062 0.0240807 0)
(1.00401 0.0385284 0)
(1.01094 0.0522546 0)
(1.01993 0.0635055 0)
(1.02913 0.071848 0)
(1.03706 0.0775386 0)
(1.04291 0.0810533 0)
(1.0466 0.0829544 0)
(1.04847 0.0837621 0)
(1.04898 0.0838833 0)
(1.04856 0.0836002 0)
(1.04754 0.0830931 0)
(1.04614 0.082469 0)
(1.04452 0.0817861 0)
(1.04279 0.0810714 0)
(1.04102 0.0803334 0)
(1.03925 0.079569 0)
(1.03751 0.0787693 0)
(1.03582 0.0779209 0)
(1.00006 0.011273 0)
(1.00097 0.0237498 0)
(1.00455 0.0375814 0)
(1.01145 0.0506535 0)
(1.02037 0.0614512 0)
(1.02976 0.0696031 0)
(1.03842 0.0753893 0)
(1.04557 0.0792381 0)
(1.05092 0.0815987 0)
(1.05457 0.0828899 0)
(1.05682 0.0834608 0)
(1.058 0.0835723 0)
(1.05843 0.083404 0)
(1.05832 0.083071 0)
(1.05786 0.0826425 0)
(1.05715 0.0821566 0)
(1.05628 0.0816316 0)
(1.05531 0.0810727 0)
(1.05428 0.0804753 0)
(1.05322 0.0798245 0)
(1.00013 0.0111867 0)
(1.00127 0.0233747 0)
(1.00499 0.0366017 0)
(1.0118 0.0490256 0)
(1.02055 0.0593456 0)
(1.02989 0.067234 0)
(1.03882 0.0729692 0)
(1.0467 0.076972 0)
(1.05319 0.0796367 0)
(1.05823 0.0813053 0)
(1.06196 0.0822643 0)
(1.0646 0.0827397 0)
(1.06639 0.0828974 0)
(1.06753 0.082852 0)
(1.06819 0.0826784 0)
(1.0685 0.0824234 0)
(1.06854 0.082114 0)
(1.06839 0.0817639 0)
(1.06808 0.0813741 0)
(1.06767 0.0809295 0)
(1.0002 0.0110724 0)
(1.00153 0.0229598 0)
(1.00535 0.0355971 0)
(1.01203 0.0473864 0)
(1.02055 0.0572176 0)
(1.02969 0.0648055 0)
(1.0386 0.0704024 0)
(1.04676 0.0744175 0)
(1.05388 0.0772278 0)
(1.05984 0.0791358 0)
(1.06468 0.0803813 0)
(1.0685 0.0811527 0)
(1.07146 0.0815938 0)
(1.07373 0.08181 0)
(1.07544 0.0818753 0)
(1.07671 0.0818408 0)
(1.07763 0.0817399 0)
(1.07827 0.0815931 0)
(1.07867 0.0814077 0)
(1.07891 0.0811699 0)
(1.00025 0.0109322 0)
(1.00175 0.0225092 0)
(1.00564 0.0345735 0)
(1.01216 0.0457471 0)
(1.02041 0.0550868 0)
(1.02928 0.0623541 0)
(1.03801 0.0677692 0)
(1.04616 0.0717107 0)
(1.05351 0.0745432 0)
(1.05995 0.0765554 0)
(1.06546 0.0779641 0)
(1.0701 0.078932 0)
(1.07396 0.0795818 0)
(1.07713 0.0800053 0)
(1.07972 0.0802706 0)
(1.08183 0.0804277 0)
(1.08353 0.0805128 0)
(1.08489 0.080551 0)
(1.08596 0.0805544 0)
(1.0868 0.0805118 0)
(1.0003 0.0107683 0)
(1.00193 0.0220267 0)
(1.00586 0.0335362 0)
(1.0122 0.0441157 0)
(1.02015 0.0529679 0)
(1.02872 0.0599015 0)
(1.0372 0.065112 0)
(1.0452 0.0689378 0)
(1.05252 0.0717201 0)
(1.05909 0.0737377 0)
(1.06491 0.0751995 0)
(1.07 0.0762573 0)
(1.0744 0.0770219 0)
(1.07818 0.0775748 0)
(1.08141 0.077977 0)
(1.08415 0.078275 0)
(1.08648 0.0785043 0)
(1.08843 0.0786916 0)
(1.09007 0.0788521 0)
(1.09143 0.0789771 0)
(1.00034 0.0105826 0)
(1.00209 0.0215157 0)
(1.00603 0.0324897 0)
(1.01217 0.0424981 0)
(1.0198 0.0508714 0)
(1.02804 0.0574632 0)
(1.03624 0.0624527 0)
(1.04401 0.0661416 0)
(1.05119 0.0688397 0)
(1.05771 0.0708094 0)
(1.06358 0.0722528 0)
(1.06881 0.0733181 0)
(1.07345 0.0741125 0)
(1.07755 0.0747137 0)
(1.08114 0.075179 0)
(1.08428 0.0755524 0)
(1.08701 0.0758679 0)
(1.08938 0.0761521 0)
(1.09142 0.0764212 0)
(1.09319 0.076669 0)
(1.00038 0.0103773 0)
(1.00221 0.0209796 0)
(1.00614 0.0314376 0)
(1.01208 0.0408991 0)
(1.01938 0.0488059 0)
(1.02727 0.0550518 0)
(1.03516 0.059807 0)
(1.04268 0.063343 0)
(1.04966 0.0659394 0)
(1.05604 0.0678373 0)
(1.06182 0.069228 0)
(1.06704 0.0702554 0)
(1.07172 0.0710253 0)
(1.0759 0.0716152 0)
(1.07963 0.0720826 0)
(1.08295 0.0724708 0)
(1.08588 0.0728138 0)
(1.08847 0.0731381 0)
(1.09074 0.0734604 0)
(1.09275 0.073776 0)
(1.00041 0.0101541 0)
(1.00231 0.0204214 0)
(1.00621 0.0303831 0)
(1.01194 0.0393222 0)
(1.01891 0.0467773 0)
(1.02644 0.0526779 0)
(1.034 0.0571881 0)
(1.04124 0.0605567 0)
(1.04799 0.0630371 0)
(1.0542 0.0648499 0)
(1.05985 0.0661728 0)
(1.06496 0.0671428 0)
(1.06958 0.0678632 0)
(1.07373 0.0684113 0)
(1.07746 0.068845 0)
(1.0808 0.0692088 0)
(1.08379 0.0695374 0)
(1.08645 0.0698577 0)
(1.08882 0.0701868 0)
(1.09093 0.0705214 0)
(1.00043 0.00991498 0)
(1.00238 0.0198442 0)
(1.00624 0.0293288 0)
(1.01175 0.0377703 0)
(1.0184 0.0447906 0)
(1.02557 0.0503501 0)
(1.03277 0.0546087 0)
(1.03971 0.0577972 0)
(1.04622 0.0601477 0)
(1.05223 0.0618629 0)
(1.05771 0.0631073 0)
(1.0627 0.0640101 0)
(1.06721 0.0646702 0)
(1.07128 0.0651633 0)
(1.07496 0.0655475 0)
(1.07826 0.0658677 0)
(1.08123 0.0661593 0)
(1.08388 0.06645 0)
(1.08626 0.0667572 0)
(1.08839 0.0670787 0)
(1.00045 0.00966173 0)
(1.00243 0.0192507 0)
(1.00623 0.0282769 0)
(1.01154 0.036245 0)
(1.01786 0.0428487 0)
(1.02466 0.0480746 0)
(1.03151 0.0520791 0)
(1.03814 0.0550782 0)
(1.04437 0.0572866 0)
(1.05016 0.0588917 0)
(1.05546 0.0600467 0)
(1.06029 0.0608728 0)
(1.06468 0.0614644 0)
(1.06865 0.0618945 0)
(1.07224 0.0622202 0)
(1.07548 0.0624863 0)
(1.0784 0.0627285 0)
(1.08102 0.062975 0)
(1.08338 0.0632438 0)
(1.0855 0.0635336 0)
(1.00046 0.00939618 0)
(1.00247 0.0186436 0)
(1.00619 0.0272296 0)
(1.01129 0.0347478 0)
(1.0173 0.040954 0)
(1.02374 0.0458563 0)
(1.03024 0.0496081 0)
(1.03653 0.0524124 0)
(1.04248 0.0544694 0)
(1.04802 0.0559536 0)
(1.05311 0.0570083 0)
(1.05777 0.0577478 0)
(1.06202 0.0582615 0)
(1.06587 0.05862 0)
(1.06937 0.0588784 0)
(1.07252 0.0590809 0)
(1.07538 0.059263 0)
(1.07795 0.0594532 0)
(1.08027 0.0596705 0)
(1.08237 0.0599149 0)
(1.00047 0.00912003 0)
(1.00248 0.0180256 0)
(1.00613 0.0261886 0)
(1.01101 0.0332795 0)
(1.01672 0.0391074 0)
(1.02282 0.0436981 0)
(1.02896 0.0472019 0)
(1.03492 0.0498101 0)
(1.04057 0.0517102 0)
(1.04584 0.0530658 0)
(1.05071 0.0540114 0)
(1.05517 0.0546551 0)
(1.05925 0.055082 0)
(1.06297 0.0553596 0)
(1.06634 0.0555413 0)
(1.0694 0.0556699 0)
(1.07217 0.0557807 0)
(1.07468 0.0559021 0)
(1.07695 0.0560545 0)
(1.07902 0.05624 0)
(1.00048 0.00883506 0)
(1.00248 0.0173993 0)
(1.00603 0.0251558 0)
(1.01071 0.031841 0)
(1.01613 0.0373095 0)
(1.0219 0.0416018 0)
(1.02769 0.0448647 0)
(1.03332 0.0472791 0)
(1.03866 0.049021 0)
(1.04365 0.0502439 0)
(1.04828 0.0510749 0)
(1.05253 0.0516164 0)
(1.05642 0.0519495 0)
(1.05997 0.0521387 0)
(1.0632 0.0522352 0)
(1.06614 0.0522807 0)
(1.06881 0.0523097 0)
(1.07123 0.0523508 0)
(1.07344 0.0524255 0)
(1.07544 0.052539 0)
(1.00048 0.00854286 0)
(1.00246 0.0167671 0)
(1.00591 0.024133 0)
(1.0104 0.0304329 0)
(1.01553 0.0355605 0)
(1.02097 0.0395682 0)
(1.02644 0.0425993 0)
(1.03174 0.0448249 0)
(1.03677 0.0464105 0)
(1.04148 0.0475006 0)
(1.04585 0.0482155 0)
(1.04987 0.0486521 0)
(1.05355 0.0488878 0)
(1.05692 0.0489842 0)
(1.05999 0.0489905 0)
(1.06278 0.0489469 0)
(1.06533 0.048887 0)
(1.06764 0.0488394 0)
(1.06975 0.0488266 0)
(1.07167 0.0488573 0)
(1.00048 0.00824508 0)
(1.00243 0.0161316 0)
(1.00578 0.0231221 0)
(1.01006 0.029056 0)
(1.01493 0.0338605 0)
(1.02006 0.0375978 0)
(1.0252 0.0404073 0)
(1.03019 0.0424511 0)
(1.03492 0.0438851 0)
(1.03935 0.0448457 0)
(1.04345 0.0454464 0)
(1.04723 0.0457792 0)
(1.05069 0.045918 0)
(1.05386 0.0459215 0)
(1.05675 0.0458369 0)
(1.05938 0.0457028 0)
(1.06178 0.0455517 0)
(1.06396 0.045412 0)
(1.06595 0.0453069 0)
(1.06777 0.0452487 0)
(1.00048 0.00794328 0)
(1.00238 0.0154952 0)
(1.00562 0.0221248 0)
(1.00971 0.0277112 0)
(1.01431 0.0322098 0)
(1.01915 0.0356907 0)
(1.02398 0.0382895 0)
(1.02866 0.0401601 0)
(1.0331 0.0414493 0)
(1.03725 0.0422859 0)
(1.04109 0.0427773 0)
(1.04462 0.043011 0)
(1.04786 0.0430571 0)
(1.05082 0.0429717 0)
(1.05352 0.0427999 0)
(1.05598 0.0425787 0)
(1.05821 0.0423394 0)
(1.06025 0.0421097 0)
(1.0621 0.0419132 0)
(1.0638 0.0417653 0)
(1.00047 0.00763901 0)
(1.00233 0.0148604 0)
(1.00545 0.0211432 0)
(1.00934 0.0263994 0)
(1.01369 0.0306086 0)
(1.01825 0.0338471 0)
(1.02278 0.0362466 0)
(1.02717 0.0379533 0)
(1.03132 0.0391059 0)
(1.0352 0.0398261 0)
(1.03878 0.0402154 0)
(1.04207 0.0403569 0)
(1.04508 0.0403174 0)
(1.04783 0.0401504 0)
(1.05033 0.0398987 0)
(1.05261 0.0395978 0)
(1.05468 0.0392776 0)
(1.05655 0.0389649 0)
(1.05826 0.0386831 0)
(1.05982 0.0384499 0)
(1.00046 0.00733371 0)
(1.00226 0.0142293 0)
(1.00526 0.0201789 0)
(1.00896 0.0251218 0)
(1.01307 0.0290575 0)
(1.01735 0.0320673 0)
(1.0216 0.034279 0)
(1.02571 0.0358319 0)
(1.02958 0.036857 0)
(1.03319 0.0374693 0)
(1.03652 0.0377652 0)
(1.03958 0.0378233 0)
(1.04237 0.0377073 0)
(1.04491 0.037468 0)
(1.04721 0.0371463 0)
(1.04931 0.0367757 0)
(1.0512 0.0363849 0)
(1.05292 0.0359992 0)
(1.05448 0.0356417 0)
(1.05591 0.0353318 0)
(1.00045 0.00702881 0)
(1.00219 0.0136042 0)
(1.00506 0.0192341 0)
(1.00857 0.0238795 0)
(1.01245 0.0275571 0)
(1.01646 0.0303517 0)
(1.02044 0.0323874 0)
(1.02427 0.0337967 0)
(1.02788 0.034704 0)
(1.03124 0.0352179 0)
(1.03433 0.0354296 0)
(1.03715 0.0354141 0)
(1.03973 0.0352316 0)
(1.04206 0.0349306 0)
(1.04418 0.0345498 0)
(1.04609 0.034121 0)
(1.04782 0.033671 0)
(1.04938 0.0332241 0)
(1.05079 0.0328024 0)
(1.05208 0.0324264 0)
(1.00044 0.00672565 0)
(1.00211 0.0129873 0)
(1.00485 0.0183104 0)
(1.00818 0.0226739 0)
(1.01182 0.0261082 0)
(1.01559 0.0287008 0)
(1.0193 0.0305721 0)
(1.02287 0.0318486 0)
(1.02622 0.0326479 0)
(1.02933 0.0330731 0)
(1.03219 0.0332106 0)
(1.03479 0.0331315 0)
(1.03716 0.0328931 0)
(1.0393 0.032541 0)
(1.04123 0.0321121 0)
(1.04297 0.0316364 0)
(1.04454 0.031139 0)
(1.04595 0.0306425 0)
(1.04723 0.0301681 0)
(1.04839 0.0297373 0)
(1.00043 0.0064255 0)
(1.00203 0.0123806 0)
(1.00463 0.0174097 0)
(1.00777 0.0215062 0)
(1.0112 0.0247116 0)
(1.01472 0.0271152 0)
(1.01818 0.0288338 0)
(1.0215 0.029988 0)
(1.02461 0.0306894 0)
(1.02748 0.0310358 0)
(1.03011 0.0311089 0)
(1.03251 0.0309762 0)
(1.03467 0.0306919 0)
(1.03662 0.0302992 0)
(1.03838 0.0298328 0)
(1.03996 0.0293207 0)
(1.04138 0.0287866 0)
(1.04265 0.0282512 0)
(1.0438 0.0277348 0)
(1.04484 0.0272596 0)
(1.00041 0.00612959 0)
(1.00194 0.011786 0)
(1.00441 0.0165339 0)
(1.00737 0.0203778 0)
(1.01058 0.0233682 0)
(1.01386 0.0255957 0)
(1.01708 0.0271731 0)
(1.02016 0.0282155 0)
(1.02303 0.0288291 0)
(1.02568 0.0291062 0)
(1.0281 0.0291246 0)
(1.03029 0.0289479 0)
(1.03227 0.0286272 0)
(1.03404 0.0282034 0)
(1.03563 0.0277089 0)
(1.03706 0.02717 0)
(1.03834 0.0266083 0)
(1.03948 0.0260433 0)
(1.04051 0.025494 0)
(1.04144 0.0249831 0)
(1.00039 0.00583909 0)
(1.00185 0.0112054 0)
(1.00418 0.0156845 0)
(1.00697 0.0192899 0)
(1.00997 0.0220791 0)
(1.01302 0.0241428 0)
(1.01601 0.0255903 0)
(1.01885 0.0265314 0)
(1.0215 0.0270669 0)
(1.02393 0.0272843 0)
(1.02615 0.027257 0)
(1.02815 0.027045 0)
(1.02995 0.0266968 0)
(1.03156 0.0262504 0)
(1.033 0.0257362 0)
(1.03428 0.0251784 0)
(1.03543 0.024597 0)
(1.03646 0.0240097 0)
(1.03738 0.0234347 0)
(1.03821 0.0228954 0)
(1.00037 0.005555 0)
(1.00175 0.0106403 0)
(1.00395 0.0148631 0)
(1.00656 0.0182438 0)
(1.00936 0.020845 0)
(1.01219 0.0227572 0)
(1.01496 0.0240859 0)
(1.01758 0.0249359 0)
(1.02001 0.0254027 0)
(1.02224 0.0255693 0)
(1.02427 0.0255048 0)
(1.02609 0.0252659 0)
(1.02772 0.0248978 0)
(1.02917 0.0244362 0)
(1.03047 0.0239093 0)
(1.03163 0.0233392 0)
(1.03265 0.0227442 0)
(1.03357 0.0221406 0)
(1.03439 0.0215456 0)
(1.03513 0.0209832 0)
(1.00036 0.00527831 0)
(1.00166 0.0100923 0)
(1.00372 0.0140713 0)
(1.00616 0.0172406 0)
(1.00876 0.0196666 0)
(1.01139 0.0214392 0)
(1.01394 0.0226598 0)
(1.01635 0.0234285 0)
(1.01858 0.0238358 0)
(1.02061 0.02396 0)
(1.02245 0.0238662 0)
(1.0241 0.0236077 0)
(1.02558 0.0232265 0)
(1.02689 0.0227561 0)
(1.02806 0.0222222 0)
(1.02909 0.0216451 0)
(1.03001 0.0210414 0)
(1.03083 0.0204259 0)
(1.03156 0.0198151 0)
(1.03222 0.0192336 0)
(1.00034 0.00500982 0)
(1.00156 0.00956281 0)
(1.00349 0.0133102 0)
(1.00576 0.0162812 0)
(1.00817 0.0185447 0)
(1.0106 0.0201891 0)
(1.01295 0.0213121 0)
(1.01515 0.0220089 0)
(1.01719 0.0223652 0)
(1.01904 0.0224547 0)
(1.02071 0.0223388 0)
(1.02221 0.0220671 0)
(1.02353 0.0216788 0)
(1.02471 0.0212048 0)
(1.02576 0.0206686 0)
(1.02668 0.0200888 0)
(1.0275 0.0194801 0)
(1.02823 0.0188561 0)
(1.02888 0.0182324 0)
(1.02947 0.0176346 0)
(1.00032 0.00475034 0)
(1.00146 0.00905306 0)
(1.00327 0.0125812 0)
(1.00537 0.0153666 0)
(1.0076 0.0174796 0)
(1.00983 0.019007 0)
(1.01199 0.0200423 0)
(1.014 0.0206762 0)
(1.01586 0.0209894 0)
(1.01754 0.0210515 0)
(1.01905 0.0209197 0)
(1.02039 0.0206405 0)
(1.02159 0.0202501 0)
(1.02264 0.0197768 0)
(1.02357 0.0192423 0)
(1.0244 0.0186629 0)
(1.02513 0.0180521 0)
(1.02577 0.017422 0)
(1.02635 0.0167875 0)
(1.02687 0.0161753 0)
(1.0003 0.00450053 0)
(1.00137 0.00856408 0)
(1.00304 0.0118851 0)
(1.00499 0.0144974 0)
(1.00705 0.0164717 0)
(1.00909 0.0178926 0)
(1.01106 0.0188498 0)
(1.0129 0.0194291 0)
(1.01458 0.0197067 0)
(1.0161 0.0197478 0)
(1.01746 0.0196059 0)
(1.01867 0.0193239 0)
(1.01973 0.0189356 0)
(1.02068 0.0184667 0)
(1.02151 0.0179366 0)
(1.02224 0.0173603 0)
(1.02288 0.0167494 0)
(1.02346 0.0161149 0)
(1.02397 0.0154713 0)
(1.02443 0.0148459 0)
(1.00028 0.00426101 0)
(1.00127 0.0080968 0)
(1.00282 0.0112228 0)
(1.00462 0.013674 0)
(1.00651 0.0155209 0)
(1.00838 0.0168455 0)
(1.01017 0.0177336 0)
(1.01184 0.0182661 0)
(1.01336 0.0185149 0)
(1.01473 0.0185408 0)
(1.01595 0.0183937 0)
(1.01703 0.0181132 0)
(1.01798 0.0177303 0)
(1.01882 0.0172686 0)
(1.01955 0.0167454 0)
(1.0202 0.016174 0)
(1.02077 0.0155645 0)
(1.02128 0.014927 0)
(1.02173 0.0142752 0)
(1.02214 0.0136376 0)
(1.00026 0.00403225 0)
(1.00118 0.00765198 0)
(1.00261 0.010595 0)
(1.00426 0.0128968 0)
(1.00599 0.0146271 0)
(1.00769 0.0158652 0)
(1.00932 0.0166925 0)
(1.01083 0.0171855 0)
(1.0122 0.0174116 0)
(1.01343 0.0174275 0)
(1.01452 0.0172794 0)
(1.01548 0.0170039 0)
(1.01633 0.0166293 0)
(1.01707 0.0161769 0)
(1.01772 0.0156624 0)
(1.01829 0.0150972 0)
(1.01879 0.0144904 0)
(1.01924 0.0138507 0)
(1.01964 0.0131916 0)
(1.02 0.0125425 0)
(1.00024 0.00381469 0)
(1.00109 0.00723019 0)
(1.0024 0.010002 0)
(1.00392 0.0121658 0)
(1.00549 0.0137898 0)
(1.00704 0.0149504 0)
(1.00851 0.0157248 0)
(1.00987 0.016185 0)
(1.0111 0.0163939 0)
(1.0122 0.0164043 0)
(1.01317 0.0162589 0)
(1.01402 0.0159913 0)
(1.01477 0.0156272 0)
(1.01543 0.0151859 0)
(1.016 0.0146814 0)
(1.0165 0.0141236 0)
(1.01694 0.0135203 0)
(1.01733 0.0128792 0)
(1.01768 0.0122133 0)
(1.018 0.0115533 0)
(1.00022 0.00360862 0)
(1.001 0.00683182 0)
(1.0022 0.00944398 0)
(1.00358 0.0114807 0)
(1.00501 0.0130084 0)
(1.00641 0.0141001 0)
(1.00774 0.0148289 0)
(1.00896 0.0152623 0)
(1.01006 0.0154589 0)
(1.01104 0.0154677 0)
(1.0119 0.015328 0)
(1.01265 0.0150706 0)
(1.01331 0.0147189 0)
(1.01389 0.0142901 0)
(1.01439 0.0137966 0)
(1.01483 0.013247 0)
(1.01522 0.0126478 0)
(1.01556 0.0120059 0)
(1.01586 0.0113339 0)
(1.01613 0.0106634 0)
(1.0002 0.00341426 0)
(1.00091 0.00645713 0)
(1.00201 0.00892099 0)
(1.00327 0.0108412 0)
(1.00456 0.0122818 0)
(1.00582 0.0133126 0)
(1.00701 0.0140025 0)
(1.0081 0.0144145 0)
(1.00908 0.0146032 0)
(1.00995 0.0146138 0)
(1.01071 0.0144825 0)
(1.01138 0.0142372 0)
(1.01195 0.0138992 0)
(1.01246 0.013484 0)
(1.0129 0.0130023 0)
(1.01328 0.0124615 0)
(1.01361 0.0118669 0)
(1.01391 0.0112246 0)
(1.01417 0.010547 0)
(1.01441 0.00986664 0)
(1.00019 0.00323172 0)
(1.00083 0.00610616 0)
(1.00183 0.0084328 0)
(1.00296 0.0102465 0)
(1.00413 0.0116089 0)
(1.00526 0.0125863 0)
(1.00633 0.0132434 0)
(1.0073 0.0136389 0)
(1.00817 0.0138235 0)
(1.00893 0.0138388 0)
(1.0096 0.0137179 0)
(1.01018 0.0134863 0)
(1.01069 0.0131631 0)
(1.01113 0.0127622 0)
(1.01151 0.0122929 0)
(1.01184 0.0117614 0)
(1.01213 0.0111719 0)
(1.01238 0.0105298 0)
(1.01261 0.00984719 0)
(1.01282 0.00915762 0)
(1.00017 0.00306102 0)
(1.00075 0.00577876 0)
(1.00165 0.00797891 0)
(1.00268 0.00969576 0)
(1.00373 0.0109882 0)
(1.00474 0.0119191 0)
(1.00569 0.0125489 0)
(1.00655 0.0129323 0)
(1.00731 0.0131161 0)
(1.00799 0.0131385 0)
(1.00857 0.0130297 0)
(1.00908 0.012813 0)
(1.00952 0.0125055 0)
(1.0099 0.0121195 0)
(1.01023 0.011663 0)
(1.01051 0.0111411 0)
(1.01076 0.0105572 0)
(1.01098 0.0099159 0)
(1.01117 0.00922889 0)
(1.01135 0.00853085 0)
(1.00015 0.00290206 0)
(1.00068 0.00547466 0)
(1.00149 0.00755872 0)
(1.00241 0.00918782 0)
(1.00335 0.0104181 0)
(1.00425 0.0113087 0)
(1.00509 0.0119163 0)
(1.00585 0.0122914 0)
(1.00652 0.0124772 0)
(1.00711 0.0125087 0)
(1.00762 0.0124135 0)
(1.00806 0.0122126 0)
(1.00844 0.0119214 0)
(1.00877 0.0115507 0)
(1.00905 0.0111074 0)
(1.00929 0.0105955 0)
(1.0095 0.0100177 0)
(1.00969 0.0093777 0)
(1.00985 0.00868711 0)
(1.01 0.00798146 0)
(1.00014 0.00275465 0)
(1.00061 0.00519334 0)
(1.00134 0.00717129 0)
(1.00216 0.00872127 0)
(1.003 0.00989654 0)
(1.0038 0.0107527 0)
(1.00454 0.0113425 0)
(1.0052 0.0117127 0)
(1.00579 0.0119029 0)
(1.0063 0.0119452 0)
(1.00675 0.0118646 0)
(1.00713 0.0116802 0)
(1.00745 0.0114058 0)
(1.00773 0.0110507 0)
(1.00797 0.0106208 0)
(1.00818 0.0101193 0)
(1.00835 0.00954795 0)
(1.00851 0.00890988 0)
(1.00865 0.00821649 0)
(1.00877 0.00750414 0)
(1.00012 0.00261854 0)
(1.00055 0.00493429 0)
(1.0012 0.00681567 0)
(1.00193 0.00829464 0)
(1.00267 0.00942158 0)
(1.00337 0.0102486 0)
(1.00403 0.0108246 0)
(1.00461 0.0111927 0)
(1.00512 0.0113894 0)
(1.00557 0.0114438 0)
(1.00595 0.0113787 0)
(1.00627 0.0112113 0)
(1.00655 0.0109539 0)
(1.00679 0.0106146 0)
(1.00699 0.0101985 0)
(1.00716 0.00970762 0)
(1.00731 0.00914323 0)
(1.00744 0.0085078 0)
(1.00755 0.00781252 0)
(1.00766 0.00709452 0)
(1.00011 0.00249337 0)
(1.00049 0.00469666 0)
(1.00107 0.00649053 0)
(1.00171 0.00790608 0)
(1.00237 0.00899082 0)
(1.00299 0.00979343 0)
(1.00356 0.0103592 0)
(1.00406 0.0107278 0)
(1.00451 0.0109326 0)
(1.00489 0.0110001 0)
(1.00522 0.0109512 0)
(1.00549 0.0108011 0)
(1.00573 0.0105609 0)
(1.00593 0.0102376 0)
(1.0061 0.00983523 0)
(1.00624 0.00935538 0)
(1.00636 0.00879843 0)
(1.00647 0.00816637 0)
(1.00656 0.00747016 0)
(1.00665 0.00674762 0)
(1.0001 0.00237878 0)
(1.00044 0.0044797 0)
(1.00094 0.00619464 0)
(1.00152 0.00755382 0)
(1.00209 0.00860195 0)
(1.00263 0.00938438 0)
(1.00313 0.00994292 0)
(1.00357 0.0103142 0)
(1.00395 0.0105285 0)
(1.00428 0.01061 0)
(1.00456 0.0105775 0)
(1.00479 0.010445 0)
(1.00499 0.010222 0)
(1.00515 0.0099148 0)
(1.00529 0.00952648 0)
(1.00541 0.00905796 0)
(1.00551 0.00850901 0)
(1.00559 0.00788114 0)
(1.00567 0.0071851 0)
(1.00574 0.00645932 0)
(1.00009 0.00227422 0)
(1.00039 0.00428233 0)
(1.00083 0.00592635 0)
(1.00134 0.00723569 0)
(1.00184 0.00825229 0)
(1.00231 0.00901831 0)
(1.00274 0.00957244 0)
(1.00312 0.00994804 0)
(1.00345 0.0101729 0)
(1.00373 0.0102691 0)
(1.00396 0.0102535 0)
(1.00416 0.0101386 0)
(1.00432 0.009933 0)
(1.00446 0.00964197 0)
(1.00457 0.00926795 0)
(1.00467 0.00881121 0)
(1.00475 0.00827096 0)
(1.00481 0.00764825 0)
(1.00487 0.00695364 0)
(1.00492 0.00622604 0)
(1.00008 0.00217928 0)
(1.00034 0.0041036 0)
(1.00073 0.00568419 0)
(1.00118 0.00694966 0)
(1.00161 0.00793931 0)
(1.00202 0.00869234 0)
(1.0024 0.00924424 0)
(1.00272 0.00962575 0)
(1.003 0.00986206 0)
(1.00324 0.00997326 0)
(1.00343 0.0099747 0)
(1.0036 0.00987756 0)
(1.00373 0.00968942 0)
(1.00384 0.00941475 0)
(1.00393 0.00905536 0)
(1.004 0.00861096 0)
(1.00407 0.00808022 0)
(1.00412 0.0074638 0)
(1.00416 0.006772 0)
(1.0042 0.00604415 0)
(1.00007 0.00209335 0)
(1.0003 0.00394225 0)
(1.00064 0.00546631 0)
(1.00103 0.00669332 0)
(1.00141 0.00766015 0)
(1.00177 0.00840305 0)
(1.00208 0.00895477 0)
(1.00236 0.00934334 0)
(1.0026 0.00959175 0)
(1.0028 0.00971828 0)
(1.00296 0.00973679 0)
(1.0031 0.00965734 0)
(1.0032 0.00948659 0)
(1.00329 0.00922833 0)
(1.00336 0.00888379 0)
(1.00342 0.00845217 0)
(1.00347 0.00793171 0)
(1.00351 0.00732266 0)
(1.00354 0.00663513 0)
(1.00356 0.00590871 0)
(1.00006 0.00201584 0)
(1.00026 0.00379714 0)
(1.00056 0.00527099 0)
(1.0009 0.00646448 0)
(1.00123 0.00741206 0)
(1.00153 0.00814734 0)
(1.00181 0.00870047 0)
(1.00205 0.009097 0)
(1.00225 0.00935799 0)
(1.00241 0.00949999 0)