/*--------------------------------*- C++ -*----------------------------------*\
| =========                 |                                                 |
| \\      /  F ield         | OpenFOAM: The Open Source CFD Toolbox           |
|  \\    /   O peration     | Version:  2.4.0                                 |
|   \\  /    A nd           | Web:      www.OpenFOAM.org                      |
|    \\/     M anipulation  |                                                 |
\*---------------------------------------------------------------------------*/
FoamFile
{
    version     2.0;
    format      ascii;
    class       volVectorField;
    location    "80";
    object      U;
}
// * * * * * * * * * * * * * * * * * * * * * * * * * * * * * * * * * * * * * //

dimensions      [0 1 -1 0 0 0 0];

internalField   nonuniform List<vector> 
10000
(
(0.999966 3.19553e-06 0)
(0.999852 6.4903e-06 0)
(0.999658 1.00254e-05 0)
(0.999402 1.39122e-05 0)
(0.999096 1.86213e-05 0)
(0.998744 2.41551e-05 0)
(0.998347 3.06123e-05 0)
(0.997903 3.8273e-05 0)
(0.99741 4.75233e-05 0)
(0.996861 5.8862e-05 0)
(0.99625 7.35946e-05 0)
(0.995575 9.23653e-05 0)
(0.99483 0.000116843 0)
(0.99401 0.000149761 0)
(0.993106 0.000196406 0)
(0.992085 0.000266299 0)
(0.990878 0.000381982 0)
(0.989349 0.000596486 0)
(0.987026 0.00104175 0)
(0.985346 0.00461972 0)
(0.999966 9.80095e-06 0)
(0.999853 1.98187e-05 0)
(0.999659 3.05085e-05 0)
(0.999403 4.21553e-05 0)
(0.999097 5.62804e-05 0)
(0.998746 7.28515e-05 0)
(0.998349 9.22924e-05 0)
(0.997905 0.000115339 0)
(0.997411 0.000143295 0)
(0.996861 0.000177736 0)
(0.99625 0.000221859 0)
(0.995576 0.000278023 0)
(0.994835 0.000350853 0)
(0.994026 0.000448911 0)
(0.993142 0.000585706 0)
(0.992166 0.000787188 0)
(0.99106 0.00110617 0)
(0.989778 0.0016555 0)
(0.988206 0.00266202 0)
(0.987242 0.00485063 0)
(0.999966 1.64498e-05 0)
(0.999853 3.34082e-05 0)
(0.999659 5.1465e-05 0)
(0.999404 7.12639e-05 0)
(0.999099 9.50739e-05 0)
(0.998748 0.000122987 0)
(0.998352 0.000155759 0)
(0.99791 0.0001946 0)
(0.997419 0.000241537 0)
(0.996873 0.000299549 0)
(0.996268 0.000372965 0)
(0.995603 0.000466643 0)
(0.994876 0.000586733 0)
(0.994089 0.000747422 0)
(0.993246 0.000966354 0)
(0.992345 0.00127801 0)
(0.991388 0.00173931 0)
(0.990404 0.00244924 0)
(0.989488 0.00355109 0)
(0.989041 0.00531952 0)
(0.999966 2.34166e-05 0)
(0.999853 4.75804e-05 0)
(0.99966 7.32647e-05 0)
(0.999405 0.000101562 0)
(0.999101 0.000135329 0)
(0.998752 0.000174842 0)
(0.998358 0.000221224 0)
(0.997919 0.000276231 0)
(0.997431 0.000342549 0)
(0.996891 0.000424214 0)
(0.996295 0.000526768 0)
(0.995643 0.000656666 0)
(0.994937 0.000822151 0)
(0.994184 0.00103959 0)
(0.993395 0.00132908 0)
(0.992585 0.00172319 0)
(0.991781 0.00226811 0)
(0.991039 0.0030213 0)
(0.990462 0.00402802 0)
(0.990223 0.00527835 0)
(0.999966 3.05183e-05 0)
(0.999853 6.19465e-05 0)
(0.999661 9.53951e-05 0)
(0.999407 0.000132451 0)
(0.999104 0.000176384 0)
(0.998757 0.000227717 0)
(0.998366 0.000287931 0)
(0.99793 0.000359205 0)
(0.997448 0.000444909 0)
(0.996916 0.000550042 0)
(0.996332 0.00068099 0)
(0.995698 0.000845383 0)
(0.995018 0.00105284 0)
(0.994305 0.00131995 0)
(0.993579 0.00166596 0)
(0.992865 0.00211647 0)
(0.992202 0.00270113 0)
(0.991649 0.00344263 0)
(0.991284 0.00433656 0)
(0.991177 0.00532437 0)
(0.999966 3.79125e-05 0)
(0.999853 7.68611e-05 0)
(0.999662 0.000118328 0)
(0.999409 0.000164459 0)
(0.999108 0.000218793 0)
(0.998763 0.000282144 0)
(0.998376 0.000356352 0)
(0.997945 0.000444068 0)
(0.99747 0.0005491 0)
(0.996948 0.000677224 0)
(0.996379 0.000835183 0)
(0.995766 0.00103181 0)
(0.995118 0.00127648 0)
(0.994451 0.00158553 0)
(0.993791 0.00197362 0)
(0.99317 0.00245876 0)
(0.992629 0.00305322 0)
(0.992219 0.00375722 0)
(0.991988 0.00454358 0)
(0.991955 0.00535251 0)
(0.999966 4.53797e-05 0)
(0.999854 9.19935e-05 0)
(0.999663 0.000141667 0)
(0.999412 0.000197115 0)
(0.999113 0.000262012 0)
(0.998772 0.00033752 0)
(0.998388 0.000425791 0)
(0.997964 0.000529804 0)
(0.997497 0.000653991 0)
(0.996987 0.000804137 0)
(0.996436 0.00098798 0)
(0.995847 0.00121348 0)
(0.995234 0.00149102 0)
(0.994617 0.00183327 0)
(0.994023 0.00225128 0)
(0.993488 0.00275341 0)
(0.99305 0.00333979 0)
(0.992747 0.00399677 0)
(0.992606 0.00469164 0)
(0.992618 0.00537562 0)
(0.999966 5.31205e-05 0)
(0.999855 0.000107656 0)
(0.999665 0.000165779 0)
(0.999416 0.000230794 0)
(0.99912 0.000306428 0)
(0.998781 0.000394198 0)
(0.998403 0.000496581 0)
(0.997986 0.000616823 0)
(0.997529 0.000759665 0)
(0.997033 0.000930795 0)
(0.996501 0.00113847 0)
(0.995941 0.00138972 0)
(0.995365 0.00169486 0)
(0.994799 0.00206242 0)
(0.99427 0.00249955 0)
(0.993813 0.00300593 0)
(0.993459 0.00357393 0)
(0.993237 0.00418289 0)
(0.993157 0.00480175 0)
(0.993198 0.00539309 0)
(0.999966 6.09932e-05 0)
(0.999855 0.000123526 0)
(0.999667 0.00019024 0)
(0.99942 0.000264977 0)
(0.999127 0.000351484 0)
(0.998793 0.000451603 0)
(0.998421 0.000567965 0)
(0.998011 0.000704088 0)
(0.997566 0.000864901 0)
(0.997086 0.00105607 0)
(0.996576 0.0012852 0)
(0.996045 0.00155937 0)
(0.995509 0.00188642 0)
(0.994993 0.00227279 0)
(0.994525 0.00271964 0)
(0.994137 0.00322194 0)
(0.993854 0.00376592 0)
(0.993693 0.00432979 0)
(0.993656 0.00488574 0)
(0.993715 0.00540648 0)
(0.999966 6.91257e-05 0)
(0.999856 0.000139893 0)
(0.999669 0.000215398 0)
(0.999425 0.000300034 0)
(0.999136 0.000397527 0)
(0.998807 0.000510021 0)
(0.998441 0.000640285 0)
(0.998041 0.000791931 0)
(0.997608 0.000969876 0)
(0.997145 0.00117957 0)
(0.996659 0.00142797 0)
(0.996159 0.00172151 0)
(0.995663 0.00206586 0)
(0.995197 0.00246451 0)
(0.994786 0.00291433 0)
(0.994458 0.00340649 0)
(0.994233 0.00392443 0)
(0.99412 0.00444721 0)
(0.994114 0.00495162 0)
(0.994185 0.0054165 0)
(0.999966 7.73172e-05 0)
(0.999857 0.000156438 0)
(0.999672 0.000240879 0)
(0.999431 0.000335528 0)
(0.999145 0.000444069 0)
(0.998822 0.000568882 0)
(0.998464 0.000712751 0)
(0.998074 0.00087949 0)
(0.997655 0.00107365 0)
(0.997211 0.00130048 0)
(0.996749 0.00156594 0)
(0.996281 0.00187548 0)
(0.995826 0.00223282 0)
(0.995407 0.00263817 0)
(0.995049 0.00308582 0)
(0.994774 0.00356376 0)
(0.994597 0.00405542 0)
(0.994522 0.00454158 0)
(0.994539 0.00500226 0)
(0.994617 0.00542204 0)
(0.999967 8.57457e-05 0)
(0.999858 0.000173442 0)
(0.999675 0.000266998 0)
(0.999437 0.000371769 0)
(0.999157 0.000491385 0)
(0.998839 0.000628441 0)
(0.99849 0.000785673 0)
(0.998111 0.000966867 0)
(0.997707 0.00117616 0)
(0.997283 0.00141846 0)
(0.996846 0.00169865 0)
(0.996411 0.00202111 0)
(0.995996 0.00238732 0)
(0.995623 0.00279513 0)
(0.995313 0.00323633 0)
(0.995084 0.0036979 0)
(0.994948 0.00416373 0)
(0.994902 0.00461657 0)
(0.994935 0.00503991 0)
(0.995018 0.00542244 0)
(0.999967 9.42822e-05 0)
(0.99986 0.000190611 0)
(0.999679 0.000293364 0)
(0.999445 0.000408282 0)
(0.999169 0.000538969 0)
(0.998859 0.000688022 0)
(0.998518 0.000858174 0)
(0.998151 0.00105315 0)
(0.997763 0.00127663 0)
(0.99736 0.00153273 0)
(0.99695 0.00182565 0)
(0.996548 0.00215788 0)
(0.996171 0.00252958 0)
(0.99584 0.002936 0)
(0.995574 0.00336782 0)
(0.995386 0.00381155 0)
(0.995284 0.00425216 0)
(0.995262 0.00467463 0)
(0.995308 0.00506584 0)
(0.995393 0.00541686 0)
(0.999967 0.000103032 0)
(0.999861 0.000208182 0)
(0.999683 0.000320246 0)
(0.999453 0.000445346 0)
(0.999183 0.000587027 0)
(0.99888 0.000747901 0)
(0.998549 0.000930535 0)
(0.998195 0.00113846 0)
(0.997824 0.00137485 0)
(0.997442 0.00164311 0)
(0.997059 0.00194647 0)
(0.996689 0.00228588 0)
(0.99635 0.00265993 0)
(0.996059 0.0030621 0)
(0.995832 0.00348241 0)
(0.99568 0.00390752 0)
(0.995607 0.004324 0)
(0.995605 0.00471906 0)
(0.99566 0.00508074 0)
(0.995746 0.00540455 0)
(0.999968 0.000111817 0)
(0.999863 0.000225857 0)
(0.999688 0.000347291 0)
(0.999462 0.000482553 0)
(0.999198 0.000635103 0)
(0.998904 0.000807425 0)
(0.998583 0.00100207 0)
(0.998243 0.00122211 0)
(0.997889 0.00147031 0)
(0.997529 0.00174915 0)
(0.997173 0.00206084 0)
(0.996835 0.00240504 0)
(0.996531 0.0027786 0)
(0.996277 0.00317431 0)
(0.996085 0.0035814 0)
(0.995965 0.00398771 0)
(0.995917 0.00438132 0)
(0.99593 0.00474971 0)
(0.995992 0.00508554 0)
(0.996078 0.00538372 0)
(0.999968 0.000120783 0)
(0.999865 0.000243865 0)
(0.999693 0.000374748 0)
(0.999472 0.000520129 0)
(0.999215 0.000683379 0)
(0.998929 0.000866847 0)
(0.99862 0.00107287 0)
(0.998294 0.00130404 0)
(0.997958 0.00156273 0)
(0.99762 0.00185048 0)
(0.997291 0.00216856 0)
(0.996984 0.00251525 0)
(0.996714 0.0028863 0)
(0.996493 0.00327359 0)
(0.996334 0.00366665 0)
(0.996241 0.00405427 0)
(0.996213 0.0044253 0)
(0.996239 0.00476942 0)
(0.996305 0.0050807 0)
(0.99639 0.00535613 0)
(0.999968 0.000129813 0)
(0.999867 0.000261946 0)
(0.999699 0.000402272 0)
(0.999483 0.00055766 0)
(0.999233 0.000731287 0)
(0.998956 0.000925404 0)
(0.998659 0.00114217 0)
(0.998348 0.00138366 0)
(0.99803 0.00165156 0)
(0.997714 0.00194683 0)
(0.997412 0.00226931 0)
(0.997135 0.00261663 0)
(0.996896 0.00298317 0)
(0.996707 0.00336074 0)
(0.996576 0.00373914 0)
(0.996507 0.00410812 0)
(0.996497 0.00445764 0)
(0.996532 0.00477968 0)
(0.996601 0.00506827 0)
(0.996685 0.00532404 0)
(0.999969 0.000138982 0)
(0.99987 0.000280269 0)
(0.999705 0.000430031 0)
(0.999495 0.000595294 0)
(0.999253 0.00077904 0)
(0.998985 0.000983363 0)
(0.9987 0.00121011 0)
(0.998404 0.00146087 0)
(0.998105 0.00173669 0)
(0.997812 0.00203787 0)
(0.997536 0.00236312 0)
(0.997287 0.00270929 0)
(0.997078 0.00306989 0)
(0.996918 0.00343682 0)
(0.996813 0.00380029 0)
(0.996764 0.00415126 0)
(0.996767 0.0044811 0)
(0.99681 0.00478169 0)
(0.996881 0.00505128 0)
(0.996963 0.00528868 0)
(0.999969 0.000148142 0)
(0.999872 0.000298567 0)
(0.999712 0.000457707 0)
(0.999508 0.00063265 0)
(0.999274 0.000826144 0)
(0.999017 0.00104012 0)
(0.998744 0.00127618 0)
(0.998464 0.00153521 0)
(0.998184 0.00181785 0)
(0.997913 0.0021234 0)
(0.997661 0.00244998 0)
(0.99744 0.00279329 0)
(0.997258 0.00314688 0)
(0.997124 0.00350232 0)
(0.997042 0.003851 0)
(0.997012 0.00418489 0)
(0.997026 0.00449525 0)
(0.997074 0.0047775 0)
(0.997146 0.00502866 0)
(0.997225 0.00525036 0)
(0.99997 0.000157389 0)
(0.999875 0.000316991 0)
(0.999719 0.000485457 0)
(0.999522 0.000669876 0)
(0.999296 0.000872798 0)
(0.999049 0.00109587 0)
(0.99879 0.00134038 0)
(0.998526 0.00160667 0)
(0.998265 0.0018948 0)
(0.998016 0.0022034 0)
(0.997788 0.00252977 0)
(0.997593 0.00286911 0)
(0.997437 0.0032146 0)
(0.997326 0.00355831 0)
(0.997264 0.00389242 0)
(0.997249 0.00420937 0)
(0.997273 0.00450205 0)
(0.997325 0.00476667 0)
(0.997396 0.00500165 0)
(0.997473 0.00520894 0)
(0.999971 0.000166628 0)
(0.999878 0.000335327 0)
(0.999727 0.00051299 0)
(0.999536 0.000706633 0)
(0.999319 0.000918486 0)
(0.999084 0.00115011 0)
(0.998838 0.00140228 0)
(0.99859 0.00167493 0)
(0.998347 0.00196738 0)
(0.99812 0.00227777 0)
(0.997916 0.00260265 0)
(0.997745 0.00293684 0)
(0.997612 0.0032735 0)
(0.997523 0.00360521 0)
(0.997479 0.00392482 0)
(0.997477 0.00422554 0)
(0.997508 0.004502 0)
(0.997563 0.00474996 0)
(0.997634 0.00497099 0)
(0.997708 0.00516502 0)
(0.999971 0.000175884 0)
(0.999882 0.000353662 0)
(0.999736 0.000540371 0)
(0.999552 0.000742959 0)
(0.999344 0.000963336 0)
(0.99912 0.00120285 0)
(0.998887 0.00146184 0)
(0.998656 0.00173979 0)
(0.998432 0.00203549 0)
(0.998225 0.0023464 0)
(0.998044 0.00266873 0)
(0.997895 0.00299682 0)
(0.997784 0.00332421 0)
(0.997715 0.00364379 0)
(0.997687 0.00394935 0)
(0.997696 0.00423509 0)
(0.997732 0.00449537 0)
(0.997789 0.00472944 0)
(0.997859 0.00493684 0)
(0.997931 0.00511957 0)
(0.999972 0.00018502 0)
(0.999885 0.000371739 0)
(0.999745 0.000567306 0)
(0.999568 0.000778409 0)
(0.999369 0.00100683 0)
(0.999157 0.00125365 0)
(0.998939 0.0015187 0)
(0.998723 0.00180107 0)
(0.998518 0.00209893 0)
(0.998332 0.00240933 0)
(0.998172 0.00272803 0)
(0.998044 0.00304933 0)
(0.997953 0.00336694 0)
(0.997901 0.0036745 0)
(0.997887 0.00396663 0)
(0.997905 0.00423729 0)
(0.997946 0.00448361 0)
(0.998004 0.00470376 0)
(0.998073 0.00489943 0)
(0.998142 0.0050713 0)
(0.999973 0.00019411 0)
(0.999889 0.000389672 0)
(0.999754 0.000593877 0)
(0.999585 0.000813163 0)
(0.999396 0.00104913 0)
(0.999195 0.00130256 0)
(0.998991 0.00157281 0)
(0.998792 0.00185866 0)
(0.998605 0.00215766 0)
(0.998438 0.0024666 0)
(0.998298 0.00278079 0)
(0.99819 0.00309474 0)
(0.998117 0.00340232 0)
(0.998081 0.00369802 0)
(0.998079 0.00397666 0)
(0.998105 0.00423346 0)
(0.99815 0.00446614 0)
(0.998209 0.00467392 0)
(0.998276 0.00485843 0)
(0.998342 0.00502069 0)
(0.999974 0.000203068 0)
(0.999893 0.000407278 0)
(0.999764 0.000619835 0)
(0.999603 0.000846901 0)
(0.999424 0.00108992 0)
(0.999235 0.00134928 0)
(0.999045 0.00162404 0)
(0.998861 0.00191244 0)
(0.998692 0.00221173 0)
(0.998544 0.00251826 0)
(0.998423 0.00282724 0)
(0.998333 0.00313328 0)
(0.998277 0.00343068 0)
(0.998255 0.00371448 0)
(0.998263 0.00398002 0)
(0.998295 0.0042239 0)
(0.998343 0.00444353 0)
(0.998403 0.00464047 0)
(0.998468 0.0048145 0)
(0.998531 0.00496823 0)
(0.999975 0.000211905 0)
(0.999898 0.000424596 0)
(0.999774 0.000645208 0)
(0.999621 0.000879648 0)
(0.999452 0.00112914 0)
(0.999275 0.00139372 0)
(0.999099 0.00167217 0)
(0.998931 0.00196225 0)
(0.998779 0.00226097 0)
(0.998649 0.00256429 0)
(0.998546 0.00286752 0)
(0.998474 0.00316529 0)
(0.998432 0.0034525 0)
(0.998422 0.00372465 0)
(0.998439 0.00397784 0)
(0.998476 0.00420915 0)
(0.998527 0.00441762 0)
(0.998587 0.00460381 0)
(0.998651 0.00476877 0)
(0.99871 0.00491422 0)
(0.999976 0.000220509 0)
(0.999902 0.000441412 0)
(0.999785 0.000669635 0)
(0.99964 0.000910923 0)
(0.999481 0.00116634 0)
(0.999317 0.00143555 0)
(0.999154 0.00171691 0)
(0.999002 0.00200799 0)
(0.998866 0.00230528 0)
(0.998753 0.00260482 0)
(0.998667 0.0029017 0)
(0.99861 0.00319101 0)
(0.998582 0.00346807 0)
(0.998583 0.00372895 0)
(0.998608 0.00397042 0)
(0.998649 0.00419031 0)
(0.998702 0.00438803 0)
(0.998761 0.0045644 0)
(0.998823 0.00472061 0)
(0.998879 0.0048585 0)
(0.999977 0.000228928 0)
(0.999907 0.000457758 0)
(0.999796 0.000693236 0)
(0.99966 0.0009409 0)
(0.999511 0.00120163 0)
(0.999359 0.00147474 0)
(0.99921 0.00175826 0)
(0.999073 0.00204952 0)
(0.998953 0.00234473 0)
(0.998856 0.00263986 0)
(0.998786 0.00293006 0)
(0.998742 0.00321083 0)
(0.998727 0.0034779 0)
(0.998737 0.00372804 0)
(0.998769 0.00395863 0)
(0.998814 0.00416744 0)
(0.998868 0.00435513 0)
(0.998927 0.00452209 0)
(0.998986 0.00467013 0)
(0.999039 0.00480087 0)
(0.999978 0.000237095 0)
(0.999912 0.000473514 0)
(0.999807 0.00071581 0)
(0.999679 0.000969313 0)
(0.999541 0.00123475 0)
(0.999401 0.00151113 0)
(0.999266 0.00179615 0)
(0.999143 0.00208688 0)
(0.999039 0.00237943 0)
(0.998957 0.00266958 0)
(0.998901 0.00295287 0)
(0.998871 0.00322494 0)
(0.998866 0.00348228 0)
(0.998885 0.00372221 0)
(0.998922 0.00394182 0)
(0.99897 0.00414061 0)
(0.999025 0.00431824 0)
(0.999082 0.00447667 0)
(0.999139 0.00461679 0)
(0.999189 0.0047411 0)
(0.999979 0.000244986 0)
(0.999917 0.000488657 0)
(0.999819 0.000737357 0)
(0.9997 0.000996175 0)
(0.999572 0.00126568 0)
(0.999443 0.00154465 0)
(0.999322 0.00183046 0)
(0.999213 0.00212003 0)
(0.999123 0.0024093 0)
(0.999056 0.00269416 0)
(0.999013 0.00297025 0)
(0.998995 0.00323372 0)
(0.999 0.00348157 0)
(0.999026 0.00371125 0)
(0.999068 0.00392071 0)
(0.999117 0.00410949 0)
(0.999172 0.0042781 0)
(0.999228 0.00442825 0)
(0.999282 0.00456145 0)
(0.999329 0.00467968 0)
(0.999981 0.000252524 0)
(0.999922 0.000502913 0)
(0.99983 0.000757436 0)
(0.99972 0.00102104 0)
(0.999603 0.00129408 0)
(0.999486 0.00157499 0)
(0.999377 0.00186108 0)
(0.999282 0.00214886 0)
(0.999206 0.00243446 0)
(0.999152 0.00271362 0)
(0.999121 0.0029824 0)
(0.999114 0.00323728 0)
(0.999128 0.0034757 0)
(0.999161 0.00369546 0)
(0.999205 0.00389533 0)
(0.999256 0.00407444 0)
(0.999311 0.00423502 0)
(0.999365 0.00437744 0)
(0.999417 0.00450443 0)
(0.999461 0.00461708 0)
(0.999982 0.000259708 0)
(0.999927 0.000516393 0)
(0.999842 0.000776293 0)
(0.999741 0.00104414 0)
(0.999634 0.00132007 0)
(0.999529 0.0016023 0)
(0.999432 0.00188799 0)
(0.999351 0.00217347 0)
(0.999288 0.00245493 0)
(0.999246 0.00272816 0)
(0.999226 0.00298954 0)
(0.999229 0.00323592 0)
(0.999251 0.00346519 0)
(0.999288 0.00367568 0)
(0.999335 0.00386584 0)
(0.999388 0.00403669 0)
(0.999442 0.00418912 0)
(0.999494 0.00432494 0)
(0.999543 0.0044458 0)
(0.999585 0.00455368 0)
(0.999983 0.000266472 0)
(0.999932 0.000528924 0)
(0.999854 0.000793656 0)
(0.999761 0.00106518 0)
(0.999664 0.00134347 0)
(0.999571 0.00162647 0)
(0.999487 0.0019112 0)
(0.999417 0.00219396 0)
(0.999367 0.00247083 0)
(0.999336 0.00273795 0)
(0.999327 0.00299181 0)
(0.999338 0.00322983 0)
(0.999367 0.00345032 0)
(0.999409 0.00365135 0)
(0.999458 0.00383293 0)
(0.999511 0.00399529 0)
(0.999564 0.00414055 0)
(0.999615 0.00426977 0)
(0.999661 0.0043853 0)
(0.999701 0.00448851 0)
(0.999984 0.000272824 0)
(0.999938 0.000540657 0)
(0.999866 0.000809736 0)
(0.999782 0.00108438 0)
(0.999695 0.00136441 0)
(0.999613 0.00164755 0)
(0.99954 0.00193077 0)
(0.999483 0.00221027 0)
(0.999444 0.00248227 0)
(0.999424 0.00274301 0)
(0.999424 0.00298937 0)
(0.999443 0.0032192 0)
(0.999477 0.00343084 0)
(0.999522 0.00362311 0)
(0.999573 0.00379613 0)
(0.999626 0.00395083 0)
(0.999678 0.00408909 0)
(0.999728 0.00421252 0)
(0.999772 0.00432288 0)
(0.999809 0.00442209 0)
(0.999986 0.000278707 0)
(0.999943 0.000551433 0)
(0.999878 0.000824348 0)
(0.999802 0.0011016 0)
(0.999725 0.00138279 0)
(0.999654 0.00166558 0)
(0.999593 0.00194672 0)
(0.999546 0.00222257 0)
(0.999518 0.0024893 0)
(0.999508 0.00274349 0)
(0.999517 0.00298232 0)
(0.999542 0.00320395 0)
(0.999581 0.00340702 0)
(0.999629 0.003591 0)
(0.999681 0.00375573 0)
(0.999733 0.00390357 0)
(0.999785 0.00403522 0)
(0.999832 0.00415341 0)
(0.999874 0.00425903 0)
(0.999909 0.00435459 0)
(0.999987 0.000284159 0)
(0.999948 0.000561336 0)
(0.99989 0.000837597 0)
(0.999823 0.00111689 0)
(0.999755 0.00139866 0)
(0.999694 0.0016805 0)
(0.999644 0.00195904 0)
(0.999608 0.00223078 0)
(0.99959 0.00249195 0)
(0.999589 0.00273945 0)
(0.999605 0.00297075 0)
(0.999636 0.0031844 0)
(0.999679 0.00337943 0)
(0.999729 0.00355507 0)
(0.999781 0.00371272 0)
(0.999834 0.00385358 0)
(0.999884 0.00397961 0)
(0.99993 0.00409249 0)
(0.99997 0.00419407 0)
(1 0.00428597 0)
(0.999988 0.000289159 0)
(0.999953 0.000570327 0)
(0.999901 0.000849457 0)
(0.999842 0.00113029 0)
(0.999784 0.00141212 0)
(0.999733 0.00169244 0)
(0.999693 0.00196794 0)
(0.999668 0.0022351 0)
(0.999658 0.00249046 0)
(0.999665 0.00273108 0)
(0.999688 0.00295493 0)
(0.999725 0.00316087 0)
(0.999771 0.00334773 0)
(0.999822 0.00351602 0)
(0.999874 0.00366642 0)
(0.999926 0.00380119 0)
(0.999975 0.00392155 0)
(1.00002 0.00402985 0)
(1.00006 0.00412738 0)
(1.00009 0.00421616 0)
(0.999989 0.000293676 0)
(0.999959 0.000578394 0)
(0.999913 0.000859874 0)
(0.999862 0.00114169 0)
(0.999813 0.00142299 0)
(0.999771 0.00170128 0)
(0.999741 0.00197323 0)
(0.999725 0.00223548 0)
(0.999724 0.00248476 0)
(0.999738 0.00271848 0)
(0.999767 0.00293498 0)
(0.999808 0.00313318 0)
(0.999856 0.00331248 0)
(0.999908 0.00347347 0)
(0.999961 0.00361737 0)
(1.00001 0.0037462 0)
(1.00006 0.00386166 0)
(1.0001 0.00396547 0)
(1.00014 0.00405959 0)
(1.00017 0.00414526 0)
(0.999991 0.000297726 0)
(0.999964 0.000585508 0)
(0.999924 0.000868881 0)
(0.999881 0.00115116 0)
(0.999841 0.00143146 0)
(0.999808 0.00170717 0)
(0.999787 0.00197519 0)
(0.999779 0.00223216 0)
(0.999786 0.00247519 0)
(0.999807 0.00270195 0)
(0.999841 0.0029111 0)
(0.999885 0.0031018 0)
(0.999935 0.00327397 0)
(0.999988 0.00342789 0)
(1.00004 0.00356602 0)
(1.00009 0.00368922 0)
(1.00014 0.00380024 0)
(1.00018 0.00389994 0)
(1.00021 0.00399089 0)
(1.00024 0.00407372 0)
(0.999992 0.000301246 0)
(0.999969 0.000591551 0)
(0.999935 0.00087627 0)
(0.999899 0.00115847 0)
(0.999867 0.00143722 0)
(0.999844 0.00170992 0)
(0.999831 0.00197359 0)
(0.999831 0.00222504 0)
(0.999845 0.00246169 0)
(0.999871 0.00268153 0)
(0.99991 0.00288353 0)
(0.999957 0.00306719 0)
(1.00001 0.00323221 0)
(1.00006 0.00338014 0)
(1.00011 0.00351234 0)
(1.00016 0.00363081 0)
(1.00021 0.00373724 0)
(1.00025 0.00383348 0)
(1.00028 0.00392113 0)
(1.00031 0.00400161 0)
(0.999993 0.000304218 0)
(0.999973 0.000596576 0)
(0.999946 0.000882135 0)
(0.999917 0.00116378 0)
(0.999893 0.00144048 0)
(0.999877 0.00170978 0)
(0.999872 0.00196873 0)
(0.999879 0.0022145 0)
(0.999899 0.00244465 0)
(0.999931 0.00265764 0)
(0.999974 0.00285275 0)
(1.00002 0.00302928 0)
(1.00008 0.00318795 0)
(1.00013 0.0033297 0)
(1.00018 0.00345674 0)
(1.00023 0.00357035 0)
(1.00027 0.00367288 0)
(1.00031 0.00376557 0)
(1.00034 0.00385046 0)
(1.00037 0.0039285 0)
(0.999994 0.000306571 0)
(0.999978 0.000600408 0)
(0.999956 0.000886254 0)
(0.999934 0.00116681 0)
(0.999917 0.00144103 0)
(0.999909 0.00170653 0)
(0.999911 0.00196055 0)
(0.999925 0.00220044 0)
(0.999951 0.00242413 0)
(0.999987 0.00263041 0)
(1.00003 0.00281861 0)
(1.00008 0.00298849 0)
(1.00014 0.00314086 0)
(1.00019 0.003277 0)
(1.00024 0.00339894 0)
(1.00029 0.00350834 0)
(1.00033 0.00360693 0)
(1.00037 0.00369668 0)
(1.0004 0.00377873 0)
(1.00042 0.00385484 0)
(0.999995 0.000308422 0)
(0.999982 0.000603126 0)
(0.999966 0.000888745 0)
(0.99995 0.00116774 0)
(0.99994 0.0014391 0)
(0.999939 0.00170049 0)
(0.999948 0.00194935 0)
(0.999967 0.00218329 0)
(0.999998 0.00240056 0)
(1.00004 0.00260018 0)
(1.00009 0.00278168 0)
(1.00014 0.00294525 0)
(1.00019 0.00309142 0)
(1.00025 0.00322253 0)
(1.0003 0.00333953 0)
(1.00034 0.00344507 0)
(1.00038 0.00354002 0)
(1.00042 0.003627 0)
(1.00045 0.00370652 0)
(1.00047 0.00378077 0)
(0.999996 0.000309586 0)
(0.999986 0.000604533 0)
(0.999975 0.000889366 0)
(0.999966 0.00116634 0)
(0.999962 0.00143443 0)
(0.999967 0.00169146 0)
(0.999982 0.00193501 0)
(1.00001 0.00216301 0)
(1.00004 0.00237393 0)
(1.00009 0.00256709 0)
(1.00014 0.00274229 0)
(1.00019 0.0028995 0)
(1.00024 0.00304035 0)
(1.0003 0.00316619 0)
(1.00035 0.00327899 0)
(1.00039 0.00338043 0)
(1.00043 0.00347233 0)
(1.00047 0.0035563 0)
(1.00049 0.00363377 0)
(1.00052 0.00370595 0)
(0.999997 0.000310009 0)
(0.99999 0.000604621 0)
(0.999983 0.000888191 0)
(0.99998 0.00116275 0)
(0.999982 0.00142728 0)
(0.999993 0.00167974 0)
(1.00001 0.00191792 0)
(1.00004 0.00213998 0)
(1.00008 0.00234468 0)
(1.00013 0.00253163 0)
(1.00018 0.00270042 0)
(1.00024 0.00285194 0)
(1.00029 0.00298721 0)
(1.00034 0.00310841 0)
(1.00039 0.0032168 0)
(1.00043 0.00331471 0)
(1.00047 0.00340337 0)
(1.00051 0.00348485 0)
(1.00053 0.00356011 0)
(1.00055 0.00363067 0)
(0.999998 0.000309741 0)
(0.999994 0.000603433 0)
(0.999992 0.000885214 0)
(0.999993 0.00115691 0)
(1 0.00141756 0)
(1.00002 0.00166525 0)
(1.00004 0.00189799 0)
(1.00008 0.00211415 0)
(1.00012 0.00231279 0)
(1.00017 0.0024935 0)
(1.00022 0.00265628 0)
(1.00028 0.0028021 0)
(1.00033 0.00293225 0)
(1.00038 0.00304877 0)
(1.00043 0.00315329 0)
(1.00047 0.00324758 0)
(1.00051 0.00333357 0)
(1.00054 0.00341242 0)
(1.00057 0.00348598 0)
(1.00059 0.00355477 0)
(0.999999 0.000308857 0)
(0.999997 0.000601117 0)
(0.999999 0.000880659 0)
(1.00001 0.00114916 0)
(1.00002 0.00140569 0)
(1.00004 0.00164847 0)
(1.00007 0.00187572 0)
(1.00011 0.00208601 0)
(1.00015 0.00227861 0)
(1.0002 0.00245325 0)
(1.00026 0.00261028 0)
(1.00031 0.00275043 0)
(1.00037 0.00287594 0)
(1.00042 0.00298786 0)
(1.00046 0.0030888 0)
(1.0005 0.00317967 0)
(1.00054 0.00326312 0)
(1.00057 0.00333962 0)
(1.0006 0.0034115 0)
(1.00062 0.00347877 0)
(1 0.000307357 0)
(1 0.00059762 0)
(1.00001 0.000874452 0)
(1.00002 0.00113939 0)
(1.00003 0.00139151 0)
(1.00006 0.00162923 0)
(1.00009 0.00185091 0)
(1.00013 0.00205538 0)
(1.00018 0.00224207 0)
(1.00023 0.00241087 0)
(1.00029 0.00256224 0)
(1.00034 0.00269741 0)
(1.0004 0.00281813 0)
(1.00045 0.00292607 0)
(1.00049 0.00302319 0)
(1.00053 0.00311117 0)
(1.00057 0.00319178 0)
(1.0006 0.00326637 0)
(1.00062 0.00333627 0)
(1.00064 0.0034024 0)
(1 0.000305335 0)
(1 0.000593154 0)
(1.00001 0.000866941 0)
(1.00003 0.001128 0)
(1.00005 0.00137553 0)
(1.00008 0.00160803 0)
(1.00011 0.00182412 0)
(1.00016 0.00202278 0)
(1.00021 0.00220364 0)
(1.00026 0.00236676 0)
(1.00031 0.00251282 0)
(1.00037 0.00264306 0)
(1.00042 0.0027593 0)
(1.00047 0.00286327 0)
(1.00052 0.00295689 0)
(1.00055 0.0030419 0)
(1.00059 0.00311999 0)
(1.00062 0.00319254 0)
(1.00064 0.0032608 0)
(1.00066 0.00332566 0)
(1 0.000302758 0)
(1.00001 0.000587655 0)
(1.00002 0.000857954 0)
(1.00004 0.00111481 0)
(1.00006 0.00135751 0)
(1.00009 0.00158465 0)
(1.00013 0.00179508 0)
(1.00018 0.00198798 0)
(1.00023 0.00216315 0)
(1.00028 0.00232087 0)
(1.00034 0.00246163 0)
(1.00039 0.00258724 0)
(1.00044 0.00269909 0)
(1.00049 0.0027993 0)
(1.00054 0.00288956 0)
(1.00057 0.00297175 0)
(1.00061 0.00304746 0)
(1.00063 0.00311809 0)
(1.00066 0.00318481 0)
(1.00067 0.0032485 0)
(1 0.00029976 0)
(1.00001 0.000581418 0)
(1.00002 0.00084794 0)
(1.00005 0.00110037 0)
(1.00007 0.00133802 0)
(1.00011 0.00155972 0)
(1.00015 0.00176441 0)
(1.0002 0.00195156 0)
(1.00025 0.00212117 0)
(1.0003 0.00227328 0)
(1.00036 0.00240913 0)
(1.00041 0.00252988 0)
(1.00046 0.0026378 0)
(1.00051 0.0027342 0)
(1.00055 0.0028215 0)
(1.00059 0.00290095 0)
(1.00062 0.00297461 0)
(1.00065 0.00304344 0)
(1.00067 0.00310889 0)
(1.00069 0.00317149 0)
(1 0.000296255 0)
(1.00001 0.000574205 0)
(1.00003 0.000836567 0)
(1.00005 0.00108425 0)
(1.00008 0.00131669 0)
(1.00012 0.00153279 0)
(1.00016 0.00173175 0)
(1.00021 0.0019132 0)
(1.00027 0.00207715 0)
(1.00032 0.00222394 0)
(1.00037 0.00235478 0)
(1.00043 0.00247111 0)
(1.00047 0.00257499 0)
(1.00052 0.00266815 0)
(1.00056 0.00275237 0)
(1.0006 0.00282967 0)
(1.00063 0.00290114 0)
(1.00065 0.00296868 0)
(1.00068 0.00303264 0)
(1.00069 0.00309455 0)
(1 0.000292375 0)
(1.00001 0.000566384 0)
(1.00003 0.000824329 0)
(1.00006 0.00106711 0)
(1.00009 0.00129415 0)
(1.00013 0.00150459 0)
(1.00018 0.00169776 0)
(1.00023 0.00187347 0)
(1.00028 0.00203182 0)
(1.00033 0.00217346 0)
(1.00038 0.00229926 0)
(1.00044 0.00241162 0)
(1.00048 0.00251152 0)
(1.00053 0.00260174 0)
(1.00057 0.00268311 0)
(1.0006 0.00275839 0)
(1.00063 0.00282794 0)
(1.00066 0.00289415 0)
(1.00068 0.00295689 0)
(1.0007 0.00301796 0)
(1 0.000288009 0)
(1.00002 0.000557645 0)
(1.00004 0.000810839 0)
(1.00007 0.00104844 0)
(1.0001 0.00126994 0)
(1.00014 0.00147465 0)
(1.00019 0.00166203 0)
(1.00024 0.0018321 0)
(1.00029 0.00198511 0)
(1.00034 0.00212148 0)
(1.00039 0.00224298 0)
(1.00044 0.00235105 0)
(1.00049 0.00244769 0)
(1.00053 0.00253464 0)
(1.00057 0.00261373 0)
(1.00061 0.00268662 0)
(1.00064 0.00275468 0)
(1.00066 0.00281917 0)
(1.00068 0.00288099 0)
(1.0007 0.00294086 0)
(1 0.000283316 0)
(1.00002 0.000548345 0)
(1.00004 0.000796601 0)
(1.00007 0.00102886 0)
(1.00011 0.00124475 0)
(1.00015 0.00144365 0)
(1.00019 0.00162529 0)
(1.00024 0.00178983 0)
(1.0003 0.00193731 0)
(1.00035 0.00206891 0)
(1.0004 0.00218578 0)
(1.00045 0.00229015 0)
(1.00049 0.00238322 0)
(1.00054 0.00246745 0)
(1.00057 0.00254398 0)
(1.00061 0.00261493 0)
(1.00064 0.00268124 0)
(1.00066 0.00274441 0)
(1.00068 0.00280505 0)
(1.0007 0.00286409 0)
(1 0.000278162 0)
(1.00002 0.000538179 0)
(1.00004 0.000781184 0)
(1.00007 0.00100792 0)
(1.00011 0.00121806 0)
(1.00015 0.00141116 0)
(1.0002 0.00158713 0)
(1.00025 0.00174607 0)
(1.0003 0.00188833 0)
(1.00035 0.00201508 0)
(1.0004 0.00212771 0)
(1.00045 0.00222819 0)
(1.00049 0.00231818 0)
(1.00054 0.00239941 0)
(1.00057 0.00247386 0)
(1.00061 0.00254261 0)
(1.00063 0.00260759 0)
(1.00066 0.00266919 0)
(1.00068 0.00272906 0)
(1.00069 0.00278703 0)
(1 0.000272705 0)
(1.00002 0.000527489 0)
(1.00004 0.000765125 0)
(1.00008 0.000986223 0)
(1.00011 0.00119059 0)
(1.00016 0.00137791 0)
(1.0002 0.0015482 0)
(1.00025 0.00170164 0)
(1.0003 0.00183887 0)
(1.00035 0.0019607 0)
(1.0004 0.00206947 0)
(1.00045 0.00216604 0)
(1.00049 0.00225315 0)
(1.00053 0.00233152 0)
(1.00057 0.00240393 0)
(1.0006 0.00247072 0)
(1.00063 0.00253434 0)
(1.00065 0.00259467 0)
(1.00067 0.00265367 0)
(1.00069 0.00271086 0)
(1 0.000266852 0)
(1.00002 0.000516086 0)
(1.00005 0.000748094 0)
(1.00008 0.00096342 0)
(1.00012 0.00116197 0)
(1.00016 0.00134352 0)
(1.0002 0.00150824 0)
(1.00025 0.00165645 0)
(1.0003 0.00178849 0)
(1.00035 0.00190612 0)
(1.0004 0.00201061 0)
(1.00044 0.00210395 0)
(1.00049 0.00218773 0)
(1.00053 0.00226377 0)
(1.00056 0.00233369 0)
(1.00059 0.00239892 0)
(1.00062 0.00246073 0)
(1.00064 0.0025201 0)
(1.00066 0.00257785 0)
(1.00068 0.00263452 0)
(1 0.000260781 0)
(1.00002 0.00050437 0)
(1.00005 0.000730662 0)
(1.00008 0.000940208 0)
(1.00012 0.00113291 0)
(1.00016 0.00130877 0)
(1.0002 0.00146805 0)
(1.00025 0.00161079 0)
(1.0003 0.00173815 0)
(1.00035 0.00185114 0)
(1.00039 0.00195195 0)
(1.00044 0.00204163 0)
(1.00048 0.0021226 0)
(1.00052 0.00219592 0)
(1.00055 0.00226377 0)
(1.00058 0.00232706 0)
(1.00061 0.00238739 0)
(1.00063 0.00244544 0)
(1.00065 0.00250221 0)
(1.00067 0.00255805 0)
(1 0.000254413 0)
(1.00002 0.000492065 0)
(1.00005 0.000712482 0)
(1.00008 0.000916126 0)
(1.00012 0.00110301 0)
(1.00016 0.00127324 0)
(1.0002 0.00142699 0)
(1.00025 0.00156458 0)
(1.00029 0.0016871 0)
(1.00034 0.00179582 0)
(1.00039 0.00189265 0)
(1.00043 0.00197911 0)
(1.00047 0.00205688 0)
(1.00051 0.00212792 0)
(1.00054 0.0021933 0)
(1.00057 0.00225502 0)
(1.0006 0.00231352 0)
(1.00062 0.00237054 0)
(1.00064 0.00242599 0)
(1.00065 0.00248124 0)
(1 0.000247912 0)
(1.00002 0.000479628 0)
(1.00005 0.000694137 0)
(1.00008 0.000891912 0)
(1.00012 0.00107301 0)
(1.00016 0.00123761 0)
(1.0002 0.00138591 0)
(1.00024 0.00151848 0)
(1.00029 0.00163603 0)
(1.00033 0.00174082 0)
(1.00038 0.00183355 0)
(1.00042 0.00191694 0)
(1.00046 0.00199158 0)
(1.0005 0.00206035 0)
(1.00053 0.0021235 0)
(1.00056 0.00218362 0)
(1.00058 0.0022406 0)
(1.0006 0.00229656 0)
(1.00062 0.00235105 0)
(1.00063 0.00240564 0)
(1 0.000241175 0)
(1.00002 0.000466751 0)
(1.00005 0.000675243 0)
(1.00008 0.000867113 0)
(1.00011 0.00104246 0)
(1.00015 0.00120154 0)
(1.00019 0.00134466 0)
(1.00024 0.00147206 0)
(1.00028 0.00158539 0)
(1.00032 0.00168578 0)
(1.00037 0.00177514 0)