/*--------------------------------*- C++ -*----------------------------------*\
| =========                 |                                                 |
| \\      /  F ield         | OpenFOAM: The Open Source CFD Toolbox           |
|  \\    /   O peration     | Version:  2.4.0                                 |
|   \\  /    A nd           | Web:      www.OpenFOAM.org                      |
|    \\/     M anipulation  |                                                 |
\*---------------------------------------------------------------------------*/
FoamFile
{
    version     2.0;
    format      ascii;
    class       volScalarField;
    location    "0.34";
    object      p;
}
// * * * * * * * * * * * * * * * * * * * * * * * * * * * * * * * * * * * * * //

dimensions      [0 2 -2 0 0 0 0];

internalField   nonuniform List<scalar> 
2320
(
3.79432
3.80883
3.82546
3.83856
3.84961
3.86071
3.87216
3.88337
3.89388
3.90355
3.91221
3.91953
3.92501
3.92797
3.92754
3.92256
3.91149
3.89228
3.8623
3.8182
3.79435
3.80887
3.82549
3.83861
3.84967
3.86079
3.87227
3.88351
3.89407
3.9038
3.91255
3.91998
3.9256
3.92875
3.92855
3.92385
3.91311
3.89427
3.86466
3.82088
3.79441
3.80893
3.82556
3.8387
3.84979
3.86094
3.87247
3.88378
3.89444
3.9043
3.91321
3.92087
3.92678
3.93029
3.93056
3.92642
3.91634
3.89823
3.86937
3.82625
3.79449
3.80902
3.82567
3.83883
3.84996
3.86117
3.87278
3.88419
3.89499
3.90503
3.9142
3.92218
3.92852
3.93258
3.93354
3.93025
3.92116
3.90417
3.87646
3.83435
3.7946
3.80914
3.82581
3.839
3.85018
3.86146
3.87317
3.88471
3.8957
3.90599
3.91547
3.92389
3.93079
3.93557
3.93745
3.93529
3.92755
3.91206
3.88591
3.84521
3.79472
3.80928
3.82597
3.83921
3.85044
3.86182
3.87364
3.88535
3.89655
3.90714
3.91702
3.92596
3.93355
3.93923
3.94223
3.94149
3.93543
3.92188
3.89776
3.85888
3.79487
3.80944
3.82616
3.83944
3.85075
3.86222
3.87418
3.88608
3.89753
3.90846
3.91881
3.92836
3.93675
3.94348
3.94783
3.94877
3.94477
3.93357
3.91198
3.87543
3.79504
3.80961
3.82637
3.8397
3.85109
3.86267
3.87478
3.88689
3.89862
3.90993
3.92079
3.93102
3.94033
3.94825
3.95415
3.95704
3.95545
3.94708
3.9286
3.89493
3.79521
3.8098
3.82659
3.83998
3.85145
3.86315
3.87542
3.88775
3.89979
3.91151
3.92293
3.93391
3.94421
3.95345
3.96108
3.96619
3.96737
3.9623
3.94757
3.91744
3.79539
3.80999
3.82682
3.84027
3.85183
3.86365
3.87609
3.88865
3.90101
3.91317
3.92517
3.93695
3.94832
3.95899
3.9685
3.97605
3.98037
3.97911
3.96887
3.94305
3.79558
3.81019
3.82705
3.84056
3.85221
3.86415
3.87677
3.88957
3.90225
3.91486
3.92747
3.94007
3.95255
3.96473
3.97625
3.98646
3.99425
3.9973
3.99235
3.9718
3.79576
3.81039
3.82728
3.84085
3.85259
3.86466
3.87744
3.89048
3.90349
3.91654
3.92976
3.9432
3.95682
3.97054
3.98417
3.9972
4.00876
4.0166
4.01789
4.00362
3.79593
3.81058
3.82751
3.84113
3.85295
3.86514
3.87809
3.89136
3.90469
3.91817
3.93199
3.94625
3.96101
3.97629
3.99207
4.008
4.02359
4.03661
4.04528
4.03839
3.7961
3.81075
3.82772
3.8414
3.85329
3.86559
3.87871
3.89219
3.90582
3.91972
3.93411
3.94916
3.96502
3.98182
3.99973
4.01858
4.03837
4.05671
4.07412
4.07564
3.79625
3.81091
3.82791
3.84163
3.8536
3.86601
3.87926
3.89294
3.90685
3.92113
3.93605
3.95184
3.96873
3.98697
4.00695
4.02863
4.05266
4.07611
4.10351
4.11249
3.79638
3.81106
3.82807
3.84184
3.85388
3.86637
3.87975
3.89361
3.90775
3.92237
3.93776
3.95421
3.97203
3.99159
4.01348
4.03784
4.06602
4.09409
4.13235
4.14188
3.79648
3.81117
3.82821
3.84202
3.8541
3.86667
3.88016
3.89416
3.90851
3.92341
3.9392
3.9562
3.97481
3.99552
4.01912
4.04591
4.07797
4.11026
4.1596
4.16194
3.79657
3.81126
3.82831
3.84215
3.85428
3.86691
3.88047
3.89459
3.9091
3.92422
3.94031
3.95775
3.977
3.99862
4.02362
4.05253
4.08812
4.12463
4.18341
4.18787
3.79663
3.81132
3.82839
3.84224
3.8544
3.86707
3.88069
3.89488
3.9095
3.92477
3.94107
3.95881
3.9785
4.00077
4.02677
4.05734
4.09599
4.13771
4.20414
4.16473
3.79666
3.81135
3.82842
3.84229
3.85446
3.86715
3.8808
3.89503
3.9097
3.92505
3.94146
3.95935
3.97926
4.00187
4.02837
4.05991
4.10023
4.1491
4.22645
4.28065
3.75584
3.67035
3.55621
3.40762
3.21866
2.98329
2.69512
2.34736
3.75873
3.67323
3.5588
3.40962
3.21987
2.98359
2.69439
2.34552
3.76452
3.679
3.56397
3.4136
3.22225
2.98412
2.69281
2.34166
3.77325
3.68771
3.57173
3.4195
3.2257
2.9847
2.69015
2.33562
3.78501
3.69942
3.58205
3.4272
3.23
2.98512
2.68638
2.32779
3.79987
3.71422
3.59491
3.43651
3.23497
2.98551
2.68198
2.31842
3.81798
3.73222
3.61021
3.44722
3.24073
2.98625
2.67654
2.30487
3.83952
3.75355
3.62781
3.45939
3.24756
2.98647
2.66615
2.27979
3.86475
3.77835
3.64767
3.47314
3.25446
2.98179
2.64262
2.23342
3.89407
3.80678
3.66976
3.48766
3.25735
2.9641
2.5964
2.15999
3.92793
3.83904
3.69369
3.49968
3.24868
2.92444
2.52297
2.06488
3.96679
3.87562
3.71762
3.50247
3.21977
2.85845
2.4282
1.96321
4.01159
3.91674
3.73594
3.48723
3.16543
2.77075
2.3255
1.86872
4.06489
3.95925
3.73837
3.44697
3.08835
2.67415
2.22807
1.78423
4.13134
3.99356
3.71439
3.38107
2.99986
2.58401
2.14554
1.70583
4.21662
4.00956
3.66044
3.29729
2.9145
2.50966
2.08353
1.63907
4.32667
4.00307
3.57968
3.20635
2.84074
2.44768
2.03619
1.59347
4.45681
3.95724
3.47268
3.11452
2.77751
2.38825
1.98586
1.52174
4.55053
3.83323
3.34667
3.02686
2.72349
2.33883
1.94359
1.32145
4.5014
3.64619
3.24048
2.9575
2.69072
2.33289
1.98289
1.13746
1.93305
1.44499
0.875536
0.216743
-0.538552
-1.39399
-2.34525
-3.37535
-4.45183
-5.52746
-6.54475
-7.44287
-8.16532
-8.66669
-8.91765
-8.90783
-8.64567
-8.15746
-7.48491
-6.67995
-5.79835
-4.89398
-4.01402
-3.19606
-2.46755
-1.84904
-1.35963
-1.03838
1.9301
1.44095
0.870398
0.210271
-0.547102
-1.406
-2.36255
-3.39976
-4.48462
-5.569
-6.59444
-7.49935
-8.22666
-8.73072
-8.98222
-8.9708
-8.70465
-8.21017
-7.52962
-6.71545
-5.82404
-4.90986
-4.02059
-3.19395
-2.45716
-1.82859
-1.3226
-0.94672
1.92397
1.43275
0.860268
0.197848
-0.563324
-1.42895
-2.39613
-3.4478
-4.54974
-5.6519
-6.69382
-7.61227
-8.34914
-8.85817
-9.1101
-9.09525
-8.82132
-8.31479
-7.61873
-6.78654
-5.87574
-4.94208
-4.03426
-3.19045
-2.43729
-1.79082
-1.25855
-0.83838
1.91483
1.42096
0.846075
0.180449
-0.586734
-1.46344
-2.44817
-3.52356
-4.65331
-5.78423
-6.8527
-7.79293
-8.54511
-9.06211
-9.31427
-9.29255
-9.00496
-8.47866
-7.7578
-6.89714
-5.95599
-4.99207
-4.05572
-3.18593
-2.40886
-1.73838
-1.17732
-0.716688
1.90331
1.40597
0.82727
0.156029
-0.621233
-1.51547
-2.52696
-3.63768
-4.80808
-5.98026
-7.08609
-8.05643
-8.8294
-9.35708
-9.60964
-9.57839
-9.27169
-8.71733
-7.96078
-7.05888
-6.07372
-5.06605
-4.08878
-3.18235
-2.37291
-1.6726
-1.08076
-0.583522
1.8884
1.38463
0.798612
0.118004
-0.67391
-1.59197
-2.63869
-3.79493
-5.01658
-6.23971
-7.39085
-8.3971
-9.19441
-9.73411
-9.9869
-9.94499
-9.61625
-9.02829
-8.22767
-7.27357
-6.23164
-5.16676
-4.13551
-3.18081
-2.32962
-1.59316
-0.9682
-0.437925
1.86443
1.34903
0.75208
0.060764
-0.745936
-1.68872
-2.77408
-3.98218
-5.26332
-6.546
-7.75022
-8.79846
-9.62401
-10.1774
-10.4298
-10.375
-10.0207
-9.39438
-8.54341
-7.52917
-6.42103
-5.28851
-4.19263
-3.17966
-2.27838
-1.5
-0.839875
-0.279519
1.82201
1.29091
0.684748
-0.0103924
-0.824144
-1.78791
-2.91475
-4.18317
-5.53472
-6.88745
-8.15313
-9.24891
-10.1055
-10.6735
-10.9251
-10.8555
-10.4723
-9.80285
-8.89527
-7.81341
-6.63095
-5.42256
-4.2541
-3.17567
-2.21843
-1.39437
-0.698273
-0.110884
1.7537
1.2102
0.606427
-0.0785338
-0.890307
-1.87465
-3.05019
-4.38968
-5.82137
-7.25034
-8.5799
-9.7228
-10.6086
-11.1891
-11.4392
-11.3553
-10.9447
-10.2324
-9.26634
-8.11281
-6.8506
-5.56053
-4.31407
-3.16571
-2.14948
-1.27853
-0.547552
0.0630878
1.66188
1.11855
0.533521
-0.129017
-0.934695
-1.94217
-3.17216
-4.58766
-6.10073
-7.60347
-8.99247
-10.1774
-11.0878
-11.6776
-11.9248
-11.8285
-11.3946
-10.6449
-9.62525
-8.40352
-7.06314
-5.69139
-4.36604
-3.1469
-2.07172
-1.15527
-0.392336
0.237007
1.55937
1.03015
0.476006
-0.156536
-0.952321
-1.97985
-3.26172
-4.75073
-6.34127
-7.91222
-9.35448
-10.5753
-11.5049
-12.1007
-12.3445
-12.2375
-11.7845
-11.0037
-9.93855
-8.65737
-7.24719
-5.80087
-4.40199
-3.11615
-1.98568
-1.02765
-0.237215
0.405868
1.46035
0.952491
0.435495
-0.158206
-0.932427
-1.96772
-3.29633
-4.85797
-6.52211
-8.15317
-9.6385
-10.8854
-11.8269
-12.4247
-12.6651
-12.5511
-12.0855
-11.2819
-10.1807
-8.85129
-7.38358
-5.87521
-4.41389
-3.07056
-1.89238
-0.899172
-0.0869021
0.564929
1.37034
0.885311
0.412401
-0.125793
-0.858135
-1.89097
-3.27055
-4.90403
-6.63025
-8.30515
-9.81865
-11.0814
-12.0296
-12.6279
-12.8658
-12.7485
-12.2769
-11.4597
-10.3339
-8.96965
-7.45906
-5.90451
-4.39586
-3.00841
-1.79357
-0.773835
0.0536765
0.709483
1.27875
0.820945
0.410302
-0.0471783
-0.72155
-1.75926
-3.1952
-4.88545
-6.65075
-8.34997
-9.88133
-11.1556
-12.111
-12.7128
-12.9515
-12.833
-12.3578
-11.5326
-10.3922
-9.00669
-7.46849
-5.88504
-4.34603
-2.93021
-1.69196
-0.655905
0.179672
0.835057
1.1621
0.74843
0.432348
0.0818888
-0.543676
-1.60067
-3.07745
-4.79632
-6.57822
-8.2889
-9.83626
-11.1224
-12.0883
-12.698
-12.9404
-12.8221
-12.344
-11.5126
-10.3638
-8.96879
-7.41608
-5.82002
-4.26738
-2.83926
-1.59137
-0.549585
0.286889
0.937989
1.02046
0.675571
0.472821
0.240517
-0.370922
-1.43496
-2.91889
-4.64185
-6.42827
-8.14922
-9.70654
-11.0056
-11.9831
-12.6026
-12.8506
-12.7329
-12.2522
-11.4172
-10.2658
-8.86914
-7.3186
-5.72053
-4.1682
-2.74186
-1.49669
-0.458749
0.372346
1.01614
0.916258
0.641748
0.51323
0.379045
-0.232865
-1.26858
-2.7314
-4.43908
-6.22523
-7.95397
-9.51989
-10.8304
-11.8202
-12.4504
-12.705
-12.5887
-12.1057
-11.2691
-10.1196
-8.72881
-7.18846
-5.6009
-4.06027
-2.64608
-1.41283
-0.386152
0.434936
1.06944
0.861764
0.666716
0.535909
0.460484
-0.124567
-1.11042
-2.53245
-4.21869
-6.00243
-7.73874
-9.31413
-10.6356
-11.637
-12.2776
-12.5397
-12.4258
-11.9418
-11.1053
-9.96046
-8.57918
-7.05289
-5.48165
-3.95882
-2.56256
-1.3459
-0.333548
0.475597
1.10059
0.576362
0.71866
0.536895
0.48937
-0.0441792
-0.978593
-2.35654
-4.02014
-5.80156
-7.54593
-9.13166
-10.4638
-11.4754
-12.1246
-12.3927
-12.2812
-11.7976
-10.9629
-9.82359
-8.45216
-6.93967
-5.38465
-3.87966
-2.50125
-1.30095
-0.302348
0.495994
1.11314
-0.170087
0.767356
0.5126
0.49744
-0.000738568
-0.901502
-2.24845
-3.89497
-5.67294
-7.42161
-9.01409
-10.3535
-11.3722
-12.0275
-12.2996
-12.191
-11.709
-10.8765
-9.74175
-8.3775
-6.87454
-5.33058
-3.8375
-2.47078
-1.281
-0.291061
0.50081
1.11359
-0.924898
-0.985239
-0.802633
-0.153057
0.964778
2.24579
3.49458
4.0965
-0.713914
-0.560579
-0.217718
0.446397
1.43569
2.58658
3.74206
4.56422
-0.517332
-0.229778
0.185836
0.846029
1.76273
2.81199
3.87358
4.71208
-0.330883
0.0386587
0.501214
1.14927
1.99146
2.93858
3.89826
4.67792
-0.151034
0.268816
0.755272
1.37781
2.14706
2.99801
3.85253
4.54326
0.0285551
0.4782
0.972222
1.5614
2.2573
3.01149
3.75729
4.35245
0.211962
0.676914
1.1642
1.71286
2.33361
2.99139
3.6302
4.13371
0.398137
0.867087
1.33694
1.83973
2.38528
2.94946
3.48685
3.90806
0.583015
1.04761
1.49282
1.9465
2.41896
2.89498
3.33935
3.68858
0.761964
1.2161
1.63236
2.03652
2.44017
2.8363
3.19845
3.48591
0.930817
1.37034
1.75587
2.11256
2.45391
2.77985
3.07116
3.30725
1.08586
1.50844
1.86366
2.17696
2.46385
2.72999
2.96248
3.15702
1.22351
1.62854
1.95572
2.23118
2.47232
2.68942
2.87502
3.03667
1.34041
1.72874
2.03159
2.27585
2.48043
2.65908
2.80902
2.94519
1.43385
1.80743
2.09068
2.31095
2.4882
2.63853
2.763
2.88005
1.50254
1.86403
2.13279
2.33626
2.49493
2.62633
2.73427
2.83779
1.54707
1.89952
2.15874
2.35197
2.49973
2.6204
2.71909
2.81393
1.57056
1.91715
2.17084
2.3591
2.50205
2.61858
2.71345
2.80417
1.57771
1.92107
2.17299
2.35978
2.50209
2.61918
2.71275
2.80387
1.57552
1.918
2.17053
2.35833
2.50215
2.61924
2.71568
2.80736
5.62931
5.46827
4.86966
4.16498
3.26892
1.98536
1.41616
1.83285
2.08645
2.09338
1.97614
1.84807
1.70403
1.51269
1.27426
1.00252
0.703587
0.358732
-0.0642946
-0.775179
5.7935
5.27555
4.49897
3.79675
3.01758
2.03359
1.62931
1.99519
2.18117
2.13626
1.99727
1.86032
1.70982
1.51466
1.27495
1.00325
0.705
0.361873
-0.0065869
-0.488012
5.60704
5.03648
4.23992
3.63042
2.97843
2.17652
1.78988
2.03139
2.17809
2.12626
1.98909
1.85342
1.7038
1.51065
1.27347
1.00388
0.708064
0.375363
0.053568
-0.346045
5.38817
4.8026
3.99118
3.43528
2.88742
2.23568
1.89908
2.08786
2.21009
2.15342
2.01262
1.87151
1.71658
1.51904
1.27962
1.01013
0.716961
0.39515
0.100486
-0.239601
5.10538
4.53512
3.75806
3.27372
2.83329
2.31681
2.03332
2.16535
2.24706
2.17406
2.02562
1.87624
1.71531
1.51612
1.27852
1.01214
0.724395
0.415341
0.138221
-0.152384
4.79924
4.26854
3.56082
3.14806
2.79728
2.38893
2.14289
2.22025
2.26794
2.18587
2.03654
1.88433
1.72089
1.52194
1.28547
1.02105
0.737058
0.438396
0.173113
-0.083007
4.48283
4.00925
3.39522
3.05092
2.7747
2.45425
2.2421
2.27611
2.29341
2.20313
2.05277
1.89638
1.72808
1.52671
1.29022
1.02773
0.747937
0.458771
0.201196
-0.0296983
4.16997
3.76969
3.26282
2.9817
2.76455
2.51366
2.33001
2.32917
2.31827
2.21941
2.06768
1.90704
1.73401
1.53091
1.29553
1.03595
0.76063
0.479959
0.226637
0.0126432
3.87436
3.55764
3.16041
2.93517
2.76345
2.56668
2.40641
2.37824
2.34168
2.23451
2.08176
1.91762
1.74054
1.53613
1.30199
1.04518
0.773742
0.499775
0.248059
0.0458312
3.6086
3.37753
3.08389
2.907
2.76967
2.61411
2.47325
2.423
2.36386
2.24893
2.09527
1.9281
1.7473
1.54164
1.3087
1.05456
0.786652
0.518114
0.266521
0.071887
3.38206
3.2307
3.02855
2.89285
2.78142
2.65645
2.53069
2.46294
2.38445
2.26235
2.10768
1.93787
1.7538
1.54714
1.31554
1.06408
0.799401
0.535164
0.282598
0.0923103
3.19961
3.1162
2.99003
2.88892
2.79701
2.69405
2.57943
2.49798
2.40322
2.27455
2.11869
1.94666
1.75993
1.5526
1.32245
1.0736
0.811802
0.550843
0.296526
0.108151
3.0616
3.03155
2.9646
2.8923
2.81514
2.72714
2.62007
2.52789
2.4198
2.28527
2.1281
1.95429
1.76552
1.55787
1.32926
1.08293
0.823683
0.565154
0.308624
0.120343
2.96496
2.97333
2.94922
2.89984
2.83437
2.75616
2.65333
2.55256
2.43389
2.29428
2.13572
1.96056
1.77039
1.56276
1.33579
1.09189
0.834889
0.578079
0.319036
0.129499
2.90427
2.93737
2.94122
2.90963
2.85364
2.78101
2.67969
2.57193
2.44522
2.30137
2.14141
1.96535
1.77441
1.56721
1.342
1.10047
0.845497
0.58986
0.32821
0.136412
2.87285
2.91932
2.93857
2.92012
2.8716
2.80125
2.69949
2.58607
2.45355
2.30624
2.14497
1.9684
1.77728
1.57083
1.34743
1.10814
0.854943
0.599992
0.335656
0.141059
2.86201
2.91353
2.93976
2.93031
2.88705
2.81645
2.71314
2.5953
2.4589
2.30897
2.14666
1.97012
1.77952
1.57431
1.35294
1.11588
0.864257
0.609589
0.342579
0.144508
2.86384
2.91514
2.94357
2.93946
2.89895
2.82627
2.72092
2.59946
2.46039
2.30837
2.14511
1.9688
1.77902
1.57531
1.35615
1.12142
0.871393
0.616916
0.34751
0.146465
2.87017
2.91943
2.94831
2.94631
2.90614
2.83095
2.72461
2.60111
2.46067
2.3076
2.14432
1.96897
1.78048
1.57832
1.36099
1.12805
0.878932
0.623689
0.351076
0.146867
2.87442
2.92376
2.9528
2.94985
2.90678
2.82674
2.71891
2.59437
2.45222
2.29772
2.13458
1.9609
1.77506
1.57617
1.3623
1.1325
0.886102
0.631303
0.355857
0.14774
-2.02019
-1.08757
-2.00128
-0.493627
-0.250697
-0.311126
-0.270208
-0.269726
-1.92209
-1.72551
-1.83501
-1.19814
-0.955867
-0.853079
-0.704069
-0.66872
-1.87025
-1.87589
-2.25003
-1.92341
-1.66598
-1.48219
-1.24652
-1.18107
-2.00927
-2.33755
-2.79141
-2.62036
-2.33262
-2.08923
-1.77955
-1.68167
-2.35157
-2.92763
-3.32133
-3.24651
-2.95312
-2.67554
-2.31337
-2.18777
-2.80617
-3.46568
-3.81837
-3.79208
-3.51319
-3.22148
-2.82685
-2.67974
-3.29437
-3.9398
-4.2731
-4.2659
-4.01103
-3.72181
-3.31281
-3.15138
-3.77807
-4.37274
-4.67772
-4.67675
-4.44804
-4.17286
-3.76398
-3.59484
-4.23685
-4.76606
-5.03096
-5.03266
-4.82884
-4.57473
-4.17671
-4.00526
-4.65566
-5.11387
-5.33728
-5.34125
-5.15947
-4.92934
-4.54916
-4.37926
-5.02645
-5.41624
-5.60349
-5.60976
-5.44641
-5.23985
-4.88116
-4.71502
-5.34859
-5.67819
-5.83611
-5.84453
-5.69568
-5.50981
-5.17339
-5.01174
-5.62525
-5.90523
-6.04038
-6.05083
-5.91229
-5.74259
-5.42703
-5.26935
-5.86003
-6.1014
-6.22026
-6.23252
-6.10007
-5.94096
-5.64328
-5.48812
-6.05563
-6.26911
-6.37822
-6.39192
-6.26168
-6.10691
-5.8231
-5.6684
-6.21366
-6.40921
-6.5152
-6.52986
-6.39826
-6.24152
-5.96677
-5.8102
-6.33459
-6.52099
-6.63045
-6.6458
-6.50814
-6.34475
-6.07347
-5.91284
-6.41781
-6.60216
-6.72128
-6.73799
-6.58599
-6.41515
-6.14152
-5.97513
-6.46186
-6.64928
-6.78302
-6.8025
-6.62758
-6.44932
-6.17012
-5.99637
-6.46525
-6.65801
-6.8086
-6.83089
-6.63702
-6.44355
-6.15863
-5.97656
-6.4218
-6.62345
-6.79008
-6.81543
-6.60721
-6.39732
-6.10383
-5.914
-6.32725
-6.54127
-6.72046
-6.74995
-6.53252
-6.30836
-6.00423
-5.80725
-6.18201
-6.40894
-6.59761
-6.63151
-6.40989
-6.17521
-5.85911
-5.65527
-5.98774
-6.22602
-6.42205
-6.4593
-6.23845
-5.9976
-5.66844
-5.45753
-5.74656
-5.99385
-6.19581
-6.23512
-6.01956
-5.77668
-5.4329
-5.21395
-5.46197
-5.71571
-5.92264
-5.96316
-5.75679
-5.51502
-5.15375
-4.92483
-5.13921
-5.3969
-5.60826
-5.64969
-5.45568
-5.21644
-4.83262
-4.59081
-4.78506
-5.04456
-5.26
-5.3027
-5.12332
-4.88563
-4.4711
-4.21254
-4.40726
-4.66712
-4.88632
-4.93129
-4.76783
-4.52774
-4.07011
-3.79013
-4.01416
-4.27372
-4.49618
-4.54516
-4.39768
-4.14792
-3.62945
-3.32277
-3.61446
-3.87374
-4.09863
-4.15406
-4.0208
-3.75075
-3.14785
-2.80957
-3.217
-3.47631
-3.70256
-3.76765
-3.64347
-3.33865
-2.62327
-2.2515
-2.8307
-3.08987
-3.31649
-3.39538
-3.26921
-2.90888
-2.05213
-1.65126
-2.46473
-2.72203
-2.94889
-3.04555
-2.89886
-2.45077
-1.42801
-1.00744
-2.128
-2.37919
-2.60842
-2.72175
-2.53253
-1.94736
-0.744477
-0.310773
-1.83052
-2.06979
-2.30831
-2.41963
-2.16905
-1.38077
-0.00532965
0.435249
-1.57654
-1.80014
-2.0579
-2.13333
-1.79221
-0.732074
0.767632
1.1704
-1.37939
-1.59582
-1.86128
-1.87653
-1.33975
0.0207808
1.54617
1.7903
-1.20792
-1.42043
-1.69184
-1.60458
-0.696792
0.864029
2.30848
2.31002
-1.19194
-1.40835
-1.47714
-1.04287
0.166138
1.66864
3.00092
3.01873
4.23317
3.53346
3.19232
2.92196
2.69511
2.38589
2.12324
1.54057
3.83602
3.45396
3.17319
2.90906
2.71122
2.44655
2.24149
1.86066
3.54688
3.32845
3.12721
2.88679
2.71732
2.49098
2.32873
2.0747
3.31736
3.20172
3.06962
2.85946
2.71679
2.5222
2.39184
2.21737
3.14446
3.08346
3.00326
2.82609
2.70926
2.54148
2.43632
2.31277
3.00998
2.97994
2.93549
2.78936
2.69633
2.55164
2.46681
2.37702
2.90441
2.89126
2.87019
2.75124
2.67932
2.55483
2.4867
2.42012
2.8199
2.81609
2.80981
2.71348
2.65964
2.55289
2.49864
2.44859
2.75127
2.75245
2.75532
2.67725
2.6385
2.54728
2.5046
2.46674
2.69477
2.69842
2.70692
2.64319
2.61685
2.53907
2.50611
2.47749
2.64767
2.65231
2.66433
2.61155
2.59542
2.52908
2.5043
2.48287
2.60797
2.61278
2.62695
2.58232
2.5747
2.51787
2.50003
2.48429
2.57431
2.57859
2.59422
2.55539
2.55491
2.50585
2.49394
2.48275
2.54591
2.54832
2.56617
2.53049
2.53604
2.49327
2.48651
2.47897
2.52225
2.52055
2.54342
2.50683
2.51842
2.4802
2.47802
2.47344
2.50238
2.49522
2.52534
2.48343
2.50322
2.46626
2.46872
2.46656
2.48591
2.47285
2.50919
2.46078
2.49089
2.45118
2.45883
2.45861
2.47247
2.45347
2.49452
2.44011
2.47831
2.4363
2.44826
2.4498
2.46193
2.43677
2.4815
2.42223
2.46461
2.42259
2.43636
2.44016
2.45429
2.42254
2.47029
2.40633
2.45069
2.40955
2.42364
2.4297
2.44972
2.4107
2.46106
2.39198
2.43702
2.39673
2.41038
2.41845
2.44851
2.40129
2.45402
2.37901
2.42381
2.38394
2.39659
2.40653
2.45108
2.39448
2.4494
2.36745
2.41113
2.37111
2.38217
2.39397
2.45801
2.39056
2.44748
2.35743
2.399
2.35827
2.36704
2.38076
2.46996
2.38993
2.44857
2.34921
2.38745
2.34543
2.35107
2.36686
2.48781
2.39309
2.45307
2.34314
2.37655
2.33261
2.33416
2.3522
2.51265
2.40073
2.46151
2.33967
2.36644
2.31975
2.31615
2.33663
2.54596
2.41383
2.4746
2.33944
2.35737
2.3068
2.29696
2.31989
2.58938
2.43344
2.49308
2.34316
2.34965
2.29379
2.27646
2.30166
2.64441
2.46031
2.51744
2.35149
2.34363
2.28079
2.25444
2.28169
2.71266
2.49499
2.54798
2.36515
2.33969
2.26773
2.23055
2.25979
2.79768
2.53944
2.58568
2.38531
2.33862
2.25464
2.20447
2.23508
2.907
2.59877
2.633
2.41381
2.34176
2.24235
2.17639
2.20473
3.04827
2.67814
2.69185
2.45189
2.35028
2.23234
2.14743
2.16509
3.21751
2.77333
2.75891
2.4983
2.36362
2.22473
2.1191
2.11704
3.3982
2.86998
2.82632
2.55054
2.37966
2.21627
2.09174
2.06855
3.60417
2.97402
2.89544
2.61083
2.39952
2.20515
2.06312
2.01616
3.93839
3.1509
2.98813
2.68775
2.43284
2.20317
2.03006
1.90474
4.50943
3.46986
3.11849
2.78035
2.48853
2.23263
1.99702
1.64775
5.11521
3.8112
3.23414
2.85502
2.54563
2.28347
1.97739
1.31669
)
;

boundaryField
{
    wall
    {
        type            zeroGradient;
    }
    inlet1
    {
        type            zeroGradient;
    }
    inlet2
    {
        type            zeroGradient;
    }
    outlet1
    {
        type            fixedValue;
        value           uniform 0;
    }
    outlet2
    {
        type            outletInlet;
        outletValue     uniform 0;
        value           nonuniform List<scalar> 8(-2.02019 0 -2.00128 0 0 0 0 0);
    }
    defaultFaces
    {
        type            empty;
    }
}


// ************************************************************************* //
