/*--------------------------------*- C++ -*----------------------------------*\
| =========                 |                                                 |
| \\      /  F ield         | OpenFOAM: The Open Source CFD Toolbox           |
|  \\    /   O peration     | Version:  2.4.0                                 |
|   \\  /    A nd           | Web:      www.OpenFOAM.org                      |
|    \\/     M anipulation  |                                                 |
\*---------------------------------------------------------------------------*/
FoamFile
{
    version     2.0;
    format      ascii;
    class       volScalarField;
    location    "3.45";
    object      nut;
}
// * * * * * * * * * * * * * * * * * * * * * * * * * * * * * * * * * * * * * //

dimensions      [0 2 -1 0 0 0 0];

internalField   nonuniform List<scalar> 
6000
(
4.70153e-05
1.44398e-05
4.25151e-06
8.77566e-06
7.78998e-06
8.93048e-06
8.57592e-06
8.95447e-06
8.83723e-06
9.051e-06
9.09264e-06
9.32837e-06
9.56638e-06
9.9717e-06
1.04404e-05
1.09868e-05
1.15152e-05
1.20111e-05
1.24725e-05
1.29758e-05
1.36133e-05
1.44807e-05
1.56311e-05
1.70655e-05
1.87306e-05
2.05423e-05
2.24094e-05
2.42526e-05
2.60086e-05
2.76281e-05
2.90692e-05
3.02911e-05
3.1249e-05
3.18902e-05
3.21499e-05
3.19459e-05
3.11887e-05
2.97761e-05
2.76082e-05
2.46227e-05
2.08416e-05
1.64346e-05
1.82506e-05
2.24543e-05
2.64886e-05
3.00012e-05
3.28037e-05
3.48741e-05
3.62037e-05
3.69541e-05
3.71067e-05
3.70315e-05
3.64196e-05
3.61721e-05
3.5008e-05
3.5371e-05
3.33542e-05
3.54204e-05
3.16926e-05
3.64249e-05
2.94898e-05
9.50577e-06
3.16939e-06
7.01456e-06
6.32384e-06
7.02016e-06
6.78165e-06
7.0197e-06
6.95395e-06
7.10577e-06
7.16427e-06
7.35881e-06
7.57673e-06
7.91744e-06
8.31786e-06
8.78181e-06
9.25544e-06
9.73866e-06
1.0249e-05
1.08492e-05
1.16025e-05
1.25529e-05
1.3701e-05
1.50094e-05
1.64172e-05
1.78591e-05
1.9278e-05
2.06317e-05
2.1893e-05
2.3046e-05
2.40825e-05
2.49985e-05
2.57936e-05
2.64718e-05
2.70395e-05
2.75168e-05
2.7962e-05
2.85103e-05
2.94675e-05
3.15333e-05
3.62553e-05
4.46836e-05
3.53299e-05
2.90103e-05
2.65042e-05
2.56907e-05
2.55463e-05
2.56007e-05
2.562e-05
2.55361e-05
2.5279e-05
2.49519e-05
2.44283e-05
2.40617e-05
2.33371e-05
2.32839e-05
2.2221e-05
2.3013e-05
2.11876e-05
2.31881e-05
2.14309e-05
8.15928e-06
2.81679e-06
5.88994e-06
5.32794e-06
5.68517e-06
5.50381e-06
5.64249e-06
5.61093e-06
5.73066e-06
5.81686e-06
6.01148e-06
6.25527e-06
6.60747e-06
7.03594e-06
7.54444e-06
8.11698e-06
8.77647e-06
9.56935e-06
1.05627e-05
1.18043e-05
1.32908e-05
1.49619e-05
1.67303e-05
1.85172e-05
2.02666e-05
2.19443e-05
2.35332e-05
2.5032e-05
2.6453e-05
2.78223e-05
2.9181e-05
3.05902e-05
3.21412e-05
3.39548e-05
3.61931e-05
3.91906e-05
4.35363e-05
5.03518e-05
6.18509e-05
8.20746e-05
0.000108451
7.83969e-05
5.39029e-05
4.01217e-05
3.23447e-05
2.77613e-05
2.4894e-05
2.29784e-05
2.15894e-05
2.04959e-05
1.95781e-05
1.87503e-05
1.80382e-05
1.73166e-05
1.68487e-05
1.6136e-05
1.6121e-05
1.52013e-05
1.56871e-05
1.78746e-05
7.96883e-06
2.9901e-06
5.26132e-06
4.70555e-06
4.77087e-06
4.60028e-06
4.66158e-06
4.65278e-06
4.7626e-06
4.8907e-06
5.12425e-06
5.44281e-06
5.8843e-06
6.44573e-06
7.14383e-06
8.00782e-06
9.10189e-06
1.05224e-05
1.23643e-05
1.46714e-05
1.73849e-05
2.03634e-05
2.34555e-05
2.65625e-05
2.96386e-05
3.26678e-05
3.56508e-05
3.86062e-05
4.15766e-05
4.4636e-05
4.78985e-05
5.15324e-05
5.57927e-05
6.08911e-05
6.72293e-05
7.55454e-05
8.69787e-05
0.000103436
0.000128068
0.000164925
0.000199596
0.000151554
0.000106568
7.60664e-05
5.62271e-05
4.32962e-05
3.46971e-05
2.885e-05
2.47284e-05
2.17419e-05
1.94603e-05
1.76999e-05
1.6214e-05
1.50391e-05
1.39854e-05
1.31724e-05
1.24925e-05
1.18728e-05
1.14472e-05
1.67546e-05
8.44478e-06
3.53721e-06
5.0402e-06
4.40822e-06
4.18871e-06
3.98701e-06
3.97919e-06
3.98535e-06
4.10391e-06
4.29378e-06
4.61001e-06
5.06528e-06
5.69312e-06
6.52693e-06
7.61672e-06
9.05918e-06
1.0992e-05
1.35931e-05
1.70035e-05
2.12522e-05
2.61953e-05
3.15949e-05
3.72555e-05
4.30937e-05
4.90961e-05
5.52641e-05
6.15992e-05
6.81179e-05
7.48751e-05
8.19822e-05
8.96219e-05
9.80671e-05
0.000107708
0.000118523
0.000131242
0.000146758
0.000166302
0.000191698
0.000225488
0.000269329
0.000298624
0.000243156
0.000184914
0.000138566
0.000103826
7.84285e-05
6.00623e-05
4.68759e-05
3.73536e-05
3.045e-05
2.5297e-05
2.14727e-05
1.84021e-05
1.6102e-05
1.40451e-05
1.26514e-05
1.11907e-05
1.04106e-05
9.31111e-06
1.71084e-05
9.39775e-06
4.39366e-06
5.14899e-06
4.41381e-06
3.89401e-06
3.61837e-06
3.53868e-06
3.55402e-06
3.69941e-06
3.97904e-06
4.43387e-06
5.11197e-06
6.0617e-06
7.3711e-06
9.15523e-06
1.1616e-05
1.50032e-05
1.95909e-05
2.55343e-05
3.27797e-05
4.10599e-05
5.00846e-05
5.97095e-05
6.99419e-05
8.08208e-05
9.23341e-05
0.000104419
0.000117009
0.000130081
0.000143689
0.000157976
0.000173191
0.000189482
0.000206528
0.000225215
0.000246269
0.000270615
0.000299547
0.00033468
0.000375281
0.000393276
0.000338267
0.000275694
0.00021977
0.000172731
0.000134452
0.000104087
8.05856e-05
6.26838e-05
4.92328e-05
3.90383e-05
3.14419e-05
2.55071e-05
2.10605e-05
1.72755e-05
1.46455e-05
1.2041e-05
1.06156e-05
8.82373e-06
1.83892e-05
1.07092e-05
5.51847e-06
5.50751e-06
4.6995e-06
3.87148e-06
3.47603e-06
3.31227e-06
3.33184e-06
3.52388e-06
3.93269e-06
4.60206e-06
5.62581e-06
7.0914e-06
9.17065e-06
1.20848e-05
1.61797e-05
2.1828e-05
2.93419e-05
3.87672e-05
4.98683e-05
6.22916e-05
7.58456e-05
9.05774e-05
0.000106633
0.000124061
0.000142731
0.000162383
0.000182723
0.00020352
0.00022464
0.000246064
0.000267921
0.000289677
0.000311209
0.000333317
0.000356508
0.000381404
0.000408873
0.000439952
0.000472005
0.000478791
0.000427597
0.000366209
0.000306792
0.000252503
0.000204513
0.000163315
0.000129032
0.000101278
7.93569e-05
6.21431e-05
4.89773e-05
3.87116e-05
3.08748e-05
2.44198e-05
1.96946e-05
1.53729e-05
1.26812e-05
9.98103e-06
2.02058e-05
1.22754e-05
6.86838e-06
6.06339e-06
5.21092e-06
4.11891e-06
3.5606e-06
3.29363e-06
3.31279e-06
3.5751e-06
4.1674e-06
5.15479e-06
6.69396e-06
8.93988e-06
1.2181e-05
1.67798e-05
2.32319e-05
3.19685e-05
4.31839e-05
5.6656e-05
7.19577e-05
8.88208e-05
0.000107348
0.000127861
0.0001506
0.000175498
0.000202157
0.000229979
0.000258334
0.000286708
0.000314737
0.000342214
0.000369104
0.000394258
0.000418046
0.000441072
0.000463688
0.000486323
0.000509598
0.00053419
0.000556306
0.000553942
0.000507111
0.000449154
0.000389936
0.000332656
0.000278957
0.000230028
0.000186826
0.00014986
0.000119164
9.40449e-05
7.4145e-05
5.84173e-05
4.61116e-05
3.61127e-05
2.84132e-05
2.17423e-05
1.70422e-05
1.3097e-05
2.2247e-05
1.39957e-05
8.39139e-06
6.80933e-06
5.86576e-06
4.62228e-06
3.87979e-06
3.49099e-06
3.50618e-06
3.86803e-06
4.71506e-06
6.15458e-06
8.42552e-06
1.1776e-05
1.66322e-05
2.35012e-05
3.29689e-05
4.53802e-05
6.06321e-05
7.818e-05
9.75499e-05
0.000118778
0.000142377
0.00016891
0.000198591
0.000231098
0.000265643
0.00030122
0.00033685
0.000371752
0.000405371
0.000437357
0.000467415
0.000494298
0.000518643
0.00054091
0.000561357
0.000580307
0.000598265
0.000615629
0.000628286
0.00061885
0.00057567
0.000521491
0.00046413
0.000406498
0.000350273
0.000296838
0.000247502
0.000203333
0.000164989
0.000132343
0.000105497
8.38223e-05
6.64395e-05
5.23421e-05
4.10327e-05
3.15353e-05
2.41388e-05
1.8612e-05
2.42784e-05
1.57762e-05
1.00284e-05
7.74811e-06
6.60628e-06
5.33112e-06
4.42881e-06
3.91531e-06
3.92783e-06
4.42517e-06
5.61273e-06
7.66169e-06
1.09075e-05
1.57037e-05
2.26069e-05
3.22228e-05
4.51087e-05
6.13677e-05
8.05206e-05
0.000101806
0.000124908
0.0001503
0.000178887
0.000211369
0.000247806
0.00028752
0.00032929
0.000371716
0.000413512
0.000453697
0.000491577
0.000526717
0.0005585
0.000585939
0.000609734
0.000630243
0.000647676
0.000662315
0.000674636
0.000684811
0.000689068
0.000674101
0.000633449
0.000582519
0.000527457
0.000470811
0.000414126
0.000358715
0.000305901
0.000256938
0.000212838
0.000173952
0.000140783
0.000113327
9.07797e-05
7.24045e-05
5.72133e-05
4.46747e-05
3.41518e-05
2.68217e-05
2.61485e-05
1.75362e-05
1.17186e-05
8.86592e-06
7.42632e-06
6.16493e-06
5.17057e-06
4.56127e-06
4.58405e-06
5.25889e-06
6.87779e-06
9.69568e-06
1.41466e-05
2.06816e-05
2.99455e-05
4.25583e-05
5.89229e-05
7.88227e-05
0.000101467
0.000126062
0.00015259
0.000181957
0.000215364
0.000253533
0.000296279
0.000342535
0.000390663
0.000438926
0.0004858
0.000530157
0.000571208
0.000608477
0.00064097
0.00066818
0.000690724
0.000708892
0.000722873
0.000732956
0.000739638
0.000743022
0.000739922
0.000720411
0.000681143
0.000632619
0.000579687
0.000524553
0.000468587
0.000412925
0.000358729
0.000307183
0.000259386
0.000215991
0.000177667
0.000145104
0.00011774
9.5222e-05
7.61989e-05
6.06374e-05
4.68876e-05
3.76872e-05
2.77812e-05
1.92135e-05
1.34046e-05
1.01295e-05
8.34851e-06
7.06001e-06
6.03891e-06
5.3904e-06
5.45174e-06
6.34827e-06
8.47834e-06
1.21968e-05
1.80253e-05
2.64856e-05
3.82465e-05
5.38513e-05
7.34723e-05
9.66012e-05
0.000122286
0.000149852
0.000179611
0.000212811
0.000250829
0.000294318
0.000342814
0.000394868
0.000448484
0.000501653
0.00055267
0.000600301
0.000643681
0.000682286
0.000714833
0.000741282
0.000762119
0.000777588
0.000787885
0.000793339
0.000794519
0.000791588
0.000781984
0.000758491
0.000719595
0.000672596
0.000621365
0.000567824
0.000513168
0.000458334
0.000404252
0.000351897
0.000302265
0.000256101
0.000214097
0.000177441
0.00014593
0.000119649
9.7076e-05
7.86651e-05
6.18562e-05
5.084e-05
2.91564e-05
2.07658e-05
1.50377e-05
1.14932e-05
9.38778e-06
8.00055e-06
6.9724e-06
6.33712e-06
6.47096e-06
7.62536e-06
1.03174e-05
1.5013e-05
2.23039e-05
3.27458e-05
4.69661e-05
6.53654e-05
8.78756e-05
0.000113794
0.000142155
0.000172489
0.000205383
0.000242305
0.000284702
0.000333101
0.000386757
0.000443891
0.000502205
0.000559484
0.000613877
0.000664073
0.000709136
0.000748433
0.00078063
0.000805941
0.000824757
0.000837299
0.00084378
0.000844604
0.00084049
0.000831664
0.0008162
0.000789001
0.000749639
0.000703363
0.000653335
0.000601248
0.000548145
0.000494767
0.000441799
0.00038995
0.000340006
0.000292638
0.000248453
0.000208887
0.000174111
0.00014463
0.00011895
9.79626e-05
7.84268e-05
6.57184e-05
3.02875e-05
2.21688e-05
1.65797e-05
1.29067e-05
1.05399e-05
9.00359e-06
7.94446e-06
7.34032e-06
7.56441e-06
8.98887e-06
1.22497e-05
1.79303e-05
2.66746e-05
3.90394e-05
5.55589e-05
7.64606e-05
0.000101474
0.000129811
0.000160603
0.000193599
0.000229586
0.000270131
0.00031666
0.000369548
0.0004278
0.000489357
0.000551682
0.0006124
0.000669546
0.000721741
0.000767989
0.000807495
0.000839033
0.000862926
0.000879495
0.000888947
0.000891531
0.00088779
0.000878574
0.000864193
0.000843334
0.000812534
0.000772035
0.000725803
0.000676497
0.000625638
0.000574137
0.000522557
0.000471344
0.000420928
0.000371839
0.000324571
0.000279569
0.000238297
0.00020124
0.000169253
0.000141019
0.000117801
9.59546e-05
8.17103e-05
3.12038e-05
2.34133e-05
1.80043e-05
1.43214e-05
1.17836e-05
1.00882e-05
8.96192e-06
8.37114e-06
8.67229e-06
1.03422e-05
1.41278e-05
2.07319e-05
3.08406e-05
4.49884e-05
6.35862e-05
8.66843e-05
0.000113864
0.000144343
0.000177408
0.000213014
0.000252063
0.000296121
0.00034653
0.000403503
0.000465826
0.00053122
0.000596964
0.000660558
0.00071994
0.000773675
0.00082071
0.000860051
0.000890684
0.00091294
0.000927084
0.000933327
0.000931973
0.000923767
0.000909598
0.000889931
0.000864002
0.000829614
0.000787455
0.000740713
0.00069171
0.000641836
0.000591891
0.000542275
0.000493214
0.000444865
0.000397488
0.00035135
0.000306689
0.000264835
0.00022649
0.00019276
0.000162597
0.000137551
0.000113848
9.82422e-05
3.19397e-05
2.45013e-05
1.92964e-05
1.56938e-05
1.30862e-05
1.12598e-05
1.00436e-05
9.43447e-06
9.7726e-06
1.1628e-05
1.58473e-05
2.32545e-05
3.45779e-05
5.03206e-05
7.07591e-05
9.57774e-05
0.000124856
0.000157276
0.000192503
0.000230675
0.00027274
0.000320188
0.000374225
0.000434898
0.000500816
0.00056953
0.000638179
0.000704168
0.000765351
0.000820243
0.000867738
0.000906611
0.000936133
0.000956572
0.00096815
0.000971083
0.000965824
0.000953222
0.000934223
0.000909476
0.000878706
0.0008407
0.000796485
0.000748797
0.000699747
0.000650634
0.000602161
0.00055458
0.000507909
0.000462051
0.000417001
0.000372776
0.00032939
0.00028794
0.000249245
0.00021455
0.000183114
0.000156687
0.000131592
0.000114817
3.2528e-05
2.54421e-05
2.04502e-05
1.69894e-05
1.44091e-05
1.25084e-05
1.12044e-05
1.05516e-05
1.08763e-05
1.28362e-05
1.73658e-05
2.54134e-05
3.77597e-05
5.48829e-05
7.69297e-05
0.000103633
0.000134403
0.000168614
0.000205907
0.000246578
0.000291581
0.000342275
0.000399692
0.000463709
0.000532792
0.000604368
0.000675474
0.000743442
0.000806051
0.000861769
0.000909418
0.000947598
0.000975831
0.0009943
0.00100319
0.00100277
0.000993644
0.000976699
0.000952973
0.000923306
0.000887859
0.000846197
0.000799632
0.000750669
0.000701296
0.000652754
0.000605663
0.000560136
0.000515997
0.00047291
0.000430618
0.000388886
0.000347503
0.000307285
0.000269079
0.000234168
0.000202114
0.000174778
0.000148757
0.000131022
3.29976e-05
2.62488e-05
2.14671e-05
1.81828e-05
1.57127e-05
1.38114e-05
1.24471e-05
1.17414e-05
1.2014e-05
1.39911e-05
1.86948e-05
2.71967e-05
4.0348e-05
5.86229e-05
8.20559e-05
0.000110245
0.000142543
0.000178419
0.000217675
0.000260746
0.000308571
0.000362345
0.000422895
0.000489926
0.000561788
0.00063582
0.000708985
0.000778566
0.00084227
0.000898522
0.000946031
0.000983351
0.00101014
0.0010265
0.00103262
0.00102885
0.00101587
0.000994631
0.000966266
0.00093181
0.000891809
0.000846463
0.000797343
0.000746864
0.000696962
0.000648843
0.000603054
0.000559578
0.000518053
0.000477923
0.000438687
0.000399872
0.000361045
0.000322729
0.000285735
0.000251294
0.000219249
0.000191483
0.00016499
0.000146524
3.33724e-05
2.69368e-05
2.23543e-05
1.92584e-05
1.69604e-05
1.51374e-05
1.37615e-05
1.30134e-05
1.322e-05
1.51322e-05
1.98785e-05
2.86439e-05
4.237e-05
6.15595e-05
8.61641e-05
0.000115663
0.000149351
0.000186777
0.000227875
0.000273208
0.000323697
0.00038036
0.000443802
0.000513542
0.000587834
0.000663957
0.000738829
0.000809693
0.000874195
0.00093072
0.000977835
0.00101414
0.00103934
0.00105348
0.00105678
0.00104967
0.00103286
0.00100737
0.000974441
0.000935305
0.000890855
0.000841817
0.000790013
0.000737858
0.000687285
0.000639484
0.000594937
0.0005535
0.000514639
0.000477585
0.000441612
0.000406017
0.000370156
0.000334274
0.000299091
0.000265731
0.000234271
0.000206546
0.000180016
0.000161063
3.3672e-05
2.75214e-05
2.31221e-05
2.02093e-05
1.81216e-05
1.64505e-05
1.51266e-05
1.43657e-05
1.45117e-05
1.63144e-05
2.09746e-05
2.98222e-05
4.38928e-05
6.37559e-05
8.93191e-05
0.000119963
0.000154914
0.000193776
0.000236579
0.000283999
0.000336953
0.00039629
0.00046238
0.000534543
0.000610949
0.000688834
0.000765093
0.000836943
0.000901972
0.000958531
0.00100503
0.00104017
0.00106365
0.00107549
0.00107596
0.0010655
0.00104488
0.00101518
0.000977775
0.000934062
0.000885263
0.000832553
0.000778001
0.000724081
0.000672755
0.000625209
0.000581864
0.000542459
0.000506289
0.000472389
0.000439817
0.000407655
0.000375059
0.000342019
0.000309136
0.000277381
0.000247022
0.000219783
0.000193623
0.000174442
3.39121e-05
2.80171e-05
2.37828e-05
2.10359e-05
1.91733e-05
1.77139e-05
1.65124e-05
1.57852e-05
1.58931e-05
1.75834e-05
2.20481e-05
3.08098e-05
4.50041e-05
6.52995e-05
9.16053e-05
0.000123231
0.000159321
0.000199501
0.000243854
0.000293158
0.00034834
0.000410107
0.000478596
0.000552911
0.000631141
0.00071049
0.000787845
0.000860407
0.000925711
0.000982081
0.00102776
0.00106159
0.00108325
0.00109276
0.00109037
0.00107657
0.00105217
0.00101832
0.000976503
0.000928316
0.000875272
0.000818945
0.000761642
0.000705932
0.000653826
0.000606515
0.000564358
0.00052698
0.000493518
0.000462816
0.000433732
0.000405147
0.000376027
0.000346138
0.000315943
0.000286232
0.000257421
0.000231078
0.000205667
0.000186521
3.41048e-05
2.8437e-05
2.43496e-05
2.17441e-05
2.0101e-05
1.88938e-05
1.78834e-05
1.7249e-05
1.73566e-05
1.89493e-05
2.319e-05
3.16844e-05
4.57993e-05
6.62897e-05
9.31161e-05
0.000125553
0.00016265
0.000204027
0.000249763
0.000300724
0.000357869
0.000421793
0.000492422
0.000568623
0.00064841
0.000728946
0.000807127
0.000880147
0.000945489
0.00100144
0.00104612
0.00107853
0.00109831
0.00110545
0.0011002
0.00108307
0.00105491
0.00101697
0.00097083
0.000918277
0.000861108
0.000801253
0.000741253
0.000683791
0.000630936
0.000583879
0.00054292
0.000507572
0.00047682
0.000449336
0.000423788
0.000398866
0.000373363
0.000346853
0.000319643
0.000292336
0.000265453
0.000240375
0.000216054
0.000197208
3.42599e-05
2.87929e-05
2.4835e-05
2.23437e-05
2.08984e-05
1.99619e-05
1.92016e-05
1.87254e-05
1.88841e-05
2.04101e-05
2.44326e-05
3.25734e-05
4.63737e-05
6.68305e-05
9.3949e-05
0.000127014
0.000164974
0.000207418
0.000254368
0.000306748
0.000365564
0.000431345
0.000503838
0.000581661
0.000662746
0.000744212
0.000822968
0.000896205
0.000961359
0.00101664
0.00106021
0.00109112
0.00110897
0.00111371
0.00110559
0.00108514
0.00105327
0.0010113
0.000960937
0.000904142
0.000842989
0.000779736
0.000717151
0.000658035
0.000604514
0.000557773
0.000518045
0.000484736
0.000456689
0.000432415
0.000410412
0.000389195
0.000367393
0.000344417
0.000320416
0.000295798
0.000271158
0.00024767
0.000224741
0.000206457
3.4385e-05
2.90946e-05
2.52509e-05
2.28468e-05
2.15668e-05
2.08976e-05
2.04299e-05
2.01769e-05
2.0448e-05
2.19522e-05
2.57814e-05
3.35494e-05
4.68841e-05
6.70268e-05
9.42043e-05
0.000127696
0.00016636
0.000209732
0.000257724
0.000311283
0.000371467
0.000438781
0.000512841
0.000592011
0.000674143
0.000756288
0.00083538
0.000908557
0.000973301
0.00102775
0.00107012
0.00109947
0.00111533
0.00111766
0.00110667
0.00108293
0.0010474
0.00100148
0.000946994
0.000886101
0.000821132
0.000754653
0.000689652
0.000629044
0.000574997
0.000528676
0.000490239
0.000458982
0.000433619
0.000412523
0.000394039
0.00037652
0.000358454
0.000339108
0.000318473
0.000296763
0.000274621
0.000252999
0.000231729
0.000214258
3.44861e-05
2.93507e-05
2.5608e-05
2.32665e-05
2.2113e-05
2.16888e-05
2.15354e-05
2.15628e-05
2.2012e-05
2.3551e-05
2.72283e-05
3.46291e-05
4.74375e-05
6.70739e-05
9.39848e-05
0.000127687
0.000166873
0.000211025
0.000259888
0.000314392
0.000375636
0.000444141
0.00051945
0.000599677
0.000682599
0.000765131
0.000844281
0.000917205
0.000981364
0.00103484
0.00107594
0.00110366
0.00111751
0.00111739
0.00110354
0.00107655
0.00103742
0.000987643
0.000929168
0.000864341
0.000795758
0.000726275
0.000659087
0.000597211
0.000542839
0.000497087
0.000460023
0.000430835
0.000408122
0.000390142
0.000375111
0.000361239
0.000346896
0.000331223
0.000314052
0.00029541
0.000275961
0.000256436
0.000237051
0.000220612
3.4568e-05
2.95682e-05
2.59155e-05
2.36159e-05
2.25487e-05
2.2332e-05
2.24921e-05
2.28422e-05
2.35339e-05
2.51723e-05
2.87525e-05
3.58135e-05
4.80665e-05
6.70787e-05
9.35237e-05
0.0001271
0.000166579
0.000211347
0.000260914
0.00031614
0.000378147
0.00044749
0.000523712
0.000604654
0.000687998
0.000770683
0.00084969
0.000922175
0.000985585
0.001038
0.00107774
0.00110377
0.00111557
0.00111301
0.00109632
0.00106612
0.00102346
0.000969935
0.00090762
0.000839056
0.000767099
0.000694886
0.000625805
0.000562955
0.000508517
0.000463531
0.00042795
0.000400851
0.000380737
0.000365775
0.000354087
0.000343761
0.000333083
0.000321075
0.000307411
0.000291939
0.000275327
0.000258087
0.000240775
0.000225568
3.46344e-05
2.97533e-05
2.61813e-05
2.39073e-05
2.28878e-05
2.28312e-05
2.32828e-05
2.39781e-05
2.49683e-05
2.67733e-05
3.03213e-05
3.70883e-05
4.87856e-05
6.70898e-05
9.2895e-05
0.00012612
0.000165663
0.000210773
0.000260854
0.000316598
0.000379087
0.000448915
0.000525564
0.000606872
0.000690358
0.000772961
0.000851623
0.000923492
0.000986006
0.00103726
0.00107557
0.00109987
0.0011096
0.00110459
0.00108509
0.00105173
0.00100565
0.000948501
0.00088252
0.000810447
0.000735401
0.00066079
0.00059018
0.00052672
0.000472543
0.000428567
0.000394605
0.000369619
0.00035203
0.000339954
0.00033145
0.000324515
0.000317396
0.000308993
0.000298826
0.000286575
0.000272892
0.000258081
0.000242993
0.000229203
3.46883e-05
2.99109e-05
2.64121e-05
2.41516e-05
2.31459e-05
2.31973e-05
2.38998e-05
2.494e-05
2.62696e-05
2.83054e-05
3.18918e-05
3.84251e-05
4.95913e-05
6.71383e-05
9.21602e-05
0.000124818
0.000164184
0.000209421
0.000259809
0.000315834
0.000378491
0.00044841
0.000525082
0.000606386
0.000689718
0.000771992
0.000850107
0.000921182
0.000982677
0.00103268
0.00106951
0.00109204
0.00109967
0.00109223
0.00106996
0.00103352
0.000984107
0.000923489
0.000854045
0.000778731
0.000700932
0.000624321
0.000552617
0.000488987
0.000435461
0.000392788
0.000360608
0.00033776
0.000322604
0.000313239
0.000307711
0.000303953
0.000300236
0.000295322
0.000288591
0.00027956
0.000268852
0.00025657
0.000243821
0.000231618
3.47321e-05
3.00452e-05
2.66133e-05
2.43584e-05
2.33383e-05
2.34455e-05
2.43448e-05
2.57067e-05
2.73965e-05
2.97174e-05
3.34129e-05
3.97826e-05
5.04633e-05
6.72362e-05
9.13654e-05
0.000123257
0.000162203
0.000207331
0.000257813
0.000313893
0.000376429
0.00044607
0.000522365
0.000603281
0.00068614
0.000767824
0.000845179
0.000915276
0.000975654
0.00102433
0.00105961
0.00108034
0.00108587
0.00107602
0.00105102
0.00101159
0.000958971
0.000895056
0.000822387
0.000744143
0.000663984
0.000585839
0.000513557
0.000450272
0.000397852
0.00035682
0.000326609
0.000305925
0.000293089
0.000286223
0.000283407
0.000282549
0.000282026
0.000280431
0.000277017
0.000271154
0.000263419
0.000253726
0.000243396
0.000232928
3.47677e-05
3.01598e-05
2.67894e-05
2.45356e-05
2.34795e-05
2.35939e-05
2.4628e-05
2.62675e-05
2.83148e-05
3.0959e-05
3.48284e-05
4.11091e-05
5.13656e-05
6.73767e-05
9.05394e-05
0.000121494
0.000159778
0.000204553
0.000254899
0.000310814
0.000372971
0.000441998
0.000517532
0.00059767
0.000679718
0.00076053
0.000836895
0.000905852
0.000965005
0.00101228
0.00104596
0.00106485
0.00106828
0.00105604
0.00102839
0.000986057
0.000930385
0.000863375
0.000787752
0.000706939
0.00062488
0.000545744
0.000473478
0.000411124
0.000360321
0.000321306
0.000293269
0.000274778
0.000264132
0.000259517
0.000259101
0.000260825
0.000263216
0.000264703
0.000264435
0.000261637
0.000256826
0.000249741
0.000241874
0.000233266
3.47967e-05
3.02577e-05
2.6944e-05
2.46896e-05
2.35826e-05
2.36621e-05
2.47662e-05
2.6623e-05
2.90006e-05
3.19848e-05
3.60806e-05
4.23452e-05
5.22487e-05
6.75344e-05
8.96919e-05
0.00011957
0.000156967
0.000201136
0.000251108
0.000306641
0.000368185
0.000436302
0.000510717
0.000589691
0.000670572
0.000750209
0.000825335
0.000893009
0.00095082
0.000996609
0.00102863
0.00104567
0.00104701
0.00103243
0.00100218
0.000957072
0.000898508
0.000828633
0.000750371
0.000667407
0.000583975
0.000504474
0.000432895
0.000372123
0.00032349
0.000286891
0.000261242
0.000244971
0.000236374
0.000233736
0.000235365
0.000239324
0.000244271
0.000248546
0.000251192
0.000251301
0.00024932
0.00024482
0.000239427
0.00023278
3.48202e-05
3.03413e-05
2.70802e-05
2.48254e-05
2.36586e-05
2.3669e-05
2.47809e-05
2.67838e-05
2.94422e-05
3.27586e-05
3.71149e-05
4.34277e-05
5.30529e-05
6.7668e-05
8.88135e-05
0.000117511
0.000153818
0.000197132
0.000246481
0.000301414
0.000362133
0.000429086
0.000502062
0.000579501
0.000658853
0.000736992
0.000810606
0.000876866
0.000933207
0.000977426
0.00100775
0.0010229
0.00102216
0.00100528
0.000972541
0.00092478
0.000863514
0.000791037
0.000710498
0.000625865
0.000541668
0.000462504
0.000392357
0.000333864
0.000287973
0.000254189
0.000231138
0.00021711
0.000210416
0.000209471
0.000212766
0.000218566
0.000225668
0.000232375
0.000237649
0.000240456
0.000241164
0.000239187
0.000236243
0.000231632
3.48393e-05
3.04127e-05
2.72004e-05
2.49468e-05
2.37167e-05
2.36327e-05
2.46962e-05
2.67696e-05
2.96408e-05
3.32562e-05
3.78837e-05
4.42945e-05
5.37125e-05
6.77226e-05
8.78762e-05
0.000115327
0.000150373
0.000192593
0.000241067
0.000295177
0.000354875
0.000420446
0.000491707
0.000567269
0.000644732
0.000721036
0.000792923
0.000857574
0.000912306
0.000954861
0.00098342
0.000996682
0.000993876
0.000974755
0.000939611
0.00088935
0.000825596
0.000750821
0.00066842
0.000582669
0.000498395
0.000420354
0.000352435
0.000296938
0.000254352
0.000223756
0.000203486
0.000191714
0.000186781
0.00018725
0.000191831
0.000199057
0.000207876
0.000216615
0.000224178
0.000229425
0.000232634
0.000233076
0.000232524
0.000229996
3.48549e-05
3.04739e-05
2.73067e-05
2.50565e-05
2.37637e-05
2.35687e-05
2.45368e-05
2.66062e-05
2.96102e-05
3.34676e-05
3.83513e-05
4.48889e-05
5.41603e-05
6.76348e-05
8.68367e-05
0.000113008
0.000146659
0.000187566
0.000234916
0.000287975
0.000346463
0.000410469
0.000479786
0.000553169
0.000628397
0.000702521
0.00077248
0.000835312
0.00088828
0.000929067
0.000955806
0.000967151
0.000962301
0.000940998
0.000903563
0.000850969
0.000784972
0.000708243
0.000624459
0.00053822
0.000454639
0.000378571
0.000313708
0.000261908
0.000223139
0.000196046
0.0001787
0.00016918
0.000165876
0.00016751
0.000173019
0.00018126
0.000191347
0.000201681
0.000211152
0.000218536
0.000224016
0.000226737
0.000228486
0.00022806
3.48675e-05
3.05262e-05
2.74008e-05
2.51567e-05
2.3805e-05
2.34902e-05
2.43265e-05
2.63236e-05
2.93744e-05
3.33979e-05
3.84964e-05
4.51649e-05
5.43335e-05
6.73371e-05
8.56401e-05
0.000110529
0.000142686
0.000182093
0.000228076
0.000279855
0.000336948
0.000399229
0.000466418
0.000537364
0.000610039
0.000681739
0.000749498
0.000810288
0.000861324
0.000900227
0.000925077
0.000934482
0.000927607
0.000904191
0.000864585
0.000809849
0.000741886
0.000663599
0.000578976
0.000492963
0.000410926
0.000337728
0.000276743
0.00022928
0.00019475
0.000171387
0.000157045
0.000149753
0.000147965
0.000150556
0.000156688
0.000165569
0.000176482
0.000187968
0.000198938
0.000208118
0.000215603
0.000220425
0.000224353
0.00022602
3.48777e-05
3.05711e-05
2.74841e-05
2.52487e-05
2.38441e-05
2.34075e-05
2.40864e-05
2.5953e-05
2.89658e-05
3.30668e-05
3.83148e-05
4.50913e-05
5.41785e-05
6.67646e-05
8.42252e-05
0.00010785
0.000138452
0.000176203
0.000220598
0.000270868
0.000326379
0.000386792
0.000451705
0.000520005
0.000589875
0.000658925
0.000724215
0.000782732
0.000831655
0.000868547
0.00089143
0.000898865
0.000889987
0.000864531
0.00082289
0.000766223
0.00069661
0.000617219
0.000532383
0.000447395
0.000367819
0.000298403
0.000242061
0.000199469
0.000169476
0.000149962
0.000138636
0.000133524
0.000133158
0.000136553
0.000143077
0.000152282
0.000163621
0.000175825
0.000187876
0.000198491
0.000207684
0.000214402
0.000220356
0.00022408
3.48859e-05
3.06096e-05
2.75579e-05
2.53336e-05
2.38834e-05
2.33284e-05
2.38349e-05
2.55251e-05
2.84217e-05
3.2506e-05
3.78198e-05
4.46552e-05
5.36566e-05
6.58606e-05
8.25311e-05
0.000104926
0.000133942
0.000169916
0.000212525
0.000261065
0.000314804
0.000373211
0.000435733
0.000501219
0.000568149
0.000634306
0.000696875
0.000752888
0.00079951
0.000834252
0.000855083
0.000860515
0.000849652
0.000822236
0.000778711
0.000720355
0.000649454
0.000569482
0.000485142
0.000402059
0.000325904
0.000261153
0.000210114
0.000172778
0.000147473
0.000131813
0.000123445
0.00012044
0.000121425
0.000125532
0.000132299
0.00014159
0.000153019
0.000165547
0.000178273
0.000189955
0.000200541
0.000208923
0.00021673
0.000222446
3.48925e-05
3.06427e-05
2.76234e-05
2.54121e-05
2.39239e-05
2.32582e-05
2.35866e-05
2.50675e-05
2.77814e-05
3.17567e-05
3.70409e-05
4.38632e-05
5.2748e-05
6.45823e-05
8.05037e-05
0.000101706
0.000129129
0.000163241
0.000203898
0.000250499
0.000302275
0.000358538
0.00041857
0.000481163
0.000545026
0.000608093
0.000667715
0.000721005
0.000765136
0.000797585
0.000816271
0.000819662
0.000806837
0.000777547
0.000732307
0.000672539
0.00060077
0.000520815
0.000437769
0.000357541
0.000285772
0.000226482
0.000181251
0.000149378
0.000128759
0.000116853
0.000111329
0.000110348
0.000112633
0.000117413
0.000124357
0.000133583
0.000144844
0.000157359
0.000170389
0.000182778
0.000194438
0.00020424
0.000213705
0.000221324
3.48979e-05
3.06712e-05
2.76816e-05
2.54847e-05
2.39663e-05
2.32001e-05
2.33525e-05
2.46043e-05
2.7083e-05
3.08656e-05
3.60212e-05
4.27418e-05
5.14544e-05
6.29066e-05
7.81022e-05
9.81481e-05
0.000123987
0.000156182
0.000194751
0.000239222
0.000288845
0.000342822
0.000400271
0.000459937
0.000520639
0.00058047
0.000636958
0.000687326
0.000728785
0.000758796
0.000775242
0.000776553
0.00076179
0.000730728
0.000683968
0.000623108
0.000550956
0.000471705
0.000390837
0.000314457
0.000247991
0.000194816
0.000155702
0.000129314
0.000113242
0.000104907
0.000102074
0.000103027
0.000106584
0.000112044
0.000119176
0.000128265
0.000139183
0.00015142
0.000164428
0.000177193
0.000189614
0.000200586
0.000211503
0.000220912
3.49022e-05
3.06958e-05
2.77332e-05
2.55519e-05
2.40105e-05
2.31557e-05
2.31404e-05
2.4155e-05
2.63615e-05
2.98813e-05
3.48136e-05
4.13351e-05
4.97998e-05
6.08331e-05
7.53053e-05
9.422e-05
0.000118491
0.000148738
0.000185114
0.00022729
0.000274575
0.000326118
0.000380887
0.000437607
0.000495095
0.000551593
0.000604803
0.00065208
0.000690703
0.00071814
0.000732253
0.000731448
0.00071478
0.000682065
0.000634015
0.000572437
0.000500466
0.000422699
0.000344967
0.000273427
0.000213072
0.000166467
0.000133563
0.000112509
0.000100739
9.5742e-05
9.54341e-05
9.82371e-05
0.000103056
0.00010924
0.000116634
0.000125579
0.00013606
0.000147828
0.000160547
0.000173391
0.00018628
0.000198173
0.00021033
0.000221397
3.49056e-05
3.07172e-05
2.77791e-05
2.5614e-05
2.40562e-05
2.31252e-05
2.29549e-05
2.37341e-05
2.5647e-05
2.88503e-05
3.34759e-05
3.97008e-05
4.78295e-05
5.83859e-05
7.21151e-05
8.99092e-05
0.000112627
0.000140913
0.000175022
0.000214761
0.000259536
0.000308491
0.000360492
0.00041423
0.000468479
0.000521588
0.00057142
0.000615476
0.000651122
0.000675864
0.000687564
0.000684617
0.000666094
0.000631872
0.000582806
0.000520956
0.000449821
0.000374408
0.000300813
0.000235045
0.000181431
0.000141616
0.000114806
9.87991e-05
9.10164e-05
8.91049e-05
9.11603e-05
9.57424e-05
0.000101831
0.000108805
0.000116573
0.00012542
0.000135444
0.000146629
0.000158855
0.000171526
0.000184613
0.000197191
0.000210374
0.000222951
3.49083e-05