/*--------------------------------*- C++ -*----------------------------------*\
| =========                 |                                                 |
| \\      /  F ield         | OpenFOAM: The Open Source CFD Toolbox           |
|  \\    /   O peration     | Version:  2.4.0                                 |
|   \\  /    A nd           | Web:      www.OpenFOAM.org                      |
|    \\/     M anipulation  |                                                 |
\*---------------------------------------------------------------------------*/
FoamFile
{
    version     2.0;
    format      ascii;
    class       volVectorField;
    location    "3.45";
    object      U;
}
// * * * * * * * * * * * * * * * * * * * * * * * * * * * * * * * * * * * * * //

dimensions      [0 1 -1 0 0 0 0];

internalField   nonuniform List<vector> 
6000
(
(0.165119 -0.00671325 1.30146e-18)
(-0.0097401 0.0018571 0)
(0.000833338 -0.000235246 7.23916e-18)
(-0.00663144 0.00128706 0)
(-0.00500685 0.000987584 0)
(-0.00608134 0.00114088 0)
(-0.0053532 0.00098576 4.0167e-18)
(-0.00552292 0.00096468 3.33632e-22)
(-0.00514726 0.00087011 0)
(-0.00515475 0.000826372 0)
(-0.00498359 0.000764456 3.91801e-18)
(-0.00501617 0.000727913 -7.76141e-18)
(-0.00503971 0.000694905 0)
(-0.00522199 0.000678957 0)
(-0.00545948 0.00066929 -1.88254e-18)
(-0.00578007 0.000662639 0)
(-0.00609432 0.000650383 0)
(-0.00638973 0.000629996 -1.83574e-18)
(-0.00665268 0.000602969 -1.82377e-18)
(-0.00694446 0.000575335 0)
(-0.00734464 0.000553926 1.80474e-18)
(-0.00795327 0.000543235 8.98602e-19)
(-0.00885235 0.000542242 -8.95378e-19)
(-0.0100949 0.000545649 0)
(-0.0116849 0.000544546 0)
(-0.0135816 0.000528152 0)
(-0.0157103 0.000486574 4.45199e-19)
(-0.0179826 0.000412413 -4.46276e-19)
(-0.0203075 0.000301421 0)
(-0.0225965 0.000152284 0)
(-0.0247602 -3.36357e-05 5.70752e-20)
(-0.0267025 -0.000252352 0)
(-0.0283142 -0.000497073 4.71304e-19)
(-0.0294675 -0.000758282 -4.81542e-19)
(-0.0300133 -0.00102586 0)
(-0.029776 -0.00124789 0)
(-0.0285569 -0.0014259 1.05041e-18)
(-0.0261538 -0.00152079 0)
(-0.022384 -0.00149183 1.12938e-18)
(-0.0171377 -0.00129785 0)
(-0.0104037 -0.000904286 0)
(-0.00237515 -0.000279385 2.51848e-18)
(0.00585146 0.000493785 -5.19478e-18)
(0.0143611 0.00141432 0)
(0.0229256 0.00247822 0)
(0.0311498 0.003649 2.73388e-18)
(0.0385507 0.00486037 0)
(0.0448679 0.00604969 0)
(0.0498416 0.00716105 -5.39233e-18)
(0.0537155 0.00818108 -5.29946e-18)
(0.0562695 0.00906283 -5.16641e-18)
(0.0585136 0.00987848 -2.7057e-21)
(0.059388 0.0105333 4.79012e-18)
(0.0617244 0.0113809 0)
(0.0612994 0.0118828 -3.41269e-21)
(0.0664551 0.0132206 -3.94092e-18)
(0.0634945 0.0134099 3.22421e-18)
(0.0764808 0.0162248 3.04121e-18)
(0.0671673 0.0154496 4.73474e-21)
(0.0956819 0.0213667 0)
(0.360301 -0.016453 -1.80776e-18)
(0.00303338 0.006502 4.29151e-18)
(0.00550646 -0.000896643 -4.3415e-18)
(-0.0149461 0.0033742 -4.60552e-18)
(-0.0124293 0.00257957 0)
(-0.0157802 0.00306224 0)
(-0.0143035 0.00266987 -4.58559e-18)
(-0.0149152 0.00263291 9.08326e-18)
(-0.0140864 0.00239313 0)
(-0.0141675 0.0022824 0)
(-0.0137902 0.00212737 -4.34674e-18)
(-0.0139126 0.00203842 4.28243e-18)
(-0.0140258 0.0019637 2.10909e-18)
(-0.0145408 0.00193337 0)
(-0.0151988 0.00191618 2.05069e-18)
(-0.0160489 0.00189859 0)
(-0.0168611 0.00185776 0)
(-0.0176037 0.00179171 0)
(-0.0182655 0.00171357 0)
(-0.0190319 0.00164796 0)
(-0.0201389 0.00161724 -1.68266e-23)
(-0.02186 0.00163181 0)
(-0.0243997 0.00168383 -9.55769e-19)
(-0.0278577 0.00174948 0)
(-0.032189 0.00179449 0)
(-0.0372282 0.00178273 4.72645e-19)
(-0.0427353 0.00168522 -4.72204e-19)
(-0.0484512 0.00148371 -4.14901e-23)
(-0.0541272 0.00117046 2.37325e-19)
(-0.0595322 0.000745805 0)
(-0.0644411 0.000216313 -6.03339e-20)
(-0.0686185 -0.000405648 -2.44679e-19)
(-0.0718031 -0.00110141 2.53415e-23)
(-0.0736948 -0.00184539 5.08892e-19)
(-0.0739419 -0.00260427 -5.22113e-19)
(-0.0721482 -0.00328991 0)
(-0.0678716 -0.00386881 0)
(-0.0606568 -0.00424714 0)
(-0.0501017 -0.00431791 0)
(-0.0359588 -0.0039649 0)
(-0.018243 -0.00307126 -2.57126e-18)
(0.00229362 -0.00149913 0)
(0.0229246 0.000570451 2.75389e-18)
(0.0440778 0.00300612 2.83776e-18)
(0.0651106 0.00581902 0)
(0.0851295 0.0089285 0)
(0.103119 0.012171 0)
(0.118533 0.0153801 0)
(0.130838 0.0184018 5.8672e-18)
(0.140531 0.0211789 0)
(0.147198 0.0235964 0)
(0.152936 0.0258436 -5.53872e-18)
(0.155694 0.0276936 -5.33609e-18)
(0.161338 0.0299079 0)
(0.161346 0.031379 -9.52303e-18)
(0.173056 0.0346705 0)
(0.168131 0.035506 -7.45867e-18)
(0.197156 0.0422006 -3.53811e-18)
(0.179488 0.0410834 1.66707e-18)
(0.24369 0.054504 2.16934e-18)
(0.500829 -0.0113681 -1.73812e-19)
(0.041306 0.00905445 -4.25469e-18)
(0.0141494 -0.00129797 0)
(-0.0188517 0.00483124 4.61286e-18)
(-0.0174991 0.00374093 0)
(-0.0234584 0.00457551 0)
(-0.0218433 0.00404212 0)
(-0.0230556 0.00402099 -4.54716e-18)
(-0.0220272 0.00369051 0)
(-0.0222606 0.00353688 -4.41815e-18)
(-0.0217951 0.00332576 0)
(-0.0220466 0.003209 0)
(-0.0222964 0.00312274 -2.11028e-18)
(-0.0231407 0.00309946 0)
(-0.0241993 0.00308966 0)
(-0.0255202 0.00306372 0)
(-0.0267587 0.00298956 0)
(-0.0278701 0.00287276 0)
(-0.0288687 0.00274992 0)
(-0.0300696 0.00267225 1.94587e-18)
(-0.0318663 0.00267981 -1.9315e-18)
(-0.0346883 0.00278356 0)
(-0.0388303 0.00296009 -4.05854e-23)
(-0.0443945 0.00315477 -9.48546e-19)
(-0.0512433 0.00329752 0)
(-0.0590567 0.00332195 -9.41631e-19)
(-0.0674169 0.00318117 0)
(-0.075897 0.00285107 4.70609e-19)
(-0.0841022 0.00232658 -2.36119e-19)
(-0.0916746 0.00161495 0)
(-0.098272 0.000731708 0)
(-0.103543 -0.000300305 2.43204e-19)
(-0.107105 -0.00144991 -6.37192e-24)
(-0.108526 -0.00267536 0)
(-0.107313 -0.00391792 1.03613e-18)
(-0.10293 -0.00509892 0)
(-0.0948017 -0.00612151 1.0993e-18)
(-0.0823714 -0.00685647 0)
(-0.0652007 -0.00714665 0)
(-0.0431337 -0.00681154 0)
(-0.0165388 -0.0056462 2.4936e-18)
(0.0130076 -0.00341405 0)
(0.0432076 -0.000334631 0)
(0.0746268 0.00337852 -2.77504e-18)
(0.105988 0.00773822 0)
(0.13594 0.012611 0)
(0.163058 0.0177512 2.93094e-18)
(0.186526 0.0228911 -2.93529e-18)
(0.205563 0.0277798 -2.91864e-18)
(0.220736 0.03228 0)
(0.231508 0.0362415 0)
(0.240598 0.0398803 0)
(0.245492 0.0429537 5.32626e-18)
(0.253898 0.0463222 5.12549e-18)
(0.254949 0.0488338 4.76694e-18)
(0.271426 0.0534746 0)
(0.266367 0.0553209 3.73809e-18)
(0.306745 0.0643795 7.10535e-18)
(0.285609 0.064183 0)
(0.376049 0.081649 -2.18762e-18)
(0.605054 0.00025041 -1.44292e-19)
(0.0970305 0.0109951 4.13013e-18)
(0.0279403 -0.00123478 -4.32993e-18)
(-0.0182951 0.00583923 0)
(-0.0200858 0.00456419 0)
(-0.0290534 0.00577566 0)
(-0.027902 0.00515266 0)
(-0.0299007 0.00518327 0)
(-0.0289234 0.00479487 0)
(-0.0293991 0.0046245 4.4209e-18)
(-0.0289615 0.00437996 4.35154e-18)
(-0.0293837 0.00425755 0)
(-0.0298117 0.0041805 0)
(-0.030978 0.00418158 0)
(-0.0324111 0.00418907 2.0506e-18)
(-0.0341434 0.0041558 0)
(-0.0357406 0.00404364 1.99978e-18)
(-0.0371529 0.00387382 -1.97822e-18)
(-0.0384364 0.00371544 0)
(-0.0400322 0.00365261 -1.94162e-18)
(-0.0424796 0.00374354 0)
(-0.0463334 0.00399403 -9.55545e-19)
(-0.0519364 0.0043535 1.89772e-18)
(-0.0593448 0.00472484 9.42896e-19)
(-0.0682902 0.00499446 0)
(-0.0782794 0.00506438 4.67101e-19)
(-0.0887209 0.00487388 0)
(-0.0990403 0.00439972 4.66062e-19)
(-0.108726 0.00364599 0)
(-0.117325 0.00263165 0)
(-0.124417 0.00138376 0)
(-0.129574 -6.38011e-05 2.39905e-19)
(-0.132344 -0.00166888 -9.75195e-19)
(-0.132228 -0.00337758 0)
(-0.128681 -0.0051167 -5.08664e-19)
(-0.12113 -0.00679482 0)
(-0.108998 -0.008287 -1.07341e-18)
(-0.0917739 -0.00943303 0)
(-0.0691471 -0.0100315 0)
(-0.0411993 -0.00983782 0)
(-0.0086921 -0.00855972 2.37227e-18)
(0.0265206 -0.00593129 0)
(0.0638631 -0.00220953 2.53961e-18)
(0.103309 0.0024496 -2.66656e-18)
(0.142993 0.00810174 0)
(0.181154 0.0145479 -2.83465e-18)
(0.216043 0.0214521 -5.75362e-18)
(0.246598 0.028442 2.89395e-18)
(0.271825 0.0351693 5.77082e-18)
(0.29222 0.0414042 -5.71571e-18)
(0.307163 0.0469559 -5.61948e-18)
(0.319622 0.0519743 0)
(0.326992 0.0562618 -5.30246e-18)
(0.337847 0.0606937 -5.1078e-18)
(0.340516 0.0641963 -4.73903e-18)
(0.360327 0.0698587 0)
(0.356594 0.0727333 0)
(0.404297 0.0832441 -3.55e-18)
(0.38359 0.0843995 0)
(0.49176 0.103648 2.14277e-18)
(0.684221 0.0143626 -1.25465e-19)
(0.162923 0.0131356 -3.18905e-20)
(0.0479199 -0.000617712 4.30402e-18)
(-0.0132308 0.00653236 4.60626e-18)
(-0.0200705 0.00513205 0)
(-0.0325184 0.00671118 -4.64507e-18)
(-0.0324201 0.0060345 0)
(-0.0354205 0.00614279 0)
(-0.0347395 0.00572318 0)
(-0.03556 0.00555731 4.42181e-18)
(-0.0352621 0.00529951 -4.35238e-18)
(-0.0358987 0.00519035 0)
(-0.0365399 0.00513999 0)
(-0.0380172 0.00517901 0)
(-0.0397935 0.00521049 -2.04907e-18)
(-0.0418784 0.00516931 0)
(-0.0437717 0.00501497 -1.99672e-18)
(-0.0454254 0.00479165 1.97403e-18)
(-0.046945 0.00460822 0)
(-0.0488847 0.00458562 0)
(-0.0519047 0.0047983 9.57771e-19)
(-0.0566454 0.00523932 9.49136e-19)
(-0.0634514 0.0058195 -1.88216e-18)
(-0.0722883 0.0063895 -9.33755e-19)
(-0.0827319 0.00678813 0)
(-0.0941167 0.00688847 4.61054e-19)
(-0.105704 0.00662313 0)
(-0.116814 0.00597782 -4.58362e-19)
(-0.126865 0.0049722 2.29354e-19)
(-0.135363 0.00364084 0)
(-0.141859 0.0020238 0)
(-0.14591 0.000165493 -4.68346e-19)
(-0.147057 -0.00188298 4.74937e-19)
(-0.144812 -0.00405894 0)
(-0.138665 -0.00628075 -4.92296e-19)
(-0.128086 -0.00844388 0)
(-0.112575 -0.0104081 1.03113e-18)
(-0.0917309 -0.0119878 0)
(-0.0653836 -0.012943 0)
(-0.0337692 -0.0129691 0)
(0.00222029 -0.0117024 -2.23905e-18)
(0.0410643 -0.00891828 -2.27117e-18)
(0.0834662 -0.00486436 -2.40199e-18)
(0.128682 0.000413055 3.02314e-21)
(0.1746 0.0070452 -2.64165e-18)
(0.219217 0.0148012 2.73003e-18)
(0.260549 0.023272 5.57285e-18)
(0.297298 0.0319838 0)
(0.32825 0.0404852 -2.8263e-18)
(0.353721 0.0484394 5.6235e-18)
(0.372993 0.0555944 5.54676e-18)
(0.38901 0.0620118 0)
(0.399263 0.0675348 0)
(0.41254 0.0729815 0)
(0.417318 0.0774524 4.7081e-18)
(0.439563 0.0838959 0)
(0.438103 0.0877835 0)
(0.490226 0.0990749 3.51438e-18)
(0.472424 0.101755 -1.62308e-18)
(0.591713 0.121249 -2.14046e-18)
(0.745572 0.0291042 -1.1222e-19)
(0.23347 0.0159866 -3.9564e-18)
(0.0746391 0.000566277 0)
(-0.00358198 0.00706812 -4.59623e-18)
(-0.0173417 0.00552556 -4.62037e-18)
(-0.0338038 0.00742969 5.13649e-22)
(-0.0353393 0.00672108 0)
(-0.0395868 0.00692342 0)
(-0.0394436 0.00649278 0)
(-0.0407235 0.00634812 -4.42236e-18)
(-0.0406736 0.00609379 0)
(-0.0415706 0.00601318 0)
(-0.0424535 0.00600349 2.10871e-18)
(-0.0442269 0.00609037 0)
(-0.0463107 0.00614982 0)
(-0.0486906 0.00609899 0)
(-0.0508212 0.00589888 0)
(-0.0526612 0.00562263 -1.96694e-18)
(-0.0543648 0.00542409 0)
(-0.056577 0.00546271 1.92156e-18)
(-0.0600471 0.00582544 -9.50034e-19)
(-0.065458 0.00648404 -9.39676e-19)
(-0.0731136 0.00730046 1.85956e-18)
(-0.0828593 0.00806634 1.84104e-18)
(-0.094112 0.00857299 0)
(-0.106062 0.0086711 -4.52354e-19)
(-0.117874 0.00829585 0)
(-0.128822 0.00745013 0)
(-0.138319 0.00617433 -4.46545e-19)
(-0.145885 0.00452063 0)
(-0.151095 0.00254176 0)
(-0.15354 0.000290756 4.52148e-19)
(-0.152804 -0.00217522 0)
(-0.148451 -0.00478906 0)
(-0.14003 -0.00746529 4.70867e-19)
(-0.127067 -0.0100925 0)
(-0.109133 -0.0125197 -9.80245e-19)
(-0.0859009 -0.0145413 0)
(-0.0572623 -0.0158839 0)
(-0.0234764 -0.0161884 0)
(0.0146302 -0.0150389 0)
(0.0560478 -0.0122773 2.15405e-18)
(0.101905 -0.0081096 2.2664e-18)
(0.150953 -0.00245558 3.30623e-21)
(0.201096 0.00487512 2.5043e-18)
(0.250312 0.0136475 2.59384e-18)
(0.296561 0.0234172 -2.66809e-18)
(0.338398 0.0336397 0)
(0.374434 0.0437752 -2.73401e-18)
(0.404737 0.0533773 2.73441e-18)
(0.428442 0.0621179 -5.41868e-18)
(0.448269 0.0699511 0)
(0.461835 0.0767414 0)
(0.477741 0.0831937 -4.98284e-18)
(0.485073 0.0886332 -4.64172e-18)
(0.509345 0.0957075 4.40451e-18)
(0.510709 0.100575 3.65288e-18)
(0.565417 0.112183 -3.49719e-18)
(0.551806 0.116392 1.61624e-18)
(0.677528 0.135147 0)
(0.793863 0.0436768 -1.01253e-19)
(0.304801 0.0197731 0)
(0.108018 0.00232076 4.23137e-18)
(0.0107725 0.00760729 4.57991e-18)
(-0.0117977 0.00582286 -6.02712e-23)
(-0.0328508 0.00797848 4.64438e-18)
(-0.0365998 0.00724589 0)
(-0.0423684 0.00754939 0)
(-0.0430039 0.00712117 0)
(-0.0448701 0.00701008 2.21076e-18)
(-0.0451746 0.00677203 2.17521e-18)
(-0.0463798 0.00673156 0)
(-0.0475276 0.00677276 -2.10683e-18)
(-0.0495791 0.00691392 2.07392e-18)
(-0.0519307 0.00700294 0)
(-0.0545488 0.00693997 0)
(-0.056861 0.00669099 0)
(-0.0588347 0.00636269 1.15355e-22)
(-0.0606653 0.00615708 0)
(-0.0630623 0.00627187 -3.80866e-18)
(-0.0668295 0.00680172 9.39502e-19)
(-0.072654 0.00768876 9.27167e-19)
(-0.0807695 0.00873798 7.0625e-23)
(-0.0908931 0.00967902 -9.03803e-19)
(-0.102307 0.0102599 0)
(-0.114107 0.0103181 0)
(-0.125428 0.00980072 0)
(-0.13556 0.00873431 2.17024e-19)
(-0.14396 0.0071823 4.31794e-19)
(-0.150196 0.00521369 0)
(-0.153895 0.0028914 0)
(-0.154695 0.000273829 -4.33315e-19)
(-0.152228 -0.00257933 -2.18411e-19)
(-0.146109 -0.00560074 0)
(-0.135915 -0.00870508 0)
(-0.121214 -0.0117777 0)
(-0.101617 -0.0146593 0)
(-0.0768267 -0.0171271 0)
(-0.0467406 -0.0188768 0)
(-0.0115799 -0.0194995 0)
(0.0279687 -0.0185443 0)
(0.0713366 -0.015917 0)
(0.119524 -0.0117757 -2.83273e-21)
(0.171007 -0.00590534 2.26431e-18)
(0.223808 0.00191913 0)
(0.276 0.0114635 -4.91622e-18)
(0.325619 0.0222666 -2.53139e-18)
(0.371219 0.0337441 0)
(0.411349 0.0452979 2.62739e-18)
(0.445882 0.0563944 -2.64204e-18)
(0.473807 0.0666327 5.26274e-18)
(0.49752 0.0758532 -5.18869e-18)
(0.514697 0.0839175 0)
(0.533511 0.0913804 8.12834e-21)
(0.543782 0.0977956 4.56938e-18)
(0.570029 0.105424 -8.6829e-18)
(0.574529 0.11123 -1.03772e-20)
(0.630828 0.122862 -3.43878e-18)
(0.621891 0.128506 1.57896e-18)
(0.750956 0.145936 2.06626e-18)
(0.832283 0.0576452 3.12061e-18)
(0.374332 0.0245214 0)
(0.147414 0.00466358 2.6165e-21)
(0.0299689 0.00827224 -2.77643e-22)
(-0.00334172 0.00612695 4.6072e-18)
(-0.0295888 0.00840584 4.64068e-18)
(-0.0361369 0.00764375 0)
(-0.043728 0.00804597 4.55237e-18)
(-0.0453862 0.0076266 0)
(-0.0479781 0.00755708 -2.21015e-18)
(-0.0487432 0.00734381 -9.16193e-23)
(-0.0503071 0.00735129 -2.13933e-18)
(-0.0517389 0.00744964 0)
(-0.0540482 0.00764826 -4.1396e-18)
(-0.0566259 0.0077664 0)
(-0.0594278 0.00768839 0)
(-0.0618703 0.00738817 0)
(-0.0639304 0.00700893 1.94236e-18)
(-0.0658332 0.00680208 0)
(-0.0683256 0.00700196 1.88247e-18)
(-0.072233 0.00770583 -1.85334e-18)
(-0.0782169 0.00881923 0)
(-0.0864275 0.0100851 7.79647e-23)
(-0.0964682 0.011172 0)
(-0.107529 0.0117917 0)
(-0.118675 0.0117781 -4.29751e-19)
(-0.129063 0.0110979 0)
(-0.138043 0.00980405 -4.19608e-19)
(-0.145134 0.00798204 -2.0808e-19)
(-0.14996 0.00571477 -5.17526e-20)
(-0.152194 0.00307182 5.16742e-20)
(-0.151512 0.000113757 2.07251e-19)
(-0.147578 -0.0031003 4.16864e-19)
(-0.140031 -0.00650556 0)
(-0.128463 -0.0100186 4.25478e-19)
(-0.112469 -0.0135225 0)
(-0.0916765 -0.0168502 0)
(-0.0657953 -0.0197632 0)
(-0.0347097 -0.0219286 9.21558e-19)
(0.00141511 -0.022893 0)
(0.0420514 -0.0221856 0)
(0.086929 -0.0197601 1.96991e-18)
(0.136681 -0.0157246 -2.06007e-18)
(0.189671 -0.00973799 0)
(0.244057 -0.0015565 0)
(0.298035 0.0085848 2.33418e-18)
(0.349763 0.0202112 2.40754e-18)
(0.397873 0.0327119 -2.46265e-18)
(0.440964 0.0454513 0)
(0.478821 0.0578376 0)
(0.510363 0.0694147 0)
(0.537681 0.079925 8.41827e-21)
(0.558461 0.0892129 0)
(0.580327 0.0976696 4.76915e-18)
(0.593771 0.105049 0)
(0.622097 0.113196 4.25868e-18)
(0.629892 0.119891 -3.54674e-18)
(0.687351 0.131386 6.77665e-18)
(0.683113 0.138322 -1.56277e-18)
(0.813613 0.154128 -2.04832e-18)
(0.863052 0.0707468 8.43812e-20)
(0.440426 0.0301307 -3.63863e-18)
(0.191791 0.00761743 -4.12619e-18)
(0.0540199 0.00917466 -1.84923e-22)
(0.00820092 0.00652845 -4.59485e-18)
(-0.0239351 0.00876198 -4.63569e-18)
(-0.0338808 0.00795085 0)
(-0.0436206 0.00843905 -4.55055e-18)
(-0.0465522 0.00802791 0)
(-0.050022 0.00800339 -2.20887e-18)
(-0.0513565 0.00781899 -2.17242e-18)
(-0.0533331 0.00787838 2.13681e-18)
(-0.0550663 0.00803628 -2.10005e-18)
(-0.057613 0.00829259 2.06423e-18)
(-0.0603761 0.00843792 -2.0284e-18)
(-0.0633131 0.00834229 1.99342e-18)
(-0.0658442 0.00798971 0)
(-0.0679558 0.00756135 0)
(-0.0698889 0.00735741 0)
(-0.0724 0.00764607 9.28619e-19)
(-0.0763063 0.00852257 9.12448e-19)
(-0.0822244 0.00985105 0)
(-0.0902238 0.0113106 -8.80841e-19)
(-0.0998242 0.0125125 0)
(-0.110175 0.0131408 0)
(-0.120358 0.0130339 4.17646e-19)
(-0.129592 0.0121822 -4.11075e-19)
(-0.137296 0.0106647 2.02722e-19)
(-0.14305 0.00858591 0)
(-0.146525 0.00603901 9.95379e-20)
(-0.147421 0.00309717 -9.92072e-20)
(-0.145438 -0.000179125 0)
(-0.140261 -0.00373332 -1.99452e-19)
(-0.13153 -0.00750439 4.01716e-19)
(-0.118851 -0.0114107 -4.06807e-19)
(-0.101835 -0.015333 0)
(-0.0801164 -0.0190973 0)
(-0.0534037 -0.0224502 0)
(-0.0215608 -0.0250324 -8.84502e-19)
(0.0153039 -0.0263535 0)
(0.0568123 -0.0259316 0)
(0.102857 -0.023748 -1.90478e-18)
(0.153651 -0.019856 0)
(0.207538 -0.0138103 2.06472e-18)
(0.262806 -0.00535833 -2.14699e-18)
(0.317762 0.00526227 0)
(0.370691 0.0175617 2.29073e-18)
(0.420326 0.0309056 4.6997e-18)
(0.465364 0.044629 -2.39128e-18)
(0.505594 0.0581016 0)
(0.539945 0.0708291 0)
(0.57029 0.0824814 2.43037e-18)
(0.594333 0.0928848 0)
(0.619143 0.102277 4.61869e-18)
(0.635763 0.110573 0)
(0.666246 0.119212 4.14378e-18)
(0.677346 0.126729 3.45607e-18)
(0.735833 0.138009 -3.32413e-18)
(0.736079 0.146074 0)
(0.866913 0.16015 1.99694e-18)
(0.887779 0.0828472 -3.37167e-18)
(0.502111 0.0364332 2.00141e-20)
(0.239907 0.0111934 4.07186e-18)
(0.0828197 0.0104247 -1.64279e-22)
(0.0230139 0.00709409 -6.60596e-22)
(-0.015793 0.00909925 0)
(-0.0297557 0.00820483 0)
(-0.0419923 0.00875498 0)
(-0.0464585 0.00834456 -2.24014e-18)
(-0.0509721 0.00836366 4.41447e-18)
(-0.0529894 0.00820782 0)
(-0.0554385 0.00831927 2.13332e-18)
(-0.0574921 0.0085355 5.17167e-23)
(-0.0602595 0.0088473 -2.05703e-18)
(-0.0631726 0.00901712 7.0742e-23)
(-0.0662073 0.00890245 -1.98043e-18)
(-0.0688005 0.00849845 0)
(-0.0709467 0.00802395 0)
(-0.0728857 0.00782551 0)
(-0.0753559 0.0082019 -9.15328e-19)
(-0.0791417 0.00924276 0)
(-0.0848053 0.0107686 8.80607e-19)
(-0.0923512 0.0123957 8.63324e-19)
(-0.101253 0.0136841 -8.45925e-19)
(-0.110663 0.0142979 0)
(-0.119716 0.0140858 0)
(-0.127706 0.0130627 3.98692e-19)
(-0.134119 0.0113313 0)
(-0.138581 0.00901146 1.93673e-19)
(-0.140794 0.00620343 -4.79947e-20)
(-0.140477 0.00298188 4.77798e-20)
(-0.137341 -0.000594036 -1.91099e-19)
(-0.131077 -0.00447152 0)
(-0.121325 -0.0085935 -3.8621e-19)
(-0.107703 -0.0128793 0)
(-0.089828 -0.0172076 0)
(-0.0673412 -0.0213979 8.10969e-19)
(-0.0399448 -0.025183 0)
(-0.00748259 -0.0281801 0)
(0.0299898 -0.0298679 0)
(0.0722185 -0.0297582 0)
(0.119155 -0.0278382 0)
(0.170629 -0.0241016 0)
(0.225011 -0.0180253 -3.99067e-18)
(0.280694 -0.00935451 2.07065e-18)
(0.336089 0.00166905 2.13586e-18)
(0.38959 0.0145381 -4.39722e-18)
(0.440032 0.0285942 -2.25308e-18)
(0.486224 0.0431449 2.29462e-18)
(0.528 0.0575305 -2.32041e-18)
(0.564358 0.0712292 0)
(0.597041 0.0838615 4.49738e-21)
(0.623804 0.0952403 -4.57168e-18)
(0.651232 0.105475 -4.47727e-18)
(0.670808 0.114604 -4.20587e-18)
(0.703404 0.123696 -8.064e-18)
(0.717667 0.131951 -3.37565e-18)
(0.777157 0.142981 3.22893e-18)
(0.781534 0.152004 1.47466e-18)
(0.912101 0.164367 -1.96528e-18)
(0.907676 0.093903 -7.3151e-20)
(0.558873 0.0432364 3.49913e-18)
(0.290465 0.0153787 2.25169e-21)
(0.116103 0.0121049 -2.04012e-22)
(0.0412772 0.00789225 4.554e-18)
(-0.0050542 0.00947082 4.61515e-18)
(-0.0236805 0.00844486 -4.58372e-18)
(-0.0387801 0.00902062 2.2714e-18)
(-0.0450556 0.0085967 4.45519e-23)
(-0.0507934 0.00865303 -2.20506e-18)
(-0.053615 0.00852112 -2.1671e-18)
(-0.0566047 0.0086811 -2.12913e-18)
(-0.0590035 0.00895124 4.17792e-18)
(-0.0619826 0.00931452 4.75584e-23)
(-0.0650212 0.00950621 2.0071e-18)
(-0.0681311 0.00937294 0)
(-0.0707776 0.00892075 1.92361e-18)
(-0.0729589 0.00840399 0)
(-0.0748942 0.00821173 -1.84242e-18)
(-0.077278 0.00867 -9.02059e-19)
(-0.0808436 0.00986097 -8.83528e-19)
(-0.0860992 0.0115618 5.39687e-23)
(-0.0930067 0.0133297 -8.46424e-19)
(-0.10103 0.0146799 8.27523e-19)
(-0.10936 0.0152631 0)
(-0.117203 0.0149411 -3.95547e-19)
(-0.123928 0.0137522 0)
(-0.129076 0.0118193 0)
(-0.13231 0.0092743 -1.87645e-19)
(-0.133347 0.00622213 0)
(-0.131916 0.00273765 0)
(-0.127734 -0.00112208 1.84771e-19)
(-0.120492 -0.00530861 0)
(-0.109827 -0.0097684 0)
(-0.0953672 -0.0144211 3.77478e-19)
(-0.0767354 -0.0191434 0)
(-0.0535746 -0.0237491 -7.85564e-19)
(-0.0255817 -0.0279581 0)
(0.00741792 -0.0313667 8.27219e-19)
(0.0454139 -0.0334282 0)
(0.0882455 -0.0336477 0)
(0.135856 -0.0319998 0)
(0.187755 -0.028416 0)
(0.242356 -0.0223196 1.94021e-18)
(0.298142 -0.0134582 0)
(0.353607 -0.00207946 -4.13533e-18)
(0.407244 0.0112895 2.12422e-18)
(0.457979 0.0259647 -2.16718e-18)
(0.504731 0.0412252 2.20442e-18)
(0.5474 0.0563868 2.2369e-18)
(0.585077 0.0709043 0)
(0.619436 0.0843656 2.25168e-18)
(0.64832 0.096575 6.62695e-18)
(0.677922 0.107542 -4.31906e-18)
(0.700087 0.117398 4.0813e-18)
(0.734632 0.126892 3.91502e-18)
(0.751793 0.135785 0)
(0.812258 0.146546 -3.15155e-18)
(0.820332 0.156358 -2.87351e-18)
(0.950316 0.16709 0)
(0.923681 0.103927 3.59895e-18)
(0.610513 0.0503495 0)
(0.342229 0.0201328 2.03718e-21)
(0.153439 0.014272 -2.83761e-22)
(0.0631349 0.00898401 -4.52745e-18)
(0.0084029 0.00993559 -9.20084e-18)
(-0.0155688 0.00871173 9.15428e-18)
(-0.0339113 0.00926338 -2.26873e-18)
(-0.0422879 0.00880539 2.23589e-18)
(-0.0494455 0.00888736 0)
(-0.0532043 0.00877055 3.95849e-23)
(-0.0568139 0.00897211 0)
(-0.0595928 0.00928895 -4.16394e-18)
(-0.0627867 0.00969849 2.03892e-18)
(-0.06594 0.00991002 0)
(-0.069119 0.00976061 0)
(-0.0718252 0.00926539 -1.90489e-18)
(-0.0740538 0.00871033 0)
(-0.0759842 0.00852228 1.81906e-18)
(-0.0782459 0.00905188 8.89484e-19)
(-0.081509 0.0103737 -1.68944e-23)
(-0.0862347 0.0122243 -8.50594e-19)
(-0.0923666 0.0141071 -8.30846e-19)
(-0.0993909 0.0154986 0)
(-0.106561 0.0160407 0)
(-0.113163 0.0156091 3.85969e-19)
(-0.118633 0.0142631 0)
(-0.122558 0.012142 1.85179e-19)
(-0.124624 0.00938714 -1.82375e-19)
(-0.124557 0.0061062 4.51083e-20)
(-0.12209 0.00237352 -4.48534e-20)
(-0.11694 -0.00175642 1.79233e-19)
(-0.108793 -0.00623972 -1.79563e-19)
(-0.0972882 -0.0110256 3.6182e-19)
(-0.0820595 -0.0160338 -3.66745e-19)
(-0.0627346 -0.021139 0)
(-0.0389573 -0.02615 0)
(-0.0104197 -0.0307747 0)
(0.023068 -0.0345904 -7.28486e-22)
(0.0615303 -0.0370292 8.29415e-19)
(0.10487 -0.0375873 0)
(0.15298 -0.0362105 0)
(0.205124 -0.0327688 0)
(0.259755 -0.0266516 0)
(0.315426 -0.0176123 0)
(0.370703 -0.00590702 3.25049e-21)
(0.424164 0.00791556 0)
(0.47482 0.0231439 4.20683e-18)
(0.521693 0.0390276 -4.27216e-18)
(0.564753 0.0548592 -2.1583e-18)
(0.603192 0.0700725 0)
(0.638658 0.0842332 0)
(0.669098 0.0971398 -4.26931e-18)
(0.700407 0.108728 8.70156e-21)
(0.72473 0.119201 -3.94241e-18)
(0.760982 0.129034 3.78478e-18)
(0.780703 0.138458 3.16887e-18)
(0.842081 0.148939 -3.04678e-18)
(0.853383 0.159378 2.77997e-18)
(0.982622 0.168594 1.8564e-18)
(0.936534 0.112966 6.54679e-20)
(0.657046 0.0575984 -3.35754e-18)
(0.394086 0.0253889 -7.79738e-18)
(0.194249 0.0169581 -3.93667e-22)
(0.0886531 0.0104232 4.49494e-18)
(0.0247168 0.0105511 4.58038e-18)
(-0.00532894 0.00904984 -2.28315e-18)
(-0.0273027 0.00951122 0)
(-0.0380923 0.00899274 0)
(-0.0468819 0.00908333 2.19928e-18)
(-0.0517247 0.0089688 2.15978e-18)
(-0.0560482 0.0092018 0)
(-0.0592557 0.00955577 2.07451e-18)
(-0.0626824 0.0100055 0)
(-0.0659547 0.0102355 0)
(-0.0692101 0.0100739 0)
(-0.071992 0.00954185 0)
(-0.0742854 0.00895166 1.84075e-18)
(-0.0762136 0.00876296 8.9857e-19)
(-0.0783249 0.00934911 -8.77825e-19)
(-0.0812198 0.0107788 -1.8767e-23)
(-0.085322 0.0127525 0)
(-0.0905802 0.0147255 8.16425e-19)
(-0.0965283 0.0161417 0)
(-0.102498 0.0166368 0)
(-0.107854 0.0160994 3.77497e-19)
(-0.112093 0.0146065 -3.68752e-19)
(-0.114839 0.0123108 -1.80707e-19)
(-0.115791 0.00936018 1.77859e-19)
(-0.114679 0.00586432 -8.79438e-20)
(-0.111233 0.00189642 8.74372e-20)
(-0.105172 -0.00249202 -1.7462e-19)
(-0.0961724 -0.0072614 1.7499e-19)
(-0.0838775 -0.012363 -1.95628e-22)
(-0.0679258 -0.0177163 -3.57349e-19)
(-0.047948 -0.0231945 0)
(-0.0235885 -0.0286013 0)
(0.00546393 -0.0336338 0)
(0.0394097 -0.0378513 -1.5782e-18)
(0.0782981 -0.040668 -8.13689e-19)
(0.12207 -0.0415672 0)
(0.170545 -0.0404542 0)
(0.222803 -0.0371394 -1.79665e-18)
(0.27733 -0.0309935 0)
(0.332731 -0.0217792 0)
(0.387633 -0.00976271 3.9398e-18)
(0.440689 0.00448323 -2.01285e-18)
(0.490989 0.0202181 -4.10309e-18)
(0.537652 0.0366605 4.14293e-21)
(0.580718 0.0530809 4.19953e-18)
(0.619482 0.068892 2.10535e-18)
(0.655587 0.0836451 0)
(0.687092 0.0971327 2.07142e-18)
(0.719666 0.10924 4.05701e-18)
(0.745719 0.120221 3.82964e-18)
(0.7834 0.13033 -3.67844e-18)
(0.80532 0.140182 -3.08234e-18)
(0.867517 0.150374 2.96561e-18)
(0.881581 0.16129 -1.3486e-18)
(1.00999 0.169118 -1.81181e-18)
(0.946831 0.121082 6.24904e-20)
(0.698628 0.0648332 3.31828e-18)
(0.445087 0.0310604 -1.58231e-21)
(0.237844 0.0201715 -5.28925e-22)
(0.117792 0.0122545 0)
(0.0440045 0.0113764 0)
(0.0071607 0.00950186 1.71632e-22)
(-0.0188597 0.00979323 0)
(-0.0323973 0.00918201 0)
(-0.0430478 0.00925851 -6.49144e-24)
(-0.0491385 0.00912965 0)
(-0.0542867 0.00938097 0)
(-0.0579879 0.00976032 2.06702e-18)
(-0.0616814 0.0102432 0)
(-0.0650905 0.0104905 0)
(-0.0684392 0.0103217 0)
(-0.0713171 0.00975906 0)
(-0.0736937 0.00913561 -1.19553e-22)
(-0.0756242 0.00893866 -8.88739e-19)
(-0.0775645 0.0095632 1.73458e-18)
(-0.0800423 0.0110751 -2.07471e-23)
(-0.0834536 0.0131445 8.25179e-19)
(-0.0877718 0.0151851 0)
(-0.092598 0.0166127 7.81576e-19)
(-0.0973499 0.0170581 0)
(-0.101471 0.0164208 -3.69971e-19)
(-0.104512 0.0147921 -5.07732e-24)
(-0.106119 0.0123347 0)
(-0.106003 0.00920166 0)
(-0.103891 0.00550327 8.05363e-24)
(-0.099513 0.00131158 -1.15959e-23)
(-0.0925817 -0.00332521 8.52882e-20)
(-0.0827681 -0.00837134 0)
(-0.069718 -0.0137794 -3.44963e-19)
(-0.0530736 -0.0194686 3.49895e-19)
(-0.0324675 -0.0253108 0)
(-0.00754515 -0.0311047 -7.3107e-19)
(0.0220066 -0.0365371 0)
(0.0563928 -0.0411507 7.02082e-22)
(0.0956789 -0.0443431 0)
(0.139822 -0.0455806 8.26518e-19)
(0.188559 -0.0447196 8.55567e-19)
(0.240836 -0.0415138 2.07916e-21)
(0.295163 -0.0353268 -1.83123e-18)
(0.350182 -0.0259332 0)
(0.404568 -0.0136119 -3.13484e-21)
(0.457047 0.00103846 1.98041e-18)
(0.506779 0.0172468 3.83785e-21)
(0.552975 0.0341996 2.03739e-18)
(0.595748 0.0511454 -4.22774e-21)
(0.634491 0.0674766 -4.2867e-21)
(0.670857 0.0827344 0)
(0.703017 0.0967051 0)
(0.736469 0.10924 0)
(0.763853 0.120632 0)
(0.802684 0.130956 0)
(0.826447 0.141137 2.98118e-18)
(0.889352 0.151033 0)
(0.905744 0.162295 0)
(1.03329 0.168859 -1.75437e-18)
(0.955058 0.128349 -1.93152e-18)
(0.735508 0.0719305 0)
(0.494451 0.0370475 -1.39271e-21)
(0.283467 0.0238971 -6.83808e-22)
(0.150392 0.0145116 0)
(0.0663523 0.0124688 2.26479e-18)
(0.0220371 0.0101095 -2.26832e-18)
(-0.0084764 0.0101396 0)
(-0.0251218 0.00939774 0)
(-0.0378786 0.00943133 -2.19287e-18)
(-0.0453998 0.00926795 0)
(-0.0515021 0.00952152 0)
(-0.05578 0.00991238 -2.06001e-18)
(-0.0597907 0.0104202 0)
(-0.0633662 0.0106836 -1.95756e-18)
(-0.0668312 0.0105122 0)
(-0.0698262 0.00992473 0)
(-0.0723035 0.0092685 -1.12407e-22)
(-0.0742427 0.00905353 0)
(-0.0760001 0.00969596 -8.5787e-19)
(-0.0780288 0.0112628 8.36147e-19)
(-0.0807054 0.0134006 -1.62844e-18)
(-0.0840438 0.015488 7.91836e-19)
(-0.087726 0.0169164 -7.69161e-19)
(-0.0912612 0.0173117 0)
(-0.0941676 0.0165817 -3.63395e-19)
(-0.0960401 0.0148283 7.08736e-19)
(-0.0965471 0.0122218 0)
(-0.0954015 0.00891827 -8.52792e-20)
(-0.0923293 0.00502848 4.21615e-20)
(-0.0870546 0.000623042 -4.19251e-20)
(-0.079285 -0.00425331 -8.36199e-20)
(-0.0686849 -0.00956803 0)
(-0.0549042 -0.0152744 -3.3818e-19)
(-0.0375866 -0.0212915 3.43218e-19)
(-0.0163663 -0.0274896 0)
(0.00910991 -0.0336628 7.18971e-19)
(0.0391541 -0.0394874 0)
(0.0739716 -0.0444906 7.62983e-19)
(0.113636 -0.0480539 0)
(0.158102 -0.0496229 -8.17213e-19)
(0.207024 -0.0489989 -8.46885e-19)
(0.259252 -0.045883 2.08685e-21)
(0.313307 -0.0396392 1.81337e-18)
(0.367859 -0.0300571 0)
(0.421623 -0.0174308 -1.91518e-18)
(0.473388 -0.00238677 0)
(0.522385 0.0142717 1.98365e-18)
(0.567913 0.0316982 0)
(0.610157 0.0491196 -2.01573e-18)
(0.648603 0.0659081 -4.02716e-18)
(0.684927 0.0815987 0)
(0.717402 0.0959705 0)
(0.7514 0.108855 0)
(0.779764 0.12057 1.80641e-18)
(0.819481 0.131052 0)
(0.844759 0.141475 -9.04864e-21)
(0.908251 0.151067 0)
(0.926585 0.162563 1.24661e-18)
(1.05326 0.167983 1.71096e-18)
(0.961616 0.134844 0)
(0.767996 0.0787938 3.22976e-18)
(0.541567 0.0432453 3.74813e-18)
(0.330338 0.0280979 -8.49722e-22)
(0.186169 0.0172152 0)
(0.0918025 0.0138798 -2.24944e-18)
(0.0394369 0.0109147 0)
(0.00396143 0.0105829 2.25145e-18)
(-0.016176 0.00966588 2.22397e-18)
(-0.0312983 0.00962108 2.18978e-18)
(-0.0404525 0.00939957 2.14841e-18)
(-0.047657 0.00963636 2.10355e-18)
(-0.0526139 0.0100226 0)
(-0.057008 0.0105458 0)
(-0.0607904 0.0108226 1.9475e-18)
(-0.064399 0.0106527 0)
(-0.0675316 0.0100453 0)
(-0.0701258 0.00935559 -1.79173e-18)
(-0.0720827 0.00911139 0)
(-0.073655 0.00974975 -8.49514e-19)
(-0.0752197 0.0113434 0)
(-0.0771399 0.0135227 8.04419e-19)
(-0.0794809 0.0156375 -7.81331e-19)
(-0.0820152 0.017058 0)
(-0.0843457 0.0174044 0)
(-0.0860618 0.0165895 -2.51559e-23)
(-0.0867984 0.0147224 -3.48529e-19)
(-0.0862392 0.0119784 0)
(-0.0840987 0.00851556 8.38374e-20)
(-0.0800978 0.00444433 4.14371e-20)
(-0.0739552 -0.000166075 -4.12011e-20)
(-0.0653714 -0.00527435 0)
(-0.0540059 -0.0108505 0)
(-0.0395114 -0.0168482 1.79812e-22)
(-0.0215328 -0.0231861 -2.13758e-22)
(0.000294777 -0.029733 0)
(0.0263229 -0.0362782 0)
(0.0568582 -0.0424875 7.28253e-19)
(0.0921042 -0.0478732 0)
(0.132134 -0.051801 0)
(0.176887 -0.0536913 0)
(0.225937 -0.0532873 0)
(0.278064 -0.050241 1.73993e-18)
(0.331797 -0.0439225 1.79647e-18)
(0.385815 -0.034139 0)
(0.438871 -0.0212026 0)
(0.489812 -0.00576989 1.93174e-18)