/*--------------------------------*- C++ -*----------------------------------*\
| =========                 |                                                 |
| \\      /  F ield         | OpenFOAM: The Open Source CFD Toolbox           |
|  \\    /   O peration     | Version:  2.4.0                                 |
|   \\  /    A nd           | Web:      www.OpenFOAM.org                      |
|    \\/     M anipulation  |                                                 |
\*---------------------------------------------------------------------------*/
FoamFile
{
    version     2.0;
    format      ascii;
    class       volScalarField;
    location    "5.49";
    object      k;
}
// * * * * * * * * * * * * * * * * * * * * * * * * * * * * * * * * * * * * * //

dimensions      [0 2 -2 0 0 0 0];

internalField   nonuniform List<scalar> 
6000
(
0.168224
0.0132708
0.000978694
0.00362134
0.00250555
0.00292603
0.00242159
0.00239118
0.00212507
0.00205042
0.00191741
0.00188083
0.00184628
0.00187213
0.00192061
0.002013
0.00213366
0.00229029
0.00247633
0.00269425
0.00294078
0.00321542
0.00351485
0.00383603
0.00417418
0.00452432
0.00488059
0.00523623
0.00558315
0.00591205
0.00621234
0.00647233
0.00667949
0.00682002
0.00688025
0.00684719
0.00670976
0.00645859
0.00609063
0.00560757
0.00502742
0.00437656
0.00370694
0.00351276
0.00459827
0.0059547
0.00755346
0.00954639
0.0117479
0.0145613
0.0173497
0.0213357
0.0245299
0.0306172
0.0335496
0.044279
0.0447909
0.0672781
0.0599181
0.111344
0.0762047
0.0101511
0.000944622
0.00240516
0.00171401
0.00192204
0.0016085
0.00156918
0.00140158
0.00134566
0.00126113
0.00123392
0.00121151
0.00122557
0.00125516
0.00131124
0.00138507
0.00148019
0.00159279
0.00172371
0.00187093
0.00203383
0.0022105
0.00239924
0.00259766
0.00280346
0.00301409
0.00322676
0.00343826
0.00364504
0.0038432
0.00402856
0.00419682
0.00434302
0.0044628
0.00455217
0.00460827
0.00462943
0.00461706
0.00457546
0.00451648
0.00445554
0.00440994
0.0045139
0.00502064
0.00560644
0.00628433
0.00712352
0.00805878
0.00925458
0.010468
0.0121835
0.0136373
0.0162668
0.0177561
0.0223396
0.0231326
0.0325299
0.0307045
0.05158
0.0412217
0.00802996
0.000973412
0.00168801
0.00122334
0.00131299
0.00110732
0.00106723
0.000957795
0.000916463
0.000862699
0.000845194
0.000834252
0.000847433
0.000873076
0.000917056
0.000974608
0.00104757
0.00113395
0.00123418
0.00134725
0.00147286
0.00161011
0.00175821
0.00191615
0.00208302
0.00225794
0.00244003
0.00262834
0.00282193
0.00301988
0.00322141
0.00342586
0.0036322
0.00383983
0.00404884
0.00426016
0.00447569
0.0046989
0.00493492
0.00519147
0.00547504
0.00577589
0.00605947
0.00635045
0.00660638
0.00686337
0.00715937
0.00748714
0.00791426
0.00836597
0.00902754
0.00962806
0.0107146
0.011429
0.013394
0.0140067
0.018056
0.0179262
0.0267861
0.0260623
0.00677418
0.00107074
0.00126676
0.000916193
0.000934365
0.000790048
0.000751558
0.000677418
0.00064729
0.000614067
0.000605807
0.000605589
0.000623405
0.000652882
0.000697432
0.000754731
0.00082604
0.00091064
0.00100907
0.00112115
0.00124701
0.00138648
0.00153947
0.00170577
0.00188531
0.00207809
0.0022842
0.00250378
0.00273707
0.00298445
0.00324648
0.00352389
0.00381609
0.00412372
0.00444783
0.00478979
0.00515149
0.00553524
0.00594389
0.00638025
0.00684318
0.00730675
0.00769059
0.00796232
0.00814161
0.00826485
0.00835299
0.00842037
0.00849385
0.00856958
0.00871077
0.00885035
0.00917478
0.00941419
0.0101425
0.0104612
0.0121314
0.012374
0.0162262
0.0187963
0.00609215
0.00123215
0.00103245
0.000726721
0.000696229
0.000585849
0.000548835
0.00049648
0.000474964
0.000456247
0.000456746
0.00046687
0.000492528
0.000530488
0.000583057
0.000649505
0.000731072
0.000827979
0.000941087
0.00107085
0.00121783
0.00138237
0.00156479
0.00176531
0.00198426
0.00222199
0.00247892
0.0027555
0.00305222
0.00336963
0.00370839
0.00406855
0.00444837
0.00484854
0.00526926
0.00571075
0.0061734
0.0066575
0.00716352
0.00769153
0.0082372
0.00876746
0.00921015
0.00953151
0.00974382
0.00987539
0.00993563
0.00994136
0.00989916
0.00982853
0.00974162
0.0096507
0.00959678
0.00954597
0.00964964
0.00969557
0.0102199
0.0103914
0.0120717
0.015049
0.00576627
0.00144815
0.000925029
0.000617016
0.00054765
0.000454065
0.000417306
0.000378397
0.000363535
0.000355702
0.000364658
0.000385103
0.000420767
0.000470354
0.000535775
0.000617394
0.000716665
0.0008345
0.000972089
0.00113032
0.00131001
0.00151174
0.00173595
0.00198294
0.00225297
0.00254635
0.00286334
0.00320415
0.00356895
0.00395786
0.004371
0.00480604
0.00526119
0.00573635
0.00623063
0.00674302
0.00727264
0.00781847
0.00837974
0.00895587
0.00954129
0.0101004
0.0105824
0.0109601
0.0112297
0.0114123
0.0115108
0.0115409
0.0114986
0.0114088
0.0112604
0.011092
0.0108844
0.0106923
0.0104968
0.0103559
0.0103128
0.0103165
0.0110296
0.0130163
0.00565588
0.00170753
0.000909873
0.000565184
0.00045906
0.000370684
0.000332437
0.000301554
0.000291834
0.000292665
0.000309946
0.000340931
0.000388201
0.000451682
0.000533224
0.000633941
0.000755537
0.000899366
0.00106682
0.00125897
0.00147668
0.00172049
0.00199068
0.00228735
0.0026105
0.0029601
0.00333607
0.00373818
0.0041661
0.00461936
0.00509714
0.00559489
0.0061116
0.00664616
0.00719679
0.00776163
0.00833899
0.00892706
0.00952457
0.0101311
0.0107389
0.011314
0.0118241
0.0122469
0.0125671
0.0128003
0.0129463
0.01302
0.0130126
0.0129508
0.0128129
0.0126469
0.0124064
0.0121786
0.0118728
0.0116494
0.0113506
0.0112329
0.0115111
0.011878
0.00567208
0.00199813
0.000965417
0.000559073
0.000413103
0.000321252
0.000279459
0.000252829
0.000247017
0.000255087
0.000280656
0.00032249
0.000382554
0.000461531
0.00056132
0.000683499
0.00082994
0.0010022
0.00120169
0.00142949
0.0016863
0.00197249
0.00228808
0.00263287
0.0030065
0.00340863
0.00383879
0.00429633
0.00478044
0.0052901
0.00582295
0.00637398
0.00694228
0.00752595
0.00812252
0.00872949
0.00934464
0.00996563
0.0105909
0.0112204
0.0118422
0.0124287
0.0129593
0.0134139
0.0137713
0.0140433
0.0142275
0.014339
0.0143667
0.0143391
0.0142293
0.0140909
0.0138644
0.0136525
0.0133305
0.0131015
0.0127183
0.0125615
0.0126452
0.0112303
0.00575859
0.00230731
0.00107768
0.000590931
0.000399719
0.000297026
0.000249343
0.000224089
0.000221085
0.000235393
0.000269212
0.000322164
0.000395837
0.000491327
0.000610557
0.000755329
0.000927556
0.00112881
0.00136043
0.00162337
0.00191817
0.00224497
0.00260354
0.00299338
0.00341383
0.00386425
0.00434383
0.0048515
0.00538604
0.00594602
0.00652696
0.00712483
0.00773819
0.00836446
0.00900062
0.00964367
0.0102909
0.0109397
0.0115883
0.0122363
0.0128671
0.0134626
0.0140071
0.0144824
0.0148645
0.0151628
0.0153732
0.0155112
0.0155646
0.0155636
0.0154785
0.0153677
0.0151645
0.0149823
0.0146782
0.0144793
0.0140921
0.0139573
0.0139509
0.0108621
0.00588
0.00262258
0.00123561
0.000655973
0.000413443
0.00029283
0.000236572
0.000210248
0.000208966
0.00022869
0.000270646
0.000334858
0.000422599
0.000535107
0.000674242
0.000841841
0.00103977
0.00126951
0.00153233
0.00182904
0.00216002
0.00252524
0.00292424
0.00335626
0.00382035
0.00431558
0.0048408
0.0053946
0.00597533
0.00658102
0.00720539
0.00784565
0.00849957
0.009164
0.00983543
0.0105104
0.0111859
0.0118589
0.0125276
0.0131897
0.0138269
0.0144287
0.0149819
0.0154687
0.0158655
0.0161794
0.0164053
0.0165592
0.0166281
0.0166438
0.0165752
0.0164843
0.0163004
0.0161452
0.0158648
0.0157041
0.0153409
0.0152556
0.0151988
0.010657
0.00601447
0.0029325
0.00142908
0.000750816
0.000451582
0.000305826
0.000237868
0.000208151
0.000207424
0.000231765
0.000281611
0.000357055
0.000459015
0.000588644
0.000747652
0.000937787
0.00116083
0.00141816
0.00171098
0.00203998
0.00240547
0.00280722
0.00324457
0.0037165
0.00422176
0.00475915
0.0053272
0.00592413
0.00654793
0.00719559
0.00786024
0.00853954
0.0092306
0.00992978
0.0106331
0.0113367
0.0120373
0.0127316
0.0134176
0.0140889
0.0147308
0.0153363
0.0158934
0.0163848
0.0167881
0.017109
0.0173419
0.0175029
0.0175788
0.0176025
0.0175423
0.0174628
0.0172913
0.0171557
0.0168952
0.0167688
0.0164338
0.016403
0.0163085
0.0105488
0.00614911
0.00322752
0.00164796
0.000873066
0.000512247
0.000334805
0.000251458
0.00021593
0.000214435
0.00024251
0.000299841
0.000386312
0.0005024
0.000648996
0.000827581
0.00103975
0.00128719
0.00157121
0.00189294
0.00225304
0.00265168
0.00308849
0.0035626
0.0040727
0.00461725
0.00519474
0.00580344
0.00644117
0.00710561
0.00779226
0.00849459
0.00921016
0.00993552
0.0106665
0.0113988
0.0121282
0.0128511
0.0135639
0.0142636
0.0149405
0.0155851
0.0161917
0.0167483
0.0172386
0.0176421
0.0179634
0.0181965
0.0183576
0.0184338
0.0184584
0.0184
0.0183248
0.0181591
0.0180358
0.0177892
0.01769
0.0173793
0.0173982
0.0172685
0.0104986
0.00627688
0.0035005
0.00188208
0.00101992
0.000594036
0.000379789
0.000276635
0.000232628
0.000228813
0.000259593
0.000323827
0.000420966
0.000550928
0.000714205
0.000911987
0.00114567
0.00141689
0.00172684
0.00207665
0.0024669
0.00289767
0.00336842
0.00387804
0.00442494
0.00500725
0.00562319
0.00627072
0.0069473
0.00765038
0.00837343
0.00911115
0.00986053
0.0106176
0.0113779
0.0121365
0.0128888
0.0136313
0.01436
0.0150687
0.0157489
0.0163941
0.0169988
0.0175513
0.018036
0.0184344
0.0187507
0.0189787
0.0191345
0.0192056
0.0192257
0.0191638
0.0190873
0.0189223
0.0188051
0.0185668
0.0184881
0.0181958
0.0182567
0.018092
0.0104827
0.00639444
0.00374694
0.00212154
0.00118767
0.000696075
0.000440892
0.0003135
0.000257957
0.000249998
0.000282253
0.000352629
0.00045994
0.000603427
0.000783058
0.000999673
0.00125445
0.00154894
0.00188426
0.00226151
0.00268122
0.00314332
0.0036471
0.00419122
0.00477377
0.00539254
0.00604548
0.00673025
0.00744394
0.00818348
0.00894093
0.00971191
0.0104928
0.0112792
0.0120662
0.0128485
0.0136212
0.0143807
0.0151218
0.0158356
0.016517
0.0171604
0.0177605
0.0183054
0.0187806
0.0191697
0.0194767
0.0196952
0.0198415
0.0199034
0.0199148
0.0198454
0.0197633
0.0195948
0.019479
0.0192447
0.0191806
0.0189013
0.0189967
0.0187968
0.010487
0.00650069
0.00396477
0.00235732
0.00137148
0.000817416
0.000518023
0.000362811
0.000292168
0.000277907
0.000310166
0.000385737
0.000502604
0.000659209
0.000854868
0.00109002
0.00136555
0.00168296
0.00204324
0.00244745
0.00289605
0.00338884
0.00392489
0.00450261
0.0051198
0.00577384
0.00646244
0.00718297
0.00793214
0.008706
0.00949601
0.0102982
0.0111084
0.0119217
0.0127329
0.0135364
0.0143269
0.0151007
0.0158496
0.0165659
0.0172462
0.0178855
0.0184781
0.0190123
0.0194748
0.0198512
0.0201452
0.0203509
0.0204842
0.0205337
0.0205331
0.0204531
0.0203621
0.0201872
0.0200691
0.0198354
0.0197813
0.0195107
0.0196338
0.0193991
0.0105025
0.00659577
0.00415395
0.00258179
0.00156555
0.000956397
0.000611131
0.000425418
0.000335962
0.000312857
0.000343367
0.000422979
0.00054866
0.000717927
0.000929308
0.00118275
0.00147881
0.00181888
0.00220381
0.00263462
0.00311164
0.00363454
0.00420217
0.00481267
0.00546352
0.00615169
0.00687466
0.00762951
0.0084126
0.00921868
0.0100394
0.0108706
0.0117079
0.0125459
0.0133789
0.014201
0.0150066
0.0157912
0.016544
0.0172605
0.0179375
0.01857
0.0191525
0.0196733
0.0201202
0.0204808
0.020759
0.0209489
0.0210664
0.021101
0.0210858
0.0209931
0.0208906
0.0207071
0.0205838
0.0203483
0.0203007
0.0200356
0.0201804
0.019912
0.0105238
0.0066805
0.00431597
0.0027891
0.00176347
0.00111039
0.000720156
0.000501705
0.000390449
0.000355512
0.000382193
0.000464453
0.00059806
0.000779474
0.00100627
0.00127783
0.00159423
0.0019568
0.00236614
0.00282322
0.00332826
0.00388073
0.00447927
0.00512174
0.00580528
0.00652646
0.0072825
0.00807024
0.0088857
0.00972187
0.0105714
0.0114296
0.0122917
0.0131519
0.0140042
0.0148423
0.0156604
0.0164508
0.0172052
0.0179195
0.0185907
0.0192141
0.0197839
0.0202885
0.0207174
0.0210597
0.0213195
0.0214913
0.0215909
0.0216084
0.0215769
0.0214695
0.0213539
0.0211601
0.0210297
0.0207905
0.0207464
0.0204845
0.0206462
0.0203458
0.0105474
0.00675592
0.00445333
0.00297538
0.0019587
0.00127571
0.0008444
0.000591973
0.000456743
0.000406856
0.000427256
0.000510491
0.000650948
0.000843909
0.00108581
0.00137532
0.00171194
0.00209688
0.00253044
0.0030135
0.00354614
0.00412766
0.00475643
0.00543005
0.00614532
0.00689833
0.00768611
0.00850527
0.00935125
0.0102156
0.0110919
0.0119751
0.0128596
0.0137397
0.0146087
0.0154602
0.0162864
0.0170795
0.017833
0.0185427
0.0192057
0.0198173
0.0203719
0.0208581
0.0212666
0.0215885
0.0218277
0.0219795
0.0220594
0.0220583
0.0220089
0.0218856
0.0217555
0.0215503
0.0214112
0.0211673
0.0211245
0.0208643
0.0210386
0.0207084
0.0105712
0.0068231
0.00456903
0.00313865
0.00214517
0.00144773
0.000982304
0.000696419
0.000535517
0.000468171
0.000479429
0.00056164
0.000707635
0.000911417
0.00116804
0.00147535
0.00183208
0.0022393
0.00269689
0.00320565
0.0037655
0.00437551
0.00503383
0.00573773
0.00648371
0.00726736
0.00808549
0.00893455
0.00980899
0.0106997
0.0116008
0.0125066
0.0134113
0.0143086
0.0151918
0.016053
0.0168834
0.0176767
0.0184268
0.0191294
0.0197817
0.020379
0.0209159
0.0213815
0.0217677
0.022067
0.0222839
0.022414
0.0224727
0.0224518
0.0223835
0.0222435
0.022098
0.0218807
0.021732
0.0214826
0.0214392
0.0211798
0.0213633
0.021006
0.0105941
0.00688304
0.00466625
0.00327859
0.00231778
0.00162118
0.00113131
0.000814658
0.000627322
0.000540656
0.000539846
0.00061866
0.000768587
0.000982288
0.00125318
0.00157812
0.00195484
0.00238425
0.00286569
0.00339986
0.00398649
0.00462443
0.00531154
0.00604483
0.00682044
0.00763345
0.0084805
0.0093579
0.0102586
0.0111739
0.0120976
0.0130236
0.0139461
0.0148581
0.0157522
0.0166188
0.0174507
0.0182417
0.0189858
0.0196787
0.0203176
0.0208983
0.0214152
0.021858
0.02222
0.0224951
0.022688
0.0227951
0.0228315
0.0227899
0.0227019
0.0225446
0.0223832
0.0221536
0.0219945
0.0217393
0.0216941
0.0214349
0.0216246
0.0212436
0.0106153
0.00693661
0.00474807
0.00339621
0.00247271
0.00179054
0.00128786
0.000945515
0.000732408
0.000625218
0.000609885
0.000682524
0.000834427
0.00105691
0.00134148
0.00168382
0.00208039
0.0025319
0.003037
0.00359628
0.00420923
0.00487447
0.00558959
0.00635129
0.00715542
0.00799644
0.00887089
0.00977502
0.0106998
0.0116374
0.0125816
0.0135255
0.0144631
0.0153869
0.0162873
0.0171565
0.0179873
0.0187733
0.0195087
0.0201893
0.0208125
0.021374
0.0218686
0.0222866
0.0226227
0.0228721
0.0230397
0.0231226
0.0231358
0.0230728
0.0229647
0.02279
0.0226125
0.0223704
0.0222007
0.0219397
0.0218917
0.0216328
0.0218263
0.0214249
0.0106345
0.00698453
0.00481727
0.00349346
0.00260761
0.00195057
0.00144755
0.00108688
0.000850422
0.000722413
0.000691007
0.000754422
0.000905947
0.00113577
0.00143323
0.00179268
0.0022089
0.00268241
0.00321095
0.00379499
0.00443378
0.00512565
0.00586793
0.00665699
0.00748842
0.00835604
0.00925627
0.0101853
0.0111319
0.0120898
0.013052
0.0140114
0.014961
0.0158921
0.0167961
0.0176652
0.0184921
0.0192704
0.0199944
0.02066
0.0212648
0.0218048
0.0222749
0.0226664
0.0229749
0.0231971
0.0233382
0.023396
0.0233854
0.0233007
0.0231723
0.0229801
0.0227866
0.0225324
0.0223521
0.0220855
0.0220341
0.0217757
0.0219711
0.0215532
0.0106516
0.00702745
0.0048763
0.00357286
0.00272159
0.00209673
0.00160541
0.00123566
0.000980235
0.000832346
0.00078409
0.000836104
0.000984116
0.00121946
0.0015288
0.00190492
0.00234053
0.00283588
0.00338761
0.00399605
0.00466012
0.0053779
0.00614642
0.00696172
0.00781919
0.00871187
0.00963619
0.0105878
0.0115542
0.0125302
0.013508
0.0144795
0.0154372
0.0163727
0.0172775
0.0181436
0.0189637
0.0197314
0.0204413
0.0210893
0.0216732
0.0221892
0.0226328
0.0229959
0.0232755
0.0234692
0.0235828
0.0236148
0.0235799
0.0234732
0.0233247
0.0231152
0.0229062
0.0226402
0.0224496
0.022178
0.0221229
0.0218657
0.0220614
0.0216311
0.0106666
0.00706586
0.00492717
0.00363718
0.00281507
0.00222553
0.00175633
0.00138787
0.00111979
0.000954477
0.000889503
0.000928875
0.00107067
0.00130869
0.00162857
0.00202075
0.00247537
0.00299239
0.00356702
0.00419943
0.0048882
0.0056311
0.00642486
0.0072652
0.00814732
0.00906347
0.0100101
0.0109821
0.011966
0.0129577
0.0139473
0.0149275
0.0158904
0.0168274
0.0177301
0.0185902
0.0194007
0.0201549
0.0208478
0.0214756
0.022036
0.0225258
0.0229408
0.0232738
0.023523
0.0236872
0.0237724
0.0237781
0.0237187
0.0235901
0.0234216
0.0231955
0.0229714
0.0226946
0.0224942
0.0222183
0.0221594
0.0219042
0.0220994
0.0216607
0.0106796
0.00710023
0.00497153
0.00368917
0.00288949
0.00233482
0.0018955
0.00153883
0.00126607
0.00108745
0.00100707
0.00103321
0.00116719
0.00140515
0.00173298
0.00214037
0.0026135
0.00315193
0.0037491
0.00440502
0.00511783
0.00588501
0.00670294
0.00756702
0.00847234
0.00941025
0.0103773
0.0113671
0.012366
0.0133695
0.0143681
0.0153541
0.0163192
0.0172548
0.0181523
0.0190036
0.0198013
0.0205393
0.0212124
0.0218172
0.0223516
0.0228129
0.0231973
0.0234987
0.0237163
0.0238498
0.0239061
0.023885
0.0238011
0.0236509
0.0234629
0.0232209
0.0229826
0.0226958
0.0224864
0.0222072
0.0221447
0.0218927
0.0220865
0.021644
0.0106909
0.00713093
0.00501066
0.00373138
0.00294701
0.00242376
0.00201886
0.00168353
0.00141512
0.00122899
0.00113587
0.00114912
0.00127412
0.00151016
0.00184399
0.00226394
0.00275489
0.00331437
0.00393367
0.00461257
0.00534874
0.00613927
0.00698022
0.00786664
0.00879361
0.00975149
0.0107366
0.0117406
0.0127516
0.0137643
0.0147691
0.0157579
0.0167223
0.0176534
0.0185427
0.0193819
0.020164
0.0208826
0.0215332
0.0221122
0.0226182
0.0230488
0.0234008
0.0236691
0.0238538
0.023956
0.0239826
0.0239346
0.0238262
0.0236548
0.0234482
0.0231911
0.0229396
0.0226441
0.0224267
0.0221454
0.0220798
0.0218322
0.0220246
0.0215825
0.0107005
0.00715831
0.00504554
0.00376608
0.00299022
0.0024928
0.00212344
0.00181703
0.00156227
0.00137582
0.00127413
0.00127594
0.00139148
0.00162395
0.00196196
0.00239301
0.00290055
0.00347946
0.00412039
0.00482171
0.00558046
0.00639336
0.00725611
0.00816339
0.00910943
0.010085
0.0110855
0.0121012
0.0131217
0.0141407
0.0151488
0.0161374
0.017098
0.0180215
0.0188993
0.0197235
0.0204867
0.0211831
0.0218082
0.022359
0.022834
0.0232317
0.0235495
0.0237832
0.0239342
0.0240042
0.0240009
0.0239258
0.0237933
0.0236014
0.0233769
0.0231059
0.0228426
0.0225397
0.0223155
0.0220335
0.0219655
0.0217239
0.0219148
0.0214776
0.0107087
0.00718268
0.00507692
0.00379513
0.00302183
0.0025434
0.00220754
0.00193494
0.00170246
0.00152377
0.00141908
0.0014122
0.0015187
0.00174639
0.00208677
0.00252726
0.00305011
0.00364751
0.00430917
0.00503194
0.00581215
0.00664607
0.00752903
0.00845535
0.00941847
0.0104096
0.0114226
0.0124475
0.0134748
0.0144972
0.0155055
0.0164909
0.0174444
0.0183571
0.0192204
0.0200262
0.0207676
0.0214388
0.0220356
0.0225553
0.0229972
0.0233598
0.0236417
0.0238396
0.0239558
0.0239931
0.0239596
0.0238577
0.0237016
0.0234899
0.0232487
0.0229652
0.0226914
0.0223827
0.0221531
0.0218721
0.0218025
0.0215686
0.0217584
0.0213308
0.0107156
0.00720434
0.00510534
0.00382007
0.00304448
0.00257781
0.00227082
0.00203382
0.00183059
0.00166795
0.00156697
0.00155549
0.00165443
0.00187676
0.00221789
0.00266609
0.00320277
0.00381756
0.00449892
0.0052421
0.00604258
0.00689612
0.00779766
0.00874114
0.00971929
0.0107236
0.0117463
0.0127778
0.013809
0.0148319
0.0158374
0.0168163
0.0177595
0.0186582
0.0195037
0.020288
0.0210045
0.0216474
0.0222132
0.0226994
0.0231056
0.0234313
0.0236757
0.0238366
0.0239173
0.0239214
0.0238577
0.0237292
0.0235501
0.0233197
0.0230631
0.0227686
0.0224859
0.0221733
0.02194
0.0216616
0.0215916
0.0213673
0.0215567
0.0211431
0.0107215
0.00722356
0.00513122
0.00384205
0.00306056
0.00259873
0.00231419
0.00211146
0.00194208
0.00180309
0.00171318
0.00170238
0.00179643
0.00201367
0.00235431
0.00280848
0.00335739
0.00398829
0.00468823
0.0054507
0.00627022
0.00714193
0.00806036
0.00901905
0.0100101
0.0110252
0.0120548
0.0130903
0.0141224
0.0151428
0.0161423
0.0171114
0.0180412
0.0189225
0.019747
0.0205067
0.021195
0.0218069
0.0223388
0.0227889
0.0231574
0.0234443
0.0236497
0.0237726
0.0238171
0.0237878
0.023694
0.0235395
0.0233382
0.0230902
0.0228197
0.0225159
0.0222263
0.0219117
0.0216764
0.0214026
0.0213336
0.0211208
0.0213108
0.0209156
0.0107263
0.00724059
0.00515485
0.00386193
0.00307211
0.00260902
0.00233958
0.00216706
0.00203323
0.00192398
0.00185246
0.00184848
0.00194146
0.00215486
0.00249433
0.00295288
0.00351233
0.00415795
0.00487522
0.0056558
0.00649307
0.00738148
0.00831509
0.00928704
0.0102889
0.011312
0.0123459
0.0133826
0.0144126
0.0154275
0.0164177
0.0173739
0.0182869
0.0191477
0.0199478
0.0206796
0.0213369
0.0219147
0.0224101
0.0228218
0.0231504
0.0233967
0.0235618
0.0236459
0.0236538
0.023591
0.0234674
0.0232875
0.0230651
0.022801
0.0225182
0.022207
0.0219124
0.021598
0.0213627
0.0210957
0.0210292
0.02083
0.0210219
0.0206496
0.0107304
0.00725567
0.00517648
0.00388031
0.0030808
0.00261149
0.00234963
0.00220118
0.00210162
0.00202591
0.00197929
0.00198865
0.00208532
0.00229714
0.00263546
0.0030971
0.00366542
0.00432425
0.00505752
0.00585496
0.00670867
0.00761229
0.00855936
0.0095426
0.010553
0.0115814
0.0126171
0.0136521
0.0146771
0.0156833
0.0166611
0.0176011
0.018494
0.0193309
0.0201035
0.0208044
0.0214275
0.0219686
0.0224249
0.0227958
0.0230826
0.0232868
0.0234105
0.0234549
0.0234259
0.0233298
0.0231769
0.0229725
0.0227303
0.0224516
0.0221583
0.0218418
0.0215445
0.0212325
0.0209995
0.0207414
0.0206791
0.0204959
0.0206909
0.0203459
0.0107337
0.007269
0.00519627
0.00389758
0.00308792
0.00260867
0.00234739
0.0022156
0.00214627
0.00210518
0.00208835
0.00211726
0.00222294
0.00243638
0.00277436
0.00323823
0.00381383
0.0044843
0.00523215
0.00604516
0.00691398
0.00783133
0.00879016
0.00978272
0.0107996
0.0118304
0.0128653
0.0138958
0.0149129
0.0159073
0.0168695
0.01779
0.0186595
0.0194693
0.0202111
0.020878
0.0214642
0.0219657
0.0223805
0.0227086
0.0229518
0.0231125
0.0231939
0.0231982
0.0231323
0.0230031
0.0228217
0.0225938
0.0223332
0.0220417
0.02174
0.0214205
0.0211228
0.0208157
0.0205872
0.0203405
0.0202843
0.0201194
0.0203192
0.0200057
0.0107365
0.00728081
0.0052144
0.003914
0.0030944
0.00260275
0.00233603
0.00221303
0.00216772
0.00215942
0.00217501
0.00222865
0.0023487
0.0025676
0.00290682
0.00337257
0.00395404
0.00463455
0.00539549
0.00622272
0.00710533
0.00803494
0.00900386
0.0100038
0.0110248
0.0120557
0.013087
0.0141104
0.0151164
0.016096
0.0170394
0.0179372
0.0187801
0.0195596
0.0202677
0.0208976
0.0214441
0.0219035
0.0222746
0.0225579
0.0227559
0.0228721
0.0229103
0.0228743
0.0227716
0.02261
0.022401
0.0221511
0.0218737
0.0215713
0.0212634
0.0209433
0.0206477
0.0203481
0.0201266
0.0198937
0.0198456
0.0197014
0.0199079
0.0196301
0.0107388
0.00729126
0.005231
0.00392969
0.00310086
0.00259548
0.00231856
0.00219678
0.00216786
0.00218786
0.00223582
0.00231759
0.00245677
0.00268523
0.00302787
0.00349566
0.00408184
0.00477078
0.00554325
0.00638328
0.00727834
0.0082188
0.0091962
0.0102017
0.0112246
0.0122531
0.0132784
0.0142918
0.015284
0.0162456
0.0171671
0.0180391
0.0188524
0.0195985
0.0202699
0.02086
0.0213641
0.0217792
0.0221045
0.0223413
0.0224928
0.0225635
0.0225583
0.022482
0.0223428
0.0221498
0.0219143
0.0216439
0.0213517
0.0210406
0.0207289
0.0204106
0.0201198
0.0198304
0.0196185
0.019402
0.0193641
0.0192432
0.0194583
0.0192201
0.0107407
0.00730053
0.0052462
0.00394473
0.00310768
0.00258819
0.00229764
0.00217037
0.00214967
0.00219136
0.00226887
0.00237986
0.00254162
0.00278343
0.00313197
0.00360241
0.00419235
0.00488814
0.00567047
0.00652183
0.00742796
0.00837788
0.00936223
0.0103716
0.011394
0.0124181
0.0134349
0.0144357
0.0154112
0.0163521
0.0172487
0.0180918
0.0188725
0.0195823
0.0202142
0.020762
0.0212214
0.02159
0.0218677
0.0220565
0.0221606
0.0221852
0.0221364
0.02202
0.0218453
0.0216217
0.0213614
0.0210723
0.0207673
0.0204498
0.0201368
0.0198232
0.0195399
0.0192635
0.0190638
0.0188664
0.0188411
0.018746
0.0189717
0.018777
0.0107422
0.00730876
0.00526011
0.00395914
0.00311504
0.00258181
0.00227551
0.00213728
0.00211682
0.00217225
0.00227397
0.00241267
0.00259857
0.00285659
0.00321339
0.00368728
0.00428023
0.00498126
0.00577165
0.0066327
0.00754847
0.00850648
0.00949631
0.0105078
0.0115279
0.0125454
0.0135515
0.0145372
0.0154934
0.0164106
0.0172796
0.018091
0.0188362
0.0195072
0.0200969
0.0206
0.0210125
0.0213328
0.0215615
0.0217013
0.0217572
0.0217356
0.0216433
0.0214875
0.0212783
0.0210257
0.0207423
0.0204366
0.0201211
0.0197998
0.0194882
0.019182
0.018909
0.0186486
0.0184638
0.0182882
0.0182779
0.0182111
0.0184495
0.0183019
0.0107434
0.0073161
0.00527285
0.00397292
0.003123
0.00257692
0.0022539
0.00210067
0.00207334
0.00213402
0.0022527
0.00241499
0.00262425
0.00289985
0.00326663
0.00374468
0.00433991
0.00504446
0.00584089
0.00670978
0.00763359
0.00859826
0.00959216
0.0106042
0.0116202
0.0126293
0.0136225
0.0145908
0.0155252
0.0164163
0.017255
0.0180321
0.0187393
0.0193689
0.0199143
0.0203705
0.0207344
0.021005
0.0211834
0.0212735
0.021281
0.0212132
0.0210781
0.020884
0.0206416
0.0203619
0.0200574
0.0197374
0.019414
0.0190916
0.0187841
0.0184883
0.0182287
0.0179871
0.0178201
0.017669
0.0176759
0.01764
0.0178933
0.0177962
0.0107444
0.00732265
0.00528453
0.00398606
0.00313151
0.00257382
0.00223406
0.00206321
0.00202318
0.00208095
0.00220821
0.00238773
0.0026171
0.00290966
0.00328697
0.00376937
0.00436591
0.00507204
0.00587216
0.00674667
0.00767668
0.00864643
0.00964296
0.0106542
0.0116645
0.0126634
0.0136417
0.0145907
0.0155011
0.0163638
0.0171698
0.0179103
0.0185772
0.0191632
0.0196623
0.0200701
0.0203839
0.0206036
0.0207312
0.0207712
0.0207305
0.0206171
0.0204403
0.0202093
0.0199355
0.0196307
0.0193077
0.0189759
0.0186474
0.0183267
0.0180264
0.0177439
0.0175005
0.0172806
0.0171342
0.0170103
0.017037
0.0170344
0.0173048
0.0172613
0.0107452
0.00732852
0.00529524
0.00399858
0.00314047
0.00257261
0.00221681
0.002027
0.00196995
0.0020176
0.00214478
0.00233363
0.00257756
0.00288424
0.00327098
0.003757
0.00435337
0.00505867
0.00585965
0.00673706
0.00767097
0.00864396
0.00964153
0.0106504
0.0116536
0.0126408
0.0136028
0.0145305
0.0154149
0.0162472
0.0170186
0.0177205
0.0183452
0.018886
0.0193372
0.0196951
0.0199579
0.020126
0.0202025
0.0201928
0.0201044
0.0199466
0.0197295
0.0194635
0.0191607
0.0188333
0.0184944
0.0181538
0.0178231
0.0175071
0.0172171
0.0169509
0.0167267
0.0165315
0.0164084
0.0163144
0.0163631
0.0163962
0.0166859
0.0166989
0.0107458
0.00733382
0.00530509
0.00401046
0.00314976
0.00257321
0.00220257
0.00199359
0.00191673
0.00194846
0.00206746
0.00225695
0.00250811
0.00282389
0.00321707
0.00370462
0.00429848
0.00499992
0.00579822
0.00667512
0.00760999
0.00858388
0.00958064
0.0105856
0.0115805
0.0125546
0.0134987
0.0144036
0.0152606
0.0160608
0.0167958
0.0174575
0.0180386
0.0185327
0.0189349
0.0192422
0.0194535
0.01957
0.0195957
0.0195369
0.0194021
0.0192015
0.0189463
0.0186476
0.0183184
0.0179714
0.0176197
0.0172734
0.0169438
0.0166356
0.0163588
0.016112
0.0159099
0.0157421
0.0156451
0.0155834
0.0156566
0.0157275
0.0160386
0.0161107
0.0107463
0.0073386
0.00531416
0.00402171
0.00315925
0.00257546
0.00219149
0.00196397
0.00186592
0.00187756
0.00198145
0.00216307
0.00241307
0.0027311
0.0031258
0.00361121
0.00419909
0.00489272
0.00568396
0.006556
0.00748804
0.00845978
0.00945337
0.0104527
0.0114378
0.0123976
0.0133225
0.0142035
0.0150316
0.0157985
0.016496
0.0171163
0.0176526
0.0180993
0.018452
0.0187083
0.0188682
0.0189336
0.0189094
0.0188029
0.0186236
0.0183824
0.0180916
0.0177633
0.0174109
0.0170475
0.0166864
0.0163379
0.0160126
0.0157155
0.0154551
0.0152305
0.0150534
0.0149157
0.0148473
0.0148201
0.01492
0.0150308
0.0153653
0.0154984
0.0107467
0.00734295
0.00532254
0.00403237
0.00316883
0.00257913
0.00218349
0.00193867
0.00181927
0.00180827
0.00189172
0.00205785
0.00229813
0.00261043
0.00300005
0.00347802
0.00405513
0.00473592
0.00551469
0.00637645
0.00730076
0.00826631
0.0092536
0.010245
0.0112187
0.0121629
0.0130676
0.0139235
0.014722
0.0154546
0.0161137
0.0166919
0.017183
0.0175819
0.017885
0.0180909
0.0182
0.0182155
0.018143
0.0179909
0.0177694
0.0174907
0.0171675
0.0168131
0.0164411
0.0160652
0.0156984
0.0153513
0.0150338
0.014751
0.01451
0.0143104
0.014161
0.0140557
0.0140182
0.0140278
0.0141563
0.0143086
0.0146684
0.0148644
0.010747
0.00734694
0.0053303
0.00404244
0.00317839
0.00258398
0.00217835
0.00191785
0.00177785
0.00174317
0.0018026
0.00194712
0.00216979
0.00246802
0.0028449
0.00330875
0.00386898
0.00453076
0.00529052
0.00613537
0.00704578
0.00799987
0.00897667
0.00995709
0.0109173
0.0118444
0.0127278
0.0135578
0.0143258
0.0150237
0.015644
0.01618
0.0166259
0.0169774
0.0172316
0.0173878
0.0174477
0.0174151
0.0172967
0.0171017
0.0168414
0.0165287
0.0161772
0.0158007
0.0154134
0.0150291
0.0146607
0.0143188
0.0140126
0.0137474
0.0135287
0.0133567
0.0132372
0.0131665
0.0131619
0.0132099
0.0133688
0.0135641
0.0139508
0.0142108
0.0107473
0.0073506
0.00533752
0.00405196
0.00318784
0.00258977
0.00217575
0.00190141
0.00174222
0.00168404
0.0017176
0.00183618
0.00203471
0.00231106
0.00266719
0.00310939
0.0036456
0.00428118
0.00501432
0.0058344
0.00672333
0.00765925
0.00862004
0.00958528
0.0105291
0.0114373
0.012298
0.0131013
0.0138384
0.0145013
0.0150829
0.015577
0.0159783
0.0162833
0.0164899
0.0165984
0.0166111
0.0165331
0.016372
0.0161377
0.0158426
0.0155003
0.015125
0.0147312
0.0143333
0.0139452
0.0135795
0.0132468
0.0129555
0.0127108
0.0125172
0.012375
0.0122876
0.0122531
0.0122831
0.0123707
0.0125615
0.0128007
0.0132157
0.0135404
0.0107475
0.007354
0.00534426
0.00406097
0.00319711
0.00259628
0.00217534
0.00188904
0.0017125
0.00163194
0.00163927
0.00172944
0.0018991
0.00214707
0.00247497
0.00288781
0.00339234
0.00399382
0.00469193
0.00547833
0.00633686
0.00724636
0.00818408
0.0091284
0.0100521
0.0109385
0.0117749
0.0125506
0.0132563
0.0138843
0.0144276
0.0148805
0.0152385
0.0154986
0.0156597
0.0157228
0.0156915
0.0155716
0.0153717
0.0151027
0.0147776
0.0144108
0.0140171
0.0136113
0.013208
0.0128211
0.0124627
0.0121432
0.0118703
0.0116491
0.0114828
0.0113723
0.0113185
0.0113213
0.011387
0.0115151
0.0117387
0.0120222
0.0124666
0.0128559
0.0107476
0.00735716
0.00535058
0.0040695
0.00320617
0.0026033
0.00217676
0.00188032
0.00168847
0.0015873
0.00156923
0.00163024
0.00176828
0.00198314
0.00227663
0.00265312
0.00311848
0.00367786
0.00433215
0.00507528
0.00589343
0.00676684
0.00767277
0.00858858
0.00948698