/*--------------------------------*- C++ -*----------------------------------*\
| =========                 |                                                 |
| \\      /  F ield         | OpenFOAM: The Open Source CFD Toolbox           |
|  \\    /   O peration     | Version:  2.4.0                                 |
|   \\  /    A nd           | Web:      www.OpenFOAM.org                      |
|    \\/     M anipulation  |                                                 |
\*---------------------------------------------------------------------------*/
FoamFile
{
    version     2.0;
    format      ascii;
    class       volScalarField;
    location    "5.49";
    object      p;
}
// * * * * * * * * * * * * * * * * * * * * * * * * * * * * * * * * * * * * * //

dimensions      [0 2 -2 0 0 0 0];

internalField   nonuniform List<scalar> 
6000
(
0.0499903
0.279157
0.276108
0.299437
0.304876
0.312556
0.315592
0.319207
0.321143
0.323222
0.324611
0.326012
0.327119
0.328215
0.329198
0.330186
0.331153
0.332155
0.333193
0.334301
0.335494
0.336797
0.338232
0.339822
0.341593
0.343567
0.34577
0.348223
0.350951
0.353972
0.357305
0.36096
0.364943
0.369251
0.373874
0.378785
0.383943
0.389296
0.394764
0.400261
0.405657
0.410843
0.415643
0.419948
0.423363
0.425879
0.427024
0.427048
0.424807
0.421453
0.414047
0.406595
0.390718
0.379458
0.347502
0.336753
0.268267
0.276615
0.110919
0.200364
0.0650096
0.277372
0.27615
0.299288
0.304793
0.312469
0.315536
0.319154
0.321104
0.323187
0.324585
0.325989
0.327102
0.328201
0.329187
0.330178
0.331146
0.332149
0.333189
0.334298
0.335492
0.336796
0.338231
0.339823
0.341594
0.343569
0.345772
0.348227
0.350955
0.353978
0.357312
0.360969
0.364954
0.369265
0.373888
0.378799
0.383957
0.389307
0.394772
0.400262
0.405649
0.410821
0.415605
0.419897
0.423307
0.425813
0.426943
0.42694
0.424673
0.421272
0.413832
0.406297
0.390386
0.378976
0.347025
0.335957
0.267693
0.275212
0.110269
0.197725
0.078854
0.275296
0.276247
0.29917
0.304721
0.312402
0.315486
0.319112
0.321071
0.323159
0.324562
0.32597
0.327086
0.328188
0.329176
0.330169
0.331139
0.332144
0.333185
0.334295
0.33549
0.336794
0.33823
0.339822
0.341593
0.343569
0.345772
0.348227
0.350956
0.353979
0.357313
0.360971
0.364956
0.369267
0.37389
0.3788
0.383955
0.389302
0.394759
0.400239
0.405612
0.410764
0.415525
0.419795
0.423198
0.425695
0.426813
0.426792
0.4245
0.421064
0.413588
0.405992
0.390039
0.378515
0.346543
0.33523
0.267037
0.273955
0.109409
0.195396
0.0903223
0.273119
0.276386
0.29908
0.304667
0.312348
0.315444
0.319076
0.321042
0.323134
0.324541
0.325952
0.327071
0.328175
0.329165
0.33016
0.331132
0.332137
0.333179
0.33429
0.335485
0.336791
0.338226
0.339818
0.341589
0.343565
0.345768
0.348222
0.35095
0.353973
0.357307
0.360963
0.364947
0.369256
0.373876
0.378782
0.383932
0.38927
0.394716
0.400181
0.405534
0.410663
0.415394
0.419631
0.42302
0.425509
0.426616
0.426583
0.424274
0.420814
0.413306
0.405665
0.389669
0.378059
0.346045
0.334547
0.266368
0.272821
0.108517
0.193473
0.100309
0.270946
0.276549
0.299012
0.30463
0.312301
0.315409
0.319043
0.321015
0.323111
0.324522
0.325935
0.327057
0.328163
0.329155
0.330151
0.331124
0.33213
0.333173
0.334284
0.335479
0.336784
0.33822
0.339811
0.341582
0.343556
0.345758
0.348211
0.350938
0.353959
0.357291
0.360944
0.364924
0.369229
0.373843
0.378741
0.383881
0.389206
0.394636
0.400082
0.405412
0.410516
0.415216
0.419412
0.422769
0.425241
0.426333
0.426286
0.423959
0.42048
0.412945
0.40527
0.389232
0.377555
0.345493
0.333847
0.265656
0.271724
0.107602
0.191804
0.109378
0.268846
0.276718
0.298969
0.304608
0.312263
0.31538
0.319015
0.320992
0.323089
0.324504
0.32592
0.327043
0.328151
0.329145
0.330141
0.331115
0.332122
0.333165
0.334277
0.335471
0.336776
0.338211
0.339802
0.341571
0.343544
0.345745
0.348196
0.35092
0.353938
0.357265
0.360913
0.364887
0.369184
0.373789
0.378675
0.383801
0.389111
0.394522
0.399947
0.405255
0.410336
0.415007
0.419157
0.422469
0.42491
0.425974
0.425903
0.423549
0.420047
0.41248
0.404775
0.388693
0.376964
0.344847
0.333084
0.264859
0.27061
0.10663
0.190284
0.117701
0.266859
0.27689
0.298944
0.3046
0.312232
0.315357
0.31899
0.320971
0.32307
0.324488
0.325905
0.32703
0.32814
0.329134
0.330132
0.331106
0.332113
0.333156
0.334268
0.335462
0.336767
0.338201
0.33979
0.341558
0.34353
0.345727
0.348176
0.350896
0.353909
0.35723
0.360872
0.364837
0.369124
0.373717
0.378591
0.383701
0.388994
0.394387
0.399793
0.405081
0.410142
0.414786
0.41889
0.422147
0.424545
0.425567
0.425458
0.423064
0.419528
0.411918
0.404178
0.388044
0.376268
0.344085
0.332231
0.263947
0.269448
0.105565
0.188859
0.125364
0.265008
0.277064
0.298922
0.304616
0.31221
0.31534
0.318969
0.320954
0.323053
0.324473
0.325891
0.327018
0.328128
0.329124
0.330122
0.331096
0.332104
0.333146
0.334258
0.335452
0.336756
0.338189
0.339777
0.341544
0.343513
0.345707
0.348152
0.350867
0.353874
0.357189
0.360822
0.364778
0.369054
0.373635
0.378495
0.383591
0.388867
0.394244
0.399632
0.404903
0.409947
0.414566
0.418626
0.421825
0.424173
0.425143
0.424985
0.422539
0.418954
0.411289
0.403502
0.387304
0.375478
0.343213
0.331283
0.26291
0.268219
0.104384
0.187488
0.132468
0.263305
0.277237
0.298908
0.304644
0.312196
0.315329
0.318952
0.320939
0.323038
0.32446
0.325879
0.327006
0.328117
0.329113
0.330112
0.331086
0.332094
0.333136
0.334248
0.335441
0.336745
0.338177
0.339763
0.341527
0.343494
0.345685
0.348125
0.350835
0.353836
0.357143
0.360767
0.364714
0.368979
0.373548
0.378395
0.383477
0.38874
0.394102
0.399476
0.404731
0.409758
0.414353
0.418371
0.421514
0.423809
0.424723
0.424508
0.422001
0.418358
0.410626
0.402781
0.386503
0.374619
0.342254
0.330252
0.261761
0.266919
0.103087
0.186144
0.139109
0.261756
0.277406
0.298898
0.304683
0.31219
0.315325
0.31894
0.320928
0.323026
0.324448
0.325867
0.326996
0.328107
0.329103
0.330102
0.331076
0.332084
0.333126
0.334237
0.335431
0.336733
0.338164
0.339748
0.34151
0.343473
0.34566
0.348095
0.3508
0.353794
0.357093
0.360709
0.364647
0.368902
0.37346
0.378296
0.383367
0.388617
0.393966
0.399327
0.404569
0.409579
0.41415
0.418129
0.421219
0.423461
0.424318
0.424043
0.42147
0.417762
0.409954
0.402041
0.385674
0.373721
0.341242
0.329162
0.260528
0.265561
0.101689
0.184817
0.145365
0.260364
0.277567
0.298886
0.304732
0.312191
0.315327
0.318931
0.32092
0.323015
0.324438
0.325857
0.326986
0.328098
0.329094
0.330092
0.331067
0.332074
0.333117
0.334227
0.33542
0.336721
0.33815
0.339732
0.341491
0.34345
0.345633
0.348063
0.350762
0.35375
0.357042
0.360651
0.36458
0.368826
0.373375
0.378201
0.383262
0.388502
0.393839
0.399188
0.404417
0.409411
0.413958
0.4179
0.420942
0.423133
0.423932
0.423596
0.420956
0.417178
0.409291
0.401302
0.38484
0.372807
0.340203
0.32804
0.259243
0.264165
0.100221
0.18351
0.151299
0.259133
0.277717
0.29887
0.304791
0.312199
0.315336
0.318927
0.320915
0.323008
0.324431
0.325849
0.326978
0.328089
0.329085
0.330084
0.331058
0.332065
0.333107
0.334217
0.335409
0.336708
0.338135
0.339715
0.341471
0.343426
0.345605
0.34803
0.350724
0.353705
0.356991
0.360593
0.364514
0.368753
0.373294
0.378111
0.383163
0.388393
0.393721
0.399059
0.404275
0.409253
0.413777
0.417684
0.420682
0.422823
0.423568
0.423171
0.420463
0.416614
0.408646
0.400577
0.384015
0.371897
0.339162
0.326908
0.257935
0.262755
0.0987144
0.182236
0.156957
0.258062
0.277853
0.298848
0.304856
0.312213
0.315351
0.318926
0.320914
0.323002
0.324425
0.325842
0.326971
0.328082
0.329078
0.330076
0.331051
0.332057
0.333098
0.334207
0.335397
0.336695
0.33812
0.339697
0.34145
0.343402
0.345576
0.347997
0.350685
0.353661
0.356941
0.360536
0.364451
0.368683
0.373217
0.378027
0.383071
0.388292
0.393611
0.398939
0.404143
0.409105
0.413606
0.417481
0.420438
0.422533
0.423224
0.422767
0.419993
0.416072
0.408024
0.399872
0.38321
0.371
0.338133
0.325781
0.256628
0.261347
0.0972026
0.181006
0.162378
0.257151
0.277973
0.298816
0.304927
0.312232
0.315372
0.31893
0.320916
0.323
0.324422
0.325838
0.326967
0.328077
0.329073
0.33007
0.331044
0.33205
0.33309
0.334198
0.335387
0.336683
0.338105
0.339679
0.341429
0.343377
0.345547
0.347963
0.350647
0.353618
0.356892
0.360482
0.364391
0.368617
0.373144
0.377948
0.382985
0.388199
0.393509
0.398827
0.40402
0.408966
0.413444
0.417289
0.42021
0.42226
0.422899
0.422384
0.419546
0.415553
0.407426
0.399191
0.382431
0.370125
0.337128
0.324671
0.25534
0.259958
0.0957123
0.179827
0.167588
0.2564
0.27808
0.298774
0.305
0.312256
0.315398
0.318938
0.320922
0.323
0.324421
0.325836
0.326964
0.328074
0.329069
0.330066
0.331039
0.332044
0.333083
0.33419
0.335377
0.33667
0.33809
0.339662
0.341408
0.343353
0.345519
0.347931
0.35061
0.353576
0.356846
0.36043
0.364334
0.368554
0.373077
0.377875
0.382905
0.388113
0.393415
0.398724
0.403905
0.408835
0.413291
0.417108
0.419994
0.422002
0.422592
0.422021
0.41912
0.415057
0.406853
0.398534
0.381678
0.369275
0.336152
0.323585
0.254083
0.258597
0.0942643
0.178703
0.172612
0.255804
0.278175
0.298719
0.305075
0.312282
0.31543
0.31895
0.320932
0.323003
0.324423
0.325836
0.326964
0.328073
0.329067
0.330063
0.331035
0.332039
0.333077
0.334182
0.335367
0.336659
0.338076
0.339645
0.341388
0.343329
0.345492
0.3479
0.350575
0.353537
0.356802
0.360381
0.364281
0.368497
0.373014
0.377807
0.382832
0.388033
0.393329
0.398628
0.403798
0.408712
0.413147
0.416936
0.41979
0.421758
0.422302
0.421676
0.418715
0.414583
0.406304
0.397901
0.380954
0.368452
0.33521
0.322527
0.252867
0.257269
0.0928738
0.177636
0.177465
0.25536
0.278264
0.298652
0.305148
0.31231
0.315468
0.318966
0.320945
0.323009
0.324428
0.325839
0.326966
0.328074
0.329067
0.330063
0.331034
0.332037
0.333073
0.334176
0.33536
0.336649
0.338064
0.33963
0.341369
0.343308
0.345467
0.347871
0.350542
0.3535
0.356761
0.360336
0.364232
0.368443
0.372957
0.377745
0.382765
0.38796
0.393248
0.398539
0.403697
0.408596
0.413009
0.416773
0.419597
0.421526
0.422025
0.421346
0.418327
0.414127
0.405778
0.397292
0.380258
0.367655
0.334303
0.321499
0.251695
0.25598
0.0915513
0.176624
0.182162
0.255062
0.278351
0.298572
0.305218
0.312339
0.31551
0.318985
0.320962
0.323018
0.324436
0.325844
0.32697
0.328077
0.32907
0.330064
0.331034
0.332036
0.333071
0.334172
0.335354
0.336641
0.338053
0.339616
0.341353
0.343288
0.345444
0.347845
0.350512
0.353466
0.356723
0.360295
0.364187
0.368395
0.372904
0.377688
0.382704
0.387894
0.393175
0.398457
0.403604
0.408486
0.412879
0.416617
0.419413
0.421304
0.42176
0.421029
0.417955
0.413689
0.405272
0.396703
0.379589
0.366883
0.333431
0.320501
0.250573
0.25473
0.0903032
0.175662
0.186712
0.254905
0.278441
0.29848
0.305283
0.312367
0.315556
0.319008
0.320982
0.32303
0.324446
0.325851
0.326977
0.328083
0.329075
0.330068
0.331037
0.332037
0.333071
0.334171
0.33535
0.336635
0.338045
0.339605
0.341339
0.343271
0.345424
0.347821
0.350485
0.353436
0.35669
0.360258
0.364147
0.368351
0.372857
0.377637
0.382648
0.387833
0.393107
0.398381
0.403516
0.408382
0.412754
0.416468
0.419236
0.421092
0.421506
0.420725
0.417597
0.413266
0.404785
0.396135
0.378945
0.366137
0.332594
0.319534
0.249501
0.25352
0.0891332
0.174747
0.191125
0.25488
0.278541
0.298378
0.305341
0.312395
0.315606
0.319034
0.321007
0.323045
0.324459
0.325862
0.326987
0.328092
0.329083
0.330075
0.331042
0.332041
0.333073
0.334171
0.335349
0.336631
0.338039
0.339596
0.341328
0.343257
0.345407
0.347801
0.350462
0.35341
0.35666
0.360226
0.364111
0.368313
0.372815
0.377592
0.382599
0.387778
0.393046
0.39831
0.403433
0.408284
0.412635
0.416325
0.419066
0.420887
0.421261
0.420431
0.417252
0.412857
0.404315
0.395584
0.378325
0.365414
0.331792
0.318597
0.248479
0.252349
0.0880431
0.173873
0.195407
0.254981
0.278656
0.298269
0.30539
0.312419
0.315659
0.319063
0.321035
0.323062
0.324475
0.325875
0.327
0.328104
0.329094
0.330085
0.331051
0.332048
0.333079
0.334175
0.335351
0.336631
0.338036
0.339591
0.34132
0.343247
0.345394
0.347786
0.350444
0.353388
0.356636
0.360199
0.364081
0.36828
0.37278
0.377553
0.382555
0.387729
0.39299
0.398245
0.403356
0.40819
0.412521
0.416187
0.418902
0.420689
0.421024
0.420145
0.416917
0.412459
0.403859
0.39505
0.377727
0.364713
0.331022
0.317689
0.247508
0.251217
0.087033
0.173036
0.199565
0.255199
0.27879
0.298157
0.30543
0.312441
0.315714
0.319095
0.321067
0.323083
0.324494
0.32589
0.327015
0.328118
0.329108
0.330098
0.331063
0.332059
0.333087
0.334182
0.335356
0.336634
0.338037
0.33959
0.341317
0.343241
0.345385
0.347774
0.35043
0.353372
0.356617
0.360177
0.364057
0.368253
0.37275
0.37752
0.382518
0.387686
0.39294
0.398186
0.403284
0.408101
0.412411
0.416054
0.418744
0.420496
0.420793
0.419867
0.41659
0.412072
0.403418
0.39453
0.377149
0.364032
0.330284
0.316808
0.246587
0.250121
0.0861019
0.17223
0.203605
0.255526
0.278948
0.298045
0.305462
0.312457
0.315771
0.31913
0.321103
0.323107
0.324516
0.325909
0.327034
0.328136
0.329126
0.330114
0.331078
0.332073
0.3331
0.334193
0.335365
0.336642
0.338042
0.339593
0.341317
0.343239
0.345381
0.347768
0.350421
0.35336
0.356603
0.360161
0.364039
0.368233
0.372726
0.377493
0.382486
0.387649
0.392896
0.398132
0.403217
0.408017
0.412306
0.415926
0.418589
0.420308
0.420568
0.419595
0.416272
0.411693
0.402988
0.394023
0.376591
0.363369
0.329576
0.315952
0.245714
0.249061
0.0852483
0.171451
0.207531
0.255955
0.279132
0.297937
0.305484
0.312469
0.315829
0.319167
0.321143
0.323134
0.324541
0.32593
0.327055
0.328157
0.329146
0.330134
0.331097
0.33209
0.333116
0.334208
0.335378
0.336653
0.338052
0.339601
0.341323
0.343243
0.345383
0.347767
0.350418
0.353355
0.356596
0.360152
0.364027
0.368218
0.372709
0.377472
0.382462
0.387619
0.392858
0.398083
0.403155
0.407938
0.412205
0.415801
0.418438
0.420124
0.420347
0.419328
0.41596
0.411322
0.402568
0.393528
0.376049
0.362724
0.328897
0.315121
0.244889
0.248034
0.0844704
0.170694
0.211349
0.256477
0.279344
0.297836
0.3055
0.312476
0.315887
0.319207
0.321187
0.323166
0.324571
0.325955
0.32708
0.328181
0.329171
0.330158
0.33112
0.332112
0.333137
0.334228
0.335396
0.33667
0.338067
0.339614
0.341334
0.343252
0.34539
0.347772
0.350421
0.353356
0.356595
0.360149
0.364022
0.368211
0.372699
0.377459
0.382444
0.387594
0.392825
0.39804
0.403098
0.407862
0.412108
0.415679
0.418291
0.419943
0.420129
0.419064
0.415653
0.410957
0.402157
0.393042
0.375524
0.362095
0.328245
0.314314
0.24411
0.247038
0.0837657
0.169955
0.215063
0.257085
0.279587
0.297747
0.30551
0.312478
0.315944
0.319249
0.321236
0.323201
0.324604
0.325983
0.327108
0.328208
0.329199
0.330186
0.331148
0.332139
0.333163
0.334252
0.33542
0.336692
0.338087
0.339632
0.341351
0.343267
0.345403
0.347783
0.35043
0.353364
0.356601
0.360153
0.364025
0.368212
0.372697
0.377453
0.382433
0.387577
0.392799
0.398003
0.403046
0.407791
0.412015
0.41556
0.418146
0.419764
0.419914
0.418804
0.415351
0.410598
0.401755
0.392566
0.375013
0.361481
0.32762
0.313528
0.243377
0.246073
0.0831319
0.16923
0.218678
0.257772
0.279861
0.297672
0.305516
0.312475
0.316
0.319294
0.321288
0.32324
0.324642
0.326015
0.32714
0.32824
0.329231
0.330218
0.33118
0.332171
0.333194
0.334282
0.335448
0.336719
0.338113
0.339657
0.341374
0.343288
0.345423
0.347802
0.350447
0.35338
0.356615
0.360166
0.364035
0.36822
0.372702
0.377454
0.382429
0.387566
0.392779
0.397971
0.402998
0.407724
0.411925
0.415445
0.418003
0.419587
0.419702
0.418546
0.415052
0.410242
0.40136
0.392098
0.374516
0.36088
0.327019
0.312763
0.242686
0.245136
0.0825667
0.168516
0.222199
0.25853
0.280166
0.297615
0.30552
0.312468
0.316056
0.31934
0.321346
0.323285
0.324685
0.326052
0.327176
0.328275
0.329268
0.330255
0.331217
0.332208
0.33323
0.334318
0.335483
0.336753
0.338146
0.339689
0.341404
0.343317
0.34545
0.347828
0.350472
0.353403
0.356637
0.360186
0.364054
0.368236
0.372716
0.377463
0.382433
0.387563
0.392766
0.397944
0.402956
0.40766
0.411838
0.415331
0.417863
0.419412
0.419491
0.41829
0.414756
0.40989
0.40097
0.391637
0.374032
0.360292
0.326442
0.312018
0.242038
0.244225
0.0820675
0.16781
0.225631
0.259353
0.280501
0.297576
0.305526
0.312459
0.316109
0.319389
0.321408
0.323335
0.324733
0.326093
0.327217
0.328315
0.329309
0.330297
0.33126
0.33225
0.333273
0.334359
0.335524
0.336793
0.338186
0.339728
0.341442
0.343354
0.345486
0.347862
0.350505
0.353435
0.356668
0.360216
0.364082
0.368261
0.372738
0.377481
0.382444
0.387566
0.392759
0.397924
0.402918
0.407601
0.411754
0.41522
0.417723
0.419238
0.41928
0.418035
0.414461
0.409541
0.400586
0.391182
0.373559
0.359716
0.325889
0.311292
0.241431
0.24334
0.0816321
0.16711
0.228978
0.260235
0.280866
0.297559
0.305534
0.312449
0.316162
0.31944
0.321474
0.32339
0.324788
0.32614
0.327264
0.328361
0.329356
0.330345
0.331308
0.332299
0.333321
0.334408
0.335573
0.336841
0.338233
0.339774
0.341488
0.343398
0.345529
0.347905
0.350547
0.353476
0.356708
0.360254
0.364119
0.368296
0.372769
0.377507
0.382464
0.387578
0.392759
0.397909
0.402885
0.407546
0.411673
0.415112
0.417585
0.419064
0.41907
0.41778
0.414168
0.409193
0.400207
0.390733
0.373098
0.359152
0.325357
0.310583
0.240864
0.242479
0.0812581
0.166413
0.232244
0.261171
0.28126
0.297563
0.305547
0.312439
0.316215
0.319493
0.321546
0.323452
0.324849
0.326194
0.327317
0.328411
0.329408
0.330398
0.331363
0.332354
0.333377
0.334464
0.335628
0.336897
0.338288
0.339829
0.341542
0.343451
0.345582
0.347957
0.350599
0.353527
0.356758
0.360303
0.364166
0.36834
0.372809
0.377543
0.382493
0.387597
0.392766
0.397901
0.402857
0.407494
0.411595
0.415004
0.417448
0.41889
0.418861
0.417525
0.413876
0.408847
0.399831
0.390289
0.372647
0.358597
0.324847
0.309893
0.240336
0.241641
0.0809433
0.165718
0.235434
0.262154
0.28168
0.29759
0.305567
0.312432
0.316267
0.319549
0.321623
0.323521
0.324918
0.326255
0.327376
0.328469
0.329467
0.330458
0.331425
0.332417
0.33344
0.334527
0.335692
0.336961
0.338352
0.339892
0.341605
0.343514
0.345644
0.348019
0.35066
0.353588
0.356818
0.360362
0.364223
0.368395
0.37286
0.377588
0.382531
0.387625
0.392781
0.397899
0.402835
0.407447
0.41152
0.414899
0.417312
0.418717
0.41865
0.41727
0.413585
0.408503
0.399459
0.38985
0.372206
0.358053
0.324357
0.309219
0.239846
0.240824
0.0806855
0.165022
0.238553
0.26318
0.282126
0.297639
0.305595
0.312428
0.316321
0.319608
0.321705
0.323597
0.324995
0.326324
0.327443
0.328533
0.329533
0.330525
0.331493
0.332487
0.333511
0.334599
0.335764
0.337033
0.338425
0.339965
0.341678
0.343587
0.345717
0.348092
0.350733
0.35366
0.356889
0.360432
0.364291
0.36846
0.372921
0.377643
0.382578
0.387661
0.392803
0.397903
0.402817
0.407403
0.411448
0.414795
0.417176
0.418542
0.418439
0.417014
0.413293
0.408158
0.39909
0.389415
0.371774
0.357519
0.323887
0.308561
0.239392
0.240029
0.0804828
0.164325
0.241605
0.264245
0.282596
0.297711
0.305632
0.312429
0.316377
0.319672
0.321794
0.323681
0.325081
0.326402
0.327519
0.328606
0.329606
0.330599
0.33157
0.332565
0.333591
0.33468
0.335846
0.337115
0.338508
0.340048
0.341761
0.34367
0.345801
0.348175
0.350816
0.353743
0.356973
0.360514
0.364371
0.368537
0.372994
0.377709
0.382634
0.387706
0.392833
0.397913
0.402805
0.407363
0.411378
0.414692
0.417039
0.418367
0.418227
0.416756
0.413
0.407814
0.398724
0.388983
0.371351
0.356994
0.323437
0.30792
0.238975
0.239254
0.0803331
0.163625
0.244595
0.265344
0.283088
0.297806
0.305679
0.312437
0.316437
0.31974
0.321889
0.323774
0.325177
0.32649
0.327605
0.328688
0.329689
0.330682
0.331655
0.332652
0.33368
0.33477
0.335937
0.337208
0.338601
0.340142
0.341855
0.343765
0.345896
0.348271
0.350912
0.353839
0.357068
0.360608
0.364463
0.368626
0.373077
0.377786
0.382701
0.38776
0.392871
0.397931
0.402798
0.407327
0.41131
0.41459
0.416903
0.418191
0.418013
0.416497
0.412706
0.407469
0.39836
0.388555
0.370936
0.356478
0.323006
0.307294
0.238593
0.238499
0.0802345
0.162922
0.247527
0.266473
0.2836
0.297922
0.305738
0.312452
0.316501
0.319814
0.321991
0.323876
0.325283
0.326589
0.327702
0.32878
0.329781
0.330775
0.33175
0.332749
0.333779
0.33487
0.336039
0.337311
0.338705
0.340248
0.341961
0.343872
0.346003
0.348379
0.351021
0.353948
0.357176
0.360716
0.364569
0.368728
0.373173
0.377874
0.382779
0.387823
0.392917
0.397955
0.402796
0.407295
0.411245
0.414489
0.416766
0.418014
0.417798
0.416235
0.412411
0.407124
0.397997
0.38813
0.37053
0.355971
0.322594
0.306683
0.238245
0.237763
0.0801854
0.162215
0.250405
0.267629
0.284131
0.298059
0.305808
0.312476
0.31657
0.319895
0.322101
0.323988
0.325401
0.3267
0.32781
0.328884
0.329884
0.330878
0.331855
0.332856
0.333888
0.334982
0.336152
0.337426
0.338822
0.340365
0.34208
0.343991
0.346124
0.348501
0.351143
0.354071
0.357299
0.360837
0.364687
0.368842
0.373282
0.377974
0.382867
0.387897
0.392971
0.397986
0.4028
0.407267
0.411182
0.414389
0.416629
0.417834
0.417579
0.415971
0.412114
0.406778
0.397636
0.387708
0.370131
0.355472
0.3222
0.306088
0.237931
0.237046
0.0801839
0.161504
0.253233
0.268807
0.284678
0.298215
0.305889
0.312509
0.316646
0.319983
0.32222
0.324112
0.325531
0.326825
0.327932
0.329001
0.329999
0.330992
0.331972
0.332974
0.334009
0.335105
0.336278
0.337553
0.338951
0.340496
0.342212
0.344125
0.346259
0.348636
0.35128
0.354208
0.357435
0.360972
0.36482
0.36897
0.373404
0.378086
0.382967
0.38798
0.393034
0.398025
0.402809
0.407242
0.411121
0.414289
0.416491
0.417653
0.417359
0.415705
0.411816
0.40643
0.397276
0.387289
0.36974
0.354982
0.321824
0.305509
0.237651
0.236347
0.0802284
0.160789
0.256015
0.270005
0.285241
0.298391
0.305981
0.312551
0.316728
0.320079
0.322348
0.324247
0.325675
0.326964
0.328069
0.329132
0.330128
0.33112
0.332101
0.333105
0.334143
0.335241
0.336416
0.337694
0.339094
0.340641
0.342358
0.344273
0.346408
0.348787
0.351431
0.35436
0.357587
0.361123
0.364968
0.369113
0.373539
0.378211
0.383079
0.388074
0.393107
0.39807
0.402823
0.407221
0.411062
0.414189
0.416351
0.417469
0.417135
0.415435
0.411514
0.406081
0.396916
0.386872
0.369357
0.354501
0.321465
0.304944
0.237402
0.235667
0.0803173
0.160069
0.258756
0.271219
0.285817
0.298584
0.306086
0.312604
0.316818
0.320184
0.322486
0.324394
0.325832
0.327118
0.328221
0.329278
0.330272
0.331262
0.332244
0.33325
0.33429
0.335391
0.336569
0.337849
0.339251
0.3408
0.34252
0.344436
0.346573
0.348954
0.351599
0.354528
0.357755
0.361289
0.365131
0.369271
0.373689
0.37835
0.383203
0.388179
0.393188
0.398123
0.402843
0.407203
0.411004
0.414089
0.416209
0.417282
0.416908
0.415162
0.41121
0.405731
0.396558
0.386457
0.36898
0.354029
0.321125
0.304396
0.237186
0.235006
0.0804488
0.159346
0.261459
0.272447
0.286405
0.298794
0.306201
0.312667
0.316916
0.320297
0.322634
0.324555
0.326005
0.327289
0.32839
0.329442
0.330433
0.33142
0.332402
0.33341
0.334452
0.335556
0.336737
0.33802
0.339425
0.340976
0.342698
0.344616
0.346755
0.349138
0.351784
0.354714
0.357941
0.361473
0.36531
0.369445
0.373854
0.378503
0.383339
0.388295
0.393279
0.398183
0.402869
0.407189
0.410948
0.413989
0.416066
0.417092
0.416677
0.414884
0.410902
0.405378
0.396199
0.386046
0.368611
0.353566
0.320801
0.303862
0.237001
0.234362
0.0806215
0.158619
0.264128
0.273685
0.287002
0.29902
0.306326
0.31274
0.317022
0.320421
0.322793
0.324729
0.326193
0.327477
0.328577
0.329624
0.330611
0.331595
0.332577
0.333586
0.334631
0.335737
0.336921
0.338207
0.339615
0.341169
0.342893
0.344814
0.346955
0.349339
0.351987
0.354918
0.358144
0.361674
0.365507
0.369635
0.374034
0.37867
0.383489
0.388422
0.393379
0.398251
0.402899
0.407178
0.410893
0.413888
0.41592
0.416899
0.416442
0.414603
0.410592
0.405023
0.395841
0.385636
0.368248
0.353111
0.320494
0.303345
0.236847
0.233737
0.0808337
0.157889
0.266767
0.274932
0.287609
0.29926
0.306462
0.312823
0.317136
0.320554
0.322963
0.324916
0.326397
0.327683
0.328784
0.329825
0.330809
0.33179
0.33277
0.333779
0.334826
0.335935
0.337122
0.338411
0.339823
0.34138
0.343107
0.34503
0.347174
0.34956
0.35221
0.35514
0.358366
0.361893
0.365722
0.369842
0.374231
0.378852
0.383652
0.388561
0.393489
0.398327
0.402936
0.407171
0.41084
0.413786
0.415772
0.416701
0.416202
0.414317
0.410277
0.404665
0.395483
0.385228
0.367893
0.352665
0.320205
0.302844
0.236723
0.233131
0.0810839
0.157157
0.269379
0.276185
0.288223
0.299514
0.306607
0.312916
0.317259
0.320696
0.323143
0.325117
0.326617
0.327908
0.329011
0.330048
0.331028
0.332005
0.332984
0.333992
0.335041
0.336152
0.337343
0.338635
0.34005
0.34161
0.34334
0.345266
0.347413
0.349801
0.352452
0.355383
0.358608
0.362132
0.365956
0.370068
0.374445
0.37905
0.383829
0.388713
0.393609
0.39841
0.402977
0.407166
0.410787
0.413683
0.41562
0.4165
0.415957
0.414026
0.409958
0.404305
0.395124
0.384823
0.367543
0.352228
0.319932
0.302358
0.236628
0.232544
0.0813703
0.156425
0.271967
0.27744
0.288843
0.29978
0.306762
0.313019
0.31739
0.320848
0.323335
0.325332
0.326853
0.328153
0.329259
0.330293
0.33127
0.332242
0.333219
0.334226
0.335276
0.33639
0.337584
0.338879
0.340298
0.341862
0.343595
0.345524
0.347673
0.350064
0.352716
0.355648
0.358871
0.362392
0.36621
0.370312
0.374676
0.379264
0.38402
0.388876
0.393739
0.398501
0.403024
0.407164
0.410734
0.413578
0.415466
0.416294
0.415707
0.413729
0.409634
0.403942
0.394765
0.38442
0.367201
0.351801
0.319675
0.30189
0.236562
0.231977
0.0816913
0.155692
0.274537
0.278697
0.289466
0.300057
0.306925
0.313131
0.317529
0.32101
0.323536
0.32556
0.327106
0.328416
0.329529
0.330562
0.331536
0.332504
0.333477
0.334484
0.335534
0.336649
0.337846
0.339146
0.340568
0.342135
0.343872
0.345804
0.347956
0.350349
0.353003
0.355934
0.359156
0.362673
0.366484
0.370576
0.374926
0.379494
0.384227
0.389053
0.39388
0.3986
0.403077
0.407165
0.410682
0.413471
0.415307
0.416082
0.415452
0.413427
0.409306
0.403575
0.394405
0.384019
0.366864
0.351383
0.319434
0.301439
0.236523
0.231429
0.0820451
0.154961
0.27709
0.279951
0.290093
0.300344
0.307096
0.313252
0.317677
0.321181
0.323748
0.325802
0.327374
0.328699
0.32982
0.330854
0.331826
0.33279
0.333761
0.334765
0.335816
0.336933
0.338132
0.339435
0.340861
0.342433
0.344173
0.346109
0.348263
0.350658
0.353313
0.356245
0.359464
0.362977
0.36678
0.370861
0.375195
0.379742
0.384449
0.389243
0.394031
0.398707
0.403134
0.407169
0.41063
0.413362
0.415144
0.415865
0.415189
0.413119
0.408972
0.403205
0.394044
0.38362
0.366534
0.350974
0.319209
0.301004
0.236512
0.230901
0.0824298
0.154233
0.27963
0.281202
0.290722
0.30064
0.307275
0.313381
0.317832
0.321361
0.323971
0.326055
0.327658
0.329
0.330133
0.33117
0.332142
0.333103
0.334071
0.335073
0.336123
0.337241
0.338443
0.339749
0.341179
0.342755
0.344499
0.346439
0.348596
0.350993
0.353649
0.35658
0.359797
0.363304
0.367099
0.371167
0.375484
0.380009
0.384686
0.389446
0.394193
0.398822
0.403197
0.407175
0.410577
0.413251
0.414976
0.415642
0.414921
0.412804
0.408633
0.402831
0.393681
0.383223
0.366209
0.350576
0.319
0.300588
0.236528
0.230395
0.0828435
0.153509
0.282161
0.282447
0.291351
0.300945
0.30746
0.313519
0.317995
0.32155
0.324202
0.326321
0.327956
0.329319
0.330467
0.33151
0.332484
0.333444
0.33441
0.335409
0.336458
0.337577
0.338781
0.34009
0.341524
0.343104
0.344852
0.346795
0.348956
0.351355
0.354012
0.356941
0.360155
0.363656
0.367441
0.371496
0.375793
0.380293
0.384941
0.389662
0.394366
0.398945
0.403264
0.407183
0.410524
0.413136
0.414804
0.415413
0.414645
0.412483
0.408288
0.402453
0.393317
0.382827
0.36589
0.350187
0.318805
0.300189
0.236568
0.22991
0.0832839
0.152791
0.284685
0.283683
0.291978
0.301257
0.307652
0.313665
0.318166
0.321747
0.324443
0.326599
0.328269
0.329655
0.330822
0.331874
0.332853
0.333813
0.334777
0.335775
0.336823
0.337941
0.339147
0.340459
0.341897
0.343481
0.345234
0.34718
0.349344
0.351745
0.354402
0.35733
0.36054
0.364034
0.367808
0.371847
0.376124
0.380597
0.385211
0.389893
0.394551
0.399076
0.403337
0.407193
0.41047
0.413018
0.414626
0.415177
0.414362
0.412154
0.407937
0.402071
0.392952
0.382434
0.365576
0.349808
0.318624
0.299809
0.236632
0.229447
0.0837487
0.152082
0.287207
0.284908
0.292604
0.301575
0.30785
0.313818
0.318344
0.321952
0.324693
0.326887
0.328594
0.330008
0.331196
0.332261
0.333247
0.334209
0.335173
0.33617
0.337218
0.338336
0.339543
0.340858
0.342299
0.343888
0.345645
0.347595
0.349761
0.352164
0.354822
0.357748
0.360953
0.364439
0.368201
0.372223
0.376477
0.380921
0.385499
0.390138
0.394746
0.399215
0.403414
0.407204
0.410415
0.412896
0.414442
0.414934
0.414071
0.411819
0.407579
0.401685
0.392584
0.382043
0.365268
0.349439
0.318458
0.299448
0.236719
0.229008
0.0842354
0.151383
0.28973
0.28612
0.293225
0.301899
0.308053
0.313979
0.318529
0.322166
0.324952
0.327185
0.328932
0.330376
0.331588
0.332669
0.333666
0.334633
0.3356
0.336597
0.337644
0.338763
0.339971
0.341288
0.342733
0.344325
0.346087
0.348041
0.35021
0.352615
0.355272
0.358196
0.361395
0.364872
0.36862
0.372623
0.376852
0.381265
0.385805
0.390398
0.394952
0.399362
0.403496
0.407217
0.410359
0.412771
0.414253
0.414684
0.413773
0.411476
0.407215
0.401295
0.392214
0.381653
0.364964
0.34908
0.318304
0.299105
0.236826
0.228592
0.0847412
0.150697
0.292256
0.287317
0.293842
0.302227
0.308261
0.314146
0.318721
0.322387
0.325218
0.327493
0.329281
0.330758
0.331998
0.333098
0.334109
0.335084
0.336055
0.337054
0.338102
0.339222
0.340432
0.341751
0.343199
0.344796
0.346561
0.348519
0.350691
0.353097
0.355754
0.358674
0.361867
0.365334
0.369067
0.373049
0.37725
0.381629
0.386128
0.390672
0.39517
0.399517
0.403583
0.407232
0.410301
0.412641
0.414058
0.414428
0.413468
0.411126
0.406846
0.400901
0.391843
0.381266
0.364664
0.348731
0.318162
0.298782
0.236953
0.228201
0.0852631
0.150025
0.29479
0.288496
0.294452
0.302559
0.308473
0.314321
0.318921
0.322616
0.325493
0.32781
0.329641
0.331153
0.332424
0.333547
0.334574
0.33556
0.336539
0.337542
0.338593
0.339715
0.340927
0.342249
0.3437
0.3453
0.347069
0.349031
0.351205
0.353612
0.356268
0.359185
0.36237
0.365825
0.369541
0.3735
0.377673
0.382015
0.386469
0.390961
0.3954
0.39968
0.403674
0.407249
0.410242
0.412509
0.413858
0.414165
0.413155
0.41077
0.40647
0.400503
0.39147
0.380881
0.364369
0.348393
0.318031
0.298478
0.237097
0.227836
0.0857977
0.149372
0.297334
0.289654
0.295055
0.302893
0.308689
0.314502
0.319126
0.322852
0.325775
0.328136
0.33001
0.331561
0.332864
0.334013
0.33506
0.336061
0.337049
0.338059
0.339115
0.34024
0.341455
0.34278
0.344235
0.345838
0.347612
0.349577
0.351754
0.354161
0.356816
0.359728
0.362905
0.366346
0.370044
0.373978