/*--------------------------------*- C++ -*----------------------------------*\
| =========                 |                                                 |
| \\      /  F ield         | OpenFOAM: The Open Source CFD Toolbox           |
|  \\    /   O peration     | Version:  2.4.0                                 |
|   \\  /    A nd           | Web:      www.OpenFOAM.org                      |
|    \\/     M anipulation  |                                                 |
\*---------------------------------------------------------------------------*/
FoamFile
{
    version     2.0;
    format      ascii;
    class       volScalarField;
    location    "1.45";
    object      nut;
}
// * * * * * * * * * * * * * * * * * * * * * * * * * * * * * * * * * * * * * //

dimensions      [0 2 -1 0 0 0 0];

internalField   nonuniform List<scalar> 
6000
(
4.70184e-05
1.44127e-05
4.30613e-06
8.76279e-06
7.81914e-06
8.99374e-06
8.81999e-06
9.59588e-06
9.72578e-06
9.03841e-06
6.25164e-06
4.2464e-06
7.52815e-06
8.62246e-06
7.97547e-06
1.34332e-05
2.24116e-05
3.1161e-05
3.85803e-05
4.38228e-05
4.63061e-05
4.5733e-05
4.22408e-05
3.63199e-05
2.85951e-05
1.96888e-05
1.1045e-05
7.36064e-06
1.17435e-05
1.45714e-05
1.62594e-05
1.73374e-05
1.81489e-05
1.89088e-05
1.97389e-05
2.06941e-05
2.17817e-05
2.29754e-05
2.42255e-05
2.5469e-05
2.66406e-05
2.76851e-05
2.85674e-05
2.92787e-05
2.98329e-05
3.02625e-05
3.06006e-05
3.08889e-05
3.11385e-05
3.13984e-05
3.16135e-05
3.19164e-05
3.20541e-05
3.25155e-05
3.23705e-05
3.33474e-05
3.23229e-05
3.4812e-05
3.16727e-05
3.70484e-05
2.94911e-05
9.48145e-06
3.22779e-06
7.01048e-06
6.35078e-06
7.07989e-06
6.99259e-06
7.4981e-06
7.50947e-06
6.87132e-06
4.99357e-06
4.5016e-06
6.52456e-06
7.37493e-06
8.12964e-06
1.24695e-05
1.77609e-05
2.2361e-05
2.57626e-05
2.76866e-05
2.80388e-05
2.68459e-05
2.43918e-05
2.09133e-05
1.66072e-05
1.17723e-05
7.82156e-06
7.38445e-06
9.60121e-06
1.10755e-05
1.20201e-05
1.26815e-05
1.32239e-05
1.37478e-05
1.43062e-05
1.49187e-05
1.55821e-05
1.6278e-05
1.69787e-05
1.76531e-05
1.82716e-05
1.88119e-05
1.92624e-05
1.96235e-05
1.99057e-05
2.01267e-05
2.03034e-05
2.04558e-05
2.05896e-05
2.07272e-05
2.0844e-05
2.09999e-05
2.10802e-05
2.13083e-05
2.12561e-05
2.1725e-05
2.12562e-05
2.24412e-05
2.09535e-05
2.33882e-05
2.14311e-05
8.1436e-06
2.8618e-06
5.89427e-06
5.3575e-06
5.74943e-06
5.70185e-06
6.02249e-06
5.96425e-06
5.42319e-06
4.35696e-06
4.72413e-06
5.96602e-06
6.9248e-06
8.46838e-06
1.16368e-05
1.47119e-05
1.6944e-05
1.81381e-05
1.83152e-05
1.76308e-05
1.6292e-05
1.45618e-05
1.25161e-05
1.01927e-05
7.86341e-06
6.86001e-06
7.25698e-06
8.12443e-06
8.83439e-06
9.35982e-06
9.77558e-06
1.01439e-05
1.05039e-05
1.08745e-05
1.12609e-05
1.16587e-05
1.20578e-05
1.24454e-05
1.2808e-05
1.3134e-05
1.34152e-05
1.36483e-05
1.3835e-05
1.39812e-05
1.4096e-05
1.41878e-05
1.42663e-05
1.4335e-05
1.44038e-05
1.44637e-05
1.45388e-05
1.45835e-05
1.46881e-05
1.46773e-05
1.48834e-05
1.46917e-05
1.52047e-05
1.4566e-05
1.54746e-05
1.78741e-05
7.95882e-06
3.02584e-06
5.27427e-06
4.74222e-06
4.84647e-06
4.80184e-06
4.99407e-06
4.91112e-06
4.52183e-06
4.21637e-06
4.99708e-06
5.8095e-06
7.00688e-06
8.73386e-06
1.08882e-05
1.25266e-05
1.33209e-05
1.3296e-05
1.26527e-05
1.16473e-05
1.05405e-05
9.43365e-06
8.32345e-06
7.24153e-06
6.59675e-06
7.37314e-06
7.31989e-06
7.2974e-06
7.51157e-06
7.75794e-06
7.99873e-06
8.23253e-06
8.46279e-06
8.69103e-06
8.91636e-06
9.13621e-06
9.34708e-06
9.54512e-06
9.72651e-06
9.88781e-06
1.00264e-05
1.01411e-05
1.02323e-05
1.03024e-05
1.03552e-05
1.0395e-05
1.04264e-05
1.04522e-05
1.04764e-05
1.04977e-05
1.05232e-05
1.05404e-05
1.05758e-05
1.0576e-05
1.06451e-05
1.05821e-05
1.07524e-05
1.05296e-05
1.06694e-05
1.67538e-05
8.43868e-06
3.56791e-06
5.06209e-06
4.45658e-06
4.28239e-06
4.20802e-06
4.31159e-06
4.25043e-06
4.07756e-06
4.50634e-06
5.3897e-06
6.00432e-06
7.36463e-06
8.88885e-06
1.02261e-05
1.0909e-05
1.08652e-05
1.02854e-05
9.46129e-06
8.65673e-06
8.03344e-06
7.52782e-06
7.11082e-06
6.91665e-06
7.60195e-06
9.01561e-06
7.88536e-06
7.13806e-06
6.93944e-06
6.94445e-06
7.02637e-06
7.13561e-06
7.25043e-06
7.36078e-06
7.46235e-06
7.55392e-06
7.63588e-06
7.7092e-06
7.77468e-06
7.83237e-06
7.88145e-06
7.92069e-06
7.94911e-06
7.96664e-06
7.97427e-06
7.974e-06
7.96806e-06
7.95889e-06
7.94808e-06
7.93752e-06
7.92726e-06
7.91888e-06
7.91124e-06
7.90448e-06
7.90097e-06
7.88677e-06
7.88811e-06
7.84827e-06
7.63029e-06
1.71077e-05
9.39461e-06
4.42219e-06
5.17933e-06
4.47819e-06
4.01318e-06
3.87659e-06
3.92217e-06
3.93532e-06
4.05894e-06
5.17771e-06
5.9448e-06
6.47829e-06
7.81791e-06
8.98788e-06
9.71191e-06
9.81285e-06
9.41146e-06
8.81711e-06
8.35793e-06
8.26562e-06
8.43665e-06
8.67358e-06
8.91755e-06
9.48166e-06
1.11219e-05
1.16706e-05
9.21804e-06
7.71564e-06
7.06701e-06
6.80135e-06
6.70467e-06
6.67976e-06
6.68024e-06
6.68422e-06
6.68267e-06
6.67342e-06
6.65783e-06
6.63855e-06
6.61805e-06
6.59764e-06
6.57709e-06
6.555e-06
6.52954e-06
6.49939e-06
6.46412e-06
6.4245e-06
6.38165e-06
6.33762e-06
6.29308e-06
6.25093e-06
6.20882e-06
6.17328e-06
6.13331e-06
6.10867e-06
6.06345e-06
6.05581e-06
5.97753e-06
6.00051e-06
5.6423e-06
1.83888e-05
1.07085e-05
5.54672e-06
5.54541e-06
4.78263e-06
4.02419e-06
3.79236e-06
3.80709e-06
3.95902e-06
4.47925e-06
6.1706e-06
6.67889e-06
7.1479e-06
8.30117e-06
9.12093e-06
9.44851e-06
9.31889e-06
9.02378e-06
8.98721e-06
9.59611e-06
1.10209e-05
1.26257e-05
1.39553e-05
1.48253e-05
1.57077e-05
1.69597e-05
1.53031e-05
1.15155e-05
9.13528e-06
7.92081e-06
7.30514e-06
6.98148e-06
6.79647e-06
6.67287e-06
6.57229e-06
6.47702e-06
6.38046e-06
6.28179e-06
6.18279e-06
6.08586e-06
5.9927e-06
5.90371e-06
5.81799e-06
5.73392e-06
5.64998e-06
5.56521e-06
5.47972e-06
5.39402e-06
5.3097e-06
5.22705e-06
5.14901e-06
5.07278e-06
5.00574e-06
4.93508e-06
4.8846e-06
4.80976e-06
4.78638e-06
4.67083e-06
4.69647e-06
4.30787e-06
2.02058e-05
1.22769e-05
6.89756e-06
6.10884e-06
5.31242e-06
4.31247e-06
3.95861e-06
3.97247e-06
4.34575e-06
5.37097e-06
7.41295e-06
7.59035e-06
7.94603e-06
8.83542e-06
9.39296e-06
9.56528e-06
9.58407e-06
9.94329e-06
1.1275e-05
1.41035e-05
1.8207e-05
2.18472e-05
2.41622e-05
2.4924e-05
2.47996e-05
2.38129e-05
1.97735e-05
1.48218e-05
1.1473e-05
9.55381e-06
8.47945e-06
7.8593e-06
7.4749e-06
7.20861e-06
6.99806e-06
6.81109e-06
6.63214e-06
6.4548e-06
6.27763e-06
6.10173e-06
5.92906e-06
5.7613e-06
5.59925e-06
5.44275e-06
5.29112e-06
5.1436e-06
5.00001e-06
4.86035e-06
4.72567e-06
4.59593e-06
4.47365e-06
4.35627e-06
4.2505e-06
4.14472e-06
4.06077e-06
3.95737e-06
3.90553e-06
3.76871e-06
3.76874e-06
3.39841e-06
2.22477e-05
1.39991e-05
8.42211e-06
6.86289e-06
5.98325e-06
4.86022e-06
4.38233e-06
4.43674e-06
5.13198e-06
6.73654e-06
8.84083e-06
8.67307e-06
8.84954e-06
9.48374e-06
9.91633e-06
1.02121e-05
1.08357e-05
1.25933e-05
1.64601e-05
2.28185e-05
2.99273e-05
3.4861e-05
3.69188e-05
3.63418e-05
3.40894e-05
3.03842e-05
2.47247e-05
1.89381e-05
1.46758e-05
1.19715e-05
1.03402e-05
9.35045e-06
8.7222e-06
8.29051e-06
7.96131e-06
7.68152e-06
7.42148e-06
7.16541e-06
6.9062e-06
6.64255e-06
6.3768e-06
6.11298e-06
5.8551e-06
5.60594e-06
5.36686e-06
5.13801e-06
4.91917e-06
4.70985e-06
4.51039e-06
4.32032e-06
4.1415e-06
3.97172e-06
3.81663e-06
3.6666e-06
3.53992e-06
3.40205e-06
3.31235e-06
3.1555e-06
3.11689e-06
2.77987e-06
2.42797e-05
1.57812e-05
1.00609e-05
7.81007e-06
6.73755e-06
5.61067e-06
5.05117e-06
5.20743e-06
6.32757e-06
8.49834e-06
1.0415e-05
9.92922e-06
9.88214e-06
1.03254e-05
1.0808e-05
1.15589e-05
1.33628e-05
1.74656e-05
2.49796e-05
3.49874e-05
4.34977e-05
4.79442e-05
4.85493e-05
4.61432e-05
4.18088e-05
3.61612e-05
2.96983e-05
2.34545e-05
1.85016e-05
1.50615e-05
1.28378e-05
1.14308e-05
1.05243e-05
9.90898e-06
9.45511e-06
9.08334e-06
8.74504e-06
8.41111e-06
8.06614e-06
7.70524e-06
7.33129e-06
6.95189e-06
6.57591e-06
6.21078e-06
5.8612e-06
5.52902e-06
5.21435e-06
4.91618e-06
4.63396e-06
4.36657e-06
4.11516e-06
3.87772e-06
3.65903e-06
3.45133e-06
3.26974e-06
3.08632e-06
2.94887e-06
2.76465e-06
2.67983e-06
2.37372e-06
2.61502e-05
1.75425e-05
1.17524e-05
8.9359e-06
7.57084e-06
6.47811e-06
5.91314e-06
6.24969e-06
7.8692e-06
1.05002e-05
1.21202e-05
1.1375e-05
1.10957e-05
1.1445e-05
1.21866e-05
1.37856e-05
1.74456e-05
2.47648e-05
3.60635e-05
4.80668e-05
5.59085e-05
5.87673e-05
5.76452e-05
5.36457e-05
4.77919e-05
4.11119e-05
3.4317e-05
2.79113e-05
2.25686e-05
1.8575e-05
1.5822e-05
1.40047e-05
1.28135e-05
1.20115e-05
1.14364e-05
1.09805e-05
1.05729e-05
1.01677e-05
9.73859e-06
9.27571e-06
8.78258e-06
8.27144e-06
7.7577e-06
7.25512e-06
6.77307e-06
6.316e-06
5.88467e-06
5.47761e-06
5.0932e-06
4.72946e-06
4.38676e-06
4.06322e-06
3.76312e-06
3.48032e-06
3.22788e-06
2.98329e-06
2.7854e-06
2.56078e-06
2.42216e-06
2.13604e-06
2.77833e-05
1.92208e-05
1.34393e-05
1.02064e-05
8.5059e-06
7.3988e-06
6.885e-06
7.47164e-06
9.61093e-06
1.2572e-05
1.39545e-05
1.3038e-05
1.25535e-05
1.29258e-05
1.41652e-05
1.70497e-05
2.3207e-05
3.40607e-05
4.80144e-05
5.99858e-05
6.61327e-05
6.72122e-05
6.4556e-05
5.93282e-05
5.24686e-05
4.53156e-05
3.83771e-05
3.19638e-05
2.64873e-05
2.21833e-05
1.90515e-05
1.68969e-05
1.54553e-05
1.44871e-05
1.38087e-05
1.32873e-05
1.28288e-05
1.23681e-05
1.18659e-05
1.13058e-05
1.06917e-05
1.00414e-05
9.37842e-06
8.72428e-06
8.09428e-06
7.49621e-06
6.93191e-06
6.39938e-06
5.89578e-06
5.41797e-06
4.96549e-06
4.53644e-06
4.13508e-06
3.75681e-06
3.41396e-06
3.08842e-06
2.81333e-06
2.53063e-06
2.32749e-06
2.04647e-06
2.91586e-05
2.07736e-05
1.50725e-05
1.15754e-05
9.5571e-06
8.35938e-06
7.89282e-06
8.75261e-06
1.13787e-05
1.45962e-05
1.59174e-05
1.49492e-05
1.43175e-05
1.48426e-05
1.68359e-05
2.14312e-05
3.04828e-05
4.44252e-05
5.94422e-05
7.01887e-05
7.44816e-05
7.39231e-05
6.99543e-05
6.37536e-05
5.62521e-05
4.88677e-05
4.1832e-05
3.54455e-05
2.99786e-05
2.55748e-05
2.22484e-05
1.98786e-05
1.82593e-05
1.71709e-05
1.64236e-05
1.58671e-05
1.53864e-05
1.48971e-05
1.43446e-05
1.37046e-05
1.29806e-05
1.21965e-05
1.13848e-05
1.05765e-05
9.7938e-06
9.04861e-06
8.3441e-06
7.67767e-06
7.04499e-06
6.44129e-06
5.865e-06
5.314e-06
4.79282e-06
4.29838e-06
3.84366e-06
3.41441e-06
3.04128e-06
2.67863e-06
2.39568e-06
2.10289e-06
3.02897e-05
2.21769e-05
1.66138e-05
1.29922e-05
1.07194e-05
9.37899e-06
8.90899e-06
9.99694e-06
1.30438e-05
1.65241e-05
1.80035e-05
1.71338e-05
1.64396e-05
1.72533e-05
2.02497e-05
2.68876e-05
3.88507e-05
5.49586e-05
6.98232e-05
7.89697e-05
8.1539e-05
7.9486e-05
7.43342e-05
6.73002e-05
5.94099e-05
5.18663e-05
4.47275e-05
3.8338e-05
3.29167e-05
2.8535e-05
2.51686e-05
2.27159e-05
2.10128e-05
1.98682e-05
1.9099e-05
1.85471e-05
1.80817e-05
1.76007e-05
1.70333e-05
1.63448e-05
1.55367e-05
1.46383e-05
1.36924e-05
1.27404e-05
1.18128e-05
1.09265e-05
1.00861e-05
9.28857e-06
8.52755e-06
7.79612e-06
7.09098e-06
6.4092e-06
5.75553e-06
5.12822e-06
4.54195e-06
3.98605e-06
3.4918e-06
3.02427e-06
2.64164e-06
2.31921e-06
3.1206e-05
2.34214e-05
1.80371e-05
1.44077e-05
1.19707e-05
1.04769e-05
9.94799e-06
1.11653e-05
1.45525e-05
1.83531e-05
2.01984e-05
1.96025e-05
1.89539e-05
2.01892e-05
2.44008e-05
3.32542e-05
4.78109e-05
6.51378e-05
7.92173e-05
8.67614e-05
8.77571e-05
8.4274e-05
7.79864e-05
7.01852e-05
6.21012e-05
5.43919e-05
4.71411e-05
4.07048e-05
3.53013e-05
3.09737e-05
2.76541e-05
2.52213e-05
2.3523e-05
2.2389e-05
2.16487e-05
2.11441e-05
2.07356e-05
2.03062e-05
1.97691e-05
1.90766e-05
1.82247e-05
1.72466e-05
1.61947e-05
1.51223e-05
1.40697e-05
1.30596e-05
1.20992e-05
1.11848e-05
1.03079e-05
9.45878e-06
8.63153e-06
7.82151e-06
7.03306e-06
6.26504e-06
5.53424e-06
4.8332e-06
4.19637e-06
3.5988e-06
3.09399e-06
2.72402e-06
3.19417e-05
2.45092e-05
1.93272e-05
1.57788e-05
1.32774e-05
1.16582e-05
1.10355e-05
1.22781e-05
1.59068e-05
2.00984e-05
2.24795e-05
2.23468e-05
2.18723e-05
2.36499e-05
2.92259e-05
4.02965e-05
5.69602e-05
7.47998e-05
8.78761e-05
9.39276e-05
9.34097e-05
8.84914e-05
8.10659e-05
7.25892e-05
6.43584e-05
5.64988e-05
4.91449e-05
4.26342e-05
3.72025e-05
3.29034e-05
2.96484e-05
2.72867e-05
2.56534e-05
2.45831e-05
2.39148e-05
2.34953e-05
2.3182e-05
2.28475e-05
2.23899e-05
2.17462e-05
2.09028e-05
1.98922e-05
1.87752e-05
1.7617e-05
1.64692e-05
1.53623e-05
1.4307e-05
1.32996e-05
1.23296e-05
1.13838e-05
1.04532e-05
9.53014e-06
8.61754e-06
7.71362e-06
6.83685e-06
5.98189e-06
5.18807e-06
4.43967e-06
3.79169e-06
3.35809e-06
3.25299e-05
2.54496e-05
2.04785e-05
1.70708e-05
1.46004e-05
1.29122e-05
1.21901e-05
1.33844e-05
1.71339e-05
2.17744e-05
2.48166e-05
2.53372e-05
2.51828e-05
2.76034e-05
3.46191e-05
4.77757e-05
6.60531e-05
8.39772e-05
9.60367e-05
0.000100687
9.8636e-05
9.2236e-05
8.3649e-05
7.46131e-05
6.61989e-05
5.82182e-05
5.07911e-05
4.42055e-05
3.87115e-05
3.43951e-05
3.11768e-05
2.88876e-05
2.73408e-05
2.63621e-05
2.57924e-05
2.54832e-05
2.5293e-05
2.50889e-05
2.4756e-05
2.42147e-05
2.34373e-05
2.24501e-05
2.13183e-05
2.0118e-05
1.89129e-05
1.77431e-05
1.66243e-05
1.55544e-05
1.45211e-05
1.35081e-05
1.25024e-05
1.14929e-05
1.04796e-05
9.45856e-06
8.44878e-06
7.44516e-06
6.49248e-06
5.58257e-06
4.77784e-06
4.26925e-06
3.29993e-05
2.62559e-05
2.14927e-05
1.82587e-05
1.58998e-05
1.42152e-05
1.3417e-05
1.45192e-05
1.82923e-05
2.33728e-05
2.71741e-05
2.85175e-05
2.88503e-05
3.19933e-05
4.04547e-05
5.54925e-05
7.49713e-05
9.27605e-05
0.000103857
0.000107134
0.000103484
9.55427e-05
8.57878e-05
7.6299e-05
6.76323e-05
5.95654e-05
5.21109e-05
4.54762e-05
3.99102e-05
3.55381e-05
3.23115e-05
3.00634e-05
2.85909e-05
2.77041e-05
2.72386e-05
2.70482e-05
2.69943e-05
2.69422e-05
2.67676e-05
2.63746e-05
2.57176e-05
2.48116e-05
2.37199e-05
2.25265e-05
2.13072e-05
2.01125e-05
1.89654e-05
1.78666e-05
1.68036e-05
1.57573e-05
1.47112e-05
1.36497e-05
1.25693e-05
1.14624e-05
1.03471e-05
9.21597e-06
8.11892e-06
7.05203e-06
6.09065e-06
5.504e-06
3.3374e-05
2.69434e-05
2.23771e-05
1.93275e-05
1.7139e-05
1.5535e-05
1.47072e-05
1.57022e-05
1.94424e-05
2.48877e-05
2.95125e-05
3.18146e-05
3.28192e-05
3.67463e-05
4.66063e-05
6.32962e-05
8.3666e-05
0.000101224
0.000111411
0.000113282
0.000107945
9.84105e-05
8.75858e-05
7.76023e-05
6.86618e-05
6.05459e-05
5.31195e-05
4.64818e-05
4.08595e-05
3.64133e-05
3.3138e-05
3.0888e-05
2.94564e-05
2.86403e-05
2.82663e-05
2.81869e-05
2.82668e-05
2.83724e-05
2.83734e-05
2.81598e-05
2.7667e-05
2.68933e-05
2.58948e-05
2.47584e-05
2.35694e-05
2.23895e-05
2.12503e-05
2.0157e-05
1.90983e-05
1.80539e-05
1.70038e-05
1.59286e-05
1.48208e-05
1.36682e-05
1.24865e-05
1.12638e-05
1.00541e-05
8.85271e-06
7.75326e-06
7.09682e-06
3.36735e-05
2.75274e-05
2.31421e-05
2.02706e-05
1.82877e-05
1.68349e-05
1.60398e-05
1.69395e-05
2.0606e-05
2.635e-05
3.17897e-05
3.51546e-05
3.70165e-05
4.1781e-05
5.29565e-05
7.10741e-05
9.21093e-05
0.000109398
0.000118693
0.00011908
0.000111969
0.000100832
8.90934e-05
7.85046e-05
6.92891e-05
6.11619e-05
5.38228e-05
4.72407e-05
4.15985e-05
3.7082e-05
3.37337e-05
3.14428e-05
3.00128e-05
2.92347e-05
2.89267e-05
2.89382e-05
2.91366e-05
2.9391e-05
2.95686e-05
2.95482e-05
2.92471e-05
2.86444e-05
2.77837e-05
2.67495e-05
2.56333e-05
2.45065e-05
2.34097e-05
2.23545e-05
2.13323e-05
2.03228e-05
1.93041e-05
1.82533e-05
1.71594e-05
1.60051e-05
1.48036e-05
1.3536e-05
1.22597e-05
1.09637e-05
9.76473e-06
9.0594e-06
3.39133e-05
2.80226e-05
2.38003e-05
2.10889e-05
1.93237e-05
1.80779e-05
1.73844e-05
1.82236e-05
2.1793e-05
2.77789e-05
3.39782e-05
3.84553e-05
4.13546e-05
4.70125e-05
5.94007e-05
7.87344e-05
0.000100264
0.000117258
0.000125637
0.000124433
0.000115483
0.000102918
9.02295e-05
7.89969e-05
6.95177e-05
6.14161e-05
5.4223e-05
4.77609e-05
4.21491e-05
3.75853e-05
3.41584e-05
3.18005e-05
3.03371e-05
2.95625e-05
2.92898e-05
2.93656e-05
2.96589e-05
3.00425e-05
3.0384e-05
3.05545e-05
3.04554e-05
3.00465e-05
2.93554e-05
2.84596e-05
2.74523e-05
2.64124e-05
2.5389e-05
2.44007e-05
2.34431e-05
2.24974e-05
2.15413e-05
2.05495e-05
1.95083e-05
1.83959e-05
1.72227e-05
1.59622e-05
1.46751e-05
1.33377e-05
1.20949e-05
1.1373e-05
3.41059e-05
2.84422e-05
2.43647e-05
2.17888e-05
2.02332e-05
1.92305e-05
1.87048e-05
1.95352e-05
2.30023e-05
2.91677e-05
3.60663e-05
4.16342e-05
4.57347e-05
5.23561e-05
6.58468e-05
8.61934e-05
0.000108071
0.000124726
0.000132117
0.000129213
0.000118513
0.000104643
9.09479e-05
7.90755e-05
6.93545e-05
6.13149e-05
5.43227e-05
4.80456e-05
4.25218e-05
3.79474e-05
3.44529e-05
3.20169e-05
3.04956e-05
2.96949e-05
2.94281e-05
2.95401e-05
2.99013e-05
3.03889e-05
3.08726e-05
3.12194e-05
3.13179e-05
3.11098e-05
3.06057e-05
2.98724e-05
2.9001e-05
2.80747e-05
2.71499e-05
2.6252e-05
2.53819e-05
2.45234e-05
2.36551e-05
2.27511e-05
2.17959e-05
2.07641e-05
1.96648e-05
1.84627e-05
1.72235e-05
1.59047e-05
1.46852e-05
1.39868e-05
3.42609e-05
2.87976e-05
2.4848e-05
2.23805e-05
2.10111e-05
2.02653e-05
1.99626e-05
2.08449e-05
2.42221e-05
3.0506e-05
3.80303e-05
4.46615e-05
5.00523e-05
5.77301e-05
7.22178e-05
9.33687e-05
0.000115438
0.000131674
0.000137958
0.000133354
0.000121081
0.000105912
9.12188e-05
7.87404e-05
6.88111e-05
6.08694e-05
5.41277e-05
4.80971e-05
4.27213e-05
3.81811e-05
3.46424e-05
3.2131e-05
3.05391e-05
2.96911e-05
2.94058e-05
2.95285e-05
2.99314e-05
3.04961e-05
3.10962e-05
3.15972e-05
3.18783e-05
3.18654e-05
3.15522e-05
3.09932e-05
3.02743e-05
2.94799e-05
2.86717e-05
2.78814e-05
2.71152e-05
2.63609e-05
2.55991e-05
2.48043e-05
2.3961e-05
2.30414e-05
2.20544e-05
2.09569e-05
1.98209e-05
1.85809e-05
1.74547e-05
1.68229e-05
3.43859e-05
2.90989e-05
2.52622e-05
2.28763e-05
2.16595e-05
2.11628e-05
2.11211e-05
2.21167e-05
2.54315e-05
3.17792e-05
3.98465e-05
4.74906e-05
5.42196e-05
6.30825e-05
7.84646e-05
0.000100179
0.000122245
0.000137905
0.000143025
0.000136842
0.000123092
0.000106661
9.10225e-05
7.79964e-05
6.79033e-05
6.0096e-05
5.36483e-05
4.79196e-05
4.27499e-05
3.82925e-05
3.4741e-05
3.21672e-05
3.05028e-05
2.95957e-05
2.92744e-05
2.93873e-05
2.9809e-05
3.04256e-05
3.11157e-05
3.17455e-05
3.2188e-05
3.23559e-05
3.22272e-05
3.18436e-05
3.12837e-05
3.06308e-05
2.99498e-05
2.92776e-05
2.86255e-05
2.79857e-05
2.7342e-05
2.66704e-05
2.59567e-05
2.51721e-05
2.43267e-05
2.33709e-05
2.23854e-05
2.1278e-05
2.0311e-05
1.97867e-05
3.4487e-05
2.93546e-05
2.56178e-05
2.32896e-05
2.21863e-05
2.19128e-05
2.21484e-05
2.33114e-05
2.66011e-05
3.29683e-05
4.14893e-05
5.008e-05
5.81249e-05
6.82574e-05
8.44735e-05
0.000106525
0.00012838
0.000143341
0.000147278
0.000139612
0.000124467
0.000106844
9.03475e-05
7.68529e-05
6.66518e-05
5.90166e-05
5.29002e-05
4.75209e-05
4.26107e-05
3.82847e-05
3.47558e-05
3.21398e-05
3.04093e-05
2.94394e-05
2.90719e-05
2.91602e-05
2.95825e-05
3.02294e-05
3.0985e-05
3.17183e-05
3.22985e-05
3.2628e-05
3.26707e-05
3.24554e-05
3.20529e-05
3.15435e-05
3.09934e-05
3.04432e-05
2.99094e-05
2.93885e-05
2.88678e-05
2.83263e-05
2.77517e-05
2.71158e-05
2.64317e-05
2.56443e-05
2.48452e-05
2.39141e-05
2.31613e-05
2.27803e-05
3.45688e-05
2.95719e-05
2.59241e-05
2.36336e-05
2.26037e-05
2.25133e-05
2.30203e-05
2.43901e-05
2.76959e-05
3.40504e-05
4.29314e-05
5.2391e-05
6.16758e-05
7.31e-05
9.00961e-05
0.000112297
0.000133767
0.000147924
0.000150666
0.000141597
0.000125145
0.000106433
8.91905e-05
7.53247e-05
6.50817e-05
5.76579e-05
5.1904e-05
4.69129e-05
4.2309e-05
3.816e-05
3.46906e-05
3.20565e-05
3.02721e-05
2.9242e-05
2.88241e-05
2.8879e-05
2.92887e-05
2.99486e-05
3.07487e-05
3.15621e-05
3.22567e-05
3.27268e-05
3.2924e-05
3.28652e-05
3.26126e-05
3.22425e-05
3.18212e-05
3.13921e-05
3.09756e-05
3.05725e-05
3.01744e-05
2.97633e-05
2.93304e-05
2.88488e-05
2.83357e-05
2.77325e-05
2.71435e-05
2.64199e-05
2.5923e-05
2.5713e-05
3.46351e-05
2.97567e-05
2.6189e-05
2.39206e-05
2.29265e-05
2.29706e-05
2.37222e-05
2.53184e-05
2.86784e-05
3.49986e-05
4.41446e-05
5.43852e-05
6.48022e-05
7.74687e-05
9.51902e-05
0.000117391
0.000138332
0.000151593
0.000153133
0.000142736
0.000125081
0.00010541
8.7557e-05
7.34324e-05
6.32224e-05
5.60507e-05
5.0685e-05
4.61116e-05
4.18528e-05
3.7922e-05
3.45475e-05
3.19212e-05
3.00986e-05
2.90155e-05
2.85479e-05
2.85652e-05
2.89538e-05
2.9614e-05
3.04416e-05
3.13149e-05
3.21023e-05
3.26924e-05
3.30262e-05
3.31094e-05
3.29957e-05
3.2757e-05
3.24584e-05
3.21451e-05
3.1841e-05
3.15508e-05
3.12704e-05
3.09853e-05
3.06906e-05
3.03617e-05
3.00213e-05
2.96082e-05
2.92414e-05
2.8744e-05
2.85295e-05
2.85103e-05
3.46889e-05
2.9914e-05
2.64191e-05
2.41615e-05
2.31705e-05
2.32968e-05
2.42492e-05
2.60691e-05
2.95115e-05
3.57843e-05
4.5101e-05
5.60235e-05
6.7455e-05
8.12462e-05
9.96255e-05
0.000121711
0.000142006
0.000154297
0.00015463
0.000142984
0.000124251
0.000103773
8.54618e-05
7.12028e-05
6.11072e-05
5.42293e-05
4.92722e-05
4.51371e-05
4.1253e-05
3.75758e-05
3.43291e-05
3.17363e-05
2.98928e-05
2.87665e-05
2.82534e-05
2.82326e-05
2.85956e-05
2.92473e-05
3.00894e-05
3.10059e-05
3.18674e-05
3.25585e-05
3.30115e-05
3.32217e-05
3.32345e-05
3.31169e-05
3.29324e-05
3.27272e-05
3.25279e-05
3.2343e-05
3.21722e-05
3.20051e-05
3.18408e-05
3.16579e-05
3.14849e-05
3.12598e-05
3.11168e-05
3.08529e-05
3.09338e-05
3.11171e-05
3.47327e-05
3.00481e-05
2.66197e-05
2.43658e-05
2.33513e-05
2.35087e-05
2.46062e-05
2.66255e-05
3.0163e-05
3.63785e-05
4.57752e-05
5.72673e-05
6.9599e-05
8.43481e-05
0.000103291
0.000125171
0.000144728
0.00015599
0.000155116
0.000142314
0.000122646
0.000101533
8.29294e-05
6.86688e-05
5.87734e-05
5.22309e-05
4.76978e-05
4.40125e-05
4.05239e-05
3.71285e-05
3.40388e-05
3.15038e-05
2.96569e-05
2.84987e-05
2.79461e-05
2.78894e-05
2.82255e-05
2.88634e-05
2.97106e-05
3.06571e-05
3.15767e-05
3.23522e-05
3.29083e-05
3.32311e-05
3.33579e-05
3.33505e-05
3.32705e-05
3.31643e-05
3.30608e-05
3.29719e-05
3.2901e-05
3.28416e-05
3.27971e-05
3.27495e-05
3.27339e-05
3.26882e-05
3.27626e-05
3.27301e-05
3.31074e-05
3.34979e-05
3.47683e-05
3.01625e-05
2.67953e-05
2.45412e-05
2.34835e-05
2.36254e-05
2.48063e-05
2.69816e-05
3.06084e-05
3.67553e-05
4.61454e-05
5.80805e-05
7.12055e-05
8.67247e-05
0.000106102
0.000127701
0.000146449
0.000156637
0.000154567
0.000140718
0.000120277
9.87147e-05
7.99936e-05
6.58691e-05
5.62611e-05
5.00945e-05
4.59959e-05
4.27638e-05
3.96819e-05
3.65895e-05
3.36811e-05
3.12259e-05
2.93925e-05
2.8214e-05
2.76293e-05
2.75404e-05
2.78502e-05
2.84718e-05
2.93178e-05
3.02841e-05
3.12489e-05
3.20944e-05
3.27397e-05
3.3162e-05
3.3391e-05
3.34833e-05
3.34978e-05
3.34813e-05
3.34642e-05
3.34613e-05
3.34798e-05
3.35168e-05
3.35799e-05
3.3655e-05
3.37834e-05
3.39044e-05
3.41837e-05
3.43734e-05
3.50384e-05
3.5635e-05
3.47972e-05
3.02601e-05
2.69496e-05
2.46941e-05
2.35799e-05
2.3667e-05
2.48688e-05
2.71429e-05
3.08342e-05
3.68948e-05
4.61959e-05
5.84335e-05
7.22466e-05
8.83574e-05
0.000108005
0.000129248
0.000147134
0.000156222
0.000152973
0.000138208
0.00011717
9.53542e-05
7.66977e-05
6.28482e-05
5.36132e-05
4.78599e-05
4.42014e-05
4.14182e-05
3.87458e-05
3.59698e-05
3.32621e-05
3.09057e-05
2.91014e-05
2.79138e-05
2.73045e-05
2.71881e-05
2.74736e-05
2.80782e-05
2.89191e-05
2.98979e-05
3.08976e-05
3.18011e-05
3.25233e-05
3.30338e-05
3.33545e-05
3.35366e-05
3.36366e-05
3.37007e-05
3.37609e-05
3.38344e-05
3.39318e-05
3.40536e-05
3.42117e-05
3.43956e-05
3.46531e-05
3.49254e-05
3.53932e-05
3.57906e-05
3.67279e-05
3.75248e-05
3.48207e-05
3.03435e-05
2.70855e-05
2.48293e-05
2.36514e-05
2.3653e-05
2.48173e-05
2.7125e-05
3.08386e-05
3.67858e-05
4.59189e-05
5.83069e-05
7.26937e-05
8.9248e-05
0.000108983
0.000129784
0.000146767
0.000154743
0.000150353
0.000134819
0.000113367
9.15016e-05
7.30933e-05
5.96551e-05
5.08743e-05
4.55674e-05
4.23497e-05
4.00042e-05
3.77355e-05
3.52818e-05
3.27888e-05
3.05472e-05
2.87858e-05
2.75995e-05
2.69729e-05
2.68337e-05
2.70977e-05
2.7686e-05
2.85197e-05
2.95058e-05
3.05323e-05
3.14841e-05
3.22728e-05
3.28616e-05
3.32648e-05
3.35284e-05
3.37056e-05
3.38423e-05
3.39712e-05
3.41121e-05
3.42784e-05
3.4474e-05
3.47147e-05
3.49938e-05
3.53649e-05
3.57719e-05
3.64095e-05
3.69972e-05
3.81863e-05
3.91741e-05
3.48398e-05
3.04148e-05
2.72054e-05
2.49504e-05
2.37068e-05
2.3601e-05
2.46771e-05
2.69513e-05
3.06324e-05
3.64285e-05
4.53167e-05
5.76951e-05
7.25201e-05
8.9406e-05
0.000109048
0.000129306
0.000145351
0.000152222
0.000146767
0.000130601
0.000108927
8.72175e-05
6.9239e-05
5.63422e-05
4.80895e-05
4.32562e-05
4.04748e-05
3.85497e-05
3.66716e-05
3.45391e-05
3.22691e-05
3.01545e-05
2.8448e-05
2.72726e-05
2.66353e-05
2.64781e-05
2.67237e-05
2.72969e-05
2.81227e-05
2.91126e-05
3.01598e-05
3.11517e-05
3.19985e-05
3.26571e-05
3.31352e-05
3.34729e-05
3.37203e-05
3.39223e-05
3.41126e-05
3.43128e-05
3.4539e-05
3.47983e-05
3.51101e-05
3.54712e-05
3.59409e-05
3.64659e-05
3.72539e-05
3.80126e-05
3.94306e-05
4.05972e-05
3.48553e-05
3.04757e-05
2.73114e-05
2.50601e-05
2.37527e-05
2.35263e-05
2.44736e-05
2.66507e-05
3.02373e-05
3.58349e-05
4.44034e-05
5.66093e-05
7.17081e-05
8.88388e-05
0.000108241
0.000127843
0.000142915
0.000148697
0.000142268
0.000125621
0.00010392
8.25724e-05
6.51995e-05
5.29642e-05
4.53039e-05
4.0964e-05
3.86094e-05
3.70821e-05
3.55751e-05
3.37558e-05
3.17112e-05
2.97322e-05
2.80911e-05
2.69349e-05
2.6293e-05
2.61219e-05
2.63519e-05
2.69118e-05
2.77296e-05
2.87212e-05
2.97845e-05
3.08103e-05
3.17077e-05
3.24292e-05
3.29756e-05
3.33813e-05
3.36931e-05
3.39544e-05
3.41996e-05
3.44521e-05
3.47303e-05
3.50443e-05
3.54167e-05
3.58478e-05
3.64021e-05
3.7029e-05
3.79482e-05
3.88584e-05
4.04811e-05
4.18126e-05
3.48678e-05
3.05279e-05
2.74052e-05
2.51604e-05
2.3794e-05
2.34415e-05
2.42303e-05
2.62549e-05
2.96836e-05
3.50293e-05
4.32049e-05
5.50785e-05
7.02565e-05
8.75481e-05
0.000106609
0.000125448
0.00013951
0.000144229
0.000136931
0.000119958
9.84263e-05
7.76445e-05
6.10433e-05
4.95764e-05
4.25607e-05
3.87261e-05
3.67834e-05
3.56268e-05
3.4466e-05
3.2946e-05
3.11227e-05
2.92834e-05
2.7718e-05
2.65884e-05
2.59472e-05
2.57659e-05
2.59829e-05
2.65311e-05
2.73413e-05
2.83334e-05
2.94095e-05
3.04639e-05
3.14061e-05
3.21845e-05
3.27937e-05
3.32625e-05
3.36337e-05
3.39494e-05
3.42441e-05
3.45429e-05
3.48665e-05
3.52274e-05
3.56513e-05
3.61417e-05
3.67676e-05
3.74816e-05
3.85139e-05
3.95564e-05
4.13595e-05
4.28412e-05
3.4878e-05
3.05727e-05
2.74882e-05
2.52526e-05
2.38339e-05
2.33563e-05
2.39678e-05
2.57956e-05
2.90077e-05
3.4046e-05
4.17596e-05
5.31497e-05
6.81875e-05
8.55337e-05
0.0001042
0.000122191
0.00013521
0.000138897
0.000130845
0.000113705
9.25377e-05
7.25182e-05
5.68412e-05
4.62332e-05
3.99007e-05
3.65744e-05
3.50237e-05
3.42072e-05
3.33633e-05
3.21232e-05
3.05112e-05
2.88177e-05
2.73322e-05
2.62357e-05
2.55997e-05
2.54111e-05
2.56172e-05
2.6155e-05
2.69584e-05
2.79502e-05
2.90367e-05
3.01157e-05
3.10976e-05
3.19278e-05
3.25954e-05
3.31231e-05
3.35498e-05
3.39158e-05
3.42558e-05
3.4596e-05
3.49591e-05
3.53603e-05
3.58279e-05
3.63682e-05
3.70544e-05
3.78421e-05
3.89708e-05
4.01275e-05
4.20877e-05
4.37045e-05
3.48862e-05
3.0611e-05
2.75618e-05
2.53377e-05
2.38746e-05
2.32776e-05
2.37034e-05
2.53026e-05
2.82483e-05
3.29272e-05
4.01157e-05
5.08858e-05
6.55509e-05
8.28048e-05
0.00010105
0.000118149
0.000130103
0.000132792
0.000124106
0.00010696
8.63512e-05
6.7282e-05
5.2664e-05
4.29863e-05
3.73609e-05
3.45368e-05
3.33538e-05
3.28439e-05
3.22846e-05
3.13002e-05
2.98937e-05
2.8343e-05
2.69377e-05
2.58794e-05
2.52522e-05
2.50588e-05
2.52553e-05
2.57838e-05
2.65809e-05
2.75721e-05
2.86673e-05
2.97676e-05
3.07851e-05
3.16629e-05
3.23849e-05
3.29681e-05
3.34472e-05
3.38604e-05
3.4242e-05
3.46196e-05
3.50178e-05
3.54537e-05
3.59583e-05
3.65405e-05
3.72772e-05
3.81267e-05
3.93368e-05
4.0591e-05
4.26865e-05
4.44234e-05
3.48929e-05
3.0644e-05
2.76271e-05
2.54164e-05
2.39168e-05
2.32101e-05
2.34502e-05
2.48018e-05
2.74436e-05
3.17191e-05
3.83293e-05
4.83631e-05
6.24246e-05
7.9392e-05
9.71853e-05
0.000113391
0.000124281
0.00012601
0.000116814
9.9825e-05
7.99695e-05
6.20263e-05
4.85804e-05
3.98832e-05
3.49737e-05
3.26369e-05
3.17932e-05
3.15543e-05
3.1245e-05
3.04877e-05
2.92773e-05
2.78655e-05
2.65412e-05
2.55226e-05
2.49067e-05
2.47102e-05
2.48983e-05
2.54181e-05
2.6209e-05
2.71994e-05
2.8302e-05
2.94212e-05
3.04708e-05
3.13926e-05
3.21657e-05
3.28016e-05
3.33306e-05
3.37883e-05
3.42089e-05
3.46207e-05
3.505e-05
3.55161e-05
3.60521e-05
3.66695e-05
3.74483e-05
3.83494e-05
3.96276e-05
4.09644e-05
4.31751e-05
4.50177e-05
3.48982e-05
3.06724e-05
2.76849e-05
2.54891e-05
2.39611e-05
2.31562e-05
2.32177e-05
2.43148e-05
2.66286e-05
3.04683e-05
3.64602e-05
4.5666e-05
5.8911e-05
7.53582e-05
9.2635e-05
0.000107971
0.000117825
0.000118642
0.000109069
9.24084e-05
7.34995e-05
5.68413e-05
4.46551e-05
3.69659e-05
3.27658e-05
3.08935e-05
3.03572e-05
3.0353e-05
3.0258e-05
2.96965e-05
2.86707e-05
2.73914e-05
2.61471e-05
2.51685e-05
2.45654e-05
2.43669e-05
2.4547e-05
2.50582e-05
2.58431e-05
2.68324e-05
2.79414e-05
2.90775e-05
3.01563e-05
3.11188e-05
3.19402e-05
3.26265e-05
3.32033e-05
3.37036e-05
3.41609e-05
3.46044e-05
3.50618e-05
3.55544e-05
3.61174e-05
3.67643e-05
3.7578e-05
3.8522e-05
3.98568e-05
4.12629e-05
4.35709e-05
4.55055e-05
3.49024e-05
3.06969e-05
2.77363e-05
2.55564e-05
2.40071e-05
2.3117e-05
2.30121e-05
2.38578e-05
2.58336e-05
2.92186e-05
3.45679e-05
4.28824e-05
5.51306e-05
7.08034e-05
8.74458e-05
0.000101935
0.000110806
0.000110768
0.000100971
8.48221e-05
6.70513e-05
5.18148e-05
4.09466e-05
3.42697e-05
3.07583e-05
2.93207e-05
2.90576e-05
2.92511e-05
2.93344e-05
2.89478e-05
2.80832e-05
2.69266e-05
2.57593e-05
2.48199e-05
2.42304e-05
2.40304e-05
2.42027e-05
2.47051e-05
2.54836e-05
2.64712e-05
2.75858e-05
2.87372e-05
2.98428e-05
3.08433e-05
3.17105e-05
3.24452e-05
3.3068e-05
3.36094e-05
3.41018e-05
3.45749e-05
3.5058e-05
3.55741e-05
3.61603e-05
3.68321e-05
3.76749e-05
3.86542e-05
4.00359e-05
4.14997e-05
4.38892e-05
4.59032e-05
3.49059e-05
3.07181e-05
2.7782e-05
2.56184e-05
2.40545e-05
2.30921e-05
2.28366e-05
2.34423e-05
2.50823e-05
2.80085e-05
3.27078e-05
4.00975e-05
5.12126e-05
6.58626e-05
8.1699e-05
9.53331e-05
0.000103285
0.00010246
9.26237e-05
7.71859e-05
6.07369e-05
4.7029e-05
3.75051e-05
3.18218e-05
2.8966e-05
2.79276e-05
2.7902e-05
2.82568e-05
2.84828e-05
2.82453e-05
2.75212e-05
2.64763e-05
2.53816e-05
2.44789e-05
2.39037e-05
2.37023e-05
2.38664e-05
2.43594e-05
2.51309e-05
2.61163e-05
2.72356e-05
2.84008e-05
2.95312e-05
3.05674e-05
3.14782e-05
3.22593e-05
3.29269e-05
3.3508e-05
3.40342e-05
3.45354e-05