/*--------------------------------*- C++ -*----------------------------------*\
| =========                 |                                                 |
| \\      /  F ield         | OpenFOAM: The Open Source CFD Toolbox           |
|  \\    /   O peration     | Version:  2.4.0                                 |
|   \\  /    A nd           | Web:      www.OpenFOAM.org                      |
|    \\/     M anipulation  |                                                 |
\*---------------------------------------------------------------------------*/
FoamFile
{
    version     2.0;
    format      ascii;
    class       volScalarField;
    location    "1.67";
    object      p;
}
// * * * * * * * * * * * * * * * * * * * * * * * * * * * * * * * * * * * * * //

dimensions      [0 2 -2 0 0 0 0];

internalField   nonuniform List<scalar> 
6000
(
0.229912
0.224498
0.222004
0.221136
0.220253
0.219164
0.21808
0.217077
0.216135
0.215228
0.214353
0.213511
0.212699
0.211916
0.211156
0.210416
0.209692
0.208984
0.208288
0.207602
0.206926
0.206257
0.205595
0.204939
0.204288
0.203644
0.203005
0.202373
0.201749
0.201133
0.200527
0.199934
0.199357
0.198799
0.198264
0.197759
0.197291
0.196869
0.196505
0.196213
0.196013
0.195928
0.195987
0.196228
0.196699
0.19746
0.198585
0.20017
0.202331
0.205216
0.209003
0.213912
0.220202
0.228168
0.238151
0.250396
0.265318
0.282195
0.302697
0.317499
0.225973
0.223714
0.221957
0.221132
0.220319
0.219303
0.21825
0.217252
0.216302
0.215384
0.214494
0.213637
0.212812
0.212016
0.211245
0.210495
0.209763
0.209048
0.208346
0.207655
0.206973
0.2063
0.205633
0.204974
0.20432
0.203673
0.203031
0.202397
0.20177
0.201152
0.200545
0.199951
0.199372
0.198813
0.198277
0.197771
0.197302
0.196878
0.196513
0.196219
0.196016
0.195928
0.195984
0.19622
0.196686
0.19744
0.198556
0.20013
0.202277
0.205144
0.208908
0.213788
0.220043
0.227966
0.237899
0.250095
0.264995
0.281868
0.302662
0.317289
0.225821
0.224208
0.22227
0.221161
0.220284
0.219266
0.218202
0.217197
0.21625
0.215339
0.214458
0.213609
0.212791
0.212002
0.211236
0.210491
0.209764
0.209052
0.208353
0.207664
0.206985
0.206314
0.20565
0.204992
0.20434
0.203693
0.203053
0.202419
0.201793
0.201175
0.200568
0.199973
0.199393
0.198833
0.198295
0.197787
0.197316
0.196889
0.19652
0.196223
0.196016
0.195921
0.19597
0.196198
0.196652
0.197392
0.198491
0.200042
0.20216
0.20499
0.208705
0.213521
0.219689
0.227496
0.237272
0.249258
0.263879
0.280394
0.300821
0.314765
0.225168
0.223772
0.22203
0.220957
0.220139
0.219189
0.218169
0.217192
0.216266
0.21537
0.214498
0.213652
0.212835
0.212043
0.211274
0.210525
0.209793
0.209076
0.208372
0.20768
0.206997
0.206322
0.205655
0.204995
0.204341
0.203693
0.203052
0.202417
0.201791
0.201173
0.200566
0.199971
0.199392
0.198831
0.198294
0.197785
0.197312
0.196884
0.196512
0.19621
0.195997
0.195895
0.195933
0.196147
0.196584
0.197301
0.198371
0.199885
0.201955
0.204722
0.208357
0.213067
0.219098
0.226722
0.236254
0.247916
0.262093
0.278037
0.297605
0.310615
0.224611
0.223527
0.222027
0.220954
0.220116
0.219185
0.21818
0.217207
0.216283
0.215389
0.214517
0.213671
0.212852
0.21206
0.211289
0.210539
0.209806
0.209088
0.208384
0.20769
0.207007
0.206331
0.205663
0.205002
0.204348
0.203699
0.203057
0.202422
0.201795
0.201176
0.200567
0.199971
0.19939
0.198827
0.198287
0.197776
0.197299
0.196866
0.196489
0.19618
0.195958
0.195845
0.195868
0.196065
0.196478
0.197166
0.198197
0.199661
0.201668
0.204353
0.207881
0.212452
0.2183
0.225685
0.2349
0.246147
0.259766
0.275015
0.293504
0.305581
0.224142
0.223287
0.221961
0.220885
0.220035
0.219131
0.218155
0.217196
0.216282
0.215396
0.21453
0.213688
0.212871
0.212079
0.211309
0.210558
0.209824
0.209104
0.208398
0.207703
0.207018
0.206341
0.205672
0.205009
0.204354
0.203704
0.203061
0.202425
0.201797
0.201177
0.200567
0.19997
0.199387
0.198823
0.19828
0.197766
0.197285
0.196847
0.196463
0.196146
0.195914
0.195787
0.195793
0.195967
0.196352
0.197003
0.197987
0.199391
0.20132
0.203904
0.207301
0.211701
0.217326
0.224418
0.233249
0.243994
0.256948
0.271385
0.28865
0.299879
0.223738
0.223045
0.221869
0.22082
0.21997
0.219092
0.218143
0.217197
0.21629
0.215409
0.214547
0.213707
0.212891
0.212099
0.211328
0.210575
0.209839
0.209119
0.208411
0.207714
0.207027
0.206349
0.205679
0.205015
0.204359
0.203708
0.203064
0.202427
0.201798
0.201177
0.200567
0.199968
0.199383
0.198817
0.198272
0.197753
0.197269
0.196825
0.196434
0.196108
0.195863
0.195721
0.195708
0.195858
0.196211
0.196821
0.197753
0.199089
0.200931
0.203402
0.206652
0.21086
0.216233
0.222994
0.231387
0.24156
0.253755
0.26727
0.283187
0.293651
0.223385
0.222812
0.221769
0.220759
0.219911
0.219053
0.218126
0.217194
0.216293
0.215418
0.21456
0.213723
0.212908
0.212116
0.211345
0.210591
0.209854
0.209132
0.208423
0.207725
0.207037
0.206357
0.205686
0.205021
0.204364
0.203712
0.203068
0.20243
0.201799
0.201177
0.200565
0.199965
0.199379
0.19881
0.198262
0.197739
0.19725
0.1968
0.196401
0.196064
0.195807
0.195648
0.195614
0.195736
0.196055
0.19662
0.197495
0.198757
0.200504
0.202852
0.205944
0.209946
0.21505
0.221458
0.229385
0.238948
0.250331
0.262856
0.277344
0.287074
0.223075
0.222592
0.221663
0.220699
0.219855
0.219012
0.218107
0.217189
0.216296
0.215426
0.214573
0.213738
0.212925
0.212133
0.211361
0.210606
0.209868
0.209145
0.208434
0.207735
0.207045
0.206365
0.205692
0.205027
0.204368
0.203716
0.20307
0.202431
0.2018
0.201177
0.200563
0.199961
0.199373
0.198801
0.19825
0.197724
0.197229
0.196772
0.196364
0.196017
0.195745
0.195568
0.195511
0.195603
0.195884
0.196401
0.197213
0.198397
0.200041
0.202258
0.20518
0.208963
0.213783
0.219822
0.227268
0.236207
0.246763
0.258285
0.271333
0.280281
0.222801
0.222386
0.221555
0.220637
0.219803
0.218973
0.218088
0.217184
0.216298
0.215433
0.214584
0.213752
0.21294
0.212148
0.211375
0.21062
0.209881
0.209157
0.208445
0.207744
0.207054
0.206372
0.205698
0.205032
0.204372
0.203719
0.203072
0.202433
0.2018
0.201176
0.200561
0.199957
0.199366
0.198792
0.198237
0.197706
0.197205
0.196741
0.196324
0.195964
0.195677
0.195481
0.195399
0.195459
0.195699
0.196164
0.19691
0.198008
0.199544
0.201621
0.204364
0.207916
0.212439
0.218095
0.225046
0.233353
0.243086
0.253622
0.265273
0.273353
0.222558
0.222196
0.221447
0.220575
0.219753
0.218936
0.218069
0.217178
0.216299
0.215439
0.214594
0.213764
0.212953
0.212162
0.211389
0.210633
0.209893
0.209168
0.208455
0.207753
0.207061
0.206379
0.205704
0.205036
0.204376
0.203722
0.203074
0.202433
0.2018
0.201174
0.200557
0.199952
0.199359
0.198781
0.198222
0.197687
0.19718
0.196708
0.19628
0.195908
0.195604
0.195387
0.195278
0.195305
0.195501
0.195911
0.196587
0.197595
0.199015
0.200945
0.203499
0.20681
0.211023
0.216284
0.22273
0.230399
0.239313
0.248886
0.259213
0.266358
0.222342
0.222022
0.221342
0.220514
0.219706
0.2189
0.218049
0.217171
0.2163
0.215444
0.214603
0.213776
0.212966
0.212175
0.211402
0.210646
0.209905
0.209178
0.208464
0.207761
0.207068
0.206385
0.205709
0.205041
0.204379
0.203724
0.203076
0.202434
0.201799
0.201172
0.200554
0.199946
0.19935
0.198769
0.198206
0.197666
0.197152
0.196672
0.196234
0.195848
0.195527
0.195287
0.19515
0.195141
0.195291
0.195643
0.196244
0.197156
0.198455
0.20023
0.202587
0.205647
0.20954
0.214395
0.220326
0.227353
0.235458
0.244089
0.253171
0.259354
0.22215
0.221863
0.221241
0.220455
0.219662
0.218866
0.21803
0.217164
0.2163
0.215449
0.214611
0.213786
0.212977
0.212187
0.211413
0.210657
0.209915
0.209187
0.208472
0.207769
0.207075
0.20639
0.205714
0.205044
0.204382
0.203726
0.203076
0.202433
0.201797
0.201169
0.200549
0.199939
0.199341
0.198756
0.198189
0.197643
0.197122
0.196633
0.196184
0.195783
0.195444
0.195181
0.195014
0.194967
0.19507
0.195359
0.195882
0.196696
0.197868
0.199481
0.201633
0.204432
0.207996
0.212435
0.217844
0.224225
0.23153
0.23924
0.247155
0.252388
0.221979
0.221719
0.221145
0.220397
0.219621
0.218835
0.218011
0.217157
0.216299
0.215453
0.214618
0.213795
0.212988
0.212197
0.211424
0.210667
0.209925
0.209196
0.20848
0.207775
0.207081
0.206395
0.205718
0.205048
0.204384
0.203727
0.203077
0.202433
0.201796
0.201166
0.200544
0.199931
0.19933
0.198743
0.198171
0.197619
0.197091
0.196592
0.196131
0.195715
0.195357
0.19507
0.194872
0.194785
0.194837
0.195063
0.195504
0.196213
0.197253
0.1987
0.200639
0.203169
0.206394
0.210409
0.215289
0.221024
0.227539
0.234348
0.241169
0.245486
0.221828
0.221589
0.221055
0.220342
0.219582
0.218806
0.217994
0.217149
0.216298
0.215456
0.214624
0.213803
0.212997
0.212207
0.211434
0.210676
0.209933
0.209204
0.208487
0.207782
0.207086
0.2064
0.205721
0.20505
0.204386
0.203729
0.203077
0.202432
0.201793
0.201162
0.200538
0.199923
0.199319
0.198728
0.198151
0.197593
0.197057
0.196549
0.196076
0.195644
0.195266
0.194953
0.194723
0.194595
0.194594
0.194753
0.19511
0.195711
0.196615
0.197888
0.199608
0.201863
0.204741
0.208324
0.21267
0.217757
0.223492
0.229422
0.235213
0.238663
0.221694
0.221473
0.220973
0.22029
0.219547
0.21878
0.217977
0.217142
0.216297
0.215458
0.214629
0.21381
0.213005
0.212216
0.211442
0.210684
0.209941
0.209211
0.208494
0.207787
0.207091
0.206404
0.205725
0.205053
0.204388
0.203729
0.203077
0.20243
0.20179
0.201157
0.200532
0.199914
0.199307
0.198712
0.19813
0.197566
0.197022
0.196504
0.196018
0.19557
0.195171
0.194832
0.194568
0.194397
0.194342
0.194432
0.194701
0.195192
0.195954
0.197049
0.198545
0.200516
0.203041
0.206186
0.209993
0.214431
0.219396
0.224467
0.229288
0.231918
0.221577
0.22137
0.220898
0.220243
0.219514
0.218756
0.217962
0.217135
0.216296
0.215461
0.214634
0.213817
0.213013
0.212224
0.21145
0.210692
0.209948
0.209217
0.208499
0.207792
0.207095
0.206407
0.205727
0.205055
0.204389
0.203729
0.203076
0.202428
0.201787
0.201152
0.200525
0.199905
0.199295
0.198695
0.198109
0.197538
0.196986
0.196458
0.195958
0.195493
0.195072
0.194706
0.194407
0.194192
0.194082
0.1941
0.194279
0.194655
0.195273
0.196185
0.197451
0.199134
0.201299
0.203999
0.207264
0.211054
0.215259
0.21949
0.223391
0.225249
0.221474
0.221279
0.220831
0.220199
0.219485
0.218734
0.217948
0.217129
0.216295
0.215462
0.214637
0.213822
0.213019
0.21223
0.211457
0.210698
0.209954
0.209223
0.208504
0.207797
0.207099
0.20641
0.20573
0.205056
0.20439
0.203729
0.203075
0.202426
0.201783
0.201147
0.200517
0.199895
0.199281
0.198678
0.198086
0.197509
0.196948
0.196409
0.195895
0.195414
0.194971
0.194576
0.194242
0.193982
0.193814
0.193759
0.193846
0.194105
0.194575
0.1953
0.19633
0.197719
0.199519
0.20177
0.20449
0.207632
0.211084
0.214493
0.217517
0.218647
0.221387
0.221201
0.220773
0.22016
0.219459
0.218715
0.217935
0.217123
0.216294
0.215464
0.214641
0.213827
0.213025
0.212236
0.211463
0.210704
0.209959
0.209228
0.208508
0.2078
0.207102
0.206413
0.205731
0.205057
0.20439
0.203729
0.203073
0.202424
0.201779
0.201141
0.200509
0.199884
0.199267
0.19866
0.198063
0.197478
0.196909
0.196359
0.195831
0.195332
0.194866
0.194443
0.194072
0.193766
0.193539
0.19341
0.193402
0.193541
0.19386
0.194395
0.195187
0.196277
0.197707
0.199505
0.201676
0.20417
0.206877
0.209478
0.211663
0.212101
0.221313
0.221135
0.220722
0.220126
0.219436
0.218699
0.217924
0.217117
0.216292
0.215465
0.214644
0.213831
0.213029
0.212241
0.211468
0.210709
0.209964
0.209232
0.208512
0.207803
0.207104
0.206415
0.205733
0.205058
0.20439
0.203728
0.203071
0.20242
0.201775
0.201135
0.200501
0.199873
0.199253
0.198641
0.198038
0.197447
0.196869
0.196308
0.195766
0.195248
0.194759
0.194307
0.193899
0.193545
0.193258
0.193053
0.192949
0.192967
0.193132
0.193474
0.194023
0.194812
0.195868
0.197208
0.198828
0.200674
0.202641
0.204447
0.205822
0.2056
0.221252
0.22108
0.22068
0.220098
0.219417
0.218685
0.217915
0.217112
0.216291
0.215466
0.214646
0.213834
0.213033
0.212246
0.211472
0.210713
0.209968
0.209235
0.208515
0.207806
0.207106
0.206416
0.205733
0.205058
0.204389
0.203726
0.203069
0.202417
0.20177
0.201128
0.200492
0.199862
0.199238
0.198621
0.198013
0.197415
0.196828
0.196255
0.195698
0.195162
0.19465
0.194168
0.193722
0.19332
0.192972
0.192691
0.192489
0.192383
0.192393
0.192539
0.192843
0.193327
0.194006
0.194885
0.195951
0.197149
0.19838
0.199399
0.199987
0.199129
0.221204
0.221037
0.220646
0.220075
0.219401
0.218674
0.217908
0.217109
0.21629
0.215467
0.214648
0.213837
0.213036
0.212249
0.211475
0.210716
0.20997
0.209238
0.208517
0.207807
0.207108
0.206417
0.205734
0.205058
0.204388
0.203725
0.203067
0.202413
0.201765
0.201122
0.200483
0.19985
0.199223
0.198601
0.197988
0.197382
0.196786
0.196201
0.19563
0.195075
0.194539
0.194027
0.193542
0.193092
0.192683
0.192323
0.192022
0.191792
0.191645
0.191594
0.191651
0.191826
0.192125
0.192541
0.193052
0.193599
0.194096
0.194334
0.19415
0.192674
0.221168
0.221004
0.220621
0.220058
0.21939
0.218666
0.217902
0.217106
0.216289
0.215467
0.214649
0.213839
0.213039
0.212251
0.211478
0.210718
0.209972
0.20924
0.208519
0.207809
0.207108
0.206417
0.205734
0.205057
0.204387
0.203723
0.203064
0.202409
0.201759
0.201114
0.200474
0.199838
0.199207
0.198581
0.197961
0.197349
0.196743
0.196147
0.195561
0.194987
0.194427
0.193884
0.193361
0.192862
0.19239
0.191952
0.191552
0.191196
0.19089
0.19064
0.190448
0.190314
0.190231
0.190181
0.190134
0.190029
0.189791
0.18925
0.188303
0.186218
0.221144
0.220983
0.220604
0.220046
0.219382
0.218661
0.217899
0.217104
0.216289
0.215467
0.21465
0.21384
0.21304
0.212253
0.211479
0.21072
0.209974
0.209241
0.208519
0.207809
0.207109
0.206417
0.205733
0.205056
0.204386
0.20372
0.20306
0.202405
0.201754
0.201107
0.200464
0.199825
0.19919
0.19856
0.197935
0.197315
0.1967
0.196092
0.195491
0.194898
0.194314
0.19374
0.193178
0.192629
0.192096
0.191578
0.191078
0.190596
0.190131
0.189681
0.18924
0.188795
0.188328
0.187811
0.187203
0.186444
0.185468
0.184145
0.182436
0.179746
0.221132
0.220972
0.220596
0.22004
0.219378
0.218658
0.217897
0.217103
0.216288
0.215467
0.21465
0.21384
0.213041
0.212253
0.21148
0.21072
0.209974
0.209241
0.20852
0.207809
0.207108
0.206416
0.205732
0.205055
0.204383
0.203718
0.203057
0.2024
0.201748
0.201099
0.200454
0.199812
0.199174
0.198539
0.197908
0.19728
0.196656
0.196036
0.19542
0.194808
0.1942
0.193595
0.192994
0.192396
0.1918
0.191203
0.190603
0.189994
0.189371
0.188721
0.188029
0.187272
0.186422
0.185436
0.184265
0.182847
0.181128
0.179017
0.176542
0.17324
0.221132
0.220972
0.220596
0.22004
0.219378
0.218658
0.217897
0.217103
0.216288
0.215467
0.21465
0.21384
0.213041
0.212253
0.21148
0.21072
0.209974
0.209241
0.208519
0.207808
0.207107
0.206415
0.205731
0.205053
0.204381
0.203715
0.203053
0.202395
0.201741
0.201091
0.200443
0.199799
0.199157
0.198518
0.197881
0.197246
0.196613
0.195981
0.195349
0.194718
0.194085
0.19345
0.19281
0.192163
0.191504
0.190828
0.190128
0.189393
0.18861
0.18776
0.186818
0.185751
0.184516
0.18306
0.181324
0.179243
0.176774
0.173863
0.170609
0.166682
0.221144
0.220983
0.220604
0.220046
0.219382
0.21866
0.217899
0.217104
0.216288
0.215467
0.214649
0.213839
0.21304
0.212252
0.211479
0.210719
0.209973
0.209239
0.208518
0.207807
0.207106
0.206414
0.205729
0.205051
0.204378
0.203711
0.203049
0.20239
0.201735
0.201082
0.200433
0.199786
0.19914
0.198496
0.197854
0.197211
0.196569
0.195925
0.195278
0.194628
0.193971
0.193305
0.192627
0.19193
0.191209
0.190454
0.189654
0.188794
0.187852
0.186804
0.185613
0.184235
0.182615
0.180689
0.178385
0.175637
0.172407
0.168682
0.164627
0.160054
0.221168
0.221004
0.220621
0.220057
0.21939
0.218666
0.217902
0.217106
0.216289
0.215467
0.214648
0.213838
0.213038
0.21225
0.211477
0.210717
0.209971
0.209237
0.208516
0.207805
0.207104
0.206411
0.205726
0.205048
0.204375
0.203707
0.203044
0.202384
0.201728
0.201074
0.200422
0.199772
0.199123
0.198475
0.197826
0.197176
0.196525
0.195869
0.195208
0.194538
0.193857
0.193161
0.192444
0.191698
0.190915
0.190082
0.189183
0.188198
0.1871
0.185853
0.184415
0.182728
0.180726
0.178329
0.175456
0.172032
0.168029
0.163469
0.158586
0.153336
0.221204
0.221037
0.220646
0.220075
0.219401
0.218674
0.217908
0.217108
0.21629
0.215466
0.214647
0.213836
0.213035
0.212248
0.211474
0.210714
0.209968
0.209235
0.208513
0.207803
0.207101
0.206409
0.205724
0.205045
0.204372
0.203703
0.203039
0.202379
0.201721
0.201065
0.200411
0.199758
0.199106
0.198453
0.197799
0.197142
0.196481
0.195813
0.195137
0.194449
0.193745
0.193018
0.192263
0.191469
0.190624
0.189714
0.188717
0.187608
0.186354
0.184912
0.183228
0.181235
0.178851
0.175985
0.17254
0.168435
0.163644
0.158223
0.152473
0.146508
0.221252
0.22108
0.22068
0.220098
0.219417
0.218685
0.217915
0.217112
0.216291
0.215465
0.214645
0.213833
0.213032
0.212244
0.21147
0.210711
0.209965
0.209231
0.20851
0.207799
0.207098
0.206406
0.20572
0.205041
0.204368
0.203699
0.203034
0.202373
0.201713
0.201056
0.2004
0.199745
0.199089
0.198431
0.197772
0.197107
0.196437
0.195758
0.195068
0.194361
0.193633
0.192877
0.192084
0.191242
0.190337
0.18935
0.188257
0.187026
0.185619
0.183983
0.182057
0.179759
0.176997
0.173662
0.169644
0.164849
0.159253
0.152941
0.146279
0.139546
0.221313
0.221135
0.220722
0.220126
0.219436
0.218699
0.217924
0.217117
0.216292
0.215464
0.214643
0.21383
0.213028
0.21224
0.211466
0.210706
0.20996
0.209227
0.208506
0.207796
0.207095
0.206402
0.205717
0.205038
0.204364
0.203695
0.203029
0.202366
0.201706
0.201047
0.200389
0.199731
0.199072
0.19841
0.197744
0.197073
0.196394
0.195704
0.194999
0.194274
0.193523
0.192737
0.191907
0.191018
0.190054
0.188992
0.187804
0.186454
0.184895
0.183069
0.180903
0.178306
0.175169
0.171367
0.166774
0.161283
0.154862
0.147623
0.139992
0.132429
0.221387
0.221201
0.220773
0.22016
0.219458
0.218715
0.217935
0.217122
0.216293
0.215463
0.21464
0.213826
0.213023
0.212234
0.21146
0.210701
0.209955
0.209222
0.208502
0.207791
0.207091
0.206398
0.205713
0.205033
0.204359
0.20369
0.203024
0.20236
0.201699
0.201038
0.200378
0.199717
0.199054
0.198389
0.197718
0.19704
0.196352
0.19565
0.194931
0.194188
0.193414
0.1926
0.191734
0.190799
0.189777
0.188641
0.18736
0.185892
0.184185
0.182173
0.179772
0.176879
0.173371
0.169106
0.163938
0.157741
0.150473
0.142267
0.133598
0.125132
0.221474
0.221279
0.220831
0.220199
0.219485
0.218734
0.217947
0.217128
0.216294
0.215462
0.214636
0.213821
0.213017
0.212228
0.211454
0.210695
0.209949
0.209217
0.208496
0.207786
0.207086
0.206393
0.205708
0.205029
0.204355
0.203685
0.203018
0.202354
0.201691
0.201029
0.200367
0.199704
0.199038
0.198367
0.197691
0.197006
0.19631
0.195598
0.194865
0.194104
0.193308
0.192466
0.191564
0.190585
0.189506
0.188298
0.186926
0.185344
0.183492
0.181297
0.178665
0.175482
0.171609
0.166885
0.161141
0.154231
0.146093
0.136873
0.127087
0.117629
0.221576
0.22137
0.220898
0.220242
0.219514
0.218755
0.217961
0.217135
0.216295
0.21546
0.214632
0.213815
0.213011
0.212221
0.211447
0.210688
0.209943
0.20921
0.20849
0.207781
0.207081
0.206388
0.205703
0.205024
0.20435
0.203679
0.203012
0.202347
0.201683
0.20102
0.200356
0.19969
0.199021
0.198347
0.197665
0.196974
0.196269
0.195546
0.1948
0.194022
0.193205
0.192336
0.191399
0.190376
0.189242
0.187965
0.186504
0.18481
0.182817
0.180444
0.177588
0.174121
0.169888
0.16471
0.158392
0.150762
0.141728
0.131445
0.120447
0.109892
0.221694
0.221473
0.220973
0.22029
0.219546
0.218779
0.217977
0.217142
0.216297
0.215457
0.214628
0.213809
0.213003
0.212213
0.211439
0.21068
0.209935
0.209203
0.208484
0.207775
0.207075
0.206383
0.205698
0.205019
0.204344
0.203674
0.203006
0.20234
0.201675
0.201011
0.200345
0.199677
0.199004
0.198326
0.19764
0.196942
0.196229
0.195496
0.194736
0.193943
0.193105
0.192209
0.191239
0.190174
0.188986
0.187641
0.186095
0.184292
0.182163
0.179617
0.176542
0.172799
0.168214
0.162589
0.155699
0.147342
0.137386
0.125984
0.113666
0.101893
0.221828
0.221589
0.221055
0.220342
0.219582
0.218806
0.217993
0.217149
0.216298
0.215455
0.214622
0.213801
0.212995
0.212204
0.21143
0.210671
0.209927
0.209196
0.208476
0.207768
0.207069
0.206377
0.205692
0.205013
0.204339
0.203668
0.203
0.202333
0.201668
0.201001
0.200334
0.199663
0.198988
0.198306
0.197615
0.196911
0.19619
0.195447
0.194675
0.193866
0.193007
0.192086
0.191084
0.189978
0.188739
0.187329
0.1857
0.183793
0.181532
0.178819
0.175532
0.17152
0.166593
0.160528
0.153071
0.143981
0.133078
0.120497
0.106733
0.0936001
0.221979
0.221719
0.221144
0.220397
0.21962
0.218835
0.218011
0.217156
0.216298
0.215451
0.214616
0.213793
0.212985
0.212194
0.21142
0.210661
0.209917
0.209187
0.208468
0.20776
0.207062
0.206371
0.205686
0.205008
0.204333
0.203662
0.202993
0.202326
0.20166
0.200992
0.200323
0.19965
0.198972
0.198287
0.197591
0.196881
0.196153
0.1954
0.194616
0.193791
0.192913
0.191968
0.190935
0.18979
0.188501
0.187028
0.185321
0.183313
0.180925
0.178051
0.174561
0.170289
0.165028
0.158534
0.150517
0.140692
0.128815
0.114993
0.0996391
0.0849822
0.22215
0.221863
0.22124
0.220454
0.219662
0.218866
0.218029
0.217163
0.216299
0.215447
0.214609
0.213784
0.212974
0.212183
0.211409
0.210651
0.209907
0.209178
0.20846
0.207753
0.207054
0.206364
0.20568
0.205001
0.204327
0.203656
0.202987
0.202319
0.201652
0.200983
0.200312
0.199637
0.198957
0.198268
0.197567
0.196852
0.196116
0.195355
0.194559
0.19372
0.192824
0.191855
0.190792
0.18961
0.188274
0.186741
0.184958
0.182855
0.180345
0.177317
0.173632
0.169109
0.163528
0.156615
0.148046
0.137487
0.124611
0.109483
0.0923761
0.0760061
0.222342
0.222022
0.221342
0.220514
0.219706
0.218899
0.218049
0.21717
0.216298
0.215443
0.214601
0.213773
0.212963
0.212171
0.211397
0.210639
0.209897
0.209167
0.208451
0.207744
0.207047
0.206357
0.205673
0.204995
0.204321
0.20365
0.20298
0.202312
0.201644
0.200974
0.200302
0.199625
0.198942
0.198249
0.197545
0.196824
0.196081
0.195311
0.194505
0.193651
0.192738
0.191747
0.190657
0.189439
0.188058
0.186468
0.184613
0.182418
0.179793
0.17662
0.172747
0.167986
0.162096
0.154779
0.14567
0.134381
0.120485
0.103983
0.0849391
0.0666379
0.222558
0.222196
0.221447
0.220575
0.219752
0.218935
0.218068
0.217177
0.216298
0.215438
0.214592
0.213762
0.21295
0.212158
0.211384
0.210627
0.209885
0.209157
0.208441
0.207735
0.207038
0.206349
0.205666
0.204988
0.204314
0.203643
0.202974
0.202305
0.201636
0.200965
0.200291
0.199613
0.198927
0.198232
0.197523
0.196797
0.196048
0.19527
0.194453
0.193586
0.192656
0.191644
0.190528
0.189277
0.187854
0.18621
0.184287
0.182006
0.179272
0.17596
0.171911
0.166923
0.160738
0.153033
0.143399
0.131388
0.116455
0.0985159
0.0773276
0.0568427
0.222801
0.222386
0.221555
0.220637
0.219802
0.218972
0.218087
0.217183
0.216296
0.215431
0.214582
0.213749
0.212936
0.212144
0.21137
0.210613
0.209872
0.209145
0.20843
0.207725
0.207029
0.206341
0.205659
0.204981
0.204307
0.203636
0.202967
0.202298
0.201628
0.200957
0.200281
0.199601
0.198913
0.198214
0.197502
0.196771
0.196016
0.19523
0.194404
0.193525
0.192579
0.191548
0.190407
0.189124
0.187662
0.185968
0.183981
0.181619
0.178783
0.175341
0.171126
0.165924
0.15946
0.151385
0.141246
0.128526
0.112546
0.0931077
0.0695475
0.046586
0.223075
0.222591
0.221663
0.220698
0.219855
0.219012
0.218106
0.217188
0.216294
0.215424
0.214571
0.213735
0.212921
0.212128
0.211355
0.210599
0.209859
0.209133
0.208419
0.207715
0.20702
0.206333
0.205651
0.204974
0.204301
0.20363
0.20296
0.202291
0.20162
0.200948
0.200272
0.19959
0.198899
0.198198
0.197482
0.196747
0.195987
0.195193
0.194358
0.193467
0.192507
0.191458
0.190294
0.188982
0.187483
0.185742
0.183695
0.181259
0.178327
0.174764
0.170394
0.164993
0.158268
0.149843
0.139222
0.125815
0.108786
0.0877941
0.0616145
0.0358337
0.223385
0.222812
0.221769
0.220759
0.219911
0.219052
0.218125
0.217192
0.216292
0.215416
0.214558
0.21372
0.212905
0.212112
0.211339
0.210583
0.209844
0.209119
0.208407
0.207704
0.20701
0.206324
0.205643
0.204966
0.204293
0.203623
0.202953
0.202283
0.201613
0.20094
0.200262
0.199579
0.198886
0.198183
0.197464
0.196724
0.195959
0.195159
0.194315
0.193414
0.19244
0.191374
0.190189
0.188851
0.187317
0.185534
0.183432
0.180927
0.177907
0.174232
0.169719
0.164133
0.157166
0.148416
0.13734
0.123275
0.105208
0.0826198
0.0535593
0.0245509
0.223738
0.223045
0.221869
0.22082
0.219969
0.219092
0.218142
0.217196
0.216288
0.215407
0.214545
0.213704
0.212888
0.212094
0.211322
0.210567
0.209829
0.209106
0.208394
0.207693
0.207
0.206314
0.205634
0.204959
0.204286
0.203616
0.202946
0.202276
0.201605
0.200931
0.200253
0.199568
0.198874
0.198168
0.197446
0.196703
0.195933
0.195127
0.194275
0.193364
0.192379
0.191297
0.190093
0.188731
0.187167
0.185344
0.183192
0.180624
0.177524
0.173747
0.169105
0.163351
0.156162
0.147114
0.135616
0.12093
0.101853
0.0776448
0.0454405
0.0127061
0.224141
0.223287
0.22196
0.220884
0.220034
0.21913
0.218154
0.217195
0.216281
0.215394
0.214528
0.213685
0.212867
0.212075
0.211303
0.21055
0.209813
0.209091
0.208381
0.207681
0.20699
0.206305
0.205626
0.204951
0.204279
0.203609
0.202939
0.202269
0.201598
0.200923
0.200244
0.199558
0.198863
0.198155
0.19743
0.196683
0.195909
0.195097
0.194239
0.19332
0.192323
0.191228
0.190006
0.188622
0.187031
0.185173
0.182977
0.180351
0.17718
0.173312
0.168553
0.162649
0.155261
0.145944
0.134064
0.118806
0.098769
0.0729404
0.0373491
0.000284676
0.22461
0.223526
0.222027
0.220953
0.220116
0.219184
0.218179
0.217205
0.216282
0.215387
0.214514
0.213668
0.212848
0.212055
0.211283
0.210531
0.209796
0.209075
0.208366
0.207668
0.206978
0.206295
0.205617
0.204942
0.204271
0.203602
0.202932
0.202263
0.201591
0.200916
0.200236
0.199549
0.198852
0.198142
0.197415
0.196665
0.195887
0.19507
0.194206
0.193279
0.192273
0.191166
0.189929
0.188526
0.186911
0.185022
0.182786
0.180111
0.176877
0.17293
0.168068
0.162032
0.15447
0.144916
0.132699
0.116927
0.096006
0.0685929
0.0294156
-0.0127432
0.225167
0.223771
0.222029
0.220956
0.220138
0.219189
0.218168
0.21719
0.216265
0.215368
0.214495
0.213649
0.212831
0.212038
0.211267
0.210516
0.209782
0.209062
0.208355
0.207657
0.206968
0.206285
0.205607
0.204934
0.204263
0.203593
0.202924
0.202255
0.201583
0.200908
0.200227
0.19954
0.198842
0.198131
0.197402
0.19665
0.195868
0.195048
0.194178
0.193245
0.19223
0.191113
0.189863
0.188444
0.186808
0.184894
0.182625
0.179908
0.176621
0.172607
0.167661
0.161515
0.15381
0.144061
0.131563
0.11536
0.0936748
0.064785
0.0219446
-0.0264808
0.22582
0.224207
0.22227
0.22116
0.220284
0.219265
0.218201
0.217196
0.216249
0.215338
0.214456
0.213606
0.212787
0.211996
0.211229
0.210482
0.209753
0.209038
0.208335
0.207641
0.206956
0.206276
0.205601
0.20493
0.20426
0.203592
0.202923
0.202254
0.201582
0.200905
0.200224
0.199534
0.198834
0.19812
0.197388
0.196633
0.195847
0.195023
0.194147
0.193208
0.192186
0.19106
0.1898
0.188369
0.186717
0.184783
0.182492
0.179746
0.176422
0.17236
0.167355
0.161131
0.153324
0.143433
0.13073
0.114205
0.0919397
0.0618147
0.0155339
-0.0411034
0.225972
0.223713
0.221957
0.221131
0.220318
0.219302
0.218249
0.217251
0.216301
0.215382
0.214492
0.213634
0.212808
0.212011
0.211238
0.210486
0.209752
0.209034
0.208327
0.207631
0.206943
0.206261
0.205584
0.204911
0.20424
0.20357
0.2029
0.202229
0.201556
0.20088
0.200197
0.199507
0.198807
0.198093
0.197361
0.196605
0.195819
0.194993
0.194116
0.193174
0.19215
0.19102
0.189756
0.18832
0.18666
0.184716
0.182412
0.179648
0.176303
0.172215
0.167176
0.160908
0.15304
0.143067
0.130242
0.11352
0.0908997
0.0599059
0.0109896
-0.0562868
0.229912
0.224497
0.222004
0.221136
0.220253
0.219163
0.218079
0.217076
0.216133
0.215226
0.214351
0.213507
0.212695
0.211911
0.211149
0.210407
0.209681
0.20897
0.20827
0.207579
0.206895
0.206218
0.205545
0.204875
0.204207
0.20354
0.202873
0.202204
0.201533
0.200858
0.200177
0.199488
0.198789
0.198075
0.197343
0.196587
0.1958
0.194973
0.194096
0.193153
0.192126
0.190994
0.189729
0.188295
0.186638
0.184693
0.182386
0.179619
0.176268
0.172174
0.167125
0.160846
0.152962
0.142964
0.130102
0.113312
0.0905602
0.0592114
0.00888061
-0.0666212
0.374078
0.292513
0.23259
0.203869
0.184563
0.166703
0.152264
0.142591
0.136547
0.132743
0.130392
0.129211
0.129026
0.129693
0.131178
0.133575
0.137234
0.142747
0.150807
0.144263
0.124586
0.0984598
0.0684535
0.034547
-0.00363088
-0.0464344
-0.094548
-0.149048
-0.211194
-0.281817
-0.358851
-0.436273
-0.50427
-0.538495
-0.52558
-0.467052
-0.383148
-0.301177
-0.227262
-0.157403
-0.0960923
-0.0471004
-0.00854695
0.0156958
0.0171013
0.0149673
0.0146532
0.0140187
0.0123548
0.0105175
0.00897736
0.00768787
0.0065525
0.00555319
0.00468937
0.00394339
0.00331669
0.0027698
0.0024845
0.00136044
0.369436
0.286529
0.227667
0.20096
0.182458
0.164952
0.150889
0.141537
0.135753
0.13217
0.129899
0.128772
0.128617
0.129296
0.130784
0.133175
0.136808
0.141988
0.148109
0.140503
0.120195
0.0938728
0.0640017
0.030486
-0.00699743
-0.0487001
-0.0951698
-0.147288
-0.205758
-0.269909
-0.33719
-0.400834
-0.455126
-0.48693
-0.482752
-0.44101
-0.376992
-0.307651
-0.236098
-0.165785
-0.103391
-0.052712
-0.0128393
0.0127135
0.0154231
0.0140034
0.0139116
0.013466
0.011993
0.0102698
0.0087887
0.00754069
0.00643918
0.00546543
0.00462025
0.00388724
0.0032711
0.00272166
0.00242611
0.00132437
0.361826
0.282159
0.225031
0.199451
0.181302
0.164022
0.150235
0.14112
0.135474
0.131757
0.129506
0.128384
0.128212
0.128859
0.1303
0.132621
0.13609
0.140679
0.145453
0.137464
0.117327
0.0912795
0.0617896
0.0288064
-0.00790858
-0.0484926
-0.0933296
-0.143016
-0.19782
-0.256802
-0.317528
-0.374888
-0.42595
-0.455089
-0.449696
-0.416123
-0.36293
-0.301723
-0.235855
-0.168195
-0.105976
-0.0553265
-0.0154326
0.0106355
0.0140518
0.0131411
0.0132611
0.0129728
0.0116477
0.0100134
0.00858136
0.00737123
0.00630166
0.00535223
0.00452506
0.00380489
0.00319881
0.00264839
0.00234215
0.0013235
0.352483
0.277705
0.221982
0.197143
0.179497
0.162602
0.14914
0.140241
0.134675
0.13114
0.128962
0.127852
0.127661
0.128267
0.12964
0.131849
0.135067
0.139016
0.142437
0.133997
0.113924
0.0881022
0.0590337
0.026716
-0.00902259
-0.0482135
-0.0910795
-0.137963
-0.188812
-0.242446
-0.29633
-0.345689
-0.387619
-0.412389
-0.412152
-0.387748
-0.344545
-0.291642
-0.233333
-0.170451
-0.109444
-0.0581981
-0.017741
0.00885523
0.0128386
0.0123917
0.0127312
0.0125803
0.0113818
0.00982486
0.00843261
0.00725131
0.00620581
0.00527423
0.00445951
0.00374736
0.00314645
0.00259237
0.00227958
0.00129326
0.34194
0.272756
0.218695
0.194529
0.177514
0.161111
0.148016