/*--------------------------------*- C++ -*----------------------------------*\
| =========                 |                                                 |
| \\      /  F ield         | OpenFOAM: The Open Source CFD Toolbox           |
|  \\    /   O peration     | Version:  2.4.0                                 |
|   \\  /    A nd           | Web:      www.OpenFOAM.org                      |
|    \\/     M anipulation  |                                                 |
\*---------------------------------------------------------------------------*/
FoamFile
{
    version     2.0;
    format      ascii;
    class       volScalarField;
    location    "1.52";
    object      p;
}
// * * * * * * * * * * * * * * * * * * * * * * * * * * * * * * * * * * * * * //

dimensions      [0 2 -2 0 0 0 0];

internalField   nonuniform List<scalar> 
6000
(
0.228359
0.222945
0.220452
0.219584
0.218701
0.217612
0.216528
0.215525
0.214582
0.213676
0.212801
0.211958
0.211147
0.210363
0.209603
0.208863
0.20814
0.207432
0.206736
0.20605
0.205373
0.204704
0.204042
0.203386
0.202736
0.202091
0.201453
0.200821
0.200196
0.19958
0.198975
0.198382
0.197805
0.197246
0.196712
0.196207
0.195739
0.195317
0.194953
0.194661
0.194461
0.194375
0.194434
0.194675
0.195146
0.195907
0.197032
0.198617
0.200778
0.203663
0.20745
0.212358
0.218649
0.226615
0.236598
0.248844
0.263767
0.280646
0.30115
0.315956
0.22442
0.222161
0.220405
0.219579
0.218766
0.217751
0.216698
0.215699
0.21475
0.213832
0.212942
0.212085
0.21126
0.210463
0.209692
0.208942
0.208211
0.207495
0.206793
0.206102
0.205421
0.204747
0.204081
0.203421
0.202768
0.20212
0.201479
0.200845
0.200218
0.1996
0.198993
0.198398
0.19782
0.19726
0.196725
0.196218
0.195749
0.195326
0.19496
0.194667
0.194464
0.194375
0.194431
0.194668
0.195133
0.195887
0.197003
0.198577
0.200724
0.20359
0.207355
0.212235
0.21849
0.226412
0.236346
0.248543
0.263443
0.280318
0.301115
0.315745
0.224268
0.222655
0.220718
0.219608
0.218732
0.217714
0.21665
0.215645
0.214698
0.213787
0.212906
0.212057
0.211239
0.210449
0.209684
0.208939
0.208211
0.207499
0.2068
0.206112
0.205433
0.204762
0.204097
0.203439
0.202787
0.202141
0.201501
0.200867
0.200241
0.199623
0.199015
0.19842
0.197841
0.19728
0.196743
0.196235
0.195763
0.195337
0.194968
0.19467
0.194463
0.194369
0.194417
0.194645
0.195099
0.195839
0.196938
0.198489
0.200607
0.203436
0.207152
0.211967
0.218136
0.225942
0.235719
0.247705
0.262327
0.278844
0.299274
0.313221
0.223615
0.222219
0.220477
0.219404
0.218587
0.217637
0.216617
0.215639
0.214714
0.213818
0.212945
0.2121
0.211282
0.210491
0.209721
0.208972
0.20824
0.207524
0.20682
0.206128
0.205445
0.20477
0.204103
0.203442
0.202788
0.202141
0.201499
0.200865
0.200238
0.199621
0.199013
0.198419
0.197839
0.197279
0.196741
0.196232
0.195759
0.195331
0.194959
0.194657
0.194444
0.194342
0.19438
0.194594
0.195031
0.195748
0.196818
0.198332
0.200402
0.203169
0.206804
0.211514
0.217545
0.225169
0.234701
0.246363
0.260542
0.276487
0.296057
0.30907
0.223058
0.221974
0.220475
0.219401
0.218564
0.217632
0.216627
0.215654
0.214731
0.213836
0.212964
0.212118
0.2113
0.210507
0.209737
0.208987
0.208254
0.207536
0.206831
0.206138
0.205454
0.204779
0.204111
0.20345
0.202795
0.202147
0.201505
0.20087
0.200242
0.199623
0.199015
0.198419
0.197837
0.197275
0.196735
0.196223
0.195747
0.195314
0.194936
0.194628
0.194405
0.194292
0.194316
0.194512
0.194926
0.195613
0.196644
0.198109
0.200115
0.2028
0.206328
0.210899
0.216747
0.224131
0.233347
0.244594
0.258215
0.273464
0.291955
0.304036
0.222589
0.221734
0.220408
0.219332
0.218482
0.217578
0.216602
0.215644
0.21473
0.213843
0.212977
0.212135
0.211319
0.210527
0.209757
0.209006
0.208271
0.207552
0.206846
0.206151
0.205465
0.204788
0.204119
0.203457
0.202801
0.202152
0.201509
0.200873
0.200244
0.199624
0.199015
0.198417
0.197835
0.19727
0.196728
0.196213
0.195733
0.195295
0.194911
0.194594
0.194361
0.194234
0.194241
0.194414
0.1948
0.19545
0.196435
0.197838
0.199767
0.202351
0.205748
0.210148
0.215773
0.222865
0.231696
0.242441
0.255397
0.269834
0.287101
0.298332
0.222186
0.221493
0.220317
0.219268
0.218417
0.21754
0.21659
0.215645
0.214737
0.213857
0.212995
0.212155
0.211339
0.210547
0.209775
0.209023
0.208287
0.207566
0.206858
0.206162
0.205475
0.204797
0.204126
0.203463
0.202806
0.202156
0.201512
0.200875
0.200246
0.199625
0.199014
0.198415
0.197831
0.197264
0.196719
0.196201
0.195716
0.195273
0.194882
0.194555
0.194311
0.194169
0.194156
0.194305
0.194658
0.195268
0.1962
0.197537
0.199378
0.201849
0.205099
0.209307
0.21468
0.221441
0.229834
0.240008
0.252203
0.265719
0.281637
0.292105
0.221833
0.221259
0.220217
0.219207
0.218359
0.2175
0.216573
0.215641
0.21474
0.213865
0.213008
0.21217
0.211356
0.210564
0.209792
0.209039
0.208302
0.20758
0.20687
0.206172
0.205484
0.204805
0.204133
0.203469
0.202811
0.20216
0.201515
0.200877
0.200247
0.199625
0.199013
0.198413
0.197826
0.197257
0.196709
0.196187
0.195697
0.195248
0.194848
0.194512
0.194254
0.194096
0.194061
0.194183
0.194502
0.195067
0.195942
0.197205
0.198951
0.2013
0.204391
0.208393
0.213497
0.219905
0.227832
0.237396
0.24878
0.261305
0.275795
0.285527
0.221523
0.221039
0.220111
0.219146
0.218303
0.21746
0.216555
0.215636
0.214743
0.213874
0.213021
0.212186
0.211372
0.21058
0.209808
0.209054
0.208316
0.207592
0.206882
0.206182
0.205493
0.204812
0.20414
0.203474
0.202816
0.202163
0.201518
0.200879
0.200247
0.199624
0.199011
0.198409
0.197821
0.197249
0.196697
0.196171
0.195676
0.19522
0.194812
0.194464
0.194192
0.194016
0.193958
0.19405
0.194331
0.194848
0.195661
0.196844
0.198488
0.200705
0.203628
0.20741
0.21223
0.218269
0.225715
0.234655
0.245212
0.256735
0.269784
0.278733
0.221249
0.220834
0.220003
0.219085
0.21825
0.217421
0.216536
0.215631
0.214745
0.213881
0.213032
0.212199
0.211387
0.210595
0.209823
0.209068
0.208329
0.207604
0.206892
0.206192
0.205501
0.20482
0.204146
0.203479
0.20282
0.202167
0.20152
0.20088
0.200248
0.199623
0.199008
0.198404
0.197814
0.197239
0.196684
0.196154
0.195653
0.195189
0.194771
0.194412
0.194125
0.193928
0.193846
0.193907
0.194147
0.194611
0.195358
0.196456
0.197991
0.200068
0.202811
0.206364
0.210886
0.216543
0.223494
0.231801
0.241534
0.252071
0.263723
0.271805
0.221006
0.220644
0.219895
0.219023
0.2182
0.217383
0.216516
0.215625
0.214746
0.213887
0.213042
0.212212
0.211401
0.210609
0.209837
0.209081
0.208341
0.207615
0.206902
0.206201
0.205509
0.204826
0.204151
0.203484
0.202823
0.202169
0.201522
0.200881
0.200247
0.199622
0.199005
0.198399
0.197806
0.197229
0.19667
0.196134
0.195627
0.195155
0.194728
0.194355
0.194052
0.193835
0.193726
0.193752
0.193949
0.194358
0.195034
0.196042
0.197462
0.199392
0.201946
0.205257
0.20947
0.214732
0.221178
0.228847
0.237762
0.247336
0.257663
0.264809
0.22079
0.22047
0.219789
0.218962
0.218154
0.217348
0.216497
0.215619
0.214747
0.213892
0.21305
0.212223
0.211413
0.210622
0.209849
0.209093
0.208352
0.207625
0.206911
0.206209
0.205516
0.204832
0.204157
0.203488
0.202827
0.202172
0.201523
0.200881
0.200246
0.199619
0.199001
0.198393
0.197798
0.197217
0.196654
0.196113
0.195599
0.195119
0.194681
0.194295
0.193974
0.193735
0.193597
0.193588
0.193739
0.19409
0.194691
0.195604
0.196903
0.198678
0.201035
0.204094
0.207987
0.212843
0.218774
0.225801
0.233907
0.242539
0.251622
0.257805
0.220598
0.220311
0.219688
0.218902
0.21811
0.217314
0.216478
0.215612
0.214747
0.213896
0.213058
0.212233
0.211425
0.210634
0.209861
0.209104
0.208363
0.207635
0.20692
0.206216
0.205523
0.204838
0.204161
0.203492
0.20283
0.202174
0.201524
0.200881
0.200245
0.199616
0.198997
0.198386
0.197788
0.197204
0.196637
0.19609
0.19557
0.195081
0.194631
0.194231
0.193892
0.193629
0.193462
0.193415
0.193517
0.193807
0.19433
0.195143
0.196315
0.197929
0.20008
0.202879
0.206443
0.210883
0.216292
0.222673
0.229979
0.23769
0.245605
0.250838
0.220427
0.220167
0.219592
0.218845
0.218068
0.217283
0.216459
0.215604
0.214747
0.2139
0.213065
0.212243
0.211435
0.210645
0.209872
0.209114
0.208372
0.207644
0.206928
0.206223
0.205528
0.204843
0.204165
0.203495
0.202832
0.202175
0.201525
0.20088
0.200243
0.199613
0.198991
0.198379
0.197778
0.19719
0.196618
0.196066
0.195538
0.19504
0.194579
0.194163
0.193805
0.193517
0.193319
0.193232
0.193285
0.19351
0.193951
0.194661
0.195701
0.197147
0.199086
0.201617
0.204842
0.208857
0.213737
0.219472
0.225988
0.232798
0.239619
0.243937
0.220275
0.220037
0.219503
0.21879
0.21803
0.217254
0.216441
0.215597
0.214746
0.213903
0.213071
0.212251
0.211445
0.210655
0.209881
0.209124
0.208381
0.207652
0.206935
0.206229
0.205534
0.204847
0.204169
0.203498
0.202834
0.202176
0.201525
0.200879
0.200241
0.199609
0.198985
0.198371
0.197767
0.197175
0.196599
0.196041
0.195505
0.194997
0.194523
0.194092
0.193713
0.193401
0.19317
0.193042
0.193042
0.193201
0.193557
0.194159
0.195062
0.196335
0.198056
0.20031
0.203189
0.206772
0.211118
0.216205
0.221941
0.227871
0.233663
0.237113
0.220142
0.219921
0.219421
0.218738
0.217994
0.217227
0.216425
0.21559
0.214745
0.213906
0.213077
0.212258
0.211453
0.210663
0.20989
0.209132
0.208389
0.207659
0.206941
0.206235
0.205539
0.204851
0.204172
0.2035
0.202835
0.202177
0.201524
0.200878
0.200238
0.199605
0.198979
0.198362
0.197755
0.197159
0.196578
0.196014
0.19547
0.194952
0.194465
0.194018
0.193618
0.193279
0.193015
0.192844
0.19279
0.19288
0.193148
0.193639
0.194402
0.195496
0.196992
0.198964
0.201488
0.204633
0.208441
0.212879
0.217845
0.222917
0.227738
0.230368
0.220024
0.219817
0.219346
0.21869
0.217962
0.217203
0.216409
0.215583
0.214744
0.213908
0.213081
0.212264
0.21146
0.210671
0.209898
0.209139
0.208396
0.207665
0.206947
0.20624
0.205543
0.204855
0.204175
0.203502
0.202837
0.202177
0.201524
0.200876
0.200235
0.1996
0.198972
0.198353
0.197742
0.197143
0.196556
0.195985
0.195434
0.194905
0.194405
0.193941
0.19352
0.193154
0.192855
0.19264
0.192529
0.192548
0.192727
0.193103
0.193721
0.194633
0.195898
0.197581
0.199746
0.202447
0.205712
0.209503
0.213708
0.217939
0.221841
0.223699
0.219922
0.219727
0.219279
0.218647
0.217932
0.217182
0.216395
0.215576
0.214742
0.21391
0.213085
0.21227
0.211467
0.210678
0.209905
0.209146
0.208402
0.207671
0.206952
0.206244
0.205546
0.204858
0.204177
0.203504
0.202837
0.202177
0.201522
0.200874
0.200231
0.199595
0.198965
0.198343
0.197729
0.197125
0.196534
0.195956
0.195396
0.194857
0.194343
0.193861
0.193418
0.193024
0.192689
0.192429
0.192261
0.192207
0.192293
0.192552
0.193022
0.193747
0.194778
0.196167
0.197967
0.200218
0.202938
0.20608
0.209533
0.212942
0.215967
0.217097
0.219834
0.219649
0.21922
0.218608
0.217906
0.217163
0.216383
0.21557
0.214741
0.213911
0.213088
0.212275
0.211472
0.210684
0.20991
0.209152
0.208407
0.207675
0.206956
0.206248
0.20555
0.20486
0.204179
0.203505
0.202838
0.202176
0.201521
0.200871
0.200227
0.199589
0.198957
0.198332
0.197715
0.197107
0.19651
0.195926
0.195357
0.194806
0.194279
0.193779
0.193314
0.192891
0.19252
0.192213
0.191986
0.191857
0.191849
0.191989
0.192308
0.192843
0.193634
0.194725
0.196155
0.197953
0.200124
0.202619
0.205326
0.207927
0.210113
0.210551
0.21976
0.219583
0.21917
0.218574
0.217884
0.217147
0.216372
0.215565
0.21474
0.213913
0.213091
0.212278
0.211477
0.210689
0.209915
0.209157
0.208411
0.20768
0.20696
0.206251
0.205552
0.204862
0.20418
0.203506
0.202837
0.202175
0.201519
0.200868
0.200223
0.199583
0.198949
0.198321
0.197701
0.197088
0.196486
0.195894
0.195317
0.194755
0.194213
0.193695
0.193207
0.192754
0.192346
0.191992
0.191706
0.191501
0.191396
0.191414
0.19158
0.191921
0.192471
0.19326
0.194316
0.195656
0.197276
0.199123
0.20109
0.202896
0.204272
0.20405
0.2197
0.219528
0.219128
0.218546
0.217864
0.217133
0.216363
0.21556
0.214739
0.213914
0.213093
0.212282
0.211481
0.210693
0.20992
0.20916
0.208415
0.207683
0.206963
0.206253
0.205554
0.204864
0.204181
0.203506
0.202837
0.202174
0.201517
0.200865
0.200218
0.199576
0.19894
0.198309
0.197686
0.197069
0.196461
0.195862
0.195276
0.194702
0.194146
0.19361
0.193098
0.192615
0.192169
0.191768
0.19142
0.191138
0.190936
0.190831
0.190841
0.190987
0.191291
0.191774
0.192453
0.193333
0.1944
0.195597
0.196829
0.197848
0.198436
0.197579
0.219651
0.219484
0.219094
0.218523
0.217849
0.217122
0.216356
0.215556
0.214738
0.213914
0.213095
0.212284
0.211484
0.210696
0.209923
0.209164
0.208418
0.207685
0.206965
0.206255
0.205555
0.204864
0.204181
0.203506
0.202836
0.202172
0.201514
0.200861
0.200213
0.199569
0.198931
0.198298
0.19767
0.197049
0.196435
0.19583
0.195234
0.194649
0.194078
0.193523
0.192987
0.192474
0.19199
0.19154
0.19113
0.190771
0.19047
0.19024
0.190093
0.190041
0.190098
0.190274
0.190573
0.190989
0.1915
0.192048
0.192545
0.192783
0.192599
0.191124
0.219616
0.219452
0.219069
0.218505
0.217837
0.217114
0.21635
0.215553
0.214737
0.213915
0.213096
0.212286
0.211486
0.210699
0.209925
0.209166
0.20842
0.207687
0.206966
0.206256
0.205556
0.204865
0.204181
0.203505
0.202835
0.20217
0.201511
0.200857
0.200207
0.199562
0.198921
0.198285
0.197654
0.197029
0.196409
0.195796
0.195191
0.194594
0.194008
0.193434
0.192874
0.192332
0.191809
0.191309
0.190838
0.190399
0.189999
0.189644
0.189338
0.189088
0.188896
0.188762
0.188679
0.18863
0.188582
0.188478
0.18824
0.187699
0.186752
0.184668
0.219592
0.21943
0.219052
0.218493
0.217829
0.217108
0.216346
0.215551
0.214736
0.213915
0.213097
0.212287
0.211488
0.2107
0.209927
0.209167
0.208421
0.207688
0.206967
0.206257
0.205556
0.204865
0.204181
0.203504
0.202833
0.202168
0.201508
0.200852
0.200201
0.199554
0.198911
0.198273
0.197638
0.197008
0.196382
0.195762
0.195148
0.194539
0.193938
0.193345
0.192761
0.192188
0.191626
0.191077
0.190543
0.190026
0.189526
0.189044
0.188579
0.188129
0.187688
0.187243
0.186776
0.186259
0.185652
0.184893
0.183917
0.182594
0.180886
0.178196
0.21958
0.219419
0.219043
0.218488
0.217826
0.217105
0.216344
0.21555
0.214736
0.213915
0.213098
0.212288
0.211488
0.210701
0.209927
0.209168
0.208422
0.207689
0.206967
0.206257
0.205556
0.204864
0.20418
0.203502
0.202831
0.202165
0.201504
0.200848
0.200195
0.199546
0.198901
0.19826
0.197622
0.196987
0.196356
0.195728
0.195104
0.194484
0.193868
0.193255
0.192647
0.192043
0.191442
0.190844
0.190247
0.189651
0.18905
0.188442
0.187818
0.187168
0.186477
0.18572
0.18487
0.183884
0.182713
0.181296
0.179577
0.177466
0.174992
0.17169
0.21958
0.219419
0.219043
0.218488
0.217825
0.217105
0.216344
0.21555
0.214736
0.213915
0.213098
0.212288
0.211488
0.210701
0.209927
0.209168
0.208421
0.207688
0.206967
0.206256
0.205555
0.204863
0.204178
0.2035
0.202829
0.202162
0.2015
0.200843
0.200189
0.199538
0.198891
0.198246
0.197605
0.196965
0.196328
0.195693
0.19506
0.194428
0.193797
0.193165
0.192533
0.191898
0.191258
0.19061
0.189951
0.189275
0.188575
0.187841
0.187058
0.186208
0.185266
0.184199
0.182964
0.181508
0.179772
0.177692
0.175223
0.172313
0.169058
0.165132
0.219592
0.21943
0.219052
0.218493
0.217829
0.217108
0.216346
0.215551
0.214736
0.213915
0.213097
0.212287
0.211487
0.2107
0.209926
0.209166
0.20842
0.207687
0.206965
0.206255
0.205554
0.204861
0.204176
0.203498
0.202826
0.202159
0.201496
0.200837
0.200182
0.19953
0.19888
0.198233
0.197588
0.196944
0.196301
0.195659
0.195016
0.194372
0.193726
0.193075
0.192419
0.191753
0.191074
0.190378
0.189656
0.188901
0.188102
0.187241
0.1863
0.185252
0.184061
0.182683
0.181064
0.179137
0.176834
0.174085
0.170856
0.167131
0.163077
0.158504
0.219616
0.219452
0.219068
0.218505
0.217837
0.217114
0.21635
0.215553
0.214736
0.213914
0.213096
0.212286
0.211486
0.210698
0.209924
0.209165
0.208418
0.207685
0.206963
0.206253
0.205552
0.204859
0.204174
0.203495
0.202823
0.202155
0.201492
0.200832
0.200175
0.199521
0.19887
0.19822
0.197571
0.196922
0.196274
0.195624
0.194972
0.194316
0.193655
0.192986
0.192305
0.191609
0.190891
0.190146
0.189363
0.18853
0.187631
0.186646
0.185547
0.184301
0.182863
0.181176
0.179174
0.176777
0.173904
0.170481
0.166479
0.161918
0.157035
0.151786
0.219651
0.219484
0.219094
0.218522
0.217849
0.217122
0.216355
0.215556
0.214737
0.213914
0.213095
0.212284
0.211483
0.210695
0.209921
0.209162
0.208416
0.207682
0.206961
0.20625
0.205549
0.204856
0.204171
0.203492
0.202819
0.202151
0.201487
0.200826
0.200168
0.199513
0.198859
0.198206
0.197554
0.196901
0.196246
0.195589
0.194928
0.194261
0.193585
0.192897
0.192192
0.191466
0.19071
0.189916
0.189072
0.188161
0.187165
0.186056
0.184802
0.18336
0.181676
0.179683
0.177299
0.174433
0.170988
0.166884
0.162093
0.156672
0.150923
0.144958
0.219699
0.219528
0.219128
0.218545
0.217864
0.217133
0.216363
0.21556
0.214738
0.213913
0.213093
0.212281
0.21148
0.210692
0.209918
0.209158
0.208412
0.207679
0.206958
0.206247
0.205546
0.204853
0.204168
0.203489
0.202816
0.202147
0.201482
0.20082
0.200161
0.199504
0.198848
0.198192
0.197536
0.196879
0.196219
0.195555
0.194885
0.194206
0.193515
0.192808
0.19208
0.191324
0.190531
0.18969
0.188785
0.187798
0.186705
0.185474
0.184066
0.182431
0.180505
0.178208
0.175446
0.172111
0.168093
0.163298
0.157703
0.151391
0.144729
0.137996
0.21976
0.219582
0.21917
0.218574
0.217883
0.217146
0.216372
0.215564
0.214739
0.213912
0.21309
0.212277
0.211476
0.210687
0.209913
0.209154
0.208408
0.207675
0.206954
0.206243
0.205542
0.20485
0.204164
0.203485
0.202811
0.202142
0.201477
0.200814
0.200154
0.199495
0.198837
0.198178
0.197519
0.196857
0.196192
0.195521
0.194842
0.194151
0.193446
0.192721
0.19197
0.191185
0.190355
0.189466
0.188502
0.18744
0.186252
0.184901
0.183343
0.181517
0.179351
0.176754
0.173617
0.169816
0.165223
0.159732
0.153311
0.146072
0.138441
0.13088
0.219834
0.219649
0.21922
0.218608
0.217906
0.217163
0.216382
0.21557
0.214741
0.213911
0.213087
0.212273
0.211471
0.210682
0.209908
0.209148
0.208403
0.20767
0.206949
0.206239
0.205538
0.204846
0.20416
0.203481
0.202807
0.202137
0.201471
0.200808
0.200146
0.199486
0.198826
0.198165
0.197502
0.196836
0.196165
0.195487
0.194799
0.194098
0.193379
0.192636
0.191862
0.191048
0.190181
0.189247
0.188225
0.187089
0.185808
0.18434
0.182633
0.180621
0.17822
0.175327
0.171819
0.167555
0.162386
0.15619
0.148922
0.140716
0.132048
0.123583
0.219922
0.219727
0.219279
0.218646
0.217932
0.217182
0.216395
0.215576
0.214742
0.213909
0.213084
0.212268
0.211465
0.210676
0.209902
0.209142
0.208397
0.207664
0.206944
0.206234
0.205533
0.204841
0.204156
0.203477
0.202802
0.202132
0.201466
0.200801
0.200139
0.199477
0.198814
0.198151
0.197485
0.196815
0.196139
0.195454
0.194757
0.194045
0.193312
0.192552
0.191756
0.190914
0.190012
0.189033
0.187954
0.186746
0.185374
0.183792
0.18194
0.179745
0.177114
0.173931
0.170057
0.165334
0.15959
0.15268
0.144542
0.135323
0.125537
0.11608
0.220024
0.219817
0.219346
0.21869
0.217962
0.217203
0.216409
0.215582
0.214743
0.213907
0.21308
0.212263
0.211458
0.210669
0.209894
0.209135
0.20839
0.207658
0.206938
0.206228
0.205528
0.204836
0.204151
0.203472
0.202797
0.202127
0.20146
0.200795
0.200131
0.199467
0.198803
0.198138
0.197468
0.196794
0.196113
0.195421
0.194716
0.193994
0.193247
0.19247
0.191653
0.190783
0.189847
0.188824
0.18769
0.186412
0.184952
0.183258
0.181265
0.178892
0.176036
0.172569
0.168337
0.163159
0.156841
0.149211
0.140177
0.129895
0.118897
0.108343
0.220141
0.21992
0.21942
0.218738
0.217994
0.217227
0.216424
0.215589
0.214744
0.213905
0.213075
0.212256
0.211451
0.210661
0.209886
0.209127
0.208383
0.207651
0.206931
0.206222
0.205522
0.204831
0.204146
0.203467
0.202792
0.202121
0.201454
0.200788
0.200123
0.199458
0.198792
0.198124
0.197452
0.196774
0.196087
0.19539
0.194677
0.193943
0.193184
0.19239
0.191552
0.190656
0.189687
0.188622
0.187434
0.186089
0.184543
0.18274
0.180611
0.178065
0.174991
0.171247
0.166663
0.161037
0.154148
0.145791
0.135836
0.124434
0.112116
0.100343
0.220275
0.220037
0.219503
0.218789
0.21803
0.217253
0.216441
0.215596
0.214745
0.213902
0.21307
0.212249
0.211442
0.210652
0.209877
0.209119
0.208374
0.207643
0.206924
0.206215
0.205516
0.204825
0.20414
0.203461
0.202787
0.202116
0.201447
0.200781
0.200115
0.199449
0.198781
0.198111
0.197436
0.196754
0.196062
0.195359
0.194638
0.193895
0.193123
0.192313
0.191455
0.190534
0.189532
0.188426
0.187187
0.185776
0.184148
0.182241
0.17998
0.177267
0.173981
0.169968
0.165041
0.158976
0.15152
0.142431
0.131527
0.118947
0.105184
0.0920509
0.220427
0.220166
0.219592
0.218844
0.218068
0.217282
0.216458
0.215604
0.214746
0.213899
0.213064
0.212241
0.211433
0.210642
0.209867
0.209109
0.208365
0.207635
0.206916
0.206208
0.205509
0.204818
0.204134
0.203455
0.202781
0.20211
0.201441
0.200774
0.200107
0.19944
0.198771
0.198098
0.19742
0.196734
0.196038
0.195328
0.1946
0.193848
0.193064
0.192239
0.191361
0.190416
0.189383
0.188238
0.186949
0.185476
0.183768
0.181761
0.179373
0.176499
0.173009
0.168737
0.163477
0.156983
0.148966
0.139142
0.127264
0.113443
0.0980897
0.0834332
0.220597
0.220311
0.219688
0.218902
0.218109
0.217314
0.216477
0.215611
0.214746
0.213895
0.213057
0.212231
0.211422
0.210631
0.209856
0.209098
0.208355
0.207625
0.206907
0.2062
0.205502
0.204812
0.204128
0.203449
0.202775
0.202104
0.201435
0.200767
0.200099
0.199431
0.19876
0.198085
0.197404
0.196715
0.196015
0.195299
0.194564
0.193802
0.193007
0.192167
0.191271
0.190302
0.18924
0.188058
0.186722
0.185189
0.183406
0.181302
0.178793
0.175766
0.17208
0.167558
0.161976
0.155064
0.146495
0.135937
0.123061
0.107933
0.0908268
0.0744573
0.22079
0.22047
0.219789
0.218962
0.218153
0.217347
0.216496
0.215618
0.214746
0.21389
0.213049
0.212221
0.21141
0.210619
0.209844
0.209087
0.208344
0.207615
0.206898
0.206192
0.205494
0.204804
0.204121
0.203443
0.202768
0.202097
0.201428
0.20076
0.200091
0.199422
0.198749
0.198073
0.197389
0.196697
0.195992
0.195271
0.194529
0.193759
0.192952
0.192099
0.191185
0.190194
0.189104
0.187887
0.186506
0.184916
0.183061
0.180866
0.178241
0.175068
0.171196
0.166435
0.160544
0.153227
0.144119
0.13283
0.118934
0.102434
0.08339
0.0650892
0.221006
0.220644
0.219895
0.219023
0.2182
0.217383
0.216516
0.215624
0.214745
0.213885
0.21304
0.212209
0.211398
0.210605
0.209831
0.209074
0.208332
0.207604
0.206888
0.206183
0.205486
0.204797
0.204114
0.203436
0.202762
0.202091
0.201421
0.200753
0.200084
0.199413
0.198739
0.19806
0.197375
0.196679
0.19597
0.195244
0.194496
0.193717
0.1929
0.192034
0.191104
0.190092
0.188975
0.187725
0.186301
0.184658
0.182735
0.180454
0.17772
0.174408
0.170359
0.165371
0.159187
0.151482
0.141849
0.129838
0.114905
0.0969663
0.0757786
0.0552943
0.221249
0.220834
0.220002
0.219084
0.21825
0.21742
0.216535
0.21563
0.214744
0.213879
0.21303
0.212197
0.211384
0.210591
0.209817
0.209061
0.20832
0.207593
0.206878
0.206173
0.205477
0.204789
0.204106
0.203429
0.202755
0.202084
0.201414
0.200745
0.200076
0.199404
0.198729
0.198049
0.197361
0.196662
0.19595
0.195219
0.194464
0.193678
0.192851
0.191973
0.191027
0.189996
0.188854
0.187572
0.186109
0.184416
0.182428
0.180067
0.177231
0.173789
0.169574
0.164372
0.157909
0.149834
0.139695
0.126976
0.110996
0.0915583
0.0679987
0.0450378
0.221523
0.221039
0.220111
0.219146
0.218302
0.217459
0.216554
0.215635
0.214742
0.213872
0.213018
0.212183
0.211369
0.210576
0.209802
0.209047
0.208306
0.20758
0.206866
0.206163
0.205468
0.20478
0.204098
0.203422
0.202748
0.202077
0.201408
0.200738
0.200068
0.199396
0.198719
0.198037
0.197347
0.196646
0.19593
0.195195
0.194434
0.193641
0.192805
0.191915
0.190955
0.189905
0.188741
0.18743
0.185931
0.18419
0.182143
0.179707
0.176775
0.173212
0.168842
0.163441
0.156716
0.148292
0.137671
0.124265
0.107236
0.0862447
0.0600659
0.0342858
0.221833
0.221259
0.220216
0.219207
0.218358
0.2175
0.216573
0.21564
0.214739
0.213864
0.213006
0.212168
0.211352
0.210559
0.209786
0.209031
0.208292
0.207567
0.206854
0.206152
0.205458
0.204771
0.20409
0.203414
0.202741
0.20207
0.201401
0.200731
0.20006
0.199387
0.19871
0.198026
0.197334
0.19663
0.195911
0.195172
0.194406
0.193606
0.192762
0.191861
0.190888
0.189822
0.188636
0.187299
0.185765
0.183982
0.18188
0.179375
0.176355
0.17268
0.168168
0.162582
0.155615
0.146865
0.135789
0.121724
0.103658
0.0810705
0.0520109
0.0230034
0.222185
0.221493
0.220317
0.219267
0.218417
0.217539
0.216589
0.215644
0.214736
0.213855
0.212993
0.212152
0.211335
0.210542
0.209769
0.209015
0.208277
0.207553
0.206842
0.20614
0.205448
0.204762
0.204082
0.203406
0.202734
0.202063
0.201394
0.200724
0.200053
0.199379
0.1987
0.198016
0.197322
0.196616
0.195894
0.195151
0.19438
0.193574
0.192722
0.191812
0.190827
0.189745
0.188541
0.187178
0.185614
0.183792
0.18164
0.179072
0.175972
0.172195
0.167553
0.161799
0.154611
0.145563
0.134065
0.11938
0.100304
0.0760957
0.0438923
0.0111589
0.222589
0.221734
0.220408
0.219332
0.218482
0.217578
0.216601
0.215643
0.214728
0.213842
0.212975
0.212132
0.211315
0.210522
0.20975
0.208997
0.208261
0.207539
0.206829
0.206129
0.205437
0.204753
0.204074
0.203398
0.202726
0.202056
0.201387
0.200717
0.200046
0.199371
0.198692
0.198006
0.19731
0.196602
0.195878
0.195131
0.194356
0.193545
0.192686
0.191767
0.190771
0.189676
0.188454
0.18707
0.185479
0.183621
0.181425
0.178799
0.175628
0.171761
0.167002
0.161097
0.15371
0.144393
0.132513
0.117255
0.0972192
0.0713913
0.0358011
-0.00126215
0.223058
0.221974
0.220474
0.219401
0.218563
0.217631
0.216626
0.215653
0.214729
0.213834
0.212962
0.212115
0.211296
0.210502
0.209731
0.208978
0.208243
0.207522
0.206814
0.206116
0.205426
0.204742
0.204064
0.20339
0.202719
0.202049
0.20138
0.20071
0.200039
0.199364
0.198684
0.197996
0.1973
0.19659
0.195863
0.195113
0.194334
0.193518
0.192653
0.191727
0.190721
0.189613
0.188376
0.186974
0.185358
0.18347
0.181234
0.178559
0.175326
0.171378
0.166517
0.16048
0.152919
0.143365
0.131148
0.115377
0.0944563
0.0670439
0.0278678
-0.0142896
0.223615
0.222219
0.220477
0.219404
0.218586
0.217636
0.216616
0.215638
0.214712
0.213816
0.212943
0.212096
0.211278
0.210485
0.209715
0.208964
0.20823
0.20751
0.206802
0.206105
0.205415
0.204733
0.204055
0.203381
0.20271
0.202041
0.201372
0.200702
0.20003
0.199355
0.198675
0.197987
0.19729
0.196578
0.19585
0.195098
0.194316
0.193496
0.192626
0.191693
0.190678
0.18956
0.188311
0.186892
0.185256
0.183342
0.181073
0.178356
0.175069
0.171055
0.166109
0.159964
0.152259
0.14251
0.130012
0.113809
0.0921251
0.0632362
0.020397
-0.0280267
0.224268
0.222655
0.220717
0.219608
0.218731
0.217713
0.216649
0.215644
0.214697
0.213785
0.212903
0.212053
0.211235
0.210444
0.209677
0.20893
0.2082
0.207485
0.206782
0.206089
0.205403
0.204724
0.204049
0.203377
0.202708
0.202039
0.201371
0.200701
0.200029
0.199353
0.198671
0.197982
0.197282
0.196568
0.195836
0.195081
0.194295
0.19347
0.192595
0.191656
0.190634
0.189508
0.188248
0.186816
0.185165
0.183231
0.18094
0.178194
0.17487
0.170809
0.165803
0.15958
0.151772
0.141882
0.129179
0.112655
0.0903901
0.0602659
0.0139865
-0.0426488
0.22442
0.222161
0.220404
0.219579
0.218766
0.21775
0.216697
0.215698
0.214748
0.21383
0.21294
0.212081
0.211255
0.210458
0.209685
0.208934
0.2082
0.207481
0.206775
0.206079
0.205391
0.204709
0.204032
0.203359
0.202687
0.202018
0.201348
0.200677
0.200004
0.199327
0.198645
0.197955
0.197255
0.196541
0.195809
0.195053
0.194266
0.19344
0.192564
0.191622
0.190598
0.189468
0.188204
0.186768
0.185108
0.183164
0.180859
0.178096
0.174751
0.170664
0.165624
0.159356
0.151489
0.141516
0.128691
0.111969
0.0893501
0.0583572
0.00944239
-0.0578315
0.228359
0.222945
0.220451
0.219584
0.2187
0.217611
0.216527
0.215524
0.214581
0.213674
0.212798
0.211955
0.211143
0.210358
0.209596
0.208854
0.208129
0.207417
0.206717
0.206026
0.205343
0.204666
0.203993
0.203323
0.202655
0.201988
0.201321
0.200652
0.199981
0.199306
0.198625
0.197936
0.197236
0.196523
0.19579
0.195035
0.194248
0.193421
0.192543
0.1916
0.190574
0.189442
0.188176
0.186742
0.185086
0.183141
0.180834
0.178067
0.174716
0.170622
0.165574
0.159294
0.151411
0.141413
0.128551
0.111762
0.0890105
0.0576626
0.00733343
-0.0681652
0.37254
0.290967
0.231039
0.202316
0.183011
0.16515
0.150711
0.141038
0.134995
0.131191
0.128842
0.127663
0.12748
0.128151
0.129643
0.132048
0.135719
0.141249
0.149332
0.14281
0.123154
0.0970482
0.0670713
0.0332093
-0.00490302
-0.0476133
-0.0955969
-0.149921
-0.211841
-0.282181
-0.35889
-0.435985
-0.503718
-0.537884
-0.525257
-0.467296
-0.383779
-0.301735
-0.227383
-0.156831
-0.0946438
-0.0449047
-0.00599796
0.0180735
0.0188614
0.0161871
0.0155396
0.0146969
0.0128647
0.0108861
0.00924022
0.00787565
0.00668376
0.00563884
0.0047377
0.00396147
0.00331092
0.00274446
0.00245913
0.00130412
0.367897
0.284983
0.226116
0.199408
0.180906
0.1634
0.149336
0.139984
0.1342
0.130618
0.128349
0.127223
0.127071
0.127755
0.129248
0.131648
0.135293
0.14049
0.146635
0.139052
0.118764
0.0924637
0.062624
0.0291555
-0.00825911
-0.0498647
-0.0962009
-0.148141
-0.206381
-0.270255
-0.337229
-0.40058
-0.454633
-0.486337
-0.48239
-0.441105
-0.377452
-0.308138
-0.23632
-0.165351
-0.102068
-0.0505975
-0.0103255
0.0150959
0.0172263
0.015274
0.0148357
0.0141722
0.0125268
0.0106594
0.00906938
0.00774341
0.00658326
0.00556234
0.00467858
0.0039142
0.00327327
0.00270307
0.0024053
0.00126186
0.360286
0.280613
0.223479
0.197899
0.17975
0.16247
0.148683
0.139567
0.133921
0.130206
0.127955
0.126836
0.126666
0.127317
0.128764
0.131094
0.134575
0.13918
0.143976
0.13601
0.115894
0.0898708
0.0604142
0.0274808
-0.00916206
-0.049645
-0.0943436
-0.143847
-0.198416
-0.257118
-0.317536
-0.374599
-0.425412
-0.454459
-0.44923
-0.416069
-0.363232
-0.302094
-0.235999
-0.167765
-0.104712
-0.053278
-0.0129619
0.0130039
0.0158759
0.0144409
0.0142054
0.0136945
0.0121965
0.010417
0.00887408
0.00758427
0.0064549
0.00545745
0.00459093
0.00383868
0.0032071
0.00263466
0.00232384
0.00126478
0.35094
0.276158
0.220431
0.195591
0.177945
0.16105
0.147587
0.138688
0.133122
0.129588
0.127411
0.126303
0.126115
0.126724
0.128104
0.130321
0.13355
0.137515
0.140957
0.13254
0.112489
0.0866923
0.0576589
0.025394
-0.0102684
-0.0493528
-0.0920733
-0.138765
-0.189371
-0.242715
-0.296283
-0.345332
-0.386994
-0.411628
-0.411535
-0.387494
-0.34466
-0.291878
-0.233392
-0.170034
-0.108279
-0.0562609
-0.0153455
0.0111801
0.0146638
0.0137075
0.0136865
0.0133101
0.0119397
0.0102378
0.00873375
0.0074717
0.0063657
0.00538557
0.00453099
0.00378624
0.00315921
0.00258215
0.00226184
0.00123499
0.340395
0.271209
0.217144
0.192976
0.175961
0.159558