/*--------------------------------*- C++ -*----------------------------------*\
| =========                 |                                                 |
| \\      /  F ield         | OpenFOAM: The Open Source CFD Toolbox           |
|  \\    /   O peration     | Version:  2.4.0                                 |
|   \\  /    A nd           | Web:      www.OpenFOAM.org                      |
|    \\/     M anipulation  |                                                 |
\*---------------------------------------------------------------------------*/
FoamFile
{
    version     2.0;
    format      ascii;
    class       volScalarField;
    location    "1.9";
    object      p;
}
// * * * * * * * * * * * * * * * * * * * * * * * * * * * * * * * * * * * * * //

dimensions      [0 2 -2 0 0 0 0];

internalField   nonuniform List<scalar> 
6000
(
0.0858187
0.269108
0.286472
0.311612
0.317403
0.32638
0.329236
0.333505
0.3354
0.337751
0.33927
0.341146
0.343008
0.344945
0.34603
0.345972
0.343866
0.339831
0.333973
0.327239
0.321297
0.318305
0.319575
0.326477
0.340361
0.362165
0.39051
0.42207
0.452462
0.478174
0.497136
0.509244
0.515206
0.516444
0.514312
0.510176
0.505128
0.499881
0.495172
0.491177
0.487651
0.485112
0.482407
0.480737
0.478028
0.475932
0.471826
0.467767
0.460643
0.452968
0.440838
0.427774
0.408553
0.388431
0.35886
0.33085
0.281635
0.249534
0.147947
0.157582
0.0998826
0.268628
0.286438
0.311456
0.317316
0.326284
0.32918
0.333448
0.335366
0.337719
0.339243
0.341105
0.342959
0.344895
0.345997
0.345979
0.343938
0.339966
0.334162
0.327448
0.321483
0.318436
0.319632
0.32644
0.340242
0.361976
0.390258
0.421813
0.452226
0.477971
0.49697
0.509115
0.515117
0.516383
0.514266
0.510136
0.505088
0.499844
0.495133
0.491134
0.487606
0.485055
0.482348
0.480666
0.477947
0.47583
0.471704
0.46761
0.460453
0.452725
0.440545
0.427409
0.408117
0.387894
0.358267
0.330073
0.280861
0.24832
0.147111
0.155068
0.112342
0.268444
0.286437
0.311344
0.317239
0.326211
0.329129
0.333403
0.335334
0.337691
0.339215
0.34107
0.34291
0.344848
0.345971
0.345999
0.344026
0.340121
0.334367
0.327662
0.321655
0.31853
0.319626
0.326309
0.340042
0.361694
0.389896
0.421471
0.451938
0.477754
0.496805
0.509009
0.515055
0.516341
0.514232
0.510102
0.505054
0.4998
0.495084
0.491084
0.487552
0.484996
0.482285
0.480593
0.477862
0.475727
0.471579
0.467456
0.460266
0.452494
0.440269
0.427072
0.407723
0.387415
0.357718
0.329373
0.280119
0.247238
0.146208
0.152818
0.122405
0.268429
0.286495
0.311261
0.317181
0.326153
0.329086
0.333365
0.335306
0.337667
0.339188
0.341034
0.342863
0.344806
0.345955
0.346037
0.344133
0.34029
0.33457
0.327848
0.321767
0.318538
0.3195
0.326042
0.33975
0.361218
0.389395
0.42103
0.451601
0.477509
0.496633
0.50893
0.515026
0.516326
0.514213
0.510073
0.505018
0.499749
0.495025
0.491025
0.487491
0.484931
0.482216
0.480518
0.477776
0.475628
0.471457
0.46731
0.460087
0.452277
0.440006
0.426753
0.407345
0.38696
0.357195
0.328712
0.279417
0.246239
0.145359
0.150904
0.130893
0.268471
0.286596
0.311209
0.317141
0.326104
0.32905
0.333332
0.335282
0.337644
0.339161
0.340998
0.342816
0.34477
0.345951
0.346092
0.344263
0.340476
0.334771
0.327999
0.32181
0.318445
0.31924
0.325639
0.339337
0.360542
0.388712
0.420432
0.451131
0.477163
0.496409
0.508833
0.515006
0.516326
0.514203
0.510044
0.504972
0.499692
0.494952
0.490953
0.487423
0.484857
0.482141
0.48044
0.477687
0.475528
0.471335
0.467165
0.459909
0.45206
0.439743
0.426436
0.406967
0.386505
0.35668
0.328056
0.278732
0.245269
0.14455
0.149191
0.138411
0.268518
0.286732
0.311181
0.317118
0.326066
0.32902
0.333303
0.335262
0.337624
0.339132
0.34096
0.342767
0.344735
0.345959
0.346166
0.344417
0.340679
0.334967
0.328114
0.321785
0.318253
0.31886
0.325174
0.338722
0.359658
0.387803
0.419618
0.450476
0.4767
0.496118
0.508681
0.51496
0.516321
0.514191
0.51001
0.504914
0.499628
0.494868
0.490867
0.487345
0.484774
0.48206
0.480356
0.477593
0.475424
0.471208
0.467015
0.459726
0.451839
0.439474
0.426112
0.406583
0.386044
0.356162
0.327397
0.278052
0.244286
0.143791
0.1476
0.145202
0.268553
0.286903
0.311171
0.317113
0.326037
0.328997
0.333278
0.335244
0.337604
0.339102
0.34092
0.342716
0.344703
0.345977
0.346262
0.344598
0.340899
0.335158
0.328195
0.3217
0.317982
0.318411
0.324657
0.337888
0.35858
0.386674
0.41861
0.449688
0.476166
0.495786
0.508473
0.514867
0.516293
0.514168
0.509965
0.504843
0.499551
0.494772
0.490769
0.487258
0.484682
0.481973
0.480266
0.477492
0.475315
0.471075
0.466859
0.459535
0.45161
0.439196
0.42578
0.40619
0.385576
0.355641
0.326735
0.277375
0.243294
0.143076
0.146113
0.151396
0.268571
0.287109
0.311176
0.317123
0.326018
0.32898
0.333259
0.33523
0.337587
0.339071
0.34088
0.342663
0.344674
0.346005
0.346384
0.344806
0.341136
0.335345
0.32825
0.321576
0.317674
0.317928
0.324021
0.336915
0.357356
0.385411
0.417508
0.448855
0.475619
0.49544
0.508233
0.514727
0.516227
0.514121
0.509905
0.504757
0.499459
0.494668
0.490658
0.487162
0.484581
0.481881
0.48017
0.477386
0.475199
0.470934
0.466695
0.459335
0.451372
0.43891
0.42544
0.405789
0.385104
0.355115
0.32607
0.276699
0.242315
0.14239
0.144716
0.15711
0.268575
0.287351
0.311195
0.317148
0.326008
0.32897
0.333244
0.33522
0.337572
0.339039
0.340838
0.342609
0.344649
0.346044
0.346532
0.345041
0.341389
0.335529
0.328288
0.321434
0.317324
0.317403
0.323279
0.33587
0.356054
0.384094
0.416386
0.448027
0.47508
0.495095
0.507987
0.514559
0.516123
0.514044
0.509822
0.504653
0.499349
0.494555
0.490537
0.487057
0.484472
0.481784
0.480069
0.477273
0.475077
0.470785
0.466523
0.459127
0.451125
0.438613
0.425091
0.40538
0.384626
0.354584
0.325405
0.276026
0.241352
0.141731
0.1434
0.162368
0.268658
0.28763
0.311226
0.317187
0.326005
0.328967
0.333233
0.335214
0.337559
0.339007
0.340796
0.342552
0.34463
0.346096
0.346705
0.345305
0.341658
0.335715
0.328319
0.321253
0.316923
0.316835
0.322479
0.334776
0.354712
0.382755
0.415263
0.447202
0.474542
0.49475
0.507746
0.51438
0.51599
0.513935
0.509713
0.50453
0.499221
0.494431
0.490406
0.486945
0.484357
0.481682
0.479961
0.477154
0.474949
0.470628
0.466342
0.458909
0.450869
0.438307
0.424732
0.404963
0.384142
0.354049
0.324741
0.275355
0.240408
0.141096
0.142157
0.167175
0.268921
0.287933
0.311265
0.317237
0.326009
0.328972
0.333227
0.335211
0.337548
0.338978
0.340753
0.342492
0.344616
0.346163
0.346903
0.345596
0.341945
0.335905
0.328334
0.32103
0.316502
0.316232
0.321644
0.333647
0.353342
0.381394
0.414125
0.446365
0.473992
0.4944
0.507507
0.514199
0.515839
0.513797
0.509577
0.504384
0.499077
0.494292
0.490267
0.486824
0.484235
0.481576
0.479847
0.47703
0.474814
0.470463
0.466153
0.458681
0.450602
0.437991
0.424365
0.40454
0.383654
0.353511
0.324079
0.274688
0.239481
0.140486
0.14098
0.171626
0.269348
0.288241
0.311308
0.317296
0.326022
0.328983
0.333226
0.335212
0.33754
0.338951
0.340708
0.342428
0.344607
0.346244
0.347125
0.345913
0.342248
0.336098
0.328331
0.320797
0.316061
0.315602
0.320785
0.332496
0.351944
0.380004
0.412963
0.445506
0.473423
0.494038
0.507265
0.514014
0.515674
0.513635
0.509413
0.504215
0.498917
0.494138
0.490121
0.486696
0.484108
0.481466
0.479728
0.476901
0.474673
0.470289
0.465955
0.458444
0.450326
0.437666
0.423989
0.40411
0.383161
0.35297
0.323419
0.274025
0.238573
0.139899
0.139863
0.175838
0.269881
0.28854
0.311354
0.317362
0.326041
0.329002
0.333229
0.335218
0.337535
0.338929
0.340663
0.342365
0.344602
0.346338
0.34737
0.346255
0.342567
0.336293
0.328322
0.320553
0.315606
0.314956
0.319912
0.331329
0.350523
0.378587
0.411773
0.444621
0.472829
0.493659
0.507012
0.51382
0.515496
0.513452
0.509225
0.504024
0.498739
0.493969
0.489964
0.486565
0.483978
0.481353
0.479604
0.476768
0.474526
0.470108
0.465749
0.458197
0.450041
0.437331
0.423606
0.403674
0.382665
0.352427
0.322763
0.273367
0.237685
0.139334
0.138802
0.179902
0.270476
0.288821
0.311397
0.317434
0.326066
0.329027
0.333238
0.335228
0.337534
0.338911
0.340619
0.342302
0.344601
0.346443
0.347635
0.346618
0.342899
0.33649
0.32831
0.320303
0.315144
0.314306
0.319037
0.330157
0.349084
0.377147
0.410561
0.443711
0.47221
0.493257
0.506739
0.513609
0.515299
0.513248
0.509013
0.503812
0.498544
0.493787
0.489792
0.486434
0.483846
0.481236
0.479475
0.476632
0.474374
0.469919
0.465535
0.457942
0.449746
0.436987
0.423214
0.403232
0.382166
0.351883
0.322112
0.272716
0.236816
0.138787
0.137793
0.183878
0.271099
0.28908
0.311437
0.317509
0.326095
0.329058
0.33325
0.335242
0.337537
0.338896
0.340577
0.34224
0.344604
0.346557
0.347916
0.346999
0.34324
0.336691
0.3283
0.320056
0.314687
0.313662
0.31817
0.32899
0.347639
0.375693
0.409331
0.442778
0.471562
0.492826
0.506439
0.513375
0.515079
0.513019
0.508777
0.503579
0.498333
0.493594
0.489603
0.486302
0.483714
0.481118
0.479343
0.476493
0.474217
0.469724
0.465313
0.457678
0.449443
0.436636
0.422815
0.402785
0.381663
0.351339
0.321466
0.272072
0.235967
0.138258
0.136832
0.187806
0.271731
0.289315
0.311471
0.317587
0.326128
0.329094
0.333266
0.335261
0.337543
0.338885
0.340537
0.342182
0.344609
0.346679
0.348209
0.347393
0.34359
0.336897
0.328296
0.319818
0.314242
0.313032
0.31732
0.327838
0.346198
0.374236
0.408092
0.441825
0.470885
0.49236
0.506105
0.51311
0.51483
0.512762
0.508515
0.503325
0.498107
0.493391
0.489407
0.486163
0.483583
0.481
0.479209
0.476353
0.474056
0.469525
0.465086
0.457407
0.449133
0.436277
0.422409
0.402334
0.381159
0.350795
0.320825
0.271435
0.235137
0.137746
0.135918
0.191712
0.272354
0.289531
0.311498
0.317665
0.326164
0.329135
0.333286
0.335285
0.337554
0.338878
0.340501
0.342128
0.344615
0.346806
0.348512
0.347798
0.343945
0.33711
0.328305
0.319597
0.313818
0.312427
0.316498
0.326714
0.344772
0.372785
0.406849
0.440856
0.470178
0.491854
0.50573
0.512806
0.514545
0.512473
0.508225
0.503049
0.497865
0.493177
0.489217
0.486007
0.483455
0.48088
0.479074
0.476212
0.473892
0.469323
0.464855
0.457131
0.448816
0.435912
0.421997
0.401879
0.380654
0.350252
0.32019
0.270806
0.234327
0.137248
0.135045
0.195613
0.27296
0.289732
0.311517
0.317743
0.326202
0.329181
0.33331
0.335312
0.337568
0.338876
0.340469
0.342078
0.344624
0.346938
0.348822
0.348208
0.344307
0.337329
0.32833
0.319398
0.31342
0.311855
0.315713
0.325627
0.343375
0.371353
0.405611
0.439875
0.469438
0.491301
0.505301
0.512454
0.514218
0.512147
0.507905
0.50275
0.497608
0.492954
0.489035
0.48583
0.483329
0.480761
0.47894
0.47607
0.473727
0.469119
0.46462
0.45685
0.448494
0.435543
0.421581
0.401422
0.380148
0.349711
0.319563
0.270185
0.233537
0.136764
0.134213
0.199516
0.273542
0.289927
0.311529
0.317819
0.32624
0.329231
0.333337
0.335343
0.337586
0.338879
0.340442
0.342033
0.344636
0.347071
0.349134
0.348619
0.34468
0.33755
0.328374
0.319226
0.313055
0.311323
0.314974
0.324588
0.342018
0.369948
0.404385
0.438883
0.468663
0.490696
0.504811
0.512045
0.513841
0.511778
0.50755
0.502426
0.497335
0.492721
0.488854
0.485643
0.483205
0.480642
0.478807
0.47593
0.47356
0.468916
0.464382
0.456567
0.448169
0.435171
0.421161
0.400964
0.379642
0.349172
0.318942
0.269574
0.232766
0.136292
0.133419
0.203423
0.274098
0.290124
0.311535
0.317892
0.326279
0.329284
0.333368
0.335379
0.337607
0.338887
0.340421
0.341993
0.34465
0.347205
0.349445
0.34903
0.345064
0.337775
0.328441
0.319085
0.312729
0.310837
0.314288
0.323607
0.340713
0.368581
0.403177
0.437884
0.467853
0.490034
0.504254
0.511567
0.513404
0.51136
0.507156
0.502076
0.497046
0.49248
0.488672
0.485455
0.483083
0.480524
0.478677
0.47579
0.473392
0.468713
0.464144
0.456281
0.447842
0.434797
0.42074
0.400506
0.379138
0.348637
0.31833
0.268972
0.232014
0.135831
0.132661
0.207329
0.274632
0.290331
0.311536
0.317962
0.326317
0.329341
0.333402
0.335418
0.337633
0.338901
0.340407
0.341959
0.344668
0.347338
0.349752
0.349435
0.345449
0.338012
0.328531
0.318978
0.312444
0.310402
0.313663
0.322693
0.339471
0.367263
0.401994
0.436879
0.467006
0.489308
0.503618
0.511012
0.512899
0.510886
0.506721
0.501697
0.496739
0.492229
0.488485
0.485275
0.482956
0.480406
0.47855
0.475653
0.473226
0.468511
0.463904
0.455995
0.447513
0.434422
0.420318
0.40005
0.378637
0.348108
0.317727
0.268381
0.231282
0.135382
0.131936
0.211205
0.275173
0.290558
0.311535
0.318029
0.326354
0.3294
0.33344
0.335462
0.337663
0.338921
0.340401
0.341933
0.344687
0.347468
0.350052
0.349834
0.345826
0.338269
0.328649
0.318908
0.312207
0.310024
0.313106
0.321856
0.338302
0.366003
0.400844
0.43587
0.466118
0.488512
0.502895
0.510369
0.512314
0.510349
0.50624
0.501288
0.496415
0.491969
0.488296
0.485108
0.482822
0.48029
0.478427
0.475518
0.47306
0.468311
0.463664
0.455708
0.447184
0.434047
0.419897
0.399596
0.37814
0.347585
0.317134
0.267801
0.230569
0.134945
0.131244
0.215012
0.275758
0.290808
0.311535
0.318094
0.326389
0.329463
0.333481
0.335509
0.337696
0.338947
0.340403
0.341915
0.34471
0.347596
0.350344
0.350224
0.346193
0.338547
0.328793
0.31888
0.31202
0.309706
0.312622
0.321104
0.337218
0.364812
0.399732
0.434859
0.465185
0.487639
0.502074
0.509626
0.511641
0.50974
0.505707
0.500846
0.496073
0.491701
0.488103
0.484951
0.482687
0.480175
0.47831
0.475387
0.472895
0.468112
0.463423
0.455422
0.446854
0.433672
0.419476
0.399146
0.377648
0.347069
0.316552
0.267234
0.229878
0.13452
0.130583
0.21874
0.276396
0.291086
0.311539
0.318158
0.326424
0.329528
0.333525
0.335562
0.337734
0.33898
0.340415
0.341907
0.344737
0.34772
0.350624
0.350603
0.346552
0.338843
0.328967
0.318895
0.311886
0.309452
0.312215
0.320443
0.336228
0.3637
0.398666
0.433846
0.464204
0.486683
0.501146
0.508772
0.510867
0.509051
0.505118
0.500368
0.495711
0.491425
0.487909
0.484796
0.48256
0.480064
0.478198
0.475259
0.472734
0.467916
0.463182
0.455136
0.446524
0.433299
0.419057
0.398701
0.377162
0.346561
0.315983
0.266681
0.229207
0.134108
0.129952
0.222394
0.277084
0.291393
0.311549
0.318221
0.326457
0.329595
0.333573
0.335619
0.337776
0.339019
0.340437
0.341909
0.344768
0.347844
0.350887
0.350969
0.346908
0.339151
0.32917
0.318953
0.311807
0.309266
0.311891
0.319881
0.335341
0.362675
0.39765
0.432832
0.463172
0.485637
0.500103
0.507795
0.50998
0.508273
0.504468
0.499853
0.49533
0.491141
0.487714
0.484646
0.482441
0.479958
0.478092
0.475136
0.472575
0.467722
0.46294
0.454851
0.446194
0.432926
0.41864
0.398259
0.376683
0.346063
0.315426
0.266142
0.228559
0.133709
0.129351
0.225976
0.277815
0.291729
0.311567
0.318285
0.326491
0.329664
0.333625
0.335681
0.337823
0.339065
0.340468
0.341923
0.344804
0.347969
0.351131
0.351322
0.347259
0.33947
0.329406
0.319055
0.311787
0.309149
0.311651
0.319422
0.334565
0.361747
0.396691
0.431819
0.462083
0.484495
0.498935
0.506684
0.508968
0.507396
0.50375
0.499299
0.494928
0.490851
0.48752
0.484502
0.482331
0.479859
0.477995
0.475019
0.47242
0.467531
0.462699
0.454568
0.445863
0.432554
0.418225
0.397823
0.37621
0.345574
0.314883
0.265619
0.227933
0.133325
0.12878
0.229491
0.278585
0.292095
0.311598
0.318352
0.326524
0.329737
0.333681
0.335748
0.337875
0.339118
0.340511
0.341949
0.344846
0.34809
0.351362
0.351656
0.347606
0.3398
0.329671
0.319204
0.311827
0.309106
0.3115
0.319072
0.333909
0.360924
0.395795
0.430808
0.460937
0.48325
0.497635
0.505428
0.507819
0.50641
0.502956
0.498704
0.494505
0.490554
0.487327
0.484365
0.482232
0.479767
0.477905
0.474908
0.47227
0.467343
0.462458
0.454286
0.445533
0.432183
0.417812
0.397392
0.375744
0.345096
0.314354
0.265111
0.22733
0.132956
0.128237
0.23294
0.279391
0.292485
0.311648
0.318424
0.32656
0.329812
0.333742
0.335821
0.337933
0.339179
0.340566
0.341989
0.344896
0.3482
0.351592
0.351965
0.347946
0.340141
0.329967
0.319401
0.311929
0.309136
0.311439
0.318834
0.333381
0.360213
0.394965
0.4298
0.459729
0.481897
0.496195
0.504018
0.506524
0.505307
0.50208
0.498062
0.494061
0.490251
0.487138
0.484237
0.482145
0.479687
0.477824
0.474804
0.472125
0.467159
0.462219
0.454006
0.445201
0.431813
0.417402
0.396965
0.375284
0.344627
0.313839
0.26462
0.226751
0.132602
0.127723
0.236325
0.280228
0.292894
0.311727
0.318502
0.326598
0.329891
0.333809
0.3359
0.337999
0.339249
0.340632
0.342043
0.344956
0.348301
0.351824
0.352246
0.348281
0.340493
0.330293
0.319645
0.312093
0.309245
0.31147
0.318713
0.332986
0.359623
0.394207
0.428796
0.458459
0.480434
0.494608
0.502444
0.505074
0.504075
0.501116
0.497369
0.493597
0.489944
0.486954
0.48412
0.482072
0.479619
0.477753
0.474707
0.471986
0.466979
0.461982
0.453728
0.44487
0.431446
0.416994
0.396545
0.374833
0.344169
0.313339
0.264145
0.226194
0.132264
0.127235
0.239648
0.281092
0.293324
0.311834
0.318584
0.32664
0.329975
0.333882
0.335986
0.338072
0.339329
0.340711
0.342112
0.345026
0.348397
0.352055
0.352491
0.348609
0.340854
0.330648
0.319937
0.312323
0.309432
0.311594
0.31871
0.332732
0.35916
0.393523
0.427799
0.457126
0.478857
0.492868
0.500699
0.503459
0.502705
0.50006
0.496622
0.493112
0.489633
0.486777
0.484016
0.482013
0.479565
0.477692
0.47462
0.471854
0.466804
0.461747
0.453451
0.444539
0.431081
0.416588
0.39613
0.374388
0.343722
0.312853
0.263686
0.225661
0.131941
0.126775
0.242913
0.28198
0.293785
0.311962
0.318673
0.326688
0.330064
0.333962
0.33608
0.338154
0.339419
0.340803
0.342198
0.34511
0.348493
0.352287
0.352697
0.348931
0.341224
0.331033
0.320279
0.312619
0.309701
0.311815
0.318828
0.332623
0.358828
0.392919
0.42681
0.455732
0.477167
0.490972
0.498775
0.50167
0.50119
0.498905
0.495817
0.492605
0.489319
0.486609
0.483927
0.48197
0.47953
0.477642
0.474543
0.47173
0.466635
0.461516
0.453177
0.444208
0.430718
0.416186
0.39572
0.373952
0.343285
0.312381
0.263244
0.225151
0.131634
0.126339
0.246121
0.282888
0.294283
0.312103
0.318769
0.326742
0.330159
0.33405
0.336183
0.338248
0.339521
0.340908
0.342301
0.345209
0.348589
0.352516
0.352868
0.349247
0.341604
0.331446
0.32067
0.312982
0.310053
0.312132
0.319069
0.332666
0.358634
0.392394
0.425831
0.454278
0.475364
0.488918
0.496667
0.499698
0.499524
0.497645
0.494956
0.492073
0.489006
0.486451
0.483854
0.481945
0.479515
0.477603
0.474476
0.471614
0.466472
0.461289
0.452906
0.443878
0.430359
0.415786
0.395317
0.373523
0.342858
0.311925
0.262818
0.224664
0.131342
0.125929
0.249277
0.283815
0.294816
0.312253
0.318874
0.326804
0.330263
0.334147
0.336296
0.338353
0.339636
0.341028
0.342423
0.345324
0.348687
0.352723
0.353025
0.349552
0.341991
0.331888
0.32111
0.313416
0.310489
0.312549
0.319437
0.332865
0.35858
0.391952
0.424866
0.452767
0.473449
0.486704
0.494372
0.497537
0.497698
0.496274
0.494035
0.491515
0.488695
0.486305
0.4838
0.481939
0.479521
0.477578
0.47442
0.471507
0.466317
0.461067
0.452638
0.44355
0.430003
0.41539
0.39492
0.373103
0.342443
0.311483
0.262409
0.224199
0.131066
0.125543
0.252382
0.284761
0.29538
0.312415
0.31899
0.326876
0.330375
0.334253
0.336422
0.338472
0.339766
0.341165
0.342565
0.345457
0.348791
0.352882
0.353207
0.349835
0.342388
0.332357
0.321599
0.313921
0.311013
0.313066
0.319933
0.333225
0.358669
0.391593
0.423917
0.451202
0.471426
0.48433
0.491887
0.495181
0.495707
0.494787
0.493053
0.490933
0.488388
0.486175
0.483767
0.481954
0.479548
0.47757
0.474377
0.471411
0.466169
0.46085
0.452373
0.443225
0.429651
0.414998
0.394529
0.372691
0.342039
0.311057
0.262016
0.223757
0.130803
0.125181
0.255441
0.285723
0.295965
0.312593
0.319118
0.326957
0.330497
0.334371
0.33656
0.338607
0.339913
0.34132
0.342726
0.34561
0.348902
0.352998
0.353422
0.350084
0.342792
0.332854
0.32214
0.314501
0.311625
0.313686
0.320561
0.333751
0.358901
0.391315
0.422986
0.449588
0.469298
0.481798
0.489209
0.492624
0.493542
0.49318
0.492006
0.490329
0.488082
0.486061
0.483758
0.481992
0.479596
0.477582
0.474348
0.471325
0.466029
0.460638
0.452112
0.442902
0.429303
0.41461
0.394145
0.372289
0.341646
0.310646
0.26164
0.223338
0.130556
0.124841
0.258455
0.2867
0.296569
0.312789
0.31926
0.327049
0.330628
0.334501
0.336713
0.338758
0.340079
0.341495
0.34291
0.345784
0.349025
0.353098
0.353651
0.350297
0.343201
0.333378
0.32273
0.315156
0.312329
0.314411
0.321322
0.334447
0.359278
0.391121
0.422076
0.447928
0.467068
0.479109
0.486338
0.489862
0.4912
0.491449
0.490893
0.489703
0.487781
0.485968
0.483775
0.482056
0.479667
0.477613
0.474333
0.47125
0.465898
0.460433
0.451855
0.442583
0.428959
0.414226
0.393769
0.371896
0.341266
0.31025
0.26128
0.22294
0.130322
0.124524
0.261428
0.287688
0.29719
0.313001
0.319413
0.327152
0.330771
0.334645
0.336881
0.338927
0.340265
0.341692
0.343116
0.34598
0.349164
0.353195
0.353888
0.350478
0.343611
0.33393
0.323373
0.315891
0.313129
0.315244
0.32222
0.335314
0.359795
0.391008
0.421188
0.446226
0.464741
0.476265
0.483273
0.486891
0.488675
0.489591
0.489713
0.489058
0.487484
0.485899
0.483819
0.482146
0.479762
0.477666
0.474335
0.471188
0.465777
0.460234
0.451604
0.442268
0.42862
0.413848
0.393401
0.371513
0.340898
0.30987
0.260937
0.222565
0.130102
0.124228
0.264364
0.288687
0.297828
0.31323
0.319579
0.327267
0.330925
0.334802
0.337066
0.339116
0.340474
0.341913
0.343347
0.3462
0.349322
0.353294
0.354119
0.350644
0.344021
0.334512
0.324067
0.316709
0.314027
0.316189
0.323259
0.336354
0.36045
0.390976
0.420322
0.444489
0.462322
0.473268
0.480012
0.483708
0.485963
0.487603
0.488465
0.488392
0.487195
0.485855
0.483893
0.482265
0.479883
0.477741
0.474353
0.471138
0.465666
0.460042
0.451357
0.441957
0.428286
0.413476
0.393041
0.37114
0.340542
0.309506
0.26061
0.222212
0.129896
0.123953
0.267264
0.289695
0.29848
0.313473
0.319757
0.327393
0.33109
0.334974
0.337269
0.339326
0.340707
0.342161
0.343603
0.346446
0.349502
0.353398
0.354326
0.350817
0.344434
0.335128
0.324815
0.317611
0.31503
0.31725
0.324442
0.337566
0.36124
0.391023
0.419479
0.442721
0.459816
0.470119
0.476557
0.480311
0.483059
0.485483
0.487148
0.487708
0.486917
0.485839
0.484
0.482416
0.480031
0.47784
0.474389
0.471101
0.465566
0.459857
0.451117
0.441652
0.427958
0.41311
0.392689
0.370777
0.340199
0.309158
0.2603
0.22188
0.129703
0.123699
0.270133
0.290709
0.299146
0.31373
0.319947
0.32753
0.331268
0.335161
0.337491
0.339558
0.340966
0.342438
0.343889
0.34672
0.349709
0.353512
0.35449
0.351021
0.344852
0.335785
0.32562
0.318601
0.316142
0.318434
0.325774
0.338946
0.362159
0.391144
0.418661
0.440928
0.457227
0.466821
0.472906
0.476696
0.47996
0.483229
0.485764
0.487007
0.486652
0.485852
0.484142
0.482598
0.480208
0.477962
0.474444
0.471078
0.465476
0.45968
0.450882
0.441354
0.427635
0.412752
0.392347
0.370427
0.33987
0.308827
0.260008
0.221571
0.129523
0.123466
0.272972
0.29173
0.299824
0.314
0.320148
0.327679
0.331456
0.335362
0.337732
0.339813
0.341252
0.342746
0.344205
0.347022
0.349945
0.353639
0.354629
0.351244
0.345278
0.336488
0.326489
0.319682
0.317368
0.319747
0.327259
0.340485
0.363205
0.391335
0.417875
0.439109
0.454563
0.463378
0.469062
0.472864
0.476663
0.480841
0.484312
0.486289
0.486403
0.485897
0.484321
0.482816
0.480416
0.478109
0.47452
0.471067
0.465399
0.459511
0.450655
0.441061
0.427318
0.412402
0.392014
0.370087
0.339555
0.308513
0.259733
0.221283
0.129357
0.123253
0.275785
0.292754
0.300512
0.314282
0.32036
0.327839
0.331656
0.335579
0.337991
0.340092
0.341566
0.343085
0.344553
0.347357
0.350213
0.353786
0.354782
0.351457
0.345721
0.337243
0.327428
0.320859
0.318712
0.321196
0.3289
0.342178
0.36437
0.391594
0.417145
0.437247
0.451825
0.459792
0.465026
0.468813
0.473168
0.478318
0.482795
0.485559
0.486172
0.485976
0.48454
0.483069
0.480654
0.478282
0.474619
0.471069
0.465332
0.459351
0.450434
0.440775
0.427008
0.412061
0.391692
0.369761
0.339254
0.308217
0.259475
0.221018
0.129203
0.12306
0.278574
0.29378
0.30121
0.314575
0.320583
0.328009
0.331866
0.335811
0.338268
0.340395
0.341909
0.343456
0.344937
0.347726
0.350516
0.35396
0.354961
0.351657
0.346195
0.338052
0.328444
0.322134
0.320182
0.322789
0.330694
0.344016
0.365647
0.391936
0.416485
0.435338
0.449
0.456068
0.460804
0.464546
0.469474
0.475661
0.481214
0.484816
0.48596
0.486093
0.4848
0.48336
0.480925
0.478481
0.474741
0.471085
0.465278
0.459199
0.450221
0.440496
0.426705
0.411729
0.39138
0.369447
0.338968
0.307938
0.259235
0.220775
0.129063
0.122887
0.281341
0.294808
0.301916
0.314879
0.320816
0.32819
0.332087
0.336056
0.338562
0.340722
0.34228
0.343861
0.345357
0.34813
0.350856
0.354166
0.355171
0.351853
0.346713
0.338919
0.329542
0.323512
0.321779
0.324535
0.332638
0.34599
0.367027
0.392379
0.415882
0.433396
0.446076
0.452214
0.456402
0.460068
0.465583
0.472872
0.47957
0.484065
0.485769
0.486249
0.485105
0.483691
0.48123
0.478707
0.474883
0.471118
0.465235
0.459057
0.450015
0.440224
0.426409
0.411407
0.391078
0.369147
0.338697
0.307677
0.259014
0.220554
0.128936
0.122733
0.28409
0.295836
0.302629
0.315192
0.321058
0.32838
0.332317
0.336314
0.338874
0.341071
0.342678
0.344298
0.345815
0.34857
0.351235
0.354411
0.355419
0.352097
0.347258
0.339838
0.330728
0.324999
0.323509
0.326436
0.334724
0.34809
0.368505
0.392963
0.415269
0.431432
0.443072
0.44824
0.451832
0.455386
0.461501
0.469953
0.477866
0.483308
0.485601
0.486449
0.485455
0.484063
0.481569
0.47896
0.475048
0.471169
0.465205
0.458925
0.449818
0.43996
0.426123
0.411096
0.390789
0.368861
0.338441
0.307435
0.25881
0.220355
0.128822
0.122599
0.286822
0.296862
0.303347
0.315514
0.32131
0.32858
0.332558
0.336585
0.339202
0.341442
0.343103
0.344768
0.34631
0.349049
0.351656
0.354699
0.355708
0.352446
0.347814
0.3408
0.332009
0.326602
0.325374
0.328495
0.336945
0.350304
0.370083
0.393658
0.414623
0.429492
0.439996
0.444159
0.447111
0.450515
0.457236
0.46691
0.476105
0.482548
0.485459
0.486694
0.485852
0.484476
0.481943
0.479241
0.475235
0.471236
0.465186
0.458802
0.449629
0.439704
0.425845
0.410795
0.390511
0.36859
0.338202
0.307212
0.258625
0.220179
0.128721
0.122485
0.28954
0.297885
0.304069
0.315845
0.321571
0.328789
0.332807
0.336867
0.339545
0.341834
0.343553
0.34527
0.346841
0.349567
0.35212
0.355035
0.356045
0.352891
0.348418
0.3418
0.333387
0.328327
0.327375
0.330706
0.339292
0.352618
0.371746
0.394398
0.414007
0.427599
0.436849
0.439996
0.442266
0.445471
0.452798
0.463747
0.474293
0.48179
0.485345
0.486987
0.486298
0.484933
0.482352
0.479551
0.475444
0.47132
0.465181
0.45869
0.449448
0.439456
0.425576
0.410506
0.390246
0.368335
0.337979
0.307009
0.258459
0.220025
0.128634
0.12239
0.292246
0.298904
0.304793
0.316182
0.321839
0.329006
0.333066
0.33716
0.339901
0.342245
0.344027
0.345801
0.347407
0.350123
0.352627
0.355423
0.356435
0.353408
0.349112
0.342848
0.334867
0.330174
0.329513
0.333061
0.341756
0.355015
0.373485
0.395178
0.413439
0.425763
0.433638
0.435781
0.437315
0.440283
0.448204
0.460475
0.472435
0.481035
0.48526
0.48733
0.486794
0.485434
0.482799
0.47989
0.475676
0.471422
0.465188
0.458587
0.449277
0.439218
0.425318
0.410229
0.389994
0.368095
0.337772
0.306825
0.258311
0.219895
0.128559
0.122315
0.294942
0.299918
0.305519
0.316526
0.322116
0.329231
0.333333
0.337463
0.340271
0.342674
0.344523
0.34636
0.348006
0.350717
0.353178
0.355863
0.356881
0.353988
0.349897
0.343968
0.336452
0.332145
0.331783
0.335549
0.344323
0.35748
0.375289
0.395996
0.412932
0.424
0.430365
0.431526
0.432282
0.434984
0.443476
0.457105
0.470539
0.48029
0.485207
0.487725
0.487342
0.485981
0.483282
0.480259
0.475931
0.471541
0.465208
0.458495
0.449115
0.438989
0.425069
0.409965
0.389756
0.367872
0.337582
0.306661
0.258184
0.219788
0.128498
0.122259
0.29763
0.300924
0.306245
0.316876
0.3224
0.329465
0.333608
0.337776
0.340651
0.343118
0.345039
0.346943
0.348637
0.351347
0.353772
0.356358
0.357386
0.354637
0.350765
0.345176
0.338143
0.334234
0.334177
0.338154
0.346979
0.359998
0.377153
0.396851
0.412498
0.422337
0.427028
0.427232
0.427221
0.429591
0.43864
0.45365
0.468613
0.479557
0.485186
0.488174
0.487943
0.486573
0.483803
0.480657
0.476209
0.471678
0.465241
0.458413
0.448962
0.43877
0.424832
0.409715
0.389531
0.367666
0.33741
0.306519
0.258075
0.219703
0.12845
0.122224
0.300313
0.301922
0.30697
0.317231
0.322691
0.329706
0.333892
0.338098
0.341043
0.343577
0.345574
0.347549
0.349296
0.352009
0.354407
0.356907
0.35795
0.355357
0.351715
0.346475
0.339937
0.336434
0.336682
0.340862
0.349709
0.362557
0.379069
0.397746
0.412162
0.420787
0.423622
0.422964
0.422178
0.424175
0.433727
0.450127
0.466664
0.478842
0.4852
0.488679
0.488598
0.487212
0.484361
0.481084
0.476509
0.471832
0.465286
0.458342
0.448819
0.43856
0.424606
0.409478
0.389322
0.367478
0.337256
0.306397
0.257987
0.219643
0.128416
0.122207
0.302993
0.30291
0.307691
0.31759
0.322988
0.329954
0.334183
0.338428
0.341444
0.344049
0.346124
0.348175
0.349982
0.352703
0.355082
0.357508
0.358574
0.356151
0.352746
0.347864
0.34183
0.338734
0.339284
0.343656
0.352497
0.365146
0.381036
0.398684
0.411958
0.419344
0.420155
0.418775
0.417193
0.418766
0.42877
0.446559
0.464702
0.478152
0.48525
0.489243
0.489307
0.487898
0.484956
0.481542
0.476833
0.472003
0.465344
0.458281
0.448685
0.438362
0.424391
0.409256
0.389127
0.367308
0.337119
0.306296
0.257918
0.219606
0.128395
0.122211
0.305671
0.303887
0.308409
0.317953
0.323291
0.330209
0.334481
0.338768
0.341855
0.344533
0.346689
0.348819
0.35069
0.353424
0.355795
0.358161
0.359256
0.357015
0.353856
0.349339
0.343814
0.341122
0.341967
0.346517
0.355329
0.36776
0.383048
0.399672
0.411911
0.417987
0.416692
0.414677
0.412308
0.413411
0.423807
0.442967
0.462734
0.477493
0.485337
0.489865
0.490071
0.48863
0.48559
0.482028
0.477179
0.472192
0.465415
0.458231
0.448562
0.438174
0.424189
0.409048
0.388947
0.367156
0.337002
0.306217
0.257869
0.219593
0.128388
0.122235
0.308351
0.304851
0.309122
0.318319
0.3236
0.330471
0.334787
0.339116
0.342275
0.345027
0.347267
0.349478
0.351418
0.35417
0.356542
0.358862
0.359994
0.357947
0.355041
0.350894
0.345878
0.343585
0.344716
0.349431
0.358192
0.370391
0.385101
0.400719
0.412001
0.416686
0.413335
0.410701
0.407565
0.408154
0.418878
0.439379
0.460776
0.47687
0.485462
0.490548
0.49089
0.48941
0.48626
0.482544
0.477547
0.472397
0.465498
0.458191
0.448448
0.437997
0.423999
0.408857
0.388784
0.367023
0.336903
0.306161
0.257842
0.219604
0.128395
0.122278
0.311033
0.305799
0.309828
0.318687
0.323914
0.33074
0.3351
0.339471
0.342703
0.345532
0.347856
0.350151
0.352164
0.35494
0.357322
0.359608
0.360786
0.358943
0.356295
0.352523
0.34801
0.346111
0.347516
0.352382
0.361077
0.373038
0.387188
0.401824
0.412179
0.415411
0.41022
0.406879
0.403002
0.403038
0.414019
0.435819
0.45884
0.476289
0.485626