/*--------------------------------*- C++ -*----------------------------------*\
| =========                 |                                                 |
| \\      /  F ield         | OpenFOAM: The Open Source CFD Toolbox           |
|  \\    /   O peration     | Version:  2.4.0                                 |
|   \\  /    A nd           | Web:      www.OpenFOAM.org                      |
|    \\/     M anipulation  |                                                 |
\*---------------------------------------------------------------------------*/
FoamFile
{
    version     2.0;
    format      ascii;
    class       volScalarField;
    location    "5.4";
    object      p;
}
// * * * * * * * * * * * * * * * * * * * * * * * * * * * * * * * * * * * * * //

dimensions      [0 2 -2 0 0 0 0];

internalField   nonuniform List<scalar> 
6000
(
0.077814
0.261128
0.278611
0.303595
0.309369
0.318232
0.321007
0.325222
0.327037
0.329431
0.330824
0.332438
0.333609
0.334912
0.336015
0.337229
0.338375
0.339622
0.340883
0.342256
0.343703
0.345284
0.346989
0.348862
0.350905
0.353157
0.35563
0.358351
0.361334
0.364603
0.368179
0.372065
0.376261
0.38077
0.385567
0.390631
0.395892
0.401321
0.406771
0.412246
0.417452
0.422525
0.426933
0.431046
0.433675
0.436146
0.436071
0.436374
0.432263
0.429716
0.419813
0.413421
0.395435
0.383835
0.353019
0.338585
0.278345
0.277005
0.134785
0.217901
0.0918782
0.260646
0.278576
0.303439
0.309281
0.318138
0.320951
0.325164
0.327
0.329394
0.330798
0.332414
0.333592
0.334897
0.336004
0.337219
0.338366
0.339615
0.340877
0.342251
0.343698
0.34528
0.346986
0.348859
0.350903
0.353156
0.35563
0.358351
0.361335
0.364606
0.368184
0.372072
0.376272
0.380781
0.385578
0.390642
0.395901
0.401327
0.406772
0.412238
0.417433
0.42249
0.426883
0.430992
0.433616
0.43607
0.435986
0.436253
0.432126
0.429518
0.419592
0.413109
0.395085
0.383354
0.352525
0.337826
0.277754
0.275705
0.134224
0.214997
0.104337
0.260462
0.278575
0.303328
0.309204
0.318066
0.3209
0.32512
0.326966
0.329365
0.330774
0.332394
0.333575
0.334883
0.335991
0.337208
0.338357
0.339607
0.34087
0.342244
0.343692
0.345275
0.346981
0.348855
0.3509
0.353153
0.355627
0.358349
0.361333
0.364604
0.368183
0.372072
0.376272
0.38078
0.385576
0.390638
0.395893
0.401313
0.406749
0.412202
0.417379
0.422415
0.426781
0.430884
0.433501
0.435947
0.435847
0.436094
0.431944
0.429297
0.41934
0.412791
0.394726
0.382889
0.352038
0.33713
0.277102
0.274541
0.133476
0.212428
0.114398
0.260445
0.278634
0.303246
0.309147
0.318008
0.320857
0.325082
0.326936
0.329339
0.330753
0.332376
0.333559
0.334869
0.33598
0.337198
0.338348
0.339598
0.340862
0.342237
0.343685
0.345267
0.346973
0.348847
0.350892
0.353145
0.355619
0.35834
0.361323
0.364595
0.368175
0.372062
0.376258
0.380764
0.385556
0.390612
0.39586
0.401269
0.406691
0.412127
0.417282
0.422292
0.42662
0.430706
0.433309
0.435753
0.435637
0.435877
0.431704
0.429035
0.419046
0.41245
0.394344
0.382421
0.351544
0.336451
0.276459
0.273481
0.132705
0.210301
0.122883
0.260485
0.278735
0.303194
0.309107
0.31796
0.320821
0.325048
0.326909
0.329315
0.330733
0.332359
0.333544
0.334856
0.335968
0.337187
0.338337
0.339588
0.340852
0.342227
0.343675
0.345258
0.346963
0.348837
0.350881
0.353133
0.355606
0.358325
0.361306
0.364578
0.368156
0.372039
0.37623
0.380729
0.385514
0.39056
0.395796
0.40119
0.406594
0.412009
0.417139
0.422124
0.426407
0.43046
0.433037
0.435474
0.435334
0.43557
0.431371
0.428689
0.418669
0.412038
0.393894
0.381899
0.351001
0.335722
0.2758
0.272451
0.13191
0.208444
0.130396
0.260529
0.278871
0.303167
0.309084
0.317923
0.320791
0.325018
0.326885
0.329293
0.330715
0.332342
0.33353
0.334843
0.335956
0.337175
0.338326
0.339577
0.340841
0.342216
0.343664
0.345246
0.346951
0.348824
0.350867
0.353118
0.355588
0.358304
0.361283
0.364553
0.368126
0.372002
0.376185
0.380676
0.385449
0.390482
0.395703
0.40108
0.406463
0.411856
0.416963
0.421925
0.426165
0.430171
0.432707
0.435124
0.434947
0.435172
0.430935
0.42824
0.418184
0.411523
0.393339
0.381282
0.350366
0.33491
0.275068
0.27139
0.131056
0.206743
0.13718
0.26056
0.279042
0.303158
0.309079
0.317895
0.320767
0.324993
0.326864
0.329273
0.330698
0.332327
0.333515
0.33483
0.335943
0.337163
0.338314
0.339565
0.340829
0.342204
0.343651
0.345233
0.346937
0.348809
0.35085
0.353099
0.355567
0.358279
0.361255
0.36452
0.368085
0.371953
0.376127
0.380606
0.385366
0.390385
0.395589
0.400948
0.406312
0.411686
0.416772
0.421715
0.425914
0.429866
0.432351
0.434733
0.434508
0.434706
0.430419
0.427701
0.417598
0.410905
0.392672
0.380555
0.349619
0.333991
0.274233
0.270213
0.130157
0.205135
0.143366
0.260572
0.279248
0.303164
0.30909
0.317877
0.32075
0.324973
0.326846
0.329256
0.330682
0.332312
0.333502
0.334817
0.33593
0.337151
0.338302
0.339552
0.340816
0.342191
0.343637
0.345218
0.346922
0.348792
0.350832
0.353078
0.355543
0.358251
0.361222
0.36448
0.368038
0.371896
0.37606
0.380527
0.385274
0.390278
0.395465
0.400809
0.406155
0.411512
0.416581
0.421505
0.425667
0.429564
0.431993
0.434332
0.434049
0.434207
0.42986
0.427104
0.416942
0.410206
0.391912
0.379728
0.348764
0.332964
0.273286
0.268899
0.129196
0.203578
0.14907
0.260569
0.27949
0.303184
0.309115
0.317868
0.320739
0.324958
0.326831
0.329241
0.330668
0.332299
0.333489
0.334804
0.335918
0.337138
0.338289
0.33954
0.340803
0.342177
0.343623
0.345204
0.346906
0.348775
0.350813
0.353056
0.355516
0.358219
0.361185
0.364436
0.367985
0.371835
0.375988
0.380443
0.385177
0.390168
0.395342
0.40067
0.406002
0.411345
0.416397
0.421304
0.42543
0.429274
0.431648
0.433937
0.433594
0.433702
0.429289
0.426481
0.416251
0.409461
0.39109
0.37883
0.347826
0.331843
0.272237
0.26749
0.128136
0.202041
0.154317
0.260645
0.279769
0.303215
0.309155
0.317865
0.320735
0.324946
0.326819
0.329229
0.330656
0.332287
0.333477
0.334792
0.335906
0.337126
0.338277
0.339528
0.34079
0.342164
0.34361
0.34519
0.34689
0.348757
0.350792
0.353032
0.355487
0.358185
0.361145
0.364389
0.36793
0.371771
0.375914
0.380359
0.385082
0.390061
0.395222
0.400539
0.405857
0.411186
0.416223
0.421112
0.425205
0.429001
0.431321
0.433559
0.433156
0.433207
0.428725
0.425856
0.415552
0.408698
0.390238
0.377892
0.346834
0.330659
0.271113
0.266011
0.126984
0.200515
0.159109
0.2609
0.28007
0.303254
0.309205
0.317872
0.320739
0.32494
0.326811
0.329219
0.330646
0.332276
0.333466
0.334781
0.335895
0.337115
0.338265
0.339516
0.340778
0.342152
0.343596
0.345175
0.346873
0.348738
0.35077
0.353006
0.355457
0.35815
0.361104
0.364342
0.367875
0.371708
0.375842
0.380277
0.38499
0.389959
0.39511
0.400415
0.405721
0.411038
0.416061
0.420932
0.424994
0.428744
0.431015
0.433201
0.432739
0.432731
0.42818
0.425243
0.414862
0.407936
0.38938
0.376942
0.345817
0.32944
0.269943
0.264486
0.125768
0.199003
0.163545
0.261317
0.280376
0.303298
0.309264
0.317886
0.320749
0.324938
0.326807
0.329212
0.330638
0.332268
0.333457
0.334772
0.335885
0.337105
0.338255
0.339505
0.340767
0.34214
0.343583
0.34516
0.346856
0.348718
0.350747
0.352979
0.355426
0.358114
0.361063
0.364294
0.367821
0.371646
0.375772
0.380199
0.384904
0.389864
0.395005
0.4003
0.405595
0.410901
0.415909
0.420762
0.424796
0.428504
0.430729
0.432864
0.432346
0.432275
0.42766
0.424648
0.414192
0.407188
0.388533
0.375999
0.344796
0.328213
0.268752
0.262942
0.124519
0.197516
0.167741
0.261839
0.280671
0.303342
0.309331
0.317906
0.320767
0.324941
0.326807
0.329208
0.330633
0.332261
0.33345
0.334765
0.335877
0.337096
0.338246
0.339495
0.340756
0.342128
0.34357
0.345145
0.346839
0.348699
0.350724
0.352953
0.355395
0.358078
0.361022
0.364247
0.367768
0.371586
0.375706
0.380125
0.384822
0.389774
0.394907
0.400193
0.405479
0.410773
0.415768
0.420602
0.424609
0.428279
0.430463
0.432546
0.431976
0.431842
0.427164
0.424077
0.413546
0.406462
0.387706
0.375075
0.343785
0.326996
0.267562
0.261403
0.123263
0.196064
0.171788
0.262421
0.280947
0.303384
0.309403
0.317931
0.320791
0.324948
0.326811
0.329207
0.33063
0.332257
0.333445
0.334759
0.33587
0.337089
0.338238
0.339487
0.340746
0.342117
0.343557
0.34513
0.346822
0.348679
0.350702
0.352926
0.355364
0.358043
0.360982
0.364202
0.367717
0.371529
0.375643
0.380056
0.384746
0.389692
0.394817
0.400095
0.405371
0.410655
0.415636
0.420452
0.424433
0.428068
0.430213
0.432247
0.431628
0.431431
0.426694
0.42353
0.412926
0.40576
0.386905
0.374178
0.342794
0.325803
0.266388
0.259887
0.122022
0.194657
0.175746
0.26303
0.281198
0.303421
0.309478
0.317962
0.320822
0.32496
0.326819
0.329209
0.330631
0.332256
0.333443
0.334756
0.335866
0.337084
0.338232
0.33948
0.340738
0.342107
0.343546
0.345117
0.346807
0.348661
0.35068
0.352901
0.355335
0.35801
0.360945
0.364159
0.367669
0.371476
0.375584
0.379992
0.384676
0.389615
0.394734
0.400004
0.405272
0.410544
0.415513
0.420309
0.424268
0.427869
0.429979
0.431965
0.4313
0.431039
0.426247
0.423005
0.412333
0.405084
0.386132
0.373311
0.34183
0.324642
0.265241
0.258406
0.120815
0.193302
0.179656
0.263646
0.281425
0.303451
0.309556
0.317997
0.320858
0.324976
0.326831
0.329215
0.330634
0.332258
0.333444
0.334756
0.335864
0.337081
0.338228
0.339475
0.340732
0.342099
0.343536
0.345105
0.346792
0.348644
0.35066
0.352878
0.355307
0.357978
0.360909
0.364119
0.367624
0.371427
0.37553
0.379932
0.384611
0.389545
0.394657
0.39992
0.405179
0.410442
0.415398
0.420175
0.424111
0.427682
0.429759
0.431698
0.43099
0.430666
0.425822
0.422503
0.411765
0.404435
0.385388
0.372475
0.340897
0.323517
0.264129
0.256969
0.119654
0.192
0.183543
0.264254
0.281629
0.303473
0.309633
0.318033
0.320898
0.324995
0.326848
0.329224
0.330642
0.332263
0.333448
0.334758
0.335865
0.337081
0.338226
0.339472
0.340727
0.342093
0.343528
0.345095
0.34678
0.348629
0.350641
0.352856
0.355282
0.357949
0.360876
0.364082
0.367583
0.371381
0.37548
0.379878
0.384552
0.38948
0.394587
0.399843
0.405094
0.410346
0.41529
0.420048
0.423963
0.427504
0.429551
0.431443
0.430695
0.430309
0.425417
0.422021
0.41122
0.40381
0.384673
0.371671
0.339995
0.322431
0.263055
0.25558
0.118548
0.190754
0.187424
0.264842
0.281817
0.303484
0.309708
0.318071
0.320943
0.32502
0.326868
0.329236
0.330652
0.332271
0.333456
0.334764
0.33587
0.337083
0.338227
0.339471
0.340725
0.342089
0.343522
0.345087
0.346769
0.348616
0.350625
0.352837
0.35526
0.357923
0.360847
0.364049
0.367546
0.37134
0.375435
0.379828
0.384499
0.389422
0.394523
0.399773
0.405016
0.410257
0.415188
0.419927
0.423822
0.427334
0.429353
0.431201
0.430415
0.429967
0.42503
0.421558
0.410698
0.403208
0.383986
0.370896
0.339127
0.321384
0.262025
0.254243
0.117502
0.189561
0.191306
0.265406
0.281997
0.303487
0.309781
0.31811
0.320992
0.325048
0.326893
0.329252
0.330666
0.332283
0.333466
0.334773
0.335877
0.337089
0.338232
0.339474
0.340726
0.342088
0.343519
0.345082
0.346762
0.348605
0.350612
0.352821
0.35524
0.3579
0.360821
0.364019
0.367513
0.371304
0.375395
0.379784
0.384451
0.38937
0.394466
0.399708
0.404944
0.410174
0.415092
0.419812
0.423687
0.427172
0.429164
0.430967
0.430146
0.429637
0.424658
0.421111
0.410195
0.402628
0.383326
0.37015
0.338293
0.320376
0.261038
0.252957
0.116519
0.188421
0.19519
0.265944
0.282176
0.303481
0.309849
0.318147
0.321044
0.32508
0.326923
0.329272
0.330684
0.332298
0.333481
0.334786
0.335888
0.337098
0.338239
0.33948
0.34073
0.34209
0.343519
0.34508
0.346757
0.348599
0.350602
0.352808
0.355224
0.357882
0.3608
0.363994
0.367485
0.371272
0.37536
0.379746
0.384409
0.389323
0.394414
0.39965
0.404878
0.410097
0.415002
0.419703
0.423558
0.427016
0.428983
0.430743
0.429888
0.429319
0.424299
0.42068
0.40971
0.402066
0.382692
0.36943
0.337491
0.319407
0.260095
0.251724
0.1156
0.187329
0.199074
0.266459
0.282363
0.303469
0.309913
0.318183
0.321099
0.325115
0.326956
0.329296
0.330705
0.332316
0.333499
0.334802
0.335903
0.337111
0.338251
0.339489
0.340738
0.342096
0.343523
0.345081
0.346756
0.348595
0.350596
0.352799
0.355213
0.357867
0.360782
0.363974
0.367462
0.371246
0.375331
0.379713
0.384373
0.389283
0.394369
0.399598
0.404818
0.410026
0.414918
0.419598
0.423435
0.426866
0.428809
0.430525
0.429638
0.429009
0.423952
0.420261
0.409242
0.401521
0.382081
0.368734
0.336722
0.318475
0.259196
0.250541
0.114743
0.186284
0.202927
0.266979
0.282567
0.303452
0.309972
0.318217
0.321157
0.325154
0.326994
0.329324
0.330731
0.332338
0.333521
0.334823
0.335922
0.337128
0.338266
0.339503
0.340749
0.342106
0.34353
0.345087
0.346759
0.348596
0.350595
0.352795
0.355206
0.357858
0.36077
0.363959
0.367445
0.371226
0.375307
0.379687
0.384343
0.389249
0.39433
0.399552
0.404764
0.40996
0.414838
0.419498
0.423316
0.426721
0.42864
0.430313
0.429396
0.428708
0.423614
0.419854
0.408789
0.400991
0.381494
0.36806
0.335984
0.317579
0.25834
0.249409
0.113949
0.18528
0.206713
0.267541
0.282794
0.303433
0.310027
0.318247
0.321216
0.325196
0.327036
0.329356
0.33076
0.332364
0.333547
0.334847
0.335946
0.33715
0.338286
0.33952
0.340765
0.342119
0.343542
0.345096
0.346767
0.348601
0.350597
0.352796
0.355204
0.357853
0.360764
0.36395
0.367433
0.371211
0.37529
0.379667
0.38432
0.389222
0.394297
0.399512
0.404715
0.409899
0.414764
0.419403
0.423202
0.42658
0.428475
0.430106
0.42916
0.428413
0.423285
0.419457
0.40835
0.400474
0.380927
0.367407
0.335277
0.316716
0.257526
0.248325
0.113215
0.184316
0.210421
0.268156
0.283046
0.303415
0.310077
0.318274
0.321276
0.32524
0.327083
0.329392
0.330794
0.332393
0.333577
0.334876
0.335974
0.337175
0.33831
0.339542
0.340785
0.342138
0.343558
0.345111
0.346779
0.348611
0.350605
0.352802
0.355207
0.357855
0.360763
0.363947
0.367428
0.371204
0.37528
0.379653
0.384304
0.389201
0.394271
0.399478
0.404673
0.409844
0.414694
0.419312
0.423092
0.426442
0.428315
0.429904
0.428929
0.428125
0.422963
0.419068
0.407924
0.39997
0.380381
0.366773
0.334599
0.315887
0.256753
0.247287
0.112539
0.183387
0.214054
0.268819
0.283325
0.303401
0.310124
0.318298
0.321336
0.325288
0.327135
0.329433
0.330833
0.332427
0.333612
0.33491
0.336007
0.337206
0.33834
0.33957
0.340811
0.342161
0.34358
0.34513
0.346797
0.348627
0.350619
0.352813
0.355217
0.357862
0.360769
0.36395
0.367429
0.371203
0.375277
0.379647
0.384295
0.389187
0.394252
0.399451
0.404636
0.409794
0.414629
0.419226
0.422986
0.426308
0.428158
0.429704
0.428702
0.427841
0.422647
0.418686
0.407509
0.399476
0.379851
0.366155
0.333948
0.315089
0.256019
0.246293
0.111919
0.182489
0.217615
0.269525
0.283633
0.303393
0.31017
0.318318
0.321397
0.325337
0.327191
0.329479
0.330876
0.332465
0.333651
0.334948
0.336045
0.337243
0.338374
0.339602
0.340842
0.34219
0.343607
0.345156
0.34682
0.348649
0.350639
0.352831
0.355233
0.357877
0.360781
0.36396
0.367438
0.371209
0.375281
0.379649
0.384293
0.389181
0.394239
0.39943
0.404605
0.409749
0.414569
0.419143
0.422883
0.426177
0.428004
0.429508
0.428478
0.427562
0.422338
0.418309
0.407105
0.398991
0.379339
0.365553
0.333323
0.31432
0.255323
0.245342
0.111352
0.181621
0.221108
0.27027
0.283969
0.303395
0.310216
0.318336
0.321459
0.325389
0.327252
0.32953
0.330924
0.332509
0.333695
0.334992
0.336089
0.337284
0.338415
0.339641
0.340879
0.342225
0.34364
0.345187
0.34685
0.348677
0.350665
0.352856
0.355256
0.357898
0.360801
0.363978
0.367455
0.371224
0.375293
0.379658
0.384299
0.389182
0.394234
0.399415
0.40458
0.409709
0.414513
0.419064
0.422783
0.426049
0.427853
0.429314
0.428256
0.427286
0.422033
0.417936
0.40671
0.398516
0.378842
0.364967
0.332724
0.313578
0.254664
0.244432
0.110837
0.180778
0.224535
0.27105
0.284326
0.303416
0.310263
0.318352
0.32152
0.325443
0.327318
0.329586
0.330978
0.332558
0.333745
0.33504
0.336139
0.337332
0.338461
0.339686
0.340922
0.342266
0.34368
0.345225
0.346886
0.348712
0.350698
0.352888
0.355286
0.357927
0.360829
0.364004
0.36748
0.371247
0.375313
0.379676
0.384313
0.38919
0.394236
0.399408
0.404562
0.409675
0.414462
0.418989
0.422686
0.425923
0.427703
0.429122
0.428036
0.427011
0.421733
0.417568
0.406323
0.39805
0.378359
0.364395
0.332147
0.312864
0.254041
0.243561
0.110371
0.179959
0.227898
0.271861
0.2847
0.303465
0.310313
0.318367
0.321581
0.3255
0.327389
0.329647
0.331038
0.332612
0.3338
0.335094
0.336195
0.337386
0.338514
0.339737
0.340972
0.342314
0.343726
0.34527
0.346929
0.348754
0.350739
0.352927
0.355324
0.357964
0.360865
0.364039
0.367514
0.371278
0.375343
0.379702
0.384336
0.389208
0.394245
0.399407
0.40455
0.409647
0.414415
0.418918
0.422592
0.425799
0.427554
0.42893
0.427818
0.426738
0.421436
0.417203
0.405943
0.397591
0.37789
0.363837
0.331593
0.312175
0.253453
0.242728
0.109952
0.179161
0.231199
0.272698
0.285096
0.30354
0.310364
0.318382
0.321643
0.325559
0.327464
0.329714
0.331105
0.332673
0.333861
0.335155
0.336258
0.337447
0.338574
0.339795
0.341028
0.34237
0.34378
0.345322
0.346981
0.348804
0.350788
0.352975
0.355371
0.358011
0.36091
0.364083
0.367557
0.371319
0.375382
0.379738
0.384368
0.389233
0.394263
0.399414
0.404544
0.409624
0.414373
0.41885
0.422501
0.425677
0.427406
0.428739
0.4276
0.426465
0.42114
0.416841
0.405568
0.39714
0.377433
0.363293
0.33106
0.31151
0.252899
0.241931
0.109578
0.178382
0.234441
0.273558
0.285523
0.303633
0.310418
0.318399
0.321706
0.325621
0.327545
0.329786
0.331179
0.332742
0.33393
0.335222
0.336327
0.337514
0.338642
0.339861
0.341093
0.342433
0.343842
0.345383
0.34704
0.348862
0.350845
0.353032
0.355427
0.358066
0.360965
0.364137
0.367609
0.37137
0.375431
0.379784
0.38441
0.389268
0.394289
0.399429
0.404545
0.409607
0.414336
0.418786
0.422411
0.425556
0.427259
0.428549
0.427383
0.426193
0.420847
0.416482
0.405198
0.396696
0.376988
0.362762
0.330548
0.31087
0.252376
0.241168
0.109247
0.177619
0.237627
0.274438
0.285986
0.303739
0.310477
0.318418
0.32177
0.325686
0.327629
0.329865
0.331261
0.332817
0.334005
0.335296
0.336404
0.33759
0.338717
0.339935
0.341166
0.342504
0.343912
0.345452
0.347108
0.34893
0.350912
0.353098
0.355493
0.358132
0.36103
0.364201
0.367673
0.371431
0.37549
0.37984
0.384461
0.389312
0.394324
0.399451
0.404553
0.409595
0.414303
0.418725
0.422325
0.425436
0.427112
0.428358
0.427165
0.425921
0.420554
0.416125
0.404833
0.396259
0.376554
0.362245
0.330056
0.310254
0.251883
0.24044
0.108958
0.176872
0.24076
0.275337
0.286485
0.303853
0.310541
0.318442
0.321838
0.325754
0.327719
0.329952
0.331351
0.332901
0.334088
0.335377
0.336489
0.337673
0.3388
0.340017
0.341248
0.342585
0.343992
0.345531
0.347186
0.349007
0.350989
0.353175
0.355569
0.358208
0.361106
0.364276
0.367747
0.371504
0.37556
0.379907
0.384523
0.389366
0.394367
0.399481
0.404568
0.40959
0.414275
0.418667
0.42224
0.425318
0.426965
0.428167
0.426947
0.425649
0.420262
0.415771
0.404472
0.395828
0.37613
0.361741
0.329584
0.309661
0.25142
0.239743
0.108709
0.176138
0.243843
0.276255
0.287014
0.303976
0.310615
0.318471
0.321909
0.325827
0.327815
0.330045
0.33145
0.332994
0.334181
0.335467
0.336582
0.337766
0.338892
0.340108
0.341339
0.342675
0.344081
0.345619
0.347274
0.349095
0.351076
0.353262
0.355657
0.358295
0.361193
0.364363
0.367833
0.371588
0.375642
0.379986
0.384596
0.389429
0.39442
0.39952
0.40459
0.40959
0.414251
0.418613
0.422157
0.4252
0.426818
0.427976
0.426727
0.425376
0.419969
0.415417
0.404114
0.395402
0.375716
0.36125
0.329131
0.309091
0.250986
0.239079
0.108499
0.175417
0.246878
0.277188
0.287566
0.304115
0.310698
0.318506
0.321985
0.325905
0.327918
0.330147
0.331557
0.333096
0.334283
0.335567
0.336684
0.337867
0.338995
0.34021
0.34144
0.342775
0.344181
0.345718
0.347373
0.349193
0.351174
0.353361
0.355756
0.358395
0.361293
0.364462
0.367932
0.371684
0.375736
0.380076
0.38468
0.389504
0.394483
0.399568
0.40462
0.409597
0.414232
0.418563
0.422076
0.425083
0.426671
0.427783
0.426506
0.425102
0.419676
0.415065
0.403759
0.394983
0.375311
0.360771
0.328697
0.308544
0.25058
0.238444
0.108326
0.174706
0.24987
0.278136
0.288136
0.30427
0.310791
0.318549
0.322066
0.325989
0.328028
0.330257
0.331676
0.333209
0.334396
0.335677
0.336796
0.337979
0.339107
0.340322
0.341552
0.342886
0.344291
0.345829
0.347483
0.349304
0.351285
0.353472
0.355867
0.358507
0.361405
0.364574
0.368044
0.371793
0.375843
0.380179
0.384776
0.389589
0.394556
0.399624
0.404657
0.409609
0.414217
0.418515
0.421997
0.424966
0.426522
0.42759
0.426283
0.424827
0.419382
0.414713
0.403406
0.394568
0.374915
0.360305
0.328281
0.30802
0.250202
0.23784
0.10819
0.174004
0.25282
0.279096
0.288723
0.304441
0.310896
0.318599
0.322153
0.32608
0.328147
0.330376
0.331805
0.333334
0.33452
0.335798
0.336918
0.338101
0.339231
0.340445
0.341675
0.343009
0.344414
0.345951
0.347606
0.349427
0.351408
0.353597
0.355992
0.358633
0.361531
0.3647
0.368169
0.371916
0.375964
0.380295
0.384884
0.389685
0.394639
0.39969
0.404702
0.409628
0.414208
0.418471
0.421919
0.42485
0.426372
0.427394
0.426057
0.424551
0.419087
0.414363
0.403056
0.394159
0.374528
0.359852
0.327882
0.307518
0.24985
0.237266
0.10809
0.173311
0.255732
0.280067
0.289326
0.304627
0.311011
0.318659
0.322247
0.326179
0.328274
0.330505
0.331946
0.333471
0.334658
0.335931
0.337052
0.338235
0.339366
0.340581
0.341811
0.343145
0.34455
0.346087
0.347741
0.349563
0.351545
0.353735
0.356131
0.358773
0.361671
0.364841
0.368308
0.372053
0.376098
0.380424
0.385004
0.389794
0.394732
0.399765
0.404755
0.409654
0.414202
0.418429
0.421842
0.424734
0.42622
0.427197
0.425828
0.424272
0.41879
0.414012
0.402707
0.393756
0.374149
0.359411
0.327501
0.307039
0.249525
0.23672
0.108026
0.172625
0.258609
0.281046
0.289944
0.304828
0.311137
0.318727
0.322348
0.326285
0.32841
0.330646
0.332099
0.333621
0.334809
0.336077
0.337199
0.338382
0.339514
0.340729
0.34196
0.343294
0.344699
0.346236
0.347892
0.349714
0.351697
0.353888
0.356285
0.358928
0.361827
0.364997
0.368463
0.372205
0.376248
0.380568
0.385138
0.389914
0.394837
0.39985
0.404816
0.409686
0.414202
0.41839
0.421767
0.424617
0.426067
0.426998
0.425597
0.423991
0.41849
0.413662
0.40236
0.393357
0.373777
0.358983
0.327136
0.306583
0.249226
0.236204
0.107995
0.171945
0.261454
0.282032
0.290575
0.305042
0.311274
0.318804
0.322458
0.3264
0.328558
0.330799
0.332265
0.333785
0.334974
0.336239
0.337361
0.338543
0.339677
0.340892
0.342124
0.343458
0.344864
0.346401
0.348057
0.34988
0.351864
0.354056
0.356455
0.359099
0.361999
0.365169
0.368634
0.372373
0.376413
0.380726
0.385286
0.390048
0.394953
0.399945
0.404885
0.409725
0.414206
0.418354
0.421692
0.4245
0.425911
0.426796
0.425362
0.423708
0.418189
0.413312
0.402015
0.392963
0.373414
0.358568
0.326789
0.306149
0.248953
0.235715
0.107997
0.171271
0.26427
0.283023
0.291219
0.305269
0.311421
0.318891
0.322575
0.326524
0.328716
0.330965
0.332445
0.333965
0.335156
0.336416
0.337537
0.338718
0.339854
0.341069
0.342303
0.343637
0.345044
0.346582
0.348239
0.350063
0.352049
0.354242
0.356642
0.359288
0.362188
0.365358
0.368822
0.372558
0.376594
0.3809
0.385447
0.390194
0.395081
0.40005
0.404963
0.40977
0.414215
0.418321
0.421617
0.424383
0.425752
0.426592
0.425123
0.423422
0.417884
0.412962
0.40167
0.392574
0.373058
0.358166
0.326458
0.305737
0.248706
0.235255
0.10803
0.170604
0.267059
0.284018
0.291873
0.305507
0.311578
0.318987
0.3227
0.326659
0.328885
0.331145
0.33264
0.334162
0.335354
0.33661
0.337731
0.33891
0.340047
0.341263
0.342498
0.343833
0.345241
0.34678
0.348438
0.350263
0.35225
0.354446
0.356847
0.359495
0.362395
0.365566
0.369028
0.37276
0.376793
0.38109
0.385624
0.390354
0.395222
0.400166
0.40505
0.409821
0.414228
0.41829
0.421543
0.424265
0.42559
0.426384
0.424879
0.423133
0.417576
0.412611
0.401326
0.39219
0.37271
0.357778
0.326143
0.305348
0.248483
0.234822
0.108095
0.169943
0.269825
0.285016
0.292536
0.305757
0.311745
0.319092
0.322833
0.326803
0.329066
0.331338
0.332851
0.334376
0.335572
0.336823
0.337943
0.33912
0.340258
0.341474
0.342711
0.344047
0.345456
0.346996
0.348656
0.350483
0.352472
0.354669
0.357072
0.359721
0.362622
0.365793
0.369252
0.372981
0.37701
0.381297
0.385815
0.390528
0.395375
0.400294
0.405146
0.409879
0.414245
0.418262
0.421468
0.424145
0.425425
0.426173
0.424631
0.42284
0.417264
0.41226
0.400983
0.39181
0.372369
0.357403
0.325844
0.304982
0.248285
0.234415
0.108189
0.169289
0.272568
0.286015
0.293208
0.306017
0.311922
0.319207
0.322974
0.326957
0.329257
0.331545
0.333078
0.334607
0.335808
0.337056
0.338175
0.339349
0.340487
0.341704
0.342942
0.34428
0.345691
0.347232
0.348893
0.350722
0.352713
0.354912
0.357317
0.359968
0.362869
0.36604
0.369496
0.373221
0.377245
0.381521
0.386023
0.390717
0.395541
0.400433
0.40525
0.409943
0.414266
0.418235
0.421393
0.424024
0.425256
0.425958
0.424377
0.422544
0.416949
0.411908
0.40064
0.391436
0.372035
0.357041
0.325561
0.30464
0.24811
0.234034
0.108315
0.168642
0.275293
0.287014
0.293886
0.306286
0.312108
0.31933
0.323123
0.32712
0.32946
0.331766
0.333322
0.334857
0.336066
0.33731
0.338428
0.3396
0.340738
0.341954
0.343194
0.344533
0.345946
0.34749
0.349153
0.350983
0.352976
0.355177
0.357584
0.360236
0.363138
0.366308
0.369761
0.373482
0.3775
0.381762
0.386246
0.390921
0.395721
0.400582
0.405364
0.410013
0.414291
0.418211
0.421317
0.423901
0.425083
0.425739
0.424118
0.422243
0.416629
0.411555
0.400297
0.391066
0.371708
0.356694
0.325294
0.30432
0.247959
0.233678
0.108469
0.168002
0.278001
0.288012
0.294569
0.306564
0.312302
0.319461
0.32328
0.327292
0.329674
0.332
0.333582
0.335126
0.336344
0.337587
0.338704
0.339873
0.341011
0.342227
0.343468
0.344809
0.346224
0.347769
0.349435
0.351267
0.353263
0.355466
0.357874
0.360528
0.363429
0.366599
0.370048
0.373764
0.377775
0.382022
0.386487
0.391142
0.395916
0.400743
0.405486
0.410091
0.41432
0.418188
0.421241
0.423775
0.424905
0.425516
0.423853
0.421939
0.416305
0.4112
0.399953
0.390701
0.371389
0.356361
0.325041
0.304021
0.247832
0.233348
0.108651
0.167372
0.280695
0.289006
0.295256
0.30685
0.312505
0.319601
0.323444
0.327473
0.329898
0.332248
0.333858
0.335415
0.336643
0.337887
0.339005
0.340171
0.341308
0.342523
0.343766
0.345108
0.346526
0.348073
0.349741
0.351576
0.353573
0.355779
0.358189
0.360844
0.363745
0.366914
0.370358
0.374069
0.378072
0.382301
0.386745
0.39138
0.396125
0.400915
0.405618
0.410175
0.414352
0.418167
0.421162
0.423648
0.424722
0.425287
0.423581
0.421629
0.415975
0.410845
0.39961
0.390341
0.371079
0.356039
0.324803
0.303743
0.247729
0.233042
0.108857
0.166751
0.283377
0.289997
0.295946
0.307143
0.312716
0.319749
0.323616
0.327662
0.330132
0.332508
0.33415
0.335722
0.336964
0.338211
0.33933
0.340495
0.341631
0.342845
0.344088
0.345432
0.346852
0.348402
0.350072
0.35191
0.35391
0.356118
0.35853
0.361185
0.364086
0.367253
0.370692
0.374398
0.378389
0.3826
0.387023
0.391635
0.39635
0.401099
0.405758
0.410266
0.414389
0.418147
0.421083
0.423517
0.424534
0.425053
0.423302
0.421314
0.415641
0.410488
0.399265
0.389985
0.370777
0.35573
0.324581
0.303486
0.24765
0.232763
0.109087
0.166141
0.286049
0.290982
0.296637
0.307442
0.312934
0.319904
0.323795
0.32786
0.330376
0.332781
0.334457
0.336047
0.337306
0.338559
0.339682
0.340845
0.341981
0.343193
0.344438
0.345782
0.347205
0.348757
0.350431
0.352272
0.354274
0.356484
0.358898
0.361554
0.364454
0.367619
0.371051
0.374751
0.378729
0.382919
0.387321
0.391908
0.396588
0.401296
0.405908
0.410363
0.414429
0.418129
0.421001
0.423383
0.424339
0.424814
0.423016
0.420994
0.4153
0.410128
0.39892
0.389635
0.370483
0.355431
0.324373
0.30325
0.247594
0.23251
0.109337
0.165543
0.288713
0.29196
0.297329
0.307747
0.313159
0.320066
0.323981
0.328065
0.330628
0.333065
0.334777
0.336389
0.337668
0.33893
0.340059
0.341222
0.342359
0.34357
0.344816
0.346161
0.347586
0.349141
0.350818
0.352661
0.354667
0.356879
0.359294
0.361951
0.36485
0.368011
0.371437
0.37513
0.379091
0.383261
0.387641
0.392199
0.396842
0.401504
0.406067
0.410467
0.414472
0.418111
0.420916
0.423245
0.424139
0.424568
0.422723
0.420668
0.414954
0.409767
0.398574
0.38929
0.370197
0.355143
0.324181
0.303037
0.24756
0.232283
0.109609
0.164957
0.291372
0.292929
0.298019
0.308056
0.31339
0.320236
0.324175
0.328277
0.330888
0.33336
0.335111
0.336748
0.33805
0.339324
0.340462
0.341628
0.342766
0.343977
0.345223
0.346569
0.347997
0.349554
0.351235
0.353081
0.35509
0.357304
0.359721
0.362378
0.365275
0.368433
0.371851
0.375535
0.379477
0.383625
0.387982
0.392507
0.39711
0.401726
0.406235
0.410577
0.414518
0.418093
0.42083
0.423104
0.423931
0.424316
0.422421
0.420335
0.414602
0.409403
0.398226
0.388949
0.369919
0.354867
0.324002
0.302844
0.247545
0.232081
0.109901
0.164383
0.294027
0.293889
0.298706
0.30837
0.313627
0.320412
0.324375
0.328497
0.331155
0.333664
0.335456
0.337122
0.338451
0.339739
0.34089
0.342061
0.343203
0.344414
0.345662
0.347009
0.348438
0.349999
0.351682
0.353532
0.355544
0.35776
0.360179
0.362835
0.36573
0.368883
0.372293
0.375967
0.379887
0.384014
0.388345
0.392834
0.397394
0.40196
0.406412
0.410694
0.414568
0.418076
0.42074
0.422959
0.423717
0.424057
0.422112
0.419996
0.414244
0.409035
0.397878
0.388611
0.369647
0.354602
0.323837
0.302673
0.24755
0.231905
0.110211
0.163824
0.296681
0.294837
0.29939
0.308687
0.31387
0.320595
0.324582
0.328725
0.331431
0.333976
0.335813
0.33751
0.338868
0.340176
0.341341
0.342521
0.343669
0.344882
0.346132
0.34748
0.348912
0.350475
0.352162
0.354015
0.35603
0.358249
0.360668
0.363324
0.366216
0.369364
0.372764
0.376426
0.380323
0.384426
0.38873
0.39318
0.397693
0.402208
0.4066
0.410817
0.414621
0.418059
0.420647
0.422809
0.423497
0.423791
0.421794
0.41965
0.41388
0.408664
0.397531
0.388276
0.36938
0.354348
0.323685
0.302522
0.247573
0.231754
0.110537
0.163281
0.299336
0.295772
0.300068
0.309007
0.314118
0.320785
0.324796
0.328959
0.331713
0.334298
0.336179
0.337911
0.339301
0.340631
0.341815
0.343006
0.344163
0.345381
0.346634
0.347985
0.34942
0.350985
0.352675
0.354532
0.35655
0.358771
0.361191
0.363846
0.366734
0.369876
0.373266
0.376914
0.380785
0.384864
0.389137
0.393545
0.398008
0.402468
0.406796
0.410947
0.414677
0.418043
0.420552
0.422655
0.423269
0.423518
0.421469
0.419298
0.41351
0.408289
0.397186
0.387941
0.369118
0.354104
0.323545
0.30239
0.247612
0.231628
0.110877
0.162754
0.301994
0.296693
0.30074
0.309329
0.314371
0.32098
0.325016
0.3292
0.332003
0.334627
0.336555
0.338323
0.339748
0.341104
0.34231
0.343516
0.344684
0.345909
0.347168
0.348522
0.349961
0.351529
0.353223
0.355082
0.357104
0.359326
0.361748
0.364401
0.367285
0.370419
0.373798
0.37743
0.381274
0.385327
0.389566
0.393929
0.398339
0.402742
0.407002