/*--------------------------------*- C++ -*----------------------------------*\
| =========                 |                                                 |
| \\      /  F ield         | OpenFOAM: The Open Source CFD Toolbox           |
|  \\    /   O peration     | Version:  2.4.0                                 |
|   \\  /    A nd           | Web:      www.OpenFOAM.org                      |
|    \\/     M anipulation  |                                                 |
\*---------------------------------------------------------------------------*/
FoamFile
{
    version     2.0;
    format      ascii;
    class       volScalarField;
    location    "3.4";
    object      p;
}
// * * * * * * * * * * * * * * * * * * * * * * * * * * * * * * * * * * * * * //

dimensions      [0 2 -2 0 0 0 0];

internalField   nonuniform List<scalar> 
6000
(
-0.156377
0.204108
0.20443
0.210461
0.209652
0.211826
0.211951
0.213077
0.213467
0.214045
0.214205
0.214406
0.215186
0.217341
0.221977
0.225536
0.22334
0.219372
0.227763
0.232065
0.218563
0.206387
0.196018
0.187521
0.179902
0.173148
0.167137
0.161919
0.157633
0.154409
0.152378
0.15175
0.152681
0.155403
0.159972
0.166792
0.175901
0.187708
0.202324
0.220155
0.241639
0.267832
0.297477
0.331647
0.364064
0.393281
0.410613
0.422303
0.419934
0.411712
0.390641
0.367603
0.333369
0.305325
0.266271
0.239715
0.194946
0.167222
0.103101
0.0956114
-0.125388
0.200882
0.204392
0.210409
0.20963
0.211797
0.211932
0.213056
0.213452
0.214036
0.214203
0.214395
0.215132
0.217153
0.221513
0.224756
0.222921
0.219298
0.22763
0.232431
0.219262
0.20689
0.196391
0.187803
0.180121
0.173317
0.167253
0.161978
0.157636
0.154357
0.152275
0.151599
0.152488
0.155148
0.159788
0.16649
0.175577
0.187358
0.201954
0.219744
0.24116
0.267243
0.29674
0.330653
0.362903
0.391963
0.409313
0.420897
0.418494
0.410111
0.38902
0.365918
0.331773
0.303748
0.264828
0.238471
0.193473
0.165947
0.101799
0.0932354
-0.115101
0.198829
0.204385
0.21042
0.209624
0.211789
0.211926
0.213049
0.213449
0.214036
0.214208
0.214387
0.215092
0.216968
0.221075
0.224053
0.222398
0.219306
0.22748
0.23273
0.219826
0.207392
0.196863
0.188224
0.180493
0.173638
0.167517
0.162187
0.157789
0.154454
0.152315
0.151582
0.152412
0.155026
0.15955
0.166199
0.175211
0.186917
0.201426
0.219102
0.240352
0.266241
0.295484
0.329107
0.361201
0.390209
0.407613
0.419223
0.416861
0.408458
0.387418
0.364445
0.33053
0.302683
0.263982
0.237611
0.192808
0.165407
0.101223
0.0929479
-0.100969
0.196672
0.204412
0.210401
0.209635
0.21178
0.211919
0.213042
0.213447
0.214039
0.214212
0.214371
0.21503
0.216763
0.22066
0.223467
0.22194
0.219287
0.22724
0.232889
0.220223
0.2078
0.197295
0.188627
0.180855
0.17395
0.167774
0.162387
0.157928
0.154532
0.152328
0.151528
0.152288
0.154822
0.15928
0.165867
0.174801
0.186426
0.200847
0.218406
0.239492
0.265199
0.29421
0.327599
0.359586
0.388574
0.405993
0.417601
0.415232
0.40678
0.385741
0.362834
0.329021
0.301279
0.262685
0.236452
0.191769
0.16428
0.100411
0.091364
-0.0877786
0.194368
0.20441
0.210383
0.209662
0.211777
0.211916
0.213038
0.213447
0.214046
0.214217
0.214351
0.214955
0.216553
0.220278
0.223002
0.221555
0.219287
0.226918
0.232866
0.220401
0.208093
0.19766
0.188978
0.181173
0.174223
0.167993
0.162551
0.158031
0.154574
0.152306
0.151441
0.152133
0.154596
0.158988
0.165512
0.174375
0.185926
0.20027
0.21772
0.238663
0.264213
0.293033
0.326254
0.358183
0.387172
0.404581
0.416164
0.413751
0.405219
0.384136
0.361254
0.327522
0.299895
0.261442
0.235303
0.19072
0.163269
0.0995754
0.0906649
-0.0757914
0.191995
0.204346
0.210373
0.209697
0.211784
0.211916
0.213037
0.213448
0.214054
0.214222
0.21433
0.214868
0.216339
0.21992
0.22262
0.221222
0.219319
0.226538
0.232687
0.220392
0.208287
0.197955
0.189276
0.181444
0.174451
0.168171
0.162674
0.158097
0.154582
0.152253
0.151325
0.151953
0.154349
0.158679
0.165143
0.17394
0.185425
0.199698
0.217048
0.237862
0.263276
0.291936
0.325039
0.356941
0.385946
0.403339
0.414888
0.412415
0.403782
0.382633
0.359748
0.326075
0.298548
0.260223
0.234165
0.189683
0.162282
0.0987292
0.0897881
-0.0647831
0.189638
0.204207
0.21036
0.209739
0.211802
0.21192
0.213038
0.213451
0.214063
0.214227
0.214309
0.214772
0.216122
0.219573
0.222286
0.220934
0.219377
0.226165
0.232378
0.220248
0.20841
0.198194
0.189529
0.181675
0.174643
0.168313
0.162765
0.158131
0.154559
0.152171
0.151184
0.151751
0.154083
0.158353
0.16476
0.173494
0.184917
0.199125
0.216378
0.23707
0.262358
0.290877
0.323893
0.35579
0.384828
0.402201
0.413718
0.411176
0.402434
0.381207
0.358303
0.324673
0.297231
0.259025
0.23305
0.188668
0.161318
0.0978915
0.089023
-0.0545399
0.187343
0.203988
0.210335
0.209788
0.21183
0.211928
0.213042
0.213456
0.214074
0.214233
0.214287
0.21467
0.215902
0.219233
0.221982
0.220703
0.219452
0.225845
0.231989
0.220014
0.208482
0.198388
0.189746
0.181874
0.174805
0.168428
0.162828
0.158138
0.154511
0.152065
0.151021
0.151528
0.153798
0.158011
0.164362
0.173036
0.184399
0.198542
0.215697
0.236273
0.261439
0.289825
0.322775
0.354684
0.383768
0.401121
0.412609
0.409997
0.401138
0.37983
0.356893
0.323299
0.295931
0.257846
0.231957
0.187677
0.160387
0.0970793
0.0883481
-0.0449477
0.185132
0.203687
0.210287
0.209847
0.211866
0.211943
0.213048
0.213463
0.214087
0.21424
0.214264
0.214564
0.215678
0.218896
0.221696
0.220541
0.219547
0.225617
0.231554
0.219727
0.208521
0.198548
0.189934
0.182046
0.174942
0.168518
0.162868
0.158123
0.154441
0.151938
0.150838
0.151286
0.153496
0.157653
0.16395
0.172564
0.183868
0.197947
0.215002
0.235461
0.260505
0.288764
0.321661
0.353595
0.382734
0.400069
0.411534
0.40885
0.399868
0.378473
0.355496
0.321935
0.294638
0.25668
0.230884
0.18671
0.159495
0.0963008
0.0877503
-0.0359375
0.183014
0.203308
0.210209
0.209918
0.211906
0.211965
0.213059
0.213473
0.214101
0.214249
0.21424
0.214456
0.215452
0.21856
0.221423
0.220449
0.219704
0.225512
0.231103
0.219417
0.20854
0.198682
0.1901
0.182197
0.175059
0.168589
0.162889
0.158088
0.154353
0.151794
0.150638
0.151029
0.153178
0.157282
0.163523
0.172078
0.183322
0.197337
0.214288
0.23463
0.259549
0.287682
0.320533
0.352503
0.381703
0.399023
0.41047
0.407714
0.398601
0.377116
0.354093
0.320568
0.293342
0.255522
0.229826
0.185766
0.158642
0.0955584
0.087221
-0.0274536
0.180998
0.202857
0.210095
0.209995
0.21195
0.211995
0.213074
0.213486
0.214118
0.214258
0.214217
0.214347
0.215225
0.21822
0.221164
0.220421
0.219947
0.225555
0.230659
0.219109
0.208552
0.198797
0.190248
0.182331
0.175159
0.168643
0.162895
0.158039
0.15425
0.151634
0.150424
0.150758
0.152847
0.156896
0.163083
0.171578
0.182762
0.19671
0.213554
0.233774
0.258566
0.286569
0.319379
0.351393
0.380658
0.397965
0.4094
0.406569
0.397318
0.375742
0.352672
0.319188
0.292036
0.254366
0.228781
0.184845
0.157829
0.0948515
0.0867553
-0.0194452
0.179089
0.202342
0.209942
0.210073
0.212
0.212033
0.213095
0.213503
0.214136
0.214269
0.214194
0.214237
0.214998
0.217873
0.220918
0.220467
0.220288
0.225766
0.230246
0.218825
0.208564
0.198901
0.190385
0.182451
0.175247
0.168685
0.162887
0.157977
0.154134
0.151461
0.150197
0.150475
0.152504
0.156499
0.162631
0.171064
0.182187
0.196066
0.212797
0.232893
0.257551
0.285423
0.31819
0.350253
0.379589
0.396878
0.408304
0.405401
0.396006
0.374339
0.351221
0.317785
0.290712
0.253209
0.227743
0.183944
0.157052
0.0941785
0.0863488
-0.0118671
0.17729
0.201774
0.209747
0.210147
0.212055
0.212081
0.213121
0.213523
0.214158
0.214282
0.214173
0.214129
0.214774
0.217522
0.220676
0.220584
0.220739
0.226162
0.229883
0.218577
0.208587
0.199001
0.190514
0.182563
0.175325
0.168717
0.16287
0.157905
0.154009
0.151278
0.149961
0.150182
0.15215
0.156092
0.162167
0.170537
0.181598
0.195407
0.212019
0.231986
0.256505
0.284239
0.316963
0.349078
0.378483
0.395749
0.407171
0.404199
0.394655
0.372898
0.349731
0.316352
0.289366
0.252047
0.22671
0.183062
0.156313
0.0935375
0.085998
-0.00468061
0.175604
0.201162
0.209511
0.21021
0.212113
0.212137
0.213152
0.213548
0.214182
0.214297
0.214154
0.214023
0.214553
0.217174
0.220428
0.220763
0.221303
0.226729
0.229597
0.218378
0.208628
0.199101
0.19064
0.18267
0.175397
0.168743
0.162846
0.157826
0.153876
0.151088
0.149718
0.149882
0.151789
0.155675
0.161692
0.169998
0.180996
0.194731
0.211219
0.231054
0.255426
0.283019
0.315695
0.347863
0.377331
0.39457
0.405994
0.402955
0.393257
0.371409
0.348195
0.314883
0.287992
0.250876
0.225681
0.182196
0.155609
0.0929263
0.0857
0.00214766
0.174032
0.200517
0.209233
0.210257
0.212173
0.212201
0.213189
0.213578
0.214209
0.214314
0.214138
0.213921
0.214339
0.216835
0.220182
0.220985
0.221968
0.227436
0.229414
0.218237
0.208691
0.199208
0.190767
0.182774
0.175465
0.168764
0.162817
0.157742
0.153738
0.150891
0.149468
0.149575
0.15142
0.155252
0.16121
0.169449
0.180382
0.194042
0.210401
0.230098
0.254318
0.281762
0.314388
0.346604
0.376128
0.393336
0.404763
0.40166
0.391801
0.369863
0.346603
0.313371
0.286586
0.249694
0.224653
0.181346
0.154939
0.0923429
0.0854525
0.00864624
0.172571
0.199847
0.20892
0.210283
0.212232
0.212271
0.213231
0.213612
0.21424
0.214333
0.214124
0.213824
0.214131
0.216512
0.21994
0.22124
0.222712
0.228256
0.229341
0.218161
0.208782
0.199326
0.190899
0.182878
0.175532
0.168784
0.162786
0.157655
0.153597
0.150692
0.149216
0.149264
0.151046
0.154822
0.160719
0.168891
0.179758
0.19334
0.209565
0.229122
0.253182
0.280472
0.313041
0.345298
0.374872
0.392041
0.403472
0.400307
0.390279
0.368252
0.34495
0.311811
0.285146
0.2485
0.223624
0.180511
0.154303
0.0917852
0.0852539
0.0148399
0.171219
0.199163
0.208574
0.210286
0.212287
0.212346
0.21328
0.213651
0.214274
0.214356
0.214113
0.213734
0.213933
0.216207
0.219701
0.221523
0.223507
0.229162
0.229379
0.218155
0.208904
0.199458
0.191037
0.182986
0.175601
0.168803
0.162754
0.157568
0.153455
0.15049
0.148961
0.14895
0.150669
0.154389
0.160224
0.168326
0.179126
0.192628
0.208714
0.228126
0.252022
0.279151
0.311658
0.343946
0.373562
0.390681
0.402114
0.398888
0.388683
0.366567
0.343227
0.310197
0.283666
0.247291
0.222594
0.17969
0.1537
0.0912515
0.0851032
0.0207503
0.169976
0.198472
0.208199
0.210267
0.212335
0.212424
0.213335
0.213695
0.214311
0.214381
0.214106
0.21365
0.213745
0.215924
0.219471
0.221825
0.224325
0.230125
0.229521
0.218223
0.20906
0.199608
0.191186
0.183099
0.175672
0.168825
0.162723
0.157481
0.153313
0.150289
0.148705
0.148636
0.15029
0.153953
0.159724
0.167755
0.178487
0.191907
0.20785
0.227115
0.250841
0.277802
0.310238
0.34255
0.372193
0.389253
0.400681
0.397398
0.387006
0.364802
0.341428
0.308524
0.282144
0.246065
0.221563
0.178882
0.153131
0.0907402
0.0849999
0.0263963
0.168837
0.197783
0.207799
0.210229
0.212371
0.212508
0.213395
0.213745
0.214351
0.214411
0.214104
0.213574
0.21357
0.215663
0.219254
0.222138
0.225146
0.231118
0.229759
0.218363
0.209252
0.199779
0.191347
0.18322
0.175749
0.16885
0.162695
0.157396
0.153174
0.150089
0.148452
0.148322
0.149911
0.153516
0.159222
0.16718
0.177843
0.19118
0.206975
0.226091
0.249642
0.27643
0.308784
0.341112
0.370765
0.387753
0.399168
0.395828
0.385239
0.362948
0.339544
0.306788
0.280577
0.244821
0.220528
0.178085
0.152595
0.09025
0.084944
0.0317947
0.167801
0.1971
0.207379
0.210168
0.212393
0.212597
0.21346
0.2138
0.214395
0.214443
0.214105
0.213507
0.213408
0.215425
0.219051
0.222463
0.225955
0.232117
0.230079
0.218574
0.20948
0.199972
0.191521
0.18335
0.175833
0.168881
0.162671
0.157316
0.153038
0.149892
0.148201
0.14801
0.149533
0.15308
0.158719
0.166602
0.177196
0.190449
0.206093
0.225058
0.248429
0.275039
0.3073
0.339634
0.369276
0.38618
0.397567
0.394173
0.383374
0.360996
0.33757
0.30498
0.278961
0.243559
0.219491
0.177299
0.152093
0.0897793
0.0849357
0.0369602
0.166865
0.196428
0.206943
0.210085
0.212404
0.212689
0.213528
0.21386
0.214443
0.21448
0.214112
0.213449
0.213261
0.215209
0.218866
0.222795
0.226741
0.233105
0.230467
0.218851
0.209746
0.200189
0.191712
0.183491
0.175925
0.168919
0.162654
0.157241
0.152907
0.149701
0.147954
0.147703
0.149159
0.152647
0.158217
0.166024
0.176549
0.189717
0.205207
0.224019
0.247207
0.273633
0.305791
0.338117
0.367726
0.384532
0.395874
0.392426
0.381403
0.358938
0.335494
0.303097
0.277295
0.242276
0.218451
0.176522
0.151625
0.0893264
0.0849759
0.0419062
0.166027
0.195773
0.206498
0.209981
0.212404
0.212781
0.213601
0.213926
0.214494
0.214521
0.214125
0.213401
0.213129
0.215013
0.218703
0.223131
0.227505
0.23406
0.230909
0.21919
0.210048
0.200432
0.191919
0.183645
0.176027
0.168965
0.162644
0.157173
0.152783
0.149515
0.147713
0.1474
0.148789
0.152218
0.157717
0.165447
0.175903
0.188985
0.204317
0.222976
0.245978
0.272215
0.304259
0.336563
0.366113
0.382808
0.394083
0.390578
0.379317
0.356765
0.333309
0.301131
0.275575
0.24097
0.217409
0.175753
0.151192
0.0888892
0.0850663
0.0466448
0.165285
0.195135
0.206048
0.209858
0.21239
0.212871
0.213677
0.213995
0.21455
0.214565
0.214143
0.213363
0.213014
0.214838
0.218564
0.22347
0.22825
0.234967
0.231396
0.219584
0.210385
0.2007
0.192145
0.183812
0.17614
0.169021
0.162642
0.157112
0.152667
0.149337
0.147479
0.147105
0.148426
0.151794
0.157222
0.164873
0.17526
0.188255
0.203428
0.221934
0.244748
0.270791
0.302708
0.334975
0.364439
0.381006
0.392188
0.388623
0.377106
0.354465
0.331003
0.299075
0.2738
0.23964
0.216364
0.174995
0.150792
0.0884652
0.0852093
0.0511874
0.164634
0.194519
0.205597
0.209719
0.212364
0.21296
0.21376
0.214069
0.21461
0.214614
0.214167
0.213336
0.212918
0.214685
0.218448
0.223808
0.228978
0.235818
0.231912
0.220035
0.210756
0.200994
0.19239
0.183994
0.176265
0.169087
0.162651
0.157062
0.15256
0.149167
0.147254
0.146818
0.14807
0.151378
0.156733
0.164303
0.174623
0.187531
0.202542
0.220894
0.24352
0.269365
0.301143
0.333353
0.362702
0.379127
0.390185
0.386551
0.374763
0.352029
0.328565
0.296924
0.271964
0.238285
0.215314
0.174247
0.150424
0.0880512
0.0854076
0.0555445
0.164073
0.193926
0.205151
0.209565
0.212332
0.213041
0.213851
0.214148
0.214675
0.214667
0.214197
0.21332
0.21284
0.214555
0.218357
0.224143
0.229686
0.236609
0.232448
0.220538
0.21116
0.201314
0.192654
0.184192
0.176403
0.169165
0.162669
0.157021
0.152463
0.149008
0.147039
0.14654
0.147723
0.150971
0.156251
0.16374
0.173992
0.186814
0.201662
0.219862
0.242297
0.267941
0.299567
0.331702
0.360905
0.377171
0.388069
0.384354
0.372278
0.349447
0.325985
0.294671
0.270064
0.236902
0.214259
0.173508
0.150093
0.0876446
0.0856632
0.0597264
0.163598
0.193357
0.204712
0.209398
0.212296
0.213108
0.21395
0.214232
0.214745
0.214726
0.214235
0.213316
0.212781
0.214449
0.218293
0.224472
0.230372
0.237343
0.233009
0.221073
0.211598
0.20166
0.192937
0.184406
0.176555
0.169256
0.1627
0.156992
0.152377
0.148859
0.146834
0.146273
0.147387
0.150574
0.155779
0.163184
0.173371
0.186106
0.20079
0.218839
0.241084
0.266523
0.297983
0.330023
0.359046
0.37514
0.385837
0.382022
0.369642
0.346714
0.323257
0.292312
0.268096
0.235489
0.213199
0.172776
0.149799
0.0872442
0.0859776
0.0637431
0.163203
0.192814
0.204284
0.209224
0.212254
0.213161
0.214053
0.214326
0.21482
0.214789
0.214279
0.213324
0.21274
0.214367
0.218256
0.224791
0.231033
0.238025
0.233591
0.221629
0.212069
0.202029
0.19324
0.184637
0.176721
0.16936
0.162743
0.156975
0.152304
0.148722
0.146642
0.146018
0.147062
0.150189
0.155317
0.162639
0.172761
0.18541
0.199928
0.217829
0.239883
0.265115
0.296398
0.328319
0.357129
0.373035
0.383486
0.37955
0.366846
0.343836
0.320383
0.289847
0.266059
0.234043
0.212135
0.172049
0.149544
0.0868491
0.0863537
0.0676041
0.162884
0.192297
0.203869
0.209044
0.212205
0.213211
0.214153
0.214431
0.214898
0.214858
0.21433
0.213344
0.21272
0.21431
0.218248
0.2251
0.231669
0.23867
0.234178
0.222202
0.212569
0.202421
0.193563
0.184885
0.176902
0.169479
0.1628
0.156971
0.152244
0.148598
0.146463
0.145777
0.14675
0.149817
0.154868
0.162105
0.172164
0.184727
0.199079
0.216834
0.238699
0.263722
0.294813
0.326592
0.355154
0.370861
0.381016
0.376934
0.363886
0.340821
0.317376
0.287284
0.263957
0.232561
0.211063
0.171324
0.14933
0.0864573
0.0867952
0.0713191
0.162636
0.191808
0.20347
0.208861
0.21215
0.213266
0.214241
0.214546
0.214982
0.214932
0.214389
0.213377
0.21272
0.214278
0.21827
0.225395
0.232277
0.239287
0.234758
0.222797
0.213092
0.202834
0.193905
0.18515
0.177099
0.169612
0.162871
0.156982
0.152198
0.148488
0.146299
0.14555
0.146453
0.149461
0.154433
0.161584
0.171582
0.18406
0.198246
0.215857
0.237535
0.262346
0.293234
0.324847
0.353124
0.36862
0.378429
0.374173
0.360769
0.337686
0.314254
0.284639
0.261796
0.231046
0.209983
0.170599
0.149157
0.0860659
0.0873068
0.0748969
0.162454
0.191348
0.203089
0.208677
0.212091
0.213328
0.214316
0.214668
0.215074
0.215011
0.214455
0.213423
0.212741
0.214273
0.21832
0.225678
0.232857
0.239879
0.235328
0.223412
0.213633
0.203268
0.194266
0.185433
0.177311
0.169761
0.162957
0.157007
0.152167
0.148394
0.14615
0.145339
0.146171
0.149121
0.154013
0.161077
0.171017
0.183411
0.19743
0.214902
0.236395
0.260991
0.291664
0.323085
0.35104
0.366318
0.375726
0.37127
0.357507
0.334442
0.311039
0.281928
0.259588
0.229503
0.208893
0.169869
0.14903
0.0856705
0.0878945
0.0783465
0.16233
0.190917
0.202725
0.208496
0.212032
0.213392
0.214385
0.214793
0.215177
0.215093
0.214529
0.213482
0.212783
0.214293
0.218392
0.225956
0.233419
0.240436
0.235889
0.224042
0.214191
0.203722
0.194645
0.185733
0.17754
0.169925
0.163058
0.157049
0.152153
0.148315
0.146018
0.145145
0.145906
0.148798
0.15361
0.160588
0.170471
0.182781
0.196635
0.213971
0.235281
0.259662
0.290107
0.32131
0.348907
0.363958
0.372913
0.368233
0.354117
0.331105
0.307749
0.279169
0.257348
0.22794
0.207794
0.169131
0.148949
0.0852651
0.0885648
0.0816759
0.16226
0.190515
0.202381
0.208322
0.211975
0.213454
0.214454
0.214919
0.215288
0.215181
0.214611
0.213555
0.212847
0.21434
0.218486
0.226231
0.233969
0.240951
0.236443
0.224677
0.214767
0.204194
0.195041
0.186051
0.177786
0.170107
0.163176
0.157106
0.152155
0.148252
0.145903
0.144968
0.145659
0.148495
0.153226
0.160116
0.169945
0.182173
0.195862
0.213068
0.234196
0.258361
0.288568
0.319525
0.346728
0.361544
0.369997
0.365075
0.350616
0.32769
0.304401
0.276374
0.255086
0.226369
0.206689
0.168387
0.148916
0.0848429
0.0893248
0.0848928
0.162238
0.190144
0.202055
0.208154
0.211923
0.213513
0.214531
0.215039
0.215406
0.215279
0.214699
0.213642
0.212931
0.214413
0.218603
0.226502
0.234513
0.241418
0.236993
0.225312
0.21536
0.204685
0.195454
0.186385
0.178048
0.170304
0.16331
0.157181
0.152174
0.148208
0.145806
0.144811
0.145432
0.148213
0.152862
0.159665
0.169443
0.181589
0.195114
0.212194
0.233146
0.257092
0.287051
0.317734
0.344507
0.35908
0.366985
0.36181
0.347017
0.324211
0.30101
0.273557
0.25281
0.2248
0.20558
0.167637
0.148933
0.0843961
0.0901817
0.088004
0.16226
0.189802
0.20175
0.207997
0.211878
0.21357
0.21462
0.215153
0.21553
0.215389
0.214793
0.213745
0.213037
0.214511
0.218744
0.22677
0.235053
0.241835
0.237543
0.225944
0.215968
0.205194
0.195883
0.186737
0.178326
0.170519
0.163461
0.157274
0.152212
0.148181
0.145729
0.144673
0.145225
0.147952
0.15252
0.159236
0.168965
0.18103
0.194393
0.211353
0.232131
0.255858
0.285558
0.315942
0.34225
0.35657
0.363888
0.358453
0.343337
0.320682
0.297592
0.270728
0.250528
0.223242
0.204471
0.166886
0.148998
0.0839173
0.0911422
0.0910156
0.162319
0.18949
0.201466
0.20785
0.211839
0.21363
0.21472
0.215267
0.21566
0.215511
0.214896
0.213862
0.213164
0.214636
0.21891
0.227039
0.23559
0.242197
0.23809
0.226569
0.216588
0.205722
0.196326
0.187106
0.178621
0.170752
0.16363
0.157385
0.152269
0.148174
0.145673
0.144557
0.14504
0.147716
0.152201
0.158831
0.168514
0.180499
0.193702
0.210548
0.231156
0.254663
0.284096
0.314152
0.339964
0.354018
0.360715
0.355016
0.339589
0.317117
0.294157
0.267899
0.248247
0.221699
0.203364
0.16614
0.149106
0.0834005
0.0922117
0.0939328
0.162414
0.189207
0.201203
0.207714
0.211807
0.213696
0.214829
0.215386
0.215795
0.215642
0.215011
0.213993
0.213311
0.214786
0.219102
0.227308
0.236126
0.242504
0.238635
0.227189
0.217217
0.206268
0.196785
0.187491
0.178933
0.171002
0.163817
0.157514
0.152346
0.148187
0.145637
0.144462
0.144878
0.147504
0.151907
0.158451
0.168092
0.179998
0.193043
0.209782
0.230225
0.253511
0.282666
0.31237
0.337653
0.351429
0.35748
0.351512
0.335788
0.313531
0.290719
0.265079
0.245976
0.220177
0.202255
0.165418
0.149252
0.0828414
0.0933945
0.09676
0.16254
0.188952
0.200963
0.207591
0.211783
0.213769
0.214942
0.215515
0.215931
0.215783
0.215142
0.214137
0.21348
0.214962
0.219319
0.22758
0.23666
0.242755
0.239173
0.227801
0.217852
0.206833
0.197257
0.187892
0.179262
0.17127
0.164022
0.157663
0.152442
0.148221
0.145624
0.144391
0.14474
0.147318
0.15164
0.158098
0.167701
0.179528
0.192417
0.209057
0.229339
0.252404
0.281275
0.310599
0.335324
0.348808
0.354192
0.347954
0.331951
0.309937
0.287292
0.262277
0.243723
0.218683
0.20114
0.164732
0.149432
0.0822342
0.0946978
0.0995008
0.162694
0.188724
0.200743
0.20748
0.211768
0.213852
0.215061
0.215662
0.216068
0.215936
0.215288
0.214298
0.21367
0.215163
0.219562
0.227855
0.23719
0.242955
0.239702
0.228407
0.21849
0.207416
0.197743
0.188309
0.179608
0.171556
0.164246
0.157832
0.15256
0.148276
0.145634
0.144343
0.144627
0.14716
0.151399
0.157775
0.167343
0.179092
0.191829
0.208377
0.228502
0.251346
0.279925
0.308844
0.332983
0.346161
0.350864
0.344355
0.328094
0.306347
0.283889
0.259505
0.241497
0.217225
0.200023
0.164081
0.149647
0.0815777
0.0961246
0.102158
0.162875
0.188524
0.200546
0.207381
0.211763
0.213944
0.215189
0.215827
0.216207
0.216101
0.21545
0.214478
0.213879
0.21539
0.219831
0.228133
0.237704
0.243122
0.240216
0.229009
0.219127
0.208016
0.198245
0.188742
0.17997
0.17186
0.164488
0.158022
0.152699
0.148353
0.145667
0.14432
0.144541
0.147032
0.151188
0.157482
0.16702
0.178691
0.191279
0.207744
0.227717
0.250341
0.278622
0.307111
0.330638
0.343495
0.347511
0.340726
0.324234
0.302774
0.280524
0.256772
0.239305
0.215808
0.198911
0.163467
0.149897
0.0808837
0.0976679
0.104734
0.163082
0.188351
0.20037
0.207295
0.211768
0.214044
0.215329
0.216003
0.21636
0.216277
0.215628
0.21468
0.214109
0.215642
0.220125
0.228414
0.238176
0.243301
0.240692
0.229606
0.219759
0.208631
0.198763
0.18919
0.180349
0.172183
0.164751
0.158232
0.15286
0.148454
0.145726
0.144323
0.144482
0.146933
0.151008
0.157223
0.166734
0.178328
0.190771
0.207163
0.226988
0.249393
0.277369
0.305404
0.328296
0.340814
0.344145
0.337081
0.320388
0.299229
0.277209
0.254089
0.237154
0.214441
0.197808
0.16289
0.15018
0.0801663
0.0993165
0.107231
0.163312
0.188204
0.200214
0.207223
0.211784
0.214151
0.215481
0.216189
0.216536
0.216462
0.215826
0.214903
0.214363
0.21592
0.220442
0.228699
0.238568
0.243549
0.241107
0.230202
0.220382
0.20926
0.199299
0.189654
0.180745
0.172524
0.165033
0.158464
0.153044
0.148577
0.145809
0.144352
0.144452
0.146867
0.15086
0.156999
0.166488
0.178004
0.190308
0.206636
0.226317
0.248505
0.276171
0.303727
0.325964
0.338124
0.340777
0.333437
0.316569
0.295723
0.273957
0.251467
0.235053
0.21313
0.196713
0.162356
0.150482
0.0794645
0.101057
0.10965
0.163566
0.188083
0.200079
0.207165
0.211811
0.214267
0.215647
0.216385
0.216736
0.216653
0.216046
0.215149
0.214644
0.216223
0.22078
0.228988
0.238871
0.243889
0.241449
0.230796
0.220996
0.209899
0.199854
0.190133
0.181158
0.172885
0.165335
0.158717
0.153251
0.148726
0.14592
0.144408
0.144452
0.146834
0.150745
0.156812
0.166283
0.177721
0.189892
0.206166
0.225707
0.247682
0.275033
0.302085
0.323651
0.335432
0.337407
0.329814
0.312793
0.292266
0.270779
0.248915
0.233008
0.211871
0.195634
0.161867
0.150791
0.0788025
0.102878
0.111992
0.163843
0.187987
0.199964
0.207121
0.211848
0.21439
0.215825
0.216595
0.216955
0.216858
0.216287
0.215419
0.214955
0.216552
0.221136
0.229283
0.239124
0.244284
0.241712
0.231388
0.221598
0.210544
0.200429
0.190629
0.181589
0.173265
0.165658
0.158993
0.153482
0.148899
0.146057
0.144493
0.144483
0.146835
0.150666
0.156664
0.166122
0.177483
0.189525
0.205756
0.225163
0.246929
0.273958
0.300483
0.321367
0.332742
0.334045
0.32623
0.309076
0.288872
0.267686
0.246441
0.231023
0.21066
0.19458
0.161427
0.151101
0.0781848
0.104775
0.114259
0.164142
0.187916
0.199867
0.207092
0.211895
0.214522
0.216013
0.216819
0.217189
0.21709
0.216545
0.215717
0.215296
0.216908
0.22151
0.229585
0.239363
0.244697
0.241894
0.231974
0.222192
0.211193
0.201025
0.19114
0.182037
0.173665
0.166002
0.159292
0.153737
0.149098
0.146223
0.144608
0.144546
0.146872
0.150622
0.156557
0.166007
0.177289
0.189212
0.205411
0.224686
0.246249
0.272951
0.298923
0.31912
0.33006
0.330714
0.322693
0.305428
0.285556
0.264687
0.244048
0.229103
0.209495
0.193561
0.161035
0.151404
0.0776316
0.106742
0.116453
0.164462
0.18787
0.19979
0.207076
0.211951
0.214663
0.216211
0.217058
0.217439
0.217354
0.216816
0.216045
0.215669
0.217292
0.221903
0.229894
0.239596
0.245109
0.242015
0.232548
0.222777
0.211842
0.201641
0.19167
0.182503
0.174085
0.166367
0.159615
0.154017
0.149324
0.146418
0.144752
0.144642
0.146946
0.150617
0.156494
0.165941
0.177144
0.188955
0.205134
0.224281
0.245648
0.272015
0.29741
0.31692
0.327392
0.327432
0.319209
0.30186
0.282327
0.261786
0.241742
0.227249
0.208373
0.19258
0.16069
0.151695
0.0771524
0.108777
0.118576
0.164803
0.187847
0.199733
0.207075
0.212018
0.214813
0.216418
0.21731
0.217706
0.217645
0.217109
0.216402
0.216077
0.217707
0.222315
0.230212
0.239818
0.245472
0.24213
0.2331
0.223357
0.212485
0.202273
0.19222
0.182989
0.174526
0.166754
0.159961
0.154323
0.149577
0.146642
0.144927
0.144774
0.147059
0.150652
0.156477
0.165925
0.177049
0.188758
0.204929
0.223951
0.245131
0.271153
0.295948
0.314772
0.324751
0.324212
0.315781
0.29838
0.279196
0.258989
0.239524
0.225464
0.207295
0.191643
0.160389
0.151976
0.0767479
0.110882
0.120629
0.165162
0.187847
0.199694
0.207087
0.212096
0.214971
0.216634
0.217573
0.217991
0.217959
0.217437
0.216782
0.216523
0.218156
0.222747
0.230536
0.240028
0.24571
0.242323
0.233622
0.223932
0.213122
0.202918
0.192793
0.183493
0.174989
0.167164
0.160333
0.154655
0.149858
0.146898
0.145134
0.14494
0.147212
0.150727
0.156507
0.165963
0.177007
0.188624
0.204798
0.223699
0.244703
0.270366
0.294542
0.312682
0.322144
0.321094
0.312398
0.294998
0.276167
0.256302
0.237397
0.223748
0.206259
0.19075
0.160129
0.152251
0.0764131
0.113056
0.122615
0.16554
0.187868
0.199675
0.207113
0.212184
0.215138
0.216858
0.217847
0.218292
0.218292
0.217802
0.217188
0.217005
0.218641
0.223201
0.23087
0.240223
0.245847
0.242583
0.234104
0.224502
0.213749
0.203572
0.193389
0.184017
0.175474
0.167598
0.16073
0.155015
0.150168
0.147185
0.145374
0.145144
0.147407
0.150846
0.156588
0.166055
0.177019
0.188558
0.204746
0.223529
0.244369
0.269656
0.293195
0.310653
0.319583
0.318151
0.308995
0.291724
0.273244
0.253725
0.235362
0.222102
0.205266
0.189904
0.159905
0.152525
0.0761408
0.115298
0.124537
0.165934
0.18791
0.199674
0.207153
0.212282
0.215313
0.217091
0.218129
0.218609
0.218644
0.2182
0.21763
0.21752
0.219166
0.223677
0.231214
0.240405
0.245958
0.242848
0.234537
0.225062
0.214369
0.204229
0.194009
0.184563
0.175982
0.168056
0.161154
0.155403
0.150507
0.147506
0.145648
0.145386
0.147645
0.151008
0.156722
0.166206
0.177088
0.188562
0.204777
0.223445
0.244134
0.269025
0.291914
0.308681
0.317082
0.315434
0.305537
0.288574
0.270431
0.251259
0.233418
0.220527
0.204315
0.189104
0.159714
0.152804
0.0759227
0.117603
0.126396
0.166341
0.187973
0.199693
0.207206
0.212392
0.215497
0.217333
0.218419
0.218939
0.219013
0.218627
0.218118
0.218063
0.21973
0.22418
0.23157
0.24057
0.246051
0.243097
0.234932
0.225608
0.214981
0.204886
0.19465
0.185133
0.176514
0.168539
0.161605
0.155819
0.150878
0.14786
0.145957
0.145667
0.147927
0.151217
0.15691
0.166416
0.177217
0.188643
0.204893
0.223452
0.244003
0.268473
0.290701
0.306767
0.314645
0.312988
0.302086
0.285553
0.267733
0.248906
0.231566
0.219021
0.203406
0.188351
0.159554
0.153094
0.0757515
0.119964
0.128197
0.166761
0.188055
0.19973
0.207274
0.212513
0.21569
0.217583
0.218718
0.219279
0.219396
0.219079
0.218643
0.218641
0.22033
0.22471
0.231934
0.240721
0.246123
0.243323
0.235308
0.226131
0.215585
0.20554
0.195309
0.185727
0.177071
0.169048
0.162085
0.156265
0.151281
0.148249
0.146302
0.14599
0.148255
0.151473
0.157157
0.166689
0.177409
0.188804
0.205101
0.223555
0.243977
0.268001
0.289561
0.304917
0.312283
0.310699
0.298709
0.282663
0.265152
0.246664
0.229805
0.217585
0.202538
0.187645
0.159421
0.1534
0.0756211
0.122373
0.129941
0.167191
0.188155
0.199786
0.207356
0.212645
0.215893
0.217842
0.219026
0.219628
0.219795
0.219549
0.219196
0.219265
0.22096
0.225268
0.232309
0.240859
0.246166
0.243534
0.235665
0.226627
0.216181
0.206191
0.19598
0.186348
0.177653
0.169585
0.162594
0.156742
0.151716
0.148674
0.146683
0.146354
0.148631
0.15178
0.157464
0.167026
0.177667
0.18905
0.205402
0.22376
0.24406
0.267613
0.288493
0.303139
0.310023
0.308477
0.295455
0.2799
0.262689
0.244534
0.228133
0.216218
0.201711
0.186986
0.159314
0.153724
0.075527
0.12482
0.131631
0.167628
0.188274
0.199859
0.207452
0.212788
0.216106
0.218111
0.219342
0.219986
0.220207
0.220035
0.219762
0.219937
0.221626
0.22585
0.232692
0.24098
0.246175
0.243732
0.236011
0.227093
0.216767
0.206835
0.196661
0.186996
0.178263
0.170149
0.163133
0.157251
0.152186
0.149137
0.147103
0.146762
0.149055
0.152138
0.157835
0.167431
0.177993
0.189385
0.205801
0.224071
0.244249
0.267313
0.287494
0.301437
0.307886
0.30632
0.292382
0.277258
0.260343
0.242512
0.226549
0.214918
0.200924
0.186373
0.159231
0.154071
0.0754662
0.127295
0.133269
0.168072
0.188409
0.19995
0.207563
0.212943
0.216328
0.218388
0.219668
0.220354
0.220628
0.220534
0.220339
0.220637
0.222329
0.226451
0.233082
0.24108
0.246153
0.243912
0.236347
0.227534
0.21734
0.207457
0.197362
0.187669
0.178902
0.170742
0.163705
0.157792
0.152691
0.149638
0.147562
0.147215
0.14953
0.152549
0.158272
0.167904
0.178391
0.189816
0.206303
0.224494
0.244544
0.267106
0.286561
0.299832
0.305942
0.304093
0.289539
0.27474
0.258115
0.240597
0.225051
0.213685
0.200177
0.185806
0.159169
0.154443
0.0754366
0.129788
0.134857
0.168521
0.188562
0.200059
0.207687
0.21311
0.216561
0.218676
0.220003
0.220732
0.221058
0.22104
0.220933
0.221345
0.223061
0.227074
0.233472
0.24116
0.246102
0.244065