/*--------------------------------*- C++ -*----------------------------------*\
| =========                 |                                                 |
| \\      /  F ield         | OpenFOAM: The Open Source CFD Toolbox           |
|  \\    /   O peration     | Version:  2.4.0                                 |
|   \\  /    A nd           | Web:      www.OpenFOAM.org                      |
|    \\/     M anipulation  |                                                 |
\*---------------------------------------------------------------------------*/
FoamFile
{
    version     2.0;
    format      ascii;
    class       volVectorField;
    location    "5.18";
    object      U;
}
// * * * * * * * * * * * * * * * * * * * * * * * * * * * * * * * * * * * * * //

dimensions      [0 1 -1 0 0 0 0];

internalField   nonuniform List<vector> 
6000
(
(0.513518 -0.0430715 -5.95579e-18)
(-0.317782 0.0668532 0)
(0.111631 -0.0273474 1.02556e-17)
(0.00929167 -0.0018496 0)
(0.00576316 7.89425e-05 0)
(-0.0293469 0.00570709 0)
(-0.0148827 0.0031889 4.38133e-18)
(-0.0319378 0.00584331 1.98468e-24)
(-0.0314794 0.00594868 0)
(-0.044741 0.00767431 0)
(-0.0516683 0.00870979 3.67985e-18)
(-0.0631949 0.00976225 -7.10318e-18)
(-0.0702853 0.0102794 0)
(-0.0766294 0.0102654 0)
(-0.0794404 0.00994209 -1.62178e-18)
(-0.0821173 0.00958357 0)
(-0.0863572 0.00960664 0)
(-0.094839 0.0100146 -1.51982e-18)
(-0.106478 0.0104799 -1.49127e-18)
(-0.118418 0.0105671 0)
(-0.128301 0.0101949 1.44391e-18)
(-0.136114 0.00954859 7.13272e-19)
(-0.142569 0.00875707 -7.06857e-19)
(-0.147929 0.00782749 0)
(-0.152334 0.00678423 0)
(-0.155849 0.00564635 0)
(-0.158483 0.00443384 3.51103e-19)
(-0.160213 0.00316757 -3.53094e-19)
(-0.160964 0.00186824 0)
(-0.1606 0.000503093 0)
(-0.159143 -0.000854198 4.5683e-20)
(-0.156574 -0.00216474 0)
(-0.152813 -0.00341 3.79427e-19)
(-0.147782 -0.00456096 -3.88264e-19)
(-0.141405 -0.00558462 0)
(-0.133609 -0.00644736 0)
(-0.124334 -0.00711016 8.45566e-19)
(-0.113515 -0.00753843 0)
(-0.101123 -0.0076856 9.05028e-19)
(-0.0870873 -0.00752321 0)
(-0.0714557 -0.0069907 0)
(-0.0540746 -0.00607814 2.02779e-18)
(-0.0352246 -0.00470311 -4.21795e-18)
(-0.0143592 -0.00286791 0)
(0.00745937 -0.000495373 0)
(0.0317679 0.00241507 2.36644e-18)
(0.0562813 0.00594304 0)
(0.0844354 0.0100503 0)
(0.111516 0.0149306 -5.22309e-18)
(0.144532 0.0204476 -5.40192e-18)
(0.173694 0.026935 -5.52092e-18)
(0.213854 0.034184 -6.32754e-21)
(0.243829 0.042603 5.71052e-18)
(0.296033 0.0522125 0)
(0.323455 0.0629318 -9.78826e-21)
(0.398398 0.0764405 -6.08481e-18)
(0.41218 0.0878754 4.92164e-18)
(0.535945 0.110323 6.16924e-18)
(0.512971 0.118952 1.68105e-20)
(0.764264 0.165986 0)
(0.72677 -0.108554 4.48161e-18)
(-0.209408 0.062689 5.94788e-18)
(0.0917596 -0.0316405 -4.97508e-18)
(-0.0218139 0.00860553 -5.28517e-18)
(0.00474549 0.00148109 0)
(-0.0421786 0.00899225 0)
(-0.0238317 0.00511312 -4.30798e-18)
(-0.0426703 0.0082716 8.25478e-18)
(-0.0421651 0.0084741 0)
(-0.0557181 0.0101705 0)
(-0.0628225 0.0113122 -3.57137e-18)
(-0.0735256 0.0120038 3.43593e-18)
(-0.0800465 0.0122816 1.6554e-18)
(-0.085487 0.011868 0)
(-0.0882718 0.0114105 1.55821e-18)
(-0.091451 0.0111446 0)
(-0.0967403 0.0115228 0)
(-0.105778 0.0122173 0)
(-0.116863 0.0126771 0)
(-0.127343 0.0124807 0)
(-0.135888 0.0117967 2.10809e-22)
(-0.142813 0.0109061 0)
(-0.148531 0.00990999 -6.67156e-19)
(-0.153216 0.00879718 0)
(-0.156967 0.00758303 0)
(-0.159822 0.00627936 3.27681e-19)
(-0.161779 0.00490178 -3.2777e-19)
(-0.162811 0.00346441 5.49256e-23)
(-0.162882 0.0019846 1.65375e-19)
(-0.161983 0.000491342 0)
(-0.160029 -0.00100298 -4.22129e-20)
(-0.156918 -0.0024627 -1.71264e-19)
(-0.152575 -0.00386054 -1.55974e-22)
(-0.146918 -0.0051648 3.55743e-19)
(-0.139873 -0.00633902 -3.63704e-19)
(-0.131365 -0.00734652 0)
(-0.121335 -0.0081433 0)
(-0.109718 -0.00869179 0)
(-0.0964874 -0.00893838 0)
(-0.0815731 -0.00885337 0)
(-0.0650255 -0.00836657 -1.74085e-18)
(-0.0466924 -0.00746941 0)
(-0.0268494 -0.00606961 1.86828e-18)
(-0.00499252 -0.00417296 1.93211e-18)
(0.0179627 -0.0016851 0)
(0.0433874 0.00136217 0)
(0.0693298 0.00512074 0)
(0.0987629 0.00945115 0)
(0.127582 0.0147129 4.51919e-18)
(0.162057 0.020524 0)
(0.193408 0.0276125 0)
(0.235241 0.0351788 -4.8657e-18)
(0.268114 0.0445617 -4.85921e-18)
(0.322226 0.0544065 0)
(0.353738 0.0666871 -9.50246e-18)
(0.430507 0.0800904 0)
(0.453978 0.0954574 -8.16284e-18)
(0.576373 0.116156 -4.98867e-18)
(0.573757 0.132224 1.77399e-18)
(0.817057 0.173345 4.9764e-18)
(0.79866 -0.0913493 -3.36051e-19)
(-0.0780347 0.0481039 -5.55886e-18)
(0.067021 -0.0277198 0)
(-0.0537178 0.0168193 5.24203e-18)
(0.00158043 0.00279709 0)
(-0.0466121 0.0104044 0)
(-0.0275676 0.006192 0)
(-0.0460011 0.00928126 -4.01549e-18)
(-0.0453392 0.00974425 0)
(-0.0582325 0.011283 -3.60619e-18)
(-0.0648698 0.0124736 0)
(-0.0749651 0.0129067 0)
(-0.0812258 0.0130164 -1.57746e-18)
(-0.0866902 0.0123987 0)
(-0.089802 0.0119121 0)
(-0.0933109 0.0117833 0)
(-0.0986024 0.0124378 0)
(-0.107056 0.0133303 0)
(-0.117155 0.0137677 0)
(-0.126744 0.013382 1.31588e-18)
(-0.134743 0.0125043 -1.28541e-18)
(-0.141332 0.0114639 0)
(-0.146765 0.0103467 -7.70747e-23)
(-0.151193 0.00912887 -6.11865e-19)
(-0.154702 0.00781873 0)
(-0.157323 0.0064225 -6.02288e-19)
(-0.159051 0.0049529 0)
(-0.159863 0.00342254 3.00222e-19)
(-0.159724 0.00184614 -1.50559e-19)
(-0.158601 0.000259317 0)
(-0.156409 -0.00132595 0)
(-0.153056 -0.00288478 1.54425e-19)
(-0.148467 -0.00438667 -1.57583e-22)
(-0.14256 -0.00579869 0)
(-0.135261 -0.00708286 6.48959e-19)
(-0.126495 -0.00820106 0)
(-0.116203 -0.00910717 6.78491e-19)
(-0.10432 -0.00976211 0)
(-0.0908206 -0.0101094 0)
(-0.0756346 -0.0101182 0)
(-0.0588119 -0.00971508 1.51654e-18)
(-0.0402053 -0.00889076 0)
(-0.0200752 -0.00754993 0)
(0.00204077 -0.00570014 -1.65863e-18)
(0.0253463 -0.00323423 0)
(0.051066 -0.000214365 0)
(0.0774794 0.00356259 1.80055e-18)
(0.107217 0.00787447 -1.84958e-18)
(0.136629 0.0132063 -1.89042e-18)
(0.171394 0.0189758 0)
(0.203545 0.026221 0)
(0.245609 0.033649 0)
(0.279649 0.0433698 3.96957e-18)
(0.333833 0.0528129 4.06232e-18)
(0.367181 0.065821 3.84196e-18)
(0.44362 0.078175 0)
(0.469832 0.0953452 3.24258e-18)
(0.59123 0.113322 7.79798e-18)
(0.593479 0.132906 0)
(0.830811 0.166264 -3.74979e-18)
(0.83649 -0.0599345 -2.63415e-19)
(0.043727 0.0395664 5.11685e-18)
(0.0473156 -0.0205458 -4.83272e-18)
(-0.0748876 0.0221075 0)
(-0.0010792 0.00323427 0)
(-0.0483159 0.0113278 0)
(-0.0294959 0.00683408 0)
(-0.0472658 0.00994541 0)
(-0.0464801 0.0105757 0)
(-0.0587137 0.0120609 3.47591e-18)
(-0.0649453 0.013264 3.2943e-18)
(-0.0746059 0.0135487 0)
(-0.0807578 0.013525 0)
(-0.0863497 0.0127687 0)
(-0.0897869 0.01226 1.40145e-18)
(-0.0935406 0.012253 0)
(-0.0987232 0.0131407 1.33692e-18)
(-0.106574 0.0142142 -1.30867e-18)
(-0.115835 0.0146592 0)
(-0.12474 0.0141438 -1.2412e-18)
(-0.132321 0.0131126 0)
(-0.138634 0.0119438 -5.89811e-19)
(-0.143834 0.0107211 1.15596e-18)
(-0.148055 0.00941186 5.68566e-19)
(-0.15137 0.00801795 0)
(-0.153807 0.00654069 2.78109e-19)
(-0.155361 0.00499006 0)
(-0.156006 0.00337734 2.75646e-19)
(-0.155707 0.00171902 0)
(-0.154419 3.61841e-05 0)
(-0.152059 -0.00164746 0)
(-0.148541 -0.00331006 1.40158e-19)
(-0.143789 -0.00492146 -5.66986e-19)
(-0.137722 -0.00644795 0)
(-0.130265 -0.00785035 -2.92128e-19)
(-0.121343 -0.00908914 0)
(-0.110898 -0.0101164 -6.07343e-19)
(-0.0988633 -0.0108912 0)
(-0.0852146 -0.011355 0)
(-0.0698826 -0.0114748 0)
(-0.0529156 -0.0111757 1.33636e-18)
(-0.034172 -0.0104447 0)
(-0.0138968 -0.00918864 1.40848e-18)
(0.00833663 -0.00740985 -1.44461e-18)
(0.0318235 -0.00500128 0)
(0.0576609 -0.00203205 -1.51708e-18)
(0.0843159 0.00171562 -3.10688e-18)
(0.114149 0.00598997 1.59071e-18)
(0.143874 0.0113191 3.23403e-18)
(0.178685 0.0170434 -3.29191e-18)
(0.211281 0.0243221 -3.31496e-18)
(0.253291 0.0316543 0)
(0.288033 0.0414864 -3.32755e-18)
(0.341953 0.0506875 -3.38169e-18)
(0.376487 0.0640035 -3.14477e-18)
(0.452231 0.0757397 0)
(0.480399 0.093658 0)
(0.600212 0.110135 -3.11273e-18)
(0.606341 0.131049 0)
(0.837229 0.159387 2.82803e-18)
(0.86151 -0.0344726 -2.46473e-19)
(0.153202 0.0356387 -8.9873e-20)
(0.054272 -0.0147664 4.78976e-18)
(-0.0861914 0.0249935 5.18601e-18)
(-0.00341287 0.00314474 0)
(-0.0490044 0.0120532 -4.40028e-18)
(-0.0305709 0.00727164 0)
(-0.0476881 0.0104761 0)
(-0.0467523 0.0112079 0)
(-0.058372 0.0127031 3.36368e-18)
(-0.0642344 0.0139019 -3.17545e-18)
(-0.0735365 0.0140936 0)
(-0.0796276 0.0139551 0)
(-0.0853635 0.0130914 0)
(-0.0890997 0.0125601 -1.3376e-18)
(-0.0930484 0.0126571 0)
(-0.0980846 0.0137417 -1.27524e-18)
(-0.105356 0.0149756 1.24779e-18)
(-0.11386 0.0154396 0)
(-0.122162 0.0148254 0)
(-0.129364 0.0136646 5.7211e-19)
(-0.135416 0.0123797 5.56674e-19)
(-0.1404 0.011058 -1.08778e-18)
(-0.144431 0.00966219 -5.33519e-19)
(-0.147571 0.0081883 0)
(-0.149843 0.00663319 2.5959e-19)
(-0.151241 0.00500416 0)
(-0.15174 0.00331076 -2.56147e-19)
(-0.151301 0.00156813 1.27785e-19)
(-0.149872 -0.000205311 0)
(-0.147373 -0.00198727 0)
(-0.143722 -0.00375484 -2.58141e-19)
(-0.138841 -0.00547745 2.60474e-19)
(-0.13265 -0.00712075 0)
(-0.125073 -0.00864444 -2.66903e-19)
(-0.116035 -0.0100076 0)
(-0.105478 -0.0111606 5.52098e-19)
(-0.0933363 -0.0120606 0)
(-0.0795848 -0.0126472 0)
(-0.0641552 -0.0128845 0)
(-0.0470945 -0.0126975 -1.2046e-18)
(-0.0282665 -0.0120679 -1.23192e-18)
(-0.00790121 -0.0109065 -1.26258e-18)
(0.0143959 -0.00920844 1.8101e-21)
(0.0379943 -0.00687175 -1.31642e-18)
(0.0638812 -0.00396402 1.34777e-18)
(0.0906803 -0.000267276 2.74611e-18)
(0.120531 0.00396039 0)
(0.150448 0.0092531 -1.42014e-18)
(0.185221 0.01493 2.88299e-18)
(0.21811 0.0221834 2.89075e-18)
(0.259977 0.0294406 0)
(0.295216 0.0392708 0)
(0.348788 0.0483129 0)
(0.384218 0.0617062 2.68223e-18)
(0.459206 0.0730592 0)
(0.488959 0.0912341 0)
(0.607143 0.106789 2.55607e-18)
(0.616589 0.128037 -8.03179e-19)
(0.841479 0.152809 -2.29146e-18)
(0.880293 -0.0137352 -2.28015e-19)
(0.250959 0.0348605 -4.71548e-18)
(0.08163 -0.00990859 0)
(-0.0884363 0.0268291 -5.16285e-18)
(-0.00569545 0.00283838 -4.6512e-18)
(-0.0492019 0.0126581 2.84719e-22)
(-0.031121 0.00757835 0)
(-0.0476457 0.0109267 0)
(-0.0465232 0.0117114 0)
(-0.0575713 0.0132548 -3.26824e-18)
(-0.0630801 0.0144431 0)
(-0.0720633 0.0145782 0)
(-0.0781079 0.0143429 1.38703e-18)
(-0.0839839 0.0133944 0)
(-0.0879913 0.0128388 0)
(-0.0921021 0.0130186 0)
(-0.0969764 0.0142633 0)
(-0.103694 0.0156346 -1.1969e-18)
(-0.111495 0.0161241 0)
(-0.119233 0.0154358 1.12752e-18)
(-0.126069 0.0141659 -5.4555e-19)
(-0.131865 0.0127759 -5.2956e-19)
(-0.13664 0.0113613 1.03204e-18)
(-0.140487 0.00988316 1.00993e-18)
(-0.14346 0.0083325 0)
(-0.145577 0.00670229 -2.44665e-19)
(-0.146829 0.00499727 0)
(-0.147191 0.00322514 0)
(-0.146622 0.0013994 -2.3953e-19)
(-0.145065 -0.000463197 0)
(-0.142442 -0.00234212 0)
(-0.138674 -0.00421373 2.40582e-19)
(-0.133682 -0.006047 0)
(-0.127386 -0.00780691 0)
(-0.119708 -0.0094521 2.4752e-19)
(-0.110576 -0.0109402 0)
(-0.0999299 -0.01222 -5.10112e-19)
(-0.0877046 -0.0132465 0)
(-0.0738749 -0.0139577 0)
(-0.0583736 -0.0143147 0)
(-0.0412463 -0.0142424 0)
(-0.0223618 -0.0137171 1.127e-18)
(-0.00193628 -0.0126541 1.14944e-18)
(0.0203957 -0.0110409 1.50781e-21)
(0.0440655 -0.00878247 1.19605e-18)
(0.0699661 -0.00594144 1.21757e-18)
(0.0968533 -0.00230623 -1.23985e-18)
(0.126683 0.0018701 0)
(0.156722 0.00710917 -1.27073e-18)
(0.191418 0.0127375 1.28531e-18)
(0.224509 0.0199345 -2.56649e-18)
(0.266198 0.0271276 0)
(0.301812 0.0368947 0)
(0.355014 0.0458232 -2.53238e-18)
(0.391165 0.0591645 -2.32759e-18)
(0.465405 0.0702681 2.39831e-18)
(0.496509 0.0884311 1.84519e-18)
(0.61312 0.103384 -2.19697e-18)
(0.62548 0.124444 6.81343e-19)
(0.844833 0.146544 0)
(0.895361 0.00500835 -2.04976e-19)
(0.337858 0.0365264 0)
(0.120477 -0.00465078 4.5701e-18)
(-0.0788931 0.0276373 5.09707e-18)
(-0.00788332 0.00259982 -5.04347e-22)
(-0.0490995 0.0131551 4.29493e-18)
(-0.0312834 0.00778851 0)
(-0.0472901 0.0113154 0)
(-0.0459469 0.0121186 0)
(-0.0564607 0.0137342 1.59432e-18)
(-0.0616214 0.0149119 1.49573e-18)
(-0.0703081 0.0150173 0)
(-0.0763055 0.014703 -1.34285e-18)
(-0.0823099 0.0136873 1.28596e-18)
(-0.086562 0.0131051 0)
(-0.0908107 0.0133467 0)
(-0.0955184 0.0147169 0)
(-0.101709 0.0162033 -1.06081e-22)
(-0.108847 0.0167228 0)
(-0.116046 0.0159812 -2.16756e-18)
(-0.12252 0.0146202 5.23441e-19)
(-0.128057 0.0131352 5.06907e-19)
(-0.132624 0.0116333 2.24033e-23)
(-0.136291 0.0100765 -4.8143e-19)
(-0.1391 0.00845197 0)
(-0.141065 0.00674916 0)
(-0.142177 0.00497038 0)
(-0.142407 0.00312147 1.13863e-19)
(-0.141713 0.00121421 2.26501e-19)
(-0.140035 -0.000736237 0)
(-0.137298 -0.00271053 0)
(-0.133423 -0.00468474 -2.26475e-19)
(-0.12833 -0.00662746 -1.13828e-19)
(-0.12194 -0.00850298 0)
(-0.114175 -0.0102689 0)
(-0.104961 -0.0118814 0)
(-0.0942392 -0.0132877 0)
(-0.0819447 -0.0144406 0)
(-0.0680524 -0.0152767 0)
(-0.0524956 -0.0157537 0)
(-0.0353189 -0.015797 0)
(-0.0163958 -0.0153771 0)
(0.00407055 -0.0144138 -1.17089e-21)
(0.0264189 -0.0128877 1.08353e-18)
(0.0501329 -0.0107108 0)
(0.0760247 -0.00793933 -2.24001e-18)
(0.102962 -0.00437146 -1.1351e-18)
(0.132748 -0.000249567 0)
(0.162861 0.00492606 1.16139e-18)
(0.197456 0.0105041 -1.17159e-18)
(0.230688 0.0176269 2.33237e-18)
(0.272183 0.0247603 -2.33433e-18)
(0.308087 0.0344292 0)
(0.360918 0.0432674 7.36743e-21)
(0.397667 0.056482 2.08329e-18)
(0.471189 0.0674101 -4.26676e-18)
(0.503469 0.0854068 -1.33762e-20)
(0.618587 0.0999377 -1.91224e-18)
(0.633533 0.120526 5.56497e-19)
(0.847761 0.140528 1.62971e-18)
(0.907668 0.0222986 -5.88508e-19)
(0.414797 0.040087 0)
(0.166674 0.0012996 9.94526e-21)
(-0.0573396 0.0278118 -3.28888e-21)
(-0.00941462 0.00265216 4.68072e-18)
(-0.0487641 0.0135515 4.26924e-18)
(-0.0311196 0.00792 0)
(-0.0466914 0.0116511 3.60475e-18)
(-0.045099 0.0124468 0)
(-0.0551127 0.0141519 -1.56078e-18)
(-0.059926 0.0153212 8.81125e-23)
(-0.0683288 0.0154193 -1.378e-18)
(-0.0742706 0.0150422 0)
(-0.0803877 0.0139742 -2.49803e-18)
(-0.084859 0.0133634 0)
(-0.0892271 0.0136466 0)
(-0.0937697 0.0151104 0)
(-0.0994624 0.0166912 1.11638e-18)
(-0.105971 0.0172439 0)
(-0.112646 0.0164669 1.04653e-18)
(-0.118758 0.0150307 -1.00929e-18)
(-0.124033 0.0134601 0)
(-0.12839 0.0118762 1.58538e-23)
(-0.131876 0.0102443 0)
(-0.134521 0.00854852 0)
(-0.136337 0.00677535 -2.22276e-19)
(-0.137309 0.00492482 0)
(-0.137409 0.00300092 -2.17241e-19)
(-0.136593 0.0010137 -1.079e-19)
(-0.134799 -0.00102327 -2.68565e-20)
(-0.131954 -0.00309146 2.68232e-20)
(-0.127977 -0.00516688 1.07499e-19)
(-0.122791 -0.00721778 2.15867e-19)
(-0.116313 -0.00920781 0)
(-0.108469 -0.0110935 2.19247e-19)
(-0.0991822 -0.0128297 0)
(-0.0883945 -0.0143619 0)
(-0.0760411 -0.0156407 0)
(-0.0620969 -0.0166013 4.63408e-19)
(-0.0464961 -0.0171983 0)
(-0.0292822 -0.0173572 0)
(-0.0103331 -0.0170432 9.77648e-19)
(0.0101599 -0.0161802 -9.95608e-19)
(0.0325111 -0.0147423 0)
(0.0562488 -0.0126486 0)
(0.082116 -0.00994837 1.04313e-18)
(0.109076 -0.00645127 1.05594e-18)
(0.1388 -0.00238585 -1.06664e-18)
(0.168952 0.00272025 0)
(0.203433 0.00824643 0)
(0.236758 0.0152838 0)
(0.278052 0.0223596 5.17185e-21)
(0.314179 0.0319078 0)
(0.366647 0.0406693 2.0752e-18)
(0.403896 0.0537099 0)
(0.476734 0.064508 1.93149e-18)
(0.510051 0.08224 -1.46107e-18)
(0.62376 0.0964602 3.42809e-18)
(0.641015 0.116411 -4.95926e-19)
(0.850469 0.134724 -1.45055e-18)
(0.917703 0.0379307 1.70986e-19)
(0.482655 0.0450058 -4.12511e-18)
(0.217458 0.00790956 -4.31604e-18)
(-0.0267832 0.0281308 -3.28047e-21)
(-0.00911214 0.00314949 -4.69629e-18)
(-0.0481752 0.013875 -4.26391e-18)
(-0.0306514 0.00798369 0)
(-0.0458818 0.0119394 -3.56374e-18)
(-0.044019 0.0127067 0)
(-0.0535661 0.0145145 -1.53309e-18)
(-0.0580299 0.0156789 -1.43064e-18)
(-0.0661559 0.0157886 1.34734e-18)
(-0.0720294 0.0153641 -1.27502e-18)
(-0.0782406 0.014257 1.21802e-18)
(-0.0829063 0.0136156 -1.17299e-18)
(-0.0873789 0.0139217 1.13933e-18)
(-0.0917624 0.0154501 0)
(-0.0969863 0.0171056 0)
(-0.102897 0.0176934 0)
(-0.10906 0.0168964 5.07315e-19)
(-0.114805 0.0153995 4.88585e-19)
(-0.119813 0.0137522 0)
(-0.123956 0.0120915 -4.57227e-19)
(-0.127259 0.0103879 0)
(-0.12974 0.00862331 0)
(-0.131405 0.00678185 2.13775e-19)
(-0.132238 0.0048614 -2.10709e-19)
(-0.13221 0.00286416 1.04241e-19)
(-0.131273 0.000798435 0)
(-0.129366 -0.00132369 5.14406e-20)
(-0.126414 -0.00348439 -5.13261e-20)
(-0.122341 -0.00565965 0)
(-0.117065 -0.0078175 -1.03065e-19)
(-0.110506 -0.00992091 2.07228e-19)
(-0.102587 -0.0119254 -2.09011e-19)
(-0.0932342 -0.0137843 0)
(-0.0823876 -0.0154417 0)
(-0.0699826 -0.0168458 0)
(-0.0559947 -0.0179305 -4.40046e-19)
(-0.0403586 -0.0186471 0)
(-0.0231168 -0.0189212 0)
(-0.00415148 -0.0187133 -9.2516e-19)
(0.0163568 -0.0179505 0)
(0.0387002 -0.0166015 9.53274e-19)
(0.0624452 -0.0145919 -9.66366e-19)
(0.0882755 -0.0119638 0)
(0.115236 -0.00853956 9.89705e-19)
(0.144886 -0.00453203 2.0002e-18)
(0.175048 0.000500493 -1.00233e-18)
(0.209405 0.00597357 0)
(0.242785 0.0129178 0)
(0.283873 0.0199368 9.98876e-19)
(0.320171 0.0293488 0)
(0.372284 0.0380423 1.90974e-18)
(0.409955 0.050876 0)
(0.482141 0.0615743 1.76264e-18)
(0.516378 0.0789734 1.3165e-18)
(0.628753 0.0929592 -1.56049e-18)
(0.64808 0.112164 0)
(0.853067 0.129106 1.29211e-18)
(0.925875 0.0519106 -1.05777e-19)
(0.542277 0.0508328 7.39862e-20)
(0.27066 0.0150658 4.21906e-18)
(0.0107975 0.0290806 -3.44804e-21)
(-0.00582958 0.00418068 -5.93861e-22)
(-0.0472057 0.0141775 0)
(-0.0298735 0.00798838 0)
(-0.0448716 0.0121838 0)
(-0.0427263 0.0129051 -1.62191e-18)
(-0.0518411 0.0148263 3.02041e-18)
(-0.0559531 0.0159895 0)
(-0.0638058 0.0161276 1.3218e-18)
(-0.0695954 0.01567 -4.54504e-23)
(-0.0758808 0.0145357 -1.19199e-18)
(-0.0807167 0.0138624 -1.39346e-23)
(-0.0852811 0.0141744 -1.11277e-18)
(-0.0895141 0.0157405 0)
(-0.0942992 0.0174522 0)
(-0.0996403 0.0180755 0)
(-0.105302 0.0172718 -4.93444e-19)
(-0.110677 0.0157276 0)
(-0.115411 0.0140123 4.5783e-19)
(-0.119335 0.01228 4.43242e-19)
(-0.122451 0.0105078 -4.31064e-19)
(-0.124765 0.00867692 0)
(-0.126278 0.00676915 0)
(-0.126972 0.00478053 2.03424e-19)
(-0.126814 0.00271151 0)
(-0.125757 0.000568697 9.96405e-20)
(-0.123737 -0.0016372 -2.4765e-20)
(-0.120682 -0.00388902 2.46895e-20)
(-0.116514 -0.0061628 -9.87016e-20)
(-0.111152 -0.00842634 0)
(-0.104515 -0.010642 -1.98938e-19)
(-0.0965267 -0.0127642 0)
(-0.0871119 -0.0147449 0)
(-0.0762116 -0.0165266 4.08952e-19)
(-0.063761 -0.0180552 0)
(-0.0497359 -0.0192633 0)
(-0.0340714 -0.0200989 0)
(-0.0168096 -0.0204878 0)
(0.002164 -0.0203857 0)
(0.0226781 -0.019723 0)
(0.0450045 -0.0184631 -1.81302e-18)
(0.0687431 -0.016538 9.18394e-19)
(0.0945261 -0.0139824 9.28708e-19)
(0.121468 -0.0106323 -1.87499e-18)
(0.151034 -0.00668361 -9.45873e-19)
(0.181183 -0.00172744 9.47156e-19)
(0.215407 0.00369137 -9.47926e-19)
(0.24881 0.0105368 0)
(0.28969 0.0174991 2.04998e-21)
(0.326114 0.0267638 -1.7912e-18)
(0.377881 0.0353946 -1.78688e-18)
(0.415906 0.0479975 -1.60324e-18)
(0.487472 0.0586166 -3.27448e-18)
(0.522526 0.0756333 -1.21986e-18)
(0.633638 0.0894393 1.42626e-18)
(0.654824 0.107829 3.75658e-19)
(0.855615 0.123653 -1.1878e-18)
(0.932554 0.0644409 -1.49137e-19)
(0.594467 0.0572241 3.94232e-18)
(0.324589 0.0226429 2.39722e-21)
(0.0545455 0.0307306 -3.82803e-21)
(0.00148348 0.00608256 4.62766e-18)
(-0.0455638 0.0145289 4.3102e-18)
(-0.0287525 0.00794544 -3.84338e-18)
(-0.0436543 0.0123872 1.75776e-18)
(-0.0412265 0.0130468 -6.45415e-23)
(-0.0499466 0.0150906 -1.4918e-18)
(-0.0537052 0.0162559 -1.38563e-18)
(-0.0612865 0.0164375 -1.30036e-18)
(-0.0669752 0.0159601 2.4543e-18)
(-0.0733135 0.01481 -2.97557e-23)
(-0.0782957 0.0141037 1.12462e-18)
(-0.082941 0.0144064 0)
(-0.0870341 0.0159859 1.06118e-18)
(-0.0914107 0.0177358 0)
(-0.0962106 0.0183936 -9.99814e-19)
(-0.10138 0.0175946 -4.81426e-19)
(-0.106382 0.0160154 -4.62817e-19)
(-0.110834 0.0142406 1.53698e-23)
(-0.114533 0.0124419 -4.312e-19)
(-0.117458 0.0106045 4.18949e-19)
(-0.119603 0.00870962 0)
(-0.120962 0.00673748 -2.00369e-19)
(-0.121514 0.00468239 0)
(-0.121226 0.00254313 0)
(-0.120048 0.000324635 -9.64587e-20)
(-0.117916 -0.00196365 0)
(-0.114758 -0.00430518 0)
(-0.110497 -0.00667613 9.53592e-20)
(-0.10505 -0.00904409 0)
(-0.0983382 -0.0113707 0)
(-0.0902835 -0.0136096 1.9306e-19)
(-0.0808107 -0.015711 0)
(-0.0698611 -0.0176161 -3.93845e-19)
(-0.0573698 -0.0192684 0)
(-0.0433129 -0.0205991 4.03871e-19)
(-0.0276261 -0.0215529 0)
(-0.0103506 -0.0220561 0)
(0.00862412 -0.0220595 0)
(0.0291354 -0.0214962 0)
(0.0514369 -0.0203255 8.67656e-19)
(0.0751569 -0.0184847 0)
(0.100884 -0.0160018 -1.77411e-18)
(0.127792 -0.0127264 8.94276e-19)
(0.157264 -0.0088374 -8.99304e-19)
(0.187379 -0.00395951 8.98904e-19)
(0.221462 0.00140395 9.01096e-19)
(0.254862 0.00814652 0)
(0.29553 0.0150517 8.83452e-19)
(0.332042 0.0241605 2.53809e-18)
(0.383471 0.0327317 -1.67693e-18)
(0.421793 0.0450858 1.50899e-18)
(0.492765 0.0556401 1.53503e-18)
(0.528548 0.0722375 0)
(0.638458 0.0859035 -1.33242e-18)
(0.661314 0.103432 -6.87784e-19)
(0.858153 0.11835 0)
(0.938052 0.0757243 6.95155e-19)
(0.639979 0.063914 0)
(0.377918 0.0305177 1.26577e-22)
(0.102636 0.0332462 -4.3247e-21)
(0.0156134 0.00844461 -4.54708e-18)
(-0.0426792 0.0150324 -8.69877e-18)
(-0.0272153 0.0078753 7.72124e-18)
(-0.0422073 0.0125525 -1.75376e-18)
(-0.0395138 0.0131353 1.5969e-18)
(-0.0478829 0.0153093 0)
(-0.0512889 0.0164797 -6.03203e-23)
(-0.0586004 0.0167186 0)
(-0.0641704 0.0162338 -2.41791e-18)
(-0.0705399 0.0150786 1.15155e-18)
(-0.0756447 0.0143393 0)
(-0.0803611 0.0146191 0)
(-0.0843262 0.0161895 -1.04093e-18)
(-0.0883249 0.0179606 0)
(-0.0926117 0.0186508 9.78627e-19)
(-0.0972998 0.0178659 4.70903e-19)
(-0.101924 0.0162631 -1.73242e-23)
(-0.106088 0.0144371 -4.35456e-19)
(-0.109556 0.0125771 -4.20804e-19)
(-0.112285 0.010678 0)
(-0.114256 0.00872146 0)
(-0.115458 0.00668689 1.95085e-19)
(-0.115866 0.004567 0)
(-0.115446 0.00235904 9.4671e-20)
(-0.114145 6.62947e-05 -9.37006e-20)
(-0.111902 -0.00230298 2.32512e-20)
(-0.108642 -0.00473282 -2.31491e-20)
(-0.104287 -0.00719956 9.24541e-20)
(-0.0987584 -0.00967063 -9.25608e-20)
(-0.0919728 -0.012107 1.85804e-19)
(-0.0838542 -0.0144614 -1.87006e-19)
(-0.0743266 -0.0166825 0)
(-0.0633313 -0.0187099 0)
(-0.0508035 -0.0204849 0)
(-0.0367196 -0.0219374 -2.17548e-22)
(-0.0210159 -0.0230087 3.95554e-19)
(-0.00373252 -0.0236252 0)
(0.0152369 -0.0237336 0)
(0.0357376 -0.0232693 0)
(0.0580068 -0.0221872 0)
(0.0816975 -0.0204306 0)
(0.10736 -0.0180202 8.17221e-22)
(0.13422 -0.0148199 0)
(0.16359 -0.0109911 1.72395e-18)
(0.193653 -0.00619281 -1.72089e-18)
(0.227588 -0.000885735 -8.59334e-19)
(0.26096 0.00575089 0)
(0.301415 0.012598 0)
(0.33798 0.0215444 -1.60613e-18)
(0.389077 0.0300575 4.24649e-21)
(0.427646 0.0421491 -1.4197e-18)
(0.498047 0.0526482 1.44242e-18)
(0.534478 0.0687985 1.05361e-18)
(0.643241 0.0823542 -1.24163e-18)
(0.667599 0.0989917 6.26099e-19)
(0.860705 0.113182 1.01416e-18)
(0.942621 0.0859104 1.31898e-19)
(0.679522 0.0706933 -3.66832e-18)
(0.42963 0.0385751 -7.93494e-18)
(0.153618 0.0366818 -4.9521e-21)
(0.0366597 0.0112332 4.45175e-18)
(-0.0375212 0.0158252 4.3804e-18)
(-0.0251235 0.00781751 -1.9446e-18)
(-0.0404883 0.0126838 0)
(-0.0375717 0.0131739 0)
(-0.0456426 0.0154845 1.46728e-18)
(-0.0487007 0.0166621 1.35619e-18)
(-0.0557451 0.0169707 0)
(-0.0611791 0.0164902 1.19393e-18)
(-0.0675578 0.0153402 0)
(-0.0727622 0.0145684 0)
(-0.0775404 0.0148137 0)
(-0.0813899 0.0163548 0)
(-0.0850415 0.0181304 9.93544e-19)
(-0.0888435 0.0188497 4.80075e-19)
(-0.0930611 0.0180867 -4.6174e-19)
(-0.0973052 0.0164706 -1.49324e-23)
(-0.101174 0.0146015 0)
(-0.104404 0.0126856 4.11787e-19)
(-0.106931 0.0107281 0)
(-0.108725 0.00871239 0)
(-0.109767 0.00661732 1.90499e-19)
(-0.110028 0.00443433 -1.87218e-19)
(-0.109473 0.0021592 -9.23624e-20)
(-0.10805 -0.00020635 9.13625e-20)
(-0.105693 -0.00265518 -4.53146e-20)
(-0.10233 -0.00517192 4.50936e-20)
(-0.097884 -0.00773307 -9.00199e-20)
(-0.0922732 -0.0103059 9.00844e-20)
(-0.0854158 -0.0128508 -6.77498e-23)
(-0.0772352 -0.0153194 -1.81692e-19)
(-0.0676554 -0.017659 0)
(-0.0566178 -0.0198077 0)
(-0.0440574 -0.0217045 0)
(-0.0299508 -0.0232778 -7.57085e-19)
(-0.014235 -0.0244658 -3.83716e-19)
(0.00305072 -0.0251948 0)
(0.0220088 -0.0254075 0)
(0.0424915 -0.0250413 -7.96908e-19)
(0.0647215 -0.0240475 0)
(0.0883727 -0.0223746 0)
(0.113962 -0.0200364 1.64375e-18)
(0.140762 -0.0169113 -8.2582e-19)
(0.170022 -0.013143 -1.65995e-18)
(0.200017 -0.00842523 1.08888e-21)
(0.233797 -0.00317553 1.65192e-18)
(0.26712 0.00335279 8.10567e-19)
(0.307357 0.0101406 0)
(0.343946 0.0189198 7.68197e-19)
(0.394716 0.027375 1.52066e-18)
(0.433485 0.0391933 1.355e-18)
(0.503336 0.0496437 -1.37462e-18)
(0.540342 0.0653255 -1.00113e-18)
(0.648009 0.0787935 1.17819e-18)
(0.673714 0.0945234 -2.91547e-19)
(0.863287 0.108138 -9.59447e-19)
(0.946466 0.0951208 1.24659e-19)
(0.713757 0.0774022 3.63681e-18)
(0.478968 0.0467045 3.65335e-21)
(0.206314 0.0409895 -5.65749e-21)
(0.0637142 0.0147264 0)
(-0.0284812 0.0168423 0)
(-0.0222301 0.00784003 2.606e-22)
(-0.038428 0.0127891 0)
(-0.0353713 0.013166 0)
(-0.0432106 0.0156179 7.01076e-23)
(-0.0459321 0.0168038 0)
(-0.0527144 0.0171935 0)
(-0.0579963 0.016728 1.1818e-18)
(-0.0643628 0.0155932 0)
(-0.0696437 0.0147902 0)
(-0.074475 0.0149911 0)
(-0.0782218 0.0164846 0)
(-0.0815571 0.0182491 -4.65429e-24)
(-0.084903 0.018993 -4.72009e-19)
(-0.0886621 0.0182579 9.07451e-19)
(-0.0925244 0.016638 -1.35807e-23)
(-0.0960914 0.0147336 4.18611e-19)
(-0.0990778 0.012767 0)
(-0.101398 0.0107546 3.91619e-19)
(-0.103009 0.00868224 0)
(-0.103887 0.00652866 -1.8656e-19)
(-0.104 0.00428426 1.93566e-23)
(-0.103308 0.00194351 0)
(-0.101759 -0.000493378 0)
(-0.0992879 -0.00302032 4.78147e-24)
(-0.0958223 -0.00562251 -5.58028e-24)
(-0.0912837 -0.00827667 4.39377e-20)
(-0.0855917 -0.0109499 0)
(-0.0786637 -0.013602 -1.76358e-19)
(-0.0704231 -0.0161836 1.77274e-19)
(-0.0607935 -0.0186406 0)
(-0.0497164 -0.0209095 -3.60263e-19)
(-0.037127 -0.022927 0)
(-0.0230019 -0.0246201 1.7564e-22)
(-0.00727875 -0.0259238 0)
(0.0100042 -0.0267644 3.77921e-19)
(0.0289451 -0.0270807 3.82557e-19)
(0.0494026 -0.0268119 4.72237e-22)
(0.0715865 -0.0259057 -7.82524e-19)
(0.0951889 -0.0243158 0)
(0.120698 -0.0220494 -6.57754e-22)
(0.147426 -0.0189993 8.00306e-19)
(0.176567 -0.0152918 8.49725e-22)
(0.206479 -0.0106552 7.99866e-19)
(0.240097 -0.0054638 -1.10242e-21)
(0.273351 0.000954378 -1.31294e-21)
(0.313367 0.00768164 0)
(0.349953 0.0162894 0)
(0.400399 0.0246863 0)
(0.439328 0.0362229 0)
(0.508646 0.0466284 0)
(0.546161 0.0618252 9.44055e-19)
(0.652774 0.075223 0)
(0.679687 0.0900369 0)
(0.865909 0.103208 -9.02074e-19)
(0.949758 0.103469 -6.64144e-19)
(0.743307 0.0839256 0)
(0.525391 0.0547992 5.14418e-21)
(0.259732 0.0460636 -6.38397e-21)
(0.0961756 0.018977 0)
(-0.014218 0.0181311 2.17174e-18)
(-0.018126 0.0080301 -1.98444e-18)
(-0.0359168 0.012883 0)
(-0.0328683 0.0131161 0)
(-0.0405629 0.0157115 -1.45767e-18)
(-0.0429683 0.0169055 0)
(-0.049498 0.0173862 0)
(-0.054614 0.0169458 -1.17221e-18)
(-0.0609476 0.015836 0)
(-0.0662829 0.0150037 -1.06554e-18)
(-0.0711587 0.0151522 0)
(-0.0748158 0.0165818 0)
(-0.0778653 0.01832 -6.73939e-24)
(-0.0807843 0.0190831 0)
(-0.0840987 0.0183806 -4.46752e-19)
(-0.087579 0.0167652 4.28539e-19)
(-0.0908389 0.014833 -8.23602e-19)
(-0.0935752 0.012821 3.9719e-19)
(-0.0956835 0.0107573 -3.84838e-19)
(-0.0971079 0.00863081 0)
(-0.0978178 0.00642071 -1.83126e-19)
(-0.0977775 0.00411663 3.59619e-19)
(-0.0969463 0.00171183 0)
(-0.0952703 -0.000794904 -4.37785e-20)
(-0.0926838 -0.00339849 2.17009e-20)
(-0.0891144 -0.00608468 -2.15779e-20)
(-0.0844835 -0.0088304 -4.30367e-20)
(-0.0787106 -0.0116027 0)
(-0.071713 -0.0143606 -1.72516e-19)
(-0.0634139 -0.017054 1.73349e-19)
(-0.0537369 -0.0196271 0)
(-0.0426232 -0.022015 3.52324e-19)
(-0.0300081 -0.0241521 0)
(-0.0158686 -0.025964 3.60106e-19)
(-0.000142702 -0.0273825 0)
(0.0171322 -0.0283337 -3.68856e-19)
(0.0360501 -0.0287529 -3.73224e-19)
(0.0564757 -0.0285804 4.21685e-22)
(0.0786067 -0.0277612 7.62692e-19)
(0.102151 -0.0262536 0)
(0.127573 -0.0240586 -7.74994e-19)
(0.154217 -0.0210831 0)
(0.183232 -0.0174365 7.79836e-19)
(0.213047 -0.0128815 0)
(0.246495 -0.00774931 -7.72774e-19)
(0.279663 -0.00144271 -1.51282e-18)
(0.319453 0.00522248 0)
(0.35601 0.0136557 0)
(0.406135 0.0219931 0)
(0.445186 0.0332412 6.20091e-19)
(0.513986 0.043604 0)
(0.551948 0.0583031 -5.79297e-21)
(0.657547 0.0716442 0)
(0.68554 0.0855402 2.44344e-19)
(0.868581 0.0983846 8.6389e-19)
(0.952637 0.111059 0)
(0.768748 0.0901845 3.43473e-18)
(0.568537 0.0627597 3.78888e-18)
(0.313007 0.0517691 -7.07926e-21)
(0.133295 0.0239328 0)
(0.00564006 0.0198177 -2.14081e-18)
(-0.0122328 0.00848124 0)
(-0.0327809 0.0129914 1.78917e-18)
(-0.0299984 0.0130311 1.60058e-18)
(-0.0376647 0.0157676 1.45844e-18)
(-0.0397884 0.0169679 1.33709e-18)
(-0.046081 0.0175485 1.24324e-18)
(-0.0510208 0.017142 0)
(-0.0573028 0.0160666 0)
(-0.0626711 0.015208 1.05649e-18)
(-0.0675832 0.0152977 0)
(-0.0711633 0.0166491 0)
(-0.0739573 0.0183468 -9.52333e-19)
(-0.0764794 0.0191226 0)
(-0.0793643 0.0184555 -4.40731e-19)
(-0.0824642 0.0168522 0)
(-0.0854127 0.0148994 4.05909e-19)
(-0.0878931 0.0128474 -3.91323e-19)
(-0.089784 0.0107358 0)
(-0.091017 0.00855783 0)
(-0.0915552 0.00629327 1.06506e-23)
(-0.0913591 0.00393125 -1.76844e-19)
(-0.090386 0.00146399 0)
(-0.0885807 -0.00111107 4.30261e-20)
(-0.0858773 -0.0037898 2.13127e-20)
(-0.0822031 -0.00655849 -2.11842e-20)
(-0.0774796 -0.00939433 0)
(-0.0716261 -0.0122642 0)
(-0.0645599 -0.0151266 5.36655e-23)
(-0.0562039 -0.0179304 -5.78325e-23)
(-0.0464815 -0.0206185 0)
(-0.0353341 -0.0231242 0)
(-0.0226968 -0.0253798 3.48707e-19)
(-0.00854676 -0.0273094 0)
(0.00717721 -0.0288417 0)
(0.0244389 -0.0299025 0)
(0.043328 -0.0304236 0)
(0.0637146 -0.0303466 7.37794e-19)
(0.085786 -0.0296136 7.44777e-19)
(0.109264 -0.0281875 0)
(0.13459 -0.0260633 0)
(0.161141 -0.023162 7.5773e-19)
(0.190021 -0.0195764 0)
(0.219726 -0.0151032 0)
(0.252997 -0.0100311 -7.50493e-19)