/*--------------------------------*- C++ -*----------------------------------*\
| =========                 |                                                 |
| \\      /  F ield         | OpenFOAM: The Open Source CFD Toolbox           |
|  \\    /   O peration     | Version:  2.4.0                                 |
|   \\  /    A nd           | Web:      www.OpenFOAM.org                      |
|    \\/     M anipulation  |                                                 |
\*---------------------------------------------------------------------------*/
FoamFile
{
    version     2.0;
    format      ascii;
    class       volScalarField;
    location    "1.31";
    object      k;
}
// * * * * * * * * * * * * * * * * * * * * * * * * * * * * * * * * * * * * * //

dimensions      [0 2 -2 0 0 0 0];

internalField   nonuniform List<scalar> 
6000
(
0.00510096
0.00645279
0.00771268
0.00881052
0.00970874
0.0103981
0.0108901
0.0112091
0.0113855
0.0114508
0.0114338
0.0113592
0.011247
0.0111127
0.0109677
0.0108205
0.0106768
0.0105402
0.0104131
0.0102965
0.0101908
0.0100957
0.0100106
0.00993448
0.00986638
0.00980514
0.00974966
0.00969884
0.00965171
0.00960738
0.00956511
0.00952425
0.00948427
0.00944477
0.00940541
0.00936591
0.00932605
0.00928561
0.00924435
0.00920201
0.00915823
0.00911256
0.00906441
0.009013
0.00895732
0.00889606
0.00882753
0.00874958
0.00865945
0.00855365
0.00842776
0.0082762
0.00809206
0.00786661
0.00759014
0.00724929
0.00683912
0.00633194
0.00580772
0.00509672
0.0035494
0.00344488
0.00340553
0.00341541
0.00345868
0.00352242
0.00359887
0.00368417
0.00377674
0.00387637
0.00398357
0.00409912
0.00422367
0.00435758
0.00450075
0.00465262
0.00481218
0.004978
0.00514828
0.00532098
0.00549389
0.00566476
0.00583142
0.00599184
0.00614425
0.00628724
0.00641972
0.00654102
0.00665084
0.00674923
0.00683655
0.00691342
0.00698065
0.00703918
0.00709002
0.00713424
0.00717288
0.00720695
0.00723742
0.00726518
0.00729109
0.00731599
0.00734068
0.00736601
0.00739289
0.00742235
0.00745565
0.00749433
0.00754038
0.00759643
0.00766606
0.00775424
0.00786801
0.00801775
0.00821862
0.00849456
0.00887974
0.00943077
0.0101806
0.0119322
0.00348321
0.00325648
0.00306425
0.00290018
0.00275854
0.00263419
0.00252332
0.00242364
0.00233403
0.00225413
0.00218406
0.00212419
0.00207498
0.00203686
0.0020102
0.00199529
0.00199228
0.00200127
0.00202223
0.00205504
0.00209948
0.00215522
0.00222183
0.00229876
0.00238533
0.00248079
0.00258424
0.00269471
0.00281115
0.00293248
0.00305755
0.00318525
0.00331446
0.00344415
0.00357333
0.00370112
0.00382677
0.00394965
0.00406926
0.00418525
0.00429742
0.00440572
0.00451025
0.00461124
0.0047091
0.00480439
0.00489788
0.00499056
0.00508377
0.0051793
0.00527966
0.00538845
0.0055111
0.00565608
0.00583691
0.0060769
0.00641418
0.00692567
0.00770956
0.00943603
0.00347969
0.00324256
0.00303442
0.00285067
0.00268758
0.00254191
0.00241089
0.0022922
0.00218399
0.0020848
0.00199351
0.00190929
0.00183155
0.00175986
0.00169393
0.0016336
0.00157876
0.00152936
0.00148542
0.00144698
0.00141409
0.00138685
0.00136536
0.00134971
0.00134002
0.0013364
0.00133893
0.0013477
0.00136279
0.00138426
0.00141211
0.00144638
0.00148701
0.00153397
0.00158716
0.00164644
0.00171168
0.00178268
0.00185923
0.00194111
0.00202811
0.00212
0.00221661
0.00231783
0.00242364
0.00253414
0.00264961
0.00277059
0.00289792
0.00303288
0.00317736
0.0033341
0.00350707
0.0037022
0.00392856
0.00420111
0.00454493
0.00501218
0.00569024
0.00699566
0.00347951
0.00324163
0.00303199
0.00284603
0.00268015
0.00253139
0.00239731
0.00227586
0.00216532
0.00206426
0.00197147
0.00188596
0.00180687
0.00173352
0.00166531
0.00160177
0.0015425
0.00148717
0.0014355
0.00138726
0.00134229
0.00130044
0.00126158
0.00122564
0.00119255
0.00116228
0.0011348
0.00111012
0.00108825
0.00106923
0.00105312
0.00103998
0.00102989
0.00102295
0.00101929
0.00101902
0.00102231
0.00102932
0.00104025
0.00105534
0.00107483
0.00109906
0.0011284
0.00116332
0.0012044
0.00125238
0.0013082
0.0013731
0.00144866
0.00153698
0.00164087
0.00176405
0.00191158
0.00209033
0.00230993
0.00258402
0.00293345
0.00339257
0.00402613
0.00505627
0.0034795
0.00324152
0.00303169
0.00284546
0.00267923
0.00253007
0.00239557
0.00227374
0.00216291
0.00206168
0.00196888
0.0018835
0.00180468
0.0017317
0.00166393
0.00160083
0.00154194
0.00148685
0.00143523
0.00138676
0.00134119
0.00129829
0.00125787
0.00121976
0.00118381
0.0011499
0.00111791
0.00108776
0.00105937
0.00103268
0.00100763
0.000984179
0.00096231
0.000942003
0.000923255
0.000906075
0.000890487
0.000876532
0.00086427
0.000853783
0.000845185
0.000838628
0.000834314
0.000832512
0.000833583
0.000838013
0.000846464
0.000859842
0.000879402
0.000906898
0.000944804
0.000996643
0.00106748
0.00116463
0.00129882
0.00148551
0.00174827
0.00212023
0.00266241
0.00349443
0.00347949
0.00324148
0.00303159
0.00284531
0.00267901
0.00252977
0.0023952
0.0022733
0.00216243
0.00206119
0.00196842
0.00188313
0.00180446
0.00173168
0.00166418
0.00160139
0.00154286
0.00148815
0.00143693
0.00138886
0.00134366
0.0013011
0.00126095
0.00122301
0.00118713
0.00115314
0.00112091
0.00109033
0.00106127
0.00103366
0.0010074
0.000982419
0.000958654
0.000936048
0.000914551
0.000894122
0.000874725
0.000856336
0.000838938
0.000822521
0.000807092
0.000792669
0.00077929
0.00076702
0.000755961
0.000746267
0.00073817
0.000732016
0.000728325
0.000727889
0.000731922
0.000742314
0.000762051
0.000795912
0.000851674
0.000941908
0.00108773
0.00132135
0.00170317
0.00231889
0.00347949
0.00324145
0.00303152
0.0028452
0.00267887
0.0025296
0.00239499
0.00227306
0.00216217
0.00206092
0.00196815
0.00188288
0.00180424
0.00173152
0.0016641
0.00160142
0.00154301
0.00148846
0.00143741
0.00138954
0.00134456
0.00130222
0.0012623
0.0012246
0.00118895
0.00115518
0.00112315
0.00109274
0.00106382
0.00103629
0.00101007
0.000985058
0.000961184
0.000938377
0.000916575
0.000895721
0.000875763
0.000856656
0.00083836
0.000820838
0.000804062
0.000788008
0.00077266
0.000758011
0.000744068
0.000730856
0.000718427
0.000706876
0.000696365
0.000687165
0.000679731
0.000674829
0.000673771
0.000678851
0.00069417
0.000727121
0.00079159
0.000911992
0.00113751
0.00154004
0.00347949
0.00324143
0.00303147
0.00284512
0.00267876
0.00252946
0.00239482
0.00227288
0.00216196
0.0020607
0.00196792
0.00188264
0.00180401
0.0017313
0.00166388
0.00160123
0.00154285
0.00148835
0.00143735
0.00138954
0.00134463
0.00130238
0.00126256
0.00122496
0.00118942
0.00115577
0.00112386
0.00109357
0.00106478
0.00103738
0.00101127
0.000986371
0.000962598
0.000939878
0.000918144
0.000897335
0.000877395
0.000858271
0.000839918
0.000822291
0.000805352
0.000789065
0.000773397
0.000758323
0.000743819
0.000729871
0.000716475
0.000703641
0.000691406
0.000679849
0.000669125
0.000659515
0.000651548
0.000646201
0.000645352
0.000652662
0.000675591
0.000729165
0.000845992
0.00108297
0.00347949
0.00324142
0.00303143
0.00284505
0.00267866
0.00252934
0.00239469
0.00227272
0.00216179
0.00206051
0.00196772
0.00188243
0.00180379
0.00173108
0.00166366
0.00160101
0.00154264
0.00148814
0.00143716
0.00138936
0.00134448
0.00130225
0.00126245
0.00122489
0.00118938
0.00115577
0.00112392
0.00109368
0.00106494
0.0010376
0.00101155
0.000986718
0.000963011
0.000940357
0.000918689
0.000897944
0.000878066
0.000859001
0.0008407
0.000823118
0.000806214
0.000789949
0.000774286
0.000759195
0.000744644
0.000730609
0.00071707
0.000704013
0.000691437
0.00067936
0.000667832
0.000656965
0.000646976
0.000638293
0.000631761
0.000629108
0.000633969
0.000654573
0.000709263
0.000838273
0.00347949
0.00324141
0.0030314
0.002845
0.00267859
0.00252924
0.00239457
0.00227258
0.00216164
0.00206035
0.00196755
0.00188225
0.0018036
0.00173088
0.00166346
0.00160081
0.00154244
0.00148794
0.00143696
0.00138916
0.00134428
0.00130206
0.00126227
0.00122472
0.00118922
0.00115563
0.00112378
0.00109356
0.00106484
0.00103752
0.0010115
0.000986691
0.000963011
0.000940386
0.000918749
0.000898038
0.000878193
0.000859164
0.000840899
0.000823355
0.000806488
0.00079026
0.000774634
0.000759577
0.000745058
0.00073105
0.000717529
0.000704476
0.000691881
0.000679745
0.000668089
0.000656968
0.000646495
0.000636891
0.000628578
0.000622421
0.000620168
0.000626151
0.000649572
0.000715932
0.00347949
0.0032414
0.00303137
0.00284495
0.00267852
0.00252916
0.00239447
0.00227247
0.00216151
0.00206021
0.0019674
0.00188209
0.00180344
0.00173071
0.00166329
0.00160063
0.00154226
0.00148776
0.00143677
0.00138898
0.0013441
0.00130188
0.00126209
0.00122454
0.00118905
0.00115546
0.00112362
0.0010934
0.00106469
0.00103737
0.00101136
0.00098656
0.00096289
0.000940276
0.000918651
0.000897953
0.000878123
0.000859108
0.000840861
0.000823334
0.000806487
0.00079028
0.000774676
0.000759644
0.000745151
0.00073117
0.000717679
0.000704657
0.000692092
0.000679984
0.000668345
0.000657218
0.000646682
0.000636888
0.000628104
0.00062084
0.000616005
0.000615938
0.000624985
0.00065798
0.00347949
0.00324139
0.00303135
0.00284491
0.00267847
0.00252909
0.00239438
0.00227237
0.0021614
0.00206009
0.00196727
0.00188195
0.00180329
0.00173056
0.00166314
0.00160047
0.0015421
0.0014876
0.00143661
0.00138882
0.00134394
0.00130171
0.00126193
0.00122438
0.00118889
0.0011553
0.00112346
0.00109324
0.00106453
0.00103722
0.00101121
0.000986415
0.000962749
0.000940139
0.000918519
0.000897826
0.000878002
0.000858994
0.000840753
0.000823235
0.000806396
0.000790199
0.000774607
0.000759587
0.000745108
0.000731145
0.000717672
0.000704672
0.000692133
0.000680054
0.000668448
0.000657354
0.000646844
0.000637048
0.000628181
0.000620612
0.00061491
0.000612439
0.000615256
0.000631583
0.00347948
0.00324138
0.00303134
0.00284488
0.00267842
0.00252903
0.00239431
0.00227228
0.0021613
0.00205998
0.00196715
0.00188183
0.00180317
0.00173043
0.001663
0.00160034
0.00154196
0.00148746
0.00143647
0.00138868
0.00134379
0.00130157
0.00126179
0.00122424
0.00118875
0.00115516
0.00112332
0.0010931
0.0010644
0.00103709
0.00101108
0.000986282
0.000962617
0.00094001
0.000918392
0.000897701
0.000877879
0.000858874
0.000840637
0.000823123
0.000806289
0.000790097
0.000774511
0.000759498
0.000745028
0.000731074
0.000717613
0.000704627
0.000692105
0.000680047
0.000668467
0.000657401
0.000646924
0.000637158
0.000628301
0.000620667
0.00061469
0.000611268
0.000611437
0.000619739
0.00347948
0.00324138
0.00303132
0.00284486
0.00267838
0.00252897
0.00239424
0.00227221
0.00216122
0.00205989
0.00196706
0.00188173
0.00180306
0.00173032
0.00166289
0.00160022
0.00154184
0.00148734
0.00143635
0.00138855
0.00134367
0.00130145
0.00126166
0.00122411
0.00118862
0.00115503
0.0011232
0.00109298
0.00106428
0.00103697
0.00101096
0.000986164
0.0009625
0.000939894
0.000918277
0.000897588
0.000877768
0.000858766
0.000840531
0.000823019
0.000806188
0.000789999
0.000774418
0.000759409
0.000744945
0.000730998
0.000717546
0.00070457
0.000692061
0.000680018
0.000668457
0.000657414
0.000646963
0.000637226
0.000628392
0.000620752
0.000614686
0.000610863
0.000609871
0.000614301
0.00347948
0.00324138
0.00303131
0.00284483
0.00267835
0.00252893
0.00239419
0.00227214
0.00216115
0.00205981
0.00196697
0.00188164
0.00180296
0.00173022
0.00166278
0.00160011
0.00154173
0.00148723
0.00143624
0.00138844
0.00134356
0.00130134
0.00126155
0.001224
0.00118851
0.00115492
0.00112309
0.00109288
0.00106417
0.00103686
0.00101085
0.00098606
0.000962398
0.000939793
0.000918177
0.000897489
0.000877671
0.00085867
0.000840438
0.000822928
0.000806099
0.000789914
0.000774336
0.000759332
0.000744872
0.000730931
0.000717486
0.00070452
0.000692022
0.000679992
0.000668446
0.000657422
0.000646993
0.000637279
0.000628466
0.000620831
0.000614728
0.000610706
0.000609151
0.000611621
0.00347948
0.00324137
0.0030313
0.00284481
0.00267832
0.00252889
0.00239414
0.00227209
0.00216108
0.00205974
0.0019669
0.00188156
0.00180288
0.00173013
0.0016627
0.00160002
0.00154164
0.00148714
0.00143614
0.00138835
0.00134346
0.00130124
0.00126146
0.00122391
0.00118842
0.00115483
0.00112299
0.00109278
0.00106408
0.00103677
0.00101076
0.000985971
0.000962309
0.000939705
0.000918091
0.000897404
0.000877588
0.000858588
0.000840357
0.00082285
0.000806024
0.000789841
0.000774266
0.000759266
0.000744812
0.000730876
0.000717438
0.00070448
0.000691992
0.000679975
0.000668444
0.000657438
0.000647028
0.000637335
0.00062854
0.000620912
0.000614786
0.00061064
0.000608765
0.000610144
0.00347948
0.00324137
0.00303129
0.0028448
0.0026783
0.00252886
0.0023941
0.00227204
0.00216103
0.00205968
0.00196683
0.00188149
0.00180281
0.00173006
0.00166262
0.00159995
0.00154156
0.00148706
0.00143606
0.00138827
0.00134338
0.00130116
0.00126137
0.00122383
0.00118834
0.00115475
0.00112291
0.0010927
0.001064
0.00103669
0.00101069
0.000985894
0.000962233
0.00093963
0.000918017
0.000897331
0.000877516
0.000858518
0.000840289
0.000822783
0.00080596
0.00078978
0.000774208
0.000759212
0.000744762
0.000730833
0.000717402
0.000704452
0.000691975
0.000679969
0.000668453
0.000657464
0.000647074
0.000637401
0.000628625
0.000621004
0.000614861
0.000610624
0.000608533
0.000609229
0.00347948
0.00324137
0.00303129
0.00284479
0.00267828
0.00252883
0.00239407
0.002272
0.00216099
0.00205963
0.00196678
0.00188143
0.00180275
0.00173
0.00166256
0.00159988
0.00154149
0.00148699
0.00143599
0.0013882
0.00134331
0.00130109
0.0012613
0.00122376
0.00118827
0.00115468
0.00112285
0.00109263
0.00106393
0.00103662
0.00101062
0.000985828
0.000962168
0.000939566
0.000917954
0.00089727
0.000877456
0.000858459
0.000840232
0.000822728
0.000805907
0.00078973
0.000774161
0.000759169
0.000744724
0.000730801
0.000717377
0.000704435
0.000691968
0.000679975
0.000668474
0.000657502
0.000647132
0.00063748
0.000628723
0.000621112
0.000614959
0.000610651
0.000608398
0.00060862
0.00347948
0.00324137
0.00303128
0.00284478
0.00267826
0.00252881
0.00239404
0.00227197
0.00216095
0.00205959
0.00196673
0.00188138
0.0018027
0.00172995
0.0016625
0.00159982
0.00154144
0.00148693
0.00143594
0.00138814
0.00134326
0.00130103
0.00126125
0.0012237
0.00118821
0.00115462
0.00112279
0.00109258
0.00106387
0.00103657
0.00101056
0.000985774
0.000962114
0.000939513
0.000917902
0.000897219
0.000877406
0.000858411
0.000840185
0.000822684
0.000805865
0.00078969
0.000774125
0.000759137
0.000744697
0.000730779
0.000717362
0.000704429
0.000691972
0.000679992
0.000668505
0.000657551
0.000647201
0.000637571
0.000628835
0.000621239
0.000615083
0.000610723
0.000608343
0.000608212
0.00347948
0.00324137
0.00303128
0.00284477
0.00267825
0.00252879
0.00239402
0.00227194
0.00216092
0.00205956
0.0019667
0.00188135
0.00180266
0.0017299
0.00166246
0.00159978
0.00154139
0.00148688
0.00143589
0.00138809
0.00134321
0.00130098
0.0012612
0.00122365
0.00118816
0.00115458
0.00112274
0.00109253
0.00106383
0.00103652
0.00101052
0.000985729
0.000962071
0.00093947
0.00091786
0.000897178
0.000877366
0.000858373
0.000840148
0.000822649
0.000805832
0.00078966
0.000774098
0.000759114
0.000744679
0.000730767
0.000717356
0.000704432
0.000691986
0.000680018
0.000668547
0.000657611
0.000647282
0.000637675
0.000628962
0.000621385
0.000615234
0.00061084
0.000608363
0.000607965
0.00347948
0.00324137
0.00303128
0.00284476
0.00267824
0.00252878
0.002394
0.00227192
0.00216089
0.00205953
0.00196667
0.00188131
0.00180262
0.00172987
0.00166242
0.00159974
0.00154135
0.00148685
0.00143585
0.00138805
0.00134317
0.00130095
0.00126116
0.00122361
0.00118813
0.00115454
0.0011227
0.00109249
0.00106379
0.00103649
0.00101048
0.000985694
0.000962037
0.000939437
0.000917828
0.000897146
0.000877336
0.000858344
0.000840121
0.000822623
0.000805808
0.000789639
0.00077408
0.0007591
0.00074467
0.000730763
0.00071736
0.000704445
0.000692009
0.000680054
0.000668598
0.00065768
0.000647373
0.00063779
0.000629103
0.000621549
0.000615413
0.000611003
0.00060846
0.000607861
0.00347948
0.00324137
0.00303127
0.00284476
0.00267823
0.00252877
0.00239399
0.00227191
0.00216088
0.00205951
0.00196665
0.00188129
0.0018026
0.00172984
0.0016624
0.00159972
0.00154133
0.00148682
0.00143582
0.00138803
0.00134314
0.00130092
0.00126113
0.00122359
0.0011881
0.00115451
0.00112268
0.00109247
0.00106376
0.00103646
0.00101046
0.000985669
0.000962012
0.000939413
0.000917804
0.000897124
0.000877314
0.000858323
0.000840102
0.000822606
0.000805794
0.000789627
0.000774071
0.000759095
0.000744669
0.000730769
0.000717373
0.000704466
0.00069204
0.000680099
0.000668658
0.000657759
0.000647473
0.000637916
0.000629257
0.000621732
0.000615619
0.000611211
0.000608632
0.000607893
0.00347948
0.00324137
0.00303127
0.00284475
0.00267822
0.00252876
0.00239398
0.0022719
0.00216086
0.0020595
0.00196663
0.00188128
0.00180258
0.00172983
0.00166238
0.0015997
0.00154131
0.0014868
0.00143581
0.00138801
0.00134312
0.0013009
0.00126111
0.00122357
0.00118808
0.00115449
0.00112266
0.00109245
0.00106375
0.00103644
0.00101044
0.000985653
0.000961996
0.000939398
0.00091779
0.00089711
0.000877302
0.000858312
0.000840092
0.000822598
0.000805787
0.000789623
0.000774071
0.000759098
0.000744677
0.000730782
0.000717393
0.000704495
0.00069208
0.000680151
0.000668727
0.000657846
0.000647583
0.000638052
0.000629424
0.000621932
0.000615852
0.000611466
0.000608881
0.000608058
0.00347948
0.00324137
0.00303127
0.00284475
0.00267822
0.00252876
0.00239398
0.00227189
0.00216086
0.00205949
0.00196663
0.00188127
0.00180258
0.00172982
0.00166237
0.00159969
0.0015413
0.00148679
0.0014358
0.001388
0.00134311
0.00130089
0.00126111
0.00122356
0.00118807
0.00115448
0.00112265
0.00109244
0.00106374
0.00103644
0.00101043
0.000985646
0.000961989
0.000939392
0.000917784
0.000897105
0.000877298
0.000858309
0.00084009
0.000822598
0.000805789
0.000789628
0.000774078
0.00075911
0.000744693
0.000730804
0.000717422
0.000704533
0.000692128
0.000680212
0.000668803
0.000657942
0.000647701
0.000638198
0.000629603
0.00062215
0.000616113
0.000611767
0.000609207
0.000608355
0.00347948
0.00324137
0.00303127
0.00284475
0.00267822
0.00252876
0.00239398
0.00227189
0.00216086
0.00205949
0.00196663
0.00188127
0.00180258
0.00172982
0.00166237
0.00159969
0.0015413
0.00148679
0.0014358
0.001388
0.00134311
0.00130089
0.00126111
0.00122356
0.00118807
0.00115448
0.00112265
0.00109244
0.00106374
0.00103644
0.00101044
0.000985647
0.000961991
0.000939394
0.000917787
0.000897109
0.000877302
0.000858314
0.000840097
0.000822606
0.0008058
0.000789641
0.000774094
0.000759129
0.000744717
0.000730834
0.000717459
0.000704578
0.000692184
0.00068028
0.000668887
0.000658045
0.000647828
0.000638353
0.000629794
0.000622384
0.000616401
0.000612114
0.000609612
0.000608784
0.00347948
0.00324137
0.00303127
0.00284475
0.00267822
0.00252876
0.00239398
0.0022719
0.00216086
0.0020595
0.00196663
0.00188128
0.00180258
0.00172983
0.00166238
0.0015997
0.00154131
0.0014868
0.00143581
0.00138801
0.00134312
0.0013009
0.00126112
0.00122357
0.00118808
0.00115449
0.00112266
0.00109245
0.00106375
0.00103645
0.00101045
0.000985658
0.000962002
0.000939405
0.000917799
0.000897121
0.000877315
0.000858328
0.000840112
0.000822623
0.000805818
0.000789661
0.000774118
0.000759156
0.000744749
0.000730871
0.000717503
0.00070463
0.000692247
0.000680356
0.000668979
0.000658156
0.000647963
0.000638518
0.000629996
0.000622635
0.000616715
0.000612509
0.000610097
0.000609349
0.00347948
0.00324137
0.00303127
0.00284476
0.00267823
0.00252877
0.00239399
0.00227191
0.00216088
0.00205951
0.00196665
0.00188129
0.0018026
0.00172984
0.0016624
0.00159972
0.00154133
0.00148682
0.00143583
0.00138803
0.00134314
0.00130092
0.00126113
0.00122359
0.0011881
0.00115451
0.00112268
0.00109247
0.00106377
0.00103647
0.00101046
0.000985677
0.000962022
0.000939425
0.000917819
0.000897142
0.000877337
0.000858351
0.000840136
0.000822648
0.000805845
0.00078969
0.00077415
0.000759192
0.000744789
0.000730916
0.000717555
0.000704691
0.000692317
0.000680439
0.000669077
0.000658274
0.000648105
0.000638691
0.000630209
0.000622903
0.000617057
0.000612952
0.000610666
0.000610056
0.00347948
0.00324137
0.00303128
0.00284476
0.00267824
0.00252878
0.002394
0.00227192
0.00216089
0.00205953
0.00196667
0.00188131
0.00180262
0.00172987
0.00166242
0.00159974
0.00154136
0.00148685
0.00143585
0.00138806
0.00134317
0.00130095
0.00126116
0.00122362
0.00118813
0.00115454
0.00112271
0.0010925
0.0010638
0.00103649
0.00101049
0.000985706
0.00096205
0.000939454
0.000917848
0.000897172
0.000877367
0.000858382
0.000840168
0.000822681
0.00080588
0.000789728
0.00077419
0.000759235
0.000744836
0.000730969
0.000717614
0.000704758
0.000692395
0.00068053
0.000669183
0.000658399
0.000648254
0.000638872
0.000630433
0.000623186
0.000617426
0.000613445
0.000611321
0.000610912
0.00347948
0.00324137
0.00303128
0.00284477
0.00267825
0.00252879
0.00239402
0.00227194
0.00216092
0.00205956
0.0019667
0.00188135
0.00180266
0.0017299
0.00166246
0.00159978
0.00154139
0.00148688
0.00143589
0.00138809
0.00134321
0.00130099
0.0012612
0.00122365
0.00118817
0.00115458
0.00112275
0.00109254
0.00106384
0.00103653
0.00101053
0.000985743
0.000962088
0.000939492
0.000917887
0.00089721
0.000877406
0.000858422
0.000840209
0.000822723
0.000805924
0.000789774
0.000774238
0.000759287
0.000744892
0.00073103
0.000717682
0.000704834
0.00069248
0.000680627
0.000669296
0.000658531
0.000648411
0.000639061
0.000630667
0.000623485
0.000617822
0.00061399
0.000612067
0.000611928
0.00347948
0.00324137
0.00303128
0.00284478
0.00267826
0.00252881
0.00239404
0.00227197
0.00216095
0.00205959
0.00196673
0.00188138
0.0018027
0.00172995
0.0016625
0.00159982
0.00154144
0.00148693
0.00143594
0.00138814
0.00134326
0.00130103
0.00126125
0.0012237
0.00118822
0.00115463
0.00112279
0.00109259
0.00106388
0.00103658
0.00101058
0.000985791
0.000962136
0.000939539
0.000917934
0.000897258
0.000877455
0.000858471
0.000840259
0.000822774
0.000805976
0.000789828
0.000774295
0.000759347
0.000744956
0.000731099
0.000717757
0.000704917
0.000692573
0.000680732
0.000669416
0.000658671
0.000648575
0.000639258
0.000630911
0.0006238
0.000618246
0.000614587
0.000612909
0.000613118
0.00347948
0.00324137
0.00303129
0.00284479
0.00267828
0.00252883
0.00239407
0.002272
0.00216099
0.00205963
0.00196678
0.00188143
0.00180275
0.00173
0.00166256
0.00159988
0.00154149
0.00148699
0.001436
0.0013882
0.00134332
0.00130109
0.00126131
0.00122376
0.00118827
0.00115469
0.00112285
0.00109264
0.00106394
0.00103664
0.00101064
0.000985848
0.000962193
0.000939597
0.000917992
0.000897316
0.000877513
0.00085853
0.000840318
0.000822835
0.000806038
0.000789892
0.000774361
0.000759416
0.000745029
0.000731177
0.000717841
0.000705008
0.000692674
0.000680845
0.000669544
0.000658817
0.000648746
0.000639463
0.000631165
0.00062413
0.000618698
0.000615241
0.000613852
0.000614501
0.00347948
0.00324137
0.00303129
0.0028448
0.0026783
0.00252886
0.0023941
0.00227204
0.00216103
0.00205968
0.00196683
0.00188149
0.00180281
0.00173006
0.00166262
0.00159995
0.00154156
0.00148706
0.00143607
0.00138827
0.00134339
0.00130116
0.00126138
0.00122383
0.00118834
0.00115476
0.00112292
0.00109271
0.00106401
0.00103671
0.0010107
0.000985917
0.000962261
0.000939665
0.00091806
0.000897384
0.000877581
0.000858598
0.000840388
0.000822905
0.00080611
0.000789965
0.000774437
0.000759495
0.000745111
0.000731264
0.000717934
0.000705108
0.000692783
0.000680966
0.000669679
0.000658971
0.000648925
0.000639676
0.000631428
0.000624476
0.000619179
0.000615953
0.000614906
0.000616101
0.00347948
0.00324137
0.0030313
0.00284481
0.00267832
0.00252889
0.00239414
0.00227209
0.00216108
0.00205974
0.0019669
0.00188156
0.00180288
0.00173013
0.0016627
0.00160002
0.00154164
0.00148714
0.00143615
0.00138835
0.00134347
0.00130125
0.00126146
0.00122391
0.00118843
0.00115484
0.001123
0.00109279
0.00106409
0.00103679
0.00101078
0.000985997
0.000962341
0.000939744
0.000918139
0.000897464
0.000877661
0.000858678
0.000840468
0.000822986
0.000806192
0.000790049
0.000774523
0.000759583
0.000745203
0.00073136
0.000718036
0.000705217
0.000692901
0.000681095
0.000669822
0.000659132
0.000649111
0.000639896
0.000631701
0.000624837
0.000619688
0.000616729
0.000616077
0.000617948
0.00347948
0.00324138
0.00303131
0.00284483
0.00267835
0.00252893
0.00239419
0.00227214
0.00216115
0.00205981
0.00196697
0.00188164
0.00180296
0.00173022
0.00166279
0.00160011
0.00154173
0.00148723
0.00143624
0.00138845
0.00134356
0.00130134
0.00126156
0.00122401
0.00118852
0.00115493
0.0011231
0.00109289
0.00106418
0.00103688
0.00101088
0.000986089
0.000962433
0.000939836
0.000918231
0.000897555
0.000877752
0.00085877
0.00084056
0.000823079
0.000806286
0.000790144
0.00077462
0.000759683
0.000745306
0.000731467
0.000718148
0.000705336
0.000693029
0.000681233
0.000669974
0.000659302
0.000649304
0.000640125
0.000631984
0.000625212
0.000620226
0.00061757
0.000617377
0.000620084
0.00347948
0.00324138
0.00303132
0.00284486
0.00267838
0.00252897
0.00239424
0.00227221
0.00216122
0.00205989
0.00196706
0.00188173
0.00180306
0.00173032
0.00166289
0.00160022
0.00154184
0.00148734
0.00143635
0.00138855
0.00134367
0.00130145
0.00126167
0.00122412
0.00118863
0.00115504
0.00112321
0.001093
0.00106429
0.00103699
0.00101098
0.000986195
0.000962539
0.000939941
0.000918336
0.00089766
0.000877857
0.000858875
0.000840665
0.000823185
0.000806392
0.000790252
0.000774729
0.000759794
0.00074542
0.000731585
0.00071827
0.000705465
0.000693166
0.00068138
0.000670134
0.000659479
0.000649505
0.00064036
0.000632275
0.000625602
0.000620792
0.000618483
0.000618816
0.00062256
0.00347948
0.00324138
0.00303134
0.00284488
0.00267842
0.00252903
0.00239431
0.00227228
0.0021613
0.00205998
0.00196716
0.00188183
0.00180317
0.00173043
0.001663
0.00160034
0.00154196
0.00148746
0.00143647
0.00138868
0.0013438
0.00130158
0.00126179
0.00122424
0.00118876
0.00115517
0.00112333
0.00109312
0.00106441
0.00103711
0.00101111
0.000986316
0.000962659
0.000940061
0.000918455
0.000897778
0.000877975
0.000858992
0.000840783
0.000823302
0.00080651
0.00079037
0.000774849
0.000759915
0.000745544
0.000731712
0.000718401
0.000705602
0.000693309
0.000681533
0.0006703
0.000659661
0.00064971
0.0006406
0.000632571
0.000626002
0.000621385
0.000619468
0.000620406
0.000625444
0.00347949
0.00324139
0.00303135
0.00284491
0.00267847
0.00252909
0.00239438
0.00227237
0.0021614
0.00206009
0.00196727
0.00188195
0.00180329
0.00173056
0.00166314
0.00160047
0.0015421
0.0014876
0.00143661
0.00138882
0.00134394
0.00130172
0.00126193
0.00122439
0.0011889
0.00115531
0.00112347
0.00109326
0.00106455
0.00103725
0.00101124
0.000986452
0.000962794
0.000940195
0.000918587
0.000897909
0.000878105
0.000859121
0.00084091
0.000823429
0.000806636
0.000790495
0.000774973
0.00076004
0.000745669
0.000731839
0.000718531
0.000705735
0.000693449
0.000681681
0.000670458
0.000659835
0.000649906
0.00064083
0.00063286
0.000626401
0.000621992
0.000620523
0.000622154
0.000628822
0.00347949
0.0032414
0.00303137
0.00284495
0.00267852
0.00252916
0.00239447
0.00227247
0.00216151
0.00206021
0.0019674
0.00188209
0.00180344
0.00173071
0.00166329
0.00160063
0.00154226
0.00148776
0.00143678
0.00138898
0.0013441
0.00130188
0.0012621
0.00122455
0.00118906
0.00115547
0.00112363
0.00109342
0.00106471
0.0010374
0.00101139
0.000986599
0.000962938
0.000940335
0.000918724
0.000898043
0.000878234
0.000859246
0.000841031
0.000823545
0.000806748
0.000790603
0.000775077
0.000760141
0.000745768
0.000731935
0.000718627
0.000705832
0.000693549
0.000681786
0.000670573
0.000659964
0.000650057
0.000641016
0.000633106
0.000626765
0.000622584
0.000621627
0.000624054
0.000632803
0.00347949
0.00324141
0.0030314
0.002845
0.00267859
0.00252924
0.00239457
0.00227258
0.00216164
0.00206035
0.00196755
0.00188225
0.0018036
0.00173088
0.00166347
0.00160081
0.00154244
0.00148794
0.00143696
0.00138917
0.00134429
0.00130206
0.00126228
0.00122473
0.00118923
0.00115564
0.0011238
0.00109358
0.00106486
0.00103755
0.00101153
0.000986733
0.000963062
0.00094045
0.000918829
0.000898136
0.000878315
0.000859315
0.000841087
0.000823588
0.000806778
0.000790621
0.000775084
0.000760136
0.000745753
0.000731912
0.000718598
0.000705799
0.000693514
0.000681755
0.000670549
0.000659954
0.000650071
0.000641068
0.000633226
0.000627012
0.000623085
0.000622716
0.000626067
0.000637511
0.00347949
0.00324142
0.00303143
0.00284505
0.00267866
0.00252934
0.00239469
0.00227272
0.00216179
0.00206051
0.00196772
0.00188243
0.00180379
0.00173108
0.00166367
0.00160101
0.00154264
0.00148815
0.00143716
0.00138937
0.00134448
0.00130225
0.00126246
0.0012249
0.0011894
0.00115579
0.00112393
0.0010937
0.00106496
0.00103763
0.00101159
0.000986764
0.000963068
0.000940428
0.000918778
0.000898055
0.000878204
0.000859173
0.000840915
0.000823386
0.000806547
0.000790363
0.000774801
0.000759833
0.000745432
0.000731578
0.000718253
0.00070545
0.000693168
0.000681417
0.000670228
0.000659658
0.00064981
0.00064086
0.000633098
0.000627028
0.000623382
0.000623684
0.000628103
0.000643084
0.00347949
0.00324143
0.00303147
0.00284512
0.00267876
0.00252946
0.00239482
0.00227288
0.00216196
0.0020607
0.00196792
0.00188264
0.00180401
0.0017313
0.00166389
0.00160123
0.00154286
0.00148835
0.00143736
0.00138955
0.00134464
0.00130239
0.00126256
0.00122497
0.00118943
0.00115578
0.00112388
0.00109359
0.0010648
0.00103741
0.00101131
0.000986425
0.000962665
0.000939961
0.000918248
0.000897464
0.000877555
0.00085847
0.000840163
0.000822593
0.000805721
0.000789513
0.000773936
0.000758964
0.00074457
0.000730735
0.000717444
0.000704687
0.000692464
0.000680785
0.000669679
0.000659201
0.000649451
0.000640603
0.000632954
0.000627035
0.000623659
0.000624643
0.000630211
0.000649803
0.00347949
0.00324145
0.00303152
0.0028452
0.00267887
0.0025296
0.00239499
0.00227306
0.00216217
0.00206092
0.00196815
0.00188288
0.00180424
0.00173152
0.0016641
0.00160142
0.00154301
0.00148847
0.00143742
0.00138954
0.00134456
0.00130223
0.00126231
0.00122461
0.00118896
0.0011552
0.00112317
0.00109276
0.00106385
0.00103633
0.00101012
0.00098512
0.00096126
0.000938471
0.000916689
0.000895857
0.000875925
0.000856845
0.000838574
0.000821074
0.000804308
0.000788243
0.000772846
0.000758087
0.000743935
0.000730382
0.000717412
0.000705015
0.000693185
0.000681926
0.000671249
0.000661191
0.000651822
0.000643282
0.000635837
0.000630001
0.000626643
0.000627862