/*--------------------------------*- C++ -*----------------------------------*\
| =========                 |                                                 |
| \\      /  F ield         | OpenFOAM: The Open Source CFD Toolbox           |
|  \\    /   O peration     | Version:  2.4.0                                 |
|   \\  /    A nd           | Web:      www.OpenFOAM.org                      |
|    \\/     M anipulation  |                                                 |
\*---------------------------------------------------------------------------*/
FoamFile
{
    version     2.0;
    format      ascii;
    class       surfaceScalarField;
    location    "1.31";
    object      phi;
}
// * * * * * * * * * * * * * * * * * * * * * * * * * * * * * * * * * * * * * //

dimensions      [0 3 -1 0 0 0 0];

internalField   nonuniform List<scalar> 
11830
(
2.94679e-06
5.32099e-08
2.8769e-06
6.98929e-08
2.80965e-06
6.72439e-08
2.74328e-06
6.63695e-08
2.67869e-06
6.45922e-08
2.61757e-06
6.1121e-08
2.56084e-06
5.67299e-08
2.5088e-06
5.20451e-08
2.46148e-06
4.73188e-08
2.41878e-06
4.26992e-08
2.38047e-06
3.83088e-08
2.34624e-06
3.42321e-08
2.31572e-06
3.05146e-08
2.28855e-06
2.71725e-08
2.26435e-06
2.42028e-08
2.24276e-06
2.15905e-08
2.22344e-06
1.93127e-08
2.2061e-06
1.7343e-08
2.19045e-06
1.56528e-08
2.17623e-06
1.42135e-08
2.16324e-06
1.29967e-08
2.15126e-06
1.19752e-08
2.14014e-06
1.11232e-08
2.12972e-06
1.04166e-08
2.11989e-06
9.83334e-09
2.11054e-06
9.35365e-09
2.10158e-06
8.95949e-09
2.09294e-06
8.63559e-09
2.08457e-06
8.36926e-09
2.07642e-06
8.15042e-09
2.06845e-06
7.97167e-09
2.06062e-06
7.82829e-09
2.0529e-06
7.71823e-09
2.04526e-06
7.6421e-09
2.03766e-06
7.60331e-09
2.03005e-06
7.60819e-09
2.02238e-06
7.66636e-09
2.01459e-06
7.79112e-09
2.00659e-06
8.00014e-09
1.99827e-06
8.31638e-09
1.98951e-06
8.76935e-09
1.98011e-06
9.39672e-09
1.96986e-06
1.02466e-08
1.95848e-06
1.13804e-08
1.94561e-06
1.28767e-08
1.93077e-06
1.48366e-08
1.91338e-06
1.73902e-08
1.89267e-06
2.07058e-08
1.86767e-06
2.50022e-08
1.83711e-06
3.05654e-08
1.79933e-06
3.77703e-08
1.75222e-06
4.71111e-08
1.69299e-06
5.92357e-08
1.618e-06
7.49914e-08
1.5226e-06
9.5394e-08
1.40082e-06
1.2178e-07
1.24641e-06
1.54411e-07
1.05074e-06
1.95669e-07
8.077e-07
2.43043e-07
2.36859e-07
5.70841e-07
3.02862e-06
2.45862e-08
3.05191e-06
4.66057e-08
3.06774e-06
5.14104e-08
3.07746e-06
5.66559e-08
3.08094e-06
6.11137e-08
3.07874e-06
6.33212e-08
3.07162e-06
6.38417e-08
3.06034e-06
6.3328e-08
3.0456e-06
6.20613e-08
3.02807e-06
6.02265e-08
3.00837e-06
5.80108e-08
2.98703e-06
5.5575e-08
2.9645e-06
5.30398e-08
2.94118e-06
5.04904e-08
2.9174e-06
4.79849e-08
2.89343e-06
4.55608e-08
2.8695e-06
4.32405e-08
2.84581e-06
4.10353e-08
2.82251e-06
3.89496e-08
2.79974e-06
3.69832e-08
2.77761e-06
3.51335e-08
2.75619e-06
3.33965e-08
2.73554e-06
3.17679e-08
2.71571e-06
3.02437e-08
2.69673e-06
2.88202e-08
2.67859e-06
2.74948e-08
2.66128e-06
2.62642e-08
2.64479e-06
2.51259e-08
2.62908e-06
2.40778e-08
2.61412e-06
2.31185e-08
2.59984e-06
2.2247e-08
2.5862e-06
2.14638e-08
2.57315e-06
2.07705e-08
2.56062e-06
2.01708e-08
2.54856e-06
1.96706e-08
2.53688e-06
1.92795e-08
2.52554e-06
1.90109e-08
2.51445e-06
1.88839e-08
2.50352e-06
1.89238e-08
2.49268e-06
1.91649e-08
2.48179e-06
1.96518e-08
2.47075e-06
2.04431e-08
2.45938e-06
2.16147e-08
2.44749e-06
2.32649e-08
2.43485e-06
2.55212e-08
2.42114e-06
2.85491e-08
2.40596e-06
3.2564e-08
2.38882e-06
3.78476e-08
2.36905e-06
4.47706e-08
2.34579e-06
5.38243e-08
2.3179e-06
6.5667e-08
2.28382e-06
8.11863e-08
2.24145e-06
1.01603e-07
2.18788e-06
1.28569e-07
2.11883e-06
1.64445e-07
2.02851e-06
2.12093e-07
1.90673e-06
2.76194e-07
1.74535e-06
3.57044e-07
1.50875e-06
4.79648e-07
5.17475e-07
1.22813e-06
3.00532e-06
1.92658e-08
3.01285e-06
3.90794e-08
3.01981e-06
4.44436e-08
3.02758e-06
4.8887e-08
3.03534e-06
5.33531e-08
3.0425e-06
5.61649e-08
3.04882e-06
5.75192e-08
3.05413e-06
5.80212e-08
3.05826e-06
5.79252e-08
3.06115e-06
5.73394e-08
3.06277e-06
5.63931e-08
3.06313e-06
5.52133e-08
3.06227e-06
5.38999e-08
3.06024e-06
5.25257e-08
3.05708e-06
5.11424e-08
3.05285e-06
4.97853e-08
3.04762e-06
4.84763e-08
3.04143e-06
4.72274e-08
3.03433e-06
4.60428e-08
3.02639e-06
4.49214e-08
3.01767e-06
4.38589e-08
3.00822e-06
4.28486e-08
2.9981e-06
4.18826e-08
2.98739e-06
4.09538e-08
2.97616e-06
4.00552e-08
2.96447e-06
3.91813e-08
2.95241e-06
3.83275e-08
2.94004e-06
3.74911e-08
2.92745e-06
3.66717e-08
2.9147e-06
3.58712e-08
2.90185e-06
3.50937e-08
2.88897e-06
3.43467e-08
2.8761e-06
3.36404e-08
2.86328e-06
3.29887e-08
2.85054e-06
3.24095e-08
2.83789e-06
3.19254e-08
2.82534e-06
3.1565e-08
2.81286e-06
3.13635e-08
2.80042e-06
3.13651e-08
2.78796e-06
3.16251e-08
2.7754e-06
3.22128e-08
2.76263e-06
3.32154e-08
2.7495e-06
3.47437e-08
2.73582e-06
3.69386e-08
2.72136e-06
3.99801e-08
2.70581e-06
4.40995e-08
2.68878e-06
4.95954e-08
2.66977e-06
5.6855e-08
2.64816e-06
6.6384e-08
2.62314e-06
7.88465e-08
2.59368e-06
9.51242e-08
2.55848e-06
1.16393e-07
2.51582e-06
1.44258e-07
2.46353e-06
1.80856e-07
2.39864e-06
2.29335e-07
2.31747e-06
2.93271e-07
2.21333e-06
3.80332e-07
2.08092e-06
4.89448e-07
1.89398e-06
6.66594e-07
7.58169e-07
1.65328e-06
3.00342e-06
1.5846e-08
3.00771e-06
3.47898e-08
3.01095e-06
4.12032e-08
3.01456e-06
4.52804e-08
3.01853e-06
4.93835e-08
3.0226e-06
5.20915e-08
3.02675e-06
5.33725e-08
3.03092e-06
5.38439e-08
3.03504e-06
5.38101e-08
3.03901e-06
5.33722e-08
3.04276e-06
5.26359e-08
3.04626e-06
5.17143e-08
3.04947e-06
5.06967e-08
3.05234e-06
4.96463e-08
3.05488e-06
4.86065e-08
3.05706e-06
4.76069e-08
3.05887e-06
4.66659e-08
3.0603e-06
4.57933e-08
3.06135e-06
4.49924e-08
3.06201e-06
4.42619e-08
3.06227e-06
4.35978e-08
3.06213e-06
4.2994e-08
3.06157e-06
4.24436e-08
3.06058e-06
4.19396e-08
3.05916e-06
4.14757e-08
3.0573e-06
4.10462e-08
3.05498e-06
4.06461e-08
3.0522e-06
4.02722e-08
3.04895e-06
3.99229e-08
3.04522e-06
3.95986e-08
3.04101e-06
3.93021e-08
3.03632e-06
3.90393e-08
3.03114e-06
3.88191e-08
3.02547e-06
3.86549e-08
3.01932e-06
3.85646e-08
3.01267e-06
3.85725e-08
3.00553e-06
3.87101e-08
2.99787e-06
3.90185e-08
2.98969e-06
3.95502e-08
2.98094e-06
4.03727e-08
2.97158e-06
4.1572e-08
2.96154e-06
4.3258e-08
2.95071e-06
4.55711e-08
2.93896e-06
4.86908e-08
2.92609e-06
5.28471e-08
2.91185e-06
5.83354e-08
2.89591e-06
6.5536e-08
2.87783e-06
7.49409e-08
2.85702e-06
8.71891e-08
2.83275e-06
1.03115e-07
2.80406e-06
1.23819e-07
2.7697e-06
1.50751e-07
2.72809e-06
1.85871e-07
2.67721e-06
2.31738e-07
2.61445e-06
2.92094e-07
2.53676e-06
3.70954e-07
2.4395e-06
4.77599e-07
2.31935e-06
6.09599e-07
2.16312e-06
8.22821e-07
9.58026e-07
1.96326e-06
3.00258e-06
1.32661e-08
3.00624e-06
3.11331e-08
3.00912e-06
3.83159e-08
3.01204e-06
4.2368e-08
3.01515e-06
4.62694e-08
3.01826e-06
4.89867e-08
3.02133e-06
5.02964e-08
3.02441e-06
5.07623e-08
3.02749e-06
5.07332e-08
3.03054e-06
5.03229e-08
3.03355e-06
4.96282e-08
3.0365e-06
4.87589e-08
3.03939e-06
4.78047e-08
3.04221e-06
4.68275e-08
3.04495e-06
4.58693e-08
3.0476e-06
4.49587e-08
3.05015e-06
4.4113e-08
3.0526e-06
4.33416e-08
3.05495e-06
4.26474e-08
3.05718e-06
4.2029e-08
3.0593e-06
4.14825e-08
3.06129e-06
4.10023e-08
3.06315e-06
4.05817e-08
3.06487e-06
4.02147e-08
3.06646e-06
3.98954e-08
3.06788e-06
3.96192e-08
3.06915e-06
3.93822e-08
3.07024e-06
3.91825e-08
3.07114e-06
3.90198e-08
3.07184e-06
3.88961e-08
3.07233e-06
3.88161e-08
3.07258e-06
3.87877e-08
3.07258e-06
3.88224e-08
3.07229e-06
3.89364e-08
3.07171e-06
3.91513e-08
3.07078e-06
3.9496e-08
3.06949e-06
4.00076e-08
3.06777e-06
4.07343e-08
3.06558e-06
4.17379e-08
3.06286e-06
4.30977e-08
3.05952e-06
4.49151e-08
3.05545e-06
4.73196e-08
3.05055e-06
5.04773e-08
3.04464e-06
5.4601e-08
3.03752e-06
5.99636e-08
3.02894e-06
6.69161e-08
3.01856e-06
7.59112e-08
3.00597e-06
8.7534e-08
2.99062e-06
1.02544e-07
2.9718e-06
1.21933e-07
2.94862e-06
1.47e-07
2.91991e-06
1.79453e-07
2.8842e-06
2.21585e-07
2.83958e-06
2.76359e-07
2.78362e-06
3.48056e-07
2.7134e-06
4.41166e-07
2.62499e-06
5.66012e-07
2.51525e-06
7.19337e-07
2.378e-06
9.60073e-07
1.1279e-06
2.20813e-06
3.00198e-06
1.12875e-08
3.00526e-06
2.78521e-08
3.00808e-06
3.54906e-08
3.01084e-06
3.96176e-08
3.01376e-06
4.33429e-08
3.01668e-06
4.60644e-08
3.01954e-06
4.74444e-08
3.02234e-06
4.79544e-08
3.02511e-06
4.79677e-08
3.02782e-06
4.76128e-08
3.03047e-06
4.69773e-08
3.03306e-06
4.61647e-08
3.03561e-06
4.52638e-08
3.0381e-06
4.43367e-08
3.04054e-06
4.34252e-08
3.04294e-06
4.25577e-08
3.0453e-06
4.17525e-08
3.04762e-06
4.10194e-08
3.04991e-06
4.03624e-08
3.05216e-06
3.97808e-08
3.05437e-06
3.92714e-08
3.05654e-06
3.88294e-08
3.05867e-06
3.84489e-08
3.06076e-06
3.81245e-08
3.06281e-06
3.78512e-08
3.0648e-06
3.76249e-08
3.06674e-06
3.74427e-08
3.06862e-06
3.73035e-08
3.07043e-06
3.72081e-08
3.07217e-06
3.71596e-08
3.07382e-06
3.71643e-08
3.07538e-06
3.72315e-08
3.07682e-06
3.73752e-08
3.07815e-06
3.76139e-08
3.07933e-06
3.79728e-08
3.08034e-06
3.84846e-08
3.08115e-06
3.91918e-08
3.08174e-06
4.01492e-08
3.08205e-06
4.14269e-08
3.08203e-06
4.3115e-08
3.08162e-06
4.53285e-08
3.08072e-06
4.82145e-08
3.07924e-06
5.19615e-08
3.07703e-06
5.6811e-08
3.07392e-06
6.30731e-08
3.06969e-06
7.11469e-08
3.06405e-06
8.15465e-08
3.05665e-06
9.49374e-08
3.04701e-06
1.12183e-07
3.03454e-06
1.34409e-07
3.01844e-06
1.63092e-07
2.99773e-06
2.0017e-07
2.97107e-06
2.48236e-07
2.9368e-06
3.10636e-07
2.89268e-06
3.9217e-07
2.83597e-06
4.97876e-07
2.763e-06
6.38986e-07
2.67014e-06
8.12198e-07
2.55348e-06
1.07673e-06
1.27258e-06
2.40881e-06
3.00156e-06
9.72687e-09
3.00449e-06
2.49214e-08
3.00722e-06
3.27657e-08
3.00985e-06
3.69818e-08
3.01266e-06
4.05328e-08
3.01551e-06
4.32135e-08
3.01831e-06
4.46493e-08
3.02105e-06
4.52081e-08
3.02375e-06
4.52688e-08
3.02639e-06
4.49762e-08
3.02896e-06
4.44104e-08
3.03145e-06
4.36663e-08
3.03389e-06
4.28302e-08
3.03626e-06
4.19629e-08
3.03858e-06
4.11054e-08
3.04085e-06
4.02857e-08
3.04308e-06
3.95221e-08
3.04528e-06
3.88253e-08
3.04744e-06
3.81996e-08
3.04958e-06
3.76455e-08
3.05169e-06
3.71605e-08
3.05378e-06
3.67407e-08
3.05584e-06
3.63813e-08
3.05789e-06
3.60775e-08
3.05992e-06
3.58253e-08
3.06192e-06
3.56214e-08
3.0639e-06
3.54639e-08
3.06585e-06
3.53524e-08
3.06777e-06
3.52889e-08
3.06965e-06
3.52777e-08
3.07149e-06
3.53262e-08
3.07328e-06
3.54456e-08
3.075e-06
3.56514e-08
3.07665e-06
3.59648e-08
3.07821e-06
3.64137e-08
3.07966e-06
3.70345e-08
3.08098e-06
3.78744e-08
3.08213e-06
3.89938e-08
3.08309e-06
4.04703e-08
3.0838e-06
4.24031e-08
3.08421e-06
4.49191e-08
3.08424e-06
4.81804e-08
3.08381e-06
5.23943e-08
3.08279e-06
5.78263e-08
3.08105e-06
6.48172e-08
3.07839e-06
7.38042e-08
3.07459e-06
8.53505e-08
3.06934e-06
1.00183e-07
3.06228e-06
1.19243e-07
3.05294e-06
1.43755e-07
3.04071e-06
1.7532e-07
3.02485e-06
2.16034e-07
3.00439e-06
2.68694e-07
2.97811e-06
3.36913e-07
2.94441e-06
4.25865e-07
2.90124e-06
5.41054e-07
2.84573e-06
6.94492e-07
2.77432e-06
8.83609e-07
2.68425e-06
1.1668e-06
1.39141e-06
2.56541e-06
3.00126e-06
8.46463e-09
3.00387e-06
2.23159e-08
3.00647e-06
3.01585e-08
3.00902e-06
3.4438e-08
3.01173e-06
3.78228e-08
3.01452e-06
4.0427e-08
3.01727e-06
4.18958e-08
3.01998e-06
4.2498e-08
3.02265e-06
4.2601e-08
3.02526e-06
4.23649e-08
3.0278e-06
4.1866e-08
3.03028e-06
4.11902e-08
3.03269e-06
4.042e-08
3.03504e-06
3.96152e-08
3.03733e-06
3.88152e-08
3.03957e-06
3.80475e-08
3.04176e-06
3.733e-08
3.04391e-06
3.66735e-08
3.04603e-06
3.60829e-08
3.04811e-06
3.55593e-08
3.05017e-06
3.51009e-08
3.05221e-06
3.47044e-08
3.05422e-06
3.4366e-08
3.05622e-06
3.40816e-08
3.0582e-06
3.3848e-08
3.06016e-06
3.36627e-08
3.06209e-06
3.35247e-08
3.06401e-06
3.34345e-08
3.06591e-06
3.3395e-08
3.06777e-06
3.34118e-08
3.0696e-06
3.34935e-08
3.0714e-06
3.36527e-08
3.07314e-06
3.39071e-08
3.07483e-06
3.42798e-08
3.07644e-06
3.48017e-08
3.07796e-06
3.55126e-08
3.07937e-06
3.64641e-08
3.08064e-06
3.77221e-08
3.08174e-06
3.93712e-08
3.08263e-06
4.15193e-08
3.08324e-06
4.43042e-08
3.08352e-06
4.79021e-08
3.08338e-06
5.25379e-08
3.0827e-06
5.84992e-08
3.08137e-06
6.61543e-08
3.07919e-06
7.59753e-08
3.07598e-06
8.85684e-08
3.07145e-06
1.04713e-07
3.06527e-06
1.25417e-07
3.05705e-06
1.5198e-07
3.04627e-06
1.86095e-07
3.03234e-06
2.29964e-07
3.01454e-06
2.86498e-07
2.99202e-06
3.59433e-07
2.96381e-06
4.54078e-07
2.92876e-06
5.76099e-07
2.88553e-06
7.37725e-07
2.83174e-06
9.37394e-07
2.76768e-06
1.23087e-06
1.48426e-06
2.67483e-06
3.00104e-06
7.42183e-09
3.00336e-06
1.9998e-08
3.00584e-06
2.76744e-08
3.00831e-06
3.19734e-08
3.01093e-06
3.52026e-08
3.01365e-06
3.77056e-08
3.01636e-06
3.91839e-08
3.01904e-06
3.98211e-08
3.02168e-06
3.996e-08
3.02427e-06
3.97729e-08
3.0268e-06
3.9335e-08
3.02927e-06
3.87237e-08
3.03167e-06
3.80171e-08
3.03402e-06
3.72732e-08
3.0363e-06
3.65304e-08
3.03853e-06
3.5815e-08
3.04072e-06
3.51445e-08
3.04286e-06
3.45299e-08
3.04497e-06
3.39763e-08
3.04704e-06
3.34852e-08
3.04909e-06
3.30554e-08
3.05111e-06
3.26843e-08
3.0531e-06
3.23688e-08
3.05508e-06
3.21055e-08
3.05704e-06
3.18918e-08
3.05897e-06
3.1726e-08
3.06089e-06
3.16079e-08
3.06279e-06
3.1539e-08
3.06466e-06
3.1523e-08
3.0665e-06
3.15665e-08
3.06832e-06
3.16795e-08
3.07009e-06
3.18761e-08
3.07183e-06
3.21754e-08
3.0735e-06
3.26031e-08
3.07511e-06
3.31925e-08
3.07664e-06
3.3987e-08
3.07806e-06
3.50421e-08
3.07935e-06
3.64291e-08
3.08048e-06
3.82392e-08
3.08141e-06
4.05888e-08
3.08209e-06
4.36262e-08
3.08245e-06
4.75407e-08
3.08242e-06
5.25742e-08
3.08188e-06
5.90352e-08
3.08072e-06
6.73183e-08
3.07876e-06
7.79282e-08
3.07582e-06
9.15113e-08
3.07164e-06
1.08897e-07
3.0659e-06
1.31151e-07
3.05824e-06
1.59645e-07
3.04818e-06
1.9615e-07
3.0352e-06
2.42951e-07
3.01865e-06
3.03042e-07
2.99787e-06
3.80212e-07
2.97219e-06
4.79766e-07
2.94097e-06
6.07317e-07
2.90405e-06
7.74644e-07
2.86032e-06
9.81126e-07
2.81429e-06
1.2769e-06
1.55491e-06
2.74364e-06
3.00088e-06
6.54325e-09
3.00295e-06
1.79273e-08
3.00531e-06
2.53152e-08
3.0077e-06
2.9582e-08
3.01024e-06
3.26628e-08
3.0129e-06
3.50478e-08
3.01557e-06
3.65127e-08
3.01821e-06
3.7175e-08
3.02083e-06
3.73438e-08
3.0234e-06
3.71988e-08
3.02592e-06
3.6816e-08
3.02838e-06
3.62653e-08
3.03078e-06
3.56193e-08
3.03312e-06
3.49341e-08
3.0354e-06
3.42471e-08
3.03763e-06
3.35831e-08
3.03982e-06
3.29593e-08
3.04196e-06
3.23866e-08
3.04407e-06
3.18703e-08
3.04614e-06
3.14122e-08
3.04819e-06
3.10118e-08
3.0502e-06
3.0667e-08
3.0522e-06
3.03752e-08
3.05417e-06
3.01339e-08
3.05612e-06
2.99409e-08
3.05805e-06
2.97955e-08
3.05996e-06
2.9698e-08
3.06185e-06
2.96508e-08
3.06371e-06
2.96586e-08
3.06555e-06
2.97288e-08
3.06736e-06
2.98727e-08
3.06913e-06
3.01057e-08
3.07085e-06
3.04488e-08
3.07253e-06
3.09296e-08
3.07414e-06
3.1584e-08
3.07566e-06
3.24585e-08
3.07709e-06
3.36127e-08
3.0784e-06
3.51229e-08
3.07955e-06
3.70866e-08
3.08051e-06
3.96281e-08
3.08123e-06
4.29058e-08
3.08165e-06
4.71219e-08
3.08169e-06
5.25338e-08
3.08126e-06
5.94702e-08
3.08023e-06
6.83504e-08
3.07844e-06
7.97101e-08
3.07572e-06
9.42338e-08
3.07182e-06
1.12797e-07
3.06645e-06
1.36521e-07
3.05925e-06
1.66842e-07
3.0498e-06
2.05605e-07
3.03758e-06
2.5517e-07
3.02203e-06
3.18595e-07
3.00253e-06
3.99711e-07
2.97853e-06
5.03763e-07
2.94957e-06
6.36277e-07
2.91601e-06
8.08199e-07
2.87727e-06
1.01987e-06
2.84066e-06
1.31351e-06
1.60932e-06
2.78625e-06
3.00075e-06
5.78931e-09
3.00261e-06
1.60665e-08
3.00485e-06
2.30786e-08
3.00717e-06
2.72603e-08
3.00964e-06
3.01947e-08
3.01224e-06
3.245e-08
3.01487e-06
3.38814e-08
3.01749e-06
3.45578e-08
3.02008e-06
3.47508e-08
3.02264e-06
3.46417e-08
3.02515e-06
3.43085e-08
3.0276e-06
3.38143e-08
3.02999e-06
3.3226e-08
3.03233e-06
3.25975e-08
3.03461e-06
3.19645e-08
3.03684e-06
3.13509e-08
3.03903e-06
3.07733e-08
3.04117e-06
3.02422e-08
3.04328e-06
2.97631e-08
3.04535e-06
2.93383e-08
3.0474e-06
2.89674e-08
3.04941e-06
2.86492e-08
3.05141e-06
2.83815e-08
3.05338e-06
2.81623e-08
3.05533e-06
2.79905e-08
3.05726e-06
2.78656e-08
3.05917e-06
2.77889e-08
3.06106e-06
2.77634e-08
3.06292e-06
2.77947e-08
3.06476e-06
2.78913e-08
3.06657e-06
2.80656e-08
3.06834e-06
2.83342e-08
3.07007e-06
2.87198e-08
3.07174e-06
2.92519e-08
3.07336e-06
2.99688e-08
3.0749e-06
3.09201e-08
3.07634e-06
3.21692e-08
3.07767e-06
3.37971e-08
3.07885e-06
3.59073e-08
3.07984e-06
3.86318e-08
3.08061e-06
4.21383e-08
3.08109e-06
4.66411e-08
3.08121e-06
5.24125e-08
3.08088e-06
5.98001e-08
3.07999e-06
6.92467e-08
3.07838e-06
8.13168e-08
3.07588e-06
9.67307e-08
3.07227e-06
1.16407e-07
3.06727e-06
1.4152e-07
3.06055e-06
1.73563e-07
3.05171e-06
2.14449e-07
3.04027e-06
2.66606e-07
3.02572e-06
3.33148e-07
3.00749e-06
4.17938e-07
2.98511e-06
5.26146e-07
2.95816e-06
6.63227e-07
2.92718e-06
8.39184e-07
2.89168e-06
1.05537e-06
2.85948e-06
1.3457e-06
1.65268e-06
2.81612e-06
3.00066e-06
5.13133e-09
3.00234e-06
1.43826e-08
3.00446e-06
2.09594e-08
3.00672e-06
2.50054e-08
3.00912e-06
2.77902e-08
3.01166e-06
2.99085e-08
3.01425e-06
3.12884e-08
3.01684e-06
3.19679e-08
3.01942e-06
3.21792e-08
3.02196e-06
3.21006e-08
3.02445e-06
3.18119e-08
3.0269e-06
3.13703e-08
3.02929e-06
3.0837e-08
3.03162e-06
3.0263e-08
3.0339e-06
2.96825e-08
3.03614e-06
2.91184e-08
3.03832e-06
2.85863e-08
3.04047e-06
2.80964e-08
3.04258e-06
2.76544e-08
3.04465e-06
2.72627e-08
3.0467e-06
2.69216e-08
3.04872e-06
2.663e-08
3.05071e-06
2.63865e-08
3.05269e-06
2.61897e-08
3.05464e-06
2.6039e-08
3.05657e-06
2.59346e-08
3.05848e-06
2.58785e-08
3.06037e-06
2.58746e-08
3.06223e-06
2.59291e-08
3.06407e-06
2.60515e-08
3.06588e-06
2.62552e-08
3.06766e-06
2.65583e-08
3.06939e-06
2.69847e-08
3.07108e-06
2.7566e-08
3.07271e-06
2.83428e-08
3.07426e-06
2.93674e-08
3.07572e-06
3.07068e-08
3.07707e-06
3.24466e-08
3.07828e-06
3.46959e-08
3.07932e-06
3.75937e-08
3.08014e-06
4.13169e-08
3.08069e-06
4.60907e-08
3.0809e-06
5.22018e-08
3.08069e-06
6.00152e-08
3.07994e-06
6.99957e-08
3.07852e-06
8.27349e-08
3.07627e-06
9.89864e-08
3.07296e-06
1.19709e-07
3.06836e-06
1.46123e-07
3.06214e-06
1.7978e-07
3.05394e-06
2.22651e-07
3.04332e-06
2.77223e-07
3.02981e-06
3.46659e-07
3.01291e-06
4.34846e-07
2.99218e-06
5.46868e-07
2.96729e-06
6.88116e-07
2.93879e-06
8.67684e-07
2.90634e-06
1.08782e-06
2.87684e-06
1.37521e-06
1.68834e-06
2.84117e-06
3.00058e-06
4.54822e-09
3.00212e-06
1.28475e-08
3.00413e-06
1.89498e-08
3.00632e-06
2.28145e-08
3.00867e-06
2.54429e-08
3.01116e-06
2.74186e-08
3.01371e-06
2.87324e-08
3.01628e-06
2.94037e-08
3.01883e-06
2.96274e-08
3.02135e-06
2.95743e-08
3.02384e-06
2.93253e-08
3.02628e-06
2.89328e-08
3.02866e-06
2.84519e-08
3.031e-06
2.79304e-08
3.03328e-06
2.74011e-08
3.03551e-06
2.68854e-08
3.0377e-06
2.63981e-08
3.03985e-06
2.59491e-08
3.04196e-06
2.55441e-08
3.04403e-06
2.51856e-08
3.04608e-06
2.48742e-08
3.0481e-06
2.46093e-08
3.0501e-06
2.43901e-08
3.05207e-06
2.42157e-08
3.05402e-06
2.4086e-08
3.05596e-06
2.40021e-08
3.05787e-06
2.39664e-08
3.05976e-06
2.39836e-08
3.06163e-06
2.40608e-08
3.06347e-06
2.42083e-08
3.06529e-06
2.44404e-08
3.06707e-06
2.47765e-08
3.06881e-06
2.52421e-08
3.07051e-06
2.58703e-08
3.07215e-06
2.67039e-08
3.07371e-06
2.7798e-08
3.0752e-06
2.92228e-08
3.07658e-06
3.10683e-08
3.07782e-06
3.34487e-08
3.07891e-06
3.65097e-08
3.07979e-06
4.04366e-08
3.08041e-06
4.54649e-08
3.08072e-06
5.18946e-08
3.08063e-06
6.01071e-08
3.08004e-06
7.05873e-08
3.07882e-06
8.39523e-08
3.07682e-06
1.00986e-07
3.07385e-06
1.22684e-07
3.06966e-06
1.50312e-07
3.06397e-06
1.85469e-07
3.05644e-06
2.30179e-07
3.04668e-06
2.86987e-07
3.03424e-06
3.5909e-07
3.01869e-06
4.50396e-07
2.99967e-06
5.65893e-07
2.97688e-06
7.10904e-07
2.95087e-06
8.93695e-07
2.92153e-06
1.11716e-06
2.8945e-06
1.40223e-06
1.71823e-06
2.86462e-06
3.00052e-06
4.02423e-09
3.00193e-06
1.1437e-08
3.00384e-06
1.70407e-08
3.00597e-06
2.06846e-08
3.00827e-06
2.31469e-08
3.01071e-06
2.49759e-08
3.01323e-06
2.62114e-08
3.01577e-06
2.68636e-08
3.01831e-06
2.7094e-08
3.02082e-06
2.70619e-08
3.0233e-06
2.68482e-08
3.02573e-06
2.65013e-08
3.02811e-06
2.60703e-08
3.03044e-06
2.55995e-08
3.03272e-06
2.512e-08
3.03495e-06
2.46519e-08
3.03714e-06
2.42089e-08
3.03929e-06
2.38005e-08
3.0414e-06
2.34322e-08
3.04348e-06
2.31068e-08
3.04553e-06
2.28251e-08
3.04755e-06
2.2587e-08
3.04955e-06
2.23921e-08
3.05153e-06
2.22401e-08
3.05348e-06
2.21315e-08
3.05542e-06
2.20678e-08
3.05733e-06
2.20523e-08
3.05923e-06
2.20902e-08
3.0611e-06
2.21894e-08
3.06294e-06
2.23611e-08
3.06476e-06
2.26206e-08
3.06655e-06
2.29883e-08
3.0683e-06
2.34911e-08
3.07001e-06
2.41637e-08
3.07166e-06
2.5051e-08
3.07325e-06
2.62105e-08
3.07476e-06
2.77156e-08
3.07617e-06
2.96601e-08
3.07745e-06
3.21632e-08
3.07858e-06
3.53767e-08
3.07953e-06
3.94936e-08
3.08023e-06
4.47592e-08
3.08064e-06
5.14855e-08
3.08068e-06
6.00689e-08
3.08025e-06
7.10133e-08
3.07925e-06
8.49586e-08
3.07752e-06
1.02717e-07
3.07488e-06
1.25318e-07
3.07113e-06
1.54066e-07
3.06599e-06
1.90606e-07
3.05916e-06
2.3701e-07
3.05028e-06
2.95869e-07
3.03896e-06
3.70413e-07
3.02479e-06
4.64559e-07
3.00748e-06
5.83202e-07
2.98681e-06
7.31583e-07
2.96326e-06
9.17237e-07
2.93698e-06
1.14345e-06
2.91254e-06
1.42667e-06
1.74347e-06
2.8873e-06
3.00048e-06
3.54738e-09
3.00178e-06
1.01307e-08
3.0036e-06
1.52224e-08
3.00567e-06
1.86121e-08
3.00792e-06
2.08972e-08
3.01032e-06
2.25758e-08
3.01281e-06
2.37229e-08
3.01533e-06
2.43461e-08
3.01785e-06
2.45773e-08
3.02035e-06
2.45621e-08
3.02281e-06
2.438e-08
3.02524e-06
2.40753e-08
3.02762e-06
2.36919e-08
3.02995e-06
2.32703e-08
3.03223e-06
2.28393e-08
3.03446e-06
2.24178e-08
3.03665e-06
2.20186e-08
3.0388e-06
2.16504e-08
3.04092e-06
2.13187e-08
3.043e-06
2.10263e-08
3.04505e-06
2.07743e-08
3.04707e-06
2.0563e-08
3.04907e-06
2.03924e-08
3.05105e-06
2.02628e-08
3.05301e-06
2.01751e-08
3.05494e-06
2.01315e-08
3.05686e-06
2.01359e-08
3.05875e-06
2.0194e-08
3.06063e-06
2.03146e-08
3.06248e-06
2.05097e-08
3.06431e-06
2.07953e-08
3.0661e-06
2.11931e-08
3.06786e-06
2.1731e-08
3.06958e-06
2.24455e-08
3.07125e-06
2.33831e-08
3.07285e-06
2.46037e-08
3.07439e-06
2.61837e-08
3.07583e-06
2.82204e-08
3.07715e-06
3.08374e-08
3.07834e-06
3.41922e-08
3.07934e-06
3.84849e-08
3.08013e-06
4.39696e-08
3.08065e-06
5.09695e-08
3.08082e-06
5.98947e-08
3.08057e-06
7.12662e-08
3.07978e-06
8.57448e-08
3.07833e-06
1.04168e-07
3.07606e-06
1.27597e-07
3.07275e-06
1.57369e-07
3.06818e-06
1.95172e-07
3.06207e-06
2.43121e-07
3.0541e-06
3.03845e-07
3.04391e-06
3.80602e-07
3.03115e-06
4.77314e-07
3.01557e-06
5.98785e-07
2.99699e-06
7.50162e-07
2.97588e-06
9.38351e-07
2.95253e-06
1.1668e-06
2.93072e-06
1.44847e-06
1.76485e-06
2.90934e-06
3.00044e-06
3.10843e-09
3.00166e-06
8.91155e-09
3.0034e-06
1.34848e-08
3.00541e-06
1.65931e-08
3.00762e-06
1.86891e-08
3.00998e-06
2.02138e-08
3.01244e-06
2.12644e-08
3.01494e-06
2.18496e-08
3.01744e-06
2.2076e-08
3.01993e-06
2.2074e-08
3.02239e-06
2.19198e-08
3.02481e-06
2.16546e-08
3.02719e-06
2.13166e-08
3.02951e-06
2.09425e-08
3.03179e-06
2.05589e-08
3.03403e-06
2.01833e-08
3.03622e-06
1.98272e-08
3.03837e-06
1.94989e-08
3.04049e-06
1.92036e-08
3.04257e-06
1.89442e-08
3.04462e-06
1.87219e-08
3.04665e-06
1.85374e-08
3.04865e-06
1.83911e-08
3.05063e-06
1.82837e-08
3.05259e-06
1.82168e-08
3.05452e-06
1.81931e-08
3.05644e-06
1.8217e-08
3.05834e-06
1.82949e-08
3.06022e-06
1.84362e-08
3.06208e-06
1.86536e-08
3.06391e-06
1.89642e-08
3.06571e-06
1.93904e-08
3.06748e-06
1.99614e-08
3.06921e-06
2.07149e-08
3.07089e-06
2.16994e-08
3.07252e-06
2.29768e-08
3.07408e-06
2.4626e-08
3.07555e-06
2.67476e-08
3.07692e-06
2.94694e-08
3.07816e-06
3.29539e-08
3.07923e-06
3.74077e-08
3.08011e-06
4.30929e-08
3.08074e-06
5.03426e-08
3.08105e-06
5.95794e-08
3.08098e-06
7.13397e-08
3.08042e-06
8.6303e-08
3.07926e-06
1.0533e-07
3.07735e-06
1.29508e-07
3.07451e-06
1.60208e-07
3.07053e-06
1.99152e-07
3.06516e-06
2.48493e-07
3.05811e-06
3.10895e-07
3.04907e-06
3.89638e-07
3.03774e-06
4.88643e-07
3.02389e-06
6.12635e-07
3.0074e-06
7.66658e-07
2.98867e-06
9.57079e-07
2.96811e-06
1.18736e-06
2.94886e-06
1.46772e-06
1.78299e-06
2.93073e-06
3.00041e-06
2.70007e-09
3.00156e-06
7.76488e-09
3.00322e-06
1.18183e-08
3.00519e-06
1.46231e-08
3.00736e-06
1.65184e-08
3.00969e-06
1.78856e-08
3.01212e-06
1.88332e-08
3.0146e-06
1.93723e-08
3.01709e-06
1.95885e-08
3.01956e-06
1.95963e-08
3.02202e-06
1.94671e-08
3.02443e-06
1.92385e-08
3.02681e-06
1.8944e-08
3.02913e-06
1.8616e-08
3.03141e-06
1.82788e-08
3.03365e-06
1.79482e-08
3.03584e-06
1.76348e-08
3.03799e-06
1.73461e-08
3.04011e-06
1.7087e-08
3.04219e-06
1.68605e-08
3.04425e-06
1.66678e-08
3.04627e-06
1.65101e-08
3.04828e-06
1.6388e-08
3.05026e-06
1.63029e-08
3.05222e-06
1.62566e-08
3.05416e-06
1.62525e-08
3.05608e-06
1.62954e-08
3.05798e-06
1.63926e-08
3.05986e-06
1.65539e-08
3.06173e-06
1.67927e-08
3.06356e-06
1.71269e-08
3.06537e-06
1.75798e-08
3.06715e-06
1.81817e-08
3.0689e-06
1.89715e-08
3.0706e-06
1.99993e-08
3.07224e-06
2.13289e-08
3.07383e-06
2.30414e-08
3.07534e-06
2.52406e-08
3.07675e-06
2.80577e-08
3.07804e-06
3.166e-08
3.07919e-06
3.62596e-08
3.08016e-06
4.2126e-08
3.0809e-06
4.9601e-08
3.08136e-06
5.91183e-08
3.08147e-06
7.12279e-08
3.08115e-06
8.66262e-08
3.08028e-06
1.06194e-07
3.07875e-06
1.31042e-07
3.07639e-06
1.6257e-07
3.07301e-06
2.0253e-07
3.0684e-06
2.53108e-07
3.06229e-06
3.16999e-07
3.05443e-06
3.97501e-07
3.04454e-06
4.98533e-07
3.03242e-06
6.24747e-07
3.01799e-06
7.8109e-07
3.00161e-06
9.73467e-07
2.9837e-06
1.20527e-06
2.9669e-06
1.48451e-06
1.79836e-06
2.95152e-06
3.00038e-06
2.31647e-09
3.00147e-06
6.6783e-09
3.00308e-06
1.02134e-08
3.005e-06
1.26973e-08
3.00714e-06
1.43809e-08
3.00944e-06
1.5587e-08
3.01184e-06
1.64263e-08
3.0143e-06
1.69125e-08
3.01678e-06
1.71135e-08
3.01925e-06
1.71279e-08
3.02169e-06
1.7021e-08
3.02411e-06
1.68267e-08
3.02648e-06
1.65739e-08
3.0288e-06
1.62906e-08
3.03108e-06
1.59989e-08
3.03332e-06
1.57127e-08
3.03551e-06
1.54415e-08
3.03766e-06
1.51921e-08
3.03978e-06
1.49691e-08
3.04187e-06
1.47753e-08
3.04392e-06
1.46122e-08
3.04595e-06
1.44812e-08
3.04796e-06
1.43833e-08
3.04994e-06
1.43202e-08
3.0519e-06
1.42944e-08
3.05384e-06
1.43096e-08
3.05577e-06
1.43712e-08
3.05767e-06
1.44871e-08
3.05956e-06
1.46675e-08
3.06143e-06
1.49267e-08
3.06327e-06
1.52831e-08
3.06509e-06
1.5761e-08
3.06688e-06
1.63915e-08
3.06864e-06
1.72148e-08
3.07035e-06
1.82821e-08
3.07202e-06
1.96591e-08
3.07363e-06
2.14291e-08
3.07518e-06
2.36981e-08
3.07663e-06
2.66009e-08
3.07799e-06
3.03086e-08
3.07921e-06
3.50385e-08
3.08027e-06
4.10661e-08
3.08113e-06
4.87413e-08
3.08174e-06
5.85073e-08
3.08204e-06
7.09258e-08
3.08196e-06
8.67079e-08
3.0814e-06
1.06752e-07
3.08025e-06
1.32189e-07
3.07838e-06
1.64443e-07
3.07562e-06
2.05293e-07
3.07177e-06
2.56953e-07
3.06663e-06
3.22143e-07
3.05995e-06
4.04177e-07
3.05151e-06
5.06973e-07
3.04114e-06
6.3512e-07
3.02876e-06
7.93474e-07
3.01467e-06
9.87557e-07
2.99929e-06
1.22064e-06
2.98482e-06
1.49898e-06
1.81137e-06
2.97182e-06
3.00036e-06
1.95283e-09
3.0014e-06
5.64115e-09
3.00295e-06
8.66107e-09
3.00484e-06
1.08104e-08
3.00695e-06
1.22725e-08
3.00922e-06
1.33141e-08
3.01161e-06
1.40408e-08
3.01405e-06
1.44681e-08
3.01652e-06
1.46494e-08
3.01898e-06
1.46676e-08
3.02142e-06
1.45807e-08
3.02382e-06
1.44187e-08
3.02619e-06
1.42058e-08
3.02852e-06
1.39663e-08
3.0308e-06
1.37192e-08
3.03303e-06
1.34768e-08
3.03523e-06
1.32474e-08
3.03738e-06
1.3037e-08
3.0395e-06
1.28499e-08
3.04159e-06
1.26887e-08
3.04364e-06
1.25552e-08
3.04567e-06
1.24507e-08
3.04768e-06
1.23769e-08
3.04967e-06
1.23357e-08
3.05163e-06
1.23301e-08
3.05357e-06
1.23643e-08
3.0555e-06
1.24442e-08
3.05741e-06
1.25781e-08
3.0593e-06
1.27769e-08
3.06117e-06
1.30554e-08
3.06302e-06
1.34327e-08
3.06485e-06
1.39337e-08
3.06665e-06
1.45905e-08
3.06842e-06
1.54442e-08
3.07016e-06
1.65473e-08
3.07185e-06
1.79669e-08
3.07349e-06
1.97881e-08
3.07507e-06
2.21192e-08
3.07657e-06
2.50977e-08
3.07798e-06
2.88983e-08
3.07928e-06
3.37424e-08
3.08043e-06
3.9911e-08
3.08141e-06
4.77606e-08
3.08218e-06
5.77426e-08
3.08268e-06
7.04289e-08
3.08284e-06
8.65427e-08
3.0826e-06
1.06997e-07
3.08184e-06
1.32941e-07
3.08047e-06
1.65818e-07
3.07833e-06
2.0743e-07
3.07527e-06
2.60014e-07
3.0711e-06
3.26313e-07
3.06563e-06
4.09653e-07
3.05865e-06
5.13952e-07
3.05002e-06
6.43749e-07
3.03966e-06
8.03826e-07
3.02783e-06
9.99388e-07
3.0149e-06
1.23358e-06
3.00264e-06
1.51124e-06
1.82232e-06
2.99169e-06
3.00035e-06
1.60517e-09
3.00134e-06
4.64416e-09
3.00285e-06
7.1528e-09
3.00471e-06
8.9573e-09
3.00679e-06
1.01891e-08
3.00904e-06
1.10629e-08
3.01141e-06
1.16736e-08
3.01384e-06
1.20371e-08
3.01629e-06
1.21948e-08
3.01875e-06
1.22144e-08
3.02118e-06
1.21454e-08
3.02359e-06
1.20139e-08
3.02595e-06
1.18397e-08
3.02828e-06
1.16429e-08
3.03056e-06
1.14396e-08
3.03279e-06
1.12405e-08
3.03499e-06
1.10525e-08
3.03714e-06
1.08809e-08
3.03926e-06
1.07296e-08
3.04135e-06
1.06009e-08
3.04341e-06
1.04968e-08
3.04544e-06
1.04188e-08
3.04745e-06
1.03689e-08
3.04944e-06
1.03495e-08
3.0514e-06
1.03639e-08
3.05335e-06
1.04167e-08
3.05528e-06
1.05144e-08
3.05719e-06
1.06657e-08
3.05909e-06
1.0882e-08
3.06096e-06
1.11787e-08
3.06282e-06
1.15753e-08
3.06466e-06
1.20976e-08
3.06647e-06
1.27783e-08
3.06825e-06
1.36594e-08
3.07001e-06
1.47944e-08
3.07172e-06
1.62517e-08
3.07339e-06
1.81178e-08
3.07501e-06
2.0503e-08
3.07656e-06
2.35471e-08
3.07803e-06
2.74277e-08
3.0794e-06
3.23697e-08
3.08066e-06
3.86587e-08
3.08176e-06
4.66564e-08
3.08268e-06
5.68213e-08
3.08338e-06
6.97334e-08
3.08379e-06
8.61259e-08
3.08387e-06
1.06924e-07
3.08352e-06
1.33291e-07
3.08265e-06
1.66687e-07
3.08115e-06
2.08932e-07
3.07888e-06
2.62281e-07
3.0757e-06
3.29496e-07
3.07143e-06
4.13917e-07
3.06592e-06
5.19462e-07
3.05904e-06
6.50635e-07
3.0507e-06
8.12158e-07
3.0411e-06
1.00899e-06
3.03052e-06
1.24416e-06
3.02037e-06
1.52139e-06
1.83144e-06
3.01124e-06
3.00034e-06
1.27008e-09
3.0013e-06
3.67915e-09
3.00277e-06
5.6805e-09
3.0046e-06
7.13234e-09
3.00666e-06
8.12664e-09
3.00889e-06
8.82978e-09
3.01124e-06
9.3217e-09
3.01366e-06
9.61739e-09
3.01611e-06
9.7481e-09
3.01856e-06
9.76691e-09
3.02099e-06
9.71439e-09
3.02339e-06
9.61183e-09
3.02576e-06
9.47506e-09
3.02808e-06
9.3201e-09
3.03036e-06
9.16012e-09
3.0326e-06
9.0038e-09
3.03479e-06
8.85695e-09
3.03695e-06
8.72396e-09
3.03907e-06
8.60814e-09
3.04116e-06
8.51188e-09
3.04322e-06
8.43706e-09
3.04525e-06
8.38552e-09
3.04726e-06
8.35943e-09
3.04925e-06
8.36154e-09