/*--------------------------------*- C++ -*----------------------------------*\
| =========                 |                                                 |
| \\      /  F ield         | OpenFOAM: The Open Source CFD Toolbox           |
|  \\    /   O peration     | Version:  2.4.0                                 |
|   \\  /    A nd           | Web:      www.OpenFOAM.org                      |
|    \\/     M anipulation  |                                                 |
\*---------------------------------------------------------------------------*/
FoamFile
{
    version     2.0;
    format      ascii;
    class       surfaceScalarField;
    location    "0.39";
    object      phi;
}
// * * * * * * * * * * * * * * * * * * * * * * * * * * * * * * * * * * * * * //

dimensions      [0 3 -1 0 0 0 0];

internalField   nonuniform List<scalar> 
4456
(
2.24706e-06
-3.09559e-07
1.76881e-06
4.7825e-07
2.06813e-06
-2.99321e-07
2.10508e-06
-3.69481e-08
2.08173e-06
2.33499e-08
1.82185e-06
2.59876e-07
2.0368e-06
-2.14946e-07
1.89406e-06
1.42734e-07
1.68343e-06
2.10633e-07
2.06455e-06
-3.81116e-07
2.17489e-06
-1.10344e-07
2.12903e-06
4.58649e-08
1.92649e-06
2.02537e-07
1.98425e-06
-5.7756e-08
2.32367e-06
-3.39426e-07
2.19709e-06
1.26579e-07
1.4071e-06
7.8999e-07
2.35106e-06
-9.43957e-07
3.09285e-06
-7.41789e-07
6.11026e-07
2.48182e-06
2.2272e-06
-5.99263e-07
1.38226e-06
1.3232e-06
1.66769e-06
-5.84752e-07
1.86171e-06
-2.30973e-07
1.67791e-06
2.07152e-07
1.98339e-06
-4.56032e-08
1.94021e-06
-1.71769e-07
2.0569e-06
2.60451e-08
1.69621e-06
5.71323e-07
2.26606e-06
-9.50963e-07
2.13621e-06
1.95058e-08
1.89056e-06
2.91511e-07
2.2856e-06
-1.92497e-07
2.32275e-06
-9.49076e-08
2.00148e-06
-1.81631e-08
1.91338e-06
2.14681e-07
2.60673e-06
9.6646e-08
2.45764e-06
-7.94872e-07
1.87776e-06
-1.61909e-07
3.4395e-07
2.14484e-06
2.01915e-06
-6.8091e-07
2.29198e-06
1.05036e-06
2.02352e-06
-3.16286e-07
2.20761e-06
-4.15072e-07
2.31569e-06
9.90739e-08
2.19586e-06
7.42311e-08
2.33684e-06
-3.12753e-07
2.21543e-06
1.47462e-07
2.46079e-06
3.25954e-07
2.21764e-06
-7.07809e-07
2.0456e-06
1.91544e-07
2.71569e-06
-3.78578e-07
2.18378e-06
3.39416e-07
2.56311e-06
-4.74238e-07
2.28077e-06
2.64174e-07
2.29035e-06
2.05106e-07
2.78729e-06
-4.00296e-07
1.96512e-06
2.73001e-08
2.1883e-06
-3.8509e-07
-3.82539e-07
2.91479e-06
1.91724e-06
-6.60646e-07
2.0245e-06
9.43096e-07
1.71648e-06
-8.26267e-09
1.89847e-06
-5.97057e-07
2.3606e-06
-3.6306e-07
2.19364e-06
2.41188e-07
2.3326e-06
-4.51708e-07
2.41533e-06
6.47272e-08
2.4218e-06
3.19482e-07
1.9175e-06
-2.035e-07
1.92259e-06
1.8645e-07
2.21732e-06
-6.7331e-07
2.14102e-06
4.15721e-07
2.09609e-06
-4.29314e-07
2.27648e-06
8.3782e-08
2.57157e-06
-8.99755e-08
1.93501e-06
2.3626e-07
2.24765e-06
-2.85339e-07
2.21949e-06
-3.56934e-07
-6.39628e-07
2.47658e-06
2.07055e-06
-7.93696e-07
1.7781e-06
1.23555e-06
1.42983e-06
3.40004e-07
1.75774e-06
-9.2496e-07
1.81725e-06
-4.22574e-07
2.01064e-06
4.77997e-08
1.85636e-06
-2.97426e-07
2.00975e-06
-8.86656e-08
1.80586e-06
5.23372e-07
1.66348e-06
-6.1123e-08
1.85283e-06
-2.89384e-09
1.92642e-06
-7.46906e-07
2.02019e-06
3.21953e-07
1.74567e-06
-1.54793e-07
2.04425e-06
-2.14802e-07
2.25293e-06
-2.98648e-07
1.76078e-06
7.28405e-07
1.8076e-06
-3.32157e-07
2.292e-06
-8.41335e-07
-5.78528e-07
2.2309e-06
1.99605e-06
-8.52244e-07
1.92558e-06
1.30601e-06
1.52021e-06
7.4538e-07
1.705e-06
-1.10976e-06
1.76484e-06
-4.82411e-07
1.69319e-06
1.19449e-07
2.23497e-06
-8.39208e-07
1.61582e-06
5.30485e-07
1.81672e-06
3.22475e-07
2.24191e-06
-4.86313e-07
1.83189e-06
4.07123e-07
2.15982e-06
-1.07483e-06
2.11162e-06
3.70152e-07
2.23584e-06
-2.79015e-07
2.28385e-06
-2.62806e-07
2.11603e-06
-1.30835e-07
2.11649e-06
7.27946e-07
2.32777e-06
-5.43432e-07
2.49931e-06
-1.01287e-06
-6.75644e-07
2.59642e-06
1.77513e-06
-6.89873e-07
2.04137e-06
1.03977e-06
1.8862e-06
9.00543e-07
2.08828e-06
-1.31184e-06
1.92063e-06
-3.14754e-07
2.01658e-06
2.34954e-08
2.04608e-06
-8.6871e-07
2.09843e-06
4.78133e-07
2.11312e-06
3.0779e-07
1.84174e-06
-2.1494e-07
2.29546e-06
-4.65955e-08
2.24135e-06
-1.02072e-06
2.13614e-06
4.75363e-07
2.18309e-06
-3.25964e-07
2.14493e-06
-2.24646e-07
2.34636e-06
-3.32267e-07
2.35036e-06
7.23952e-07
2.30445e-06
-4.97522e-07
2.08266e-06
-7.91088e-07
-1.15274e-06
2.55975e-06
1.99682e-06
-7.49188e-07
2.3011e-06
7.35485e-07
2.29474e-06
9.06907e-07
1.88542e-06
-9.02518e-07
2.08383e-06
-5.13166e-07
2.18224e-06
-7.49138e-08
1.72181e-06
-4.08278e-07
2.35759e-06
-1.57651e-07
2.12055e-06
5.44838e-07
2.15883e-06
-2.53219e-07
2.44427e-06
-3.32038e-07
2.40551e-06
-9.81966e-07
2.30923e-06
5.71644e-07
2.31962e-06
-3.3635e-07
2.38851e-06
-2.93537e-07
2.54747e-06
-4.91228e-07
2.73972e-06
5.31704e-07
2.4591e-06
-2.16908e-07
2.86557e-06
-1.19755e-06
-9.05898e-07
2.61873e-06
1.70746e-06
-5.1915e-07
2.05748e-06
3.85463e-07
2.19859e-06
7.65799e-07
1.93389e-06
-6.37814e-07
2.20226e-06
-7.81533e-07
1.96936e-06
1.57982e-07
2.13924e-06
-5.78158e-07
2.36834e-06
-3.86753e-07
2.26558e-06
6.47601e-07
2.37368e-06
-3.61318e-07
2.56316e-06
-5.21516e-07
2.50019e-06
-9.18996e-07
2.44891e-06
6.22926e-07
2.28293e-06
-1.70375e-07
2.50816e-06
-5.18762e-07
2.52493e-06
-5.08e-07
2.71124e-06
3.45395e-07
2.43245e-06
6.18828e-08
2.192e-06
-9.57101e-07
-1.3379e-06
2.62399e-06
1.94822e-06
-5.29873e-07
1.91935e-06
4.14336e-07
1.92951e-06
7.55634e-07
2.27441e-06
-9.82708e-07
1.80989e-06
-3.17018e-07
2.07505e-06
-1.07171e-07
1.99263e-06
-4.9574e-07
2.48338e-06
-8.77503e-07
2.35068e-06
7.80303e-07
2.43013e-06
-4.40768e-07
2.79123e-06
-8.82618e-07
2.32564e-06
-4.53405e-07
2.43433e-06
5.14232e-07
2.32439e-06
-6.04354e-08
2.33877e-06
-5.3314e-07
2.30611e-06
-4.75345e-07
2.56756e-06
8.39472e-08
2.34966e-06
2.79784e-07
2.18094e-06
-7.88383e-07
-1.20685e-06
2.04989e-06
1.97407e-06
-5.66442e-07
2.12741e-06
2.61e-07
2.18369e-06
6.99351e-07
1.82249e-06
-6.21511e-07
1.94241e-06
-4.36932e-07
1.57094e-06
2.64293e-07
1.90716e-06
-8.31959e-07
1.92826e-06
-8.98604e-07
2.12332e-06
5.85247e-07
2.72011e-06
-1.03756e-06
2.18519e-06
-3.47703e-07
2.29628e-06
-5.64489e-07
2.42876e-06
3.81747e-07
2.23919e-06
1.29139e-07
2.27954e-06
-5.73489e-07
1.96925e-06
-1.65057e-07
2.11872e-06
-6.55231e-08
2.17293e-06
2.25575e-07
2.06539e-06
-6.80842e-07
-1.24147e-06
2.10001e-06
1.8066e-06
-4.35538e-07
2.08035e-06
-1.27571e-08
2.20042e-06
5.79283e-07
2.03519e-06
-4.56279e-07
2.00629e-06
-4.0803e-07
2.08478e-06
1.85803e-07
2.19992e-06
-9.47104e-07
1.87715e-06
-5.75829e-07
2.48786e-06
-2.54685e-08
1.98055e-06
-5.30248e-07
1.9225e-06
-2.89649e-07
2.48859e-06
-1.13058e-06
2.33273e-06
5.37609e-07
1.95923e-06
5.02637e-07
1.89337e-06
-5.07632e-07
2.00765e-06
-2.79334e-07
1.89173e-06
5.03994e-08
1.9999e-06
1.17405e-07
1.84992e-06
-5.3087e-07
-1.53045e-06
2.13891e-06
1.91851e-06
-4.16547e-07
1.86442e-06
4.13305e-08
2.09854e-06
3.45165e-07
1.93725e-06
-2.94985e-07
1.93061e-06
-4.01394e-07
1.97812e-06
1.3829e-07
1.85478e-06
-8.2376e-07
1.90346e-06
-6.24513e-07
2.46702e-06
-5.89026e-07
2.31933e-06
-3.82554e-07
2.14874e-06
-1.19061e-07
2.2134e-06
-1.19524e-06
2.56793e-06
1.83076e-07
1.90881e-06
1.16176e-06
1.90573e-06
-5.04551e-07
1.82577e-06
-1.99373e-07
1.9791e-06
-1.02931e-07
1.6854e-06
4.11101e-07
1.75829e-06
-6.03759e-07
-6.87799e-07
9.15638e-07
1.84822e-06
-3.27271e-07
1.91596e-06
-2.64034e-08
1.77762e-06
4.83502e-07
1.92575e-06
-4.43117e-07
1.77272e-06
-2.48359e-07
1.71561e-06
1.954e-07
1.73338e-06
-8.41534e-07
1.66366e-06
-5.54792e-07
2.18172e-06
-1.10709e-06
2.4033e-06
-6.04127e-07
2.13727e-06
1.4697e-07
2.17298e-06
-1.23096e-06
2.50707e-06
-1.51017e-07
2.1983e-06
1.47053e-06
1.83245e-06
-1.38704e-07
2.04805e-06
-4.14967e-07
2.07932e-06
-1.34206e-07
1.94282e-06
5.47602e-07
1.77262e-06
-4.33554e-07
-4.13657e-07
1.49848e-06
1.90866e-06
-2.98434e-07
2.07839e-06
-1.96125e-07
1.97966e-06
5.82232e-07
1.85939e-06
-3.22847e-07
1.90167e-06
-2.90638e-07
1.79562e-06
3.01448e-07
1.70202e-06
-7.47938e-07
1.80399e-06
-6.56761e-07
1.95464e-06
-1.25774e-06
2.59538e-06
-1.24487e-06
2.68968e-06
5.26692e-08
2.31402e-06
-8.55298e-07
2.66535e-06
-5.02352e-07
2.28402e-06
1.85187e-06
1.96582e-06
1.79498e-07
1.82243e-06
-2.71583e-07
2.19397e-06
-5.05741e-07
1.9963e-06
7.4527e-07
1.99192e-06
-4.29176e-07
6.74265e-07
9.03997e-07
1.87347e-06
-2.344e-07
2.1771e-06
-4.99762e-07
1.91363e-06
8.45703e-07
1.86683e-06
-2.76045e-07
1.97121e-06
-3.95019e-07
1.90668e-06
3.65978e-07
1.7832e-06
-6.24454e-07
1.9968e-06
-8.70362e-07
1.79561e-06
-1.05654e-06
2.42818e-06
-1.87744e-06
3.07919e-06
-5.98334e-07
2.52075e-06
-2.96857e-07
2.32915e-06
-3.10753e-07
2.39702e-06
1.784e-06
1.90402e-06
6.72495e-07
1.92271e-06
-2.9027e-07
2.53301e-06
-1.11605e-06
2.55264e-06
7.25642e-07
2.07223e-06
5.12361e-08
1.28357e-06
1.46293e-06
1.88162e-06
-1.78523e-07
1.99106e-06
-6.09196e-07
1.98667e-06
8.5009e-07
1.82851e-06
-1.17889e-07
1.81317e-06
-3.79673e-07
1.9971e-06
1.82042e-07
1.77251e-06
-3.99856e-07
1.96526e-06
-1.06311e-06
2.0643e-06
-1.15559e-06
2.60889e-06
-2.42203e-06
2.94011e-06
-9.2956e-07
2.54646e-06
9.68001e-08
2.06002e-06
1.75685e-07
2.47271e-06
1.3713e-06
2.09715e-06
1.04806e-06
1.85215e-06
-4.52747e-08
2.43714e-06
-1.70103e-06
2.42916e-06
7.33624e-07
2.10829e-06
3.72102e-07
2.28081e-06
1.11105e-06
1.74441e-06
1.45697e-08
1.64812e-06
-5.12907e-07
2.02534e-06
4.72866e-07
1.9623e-06
-5.48518e-08
1.79669e-06
-2.14057e-07
1.98316e-06
-4.42583e-09
1.88609e-06
-3.02788e-07
1.6413e-06
-8.18325e-07
2.40795e-06
-1.92224e-06
2.54956e-06
-2.56363e-06
2.2647e-06
-6.44705e-07
2.54037e-06
-1.78871e-07
2.36609e-06
3.4997e-07
2.24014e-06
1.49725e-06
2.59545e-06
6.92744e-07
2.47213e-06
7.80509e-08
1.86604e-06
-1.09494e-06
1.99659e-06
6.03066e-07
1.88871e-06
4.79986e-07
2.52068e-06
1.64883e-06
1.90609e-06
4.5977e-08
1.59147e-06
-1.98287e-07
2.00632e-06
5.80215e-08
1.96492e-06
-1.34503e-08
1.81936e-06
-6.84981e-08
1.85386e-06
-3.89284e-08
1.76046e-06
-2.09388e-07
1.50482e-06
-5.62683e-07
1.65694e-06
-2.07437e-06
1.02892e-06
-1.93561e-06
2.8716e-07
9.70564e-08
2.51166e-08
8.31731e-08
1.45253e-07
2.29834e-07
2.71683e-07
1.37082e-06
3.22241e-07
6.42186e-07
7.14122e-07
-3.13831e-07
7.91142e-07
-1.17196e-06
1.30221e-06
9.20022e-08
9.31414e-07
8.50778e-07
2.22184e-06
1.23026e-06
1.98348e-06
1.78519e-06
1.84321e-06
1.82976e-06
1.76126e-06
1.72233e-06
1.51295e-06
9.50263e-07
-1.1241e-06
-3.05971e-06
-2.96266e-06
-2.87948e-06
-2.64965e-06
-1.27883e-06
-6.36639e-07
-9.5047e-07
-2.12243e-06
-2.03043e-06
-1.17965e-06
1.04219e-06
2.13123e-06
3.5059e-07
2.46604e-06
-3.34804e-07
3.11238e-06
-6.46346e-07
3.36854e-06
-2.56155e-07
3.41611e-06
-4.75754e-08
4.45995e-06
-1.04384e-06
4.38602e-06
7.39334e-08
-1.02041e-06
5.40643e-06
3.1301e-06
-6.34672e-07
2.48377e-06
3.11524e-07
2.33893e-06
-5.01509e-07
4.06072e-06
-1.97795e-06
3.14527e-06
8.6788e-07
2.65089e-06
-5.49458e-07
3.84978e-06
-1.12495e-06
-2.55434e-06
5.38371e-06
1.70444e-06
5.75673e-07
3.2297e-06
-1.21373e-06
3.30229e-06
-5.74098e-07
2.16385e-06
-8.39512e-07
3.40984e-06
-3.78112e-07
4.13115e-06
-1.27076e-06
4.29491e-06
-1.28872e-06
-2.32984e-06
4.07041e-06
2.57367e-06
4.78584e-07
3.1117e-06
-1.75176e-06
2.37899e-06
1.58619e-07
3.05912e-06
-1.51964e-06
3.68759e-06
-1.00658e-06
3.72088e-06
-1.30405e-06
4.54087e-06
-2.10871e-06
-2.08439e-06
4.29542e-06
2.40537e-06
3.04113e-07
2.4844e-06
-1.83079e-06
3.26478e-06
-6.21755e-07
3.74359e-06
-1.99845e-06
3.44374e-06
-7.06735e-07
4.40429e-06
-2.2646e-06
4.47094e-06
-2.17537e-06
-2.50384e-06
4.89039e-06
2.70489e-06
1.95646e-07
2.57299e-06
-1.69889e-06
2.75368e-06
-8.02444e-07
2.96145e-06
-2.20623e-06
3.71184e-06
-1.45713e-06
3.60054e-06
-2.15329e-06
4.22219e-06
-2.79703e-06
-3.07472e-06
4.79308e-06
3.03282e-06
-2.77418e-07
3.03537e-06
-1.70144e-06
3.15974e-06
-9.26818e-07
3.36927e-06
-2.41576e-06
3.53198e-06
-1.61984e-06
3.88848e-06
-2.50978e-06
4.82253e-06
-3.73107e-06
-3.48638e-06
5.23418e-06
2.80841e-06
-4.67096e-07
3.09764e-06
-1.99067e-06
2.949e-06
-7.78183e-07
2.93034e-06
-2.3971e-06
3.06372e-06
-1.75322e-06
4.51685e-06
-3.96291e-06
5.0232e-06
-4.23743e-06
-3.81692e-06
5.35375e-06
2.67028e-06
-5.13383e-07
2.47406e-06
-1.79445e-06
2.24062e-06
-5.4474e-07
2.46646e-06
-2.62293e-06
3.50042e-06
-2.78718e-06
4.57058e-06
-5.03308e-06
4.9162e-06
-4.58305e-06
-4.49066e-06
5.58994e-06
2.26373e-06
-7.27222e-07
2.79361e-06
-2.32433e-06
2.54673e-06
-2.97861e-07
3.66364e-06
-3.73985e-06
4.88905e-06
-4.01259e-06
5.11291e-06
-5.25693e-06
5.51978e-06
-4.98992e-06
-4.71097e-06
5.74009e-06
2.37579e-06
-1.003e-06
1.57976e-06
-1.5283e-06
2.58864e-06
-1.30674e-06
4.0249e-06
-5.17611e-06
4.26299e-06
-4.25068e-06
4.89063e-06
-5.88457e-06
5.04618e-06
-5.14548e-06
-5.24465e-06
5.57987e-06
1.84351e-06
-7.07601e-07
2.12051e-06
-1.8053e-06
3.48322e-06
-2.66945e-06
4.14484e-06
-5.83773e-06
4.63333e-06
-4.73916e-06
4.81978e-06
-6.07102e-06
5.23329e-06
-5.55899e-06
-5.23641e-06
5.22505e-06
1.06397e-06
-8.55932e-07
2.4998e-06
-3.24113e-06
3.8538e-06
-4.02345e-06
4.38808e-06
-6.37201e-06
4.23032e-06
-4.5814e-06
4.97944e-06
-6.82015e-06
4.7633e-06
-5.34285e-06
-4.9927e-06
4.51959e-06
2.0819e-06
-1.43935e-06
3.17792e-06
-4.33715e-06
4.03848e-06
-4.88401e-06
3.90112e-06
-6.23465e-06
4.50519e-06
-5.18547e-06
4.34206e-06
-6.65702e-06
3.82471e-06
-4.82551e-06
-5.94226e-06
4.77428e-06
1.90851e-06
-2.44387e-06
3.20002e-06
-5.62867e-06
3.8979e-06
-5.58189e-06
4.05865e-06
-6.3954e-06
3.98445e-06
-5.11126e-06
4.04193e-06
-6.7145e-06
4.08596e-06
-4.86954e-06
-6.61192e-06
4.75562e-06
2.73093e-06
-3.71187e-06
3.44874e-06
-6.34648e-06
3.76548e-06
-5.89863e-06
3.35872e-06
-5.98864e-06
3.85626e-06
-5.6088e-06
3.65794e-06
-6.51618e-06
3.61702e-06
-4.82862e-06
-7.83166e-06
4.83676e-06
2.81458e-06
-5.4154e-06
3.2473e-06
-6.7792e-06
3.43262e-06
-6.08395e-06
3.4317e-06
-5.98772e-06
3.51229e-06
-5.68939e-06
3.27505e-06
-6.27894e-06
3.86811e-06
-5.42168e-06
-8.29974e-06
4.33619e-06
3.01782e-06
-6.78439e-06
2.94616e-06
-6.70754e-06
3.10258e-06
-6.24037e-06
2.9676e-06
-5.85274e-06
3.14019e-06
-5.86198e-06
3.05873e-06
-6.19748e-06
3.75479e-06
-6.11775e-06
-8.04006e-06
3.49512e-06
2.67217e-06
-8.2263e-06
2.52059e-06
-6.55596e-06
2.71041e-06
-6.43018e-06
2.75221e-06
-5.89454e-06
2.85768e-06
-5.96746e-06
2.79629e-06
-6.13608e-06
2.86333e-06
-6.18479e-06
-7.33471e-06
2.15797e-06
2.49009e-06
-9.6742e-06
2.32137e-06
-6.38724e-06
2.5603e-06
-6.66911e-06
2.60519e-06
-5.93943e-06
2.68432e-06
-6.04659e-06
2.50048e-06
-5.95224e-06
2.15916e-06
-5.84347e-06
8.1217e-07
-5.98771e-06
3.53351e-06
1.87292e-06
5.05346e-06
-1.51995e-06
8.15897e-06
-3.10551e-06
7.61167e-06
5.47298e-07
8.20452e-06
-5.92849e-07
7.24458e-06
9.59943e-07
8.09523e-06
-8.50651e-07
9.64513e-06
-1.5499e-06
9.91854e-06
-2.73405e-07
1.12478e-05
-1.32931e-06
1.13958e-05
-1.47971e-07
1.22332e-05
-8.3738e-07
1.30044e-05
-7.71169e-07
1.29973e-05
7.01942e-09
1.35709e-05
-5.73594e-07
1.28401e-05
7.30835e-07
1.31336e-05
-2.93475e-07
1.24549e-05
6.78721e-07
1.21565e-05
2.98395e-07
1.12889e-05
8.67595e-07
1.06798e-05
6.09083e-07
1.02816e-05
3.98152e-07
8.4293e-06
1.85234e-06
8.87969e-06
-4.50395e-07
7.72715e-06
1.15254e-06
8.48282e-06
-7.55666e-07
8.31628e-06
1.66537e-07
5.18021e-07
7.79826e-06
6.62863e-06
6.27999e-07
5.99104e-06
-8.82364e-07
5.9592e-06
-3.07367e-06
7.39167e-06
-8.8517e-07
7.39376e-06
-5.94945e-07
8.42483e-06
-7.11259e-08
9.05669e-06
-1.48251e-06
9.8483e-06
-2.34151e-06
1.06478e-05
-1.07292e-06
1.12221e-05
-1.90361e-06
1.18624e-05
-7.88226e-07
1.22342e-05
-1.20918e-06
1.28697e-05
-1.40672e-06
1.29876e-05
-1.10877e-07
1.30358e-05
-6.21803e-07
1.29068e-05
8.5991e-07
1.2809e-05
-1.95699e-07
1.26115e-05
8.76171e-07
1.18176e-05
1.09233e-06
1.13316e-05
1.35361e-06
1.09202e-05
1.02042e-06
1.08349e-05
4.83474e-07
9.75428e-06
2.93298e-06
9.48121e-06
-1.77327e-07
8.12652e-06
2.50724e-06
8.10073e-06
-7.29884e-07
8.02619e-06
2.41083e-07
2.73202e-06
5.81219e-06
5.72472e-06
-1.02631e-06
6.21512e-06
-1.37276e-06
5.91281e-06
-2.77136e-06
6.87943e-06
-1.85178e-06
7.97773e-06
-1.69325e-06
8.82229e-06
-9.15676e-07
8.93551e-06
-1.59574e-06
9.50848e-06
-2.91447e-06
1.06232e-05
-2.18767e-06
1.15863e-05
-2.86668e-06
1.24439e-05
-1.64584e-06
1.28935e-05
-1.65876e-06
1.35364e-05
-2.04961e-06
1.34818e-05
-5.63464e-08
1.37759e-05
-9.15846e-07
1.37268e-05
9.08999e-07
1.34531e-05
7.80235e-08
1.32156e-05
1.11369e-06
1.2233e-05
2.07487e-06
1.21692e-05
1.41738e-06
1.12442e-05
1.94544e-06
1.05521e-05
1.17559e-06
1.00034e-05
3.48169e-06
8.88979e-06
9.36274e-07
8.16662e-06
3.23041e-06
7.13313e-06
3.03607e-07
6.4583e-06
9.15911e-07
2.75945e-06
6.43087e-06
5.33684e-06
-2.06773e-06
6.24629e-06
-2.28221e-06
6.50452e-06
-3.02959e-06
6.89166e-06
-2.23893e-06
7.80381e-06
-2.60541e-06
8.74003e-06
-1.8519e-06
9.04166e-06
-1.89736e-06
9.75127e-06
-3.62409e-06
1.10965e-05
-3.53291e-06
1.20001e-05
-3.77024e-06
1.26511e-05
-2.29682e-06
1.32738e-05
-2.28154e-06
1.33729e-05
-2.14866e-06
1.39061e-05
-5.89541e-07
1.35324e-05
-5.42156e-07
1.38975e-05
5.43902e-07
1.34338e-05
5.41755e-07
1.32862e-05
1.2612e-06
1.26071e-05
2.754e-06
1.21436e-05
1.88086e-06
1.16609e-05
2.4282e-06
1.06986e-05
2.13782e-06
1.0441e-05
3.73936e-06
8.66022e-06
2.71702e-06
8.05799e-06
3.83264e-06
7.96856e-06
3.93042e-07
7.37754e-06
1.50693e-06
2.52004e-06
7.61696e-06
5.70054e-06
-2.87788e-06
6.2191e-06
-2.80077e-06
5.96799e-06
-2.77848e-06
6.83567e-06
-3.10661e-06
7.67682e-06
-3.44656e-06
8.2572e-06
-2.43227e-06
9.69623e-06
-3.33639e-06
1.00121e-05
-3.93996e-06
1.10556e-05
-4.57638e-06
1.19968e-05
-4.71147e-06
1.27287e-05
-3.02874e-06
1.31992e-05
-2.75202e-06
1.34805e-05
-2.42995e-06
1.39024e-05
-1.01146e-06
1.37641e-05
-4.03897e-07
1.39205e-05
3.87544e-07
1.35972e-05
8.65065e-07
1.31995e-05
1.65886e-06
1.30107e-05
2.94286e-06
1.2484e-05
2.40751e-06
1.18703e-05
3.04192e-06
1.09043e-05
3.10384e-06
1.02114e-05
4.43228e-06
9.18774e-06
3.74064e-06
7.9882e-06
5.03218e-06
7.48796e-06
8.93281e-07
6.62561e-06
2.36928e-06
2.52181e-06
6.62383e-06
5.12281e-06
-3.20761e-06
5.77616e-06
-3.45411e-06
6.61671e-06
-3.61904e-06
7.34483e-06
-3.83473e-06
7.15175e-06
-3.25348e-06
8.63316e-06
-3.91368e-06
9.60332e-06
-4.30655e-06
9.95754e-06
-4.29417e-06
1.12183e-05
-5.83711e-06
1.20219e-05
-5.51515e-06
1.2426e-05
-3.4328e-06
1.31255e-05
-3.45153e-06
1.33305e-05
-2.63489e-06
1.37057e-05
-1.38666e-06
1.34788e-05
-1.77062e-07
1.35389e-05
3.27426e-07
1.34168e-05
9.87198e-07
1.2762e-05
2.31368e-06
1.28155e-05
2.88932e-06
1.19487e-05
3.27439e-06
1.15367e-05
3.45387e-06
1.06226e-05
4.01793e-06
9.75148e-06
5.30341e-06
9.25244e-06
4.23968e-06
8.53004e-06
5.75458e-06
7.36311e-06
2.06021e-06
7.18058e-06
2.55181e-06
3.41861e-06
6.28378e-06
5.73147e-06
-3.70491e-06
6.25252e-06
-3.97516e-06
7.01468e-06
-4.3812e-06
7.20974e-06
-4.02979e-06
7.89959e-06
-3.94332e-06
9.00711e-06
-5.0212e-06
9.02948e-06
-4.32893e-06
1.00298e-05
-5.29452e-06
1.10148e-05
-6.82204e-06
1.14378e-05
-5.9382e-06
1.22392e-05
-4.23423e-06
1.2786e-05
-3.99826e-06
1.30376e-05
-2.88657e-06
1.33951e-05
-1.7441e-06
1.32569e-05
-3.8867e-08
1.33412e-05
2.43105e-07
1.30855e-05
1.24292e-06
1.24521e-05
2.9471e-06
1.23776e-05
2.96377e-06
1.15906e-05
4.06143e-06
1.08455e-05
4.199e-06
1.04511e-05
4.41231e-06
9.42848e-06
6.32601e-06
8.90395e-06
4.76421e-06
8.90467e-06
5.75386e-06
7.17102e-06
3.79386e-06
6.67481e-06
3.04802e-06
3.32007e-06
6.77336e-06
6.00436e-06
-4.35551e-06
6.522e-06
-4.4928e-06
6.93905e-06
-4.79825e-06
7.19198e-06
-4.28272e-06
7.86282e-06
-4.61416e-06
7.86938e-06
-5.02777e-06
8.644e-06
-5.10354e-06
9.92538e-06
-6.5759e-06
9.97891e-06
-6.87558e-06
1.0853e-05
-6.81228e-06
1.1974e-05
-5.35519e-06
1.24291e-05
-4.45345e-06
1.27263e-05
-3.18371e-06
1.27178e-05
-1.73563e-06
1.26741e-05
4.8626e-09
1.26288e-05
2.88352e-07
1.22265e-05
1.64528e-06
1.18523e-05
3.32131e-06
1.14589e-05
3.3571e-06
1.10925e-05
4.42784e-06
1.01784e-05
5.11312e-06
9.93196e-06
4.65876e-06
9.41231e-06
6.84566e-06
8.55131e-06
5.62522e-06
8.41464e-06
5.89053e-06
7.60656e-06
4.60193e-06
6.60959e-06
4.04499e-06
3.26656e-06
6.6631e-06
6.22735e-06
-4.99292e-06
6.46739e-06
-4.73284e-06
6.53382e-06
-4.86468e-06
6.51387e-06
-4.26278e-06
6.58261e-06
-4.6829e-06
7.25765e-06
-5.7028e-06
8.45419e-06
-6.30008e-06
8.95674e-06
-7.07845e-06
9.42945e-06
-7.34829e-06
1.0557e-05
-7.93979e-06
1.09543e-05
-5.75256e-06
1.11403e-05
-4.63943e-06
1.16166e-05
-3.66004e-06
1.16485e-05
-1.7675e-06
1.15353e-05
1.18076e-07
1.1406e-05
4.17656e-07
1.10644e-05
1.98684e-06
1.06054e-05
3.78028e-06
9.81113e-06
4.15142e-06
9.50486e-06
4.73411e-06
9.08683e-06
5.53115e-06
8.82785e-06
4.91774e-06
8.75481e-06
6.9187e-06
8.0776e-06
6.30243e-06
7.797e-06
6.17113e-06
7.36909e-06
5.02985e-06
6.87943e-06
4.53465e-06
3.26347e-06
6.88252e-06
5.78369e-06
-5.03652e-06
5.85755e-06
-4.8067e-06
5.56974e-06
-4.57687e-06
5.98135e-06
-4.67438e-06
6.94729e-06
-5.64885e-06
7.47598e-06
-6.23149e-06
7.7621e-06
-6.58619e-06
8.13416e-06
-7.45051e-06
8.76344e-06
-7.97757e-06
9.06104e-06
-8.23739e-06
9.17437e-06
-5.86589e-06
9.74784e-06
-5.2129e-06
1.00596e-05
-3.97181e-06
9.82474e-06
-1.53263e-06
9.68452e-06
2.58291e-07
9.50566e-06
5.96523e-07
9.37043e-06
2.12207e-06
9.1548e-06
3.99591e-06
8.55576e-06
4.75046e-06
8.18466e-06
5.10521e-06
8.10472e-06
5.61109e-06
7.74386e-06
5.2786e-06
7.78492e-06
6.87764e-06
7.22059e-06
6.86675e-06
7.00779e-06
6.38393e-06
7.01263e-06
5.02501e-06
6.76321e-06
4.78407e-06
3.50617e-06
6.52051e-06
5.77041e-06
-5.22707e-06
5.21403e-06
-4.25032e-06
5.61097e-06
-4.97381e-06
6.31356e-06
-5.37698e-06
6.49414e-06
-5.82942e-06
6.52518e-06
-6.26253e-06
6.65082e-06
-6.71184e-06
6.87968e-06
-7.67937e-06
7.09652e-06
-8.19442e-06
7.08366e-06
-8.22453e-06
7.6097e-06
-6.39192e-06
7.90128e-06
-5.50448e-06
7.65316e-06
-3.7237e-06
7.72898e-06
-1.60845e-06
7.72776e-06
2.59513e-07
7.46284e-06
8.61451e-07
7.18967e-06
2.39524e-06
6.84045e-06
4.34513e-06
6.69589e-06
4.89503e-06
6.62662e-06
5.17447e-06
6.71728e-06
5.52044e-06
6.27582e-06
5.72006e-06
6.39713e-06
6.75633e-06
6.21219e-06
7.05169e-06
5.85265e-06
6.74347e-06
5.74577e-06
5.13188e-06
5.84506e-06
4.68478e-06
3.37056e-06
5.98067e-06
4.69142e-06
-4.69345e-06
5.36538e-06
-4.92427e-06
5.91534e-06
-5.52377e-06
5.61977e-06
-5.08142e-06
5.82035e-06
-6.03e-06
6.01919e-06
-6.46137e-06
5.83388e-06
-6.52652e-06
5.68551e-06
-7.531e-06
5.55725e-06
-8.06616e-06
5.4182e-06
-8.08547e-06
5.53941e-06
-6.51313e-06
5.34369e-06
-5.30876e-06
5.06244e-06
-3.44245e-06
5.07177e-06
-1.61778e-06
5.06701e-06
2.64274e-07
4.79064e-06
1.13782e-06
4.68348e-06
2.5024e-06
4.66108e-06
4.36753e-06
4.71578e-06
4.84033e-06
4.89507e-06
4.99518e-06
5.22074e-06
5.19477e-06
4.92702e-06
6.01378e-06
4.94443e-06
6.73892e-06
4.76434e-06
7.23178e-06
4.60935e-06
6.89846e-06
4.85798e-06
4.88326e-06
5.22756e-06
4.3152e-06
3.32399e-06
5.27413e-06
5.42505e-06
-5.5989e-06
5.68028e-06
-5.1795e-06
5.30904e-06
-5.15253e-06
4.99721e-06
-4.76958e-06
4.75043e-06
-5.78322e-06
4.52584e-06
-6.23678e-06
4.3984e-06
-6.39908e-06
4.01044e-06
-7.14303e-06
3.59407e-06
-7.6498e-06
3.28861e-06
-7.78002e-06
3.20714e-06
-6.43166e-06
2.83423e-06
-4.93585e-06
2.63774e-06
-3.24596e-06
2.68473e-06
-1.66476e-06
2.65232e-06
2.96683e-07
2.19772e-06
1.59243e-06
1.97503e-06
2.72508e-06
2.23343e-06
4.10913e-06
2.71714e-06
4.35662e-06
3.15264e-06
4.55967e-06
3.19646e-06
5.15095e-06
3.13768e-06
6.07256e-06
3.55112e-06
6.32548e-06
3.5599e-06
7.223e-06
3.5165e-06
6.94186e-06
4.19099e-06
4.20877e-06
4.52009e-06
3.9861e-06
3.22603e-06
4.61804e-06
5.15497e-06
-5.97959e-06
5.26137e-06
-5.28591e-06
4.76413e-06
-4.65529e-06
3.89347e-06
-3.89892e-06
3.64855e-06
-5.5383e-06
3.58046e-06
-6.16869e-06
3.16912e-06
-5.98775e-06
2.7407e-06
-6.71462e-06
2.1244e-06
-7.03349e-06
1.2282e-06
-6.88382e-06
6.71813e-07
-5.87528e-06
1.92231e-07
-4.45627e-06
-1.59096e-07
-2.89464e-06
-6.14174e-07
-1.20968e-06
-6.49314e-07
3.31823e-07
-4.86729e-07
1.42984e-06
-2.51094e-07
2.48945e-06
-2.0365e-07
4.06169e-06
5.79384e-07
3.57358e-06
1.17442e-06
3.96464e-06
1.30325e-06
5.02211e-06
1.33786e-06
6.03796e-06
1.53527e-06
6.12807e-06
2.11198e-06
6.64629e-06
3.036e-06
6.01785e-06
3.54781e-06
3.69696e-06
3.58802e-06
3.94589e-06
2.7646e-06
4.04946e-06
5.05993e-06
-6.28389e-06
4.87393e-06
-5.09991e-06
3.7663e-06
-3.54766e-06
2.29592e-06
-2.42854e-06
1.84337e-06
-5.08575e-06
1.50496e-06
-5.83028e-06
1.0838e-06
-5.56658e-06
4.80381e-07
-6.1112e-06
-1.93709e-07
-6.3594e-06
-7.87175e-07
-6.29035e-06
-1.50105e-06
-5.16141e-06
-2.24477e-06
-3.71255e-06
-2.7518e-06
-2.3876e-06
-3.00608e-06
-9.55409e-07
-2.90131e-06
2.27057e-07
-2.93299e-06
1.46152e-06
-2.79156e-06
2.34802e-06
-1.89489e-06
3.16502e-06
-1.41304e-06
3.09173e-06
-1.43615e-06
3.98776e-06
-9.1864e-07
4.5046e-06
3.06455e-09
5.11625e-06
2.29995e-07
5.90114e-06
9.39555e-07
5.93673e-06
2.03612e-06
4.92128e-06
2.61894e-06
3.11414e-06
3.07829e-06
3.48655e-06
2.2328e-06
3.61008e-06
4.7062e-06
-6.15334e-06
4.01032e-06
-4.40404e-06
2.63844e-06
-2.17577e-06
1.26382e-06
-1.05393e-06
5.48097e-07
-4.37003e-06
-1.91994e-07
-5.09019e-06
-1.09547e-06
-4.66311e-06
-1.62544e-06
-5.58122e-06
-2.53972e-06
-5.44512e-06
-3.63984e-06
-5.19023e-06
-4.31593e-06
-4.48532e-06
-4.73078e-06
-3.29769e-06
-5.14435e-06
-1.97403e-06
-5.41479e-06
-6.84968e-07
-5.47119e-06
2.83449e-07
-5.22562e-06
1.21596e-06
-4.86862e-06
1.99101e-06
-4.23479e-06
2.5312e-06
-3.92378e-06
2.78071e-06
-3.37917e-06
3.44315e-06
-2.78532e-06
3.91075e-06
-2.19972e-06
4.53066e-06
-1.32579e-06
5.0272e-06
2.60753e-08
4.58487e-06
1.1854e-06
3.76195e-06
1.83034e-06
2.4692e-06
2.27476e-06
3.04213e-06
1.90542e-06
2.60214e-06
3.62996e-06
-5.4471e-06
2.33755e-06
-3.11163e-06
8.2832e-07
-6.6654e-07
-3.46793e-07
1.21187e-07
-1.24502e-06
-3.4718e-06
-2.22364e-06
-4.11156e-06
-2.97888e-06
-3.90788e-06
-3.59987e-06
-4.96023e-06
-4.25988e-06
-4.78511e-06
-5.43622e-06
-4.01389e-06
-6.58745e-06
-3.33409e-06
-7.24496e-06
-2.64019e-06
-7.62266e-06
-1.59632e-06
-7.67599e-06
-6.31643e-07
-7.65291e-06
2.6037e-07
-7.47813e-06
1.04118e-06
-6.93613e-06
1.44901e-06
-6.43583e-06
2.03089e-06
-6.04312e-06
2.388e-06
-5.35548e-06
2.75551e-06
-4.74424e-06
3.2995e-06
-3.83575e-06
3.62217e-06
-2.6003e-06
3.79174e-06
-1.51451e-06
3.49908e-06
-6.23973e-07
2.87141e-06
2.24972e-07
1.62026e-06
1.13478e-06
2.13232e-06
1.51956e-06
1.52064e-06
1.83873e-06
-3.79072e-06
7.31295e-07
-2.00419e-06
-2.02176e-07
2.66931e-07
-1.05904e-06
9.7805e-07
-1.86102e-06
-2.66982e-06
-2.68487e-06
-3.28771e-06
-3.61486e-06
-2.97788e-06
-4.98938e-06
-3.58572e-06
-6.39074e-06
-3.38375e-06
-7.62172e-06
-2.7829e-06
-8.67422e-06
-2.28159e-06
-9.50507e-06
-1.80934e-06
-9.97142e-06
-1.12997e-06
-1.00975e-05
-5.05598e-07
-1.00677e-05
2.30632e-07
-9.73503e-06
7.08487e-07
-9.21823e-06
9.32216e-07
-8.69553e-06
1.5082e-06
-7.95591e-06
1.64838e-06
-7.25284e-06
2.05244e-06
-6.40115e-06
2.44781e-06
-5.23576e-06
2.45678e-06
-4.15159e-06
2.70758e-06
-3.11889e-06
2.46638e-06
-1.94759e-06
1.70011e-06
-1.50089e-06
1.17355e-06
-5.78528e-07
1.20996e-06
8.30714e-07
1.10318e-07
8.86562e-07
-2.5193e-06
-1.43431e-06
3.16685e-07
-2.32953e-06
1.16215e-06
-1.37053e-06
1.90541e-08
-2.02478e-06
-2.01557e-06
-3.2256e-06
-2.08689e-06
-5.07154e-06
-1.13195e-06
-6.63896e-06
-2.0183e-06
-8.15154e-06
-1.87117e-06
-9.47496e-06
-1.45948e-06
-1.05296e-05
-1.22694e-06
-1.13712e-05
-9.67776e-07
-1.19168e-05
-5.84325e-07
-1.21309e-05
-2.91519e-07
-1.20749e-05
1.74599e-07
-1.17274e-05
3.61041e-07
-1.1319e-05
5.23844e-07
-1.06453e-05
8.34491e-07
-9.83816e-06
8.412e-07
-8.94306e-06
1.15734e-06
-7.76147e-06
1.26623e-06
-6.56592e-06
1.26122e-06
-5.28558e-06
1.42724e-06
-3.96287e-06
1.14368e-06
-3.07654e-06
8.13779e-07
-2.84707e-06
9.44084e-07
-2.13327e-06
4.96153e-07
1.32493e-07
-1.43504e-06
-1.70713e-06
-1.39045e-06
-2.28304e-07
-2.09249e-07
-2.22482e-06
-4.31171e-06
-5.44366e-06
-7.46195e-06
-9.33313e-06
-1.07926e-05
-1.20196e-05
-1.29873e-05
-1.35717e-05
-1.38632e-05
-1.36886e-05
-1.33275e-05
-1.28037e-05
-1.19692e-05
-1.1128e-05
-9.97066e-06
-8.70443e-06
-7.44321e-06
-6.01597e-06
-4.87229e-06
-4.05852e-06
-3.11443e-06
-2.61828e-06
-2.48579e-06
7.80574e-06
-4.28736e-06
4.27988e-06
7.14775e-06
1.34724e-06
-6.89236e-07
7.55892e-06
3.46076e-06
-3.87193e-06
7.70736e-06
-1.86434e-06
1.71589e-06
7.12626e-06
-4.29475e-06
4.87585e-06
5.52603e-06
-7.42233e-06
9.02256e-06
1.2404e-06
-5.63885e-06
9.92448e-06
-5.17396e-06
-2.53215e-06
8.94651e-06
5.2658e-06
-3.74098e-06
6.36002e-06
2.53018e-07
7.36925e-06
2.45153e-06
6.75728e-06
-1.25237e-06
6.1229e-06
-3.66037e-06
6.072e-06
-7.37143e-06
3.88284e-06
-3.44969e-06
-1.81643e-06
5.25314e-07
6.11185e-06
-3.42195e-06
6.58115e-06
-2.16284e-07
6.96909e-06
2.06358e-06
6.32977e-06
-6.13047e-07
4.31249e-06
-1.64309e-06
3.98016e-06
-7.0391e-06
1.13371e-06
-6.0324e-07
-1.06177e-06
3.79041e-07
6.49506e-06
-2.30006e-06
5.15984e-06
1.11894e-06
6.20495e-06
1.01847e-06
5.00732e-06
5.8459e-07
4.11115e-06
-7.46917e-07
4.04427e-06
-6.97222e-06
3.44971e-06
-8.67968e-09
-1.2004e-06
3.58834e-06
5.62366e-06
-1.29988e-06
5.54565e-06
1.19695e-06
4.99224e-06
1.57188e-06
4.5443e-06
1.03254e-06
5.40317e-06
-1.60579e-06
4.42209e-06
-5.99114e-06
4.06017e-06
3.53237e-07
-8.635e-07
3.72327e-06
4.59511e-06
3.88792e-07
6.12725e-06
-3.35194e-07
5.87698e-06
1.82214e-06
5.55099e-06
1.35853e-06
6.08958e-06
-2.14438e-06
3.39767e-06
-3.29923e-06
2.60179e-06
1.14912e-06
-1.91006e-06
3.64834e-06
5.09261e-06
2.06954e-06
4.83255e-06
-7.51358e-08
6.01912e-06
6.35572e-07
6.87632e-06
5.01336e-07
6.27545e-06
-1.54351e-06
5.16446e-06
-2.18824e-06
5.51595e-06
7.97627e-07
-1.97235e-06
5.57825e-06
6.23251e-06
2.50013e-06
5.38761e-06
7.69767e-07
5.74788e-06
2.75301e-07
6.42482e-06
-1.75603e-07
5.89784e-06
-1.01654e-06
5.56644e-06
-1.85684e-06
5.99359e-06
3.7048e-07
-6.71358e-07
4.69259e-06
6.38914e-06
2.9935e-06
6.02147e-06
1.13744e-06
6.23856e-06
5.82097e-08
5.96549e-06
9.74627e-08
5.57393e-06
-6.24974e-07
5.00102e-06
-1.28393e-06
5.11227e-06
2.59226e-07
-9.3013e-08
4.53393e-06
6.16528e-06
3.34874e-06
5.75288e-06
1.54984e-06
5.48712e-06
3.23972e-07
5.63098e-06
-4.63978e-08
5.22196e-06
-2.15953e-07
4.9168e-06
-9.78776e-07
5.35407e-06
-1.78042e-07
4.69235e-07
4.79182e-06
6.05968e-06
3.26973e-06
5.74914e-06
1.86038e-06
5.37082e-06
7.02296e-07
5.12931e-06
1.9511e-07
5.06436e-06
-1.50997e-07
5.2264e-06
-1.14082e-06
5.1903e-06
-1.41938e-07
9.77027e-07
4.6825e-06
5.48767e-06
3.05618e-06