/*--------------------------------*- C++ -*----------------------------------*\
| =========                 |                                                 |
| \\      /  F ield         | OpenFOAM: The Open Source CFD Toolbox           |
|  \\    /   O peration     | Version:  2.4.0                                 |
|   \\  /    A nd           | Web:      www.OpenFOAM.org                      |
|    \\/     M anipulation  |                                                 |
\*---------------------------------------------------------------------------*/
FoamFile
{
    version     2.0;
    format      ascii;
    class       volScalarField;
    location    "0.55";
    object      nut;
}
// * * * * * * * * * * * * * * * * * * * * * * * * * * * * * * * * * * * * * //

dimensions      [0 2 -1 0 0 0 0];

internalField   nonuniform List<scalar> 
6000
(
1.2417e-05
9.60995e-06
4.59067e-06
5.73524e-06
7.22414e-06
8.05738e-06
7.54303e-06
6.77558e-06
5.93789e-06
5.30193e-06
4.94511e-06
5.26148e-06
6.40052e-06
7.46685e-06
8.41811e-06
9.22307e-06
9.86389e-06
1.03488e-05
1.07099e-05
1.09863e-05
1.12085e-05
1.13943e-05
1.15541e-05
1.16954e-05
1.1826e-05
1.19411e-05
1.20363e-05
1.21136e-05
1.21754e-05
1.22236e-05
1.22598e-05
1.22852e-05
1.23011e-05
1.23081e-05
1.23073e-05
1.22991e-05
1.22842e-05
1.2263e-05
1.22361e-05
1.22037e-05
1.2166e-05
1.21229e-05
1.20751e-05
1.20237e-05
1.19693e-05
1.19124e-05
1.18535e-05
1.17936e-05
1.17417e-05
1.16954e-05
1.16533e-05
1.16145e-05
1.15773e-05
1.15438e-05
1.15072e-05
1.14876e-05
1.1433e-05
1.14697e-05
1.12943e-05
1.15523e-05
2.33327e-05
2.98624e-05
1.16117e-05
7.70032e-06
7.34214e-06
8.92641e-06
1.23928e-05
1.48427e-05
1.66839e-05
1.79272e-05
1.83485e-05
1.77874e-05
1.71058e-05
1.65939e-05
1.63866e-05
1.65445e-05
1.69479e-05
1.73592e-05
1.76032e-05
1.76615e-05
1.76102e-05
1.75202e-05
1.74218e-05
1.73199e-05
1.72151e-05
1.71094e-05
1.70046e-05
1.6901e-05
1.67974e-05
1.66914e-05
1.65808e-05
1.64631e-05
1.63362e-05
1.61983e-05
1.60476e-05
1.58829e-05
1.57031e-05
1.55075e-05
1.52962e-05
1.50697e-05
1.4828e-05
1.45696e-05
1.42929e-05
1.39999e-05
1.36911e-05
1.33675e-05
1.30305e-05
1.26814e-05
1.23208e-05
1.19491e-05
1.15686e-05
1.11826e-05
1.07958e-05
1.04115e-05
1.00362e-05
9.66601e-06
9.31063e-06
8.91864e-06
8.57778e-06
8.24416e-06
2.88864e-05
4.40525e-05
1.75473e-05
1.42283e-05
1.57886e-05
2.26967e-05
2.76254e-05
2.90374e-05
2.91039e-05
2.89899e-05
2.89822e-05
2.88197e-05
2.84129e-05
2.76435e-05
2.66187e-05
2.5642e-05
2.49863e-05
2.46755e-05
2.45442e-05
2.44498e-05
2.4357e-05
2.42823e-05
2.42374e-05
2.42191e-05
2.42187e-05
2.42281e-05
2.42411e-05
2.42522e-05
2.4256e-05
2.42476e-05
2.42228e-05
2.41777e-05
2.41092e-05
2.40147e-05
2.38919e-05
2.37385e-05
2.35526e-05
2.33325e-05
2.30763e-05
2.27815e-05
2.24445e-05
2.20597e-05
2.16256e-05
2.11453e-05
2.06198e-05
2.00489e-05
1.94326e-05
1.87709e-05
1.80639e-05
1.73109e-05
1.65125e-05
1.56714e-05
1.47906e-05
1.38825e-05
1.29417e-05
1.20253e-05
1.10178e-05
1.01336e-05
8.95417e-06
8.1648e-06
3.21876e-05
5.08212e-05
2.07352e-05
2.531e-05
2.82462e-05
3.41372e-05
3.60407e-05
3.60013e-05
3.52248e-05
3.46688e-05
3.47319e-05
3.50572e-05
3.52402e-05
3.50173e-05
3.43057e-05
3.32696e-05
3.22364e-05
3.1466e-05
3.10031e-05
3.07567e-05
3.06391e-05
3.06041e-05
3.06268e-05
3.06877e-05
3.07706e-05
3.08632e-05
3.09563e-05
3.10428e-05
3.11177e-05
3.11769e-05
3.12174e-05
3.12367e-05
3.12331e-05
3.12049e-05
3.11507e-05
3.1069e-05
3.09581e-05
3.08161e-05
3.06406e-05
3.04285e-05
3.01754e-05
2.9874e-05
2.95223e-05
2.91191e-05
2.86619e-05
2.81467e-05
2.7569e-05
2.69237e-05
2.6205e-05
2.54072e-05
2.45239e-05
2.35505e-05
2.24804e-05
2.13196e-05
2.00484e-05
1.87437e-05
1.7225e-05
1.58871e-05
1.39524e-05
1.30881e-05
3.39502e-05
5.34229e-05
2.73882e-05
3.61566e-05
3.84238e-05
4.05368e-05
4.00891e-05
3.90687e-05
3.78718e-05
3.70317e-05
3.69734e-05
3.73964e-05
3.78724e-05
3.80886e-05
3.78617e-05
3.7229e-05
3.64244e-05
3.57136e-05
3.5229e-05
3.49571e-05
3.48305e-05
3.47926e-05
3.48081e-05
3.48552e-05
3.49194e-05
3.4991e-05
3.50631e-05
3.51309e-05
3.5191e-05
3.52411e-05
3.52797e-05
3.53056e-05
3.53181e-05
3.53164e-05
3.53e-05
3.5268e-05
3.52196e-05
3.51536e-05
3.50683e-05
3.49615e-05
3.48297e-05
3.46689e-05
3.44775e-05
3.42529e-05
3.39918e-05
3.369e-05
3.33421e-05
3.29417e-05
3.24814e-05
3.19525e-05
3.13452e-05
3.06492e-05
2.98515e-05
2.89457e-05
2.7906e-05
2.67803e-05
2.54113e-05
2.416e-05
2.22792e-05
2.17914e-05
3.48987e-05
5.36414e-05
3.40158e-05
4.48071e-05
4.61964e-05
4.49641e-05
4.24786e-05
4.04144e-05
3.87393e-05
3.75604e-05
3.72311e-05
3.75649e-05
3.81626e-05
3.86704e-05
3.8827e-05
3.85738e-05
3.80698e-05
3.75553e-05
3.71835e-05
3.6975e-05
3.68821e-05
3.68556e-05
3.6864e-05
3.68906e-05
3.69265e-05
3.69663e-05
3.70065e-05
3.70445e-05
3.70788e-05
3.7108e-05
3.71317e-05
3.71493e-05
3.71605e-05
3.71652e-05
3.71631e-05
3.71539e-05
3.71373e-05
3.71127e-05
3.70794e-05
3.70361e-05
3.69808e-05
3.69122e-05
3.68294e-05
3.67308e-05
3.66145e-05
3.64779e-05
3.63176e-05
3.61297e-05
3.59091e-05
3.56497e-05
3.53442e-05
3.49839e-05
3.45584e-05
3.40582e-05
3.34651e-05
3.27953e-05
3.19643e-05
3.11649e-05
3.00369e-05
2.99991e-05
3.5411e-05
5.25253e-05
3.9682e-05
5.06435e-05
5.27977e-05
4.90075e-05
4.4435e-05
4.11083e-05
3.88105e-05
3.72566e-05
3.66147e-05
3.68023e-05
3.74503e-05
3.81757e-05
3.86484e-05
3.87216e-05
3.84868e-05
3.81614e-05
3.79121e-05
3.77821e-05
3.77388e-05
3.77395e-05
3.77573e-05
3.77803e-05
3.78041e-05
3.78273e-05
3.7849e-05
3.78687e-05
3.78862e-05
3.79012e-05
3.79136e-05
3.79234e-05
3.79306e-05
3.79352e-05
3.79372e-05
3.79366e-05
3.79332e-05
3.79271e-05
3.79178e-05
3.79049e-05
3.78876e-05
3.78657e-05
3.78387e-05
3.78062e-05
3.77676e-05
3.7722e-05
3.7668e-05
3.76043e-05
3.75289e-05
3.74391e-05
3.73321e-05
3.7204e-05
3.70502e-05
3.68658e-05
3.66442e-05
3.63889e-05
3.60788e-05
3.57667e-05
3.54715e-05
3.58136e-05
3.56722e-05
5.07145e-05
4.40296e-05
5.40469e-05
5.89213e-05
5.32872e-05
4.64851e-05
4.16547e-05
3.8584e-05
3.66499e-05
3.57094e-05
3.57372e-05
3.63942e-05
3.72885e-05
3.8035e-05
3.84038e-05
3.84173e-05
3.82673e-05
3.81312e-05
3.80735e-05
3.80767e-05
3.81054e-05
3.81372e-05
3.81636e-05
3.81839e-05
3.81992e-05
3.8211e-05
3.82204e-05
3.82279e-05
3.8234e-05
3.82391e-05
3.82434e-05
3.82469e-05
3.82498e-05
3.82523e-05
3.82544e-05
3.82561e-05
3.82574e-05
3.82584e-05
3.82589e-05
3.82589e-05
3.82584e-05
3.82577e-05
3.82567e-05
3.82556e-05
3.82546e-05
3.82537e-05
3.8253e-05
3.82528e-05
3.82533e-05
3.82548e-05
3.82576e-05
3.82628e-05
3.82707e-05
3.82859e-05
3.83085e-05
3.83666e-05
3.84288e-05
3.87737e-05
3.94162e-05
3.57839e-05
4.86034e-05
4.70817e-05
5.70762e-05
6.4711e-05
5.79782e-05
4.88191e-05
4.22729e-05
3.8279e-05
3.59628e-05
3.47627e-05
3.46311e-05
3.52658e-05
3.62866e-05
3.72711e-05
3.79131e-05
3.81626e-05
3.81803e-05
3.81504e-05
3.81579e-05
3.82012e-05
3.82539e-05
3.82982e-05
3.83292e-05
3.83487e-05
3.836e-05
3.83663e-05
3.83695e-05
3.83711e-05
3.8372e-05
3.83726e-05
3.83733e-05
3.83743e-05
3.83757e-05
3.83778e-05
3.83805e-05
3.8384e-05
3.83884e-05
3.83938e-05
3.84003e-05
3.8408e-05
3.84173e-05
3.84286e-05
3.84422e-05
3.84587e-05
3.84788e-05
3.85033e-05
3.85333e-05
3.85703e-05
3.8616e-05
3.86729e-05
3.8744e-05
3.88342e-05
3.89481e-05
3.90983e-05
3.92867e-05
3.95714e-05
3.98797e-05
4.06453e-05
4.1505e-05
3.58077e-05
4.64316e-05
4.89625e-05
6.02736e-05
6.99515e-05
6.30179e-05
5.14434e-05
4.30381e-05
3.79865e-05
3.52703e-05
3.38582e-05
3.35731e-05
3.41632e-05
3.52727e-05
3.64611e-05
3.73564e-05
3.78337e-05
3.80153e-05
3.80878e-05
3.81558e-05
3.82348e-05
3.8308e-05
3.83632e-05
3.83986e-05
3.84185e-05
3.8428e-05
3.84312e-05
3.84311e-05
3.84293e-05
3.84272e-05
3.84253e-05
3.84239e-05
3.84235e-05
3.84239e-05
3.84255e-05
3.84283e-05
3.84325e-05
3.84381e-05
3.84453e-05
3.84544e-05
3.84656e-05
3.84792e-05
3.84959e-05
3.85162e-05
3.85409e-05
3.85709e-05
3.86075e-05
3.86522e-05
3.87072e-05
3.87752e-05
3.88597e-05
3.89656e-05
3.90997e-05
3.92696e-05
3.94928e-05
3.9774e-05
4.01888e-05
4.06464e-05
4.16651e-05
4.26673e-05
3.57811e-05
4.43392e-05
4.98385e-05
6.34904e-05
7.41588e-05
6.81963e-05
5.42556e-05
4.39438e-05
3.77465e-05
3.46121e-05
3.30085e-05
3.25838e-05
3.31167e-05
3.42831e-05
3.5643e-05
3.67723e-05
3.74708e-05
3.7815e-05
3.7989e-05
3.81157e-05
3.8228e-05
3.832e-05
3.83852e-05
3.84252e-05
3.84464e-05
3.84553e-05
3.8457e-05
3.84551e-05
3.84517e-05
3.8448e-05
3.84448e-05
3.84424e-05
3.84411e-05
3.84411e-05
3.84424e-05
3.84452e-05
3.84495e-05
3.84556e-05
3.84636e-05
3.84738e-05
3.84864e-05
3.8502e-05
3.85211e-05
3.85443e-05
3.85727e-05
3.86072e-05
3.86494e-05
3.87012e-05
3.87648e-05
3.88436e-05
3.89419e-05
3.90651e-05
3.92216e-05
3.94205e-05
3.96824e-05
4.00141e-05
4.05007e-05
4.10447e-05
4.22047e-05
4.32927e-05
3.57269e-05
4.24021e-05
4.98903e-05
6.63729e-05
7.72024e-05
7.32025e-05
5.70891e-05
4.49269e-05
3.75858e-05
3.40108e-05
3.22081e-05
3.1661e-05
3.21328e-05
3.33311e-05
3.48323e-05
3.61755e-05
3.70888e-05
3.75959e-05
3.78726e-05
3.80579e-05
3.8203e-05
3.83132e-05
3.83882e-05
3.8433e-05
3.8456e-05
3.84652e-05
3.84665e-05
3.84638e-05
3.84595e-05
3.84551e-05
3.84513e-05
3.84484e-05
3.84468e-05
3.84465e-05
3.84477e-05
3.84504e-05
3.84548e-05
3.84611e-05
3.84694e-05
3.848e-05
3.84932e-05
3.85096e-05
3.85297e-05
3.85542e-05
3.85842e-05
3.86207e-05
3.86655e-05
3.87204e-05
3.87882e-05
3.88722e-05
3.89771e-05
3.9109e-05
3.92768e-05
3.94908e-05
3.97728e-05
4.01316e-05
4.06571e-05
4.12497e-05
4.24838e-05
4.36173e-05
3.56587e-05
4.0656e-05
4.92968e-05
6.85624e-05
7.96206e-05
7.76331e-05
5.9751e-05
4.58809e-05
3.7559e-05
3.34574e-05
3.1449e-05
3.0796e-05
3.12093e-05
3.24217e-05
3.40365e-05
3.5573e-05
3.66936e-05
3.73643e-05
3.77458e-05
3.79913e-05
3.81696e-05
3.82982e-05
3.8383e-05
3.84329e-05
3.84582e-05
3.84682e-05
3.84695e-05
3.84665e-05
3.84619e-05
3.84571e-05
3.8453e-05
3.84499e-05
3.84481e-05
3.84478e-05
3.84489e-05
3.84516e-05
3.8456e-05
3.84623e-05
3.84707e-05
3.84815e-05
3.8495e-05
3.85117e-05
3.85321e-05
3.85572e-05
3.85879e-05
3.86253e-05
3.86712e-05
3.87276e-05
3.87972e-05
3.88836e-05
3.89918e-05
3.9128e-05
3.93015e-05
3.95232e-05
3.98159e-05
4.0189e-05
4.07353e-05
4.13548e-05
4.26244e-05
4.37774e-05
3.55849e-05
3.91113e-05
4.82246e-05
6.98425e-05
8.16502e-05
8.10073e-05
6.20232e-05
4.68262e-05
3.75857e-05
3.29381e-05
3.0724e-05
2.99801e-05
3.03415e-05
3.15561e-05
3.32603e-05
3.4969e-05
3.6288e-05
3.71226e-05
3.76117e-05
3.79192e-05
3.81319e-05
3.82793e-05
3.83745e-05
3.84297e-05
3.84575e-05
3.84685e-05
3.84701e-05
3.84671e-05
3.84623e-05
3.84574e-05
3.84531e-05
3.84499e-05
3.84481e-05
3.84476e-05
3.84487e-05
3.84514e-05
3.84558e-05
3.84622e-05
3.84706e-05
3.84814e-05
3.8495e-05
3.85118e-05
3.85325e-05
3.85578e-05
3.85887e-05
3.86265e-05
3.86729e-05
3.873e-05
3.88005e-05
3.88881e-05
3.89978e-05
3.91361e-05
3.93125e-05
3.95382e-05
3.98365e-05
4.02174e-05
4.07747e-05
4.14086e-05
4.26925e-05
4.38493e-05
3.55107e-05
3.77638e-05
4.68208e-05
7.01253e-05
8.32549e-05
8.31029e-05
6.38162e-05
4.75652e-05
3.75527e-05
3.24301e-05
3.00257e-05
2.92055e-05
2.9524e-05
3.07339e-05
3.2507e-05
3.43669e-05
3.58739e-05
3.68716e-05
3.74711e-05
3.78431e-05
3.80915e-05
3.82586e-05
3.83644e-05
3.84252e-05
3.84557e-05
3.84678e-05
3.84698e-05
3.84669e-05
3.84621e-05
3.84571e-05
3.84527e-05
3.84495e-05
3.84476e-05
3.84471e-05
3.84481e-05
3.84508e-05
3.84552e-05
3.84616e-05
3.847e-05
3.84809e-05
3.84945e-05
3.85114e-05
3.85322e-05
3.85576e-05
3.85886e-05
3.86266e-05
3.86732e-05
3.87306e-05
3.88015e-05
3.88898e-05
3.90003e-05
3.91397e-05
3.93177e-05
3.95455e-05
3.98468e-05
4.0232e-05
4.07949e-05
4.14366e-05
4.27232e-05
4.38747e-05
3.54391e-05
3.66008e-05
4.52107e-05
6.94261e-05
8.42288e-05
8.40761e-05
6.48481e-05
4.78994e-05
3.73746e-05
3.19045e-05
2.93458e-05
2.84662e-05
2.87517e-05
2.99538e-05
3.17788e-05
3.37695e-05
3.5453e-05
3.6612e-05
3.73243e-05
3.77633e-05
3.80491e-05
3.82367e-05
3.83536e-05
3.84202e-05
3.84535e-05
3.84669e-05
3.84693e-05
3.84665e-05
3.84617e-05
3.84566e-05
3.84522e-05
3.84489e-05
3.84469e-05
3.84464e-05
3.84475e-05
3.84501e-05
3.84546e-05
3.84609e-05
3.84694e-05
3.84803e-05
3.84939e-05
3.85108e-05
3.85316e-05
3.85571e-05
3.85882e-05
3.86263e-05
3.86731e-05
3.87306e-05
3.88018e-05
3.88904e-05
3.90014e-05
3.91414e-05
3.93203e-05
3.95494e-05
3.98524e-05
4.024e-05
4.0806e-05
4.14517e-05
4.27349e-05
4.38762e-05
3.53718e-05
3.56053e-05
4.34971e-05
6.78367e-05
8.4334e-05
8.40132e-05
6.49956e-05
4.77374e-05
3.69916e-05
3.13336e-05
2.8676e-05
2.77572e-05
2.802e-05
2.92138e-05
3.1077e-05
3.31796e-05
3.50268e-05
3.63443e-05
3.71713e-05
3.76799e-05
3.80046e-05
3.82137e-05
3.83422e-05
3.84148e-05
3.84511e-05
3.84658e-05
3.84687e-05
3.8466e-05
3.84612e-05
3.84561e-05
3.84516e-05
3.84482e-05
3.84463e-05
3.84457e-05
3.84468e-05
3.84494e-05
3.84539e-05
3.84602e-05
3.84687e-05
3.84796e-05
3.84933e-05
3.85102e-05
3.8531e-05
3.85565e-05
3.85877e-05
3.86259e-05
3.86728e-05
3.87305e-05
3.88019e-05
3.88907e-05
3.9002e-05
3.91425e-05
3.9322e-05
3.95518e-05
3.9856e-05
4.02451e-05
4.08127e-05
4.14605e-05
4.27371e-05
4.3866e-05
3.53099e-05
3.47592e-05
4.17614e-05
6.54999e-05
8.33937e-05
8.29177e-05
6.42344e-05
4.70503e-05
3.63731e-05
3.06974e-05
2.80091e-05
2.70749e-05
2.73251e-05
2.85116e-05
3.04025e-05
3.25994e-05
3.45971e-05
3.6069e-05
3.70122e-05
3.75928e-05
3.79582e-05
3.81897e-05
3.83303e-05
3.84093e-05
3.84486e-05
3.84647e-05
3.84681e-05
3.84655e-05
3.84607e-05
3.84555e-05
3.8451e-05
3.84476e-05
3.84456e-05
3.84451e-05
3.84461e-05
3.84487e-05
3.84532e-05
3.84595e-05
3.8468e-05
3.84789e-05
3.84926e-05
3.85096e-05
3.85304e-05
3.8556e-05
3.85872e-05
3.86255e-05
3.86725e-05
3.87303e-05
3.88018e-05
3.88908e-05
3.90024e-05
3.91432e-05
3.93232e-05
3.95537e-05
3.98586e-05
4.02489e-05
4.08173e-05
4.1466e-05
4.27348e-05
4.38502e-05
3.52536e-05
3.40442e-05
4.00656e-05
6.25864e-05
8.13372e-05
8.07652e-05
6.25942e-05
4.5858e-05
3.55191e-05
2.9988e-05
2.73409e-05
2.64167e-05
2.66641e-05
2.78451e-05
2.97554e-05
3.20308e-05
3.41656e-05
3.57869e-05
3.68471e-05
3.75019e-05
3.79098e-05
3.81646e-05
3.8318e-05
3.84035e-05
3.84461e-05
3.84635e-05
3.84675e-05
3.84651e-05
3.84602e-05
3.8455e-05
3.84504e-05
3.8447e-05
3.8445e-05
3.84444e-05
3.84454e-05
3.8448e-05
3.84525e-05
3.84588e-05
3.84673e-05
3.84782e-05
3.8492e-05
3.85089e-05
3.85298e-05
3.85554e-05
3.85868e-05
3.86251e-05
3.86721e-05
3.873e-05
3.88017e-05
3.88909e-05
3.90027e-05
3.91439e-05
3.93242e-05
3.95553e-05
3.98609e-05
4.0252e-05
4.08209e-05
4.147e-05
4.27304e-05
4.38322e-05
3.5203e-05
3.34431e-05
3.84545e-05
5.92762e-05
7.82083e-05
7.75679e-05
6.01505e-05
4.42203e-05
3.44564e-05
2.921e-05
2.66709e-05
2.57817e-05
2.6035e-05
2.72122e-05
2.91357e-05
3.14756e-05
3.3734e-05
3.54987e-05
3.66762e-05
3.74073e-05
3.78592e-05
3.81385e-05
3.83051e-05
3.83975e-05
3.84434e-05
3.84623e-05
3.84669e-05
3.84646e-05
3.84598e-05
3.84545e-05
3.84499e-05
3.84464e-05
3.84443e-05
3.84437e-05
3.84447e-05
3.84474e-05
3.84518e-05
3.84582e-05
3.84667e-05
3.84776e-05
3.84913e-05
3.85083e-05
3.85293e-05
3.85549e-05
3.85863e-05
3.86247e-05
3.86718e-05
3.87298e-05
3.88016e-05
3.8891e-05
3.90031e-05
3.91445e-05
3.93252e-05
3.95568e-05
3.9863e-05
4.02548e-05
4.08241e-05
4.14732e-05
4.27251e-05
4.38135e-05
3.51578e-05
3.29401e-05
3.69583e-05
5.57437e-05
7.41526e-05
7.34165e-05
5.70287e-05
4.22294e-05
3.32322e-05
2.8379e-05
2.60027e-05
2.51702e-05
2.54367e-05
2.66115e-05
2.8543e-05
3.0935e-05
3.33038e-05
3.52053e-05
3.64996e-05
3.73088e-05
3.78065e-05
3.81114e-05
3.82917e-05
3.83913e-05
3.84407e-05
3.84611e-05
3.84662e-05
3.84642e-05
3.84593e-05
3.8454e-05
3.84493e-05
3.84458e-05
3.84437e-05
3.84431e-05
3.84441e-05
3.84467e-05
3.84511e-05
3.84575e-05
3.8466e-05
3.8477e-05
3.84907e-05
3.85078e-05
3.85287e-05
3.85544e-05
3.85858e-05
3.86243e-05
3.86715e-05
3.87296e-05
3.88015e-05
3.88911e-05
3.90033e-05
3.91451e-05
3.93262e-05
3.95582e-05
3.98649e-05
4.02575e-05
4.08269e-05
4.14759e-05
4.27195e-05
4.3795e-05
3.51177e-05
3.2521e-05
3.55953e-05
5.2147e-05
6.93915e-05
6.84946e-05
5.34039e-05
3.99996e-05
3.19055e-05
2.75181e-05
2.53433e-05
2.45839e-05
2.48689e-05
2.60418e-05
2.79768e-05
3.04101e-05
3.28766e-05
3.49076e-05
3.63177e-05
3.72065e-05
3.77517e-05
3.80831e-05
3.82778e-05
3.83848e-05
3.84378e-05
3.84599e-05
3.84656e-05
3.84637e-05
3.84589e-05
3.84535e-05
3.84488e-05
3.84452e-05
3.84431e-05
3.84425e-05
3.84434e-05
3.84461e-05
3.84505e-05
3.84569e-05
3.84654e-05
3.84764e-05
3.84901e-05
3.85072e-05
3.85282e-05
3.85539e-05
3.85853e-05
3.86239e-05
3.86711e-05
3.87294e-05
3.88014e-05
3.88911e-05
3.90036e-05
3.91456e-05
3.93271e-05
3.95595e-05
3.98668e-05
4.026e-05
4.08295e-05
4.14782e-05
4.27138e-05
4.3777e-05
3.50823e-05
3.21732e-05
3.43739e-05
4.86207e-05
6.41905e-05
6.30647e-05
4.94879e-05
3.7655e-05
3.05388e-05
2.66532e-05
2.47015e-05
2.40254e-05
2.43318e-05
2.55023e-05
2.74366e-05
2.99017e-05
3.24538e-05
3.46065e-05
3.61308e-05
3.71005e-05
3.76946e-05
3.80536e-05
3.82633e-05
3.83781e-05
3.84349e-05
3.84586e-05
3.8465e-05
3.84633e-05
3.84584e-05
3.8453e-05
3.84483e-05
3.84447e-05
3.84425e-05
3.84419e-05
3.84428e-05
3.84454e-05
3.84499e-05
3.84563e-05
3.84648e-05
3.84758e-05
3.84895e-05
3.85066e-05
3.85276e-05
3.85534e-05
3.85849e-05
3.86235e-05
3.86708e-05
3.87291e-05
3.88013e-05
3.88912e-05
3.90039e-05
3.91461e-05
3.93279e-05
3.95608e-05
3.98686e-05
4.02624e-05
4.0832e-05
4.14804e-05
4.27082e-05
4.37596e-05
3.50511e-05
3.18858e-05
3.32952e-05
4.52716e-05
5.88261e-05
5.74348e-05
4.55057e-05
3.53157e-05
2.91901e-05
2.58096e-05
2.40867e-05
2.34978e-05
2.38261e-05
2.49924e-05
2.69221e-05
2.94103e-05
3.20366e-05
3.43031e-05
3.59393e-05
3.69909e-05
3.76354e-05
3.8023e-05
3.82483e-05
3.83711e-05
3.84318e-05
3.84573e-05
3.84644e-05
3.84628e-05
3.8458e-05
3.84526e-05
3.84478e-05
3.84441e-05
3.84419e-05
3.84413e-05
3.84422e-05
3.84448e-05
3.84493e-05
3.84556e-05
3.84642e-05
3.84752e-05
3.8489e-05
3.85061e-05
3.85271e-05
3.85529e-05
3.85844e-05
3.86231e-05
3.86705e-05
3.87289e-05
3.88012e-05
3.88913e-05
3.90041e-05
3.91467e-05
3.93288e-05
3.95621e-05
3.98703e-05
4.02646e-05
4.08343e-05
4.14823e-05
4.27028e-05
4.3743e-05
3.50238e-05
3.16494e-05
3.23547e-05
4.21774e-05
5.3556e-05
5.19112e-05
4.16649e-05
3.30854e-05
2.79082e-05
2.50093e-05
2.35076e-05
2.30041e-05
2.33524e-05
2.45118e-05
2.64327e-05
2.89363e-05
3.16263e-05
3.39982e-05
3.57436e-05
3.68777e-05
3.75739e-05
3.79912e-05
3.82327e-05
3.83639e-05
3.84287e-05
3.8456e-05
3.84637e-05
3.84624e-05
3.84576e-05
3.84521e-05
3.84473e-05
3.84436e-05
3.84414e-05
3.84407e-05
3.84416e-05
3.84442e-05
3.84487e-05
3.84551e-05
3.84636e-05
3.84746e-05
3.84884e-05
3.85055e-05
3.85266e-05
3.85524e-05
3.8584e-05
3.86227e-05
3.86702e-05
3.87287e-05
3.88011e-05
3.88913e-05
3.90044e-05
3.91471e-05
3.93296e-05
3.95633e-05
3.9872e-05
4.02668e-05
4.08365e-05
4.14841e-05
4.26975e-05
4.37271e-05
3.5e-05
3.14557e-05
3.15442e-05
3.9388e-05
4.85943e-05
4.67532e-05
3.81294e-05
3.10413e-05
2.67291e-05
2.42689e-05
2.29713e-05
2.2547e-05
2.29115e-05
2.40604e-05
2.59682e-05
2.84802e-05
3.12238e-05
3.36929e-05
3.55442e-05
3.67612e-05
3.75104e-05
3.79582e-05
3.82165e-05
3.83564e-05
3.84255e-05
3.84546e-05
3.84631e-05
3.8462e-05
3.84572e-05
3.84517e-05
3.84468e-05
3.84431e-05
3.84408e-05
3.84401e-05
3.8441e-05
3.84437e-05
3.84481e-05
3.84545e-05
3.8463e-05
3.8474e-05
3.84879e-05
3.8505e-05
3.85261e-05
3.8552e-05
3.85836e-05
3.86224e-05
3.86699e-05
3.87285e-05
3.88011e-05
3.88914e-05
3.90046e-05
3.91476e-05
3.93303e-05
3.95644e-05
3.98736e-05
4.02689e-05
4.08386e-05
4.14857e-05
4.26923e-05
4.3712e-05
3.49791e-05
3.12978e-05
3.08533e-05
3.69277e-05
4.40965e-05
4.21422e-05
3.50038e-05
2.92308e-05
2.56746e-05
2.35993e-05
2.24826e-05
2.21279e-05
2.25036e-05
2.36378e-05
2.5528e-05
2.80419e-05
3.083e-05
3.33881e-05
3.53417e-05
3.66415e-05
3.74447e-05
3.79241e-05
3.81997e-05
3.83487e-05
3.84221e-05
3.84532e-05
3.84625e-05
3.84616e-05
3.84569e-05
3.84513e-05
3.84463e-05
3.84426e-05
3.84403e-05
3.84396e-05
3.84405e-05
3.84431e-05
3.84475e-05
3.84539e-05
3.84625e-05
3.84735e-05
3.84874e-05
3.85045e-05
3.85257e-05
3.85515e-05
3.85832e-05
3.8622e-05
3.86696e-05
3.87283e-05
3.8801e-05
3.88914e-05
3.90048e-05
3.91481e-05
3.93311e-05
3.95655e-05
3.98751e-05
4.02709e-05
4.08405e-05
4.14872e-05
4.26873e-05
4.36977e-05
3.49609e-05
3.11697e-05
3.02702e-05
3.48004e-05
4.01543e-05
3.81715e-05
3.23333e-05
2.76727e-05
2.47543e-05
2.30057e-05
2.20441e-05
2.17479e-05
2.21288e-05
2.32437e-05
2.51119e-05
2.76217e-05
3.04457e-05
3.30846e-05
3.51366e-05
3.65188e-05
3.73769e-05
3.78887e-05
3.81823e-05
3.83407e-05
3.84187e-05
3.84518e-05
3.84619e-05
3.84612e-05
3.84565e-05
3.84509e-05
3.84459e-05
3.84421e-05
3.84398e-05
3.8439e-05
3.84399e-05
3.84426e-05
3.8447e-05
3.84534e-05
3.8462e-05
3.8473e-05
3.84869e-05
3.85041e-05
3.85252e-05
3.85511e-05
3.85828e-05
3.86217e-05
3.86694e-05
3.87281e-05
3.88009e-05
3.88915e-05
3.90051e-05
3.91485e-05
3.93318e-05
3.95666e-05
3.98766e-05
4.02728e-05
4.08424e-05
4.14885e-05
4.26825e-05
4.36841e-05
3.4945e-05
3.10663e-05
2.97828e-05
3.29935e-05
3.68001e-05
3.48573e-05
3.01142e-05
2.63633e-05
2.39671e-05
2.24886e-05
2.16558e-05
2.14064e-05
2.17866e-05
2.28777e-05
2.47192e-05
2.72194e-05
3.00715e-05
3.27834e-05
3.49294e-05
3.63934e-05
3.73072e-05
3.78523e-05
3.81643e-05
3.83324e-05
3.84151e-05
3.84504e-05
3.84612e-05
3.84608e-05
3.84561e-05
3.84505e-05
3.84454e-05
3.84416e-05
3.84393e-05
3.84385e-05
3.84394e-05
3.8442e-05
3.84465e-05
3.84529e-05
3.84615e-05
3.84725e-05
3.84864e-05
3.85036e-05
3.85248e-05
3.85507e-05
3.85825e-05
3.86214e-05
3.86691e-05
3.87279e-05
3.88008e-05
3.88915e-05
3.90053e-05
3.91489e-05
3.93325e-05
3.95676e-05
3.98779e-05
4.02746e-05
4.08441e-05
4.14897e-05
4.26779e-05
4.36712e-05
3.49312e-05
3.09834e-05
2.9379e-05
3.14835e-05
3.40188e-05
3.21604e-05
2.83098e-05
2.52833e-05
2.33051e-05
2.2045e-05
2.13165e-05
2.11025e-05
2.14761e-05
2.25389e-05
2.43496e-05
2.68348e-05
2.97078e-05
3.24852e-05
3.47207e-05
3.62654e-05
3.72356e-05
3.78147e-05
3.81458e-05
3.83239e-05
3.84115e-05
3.84489e-05
3.84606e-05
3.84605e-05
3.84558e-05
3.84501e-05
3.8445e-05
3.84411e-05
3.84388e-05
3.8438e-05
3.84389e-05
3.84415e-05
3.8446e-05
3.84524e-05
3.8461e-05
3.8472e-05
3.84859e-05
3.85031e-05
3.85243e-05
3.85503e-05
3.85821e-05
3.8621e-05
3.86689e-05
3.87278e-05
3.88007e-05
3.88915e-05
3.90055e-05
3.91493e-05
3.93331e-05
3.95686e-05
3.98793e-05
4.02763e-05
4.08457e-05
4.14908e-05
4.26735e-05
4.3659e-05
3.49191e-05
3.09174e-05
2.90476e-05
3.02401e-05
3.17624e-05
3.00093e-05
2.68582e-05
2.44045e-05
2.27563e-05
2.16695e-05
2.10232e-05
2.08344e-05
2.11959e-05
2.22267e-05
2.40025e-05
2.64679e-05
2.93552e-05
3.21906e-05
3.4511e-05
3.61353e-05
3.71622e-05
3.77761e-05
3.81267e-05
3.83151e-05
3.84077e-05
3.84473e-05
3.846e-05
3.84601e-05
3.84555e-05
3.84498e-05
3.84446e-05
3.84407e-05
3.84383e-05
3.84375e-05
3.84384e-05
3.8441e-05
3.84455e-05
3.84519e-05
3.84605e-05
3.84716e-05
3.84855e-05
3.85027e-05
3.85239e-05
3.85499e-05
3.85818e-05
3.86207e-05
3.86686e-05
3.87276e-05
3.88006e-05
3.88916e-05
3.90056e-05
3.91497e-05
3.93337e-05
3.95695e-05
3.98805e-05
4.02779e-05
4.08473e-05
4.14918e-05
4.26693e-05
4.36474e-05
3.49086e-05
3.08653e-05
2.87781e-05
2.92301e-05
2.9965e-05
2.83203e-05
2.57144e-05
2.37e-05
2.23075e-05
2.13555e-05
2.07724e-05
2.05995e-05
2.09445e-05
2.19398e-05
2.36772e-05
2.61184e-05
2.90138e-05
3.19004e-05
3.43008e-05
3.60031e-05
3.70872e-05
3.77364e-05
3.81071e-05
3.8306e-05
3.84038e-05
3.84458e-05
3.84593e-05
3.84598e-05
3.84552e-05
3.84494e-05
3.84442e-05
3.84403e-05
3.84378e-05
3.84371e-05
3.84379e-05
3.84406e-05
3.8445e-05
3.84514e-05
3.846e-05
3.84711e-05
3.8485e-05
3.85023e-05
3.85235e-05
3.85496e-05
3.85814e-05
3.86205e-05
3.86684e-05
3.87274e-05
3.88006e-05
3.88916e-05
3.90058e-05
3.915e-05
3.93343e-05
3.95704e-05
3.98817e-05
4.02794e-05
4.08487e-05
4.14928e-05
4.26652e-05
4.36366e-05
3.48994e-05
3.08245e-05
2.85612e-05
2.84198e-05
2.85546e-05
2.70101e-05
2.48389e-05
2.31485e-05
2.19464e-05
2.10962e-05
2.05598e-05
2.03955e-05
2.07202e-05
2.16772e-05
2.33729e-05
2.57859e-05
2.86838e-05
3.16151e-05
3.40908e-05
3.58694e-05
3.70105e-05
3.76957e-05
3.80869e-05
3.82967e-05
3.83998e-05
3.84442e-05
3.84587e-05
3.84594e-05
3.84549e-05
3.84491e-05
3.84438e-05
3.84399e-05
3.84374e-05
3.84366e-05
3.84375e-05
3.84401e-05
3.84446e-05
3.8451e-05
3.84596e-05
3.84707e-05
3.84846e-05
3.85019e-05
3.85232e-05
3.85492e-05
3.85811e-05
3.86202e-05
3.86682e-05
3.87273e-05
3.88005e-05
3.88916e-05
3.9006e-05
3.91504e-05
3.93348e-05
3.95712e-05
3.98828e-05
4.02809e-05
4.085e-05
4.14936e-05
4.26614e-05
4.36264e-05
3.48914e-05
3.07929e-05
2.83883e-05
2.77777e-05
2.74616e-05
2.60035e-05
2.41636e-05
2.27164e-05
2.16572e-05
2.08836e-05
2.03813e-05
2.02193e-05
2.05209e-05
2.14375e-05
2.30889e-05
2.547e-05
2.83655e-05
3.13352e-05
3.38813e-05
3.57342e-05
3.69325e-05
3.76541e-05
3.80662e-05
3.82871e-05
3.83958e-05
3.84426e-05
3.8458e-05
3.84591e-05
3.84546e-05
3.84488e-05
3.84435e-05
3.84395e-05
3.8437e-05
3.84362e-05
3.8437e-05
3.84397e-05
3.84441e-05
3.84506e-05
3.84592e-05
3.84703e-05
3.84842e-05
3.85015e-05
3.85228e-05
3.85489e-05
3.85808e-05
3.86199e-05
3.86679e-05
3.87271e-05
3.88004e-05
3.88917e-05
3.90061e-05
3.91507e-05
3.93354e-05
3.9572e-05
3.98839e-05
4.02822e-05
4.08512e-05
4.14943e-05
4.26577e-05
4.36169e-05
3.48844e-05
3.07688e-05
2.82521e-05
2.72747e-05
2.66235e-05
2.52363e-05
2.36444e-05
2.23792e-05
2.14272e-05
2.07107e-05
2.02325e-05
2.00682e-05
2.03446e-05
2.12194e-05
2.28244e-05
2.51703e-05
2.80587e-05
3.10612e-05
3.36729e-05
3.5598e-05
3.68532e-05
3.76116e-05
3.8045e-05
3.82773e-05
3.83916e-05
3.8441e-05
3.84574e-05
3.84588e-05
3.84544e-05
3.84485e-05
3.84432e-05
3.84391e-05
3.84366e-05
3.84358e-05
3.84366e-05
3.84392e-05
3.84437e-05
3.84501e-05
3.84588e-05
3.84699e-05
3.84839e-05
3.85012e-05
3.85225e-05
3.85486e-05
3.85805e-05
3.86197e-05
3.86677e-05
3.8727e-05
3.88003e-05
3.88917e-05
3.90063e-05
3.9151e-05
3.93359e-05
3.95727e-05
3.98849e-05
4.02835e-05
4.08524e-05
4.1495e-05
4.26543e-05
4.3608e-05
3.48783e-05
3.07507e-05
2.81462e-05
2.68853e-05
2.59869e-05
2.46557e-05
2.32478e-05
2.2118e-05
2.12457e-05
2.05714e-05
2.01096e-05
1.99396e-05
2.01894e-05
2.10215e-05
2.25784e-05
2.48864e-05
2.77634e-05
3.07933e-05
3.3466e-05
3.5461e-05
3.67727e-05
3.75683e-05
3.80234e-05
3.82673e-05
3.83874e-05
3.84393e-05
3.84568e-05
3.84585e-05
3.84541e-05
3.84482e-05
3.84428e-05
3.84387e-05
3.84362e-05
3.84354e-05
3.84362e-05
3.84389e-05
3.84433e-05
3.84498e-05
3.84584e-05
3.84695e-05
3.84835e-05
3.85008e-05
3.85222e-05
3.85483e-05
3.85803e-05
3.86194e-05
3.86676e-05
3.87268e-05
3.88003e-05
3.88917e-05
3.90064e-05
3.91513e-05
3.93363e-05
3.95734e-05
3.98858e-05
4.02847e-05
4.08534e-05
4.14956e-05
4.2651e-05
4.35998e-05
3.4873e-05
3.07375e-05
2.80651e-05
2.65876e-05
2.55079e-05
2.42196e-05
2.2947e-05
2.19175e-05
2.11041e-05
2.04605e-05
2.00091e-05
1.98307e-05
2.00533e-05
2.08423e-05
2.23499e-05
2.46177e-05
2.74797e-05
3.05319e-05
3.32611e-05
3.53236e-05
3.66913e-05
3.75243e-05
3.80013e-05
3.82571e-05
3.8383e-05
3.84376e-05
3.84562e-05
3.84582e-05
3.84539e-05
3.8448e-05
3.84425e-05
3.84384e-05
3.84359e-05
3.8435e-05
3.84359e-05
3.84385e-05
3.84429e-05
3.84494e-05
3.8458e-05
3.84692e-05
3.84832e-05
3.85005e-05
3.85219e-05
3.8548e-05
3.858e-05
3.86192e-05
3.86674e-05
3.87267e-05
3.88002e-05
3.88917e-05
3.90065e-05
3.91515e-05
3.93368e-05
3.9574e-05
3.98867e-05
4.02858e-05
4.08544e-05
4.14962e-05
4.26479e-05
4.35922e-05
3.48684e-05
3.07281e-05
2.80042e-05
2.6363e-05
2.51509e-05
2.38947e-05
2.27211e-05
2.17653e-05
2.09948e-05
2.03731e-05
1.99276e-05
1.97393e-05
1.99344e-05
2.06804e-05
2.21382e-05
2.43637e-05
2.72072e-05
3.02772e-05
3.30584e-05
3.51859e-05
3.6609e-05
3.74795e-05
3.79788e-05
3.82467e-05
3.83786e-05
3.84359e-05
3.84556e-05
3.8458e-05
3.84537e-05
3.84478e-05
3.84423e-05
3.84381e-05
3.84355e-05
3.84347e-05
3.84355e-05
3.84381e-05
3.84426e-05
3.8449e-05
3.84577e-05
3.84689e-05
3.84829e-05
3.85002e-05
3.85216e-05
3.85477e-05
3.85798e-05
3.8619e-05
3.86672e-05
3.87266e-05
3.88001e-05
3.88917e-05
3.90067e-05
3.91518e-05
3.93372e-05
3.95746e-05
3.98875e-05
4.02868e-05
4.08553e-05
4.14966e-05
4.26451e-05
4.35853e-05
3.48643e-05
3.07218e-05
2.79595e-05
2.61961e-05
2.48879e-05
2.36552e-05
2.25535e-05
2.16514e-05
2.09118e-05
2.03053e-05
1.98625e-05
1.9663e-05
1.98309e-05
2.05344e-05
2.19421e-05
2.41238e-05
2.6946e-05
3.00295e-05
3.28584e-05
3.50484e-05
3.6526e-05
3.74342e-05
3.7956e-05
3.82361e-05
3.83741e-05
3.84342e-05
3.84549e-05
3.84577e-05
3.84535e-05
3.84475e-05
3.8442e-05
3.84378e-05
3.84352e-05
3.84343e-05
3.84352e-05
3.84378e-05
3.84423e-05
3.84487e-05
3.84574e-05
3.84685e-05
3.84826e-05
3.84999e-05
3.85213e-05
3.85475e-05
3.85796e-05
3.86188e-05
3.86671e-05
3.87265e-05
3.88001e-05
3.88918e-05
3.90068e-05
3.9152e-05
3.93375e-05
3.95752e-05
3.98882e-05
4.02877e-05
4.08561e-05
4.14971e-05
4.26424e-05
4.35789e-05
3.48608e-05
3.07179e-05
2.79277e-05
2.60745e-05
2.46968e-05
2.34811e-05
2.24311e-05
2.15677e-05
2.08499e-05
2.02536e-05
1.98112e-05
1.96e-05
1.97412e-05
2.04031e-05
2.17607e-05
2.38975e-05
2.66957e-05
2.97888e-05
3.26614e-05
3.49112e-05
3.64426e-05
3.73883e-05
3.79329e-05
3.82254e-05
3.83696e-05
3.84325e-05
3.84543e-05
3.84575e-05
3.84534e-05
3.84473e-05
3.84418e-05
3.84375e-05
3.84349e-05
3.8434e-05
3.84348e-05
3.84375e-05
3.84419e-05
3.84484e-05
3.84571e-05
3.84683e-05
3.84823e-05
3.84997e-05
3.85211e-05
3.85473e-05
3.85794e-05
3.86187e-05
3.86669e-05
3.87264e-05
3.88e-05
3.88918e-05
3.90069e-05
3.91522e-05
3.93379e-05
3.95757e-05
3.98889e-05
4.02886e-05
4.08569e-05
4.14975e-05
4.26399e-05
4.35732e-05
3.48577e-05
3.07159e-05
2.79061e-05
2.59878e-05
2.45604e-05
2.33569e-05
2.23437e-05
2.15078e-05
2.08049e-05
2.02153e-05
1.97716e-05
1.95485e-05
1.96638e-05
2.02851e-05
2.15931e-05
2.36841e-05
2.64561e-05
2.95553e-05
3.24677e-05
3.47747e-05
3.63588e-05
3.7342e-05
3.79094e-05
3.82145e-05
3.8365e-05
3.84308e-05
3.84538e-05
3.84573e-05
3.84532e-05
3.84472e-05
3.84416e-05
3.84373e-05
3.84346e-05
3.84337e-05
3.84346e-05
3.84372e-05
3.84417e-05
3.84481e-05
3.84568e-05
3.8468e-05
3.8482e-05
3.84994e-05
3.85208e-05
3.85471e-05
3.85792e-05
3.86185e-05
3.86668e-05
3.87263e-05
3.88e-05
3.88918e-05