/*--------------------------------*- C++ -*----------------------------------*\
| =========                 |                                                 |
| \\      /  F ield         | OpenFOAM: The Open Source CFD Toolbox           |
|  \\    /   O peration     | Version:  2.4.0                                 |
|   \\  /    A nd           | Web:      www.OpenFOAM.org                      |
|    \\/     M anipulation  |                                                 |
\*---------------------------------------------------------------------------*/
FoamFile
{
    version     2.0;
    format      ascii;
    class       volScalarField;
    location    "4.3";
    object      k;
}
// * * * * * * * * * * * * * * * * * * * * * * * * * * * * * * * * * * * * * //

dimensions      [0 2 -2 0 0 0 0];

internalField   nonuniform List<scalar> 
6000
(
0.172628
0.00884819
0.000604333
0.00349573
0.0025663
0.00302511
0.00245503
0.00249726
0.0021943
0.00217876
0.00204647
0.00206547
0.00206463
0.00216148
0.0022625
0.00242616
0.00259871
0.00281669
0.00304899
0.00331608
0.00360036
0.0039128
0.00424356
0.00459637
0.00496525
0.00534874
0.00573916
0.00612891
0.00650053
0.00685022
0.00716956
0.00743686
0.00763273
0.00772924
0.00772228
0.00758392
0.00731705
0.00689214
0.00634007
0.00563788
0.00488694
0.0040658
0.00422303
0.00554436
0.0069788
0.00898154
0.0108269
0.0136648
0.0158146
0.0195985
0.0219563
0.0267292
0.0293412
0.0356969
0.0380154
0.0481696
0.0488173
0.0679676
0.0617211
0.115348
0.0795126
0.00799374
0.000589028
0.00231417
0.00174706
0.00198017
0.00163105
0.00163316
0.00144677
0.00142499
0.00134337
0.0013505
0.00135122
0.00140985
0.00147397
0.00157447
0.00168226
0.00181596
0.00195921
0.00212207
0.0022955
0.00248481
0.00268508
0.00289814
0.00312128
0.0033539
0.00359289
0.00383512
0.00407319
0.00430619
0.00453169
0.00474146
0.00492854
0.00508329
0.00520618
0.00528897
0.00533435
0.00533614
0.0053084
0.00524914
0.00519632
0.00513574
0.00535365
0.0059064
0.00648975
0.00726847
0.00799614
0.00912274
0.00999613
0.0115461
0.0125566
0.0145384
0.015744
0.0184247
0.0196841
0.02397
0.024835
0.0328644
0.031456
0.0530071
0.0418139
0.00683697
0.000600556
0.00160703
0.00123879
0.00134829
0.00112436
0.00110896
0.000991051
0.000970856
0.000921824
0.000928906
0.000937661
0.000984513
0.00103914
0.00111854
0.00120674
0.00131369
0.00143074
0.00156322
0.00170649
0.00186343
0.00203175
0.00221261
0.00240505
0.00260915
0.00282406
0.00304894
0.00328068
0.00351943
0.00376589
0.00401771
0.0042733
0.00453031
0.00479102
0.00505607
0.00532748
0.0056099
0.00590672
0.00622185
0.00655669
0.0068841
0.00717942
0.00744255
0.00767175
0.00789388
0.00809216
0.00841346
0.00865844
0.00917915
0.0094953
0.0102131
0.0106614
0.0117199
0.0123178
0.0141168
0.0147498
0.0182019
0.0182012
0.0271225
0.0258499
0.00595418
0.000647192
0.00117946
0.000918852
0.000956442
0.00080459
0.000781802
0.00070547
0.000689858
0.000663135
0.000675869
0.000696005
0.000744853
0.000804528
0.00088484
0.000977134
0.00108709
0.00121032
0.00134996
0.00150377
0.00167361
0.00185867
0.00205989
0.00227737
0.00251163
0.002763
0.00303182
0.00331655
0.00361753
0.00393709
0.00427503
0.00463112
0.00500471
0.00539777
0.00581329
0.00625057
0.00671521
0.00720179
0.00771167
0.00822889
0.00871832
0.00909268
0.00931876
0.00947395
0.00951448
0.00951251
0.00948669
0.00943563
0.00945759
0.00939553
0.00947615
0.00946138
0.00970613
0.00983231
0.0104497
0.0107315
0.0121194
0.012389
0.016005
0.0185284
0.0053179
0.000730079
0.00092636
0.00071837
0.000710336
0.000599665
0.000573858
0.000523399
0.000513387
0.000503101
0.000524589
0.000558322
0.000617223
0.000690698
0.000784768
0.000895024
0.00102503
0.00117278
0.00134041
0.00152681
0.00173338
0.00196011
0.00220784
0.00247713
0.0027687
0.00308328
0.00342164
0.0037827
0.00416594
0.0045739
0.0050063
0.00546204
0.00593986
0.00644019
0.00696519
0.00751146
0.00808236
0.00866794
0.00926653
0.0098592
0.0104109
0.0108509
0.011124
0.0113171
0.0113507
0.0113225
0.011203
0.0110563
0.0108845
0.0106465
0.010413
0.0101278
0.009941
0.00973654
0.00973941
0.00968141
0.0100551
0.0102032
0.0114937
0.0151679
0.00474424
0.000846603
0.000788271
0.00059745
0.000556579
0.000468389
0.000441054
0.00040703
0.000402567
0.000405569
0.000437701
0.000486799
0.00056099
0.000654043
0.00076992
0.000906615
0.00106651
0.0012489
0.00145535
0.00168558
0.00194046
0.0022201
0.00252506
0.00285581
0.00321287
0.00359704
0.00400887
0.00444674
0.00490938
0.00539912
0.00591485
0.00645416
0.00701426
0.00759423
0.00819484
0.00881122
0.00944453
0.0100836
0.0107249
0.0113519
0.0119322
0.0124211
0.0127489
0.0129986
0.0130729
0.0130777
0.0129638
0.0128173
0.0126031
0.0123149
0.0119623
0.0115615
0.011167
0.0107815
0.0104536
0.0101456
0.0099876
0.00992931
0.0101649
0.0135302
0.00450143
0.001001
0.0007302
0.000532533
0.000464241
0.000386496
0.000357631
0.000334042
0.000334774
0.00034939
0.000393393
0.000459326
0.000552385
0.000668797
0.000811266
0.000979293
0.00117468
0.0013969
0.00164688
0.00192446
0.00223016
0.002564
0.00292627
0.00331731
0.00373744
0.00418712
0.00466653
0.00517344
0.00570592
0.00626594
0.00685135
0.00745856
0.00808346
0.00872416
0.00938029
0.0100463
0.0107217
0.0113953
0.0120623
0.0127096
0.013307
0.0138302
0.0141996
0.0144952
0.0146078
0.0146515
0.0145622
0.014441
0.0142313
0.013948
0.0135609
0.0131423
0.0126671
0.0122174
0.0117366
0.0113012
0.0108706
0.0106466
0.0103706
0.0126968
0.00453791
0.00119732
0.000732332
0.000509442
0.000415024
0.000339379
0.000308166
0.000290949
0.00029648
0.000321646
0.00037836
0.000462247
0.000576409
0.000718628
0.000890659
0.00109223
0.00132466
0.00158738
0.00188089
0.00220481
0.0025594
0.00294453
0.00336034
0.00380704
0.00428473
0.00479353
0.00533324
0.00590106
0.00649456
0.00711524
0.00775999
0.00842424
0.00910285
0.00979314
0.0104938
0.011199
0.0119069
0.0126067
0.0132925
0.0139542
0.0145633
0.0151092
0.0155055
0.0158313
0.0159689
0.0160409
0.0159703
0.0158714
0.0156682
0.0154018
0.0150031
0.0146046
0.0141014
0.0136507
0.0131128
0.0126419
0.0120979
0.0117824
0.0112824
0.0122709
0.00472552
0.00143486
0.000781089
0.000519419
0.000398029
0.000318198
0.000283265
0.000269485
0.000279306
0.000314226
0.000384102
0.000486594
0.000623477
0.000792596
0.000994904
0.00123015
0.0014991
0.00180094
0.0021359
0.00250337
0.0029035
0.0033361
0.00380119
0.00429888
0.00482906
0.00539149
0.0059856
0.00660811
0.00725613
0.00793058
0.00862757
0.0093417
0.0100669
0.0107998
0.0115384
0.0122766
0.0130114
0.0137325
0.0144333
0.0151058
0.0157224
0.0162817
0.0166925
0.0170348
0.0171849
0.0172723
0.0172105
0.0171241
0.0169174
0.0166645
0.0162539
0.0158817
0.0153634
0.0149336
0.0143752
0.0139175
0.0133413
0.0129951
0.0124153
0.0120645
0.00501879
0.00170893
0.000873114
0.000557304
0.000406637
0.000317677
0.000277179
0.000264529
0.000278004
0.000321863
0.000405027
0.000526551
0.000686575
0.000882731
0.001115
0.00138292
0.00168683
0.00202566
0.00239951
0.00280764
0.00325021
0.00372694
0.00423782
0.00478281
0.00536156
0.00597345
0.00661755
0.00729019
0.00798794
0.00871116
0.00945528
0.0102142
0.0109809
0.0117514
0.0125232
0.0132897
0.0140474
0.0147862
0.0154988
0.0161791
0.0167995
0.0173643
0.0177799
0.0181276
0.0182802
0.0183718
0.0183108
0.0182269
0.0180056
0.017761
0.0173322
0.0169814
0.0164468
0.0160402
0.0154687
0.015042
0.0144627
0.0141214
0.0135249
0.0119789
0.00534072
0.00201052
0.00100096
0.000620911
0.00043707
0.0003345
0.000286416
0.000272878
0.000289213
0.000341226
0.000437469
0.00057782
0.000760919
0.000983649
0.00124498
0.00154415
0.00188125
0.002255
0.0026655
0.00311191
0.00359444
0.00411274
0.00466672
0.00525616
0.00588047
0.00653861
0.00722931
0.00794855
0.00869229
0.00946036
0.0102476
0.0110472
0.0118514
0.0126555
0.0134564
0.0142475
0.0150246
0.0157777
0.0164992
0.017184
0.0178045
0.0183682
0.018781
0.0191254
0.0192731
0.0193601
0.0192937
0.019204
0.0189599
0.018718
0.0182655
0.0179287
0.0173741
0.0169863
0.0163998
0.0160063
0.0154289
0.0151084
0.0145153
0.0119601
0.00565883
0.00232871
0.0011599
0.000707651
0.000487654
0.00036749
0.000309265
0.000292816
0.000311122
0.000370176
0.000478871
0.000637565
0.000843287
0.00109185
0.00138116
0.00171019
0.00207891
0.00248586
0.00293121
0.00341405
0.00393462
0.00449249
0.00508745
0.00571907
0.0063865
0.00708827
0.00782278
0.00858569
0.00937228
0.0101819
0.0110088
0.0118456
0.0126838
0.0135178
0.0143444
0.0151565
0.0159497
0.0167138
0.0174411
0.0181271
0.018744
0.019301
0.0197051
0.0200392
0.0201764
0.020252
0.0201759
0.0200734
0.0198012
0.0195571
0.0190772
0.0187478
0.01817
0.0177954
0.017191
0.0168266
0.0162491
0.0159542
0.0153665
0.0119704
0.00595538
0.00265231
0.00134491
0.000815969
0.000556777
0.00041559
0.000344937
0.000323421
0.000342583
0.000407414
0.00052766
0.000703959
0.000931645
0.00120523
0.00152149
0.00187919
0.00227823
0.00271702
0.0031958
0.00371361
0.00427068
0.00486648
0.00550065
0.00617253
0.00688098
0.00762408
0.00839994
0.00920389
0.0100305
0.0108786
0.0117422
0.012613
0.0134818
0.0143424
0.0151914
0.0160211
0.016827
0.0175989
0.0183289
0.0190127
0.0196223
0.0201675
0.0205582
0.0208763
0.0209988
0.021058
0.0209684
0.0208485
0.0205449
0.0202943
0.0197852
0.0194578
0.0188547
0.0184885
0.0178647
0.0175234
0.0169437
0.0166736
0.016088
0.0119966
0.00622231
0.00297099
0.00155035
0.000944226
0.000643595
0.000478445
0.000393218
0.000364368
0.000383183
0.000452333
0.000582959
0.000775936
0.00102482
0.00132267
0.00166498
0.00205035
0.00247866
0.0029482
0.00345928
0.00401084
0.00460309
0.00523539
0.00590717
0.00661757
0.00736509
0.00814741
0.00896233
0.00980487
0.0106689
0.0115527
0.0124499
0.0133516
0.014248
0.015132
0.016
0.0168439
0.0176594
0.0184357
0.019165
0.0198433
0.020442
0.0209711
0.0213443
0.0216419
0.0217462
0.0217854
0.0216788
0.0215385
0.0212017
0.0209415
0.0204023
0.0200729
0.0194438
0.0190821
0.0184388
0.0181153
0.0175311
0.0172839
0.0166969
0.0120303
0.00645731
0.00327606
0.00176995
0.00109033
0.000747342
0.00055597
0.000454343
0.000415809
0.000432967
0.000504811
0.0006444
0.000852973
0.00112223
0.00144365
0.00181124
0.00222346
0.0026802
0.00317958
0.00372196
0.00430618
0.00493241
0.00559987
0.00630777
0.00705499
0.00783974
0.00865922
0.00951098
0.0103897
0.0112885
0.0122053
0.0131333
0.014063
0.0149838
0.0158879
0.0167716
0.0176266
0.0184482
0.0192255
0.0199509
0.0206201
0.0212045
0.0217136
0.022066
0.0223391
0.0224227
0.0224393
0.022312
0.0221502
0.0217792
0.0215069
0.0209377
0.0206033
0.0199484
0.0195887
0.0189263
0.0186168
0.0180267
0.0178003
0.0172092
0.0120637
0.00666125
0.00356088
0.00199707
0.00125154
0.000867021
0.000648144
0.000528657
0.000478239
0.000492323
0.000565104
0.000712004
0.000934948
0.00122369
0.00156805
0.00196027
0.00239863
0.00288303
0.00341142
0.0039842
0.00460008
0.00525914
0.00596044
0.00670298
0.00748538
0.00830551
0.00916012
0.0100465
0.0109591
0.0118901
0.0128371
0.013793
0.0147478
0.0156899
0.0166109
0.0175071
0.0183696
0.0191941
0.019969
0.0206871
0.0213436
0.0219103
0.022396
0.0227246
0.02297
0.0230307
0.0230234
0.0228715
0.0226876
0.0222825
0.0219965
0.021398
0.0210565
0.0203767
0.0200173
0.0193368
0.0190387
0.018442
0.0182345
0.0176382
0.0120939
0.00683684
0.00382096
0.00222505
0.00142433
0.00100117
0.000754734
0.000616457
0.000552381
0.000561868
0.000633739
0.000786074
0.00102201
0.00132926
0.00169596
0.00211219
0.00257604
0.00308743
0.00364407
0.00424637
0.0048929
0.00558363
0.00631748
0.00709316
0.00790905
0.00876271
0.0096504
0.0105692
0.0115133
0.0124738
0.0134483
0.0144293
0.0154061
0.0163664
0.017301
0.0182063
0.019073
0.0198969
0.020666
0.0213734
0.0220139
0.0225596
0.0230186
0.0233209
0.0235356
0.0235719
0.0235399
0.0233595
0.0231535
0.0227153
0.0224143
0.0217878
0.021438
0.0207347
0.0203745
0.0196777
0.0193888
0.0187857
0.0185955
0.017994
0.0121194
0.00698748
0.00405392
0.00244766
0.00160453
0.00114769
0.000875104
0.000717982
0.000638871
0.000642354
0.000711428
0.000867114
0.00111449
0.00143914
0.00182756
0.00226722
0.00275596
0.00329367
0.00387781
0.00450875
0.00518492
0.00590615
0.0066712
0.00747848
0.00832617
0.00921145
0.0101301
0.0110791
0.0120521
0.0130397
0.0140388
0.015042
0.0160378
0.017013
0.0179579
0.018869
0.0197363
0.0205563
0.021316
0.0220093
0.0226302
0.0231519
0.0235812
0.0238548
0.0240363
0.0240474
0.0239897
0.0237773
0.0235495
0.0230798
0.0227631
0.0221105
0.0217518
0.0210267
0.0206654
0.019954
0.0196732
0.0190645
0.0188903
0.0182845
0.0121399
0.00711661
0.00425916
0.00265947
0.00178749
0.00130379
0.00100803
0.000833123
0.000738227
0.000734571
0.000798986
0.00095577
0.00121285
0.00155363
0.00196312
0.00242562
0.00293863
0.00350199
0.00411286
0.00477156
0.00547632
0.00622683
0.00702169
0.00785899
0.00873669
0.00965165
0.0105992
0.011576
0.0125755
0.0135873
0.0146083
0.0156307
0.0166422
0.0176291
0.0185809
0.0194944
0.0203589
0.0211714
0.0219181
0.0225939
0.0231918
0.0236864
0.0240832
0.0243259
0.024472
0.0244578
0.0243724
0.0241261
0.0238767
0.0233778
0.0230448
0.0223682
0.0220006
0.0212558
0.0208936
0.0201699
0.0198963
0.0192834
0.019124
0.0185157
0.0121554
0.00722755
0.00443761
0.00285616
0.00196837
0.00146598
0.00115159
0.000961253
0.000850702
0.000839216
0.000897242
0.00105277
0.00131765
0.00167309
0.0021029
0.00258761
0.00312426
0.00371259
0.00434939
0.00503492
0.00576719
0.00654569
0.00736892
0.0082346
0.00914048
0.0100831
0.0110572
0.0120595
0.0130829
0.0141162
0.015156
0.0161946
0.0172186
0.018214
0.0191692
0.0200815
0.0209396
0.0217412
0.0224712
0.0231261
0.0236975
0.0241622
0.0245238
0.0247336
0.0248425
0.0248031
0.0246869
0.0244068
0.0241355
0.0236101
0.0232606
0.0225627
0.0221866
0.0214243
0.0210617
0.0203283
0.0200614
0.0194462
0.0193008
0.0186924
0.0121662
0.0073233
0.00459127
0.0030347
0.00214249
0.00163023
0.0013031
0.00110106
0.000976106
0.000956591
0.0010071
0.00115887
0.00142951
0.00179787
0.00224715
0.00275339
0.003313
0.00392559
0.00458749
0.00529887
0.0060575
0.00686269
0.00771277
0.0086051
0.00953725
0.0105054
0.0115039
0.0125291
0.0135737
0.0146256
0.0156814
0.0167329
0.0177663
0.0187665
0.0197216
0.0206292
0.0214773
0.0222643
0.0229741
0.0236046
0.0241462
0.024578
0.0249019
0.0250769
0.0251475
0.0250821
0.0249327
0.0246198
0.0243259
0.0237775
0.0234111
0.0226952
0.0223109
0.021534
0.0211719
0.0204314
0.0201712
0.0195559
0.0194239
0.0188181
0.0121728
0.00740609
0.00472281
0.00319337
0.00230567
0.00179217
0.00145913
0.00125046
0.00111365
0.00108656
0.00112924
0.00127478
0.00154902
0.00192833
0.00239608
0.00292309
0.00350493
0.00414103
0.00482716
0.00556336
0.00634717
0.00717763
0.00805299
0.00897018
0.00992663
0.0109182
0.0119386
0.0129842
0.0140473
0.0151149
0.0161835
0.0172447
0.0182839
0.0192856
0.0202369
0.0211362
0.0219705
0.0227393
0.0234253
0.0240279
0.0245363
0.0249325
0.0252162
0.0253547
0.0253865
0.0252928
0.025109
0.0247654
0.0244472
0.0238794
0.0234951
0.0227658
0.0223737
0.0215857
0.021225
0.0204806
0.0202275
0.0196145
0.0194957
0.0188959
0.0121757
0.00747752
0.0048351
0.00333169
0.00245449
0.00194742
0.00161565
0.0014065
0.00126181
0.00122846
0.00126375
0.0014012
0.00167674
0.00206477
0.00254983
0.00309674
0.00370003
0.00435883
0.00506827
0.00582823
0.00663595
0.00749024
0.00838923
0.00932943
0.0103081
0.0113208
0.0123607
0.013424
0.0145028
0.015583
0.0166612
0.0177289
0.0187705
0.0197699
0.0207138
0.021601
0.0224179
0.0231648
0.0238232
0.0243946
0.0248663
0.0252243
0.0254655
0.0255656
0.0255591
0.025433
0.0252137
0.0248417
0.0244992
0.0239159
0.0235148
0.0227765
0.0223774
0.0215817
0.0212237
0.0204781
0.0202324
0.0196246
0.0195186
0.018928
0.0121753
0.00753897
0.004931
0.00345027
0.00258652
0.00209185
0.00176827
0.00156545
0.00141822
0.00138095
0.00141007
0.00153857
0.00181308
0.00220737
0.00270838
0.00327424
0.00389812
0.00457878
0.00531057
0.00609317
0.00692351
0.0078001
0.00872102
0.00968229
0.0106811
0.0117126
0.0127694
0.0138477
0.0149393
0.016029
0.0171135
0.0181843
0.0192246
0.0202181
0.0211507
0.0220222
0.0228177
0.0235391
0.0241662
0.0247029
0.0251348
0.0254518
0.0256482
0.0257087
0.0256629
0.0254993
0.0252478
0.0248512
0.024484
0.0238878
0.0234703
0.0227268
0.0223214
0.0215224
0.021168
0.0204247
0.0201871
0.0195876
0.0194947
0.0189174
0.012173
0.00759166
0.00501315
0.00355058
0.00270045
0.00222196
0.00191245
0.00172294
0.00157964
0.00154188
0.00156682
0.00168687
0.00195818
0.00235612
0.00287155
0.00345527
0.00409884
0.00480048
0.00555361
0.0063577
0.00720932
0.00810664
0.00904773
0.0100281
0.0110447
0.0120927
0.0131637
0.0142543
0.0153556
0.0164516
0.0175391
0.0186094
0.0196448
0.0206285
0.0215461
0.0223979
0.0231683
0.0238604
0.0244526
0.0249511
0.0253399
0.0256134
0.0257617
0.0257807
0.0256967
0.025496
0.0252115
0.0247917
0.0243997
0.0237937
0.023361
0.0226163
0.0222059
0.0214083
0.0210589
0.0203212
0.0200928
0.0195048
0.0194252
0.0188652
0.0121681
0.00763652
0.00508389
0.00363474
0.00279603
0.00233507
0.00204394
0.00187416
0.00174204
0.00170814
0.00173174
0.00184528
0.00211198
0.00251078
0.0030389
0.00363928
0.00430157
0.00502328
0.00579675
0.00662114
0.00749265
0.00840908
0.00936852
0.0103659
0.0113982
0.0124601
0.0135427
0.0146426
0.0157504
0.0168494
0.0179366
0.0190028
0.0200295
0.0209996
0.0218981
0.0227265
0.0234678
0.0241269
0.0246804
0.0251374
0.0254799
0.0257055
0.0258049
0.0257861
0.0256585
0.0254204
0.0251028
0.0246619
0.024246
0.0236331
0.0231869
0.0224451
0.0220313
0.0212397
0.0208968
0.0201686
0.0199503
0.0193775
0.0193117
0.0187732
0.0121615
0.00767432
0.00514521
0.00370523
0.00287404
0.00242956
0.002159
0.00201425
0.00190075
0.00187562
0.00190169
0.00201205
0.00227386
0.00267074
0.00320963
0.00382539
0.00450539
0.00524624
0.00603902
0.00688251
0.00777252
0.00870642
0.00968236
0.0106946
0.0117402
0.0128135
0.0139049
0.0150113
0.0161225
0.0172211
0.0183043
0.0193629
0.0203769
0.0213294
0.0222049
0.0230059
0.0237143
0.0243366
0.0248478
0.0252594
0.0255504
0.0257293
0.0257794
0.0257208
0.025545
0.0252721
0.0249209
0.0244611
0.0240223
0.0234055
0.0229481
0.0222129
0.0217981
0.0210171
0.0206824
0.0199676
0.0197607
0.0192069
0.0191554
0.0186425
0.0121538
0.00770573
0.00519896
0.00376428
0.00293596
0.00250485
0.00225476
0.00213865
0.00205072
0.00203912
0.00207287
0.00218448
0.00244239
0.00283493
0.00338252
0.00401228
0.00470897
0.00546805
0.00627913
0.00714054
0.00804766
0.00899736
0.00998792
0.0110129
0.0120694
0.0131516
0.0142489
0.0153586
0.01647
0.0175647
0.0186405
0.0196876
0.0206851
0.021616
0.0224644
0.0232342
0.0239058
0.0244875
0.0249516
0.025314
0.0255549
0.0256833
0.0256824
0.0255815
0.0253558
0.02505
0.0246651
0.0241884
0.0237283
0.0231106
0.0226446
0.0219199
0.0215065
0.0207407
0.0204162
0.0197189
0.0195248
0.018994
0.0189577
0.0184746
0.0121455
0.0077313
0.00524672
0.00381391
0.00298382
0.00256148
0.00232943
0.00224358
0.00218683
0.00219227
0.00224123
0.00235879
0.00261506
0.00300171
0.00355582
0.00419819
0.00491051
0.00568693
0.00651535
0.00739352
0.00831641
0.00928025
0.0102836
0.0113191
0.0123841
0.0134725
0.0145729
0.0156829
0.0167911
0.0178785
0.0189431
0.0199751
0.0209519
0.0218572
0.0226745
0.0234091
0.02404
0.024576
0.0249905
0.0253034
0.0254891
0.0255646
0.0255134
0.0253651
0.0250908
0.0247529
0.0243348
0.0238433
0.0233637
0.0227481
0.0222763
0.0215662
0.0211569
0.0204109
0.0200987
0.0194234
0.0192436
0.0187399
0.0187198
0.0182705
0.0121369
0.00775158
0.00528954
0.00385629
0.00302001
0.00260092
0.00238239
0.00232647
0.00230378
0.00232947
0.00240202
0.00252993
0.00278798
0.0031687
0.00372718
0.00438073
0.00510766
0.00590058
0.00674545
0.0076393
0.00857666
0.00955303
0.0105672
0.0116113
0.0126823
0.0137743
0.0148747
0.015982
0.0170837
0.0181601
0.01921
0.0202229
0.0211751
0.0220506
0.0228327
0.0235282
0.0241127
0.0246017
0.0249645
0.0252231
0.025351
0.025373
0.0252681
0.0250714
0.0247491
0.0243801
0.0239293
0.0234252
0.0229284
0.022318
0.0218436
0.0211518
0.0207499
0.0200284
0.0197306
0.0190818
0.0189178
0.018446
0.0184428
0.0180312
0.0121286
0.00776713
0.00532796
0.00389354
0.00304718
0.00262541
0.00241424
0.00238639
0.00239505
0.00244721
0.00254893
0.00269242
0.00295649
0.00333269
0.00389356
0.00455693
0.00529746
0.00610609
0.00696661
0.00787515
0.00882578
0.00981314
0.0108364
0.0118868
0.0129615
0.0140545
0.015152
0.0162534
0.0173451
0.018407
0.0194385
0.0204286
0.021352
0.0221936
0.0229361
0.023587
0.024125
0.0245631
0.0248696
0.025071
0.0251387
0.0251081
0.0249431
0.0247002
0.0243299
0.0239307
0.0234484
0.0229339
0.0224222
0.0218202
0.0213466
0.0206771
0.020286
0.0195936
0.0193126
0.0186951
0.0185486
0.0181133
0.0181281
0.0177577
0.0121207
0.00777854
0.00536219
0.00392737
0.00306804
0.00263771
0.00242684
0.00242306
0.00245681
0.00254154
0.00267546
0.00284017
0.00311513
0.00348962
0.00405124
0.00472311
0.00547627
0.00629987
0.00717537
0.00809773
0.00906057
0.0100575
0.0110882
0.0121428
0.0132189
0.0143102
0.0154019
0.0164944
0.0175727
0.0186164
0.0196259
0.0205892
0.0214798
0.0222826
0.0229812
0.0235871
0.0240732
0.0244564
0.0247037
0.0248451
0.0248514
0.024767
0.0245376
0.0242503
0.0238322
0.0234044
0.0228918
0.0223694
0.0218456
0.0212552
0.0207859
0.0201427
0.019766
0.0191074
0.0188454
0.0182641
0.0181369
0.0177428
0.017777
0.0174511
0.0121135
0.00778646
0.00539228
0.00395902
0.00308506
0.00264072
0.00242434
0.00243476
0.00249049
0.00260753
0.00277589
0.00296686
0.00325781
0.00363454
0.00419579
0.00487495
0.00563975
0.00647763
0.00736754
0.00830299
0.00927713
0.0102823
0.0113188
0.0123758
0.0134509
0.0145381
0.015621
0.0167015
0.017763
0.0187851
0.0197689
0.0207017
0.0215543
0.022315
0.0229679
0.0235234
0.0239542
0.0242792
0.0244645
0.0245432
0.0244887
0.0243455
0.0240518
0.0237209
0.0232558
0.0228007
0.0222597
0.0217318
0.0211989
0.0206235
0.0201623
0.0195495
0.0191907
0.0185707
0.0183301
0.0177901
0.0176838
0.0173356
0.0173905
0.017113
0.0121071
0.00779153
0.00541825
0.00398908
0.00310024
0.00263856
0.00241106
0.0024274
0.00249691
0.00264166
0.00284532
0.00306634
0.00337804
0.00376177
0.00432217
0.0050075
0.00578293
0.00663438
0.00753821
0.00848616
0.00947089
0.0104832
0.0115242
0.0125817
0.0136537
0.0147343
0.0158056
0.0168712
0.0179126
0.0189094
0.0198638
0.0207612
0.0215736
0.0222891
0.0228914
0.023393
0.0237651
0.0240288
0.0241497
0.0241652
0.0240456
0.023843
0.023486
0.0231115
0.0226003
0.0221199
0.0215525
0.0210219
0.0204831
0.019926
0.0194768
0.0188983
0.0185614
0.0179845
0.0177679
0.0172743
0.0171907
0.0168924
0.0169696
0.0167452
0.0121017
0.0077944
0.00544023
0.00401768
0.00311508
0.00263353
0.00238566
0.00240379
0.00248223
0.00264305
0.00288019
0.00313318
0.00346944
0.00386505
0.00442486
0.00511534
0.00590025
0.00676444
0.00768175
0.00864172
0.00963651
0.0106551
0.0116993
0.0127558
0.0138226
0.0148943
0.0159514
0.0169992
0.0180172
0.0189847
0.0199062
0.0207665
0.0215343
0.0222001
0.0227483
0.0231926
0.0235033
0.0237027
0.023757
0.023711
0.0235182
0.0232587
0.0228392
0.0224218
0.0218659
0.0213622
0.0207711
0.0202404
0.0196993
0.019164
0.0187309
0.0181908
0.0178795
0.0173504
0.01716
0.0167181
0.0166589
0.0164143
0.0165153
0.0163495
0.0120973
0.0077957
0.00545843
0.00404466
0.00313045
0.00262837
0.00235344
0.00236576
0.00244511
0.00261842
0.00287901
0.00316322
0.00352617
0.00393793
0.00449816
0.00519274
0.00598578
0.00686166
0.00779191
0.00876346
0.00976793
0.0107921
0.0118384
0.0128925
0.0139524
0.0150131
0.0160534
0.0170804
0.0180712
0.0190075
0.0198937
0.0207125
0.0214316
0.0220442
0.022535
0.022919
0.0231656
0.0232983
0.023286
0.023176
0.0229067
0.0225917
0.0221111
0.021652
0.0210532
0.0205286
0.0199167
0.0193891
0.0188493
0.0183394
0.0179264
0.0174287
0.0171467
0.01667
0.0165083
0.0161232
0.0160902
0.0159023
0.0160285
0.015928
0.0120939
0.00779597
0.00547316
0.00406979
0.00314671
0.00262524
0.00231827
0.0023186
0.00239002
0.00256211
0.00284777
0.00315562
0.00354326
0.00397447
0.00453646
0.00523397
0.00603339
0.0069195
0.00786193
0.00884456
0.00985839
0.0108876
0.0119353
0.0129858
0.0140371
0.0150848
0.0161055
0.0171099
0.0180716
0.0189731
0.0198206
0.0205944
0.0212614
0.0218174
0.0222481
0.0225689
0.0227492
0.0228133
0.022735
0.0225559
0.0222119
0.0218418
0.0213017
0.0208026
0.0201634
0.0196207
0.0189913
0.01847
0.0179354
0.0174544
0.0170656
0.0166143
0.0163653
0.0159453
0.0158147
0.0154917
0.0154863
0.0153576
0.0155105
0.0154832
0.0120913
0.00779581
0.00548484
0.00409278
0.00316386
0.00262525
0.0022854
0.00226217
0.00232433
0.00248323
0.00277868
0.00311237
0.00352115
0.00397027
0.00453478
0.00523363
0.00603717
0.00693144
0.00788481
0.00887776
0.00990064
0.0109344
0.011983
0.0130289
0.0140702
0.0151035
0.0161032
0.0170825
0.018012
0.0188759
0.0196818
0.0204075
0.0210191
0.0215157
0.0218837
0.0221389
0.0222512
0.0222479
0.0220976
0.0218509
0.0214338
0.021009
0.0204116
0.0198748
0.0191983
0.0186405
0.0179977
0.0174858
0.0169607
0.016512
0.0161515
0.0157504
0.0155378
0.0151788
0.0150816
0.0148259
0.0148493
0.0147811
0.0149622
0.0150178
0.0120895
0.00779551
0.00549394
0.00411341
0.00318172
0.00262758
0.00225791
0.00220055
0.00225158
0.0023912
0.00267856
0.00302621
0.00345559
0.00392568
0.0044928
0.00519054
0.00599447
0.00689307
0.00785467
0.00885619
0.00988724
0.0109251
0.0119739
0.0130147
0.014045
0.0150626
0.0160392
0.0169915
0.0178862
0.0187102
0.0194721
0.0201468
0.0207003
0.0211348
0.0214381
0.0216256
0.0216691
0.0216015
0.0213708
0.0210599
0.0205723
0.0200941
0.0194423
0.0188705
0.0181606
0.0175911
0.0169392
0.0164403
0.015929
0.015516
0.0151878
0.0148407
0.0146672
0.0143734
0.0143118
0.0141276
0.0141824
0.0141741
0.0143865
0.0145339
0.0120885
0.00779544
0.00550101
0.00413157
0.00319985
0.00263311
0.0022379
0.00213785
0.00217561
0.00229283
0.00255478
0.00290657
0.00334434
0.00383129
0.00440092
0.00509536
0.00589665
0.00679655
0.00776423
0.00877269
0.00981092
0.010852
0.0119003
0.0129354
0.0139538
0.0149546
0.0159066
0.0168303
0.0176882
0.0184702
0.019186
0.0198073
0.0203
0.0206703
0.0209075
0.021026
0.0210034
0.0208677
0.0205554
0.0201828
0.0196279
0.0190983
0.018396
0.0177927
0.017054
0.0164768
0.0158207
0.0153383
0.0148452
0.0144713
0.0141792
0.0138893
0.0137575
0.0135328
0.0135087
0.0133986
0.0134871
0.0135395
0.0137875
0.0140329
0.012088
0.0077957
0.00550656
0.00414725
0.00321782
0.00264117
0.00222634
0.00207794
0.00210003
0.00219217
0.00241661
0.00276012
0.00319535
0.00369095
0.00426006
0.0049478
0.00574173
0.00663762
0.00760707
0.00861939
0.00966318
0.0107068
0.0117541
0.0127831
0.0137889
0.0147721
0.0156983
0.0165921
0.0174113
0.0181498
0.018818
0.0193836
0.0198136
0.0201183
0.0202886
0.0203383
0.0202517
0.0200427
0.0196535
0.0192203
0.0186019
0.0180241
0.0172761
0.0166454
0.0158835
0.0153027
0.014648
0.0141857
0.0137154
0.0133835
0.0131312
0.0129014
0.0128128
0.0126611
0.0126762
0.0126409
0.0127674
0.0128804
0.0131687
0.0135166
0.012088
0.00779647
0.0055111
0.00416057
0.00323527
0.00265072
0.00222302
0.00202473
0.00202714
0.00209279
0.00227369
0.00259465
0.00301544
0.00351009
0.00407311
0.00474885
0.00552973
0.00641515
0.0073806
0.00839219
0.00943849
0.0104827
0.011528
0.0125501
0.0135426
0.0145075
0.015407
0.0162701
0.0170493
0.0177432
0.0183624
0.0188707
0.0192367
0.0194749
0.0195783
0.0195636
0.0194072
0.0191274
0.018666
0.0181741
0.0174972
0.0168752
0.0160874
0.0154343
0.0146557
0.0140761
0.0134288
0.01299
0.0125473
0.0122601
0.0120508
0.0118832
0.0118387
0.0117628
0.0118198
0.0118562
0.0120285
0.0122025
0.0125317
0.0129867
0.0120882
0.00779791
0.0055151
0.00417175
0.00325194
0.00266111
0.00222541
0.00198333
0.00195427
0.00199902
0.00213633
0.0024183
0.0028132
0.00329543
0.00384503
0.00450225
0.00526281
0.00612955
0.00708352
0.00808803
0.00913225
0.0101741
0.0112153
0.0122295
0.0132079
0.0141539
0.0150259
0.0158577
0.0165957
0.0172445
0.0178141
0.0182638
0.0185652
0.0187367
0.018775
0.0187015
0.0184679
0.018123
0.0175945
0.0170472
0.0163178
0.0156569
0.0148365
0.0141667
0.0133791
0.0128056
0.0121724
0.0117607
0.0113501
0.0111098
0.0109466
0.0108422
0.0108415
0.0108416
0.0109453
0.0110493
0.0112756
0.011512
0.0118783
0.0124453
0.0120888
0.00779992
0.00551893
0.00418109
0.00326762
0.00267181
0.00223225
0.00195511
0.00188523
0.00191195
0.00201087
0.00223965
0.00259856
0.00305604
0.00358311
0.00421398
0.00494616
0.00578484
0.00671782
0.00770669
0.0087422
0.009777
0.010811
0.0118155
0.0127784
0.0137048
0.0145487
0.0153488
0.016045
0.0166487
0.0171686
0.0175591
0.0177957
0.0179012
0.0178815
0.0177464
0.0174362
0.0170316
0.0164422
0.0158441
0.0150698
0.0143763
0.0135321
0.0128523
0.0120644
0.0115028
0.0108907
0.0105093
0.0101353
0.00994357
0.0098287
0.00978687
0.00982893
0.00990125
0.0100614
0.0102293
0.0105103
0.0108135
0.011213
0.011895
0.0120895
0.00780247
0.00552288
0.00418891
0.00328223
0.00268241
0.00224242
0.0019395
0.00182428
0.00183242
0.00189748
0.00206996
0.00238167
0.00280257
0.00329705
0.00389271
0.00458767
0.00538794
0.00628902
0.0072517
0.00826957
0.00929062
0.0103126
0.0113043
0.0122496
0.0131554
0.0139704
0.0147385
0.0153927
0.0159517
0.0164223
0.0167536
0.0169259
0.0169686
0.0168981
0.0166965
0.0163171
0.0158571
0.0152144
0.0145718
0.0137617
0.0130434
0.0121855
0.0115035
0.0107252
0.0101814
0.0095982
0.00924991
0.00891691
0.00877466
0.00870965
0.00872439
0.00881159
0.0089538
0.00917248
0.00940494
0.00973606
0.0101108
0.0105414
0.0113384
0.0120902
0.00780545
0.00552717
0.00419556
0.00329573
0.00269273
0.00225378
0.00193441
0.00177614
0.00175821
0.00179716
0.0019185
0.00217134
0.0025462
0.00299825
0.00354946
0.00419809
0.00494919
0.00580639
0.00673053
0.00771955
0.00871778
0.00972088
0.0106951
0.0116197
0.0125029
0.013288
0.0140239
0.0146358
0.0151511
0.0155734
0.0158457
0.0159549
0.0159442
0.015822
0.0155552
0.0151162
0.0146058
0.013919
0.0132397
0.0124048
0.0116709
0.0108115
0.0101359
0.0093785
0.00885905
0.00831267
0.00799974
0.00771193
0.00761905
0.00760269
0.00766372
0.00780454
0.00801119
0.00828431
0.00858351
0.00895945
0.00940877
0.00986979
0.0107785
0.0120911
0.00780876
0.00553191
0.00420139
0.00330813
0.00270276
0.00226532
0.00193626
0.00174287
0.00169004
0.00170953
0.0017889
0.00197635
0.00229766
0.00269878
0.0031969
0.00379049
0.00448196
0.005283
0.0061551
0.00710203
0.00806598
0.00904087
0.0099909
0.0108901
0.0117478
0.0125013
0.0132043
0.0137739
0.014247
0.0146223
0.0148358
0.0148854
0.014833
0.0146538
0.0143307
0.013841
0.0132873