/*--------------------------------*- C++ -*----------------------------------*\
| =========                 |                                                 |
| \\      /  F ield         | OpenFOAM: The Open Source CFD Toolbox           |
|  \\    /   O peration     | Version:  2.4.0                                 |
|   \\  /    A nd           | Web:      www.OpenFOAM.org                      |
|    \\/     M anipulation  |                                                 |
\*---------------------------------------------------------------------------*/
FoamFile
{
    version     2.0;
    format      ascii;
    class       volScalarField;
    location    "1200";
    object      p;
}
// * * * * * * * * * * * * * * * * * * * * * * * * * * * * * * * * * * * * * //

dimensions      [0 2 -2 0 0 0 0];

internalField   nonuniform List<scalar> 
23567
(
-3.61154
-4.43308
-4.79735
-4.92401
-5.0565
-5.19141
-5.30611
-5.40705
-5.50245
-5.59331
-5.68049
-5.76409
-5.84543
-5.9239
-6.00044
-6.07423
-6.1465
-6.21622
-6.28954
-6.36488
-6.44494
-6.52942
-6.62707
-6.73588
-6.87193
-3.81441
-4.45742
-4.7919
-4.91933
-5.05125
-5.18524
-5.30101
-5.40296
-5.49886
-5.58995
-5.67699
-5.76029
-5.84105
-5.91893
-5.99473
-6.06793
-6.14029
-6.2109
-6.28412
-6.35904
-6.4381
-6.52168
-6.61583
-6.7175
-6.82918
-3.99211
-4.47091
-4.79129
-4.93059
-5.06244
-5.19373
-5.30732
-5.40752
-5.50158
-5.59094
-5.67625
-5.758
-5.83723
-5.9138
-5.98825
-6.0606
-6.13238
-6.20318
-6.27525
-6.3487
-6.42548
-6.5057
-6.59234
-6.67987
-6.76047
-4.16199
-4.51333
-4.80499
-4.9482
-5.07406
-5.20032
-5.31044
-5.40904
-5.50189
-5.59024
-5.67467
-5.7557
-5.83416
-5.91018
-5.98404
-6.056
-6.12703
-6.19709
-6.26762
-6.33928
-6.4131
-6.48887
-6.56719
-6.64206
-6.70635
-4.3079
-4.56879
-4.82581
-4.96787
-5.08961
-5.21013
-5.3175
-5.41473
-5.50619
-5.59313
-5.67622
-5.75603
-5.83305
-5.90778
-5.98041
-6.05121
-6.12087
-6.18961
-6.25839
-6.32773
-6.39806
-6.46884
-6.53933
-6.60447
-6.65833
-4.43114
-4.62715
-4.85118
-4.98987
-5.10752
-5.22247
-5.32674
-5.422
-5.51164
-5.59691
-5.67848
-5.7569
-5.83264
-5.9061
-5.97751
-6.04712
-6.11545
-6.18278
-6.24967
-6.31643
-6.3831
-6.44895
-6.51261
-6.57012
-6.61677
-4.53969
-4.68632
-4.87965
-5.01306
-5.12612
-5.23583
-5.3368
-5.42985
-5.51761
-5.60119
-5.68121
-5.75821
-5.8326
-5.90471
-5.97478
-6.04303
-6.10984
-6.17547
-6.24021
-6.30417
-6.36713
-6.42825
-6.48602
-6.53749
-6.57925
-4.63794
-4.74682
-4.91143
-5.03742
-5.14523
-5.24968
-5.34711
-5.43772
-5.52347
-5.60528
-5.68371
-5.75923
-5.83219
-5.90288
-5.97152
-6.03829
-6.10344
-6.16718
-6.22962
-6.29071
-6.35007
-6.40685
-6.45965
-6.50642
-6.54471
-4.72773
-4.80824
-4.94673
-5.06337
-5.16528
-5.26427
-5.35781
-5.44564
-5.52913
-5.60899
-5.68568
-5.75959
-5.83101
-5.90018
-5.96728
-6.03244
-6.09584
-6.15757
-6.21764
-6.27588
-6.33183
-6.38475
-6.43338
-6.47646
-6.51223
-4.79665
-4.85935
-4.97873
-5.08646
-5.18291
-5.27717
-5.36717
-5.4524
-5.53376
-5.61181
-5.6869
-5.75933
-5.82935
-5.89714
-5.96285
-6.02658
-6.08841
-6.1484
-6.20647
-6.2624
-6.31573
-6.36583
-6.4116
-6.45225
-6.48641
-4.85081
-4.90191
-5.00661
-5.10681
-5.19849
-5.28862
-5.37549
-5.45833
-5.53776
-5.61415
-5.68778
-5.75888
-5.82763
-5.89419
-5.95865
-6.0211
-6.08157
-6.14005
-6.19643
-6.25049
-6.30174
-6.34969
-6.39337
-6.43229
-6.46532
-4.9047
-4.94618
-5.03694
-5.12926
-5.21576
-5.30139
-5.3848
-5.46496
-5.54219
-5.61669
-5.68866
-5.75823
-5.82555
-5.89071
-5.95379
-6.01481
-6.07377
-6.13063
-6.18525
-6.23738
-6.28659
-6.33247
-6.37424
-6.41159
-6.44365
-4.95802
-4.99164
-5.06959
-5.15376
-5.23472
-5.31557
-5.39518
-5.47237
-5.54712
-5.6195
-5.68958
-5.75744
-5.82314
-5.88674
-5.94826
-6.00771
-6.06504
-6.12017
-6.17294
-6.22314
-6.27035
-6.31427
-6.35429
-6.39026
-6.42147
-5.01039
-5.03775
-5.10421
-5.18015
-5.25532
-5.33115
-5.40669
-5.48061
-5.55261
-5.62262
-5.6906
-5.75654
-5.82044
-5.88231
-5.94212
-5.99985
-6.05542
-6.10874
-6.15962
-6.20787
-6.25316
-6.29524
-6.33367
-6.36841
-6.39888
-5.06149
-5.08393
-5.1403
-5.20817
-5.2774
-5.34808
-5.4193
-5.48968
-5.55869
-5.6261
-5.69176
-5.75558
-5.8175
-5.87747
-5.93542
-5.9913
-6.04501
-6.09643
-6.1454
-6.19174
-6.23518
-6.27556
-6.31253
-6.34617
-6.37601
-5.11094
-5.12956
-5.17726
-5.2374
-5.30068
-5.36615
-5.43288
-5.49951
-5.56531
-5.6299
-5.69303
-5.75455
-5.81432
-5.87224
-5.9282
-5.98212
-6.03388
-6.08337
-6.13042
-6.1749
-6.21658
-6.25538
-6.29105
-6.32371
-6.35297
-5.15832
-5.174
-5.21435
-5.2673
-5.32476
-5.38504
-5.4472
-5.50994
-5.57235
-5.63395
-5.69439
-5.75344
-5.81091
-5.86665
-5.92051
-5.97238
-6.02215
-6.06968
-6.11485
-6.15753
-6.19757
-6.23491
-6.26939
-6.30116
-6.32992
-5.20307
-5.21646
-5.25072
-5.29718
-5.34905
-5.4043
-5.46194
-5.52072
-5.57964
-5.63811
-5.69573
-5.75219
-5.80724
-5.8607
-5.91238
-5.96216
-6.0099
-6.0555
-6.09884
-6.13981
-6.17831
-6.21432
-6.24774
-6.2787
-6.30699
-5.24452
-5.25603
-5.28537
-5.32618
-5.37285
-5.42333
-5.47661
-5.53145
-5.58686
-5.64215
-5.69688
-5.75067
-5.80324
-5.85436
-5.90384
-5.95152
-5.99726
-6.04098
-6.08255
-6.12192
-6.15901
-6.1938
-6.22625
-6.25649
-6.28436
-5.28179
-5.29181
-5.31721
-5.35322
-5.39523
-5.44135
-5.49052
-5.54159
-5.59357
-5.64573
-5.69758
-5.74871
-5.79879
-5.84759
-5.89489
-5.94051
-5.98432
-6.02623
-6.06616
-6.10404
-6.13983
-6.17353
-6.20512
-6.23471
-6.2622
-5.3138
-5.32264
-5.34494
-5.37702
-5.41505
-5.45733
-5.5028
-5.5504
-5.59917
-5.64837
-5.69746
-5.74603
-5.79373
-5.84028
-5.88549
-5.92916
-5.97115
-6.01139
-6.0498
-6.08633
-6.12096
-6.15369
-6.18451
-6.21353
-6.24068
-5.33919
-5.34704
-5.36699
-5.39606
-5.43092
-5.47
-5.51235
-5.55696
-5.60289
-5.64943
-5.69603
-5.74226
-5.78777
-5.83228
-5.87557
-5.91745
-5.9578
-5.99653
-6.0336
-6.06895
-6.10256
-6.13445
-6.16462
-6.19315
-6.22001
-5.35604
-5.36311
-5.3815
-5.40852
-5.44112
-5.47785
-5.51782
-5.56009
-5.60376
-5.64814
-5.69267
-5.73693
-5.78057
-5.82332
-5.86497
-5.90533
-5.94427
-5.98173
-6.01766
-6.05202
-6.08479
-6.11599
-6.14563
-6.17376
-6.2004
-5.36144
-5.36817
-5.38589
-5.41199
-5.44348
-5.47897
-5.51761
-5.5585
-5.60077
-5.64373
-5.68687
-5.72976
-5.77208
-5.81356
-5.85399
-5.89322
-5.93113
-5.96764
-6.00273
-6.03636
-6.06853
-6.09923
-6.12849
-6.15636
-6.18286
-5.35469
-5.36162
-5.37962
-5.40597
-5.43761
-5.47311
-5.51161
-5.55221
-5.59406
-5.63651
-5.67906
-5.72131
-5.76295
-5.80374
-5.8435
-5.88208
-5.91938
-5.95534
-5.98993
-6.02313
-6.05494
-6.08536
-6.11442
-6.14215
-6.16862
-5.33812
-5.34567
-5.36483
-5.39253
-5.42543
-5.46199
-5.50134
-5.54257
-5.58484
-5.62752
-5.67014
-5.71234
-5.75385
-5.79444
-5.83396
-5.87227
-5.90931
-5.94503
-5.9794
-6.01241
-6.04406
-6.07437
-6.10337
-6.13107
-6.15758
-5.31359
-5.32204
-5.34327
-5.37341
-5.40858
-5.44711
-5.48812
-5.53069
-5.57401
-5.61747
-5.66065
-5.70325
-5.745
-5.78574
-5.82533
-5.86366
-5.90069
-5.93638
-5.97072
-6.0037
-6.03534
-6.06565
-6.09468
-6.12243
-6.14901
-5.28231
-5.292
-5.31631
-5.35005
-5.38843
-5.42967
-5.473
-5.51749
-5.56232
-5.60696
-5.65106
-5.69434
-5.73662
-5.77773
-5.81759
-5.85613
-5.89332
-5.92914
-5.96358
-5.99664
-6.02837
-6.05875
-6.08788
-6.11572
-6.14242
-5.24497
-5.25643
-5.28512
-5.32367
-5.36613
-5.41075
-5.45691
-5.50372
-5.5504
-5.59649
-5.64172
-5.68589
-5.72884
-5.77048
-5.81076
-5.84964
-5.88709
-5.92312
-5.95774
-5.99097
-6.02283
-6.05335
-6.0826
-6.11056
-6.13739
-5.20199
-5.21598
-5.25075
-5.29543
-5.34267
-5.3912
-5.44062
-5.49003
-5.53874
-5.58642
-5.6329
-5.67805
-5.72178
-5.76404
-5.80482
-5.84409
-5.88187
-5.91817
-5.95302
-5.98644
-6.01848
-6.04916
-6.07856
-6.10666
-6.13363
-5.15351
-5.17126
-5.2142
-5.26632
-5.3189
-5.37173
-5.42469
-5.47686
-5.52769
-5.57703
-5.6248
-5.67097
-5.7155
-5.7584
-5.7997
-5.83939
-5.87753
-5.91413
-5.94923
-5.98287
-6.01511
-6.04596
-6.07551
-6.10375
-6.13086
-5.09936
-5.12281
-5.17655
-5.2373
-5.29556
-5.35293
-5.4096
-5.46455
-5.51749
-5.56845
-5.61749
-5.66465
-5.70996
-5.75349
-5.7953
-5.83542
-5.8739
-5.9108
-5.94616
-5.98003
-6.01245
-6.04348
-6.07319
-6.10157
-6.12879
-5.03908
-5.07118
-5.13893
-5.20921
-5.27324
-5.33529
-5.39566
-5.4533
-5.50824
-5.56073
-5.61094
-5.65901
-5.70505
-5.74917
-5.79145
-5.83196
-5.87078
-5.90797
-5.94358
-5.97766
-6.01027
-6.04147
-6.07132
-6.09983
-6.12717
-4.97193
-5.01706
-5.1026
-5.18279
-5.25235
-5.31907
-5.38301
-5.44314
-5.49988
-5.55373
-5.60499
-5.65387
-5.70055
-5.74518
-5.78789
-5.82877
-5.8679
-5.90535
-5.94119
-5.97548
-6.00829
-6.03964
-6.06964
-6.09828
-6.12571
-4.89688
-4.96146
-5.0688
-5.15843
-5.233
-5.30427
-5.37153
-5.43384
-5.49216
-5.5472
-5.59935
-5.64893
-5.69618
-5.74127
-5.78437
-5.82558
-5.86501
-5.90273
-5.93881
-5.97332
-6.00632
-6.03786
-6.06801
-6.09681
-6.12434
-4.81259
-4.90554
-5.03848
-5.13609
-5.21492
-5.29054
-5.36084
-5.42507
-5.48473
-5.54079
-5.59374
-5.64395
-5.69171
-5.73725
-5.78073
-5.82229
-5.86203
-5.90003
-5.93638
-5.97113
-6.00435
-6.03609
-6.06643
-6.09541
-6.12306
-4.71656
-4.8496
-5.01177
-5.11533
-5.19768
-5.27752
-5.35066
-5.41669
-5.47763
-5.53468
-5.58843
-5.63931
-5.68764
-5.73367
-5.7776
-5.81954
-5.85962
-5.89794
-5.93457
-5.96959
-6.00304
-6.03497
-6.06547
-6.09461
-6.12231
-4.60254
-4.79346
-4.98873
-5.09635
-5.18205
-5.26622
-5.34179
-5.40918
-5.47115
-5.52893
-5.58326
-5.63465
-5.68345
-5.72994
-5.77428
-5.81665
-5.85713
-5.89584
-5.93284
-5.96822
-6.00202
-6.03436
-6.06517
-6.09459
-6.12246
-4.46237
-4.74396
-4.97025
-5.07816
-5.16812
-5.25832
-5.33721
-5.40594
-5.46917
-5.52801
-5.583
-5.63482
-5.68391
-5.73062
-5.7751
-5.81759
-5.85815
-5.89694
-5.93399
-5.96944
-6.00327
-6.03567
-6.06644
-6.09584
-6.12355
-4.29987
-4.72749
-4.9698
-5.06825
-5.15627
-5.24911
-5.3291
-5.39809
-5.46193
-5.52184
-5.57779
-5.63053
-5.68042
-5.72794
-5.77313
-5.81632
-5.85748
-5.8969
-5.93449
-5.97049
-6.00479
-6.03763
-6.06877
-6.09859
-6.12632
-4.1044
-4.70031
-4.97468
-5.07276
-5.16265
-5.25803
-5.33774
-5.40589
-5.46893
-5.5281
-5.58333
-5.63551
-5.68496
-5.7322
-5.77717
-5.82028
-5.8614
-5.9009
-5.93856
-5.97476
-6.00921
-6.04229
-6.07364
-6.10366
-6.13184
-7.13452
-7.13458
-7.13456
-7.13443
-7.13417
-7.13371
-7.13303
-7.13218
-7.13129
-7.13055
-7.13015
-7.13023
-7.13087
-7.13203
-7.13363
-7.13553
-7.13759
-7.13966
-7.14162
-7.14338
-7.14489
-7.14609
-7.14694
-7.14748
-7.14778
-7.1479
-7.1479
-7.14784
-7.14776
-7.14768
-7.14756
-7.14734
-7.14703
-7.14664
-7.1462
-7.14574
-7.14529
-7.14487
-7.14456
-7.14445
-7.14461
-7.1451
-7.14592
-7.14703
-7.14836
-7.14982
-7.15129
-7.15271
-7.1541
-7.15557
-7.15736
-7.15971
-7.16254
-7.16544
-7.16795
-7.16949
-7.17006
-7.17023
-7.1716
-7.17753
-7.19148
-7.21348
-7.24208
-7.27572
-7.31295
-7.35258
-7.39364
-7.43542
-7.47737
-7.51909
-7.56032
-7.60088
-7.64065
-7.67956
-7.71758
-7.7547
-7.79093
-7.82632
-7.86088
-7.89463
-7.92754
-7.95963
-7.99095
-8.02153
-8.05137
-8.08049
-8.10886
-8.13649
-8.16337
-8.18946
-8.21473
-8.23915
-8.26266
-8.28523
-8.30683
-8.32741
-8.34694
-8.36537
-8.38262
-8.39862
-8.4133
-8.42661
-8.43848
-8.44885
-8.45764
-8.4648
-8.47027
-8.47398
-8.47588
-8.4759
-8.47399
-8.4701
-8.46418
-8.45618
-8.44605
-8.43374
-8.41923
-8.40246
-8.38341
-8.36204
-8.33831
-8.31221
-8.28369
-8.25274
-8.21934
-8.18347
-8.14511
-8.10425
-8.06089
-8.01506
-7.96671
-7.91577
-7.86219
-7.806
-7.74722
-7.68586
-7.62193
-7.55544
-7.4864
-7.41483
-7.34074
-7.26416
-7.1851
-7.1035
-7.01936
-6.93277
-6.84401
-6.75301
-6.65958
-6.56385
-6.46582
-6.36553
-6.26305
-6.15836
-6.05155
-5.94263
-5.83164
-5.71862
-5.60361
-5.48665
-5.36778
-5.24703
-5.12445
-5.00007
-4.87393
-4.74606
-4.61649
-4.48527
-4.35241
-4.21796
-4.08192
-3.94433
-3.80521
-3.66458
-3.52245
-3.37884
-3.23376
-3.08721
-2.93921
-2.78976
-2.63885
-2.48649
-2.33267
-2.17739
-2.02063
-1.86238
-1.70264
-1.54139
-1.37861
-1.21429
-1.04843
-0.881012
-0.712012
-0.541315
-0.368863
-0.194676
-0.0187473
0.158944
0.338419
0.519701
0.702812
0.887771
1.0746
1.2633
1.4539
1.6464
1.8408
2.0371
2.2353
2.43539
2.63736
2.84118
3.04683
3.25428
3.46348
3.67441
3.887
4.10119
4.31691
4.53414
4.75282
4.97281
5.19401
5.41631
5.63958
5.86369
6.08852
6.31392
6.53974
6.76582
6.992
7.2181
7.44394
7.66932
7.89405
8.1179
8.34067
8.56212
8.78201
9.00011
9.21615
9.42987
9.64099
9.84925
10.0544
10.256
10.454
10.648
10.8379
11.0233
11.2049
11.381
11.5588
11.7231
-7.13499
-7.13504
-7.13507
-7.13504
-7.13489
-7.13453
-7.13396
-7.13323
-7.13253
-7.13203
-7.13191
-7.1323
-7.1332
-7.13458
-7.13632
-7.13829
-7.14035
-7.14239
-7.14429
-7.14596
-7.14735
-7.14839
-7.1491
-7.14948
-7.14959
-7.14949
-7.14923
-7.14886
-7.14842
-7.14793
-7.1474
-7.14685
-7.14631
-7.14579
-7.1453
-7.14483
-7.14443
-7.14415
-7.14401
-7.14406
-7.14441
-7.14512
-7.14618
-7.14748
-7.14885
-7.15016
-7.15135
-7.15243
-7.15338
-7.15418
-7.15482
-7.15549
-7.15622
-7.15771
-7.16124
-7.1664
-7.17069
-7.17457
-7.18099
-7.192
-7.20867
-7.23128
-7.25938
-7.29188
-7.32766
-7.36569
-7.4051
-7.44524
-7.48562
-7.52588
-7.56579
-7.60515
-7.64382
-7.68172
-7.71881
-7.75508
-7.79052
-7.82514
-7.85892
-7.89192
-7.92422
-7.95583
-7.98673
-8.01694
-8.04646
-8.07527
-8.10337
-8.13076
-8.15741
-8.1833
-8.2084
-8.23269
-8.25612
-8.27865
-8.30025
-8.32084
-8.34038
-8.35879
-8.37602
-8.39202
-8.40671
-8.42004
-8.43194
-8.44235
-8.4512
-8.45844
-8.46399
-8.46779
-8.4698
-8.46994
-8.46816
-8.46442
-8.45865
-8.45081
-8.44085
-8.42873
-8.41441
-8.39785
-8.37901
-8.35786
-8.33436
-8.30849
-8.28023
-8.24954
-8.21641
-8.18081
-8.14273
-8.10216
-8.05907
-8.01347
-7.96533
-7.91461
-7.86129
-7.80538
-7.74689
-7.68582
-7.62218
-7.55598
-7.48724
-7.41596
-7.34216
-7.26586
-7.18708
-7.10576
-7.0219
-6.93569
-6.84719
-6.75639
-6.66324
-6.56777
-6.47001
-6.36999
-6.26776
-6.16333
-6.05677
-5.94809
-5.83733
-5.72455
-5.60976
-5.49302
-5.37436
-5.25382
-5.13144
-5.00726
-4.88131
-4.75363
-4.62425
-4.49321
-4.36053
-4.22625
-4.09038
-3.95296
-3.81401
-3.67354
-3.53158
-3.38813
-3.24321
-3.09682
-2.94898
-2.79969
-2.64895
-2.49676
-2.3431
-2.18799
-2.0314
-1.87333
-1.71375
-1.55266
-1.39003
-1.22584
-1.06005
-0.892625
-0.72357
-0.552925
-0.380652
-0.206669
-0.0309587
0.146508
0.325752
0.506798
0.689667
0.874379
1.06095
1.2494
1.43973
1.63196
1.82609
2.02211
2.22003
2.41984
2.62151
2.82503
3.03038
3.23752
3.44642
3.65704
3.86932
4.0832
4.29863
4.51557
4.73396
4.95367
5.17458
5.39659
5.61958
5.84342
6.06797
6.2931
6.51866
6.74449
6.97042
7.19629
7.4219
7.64707
7.87159
8.09526
8.31786
8.53915
8.75892
8.97691
9.19288
9.40656
9.61768
9.82598
10.0312
10.2331
10.4314
10.6259
10.8166
11.0028
11.1855
11.3621
11.5425
11.7064
-7.13575
-7.13575
-7.13574
-7.13568
-7.13552
-7.13523
-7.13489
-7.13461
-7.13453
-7.13486
-7.13565
-7.13687
-7.13848
-7.14038
-7.14244
-7.14456
-7.14665
-7.14859
-7.1503
-7.15171
-7.15277
-7.15346
-7.15379
-7.15376
-7.15341
-7.15277
-7.1519
-7.15085
-7.14968
-7.14846
-7.14723
-7.14603
-7.14491
-7.1439
-7.14302
-7.14229
-7.14174
-7.14143
-7.14146
-7.14187
-7.14259
-7.14361
-7.14492
-7.14645
-7.14794
-7.1491
-7.14968
-7.14969
-7.14936
-7.14908
-7.14953
-7.15139
-7.15469
-7.15938
-7.16641
-7.17493
-7.18393
-7.19402
-7.20659
-7.22286
-7.24315
-7.26725
-7.29483
-7.32537
-7.35832
-7.3931
-7.42914
-7.46597
-7.50322
-7.54057
-7.57778
-7.61463
-7.65102
-7.68685
-7.72209
-7.7567
-7.79067
-7.82401
-7.85671
-7.88878
-7.92022
-7.95103
-7.98122
-8.01079
-8.03973
-8.06804
-8.0957
-8.12269
-8.149
-8.17459
-8.19946
-8.22357
-8.24688
-8.26934
-8.29086
-8.31138
-8.33081
-8.34912
-8.36626
-8.38218
-8.39682
-8.41013
-8.42202
-8.43244
-8.44133
-8.44862
-8.45424
-8.45814
-8.46026
-8.46052
-8.45889
-8.45531
-8.44972
-8.44207
-8.43232
-8.42043
-8.40634
-8.39003
-8.37146
-8.35058
-8.32738
-8.30181
-8.27386
-8.2435
-8.2107
-8.17545
-8.13772
-8.0975
-8.05478
-8.00955
-7.96176
-7.91142
-7.85849
-7.80299
-7.74491
-7.68426
-7.62104
-7.55527
-7.48696
-7.4161
-7.34273
-7.26686
-7.18849
-7.1076
-7.02419
-6.93846
-6.85041
-6.76001
-6.66726
-6.57219
-6.47483
-6.37521
-6.27337
-6.16933
-6.06315
-5.95484
-5.84445
-5.73203
-5.6176
-5.5012
-5.38289
-5.26268
-5.14063
-5.01677
-4.89114
-4.76376
-4.63469
-4.50395
-4.37156
-4.23757
-4.10199
-3.96486
-3.82619
-3.686
-3.54431
-3.40114
-3.2565
-3.11039
-2.96283
-2.81382
-2.66336
-2.51145
-2.35808
-2.20325
-2.04695
-1.88918
-1.72991
-1.56912
-1.40681
-1.24295
-1.07752
-0.910494
-0.741846
-0.571578
-0.399656
-0.226036
-0.050698
0.126387
0.305241
0.485889
0.668351
0.852649
1.0388
1.22682
1.41672
1.6085
1.80218
1.99775
2.19521
2.39455
2.59575
2.79879
3.00366
3.21031
3.41872
3.62884
3.84062
4.05401
4.26895
4.48541
4.7033
4.9225
5.14292
5.36443
5.58693
5.81028
6.03435
6.25899
6.48407
6.70942
6.93488
7.16027
7.38541
7.61012
7.83418
8.0574
8.27956
8.50042
8.71976
8.93734
9.15291
9.36621
9.57698
9.78497
9.98996
10.1916
10.3898
10.5841
10.7749
10.9612
11.1451
11.3224
11.5067
11.667
-7.13659
-7.13649
-7.13635
-7.13618
-7.13602
-7.136
-7.1362
-7.13677
-7.13779
-7.13927
-7.14112
-7.14321
-7.14546
-7.14778
-7.15009
-7.15228
-7.15425
-7.15595
-7.15733
-7.15839
-7.1591
-7.15944
-7.1594
-7.15898
-7.1582
-7.15706
-7.15561
-7.15389
-7.15195
-7.14987
-7.14771
-7.14556
-7.14349
-7.14158
-7.13992
-7.13861
-7.13776
-7.13747
-7.1378
-7.13868
-7.13999
-7.14149
-7.143
-7.14429
-7.14494
-7.14489
-7.14439
-7.14392
-7.14457
-7.14716
-7.15153
-7.15703
-7.16347
-7.17127
-7.18102
-7.19278
-7.20603
-7.2208
-7.23741
-7.25633
-7.27784
-7.30201
-7.32871
-7.35769
-7.3886
-7.42101
-7.45451
-7.48873
-7.52333
-7.55801
-7.59255
-7.62687
-7.66089
-7.69457
-7.72784
-7.76068
-7.79304
-7.82491
-7.85628
-7.88715
-7.91752
-7.94738
-7.97672
-8.00552
-8.03378
-8.06148
-8.08859
-8.11509
-8.14095
-8.16613
-8.1906
-8.2143
-8.2372
-8.25928
-8.28048
-8.30075
-8.32006
-8.33831
-8.35545
-8.3714
-8.38609
-8.39947
-8.41146
-8.422
-8.43102
-8.43846
-8.44425
-8.44833
-8.45064
-8.45112
-8.44972
-8.44637
-8.44104
-8.43365
-8.42418
-8.41257
-8.39879
-8.38279
-8.36453
-8.34399
-8.32113
-8.29591
-8.26832
-8.23832
-8.2059
-8.17103
-8.13369
-8.09386
-8.05154
-8.00669
-7.95931
-7.90937
-7.85687
-7.8018
-7.74417
-7.68397
-7.6212
-7.55589
-7.48803
-7.41763
-7.34472
-7.2693
-7.19138
-7.11094
-7.02802
-6.94275
-6.85512
-6.76513
-6.6728
-6.57815
-6.4812
-6.382
-6.28056
-6.17693
-6.07114
-5.96322
-5.85323
-5.74118
-5.62713
-5.51111
-5.39315
-5.27331
-5.15161
-5.0281
-4.90281
-4.77578
-4.64704
-4.51663
-4.38458
-4.25092
-4.11567
-3.97887
-3.84052
-3.70066
-3.5593
-3.41646
-3.27215
-3.12638
-2.97915
-2.83048
-2.68036
-2.52879
-2.37577
-2.2213
-2.06536
-1.90795
-1.74904
-1.58864
-1.42671
-1.26324
-1.09821
-0.931596
-0.763378
-0.593538
-0.422043
-0.248861
-0.0739698
0.102659
0.281049
0.461225
0.643208
0.827019
1.01268
1.2002
1.38959
1.58086
1.77403
1.96908
2.16601
2.36482
2.56549
2.768
2.97233
3.17844
3.38631
3.59589
3.80713
4.01998
4.2344
4.45032
4.66766
4.88632
5.1062
5.32718
5.54915
5.77197
5.99552
6.21964
6.44421
6.66905
6.894
7.11889
7.34355
7.56776
7.79135
8.0141
8.23579
8.4562
8.67509
8.89223
9.10738
9.32029
9.53071
9.73839
9.94313
10.1446
10.3427
10.5372
10.7282
10.9148
11.0995
11.277
11.463
11.6178
-7.13772
-7.13752
-7.13727
-7.13707
-7.13718
-7.13779
-7.13899
-7.14076
-7.143
-7.14555
-7.14822
-7.15091
-7.15351
-7.15593
-7.15815
-7.16015
-7.16189
-7.16333
-7.16444
-7.16519
-7.16554
-7.16549
-7.16503
-7.16416
-7.16289
-7.16125
-7.15926
-7.15696
-7.1544
-7.15161
-7.14868
-7.14572
-7.14282
-7.14015
-7.13789
-7.13624
-7.13533
-7.13519
-7.13564
-7.13649
-7.13749
-7.13832
-7.13887
-7.13912
-7.13904
-7.13979
-7.14234
-7.14614
-7.15031
-7.15509
-7.16143
-7.16976
-7.17985
-7.19152
-7.20463
-7.21907
-7.23476
-7.25185
-7.27052
-7.29098
-7.31334
-7.33756
-7.36347
-7.39083
-7.41937
-7.44886
-7.47915
-7.51008
-7.5415
-7.57324
-7.60518
-7.63716
-7.66906
-7.70081
-7.73232
-7.76357
-7.7945
-7.8251
-7.85532
-7.88517
-7.91462
-7.94365
-7.97226
-8.00041
-8.02809
-8.05528
-8.08194
-8.10806
-8.13359
-8.1585
-8.18276
-8.2063
-8.2291
-8.2511
-8.27224
-8.29247
-8.31173
-8.32997
-8.3471
-8.36308
-8.37782
-8.39126
-8.40334
-8.41398
-8.42312
-8.4307
-8.43664
-8.44088
-8.44337
-8.44404
-8.44283
-8.4397
-8.43458
-8.42742
-8.41819
-8.40683
-8.3933
-8.37757
-8.35959
-8.33933
-8.31676
-8.29185
-8.26457
-8.23489
-8.20279
-8.16825
-8.13125
-8.09176
-8.04978
-8.00528
-7.95825
-7.90867
-7.85654
-7.80186
-7.74461
-7.6848
-7.62243
-7.55751
-7.49004
-7.42004
-7.34752
-7.2725
-7.19497
-7.11492
-7.03242
-6.94754
-6.86028
-6.77065
-6.67868
-6.58439
-6.48781
-6.38896
-6.28788
-6.1846
-6.07916
-5.97159
-5.86194
-5.75023
-5.63652
-5.52083
-5.4032
-5.28368
-5.16231
-5.03912
-4.91415
-4.78744
-4.65902
-4.52893
-4.3972
-4.26386
-4.12893
-3.99245
-3.85443
-3.71489
-3.57387
-3.43136
-3.28738
-3.14195
-2.99508
-2.84675
-2.69699
-2.54579
-2.39314
-2.23904
-2.08348
-1.92645
-1.76794
-1.60794
-1.44642
-1.28336
-1.11876
-0.952576
-0.7848
-0.615404
-0.44436
-0.271639
-0.0972155
0.0789378
0.256846
0.436534
0.618024
0.801337
0.986491
1.1735
1.36239
1.55315
1.7458
1.94033
2.13674
2.33503
2.53518
2.73717
2.94098
3.14658
3.35393
3.563
3.77374
3.98609
4.2
4.41542
4.63226
4.85043
5.06981
5.2903
5.51179
5.73414
5.95722
6.18089
6.405
6.62939
6.85391
7.07837
7.30261
7.52642
7.74961
7.97196
8.19327
8.41331
8.63184
8.84866
9.06352
9.27619
9.48641
9.69395
9.8986
10.1001
10.2983
10.4929
10.6841
10.871
11.056
11.233
11.4193
11.5679
-7.13943
-7.13911
-7.13878
-7.13884
-7.13967
-7.14131
-7.14366
-7.14655
-7.14967
-7.15275
-7.15568
-7.15846
-7.16105
-7.16345
-7.1656
-7.16748
-7.16904
-7.17024
-7.17107
-7.1715
-7.17151
-7.1711
-7.17025
-7.16897
-7.16727
-7.16516
-7.16268
-7.15985
-7.15672
-7.15335
-7.14983
-7.14631
-7.14295
-7.13997
-7.13758
-7.13594
-7.13499
-7.13455
-7.13441
-7.13439
-7.13437
-7.13432
-7.13467
-7.13647
-7.13993
-7.14385
-7.148
-7.15316
-7.16003
-7.16851
-7.17846
-7.1898
-7.20245
-7.21637
-7.23155
-7.24795
-7.26555
-7.28429
-7.30411
-7.32499
-7.34692
-7.36996
-7.39419
-7.41959
-7.44605
-7.47345
-7.50163
-7.53043
-7.55971
-7.58933
-7.61919
-7.64918
-7.67921
-7.70921
-7.73911
-7.76887
-7.79845
-7.82781
-7.85692
-7.88576
-7.9143
-7.94252
-7.97039
-7.99789
-8.025
-8.05168
-8.07789
-8.10362
-8.12882
-8.15345
-8.17746
-8.20081
-8.22346
-8.24534
-8.26639
-8.28657
-8.30581
-8.32404
-8.3412
-8.35721
-8.37202
-8.38554
-8.39771
-8.40847
-8.41773
-8.42544
-8.43152
-8.43592
-8.43857
-8.43941
-8.43838
-8.43543
-8.4305
-8.42354
-8.41451
-8.40337
-8.39006
-8.37455
-8.3568
-8.33678
-8.31446
-8.28979
-8.26277
-8.23335
-8.20152
-8.16725
-8.13052
-8.09132
-8.04962
-8.00541
-7.95867
-7.90939
-7.85757
-7.80319
-7.74626
-7.68676
-7.62472
-7.56012
-7.49297
-7.42329
-7.35109
-7.27639
-7.19916
-7.11944
-7.03726
-6.95269
-6.86573
-6.7764
-6.68472
-6.59072
-6.49442
-6.39586
-6.29507
-6.19208
-6.08692
-5.97964
-5.87027
-5.75885
-5.64541
-5.53
-5.41265
-5.29341
-5.17232
-5.0494
-4.92471
-4.79828
-4.67015
-4.54035
-4.40891
-4.27586
-4.14123
-4.00505
-3.86734
-3.72812
-3.58741
-3.44523
-3.30159
-3.15649
-3.00996
-2.86199
-2.71259
-2.56175
-2.40947
-2.25575
-2.10058
-1.94395
-1.78584
-1.62625
-1.46515
-1.30252
-1.13835
-0.972609
-0.805281
-0.63634
-0.465757
-0.293505
-0.119556
0.0561174
0.233541
0.412739
0.593736
0.776554
0.961211
1.14772
1.33611
1.52637
1.71852
1.91255
2.10847
2.30626
2.50592
2.70742
2.91075
3.11586
3.32274
3.53134
3.74161
3.95351
4.16697
4.38194
4.59834
4.81606
5.03501
5.25508
5.47615
5.69809
5.92078
6.14406
6.36779
6.59181
6.81597
7.04008
7.26398
7.48746
7.71033
7.93237
8.15338
8.37315
8.59145
8.80807
9.02276
9.23529
9.44542
9.65292
9.85756
10.0591
10.2574
10.4521
10.6435
10.8304
11.0154
11.1917
11.3777
11.5205
-7.14182
-7.14137
-7.14113
-7.1419
-7.14368
-7.14631
-7.14955
-7.15297
-7.15624
-7.15937
-7.16235
-7.16516
-7.16774
-7.17006
-7.17208
-7.17379
-7.17515
-7.17613
-7.17672
-7.17689
-7.17663
-7.17593
-7.17478
-7.17319
-7.17117
-7.16874
-7.16591
-7.16273
-7.15925
-7.15555
-7.15176
-7.14805
-7.14463
-7.1417
-7.13937
-7.13756
-7.13608
-7.1348
-7.13373
-7.13293
-7.1329
-7.13455
-7.1378
-7.14151
-7.14562
-7.15093
-7.15787
-7.16634
-7.17614
-7.18718
-7.19944
-7.21292
-7.22758
-7.24339
-7.26016
-7.27766
-7.29574
-7.31443
-7.33392
-7.3543
-7.37564
-7.39798
-7.42128
-7.44549
-7.47054
-7.49634
-7.5228
-7.54981
-7.57728
-7.6051
-7.6332
-7.6615
-7.68992
-7.7184
-7.7469
-7.77535
-7.80372
-7.83198
-7.86008
-7.88801
-7.91572
-7.9432
-7.97041
-7.99732
-8.0239
-8.05012
-8.07594
-8.10133
-8.12624
-8.15062
-8.17444
-8.19763
-8.22016
-8.24195
-8.26295
-8.2831
-8.30234
-8.32059
-8.33778
-8.35385
-8.36873
-8.38234
-8.39462
-8.40548
-8.41486
-8.4227
-8.42891
-8.43345
-8.43624
-8.43723
-8.43635
-8.43355
-8.42878
-8.42199
-8.41312
-8.40215
-8.38901
-8.37368
-8.35612
-8.33628
-8.31415
-8.28968
-8.26285
-8.23364
-8.20202
-8.16796
-8.13145
-8.09246
-8.05098
-8.00699
-7.96048
-7.91143
-7.85985
-7.8057
-7.74901
-7.68976
-7.62795
-7.5636
-7.49669
-7.42725
-7.3553
-7.28082
-7.20383
-7.12435
-7.04242
-6.95807
-6.87133
-6.78222
-6.69076
-6.59698
-6.5009
-6.40256
-6.30198
-6.19921
-6.09427
-5.98721
-5.87806
-5.76685
-5.65364
-5.53845
-5.42133
-5.30231
-5.18145
-5.05877
-4.93432
-4.80813
-4.68024
-4.55069
-4.41951
-4.28673
-4.15238
-4.01648
-3.87906
-3.74014
-3.59973
-3.45787
-3.31455
-3.16978
-3.02359
-2.87597
-2.72692
-2.57645
-2.42455
-2.27122
-2.11644
-1.96021
-1.80251
-1.64334
-1.48266
-1.32047
-1.15674
-0.991453
-0.824583
-0.656105
-0.485991
-0.314213
-0.140743
0.0344468
0.211384
0.390094
0.5706
0.752927
0.937094
1.12312
1.31101
1.50079
1.69246
1.88601
2.08145
2.27878
2.47797
2.67901
2.88188
3.08655
3.29299
3.50116
3.71102
3.9225
4.13556
4.35013
4.56613
4.78347
5.00204
5.22175
5.44246
5.66407
5.88642
6.10938
6.3328
6.55653
6.78039
7.00423
7.22786
7.45108
7.67371
7.89554
8.11635
8.33596
8.55412
8.77062
8.98523
9.19771
9.40782
9.61532
9.82001
10.0216
10.22
10.4148
10.6063
10.7932
10.9781
11.1535
11.3391
11.4765
-7.14475
-7.14421
-7.1444
-7.14598
-7.14853
-7.15179
-7.15528
-7.15863
-7.16186
-7.16497
-7.1679
-7.17061
-7.17308
-7.17528
-7.17718
-7.17875
-7.17996
-7.18078
-7.1812
-7.18119
-7.18075
-7.17986
-7.17853
-7.17675
-7.17454
-7.1719
-7.16888
-7.16552
-7.16191
-7.15814
-7.15439
-7.15082
-7.14764
-7.14488
-7.14239
-7.14001
-7.13783
-7.13594
-7.13491
-7.13562
-7.13781
-7.14063
-7.14417
-7.14912
-7.1557
-7.16378
-7.17312
-7.18369
-7.19546
-7.20845
-7.2226
-7.23773
-7.25356
-7.26988
-7.28665
-7.30403
-7.32206
-7.34081
-7.36026
-7.38045
-7.4014
-7.42312
-7.4456
-7.46879
-7.49267
-7.51716
-7.54223
-7.56779
-7.59378
-7.62014
-7.6468
-7.6737
-7.70078
-7.72799
-7.75528
-7.78262
-7.80995
-7.83725
-7.86449
-7.89161
-7.91861
-7.94544
-7.97207
-7.99847
-8.0246
-8.05043
-8.07591
-8.10101
-8.12568
-8.14987
-8.17353
-8.19661
-8.21905
-8.24079
-8.26177
-8.28192
-8.30118
-8.31947
-8.33673
-8.35288
-8.36784
-8.38155
-8.39393
-8.4049
-8.4144
-8.42235
-8.42869
-8.43335
-8.43626
-8.43737
-8.43662
-8.43394
-8.4293
-8.42263
-8.4139
-8.40305
-8.39004
-8.37484
-8.35741
-8.33771
-8.31572
-8.29139
-8.26471
-8.23564
-8.20417
-8.17026
-8.1339
-8.09507
-8.05374
-8.00991
-7.96356
-7.91468
-7.86325
-7.80928
-7.75275
-7.69366
-7.63202
-7.56783
-7.50109
-7.43182
-7.36002
-7.2857
-7.20886
-7.12954
-7.04777
-6.96358
-6.87699
-6.78803
-6.69671
-6.60307
-6.50714
-6.40894
-6.30852
-6.20589
-6.10111
-5.9942
-5.88521
-5.77417
-5.66112
-5.5461
-5.42915
-5.31031
-5.18962
-5.06713
-4.94288
-4.81689
-4.68922
-4.55989
-4.42894
-4.2964
-4.1623
-4.02666
-3.88951
-3.75087
-3.61076
-3.46919
-3.32618
-3.18175
-3.03589
-2.88861
-2.73993
-2.58982
-2.4383
-2.28536
-2.13098
-1.97516
-1.81788
-1.65913
-1.49889
-1.33714
-1.17386
-1.00903
-0.842627
-0.67462
-0.504982
-0.333684
-0.160697
0.0140076
0.190457
0.368679
0.548698
0.730539
0.914221
1.09976
1.28718
1.47649
1.66769
1.86078
2.05577
2.25265
2.4514
2.65201
2.85446
3.05873
3.26477
3.47255
3.68202
3.89313
4.10584
4.32005
4.53571
4.75272
4.97098
5.19038
5.4108
5.63213
5.85422
6.07692
6.3001
6.52359
6.74723
6.97085
7.19429
7.41735
7.63983
7.86154
8.08225
8.30177
8.51988
8.73636
8.95097
9.16347
9.37364
9.58123
9.78602
9.98777
10.1863
10.3812
10.5727
10.7596
10.9442
11.1187
11.304
11.4367
-7.14778
-7.14729
-7.14806
-7.15019
-7.15313
-7.15651
-7.15978
-7.16297
-7.16608
-7.16905
-7.17185
-7.17446
-7.17683
-7.17895
-7.18076
-7.18225
-7.18337
-7.18412
-7.18445
-7.18435
-7.18382
-7.18284
-7.18142
-7.17954
-7.17723
-7.17451
-7.17144
-7.16809
-7.16456
-7.16096
-7.15747
-7.15424
-7.15128
-7.14839
-7.14546
-7.1427
-7.14069
-7.14019
-7.14095
-7.14241
-7.14487
-7.14884
-7.15448
-7.16163
-7.17008
-7.1798
-7.19079
-7.20306
-7.21649
-7.2308
-7.24567
-7.26097
-7.27677
-7.29314
-7.3101
-7.32763
-7.34574
-7.36444
-7.38373
-7.40363
-7.42414
-7.44528
-7.46703
-7.48938
-7.51231
-7.53578
-7.55974
-7.58416
-7.60899
-7.63418
-7.65968
-7.68545
-7.71143
-7.7376
-7.76391
-7.79031
-7.81679
-7.84329
-7.86979
-7.89625
-7.92265
-7.94893
-7.97509
-8.00106
-8.02683
-8.05234
-8.07756
-8.10244
-8.12693
-8.15098
-8.17454
-8.19755
-8.21995
-8.24168
-8.26267
-8.28286
-8.30217
-8.32053
-8.33787
-8.35411
-8.36917
-8.38299
-8.39547
-8.40656
-8.41617
-8.42423
-8.43068
-8.43544
-8.43846
-8.43966
-8.43901
-8.43643
-8.43187
-8.4253
-8.41665
-8.40589
-8.39297
-8.37785
-8.3605
-8.34089
-8.31898
-8.29475
-8.26815
-8.23918
-8.20779
-8.17398
-8.13771
-8.09897
-8.05774
-8.01401
-7.96775
-7.91896
-7.86763
-7.81375
-7.75732
-7.69833
-7.63678
-7.57268
-7.50604
-7.43685
-7.36514
-7.2909
-7.21415
-7.13491
-7.05323
-6.96912
-6.8826
-6.79371
-6.70247
-6.60891
-6.51305
-6.41493
-6.31459
-6.21206
-6.10736
-6.00055
-5.89166
-5.78072
-5.66778
-5.55288
-5.43605
-5.31734
-5.19679
-5.07445
-4.95035
-4.82453
-4.69704
-4.5679
-4.43715
-4.30483
-4.17095
-4.03556
-3.89866
-3.76029
-3.62046
-3.47919
-3.33649
-3.19237
-3.04685
-2.89992
-2.75159
-2.60185
-2.45071
-2.29816
-2.14419
-1.98878
-1.83193
-1.67361
-1.51382
-1.35252
-1.1897
-1.02534
-0.859413
-0.691885
-0.52273
-0.351919
-0.17942
-0.00520564
0.170754
0.348488
0.528021
0.709378
0.892582
1.07765
1.2646
1.45345
1.6442
1.83685
2.03141
2.22786
2.4262
2.62641
2.82846
3.03235
3.23802
3.44545
3.65458
3.86537
4.07775
4.29167
4.50704
4.72376
4.94176
5.16092
5.38111
5.60222
5.82411
6.04661
6.2696
6.49293
6.71642
6.93992
7.16325
7.38622
7.60864
7.8303
8.051
8.27053
8.48867
8.7052
8.9199
9.13251
9.34282
9.55056
9.75553
9.95745
10.1561
10.3512
10.5428
10.7295
10.9139
11.0876
11.2727
11.4014
-7.15003
-7.14982
-7.15102
-7.15339
-7.15633
-7.15947
-7.16252
-7.16552
-7.16846
-7.1713
-7.17401
-7.17654