/*--------------------------------*- C++ -*----------------------------------*\
| =========                 |                                                 |
| \\      /  F ield         | OpenFOAM: The Open Source CFD Toolbox           |
|  \\    /   O peration     | Version:  2.4.0                                 |
|   \\  /    A nd           | Web:      www.OpenFOAM.org                      |
|    \\/     M anipulation  |                                                 |
\*---------------------------------------------------------------------------*/
FoamFile
{
    version     2.0;
    format      ascii;
    class       volScalarField;
    location    "1.04";
    object      pPrime2Mean;
}
// * * * * * * * * * * * * * * * * * * * * * * * * * * * * * * * * * * * * * //

dimensions      [0 4 -4 0 0 0 0];

internalField   nonuniform List<scalar> 
2320
(
1679.14
1636.48
1592.02
1548.2
1504.95
1462.4
1420.39
1379.11
1338.35
1298.37
1258.89
1220.27
1182.1
1144.89
1108.09
1072.4
1037.07
1003.01
969.208
936.845
1679.15
1636.49
1592.03
1548.21
1504.96
1462.4
1420.4
1379.12
1338.36
1298.37
1258.9
1220.27
1182.09
1144.86
1108.08
1072.38
1037.04
1002.96
969.169
936.805
1679.15
1636.48
1592.02
1548.19
1504.94
1462.39
1420.38
1379.07
1338.32
1298.32
1258.85
1220.19
1182.01
1144.77
1107.97
1072.22
1036.89
1002.78
969.008
936.599
1679.14
1636.47
1592
1548.18
1504.93
1462.37
1420.35
1379.04
1338.29
1298.28
1258.8
1220.12
1181.94
1144.65
1107.84
1072.06
1036.72
1002.56
968.791
936.359
1679.13
1636.45
1591.99
1548.15
1504.91
1462.33
1420.32
1379
1338.25
1298.21
1258.73
1220.01
1181.82
1144.5
1107.68
1071.82
1036.48
1002.25
968.51
936.049
1679.13
1636.44
1591.98
1548.14
1504.89
1462.3
1420.3
1378.96
1338.2
1298.14
1258.65
1219.89
1181.69
1144.31
1107.47
1071.54
1036.18
1001.87
968.145
935.629
1679.12
1636.42
1591.96
1548.12
1504.87
1462.27
1420.26
1378.91
1338.15
1298.07
1258.57
1219.76
1181.56
1144.09
1107.24
1071.2
1035.83
1001.41
967.692
935.116
1679.11
1636.4
1591.94
1548.09
1504.84
1462.23
1420.23
1378.86
1338.1
1297.99
1258.48
1219.63
1181.42
1143.87
1107.01
1070.86
1035.47
1000.89
967.207
934.513
1679.09
1636.38
1591.93
1548.07
1504.82
1462.2
1420.2
1378.82
1338.06
1297.91
1258.41
1219.51
1181.28
1143.65
1106.75
1070.47
1035.06
1000.3
966.617
933.769
1679.08
1636.37
1591.91
1548.05
1504.81
1462.17
1420.18
1378.78
1338.01
1297.85
1258.33
1219.39
1181.13
1143.43
1106.5
1070.11
1034.62
999.707
966.007
932.98
1679.07
1636.35
1591.9
1548.03
1504.79
1462.15
1420.15
1378.74
1337.97
1297.78
1258.25
1219.26
1180.98
1143.2
1106.22
1069.68
1034.14
998.984
965.241
932.037
1679.06
1636.33
1591.89
1548
1504.77
1462.12
1420.12
1378.7
1337.94
1297.72
1258.18
1219.15
1180.83
1142.98
1105.93
1069.29
1033.59
998.31
964.359
930.962
1679.04
1636.32
1591.88
1547.99
1504.75
1462.09
1420.09
1378.66
1337.9
1297.66
1258.1
1219.03
1180.67
1142.74
1105.61
1068.8
1033
997.399
963.415
929.575
1679.03
1636.3
1591.87
1547.97
1504.73
1462.07
1420.07
1378.64
1337.87
1297.63
1258.03
1218.94
1180.52
1142.55
1105.29
1068.41
1032.34
996.635
962.179
928.315
1679.02
1636.29
1591.86
1547.95
1504.7
1462.04
1420.04
1378.61
1337.85
1297.58
1257.98
1218.85
1180.38
1142.34
1104.99
1067.93
1031.66
995.55
960.809
926.147
1679.02
1636.28
1591.85
1547.94
1504.68
1462.01
1420.01
1378.61
1337.84
1297.57
1257.92
1218.79
1180.24
1142.2
1104.69
1067.59
1030.94
994.691
959.111
924.243
1679.01
1636.28
1591.85
1547.92
1504.66
1461.98
1419.99
1378.6
1337.85
1297.54
1257.89
1218.73
1180.15
1142.03
1104.49
1067.25
1030.42
993.744
957.406
921.176
1679.01
1636.27
1591.85
1547.9
1504.64
1461.95
1419.97
1378.62
1337.84
1297.53
1257.86
1218.7
1180.06
1141.93
1104.29
1066.96
1029.92
993.121
955.938
918.543
1679.02
1636.27
1591.85
1547.89
1504.65
1461.96
1419.94
1378.62
1337.85
1297.49
1257.86
1218.69
1180.03
1141.83
1104.2
1066.78
1029.52
992.435
954.557
915.728
1679.02
1636.28
1591.86
1547.88
1504.62
1461.94
1419.93
1378.57
1337.79
1297.46
1257.82
1218.65
1179.99
1141.83
1104.16
1066.73
1029.47
992.314
954.055
914.357
904.584
873.785
843.081
813.323
784.025
755.139
726.706
698.614
904.572
873.769
843.079
813.37
784.095
755.264
726.828
698.751
904.408
873.598
842.955
813.33
784.023
755.228
726.829
698.756
904.222
873.436
842.829
813.303
784.039
755.333
726.955
698.891
903.971
873.226
842.674
813.27
784.037
755.415
727.077
699.042
903.648
872.942
842.485
813.239
784.045
755.586
727.279
699.286
903.203
872.579
842.269
813.155
784.063
755.766
727.52
699.571
902.733
872.112
842.019
813.102
784.127
755.996
727.816
699.934
902.104
871.494
841.654
813.001
784.251
756.304
728.2
700.399
901.471
870.804
841.178
812.644
784.331
756.671
728.696
701.003
900.645
870.028
840.847
812.293
784.413
757.127
729.347
701.768
899.624
868.986
840.396
811.932
784.548
757.672
730.175
702.721
898.375
867.549
839.67
811.543
784.779
758.335
731.226
703.922
896.925
865.818
838.617
811.138
785.157
759.198
732.558
705.42
895.23
863.784
837.238
810.687
785.674
760.361
734.287
707.286
892.88
861.369
835.516
810.16
786.323
761.88
736.544
709.631
889.264
858.328
833.424
809.548
787.105
763.798
739.49
712.642
883.795
854.364
830.947
808.859
788.033
766.19
743.28
716.688
875.943
849.208
828.109
808.132
789.145
769.118
748.126
722.396
864.984
842.941
825.077
807.595
790.551
772.604
754.151
731.181
670.945
643.7
617.051
590.945
565.624
541.114
517.472
494.788
472.99
452.093
431.882
412.228
392.879
373.597
354.186
334.503
314.527
294.268
273.984
253.78
233.997
214.681
196.086
178.002
160.546
143.326
126.213
108.413
671.072
643.82
617.171
591.062
565.731
541.215
517.586
494.902
473.138
452.263
432.092
412.472
393.146
373.903
354.49
334.818
314.805
294.553
274.194
254.012
234.143
214.895
196.207
178.237
160.729
143.77
126.887
109.951
671.073
643.835
617.164
591.098
565.774
541.267
517.705
495.055
473.371
452.547
432.466
412.908
393.68
374.474
355.112
335.438
315.439
295.127
274.763
254.477
234.623
215.289
196.655
178.636
161.297
144.463
128.084
112.096
671.207
643.984
617.264
591.212
565.884
541.408
517.917
495.332
473.749
453.035
433.09
413.646
394.532
375.396
356.088
336.424
316.376
296.019
275.537
255.195
235.231
215.875
197.194
179.247
161.989
145.419
129.512
114.385
671.365
644.136
617.394
591.337
566.03
541.597
518.19
495.707
474.263
453.689
433.922
414.647
395.688
376.647
357.415
337.751
317.682
297.24
276.652
256.185
236.118
216.679
197.969
180.052
162.908
146.577
131.082
116.629
671.606
644.367
617.6
591.523
566.242
541.874
518.562
496.226
474.954
454.597
435.047
415.995
397.194
378.303
359.145
339.496
319.344
298.789
278.035
257.426
237.211
217.679
198.905
181.005
163.951
147.836
132.69
118.755
671.901
644.641
617.848
591.759
566.502
542.223
519.017
496.848
475.769
455.662
436.351
417.53
398.928
380.189
361.103
341.449
321.246
300.543
279.64
258.836
238.479
218.818
199.998
182.09
165.131
149.177
134.319
120.75
672.274
644.98
618.159
592.05
566.816
542.628
519.539
497.558
476.698
456.879
437.815
419.242
400.861
382.282
363.282
343.612
323.327
302.441
281.379
260.362
239.831
220.032
201.144
183.231
166.34
150.531
135.901
122.587
672.744
645.389
618.522
592.379
567.168
543.068
520.113
498.342
477.74
458.221
439.399
421.071
402.868
384.428
365.47
345.8
325.396
304.359
283.118
261.891
241.187
221.255
202.29
184.382
167.527
151.852
137.373
124.271
673.315
645.878
618.941
592.751
567.574
543.554
520.747
499.186
478.861
459.592
440.98
422.839
404.76
386.454
367.543
347.821
327.29
306.146
284.754
263.276
242.446
222.385
203.371
185.462
168.646
153.09
138.718
125.775
674.002
646.472
619.434
593.181
568.019
544.071
521.412
500.035
479.966
460.873
442.4
424.363
406.36
388.151
369.286
349.509
328.842
307.614
286.095
264.432
243.502
223.331
204.298
186.403
169.634
154.193
139.908
127.089
674.84
647.182
620.009
593.672
568.486
544.587
522.01
500.822
480.962
461.983
443.561
425.556
407.599
389.412
370.521
350.741
330.039
308.733
287.064
265.305
244.341
224.083
205.058
187.191
170.48
155.131
140.916
128.222
675.862
648.025
620.679
594.195
568.957
545.04
522.513
501.484
481.743
462.774
444.347
426.299
408.297
390.137
371.276
351.345
330.607
309.381
287.613
265.79
244.834
224.589
205.592
187.77
171.142
155.901
141.745
129.155
677.123
649.033
621.425
594.763
569.421
545.405
522.851
501.912
482.219
463.24
444.683
426.578
408.548
390.303
371.484
351.571
330.718
309.527
287.739
265.98
245.018
224.863
205.909
188.164
171.625
156.48
142.415
129.924
678.623
650.19
622.239
595.341
569.855
545.665
523.027
502.065
482.338
463.264
444.605
426.337
408.313
390.068
371.145
351.205
330.449
309.267
287.502
265.853
244.955
224.919
206.043
188.382
171.952
156.883
142.924
130.506
680.43
651.472
623.03
595.823
570.119
545.743
522.943
501.894
482.134
462.924
444.047
425.8
407.691
389.484
370.541
350.564
329.827
308.717
287
265.487
244.686
224.795
206.008
188.456
172.133
157.154
143.296
130.955
682.576
652.806
623.769
596.22
570.29
545.663
522.778
501.512
481.601
462.359
443.411
425.086
406.987
388.751
369.788
349.778
329.084
308.021
286.421
265
244.311
224.564
205.886
188.416
172.21
157.301
143.558
131.292
684.986
654.015
624.256
596.404
570.248
545.459
522.426
501.051
480.958
461.606
442.6
424.33
406.21
387.96
368.976
349
328.295
307.269
285.801
264.501
243.911
224.275
205.687
188.33
172.196
157.364
143.727
131.506
687.515
655.168
624.658
596.472
570.061
545.195
522.142
500.604
480.463
460.993
441.991
423.709
405.619
387.301
368.278
348.307
327.671
306.637
285.249
264.014
243.573
224.007
205.504
188.208
172.154
157.377
143.831
131.631
689.611
655.64
624.832
596.442
569.887
544.975
521.892
500.339
480.107
460.626
441.597
423.319
405.256
386.898
367.844
347.943
327.295
306.245
284.923
263.753
243.373
223.836
205.379
188.132
172.106
157.377
143.873
131.668
87.4384
79.6223
73.5092
69.2548
65.9819
63.7531
62.2008
61.811
92.8875
83.3851
76.8243
71.9747
68.3218
65.6928
63.9928
63.0724
97.2281
87.1457
80.0149
74.7134
70.7463
67.6721
65.7465
64.123
100.811
90.6528
83.1432
77.3173
72.8587
69.1594
66.665
64.8823
103.829
93.6375
85.7426
79.5682
74.7289
70.929
67.7839
64.9196
106.455
96.356
88.3252
81.8842
76.6079
72.4007
68.7375
65.4807
108.771
98.7102
90.4239
83.6376
78.0509
73.4761
69.5516
65.8811
110.834
100.78
92.3855
85.4496
79.663
74.7174
70.3381
66.1279
112.657
102.61
94.1045
86.895
80.7498
75.4929
70.8937
66.6418
114.25
104.203
95.6009
88.2365
81.958
76.5079
71.5993
67.0529
115.615
105.565
96.9029
89.3788
82.8727
77.1591
72.0669
67.4116
116.785
106.723
98.0092
90.351
83.7246
77.875
72.6233
67.7933
117.747
107.701
98.9495
91.1839
84.4497
78.4223
73.0193
68.0549
118.537
108.514
99.7211
91.8821
85.059
78.9135
73.4147
68.3484
119.168
109.187
100.347
92.4677
85.5666
79.323
73.7284
68.5682
119.655
109.725
100.836
92.9468
85.9765
79.6627
73.9984
68.7748
120.026
110.153
101.216
93.3427
86.2982
79.9459
74.2165
68.9425
120.279
110.461
101.486
93.6259
86.5392
80.1654
74.3867
69.0857
120.444
110.665
101.659
93.8349
86.6963
80.3126
74.5144
69.1936
120.511
110.762
101.739
93.9228
86.7815
80.3933
74.5732
69.2472
64.0399
64.1336
62.2057
59.2261
56.3138
52.2135
46.334
40.8174
36.6882
32.1089
27.2406
22.289
17.457
12.9759
9.02805
5.81165
3.36593
1.70948
0.725539
0.128817
64.0752
63.4213
61.2721
58.3207
55.5738
51.7015
45.9786
40.547
36.4139
31.8568
27.0287
22.1263
17.341
12.8986
8.98535
5.78797
3.3574
1.69908
0.708635
0.104723
63.8291
62.8006
60.5672
57.6063
54.9073
51.1421
45.545
40.1846
36.0482
31.5243
26.7542
21.9158
17.1908
12.8018
8.93233
5.76305
3.34873
1.691
0.69587
0.0992009
63.8992
62.2775
59.8629
56.9206
54.199
50.5028
45.0511
39.7946
35.6793
31.1934
26.4798
21.7034
17.0424
12.7051
8.88367
5.73979
3.34332
1.68655
0.686006
0.0938726
63.3157
61.85
59.3661
56.3795
53.6202
49.9643
44.6331
39.4458
35.3259
30.8693
26.208
21.4931
16.8944
12.6109
8.83756
5.72126
3.34185
1.68533
0.679345
0.0908375
63.5216
61.5205
58.8533
55.8475
53.0283
49.3731
44.1583
39.057
34.9553
30.5376
25.9344
21.2817
16.7479
12.5209
8.79424
5.70774
3.34253
1.68708
0.67426
0.0887947
63.3312
61.1294
58.341
55.3389
52.4714
48.8213
43.7263
38.6971
34.6015
30.2182
25.667
21.0745
16.6045
12.4336
8.7537
5.69689
3.34626
1.69088
0.670607
0.0872688
63.2604
61.0329
58.1222
54.9673
51.9867
48.3003
43.2984
38.3356
34.2478
29.8981
25.3995
20.8698
16.4631
12.3504
8.71606
5.69096
3.35283
1.69704
0.668161
0.0859853
63.3102
60.6959
57.6643
54.4749
51.4265
47.7371
42.8423
37.9642
33.8886
29.5779
25.1336
20.6661
16.3235
12.2688
8.68124
5.68712
3.36175
1.70463
0.666624
0.0848619
63.3924
60.5033
57.4183
54.161
51.0186
47.2849
42.4643
37.6403
33.5573
29.273
24.878
20.4713
16.1899
12.1937
8.65151
5.68819
3.37413
1.71424
0.665961
0.0838435
63.6881
60.4775
57.1354
53.7419
50.4964
46.7433
42.0177
37.2761
33.2058
28.9589
24.6179
20.2725
16.0556
12.1184
8.62362
5.69071
3.38814
1.725
0.665874
0.0828933
63.7939
60.3812
56.847
53.3601
50.0406
46.2843
41.6539
36.9757
32.8954
28.6717
24.3764
20.09
15.9325
12.0524
8.60266
5.69884
3.40618
1.73798
0.666736
0.0820666
63.9265
60.3564
56.6998
53.0908
49.6496
45.8353
41.2616
36.6424
32.566
28.3729
24.1267
19.8999
15.8058
11.9855
8.58246
5.70772
3.42503
1.75169
0.667904
0.081263
64.0533
60.2688
56.4583
52.7392
49.2083
45.3815
40.8942
36.3466
32.2678
28.0988
23.8944
19.7253
15.692
11.9286
8.56974
5.72222
3.44805
1.76784
0.670103
0.0805858
64.1423
60.1921
56.2833
52.4858
48.8676
45.0032
40.568
36.0627
31.9738
27.8264
23.6648
19.5505
15.5783
11.8727
8.55916
5.73843
3.472
1.78447
0.67246
0.0799248
64.239
60.1298
56.1094
52.206
48.4882
44.5928
40.2298
35.7859
31.6923
27.5665
23.4456
19.385
15.4729
11.8238
8.55467
5.75965
3.49952
1.80323
0.675744
0.079363
64.3115
60.0612
55.9465
51.9652
48.168
44.2449
39.9383
35.5357
31.4288
27.3197
23.2355
19.2266
15.3732
11.78
8.55461
5.78393
3.52892
1.82287
0.679274
0.07884
64.3784
60.0072
55.8112
51.7457
47.8587
43.8961
39.6448
35.2891
31.1717
27.0797
23.0304
19.0724
15.2777
11.7407
8.55908
5.81241
3.56117
1.84415
0.683519
0.0783888
64.4167
59.9488
55.6741
51.5428
47.5796
43.5825
39.3818
35.0661
30.9352
26.855
22.8378
18.9287
15.1912
11.709
8.56959
5.84532
3.59557
1.8661
0.687926
0.077959
64.4326
59.8963
55.5881
51.4086
47.3797
43.3424
39.1699
34.8885
30.7482
26.6751
22.6814
18.8109
15.1209
11.6853
8.58149
5.87544
3.62597
1.88499
0.692099
0.0776519
0.644955
0.283993
0.637403
0.505184
0.16672
0.127236
0.037526
0.0232482
0.580581
0.706607
1.06496
1.02116
0.436223
0.455047
0.243227
0.202729
1.11069
1.08131
1.43135
1.49135
0.997475
0.928172
0.623007
0.550316
1.439
1.74861
2.22128
2.34118
1.81146
1.58311
1.18067
1.06096
2.20465
2.70634
3.08423
3.33978
2.80456
2.40091
1.90387
1.73293
3.14054
3.74054
4.2396
4.48696
3.9294
3.38647
2.79334
2.56018
4.31803
5.09088
5.50606
5.73391
5.18613
4.5294
3.82366
3.53629
5.63432
6.44908
6.89037
7.13968
6.54706
5.81202
4.99968
4.64928
7.10329
7.98502
8.37222
8.57208
7.99524
7.19821
6.28411
5.8839
8.64335
9.47868
9.79325
10.0882
9.49395
8.67759
7.67203
7.21531
10.2611
11.0346
11.3044
11.6078
11.0227
10.1906
9.11887
8.6256
11.8788
12.5448
12.6818
13.1049
12.5719
11.7902
10.6412
10.1004
13.5073
14.1049
14.2484
14.7317
14.1727
13.3859
12.1994
11.6247
15.1214
15.6605
15.6513
16.2247
15.7542
15.0244
13.8019
13.1835
16.7238
17.2356
17.286
17.9583
17.4031
16.6457
15.4121
14.7681
18.366
18.862
18.7848
19.4609
19.0603
18.29
17.051
16.3676
20.013
20.5374
20.4737
21.2308
20.7198
19.9196
18.6637
17.9675
21.6645
22.1937
22.0456
22.8052
22.4031
21.5565
20.322
19.5655
23.3435
23.8779
23.7799
24.533
24.1484
23.2299
21.9578
21.1536
25.0694
25.6156
25.5135
26.2822
25.8906
24.8733
23.6041
22.7256
26.7821
27.3835
27.4184
28.057
27.6704
26.5456
25.1848
24.2735
28.4877
29.1234
29.2367
29.8447
29.4049
28.1273
26.7052
25.7882
30.1584
30.8401
31.0956
31.6408
31.0746
29.7201
28.162
27.2734
31.7663
32.4672
32.8834
33.2911
32.7111
31.1994
29.6002
28.735
33.3096
34.0147
34.5551
34.9718
34.2121
32.7035
31.0271
30.1844
34.8154
35.5223
36.221
36.4856
35.7452
34.1559
32.451
31.6284
36.3319
36.9721
37.7444
37.9903
37.1701
35.5786
33.886
33.0808
37.9054
38.4467
39.3404
39.4349
38.5921
36.9999
35.3608
34.5595
39.6281
40.0242
40.9441
40.9253
40.034
38.4362
36.8574
36.0857
41.5326
41.7813
42.7192
42.5279
41.5198
39.8973
38.4137
37.6842
43.73
43.8383
44.7145
44.3552
43.0737
41.4683
40.0384
39.3785
46.151
46.2122
46.9127
46.3665
44.7472
43.1187
41.7958
41.1984
48.8212
48.928
49.3808
48.5587
46.5497
44.9672
43.6812
43.1579
51.7783
51.8893
51.9047
50.9153
48.5552
46.9117
45.7264
45.2606
54.9576
55.2088
54.6448
53.5581
50.6939
49.0354
47.9381
47.5093
58.6085
58.7097
57.6393
55.8939
52.9714
51.3008
50.2963
49.8787
62.7331
62.4633
60.3558
58.0657
55.3569
53.7094
52.7353
52.3079
67.6895
66.3497
63.6218
60.4842
57.8502
56.2125
55.2087
54.7167
72.9844
70.615
66.8049
63.2554
60.5328
58.8107
57.6974
57.0772
79.8764
75.7342
70.1233
66.2527
63.2683
61.4476
60.1284
59.4275
850.111
837.953
823.588
808.536
793.618
778.011
762.662
747.314
839.622
833.557
822.812
810.203
797.354
783.964
771.109
759.64
832.377
829.404
821.596
811.351
800.48
789.03
778.223
769.384
827.229
825.843
820.221
812.013
802.911
793.193
784.12
777.213
823.477
822.932
818.88
812.354
804.804
796.605
789.024
783.529
820.697
820.59
817.655
812.478
806.248
799.376
793.055
788.686
818.609
818.728
816.586
812.474
807.349
801.627
796.399
792.869
817.024
817.247
815.674
812.402
808.195
803.458
799.126
796.304
815.814
816.073
814.911
812.297
808.862
804.942
801.399
799.089
814.882
815.143
814.281
812.188
809.386
806.162
803.242
801.398
814.165
814.408
813.764
812.084
809.809
807.15
804.782
803.275
813.614
813.831
813.351
811.994
810.148
807.958
806.021
804.808
813.19
813.377
813.019
811.92
810.431
808.625
807.063
806.063
812.866
813.023
812.76
811.864
810.662
809.183
807.907
807.108
812.617
812.746
812.554
811.82
810.856
809.634
808.618
807.961
812.434
812.535
812.398
811.791
811.021
810.01
809.187
808.65
812.299
812.374
812.284
811.774
811.164
810.325
809.68
809.234
812.204
812.259
812.203
811.772
811.292
810.592
810.07
809.709
812.144
812.173
812.147
811.774
811.404
810.818
810.418
810.111
812.112
812.121
812.119
811.788
811.505
811.001
810.686
810.438
812.102
812.089
812.108
811.807
811.602
811.169
810.933
810.711
812.118
812.081
812.118
811.834
811.687
811.308
811.131
810.954
812.144
812.086
812.141
811.865
811.774
811.43
811.304
811.141
812.194
812.11
812.178
811.901
811.853
811.538
811.451
811.315
812.254
812.146
812.231
811.941
811.932
811.633
811.58
811.449
812.336
812.194
812.294
811.988
812.006
811.719
811.69
811.579
812.433
812.255
812.37
812.037
812.083
811.796
811.787
811.679
812.551
812.329
812.461
812.097
812.155
811.87
811.87
811.773
812.689
812.415
812.562
812.161
812.234
811.938
811.945
811.849
812.856
812.523
812.68
812.236
812.305
812.006
812.005
811.917
813.055
812.646
812.815
812.326
812.388
812.075
812.063
811.969
813.294
812.793
812.963
812.428
812.46
812.148
812.11
812.018
813.578
812.962
813.128
812.545
812.542
812.215
812.154
812.05
813.919
813.156
813.304
812.677
812.619
812.29
812.19
812.071
814.326
813.371
813.493
812.83
812.702
812.355
812.221
812.075
814.83
813.62
813.698
813.008
812.79
812.427
812.243
812.069
815.506
813.923
813.927
813.219
812.9
812.502
812.269
812.052
816.561
814.402
814.208
813.472
813.04
812.603
812.307
812.008
818.305
815.161
814.548
813.754
813.212
812.724
812.364
811.841
820.951
816.244
814.896
814.009
813.396
812.889
812.451
811.669
)
;

boundaryField
{
    wall
    {
        type            calculated;
        value           nonuniform List<scalar> 
312
(
1679.02
1636.28
1591.86
1547.88
1504.62
1461.94
1419.93
1378.57
1337.79
1297.46
1257.82
1218.65
1179.99
1141.83
1104.16
1066.73
1029.47
992.314
954.055
914.357
850.111
839.622
832.377
827.229
823.477
820.697
818.609
817.024
815.814
814.882
814.165
813.614
813.19
812.866
812.617
812.434
812.299
812.204
812.144
812.112
812.102
812.118
812.144
812.194
812.254
812.336
812.433
812.551
812.689
812.856
813.055
813.294
813.578
813.919
814.326
814.83
815.506
816.561
818.305
820.951
747.314
759.64
769.384
777.213
783.529
788.686
792.869
796.304
799.089
801.398
803.275
804.808
806.063
807.108
807.961
808.65
809.234
809.709
810.111
810.438
810.711
810.954
811.141
811.315
811.449
811.579
811.679
811.773
811.849
811.917
811.969
812.018
812.05
812.071
812.075
812.069
812.052
812.008
811.841
811.669
689.611
655.64
624.832
596.442
569.887
544.975
521.892
500.339
480.107
460.626
441.597
423.319
405.256
386.898
367.844
347.943
327.295
306.245
284.923
263.753
243.373
223.836
205.379
188.132
172.106
157.377
143.873
131.668
120.511
110.762
101.739
93.9228
86.7815
80.3933
74.5732
69.2472
64.4326
59.8963
55.5881
51.4086
47.3797
43.3424
39.1699
34.8885
30.7482
26.6751
22.6814
18.8109
15.1209
11.6853
8.58149
5.87544
3.62597
1.88499
0.692099
0.0776519
64.0399
64.1336
62.2057
59.2261
56.3138
52.2135
46.334
40.8174
36.6882
32.1089
27.2406
22.289
17.457
12.9759
9.02805
5.81165
3.36593
1.70948
0.725539
0.128817
0.0232482
0.202729
0.550316
1.06096
1.73293
2.56018
3.53629
4.64928
5.8839
7.21531
8.6256
10.1004
11.6247
13.1835
14.7681
16.3676
17.9675
19.5655
21.1536
22.7256
24.2735
25.7882
27.2734
28.735
30.1844
31.6284
33.0808
34.5595
36.0857
37.6842
39.3785
41.1984
43.1579
45.2606
47.5093
49.8787
52.3079
54.7167
57.0772
59.4275
0.644955
0.580581
1.11069
1.439
2.20465
3.14054
4.31803
5.63432
7.10329
8.64335
10.2611
11.8788
13.5073
15.1214
16.7238
18.366
20.013
21.6645
23.3435
25.0694
26.7821
28.4877
30.1584
31.7663
33.3096
34.8154
36.3319
37.9054
39.6281
41.5326
43.73
46.151
48.8212
51.7783
54.9576
58.6085
62.7331
67.6895
72.9844
79.8764
670.945
643.7
617.051
590.945
565.624
541.114
517.472
494.788
472.99
452.093
431.882
412.228
392.879
373.597
354.186
334.503
314.527
294.268
273.984
253.78
233.997
214.681
196.086
178.002
160.546
143.326
126.213
108.413
904.584
873.785
843.081
813.323
784.025
755.139
726.706
698.614
1679.14
1636.48
1592.02
1548.2
1504.95
1462.4
1420.39
1379.11
1338.35
1298.37
1258.89
1220.27
1182.1
1144.89
1108.09
1072.4
1037.07
1003.01
969.208
936.845
)
;
    }
    inlet1
    {
        type            calculated;
        value           nonuniform List<scalar> 
20
(
1679.14
1679.15
1679.15
1679.14
1679.13
1679.13
1679.12
1679.11
1679.09
1679.08
1679.07
1679.06
1679.04
1679.03
1679.02
1679.02
1679.01
1679.01
1679.02
1679.02
)
;
    }
    inlet2
    {
        type            calculated;
        value           nonuniform List<scalar> 8(820.951 816.244 814.896 814.009 813.396 812.889 812.451 811.669);
    }
    outlet1
    {
        type            calculated;
        value           uniform 0;
    }
    outlet2
    {
        type            calculated;
        value           nonuniform List<scalar> 8(0.618826 0 0.632151 0.460316 0.0696557 0.0612875 0 0);
    }
    defaultFaces
    {
        type            empty;
    }
}


// ************************************************************************* //
