/*--------------------------------*- C++ -*----------------------------------*\
| =========                 |                                                 |
| \\      /  F ield         | OpenFOAM: The Open Source CFD Toolbox           |
|  \\    /   O peration     | Version:  2.4.0                                 |
|   \\  /    A nd           | Web:      www.OpenFOAM.org                      |
|    \\/     M anipulation  |                                                 |
\*---------------------------------------------------------------------------*/
FoamFile
{
    version     2.0;
    format      ascii;
    class       volVectorField;
    location    "1.04";
    object      UMean;
}
// * * * * * * * * * * * * * * * * * * * * * * * * * * * * * * * * * * * * * //

dimensions      [0 1 -1 0 0 0 0];

internalField   nonuniform List<vector> 
2320
(
(0.852698 0.00144639 0)
(1.04388 -0.00199206 0)
(0.841709 -0.00314225 0)
(1.05444 -0.00729038 0)
(0.842959 -0.00238057 0)
(1.05801 -0.00582175 0)
(0.83969 -0.00392511 0)
(1.06166 -0.0104007 0)
(0.843554 -0.00624848 0)
(1.06417 -0.00905083 0)
(0.840636 -0.00681308 0)
(1.07063 -0.0113565 0)
(0.839987 -0.00979169 0)
(1.08158 -0.0135815 0)
(0.835557 -0.0157252 0)
(1.10595 -0.0183065 0)
(0.839289 -0.0200469 0)
(1.13752 -0.0305773 0)
(0.870402 -0.0265189 0)
(1.18797 -0.0412442 0)
(0.947688 0.00373984 0)
(0.9492 -0.00128424 0)
(0.952309 0.00360458 0)
(0.956805 -0.00381035 0)
(0.949265 0.00659991 0)
(0.965381 -0.00485774 0)
(0.947505 0.00975066 0)
(0.976277 -0.00462694 0)
(0.950926 0.0124415 0)
(0.980269 -0.00492153 0)
(0.957075 0.0129764 0)
(0.990488 -0.00646701 0)
(0.959519 0.0164957 0)
(0.994828 -0.00746458 0)
(0.968683 0.0196135 0)
(1.00409 -0.0120202 0)
(0.98958 0.0226258 0)
(1.02041 -0.0189662 0)
(1.02001 0.0226939 0)
(1.07141 -0.0213487 0)
(0.98867 0.00789783 0)
(0.905809 -0.00717053 0)
(0.995895 0.00548078 0)
(0.909871 -0.0111541 0)
(0.997365 0.0059948 0)
(0.913305 -0.0124569 0)
(1.00193 0.00719633 0)
(0.921472 -0.0174298 0)
(1.00786 0.00757638 0)
(0.927486 -0.0202055 0)
(1.01633 0.00955 0)
(0.928285 -0.021378 0)
(1.02547 0.0112611 0)
(0.932816 -0.0296953 0)
(1.03418 0.00968088 0)
(0.937237 -0.0425292 0)
(1.04799 0.00810632 0)
(0.950166 -0.0593819 0)
(1.07436 -0.00649723 0)
(0.99286 -0.0832068 0)
(0.995294 0.0100466 0)
(0.899558 -0.0102075 0)
(1.00009 0.00916388 0)
(0.902399 -0.0141986 0)
(1.00741 0.0106146 0)
(0.905847 -0.0166915 0)
(1.01708 0.013154 0)
(0.90799 -0.0216717 0)
(1.02425 0.0173496 0)
(0.913801 -0.0241658 0)
(1.03407 0.0216066 0)
(0.91919 -0.0289003 0)
(1.04792 0.0259599 0)
(0.934051 -0.0350044 0)
(1.06296 0.0315946 0)
(0.952688 -0.0475741 0)
(1.09027 0.0310716 0)
(0.986618 -0.0666875 0)
(1.13117 0.0175325 0)
(1.03586 -0.0927086 0)
(0.979129 0.0155122 0)
(0.915594 -0.0161627 0)
(0.981675 0.0131119 0)
(0.916256 -0.0231173 0)
(0.987654 0.0146918 0)
(0.917417 -0.0247656 0)
(0.989438 0.017637 0)
(0.915284 -0.0296532 0)
(0.99275 0.0200406 0)
(0.918112 -0.0345694 0)
(0.998913 0.0225704 0)
(0.921167 -0.0402297 0)
(1.00611 0.0244721 0)
(0.922997 -0.0515181 0)
(1.01709 0.0247882 0)
(0.935977 -0.0708474 0)
(1.03041 0.0217413 0)
(0.959334 -0.0976806 0)
(1.05289 0.00583828 0)
(1.0039 -0.139357 0)
(0.987973 0.0155496 0)
(0.910616 -0.0182206 0)
(0.99253 0.0116745 0)
(0.906549 -0.0247915 0)
(0.994566 0.0124733 0)
(0.90705 -0.0266167 0)
(1.00049 0.0169545 0)
(0.914844 -0.0330514 0)
(1.00942 0.0181699 0)
(0.918942 -0.0392933 0)
(1.01955 0.0243929 0)
(0.921728 -0.04471 0)
(1.034 0.0281026 0)
(0.926433 -0.0554064 0)
(1.05356 0.0307508 0)
(0.932596 -0.0754582 0)
(1.08498 0.0271331 0)
(0.947013 -0.104708 0)
(1.12681 0.00719438 0)
(0.979136 -0.145847 0)
(0.958313 0.021707 0)
(0.942817 -0.02228 0)
(0.965142 0.0230025 0)
(0.940002 -0.0276466 0)
(0.966091 0.0227465 0)
(0.937625 -0.03302 0)
(0.977926 0.0243093 0)
(0.950989 -0.0392925 0)
(0.987776 0.0296632 0)
(0.954498 -0.0453928 0)
(0.996462 0.0338741 0)
(0.9646 -0.0545476 0)
(1.00949 0.0376001 0)
(0.974826 -0.0688687 0)
(1.02727 0.0385072 0)
(0.988385 -0.0938086 0)
(1.05478 0.0337889 0)
(1.00502 -0.126905 0)
(1.10119 0.0105976 0)
(1.02991 -0.180721 0)
(0.945618 0.0160193 0)
(0.958177 -0.021746 0)
(0.957304 0.0148427 0)
(0.961561 -0.0265213 0)
(0.969594 0.0123095 0)
(0.964662 -0.0332692 0)
(0.981165 0.0107988 0)
(0.965094 -0.0395338 0)
(0.991752 0.0159984 0)
(0.969364 -0.0456314 0)
(1.00632 0.0189634 0)
(0.974083 -0.0543378 0)
(1.02248 0.0220509 0)
(0.983577 -0.0692001 0)
(1.04047 0.0239166 0)
(0.995046 -0.0959356 0)
(1.05991 0.0199574 0)
(1.01403 -0.136878 0)
(1.09278 0.00169039 0)
(1.03531 -0.199637 0)
(0.9329 0.023652 0)
(0.973069 -0.0302786 0)
(0.943912 0.0243726 0)
(0.979602 -0.0355105 0)
(0.95749 0.0239752 0)
(0.983994 -0.0412784 0)
(0.969526 0.0256275 0)
(0.9873 -0.0455878 0)
(0.982987 0.0291439 0)
(0.994572 -0.0529851 0)
(0.995633 0.0325838 0)
(1.0018 -0.0594157 0)
(1.00604 0.0326883 0)
(1.01325 -0.0730949 0)
(1.0184 0.03119 0)
(1.0278 -0.0979382 0)
(1.03404 0.020897 0)
(1.04549 -0.14009 0)
(1.06296 -0.00403357 0)
(1.06746 -0.214742 0)
(0.9238 0.0117162 0)
(0.980967 -0.021354 0)
(0.930911 0.00688499 0)
(0.983844 -0.02778 0)
(0.941234 0.00407463 0)
(0.989369 -0.0314977 0)
(0.954298 0.00316944 0)
(0.999095 -0.0356796 0)
(0.971641 0.00350729 0)
(1.00771 -0.0405498 0)
(0.981904 0.0054635 0)
(1.01331 -0.046903 0)
(0.995042 0.00356344 0)
(1.0171 -0.0604033 0)
(1.00444 0.00233972 0)
(1.02947 -0.0846755 0)
(1.01144 -0.00323641 0)
(1.04284 -0.129673 0)
(1.01107 -0.0171448 0)
(1.06299 -0.215488 0)
(0.926907 0.0235531 0)
(0.983344 -0.0335409 0)
(0.926317 0.0200081 0)
(0.984948 -0.0412962 0)
(0.931083 0.0178413 0)
(0.989435 -0.0480528 0)
(0.947308 0.0160499 0)
(0.999782 -0.0524436 0)
(0.963242 0.0190698 0)
(1.00343 -0.0553431 0)
(0.968973 0.0226716 0)
(1.00619 -0.0608742 0)
(0.97063 0.0232321 0)
(1.00576 -0.0717168 0)
(0.976697 0.0143019 0)
(1.01039 -0.0923981 0)
(0.983894 4.63949e-05 0)
(1.00738 -0.129411 0)
(1.00071 -0.0345388 0)
(0.994954 -0.201416 0)
(0.943949 0.00350689 0)
(0.964722 -0.0106661 0)
(0.941235 -0.00201534 0)
(0.975783 -0.0188953 0)
(0.939093 -0.00687125 0)
(0.992723 -0.0266372 0)
(0.9477 -0.0125234 0)
(1.00691 -0.0268862 0)
(0.951592 -0.0120208 0)
(1.01777 -0.0260517 0)
(0.951736 -0.0127266 0)
(1.02865 -0.0282871 0)
(0.942088 -0.015983 0)
(1.04385 -0.0388908 0)
(0.932138 -0.0246853 0)
(1.05961 -0.0552001 0)
(0.909732 -0.0322638 0)
(1.07153 -0.0977579 0)
(0.879845 -0.0418347 0)
(1.07148 -0.202886 0)
(0.979195 0.0211775 0)
(0.926835 -0.0301172 0)
(0.986189 0.0121999 0)
(0.928608 -0.0415644 0)
(0.989538 0.00758133 0)
(0.943296 -0.050554 0)
(0.995339 0.00445393 0)
(0.957506 -0.0522312 0)
(1.00006 0.0083258 0)
(0.970203 -0.0515111 0)
(1.00241 0.012025 0)
(0.977738 -0.053121 0)
(0.995292 0.00896278 0)
(0.987147 -0.0645032 0)
(0.981855 -0.00410743 0)
(1.00645 -0.0773592 0)
(0.952811 -0.0201976 0)
(1.03033 -0.1114 0)
(0.873828 -0.0472995 0)
(1.05677 -0.219349 0)
(0.976567 -0.00259755 0)
(0.927127 -0.00454241 0)
(0.980879 -0.0127621 0)
(0.922787 -0.012652 0)
(0.984617 -0.0232279 0)
(0.934422 -0.0197107 0)
(0.995959 -0.0311892 0)
(0.949473 -0.0157747 0)
(1.00808 -0.0328736 0)
(0.958325 -0.0103934 0)
(1.01206 -0.034033 0)
(0.954426 -0.00427611 0)
(1.00735 -0.0406137 0)
(0.952124 -0.00512599 0)
(1.00738 -0.0597322 0)
(0.963683 -0.00276367 0)
(1.00058 -0.0827211 0)
(0.973236 -0.00562548 0)
(0.952439 -0.106335 0)
(0.973331 -0.0470738 0)
(0.994407 0.0216629 0)
(0.911794 -0.0303152 0)
(0.999532 0.0141215 0)
(0.908318 -0.0424172 0)
(1.00534 0.0030623 0)
(0.923807 -0.0565498 0)
(1.02082 -0.00202587 0)
(0.9444 -0.058538 0)
(1.03581 0.0032091 0)
(0.951746 -0.0534364 0)
(1.03957 0.0128101 0)
(0.944626 -0.0546114 0)
(1.04165 0.00858421 0)
(0.942468 -0.0708647 0)
(1.04386 -0.0107258 0)
(0.957992 -0.0775668 0)
(1.03223 -0.0303525 0)
(0.983026 -0.0814348 0)
(0.98391 -0.0606042 0)
(1.01476 -0.135887 0)
(0.980979 -0.00838852 0)
(0.924558 0.00184072 0)
(0.985547 -0.0197697 0)
(0.920046 -0.00811519 0)
(0.995901 -0.0397977 0)
(0.932696 -0.0197325 0)
(1.01628 -0.0509979 0)
(0.951873 -0.0122787 0)
(1.02423 -0.0496364 0)
(0.957045 0.00417916 0)
(1.02355 -0.0428403 0)
(0.943041 0.0133183 0)
(1.02853 -0.0529852 0)
(0.90874 0.0151204 0)
(1.04083 -0.0867197 0)
(0.887893 0.0335961 0)
(1.05022 -0.134972 0)
(0.876394 0.0699471 0)
(1.02869 -0.180711 0)
(0.880318 0.149374 0)
(0.966836 0.021685 0)
(0.942406 -0.0322024 0)
(0.968036 0.015662 0)
(0.941187 -0.0502585 0)
(0.978323 -0.00238408 0)
(0.950433 -0.069524 0)
(0.991823 -0.00923438 0)
(0.952592 -0.0661105 0)
(0.998648 0.000267298 0)
(0.954135 -0.0563596 0)
(1.00666 0.0170735 0)
(0.941243 -0.062921 0)
(1.01091 0.0278055 0)
(0.904993 -0.0882222 0)
(1.03661 0.0132003 0)
(0.87601 -0.0975885 0)
(1.05374 -0.00673573 0)
(0.808595 -0.0816113 0)
(1.05493 -0.0852081 0)
(0.785288 -0.0593303 0)
(0.951995 -0.0150707 0)
(0.956343 0.0103198 0)
(0.949931 -0.0261588 0)
(0.958341 -0.00564162 0)
(0.952774 -0.0492522 0)
(0.954364 -0.0182679 0)
(0.935411 -0.0554856 0)
(0.943369 -0.0079432 0)
(0.932933 -0.0561089 0)
(0.938394 0.0155568 0)
(0.935828 -0.0426236 0)
(0.935203 0.0244545 0)
(0.930142 -0.0383388 0)
(0.94796 0.0100512 0)
(0.930808 -0.076026 0)
(0.945763 0.0271948 0)
(0.937945 -0.111689 0)
(0.88325 0.0982132 0)
(0.915593 -0.170946 0)
(0.703305 0.362496 0)
(0.963059 0.0190254 0)
(0.942455 -0.0279567 0)
(0.960777 0.01077 0)
(0.93354 -0.0511377 0)
(0.934465 -0.00500945 0)
(0.876655 -0.061575 0)
(0.876128 -0.00723875 0)
(0.833543 -0.0662785 0)
(0.828886 -0.0026297 0)
(0.795289 -0.0586988 0)
(0.814315 0.00985274 0)
(0.76508 -0.0606112 0)
(0.812054 0.0144098 0)
(0.778455 -0.0942291 0)
(0.742279 0.0178267 0)
(0.777801 -0.114607 0)
(0.676984 0.0372549 0)
(0.783906 -0.113764 0)
(0.773929 -0.035785 0)
(0.500272 -0.0344966 0)
(0.938801 -0.0180856 0)
(0.963014 0.0180383 0)
(0.926254 -0.025783 0)
(0.921287 0.0151168 0)
(0.853872 -0.0209202 0)
(0.860176 0.0174179 0)
(0.764758 -0.030508 0)
(0.775116 0.0239713 0)
(0.673744 -0.0338315 0)
(0.688849 0.0353853 0)
(0.623856 -0.0277057 0)
(0.638054 0.0375415 0)
(0.577931 -0.0398541 0)
(0.571678 0.0499627 0)
(0.47911 -0.0646264 0)
(0.47308 0.0626572 0)
(0.347375 -0.0951625 0)
(0.370657 0.0625117 0)
(0.169647 0.0230946 0)
(0.383926 0.422592 0)
(0.912479 -0.0410546 0)
(1.28074 -0.0589289 0)
(0.99984 -0.0582143 0)
(1.43573 -0.059848 0)
(1.12476 -0.0618918 0)
(1.62447 -0.0809701 0)
(1.34297 -0.080445 0)
(1.86392 -0.100841 0)
(1.07008 0.019271 0)
(1.172 -0.0298201 0)
(1.14581 0.00558441 0)
(1.32178 -0.0381448 0)
(1.28131 -0.0254911 0)
(1.50854 -0.0551511 0)
(1.48148 -0.0331911 0)
(1.74588 -0.0717277 0)
(1.13468 -0.0370619 0)
(1.0949 -0.115106 0)
(1.22209 -0.0820294 0)
(1.27568 -0.136025 0)
(1.33645 -0.120477 0)
(1.48987 -0.166836 0)
(1.50546 -0.161652 0)
(1.74641 -0.218379 0)
(1.20032 -0.0126021 0)
(1.10945 -0.11926 0)
(1.29946 -0.0633046 0)
(1.22911 -0.136169 0)
(1.44829 -0.130268 0)
(1.41344 -0.165033 0)
(1.65681 -0.178338 0)
(1.67709 -0.216036 0)
(1.09124 -0.0320329 0)
(1.09931 -0.190503 0)
(1.17193 -0.100707 0)
(1.26623 -0.229614 0)
(1.33336 -0.187023 0)
(1.46035 -0.265736 0)
(1.5884 -0.274766 0)
(1.66153 -0.327294 0)
(1.18891 -0.0393034 0)
(1.06069 -0.196877 0)
(1.27049 -0.123209 0)
(1.23753 -0.248086 0)
(1.37546 -0.217963 0)
(1.48204 -0.301798 0)
(1.52655 -0.299226 0)
(1.73762 -0.36864 0)
(1.17592 -0.0480712 0)
(1.08505 -0.248133 0)
(1.2786 -0.15584 0)
(1.21301 -0.309357 0)
(1.41464 -0.284475 0)
(1.38553 -0.353092 0)
(1.59635 -0.390868 0)
(1.71574 -0.45897 0)
(1.15588 -0.0514282 0)
(1.07394 -0.274706 0)
(1.26338 -0.161504 0)
(1.20862 -0.340179 0)
(1.33079 -0.280177 0)
(1.42992 -0.412206 0)
(1.63502 -0.461689 0)
(1.72939 -0.513591 0)
(1.12993 -0.0640897 0)
(1.08958 -0.320878 0)
(1.27866 -0.196815 0)
(1.10108 -0.365566 0)
(1.39724 -0.351134 0)
(1.49467 -0.522781 0)
(1.64449 -0.530573 0)
(1.78886 -0.616511 0)
(1.00935 -0.0606776 0)
(1.1213 -0.359695 0)
(1.08054 -0.151169 0)
(1.14912 -0.45678 0)
(1.50841 -0.45125 0)
(1.4751 -0.57496 0)
(1.67619 -0.589906 0)
(1.76649 -0.665828 0)
(1.0544 -0.11738 0)
(1.01824 -0.343643 0)
(1.06275 -0.18521 0)
(1.29875 -0.596836 0)
(1.52165 -0.484851 0)
(1.45547 -0.636601 0)
(1.67957 -0.641872 0)
(1.70885 -0.719477 0)
(0.917579 -0.0876438 0)
(0.990403 -0.34008 0)
(1.1994 -0.301496 0)
(1.33376 -0.667729 0)
(1.50099 -0.504501 0)
(1.42798 -0.702371 0)
(1.67219 -0.680314 0)
(1.58998 -0.729747 0)
(0.70467 -0.120089 0)
(1.09591 -0.475108 0)
(1.21511 -0.40829 0)
(1.34646 -0.728101 0)
(1.45031 -0.521669 0)
(1.41543 -0.776017 0)
(1.60241 -0.67457 0)
(1.43193 -0.732904 0)
(0.798258 -0.136043 0)
(1.14661 -0.536049 0)
(1.24608 -0.483703 0)
(1.31963 -0.737807 0)
(1.3868 -0.528317 0)
(1.37718 -0.8188 0)
(1.47675 -0.634216 0)
(1.33582 -0.771998 0)
(0.780926 -0.262281 0)
(1.17094 -0.644733 0)
(1.2297 -0.567806 0)
(1.25084 -0.747673 0)
(1.33204 -0.565443 0)
(1.30739 -0.845976 0)
(1.35699 -0.594669 0)
(1.25695 -0.840816 0)
(0.869427 -0.268717 0)
(1.15979 -0.648968 0)
(1.20495 -0.592745 0)
(1.18329 -0.724275 0)
(1.27901 -0.587057 0)
(1.20572 -0.828272 0)
(1.22764 -0.552871 0)
(1.22069 -0.92308 0)
(0.839479 -0.501684 0)
(1.12213 -0.737835 0)
(1.11203 -0.659832 0)
(1.10262 -0.734092 0)
(1.17996 -0.626 0)
(1.08278 -0.814324 0)
(1.15465 -0.575079 0)
(1.15439 -1.00244 0)
(0.871437 -0.503159 0)
(1.07061 -0.673896 0)
(1.03478 -0.638147 0)
(1.04529 -0.697259 0)
(1.09107 -0.62383 0)
(0.991415 -0.778504 0)
(1.07885 -0.584813 0)
(1.03993 -1.0111 0)
(0.797333 -0.822788 0)
(0.990674 -0.795118 0)
(0.921046 -0.718971 0)
(0.95919 -0.729806 0)
(0.961878 -0.660068 0)
(0.870362 -0.766481 0)
(0.976699 -0.6508 0)
(0.888271 -1.00303 0)
(0.805484 -0.775784 0)
(0.927365 -0.66495 0)
(0.832932 -0.647655 0)
(0.879771 -0.655208 0)
(0.826503 -0.621609 0)
(0.779931 -0.71348 0)
(0.805056 -0.635705 0)
(0.606565 -0.845447 0)
(1.6142 -0.0945131 0)
(2.15652 -0.115574 0)
(1.94584 -0.104929 0)
(2.50358 -0.126012 0)
(2.3534 -0.101356 0)
(2.88821 -0.113712 0)
(2.78082 -0.0937017 0)
(3.28901 -0.104462 0)
(3.21288 -0.08322 0)
(3.66259 -0.088791 0)
(3.59042 -0.0685025 0)
(3.96671 -0.0701205 0)
(3.86581 -0.0506591 0)
(4.15686 -0.0495266 0)
(4.00577 -0.0313295 0)
(4.2076 -0.0291748 0)
(3.99518 -0.013989 0)
(4.11677 -0.0123925 0)
(3.84011 -0.00100685 0)
(3.90234 -0.00162401 0)
(3.56698 0.00489932 0)
(3.60801 0.00215594 0)
(3.22393 0.00315894 0)
(3.2841 -0.00271145 0)
(2.87049 -0.00737519 0)
(2.98939 -0.0166852 0)
(2.58052 -0.0298111 0)
(2.80906 -0.0624895 0)
(1.74071 -0.0456951 0)
(2.0388 -0.0859702 0)
(2.06904 -0.0623638 0)
(2.38462 -0.108433 0)
(2.43555 -0.0884926 0)
(2.76989 -0.122474 0)
(2.84647 -0.106628 0)
(3.18273 -0.125923 0)
(3.25809 -0.106978 0)
(3.57838 -0.108426 0)
(3.62088 -0.0837097 0)
(3.90302 -0.0729273 0)
(3.88628 -0.0409943 0)
(4.10859 -0.023056 0)
(4.01629 0.0125961 0)
(4.16874 0.0330254 0)
(3.99743 0.0673431 0)
(4.07972 0.0856249 0)
(3.83438 0.115172 0)
(3.85939 0.126801 0)
(3.55625 0.148984 0)
(3.54641 0.151223 0)
(3.21333 0.16652 0)
(3.19331 0.157299 0)
(2.85982 0.165006 0)
(2.85586 0.137173 0)
(2.55107 0.138872 0)
(2.57081 0.0645638 0)
(1.747 -0.197955 0)
(2.05699 -0.26698 0)
(2.05502 -0.23346 0)
(2.42161 -0.30271 0)
(2.43482 -0.260976 0)
(2.8209 -0.313668 0)
(2.86437 -0.276407 0)
(3.23659 -0.30723 0)
(3.29435 -0.266238 0)
(3.62997 -0.268344 0)
(3.67128 -0.219199 0)
(3.95154 -0.198872 0)
(3.94021 -0.142087 0)
(4.15628 -0.108718 0)
(4.06644 -0.0496162 0)
(4.21611 -0.0125729 0)
(4.0402 0.0427264 0)
(4.12497 0.0743809 0)
(3.8693 0.120523 0)
(3.90003 0.138747 0)
(3.58567 0.173642 0)
(3.58248 0.170437 0)
(3.23605 0.196933 0)
(3.226 0.166304 0)
(2.87753 0.193189 0)
(2.88386 0.119787 0)
(2.55886 0.16143 0)
(2.59968 0.0115482 0)
(1.89797 -0.223088 0)
(2.00506 -0.267764 0)
(2.17687 -0.260352 0)
(2.3878 -0.321135 0)
(2.51233 -0.298748 0)
(2.82071 -0.358566 0)
(2.90895 -0.323531 0)
(3.26332 -0.358187 0)
(3.33131 -0.310253 0)
(3.66898 -0.311189 0)
(3.71649 -0.24753 0)
(3.98608 -0.218321 0)
(3.99831 -0.140699 0)
(4.17646 -0.0954727 0)
(4.1361 -0.0101065 0)
(4.22147 0.0371677 0)
(4.11454 0.121026 0)
(4.11993 0.159086 0)
(3.94493 0.233192 0)
(3.88771 0.251608 0)
(3.65718 0.310608 0)
(3.56507 0.303718 0)
(3.30198 0.345269 0)
(3.20372 0.309557 0)
(2.93262 0.335772 0)
(2.86189 0.266105 0)
(2.59316 0.278422 0)
(2.58902 0.163839 0)
(1.89205 -0.343982 0)
(1.93824 -0.388419 0)
(2.23359 -0.41026 0)
(2.31656 -0.459335 0)
(2.60972 -0.462685 0)
(2.77023 -0.510447 0)
(3.00988 -0.484796 0)
(3.24321 -0.516456 0)
(3.41563 -0.46041 0)
(3.66933 -0.455998 0)
(3.77366 -0.373595 0)
(3.99142 -0.332567 0)
(4.03368 -0.23392 0)
(4.1749 -0.168904 0)
(4.15627 -0.0651792 0)
(4.21044 0.00639397 0)
(4.12835 0.103616 0)
(4.10588 0.163888 0)
(3.95844 0.246528 0)
(3.87717 0.28267 0)
(3.67499 0.344112 0)
(3.55538 0.350044 0)
(3.32409 0.388116 0)
(3.18838 0.356889 0)
(2.9492 0.375739 0)
(2.83515 0.30417 0)
(2.59715 0.301173 0)
(2.5366 0.195556 0)
(1.82189 -0.381907 0)
(2.02909 -0.441793 0)
(2.22113 -0.473857 0)
(2.38469 -0.514975 0)
(2.64813 -0.544706 0)
(2.79052 -0.570997 0)
(3.06343 -0.573678 0)
(3.23002 -0.580485 0)
(3.44483 -0.534802 0)
(3.63372 -0.509707 0)
(3.75635 -0.418937 0)
(3.9403 -0.361104 0)
(3.96434 -0.2436 0)
(4.11407 -0.163797 0)
(4.04914 -0.0376564 0)
(4.14675 0.0472272 0)
(4.00733 0.166314 0)
(4.04939 0.237777 0)
(3.84719 0.337372 0)
(3.83989 0.381445 0)
(3.59218 0.457113 0)
(3.54657 0.464035 0)
(3.27198 0.511845 0)
(3.2115 0.478158 0)
(2.91675 0.494556 0)
(2.876 0.423386 0)
(2.56898 0.406014 0)
(2.56625 0.3053 0)
(1.86908 -0.487315 0)
(2.08849 -0.570962 0)
(2.22082 -0.59098 0)
(2.43791 -0.655342 0)
(2.60101 -0.671814 0)
(2.78601 -0.710478 0)
(3.00033 -0.710355 0)
(3.15736 -0.706602 0)
(3.35482 -0.661161 0)
(3.50622 -0.615038 0)
(3.62088 -0.518245 0)
(3.7692 -0.438231 0)
(3.7785 -0.309333 0)
(3.91156 -0.208633 0)
(3.82819 -0.0689738 0)
(3.92829 0.0325872 0)
(3.78041 0.164435 0)
(3.83433 0.249093 0)
(3.64271 0.359011 0)
(3.64797 0.412494 0)
(3.42708 0.496503 0)
(3.4006 0.51054 0)
(3.14848 0.561119 0)
(3.12548 0.535189 0)
(2.83368 0.548302 0)
(2.84327 0.483292 0)
(2.51675 0.459779 0)
(2.56621 0.356053 0)
(1.95527 -0.582314 0)
(2.06609 -0.626425 0)
(2.22803 -0.66317 0)
(2.3754 -0.706232 0)
(2.52818 -0.734893 0)
(2.71462 -0.775389 0)
(2.88304 -0.772134 0)
(3.03009 -0.763657 0)
(3.20414 -0.714417 0)
(3.29844 -0.651993 0)
(3.42673 -0.547649 0)
(3.48879 -0.450183 0)
(3.53892 -0.308866 0)
(3.58096 -0.194379 0)
(3.55928 -0.0410845 0)
(3.57897 0.0710372 0)
(3.50596 0.215456 0)
(3.49495 0.307763 0)
(3.38487 0.426714 0)
(3.345 0.489712 0)
(3.2003 0.572812 0)
(3.15383 0.599677 0)
(2.964 0.638795 0)
(2.94007 0.628106 0)
(2.70734 0.622011 0)
(2.70993 0.573198 0)
(2.45611 0.531985 0)
(2.46103 0.438317 0)
(1.92995 -0.657408 0)
(2.01268 -0.699715 0)
(2.15289 -0.738157 0)
(2.273 -0.794139 0)
(2.4507 -0.844693 0)
(2.59048 -0.88166 0)
(2.72916 -0.874293 0)
(2.85262 -0.861973 0)
(2.9676 -0.801315 0)
(3.03235 -0.723884 0)
(3.12486 -0.610199 0)
(3.13898 -0.496888 0)
(3.18192 -0.345523 0)
(3.17988 -0.220489 0)
(3.17033 -0.0587113 0)
(3.16888 0.060712 0)
(3.11195 0.21317 0)
(3.10776 0.310714 0)
(3.00662 0.438672 0)
(3.00174 0.511061 0)
(2.85773 0.595067 0)
(2.86407 0.634355 0)
(2.67927 0.669208 0)
(2.69859 0.671176 0)
(2.50051 0.661007 0)
(2.50135 0.619918 0)
(2.3368 0.572649 0)
(2.28113 0.482972 0)
(1.86196 -0.69492 0)
(1.93092 -0.737948 0)
(2.06727 -0.793565 0)
(2.20212 -0.860859 0)
(2.33534 -0.905494 0)
(2.42066 -0.922073 0)
(2.52674 -0.913419 0)
(2.5903 -0.888565 0)
(2.65508 -0.813514 0)
(2.68323 -0.724494 0)
(2.73413 -0.603727 0)
(2.69902 -0.475282 0)
(2.7372 -0.321527 0)
(2.69105 -0.190181 0)
(2.70005 -0.0260896 0)
(2.66642 0.0991328 0)
(2.63658 0.25376 0)
(2.63182 0.351848 0)
(2.5566 0.482659 0)
(2.5828 0.555378 0)
(2.45411 0.642927 0)
(2.50467 0.681498 0)
(2.34945 0.717933 0)
(2.3939 0.713146 0)
(2.25714 0.713055 0)
(2.25589 0.660932 0)
(2.15971 0.635451 0)
(2.10068 0.528573 0)
(1.76932 -0.733681 0)
(1.84113 -0.797586 0)
(1.99987 -0.869501 0)
(2.07629 -0.927307 0)
(2.15304 -0.958251 0)
(2.19258 -0.972302 0)
(2.23882 -0.960317 0)
(2.2479 -0.92238 0)
(2.25825 -0.842117 0)
(2.26381 -0.749175 0)
(2.23175 -0.616166 0)
(2.20462 -0.485418 0)
(2.19329 -0.334663 0)
(2.15297 -0.199188 0)
(2.13533 -0.0349874 0)
(2.11483 0.0939791 0)
(2.07571 0.245519 0)
(2.09534 0.350257 0)
(2.02464 0.483069 0)
(2.09974 0.555957 0)
(1.98378 0.643713 0)
(2.08296 0.689758 0)
(1.95408 0.72658 0)
(2.04227 0.724201 0)
(1.93533 0.723615 0)
(1.99111 0.67218 0)
(1.90528 0.645813 0)
(1.91304 0.540007 0)
(1.65728 -0.751587 0)
(1.78445 -0.853863 0)
(1.88791 -0.910382 0)
(1.91018 -0.946046 0)
(1.92875 -0.968431 0)
(1.89484 -0.962788 0)
(1.89312 -0.942677 0)
(1.83349 -0.898948 0)
(1.82952 -0.816118 0)
(1.73866 -0.705525 0)
(1.70985 -0.572996 0)
(1.6225 -0.445974 0)
(1.61642 -0.297954 0)
(1.52148 -0.156088 0)
(1.54364 -0.00479787 0)
(1.4934 0.12815 0)
(1.49307 0.264118 0)
(1.49259 0.367017 0)
(1.47515 0.499264 0)
(1.53659 0.570879 0)
(1.49292 0.654509 0)
(1.59317 0.697288 0)
(1.53889 0.733929 0)
(1.63247 0.733655 0)
(1.59876 0.733965 0)
(1.66073 0.689063 0)
(1.64882 0.669013 0)
(1.65988 0.556715 0)
(1.61287 -0.813779 0)
(1.70331 -0.914378 0)
(1.75194 -0.930957 0)
(1.6901 -0.949953 0)
(1.61161 -0.948587 0)
(1.54477 -0.944546 0)
(1.4694 -0.933595 0)
(1.38746 -0.885211 0)
(1.28267 -0.786865 0)
(1.20733 -0.679141 0)
(1.08757 -0.55294 0)
(1.02536 -0.426845 0)
(0.920524 -0.276699 0)
(0.896234 -0.158834 0)
(0.848366 -0.0132014 0)
(0.847218 0.125376 0)
(0.828525 0.255464 0)
(0.860371 0.352423 0)
(0.8734 0.470507 0)
(0.951627 0.543336 0)
(0.947183 0.629249 0)
(1.07173 0.665872 0)
(1.0754 0.702016 0)
(1.18687 0.702491 0)
(1.22252 0.699563 0)
(1.2914 0.657283 0)
(1.35949 0.639308 0)
(1.3685 0.538704 0)
(1.56445 -0.874093 0)
(1.59289 -0.926268 0)
(1.54396 -0.896113 0)
(1.36476 -0.891096 0)
(1.27233 -0.895596 0)
(1.13011 -0.893562 0)
(1.01175 -0.866358 0)
(0.824975 -0.803154 0)
(0.74928 -0.722224 0)
(0.569003 -0.605237 0)
(0.484086 -0.483341 0)
(0.341144 -0.359288 0)
(0.295065 -0.234649 0)
(0.188175 -0.115041 0)
(0.180121 0.0209893 0)
(0.148589 0.140062 0)
(0.200993 0.252848 0)
(0.182489 0.356101 0)
(0.272485 0.458866 0)
(0.344227 0.526824 0)
(0.404023 0.604576 0)
(0.534998 0.637157 0)
(0.591213 0.674676 0)
(0.739669 0.669696 0)
(0.818257 0.675513 0)
(0.927572 0.631152 0)
(1.03441 0.624545 0)
(1.08101 0.516728 0)
(1.51431 -0.917616 0)
(1.41695 -0.900852 0)
(1.24947 -0.814213 0)
(1.02618 -0.822878 0)
(0.852755 -0.819501 0)
(0.666812 -0.806944 0)
(0.450819 -0.785629 0)
(0.298211 -0.750999 0)
(0.079131 -0.651752 0)
(-0.0541269 -0.542918 0)
(-0.222426 -0.435257 0)
(-0.324519 -0.32461 0)
(-0.441796 -0.195715 0)
(-0.481888 -0.105345 0)
(-0.540043 0.0179446 0)
(-0.501121 0.126829 0)
(-0.506613 0.238407 0)
(-0.434231 0.312165 0)
(-0.355392 0.405461 0)
(-0.252451 0.480325 0)
(-0.161117 0.542198 0)
(0.0140863 0.565736 0)
(0.090256 0.604214 0)
(0.287336 0.593736 0)
(0.393587 0.602725 0)
(0.546056 0.554656 0)
(0.696264 0.556412 0)
(0.771668 0.454911 0)
(1.41226 -0.915273 0)
(1.14455 -0.800146 0)
(0.913542 -0.68811 0)
(0.584677 -0.698424 0)
(0.431854 -0.713934 0)
(0.149993 -0.703571 0)
(-0.032764 -0.675433 0)
(-0.355743 -0.614 0)
(-0.483823 -0.546715 0)
(-0.743216 -0.450415 0)
(-0.829436 -0.349175 0)
(-1.04698 -0.247946 0)
(-1.06288 -0.15028 0)
(-1.19875 -0.0596559 0)
(-1.17798 0.035082 0)
(-1.19046 0.129325 0)
(-1.1169 0.222056 0)
(-1.07164 0.290158 0)
(-0.934529 0.368357 0)
(-0.843347 0.426922 0)
(-0.658687 0.481601 0)
(-0.524208 0.508229 0)
(-0.361235 0.537261 0)
(-0.161925 0.524429 0)
(0.00620248 0.538314 0)
(0.160622 0.492369 0)
(0.375406 0.504307 0)
(0.445297 0.410924 0)
(1.2198 -0.837239 0)
(0.811597 -0.655485 0)
(0.525991 -0.546671 0)
(0.212263 -0.606241 0)
(-0.0431545 -0.598598 0)
(-0.314087 -0.573209 0)
(-0.658406 -0.551413 0)
(-0.878521 -0.526819 0)
(-1.18478 -0.445831 0)
(-1.34416 -0.375167 0)
(-1.54772 -0.278035 0)
(-1.66092 -0.209035 0)
(-1.7626 -0.116138 0)
(-1.81792 -0.0467557 0)
(-1.84295 0.0284274 0)
(-1.79427 0.0962042 0)
(-1.75839 0.179135 0)
(-1.63523 0.228067 0)
(-1.53537 0.292678 0)
(-1.37341 0.33382 0)
(-1.18947 0.389816 0)
(-1.01277 0.407307 0)
(-0.824093 0.424371 0)
(-0.597578 0.409846 0)
(-0.415471 0.433956 0)
(-0.208565 0.380201 0)
(0.0220074 0.399728 0)
(0.12565 0.309364 0)
(0.983903 -0.694418 0)
(0.423389 -0.472658 0)
(0.156423 -0.355995 0)
(-0.291233 -0.410505 0)
(-0.489338 -0.441655 0)
(-0.885123 -0.398948 0)
(-1.11081 -0.385498 0)
(-1.51748 -0.358727 0)
(-1.68697 -0.31821 0)
(-2.0196 -0.260958 0)
(-2.09458 -0.195603 0)
(-2.33848 -0.134983 0)
(-2.33408 -0.0721637 0)
(-2.47038 -0.0194895 0)
(-2.38126 0.0313191 0)
(-2.43675 0.0909382 0)
(-2.28075 0.14466 0)
(-2.22116 0.183248 0)
(-2.03614 0.229695 0)
(-1.91152 0.259074 0)
(-1.65837 0.307202 0)
(-1.50168 0.317288 0)
(-1.21616 0.325853 0)
(-1.04468 0.324926 0)
(-0.765098 0.32867 0)
(-0.591315 0.29229 0)
(-0.299819 0.310549 0)
(-0.220756 0.244685 0)
(0.647448 -0.418299 0)
(-0.0041972 -0.259374 0)
(-0.23375 -0.217328 0)
(-0.625696 -0.30896 0)
(-0.98276 -0.289658 0)
(-1.34845 -0.28198 0)
(-1.64335 -0.250979 0)
(-1.98541 -0.245361 0)
(-2.23799 -0.195927 0)
(-2.50635 -0.17949 0)
(-2.66812 -0.120041 0)
(-2.83253 -0.0960945 0)
(-2.89672 -0.049195 0)
(-2.95874 -0.0215602 0)
(-2.9376 0.0187953 0)
(-2.91872 0.0398547 0)
(-2.79498 0.076235 0)
(-2.69987 0.103238 0)
(-2.52826 0.132537 0)
(-2.35865 0.144851 0)
(-2.12196 0.178601 0)
(-1.90768 0.174948 0)
(-1.64049 0.192495 0)
(-1.42224 0.182166 0)
(-1.13887 0.189057 0)
(-0.945471 0.162571 0)
(-0.635593 0.179686 0)
(-0.537491 0.133501 0)
(0.305208 -0.282854 0)
(-0.604551 -0.0503356 0)
(-0.387958 -0.0154695 0)
(-1.0536 -0.0418773 0)
(-1.1528 -0.0740389 0)
(-1.77511 -0.0628031 0)
(-1.88901 -0.0700829 0)
(-2.44162 -0.0612758 0)
(-2.52799 -0.0551822 0)
(-2.96098 -0.0471123 0)
(-2.99334 -0.0353543 0)
(-3.2913 -0.0195069 0)
(-3.2302 -0.00926301 0)
(-3.41854 0.00792798 0)
(-3.24777 0.0167522 0)
(-3.34921 0.0250453 0)
(-3.11472 0.0372554 0)
(-3.12471 0.0513276 0)
(-2.80505 0.0559684 0)
(-2.75752 0.0617702 0)
(-2.38536 0.0714583 0)
(-2.28641 0.0738144 0)
(-1.88766 0.0785448 0)
(-1.76392 0.0751088 0)
(-1.37394 0.0749936 0)
(-1.26457 0.0647738 0)
(-0.885819 0.0732753 0)
(-0.8304 0.0591247 0)
(2.46133 -0.066355 0)
(2.46975 -0.438696 0)
(2.03416 -0.469527 0)
(1.83374 -0.674113 0)
(1.56978 -0.817047 0)
(1.32086 -1.08595 0)
(0.700692 -0.961931 0)
(0.00897245 -0.711087 0)
(2.3534 0.0362311 0)
(2.19398 -0.184352 0)
(1.83343 -0.274533 0)
(1.78442 -0.534594 0)
(1.45974 -0.645356 0)
(1.19888 -0.810388 0)
(0.803678 -0.701136 0)
(0.822887 -0.790272 0)
(2.32661 0.0722406 0)
(2.37257 -0.144931 0)
(2.17559 -0.235262 0)
(2.08793 -0.438054 0)
(1.68008 -0.494232 0)
(1.52767 -0.738123 0)
(1.13449 -0.724794 0)
(0.430015 -0.224159 0)
(2.27996 0.144139 0)
(2.36754 -0.0501119 0)
(1.87731 -0.132778 0)
(1.89358 -0.301008 0)
(1.34717 -0.370956 0)
(1.3784 -0.506553 0)
(0.285038 -0.22511 0)
(0.235209 -0.244754 0)
(2.29001 0.149652 0)
(2.2912 0.0397244 0)
(1.99046 -0.0397074 0)
(2.09626 -0.196566 0)
(1.70826 -0.226136 0)
(1.69213 -0.268747 0)
(1.17407 -0.107501 0)
(1.11962 -0.324181 0)
(2.26892 0.247353 0)
(2.25604 0.131563 0)
(2.01909 0.0179843 0)
(1.87512 -0.113907 0)
(1.52975 -0.1318 0)
(1.43198 -0.242302 0)
(1.1503 0.00304295 0)
(1.09917 -0.054889 0)
(2.2375 0.30391 0)
(2.27725 0.165957 0)
(2.0187 0.117719 0)
(1.94139 -0.00117326 0)
(1.81519 -0.0219588 0)
(1.66967 -0.117048 0)
(1.51541 0.0480041 0)
(1.3895 -0.0922668 0)
(2.22224 0.388428 0)
(2.20425 0.238797 0)
(1.96813 0.215932 0)
(1.93709 0.020279 0)
(1.67331 0.0569795 0)
(1.49714 -0.0626868 0)
(1.30489 0.119816 0)
(1.23958 0.0745522 0)
(2.16903 0.423536 0)
(2.06845 0.298184 0)
(1.94052 0.254519 0)
(1.87793 0.113549 0)
(1.65998 0.158958 0)
(1.69831 0.0314808 0)
(1.49577 0.151035 0)
(1.53899 0.0610924 0)
(2.04326 0.490188 0)
(1.93844 0.351599 0)
(1.88896 0.315285 0)
(1.76131 0.18638 0)
(1.65436 0.18218 0)
(1.58099 0.0699642 0)
(1.36807 0.174262 0)
(1.42339 0.12801 0)
(1.84992 0.516595 0)
(1.80865 0.371783 0)
(1.75069 0.351143 0)
(1.67932 0.216779 0)
(1.62495 0.219473 0)
(1.53134 0.150171 0)
(1.4907 0.205237 0)
(1.43769 0.182856 0)
(1.66076 0.541873 0)
(1.66003 0.397896 0)
(1.59742 0.393625 0)
(1.60671 0.255278 0)
(1.50504 0.2732 0)
(1.51123 0.169382 0)
(1.41695 0.216129 0)
(1.43786 0.186255 0)
(1.4385 0.525599 0)
(1.42977 0.392266 0)
(1.46536 0.384174 0)
(1.45818 0.252665 0)
(1.4313 0.264795 0)
(1.44231 0.185395 0)
(1.38166 0.225141 0)
(1.4366 0.207433 0)
(1.19858 0.519582 0)
(1.21238 0.37776 0)
(1.28374 0.396011 0)
(1.29978 0.265339 0)
(1.31606 0.290547 0)
(1.35013 0.197394 0)
(1.31437 0.226986 0)
(1.37626 0.2005 0)
(0.922035 0.468208 0)
(0.967056 0.335138 0)
(1.07999 0.353922 0)
(1.1271 0.212 0)
(1.16839 0.260875 0)
(1.22476 0.169243 0)
(1.21739 0.215855 0)
(1.30019 0.179876 0)
(0.683101 0.421507 0)
(0.691266 0.29485 0)
(0.869622 0.331283 0)
(0.88908 0.215876 0)
(1.00221 0.254079 0)
(1.06372 0.152832 0)
(1.09345 0.210345 0)
(1.17954 0.162987 0)
(0.398496 0.339428 0)
(0.396237 0.246023 0)
(0.629596 0.247098 0)
(0.653652 0.13038 0)
(0.790109 0.195091 0)
(0.818493 0.106714 0)
(0.904756 0.174438 0)
(0.980945 0.11218 0)
(0.103595 0.267331 0)
(0.092714 0.189399 0)
(0.409549 0.205031 0)
(0.296938 0.144539 0)
(0.606903 0.17013 0)
(0.580319 0.0807932 0)
(0.710132 0.153791 0)
(0.730532 0.091282 0)
(-0.173846 0.151066 0)
(-0.209828 0.115791 0)
(0.151521 0.11985 0)
(0.0554646 0.0320353 0)
(0.368946 0.0568257 0)
(0.290745 0.0502205 0)
(0.502519 0.105239 0)
(0.496537 0.0288572 0)
(-0.423562 0.070588 0)
(-0.486103 0.0619426 0)
(0.0106712 0.0526163 0)
(-0.211233 0.0571595 0)
(0.229828 0.0398647 0)
(-0.0407694 0.0106441 0)
(0.362021 0.0685452 0)
(0.308823 0.029339 0)
(-0.662084 -0.417859 0)
(0.40348 0.148497 0)
(0.676422 0.472229 0)
(0.800913 0.507288 5.96712e-18)
(1.24352 0.678522 4.70713e-19)
(1.41118 0.560526 0)
(1.84723 0.511102 3.71982e-18)
(1.61227 0.368361 2.13203e-19)
(1.81915 0.365645 2.77499e-18)
(1.60102 0.292926 2.67356e-18)
(1.9105 0.324293 0)
(1.67288 0.261214 2.24264e-18)
(2.02964 0.308693 -9.41977e-20)
(1.78683 0.252714 1.84305e-18)
(2.15223 0.309276 2.24744e-20)
(1.93532 0.256143 -2.4791e-20)
(2.27594 0.323642 -5.47258e-19)
(2.1183 0.261029 3.89251e-19)
(2.41837 0.333802 3.95496e-21)