/*--------------------------------*- C++ -*----------------------------------*\
| =========                 |                                                 |
| \\      /  F ield         | OpenFOAM: The Open Source CFD Toolbox           |
|  \\    /   O peration     | Version:  2.4.0                                 |
|   \\  /    A nd           | Web:      www.OpenFOAM.org                      |
|    \\/     M anipulation  |                                                 |
\*---------------------------------------------------------------------------*/
FoamFile
{
    version     2.0;
    format      ascii;
    class       volScalarField;
    location    "2.26";
    object      p;
}
// * * * * * * * * * * * * * * * * * * * * * * * * * * * * * * * * * * * * * //

dimensions      [0 2 -2 0 0 0 0];

internalField   nonuniform List<scalar> 
6000
(
-0.0871988
0.269805
0.227141
0.246382
0.239082
0.244232
0.241172
0.242546
0.239811
0.240868
0.245192
0.25386
0.239046
0.1947
0.174636
0.188587
0.202109
0.197868
0.167293
0.103647
0.0337418
-0.0202644
-0.0506005
-0.0564133
-0.0391917
-0.00224477
0.0508014
0.115245
0.186122
0.257841
0.324056
0.378725
0.418165
0.441704
0.451806
0.452268
0.447204
0.439622
0.431301
0.423106
0.415385
0.408275
0.401766
0.395778
0.390127
0.384608
0.378951
0.372853
0.365992
0.358037
0.348626
0.33736
0.323728
0.307163
0.286644
0.261576
0.228543
0.190406
0.126162
0.082885
-0.0608634
0.266391
0.227229
0.246234
0.239099
0.244209
0.241189
0.242572
0.239823
0.240711
0.244718
0.253109
0.238537
0.194471
0.174343
0.188413
0.202231
0.1986
0.168673
0.104535
0.0333302
-0.0212575
-0.0518507
-0.0578075
-0.0408909
-0.00374019
0.0493408
0.113855
0.184847
0.256732
0.323167
0.378083
0.417761
0.441459
0.451657
0.452141
0.447059
0.439445
0.431094
0.422887
0.41518
0.408076
0.401571
0.395562
0.389911
0.384392
0.378723
0.372602
0.36571
0.357713
0.348251
0.336922
0.323213
0.306554
0.285923
0.260711
0.227518
0.189109
0.124743
0.0810157
-0.0439756
0.262939
0.227267
0.246147
0.239099
0.244199
0.2412
0.242594
0.239817
0.240552
0.244248
0.252329
0.237872
0.193936
0.173764
0.188188
0.202487
0.198927
0.168107
0.102642
0.0313486
-0.022765
-0.0530785
-0.0589697
-0.0420775
-0.00517541
0.0478369
0.112357
0.183427
0.25547
0.322143
0.377342
0.417281
0.441127
0.451429
0.451961
0.446894
0.439288
0.430952
0.422767
0.41504
0.407941
0.401442
0.395453
0.389803
0.38427
0.378589
0.372454
0.365544
0.357527
0.348039
0.336681
0.322939
0.30624
0.285563
0.260288
0.227037
0.188469
0.124114
0.0801324
-0.0317529
0.259088
0.227466
0.246082
0.239089
0.244185
0.241218
0.242613
0.239794
0.24036
0.243775
0.251639
0.237328
0.19334
0.172995
0.187872
0.202702
0.198763
0.165799
0.0991289
0.0287097
-0.024518
-0.0546032
-0.0605647
-0.0437499
-0.00689147
0.0461217
0.110705
0.1819
0.254148
0.321099
0.376609
0.41681
0.440811
0.451203
0.45177
0.446707
0.439094
0.430747
0.422538
0.414847
0.407754
0.401258
0.395258
0.389611
0.384079
0.37839
0.372239
0.365306
0.357257
0.347732
0.336328
0.322531
0.305766
0.285008
0.259636
0.226255
0.187562
0.12295
0.0791398
-0.0199469
0.254961
0.22783
0.246016
0.23908
0.24417
0.241241
0.242631
0.239755
0.24013
0.243274
0.250985
0.236877
0.192746
0.172077
0.187423
0.202727
0.197958
0.162402
0.0951019
0.025881
-0.0265175
-0.0564219
-0.0624112
-0.0456511
-0.00880352
0.0442483
0.108917
0.180252
0.252717
0.319963
0.3758
0.416286
0.440483
0.45098
0.451585
0.446521
0.438897
0.430545
0.422348
0.414654
0.407569
0.401081
0.395096
0.389442
0.383902
0.3782
0.372031
0.365074
0.356996
0.347436
0.335989
0.322143
0.30532
0.284493
0.259037
0.225559
0.18673
0.122058
0.0782309
-0.00836461
0.25072
0.228312
0.245936
0.23908
0.244153
0.241271
0.242652
0.239702
0.239856
0.242727
0.250259
0.236432
0.192168
0.171064
0.186846
0.202421
0.196463
0.158319
0.0907954
0.0228837
-0.0288318
-0.0585401
-0.0645089
-0.0477751
-0.0109245
0.0421752
0.10693
0.178404
0.251092
0.318653
0.374847
0.415656
0.440095
0.450727
0.451386
0.446328
0.438695
0.430337
0.422137
0.41445
0.407375
0.400895
0.39491
0.389262
0.383719
0.378007
0.371821
0.36484
0.356732
0.347134
0.335644
0.321746
0.304862
0.283962
0.258419
0.224825
0.18588
0.121004
0.0773594
0.00237258
0.246467
0.228831
0.245824
0.239094
0.244136
0.241306
0.242675
0.239638
0.239537
0.242087
0.249453
0.23594
0.191634
0.170018
0.186176
0.201756
0.19429
0.153731
0.0862529
0.0196618
-0.0314596
-0.0609337
-0.0668489
-0.0501225
-0.0132627
0.0398856
0.104724
0.176333
0.249253
0.317149
0.373731
0.414901
0.439624
0.450423
0.451157
0.446114
0.438478
0.430117
0.42192
0.41424
0.407174
0.400703
0.394728
0.389082
0.383537
0.377816
0.371613
0.36461
0.356471
0.346837
0.335304
0.321354
0.304409
0.283435
0.257806
0.224099
0.185045
0.119992
0.0765605
0.0122077
0.242274
0.229313
0.245692
0.239116
0.24412
0.241348
0.242704
0.239564
0.239174
0.241343
0.248553
0.235378
0.191184
0.169006
0.185439
0.200772
0.191517
0.14877
0.0815793
0.0162026
-0.0343562
-0.0635684
-0.069412
-0.052683
-0.0158103
0.0373858
0.102303
0.174046
0.247204
0.315456
0.372456
0.414019
0.43906
0.450056
0.450887
0.445872
0.43824
0.429882
0.421692
0.414021
0.406966
0.400506
0.394541
0.388901
0.383355
0.377627
0.37141
0.364384
0.356217
0.346547
0.334971
0.320971
0.303967
0.28292
0.257207
0.22339
0.184235
0.119015
0.0758228
0.0213708
0.238205
0.229706
0.245555
0.239136
0.244105
0.241396
0.242739
0.239483
0.23877
0.2405
0.247551
0.234736
0.190862
0.168101
0.184663
0.199526
0.188273
0.143582
0.0768633
0.0125351
-0.0374743
-0.0664114
-0.0721738
-0.0554374
-0.0185501
0.0346921
0.0996831
0.171557
0.244959
0.313584
0.371028
0.413012
0.4384
0.449618
0.450569
0.445597
0.437977
0.429629
0.42145
0.413791
0.40675
0.400304
0.39435
0.388718
0.383174
0.37744
0.371209
0.364163
0.355968
0.346263
0.334646
0.320597
0.303535
0.282419
0.256623
0.222701
0.183451
0.118083
0.0751383
0.0300164
0.234299
0.229989
0.245414
0.23915
0.244093
0.241449
0.242782
0.239397
0.238331
0.239566
0.246431
0.234037
0.19071
0.167386
0.183886
0.198095
0.18471
0.138296
0.0721435
0.00870215
-0.0407731
-0.0694322
-0.0751089
-0.0583633
-0.0214617
0.0318242
0.0968837
0.168882
0.242532
0.311546
0.369456
0.411885
0.437644
0.449105
0.450196
0.445283
0.437685
0.429353
0.421192
0.413552
0.406527
0.400096
0.394156
0.388533
0.382992
0.377253
0.37101
0.363944
0.355722
0.345984
0.334326
0.32023
0.303112
0.281929
0.256054
0.222032
0.182691
0.117198
0.074495
0.0381973
0.23058
0.230154
0.24525
0.239188
0.244085
0.241508
0.242831
0.239308
0.237864
0.238554
0.245183
0.23333
0.190771
0.166971
0.183164
0.19658
0.180967
0.133016
0.0674397
0.00474646
-0.0442156
-0.0726012
-0.0781917
-0.0614377
-0.0245233
0.0288026
0.0939242
0.166041
0.239939
0.309354
0.36775
0.410645
0.436794
0.448515
0.449763
0.444924
0.437359
0.429053
0.420917
0.4133
0.406295
0.399882
0.393958
0.388346
0.382809
0.377067
0.370813
0.363727
0.355479
0.345708
0.334011
0.319868
0.302696
0.281448
0.255498
0.221382
0.181952
0.116358
0.0738831
0.0459422
0.22706
0.230204
0.245063
0.239258
0.244077
0.241573
0.242886
0.239221
0.237379
0.237482
0.243826
0.232669
0.191087
0.166984
0.182653
0.195019
0.177166
0.127823
0.0627729
0.000708129
-0.0477663
-0.0758887
-0.0813965
-0.064637
-0.0277129
0.0256488
0.0908251
0.163053
0.237196
0.307021
0.365919
0.409298
0.435851
0.447844
0.449265
0.444516
0.436997
0.428725
0.420623
0.413035
0.406055
0.399663
0.393756
0.388157
0.382626
0.376881
0.370615
0.363511
0.355237
0.345434
0.333699
0.319511
0.302286
0.280976
0.254952
0.220748
0.181233
0.115561
0.073295
0.0532865
0.223749
0.230145
0.244842
0.239363
0.244064
0.241644
0.242947
0.239136
0.236883
0.236368
0.242382
0.23208
0.191711
0.167559
0.182446
0.193545
0.173405
0.122782
0.0581667
-0.00337472
-0.0513918
-0.0792663
-0.0846979
-0.0679378
-0.0310081
0.0223843
0.0876073
0.159936
0.234321
0.304559
0.363973
0.407849
0.434818
0.447094
0.448699
0.444054
0.436593
0.428366
0.420307
0.412756
0.405806
0.399438
0.393551
0.387966
0.382441
0.376694
0.370418
0.363296
0.354996
0.345162
0.333389
0.319158
0.301881
0.28051
0.254415
0.220128
0.18053
0.114802
0.0727255
0.0602652
0.220655
0.229988
0.244583
0.2395
0.244039
0.241722
0.243012
0.239056
0.236387
0.235232
0.240881
0.231597
0.192668
0.168821
0.182674
0.192232
0.169762
0.117945
0.0536452
-0.007466
-0.0550603
-0.0827061
-0.0880711
-0.0713173
-0.0343872
0.0190305
0.0842916
0.156711
0.23133
0.301983
0.361919
0.406304
0.433697
0.446264
0.448061
0.443535
0.436145
0.427975
0.419968
0.412463
0.405549
0.399209
0.393343
0.387773
0.382256
0.376508
0.370222
0.363081
0.354757
0.344892
0.333082
0.318807
0.30148
0.280051
0.253886
0.21952
0.179842
0.114079
0.0721707
0.0669062
0.217778
0.229742
0.24428
0.239654
0.244009
0.241803
0.24308
0.238982
0.235898
0.234092
0.239349
0.23123
0.194015
0.170875
0.183452
0.191159
0.166302
0.113348
0.0492321
-0.011532
-0.0587421
-0.0861816
-0.0914921
-0.0747532
-0.0378286
0.0156084
0.0808987
0.153396
0.228241
0.299304
0.359765
0.404668
0.432489
0.445353
0.447351
0.442954
0.435651
0.427548
0.419605
0.412155
0.405284
0.398975
0.393133
0.38758
0.382071
0.376322
0.370026
0.362868
0.354519
0.344623
0.332776
0.318459
0.301083
0.279597
0.253365
0.218925
0.179169
0.113388
0.0716277
0.0732313
0.215118
0.229419
0.243933
0.239812
0.243986
0.241881
0.243152
0.238915
0.235424
0.232964
0.23781
0.230976
0.195834
0.173796
0.184876
0.190397
0.163076
0.109018
0.04495
-0.0155419
-0.0624091
-0.0896674
-0.0949379
-0.0782237
-0.0413116
0.0121383
0.0774486
0.150013
0.225069
0.296537
0.357519
0.402945
0.431195
0.444361
0.446567
0.44231
0.435106
0.427085
0.419216
0.411832
0.40501
0.398738
0.392923
0.387387
0.381887
0.376137
0.369831
0.362655
0.354282
0.344355
0.332473
0.318114
0.30069
0.279148
0.252851
0.218342
0.178509
0.112728
0.0710946
0.0792591
0.21267
0.229034
0.243545
0.239962
0.243972
0.241953
0.243227
0.238857
0.234968
0.231865
0.236287
0.23083
0.198191
0.177582
0.187045
0.189999
0.160126
0.104972
0.0408208
-0.0194672
-0.0660356
-0.0931398
-0.0983864
-0.0817081
-0.0448162
0.00864002
0.0739609
0.146578
0.221833
0.293694
0.355189
0.401138
0.429815
0.443286
0.445705
0.4416
0.43451
0.426584
0.418801
0.411493
0.40473
0.398498
0.392712
0.387195
0.381704
0.375954
0.369638
0.362444
0.354046
0.344089
0.332171
0.317772
0.300301
0.278705
0.252344
0.217769
0.177862
0.112095
0.0705701
0.0850062
0.21043
0.228598
0.243118
0.240098
0.243966
0.242017
0.243307
0.238809
0.234538
0.230805
0.234801
0.230787
0.201088
0.182223
0.189966
0.189989
0.157485
0.101222
0.0368646
-0.0232828
-0.0695977
-0.0965762
-0.101817
-0.0851865
-0.0483231
0.00513234
0.0704544
0.14311
0.218547
0.290785
0.352784
0.399249
0.428348
0.442125
0.444766
0.440822
0.43386
0.426043
0.41836
0.411138
0.404442
0.398258
0.392502
0.387005
0.381524
0.375772
0.369447
0.362235
0.353812
0.343825
0.331872
0.317433
0.299915
0.278267
0.251844
0.217207
0.177228
0.11149
0.0700533
0.0904876
0.20839
0.228123
0.242657
0.240216
0.243966
0.24208
0.243384
0.238771
0.234135
0.229796
0.23337
0.230839
0.204484
0.187655
0.193596
0.190372
0.155172
0.0977737
0.0330996
-0.0269657
-0.0730731
-0.0999552
-0.105208
-0.0886396
-0.0518138
0.00163347
0.0669472
0.139628
0.215227
0.287825
0.350313
0.39728
0.426795
0.440878
0.443745
0.439975
0.433156
0.425463
0.417892
0.410769
0.404149
0.398017
0.392295
0.386819
0.381346
0.375594
0.369258
0.362028
0.353581
0.343563
0.331575
0.317096
0.299534
0.277835
0.251352
0.216656
0.176607
0.11091
0.0695436
0.095717
0.206543
0.227621
0.242168
0.240312
0.243966
0.242153
0.243449
0.238746
0.233762
0.228846
0.232007
0.230976
0.208304
0.193761
0.197858
0.191132
0.153198
0.0946291
0.0295418
-0.0304961
-0.0764417
-0.103257
-0.108542
-0.0920488
-0.0552703
-0.00183916
0.0634565
0.136148
0.211891
0.284822
0.347782
0.395233
0.425152
0.439541
0.442641
0.439057
0.432395
0.424842
0.417397
0.410385
0.403851
0.397777
0.392092
0.386637
0.381173
0.37542
0.369073
0.361824
0.353351
0.343304
0.331282
0.316763
0.299157
0.277408
0.250867
0.216116
0.175999
0.110354
0.0690408
0.100707
0.20488
0.227103
0.241657
0.240382
0.243961
0.242239
0.243496
0.238734
0.233421
0.227962
0.230726
0.231186
0.212447
0.200385
0.202643
0.192242
0.151566
0.0917874
0.0262049
-0.0338564
-0.0796848
-0.106463
-0.1118
-0.095396
-0.0586754
-0.00526878
0.0599991
0.132687
0.208554
0.281786
0.345198
0.39311
0.423419
0.43811
0.44145
0.438066
0.431578
0.424181
0.416876
0.409986
0.403549
0.397539
0.391894
0.38646
0.381006
0.37525
0.368892
0.361623
0.353125
0.343048
0.330991
0.316434
0.298784
0.276988
0.250389
0.215587
0.175403
0.109821
0.0685446
0.105469
0.203393
0.226578
0.241131
0.240425
0.243949
0.242335
0.243526
0.238731
0.233115
0.227149
0.229536
0.231457
0.216801
0.207354
0.207822
0.193663
0.150268
0.0892454
0.0231001
-0.0370311
-0.0827856
-0.109555
-0.114964
-0.098664
-0.062012
-0.00863918
0.0565907
0.129259
0.205229
0.278729
0.342568
0.390911
0.421594
0.436584
0.44017
0.437
0.430704
0.423479
0.416328
0.409574
0.403243
0.397305
0.391702
0.386291
0.380845
0.375085
0.368715
0.361426
0.352903
0.342795
0.330704
0.316109
0.298416
0.276573
0.249919
0.215068
0.17482
0.109311
0.0680551
0.110014
0.202073
0.226054
0.240595
0.24044
0.243926
0.242437
0.243542
0.238733
0.232843
0.22641
0.228444
0.231779
0.221255
0.214498
0.213262
0.195352
0.149292
0.086998
0.0202366
-0.0400073
-0.0857285
-0.112516
-0.118016
-0.101835
-0.0652638
-0.0119347
0.0532466
0.125882
0.201927
0.275665
0.339896
0.388638
0.419675
0.434957
0.438796
0.435856
0.429771
0.422737
0.415756
0.409149
0.402934
0.397075
0.391518
0.38613
0.380691
0.374927
0.368543
0.361234
0.352684
0.342546
0.330421
0.315788
0.298053
0.276165
0.249457
0.214561
0.17425
0.108821
0.0675723
0.114353
0.200909
0.225538
0.240056
0.240427
0.243892
0.242541
0.243547
0.238739
0.232604
0.225748
0.227456
0.232141
0.225708
0.221657
0.218833
0.197262
0.148619
0.0850383
0.017621
-0.0427738
-0.0884995
-0.115332
-0.120942
-0.104894
-0.0684145
-0.0151399
0.0499815
0.122569
0.198657
0.272607
0.337186
0.386291
0.417657
0.433226
0.437326
0.434632
0.428779
0.421955
0.415159
0.408711
0.402623
0.39685
0.391342
0.385978
0.380545
0.374776
0.368377
0.361047
0.35247
0.342301
0.330142
0.315472
0.297696
0.275763
0.249004
0.214064
0.173693
0.108353
0.0670963
0.118495
0.199892
0.225035
0.239518
0.240389
0.243845
0.242642
0.243545
0.238745
0.232383
0.225183
0.226577
0.232535
0.230072
0.228695
0.224421
0.199348
0.148228
0.0833582
0.0152582
-0.0453211
-0.0910859
-0.117987
-0.123723
-0.107823
-0.0714482
-0.01824
0.0468099
0.119335
0.195431
0.269564
0.334444
0.383869
0.415539
0.431386
0.435756
0.433327
0.427727
0.421133
0.414538
0.408262
0.40231
0.39663
0.391176
0.385836
0.380409
0.374633
0.368218
0.360866
0.352262
0.342061
0.329868
0.315161
0.297344
0.275368
0.248558
0.213579
0.173149
0.107904
0.0666272
0.122451
0.199014
0.224551
0.238988
0.240328
0.243784
0.242737
0.243535
0.238747
0.2322
0.2247
0.225811
0.232957
0.234276
0.235501
0.229929
0.201567
0.148095
0.0819485
0.0131509
-0.0476417
-0.0934763
-0.120468
-0.126347
-0.110607
-0.0743492
-0.0212201
0.0437463
0.116186
0.192265
0.266543
0.331674
0.381373
0.413316
0.429434
0.434082
0.431938
0.426615
0.420272
0.413894
0.407802
0.401996
0.396417
0.391019
0.385705
0.380282
0.374498
0.368066
0.36069
0.352058
0.341827
0.329599
0.314856
0.296999
0.274981
0.248122
0.213105
0.172618
0.107475
0.0661653
0.12623
0.198264
0.224088
0.238468
0.240247
0.243712
0.242822
0.243521
0.238744
0.232052
0.2243
0.225161
0.233403
0.238268
0.241987
0.235276
0.203877
0.148196
0.080799
0.0113001
-0.0497294
-0.0956605
-0.122761
-0.128797
-0.113229
-0.0771019
-0.0240657
0.0408042
0.113134
0.189173
0.263553
0.328879
0.378803
0.410985
0.427363
0.4323
0.430461
0.425441
0.419372
0.413228
0.407333
0.401682
0.39621
0.390873
0.385585
0.380166
0.374372
0.367923
0.360522
0.351861
0.341598
0.329336
0.314557
0.296661
0.274601
0.247695
0.212643
0.172101
0.107064
0.0657107
0.12984
0.197634
0.223651
0.237964
0.240149
0.243628
0.242895
0.243499
0.238738
0.231935
0.223981
0.224638
0.233871
0.242008
0.24809
0.240401
0.206243
0.148503
0.0798987
0.00970555
-0.0515792
-0.0976293
-0.124856
-0.13106
-0.115675
-0.0796911
-0.026762
0.0379956
0.110192
0.186165
0.260601
0.326063
0.376155
0.408543
0.425171
0.430405
0.428896
0.424206
0.418434
0.412541
0.406854
0.401368
0.396009
0.390738
0.385477
0.380062
0.374257
0.367787
0.360361
0.351671
0.341376
0.32908
0.314265
0.296329
0.27423
0.247277
0.212193
0.171597
0.106672
0.0652636
0.133291
0.197116
0.223241
0.237477
0.240038
0.243534
0.242956
0.24347
0.238731
0.231847
0.223742
0.224252
0.234356
0.245474
0.253767
0.245256
0.20863
0.148994
0.0792362
0.00836525
-0.0531877
-0.0993748
-0.12674
-0.133122
-0.11793
-0.0821014
-0.0292943
0.0353313
0.107374
0.183251
0.257693
0.323229
0.373431
0.405984
0.42285
0.428394
0.427239
0.422907
0.417458
0.411834
0.406368
0.401055
0.395816
0.390613
0.385381
0.379969
0.374152
0.367661
0.360208
0.351488
0.34116
0.32883
0.313979
0.296005
0.273867
0.246869
0.211755
0.171107
0.106298
0.0648242
0.136589
0.196701
0.222859
0.237011
0.239918
0.243433
0.243005
0.243432
0.238725
0.231786
0.223582
0.224007
0.234859
0.24865
0.258989
0.249806
0.211009
0.149642
0.0787994
0.00727611
-0.0545526
-0.10089
-0.128403
-0.134971
-0.119978
-0.0843179
-0.0316484
0.0328239
0.104691
0.18044
0.254837
0.320379
0.370627
0.403306
0.420397
0.426262
0.425488
0.421545
0.416444
0.411108
0.405874
0.400743
0.39563
0.390499
0.385298
0.379888
0.374057
0.367544
0.360063
0.351312
0.340951
0.328587
0.313701
0.295689
0.273513
0.246472
0.211329
0.170632
0.105941
0.0643929
0.139744
0.19638
0.222506
0.236567
0.23979
0.243326
0.243042
0.243386
0.238721
0.231751
0.223504
0.223893
0.235394
0.251535
0.26374
0.254029
0.213354
0.150423
0.0785757
0.00643395
-0.0556724
-0.102168
-0.129837
-0.136593
-0.121806
-0.0863249
-0.0338114
0.0304867
0.102154
0.17774
0.252038
0.317515
0.367743
0.400502
0.417806
0.424005
0.42364
0.420119
0.415394
0.410364
0.405375
0.400433
0.395451
0.390396
0.385227
0.37982
0.373974
0.367436
0.359927
0.351144
0.340751
0.328352
0.31343
0.295382
0.273169
0.246085
0.210916
0.17017
0.1056
0.0639699
0.142762
0.196148
0.222183
0.236148
0.23966
0.243215
0.243068
0.243331
0.238722
0.231742
0.223506
0.223891
0.235982
0.25413
0.268015
0.257909
0.215639
0.151315
0.078551
0.00583431
-0.0565457
-0.103204
-0.131031
-0.137978
-0.1234
-0.088109
-0.0357677
0.0283319
0.0997729
0.175161
0.249302
0.314639
0.364775
0.397569
0.415071
0.421618
0.421692
0.418628
0.414308
0.409604
0.404871
0.400125
0.395279
0.390304
0.385168
0.379763
0.373902
0.367339
0.3598
0.350985
0.340558
0.328125
0.313168
0.295083
0.272834
0.245709
0.210516
0.169723
0.105277
0.0635554
0.145651
0.195997
0.22189
0.235753
0.239529
0.243104
0.243085
0.24327
0.238726
0.231761
0.223587
0.223995
0.236634
0.256445
0.271812
0.261438
0.217841
0.152294
0.0787115
0.0054718
-0.0571705
-0.103994
-0.131978
-0.139115
-0.124748
-0.0896537
-0.0375037
0.0263711
0.0975586
0.172711
0.246634
0.311751
0.361722
0.394502
0.412187
0.419096
0.419642
0.417072
0.413187
0.408828
0.404362
0.39982
0.395115
0.390222
0.385121
0.379719
0.373841
0.367253
0.359682
0.350834
0.340374
0.327906
0.312915
0.294794
0.272509
0.245345
0.21013
0.169291
0.10497
0.0631497
0.148416
0.19592
0.221627
0.235384
0.2394
0.242993
0.243096
0.243205
0.238736
0.231808
0.223746
0.224206
0.237347
0.258494
0.275137
0.264613
0.219929
0.153346
0.0790426
0.00533937
-0.0575459
-0.104531
-0.132671
-0.139994
-0.125835
-0.0909452
-0.039007
0.0246155
0.0955207
0.170397
0.244039
0.308854
0.358582
0.391297
0.409148
0.416434
0.417488
0.41545
0.412032
0.408038
0.403852
0.399519
0.394959
0.390151
0.385086
0.379687
0.373792
0.367177
0.359575
0.350693
0.340198
0.327697
0.312671
0.294515
0.272195
0.244992
0.209756
0.168873
0.104678
0.0627532
0.151065
0.195911
0.221393
0.23504
0.239276
0.242886
0.243102
0.243139
0.238753
0.231887
0.223979
0.224523
0.238109
0.260305
0.277998
0.267435
0.221884
0.154453
0.0795309
0.00542995
-0.0576733
-0.104813
-0.133101
-0.140604
-0.126649
-0.091971
-0.0402657
0.0230757
0.0936689
0.168229
0.241521
0.305947
0.355351
0.387948
0.405949
0.413628
0.415224
0.41376
0.410842
0.407234
0.403339
0.399222
0.394811
0.39009
0.385062
0.379667
0.373755
0.367111
0.359477
0.350561
0.340032
0.327496
0.312436
0.294245
0.271892
0.244652
0.209397
0.168471
0.104403
0.0623662
0.153604
0.195964
0.221187
0.234723
0.239157
0.242785
0.243106
0.243075
0.238778
0.231998
0.224285
0.224943
0.238899
0.261918
0.280413
0.269914
0.223684
0.155594
0.0801634
0.00573609
-0.0575554
-0.104836
-0.133262
-0.140935
-0.127179
-0.0927195
-0.0412688
0.021762
0.0920125
0.166212
0.239085
0.303032
0.352028
0.384451
0.402583
0.410671
0.41285
0.412004
0.40962
0.406419
0.402826
0.398931
0.394671
0.390039
0.38505
0.379658
0.373729
0.367057
0.359389
0.350439
0.339875
0.327305
0.312212
0.293986
0.271601
0.244324
0.209051
0.168084
0.104142
0.0619888
0.156037
0.196075
0.22101
0.234431
0.239047
0.24269
0.24311
0.243016
0.238814
0.232143
0.224663
0.225465
0.239718
0.263374
0.282407
0.272042
0.225308
0.156752
0.0809273
0.00624985
-0.0571946
-0.104599
-0.13315
-0.140981
-0.127416
-0.09318
-0.042006
0.0206843
0.0905607
0.164355
0.236734
0.300109
0.348611
0.380802
0.399044
0.407559
0.41036
0.410179
0.408366
0.405594
0.402315
0.398646
0.39454
0.389998
0.38505
0.379662
0.373714
0.367013
0.359312
0.350327
0.339729
0.327124
0.311997
0.293738
0.271321
0.244009
0.20872
0.167713
0.103898
0.0616215
0.15837
0.196237
0.220861
0.234165
0.238945
0.242604
0.243117
0.242967
0.238864
0.232323
0.225109
0.226082
0.240567
0.264693
0.284029
0.273802
0.226745
0.15791
0.0818098
0.00696293
-0.0565942
-0.104099
-0.132757
-0.140731
-0.127349
-0.0933428
-0.0424678
0.0198518
0.0893223
0.162664
0.234472
0.297178
0.345097
0.376996
0.395326
0.404284
0.407751
0.408285
0.407082
0.404759
0.401805
0.398368
0.394417
0.389968
0.38506
0.379676
0.37371
0.36698
0.359245
0.350225
0.339592
0.326954
0.311794
0.293501
0.271053
0.243708
0.208404
0.167358
0.103668
0.0612646
0.160609
0.196447
0.220738
0.233924
0.238854
0.242528
0.243128
0.24293
0.23893
0.232541
0.22562
0.226789
0.241445
0.265882
0.285316
0.275197
0.227991
0.159052
0.0827984
0.00786671
-0.0557577
-0.103336
-0.132081
-0.140181
-0.126971
-0.0931992
-0.0426456
0.0192732
0.0883057
0.161145
0.232301
0.294239
0.341484
0.373028
0.391422
0.400839
0.405019
0.406321
0.405767
0.403917
0.401298
0.398098
0.394305
0.389948
0.385081
0.379702
0.373718
0.366958
0.359189
0.350134
0.339466
0.326794
0.311601
0.293276
0.270798
0.24342
0.208103
0.167019
0.103453
0.0609183
0.162757
0.196699
0.220642
0.233708
0.238774
0.242462
0.243145
0.242907
0.239016
0.232796
0.226195
0.227576
0.242349
0.266946
0.286296
0.276247
0.229042
0.160165
0.0838811
0.00895239
-0.0546889
-0.102309
-0.131116
-0.139324
-0.126275
-0.0927418
-0.0425317
0.0189568
0.087519
0.159804
0.230226
0.291294
0.337772
0.368895
0.387325
0.397218
0.402159
0.404287
0.404423
0.403068
0.400796
0.397837
0.394202
0.389938
0.385113
0.379738
0.373736
0.366947
0.359143
0.350052
0.33935
0.326645
0.31142
0.293063
0.270556
0.243146
0.207816
0.166697
0.103253
0.0605831
0.164819
0.19699
0.220571
0.233516
0.238704
0.242408
0.24317
0.2429
0.239125
0.233091
0.226828
0.228434
0.243272
0.267887
0.286997
0.276971
0.229897
0.161235
0.085046
0.0102109
-0.0533925
-0.101018
-0.129861
-0.138155
-0.125254
-0.0919639
-0.0421193
0.0189101
0.0869699
0.158648
0.228249
0.288343
0.333958
0.364591
0.383026
0.393411
0.399166
0.40218
0.403052
0.402215
0.4003
0.397586
0.39411
0.389939
0.385155
0.379785
0.373765
0.366946
0.359108
0.349982
0.339245
0.326507
0.31125
0.292862
0.270327
0.242887
0.207546
0.166391
0.103068
0.0602591
0.1668
0.197316
0.220525
0.233347
0.238647
0.242366
0.243204
0.242911
0.239258
0.233425
0.227517
0.229353
0.244206
0.268705
0.287443
0.277386
0.230556
0.162251
0.0862814
0.011633
-0.0518734
-0.0994641
-0.128314
-0.136671
-0.123904
-0.0908605
-0.0414027
0.0191401
0.0866656
0.15768
0.226372
0.285386
0.330043
0.360112
0.378518
0.389411
0.396033
0.4
0.401653
0.401359
0.399812
0.397345
0.39403
0.389951
0.385208
0.379843
0.373805
0.366955
0.359083
0.349922
0.339151
0.32638
0.311092
0.292674
0.270111
0.242642
0.207291
0.166102
0.102897
0.0599467
0.168702
0.197674
0.220503
0.233202
0.238602
0.242336
0.243247
0.242941
0.239416
0.2338
0.228256
0.230321
0.245143
0.269401
0.287658
0.277507
0.231024
0.163203
0.0875759
0.0132092
-0.0501372
-0.0976495
-0.126473
-0.134868
-0.122221
-0.0894274
-0.0403771
0.0196532
0.0866128
0.156908
0.224597
0.282427
0.326025
0.355453
0.373791
0.385206
0.392755
0.397744
0.400229
0.400501
0.399333
0.397117
0.393961
0.389973
0.385271
0.37991
0.373854
0.366975
0.359068
0.349873
0.339068
0.326265
0.310947
0.292499
0.26991
0.242412
0.207052
0.16583
0.102741
0.0596464
0.17053
0.19806
0.220504
0.233079
0.238569
0.24232
0.243302
0.242991
0.239601
0.234213
0.229041
0.231329
0.246074
0.269975
0.287658
0.277352
0.231303
0.164082
0.0889184
0.0149298
-0.04819
-0.0955764
-0.124338
-0.132745
-0.120202
-0.087662
-0.0390389
0.020455
0.0868179
0.156333
0.222929
0.279465
0.321906
0.350611
0.368834
0.380786
0.389323
0.395412
0.398779
0.399644
0.398864
0.396901
0.393904
0.390006
0.385344
0.379988
0.373914
0.367005
0.359064
0.349834
0.338996
0.326161
0.310813
0.292337
0.269722
0.242197
0.20683
0.165576
0.102599
0.0593582
0.172286
0.198471
0.220527
0.232979
0.238549
0.242316
0.243368
0.24306
0.239811
0.234664
0.229865
0.232365
0.246985
0.270426
0.287459
0.276939
0.231396
0.16488
0.0902977
0.0167846
-0.0460386
-0.0932485
-0.121911
-0.130301
-0.117846
-0.0855629
-0.0373853
0.0215506
0.0872865
0.155961
0.221367
0.276504
0.317685
0.345579
0.363638
0.376139
0.38573
0.393002
0.397306
0.398789
0.398406
0.396699
0.393859
0.390051
0.385427
0.380075
0.373983
0.367045
0.359071
0.349806
0.338936
0.32607
0.310692
0.292188
0.269549
0.241998
0.206624
0.16534
0.102472
0.0590827
0.173975
0.198904
0.220572
0.2329
0.238542
0.242325
0.243446
0.243149
0.240045
0.235149
0.230724
0.233418
0.247865
0.270752
0.287069
0.276289
0.231308
0.16559
0.0917029
0.0187631
-0.0436907
-0.09067
-0.119193
-0.127537
-0.115155
-0.0831302
-0.0354146
0.0229446
0.0880239
0.155795
0.219916
0.273548
0.313365
0.340353
0.358191
0.37125
0.381967
0.39051
0.39581
0.397937
0.397963
0.396513
0.393829
0.390107
0.385521
0.380172
0.374062
0.367095
0.359087
0.349789
0.338886
0.32599
0.310584
0.292053
0.26939
0.241815
0.206434
0.165121
0.10236
0.0588201
0.175599
0.199357
0.220639
0.232843
0.238548
0.242348
0.243535
0.243258
0.240303
0.235664
0.231609
0.234479
0.248701
0.27095
0.286497
0.275424
0.231043
0.166209
0.0931233
0.0208543
-0.0411546
-0.0878467
-0.116188
-0.124456
-0.112129
-0.0803654
-0.0331263
0.0246409
0.0890344
0.155837
0.218577
0.270599
0.308946
0.334928
0.352479
0.366107
0.378024
0.387935
0.394293
0.397091
0.397534
0.396342
0.393812
0.390175
0.385625
0.380278
0.37415
0.367154
0.359113
0.349782
0.338848
0.325922
0.310489
0.291931
0.269246
0.241648
0.206262
0.16492
0.102261
0.0585707
0.177161
0.199827
0.220725
0.232806
0.238567
0.242383
0.243637
0.243385
0.240582
0.236206
0.232515
0.235536
0.249483
0.271019
0.285748
0.274366
0.230607
0.166732
0.0945483
0.0230465
-0.0384398
-0.0847852
-0.1129
-0.12106
-0.108772
-0.0772714
-0.0305202
0.0266429
0.0903218
0.15609
0.217353
0.267662
0.304431
0.329298
0.346488
0.360693
0.373892
0.385274
0.392755
0.396253
0.397123
0.396188
0.39381
0.390255
0.385739
0.380394
0.374248
0.367223
0.35915
0.349787
0.338821
0.325866
0.310407
0.291824
0.269117
0.241497
0.206107
0.164738
0.102177
0.0583349
0.178663
0.200312
0.220831
0.232789
0.238599
0.242432
0.243751
0.24353
0.24088
0.236768
0.233433
0.236581
0.250201
0.270957
0.284828
0.273136
0.230009
0.167157
0.0959679
0.0253275
-0.0355568
-0.0814936
-0.109336
-0.117356
-0.105089
-0.0738524
-0.0275975
0.0289534
0.0918892
0.156555
0.216247
0.264743
0.299824
0.323457
0.340207
0.354992
0.369561
0.382525
0.391197
0.395425
0.39673
0.396053
0.393823
0.390346
0.385863
0.380519
0.374354
0.367301
0.359196
0.349801
0.338806
0.325823
0.310337
0.29173
0.269004
0.241363
0.205969
0.164574
0.102108
0.0581131
0.180108
0.20081
0.220956
0.232792
0.238645
0.242494
0.243877
0.243693
0.241196
0.237348
0.234355
0.237605
0.250849
0.270765
0.283745
0.271754
0.22926
0.167483
0.0973727
0.0276845
-0.0325171
-0.0779815
-0.105503
-0.11335
-0.101087
-0.070114
-0.0243594
0.0315746
0.0937384
0.157233
0.215263
0.261848
0.295127
0.317401
0.333619
0.34899
0.365021
0.379685
0.389622
0.394609
0.396357
0.395937
0.393852
0.390451
0.385997
0.380652
0.374469
0.367387
0.359252
0.349826
0.338802
0.325792
0.310281
0.291651
0.268905
0.241246
0.205849
0.164429
0.102053
0.0579055
0.181499
0.201319
0.221098
0.232815
0.238703
0.242569
0.244014
0.243872
0.241528
0.237939
0.235275
0.238602
0.251423
0.270447
0.282507
0.270238
0.228377
0.167712
0.0987544
0.0301044
-0.0293338
-0.07426
-0.101411
-0.109051
-0.0967754
-0.066063
-0.0208081
0.0345082
0.0958708
0.158125
0.214403
0.258983
0.290345
0.311125
0.326714
0.34267
0.360262
0.376753
0.388029
0.393807
0.396006
0.395841
0.393897
0.390567
0.386141
0.380795
0.374592
0.367483
0.359317
0.349861
0.338809
0.325773
0.310239
0.291587
0.268823
0.241145
0.205747
0.164303
0.102012
0.0577125
0.182838
0.201838
0.221258
0.232856
0.238776
0.242657
0.244164
0.244068
0.241874
0.238538
0.236185
0.239564
0.251922
0.270008
0.281126
0.268602
0.227377
0.167847
0.100106
0.0325741
-0.0260208
-0.0703418
-0.0970722
-0.10447
-0.0921633
-0.0617071
-0.0169457
0.0377555
0.0982864
0.159229
0.213672
0.256158
0.285483
0.304626
0.319479
0.33602
0.355275
0.373727
0.386421
0.393022
0.395679
0.395767
0.393958
0.390697
0.386295
0.380946
0.374724
0.367588
0.359392
0.349907
0.338827
0.325766
0.310209
0.291536
0.268756
0.241062
0.205663
0.164196
0.101986
0.0575345
0.184126
0.202364
0.221435
0.232915
0.238861
0.242758
0.244326
0.244278
0.242234
0.239142
0.237082
0.240488
0.252346
0.269458
0.279618
0.266861
0.22628
0.167896
0.101423
0.0350809
-0.0225931
-0.0662414
-0.0924989
-0.0996191
-0.087263
-0.0570545
-0.0127747
0.0413167
0.100984
0.160545
0.213074
0.253381
0.280547
0.297903
0.311906
0.329028
0.350054
0.370605
0.3848
0.392256
0.395378
0.395715
0.394037
0.390839
0.386459
0.381105
0.374864
0.367701
0.359476
0.349963
0.338857
0.325772
0.310193
0.291501
0.268705
0.240995
0.205596