/*--------------------------------*- C++ -*----------------------------------*\
| =========                 |                                                 |
| \\      /  F ield         | OpenFOAM: The Open Source CFD Toolbox           |
|  \\    /   O peration     | Version:  2.4.0                                 |
|   \\  /    A nd           | Web:      www.OpenFOAM.org                      |
|    \\/     M anipulation  |                                                 |
\*---------------------------------------------------------------------------*/
FoamFile
{
    version     2.0;
    format      ascii;
    class       surfaceScalarField;
    location    "0.16";
    object      phi_0;
}
// * * * * * * * * * * * * * * * * * * * * * * * * * * * * * * * * * * * * * //

dimensions      [0 3 -1 0 0 0 0];

internalField   nonuniform List<scalar> 
4456
(
2.47663e-06
2.33656e-08
2.52306e-06
-4.64293e-08
2.46927e-06
5.37982e-08
2.53946e-06
-7.01934e-08
2.4613e-06
7.81627e-08
2.5546e-06
-9.33034e-08
2.45631e-06
9.82855e-08
2.56774e-06
-1.11426e-07
2.45447e-06
1.13269e-07
2.57895e-06
-1.24481e-07
2.46693e-06
1.1202e-07
2.59718e-06
-1.30245e-07
2.46644e-06
1.30734e-07
2.74013e-06
-2.73691e-07
2.37199e-06
3.68149e-07
3.07108e-06
-6.99097e-07
2.52673e-06
5.44355e-07
3.00418e-06
-4.77449e-07
3.00443e-06
-2.57631e-10
-3.28388e-07
3.33282e-06
2.47784e-06
4.55284e-08
2.52382e-06
-9.24108e-08
2.46983e-06
1.07789e-07
2.53985e-06
-1.40217e-07
2.46098e-06
1.57033e-07
2.55518e-06
-1.87498e-07
2.45228e-06
2.01183e-07
2.57173e-06
-2.30879e-07
2.43585e-06
2.49148e-07
2.59377e-06
-2.82399e-07
2.41099e-06
2.94805e-07
2.62104e-06
-3.40302e-07
2.35684e-06
3.94935e-07
2.6731e-06
-5.8995e-07
2.26015e-06
7.81101e-07
2.73986e-06
-1.17881e-06
2.34202e-06
9.42199e-07
2.87241e-06
-1.00784e-06
2.44752e-06
4.24636e-07
-8.5089e-07
2.97002e-06
2.47995e-06
6.55768e-08
2.5255e-06
-1.37957e-07
2.4703e-06
1.62991e-07
2.54092e-06
-2.1084e-07
2.45927e-06
2.38687e-07
2.55671e-06
-2.84945e-07
2.44384e-06
3.1406e-07
2.57854e-06
-3.65583e-07
2.41008e-06
4.17608e-07
2.6087e-06
-4.81017e-07
2.36455e-06
5.38952e-07
2.63356e-06
-6.09308e-07
2.31015e-06
7.18343e-07
2.67364e-06
-9.53444e-07
2.30543e-06
1.14931e-06
2.67609e-06
-1.54947e-06
2.56805e-06
1.05024e-06
2.72372e-06
-1.16351e-06
2.78809e-06
3.60271e-07
-1.1796e-06
3.11679e-06
2.48307e-06
8.2506e-08
2.52796e-06
-1.82844e-07
2.4706e-06
2.20353e-07
2.54126e-06
-2.81509e-07
2.4577e-06
3.22252e-07
2.55295e-06
-3.80191e-07
2.43891e-06
4.28096e-07
2.56683e-06
-4.935e-07
2.40442e-06
5.80018e-07
2.57291e-06
-6.49507e-07
2.38414e-06
7.27719e-07
2.57856e-06
-8.03724e-07
2.35937e-06
9.37528e-07
2.71285e-06
-1.30693e-06
2.30678e-06
1.55538e-06
2.77505e-06
-2.01774e-06
2.50145e-06
1.32384e-06
2.73584e-06
-1.3979e-06
2.64885e-06
4.47259e-07
-1.41959e-06
2.88884e-06
2.48743e-06
9.50785e-08
2.53107e-06
-2.26488e-07
2.47013e-06
2.81296e-07
2.54133e-06
-3.52709e-07
2.45323e-06
4.10348e-07
2.54772e-06
-4.7468e-07
2.42784e-06
5.47973e-07
2.5533e-06
-6.18961e-07
2.38642e-06
7.46908e-07
2.54473e-06
-8.07825e-07
2.36753e-06
9.04927e-07
2.55213e-06
-9.88324e-07
2.31694e-06
1.17271e-06
2.69804e-06
-1.68803e-06
2.25748e-06
1.99595e-06
2.61532e-06
-2.37559e-06
2.52959e-06
1.40957e-06
2.64727e-06
-1.51558e-06
2.66041e-06
4.34119e-07
-1.74668e-06
2.9875e-06
2.4963e-06
9.87768e-08
2.5315e-06
-2.61683e-07
2.46882e-06
3.43973e-07
2.53984e-06
-4.23729e-07
2.4481e-06
5.0209e-07
2.53436e-06
-5.60944e-07
2.42314e-06
6.59193e-07
2.52225e-06
-7.18066e-07
2.38819e-06
8.80963e-07
2.50217e-06
-9.21798e-07
2.37781e-06
1.02928e-06
2.53505e-06
-1.14557e-06
2.31717e-06
1.39059e-06
2.70986e-06
-2.08071e-06
2.36886e-06
2.33694e-06
2.65514e-06
-2.66186e-06
2.63538e-06
1.42933e-06
2.82804e-06
-1.70824e-06
2.85847e-06
4.03686e-07
-2.11257e-06
3.22436e-06
2.5076e-06
9.11744e-08
2.52182e-06
-2.75899e-07
2.47447e-06
3.91318e-07
2.53e-06
-4.79252e-07
2.44718e-06
5.84902e-07
2.51396e-06
-6.27721e-07
2.42237e-06
7.50783e-07
2.48596e-06
-7.81656e-07
2.38573e-06
9.81196e-07
2.46995e-06
-1.00602e-06
2.34519e-06
1.15404e-06
2.51873e-06
-1.31911e-06
2.27185e-06
1.63747e-06
2.59259e-06
-2.40145e-06
2.40825e-06
2.52128e-06
2.51963e-06
-2.77324e-06
2.60181e-06
1.34716e-06
2.66204e-06
-1.76847e-06
2.71152e-06
3.54207e-07
-2.69704e-06
3.29599e-06
2.51276e-06
7.84193e-08
2.52349e-06
-2.86635e-07
2.47936e-06
4.35447e-07
2.51865e-06
-5.18535e-07
2.46071e-06
6.42838e-07
2.47579e-06
-6.42801e-07
2.45145e-06
7.75119e-07
2.44185e-06
-7.72056e-07
2.40054e-06
1.02251e-06
2.45045e-06
-1.05593e-06
2.32512e-06
1.27937e-06
2.50907e-06
-1.50305e-06
2.2926e-06
1.85394e-06
2.50394e-06
-2.61279e-06
2.47325e-06
2.55197e-06
2.50204e-06
-2.80203e-06
2.59999e-06
1.2492e-06
2.6817e-06
-1.85018e-06
2.66252e-06
3.73393e-07
-3.40763e-06
3.37311e-06
2.51212e-06
6.63022e-08
2.53028e-06
-3.04793e-07
2.47183e-06
4.93894e-07
2.51818e-06
-5.64887e-07
2.4563e-06
7.04719e-07
2.44624e-06
-6.32742e-07
2.47334e-06
7.48021e-07
2.38477e-06
-6.8349e-07
2.42985e-06
9.77427e-07
2.42315e-06
-1.04923e-06
2.30627e-06
1.39625e-06
2.47027e-06
-1.66705e-06
2.33672e-06
1.98749e-06
2.37874e-06
-2.65482e-06
2.50614e-06
2.42458e-06
2.32399e-06
-2.61988e-06
2.60549e-06
9.67697e-07
2.53286e-06
-1.77755e-06
2.63531e-06
2.70951e-07
-4.19521e-06
3.42288e-06
2.51032e-06
5.59791e-08
2.53992e-06
-3.34389e-07
2.45999e-06
5.73821e-07
2.52139e-06
-6.26283e-07
2.44463e-06
7.8148e-07
2.42464e-06
-6.12752e-07
2.48598e-06
6.8668e-07
2.34718e-06
-5.44695e-07
2.45769e-06
8.66917e-07
2.41122e-06
-1.00275e-06
2.32918e-06
1.47829e-06
2.449e-06
-1.78687e-06
2.40121e-06
2.03528e-06
2.27598e-06
-2.52959e-06
2.5532e-06
2.14736e-06
2.26774e-06
-2.33442e-06
2.59171e-06
6.43722e-07
2.38236e-06
-1.5682e-06
2.727e-06
-7.36859e-08
-4.42625e-06
2.95804e-06
2.50787e-06
4.81076e-08
2.5467e-06
-3.73223e-07
2.45029e-06
6.70238e-07
2.5255e-06
-7.01493e-07
2.43134e-06
8.75634e-07
2.41415e-06
-5.95555e-07
2.48899e-06
6.11839e-07
2.32897e-06
-3.84671e-07
2.47971e-06
7.16171e-07
2.40919e-06
-9.32226e-07
2.34437e-06
1.5431e-06
2.43576e-06
-1.87826e-06
2.43464e-06
2.03641e-06
2.21697e-06
-2.31192e-06
2.59117e-06
1.77316e-06
2.25355e-06
-1.9968e-06
2.54337e-06
3.53903e-07
2.40472e-06
-1.42955e-06
2.70852e-06
-3.77487e-07
-4.24189e-06
2.52416e-06
2.51008e-06
3.80292e-08
2.54677e-06
-4.09917e-07
2.44354e-06
7.73473e-07
2.52566e-06
-7.83612e-07
2.4173e-06
9.83988e-07
2.41057e-06
-5.88823e-07
2.48406e-06
5.38348e-07
2.3314e-06
-2.32009e-07
2.50491e-06
5.42659e-07
2.4109e-06
-8.38213e-07
2.39146e-06
1.56253e-06
2.42534e-06
-1.91214e-06
2.49804e-06
1.96371e-06
2.2345e-06
-2.04838e-06
2.63342e-06
1.37424e-06
2.3662e-06
-1.72958e-06
2.49849e-06
2.21615e-07
2.53896e-06
-1.47001e-06
2.89688e-06
-7.35412e-07
-3.72106e-06
2.37604e-06
2.51241e-06
2.56225e-08
2.53063e-06
-4.28141e-07
2.44881e-06
8.55299e-07
2.51851e-06
-8.53318e-07
2.41027e-06
1.09223e-06
2.41746e-06
-5.9601e-07
2.46382e-06
4.91993e-07
2.3487e-06
-1.16891e-07
2.5113e-06
3.80055e-07
2.40847e-06
-7.35378e-07
2.46634e-06
1.50466e-06
2.40089e-06
-1.84669e-06
2.58074e-06
1.78386e-06
2.27605e-06
-1.74369e-06
2.70177e-06
9.48513e-07
2.49883e-06
-1.52664e-06
2.66829e-06
5.21623e-08
2.69084e-06
-1.49256e-06
3.0919e-06
-1.13647e-06
-3.56322e-06
2.93406e-06
2.51692e-06
8.70357e-09
2.49236e-06
-4.03582e-07
2.4631e-06
8.84554e-07
2.49298e-06
-8.83194e-07
2.4177e-06
1.16751e-06
2.42965e-06
-6.07959e-07
2.46884e-06
4.52797e-07
2.39291e-06
-4.09554e-08
2.52347e-06
2.49492e-07
2.43885e-06
-6.50758e-07
2.57571e-06
1.3678e-06
2.39572e-06
-1.66669e-06
2.73046e-06
1.44912e-06
2.35367e-06
-1.3669e-06
2.82955e-06
4.72639e-07
2.52571e-06
-1.2228e-06
2.9446e-06
-3.66728e-07
2.61246e-06
-1.16042e-06
3.02464e-06
-1.54865e-06
-3.25679e-06
2.71821e-06
2.49957e-06
9.1376e-09
2.44381e-06
-3.47829e-07
2.50175e-06
8.26615e-07
2.44892e-06
-8.30365e-07
2.46663e-06
1.1498e-06
2.45699e-06
-5.98313e-07
2.4905e-06
4.19279e-07
2.45442e-06
-4.86903e-09
2.53378e-06
1.70127e-07
2.47568e-06
-5.92659e-07
2.6812e-06
1.16228e-06
2.40462e-06
-1.39011e-06
2.91042e-06
9.4331e-07
2.4367e-06
-8.93175e-07
2.85696e-06
5.23754e-08
2.5375e-06
-9.03337e-07
2.80307e-06
-6.32306e-07
2.58815e-06
-9.45502e-07
2.83256e-06
-1.79305e-06
-2.07206e-06
1.64782e-06
2.47519e-06
3.39482e-08
2.41568e-06
-2.88317e-07
2.53529e-06
7.07006e-07
2.40666e-06
-7.01738e-07
2.57583e-06
9.80625e-07
2.5026e-06
-5.25078e-07
2.58601e-06
3.35866e-07
2.58013e-06
1.0193e-09
2.60796e-06
1.42297e-07
2.55817e-06
-5.42872e-07
2.8567e-06
8.63747e-07
2.48112e-06
-1.01453e-06
2.97143e-06
4.53004e-07
2.66134e-06
-5.83084e-07
2.71504e-06
-1.3245e-09
2.65577e-06
-8.44072e-07
2.59935e-06
-5.75879e-07
2.60238e-06
-9.48532e-07
2.96419e-06
-2.15486e-06
-6.90851e-07
1.58298e-06
2.46817e-06
6.57825e-08
2.43011e-06
-2.50264e-07
2.59735e-06
5.39766e-07
2.4195e-06
-5.23885e-07
2.74326e-06
6.56863e-07
2.56588e-06
-3.47696e-07
2.6828e-06
2.18941e-07
2.71751e-06
-3.36843e-08
2.69627e-06
1.63533e-07
2.61584e-06
-4.6244e-07
2.92981e-06
5.49774e-07
2.59188e-06
-6.76599e-07
2.80319e-06
2.41696e-07
2.71035e-06
-4.90241e-07
2.61524e-06
9.37842e-08
2.54043e-06
-7.69265e-07
2.38187e-06
-4.17317e-07
2.25681e-06
-8.23467e-07
2.59078e-06
-2.48884e-06
5.03066e-07
1.39686e-06
2.54118e-06
2.46029e-08
2.44828e-06
-1.5736e-07
2.63816e-06
3.49879e-07
2.47239e-06
-3.58112e-07
2.7091e-06
4.20154e-07
2.58104e-06
-2.19641e-07
2.67667e-06
1.23318e-07
2.68473e-06
-4.17426e-08
2.71492e-06
1.33337e-07
2.59657e-06
-3.44094e-07
2.8253e-06
3.21044e-07
2.55506e-06
-4.06359e-07
2.68421e-06
1.12552e-07
2.54843e-06
-3.54462e-07
2.51156e-06
1.30656e-07
2.35368e-06
-6.11391e-07
2.149e-06
-2.12635e-07
1.90449e-06
-5.78959e-07
1.3693e-06
-1.95364e-06
9.03745e-07
9.6862e-07
2.57072e-06
-4.61159e-08
2.47772e-06
-6.4358e-08
2.59372e-06
2.33872e-07
2.45076e-06
-2.15149e-07
2.625e-06
2.45912e-07
2.50246e-06
-9.70966e-08
2.6223e-06
3.47877e-09
2.58242e-06
-1.86214e-09
2.65542e-06
6.03374e-08
2.51347e-06
-2.02144e-07
2.67185e-06
1.62658e-07
2.46694e-06
-2.0145e-07
2.51217e-06
6.73235e-08
2.3833e-06
-2.25594e-07
2.3555e-06
1.58461e-07
2.13605e-06
-3.91945e-07
1.98531e-06
-6.18902e-08
1.79148e-06
-3.85131e-07
1.25413e-06
-1.41629e-06
1.02202e-06
1.13586e-06
2.45388e-06
2.38953e-06
2.6234e-06
2.40825e-06
2.65416e-06
2.55706e-06
2.56054e-06
2.55868e-06
2.61902e-06
2.41688e-06
2.57953e-06
2.37808e-06
2.44541e-06
2.21981e-06
2.37827e-06
1.98633e-06
1.92444e-06
1.53931e-06
1.23013e-07
1.14503e-06
2.87782e-06
4.55006e-07
4.20127e-06
-1.32346e-06
3.84111e-06
3.60161e-07
4.23715e-06
-3.96033e-07
5.0776e-06
-8.40449e-07
5.02189e-06
5.57055e-08
5.30277e-06
-2.80876e-07
-1.28824e-06
6.591e-06
3.2786e-06
1.46428e-07
3.34556e-06
-1.39042e-06
4.13773e-06
-4.32013e-07
4.51391e-06
-7.72208e-07
4.27872e-06
-6.05261e-07
5.21038e-06
-8.75951e-07
5.87273e-06
-9.43231e-07
-1.51333e-06
6.09782e-06
3.0911e-06
1.72124e-07
3.94021e-06
-2.23953e-06
3.9195e-06
-4.11302e-07
4.2979e-06
-1.1506e-06
4.81337e-06
-1.12074e-06
5.06827e-06
-1.13085e-06
5.60133e-06
-1.47629e-06
-2.03327e-06
6.12127e-06
2.96098e-06
9.99842e-08
3.57535e-06
-2.8539e-06
3.62877e-06
-4.64719e-07
4.28095e-06
-1.80279e-06
4.4942e-06
-1.33399e-06
5.0281e-06
-1.66475e-06
5.53417e-06
-1.98236e-06
-2.63653e-06
6.13742e-06
2.84291e-06
2.44581e-07
3.56028e-06
-3.57128e-06
3.65909e-06
-5.63529e-07
4.25173e-06
-2.39543e-06
4.78887e-06
-1.87113e-06
5.32218e-06
-2.19805e-06
5.56086e-06
-2.22104e-06
-3.38486e-06
6.30919e-06
2.91165e-06
5.57289e-07
3.58071e-06
-4.24034e-06
3.67084e-06
-6.53652e-07
4.44783e-06
-3.17242e-06
4.875e-06
-2.2983e-06
5.39238e-06
-2.71543e-06
5.88213e-06
-2.71079e-06
-3.85139e-06
6.34867e-06
2.65983e-06
1.19345e-06
3.1788e-06
-4.75931e-06
3.63508e-06
-1.10993e-06
4.22562e-06
-3.76297e-06
4.31362e-06
-2.38629e-06
5.63774e-06
-4.03955e-06
6.00962e-06
-3.08267e-06
-4.07932e-06
6.23755e-06
2.86299e-06
1.70357e-06
3.29827e-06
-5.19459e-06
3.94694e-06
-1.7586e-06
4.16717e-06
-3.9832e-06
4.38102e-06
-2.60014e-06
5.9437e-06
-5.60223e-06
6.3186e-06
-3.45757e-06
-4.40329e-06
6.64257e-06
3.11878e-06
2.00767e-06
3.74945e-06
-5.82526e-06
3.93491e-06
-1.94406e-06
4.47468e-06
-4.52297e-06
4.9464e-06
-3.07186e-06
5.99948e-06
-6.65531e-06
6.65022e-06
-4.10831e-06
-4.61776e-06
6.86469e-06
3.35206e-06
1.61365e-06
3.84149e-06
-6.31469e-06
3.48261e-06
-1.58518e-06
4.77517e-06
-5.81553e-06
5.6555e-06
-3.9522e-06
6.05517e-06
-7.05498e-06
6.65269e-06
-4.70583e-06
-5.25303e-06
7.28796e-06
3.21644e-06
9.21371e-07
3.44632e-06
-6.54457e-06
3.61438e-06
-1.75324e-06
5.14774e-06
-7.34888e-06
5.81317e-06
-4.61764e-06
6.03298e-06
-7.27479e-06
6.59842e-06
-5.27127e-06
-6.2186e-06
7.56399e-06
3.25658e-06
4.08311e-08
3.24756e-06
-6.53555e-06
4.35467e-06
-2.86035e-06
5.68191e-06
-8.67612e-06
5.6487e-06
-4.58442e-06
6.09838e-06
-7.72447e-06
6.75833e-06
-5.93121e-06
-7.11763e-06
7.65736e-06
3.72508e-06
-7.50187e-07
3.85594e-06
-6.66641e-06
5.31034e-06
-4.31474e-06
5.65455e-06
-9.02033e-06
5.37347e-06
-4.30334e-06
6.45258e-06
-8.80358e-06
6.94095e-06
-6.41959e-06
-7.0875e-06
6.91082e-06
3.36672e-06
-1.3987e-06
4.17151e-06
-7.47119e-06
5.1492e-06
-5.29244e-06
4.95384e-06
-8.82497e-06
5.56939e-06
-4.9189e-06
6.72538e-06
-9.95957e-06
6.02964e-06
-5.72385e-06
-7.33318e-06
6.27532e-06
2.74748e-06
-2.49836e-06
3.80086e-06
-8.52458e-06
4.64973e-06
-6.14131e-06
4.94316e-06
-9.11839e-06
5.87283e-06
-5.84856e-06
6.10478e-06
-1.01915e-05
5.45203e-06
-5.0711e-06
-8.8782e-06
6.99704e-06
3.16815e-06
-4.08353e-06
3.85215e-06
-9.20858e-06
4.71485e-06
-7.00401e-06
4.6911e-06
-9.09464e-06
5.23502e-06
-6.39248e-06
5.24126e-06
-1.01978e-05
5.53112e-06
-5.36096e-06
-1.08151e-05
7.46804e-06
3.35505e-06
-6.04171e-06
3.75115e-06
-9.60468e-06
4.25919e-06
-7.51205e-06
4.12992e-06
-8.96537e-06
4.94172e-06
-7.20428e-06
4.87273e-06
-1.01288e-05
5.66363e-06
-6.15186e-06
-1.26507e-05
7.49923e-06
3.4175e-06
-8.49059e-06
3.31287e-06
-9.50006e-06
3.96594e-06
-8.16511e-06
4.10505e-06
-9.10449e-06
4.62308e-06
-7.72232e-06
4.34129e-06
-9.84697e-06
5.80397e-06
-7.61454e-06
-1.40013e-05
7.15456e-06
3.28583e-06
-1.06406e-05
3.27612e-06
-9.49034e-06
3.65371e-06
-8.5427e-06
3.51753e-06
-8.96831e-06
3.90566e-06
-8.11044e-06
3.94847e-06
-9.88978e-06
5.3398e-06
-9.00587e-06
-1.40498e-05
5.38826e-06
3.00743e-06
-1.2503e-05
2.95381e-06
-9.43673e-06
3.37204e-06
-8.96093e-06
3.39151e-06
-8.98779e-06
3.87005e-06
-8.58898e-06
3.71958e-06
-9.73932e-06
4.08162e-06
-9.36791e-06
2.39725e-06
-1.23654e-05
7.00512e-06
-4.14116e-07
7.092e-06
-8.68771e-08
7.52301e-06
-4.31016e-07
7.75544e-06
-2.32426e-07
8.05232e-06
-2.96878e-07
8.13763e-06
-8.53164e-08
8.35488e-06
-2.17248e-07
8.00317e-06
3.51714e-07
8.03387e-06
-3.07009e-08
7.79164e-06
2.42227e-07
7.53559e-06
2.56055e-07
7.52924e-06
6.34966e-09
7.35944e-06
1.69801e-07
7.36501e-06
-5.57661e-09
7.02944e-06
3.35571e-07
7.20086e-06
-1.71414e-07
6.71961e-06
4.81248e-07
6.49625e-06
2.23355e-07
6.70876e-06
-2.12508e-07
6.62313e-06
8.56309e-08
6.69154e-06
-6.84138e-08
6.53085e-06
1.60697e-07
7.25632e-06
-7.2547e-07
7.12263e-06
1.33688e-07
7.30142e-06
-1.78794e-07
6.99444e-06
3.06984e-07
7.80668e-06
-8.12246e-07
-1.603e-06
9.40969e-06
6.77588e-06
-1.09218e-06
7.30001e-06
-6.11002e-07
7.38831e-06
-5.19316e-07
7.74141e-06
-5.85523e-07
7.95442e-06
-5.09893e-07
8.22619e-06
-3.57085e-07
8.05343e-06
-4.44908e-08
8.10066e-06
3.04486e-07
7.8655e-06
2.04463e-07
7.5702e-06
5.37522e-07
7.59435e-06
2.31907e-07
7.26256e-06
3.38136e-07
7.20044e-06
2.3192e-07
7.27648e-06
-8.16119e-08
6.95351e-06
6.58538e-07
7.01159e-06
-2.29491e-07
6.8463e-06
6.46539e-07
6.58848e-06
4.81175e-07
6.45468e-06
-7.87087e-08
6.65268e-06
-1.12368e-07
6.4372e-06
1.47067e-07
6.89113e-06
-2.9324e-07
6.5503e-06
-3.84634e-07
7.04839e-06
-3.64405e-07
7.05228e-06
-1.82686e-07
7.08386e-06
2.75409e-07
7.29263e-06
-1.02102e-06
-2.21855e-06
7.90818e-06
6.85033e-06
-1.82124e-06
7.07817e-06
-8.38842e-07
7.29409e-06
-7.35234e-07
7.61071e-06
-9.02138e-07
7.9866e-06
-8.85783e-07
8.08024e-06
-4.50724e-07
8.18656e-06
-1.50817e-07
8.05467e-06
4.36375e-07
7.83994e-06
4.19196e-07
7.70444e-06
6.73024e-07
7.38005e-06
5.56293e-07
7.28792e-06
4.30267e-07
7.15385e-06
3.65992e-07
6.99241e-06
7.98299e-08
7.07778e-06
5.73167e-07
6.65116e-06
1.97128e-07
6.82779e-06
4.69906e-07
6.20692e-06
1.10205e-06
6.45853e-06
-3.30316e-07
6.24594e-06
1.00222e-07
6.50565e-06
-1.12644e-07
6.50775e-06
-2.95341e-07
6.66485e-06
-5.4174e-07
6.87552e-06
-5.75072e-07
6.83885e-06
-1.46012e-07
7.45677e-06
-3.42518e-07
6.98752e-06
-5.51771e-07
-2.9113e-06
7.68027e-06
6.65292e-06
-2.33674e-06
7.02574e-06
-1.21166e-06
7.21101e-06
-9.20503e-07
7.61121e-06
-1.30234e-06
8.01494e-06
-1.28951e-06
8.27078e-06
-7.06559e-07
8.26058e-06
-1.40622e-07
8.17609e-06
5.20862e-07
7.97462e-06
6.20674e-07
7.73978e-06
9.0786e-07
7.49094e-06
8.05138e-07
7.26272e-06
6.58479e-07
7.0696e-06
5.59111e-07
7.00349e-06
1.45942e-07
6.94438e-06
6.32276e-07
6.71017e-06
4.31345e-07
6.68122e-06
4.98847e-07
6.58468e-06
1.1986e-06
6.23032e-06
2.40406e-08
6.52394e-06
-1.93397e-07
6.5086e-06
-9.73022e-08
6.68932e-06
-4.76067e-07
6.79181e-06
-6.44231e-07
6.69459e-06
-4.77849e-07
7.24299e-06
-6.94408e-07
7.13086e-06
-2.30394e-07
7.39398e-06
-8.14887e-07
-2.30924e-06
6.79192e-06
6.74385e-06
-2.7714e-06
7.06633e-06
-1.53414e-06
7.27195e-06
-1.12613e-06
7.75607e-06
-1.78646e-06
8.24556e-06
-1.779e-06
8.42692e-06
-8.87923e-07
8.40992e-06
-1.23621e-07
8.30591e-06
6.24876e-07
7.98969e-06
9.36891e-07
7.77381e-06
1.12375e-06
7.45152e-06
1.12743e-06
7.08968e-06
1.02031e-06
6.93635e-06
7.12448e-07
6.66841e-06
4.13877e-07
6.86429e-06
4.36401e-07
6.46354e-06
8.32091e-07
6.55682e-06
4.05562e-07
6.47365e-06
1.28176e-06
6.11457e-06
3.83124e-07
6.25463e-06
-3.33455e-07
6.38744e-06
-2.30111e-07
6.48241e-06
-5.7104e-07
6.46084e-06
-6.22666e-07
6.71129e-06
-7.28295e-07
6.71679e-06
-6.99903e-07
7.09488e-06
-6.08486e-07
7.13735e-06
-8.57362e-07
-1.79311e-06
6.62122e-06
6.91698e-06
-3.33971e-06
7.3425e-06
-1.95965e-06
7.53061e-06
-1.31425e-06
8.14239e-06
-2.39824e-06
8.51032e-06
-2.14694e-06
8.76409e-06
-1.14169e-06
8.70541e-06
-6.49421e-08
8.50837e-06
8.21913e-07
8.24304e-06
1.20223e-06
7.93582e-06
1.43096e-06
7.63017e-06
1.43308e-06
7.23711e-06
1.41337e-06
6.88076e-06
1.0688e-06
6.63327e-06
6.61365e-07
6.58146e-06
4.88209e-07
6.47486e-06
9.38696e-07
6.31363e-06
5.66791e-07
6.46953e-06
1.12586e-06
6.17094e-06
6.81718e-07
6.14657e-06
-3.09086e-07
6.33194e-06
-4.15483e-07
6.41629e-06
-6.55389e-07
6.34243e-06
-5.48802e-07
6.56381e-06
-9.49674e-07
6.56816e-06
-7.04259e-07
7.02391e-06
-1.06424e-06
6.88135e-06
-7.14794e-07
-1.67609e-06
6.76432e-06
7.13758e-06
-4.23975e-06
7.4305e-06
-2.25257e-06
7.83408e-06
-1.71782e-06
8.30309e-06
-2.86725e-06
8.76952e-06
-2.61336e-06
8.94404e-06
-1.31622e-06
8.90849e-06
-2.9392e-08
8.73471e-06
9.95695e-07
8.47756e-06
1.45937e-06
8.18359e-06
1.72494e-06
7.93516e-06
1.68151e-06
7.38892e-06
1.9596e-06
7.05059e-06
1.40714e-06
6.58167e-06
1.13028e-06
6.52529e-06
5.44585e-07
6.41864e-06
1.04535e-06
6.29323e-06
6.92208e-07
6.49603e-06
9.23058e-07
6.3713e-06
8.06452e-07
6.08976e-06
-2.75492e-08
6.19977e-06
-5.25491e-07
6.36143e-06
-8.17047e-07
6.35768e-06
-5.4506e-07
6.27287e-06
-8.64858e-07
6.55379e-06
-9.85184e-07
6.66253e-06
-1.17298e-06
6.97745e-06
-1.02972e-06
-1.02249e-06
6.32386e-06
7.11596e-06
-4.71313e-06
7.77826e-06
-2.91487e-06
8.25184e-06
-2.1914e-06
8.59521e-06
-3.21063e-06
9.10814e-06
-3.12628e-06
9.24317e-06
-1.45125e-06
9.3085e-06
-9.47232e-08
9.12702e-06
1.17718e-06
8.81436e-06
1.77203e-06
8.62361e-06
1.91569e-06
8.35983e-06
1.94529e-06
8.03734e-06
2.2821e-06
7.37434e-06
2.07014e-06
6.90076e-06
1.60386e-06
6.53834e-06
9.06998e-07
6.5285e-06
1.05519e-06
6.42222e-06
7.9848e-07
6.3531e-06
9.92186e-07
6.59455e-06
5.65002e-07
6.18512e-06
3.8188e-07
6.09273e-06
-4.33101e-07
6.14478e-06
-8.69104e-07
6.40163e-06
-8.01904e-07
6.27055e-06
-7.33776e-07
6.40908e-06
-1.12372e-06
6.45479e-06
-1.21868e-06
6.796e-06
-1.37093e-06
-7.53222e-07
6.52674e-06
7.25552e-06
-5.10396e-06
8.0837e-06
-3.74305e-06
8.65326e-06
-2.76096e-06
9.08524e-06
-3.64261e-06
9.34528e-06
-3.38632e-06
9.5803e-06
-1.68626e-06
9.61317e-06
-1.27596e-07
9.50067e-06
1.28968e-06
9.20071e-06
2.072e-06
8.95368e-06
2.16272e-06
8.6718e-06
2.22717e-06
8.37947e-06
2.57443e-06
7.86357e-06
2.58604e-06
7.38766e-06
2.07978e-06
6.71875e-06
1.5759e-06
6.65388e-06
1.12006e-06
6.47212e-06
9.80243e-07
6.5142e-06
9.50107e-07
6.36434e-06
7.14855e-07
6.38327e-06
3.62954e-07
6.00546e-06
-5.52906e-08
5.90362e-06
-7.67271e-07
6.1836e-06
-1.08188e-06
6.21562e-06
-7.65794e-07
6.04346e-06
-9.51562e-07
6.20218e-06
-1.37741e-06
6.2955e-06
-1.46424e-06
-1.16676e-06
6.70904e-06
7.69501e-06
-5.51102e-06
8.30622e-06
-4.35426e-06
8.96565e-06
-3.4204e-06
9.2859e-06
-3.96287e-06
9.41039e-06
-3.51081e-06
9.7697e-06
-2.04557e-06
9.84893e-06
-2.06827e-07
9.77951e-06
1.3591e-06
9.49893e-06
2.35258e-06
9.14657e-06
2.51508e-06
8.87177e-06
2.50197e-06
8.81092e-06
2.63528e-06
8.36022e-06
3.03674e-06
7.66383e-06
2.77617e-06
7.06909e-06
2.17064e-06
6.70971e-06
1.47945e-06
6.63197e-06
1.05798e-06
6.54038e-06
1.0417e-06
6.39288e-06
8.62351e-07
6.47872e-06
2.77113e-07
6.34515e-06
7.82777e-08
6.23951e-06
-6.61627e-07
6.0798e-06
-9.2217e-07
6.50774e-06
-1.19374e-06
6.08154e-06
-5.25362e-07
5.97025e-06
-1.26612e-06
6.0806e-06
-1.5746e-06
-1.82237e-06
6.73621e-06
7.76112e-06
-5.70815e-06
8.42856e-06
-5.02169e-06
8.77071e-06
-3.76255e-06
8.95873e-06
-4.15089e-06
9.20708e-06
-3.75916e-06
9.54426e-06
-2.38275e-06
9.86283e-06
-5.25397e-07
9.72502e-06
1.49691e-06
9.57412e-06
2.50347e-06
9.18589e-06
2.90331e-06
8.69626e-06
2.99161e-06
8.33999e-06
2.99154e-06
8.20727e-06
3.16946e-06
7.83901e-06
3.14443e-06
7.39094e-06
2.6187e-06
7.00005e-06
1.87034e-06
6.69765e-06
1.36038e-06
6.56023e-06
1.17912e-06
6.40557e-06
1.01701e-06
6.29581e-06
3.86879e-07
6.6687e-06
-2.94611e-07
6.51128e-06
-5.04213e-07
6.36946e-06
-7.80351e-07
6.22488e-06
-1.04916e-06
6.53619e-06
-8.36673e-07
6.21646e-06
-9.46385e-07
6.07004e-06
-1.42817e-06
-2.17809e-06
6.42576e-06
7.49141e-06
-5.54219e-06
7.95295e-06
-5.48324e-06
8.35134e-06
-4.16095e-06
8.76597e-06
-4.56551e-06
9.34112e-06
-4.33431e-06
9.82728e-06
-2.86891e-06
1.01551e-05
-8.53214e-07
1.0045e-05
1.60703e-06
9.68515e-06
2.8633e-06
9.07807e-06
3.51039e-06
8.29668e-06
3.773e-06
7.66909e-06
3.61912e-06
7.44328e-06
3.39527e-06
7.27005e-06
3.31767e-06
7.09146e-06
2.79728e-06
6.89555e-06
2.06625e-06
6.76556e-06
1.49037e-06
6.8177e-06
1.12698e-06
6.72087e-06
1.11384e-06
6.70055e-06
4.07205e-07
6.72247e-06
-3.16539e-07
7.06269e-06
-8.44429e-07
6.99131e-06
-7.0897e-07
6.42009e-06
-4.77941e-07
6.61009e-06
-1.02668e-06
6.68491e-06
-1.0212e-06
6.69696e-06
-1.44022e-06
-1.61528e-06
6.13415e-06
7.01547e-06
-5.64684e-06
7.78776e-06
-6.25553e-06
8.46787e-06
-4.84106e-06
9.21955e-06
-5.31719e-06
1.00373e-05
-5.15206e-06
1.05974e-05
-3.42898e-06
1.0849e-05
-1.10485e-06
1.05541e-05
1.9019e-06
1.00498e-05
3.36769e-06
9.39013e-06
4.17001e-06
8.42043e-06
4.7427e-06
7.39601e-06
4.64354e-06
6.71804e-06
4.07325e-06
6.59241e-06
3.4433e-06
6.60798e-06
2.78171e-06
6.65279e-06
2.02143e-06
6.63841e-06
1.50476e-06
6.60413e-06
1.16126e-06
6.90758e-06
8.10385e-07
7.03262e-06
2.82169e-07
6.99205e-06
-2.75977e-07
7.04641e-06
-8.98785e-07
7.00037e-06
-6.6293e-07
7.02284e-06
-5.00415e-07
6.50451e-06
-5.08348e-07
6.62277e-06
-1.13945e-06
6.48591e-06
-1.30336e-06
-1.16844e-06
6.03907e-06
7.72219e-06
-7.0937e-06
8.47001e-06
-7.00335e-06
9.06123e-06
-5.43227e-06
9.59551e-06
-5.85148e-06
9.85757e-06
-5.41411e-06
1.02253e-05
-3.79668e-06
1.01235e-05
-1.00306e-06
9.81348e-06
2.21189e-06
9.57233e-06
3.60884e-06
9.0648e-06
4.67754e-06
8.41557e-06
5.39193e-06
7.78067e-06
5.27844e-06
7.31893e-06
4.53499e-06
7.09299e-06
3.66924e-06
7.12007e-06
2.75463e-06
7.09892e-06
2.04258e-06
7.19018e-06
1.41351e-06
7.32275e-06
1.02869e-06
7.47024e-06
6.62902e-07
7.65285e-06
9.95502e-08
7.63341e-06
-2.5653e-07
7.28273e-06
-5.48107e-07
7.13e-06
-5.10203e-07
7.02539e-06
-3.95802e-07
6.8944e-06
-3.7736e-07
6.51965e-06
-7.64696e-07
6.15903e-06
-9.42745e-07
-1.11051e-06
6.1011e-06
8.46955e-06
-8.5662e-06
8.49197e-06
-7.02578e-06
8.4224e-06
-5.36269e-06
8.1072e-06
-5.53629e-06
7.83677e-06
-5.14368e-06
8.08028e-06
-4.04018e-06
7.82481e-06
-7.47598e-07
7.78699e-06
2.24971e-06
8.10632e-06
3.28951e-06
7.89122e-06
4.89264e-06
7.71062e-06
5.57253e-06
7.68244e-06
5.30663e-06
7.49939e-06
4.71803e-06
7.29679e-06
3.87184e-06
7.17834e-06
2.87308e-06
7.16034e-06
2.06058e-06
7.18402e-06
1.38983e-06
7.31298e-06
8.99723e-07
7.43141e-06
5.44474e-07
7.31946e-06
2.11498e-07
7.1967e-06
-1.33772e-07
6.97665e-06
-3.28058e-07
6.82463e-06
-3.58174e-07
6.79148e-06
-3.62658e-07
6.83932e-06
-4.25202e-07
6.62941e-06
-5.54784e-07
6.39109e-06
-7.04427e-07
-1.00592e-06
6.2865e-06
8.24776e-06
-9.34593e-06
7.56758e-06
-6.3456e-06
6.42426e-06
-4.21937e-06
5.37788e-06
-4.48991e-06
5.05453e-06
-4.82033e-06
5.73442e-06
-4.72007e-06
5.32396e-06
-3.37141e-07
4.98579e-06
2.58789e-06
5.6339e-06
2.64139e-06
5.86439e-06
4.66215e-06
6.33523e-06
5.10169e-06
6.80363e-06
4.83823e-06
6.98619e-06
4.53547e-06
7.12335e-06
3.73468e-06
7.14776e-06
2.84867e-06
7.2034e-06
2.00493e-06
7.24127e-06
1.35197e-06
7.30392e-06
8.37068e-07
7.37533e-06
4.7307e-07
7.47257e-06
1.14253e-07
7.45131e-06
-1.12508e-07
7.34846e-06
-2.25207e-07
7.24078e-06
-2.50497e-07
7.30879e-06
-4.30673e-07
7.33939e-06
-4.55796e-07
7.29521e-06
-5.10608e-07
7.06103e-06
-4.70245e-07
-8.36031e-07
6.89114e-06
7.57873e-06
-9.42542e-06
6.17381e-06
-4.94068e-06
4.03622e-06
-2.08178e-06
2.38409e-06
-2.83778e-06
2.28244e-06
-4.71868e-06
1.93428e-06
-4.37191e-06
1.75679e-06
-1.5965e-07
1.90061e-06
2.44407e-06
2.42465e-06
2.11735e-06
3.66396e-06
3.42284e-06
4.47876e-06
4.28688e-06
5.431e-06
3.886e-06
5.9397e-06
4.02677e-06
6.30505e-06
3.36933e-06
6.54895e-06
2.60478e-06
6.64176e-06
1.91213e-06
6.72099e-06
1.27273e-06
6.86354e-06
6.94521e-07
7.03696e-06
2.99645e-07
7.22697e-06
-7.57522e-08
7.32601e-06
-2.11547e-07
7.34696e-06
-2.46161e-07
7.44771e-06
-3.51248e-07
7.48682e-06
-4.6978e-07
7.531e-06
-4.99981e-07
7.3938e-06
-3.73409e-07
7.255e-06
-3.31445e-07
-7.17532e-07
7.13651e-06
5.87858e-06
-8.14944e-06
3.17103e-06
-2.23314e-06
6.10835e-07
4.78422e-07
-3.22507e-07
-1.90444e-06
-1.55843e-06
-3.48276e-06
-1.77521e-06
-4.15513e-06
-1.38696e-06
-5.47905e-07
-1.4794e-06
2.53651e-06
-8.62436e-07
1.50039e-06
7.68231e-07
1.79217e-06
2.26862e-06
2.78649e-06
3.14925e-06
3.00537e-06
3.94276e-06
3.23326e-06
4.70524e-06
2.60685e-06
5.25694e-06
2.05307e-06
5.74996e-06
1.41911e-06
6.14693e-06
8.75758e-07
6.49961e-06
3.41848e-07
6.80533e-06
-6.08239e-09
6.91697e-06
-1.87383e-07
6.98765e-06
-2.82233e-07
7.0406e-06
-2.99106e-07
7.02495e-06
-3.35605e-07
6.95067e-06
-3.95501e-07
6.7695e-06
-3.1881e-07
6.70169e-06
-3.05593e-07
6.60373e-06
-2.33487e-07
-1.88898e-07
6.07509e-06
2.90225e-06
-5.66342e-06
-3.66931e-07
1.03604e-06
-1.80939e-06
1.92089e-06
-2.63792e-06
-1.07591e-06
-3.70018e-06
-2.4205e-06
-4.25557e-06
-3.59973e-06
-4.86065e-06
5.71709e-08
-4.14673e-06
1.82259e-06
-3.35094e-06
7.04604e-07
-2.47839e-06
9.19617e-07
-1.0986e-06
1.40671e-06
6.51951e-07
1.25481e-06
1.90948e-06
1.97572e-06
3.16348e-06
1.35286e-06
4.14555e-06
1.071e-06
4.88431e-06
6.80344e-07
5.42044e-06
3.3963e-07
5.69294e-06
6.9349e-08
5.77957e-06
-9.27119e-08
5.73789e-06
-1.45706e-07
5.57759e-06
-1.21924e-07
5.39518e-06
-1.16696e-07
5.16761e-06
-1.08038e-07
4.90689e-06
-1.34779e-07
4.7221e-06
-1.34021e-07
4.51663e-06
-1.00123e-07
4.35006e-06
-6.6924e-08
-5.84283e-08
4.21959e-06
-3.26618e-06
-2.23014e-06
-3.09254e-07
-1.38516e-06
-3.80566e-06
-7.4054e-06
-7.34823e-06
-5.52563e-06
-4.82103e-06
-3.90141e-06
-2.49471e-06
-1.23989e-06
7.35833e-07
2.08869e-06
3.15969e-06
3.84004e-06
4.17967e-06
4.24902e-06
4.1563e-06
4.0106e-06
3.88867e-06
3.77198e-06
3.66394e-06
3.52916e-06
3.39514e-06
3.29502e-06
3.22809e-06
3.16966e-06
1.06294e-05
-1.98733e-06
7.67607e-07
8.77902e-06
-7.68993e-06
9.54033e-06
6.82672e-06
-7.73868e-06
9.69098e-06
5.5002e-06
-9.92788e-06
1.12544e-05
4.35355e-06
-1.0123e-05
1.12697e-05
3.03571e-06
-9.95911e-06
1.12769e-05
1.61106e-06
-9.83388e-06
1.12585e-05
-5.38538e-06
-8.29193e-07
7.82563e-06
8.39207e-06
-2.47123e-06
5.83253e-06
-5.13039e-06
4.5775e-06
-6.48366e-06
4.40798e-06
-9.75835e-06
3.60041e-06
-9.31546e-06
2.55261e-06
-8.9113e-06
2.03339e-06
-9.31466e-06
-4.26732e-06
9.15323e-07
7.98614e-06
-2.77709e-06
7.66381e-06
-4.80806e-06
7.47445e-06
-6.29429e-06
6.13584e-06
-8.41975e-06
4.51965e-06
-7.69927e-06
3.12733e-06
-7.51899e-06
1.12604e-06
-7.31336e-06
-2.64727e-06
-4.94014e-07
7.23726e-06
-3.22243e-06
5.91527e-06
-3.48607e-06
4.13299e-06
-4.51202e-06
2.82285e-06
-7.10961e-06
2.68772e-06
-7.56413e-06
3.03198e-06
-7.86325e-06
2.35055e-06
-6.63193e-06
-1.63136e-06
1.33464e-06
6.76375e-06
-3.36495e-06
6.1694e-06
-2.89172e-06
6.9472e-06
-5.28982e-06
6.5042e-06
-6.66661e-06
5.23025e-06
-6.29017e-06
4.72089e-06
-7.35389e-06
2.8135e-06
-4.72455e-06
6.20209e-07
5.61932e-07
5.76749e-06
-2.36812e-06
5.73575e-06
-2.85998e-06
3.98462e-06
-3.53869e-06
1.6431e-06
-4.32509e-06
2.20531e-06
-6.85239e-06
1.54694e-06
-6.69552e-06
-5.71151e-07
-2.60646e-06
-9.16848e-07
9.65906e-07
5.9969e-06
-2.04117e-06
6.29147e-06
-3.15455e-06
5.67426e-06
-2.92148e-06
6.90432e-06
-5.55514e-06
6.85495e-06
-6.80302e-06
5.2592e-06
-5.09976e-06
4.77459e-06
-2.12185e-06
-6.97029e-07
4.55477e-06
6.44654e-06
-1.96097e-06
5.63514e-06
-2.34315e-06
5.68327e-06
-2.96962e-06
4.05042e-06
-3.92229e-06
5.17287e-07
-3.26989e-06
1.40737e-07
-4.72321e-06
4.90648e-07
-2.47176e-06
-1.23106e-06
1.02467e-06
6.285e-06
-1.53693e-06
5.73601e-06
-1.79416e-06
6.286e-06
-3.51961e-06
5.26578e-06
-2.90207e-06
5.71118e-06
-3.71529e-06
6.55462e-06
-5.56666e-06
5.71878e-06
-1.63591e-06
-1.5358e-06
6.02352e-06
6.6027e-06
-1.40342e-06
6.24083e-06
-1.43228e-06
5.2718e-06
-2.55058e-06
4.89039e-06
-2.52067e-06
5.01495e-06
-3.83985e-06
2.69797e-06
-3.24968e-06
2.67654e-06
-1.61448e-06
-2.4358e-06
3.57654e-06
6.42778e-06
-1.40545e-06
6.41669e-06
-1.42119e-06
5.46465e-06
-1.59854e-06
5.81026e-06
-2.86627e-06
4.84427e-06
-2.87386e-06
4.28059e-06
-2.68599e-06
4.6892e-06
-2.0231e-06
-1.51544e-06
3.76885e-06
6.09508e-06
-1.36638e-06
6.02999e-06
-1.35609e-06
5.95339e-06
-1.52194e-06
5.3839e-06
-2.29679e-06
4.88688e-06
-2.37684e-06