/*--------------------------------*- C++ -*----------------------------------*\
| =========                 |                                                 |
| \\      /  F ield         | OpenFOAM: The Open Source CFD Toolbox           |
|  \\    /   O peration     | Version:  2.4.0                                 |
|   \\  /    A nd           | Web:      www.OpenFOAM.org                      |
|    \\/     M anipulation  |                                                 |
\*---------------------------------------------------------------------------*/
FoamFile
{
    version     2.0;
    format      ascii;
    class       surfaceScalarField;
    location    "0.93";
    object      phi;
}
// * * * * * * * * * * * * * * * * * * * * * * * * * * * * * * * * * * * * * //

dimensions      [0 3 -1 0 0 0 0];

internalField   nonuniform List<scalar> 
11830
(
2.94679e-06
5.32099e-08
2.8769e-06
6.98929e-08
2.80965e-06
6.72439e-08
2.74328e-06
6.63695e-08
2.67869e-06
6.45922e-08
2.61757e-06
6.1121e-08
2.56084e-06
5.67298e-08
2.5088e-06
5.20451e-08
2.46148e-06
4.73188e-08
2.41878e-06
4.26991e-08
2.38047e-06
3.83086e-08
2.34624e-06
3.42318e-08
2.31572e-06
3.05142e-08
2.28855e-06
2.71718e-08
2.26435e-06
2.42018e-08
2.24276e-06
2.15889e-08
2.22345e-06
1.93104e-08
2.20611e-06
1.73397e-08
2.19046e-06
1.56481e-08
2.17626e-06
1.42069e-08
2.16327e-06
1.29876e-08
2.15131e-06
1.19631e-08
2.1402e-06
1.11072e-08
2.1298e-06
1.0396e-08
2.11999e-06
9.80752e-09
2.11067e-06
9.32215e-09
2.10175e-06
8.92215e-09
2.09316e-06
8.59269e-09
2.08484e-06
8.32154e-09
2.07674e-06
8.0991e-09
2.06882e-06
7.91831e-09
2.06104e-06
7.77452e-09
2.05338e-06
7.66534e-09
2.04579e-06
7.59068e-09
2.03824e-06
7.55281e-09
2.03068e-06
7.55672e-09
2.02307e-06
7.61062e-09
2.01534e-06
7.72659e-09
2.00742e-06
7.92145e-09
1.9992e-06
8.21773e-09
1.99056e-06
8.64493e-09
1.98132e-06
9.24097e-09
1.97126e-06
1.00543e-08
1.96012e-06
1.11465e-08
1.94752e-06
1.25965e-08
1.93301e-06
1.45051e-08
1.91601e-06
1.70028e-08
1.89575e-06
2.02588e-08
1.87126e-06
2.44944e-08
1.84126e-06
3.00007e-08
1.80409e-06
3.71639e-08
1.75759e-06
4.6499e-08
1.6989e-06
5.86932e-08
1.62424e-06
7.46638e-08
1.52869e-06
9.55482e-08
1.40584e-06
1.22848e-07
1.2488e-06
1.57045e-07
1.04835e-06
2.00442e-07
7.98e-07
2.50353e-07
2.41864e-07
5.56136e-07
3.02862e-06
2.45862e-08
3.05191e-06
4.66057e-08
3.06774e-06
5.14104e-08
3.07746e-06
5.66559e-08
3.08094e-06
6.11137e-08
3.07874e-06
6.33212e-08
3.07162e-06
6.38417e-08
3.06034e-06
6.33279e-08
3.0456e-06
6.20612e-08
3.02807e-06
6.02264e-08
3.00837e-06
5.80106e-08
2.98703e-06
5.55747e-08
2.9645e-06
5.30393e-08
2.94118e-06
5.04897e-08
2.9174e-06
4.79838e-08
2.89343e-06
4.55592e-08
2.8695e-06
4.32381e-08
2.84581e-06
4.10318e-08
2.82252e-06
3.89446e-08
2.79975e-06
3.69762e-08
2.77761e-06
3.51237e-08
2.75619e-06
3.33832e-08
2.73555e-06
3.175e-08
2.71572e-06
3.02202e-08
2.69674e-06
2.87901e-08
2.67861e-06
2.74569e-08
2.66131e-06
2.62176e-08
2.64483e-06
2.50697e-08
2.62914e-06
2.40117e-08
2.6142e-06
2.30424e-08
2.59996e-06
2.21612e-08
2.58636e-06
2.13688e-08
2.57336e-06
2.06668e-08
2.56089e-06
2.00584e-08
2.5489e-06
1.95492e-08
2.53731e-06
1.91473e-08
2.52605e-06
1.88652e-08
2.51506e-06
1.87202e-08
2.50424e-06
1.87366e-08
2.49351e-06
1.8947e-08
2.48276e-06
1.93953e-08
2.47186e-06
2.0139e-08
2.46067e-06
2.1253e-08
2.44898e-06
2.28351e-08
2.43656e-06
2.50118e-08
2.42312e-06
2.79477e-08
2.40827e-06
3.18573e-08
2.3915e-06
3.7022e-08
2.37218e-06
4.38137e-08
2.34946e-06
5.27277e-08
2.32219e-06
6.44327e-08
2.28885e-06
7.98386e-08
2.24733e-06
1.00213e-07
2.1947e-06
1.27296e-07
2.12662e-06
1.63628e-07
2.03712e-06
2.1234e-07
1.91548e-06
2.78689e-07
1.75291e-06
3.63008e-07
1.51164e-06
4.91626e-07
5.27762e-07
1.22574e-06
3.00532e-06
1.92658e-08
3.01285e-06
3.90794e-08
3.01981e-06
4.44436e-08
3.02758e-06
4.8887e-08
3.03534e-06
5.33531e-08
3.0425e-06
5.61648e-08
3.04882e-06
5.75192e-08
3.05413e-06
5.80211e-08
3.05826e-06
5.79251e-08
3.06115e-06
5.73393e-08
3.06277e-06
5.63929e-08
3.06313e-06
5.5213e-08
3.06227e-06
5.38995e-08
3.06024e-06
5.2525e-08
3.05708e-06
5.11413e-08
3.05285e-06
4.97836e-08
3.04762e-06
4.84738e-08
3.04143e-06
4.72238e-08
3.03433e-06
4.60376e-08
3.0264e-06
4.4914e-08
3.01767e-06
4.38485e-08
3.00822e-06
4.28343e-08
2.99811e-06
4.18634e-08
2.9874e-06
4.09282e-08
2.97617e-06
4.00218e-08
2.96448e-06
3.91384e-08
2.95243e-06
3.82736e-08
2.94007e-06
3.74245e-08
2.92749e-06
3.6591e-08
2.91476e-06
3.57748e-08
2.90194e-06
3.49806e-08
2.8891e-06
3.42155e-08
2.87627e-06
3.34897e-08
2.86352e-06
3.28168e-08
2.85085e-06
3.2214e-08
2.83829e-06
3.1703e-08
2.82585e-06
3.1311e-08
2.8135e-06
3.10722e-08
2.8012e-06
3.10292e-08
2.78892e-06
3.12359e-08
2.77655e-06
3.176e-08
2.764e-06
3.26876e-08
2.75113e-06
3.41275e-08
2.73774e-06
3.62191e-08
2.72361e-06
3.91406e-08
2.70844e-06
4.31214e-08
2.69184e-06
4.84584e-08
2.67332e-06
5.55381e-08
2.65227e-06
6.48669e-08
2.62788e-06
7.71134e-08
2.59915e-06
9.31712e-08
2.56474e-06
1.14241e-07
2.52298e-06
1.41981e-07
2.47165e-06
1.78622e-07
2.40777e-06
2.27508e-07
2.32763e-06
2.92477e-07
2.22442e-06
3.81898e-07
2.09282e-06
4.94614e-07
1.9051e-06
6.79345e-07
7.70794e-07
1.66207e-06
3.00342e-06
1.5846e-08
3.00771e-06
3.47898e-08
3.01095e-06
4.12032e-08
3.01456e-06
4.52804e-08
3.01853e-06
4.93834e-08
3.0226e-06
5.20914e-08
3.02675e-06
5.33725e-08
3.03092e-06
5.38439e-08
3.03504e-06
5.381e-08
3.03901e-06
5.3372e-08
3.04276e-06
5.26357e-08
3.04626e-06
5.17139e-08
3.04947e-06
5.06962e-08
3.05234e-06
4.96455e-08
3.05488e-06
4.86053e-08
3.05706e-06
4.76052e-08
3.05887e-06
4.66634e-08
3.0603e-06
4.57897e-08
3.06135e-06
4.49872e-08
3.06201e-06
4.42545e-08
3.06227e-06
4.35875e-08
3.06213e-06
4.29799e-08
3.06157e-06
4.24245e-08
3.06058e-06
4.19142e-08
3.05916e-06
4.14424e-08
3.0573e-06
4.10033e-08
3.05498e-06
4.05918e-08
3.0522e-06
4.02044e-08
3.04895e-06
3.98396e-08
3.04523e-06
3.94975e-08
3.04103e-06
3.91811e-08
3.03635e-06
3.88956e-08
3.03119e-06
3.86497e-08
3.02555e-06
3.84558e-08
3.01943e-06
3.8331e-08
3.01284e-06
3.82979e-08
3.00576e-06
3.83868e-08
2.99819e-06
3.86368e-08
2.99013e-06
3.90989e-08
2.98152e-06
3.98385e-08
2.97234e-06
4.094e-08
2.96252e-06
4.25113e-08
2.95196e-06
4.46909e-08
2.94052e-06
4.76561e-08
2.92802e-06
5.16344e-08
2.91423e-06
5.69186e-08
2.8988e-06
6.3887e-08
2.88131e-06
7.30298e-08
2.86119e-06
8.49867e-08
2.8377e-06
1.00597e-07
2.8099e-06
1.20974e-07
2.77655e-06
1.47596e-07
2.73604e-06
1.82483e-07
2.68637e-06
2.28299e-07
2.62487e-06
2.89001e-07
2.54848e-06
3.6887e-07
2.45246e-06
4.77918e-07
2.33362e-06
6.13452e-07
2.17843e-06
8.34535e-07
9.7069e-07
1.97854e-06
3.00258e-06
1.32661e-08
3.00624e-06
3.11331e-08
3.00912e-06
3.83159e-08
3.01204e-06
4.2368e-08
3.01515e-06
4.62694e-08
3.01826e-06
4.89866e-08
3.02133e-06
5.02964e-08
3.02441e-06
5.07622e-08
3.02749e-06
5.07331e-08
3.03054e-06
5.03227e-08
3.03355e-06
4.9628e-08
3.0365e-06
4.87586e-08
3.03939e-06
4.78041e-08
3.04221e-06
4.68267e-08
3.04495e-06
4.58681e-08
3.0476e-06
4.49569e-08
3.05015e-06
4.41105e-08
3.0526e-06
4.33379e-08
3.05495e-06
4.26422e-08
3.05718e-06
4.20217e-08
3.0593e-06
4.14724e-08
3.06129e-06
4.09884e-08
3.06315e-06
4.05631e-08
3.06487e-06
4.019e-08
3.06645e-06
3.98631e-08
3.06788e-06
3.95777e-08
3.06914e-06
3.93297e-08
3.07023e-06
3.91169e-08
3.07113e-06
3.89391e-08
3.07183e-06
3.8798e-08
3.07231e-06
3.86981e-08
3.07256e-06
3.86468e-08
3.07255e-06
3.8655e-08
3.07227e-06
3.87378e-08
3.07169e-06
3.89158e-08
3.07077e-06
3.9216e-08
3.06948e-06
3.96736e-08
3.06779e-06
4.03347e-08
3.06563e-06
4.12586e-08
3.06294e-06
4.25221e-08
3.05966e-06
4.42238e-08
3.05568e-06
4.64904e-08
3.05089e-06
4.94846e-08
3.04513e-06
5.34154e-08
3.03821e-06
5.85519e-08
3.02989e-06
6.52405e-08
3.01984e-06
7.39295e-08
3.00767e-06
8.52002e-08
2.99285e-06
9.98103e-08
2.97469e-06
1.18752e-07
2.95233e-06
1.43338e-07
2.92462e-06
1.75302e-07
2.89011e-06
2.16996e-07
2.84692e-06
2.71496e-07
2.79261e-06
3.43307e-07
2.72427e-06
4.3721e-07
2.6379e-06
5.6429e-07
2.5303e-06
7.21052e-07
2.39527e-06
9.69561e-07
1.13939e-06
2.22657e-06
3.00198e-06
1.12875e-08
3.00526e-06
2.78521e-08
3.00808e-06
3.54906e-08
3.01084e-06
3.96176e-08
3.01376e-06
4.33429e-08
3.01668e-06
4.60644e-08
3.01954e-06
4.74444e-08
3.02234e-06
4.79543e-08
3.02511e-06
4.79676e-08
3.02782e-06
4.76126e-08
3.03047e-06
4.6977e-08
3.03306e-06
4.61643e-08
3.03561e-06
4.52633e-08
3.0381e-06
4.43359e-08
3.04054e-06
4.3424e-08
3.04294e-06
4.25559e-08
3.0453e-06
4.17499e-08
3.04762e-06
4.10158e-08
3.04991e-06
4.03572e-08
3.05216e-06
3.97735e-08
3.05437e-06
3.92614e-08
3.05654e-06
3.88158e-08
3.05867e-06
3.84307e-08
3.06076e-06
3.81004e-08
3.06281e-06
3.78198e-08
3.0648e-06
3.75847e-08
3.06674e-06
3.7392e-08
3.06861e-06
3.72403e-08
3.07042e-06
3.71304e-08
3.07216e-06
3.70652e-08
3.0738e-06
3.70506e-08
3.07535e-06
3.70958e-08
3.0768e-06
3.72136e-08
3.07811e-06
3.7422e-08
3.07928e-06
3.77446e-08
3.08029e-06
3.82127e-08
3.08109e-06
3.88666e-08
3.08167e-06
3.9759e-08
3.08197e-06
4.09576e-08
3.08194e-06
4.25496e-08
3.08152e-06
4.46469e-08
3.08062e-06
4.73934e-08
3.07913e-06
5.09736e-08
3.07692e-06
5.56247e-08
3.07382e-06
6.16516e-08
3.06961e-06
6.94473e-08
3.06402e-06
7.95196e-08
3.05669e-06
9.25268e-08
3.04718e-06
1.09326e-07
3.03489e-06
1.31039e-07
3.01908e-06
1.59144e-07
2.99879e-06
1.95593e-07
2.97277e-06
2.4302e-07
2.93941e-06
3.04859e-07
2.89661e-06
3.86107e-07
2.84175e-06
4.9207e-07
2.77131e-06
6.34726e-07
2.68162e-06
8.10738e-07
2.56894e-06
1.08225e-06
1.28185e-06
2.42648e-06
3.00156e-06
9.72687e-09
3.00449e-06
2.49214e-08
3.00722e-06
3.27657e-08
3.00985e-06
3.69818e-08
3.01266e-06
4.05328e-08
3.01551e-06
4.32135e-08
3.01831e-06
4.46492e-08
3.02105e-06
4.5208e-08
3.02375e-06
4.52687e-08
3.02639e-06
4.49761e-08
3.02896e-06
4.44102e-08
3.03146e-06
4.36659e-08
3.03389e-06
4.28296e-08
3.03626e-06
4.1962e-08
3.03858e-06
4.11041e-08
3.04085e-06
4.02839e-08
3.04308e-06
3.95195e-08
3.04528e-06
3.88216e-08
3.04744e-06
3.81944e-08
3.04958e-06
3.76383e-08
3.05169e-06
3.71506e-08
3.05378e-06
3.67273e-08
3.05584e-06
3.63634e-08
3.05789e-06
3.6054e-08
3.05991e-06
3.57948e-08
3.06192e-06
3.55825e-08
3.06389e-06
3.54148e-08
3.06584e-06
3.52914e-08
3.06776e-06
3.5214e-08
3.06964e-06
3.51868e-08
3.07147e-06
3.52168e-08
3.07325e-06
3.53148e-08
3.07497e-06
3.54957e-08
3.07661e-06
3.57798e-08
3.07816e-06
3.61936e-08
3.0796e-06
3.6772e-08
3.08091e-06
3.75604e-08
3.08205e-06
3.8617e-08
3.08299e-06
4.00171e-08
3.08369e-06
4.18572e-08
3.08407e-06
4.42612e-08
3.08408e-06
4.73881e-08
3.08361e-06
5.14413e-08
3.08255e-06
5.66822e-08
3.08076e-06
6.34463e-08
3.07804e-06
7.21653e-08
3.07416e-06
8.33958e-08
3.06883e-06
9.78577e-08
3.06167e-06
1.16486e-07
3.05221e-06
1.40497e-07
3.03987e-06
1.71492e-07
3.02389e-06
2.11572e-07
3.00335e-06
2.63557e-07
2.9771e-06
3.31112e-07
2.94366e-06
4.19543e-07
2.9012e-06
5.34531e-07
2.84728e-06
6.88651e-07
2.77857e-06
8.79443e-07
2.69324e-06
1.16757e-06
1.39775e-06
2.57735e-06
3.00126e-06
8.46463e-09
3.00387e-06
2.23159e-08
3.00647e-06
3.01585e-08
3.00902e-06
3.4438e-08
3.01173e-06
3.78228e-08
3.01452e-06
4.0427e-08
3.01727e-06
4.18957e-08
3.01998e-06
4.24979e-08
3.02265e-06
4.26009e-08
3.02526e-06
4.23648e-08
3.0278e-06
4.18657e-08
3.03028e-06
4.11898e-08
3.03269e-06
4.04194e-08
3.03504e-06
3.96143e-08
3.03733e-06
3.8814e-08
3.03957e-06
3.80456e-08
3.04176e-06
3.73274e-08
3.04391e-06
3.66698e-08
3.04603e-06
3.60778e-08
3.04811e-06
3.55522e-08
3.05017e-06
3.50912e-08
3.05221e-06
3.46913e-08
3.05422e-06
3.43486e-08
3.05622e-06
3.40588e-08
3.05819e-06
3.38185e-08
3.06015e-06
3.36251e-08
3.06209e-06
3.34773e-08
3.064e-06
3.33757e-08
3.0659e-06
3.3323e-08
3.06776e-06
3.33243e-08
3.06959e-06
3.33882e-08
3.07137e-06
3.35269e-08
3.07311e-06
3.37572e-08
3.07479e-06
3.41015e-08
3.0764e-06
3.45895e-08
3.07791e-06
3.52595e-08
3.07931e-06
3.61613e-08
3.08057e-06
3.73589e-08
3.08165e-06
3.89345e-08
3.08251e-06
4.09936e-08
3.0831e-06
4.36715e-08
3.08335e-06
4.7141e-08
3.08317e-06
5.16236e-08
3.08244e-06
5.74033e-08
3.08105e-06
6.48436e-08
3.0788e-06
7.44116e-08
3.07549e-06
8.6708e-08
3.07084e-06
1.02507e-07
3.06452e-06
1.22809e-07
3.0561e-06
1.48912e-07
3.04508e-06
1.82509e-07
3.03085e-06
2.25806e-07
3.01267e-06
2.81738e-07
2.9897e-06
3.54077e-07
2.96102e-06
4.48225e-07
2.92559e-06
5.69958e-07
2.88244e-06
7.31804e-07
2.82951e-06
9.32374e-07
2.76871e-06
1.22837e-06
1.48804e-06
2.67842e-06
3.00104e-06
7.42183e-09
3.00336e-06
1.9998e-08
3.00584e-06
2.76744e-08
3.00831e-06
3.19734e-08
3.01093e-06
3.52025e-08
3.01365e-06
3.77056e-08
3.01636e-06
3.91838e-08
3.01904e-06
3.9821e-08
3.02168e-06
3.99599e-08
3.02427e-06
3.97727e-08
3.0268e-06
3.93347e-08
3.02927e-06
3.87233e-08
3.03167e-06
3.80165e-08
3.03402e-06
3.72723e-08
3.0363e-06
3.65292e-08
3.03853e-06
3.58131e-08
3.04072e-06
3.51419e-08
3.04286e-06
3.45262e-08
3.04497e-06
3.39712e-08
3.04704e-06
3.34782e-08
3.04909e-06
3.30459e-08
3.05111e-06
3.26716e-08
3.0531e-06
3.23519e-08
3.05508e-06
3.20834e-08
3.05703e-06
3.18633e-08
3.05897e-06
3.16898e-08
3.06088e-06
3.15624e-08
3.06278e-06
3.14826e-08
3.06465e-06
3.14539e-08
3.06649e-06
3.14826e-08
3.0683e-06
3.15785e-08
3.07007e-06
3.17553e-08
3.0718e-06
3.20314e-08
3.07347e-06
3.24317e-08
3.07507e-06
3.29884e-08
3.07658e-06
3.37434e-08
3.07799e-06
3.47507e-08
3.07927e-06
3.60797e-08
3.08039e-06
3.78194e-08
3.0813e-06
4.00838e-08
3.08195e-06
4.3019e-08
3.08228e-06
4.68113e-08
3.0822e-06
5.16994e-08
3.08162e-06
5.79883e-08
3.08039e-06
6.60688e-08
3.07836e-06
7.64412e-08
3.07532e-06
8.97476e-08
3.07102e-06
1.06813e-07
3.06513e-06
1.28699e-07
3.05726e-06
1.56777e-07
3.04695e-06
1.92821e-07
3.03363e-06
2.39126e-07
3.01666e-06
2.98709e-07
2.99533e-06
3.75405e-07
2.96897e-06
4.74593e-07
2.93693e-06
6.01993e-07
2.89923e-06
7.69501e-07
2.85483e-06
9.76782e-07
2.80963e-06
1.27357e-06
1.55739e-06
2.74028e-06
3.00088e-06
6.54325e-09
3.00295e-06
1.79273e-08
3.00531e-06
2.53152e-08
3.0077e-06
2.9582e-08
3.01024e-06
3.26628e-08
3.0129e-06
3.50477e-08
3.01557e-06
3.65127e-08
3.01821e-06
3.71749e-08
3.02083e-06
3.73437e-08
3.0234e-06
3.71986e-08
3.02592e-06
3.68157e-08
3.02838e-06
3.62648e-08
3.03078e-06
3.56186e-08
3.03312e-06
3.49333e-08
3.0354e-06
3.42458e-08
3.03763e-06
3.35812e-08
3.03982e-06
3.29568e-08
3.04196e-06
3.2383e-08
3.04407e-06
3.18653e-08
3.04614e-06
3.14054e-08
3.04818e-06
3.10026e-08
3.0502e-06
3.06547e-08
3.05219e-06
3.03589e-08
3.05417e-06
3.01126e-08
3.05612e-06
2.99135e-08
3.05804e-06
2.97607e-08
3.05995e-06
2.96544e-08
3.06184e-06
2.95968e-08
3.0637e-06
2.95924e-08
3.06553e-06
2.96485e-08
3.06734e-06
2.97761e-08
3.0691e-06
2.99901e-08
3.07082e-06
3.03109e-08
3.07249e-06
3.07654e-08
3.07409e-06
3.13883e-08
3.07561e-06
3.22248e-08
3.07702e-06
3.33331e-08
3.07832e-06
3.47877e-08
3.07945e-06
3.66841e-08
3.08039e-06
3.91444e-08
3.08109e-06
4.23249e-08
3.08147e-06
4.64249e-08
3.08147e-06
5.16992e-08
3.08099e-06
5.84732e-08
3.07989e-06
6.71631e-08
3.07803e-06
7.83009e-08
3.07521e-06
9.25677e-08
3.07119e-06
1.10836e-07
3.06566e-06
1.34226e-07
3.05827e-06
1.64173e-07
3.04856e-06
2.0253e-07
3.03601e-06
2.5167e-07
3.02004e-06
3.14681e-07
3.00001e-06
3.95441e-07
2.97533e-06
4.9927e-07
2.94551e-06
6.31813e-07
2.91096e-06
8.04053e-07
2.87099e-06
1.01675e-06
2.83351e-06
1.31105e-06
1.61174e-06
2.77915e-06
3.00075e-06
5.78931e-09
3.00261e-06
1.60665e-08
3.00485e-06
2.30786e-08
3.00717e-06
2.72603e-08
3.00964e-06
3.01946e-08
3.01224e-06
3.245e-08
3.01487e-06
3.38813e-08
3.01749e-06
3.45578e-08
3.02008e-06
3.47506e-08
3.02264e-06
3.46415e-08
3.02515e-06
3.43082e-08
3.0276e-06
3.38139e-08
3.02999e-06
3.32254e-08
3.03233e-06
3.25966e-08
3.03461e-06
3.19632e-08
3.03684e-06
3.13491e-08
3.03903e-06
3.07708e-08
3.04117e-06
3.02386e-08
3.04328e-06
2.97582e-08
3.04535e-06
2.93316e-08
3.0474e-06
2.89585e-08
3.04941e-06
2.86373e-08
3.05141e-06
2.83657e-08
3.05338e-06
2.81419e-08
3.05533e-06
2.79642e-08
3.05725e-06
2.78323e-08
3.05916e-06
2.77472e-08
3.06105e-06
2.77118e-08
3.06291e-06
2.77316e-08
3.06474e-06
2.78148e-08
3.06654e-06
2.79734e-08
3.06831e-06
2.82239e-08
3.07003e-06
2.85882e-08
3.0717e-06
2.9095e-08
3.07331e-06
2.97818e-08
3.07484e-06
3.06968e-08
3.07627e-06
3.19019e-08
3.07758e-06
3.34768e-08
3.07874e-06
3.55229e-08
3.07972e-06
3.81702e-08
3.08046e-06
4.15845e-08
3.0809e-06
4.59774e-08
3.08098e-06
5.16191e-08
3.0806e-06
5.88542e-08
3.07964e-06
6.81228e-08
3.07796e-06
7.99866e-08
3.07536e-06
9.51634e-08
3.07163e-06
1.1457e-07
3.06647e-06
1.3938e-07
3.05955e-06
1.71092e-07
3.05046e-06
2.11626e-07
3.0387e-06
2.63427e-07
3.02374e-06
3.29642e-07
3.00499e-06
4.14186e-07
2.98197e-06
5.22299e-07
2.95421e-06
6.59569e-07
2.92225e-06
8.36012e-07
2.88555e-06
1.05345e-06
2.85186e-06
1.34474e-06
1.6558e-06
2.80781e-06
3.00066e-06
5.13133e-09
3.00234e-06
1.43826e-08
3.00446e-06
2.09594e-08
3.00672e-06
2.50054e-08
3.00912e-06
2.77902e-08
3.01166e-06
2.99084e-08
3.01425e-06
3.12884e-08
3.01684e-06
3.19678e-08
3.01942e-06
3.2179e-08
3.02196e-06
3.21004e-08
3.02445e-06
3.18116e-08
3.0269e-06
3.13699e-08
3.02929e-06
3.08364e-08
3.03162e-06
3.02621e-08
3.0339e-06
2.96813e-08
3.03614e-06
2.91166e-08
3.03832e-06
2.85838e-08
3.04047e-06
2.80929e-08
3.04258e-06
2.76497e-08
3.04465e-06
2.72563e-08
3.0467e-06
2.6913e-08
3.04872e-06
2.66186e-08
3.05071e-06
2.63715e-08
3.05268e-06
2.61702e-08
3.05463e-06
2.60139e-08
3.05656e-06
2.59029e-08
3.05847e-06
2.58389e-08
3.06036e-06
2.58256e-08
3.06222e-06
2.58691e-08
3.06406e-06
2.59788e-08
3.06586e-06
2.61677e-08
3.06763e-06
2.64535e-08
3.06936e-06
2.68596e-08
3.07104e-06
2.74168e-08
3.07266e-06
2.81648e-08
3.0742e-06
2.91547e-08
3.07565e-06
3.04524e-08
3.07698e-06
3.21417e-08
3.07817e-06
3.43302e-08
3.07919e-06
3.7155e-08
3.07998e-06
4.07911e-08
3.0805e-06
4.54615e-08
3.08067e-06
5.14508e-08
3.0804e-06
5.91216e-08
3.07959e-06
6.89365e-08
3.07809e-06
8.14851e-08
3.07573e-06
9.75191e-08
3.07231e-06
1.17997e-07
3.06754e-06
1.44141e-07
3.06113e-06
1.77508e-07
3.05268e-06
2.20078e-07
3.04174e-06
2.74361e-07
3.02783e-06
3.43553e-07
3.01042e-06
4.31597e-07
2.98908e-06
5.43643e-07
2.96343e-06
6.85219e-07
2.93401e-06
8.65434e-07
2.90049e-06
1.08697e-06
2.86948e-06
1.37574e-06
1.69246e-06
2.83282e-06
3.00058e-06
4.54822e-09
3.00212e-06
1.28475e-08
3.00413e-06
1.89498e-08
3.00632e-06
2.28145e-08
3.00867e-06
2.54429e-08
3.01116e-06
2.74185e-08
3.01371e-06
2.87324e-08
3.01628e-06
2.94036e-08
3.01883e-06
2.96273e-08
3.02135e-06
2.95741e-08
3.02384e-06
2.9325e-08
3.02628e-06
2.89323e-08
3.02866e-06
2.84512e-08
3.031e-06
2.79295e-08
3.03328e-06
2.73998e-08
3.03551e-06
2.68837e-08
3.0377e-06
2.63957e-08
3.03985e-06
2.59458e-08
3.04196e-06
2.55396e-08
3.04403e-06
2.51794e-08
3.04608e-06
2.48659e-08
3.0481e-06
2.45984e-08
3.0501e-06
2.43758e-08
3.05207e-06
2.41971e-08
3.05402e-06
2.40623e-08
3.05595e-06
2.39721e-08
3.05786e-06
2.3929e-08
3.05975e-06
2.39373e-08
3.06161e-06
2.40041e-08
3.06345e-06
2.41396e-08
3.06526e-06
2.43577e-08
3.06704e-06
2.46774e-08
3.06878e-06
2.51237e-08
3.07046e-06
2.5729e-08
3.07209e-06
2.65352e-08
3.07365e-06
2.75965e-08
3.07512e-06
2.89817e-08
3.07648e-06
3.07794e-08
3.07771e-06
3.31024e-08
3.07877e-06
3.60946e-08
3.07962e-06
3.99396e-08
3.08021e-06
4.48711e-08
3.08048e-06
5.11871e-08
3.08033e-06
5.9267e-08
3.07967e-06
6.95942e-08
3.07838e-06
8.27841e-08
3.07627e-06
9.96201e-08
3.07317e-06
1.21099e-07
3.06883e-06
1.48488e-07
3.06294e-06
1.83394e-07
3.05516e-06
2.27856e-07
3.04509e-06
2.84438e-07
3.03226e-06
3.56377e-07
3.01622e-06
4.47635e-07
2.9966e-06
5.6327e-07
2.97308e-06
7.08733e-07
2.94619e-06
8.92324e-07
2.91586e-06
1.1173e-06
2.8875e-06
1.4041e-06
1.72341e-06
2.85655e-06
3.00052e-06
4.02422e-09
3.00193e-06
1.1437e-08
3.00384e-06
1.70407e-08
3.00597e-06
2.06846e-08
3.00827e-06
2.31469e-08
3.01071e-06
2.49758e-08
3.01323e-06
2.62113e-08
3.01577e-06
2.68635e-08
3.01831e-06
2.70938e-08
3.02082e-06
2.70617e-08
3.0233e-06
2.68479e-08
3.02573e-06
2.65008e-08
3.02811e-06
2.60697e-08
3.03044e-06
2.55987e-08
3.03272e-06
2.51188e-08
3.03495e-06
2.46502e-08
3.03714e-06
2.42066e-08
3.03929e-06
2.37973e-08
3.0414e-06
2.34278e-08
3.04348e-06
2.31009e-08
3.04553e-06
2.28172e-08
3.04755e-06
2.25766e-08
3.04955e-06
2.23785e-08
3.05153e-06
2.22225e-08
3.05348e-06
2.21091e-08
3.05541e-06
2.20395e-08
3.05732e-06
2.2017e-08
3.05921e-06
2.20467e-08
3.06108e-06
2.21362e-08
3.06292e-06
2.22965e-08
3.06474e-06
2.25428e-08
3.06652e-06
2.2895e-08
3.06827e-06
2.33796e-08
3.06996e-06
2.40305e-08
3.07161e-06
2.4892e-08
3.07318e-06
2.60204e-08
3.07468e-06
2.74882e-08
3.07607e-06
2.93878e-08
3.07733e-06
3.18369e-08
3.07844e-06
3.49859e-08
3.07936e-06
3.90262e-08
3.08003e-06
4.42016e-08
3.08039e-06
5.08223e-08
3.08037e-06
5.92833e-08
3.07988e-06
7.00872e-08
3.07879e-06
8.38731e-08
3.07696e-06
1.01453e-07
3.0742e-06
1.2386e-07
3.07029e-06
1.524e-07
3.06495e-06
1.88728e-07
3.05787e-06
2.34933e-07
3.04868e-06
2.93629e-07
3.03698e-06
3.68084e-07
3.02234e-06
4.62274e-07
3.00444e-06
5.81163e-07
2.98307e-06
7.30112e-07
2.95868e-06
9.16708e-07
2.93146e-06
1.14452e-06
2.90583e-06
1.42974e-06
1.74972e-06
2.87952e-06
3.00048e-06
3.54738e-09
3.00178e-06
1.01307e-08
3.0036e-06
1.52224e-08
3.00567e-06
1.86121e-08
3.00792e-06
2.08971e-08
3.01032e-06
2.25757e-08
3.01281e-06
2.37228e-08
3.01533e-06
2.4346e-08
3.01785e-06
2.45772e-08
3.02035e-06
2.45619e-08
3.02281e-06
2.43797e-08
3.02524e-06
2.40749e-08
3.02762e-06
2.36914e-08
3.02995e-06
2.32695e-08
3.03223e-06
2.28382e-08
3.03446e-06
2.24162e-08
3.03665e-06
2.20163e-08
3.0388e-06
2.16473e-08
3.04092e-06
2.13145e-08
3.043e-06
2.10207e-08
3.04505e-06
2.07669e-08
3.04707e-06
2.05532e-08
3.04907e-06
2.03797e-08
3.05104e-06
2.02463e-08
3.053e-06
2.01541e-08
3.05493e-06
2.0105e-08
3.05685e-06
2.01029e-08
3.05874e-06
2.01533e-08
3.06061e-06
2.02649e-08
3.06246e-06
2.04493e-08
3.06428e-06
2.07226e-08
3.06607e-06
2.11058e-08
3.06782e-06
2.16266e-08
3.06953e-06
2.23207e-08
3.07119e-06
2.3234e-08
3.07279e-06
2.44255e-08
3.0743e-06
2.59705e-08
3.07573e-06
2.7965e-08
3.07703e-06
3.05316e-08
3.07819e-06
3.38264e-08
3.07917e-06
3.80479e-08
3.07992e-06
4.34491e-08
3.08039e-06
5.03516e-08
3.08051e-06
5.91646e-08
3.08019e-06
7.04082e-08
3.07932e-06
8.4743e-08
3.07777e-06
1.03008e-07
3.07536e-06
1.26265e-07
3.0719e-06
1.55861e-07
3.06714e-06
1.93491e-07
3.06078e-06
2.41288e-07
3.0525e-06
3.01908e-07
3.04194e-06
3.78649e-07
3.02872e-06
4.75491e-07
3.01257e-06
5.9731e-07
2.99332e-06
7.49365e-07
2.9714e-06
9.38628e-07
2.94715e-06
1.16877e-06
2.92423e-06
1.45265e-06
1.77216e-06
2.9018e-06
3.00044e-06
3.10842e-09
3.00166e-06
8.91155e-09
3.0034e-06
1.34848e-08
3.00541e-06
1.65931e-08
3.00762e-06
1.86891e-08
3.00998e-06
2.02137e-08
3.01244e-06
2.12643e-08
3.01494e-06
2.18495e-08
3.01744e-06
2.20758e-08
3.01993e-06
2.20738e-08
3.02239e-06
2.19195e-08
3.02481e-06
2.16542e-08
3.02719e-06
2.13161e-08
3.02951e-06
2.09417e-08
3.03179e-06
2.05578e-08
3.03403e-06
2.01817e-08
3.03622e-06
1.98251e-08
3.03837e-06
1.9496e-08
3.04049e-06
1.91997e-08
3.04257e-06
1.89389e-08
3.04462e-06
1.87149e-08
3.04664e-06
1.85282e-08
3.04864e-06
1.83791e-08
3.05062e-06
1.82684e-08
3.05258e-06
1.81973e-08
3.05452e-06
1.81685e-08
3.05643e-06
1.81863e-08
3.05833e-06
1.82571e-08
3.0602e-06
1.839e-08
3.06206e-06
1.85975e-08
3.06388e-06
1.88966e-08
3.06568e-06
1.93092e-08
3.06744e-06
1.98642e-08
3.06916e-06
2.05987e-08
3.07084e-06
2.15605e-08
3.07245e-06
2.28107e-08
3.07399e-06
2.44273e-08
3.07545e-06
2.65097e-08
3.0768e-06
2.91847e-08
3.07801e-06
3.26136e-08
3.07905e-06
3.70017e-08
3.07989e-06
4.26101e-08
3.08047e-06
4.97708e-08
3.08073e-06
5.89056e-08
3.08059e-06
7.05505e-08
3.07995e-06
8.53856e-08
3.07868e-06
1.04273e-07
3.07664e-06
1.28304e-07
3.07365e-06
1.58858e-07
3.06947e-06
1.97666e-07
3.06386e-06
2.469e-07
3.05651e-06
3.09255e-07
3.04711e-06
3.88051e-07
3.03533e-06
4.87269e-07
3.02094e-06
6.11704e-07
3.0038e-06
7.6651e-07
2.9843e-06
9.58127e-07
2.96286e-06
1.19021e-06
2.94258e-06
1.47293e-06
1.79133e-06
2.92341e-06
3.00041e-06
2.70007e-09
3.00156e-06
7.76487e-09
3.00322e-06
1.18183e-08
3.00519e-06
1.46231e-08
3.00736e-06
1.65184e-08
3.00969e-06
1.78855e-08
3.01212e-06
1.88331e-08
3.0146e-06
1.93722e-08
3.01709e-06
1.95884e-08
3.01956e-06
1.95961e-08
3.02202e-06
1.94668e-08
3.02443e-06
1.92382e-08
3.02681e-06
1.89435e-08
3.02913e-06
1.86152e-08
3.03141e-06
1.82777e-08
3.03365e-06
1.79468e-08
3.03584e-06
1.76328e-08
3.03799e-06
1.73434e-08
3.04011e-06
1.70834e-08
3.04219e-06
1.68556e-08
3.04424e-06
1.66614e-08
3.04627e-06
1.65016e-08
3.04827e-06
1.6377e-08
3.05025e-06
1.62887e-08
3.05221e-06
1.62385e-08
3.05415e-06
1.62298e-08
3.05607e-06
1.62672e-08
3.05797e-06
1.63578e-08
3.05985e-06
1.65113e-08
3.0617e-06
1.6741e-08
3.06354e-06
1.70645e-08
3.06534e-06
1.75049e-08
3.06711e-06
1.80919e-08
3.06885e-06
1.88641e-08
3.07054e-06
1.98709e-08
3.07217e-06
2.11752e-08
3.07374e-06
2.28576e-08
3.07523e-06
2.50206e-08
3.07662e-06
2.77946e-08
3.07789e-06
3.13458e-08
3.07901e-06
3.58853e-08
3.07993e-06
4.16816e-08
3.08063e-06
4.90759e-08
3.08103e-06
5.85014e-08
3.08108e-06
7.05081e-08
3.08067e-06
8.57935e-08
3.0797e-06
1.05241e-07
3.07804e-06
1.29966e-07
3.07552e-06
1.61376e-07
3.07195e-06
2.01236e-07
3.0671e-06
2.51753e-07
3.0607e-06
3.15651e-07
3.05248e-06
3.96271e-07
3.04216e-06
4.97593e-07
3.02952e-06
6.24341e-07
3.01447e-06
7.81564e-07
2.99734e-06
9.75251e-07
2.9786e-06
1.20895e-06
2.96083e-06
1.49071e-06
1.80772e-06
2.94444e-06
3.00038e-06
2.31647e-09
3.00147e-06
6.67829e-09
3.00308e-06
1.02134e-08
3.005e-06
1.26972e-08
3.00714e-06
1.43809e-08
3.00944e-06
1.5587e-08
3.01184e-06
1.64262e-08
3.0143e-06
1.69124e-08
3.01678e-06
1.71134e-08
3.01925e-06
1.71277e-08
3.02169e-06
1.70207e-08
3.02411e-06
1.68264e-08
3.02648e-06
1.65733e-08
3.0288e-06
1.62899e-08
3.03108e-06
1.59979e-08
3.03332e-06
1.57113e-08
3.03551e-06
1.54397e-08
3.03766e-06
1.51896e-08
3.03978e-06
1.49657e-08
3.04187e-06
1.47708e-08
3.04392e-06
1.46063e-08
3.04595e-06
1.44734e-08
3.04795e-06
1.43731e-08
3.04993e-06
1.43072e-08
3.05189e-06
1.42779e-08
3.05384e-06
1.42888e-08
3.05576e-06
1.43454e-08
3.05766e-06
1.44552e-08
3.05954e-06
1.46286e-08
3.0614e-06
1.48795e-08
3.06324e-06
1.52261e-08
3.06505e-06
1.56924e-08
3.06684e-06
1.63093e-08
3.06859e-06
1.71163e-08
3.07029e-06
1.81644e-08
3.07195e-06
1.95182e-08
3.07355e-06
2.12604e-08
3.07507e-06
2.34963e-08
3.0765e-06
2.63598e-08
3.07783e-06
3.0021e-08
3.07902e-06
3.46963e-08
3.08004e-06
4.06608e-08
3.08085e-06
4.82635e-08
3.08141e-06
5.79478e-08
3.08164e-06
7.02759e-08
3.08147e-06
8.59603e-08
3.08081e-06
1.05902e-07
3.07954e-06
1.31239e-07
3.07751e-06
1.63404e-07
3.07455e-06
2.04189e-07
3.07048e-06
2.5583e-07
3.06505e-06
3.21079e-07
3.05803e-06
4.03293e-07
3.04917e-06
5.06452e-07
3.03829e-06
6.35217e-07
3.02531e-06
7.94544e-07
3.01052e-06
9.90042e-07
2.99435e-06
1.22512e-06
2.97895e-06
1.5061e-06
1.8217e-06
2.96497e-06
3.00036e-06
1.95283e-09
3.0014e-06
5.64114e-09
3.00295e-06
8.66106e-09
3.00484e-06
1.08104e-08
3.00695e-06
1.22725e-08
3.00922e-06
1.33141e-08
3.01161e-06
1.40407e-08
3.01405e-06
1.4468e-08
3.01652e-06
1.46493e-08
3.01898e-06
1.46675e-08
3.02142e-06
1.45804e-08
3.02382e-06
1.44183e-08
3.02619e-06
1.42054e-08
3.02852e-06
1.39656e-08
3.0308e-06
1.37182e-08
3.03303e-06
1.34755e-08
3.03523e-06
1.32457e-08
3.03738e-06
1.30347e-08
3.0395e-06
1.28468e-08
3.04159e-06
1.26846e-08
3.04364e-06
1.25497e-08
3.04567e-06
1.24436e-08
3.04768e-06
1.23677e-08
3.04966e-06
1.2324e-08
3.05162e-06
1.23152e-08
3.05357e-06
1.23456e-08
3.05549e-06
1.2421e-08
3.0574e-06
1.25494e-08
3.05928e-06
1.27418e-08
3.06115e-06
1.30127e-08
3.063e-06
1.33811e-08
3.06482e-06
1.38716e-08
3.06661e-06
1.4516e-08
3.06837e-06
1.53549e-08
3.07009e-06
1.64404e-08
3.07177e-06
1.78389e-08
3.0734e-06
1.96349e-08
3.07496e-06
2.1936e-08
3.07644e-06
2.4879e-08
3.07782e-06
2.86376e-08
3.07909e-06
3.34328e-08
3.0802e-06
3.95451e-08
3.08114e-06
4.73306e-08
3.08184e-06
5.7241e-08
3.08227e-06
6.98492e-08
3.08235e-06
8.58804e-08
3.082e-06
1.06251e-07
3.08112e-06
1.32117e-07
3.07959e-06
1.64932e-07
3.07727e-06
2.06513e-07
3.07398e-06
2.59118e-07
3.06954e-06
3.25525e-07
3.06373e-06
4.09104e-07
3.05634e-06
5.13834e-07
3.04723e-06
6.44329e-07
3.03631e-06
8.05466e-07
3.02381e-06
1.00254e-06
3.01011e-06
1.23882e-06
2.99698e-06
1.51924e-06
1.83359e-06
2.98509e-06
3.00035e-06
1.60517e-09
3.00134e-06
4.64415e-09
3.00285e-06
7.15279e-09
3.00471e-06
8.95728e-09
3.00679e-06
1.01891e-08
3.00904e-06
1.10629e-08
3.01141e-06
1.16736e-08
3.01384e-06
1.2037e-08
3.01629e-06
1.21947e-08
3.01875e-06
1.22142e-08
3.02118e-06
1.21452e-08
3.02359e-06
1.20136e-08
3.02595e-06
1.18392e-08
3.02828e-06
1.16422e-08
3.03056e-06
1.14387e-08
3.03279e-06
1.12393e-08
3.03499e-06
1.10509e-08
3.03714e-06
1.08788e-08
3.03926e-06
1.07267e-08
3.04135e-06
1.05972e-08
3.04341e-06
1.04919e-08
3.04544e-06
1.04124e-08
3.04745e-06
1.03607e-08
3.04943e-06
1.0339e-08
3.0514e-06
1.03506e-08
3.05334e-06
1.04e-08
3.05527e-06
1.04937e-08
3.05718e-06
1.06401e-08
3.05907e-06
1.08507e-08
3.06094e-06
1.11406e-08
3.06279e-06
1.15293e-08
3.06462e-06
1.20422e-08
3.06643e-06
1.27117e-08
3.0682e-06
1.35794e-08
3.06994e-06
1.46986e-08
3.07165e-06
1.61369e-08
3.0733e-06
1.79804e-08
3.0749e-06
2.03387e-08
3.07643e-06
2.33511e-08
3.07787e-06
2.71943e-08
3.07921e-06
3.20931e-08
3.08042e-06
3.83326e-08
3.08148e-06
4.62745e-08
3.08234e-06
5.63779e-08
3.08297e-06
6.9224e-08
3.0833e-06
8.55487e-08
3.08327e-06
1.06281e-07
3.08279e-06
1.32592e-07
3.08177e-06
1.65952e-07
3.08009e-06
2.08198e-07
3.0776e-06
2.61607e-07
3.07415e-06
3.28977e-07
3.06956e-06
4.13691e-07
3.06366e-06
5.19731e-07
3.05632e-06
6.51675e-07
3.04744e-06
8.1434e-07
3.0372e-06
1.01278e-06
3.0259e-06
1.25012e-06
3.01491e-06
1.53022e-06
1.84363e-06
3.00488e-06
3.00034e-06
1.27008e-09
3.0013e-06
3.67914e-09
3.00277e-06
5.68049e-09
3.0046e-06
7.13232e-09
3.00666e-06
8.12661e-09
3.00889e-06
8.82974e-09
3.01124e-06
9.32164e-09
3.01366e-06
9.6173e-09
3.01611e-06
9.74798e-09
3.01856e-06
9.76675e-09
3.02099e-06
9.71416e-09
3.02339e-06
9.61152e-09
3.02576e-06
9.47463e-09
3.02808e-06
9.31952e-09
3.03036e-06
9.15934e-09
3.0326e-06
9.00274e-09
3.03479e-06
8.85553e-09
3.03695e-06
8.72206e-09
3.03907e-06
8.60563e-09
3.04116e-06
8.50857e-09
3.04322e-06
8.43273e-09
3.04525e-06
8.37991e-09
3.04726e-06
8.35221e-09
3.04924e-06
8.35234e-09
3.05121e-06
8.38398e-09