/*--------------------------------*- C++ -*----------------------------------*\
| =========                 |                                                 |
| \\      /  F ield         | OpenFOAM: The Open Source CFD Toolbox           |
|  \\    /   O peration     | Version:  2.4.0                                 |
|   \\  /    A nd           | Web:      www.OpenFOAM.org                      |
|    \\/     M anipulation  |                                                 |
\*---------------------------------------------------------------------------*/
FoamFile
{
    version     2.0;
    format      ascii;
    class       volVectorField;
    location    "0.93";
    object      U;
}
// * * * * * * * * * * * * * * * * * * * * * * * * * * * * * * * * * * * * * //

dimensions      [0 1 -1 0 0 0 0];

internalField   nonuniform List<vector> 
6000
(
(0.990441 -0.000273757 0)
(0.970231 0.0020497 0)
(0.948316 0.00334879 0)
(0.925587 0.00413663 0)
(0.903364 0.00452022 0)
(0.882322 0.00453154 0)
(0.862685 0.00428822 0)
(0.844554 0.00390126 0)
(0.82799 0.00344515 0)
(0.812998 0.00296862 0)
(0.79952 0.00250386 0)
(0.78746 0.00207084 0)
(0.776701 0.00168051 0)
(0.767117 0.00133765 0)
(0.758586 0.00104299 0)
(0.750983 0.000794778 0)
(0.744193 0.000589825 0)
(0.738109 0.000424195 0)
(0.732633 0.000293654 0)
(0.727677 0.000193924 0)
(0.723161 0.000120837 0)
(0.719018 7.03975e-05 0)
(0.715186 3.88373e-05 0)
(0.711613 2.26659e-05 0)
(0.708255 1.86932e-05 0)
(0.705074 2.40922e-05 0)
(0.70204 3.63904e-05 0)
(0.699126 5.34516e-05 0)
(0.696311 7.34786e-05 0)
(0.693578 9.50273e-05 0)
(0.690912 0.000117006 0)
(0.688299 0.000138655 0)
(0.685728 0.000159517 0)
(0.683188 0.000179403 0)
(0.680667 0.000198369 0)
(0.678152 0.00021671 0)
(0.675628 0.000234962 0)
(0.673076 0.000253927 0)
(0.670475 0.000274706 0)
(0.667793 0.000298739 0)
(0.664993 0.000327853 0)
(0.662025 0.00036432 0)
(0.658827 0.000410937 0)
(0.655316 0.000471149 0)
(0.651387 0.000549239 0)
(0.646907 0.000650589 0)
(0.641703 0.000782055 0)
(0.635555 0.000952479 0)
(0.628177 0.0011734 0)
(0.6192 0.00146003 0)
(0.608146 0.00183259 0)
(0.594387 0.00231837 0)
(0.577116 0.00295358 0)
(0.555212 0.00378899 0)
(0.5274 0.00488194 0)
(0.49137 0.0063318 0)
(0.44648 0.0081001 0)
(0.38455 0.0104697 0)
(0.323146 0.0125699 0)
(0.18131 0.0114512 0)
(1.00417 0.00480515 0)
(1.01373 0.00718215 0)
(1.0207 0.00682435 0)
(1.02486 0.00641226 0)
(1.02687 0.00609189 0)
(1.02702 0.00572671 0)
(1.02543 0.0053509 0)
(1.02232 0.00499901 0)
(1.01792 0.00467252 0)
(1.01248 0.00436641 0)
(1.00623 0.00407882 0)
(0.999349 0.00380937 0)
(0.992003 0.00355764 0)
(0.984333 0.00332301 0)
(0.976458 0.00310473 0)
(0.968478 0.00290195 0)
(0.960477 0.00271372 0)
(0.952526 0.0025391 0)
(0.944683 0.00237715 0)
(0.936995 0.00222698 0)
(0.929503 0.0020878 0)
(0.922237 0.00195886 0)
(0.915223 0.00183953 0)
(0.908475 0.00172923 0)
(0.902006 0.00162744 0)
(0.89582 0.00153364 0)
(0.889916 0.00144749 0)
(0.88429 0.00136884 0)
(0.878931 0.0012976 0)
(0.873829 0.00123373 0)
(0.868969 0.00117722 0)
(0.864334 0.0011281 0)
(0.859906 0.0010864 0)
(0.855666 0.00105224 0)
(0.851593 0.0010258 0)
(0.847667 0.00100744 0)
(0.843865 0.000997742 0)
(0.840163 0.000997638 0)
(0.836535 0.00100852 0)
(0.832951 0.00103238 0)
(0.829379 0.00107195 0)
(0.825781 0.00113092 0)
(0.82211 0.00121417 0)
(0.81831 0.00132806 0)
(0.814311 0.00148088 0)
(0.810025 0.00168343 0)
(0.805339 0.0019498 0)
(0.800109 0.00229846 0)
(0.794149 0.00275382 0)
(0.787211 0.00334829 0)
(0.778976 0.00412543 0)
(0.769007 0.00514421 0)
(0.75673 0.00648581 0)
(0.741297 0.00826053 0)
(0.721686 0.0106224 0)
(0.695809 0.0137638 0)
(0.662678 0.0179302 0)
(0.613241 0.0231968 0)
(0.561184 0.0306908 0)
(0.426999 0.0310257 0)
(1.00036 0.00116234 0)
(1.00263 0.00202372 0)
(1.00544 0.00239372 0)
(1.00803 0.00304093 0)
(1.01052 0.00370471 0)
(1.013 0.00418587 0)
(1.01529 0.00450999 0)
(1.01726 0.00472085 0)
(1.01884 0.00483323 0)
(1.02001 0.00486109 0)
(1.02076 0.00482368 0)
(1.02109 0.00473965 0)
(1.021 0.00462414 0)
(1.02051 0.00448877 0)
(1.01964 0.00434223 0)
(1.01841 0.00419079 0)
(1.01683 0.00403882 0)
(1.01492 0.00388922 0)
(1.0127 0.00374379 0)
(1.01019 0.00360357 0)
(1.00741 0.00346907 0)
(1.00437 0.00334049 0)
(1.00111 0.00321788 0)
(0.997631 0.00310106 0)
(0.993968 0.00298971 0)
(0.990143 0.00288337 0)
(0.98618 0.00278177 0)
(0.982105 0.00268476 0)
(0.977944 0.00259233 0)
(0.973719 0.00250454 0)
(0.969455 0.00242161 0)
(0.965173 0.00234387 0)
(0.96089 0.00227183 0)
(0.956623 0.00220621 0)
(0.952384 0.00214794 0)
(0.94818 0.00209828 0)
(0.944013 0.00205886 0)
(0.939881 0.00203178 0)
(0.935777 0.00201976 0)
(0.931684 0.00202629 0)
(0.927582 0.00205584 0)
(0.923438 0.00211412 0)
(0.919212 0.00220848 0)
(0.914851 0.00234834 0)
(0.910284 0.00254581 0)
(0.905424 0.00281655 0)
(0.900159 0.00318091 0)
(0.894346 0.00366548 0)
(0.887802 0.00430527 0)
(0.880295 0.00514674 0)
(0.871527 0.0062523 0)
(0.861115 0.0077064 0)
(0.848576 0.00962629 0)
(0.833246 0.0121711 0)
(0.8144 0.0155772 0)
(0.790573 0.0201236 0)
(0.761536 0.0263663 0)
(0.720478 0.0342647 0)
(0.679637 0.0469345 0)
(0.575695 0.0518254 0)
(1.00025 0.00137449 0)
(1.00159 0.00317762 0)
(1.00312 0.00385962 0)
(1.00435 0.00422169 0)
(1.00551 0.0044898 0)
(1.00681 0.00462059 0)
(1.00821 0.00464384 0)
(1.00962 0.00461185 0)
(1.01101 0.00454652 0)
(1.01236 0.00445805 0)
(1.01365 0.00435678 0)
(1.01486 0.00425148 0)
(1.01598 0.00414775 0)
(1.017 0.00404879 0)
(1.0179 0.00395638 0)
(1.01869 0.00387137 0)
(1.01935 0.00379394 0)
(1.01989 0.0037238 0)
(1.02031 0.00366033 0)
(1.02059 0.00360272 0)
(1.02075 0.00355005 0)
(1.02077 0.00350139 0)
(1.02065 0.00345589 0)
(1.02039 0.00341264 0)
(1.01999 0.00337082 0)
(1.01945 0.00332977 0)
(1.01875 0.003289 0)
(1.0179 0.00324819 0)
(1.0169 0.00320718 0)
(1.01574 0.00316604 0)
(1.01441 0.00312506 0)
(1.01293 0.00308479 0)
(1.01129 0.00304607 0)
(1.00949 0.00301005 0)
(1.00753 0.00297826 0)
(1.00542 0.00295263 0)
(1.00314 0.00293563 0)
(1.0007 0.00293035 0)
(0.998093 0.00294067 0)
(0.995316 0.00297152 0)
(0.992355 0.00302913 0)
(0.989193 0.00312137 0)
(0.985803 0.00325829 0)
(0.982147 0.00345269 0)
(0.978173 0.00372093 0)
(0.973811 0.00408403 0)
(0.968966 0.00456912 0)
(0.963515 0.00521143 0)
(0.957293 0.00605695 0)
(0.950087 0.00716618 0)
(0.941621 0.00861956 0)
(0.931534 0.0105245 0)
(0.919371 0.0130286 0)
(0.904514 0.0163279 0)
(0.886294 0.020716 0)
(0.863449 0.026518 0)
(0.83587 0.0344816 0)
(0.798317 0.0444412 0)
(0.761747 0.0608219 0)
(0.678698 0.0700865 0)
(1.00018 0.00117351 0)
(1.00125 0.00265202 0)
(1.00255 0.00313695 0)
(1.00361 0.00339465 0)
(1.00455 0.00368378 0)
(1.00554 0.00390459 0)
(1.00659 0.00402483 0)
(1.00763 0.00408062 0)
(1.00866 0.00409622 0)
(1.00967 0.00408007 0)
(1.01068 0.00403961 0)
(1.01168 0.00398303 0)
(1.01266 0.00391696 0)
(1.01361 0.00384624 0)
(1.01453 0.00377441 0)
(1.01543 0.0037041 0)
(1.0163 0.00363709 0)
(1.01713 0.0035745 0)
(1.01793 0.00351689 0)
(1.0187 0.00346446 0)
(1.01942 0.00341713 0)
(1.02011 0.00337463 0)
(1.02075 0.00333658 0)
(1.02135 0.00330252 0)
(1.0219 0.00327209 0)
(1.0224 0.00324496 0)
(1.02285 0.00322087 0)
(1.02324 0.00319963 0)
(1.02358 0.00318118 0)
(1.02384 0.00316562 0)
(1.02404 0.0031532 0)
(1.02416 0.00314439 0)
(1.02421 0.0031399 0)
(1.02416 0.00314077 0)
(1.02402 0.00314839 0)
(1.02377 0.00316466 0)
(1.02341 0.00319208 0)
(1.02291 0.00323396 0)
(1.02227 0.0032946 0)
(1.02147 0.00337961 0)
(1.02048 0.00349623 0)
(1.01928 0.00365381 0)
(1.01783 0.00386436 0)
(1.01608 0.00414335 0)
(1.01398 0.00451067 0)
(1.01146 0.00499195 0)
(1.00842 0.00562033 0)
(1.00476 0.00643881 0)
(1.0003 0.00750346 0)
(0.99486 0.00888774 0)
(0.988182 0.0106889 0)
(0.979934 0.0130359 0)
(0.9697 0.0161041 0)
(0.956911 0.0201238 0)
(0.940944 0.0254347 0)
(0.92065 0.0323996 0)
(0.895842 0.0418693 0)
(0.862115 0.0535835 0)
(0.828546 0.0724516 0)
(0.758831 0.0848406 0)
(1.00014 0.000986939 0)
(1.00102 0.00234199 0)
(1.00218 0.00292823 0)
(1.00322 0.00327081 0)
(1.00413 0.00359504 0)
(1.00506 0.00382755 0)
(1.00603 0.0039415 0)
(1.00699 0.00398006 0)
(1.00792 0.00397617 0)
(1.00883 0.00394141 0)
(1.00972 0.00388357 0)
(1.01059 0.00381143 0)
(1.01145 0.0037325 0)
(1.01229 0.00365203 0)
(1.01311 0.00357358 0)
(1.01392 0.00349952 0)
(1.01471 0.0034313 0)
(1.01549 0.00336962 0)
(1.01626 0.00331466 0)
(1.01701 0.00326626 0)
(1.01776 0.00322402 0)
(1.01849 0.0031874 0)
(1.01921 0.00315582 0)
(1.01991 0.00312872 0)
(1.0206 0.00310562 0)
(1.02127 0.00308611 0)
(1.02193 0.00306988 0)
(1.02256 0.00305674 0)
(1.02318 0.00304669 0)
(1.02377 0.00303991 0)
(1.02433 0.00303682 0)
(1.02487 0.00303807 0)
(1.02537 0.00304463 0)
(1.02583 0.00305785 0)
(1.02624 0.0030795 0)
(1.02661 0.00311196 0)
(1.02691 0.00315828 0)
(1.02714 0.00322244 0)
(1.02729 0.00330957 0)
(1.02734 0.00342626 0)
(1.02727 0.003581 0)
(1.02706 0.00378465 0)
(1.02667 0.00405116 0)
(1.02606 0.00439844 0)
(1.02519 0.00484953 0)
(1.02399 0.00543411 0)
(1.02238 0.00619055 0)
(1.02025 0.0071686 0)
(1.01748 0.00843306 0)
(1.0139 0.0100688 0)
(1.00928 0.0121876 0)
(1.00335 0.0149376 0)
(0.995744 0.0185188 0)
(0.985986 0.0231923 0)
(0.973542 0.0293394 0)
(0.957409 0.0373642 0)
(0.937383 0.0481937 0)
(0.909644 0.0615434 0)
(0.881403 0.0824092 0)
(0.823877 0.0972277 0)
(1.00011 0.000842191 0)
(1.00084 0.00209722 0)
(1.00189 0.00272308 0)
(1.00289 0.00306789 0)
(1.00378 0.00335926 0)
(1.00468 0.00357135 0)
(1.00563 0.00368004 0)
(1.00656 0.00371976 0)
(1.00748 0.00372116 0)
(1.00836 0.00369493 0)
(1.00923 0.00364715 0)
(1.01007 0.00358545 0)
(1.0109 0.00351674 0)
(1.0117 0.00344586 0)
(1.01248 0.00337602 0)
(1.01324 0.00330941 0)
(1.01399 0.00324744 0)
(1.01473 0.00319088 0)
(1.01546 0.00314004 0)
(1.01617 0.00309493 0)
(1.01688 0.00305531 0)
(1.01758 0.00302083 0)
(1.01827 0.00299108 0)
(1.01896 0.00296566 0)
(1.01964 0.00294421 0)
(1.02031 0.00292643 0)
(1.02097 0.00291215 0)
(1.02163 0.00290128 0)
(1.02227 0.00289395 0)
(1.0229 0.00289045 0)
(1.02352 0.00289129 0)
(1.02412 0.0028973 0)
(1.02471 0.00290957 0)
(1.02527 0.00292965 0)
(1.0258 0.00295954 0)
(1.0263 0.00300189 0)
(1.02676 0.00306013 0)
(1.02717 0.00313871 0)
(1.02752 0.00324334 0)
(1.0278 0.00338138 0)
(1.02798 0.00356229 0)
(1.02805 0.00379819 0)
(1.02798 0.00410463 0)
(1.02774 0.0045016 0)
(1.02727 0.00501479 0)
(1.02654 0.00567727 0)
(1.02545 0.00653177 0)
(1.02394 0.00763361 0)
(1.02189 0.00905476 0)
(1.01916 0.0108892 0)
(1.01557 0.0132605 0)
(1.01092 0.0163316 0)
(1.00492 0.020322 0)
(0.997216 0.0255169 0)
(0.987455 0.0323309 0)
(0.974893 0.0412059 0)
(0.959519 0.0531316 0)
(0.938268 0.0678689 0)
(0.91691 0.0903728 0)
(0.873166 0.107608 0)
(1.00009 0.000728813 0)
(1.00071 0.00188098 0)
(1.00166 0.00251236 0)
(1.00261 0.00285663 0)
(1.00348 0.00313201 0)
(1.00436 0.00334175 0)
(1.00529 0.0034588 0)
(1.00621 0.00350668 0)
(1.00711 0.00351444 0)
(1.00799 0.00349422 0)
(1.00885 0.00345225 0)
(1.00969 0.00339578 0)
(1.0105 0.00333163 0)
(1.01129 0.0032647 0)
(1.01207 0.00319823 0)
(1.01282 0.00313445 0)
(1.01356 0.00307486 0)
(1.01428 0.00302034 0)
(1.01499 0.00297126 0)
(1.01569 0.00292771 0)
(1.01638 0.00288951 0)
(1.01707 0.00285637 0)
(1.01774 0.00282793 0)
(1.01841 0.00280384 0)
(1.01907 0.00278377 0)
(1.01973 0.00276748 0)
(1.02037 0.00275485 0)
(1.02102 0.00274587 0)
(1.02165 0.0027407 0)
(1.02228 0.00273974 0)
(1.02289 0.00274359 0)
(1.0235 0.00275318 0)
(1.02409 0.00276976 0)
(1.02466 0.00279505 0)
(1.0252 0.0028313 0)
(1.02572 0.00288144 0)
(1.02621 0.00294926 0)
(1.02666 0.00303968 0)
(1.02705 0.00315898 0)
(1.02738 0.00331525 0)
(1.02762 0.00351887 0)
(1.02777 0.00378312 0)
(1.02778 0.00412501 0)
(1.02764 0.00456637 0)
(1.0273 0.00513518 0)
(1.02671 0.00586742 0)
(1.0258 0.00680942 0)
(1.02449 0.00802103 0)
(1.02269 0.00957976 0)
(1.02026 0.0115864 0)
(1.01707 0.0141729 0)
(1.01291 0.0175121 0)
(1.00757 0.021835 0)
(1.00078 0.0274404 0)
(0.992304 0.034759 0)
(0.981641 0.0442517 0)
(0.969017 0.0569324 0)
(0.952323 0.0726445 0)
(0.936332 0.0961425 0)
(0.905736 0.115843 0)
(1.00007 0.000636572 0)
(1.00061 0.00168643 0)
(1.00146 0.00230827 0)
(1.00237 0.00265444 0)
(1.00322 0.00291891 0)
(1.00409 0.00312324 0)
(1.00499 0.00324227 0)
(1.0059 0.00329258 0)
(1.00679 0.00330232 0)
(1.00766 0.00328527 0)
(1.00852 0.00324768 0)
(1.00935 0.0031961 0)
(1.01016 0.00313695 0)
(1.01095 0.00307494 0)
(1.01172 0.0030132 0)
(1.01248 0.00295383 0)
(1.01321 0.00289828 0)
(1.01393 0.00284739 0)
(1.01464 0.00280155 0)
(1.01534 0.00276085 0)
(1.01602 0.00272516 0)
(1.0167 0.00269424 0)
(1.01737 0.00266777 0)
(1.01803 0.00264546 0)
(1.01869 0.00262706 0)
(1.01934 0.00261239 0)
(1.01998 0.00260139 0)
(1.02061 0.00259413 0)
(1.02124 0.00259087 0)
(1.02186 0.00259208 0)
(1.02247 0.00259847 0)
(1.02306 0.0026111 0)
(1.02365 0.00263137 0)
(1.02421 0.00266119 0)
(1.02476 0.00270301 0)
(1.02528 0.00276007 0)
(1.02577 0.0028365 0)
(1.02622 0.00293767 0)
(1.02662 0.00307041 0)
(1.02696 0.00324351 0)
(1.02723 0.00346823 0)
(1.0274 0.00375896 0)
(1.02744 0.00413411 0)
(1.02734 0.00461724 0)
(1.02705 0.00523856 0)
(1.02652 0.00603679 0)
(1.02569 0.00706166 0)
(1.02449 0.00837719 0)
(1.02281 0.0100659 0)
(1.02055 0.0122347 0)
(1.01756 0.0150222 0)
(1.01367 0.0186089 0)
(1.00868 0.0232329 0)
(1.00235 0.029199 0)
(0.994501 0.0369398 0)
(0.984766 0.0469162 0)
(0.973435 0.0601121 0)
(0.959205 0.0764585 0)
(0.945902 0.10025 0)
(0.924793 0.122122 0)
(1.00006 0.000559605 0)
(1.00052 0.00151227 0)
(1.0013 0.00211482 0)
(1.00216 0.00246017 0)
(1.003 0.00271329 0)
(1.00385 0.00290874 0)
(1.00473 0.0030269 0)
(1.00563 0.00307918 0)
(1.00651 0.0030915 0)
(1.00738 0.00307825 0)
(1.00823 0.00304556 0)
(1.00906 0.00299923 0)
(1.00987 0.00294524 0)
(1.01066 0.00288816 0)
(1.01143 0.00283102 0)
(1.01218 0.00277586 0)
(1.01291 0.00272407 0)
(1.01363 0.00267651 0)
(1.01434 0.0026336 0)
(1.01504 0.00259548 0)
(1.01572 0.00256205 0)
(1.0164 0.00253314 0)
(1.01707 0.0025085 0)
(1.01773 0.00248788 0)
(1.01838 0.00247109 0)
(1.01903 0.00245801 0)
(1.01967 0.00244864 0)
(1.0203 0.00244313 0)
(1.02092 0.00244179 0)
(1.02154 0.00244518 0)
(1.02215 0.00245412 0)
(1.02274 0.00246976 0)
(1.02332 0.00249365 0)
(1.02389 0.00252786 0)
(1.02443 0.00257508 0)
(1.02496 0.00263879 0)
(1.02545 0.00272348 0)
(1.0259 0.0028349 0)
(1.02631 0.00298045 0)
(1.02666 0.00316959 0)
(1.02693 0.00341439 0)
(1.02712 0.00373031 0)
(1.02719 0.00413709 0)
(1.02711 0.00465999 0)
(1.02686 0.00533127 0)
(1.02638 0.00619228 0)
(1.02561 0.00729598 0)
(1.02449 0.00871031 0)
(1.02292 0.0105226 0)
(1.0208 0.0128452 0)
(1.01799 0.0158233 0)
(1.01432 0.0196437 0)
(1.00962 0.0245508 0)
(1.00367 0.0308534 0)
(0.996305 0.0389796 0)
(0.987226 0.0493844 0)
(0.976678 0.0629852 0)
(0.96387 0.0798008 0)
(0.951668 0.103466 0)
(0.935932 0.126961 0)
(1.00005 0.000494162 0)
(1.00046 0.00135607 0)
(1.00117 0.00193158 0)
(1.00199 0.00227173 0)
(1.00281 0.00251314 0)
(1.00364 0.00269856 0)
(1.00451 0.00281462 0)
(1.00539 0.00286854 0)
(1.00626 0.0028832 0)
(1.00712 0.00287316 0)
(1.00797 0.00284467 0)
(1.00879 0.00280298 0)
(1.0096 0.00275367 0)
(1.01039 0.00270114 0)
(1.01116 0.00264833 0)
(1.01191 0.00259721 0)
(1.01265 0.0025491 0)
(1.01337 0.00250486 0)
(1.01408 0.00246494 0)
(1.01477 0.00242948 0)
(1.01546 0.00239844 0)
(1.01614 0.00237167 0)
(1.01681 0.00234898 0)
(1.01747 0.00233017 0)
(1.01812 0.0023151 0)
(1.01877 0.00230371 0)
(1.0194 0.00229606 0)
(1.02004 0.00229234 0)
(1.02066 0.00229296 0)
(1.02128 0.00229855 0)
(1.02188 0.00231001 0)
(1.02248 0.0023286 0)
(1.02306 0.00235603 0)
(1.02363 0.00239451 0)
(1.02417 0.00244694 0)
(1.0247 0.00251705 0)
(1.02519 0.00260965 0)
(1.02565 0.00273092 0)
(1.02606 0.00288873 0)
(1.02642 0.00309317 0)
(1.02671 0.00335715 0)
(1.02692 0.0036971 0)
(1.02701 0.00413404 0)
(1.02697 0.00469479 0)
(1.02675 0.00541362 0)
(1.02632 0.00633432 0)
(1.02562 0.00751287 0)
(1.02458 0.00902091 0)
(1.02313 0.0109502 0)
(1.02114 0.0134183 0)
(1.01851 0.0165761 0)
(1.01507 0.0206166 0)
(1.01067 0.0257892 0)
(1.0051 0.032406 0)
(0.998212 0.0408895 0)
(0.98976 0.0516892 0)
(0.979927 0.0656447 0)
(0.968224 0.082863 0)
(0.956757 0.106281 0)
(0.943746 0.130835 0)
(1.00005 0.000437554 0)
(1.00041 0.0012151 0)
(1.00106 0.00175793 0)
(1.00184 0.00208869 0)
(1.00264 0.00231827 0)
(1.00346 0.0024931 0)
(1.00431 0.00260572 0)
(1.00518 0.00266033 0)
(1.00605 0.00267671 0)
(1.0069 0.0026693 0)
(1.00774 0.00264452 0)
(1.00856 0.00260716 0)
(1.00937 0.00256235 0)
(1.01016 0.00251427 0)
(1.01093 0.00246574 0)
(1.01168 0.00241862 0)
(1.01241 0.00237419 0)
(1.01314 0.00233329 0)
(1.01384 0.00229635 0)
(1.01454 0.00226355 0)
(1.01523 0.0022349 0)
(1.0159 0.00221027 0)
(1.01657 0.00218952 0)
(1.01723 0.00217252 0)
(1.01789 0.00215916 0)
(1.01853 0.00214944 0)
(1.01917 0.00214348 0)
(1.01981 0.00214153 0)
(1.02043 0.00214407 0)
(1.02105 0.00215179 0)
(1.02166 0.00216571 0)
(1.02225 0.00218717 0)
(1.02284 0.00221801 0)
(1.0234 0.00226061 0)
(1.02395 0.00231804 0)
(1.02448 0.0023943 0)
(1.02498 0.00249448 0)
(1.02545 0.00262514 0)
(1.02587 0.00279465 0)
(1.02624 0.00301368 0)
(1.02655 0.00329589 0)
(1.02677 0.00365868 0)
(1.02689 0.00412424 0)
(1.02688 0.00472089 0)
(1.02671 0.00548475 0)
(1.02633 0.00646191 0)
(1.0257 0.0077112 0)
(1.02475 0.0093077 0)
(1.02341 0.0113473 0)
(1.02157 0.0139522 0)
(1.01913 0.0172786 0)
(1.01594 0.0215249 0)
(1.01184 0.0269449 0)
(1.00667 0.0338532 0)
(1.00027 0.0426656 0)
(0.992457 0.053827 0)
(0.983363 0.0681012 0)
(0.972684 0.0856736 0)
(0.962055 0.108867 0)
(0.950627 0.134036 0)
(1.00004 0.000387796 0)
(1.00037 0.00108696 0)
(1.00097 0.0015933 0)
(1.00172 0.00191092 0)
(1.0025 0.00212824 0)
(1.0033 0.00229198 0)
(1.00413 0.00239986 0)
(1.00499 0.0024542 0)
(1.00585 0.0024718 0)
(1.0067 0.00246662 0)
(1.00754 0.00244519 0)
(1.00836 0.0024119 0)
(1.00916 0.00237139 0)
(1.00995 0.0023276 0)
(1.01072 0.00228322 0)
(1.01147 0.00224001 0)
(1.01221 0.0021992 0)
(1.01293 0.00216158 0)
(1.01364 0.0021276 0)
(1.01433 0.00209746 0)
(1.01502 0.00207119 0)
(1.0157 0.00204871 0)
(1.01637 0.00202992 0)
(1.01703 0.00201472 0)
(1.01768 0.00200308 0)
(1.01833 0.00199503 0)
(1.01897 0.00199074 0)
(1.0196 0.00199055 0)
(1.02023 0.00199497 0)
(1.02085 0.00200479 0)
(1.02146 0.00202109 0)
(1.02205 0.00204533 0)
(1.02264 0.00207945 0)
(1.02321 0.00212599 0)
(1.02376 0.0021882 0)
(1.0243 0.00227031 0)
(1.0248 0.00237771 0)
(1.02528 0.00251729 0)
(1.02571 0.00269788 0)
(1.02609 0.00293072 0)
(1.02642 0.00323017 0)
(1.02666 0.00361451 0)
(1.02681 0.00410706 0)
(1.02683 0.00473753 0)
(1.02671 0.00554376 0)
(1.02639 0.006574 0)
(1.02584 0.00788971 0)
(1.02498 0.00956913 0)
(1.02376 0.0117119 0)
(1.02208 0.0144447 0)
(1.01983 0.0179283 0)
(1.01689 0.022366 0)
(1.01312 0.028015 0)
(1.00835 0.035192 0)
(1.00246 0.0443052 0)
(0.99529 0.0557944 0)
(0.986952 0.0703542 0)
(0.977258 0.0882277 0)
(0.967577 0.111246 0)
(0.957382 0.136727 0)
(1.00004 0.000343415 0)
(1.00034 0.000969604 0)
(1.00089 0.001437 0)
(1.00161 0.00173819 0)
(1.00237 0.00194256 0)
(1.00316 0.00209481 0)
(1.00398 0.00219686 0)
(1.00483 0.00225006 0)
(1.00568 0.00226841 0)
(1.00652 0.0022651 0)
(1.00736 0.00224667 0)
(1.00817 0.00221716 0)
(1.00898 0.00218073 0)
(1.00976 0.00214107 0)
(1.01053 0.00210072 0)
(1.01128 0.00206135 0)
(1.01202 0.00202411 0)
(1.01274 0.00198975 0)
(1.01345 0.00195873 0)
(1.01415 0.00193125 0)
(1.01484 0.00190736 0)
(1.01552 0.00188703 0)
(1.01619 0.0018702 0)
(1.01685 0.00185682 0)
(1.0175 0.00184689 0)
(1.01815 0.0018405 0)
(1.01879 0.00183788 0)
(1.01942 0.0018394 0)
(1.02005 0.00184566 0)
(1.02067 0.00185751 0)
(1.02128 0.0018761 0)
(1.02188 0.001903 0)
(1.02247 0.00194026 0)
(1.02304 0.00199055 0)
(1.0236 0.00205731 0)
(1.02414 0.00214496 0)
(1.02465 0.00225917 0)
(1.02513 0.00240716 0)
(1.02558 0.00259818 0)
(1.02597 0.002844 0)
(1.02631 0.00315963 0)
(1.02658 0.00356418 0)
(1.02676 0.00408201 0)
(1.02682 0.0047441 0)
(1.02675 0.00558992 0)
(1.02649 0.00666969 0)
(1.02602 0.00804728 0)
(1.02526 0.00980387 0)
(1.02417 0.0120425 0)
(1.02265 0.0148939 0)
(1.02061 0.018523 0)
(1.01793 0.0231372 0)
(1.01449 0.0289969 0)
(1.01014 0.0364197 0)
(1.00476 0.0458066 0)
(0.998232 0.0575905 0)
(0.990653 0.0724053 0)
(0.981908 0.0905284 0)
(0.9732 0.113408 0)
(0.964138 0.139007 0)
(1.00003 0.000303298 0)
(1.00031 0.000861297 0)
(1.00083 0.00128831 0)
(1.00151 0.00157024 0)
(1.00226 0.00176079 0)
(1.00303 0.0019012 0)
(1.00385 0.00199656 0)
(1.00468 0.00204779 0)
(1.00553 0.00206644 0)
(1.00637 0.00206464 0)
(1.0072 0.00204887 0)
(1.00801 0.00202288 0)
(1.00881 0.00199035 0)
(1.0096 0.00195467 0)
(1.01037 0.00191826 0)
(1.01112 0.00188265 0)
(1.01186 0.00184893 0)
(1.01258 0.00181781 0)
(1.01329 0.00178972 0)
(1.01399 0.0017649 0)
(1.01468 0.0017434 0)
(1.01536 0.00172523 0)
(1.01603 0.00171036 0)
(1.01669 0.00169879 0)
(1.01734 0.00169056 0)
(1.01799 0.00168582 0)
(1.01863 0.00168483 0)
(1.01927 0.00168804 0)
(1.01989 0.0016961 0)
(1.02051 0.0017099 0)
(1.02113 0.0017307 0)
(1.02173 0.00176014 0)
(1.02232 0.00180039 0)
(1.0229 0.00185423 0)
(1.02346 0.00192527 0)
(1.024 0.00201814 0)
(1.02452 0.00213874 0)
(1.02501 0.00229461 0)
(1.02547 0.00249538 0)
(1.02588 0.00275331 0)
(1.02624 0.00308401 0)
(1.02653 0.00350736 0)
(1.02674 0.00404866 0)
(1.02684 0.0047401 0)
(1.02682 0.0056226 0)
(1.02663 0.00674819 0)
(1.02623 0.00818296 0)
(1.02559 0.0100108 0)
(1.02463 0.0123378 0)
(1.02327 0.0152981 0)
(1.02145 0.0190607 0)
(1.01904 0.0238365 0)
(1.01593 0.0298883 0)
(1.012 0.0375345 0)
(1.00715 0.0471687 0)
(1.00127 0.0592159 0)
(0.994442 0.0742574 0)
(0.986611 0.0925856 0)
(0.97885 0.11535 0)
(0.970853 0.140947 0)
(1.00003 0.000266595 0)
(1.00029 0.000760563 0)
(1.00078 0.00114642 0)
(1.00143 0.00140673 0)
(1.00216 0.00158254 0)
(1.00293 0.00171081 0)
(1.00373 0.00179877 0)
(1.00456 0.00184728 0)
(1.0054 0.00186575 0)
(1.00623 0.00186516 0)
(1.00706 0.00185176 0)
(1.00787 0.00182902 0)
(1.00867 0.00180021 0)
(1.00945 0.0017684 0)
(1.01022 0.00173582 0)
(1.01097 0.00170392 0)
(1.01171 0.00167367 0)
(1.01244 0.00164575 0)
(1.01315 0.0016206 0)
(1.01384 0.00159842 0)
(1.01453 0.0015793 0)
(1.01521 0.00156329 0)
(1.01588 0.00155038 0)
(1.01655 0.00154062 0)
(1.0172 0.00153409 0)
(1.01785 0.00153098 0)
(1.01849 0.00153161 0)
(1.01913 0.00153646 0)
(1.01976 0.00154625 0)
(1.02038 0.00156195 0)
(1.02099 0.00158486 0)
(1.0216 0.00161672 0)
(1.02219 0.00165978 0)
(1.02277 0.00171697 0)
(1.02334 0.00179203 0)
(1.02389 0.00188977 0)
(1.02441 0.00201632 0)
(1.02491 0.00217951 0)
(1.02538 0.00238932 0)
(1.02581 0.00265845 0)
(1.02619 0.00300308 0)
(1.02651 0.00344376 0)
(1.02675 0.00400667 0)
(1.02689 0.00472507 0)
(1.02692 0.00564123 0)
(1.02679 0.00680881 0)
(1.02649 0.00829591 0)
(1.02595 0.0101887 0)
(1.02512 0.0125963 0)
(1.02395 0.0156559 0)
(1.02234 0.0195397 0)
(1.0202 0.024462 0)
(1.01744 0.0306875 0)
(1.01395 0.0385347 0)
(1.00962 0.0483907 0)
(1.00438 0.060672 0)
(0.998302 0.075914 0)
(0.991355 0.0944113 0)
(0.9845 0.117077 0)
(0.977486 0.142604 0)
(1.00003 0.000232643 0)
(1.00027 0.000666153 0)
(1.00073 0.00101056 0)
(1.00137 0.00124733 0)
(1.00208 0.00140746 0)
(1.00283 0.00152329 0)
(1.00363 0.00160326 0)
(1.00445 0.00164838 0)
(1.00528 0.00166623 0)
(1.00611 0.00166655 0)
(1.00693 0.00165527 0)
(1.00774 0.00163556 0)
(1.00854 0.0016103 0)
(1.00933 0.00158223 0)
(1.01009 0.0015534 0)
(1.01085 0.00152514 0)
(1.01158 0.00149833 0)
(1.01231 0.0014736 0)
(1.01302 0.00145135 0)
(1.01372 0.00143181 0)
(1.01441 0.00141508 0)
(1.01509 0.00140122 0)
(1.01576 0.00139028 0)
(1.01642 0.00138231 0)
(1.01708 0.00137747 0)
(1.01773 0.00137597 0)
(1.01837 0.00137818 0)
(1.01901 0.00138465 0)
(1.01964 0.00139611 0)
(1.02026 0.00141362 0)
(1.02088 0.00143854 0)
(1.02148 0.00147269 0)
(1.02208 0.0015184 0)
(1.02266 0.00157872 0)
(1.02323 0.00165752 0)
(1.02379 0.00175977 0)
(1.02432 0.00189182 0)
(1.02484 0.00206175 0)
(1.02532 0.00227987 0)
(1.02576 0.00255926 0)
(1.02616 0.00291661 0)
(1.0265 0.00337311 0)
(1.02678 0.0039557 0)
(1.02697 0.00469862 0)
(1.02705 0.00564532 0)
(1.02699 0.00685095 0)
(1.02677 0.00838537 0)
(1.02634 0.0103369 0)
(1.02566 0.0128171 0)
(1.02466 0.015966 0)
(1.02328 0.0199586 0)
(1.02143 0.025012 0)
(1.01902 0.0313927 0)
(1.01596 0.0394192 0)
(1.01216 0.0494723 0)
(1.00756 0.06196 0)
(1.00222 0.0773786 0)
(0.99613 0.0960169 0)
(0.990141 0.118597 0)
(0.984028 0.144019 0)
(1.00003 0.000200912 0)
(1.00025 0.000577003 0)
(1.0007 0.000879972 0)
(1.00131 0.00109167 0)
(1.00201 0.00123521 0)
(1.00275 0.00133831 0)
(1.00354 0.00140982 0)
(1.00435 0.00145094 0)
(1.00518 0.00146777 0)
(1.00601 0.00146874 0)
(1.00683 0.00145933 0)
(1.00764 0.00144246 0)
(1.00843 0.0014206 0)
(1.00922 0.00139617 0)
(1.00998 0.00137101 0)
(1.01074 0.00134632 0)
(1.01147 0.00132291 0)
(1.0122 0.00130134 0)
(1.01291 0.00128199 0)
(1.01361 0.00126508 0)
(1.0143 0.00125073 0)
(1.01498 0.00123903 0)
(1.01565 0.00123004 0)
(1.01632 0.00122387 0)
(1.01697 0.00122069 0)
(1.01762 0.00122078 0)
(1.01827 0.00122455 0)
(1.0189 0.00123257 0)
(1.01954 0.00124566 0)
(1.02016 0.0012649 0)
(1.02078 0.00129173 0)
(1.02138 0.00132802 0)
(1.02198 0.00137621 0)
(1.02257 0.00143943 0)
(1.02315 0.00152168 0)
(1.02371 0.00162808 0)
(1.02425 0.00176516 0)
(1.02477 0.00194124 0)
(1.02527 0.00216689 0)
(1.02573 0.00245558 0)
(1.02615 0.00282443 0)
(1.02652 0.00329518 0)
(1.02683 0.00389546 0)
(1.02706 0.00466037 0)
(1.0272 0.00563442 0)
(1.02722 0.00687404 0)
(1.02708 0.00845066 0)
(1.02677 0.0104545 0)
(1.02623 0.0129991 0)
(1.02542 0.0162271 0)
(1.02426 0.0203161 0)
(1.0227 0.0254853 0)
(1.02065 0.0320027 0)
(1.01803 0.0401869 0)
(1.01477 0.050413 0)
(1.0108 0.0630814 0)
(1.0062 0.0786549 0)
(1.00093 0.0974121 0)
(0.995773 0.119922 0)
(0.990483 0.145229 0)
(1.00003 0.000170978 0)
(1.00024 0.0004922 0)
(1.00067 0.000753914 0)
(1.00126 0.000939323 0)
(1.00195 0.00106547 0)
(1.00268 0.00115553 0)
(1.00346 0.00121821 0)
(1.00427 0.00125483 0)
(1.00509 0.00127024 0)
(1.00592 0.00127162 0)
(1.00673 0.0012639 0)
(1.00754 0.00124969 0)
(1.00834 0.00123108 0)
(1.00912 0.00121019 0)
(1.00989 0.00118863 0)
(1.01064 0.00116747 0)
(1.01138 0.00114742 0)
(1.0121 0.00112899 0)
(1.01282 0.00111252 0)
(1.01352 0.00109824 0)
(1.01421 0.00108627 0)
(1.01489 0.00107671 0)
(1.01556 0.00106966 0)
(1.01622 0.00106528 0)
(1.01688 0.00106376 0)
(1.01753 0.00106542 0)
(1.01818 0.0010707 0)
(1.01882 0.00108024 0)
(1.01945 0.00109489 0)
(1.02007 0.00111577 0)
(1.02069 0.0011444 0)
(1.0213 0.0011827 0)
(1.02191 0.00123318 0)
(1.0225 0.00129907 0)
(1.02308 0.00138447 0)
(1.02365 0.00149464 0)
(1.0242 0.00163627 0)
(1.02473 0.00181787 0)
(1.02524 0.00205029 0)
(1.02572 0.00234728 0)
(1.02616 0.00272636 0)
(1.02656 0.00320975 0)
(1.0269 0.0038257 0)
(1.02718 0.00461001 0)
(1.02737 0.00560813 0)
(1.02746 0.0068776 0)
(1.02742 0.00849119 0)
(1.02723 0.0105407 0)
(1.02684 0.0131416 0)
(1.02621 0.0164384 0)
(1.02529 0.0206109 0)
(1.02402 0.0258805 0)
(1.02233 0.0325164 0)
(1.02015 0.0408368 0)
(1.01743 0.0512128 0)
(1.0141 0.0640376 0)
(1.01022 0.0797463 0)
(1.00576 0.0986057 0)
(1.0014 0.121062 0)
(0.996863 0.146259 0)
(1.00003 0.000142486 0)
(1.00023 0.000410957 0)
(1.00064 0.000631695 0)
(1.00122 0.000789886 0)
(1.0019 0.000897888 0)
(1.00263 0.000974645 0)
(1.0034 0.00102818 0)
(1.0042 0.00105987 0)
(1.00502 0.00107353 0)
(1.00584 0.00107511 0)
(1.00666 0.0010689 0)
(1.00746 0.00105719 0)
(1.00826 0.00104173 0)
(1.00904 0.00102429 0)
(1.00981 0.00100627 0)
(1.01056 0.000988592 0)
(1.0113 0.000971873 0)
(1.01202 0.000956557 0)
(1.01274 0.000942962 0)
(1.01344 0.000931292 0)
(1.01413 0.000921688 0)
(1.01481 0.000914269 0)
(1.01548 0.000909165 0)
(1.01615 0.000906549 0)
(1.01681 0.000906665 0)
(1.01746 0.000909864 0)
(1.0181 0.000916632 0)
(1.01874 0.000927636 0)
(1.01938 0.000943772 0)
(1.02 0.000966221 0)
(1.02062 0.000996528 0)
(1.02124 0.00103669 0)
(1.02184 0.00108928 0)
(1.02244 0.0011576 0)
(1.02303 0.00124585 0)
(1.0236 0.0013594 0)
(1.02416 0.00150508 0)
(1.0247 0.00169158 0)
(1.02523 0.00192996 0)
(1.02572 0.00223424 0)
(1.02619 0.00262226 0)
(1.02661 0.00311666 0)
(1.027 0.00374618 0)
(1.02732 0.00454726 0)
(1.02757 0.00556612 0)
(1.02773 0.00686121 0)
(1.02779 0.00850644 0)
(1.02771 0.0105949 0)
(1.02747 0.0132436 0)
(1.02703 0.0165989 0)
(1.02635 0.0208422 0)
(1.02537 0.0261967 0)
(1.02405 0.0329325 0)
(1.02232 0.0413682 0)
(1.02014 0.0518713 0)
(1.01744 0.0648294 0)
(1.01428 0.0806556 0)
(1.01061 0.0996049 0)
(1.00702 0.122025 0)
(1.00318 0.147132 0)
(1.00002 0.00011514 0)
(1.00022 0.00033258 0)
(1.00062 0.000512656 0)
(1.00119 0.000642919 0)
(1.00186 0.000732153 0)
(1.00258 0.000795351 0)
(1.00335 0.000839488 0)
(1.00414 0.000865904 0)
(1.00496 0.000877517 0)
(1.00578 0.000879105 0)
(1.00659 0.000874275 0)
(1.0074 0.000864932 0)
(1.00819 0.00085251 0)
(1.00898 0.000838446 0)
(1.00974 0.000823913 0)
(1.0105 0.000809682 0)
(1.01123 0.000796266 0)
(1.01196 0.00078405 0)
(1.01267 0.000773312 0)
(1.01337 0.000764249 0)
(1.01406 0.000757006 0)
(1.01475 0.000751718 0)
(1.01542 0.000748543 0)
(1.01609 0.000747683 0)
(1.01674 0.000749415 0)
(1.0174 0.000754125 0)
(1.01804 0.000762337 0)
(1.01868 0.000774754 0)
(1.01932 0.000792311 0)
(1.01995 0.000816233 0)
(1.02057 0.000848106 0)
(1.02119 0.000889982 0)
(1.02179 0.00094449 0)
(1.0224 0.00101499 0)
(1.02299 0.00110578 0)
(1.02357 0.00122231 0)
(1.02414 0.00137154 0)
(1.02469 0.0015623 0)
(1.02523 0.00180582 0)
(1.02574 0.00211635 0)
(1.02623 0.002512 0)
(1.02669 0.00301574 0)
(1.0271 0.00365672 0)
(1.02747 0.00447189 0)
(1.02778 0.00550808 0)
(1.02802 0.00682451 0)
(1.02817 0.00849597 0)
(1.02822 0.0106166 0)
(1.02813 0.0133047 0)
(1.02788 0.0167079 0)
(1.02744 0.0210091 0)
(1.02676 0.0264329 0)
(1.02581 0.0332504 0)
(1.02454 0.0417805 0)
(1.02289 0.0523884 0)
(1.02083 0.065458 0)
(1.01838 0.0813852 0)
(1.01548 0.100416 0)
(1.01263 0.12282 0)
(1.00946 0.147865 0)
(1.00002 8.86853e-05 0)
(1.00022 0.000256456 0)
(1.00061 0.000396169 0)
(1.00116 0.00049798 0)
(1.00182 0.000567931 0)
(1.00254 0.000617349 0)
(1.00331 0.000651896 0)
(1.0041 0.000672753 0)
(1.00491 0.000682077 0)
(1.00573 0.000683526 0)
(1.00654 0.00067995 0)
(1.00735 0.000672872 0)
(1.00814 0.000663402 0)
(1.00892 0.000652657 0)