/*--------------------------------*- C++ -*----------------------------------*\
| =========                 |                                                 |
| \\      /  F ield         | OpenFOAM: The Open Source CFD Toolbox           |
|  \\    /   O peration     | Version:  2.4.0                                 |
|   \\  /    A nd           | Web:      www.OpenFOAM.org                      |
|    \\/     M anipulation  |                                                 |
\*---------------------------------------------------------------------------*/
FoamFile
{
    version     2.0;
    format      ascii;
    class       volSymmTensorField;
    location    "1.89";
    object      UPrime2Mean;
}
// * * * * * * * * * * * * * * * * * * * * * * * * * * * * * * * * * * * * * //

dimensions      [0 2 -2 0 0 0 0];

internalField   nonuniform List<symmTensor> 
2320
(
(0.067255 0.000513966 0 0.000955958 0 0)
(0.0916534 0.00132919 0 0.00297152 0 0)
(0.0849843 0.00139106 0 0.00303126 0 0)
(0.0861512 0.00103876 0 0.00286661 0 0)
(0.0904322 0.000513793 0 0.00222265 0 0)
(0.0878645 0.000768982 0 0.00295751 0 0)
(0.10535 0.00103064 0 0.00333023 0 0)
(0.0951348 0.00111813 0 0.00444773 0 0)
(0.109241 0.00113183 0 0.0035964 0 0)
(0.103509 0.000820548 0 0.00469357 0 0)
(0.122983 0.00108946 0 0.00461882 0 0)
(0.115925 0.00109359 0 0.00629897 0 0)
(0.135208 0.000807792 0 0.00545477 0 0)
(0.125661 8.31394e-05 0 0.00745918 0 0)
(0.160431 0.00182959 0 0.00678693 0 0)
(0.129698 3.58957e-05 0 0.00919527 0 0)
(0.192372 0.00118155 0 0.0092269 0 0)
(0.143166 -0.000341181 0 0.0135087 0 0)
(0.227165 -0.000522762 0 0.0137156 0 0)
(0.154829 0.000303423 0 0.0195009 0 0)
(0.0218878 0.000386722 0 0.00197581 0 0)
(0.0335512 0.00105895 0 0.00481339 0 0)
(0.0283702 0.0027819 0 0.00511818 0 0)
(0.0299623 0.00199484 0 0.00499271 0 0)
(0.0304754 0.00188869 0 0.00456734 0 0)
(0.0265198 0.00167845 0 0.00506639 0 0)
(0.0347806 0.00247959 0 0.00527577 0 0)
(0.0271032 0.00202389 0 0.00586517 0 0)
(0.0373353 0.00280441 0 0.00581632 0 0)
(0.0306192 0.00249974 0 0.0074106 0 0)
(0.0378236 0.00293195 0 0.00753545 0 0)
(0.0329817 0.00270891 0 0.00877984 0 0)
(0.0411119 0.00195693 0 0.00833926 0 0)
(0.0393453 0.00175271 0 0.0107003 0 0)
(0.0467811 0.00184911 0 0.010627 0 0)
(0.0469773 0.000739283 0 0.013342 0 0)
(0.049875 -1.68165e-05 0 0.0134171 0 0)
(0.0608793 -0.000631067 0 0.0174011 0 0)
(0.059326 -0.0016418 0 0.0160429 0 0)
(0.0707666 -0.0041241 0 0.0211639 0 0)
(0.0230651 0.000273323 0 0.00211041 0 0)
(0.0294903 0.00126304 0 0.00484903 0 0)
(0.0258898 0.00153435 0 0.0051859 0 0)
(0.0293231 0.00169532 0 0.00414052 0 0)
(0.026369 0.00140762 0 0.00418239 0 0)
(0.0324894 0.00122127 0 0.00423826 0 0)
(0.0289864 0.00118114 0 0.00477764 0 0)
(0.0346585 0.00123024 0 0.0043407 0 0)
(0.0304362 0.000952083 0 0.00497029 0 0)
(0.0412023 0.00248584 0 0.00526782 0 0)
(0.0301546 0.0011181 0 0.00557277 0 0)
(0.0543973 0.00257909 0 0.00564076 0 0)
(0.0301035 0.001031 0 0.00644562 0 0)
(0.0637617 0.00184768 0 0.00670577 0 0)
(0.03341 0.00306275 0 0.00727563 0 0)
(0.0748026 0.00392268 0 0.00715098 0 0)
(0.0381481 0.00298775 0 0.00837173 0 0)
(0.0859553 0.00398604 0 0.00919767 0 0)
(0.0474678 0.00234898 0 0.00944552 0 0)
(0.0930146 0.00310422 0 0.0133263 0 0)
(0.0110775 0.000183569 0 0.00236167 0 0)
(0.0255414 0.00139354 0 0.00481639 0 0)
(0.0146721 0.00160603 0 0.00533477 0 0)
(0.0242803 0.00212976 0 0.00455901 0 0)
(0.0150332 0.00155097 0 0.00506167 0 0)
(0.0230576 0.00161358 0 0.00524923 0 0)
(0.0163705 0.000790999 0 0.00538559 0 0)
(0.0254256 0.00250642 0 0.00579564 0 0)
(0.0172073 0.000287636 0 0.00675011 0 0)
(0.0261563 0.00386208 0 0.00703436 0 0)
(0.0190249 0.000388252 0 0.00743145 0 0)
(0.029082 0.00437127 0 0.00799839 0 0)
(0.0212107 0.000262831 0 0.00910806 0 0)
(0.024866 0.00365399 0 0.00959665 0 0)
(0.0233663 0.00207074 0 0.00992005 0 0)
(0.0284884 0.0045086 0 0.0116276 0 0)
(0.0257238 0.0022523 0 0.0113223 0 0)
(0.0257682 0.00381812 0 0.0143594 0 0)
(0.0312526 0.00230323 0 0.00993232 0 0)
(0.0270145 0.000498259 0 0.0183796 0 0)
(0.00711406 0.000580704 0 0.00170801 0 0)
(0.0236556 0.000834174 0 0.00325812 0 0)
(0.00887128 0.00171247 0 0.00432988 0 0)
(0.0208259 0.00165245 0 0.00358772 0 0)
(0.0080076 0.0016481 0 0.00381972 0 0)
(0.0208634 0.00127219 0 0.00325246 0 0)
(0.00885673 0.00130287 0 0.00426964 0 0)
(0.0229894 0.00205614 0 0.00398757 0 0)
(0.0100654 0.00132604 0 0.00462268 0 0)
(0.0230746 0.00235769 0 0.00466526 0 0)
(0.0116138 0.00104596 0 0.0056057 0 0)
(0.024025 0.00221592 0 0.00554905 0 0)
(0.0148353 0.00129523 0 0.00611745 0 0)
(0.0252825 0.00254574 0 0.00735277 0 0)
(0.0188503 0.0017794 0 0.00703183 0 0)
(0.0245576 0.00389143 0 0.00825923 0 0)
(0.0248169 0.00272094 0 0.00694795 0 0)
(0.0227593 0.0043822 0 0.0104075 0 0)
(0.0288807 0.00258633 0 0.00612669 0 0)
(0.0201597 0.00187756 0 0.016022 0 0)
(0.00915966 0.00051146 0 0.00263929 0 0)
(0.0164477 0.00243467 0 0.00604846 0 0)
(0.0112958 0.00329136 0 0.00795475 0 0)
(0.0176033 0.00264263 0 0.00665371 0 0)
(0.0093359 0.00213242 0 0.00573833 0 0)
(0.0175107 0.00284257 0 0.00594488 0 0)
(0.0111003 0.00226912 0 0.0076146 0 0)
(0.0164454 0.00371688 0 0.00761115 0 0)
(0.0118584 0.0015874 0 0.0079248 0 0)
(0.0166212 0.00469211 0 0.00833624 0 0)
(0.0122985 0.00155992 0 0.00924662 0 0)
(0.0186537 0.00432637 0 0.00959235 0 0)
(0.0124562 0.00168389 0 0.0103195 0 0)
(0.0197103 0.00397378 0 0.0125724 0 0)
(0.0144922 0.00173063 0 0.011921 0 0)
(0.0244225 0.00547899 0 0.0151165 0 0)
(0.0195152 0.00170329 0 0.012836 0 0)
(0.0282452 0.00621891 0 0.0209901 0 0)
(0.0298143 0.00103581 0 0.0118009 0 0)
(0.0303233 0.00604864 0 0.0282083 0 0)
(0.0107673 0.000505104 0 0.00229831 0 0)
(0.0161526 0.00145704 0 0.00528449 0 0)
(0.0118249 0.00273813 0 0.00695257 0 0)
(0.0193247 0.00283203 0 0.00622211 0 0)
(0.01109 0.00183487 0 0.00504858 0 0)
(0.0212482 0.00193672 0 0.00488172 0 0)
(0.0108648 0.00078028 0 0.00678615 0 0)
(0.0175026 0.00274194 0 0.00715941 0 0)
(0.0105112 0.00116988 0 0.00777056 0 0)
(0.017047 0.00321364 0 0.00721179 0 0)
(0.0117612 0.000830256 0 0.00864701 0 0)
(0.0151811 0.00333086 0 0.00871536 0 0)
(0.0139087 0.00108211 0 0.00968258 0 0)
(0.0150178 0.00242507 0 0.0112028 0 0)
(0.0146844 0.00132958 0 0.0107007 0 0)
(0.0173547 0.00208803 0 0.0142306 0 0)
(0.0162916 0.00229355 0 0.0117526 0 0)
(0.0205337 0.00151578 0 0.020214 0 0)
(0.0210271 0.00278337 0 0.0115573 0 0)
(0.0258825 -0.00258041 0 0.0300697 0 0)
(0.0160679 0.00131024 0 0.00251641 0 0)
(0.00831018 0.0027082 0 0.0060131 0 0)
(0.0150738 0.00388465 0 0.00769555 0 0)
(0.00895092 0.00350761 0 0.0072814 0 0)
(0.0123396 0.00336875 0 0.00651501 0 0)
(0.00927251 0.00211232 0 0.00675798 0 0)
(0.0122193 0.00206201 0 0.00817313 0 0)
(0.011866 0.00346633 0 0.00772543 0 0)
(0.0122966 0.00322612 0 0.00812411 0 0)
(0.0120222 0.00425472 0 0.00919836 0 0)
(0.0120923 0.00224629 0 0.0106246 0 0)
(0.0140127 0.00304297 0 0.0111796 0 0)
(0.012172 0.0026092 0 0.0112404 0 0)
(0.0146807 0.00338898 0 0.0146714 0 0)
(0.0126773 0.0021597 0 0.0130341 0 0)
(0.0156486 0.00435221 0 0.0181159 0 0)
(0.0163099 0.00390914 0 0.0126215 0 0)
(0.0169726 0.00351657 0 0.0271013 0 0)
(0.0235336 0.00379673 0 0.0128782 0 0)
(0.0206037 0.00136616 0 0.0413713 0 0)
(0.018084 0.000889294 0 0.00224691 0 0)
(0.00850947 0.00190757 0 0.00473642 0 0)
(0.0172849 0.00304569 0 0.00572451 0 0)
(0.00796588 0.00251686 0 0.00607496 0 0)
(0.0125176 0.00229802 0 0.00553319 0 0)
(0.00975996 0.00198182 0 0.00536333 0 0)
(0.010632 0.00267687 0 0.00601859 0 0)
(0.0121617 0.0031985 0 0.0060123 0 0)
(0.00957338 0.00226568 0 0.00681056 0 0)
(0.0137321 0.00303546 0 0.00694078 0 0)
(0.0107006 0.00191494 0 0.00809497 0 0)
(0.0149394 0.00259243 0 0.00831233 0 0)
(0.010585 0.00155944 0 0.00874159 0 0)
(0.0167668 0.0018759 0 0.0113085 0 0)
(0.0114348 0.00254243 0 0.0104033 0 0)
(0.0171925 0.0023836 0 0.0156539 0 0)
(0.0128531 0.00287645 0 0.0115774 0 0)
(0.0197482 0.00091941 0 0.0250972 0 0)
(0.0177606 0.00451291 0 0.0123173 0 0)
(0.0227437 -0.00445021 0 0.0439175 0 0)
(0.0244613 0.00238276 0 0.00198059 0 0)
(0.0103102 0.00213528 0 0.0039389 0 0)
(0.0251474 0.00416975 0 0.00530131 0 0)
(0.0101285 0.00235765 0 0.00549209 0 0)
(0.0229857 0.00412181 0 0.00543663 0 0)
(0.0118751 0.0023941 0 0.00495161 0 0)
(0.0212465 0.00421036 0 0.00651198 0 0)
(0.0144977 0.00224924 0 0.00625776 0 0)
(0.0207246 0.00365064 0 0.00741198 0 0)
(0.0165114 0.00261262 0 0.00736257 0 0)
(0.022502 0.00315198 0 0.00887138 0 0)
(0.0176731 0.00234686 0 0.00919693 0 0)
(0.0197879 0.00244869 0 0.00992445 0 0)
(0.01814 0.00295082 0 0.0114482 0 0)
(0.0188968 0.00264612 0 0.0115752 0 0)
(0.0152469 0.00446521 0 0.0158304 0 0)
(0.0187293 0.00326636 0 0.0119775 0 0)
(0.0127509 0.00345779 0 0.0248315 0 0)
(0.0228044 0.00416517 0 0.0125769 0 0)
(0.0133911 -0.00279003 0 0.0467385 0 0)
(0.026603 0.00111443 0 0.00213412 0 0)
(0.00668193 0.00197845 0 0.00457423 0 0)
(0.0323489 0.00349926 0 0.00497811 0 0)
(0.00700712 0.00194195 0 0.00595972 0 0)
(0.0315418 0.00185739 0 0.0049178 0 0)
(0.0105658 0.00178734 0 0.00544695 0 0)
(0.0279848 0.00206474 0 0.00591305 0 0)
(0.0137814 0.000400645 0 0.00667393 0 0)
(0.0247536 0.00109279 0 0.00642064 0 0)
(0.0195254 0.000811627 0 0.00699098 0 0)
(0.0263412 0.0021367 0 0.00702269 0 0)
(0.0235335 0.000884344 0 0.00829464 0 0)
(0.0262584 0.00174811 0 0.00659984 0 0)
(0.0276405 0.00123659 0 0.00933005 0 0)
(0.0241252 0.00247199 0 0.00708455 0 0)
(0.0280052 0.00103283 0 0.0127237 0 0)
(0.0221458 0.00340466 0 0.00762667 0 0)
(0.0282114 -0.000188585 0 0.0208136 0 0)
(0.0192743 0.00549347 0 0.00981718 0 0)
(0.0270231 -8.35687e-05 0 0.0407525 0 0)
(0.0139932 0.00287045 0 0.00220174 0 0)
(0.0148239 0.00146659 0 0.00353954 0 0)
(0.0208657 0.00477819 0 0.00506521 0 0)
(0.0126426 0.00186947 0 0.0048424 0 0)
(0.0241108 0.00460727 0 0.00546616 0 0)
(0.0104507 0.00162189 0 0.00509546 0 0)
(0.0241264 0.00465079 0 0.00677794 0 0)
(0.0116583 0.00143308 0 0.00613852 0 0)
(0.0260574 0.0041121 0 0.00779584 0 0)
(0.0134369 0.00273405 0 0.0072095 0 0)
(0.0293877 0.00479375 0 0.00905463 0 0)
(0.0187039 0.00414355 0 0.00829109 0 0)
(0.0339919 0.00551025 0 0.00883833 0 0)
(0.0238812 0.00486214 0 0.0100257 0 0)
(0.0381875 0.00649082 0 0.00984163 0 0)
(0.0306383 0.00512536 0 0.0118624 0 0)
(0.0487439 0.00784566 0 0.00893389 0 0)
(0.0356268 0.0033081 0 0.017555 0 0)
(0.0673643 0.00820358 0 0.00894071 0 0)
(0.0386553 -0.00978426 0 0.0445781 0 0)
(0.0136964 0.00200242 0 0.00193028 0 0)
(0.0200288 0.00229053 0 0.00307867 0 0)
(0.0144919 0.00359123 0 0.00455456 0 0)
(0.0208515 0.00299599 0 0.00468336 0 0)
(0.0149865 0.0037547 0 0.00512406 0 0)
(0.0183236 0.00181794 0 0.00523416 0 0)
(0.0165902 0.00425503 0 0.00504314 0 0)
(0.0196743 0.00167812 0 0.00494934 0 0)
(0.0194177 0.00291083 0 0.00540014 0 0)
(0.0220312 0.00151319 0 0.00626442 0 0)
(0.0226879 0.00134952 0 0.00731835 0 0)
(0.0222748 0.00335073 0 0.00702081 0 0)
(0.0294198 -0.000966092 0 0.00749052 0 0)
(0.0222512 0.00362967 0 0.00828264 0 0)
(0.0377288 -0.00157954 0 0.0080237 0 0)
(0.0215409 0.00359428 0 0.00971343 0 0)
(0.0465892 -0.00193295 0 0.00852578 0 0)
(0.0250084 0.00284976 0 0.0153276 0 0)
(0.0750885 0.00207724 0 0.00923541 0 0)
(0.0275867 -0.00366225 0 0.0406755 0 0)
(0.0183628 0.00343363 0 0.0021652 0 0)
(0.0163365 0.00119905 0 0.00342513 0 0)
(0.0193408 0.00486215 0 0.00572565 0 0)
(0.0196082 0.0016542 0 0.00481107 0 0)
(0.0197367 0.00571691 0 0.00677527 0 0)
(0.0180612 0.000871985 0 0.00476021 0 0)
(0.0188243 0.00558355 0 0.00805219 0 0)
(0.0200237 0.000542231 0 0.0059039 0 0)
(0.0204198 0.0036292 0 0.00988037 0 0)
(0.023428 0.000606042 0 0.00865043 0 0)
(0.0219056 0.00336911 0 0.011718 0 0)
(0.024186 0.0028462 0 0.00949394 0 0)
(0.0247556 0.00339409 0 0.0122451 0 0)
(0.0233346 0.00318271 0 0.0113352 0 0)
(0.0243931 0.00327248 0 0.0155268 0 0)
(0.0212109 0.00264318 0 0.0134416 0 0)
(0.0238963 0.000756171 0 0.0185432 0 0)
(0.0217388 0.00315213 0 0.0202229 0 0)
(0.0317015 0.00449594 0 0.0193543 0 0)
(0.0238249 0.00192853 0 0.0362511 0 0)
(0.01967 0.00208947 0 0.00172375 0 0)
(0.0212007 0.00265917 0 0.00293279 0 0)
(0.0212947 0.00357949 0 0.00437155 0 0)
(0.0224933 0.00345844 0 0.00464055 0 0)
(0.021212 0.00416634 0 0.00532563 0 0)
(0.0207684 0.00196853 0 0.00669281 0 0)
(0.0233624 0.00391145 0 0.00603086 0 0)
(0.0221954 8.53311e-05 0 0.00750795 0 0)
(0.0234014 0.00301234 0 0.00717434 0 0)
(0.0247588 0.00104967 0 0.00930216 0 0)
(0.022784 0.00267961 0 0.00937226 0 0)
(0.025069 0.00366735 0 0.00922935 0 0)
(0.023474 -0.000626121 0 0.0100285 0 0)
(0.0256439 0.00409659 0 0.0113129 0 0)
(0.0267512 -0.00276463 0 0.0109223 0 0)
(0.0264205 0.00144682 0 0.0114966 0 0)
(0.0323269 -0.00639368 0 0.0133259 0 0)
(0.0319409 -0.000240573 0 0.013612 0 0)
(0.0379702 -0.00489647 0 0.014608 0 0)
(0.0378783 0.00106821 0 0.0238741 0 0)
(0.0191553 0.00343442 0 0.00214938 0 0)
(0.01465 0.00141178 0 0.00321884 0 0)
(0.0203958 0.00572426 0 0.00537245 0 0)
(0.0157273 0.00265164 0 0.00466784 0 0)
(0.0196196 0.00581759 0 0.00869701 0 0)
(0.016145 0.000425317 0 0.00661059 0 0)
(0.0186397 0.00503913 0 0.0117456 0 0)
(0.0150884 5.49979e-06 0 0.00769338 0 0)
(0.0182419 0.00459621 0 0.0128124 0 0)
(0.0168727 0.00246468 0 0.0109875 0 0)
(0.0196033 0.00521411 0 0.0137204 0 0)
(0.0165728 0.00257375 0 0.0134696 0 0)
(0.021512 0.00230728 0 0.0175441 0 0)
(0.0217772 0.000806912 0 0.0149404 0 0)
(0.0226193 -0.000917038 0 0.0241575 0 0)
(0.0286311 -0.00290462 0 0.0178576 0 0)
(0.0284586 -0.0114489 0 0.0408441 0 0)
(0.0380837 -0.0044415 0 0.0344853 0 0)
(0.0356437 -0.0171395 0 0.0550674 0 0)
(0.0330552 -0.00133053 0 0.103833 0 0)
(0.0191289 0.000672082 0 0.0012635 0 0)
(0.013284 0.00224893 0 0.00268972 0 0)
(0.0215119 0.00241656 0 0.00308008 0 0)
(0.0135716 0.00407067 0 0.00602225 0 0)
(0.0211357 0.00244246 0 0.0064015 0 0)
(0.0125407 0.00326968 0 0.0100111 0 0)
(0.0184735 0.00248477 0 0.00699474 0 0)
(0.0113279 0.00336861 0 0.00985719 0 0)
(0.0193176 0.00277332 0 0.00794868 0 0)
(0.0119929 0.00306324 0 0.0123733 0 0)
(0.0228616 0.00263362 0 0.00990548 0 0)
(0.0147092 0.0017704 0 0.0130633 0 0)
(0.0268047 0.00260316 0 0.0107896 0 0)
(0.0256443 0.00648563 0 0.0164318 0 0)
(0.0250465 0.00188011 0 0.0101118 0 0)
(0.0250052 0.00572131 0 0.0172437 0 0)
(0.0369007 0.000316467 0 0.0144159 0 0)
(0.0429519 0.0106426 0 0.0147094 0 0)
(0.0464417 -0.0115708 0 0.0206733 0 0)
(0.0385765 0.00601153 0 0.0152213 0 0)
(0.0183346 0.00362598 0 0.00163911 0 0)
(0.0154188 0.00198089 0 0.00275331 0 0)
(0.0223856 0.00615553 0 0.0041018 0 0)
(0.015921 0.00439056 0 0.0062961 0 0)
(0.0211252 0.00873429 0 0.00852944 0 0)
(0.0169903 0.00765394 0 0.00810876 0 0)
(0.0256749 0.0117193 0 0.00958438 0 0)
(0.0208196 0.00491548 0 0.00942642 0 0)
(0.0276691 0.0104739 0 0.0116496 0 0)
(0.0254164 -0.000124054 0 0.0133117 0 0)
(0.029313 0.00739869 0 0.0130731 0 0)
(0.0298659 -0.000137114 0 0.0135868 0 0)
(0.0370881 0.00747898 0 0.0155933 0 0)
(0.0296204 0.00182266 0 0.0146692 0 0)
(0.0366673 0.00744871 0 0.0193394 0 0)
(0.0347481 -0.00310211 0 0.0187848 0 0)
(0.0398791 0.0059598 0 0.0293874 0 0)
(0.0262672 0.00210578 0 0.0369726 0 0)
(0.035178 -0.00950613 0 0.05553 0 0)
(0.0835884 -0.0680652 0 0.252136 0 0)
(0.0130127 -0.000472633 0 0.000729938 0 0)
(0.0178726 0.00203901 0 0.00153187 0 0)
(0.0162013 0.0010733 0 0.00219815 0 0)
(0.0210329 0.00678487 0 0.00620826 0 0)
(0.0319004 0.00756329 0 0.00484921 0 0)
(0.0636606 0.0130229 0 0.00760498 0 0)
(0.0831024 0.00895034 0 0.00630642 0 0)
(0.093616 0.0111066 0 0.00985309 0 0)
(0.11807 0.00400028 0 0.00767537 0 0)
(0.11265 0.00674641 0 0.0109685 0 0)
(0.111502 -0.00183317 0 0.00699713 0 0)
(0.119657 0.00427551 0 0.0123595 0 0)
(0.0928995 -0.00514378 0 0.00934604 0 0)
(0.0859027 0.0119887 0 0.0175403 0 0)
(0.124503 -0.0118674 0 0.00981373 0 0)
(0.066046 0.00457013 0 0.0289919 0 0)
(0.139231 -0.0243043 0 0.019203 0 0)
(0.0518404 -0.00417034 0 0.0365787 0 0)
(0.0642113 -0.00154371 0 0.00913132 0 0)
(0.170631 0.0120303 0 0.0145143 0 0)
(0.0192989 0.00182525 0 0.000817247 0 0)
(0.0202378 -0.000138854 0 0.00122726 0 0)
(0.0277749 0.00397967 0 0.00199752 0 0)
(0.0502816 0.00164063 0 0.00183924 0 0)
(0.0951022 0.00167383 0 0.00262638 0 0)
(0.114289 0.000182658 0 0.00359295 0 0)
(0.204165 0.00667989 0 0.00330555 0 0)
(0.20384 -0.00536033 0 0.00384237 0 0)
(0.298227 0.00762267 0 0.00460418 0 0)
(0.279721 -0.0129379 0 0.00520265 0 0)
(0.328333 0.00107993 0 0.00594178 0 0)
(0.306989 -0.016573 0 0.00619684 0 0)
(0.341765 0.00601802 0 0.00694227 0 0)
(0.326352 -0.0265106 0 0.00755049 0 0)
(0.416427 0.0230484 0 0.0114245 0 0)
(0.380125 -0.0422882 0 0.0105826 0 0)
(0.503644 0.0575248 0 0.0196375 0 0)
(0.377996 -0.0553134 0 0.0189212 0 0)
(0.59605 -0.032895 0 0.0139898 0 0)
(0.227185 -0.162887 0 0.24491 0 0)
(0.286779 0.00249017 0 0.0208486 0 0)
(0.166983 0.00306284 0 0.0275192 0 0)
(0.326832 -0.00273579 0 0.0223763 0 0)
(0.163732 -0.00306101 0 0.0203327 0 0)
(0.438013 -0.0151918 0 0.0208967 0 0)
(0.231884 -0.00606713 0 0.0288332 0 0)
(0.60173 -0.0188749 0 0.0289727 0 0)
(0.327104 -0.0098639 0 0.0300382 0 0)
(0.0747152 0.00223872 0 0.0197191 0 0)
(0.0878403 -0.0019366 0 0.0245908 0 0)
(0.101809 0.000114872 0 0.0205127 0 0)
(0.130014 -0.0131036 0 0.0266269 0 0)
(0.14514 -0.0120704 0 0.0267718 0 0)
(0.20497 -0.0246338 0 0.0347231 0 0)
(0.240211 -0.0138575 0 0.0297126 0 0)
(0.3115 -0.0267111 0 0.041491 0 0)
(0.0606579 0.00087948 0 0.0138413 0 0)
(0.103442 -0.00544778 0 0.0205652 0 0)
(0.0852206 -0.00850576 0 0.0176706 0 0)
(0.12284 -0.0160735 0 0.0210345 0 0)
(0.115003 -0.0152083 0 0.0223217 0 0)
(0.195711 -0.0279054 0 0.0251032 0 0)
(0.180804 -0.0315125 0 0.0297831 0 0)
(0.333263 -0.050079 0 0.029408 0 0)
(0.044852 0.00127295 0 0.0120783 0 0)
(0.0478681 -0.00329222 0 0.0257655 0 0)
(0.0687827 -0.00651812 0 0.0148824 0 0)
(0.0814065 -0.0162421 0 0.0271132 0 0)
(0.120287 -0.0222128 0 0.0240417 0 0)
(0.16116 -0.0320393 0 0.0297924 0 0)
(0.229728 -0.0458733 0 0.0286926 0 0)
(0.274061 -0.0615512 0 0.036617 0 0)
(0.0343874 -0.000775843 0 0.00718284 0 0)
(0.029415 -0.00677491 0 0.0278561 0 0)
(0.0516032 -0.00904051 0 0.0139649 0 0)
(0.0675191 -0.0323335 0 0.0340926 0 0)
(0.080269 -0.0297602 0 0.0261544 0 0)
(0.160723 -0.0592951 0 0.0374513 0 0)
(0.174912 -0.0681342 0 0.041735 0 0)
(0.265902 -0.0866609 0 0.0465886 0 0)
(0.048429 -0.00557748 0 0.0108892 0 0)
(0.0341328 -0.00109131 0 0.0371432 0 0)
(0.079488 -0.0223492 0 0.0163746 0 0)
(0.0554058 -0.030018 0 0.0449486 0 0)
(0.107663 -0.0470325 0 0.0329112 0 0)
(0.153589 -0.0766818 0 0.0534429 0 0)
(0.1559 -0.0702143 0 0.0444997 0 0)
(0.339403 -0.132473 0 0.0652067 0 0)
(0.032995 -0.00300298 0 0.0104994 0 0)
(0.0273521 -0.00806105 0 0.0458828 0 0)
(0.062293 -0.0238291 0 0.0199427 0 0)
(0.0432275 -0.0327901 0 0.0574572 0 0)
(0.122316 -0.0684526 0 0.0516078 0 0)
(0.0951294 -0.0620209 0 0.0585869 0 0)
(0.235196 -0.123616 0 0.0790513 0 0)
(0.327012 -0.155304 0 0.0905608 0 0)
(0.0354293 -0.000232882 0 0.0103832 0 0)
(0.0257762 -0.00609145 0 0.063377 0 0)
(0.0626482 -0.0231296 0 0.0187836 0 0)
(0.0416057 -0.0411966 0 0.0793023 0 0)
(0.0874441 -0.0512355 0 0.0446416 0 0)
(0.159247 -0.110634 0 0.0990825 0 0)
(0.312103 -0.174387 0 0.112364 0 0)
(0.391587 -0.206832 0 0.126992 0 0)
(0.0311754 0.00188356 0 0.0125205 0 0)
(0.0309622 -0.0157491 0 0.0790595 0 0)
(0.0880947 -0.0352427 0 0.0283391 0 0)
(0.0341149 -0.0185746 0 0.081633 0 0)
(0.166956 -0.101086 0 0.0785771 0 0)
(0.222651 -0.172616 0 0.1567 0 0)
(0.342529 -0.214435 0 0.152381 0 0)
(0.439612 -0.256473 0 0.171644 0 0)
(0.0283554 0.00532085 0 0.013689 0 0)
(0.0252837 -0.0270849 0 0.107181 0 0)
(0.0416962 -0.00243284 0 0.0155594 0 0)
(0.0663084 -0.0667843 0 0.165572 0 0)
(0.270488 -0.182214 0 0.141667 0 0)
(0.208232 -0.188212 0 0.199972 0 0)
(0.370503 -0.241254 0 0.179842 0 0)
(0.451924 -0.287184 0 0.209147 0 0)
(0.0278992 0.00142746 0 0.0227015 0 0)
(0.0233147 -0.00367795 0 0.0914213 0 0)
(0.0772325 -0.0137212 0 0.0303832 0 0)
(0.125573 -0.155296 0 0.264123 0 0)
(0.290959 -0.194414 0 0.158567 0 0)
(0.188 -0.192126 0 0.229505 0 0)
(0.424248 -0.285498 0 0.223627 0 0)
(0.442006 -0.301374 0 0.240691 0 0)
(0.0621941 0.0112781 0 0.0143937 0 0)
(0.0411062 -0.0182648 0 0.114251 0 0)
(0.0836873 -0.0618615 0 0.0908464 0 0)
(0.137117 -0.194183 0 0.342861 0 0)
(0.261823 -0.189439 0 0.17049 0 0)
(0.199018 -0.23059 0 0.311773 0 0)
(0.459189 -0.317423 0 0.258388 0 0)
(0.321048 -0.252601 0 0.241582 0 0)
(0.192642 0.0365565 0 0.0183497 0 0)
(0.0419905 -0.0478501 0 0.182883 0 0)
(0.0897984 -0.0936967 0 0.166649 0 0)
(0.145864 -0.212641 0 0.386802 0 0)
(0.252585 -0.19338 0 0.195156 0 0)
(0.220022 -0.262401 0 0.374919 0 0)
(0.399983 -0.27259 0 0.238186 0 0)
(0.232865 -0.201495 0 0.236266 0 0)
(0.0956066 0.0233534 0 0.0232315 0 0)
(0.0666658 -0.0900347 0 0.249715 0 0)
(0.112312 -0.136146 0 0.234685 0 0)
(0.134912 -0.207857 0 0.404687 0 0)
(0.223139 -0.18771 0 0.21301 0 0)
(0.185967 -0.26026 0 0.430954 0 0)
(0.341694 -0.230285 0 0.2186 0 0)
(0.204547 -0.209878 0 0.289735 0 0)
(0.0979121 0.0591561 0 0.0718575 0 0)
(0.102414 -0.151365 0 0.361425 0 0)
(0.105775 -0.141787 0 0.308111 0 0)
(0.113426 -0.187322 0 0.404438 0 0)
(0.203158 -0.183364 0 0.247193 0 0)
(0.175805 -0.2567 0 0.45977 0 0)
(0.279101 -0.18042 0 0.196764 0 0)
(0.208208 -0.227145 0 0.359329 0 0)
(0.0477589 0.0315308 0 0.0793535 0 0)
(0.116282 -0.170677 0 0.382771 0 0)
(0.106422 -0.138374 0 0.327686 0 0)
(0.107977 -0.176276 0 0.397327 0 0)
(0.194048 -0.181147 0 0.275286 0 0)
(0.130784 -0.215089 0 0.45608 0 0)
(0.230579 -0.145221 0 0.187578 0 0)
(0.286187 -0.324204 0 0.512076 0 0)
(0.0448256 0.0375387 0 0.282609 0 0)
(0.115593 -0.194118 0 0.489625 0 0)
(0.0829265 -0.124478 0 0.39706 0 0)
(0.102107 -0.158573 0 0.404942 0 0)
(0.153521 -0.158114 0 0.309033 0 0)
(0.117808 -0.181751 0 0.454423 0 0)
(0.260421 -0.175739 0 0.247665 0 0)
(0.315938 -0.372232 0 0.641409 0 0)
(0.0470589 -0.0316102 0 0.317485 0 0)
(0.104127 -0.156608 0 0.41954 0 0)
(0.0669131 -0.0995201 0 0.378948 0 0)
(0.102331 -0.147931 0 0.388126 0 0)
(0.128316 -0.143649 0 0.334724 0 0)
(0.126327 -0.171528 0 0.453141 0 0)
(0.238406 -0.180585 0 0.298709 0 0)
(0.316241 -0.39811 0 0.761999 0 0)
(0.0745113 -0.0454073 0 0.785008 0 0)
(0.0801582 -0.144503 0 0.552863 0 0)
(0.0631216 -0.0729073 0 0.47312 0 0)
(0.107146 -0.140288 0 0.418546 0 0)
(0.112836 -0.1136 0 0.377497 0 0)
(0.137419 -0.153521 0 0.456182 0 0)
(0.263065 -0.204514 0 0.396234 0 0)
(0.2822 -0.372095 0 0.827649 0 0)
(0.108215 -0.0698055 0 0.712959 0 0)
(0.100928 -0.122305 0 0.410325 0 0)
(0.0811954 -0.0547322 0 0.414088 0 0)
(0.120283 -0.150946 0 0.384138 0 0)
(0.134496 -0.108191 0 0.386781 0 0)
(0.17623 -0.191349 0 0.456066 0 0)
(0.242137 -0.194765 0 0.448026 0 0)
(0.282174 -0.306287 0 0.728812 0 0)
(0.841615 -0.0239406 0 0.0256289 0 0)
(0.463884 -0.01785 0 0.0279093 0 0)
(1.1303 -0.040319 0 0.0212422 0 0)
(0.646022 -0.0306805 0 0.0198842 0 0)
(1.40663 -0.0570552 0 0.0122428 0 0)
(0.887887 -0.0356576 0 0.0117563 0 0)
(1.78296 -0.0565411 0 0.0104762 0 0)
(1.18481 -0.037283 0 0.0102593 0 0)
(2.12231 -0.0554133 0 0.00725286 0 0)
(1.48614 -0.0274025 0 0.00842643 0 0)
(2.33543 -0.0462178 0 0.00558857 0 0)
(1.70314 -0.0176269 0 0.00644755 0 0)
(2.37145 -0.0294438 0 0.00473357 0 0)
(1.75985 -0.00820664 0 0.00615658 0 0)
(2.17697 -0.0109438 0 0.00439187 0 0)
(1.64365 -0.000959544 0 0.00648046 0 0)
(1.80524 0.00345947 0 0.00471167 0 0)
(1.39339 0.00231547 0 0.00705408 0 0)
(1.32474 0.011043 0 0.00651229 0 0)
(1.08054 0.00141496 0 0.00792472 0 0)
(0.870925 0.0097322 0 0.0092542 0 0)
(0.780997 -0.0035347 0 0.00943027 0 0)
(0.553904 0.00562663 0 0.0134385 0 0)
(0.562591 -0.0095713 0 0.0124666 0 0)
(0.386687 -0.0024502 0 0.0194234 0 0)
(0.432953 -0.014746 0 0.0175016 0 0)
(0.361077 -0.0373914 0 0.0334891 0 0)
(0.375136 -0.0123758 0 0.0198916 0 0)
(0.37619 -0.0131119 0 0.0344037 0 0)
(0.475639 -0.0350878 0 0.0432058 0 0)
(0.586553 -0.0234047 0 0.038572 0 0)
(0.708556 -0.0452144 0 0.0399606 0 0)
(0.881099 -0.0351502 0 0.0302665 0 0)
(1.01235 -0.0523444 0 0.0317502 0 0)
(1.24558 -0.0438352 0 0.0238372 0 0)
(1.35204 -0.0515955 0 0.0222463 0 0)
(1.63347 -0.0434375 0 0.0187235 0 0)
(1.6565 -0.0313394 0 0.017534 0 0)
(1.9647 -0.0246912 0 0.0153992 0 0)
(1.84425 0.00136932 0 0.015633 0 0)
(2.12723 0.0113189 0 0.0147052 0 0)
(1.84506 0.0435101 0 0.014637 0 0)
(2.05876 0.0490441 0 0.0147601 0 0)
(1.65395 0.076988 0 0.0163471 0 0)
(1.76435 0.076857 0 0.0169921 0 0)
(1.32583 0.0943871 0 0.0200289 0 0)
(1.32979 0.0867499 0 0.0189275 0 0)
(0.951311 0.0887495 0 0.0225936 0 0)
(0.881691 0.0753932 0 0.0192711 0 0)
(0.624033 0.0663334 0 0.0230757 0 0)
(0.528276 0.0533705 0 0.0194694 0 0)
(0.396648 0.0417683 0 0.0252836 0 0)
(0.323317 0.031364 0 0.0216733 0 0)
(0.265019 0.0213026 0 0.0272528 0 0)
(0.257392 0.001914 0 0.0322524 0 0)
(0.229175 -0.00510001 0 0.0459123 0 0)
(0.296701 -0.0539942 0 0.0316876 0 0)
(0.530702 -0.0816316 0 0.0354793 0 0)
(0.49252 -0.0849432 0 0.0372287 0 0)
(0.795947 -0.108407 0 0.0439274 0 0)
(0.744824 -0.102252 0 0.0370485 0 0)
(1.13989 -0.127776 0 0.0408827 0 0)
(1.05978 -0.123607 0 0.0383676 0 0)
(1.51751 -0.129361 0 0.0419582 0 0)
(1.41191 -0.122782 0 0.0337168 0 0)
(1.85838 -0.0993386 0 0.0356345 0 0)
(1.72803 -0.0900009 0 0.027295 0 0)
(2.05889 -0.0415359 0 0.0303221 0 0)
(1.89723 -0.0298182 0 0.0219338 0 0)
(2.03834 0.0294647 0 0.0284194 0 0)
(1.87164 0.0389834 0 0.0206183 0 0)
(1.80084 0.0886957 0 0.0294526 0 0)
(1.64896 0.092325 0 0.0234318 0 0)
(1.40602 0.119326 0 0.0323932 0 0)
(1.29034 0.117601 0 0.0269398 0 0)
(0.972458 0.112768 0 0.0344884 0 0)
(0.887532 0.112442 0 0.0298112 0 0)
(0.610839 0.0804552 0 0.0314889 0 0)
(0.544186 0.0861458 0 0.0310225 0 0)
(0.373908 0.0438263 0 0.0277504 0 0)
(0.313113 0.0533183 0 0.0343757 0 0)
(0.258709 0.0160592 0 0.0316116 0 0)
(0.212293 0.0195659 0 0.0522265 0 0)
(0.254579 -0.0261469 0 0.0692336 0 0)
(0.381888 -0.0708605 0 0.0374254 0 0)
(0.471225 -0.0916129 0 0.0393833 0 0)
(0.588107 -0.1009 0 0.0369968 0 0)
(0.767355 -0.126247 0 0.0427599 0 0)
(0.868667 -0.126124 0 0.04049 0 0)
(1.15097 -0.15918 0 0.0498693 0 0)
(1.20815 -0.142302 0 0.0464458 0 0)
(1.58733 -0.160471 0 0.0496561 0 0)
(1.55265 -0.131393 0 0.0467778 0 0)
(1.98788 -0.120835 0 0.0469 0 0)
(1.82516 -0.0754894 0 0.0422077 0 0)
(2.2398 -0.0357884 0 0.0431886 0 0)
(1.94066 0.0131773 0 0.0414132 0 0)
(2.25161 0.0693447 0 0.0453826 0 0)
(1.84881 0.104969 0 0.0467971 0 0)
(2.02022 0.158501 0 0.0538266 0 0)
(1.57207 0.169696 0 0.0564109 0 0)
(1.60192 0.207686 0 0.0651544 0 0)
(1.1905 0.189568 0 0.0658709 0 0)
(1.11509 0.201397 0 0.0724144 0 0)
(0.800913 0.164861 0 0.0693618 0 0)
(0.69027 0.151144 0 0.0707038 0 0)
(0.492138 0.117489 0 0.0649473 0 0)
(0.405561 0.0874209 0 0.0605189 0 0)
(0.297471 0.0680534 0 0.0602464 0 0)
(0.263075 0.0366075 0 0.0545733 0 0)
(0.215035 0.0243585 0 0.0756739 0 0)
(0.230453 -0.0147258 0 0.0852967 0 0)
(0.375914 -0.117405 0 0.0540049 0 0)
(0.446088 -0.120708 0 0.0550224 0 0)
(0.664506 -0.170551 0 0.0654524 0 0)
(0.7294 -0.166911 0 0.0714858 0 0)
(1.02376 -0.213757 0 0.0771616 0 0)
(1.12075 -0.211735 0 0.0832885 0 0)
(1.4309 -0.238587 0 0.0827845 0 0)
(1.56412 -0.224394 0 0.0873961 0 0)
(1.82769 -0.218341 0 0.0807377 0 0)
(1.95587 -0.175964 0 0.0798405 0 0)
(2.09105 -0.134638 0 0.0694063 0 0)
(2.18863 -0.0678934 0 0.0708548 0 0)
(2.14293 -0.0114899 0 0.0633469 0 0)
(2.18675 0.0654579 0 0.0704546 0 0)
(1.98147 0.111402 0 0.067162 0 0)
(1.96529 0.177962 0 0.0802022 0 0)
(1.63917 0.19866 0 0.0800457 0 0)
(1.58743 0.239659 0 0.0932834 0 0)
(1.20435 0.225949 0 0.0942272 0 0)
(1.13029 0.238129 0 0.102149 0 0)
(0.791913 0.196406 0 0.0995718 0 0)
(0.708332 0.18254 0 0.0973624 0 0)
(0.484425 0.134001 0 0.0945444 0 0)
(0.414983 0.11073 0 0.0828776 0 0)
(0.313938 0.0673851 0 0.086308 0 0)
(0.256593 0.0520527 0 0.0763563 0 0)
(0.256947 0.01045 0 0.0983535 0 0)
(0.21483 0.00469427 0 0.110042 0 0)
(0.33516 -0.124343 0 0.0623031 0 0)
(0.595392 -0.184952 0 0.0776844 0 0)
(0.673924 -0.198961 0 0.0825342 0 0)
(0.91443 -0.232386 0 0.091957 0 0)
(1.08524 -0.254141 0 0.098021 0 0)
(1.2895 -0.271401 0 0.107297 0 0)
(1.4869 -0.269501 0 0.109278 0 0)
(1.69006 -0.270167 0 0.113117 0 0)
(1.83707 -0.225259 0 0.105714 0 0)
(2.01869 -0.19231 0 0.104816 0 0)
(2.057 -0.112764 0 0.0945763 0 0)
(2.17164 -0.0478586 0 0.0971684 0 0)
(2.05773 0.0376637 0 0.0932936 0 0)
(2.09389 0.116307 0 0.102317 0 0)
(1.87529 0.170949 0 0.108231 0 0)
(1.81177 0.248079 0 0.123145 0 0)
(1.56256 0.262099 0 0.131237 0 0)
(1.41412 0.311935 0 0.149336 0 0)
(1.16416 0.289445 0 0.152122 0 0)
(0.984221 0.295314 0 0.164358 0 0)
(0.778224 0.253393 0 0.16045 0 0)
(0.616334 0.219454 0 0.157423 0 0)
(0.482483 0.174348 0 0.148506 0 0)
(0.373343 0.128849 0 0.134259 0 0)
(0.318438 0.0893716 0 0.126495 0 0)
(0.256311 0.0546376 0 0.11675 0 0)
(0.274383 0.0241176 0 0.124222 0 0)
(0.234384 0.00474163 0 0.139841 0 0)
(0.446998 -0.193455 0 0.101921 0 0)
(0.673643 -0.248645 0 0.118782 0 0)
(0.746279 -0.26564 0 0.127233 0 0)
(1.00891 -0.296224 0 0.138684 0 0)
(1.08198 -0.314349 0 0.150561 0 0)
(1.31278 -0.312151 0 0.156803 0 0)
(1.43212 -0.327122 0 0.16517 0 0)
(1.6362 -0.292101 0 0.162853 0 0)
(1.71944 -0.263624 0 0.157055 0 0)
(1.898 -0.196813 0 0.151226 0 0)
(1.85981 -0.123829 0 0.137431 0 0)
(1.97438 -0.0358766 0 0.139508 0 0)
(1.80201 0.0430959 0 0.131935 0 0)
(1.8534 0.126864 0 0.146097 0 0)
(1.59669 0.186505 0 0.147747 0 0)
(1.57444 0.256731 0 0.163707 0 0)
(1.31743 0.278982 0 0.172767 0 0)
(1.19468 0.320515 0 0.190497 0 0)
(0.985033 0.306104 0 0.197422 0 0)
(0.809492 0.298046 0 0.207811 0 0)
(0.653694 0.263033 0 0.20791 0 0)
(0.507166 0.218686 0 0.202117 0 0)
(0.401987 0.171569 0 0.191372 0 0)
(0.319868 0.125061 0 0.175685 0 0)
(0.275438 0.0790162 0 0.161576 0 0)
(0.243939 0.0450717 0 0.155322 0 0)
(0.252024 0.0155478 0 0.150358 0 0)
(0.254966 -0.0134919 0 0.177503 0 0)
(0.58405 -0.26235 0 0.141153 0 0)
(0.686895 -0.286047 0 0.150949 0 0)
(0.806826 -0.294638 0 0.151206 0 0)
(0.948324 -0.311719 0 0.164275 0 0)
(1.03457 -0.309375 0 0.171483 0 0)
(1.21957 -0.322353 0 0.188973 0 0)
(1.33593 -0.313516 0 0.193568 0 0)
(1.49469 -0.277606 0 0.192595 0 0)