/*--------------------------------*- C++ -*----------------------------------*\
| =========                 |                                                 |
| \\      /  F ield         | OpenFOAM: The Open Source CFD Toolbox           |
|  \\    /   O peration     | Version:  2.4.0                                 |
|   \\  /    A nd           | Web:      www.OpenFOAM.org                      |
|    \\/     M anipulation  |                                                 |
\*---------------------------------------------------------------------------*/
FoamFile
{
    version     2.0;
    format      ascii;
    class       volScalarField;
    location    "1.3";
    object      k;
}
// * * * * * * * * * * * * * * * * * * * * * * * * * * * * * * * * * * * * * //

dimensions      [0 2 -2 0 0 0 0];

internalField   nonuniform List<scalar> 
6000
(
0.168256
0.0132012
0.00101447
0.00360526
0.00252866
0.00302529
0.00273312
0.00285717
0.00213951
0.000965884
0.000405098
0.00107927
0.0012036
0.00169514
0.00581531
0.0125352
0.0202842
0.0267504
0.0298683
0.0287153
0.0239483
0.0173289
0.0106755
0.00527912
0.00190899
0.000681454
0.00115678
0.00198348
0.00265917
0.00322601
0.00375855
0.00431982
0.00495314
0.00568184
0.00650965
0.00742153
0.00838712
0.00936869
0.0103324
0.011259
0.0121483
0.0130182
0.0138977
0.0148212
0.0158218
0.0169338
0.0181851
0.0196175
0.0212492
0.0231689
0.0253386
0.0280384
0.0309218
0.0350642
0.038654
0.0460923
0.0492641
0.0658802
0.0639653
0.104579
0.076216
0.0101168
0.000970248
0.00239712
0.00173017
0.00198683
0.00180107
0.00183288
0.00136738
0.000645734
0.000383498
0.000791705
0.000904267
0.00151986
0.00388273
0.00708094
0.0102452
0.0124852
0.013212
0.0123123
0.0101991
0.00749122
0.00477038
0.00248324
0.00101025
0.000530263
0.000875977
0.00130462
0.00165115
0.00194529
0.00222429
0.00251652
0.00283955
0.00320104
0.00359981
0.0040273
0.00446998
0.00491316
0.00534537
0.00576181
0.00616545
0.00656584
0.00697641
0.00741222
0.00788782
0.00841822
0.00901628
0.00970081
0.0104821
0.0113983
0.0124405
0.0137227
0.0151213
0.0170613
0.0188617
0.0222413
0.024098
0.031323
0.0315934
0.0484023
0.0412255
0.00801251
0.000992713
0.00168509
0.00123629
0.00135917
0.00123333
0.00122192
0.000909682
0.000462
0.000359129
0.000620119
0.000754754
0.00134977
0.00276712
0.00436914
0.00567867
0.00636044
0.00631416
0.00565097
0.00462435
0.00343932
0.00227039
0.00126931
0.000621388
0.000457924
0.000677406
0.000905544
0.00109166
0.00125288
0.00140733
0.00156775
0.0017413
0.00193035
0.00213339
0.0023461
0.00256267
0.00277749
0.00298684
0.00318998
0.00338935
0.00358998
0.00379835
0.00402155
0.0042665
0.0045404
0.00484981
0.00520389
0.00560887
0.00608244
0.00662452
0.00728432
0.00801897
0.00900362
0.00997895
0.0116414
0.0127732
0.0161575
0.0168973
0.0242647
0.0260631
0.00676525
0.00108621
0.00126747
0.000927962
0.000970333
0.000878125
0.000848113
0.000635162
0.000359103
0.000338617
0.000520415
0.000679246
0.00119293
0.00206317
0.00287326
0.00337357
0.00347271
0.00323022
0.00278859
0.00226934
0.00172543
0.00120166
0.000750122
0.00046194
0.000418503
0.000545063
0.000667829
0.000770817
0.000862485
0.00095116
0.00104241
0.00113909
0.00124185
0.00134974
0.0014608
0.0015727
0.0016834
0.00179178
0.00189805
0.00200373
0.00211146
0.0022245
0.00234643
0.00248081
0.00263141
0.00280183
0.00299691
0.00322056
0.00348153
0.00378209
0.00414455
0.00455574
0.00509015
0.00565092
0.00652645
0.00723743
0.00892857
0.0096385
0.0130152
0.0187958
0.0060878
0.00124541
0.00103612
0.000738526
0.000726771
0.000652629
0.000616529
0.000471271
0.00030492
0.000324988
0.000465114
0.000637281
0.00105277
0.00158927
0.00198518
0.00212893
0.00203739
0.00180483
0.00154164
0.00127685
0.00101427
0.000763558
0.000546168
0.000408891
0.000398426
0.000463294
0.000527524
0.000584388
0.00063702
0.000688703
0.000741581
0.000796648
0.000854011
0.000913189
0.000973385
0.00103374
0.00109359
0.00115266
0.00121123
0.00127018
0.00133091
0.00139514
0.00146481
0.00154188
0.00162846
0.00172671
0.0018393
0.00196879
0.00211979
0.00229474
0.00250428
0.00274585
0.00305206
0.00338907
0.00387764
0.00433391
0.00522897
0.00578958
0.00739615
0.0150478
0.00576452
0.00146032
0.000931342
0.00062968
0.000575687
0.000509779
0.000473758
0.0003763
0.00028057
0.000318912
0.000436811
0.00060921
0.0009318
0.00126064
0.00144095
0.00144362
0.00132571
0.00116819
0.00103357
0.000898945
0.000757744
0.000616339
0.000490442
0.000407713
0.000394515
0.000419005
0.000448243
0.000477464
0.00050664
0.000536348
0.000566988
0.000598664
0.000631239
0.000664439
0.000697948
0.000731476
0.000764828
0.000797979
0.000831151
0.000864847
0.000899845
0.000937123
0.000977789
0.00102301
0.00107405
0.00113223
0.00119915
0.00127647
0.00136679
0.00147212
0.00159785
0.0017448
0.00192774
0.00213679
0.00242281
0.0027198
0.00321874
0.00362977
0.00441991
0.0130149
0.00565565
0.0017193
0.000918685
0.000579356
0.000486512
0.000421918
0.000388603
0.000325482
0.000274918
0.000319886
0.000424649
0.000587319
0.000832507
0.00103491
0.00111267
0.00108175
0.00100451
0.000933981
0.000883517
0.000812772
0.000716623
0.000608103
0.000506405
0.000433662
0.000405086
0.000401782
0.000408098
0.000419274
0.000433351
0.000449337
0.00046663
0.000484796
0.000503489
0.000522432
0.000541415
0.000560298
0.000579015
0.000597602
0.000616234
0.000635244
0.000655121
0.000676473
0.000699991
0.000726406
0.000756506
0.000791134
0.000831285
0.00087806
0.000932999
0.000997608
0.00107479
0.00116617
0.00127873
0.00141116
0.00158502
0.00178011
0.0020713
0.00236152
0.00276375
0.0118766
0.00567273
0.00200989
0.000976728
0.000575183
0.000441316
0.000372369
0.000342259
0.000303766
0.000281499
0.000327097
0.000422409
0.000570164
0.000756967
0.000888125
0.000930153
0.000919172
0.00090544
0.000911397
0.000911791
0.000867353
0.00077821
0.00066608
0.000556892
0.000474961
0.00042758
0.000403431
0.000393117
0.00039139
0.000395017
0.000401976
0.00041098
0.000421177
0.000431983
0.000442984
0.000453895
0.000464532
0.000474819
0.000484793
0.000494616
0.000504568
0.000515028
0.000526434
0.00053926
0.00055399
0.000571135
0.000591243
0.000614948
0.000642985
0.000676309
0.000716005
0.000763744
0.000821062
0.000891459
0.000976305
0.00108483
0.00121363
0.00139022
0.0015908
0.00180362
0.011229
0.00575972
0.0023192
0.00109148
0.000609343
0.000429698
0.000350938
0.000323136
0.000301925
0.000296738
0.000339924
0.000427116
0.000559091
0.000706343
0.000804542
0.000850507
0.000884357
0.000935951
0.000999292
0.00102631
0.000986029
0.000885102
0.000753012
0.000623456
0.000525032
0.000458802
0.000417554
0.000393936
0.000382114
0.000377919
0.000378552
0.000382175
0.000387556
0.000393844
0.000400426
0.000406857
0.000412834
0.000418203
0.000422973
0.000427304
0.000431483
0.000435866
0.000440831
0.000446744
0.000453951
0.000462791
0.000473625
0.00048686
0.000502989
0.00052262
0.000546522
0.000575711
0.000611426
0.000655541
0.000709949
0.000778678
0.000863767
0.000973995
0.00111082
0.00122847
0.0108609
0.00588132
0.00263455
0.00125181
0.000676964
0.000445984
0.000351436
0.000324032
0.000314385
0.000318883
0.000358171
0.000437901
0.000556286
0.000680801
0.000772611
0.000845576
0.000933243
0.00104169
0.00114203
0.00117791
0.00112881
0.00100767
0.000849863
0.000696954
0.000579942
0.00049566
0.000439334
0.000404173
0.000383785
0.000373237
0.000369075
0.000368963
0.000371305
0.000374969
0.000379122
0.000383137
0.000386566
0.00038915
0.00039084
0.000391789
0.0003923
0.000392749
0.000393507
0.000394897
0.00039719
0.000400622
0.000405427
0.000411867
0.000420267
0.000431022
0.000444672
0.000461858
0.000483525
0.00051074
0.000545238
0.000588812
0.000644755
0.000714813
0.000807302
0.000875555
0.010656
0.0060158
0.00294438
0.00144745
0.000774698
0.000487181
0.000370287
0.000340543
0.000337955
0.000347337
0.00038211
0.000455129
0.000563865
0.000679772
0.00078353
0.000896153
0.00103747
0.00118979
0.0013093
0.00134168
0.00127637
0.00113187
0.00094764
0.000773107
0.00063719
0.000535688
0.000465381
0.000419593
0.000391435
0.000375315
0.000367185
0.000364235
0.000364503
0.000366578
0.000369403
0.000372178
0.000374314
0.000375445
0.000375447
0.000374442
0.000372737
0.000370732
0.000368817
0.000367308
0.000366441
0.000366388
0.000367303
0.000369347
0.000372729
0.000377704
0.000384648
0.000393974
0.00040639
0.000422528
0.000443818
0.000471051
0.000507405
0.000552213
0.000614265
0.000655939
0.010548
0.00615034
0.00323905
0.00166813
0.000900006
0.000551279
0.000405728
0.000370117
0.000371025
0.000382236
0.000412415
0.000479805
0.000583572
0.000702342
0.000830606
0.000988855
0.00117844
0.00136099
0.00148604
0.00150646
0.0014205
0.00125177
0.00104253
0.000849919
0.000695186
0.000577194
0.000493528
0.000437568
0.000402011
0.00038069
0.000368997
0.000363659
0.000362348
0.000363364
0.000365435
0.000367598
0.000369148
0.000369626
0.000368836
0.000366846
0.000363947
0.000360549
0.000357061
0.00035381
0.00035102
0.000348829
0.000347336
0.000346632
0.000346846
0.000348135
0.000350758
0.000354982
0.000361334
0.000370191
0.000382699
0.000399168
0.000422328
0.000450831
0.000492183
0.000519022
0.0104978
0.00627794
0.00351141
0.00190352
0.0010499
0.000636764
0.000457368
0.000411468
0.000413035
0.000424173
0.00045004
0.000513196
0.000616768
0.000747554
0.000908783
0.00111415
0.0013441
0.00154495
0.00166566
0.00166787
0.00155808
0.001365
0.00113392
0.000925478
0.000752899
0.00061914
0.000522541
0.000456631
0.000413812
0.000387415
0.000372315
0.000364784
0.000362122
0.000362333
0.000363919
0.000365764
0.000367071
0.000367319
0.000366256
0.000363897
0.000360495
0.000356449
0.000352176
0.000348017
0.000344194
0.000340826
0.000337979
0.000335696
0.000334048
0.000333121
0.000333092
0.000334125
0.000336617
0.000340781
0.000347544
0.000356949
0.000371301
0.000389149
0.000416594
0.000434914
0.0104821
0.00639531
0.00375699
0.00214364
0.00122044
0.000742759
0.000524923
0.000464192
0.000464106
0.000474001
0.000496085
0.000556602
0.000664502
0.000814537
0.00101415
0.00126513
0.00152705
0.00173677
0.00184562
0.00182432
0.00168796
0.00147047
0.00122163
0.000998672
0.000809583
0.000660904
0.000551792
0.00047608
0.000426021
0.000394541
0.000376044
0.000366368
0.00036244
0.000361954
0.000363169
0.000364808
0.000365992
0.000366173
0.000365077
0.000362683
0.000359198
0.000354991
0.000350472
0.000345986
0.000341756
0.000337893
0.000334439
0.000331407
0.000328825
0.000326729
0.000325238
0.00032444
0.000324642
0.000325942
0.000329107
0.000334013
0.000342648
0.000353595
0.000371913
0.000385313
0.0104865
0.00650137
0.00397377
0.00237938
0.00140655
0.000868081
0.000608244
0.000528546
0.000524793
0.000532699
0.000551578
0.000611191
0.000727542
0.000902466
0.00114353
0.00143679
0.00172305
0.00193429
0.00202491
0.00197511
0.00180948
0.0015674
0.00130557
0.00106858
0.000864557
0.000702031
0.000580961
0.000495644
0.000438348
0.000401713
0.000379747
0.000367887
0.000362697
0.000361552
0.000362445
0.000363911
0.000364984
0.000365109
0.000364031
0.000361724
0.000358362
0.000354273
0.000349844
0.000345408
0.000341189
0.000337291
0.000333744
0.000330535
0.000327666
0.000325139
0.000323028
0.000321373
0.000320411
0.000320163
0.000321283
0.000323525
0.000328675
0.000335335
0.000347946
0.000358634
0.0105022
0.0065963
0.00416179
0.00260313
0.0016022
0.00101079
0.000707293
0.0006049
0.000595445
0.000601273
0.000617323
0.000677882
0.000806337
0.00101042
0.00129412
0.00162549
0.00192971
0.00213651
0.00220284
0.00211953
0.00192196
0.00165621
0.0013844
0.0011342
0.000917083
0.000742068
0.000609821
0.000515229
0.000450753
0.000408891
0.000383343
0.000369204
0.000362701
0.000360895
0.00036149
0.000362801
0.000363747
0.000363767
0.000362657
0.000360426
0.00035724
0.00035339
0.000349225
0.000345059
0.000341105
0.000337462
0.000334147
0.000331136
0.00032841
0.000325949
0.000323798
0.000321965
0.00032064
0.000319787
0.00031999
0.000320906
0.000324212
0.000328469
0.000337872
0.000347317
0.0105236
0.00668091
0.00432262
0.00280911
0.00180077
0.00116795
0.000821731
0.000693572
0.000676476
0.000680672
0.000694169
0.000757235
0.000900922
0.00113722
0.00146334
0.00182853
0.0021455
0.00234251
0.00237833
0.00225654
0.00202446
0.00173785
0.00145621
0.00119451
0.000966341
0.000780477
0.000638101
0.00053476
0.000463274
0.000416156
0.000386911
0.000370363
0.000362454
0.000359949
0.00036026
0.000361445
0.000362265
0.000362135
0.000360912
0.000358682
0.000355633
0.000352034
0.000348195
0.0003444
0.000340844
0.000337613
0.000334719
0.000332127
0.000329806
0.000327725
0.000325912
0.000324353
0.000323214
0.000322418
0.000322512
0.000323073
0.000325748
0.00032899
0.00033705
0.000346302
0.0105472
0.00675624
0.00445882
0.00299356
0.00199561
0.00133553
0.000950544
0.000794712
0.000768262
0.000771726
0.000782733
0.00084939
0.00101083
0.00128134
0.00164865
0.00204363
0.00236894
0.00255093
0.00254971
0.00238469
0.00211583
0.00181267
0.00151977
0.00124846
0.00101147
0.000816632
0.000665433
0.000554089
0.000475918
0.000423602
0.000390577
0.000371483
0.000362041
0.000358764
0.000358783
0.000359879
0.000360609
0.000360319
0.000358924
0.000356607
0.000353616
0.00035022
0.000346697
0.000343293
0.00034018
0.00033743
0.000335042
0.000332979
0.000331203
0.000329677
0.000328424
0.000327419
0.000326819
0.000326524
0.00032707
0.000327965
0.000330901
0.000334153
0.00034228
0.000352133
0.0105712
0.00682338
0.00457345
0.00315463
0.00218063
0.00150862
0.00109181
0.000908067
0.000870903
0.000875071
0.000883461
0.00095409
0.00113502
0.00144077
0.0018474
0.00226848
0.00259813
0.00275951
0.00271462
0.00250212
0.00219735
0.00187856
0.00157407
0.00129513
0.00105161
0.000849858
0.000691358
0.000572971
0.000488613
0.000431275
0.000394448
0.000372689
0.000361571
0.000357417
0.00035711
0.000358148
0.000358846
0.00035843
0.000356845
0.000354377
0.000351364
0.000348101
0.000344844
0.000341806
0.000339127
0.000336862
0.000335001
0.0003335
0.000332321
0.000331428
0.000330843
0.000330544
0.000330689
0.000331168
0.000332534
0.000334237
0.000338072
0.000342081
0.000351344
0.000362414
0.0105941
0.0068833
0.00466974
0.00329219
0.00235079
0.00168169
0.00124261
0.00103276
0.00098407
0.000989977
0.000996673
0.0010708
0.00127192
0.00161306
0.00205659
0.00250034
0.0028303
0.002965
0.00287003
0.00260663
0.00227047
0.00193357
0.00161822
0.00133371
0.00108601
0.000879492
0.00071537
0.000591078
0.000501196
0.000439144
0.000398584
0.000374085
0.000361156
0.000355996
0.000355294
0.000356286
0.000357017
0.000356543
0.000354794
0.000352151
0.000349057
0.000345858
0.000342805
0.000340083
0.000337801
0.000335991
0.000334633
0.00033368
0.000333093
0.000332843
0.000332958
0.000333425
0.000334414
0.000335816
0.000338221
0.000341034
0.000346204
0.000351503
0.000362699
0.000375463
0.0106153
0.00693688
0.00475077
0.00340739
0.00250243
0.00184909
0.00139901
0.00116709
0.00110691
0.00111567
0.00112258
0.00119894
0.00141959
0.00179527
0.00227275
0.00273569
0.00306156
0.003163
0.00301245
0.00269914
0.00233321
0.00197661
0.00165159
0.00136356
0.00111406
0.000904945
0.000736962
0.000608032
0.000513431
0.000447101
0.000402979
0.000375734
0.000360888
0.000354589
0.000353397
0.000354323
0.000355139
0.000354689
0.000352838
0.000350035
0.000346832
0.000343645
0.00034074
0.000338278
0.000336341
0.000334939
0.000334039
0.000333591
0.000333559
0.000333921
0.000334718
0.000335949
0.000337804
0.000340188
0.000343741
0.000347836
0.00035462
0.000361564
0.000375272
0.000390084
0.0106345
0.00698483
0.00481935
0.00350232
0.00263343
0.00200558
0.00155631
0.00130848
0.0012379
0.00125092
0.00126088
0.00133845
0.00157599
0.00198411
0.00249179
0.00297001
0.00328666
0.00334793
0.00313889
0.0027808
0.00238309
0.00200693
0.00167373
0.0013843
0.00113528
0.000925739
0.000755681
0.00062345
0.000525039
0.00045498
0.000407568
0.00037765
0.000360829
0.000353273
0.000351481
0.000352291
0.00035322
0.000352873
0.000351
0.000348082
0.000344773
0.00034157
0.000338768
0.000336516
0.000334871
0.000333824
0.000333329
0.00033333
0.000333799
0.00033472
0.000336149
0.000338103
0.0003408
0.000344161
0.000348892
0.000354344
0.000362896
0.000371703
0.000388316
0.000405425
0.0106517
0.00702778
0.00487789
0.00357961
0.00274317
0.00214673
0.00170936
0.00145339
0.00137478
0.00139379
0.00141033
0.00148876
0.0017409
0.00217614
0.00270897
0.0031976
0.00349881
0.00351369
0.00325036
0.00284827
0.00241863
0.00202409
0.00168447
0.00139571
0.00114942
0.000941539
0.000771163
0.000636986
0.000535733
0.000462577
0.000412237
0.000379802
0.00036101
0.00035211
0.000349606
0.000350229
0.000351271
0.000351087
0.000349274
0.000346306
0.000342918
0.000339692
0.000336964
0.000334881
0.000333482
0.000332739
0.000332592
0.000332986
0.000333893
0.000335311
0.00033731
0.000339927
0.00034341
0.000347703
0.000353588
0.000360401
0.000370779
0.000381558
0.000401311
0.00042087
0.0106667
0.00706623
0.00492842
0.00364209
0.0028323
0.00226935
0.00185306
0.00159757
0.00151452
0.00154154
0.001569
0.00164827
0.00191134
0.002369
0.00292055
0.00341246
0.00369159
0.00365857
0.00334414
0.00289917
0.0024389
0.0020279
0.00168386
0.00139784
0.00115639
0.00095216
0.000783154
0.00064836
0.000545247
0.000469678
0.000416843
0.000382119
0.000361426
0.000351139
0.000347828
0.000348177
0.000349303
0.00034932
0.000347642
0.000344693
0.000341268
0.000338031
0.000335362
0.00033342
0.000332228
0.000331743
0.000331896
0.000332626
0.000333912
0.000335761
0.000338262
0.000341471
0.000345668
0.000350826
0.000357804
0.000365935
0.000378125
0.000390901
0.000413896
0.000435973
0.0106798
0.00710063
0.00497254
0.00369255
0.00290251
0.00237162
0.00198276
0.00173625
0.00165336
0.00169068
0.00173409
0.00181524
0.00208423
0.00255814
0.00312167
0.00360991
0.00386162
0.00378061
0.00341761
0.00293181
0.00244338
0.00201846
0.00167222
0.00139095
0.0011563
0.000957565
0.000791515
0.000657372
0.000553365
0.000476081
0.000421229
0.000384505
0.000362041
0.000350374
0.000346186
0.000346175
0.000347337
0.000347567
0.000346079
0.000343217
0.000339805
0.000336578
0.000333968
0.000332147
0.000331133
0.000330868
0.000331276
0.000332293
0.000333903
0.000336123
0.000339059
0.000342787
0.000347621
0.000353563
0.000361551
0.000370925
0.000384861
0.000399595
0.000425824
0.000450418
0.0106911
0.00713136
0.00501152
0.00373355
0.00295617
0.00245312
0.00209477
0.0018646
0.001787
0.00183705
0.00190182
0.00198758
0.0022569
0.0027395
0.00330779
0.00378571
0.00400579
0.00387748
0.0034687
0.00294517
0.00243195
0.00199614
0.00165008
0.00137551
0.00114944
0.000957861
0.000796223
0.000663912
0.000559927
0.000481618
0.000425242
0.000386849
0.000362798
0.000349807
0.000344705
0.000344259
0.000345396
0.000345827
0.000344567
0.000341847
0.000338498
0.00033531
0.000332766
0.000331056
0.000330198
0.000330124
0.00033075
0.000332011
0.000333896
0.000336432
0.00033974
0.000343918
0.000349312
0.000355953
0.000364858
0.000375379
0.000390959
0.000407565
0.000436935
0.000463987
0.0107007
0.00715876
0.00504633
0.00376734
0.002996
0.00251471
0.00218665
0.00197816
0.00191083
0.00197598
0.00206745
0.00216264
0.00242717
0.00290973
0.00347502
0.00393621
0.00412146
0.00394718
0.00349601
0.00293876
0.00240483
0.00196156
0.0016182
0.00135217
0.00113624
0.000953284
0.000797361
0.000667959
0.000564841
0.000486159
0.000428753
0.000389041
0.000363624
0.00034941
0.000343395
0.000342453
0.000343502
0.000344106
0.000343089
0.000340556
0.000337313
0.000334195
0.000331729
0.000330127
0.000329409
0.000329502
0.000330316
0.000331786
0.000333905
0.000336708
0.000340333
0.000344897
0.000350777
0.000358033
0.000367758
0.000379321
0.000396419
0.000414781
0.000447131
0.000476536
0.0107089
0.00718315
0.00507768
0.00379578
0.00302481
0.00255825
0.00225736
0.00207329
0.00202039
0.00210257
0.0022254
0.0023369
0.0025932
0.00306645
0.00362039
0.00405865
0.00420671
0.00398841
0.00349888
0.00291265
0.0023626
0.0019156
0.00157753
0.00132175
0.00111729
0.000944185
0.000795106
0.000669566
0.000568082
0.000489626
0.000431658
0.000390981
0.000364442
0.000349141
0.000342248
0.000340775
0.000341674
0.000342412
0.000341637
0.000339319
0.00033622
0.000333201
0.000330826
0.000329333
0.000328745
0.000328988
0.000329966
0.000331616
0.000333932
0.000336962
0.000340856
0.000345749
0.000352047
0.000359839
0.000370287
0.000382782
0.000401261
0.000421241
0.000456365
0.000487987
0.0107158
0.00720482
0.0051061
0.00382032
0.00304524
0.0025863
0.00230724
0.00214752
0.00211171
0.00221209
0.00236954
0.00250574
0.00275325
0.00320827
0.00374206
0.00415139
0.00426053
0.00400072
0.00347739
0.00286738
0.00230616
0.00185935
0.00152916
0.00128519
0.00109329
0.000931012
0.000789711
0.000668858
0.00056968
0.000491989
0.000433887
0.000392585
0.000365179
0.000348949
0.000341245
0.00033923
0.000339929
0.000340754
0.000340207
0.000338119
0.000335193
0.000332297
0.000330029
0.000328647
0.000328183
0.000328561
0.000329685
0.000331489
0.000333976
0.000337198
0.000341319
0.000346492
0.000353146
0.000361401
0.000372481
0.000385801
0.000405516
0.000426967
0.000464628
0.000498308
0.0107216
0.00722403
0.005132
0.0038421
0.00305969
0.00260176
0.00233783
0.00219977
0.00218173
0.0023003
0.00249373
0.00266338
0.00290513
0.00333461
0.00383948
0.00421407
0.00428305
0.00398462
0.00343229
0.00280398
0.00223673
0.0017941
0.00147431
0.00124353
0.00106502
0.00091429
0.000781496
0.000666013
0.000569718
0.000493259
0.000435405
0.000393793
0.000365767
0.000348785
0.000340359
0.000337813
0.000338275
0.000339141
0.000338798
0.000336944
0.000334209
0.000331457
0.000329308
0.000328042
0.000327698
0.000328201
0.000329455
0.000331396
0.000334028
0.000337414
0.000341728
0.000347137
0.000354095
0.000362746
0.000374373
0.000388415
0.000409225
0.000431994
0.000471941
0.000507507
0.0107265
0.00724106
0.00515566
0.00386192
0.00307015
0.00260763
0.00235162
0.00223039
0.00222865
0.00236392
0.00259228
0.00280313
0.00304582
0.00344527
0.00391321
0.00424759
0.00427549
0.00394147
0.00336492
0.00272381
0.00215576
0.00172127
0.00141427
0.00119786
0.00103332
0.000894598
0.000770832
0.000661252
0.000568317
0.000493486
0.000436211
0.000394567
0.000366155
0.000348598
0.000339557
0.000336515
0.000336716
0.000337581
0.000337412
0.000335785
0.000333252
0.000330659
0.000328642
0.000327496
0.00032727
0.00032789
0.000329262
0.000331323
0.000334083
0.000337609
0.000342085
0.000347694
0.000354909
0.000363898
0.000375994
0.000390664
0.000412431
0.000436369
0.000478346
0.00051562
0.0107305
0.00725612
0.0051773
0.00388034
0.00307821
0.00260674
0.00235167
0.00224103
0.0022521
0.00240094
0.0026606
0.00291784
0.00317105
0.00353986
0.00396457
0.00425396
0.00424003
0.0038733
0.00327704
0.00262855
0.0020649
0.00164239
0.00135039
0.0011493
0.000999056
0.000872552
0.000758121
0.000654829
0.000565629
0.000492752
0.000436329
0.000394894
0.000366306
0.000348345
0.000338807
0.000335319
0.000335252
0.000336079
0.00033605
0.000334637
0.000332311
0.000329888
0.000328012
0.00032699
0.00032688
0.000327611
0.000329092
0.000331261
0.000334132
0.000337778
0.000342393
0.000348171
0.000355603
0.000364878
0.000377375
0.000392584
0.000415182
0.000440143
0.000483902
0.000522706
0.0107339
0.00726944
0.00519711
0.00389771
0.00308507
0.00260159
0.00234127
0.0022344
0.00225315
0.00241088
0.0026957
0.00300069
0.00327528
0.00361721
0.00399506
0.00423581
0.00417948
0.00378253
0.00317064
0.00252007
0.00196592
0.00155905
0.001284
0.00109895
0.000963084
0.000848776
0.000743788
0.000647019
0.000561828
0.000491158
0.00043581
0.00039478
0.000366198
0.000347991
0.000338075
0.000334204
0.000333876
0.000334636
0.000334715
0.000333499
0.000331377
0.000329132
0.000327403
0.00032651
0.000326514
0.000327352
0.000328934
0.000331201
0.00033417
0.000337921
0.000342654
0.000348575
0.00035619
0.000365707
0.000378543
0.000394213
0.000417524
0.000443375
0.000488678
0.000528838
0.0107367
0.00728123
0.00521525
0.00391426
0.00309158
0.00259426
0.00232369
0.00221386
0.00223417
0.00239484
0.00269653
0.0030461
0.00335197
0.00367483
0.00400569
0.00419578
0.00409672
0.00367156
0.00304778
0.00240037
0.0018607
0.00147285
0.00121642
0.00104785
0.000926232
0.000823886
0.00072826
0.000638104
0.000557099
0.000488823
0.000434719
0.000394252
0.000365824
0.000347512
0.000337333
0.000333149
0.000332579
0.000333254
0.000333409
0.000332368
0.000330445
0.000328381
0.000326806
0.000326043
0.000326163
0.000327104
0.00032878
0.000331136
0.000334193
0.000338035
0.00034287
0.000348912
0.000356681
0.000366402
0.000379524
0.000395586
0.000419504
0.000446119
0.000492746
0.000534098
0.0107389
0.00729166
0.00523185
0.0039301
0.00309827
0.00258636
0.00230186
0.00218309
0.00219854
0.00235541
0.00266417
0.00305052
0.00339433
0.00370873
0.00399625
0.00413581
0.00399411
0.00354247
0.00291046
0.00227148
0.00175114
0.00138538
0.00114889
0.000996989
0.000889274
0.00079847
0.000711957
0.000628372
0.000551634
0.000485873
0.000433136
0.000393349
0.000365193
0.000346893
0.000336555
0.000332132
0.000331349
0.000331928
0.000332133
0.000331245
0.000329512
0.000327629
0.000326211
0.000325583
0.000325818
0.000326859
0.000328625
0.000331063
0.000334198
0.000338121
0.000343044
0.000349189
0.000357088
0.00036698
0.000380343
0.000396734
0.000421165
0.000448432
0.000496183
0.000538571
0.0107408
0.00730091
0.00524703
0.00394528
0.00310545
0.00257907
0.00227832
0.00214574
0.00215025
0.0022964
0.00260171
0.00301309
0.00339641
0.00371363
0.00396493
0.0040565
0.00387296
0.00339675
0.0027605
0.0021355
0.00163916
0.00129816
0.00108255
0.000947254
0.000852913
0.000773074
0.00069528
0.000618101
0.000545623
0.000482439
0.000431146
0.00039212
0.000364323
0.000346128
0.000335724
0.000331134
0.000330174
0.000330655
0.000330887
0.00033013
0.000328575
0.000326872
0.000325615
0.000325124
0.000325474
0.000326613
0.000328464
0.000330979
0.000334186
0.000338179
0.000343178
0.000349411
0.00035742
0.000367457
0.00038102
0.000397689
0.00042255
0.000450368
0.000499062
0.000542344
0.0107423
0.00730912
0.00526092
0.0039598
0.00311325
0.00257316
0.00225503
0.00210514
0.0020935
0.00222245
0.00251393
0.0029359
0.00335425
0.00368372
0.0039083
0.00395678
0.00373316
0.00323524
0.00259965
0.00199456
0.00152667
0.00121262
0.00101846
0.000899426
0.000817767
0.000748188
0.000678599
0.000607556
0.000539251
0.000478649
0.000428838
0.000390621
0.000363241
0.000345222
0.000334826
0.000330136
0.000329039
0.000329429
0.00032967
0.000329022
0.000327634
0.000326108
0.000325014
0.000324661
0.000325127
0.000326364
0.000328296
0.000330883
0.000334155
0.000338212
0.000343278
0.000349587
0.000357688
0.000367845
0.000381576
0.000398476
0.000423695
0.000451976
0.000501454
0.0005455
0.0107435
0.00731643
0.00527362
0.00397368
0.00312166
0.00256905
0.00223345
0.00206411
0.00203232
0.00213856
0.00240682
0.00282383
0.00326691
0.00361382
0.00382179
0.00383401
0.00357324
0.00305842
0.00242972
0.00185089
0.00141554
0.00113009
0.000957514
0.000854169
0.000784359
0.000724235
0.000662245
0.000596982
0.000532692
0.000474628
0.000426301
0.000388913
0.000361981
0.000344183
0.000333855
0.000329124
0.000327931
0.00032824
0.00032848
0.000327923
0.000326689
0.000325336
0.000324405
0.000324194
0.000324777
0.000326109
0.000328121
0.000330775
0.000334107
0.000338222
0.000343346
0.00034972
0.0003579
0.000368158
0.000382029
0.000399121
0.000424637
0.000453303
0.000503426
0.000548119
0.0107445
0.00732296
0.00528526
0.0039869
0.00313061
0.00256693
0.00221455
0.00202484
0.0019703
0.00204965
0.00228697
0.00268401
0.00313704
0.00350084
0.00370079
0.00368464
0.00339238
0.00286693
0.00225284
0.00170686
0.00130758
0.00105175
0.000900483
0.00081202
0.000753116
0.000701573
0.000646508
0.000586599
0.000526105
0.000470489
0.000423619
0.000387055
0.000360582
0.00034303
0.000332811
0.000328086
0.000326835
0.000327082
0.000327314
0.000326832
0.000325739
0.000324554
0.000323788
0.00032372
0.000324421
0.000325848
0.000327937
0.000330656
0.000334044
0.000338211
0.000343388
0.000349818
0.000358065
0.000368407
0.000382394
0.000399645
0.000425405
0.000454389
0.000505038
0.000550276
0.0107453
0.00732882
0.00529593
0.00399946
0.00313997
0.00256678
0.00219886
0.00198893
0.00191037
0.0019602
0.00216091
0.00252497
0.00297083
0.00334496
0.00354211
0.00350542
0.00319004
0.00266201
0.00207166
0.00156498
0.00120452
0.000978648
0.00084798
0.000773392
0.000724367
0.000680487
0.000631631
0.000576597
0.00051963
0.000466338
0.00042087
0.000385105
0.000359081
0.000341783
0.000331696
0.000327014
0.000325742
0.000325944
0.000326167
0.000325749
0.000324785
0.000323764
0.000323161
0.000323239
0.00032406
0.000325582
0.000327747
0.000330527
0.000333968
0.000338183
0.000343406
0.000349885
0.000358189
0.000368602
0.000382685
0.000400067
0.000426027
0.000455272
0.000506345
0.000552038
0.0107459
0.00733409
0.00530574
0.00401136
0.00314961
0.00256845
0.00218658
0.00195739
0.00185474
0.00187392
0.00203465
0.00235571
0.00277738
0.00315039
0.00334549
0.00329494
0.00296584
0.00244616
0.00188951
0.00142788
0.00110793
0.000911613
0.000800455
0.000738571
0.000698343
0.000661192
0.000617807
0.000567136
0.000513375
0.000462261
0.000418124
0.000383118
0.000357519
0.000340465
0.000330519
0.000325904
0.00032464
0.000324819
0.000325036
0.000324671
0.000323827
0.000322965
0.000322527
0.000322752
0.000323693
0.000325311
0.00032755
0.000330389
0.00033388
0.000338139
0.000343404
0.000349926
0.000358279
0.000368752
0.000382914
0.000400405
0.000426527
0.000455984
0.000507396
0.000553465
0.0107464
0.00733885
0.00531476
0.00402262
0.0031594
0.00257171
0.00217764
0.0019307
0.00180489
0.00179366
0.00191319
0.00218477
0.00256748
0.00292528
0.0031147
0.00305503
0.00272264
0.00222368
0.00171039
0.00129818
0.0010192
0.000851277
0.000758199
0.000707725
0.000675188
0.000643835
0.000605184
0.00055834
0.000507439
0.000458325
0.000415442
0.000381142
0.000355932
0.000339101
0.00032929
0.000324755
0.000323521
0.000323698
0.000323916
0.000323599
0.000322866
0.000322158
0.000321884
0.000322258
0.000323323
0.000325036
0.000327348
0.000330245
0.000333783
0.000338083
0.000343386
0.000349947
0.000358341
0.000368864
0.000383092
0.000400671
0.000426925
0.000456554
0.000508233
0.00055461
0.0107468
0.00734318
0.00532309
0.00403325
0.00316921
0.00257631
0.0021718
0.00190899
0.00176162
0.00172135
0.00180038
0.0020195
0.00235232
0.00268078
0.00285775
0.00279163
0.0024666
0.00200057
0.00153867
0.00117828
0.000939381
0.000798041