/*--------------------------------*- C++ -*----------------------------------*\
| =========                 |                                                 |
| \\      /  F ield         | OpenFOAM: The Open Source CFD Toolbox           |
|  \\    /   O peration     | Version:  2.4.0                                 |
|   \\  /    A nd           | Web:      www.OpenFOAM.org                      |
|    \\/     M anipulation  |                                                 |
\*---------------------------------------------------------------------------*/
FoamFile
{
    version     2.0;
    format      ascii;
    class       volScalarField;
    location    "1.3";
    object      nut;
}
// * * * * * * * * * * * * * * * * * * * * * * * * * * * * * * * * * * * * * //

dimensions      [0 2 -1 0 0 0 0];

internalField   nonuniform List<scalar> 
6000
(
4.70194e-05
1.44042e-05
4.32368e-06
8.75786e-06
7.82387e-06
9.07032e-06
9.08858e-06
9.77659e-06
8.91348e-06
6.33609e-06
4.05976e-06
6.99083e-06
7.71791e-06
8.92792e-06
1.72994e-05
2.63113e-05
3.44814e-05
4.0658e-05
4.40079e-05
4.41201e-05
4.11256e-05
3.56603e-05
2.85174e-05
2.04554e-05
1.25289e-05
7.35671e-06
9.25215e-06
1.23229e-05
1.43719e-05
1.58715e-05
1.71293e-05
1.83265e-05
1.95561e-05
2.08484e-05
2.21889e-05
2.35326e-05
2.48197e-05
2.59912e-05
2.70043e-05
2.78415e-05
2.85111e-05
2.90404e-05
2.94645e-05
2.98179e-05
3.01272e-05
3.0413e-05
3.06831e-05
3.09508e-05
3.12033e-05
3.14734e-05
3.1697e-05
3.20026e-05
3.21377e-05
3.25915e-05
3.2438e-05
3.34032e-05
3.23708e-05
3.48475e-05
3.17046e-05
3.70685e-05
2.94915e-05
9.47375e-06
3.24653e-06
7.00863e-06
6.35875e-06
7.14361e-06
7.17115e-06
7.54317e-06
6.79806e-06
5.01704e-06
4.34737e-06
6.19048e-06
7.12424e-06
9.40732e-06
1.46865e-05
1.97161e-05
2.37053e-05
2.62003e-05
2.70092e-05
2.61456e-05
2.39191e-05
2.06692e-05
1.66835e-05
1.22896e-05
8.41289e-06
6.92393e-06
8.39779e-06
1.00068e-05
1.11643e-05
1.20698e-05
1.28624e-05
1.36214e-05
1.43833e-05
1.51549e-05
1.59234e-05
1.66649e-05
1.73519e-05
1.79611e-05
1.84785e-05
1.89021e-05
1.92409e-05
1.95108e-05
1.97299e-05
1.99147e-05
2.00778e-05
2.02287e-05
2.03711e-05
2.05112e-05
2.06436e-05
2.07831e-05
2.09012e-05
2.10559e-05
2.11328e-05
2.13553e-05
2.12975e-05
2.1759e-05
2.12854e-05
2.24627e-05
2.0973e-05
2.34002e-05
2.14312e-05
8.13864e-06
2.87629e-06
5.89537e-06
5.36907e-06
5.805e-06
5.81889e-06
5.98625e-06
5.37682e-06
4.3242e-06
4.61524e-06
5.84661e-06
7.10769e-06
9.46895e-06
1.27858e-05
1.54757e-05
1.71314e-05
1.76666e-05
1.72175e-05
1.6008e-05
1.43687e-05
1.2434e-05
1.02777e-05
8.11715e-06
6.85807e-06
7.07752e-06
7.74098e-06
8.49161e-06
9.11846e-06
9.65753e-06
1.01507e-05
1.06229e-05
1.1084e-05
1.15329e-05
1.19625e-05
1.23625e-05
1.27229e-05
1.30362e-05
1.32995e-05
1.35142e-05
1.36862e-05
1.38235e-05
1.39351e-05
1.40287e-05
1.41106e-05
1.41852e-05
1.42549e-05
1.43225e-05
1.43865e-05
1.44527e-05
1.45103e-05
1.45823e-05
1.46232e-05
1.47229e-05
1.47077e-05
1.49082e-05
1.47132e-05
1.52204e-05
1.45802e-05
1.54835e-05
1.7874e-05
7.95565e-06
3.03734e-06
5.27836e-06
4.75783e-06
4.89737e-06
4.87935e-06
4.92115e-06
4.48056e-06
4.12804e-06
4.93833e-06
5.87416e-06
7.3226e-06
9.30342e-06
1.12944e-05
1.25155e-05
1.2828e-05
1.23782e-05
1.14567e-05
1.03491e-05
9.25798e-06
8.19528e-06
7.18741e-06
6.51547e-06
7.03462e-06
7.56385e-06
7.45756e-06
7.64271e-06
7.91021e-06
8.19154e-06
8.46871e-06
8.73562e-06
8.98878e-06
9.22516e-06
9.44203e-06
9.6371e-06
9.80864e-06
9.95566e-06
1.00781e-05
1.0177e-05
1.02547e-05
1.03146e-05
1.03605e-05
1.03962e-05
1.04249e-05
1.04489e-05
1.04699e-05
1.04895e-05
1.05077e-05
1.05265e-05
1.05432e-05
1.05643e-05
1.05771e-05
1.06076e-05
1.06035e-05
1.06676e-05
1.06013e-05
1.07667e-05
1.05423e-05
1.06776e-05
1.67536e-05
8.43674e-06
3.57779e-06
5.06922e-06
4.47678e-06
4.33172e-06
4.26538e-06
4.24302e-06
4.01889e-06
4.36053e-06
5.36607e-06
6.16901e-06
7.57186e-06
9.03532e-06
1.00969e-05
1.03967e-05
1.00066e-05
9.21272e-06
8.34193e-06
7.62865e-06
7.08366e-06
6.67262e-06
6.48347e-06
6.9756e-06
8.56099e-06
8.44942e-06
7.66629e-06
7.40264e-06
7.37704e-06
7.44512e-06
7.54582e-06
7.65155e-06
7.74983e-06
7.83585e-06
7.90884e-06
7.96988e-06
8.02043e-06
8.06139e-06
8.09292e-06
8.11482e-06
8.12709e-06
8.13035e-06
8.12588e-06
8.11536e-06
8.10053e-06
8.08294e-06
8.06394e-06
8.0444e-06
8.02525e-06
8.00665e-06
7.98956e-06
7.97329e-06
7.95936e-06
7.94608e-06
7.9344e-06
7.92553e-06
7.90757e-06
7.90386e-06
7.86181e-06
7.63961e-06
1.71074e-05
9.39362e-06
4.43135e-06
5.18927e-06
4.50353e-06
4.0643e-06
3.93307e-06
3.89929e-06
3.95514e-06
4.96941e-06
5.9203e-06
6.6231e-06
7.8023e-06
8.77052e-06
9.2005e-06
8.99724e-06
8.3955e-06
7.75489e-06
7.37922e-06
7.33626e-06
7.4426e-06
7.64305e-06
8.15868e-06
9.59382e-06
1.11445e-05
9.8999e-06
8.47024e-06
7.77166e-06
7.45677e-06
7.31801e-06
7.25584e-06
7.22231e-06
7.19504e-06
7.16505e-06
7.13026e-06
7.09172e-06
7.0512e-06
7.00981e-06
6.9675e-06
6.9234e-06
6.87645e-06
6.826e-06
6.77206e-06
6.71525e-06
6.65654e-06
6.59695e-06
6.53759e-06
6.47911e-06
6.42266e-06
6.36789e-06
6.31696e-06
6.26683e-06
6.22396e-06
6.17682e-06
6.14586e-06
6.09408e-06
6.08152e-06
5.99731e-06
6.01709e-06
5.65432e-06
1.83886e-05
1.07083e-05
5.55578e-06
5.5578e-06
4.81329e-06
4.08093e-06
3.86874e-06
3.8754e-06
4.29243e-06
5.88848e-06
6.60326e-06
7.16147e-06
8.0423e-06
8.61159e-06
8.67721e-06
8.34513e-06
7.98697e-06
8.02996e-06
8.76747e-06
9.87565e-06
1.09335e-05
1.17764e-05
1.27573e-05
1.43324e-05
1.45003e-05
1.20467e-05
9.9546e-06
8.7814e-06
8.14436e-06
7.78138e-06
7.55328e-06
7.38821e-06
7.24996e-06
7.12144e-06
6.9958e-06
6.87135e-06
6.74859e-06
6.62841e-06
6.51117e-06
6.39655e-06
6.28373e-06
6.17192e-06
6.06066e-06
5.94991e-06
5.84007e-06
5.73169e-06
5.62563e-06
5.52238e-06
5.4231e-06
5.32741e-06
5.23772e-06
5.15069e-06
5.07369e-06
4.99341e-06
4.93434e-06
4.85087e-06
4.82069e-06
4.69756e-06
4.71854e-06
4.3245e-06
2.02058e-05
1.22774e-05
6.90691e-06
6.12367e-06
5.3479e-06
4.37897e-06
4.07775e-06
4.18366e-06
5.05014e-06
7.03541e-06
7.41217e-06
7.76501e-06
8.35469e-06
8.66245e-06
8.63381e-06
8.56289e-06
8.99362e-06
1.05038e-05
1.33133e-05
1.62084e-05
1.83476e-05
1.94341e-05
1.99882e-05
2.02482e-05
1.8387e-05
1.49051e-05
1.21501e-05
1.04556e-05
9.45108e-06
8.83547e-06
8.42949e-06
8.13265e-06
7.88969e-06
7.67085e-06
7.46093e-06
7.25315e-06
7.04569e-06
6.83939e-06
6.63609e-06
6.43742e-06
6.24423e-06
6.05658e-06
5.87408e-06
5.69628e-06
5.52295e-06
5.35411e-06
5.19023e-06
5.03164e-06
4.87941e-06
4.73334e-06
4.59576e-06
4.46384e-06
4.34441e-06
4.22546e-06
4.1296e-06
4.01445e-06
3.95304e-06
3.80609e-06
3.79933e-06
3.42212e-06
2.22479e-05
1.40002e-05
8.43195e-06
6.88032e-06
6.02279e-06
4.94029e-06
4.56723e-06
4.84359e-06
6.22095e-06
8.33648e-06
8.35224e-06
8.4607e-06
8.81621e-06
9.03001e-06
9.20509e-06
9.86631e-06
1.18435e-05
1.5887e-05
2.15182e-05
2.60436e-05
2.8478e-05
2.88253e-05
2.79156e-05
2.60732e-05
2.2542e-05
1.833e-05
1.49842e-05
1.27623e-05
1.13609e-05
1.0469e-05
9.87389e-06
9.44397e-06
9.10045e-06
8.79654e-06
8.5053e-06
8.21278e-06
7.91404e-06
7.61022e-06
7.30575e-06
7.00571e-06
6.71398e-06
6.43248e-06
6.16144e-06
5.9001e-06
5.64755e-06
5.40308e-06
5.16663e-06
4.93831e-06
4.71911e-06
4.50906e-06
4.31048e-06
4.12128e-06
3.94758e-06
3.77949e-06
3.63626e-06
3.48224e-06
3.37901e-06
3.20839e-06
3.15993e-06
2.81395e-06
2.42801e-05
1.57828e-05
1.00712e-05
7.83021e-06
6.78059e-06
5.70662e-06
5.31885e-06
5.84579e-06
7.72695e-06
9.74731e-06
9.44233e-06
9.3012e-06
9.5094e-06
9.82559e-06
1.05543e-05
1.25437e-05
1.6972e-05
2.42436e-05
3.20315e-05
3.68057e-05
3.83526e-05
3.73133e-05
3.47261e-05
3.11322e-05
2.66501e-05
2.20357e-05
1.826e-05
1.55776e-05
1.37932e-05
1.26241e-05
1.184e-05
1.12819e-05
1.08457e-05
1.04644e-05
1.00966e-05
9.71951e-06
9.32464e-06
8.91383e-06
8.49509e-06
8.07819e-06
7.67126e-06
7.27897e-06
6.90267e-06
6.54143e-06
6.19352e-06
5.85732e-06
5.53207e-06
5.21754e-06
4.9147e-06
4.62393e-06
4.34774e-06
4.08495e-06
3.84129e-06
3.60907e-06
3.40465e-06
3.19906e-06
3.04259e-06
2.83956e-06
2.74057e-06
2.42268e-06
2.61508e-05
1.75445e-05
1.17632e-05
8.95863e-06
7.61726e-06
6.58959e-06
6.2671e-06
7.11512e-06
9.42129e-06
1.12513e-05
1.07123e-05
1.0349e-05
1.05181e-05
1.11634e-05
1.28568e-05
1.68371e-05
2.43267e-05
3.42532e-05
4.23697e-05
4.60751e-05
4.62059e-05
4.38125e-05
3.99258e-05
3.53028e-05
3.04225e-05
2.56828e-05
2.16883e-05
1.86851e-05
1.65889e-05
1.51768e-05
1.42248e-05
1.35563e-05
1.30437e-05
1.25992e-05
1.21654e-05
1.17096e-05
1.12198e-05
1.06991e-05
1.01601e-05
9.61805e-06
9.08615e-06
8.57248e-06
8.07984e-06
7.60721e-06
7.15188e-06
6.71105e-06
6.28299e-06
5.86704e-06
5.46409e-06
5.07499e-06
4.70274e-06
4.34732e-06
4.01469e-06
3.69932e-06
3.4159e-06
3.1412e-06
2.91681e-06
2.66655e-06
2.50773e-06
2.20609e-06
2.77839e-05
1.92231e-05
1.34504e-05
1.02314e-05
8.5556e-06
7.52322e-06
7.31304e-06
8.51503e-06
1.11472e-05
1.2845e-05
1.21953e-05
1.16665e-05
1.19225e-05
1.31507e-05
1.62488e-05
2.27383e-05
3.30958e-05
4.40947e-05
5.1083e-05
5.32425e-05
5.20048e-05
4.85349e-05
4.37677e-05
3.86743e-05
3.36735e-05
2.89832e-05
2.49645e-05
2.18157e-05
1.95262e-05
1.7943e-05
1.68689e-05
1.61236e-05
1.55628e-05
1.50789e-05
1.45983e-05
1.40783e-05
1.35034e-05
1.28792e-05
1.22237e-05
1.15585e-05
1.09023e-05
1.02668e-05
9.65649e-06
9.07016e-06
8.50386e-06
7.95323e-06
7.41522e-06
6.88835e-06
6.37332e-06
5.87139e-06
5.38629e-06
4.91933e-06
4.47745e-06
4.05739e-06
3.67371e-06
3.30803e-06
2.99669e-06
2.67929e-06
2.44774e-06
2.14628e-06
2.91593e-05
2.07761e-05
1.50836e-05
1.16021e-05
9.60984e-06
8.49343e-06
8.37297e-06
9.90595e-06
1.27998e-05
1.4525e-05
1.39187e-05
1.33077e-05
1.37908e-05
1.58664e-05
2.0755e-05
2.98828e-05
4.2158e-05
5.27501e-05
5.80703e-05
5.87183e-05
5.63043e-05
5.19913e-05
4.66515e-05
4.13596e-05
3.63409e-05
3.17672e-05
2.78495e-05
2.4712e-05
2.23642e-05
2.07058e-05
1.95755e-05
1.88021e-05
1.82326e-05
1.7744e-05
1.72467e-05
1.66878e-05
1.60484e-05
1.53374e-05
1.45795e-05
1.38037e-05
1.30346e-05
1.22879e-05
1.15695e-05
1.08781e-05
1.02081e-05
9.55322e-06
8.90842e-06
8.27092e-06
7.64076e-06
7.01928e-06
6.41084e-06
5.81805e-06
5.24934e-06
4.70386e-06
4.19754e-06
3.71647e-06
3.29511e-06
2.88628e-06
2.56413e-06
2.24457e-06
3.02904e-05
2.21795e-05
1.66247e-05
1.30199e-05
1.07748e-05
9.51928e-06
9.41991e-06
1.12045e-05
1.43411e-05
1.62803e-05
1.58954e-05
1.53111e-05
1.61687e-05
1.9336e-05
2.62465e-05
3.76922e-05
5.07331e-05
6.0112e-05
6.37638e-05
6.30513e-05
5.96076e-05
5.45886e-05
4.88813e-05
4.34829e-05
3.8457e-05
3.39902e-05
3.02156e-05
2.71876e-05
2.48944e-05
2.32571e-05
2.21436e-05
2.13982e-05
2.08676e-05
2.04174e-05
1.99442e-05
1.93833e-05
1.87118e-05
1.79417e-05
1.71054e-05
1.62407e-05
1.53792e-05
1.45408e-05
1.37335e-05
1.29553e-05
1.21992e-05
1.14561e-05
1.07188e-05
9.98242e-06
9.24562e-06
8.50912e-06
7.7774e-06
7.05389e-06
6.34846e-06
5.66255e-06
5.01447e-06
4.39461e-06
3.83874e-06
3.31146e-06
2.87626e-06
2.51919e-06
3.12066e-05
2.3424e-05
1.80476e-05
1.44357e-05
1.2028e-05
1.06205e-05
1.04738e-05
1.2394e-05
1.57775e-05
1.80919e-05
1.81151e-05
1.76934e-05
1.90694e-05
2.35169e-05
3.24741e-05
4.56397e-05
5.85563e-05
6.64717e-05
6.8606e-05
6.66444e-05
6.22458e-05
5.65859e-05
5.06587e-05
4.51552e-05
4.01013e-05
3.56969e-05
3.20454e-05
2.9156e-05
2.69819e-05
2.54375e-05
2.44037e-05
2.37389e-05
2.32938e-05
2.29282e-05
2.25259e-05
2.20096e-05
2.13493e-05
2.05583e-05
1.9677e-05
1.8753e-05
1.78263e-05
1.69224e-05
1.60514e-05
1.52116e-05
1.4394e-05
1.35871e-05
1.27808e-05
1.19674e-05
1.11437e-05
1.03088e-05
9.46644e-06
8.61992e-06
7.7799e-06
6.94928e-06
6.14904e-06
5.37332e-06
4.66167e-06
3.98986e-06
3.41728e-06
3.00345e-06
3.19424e-05
2.45117e-05
1.9337e-05
1.58063e-05
1.33357e-05
1.18026e-05
1.15638e-05
1.35142e-05
1.71236e-05
1.99346e-05
2.05413e-05
2.04451e-05
2.24695e-05
2.83061e-05
3.91538e-05
5.34046e-05
6.56868e-05
7.21616e-05
7.29076e-05
6.97439e-05
6.44123e-05
5.81631e-05
5.20872e-05
4.64634e-05
4.13618e-05
3.69734e-05
3.33964e-05
3.06232e-05
2.85799e-05
2.71614e-05
2.6246e-05
2.56989e-05
2.53762e-05
2.51352e-05
2.48494e-05
2.44276e-05
2.38287e-05
2.30636e-05
2.21784e-05
2.1231e-05
2.02713e-05
1.93317e-05
1.84258e-05
1.75527e-05
1.67022e-05
1.58603e-05
1.50139e-05
1.41525e-05
1.32701e-05
1.23636e-05
1.1435e-05
1.04862e-05
9.52762e-06
8.56213e-06
7.61274e-06
6.67598e-06
5.79658e-06
4.96054e-06
4.22942e-06
3.74207e-06
3.25305e-05
2.5452e-05
2.04875e-05
1.70971e-05
1.46586e-05
1.30553e-05
1.2711e-05
1.46216e-05
1.83966e-05
2.17805e-05
2.31267e-05
2.35312e-05
2.63123e-05
3.35661e-05
4.60448e-05
6.08626e-05
7.22929e-05
7.74312e-05
7.6853e-05
7.24844e-05
6.62117e-05
5.94482e-05
5.32114e-05
4.74682e-05
4.23129e-05
3.79102e-05
3.43588e-05
3.16555e-05
2.97162e-05
2.84187e-05
2.76307e-05
2.72165e-05
2.70359e-05
2.6946e-05
2.68124e-05
2.65296e-05
2.6042e-05
2.53525e-05
2.45092e-05
2.35786e-05
2.26211e-05
2.16775e-05
2.07665e-05
1.98891e-05
1.90348e-05
1.81877e-05
1.7332e-05
1.64545e-05
1.55463e-05
1.46015e-05
1.36195e-05
1.26e-05
1.15516e-05
1.04757e-05
9.39588e-06
8.30881e-06
7.26455e-06
6.25712e-06
5.35614e-06
4.78434e-06
3.29998e-05
2.62581e-05
2.15009e-05
1.82833e-05
1.59565e-05
1.4355e-05
1.39226e-05
1.57498e-05
1.96382e-05
2.36019e-05
2.58069e-05
2.6894e-05
3.05178e-05
3.91535e-05
5.29779e-05
6.80056e-05
7.8535e-05
8.24323e-05
8.05333e-05
7.49288e-05
6.76952e-05
6.05157e-05
5.4062e-05
4.8209e-05
4.30087e-05
3.85818e-05
3.50233e-05
3.23432e-05
3.04639e-05
2.92569e-05
2.85795e-05
2.82913e-05
2.82534e-05
2.83235e-05
2.83621e-05
2.82501e-05
2.79152e-05
2.73472e-05
2.65908e-05
2.57179e-05
2.47986e-05
2.38828e-05
2.29957e-05
2.21416e-05
2.13107e-05
2.04864e-05
1.9651e-05
1.87887e-05
1.78881e-05
1.69404e-05
1.59422e-05
1.48902e-05
1.37903e-05
1.26406e-05
1.14638e-05
1.02541e-05
9.06595e-06
7.89743e-06
6.83159e-06
6.17407e-06
3.33744e-05
2.69455e-05
2.23843e-05
1.93498e-05
1.71931e-05
1.56694e-05
1.51909e-05
1.69164e-05
2.08835e-05
2.53769e-05
2.85082e-05
3.04581e-05
3.49933e-05
4.49362e-05
5.98457e-05
7.48657e-05
8.45208e-05
8.72331e-05
8.39751e-05
7.70946e-05
6.89423e-05
6.13609e-05
5.46567e-05
4.87096e-05
4.34846e-05
3.9042e-05
3.54636e-05
3.27737e-05
3.09115e-05
2.97541e-05
2.9155e-05
2.89695e-05
2.90583e-05
2.92808e-05
2.94942e-05
2.95683e-05
2.94132e-05
2.90022e-05
2.83713e-05
2.75935e-05
2.6746e-05
2.58877e-05
2.5051e-05
2.42448e-05
2.34613e-05
2.26842e-05
2.18949e-05
2.10758e-05
2.02135e-05
1.92967e-05
1.83195e-05
1.72751e-05
1.61664e-05
1.49874e-05
1.37582e-05
1.24681e-05
1.11749e-05
9.87492e-06
8.66975e-06
7.93774e-06
3.36739e-05
2.75294e-05
2.31485e-05
2.02904e-05
1.8338e-05
1.6962e-05
1.64959e-05
1.81251e-05
2.21393e-05
2.71024e-05
3.11563e-05
3.41352e-05
3.96413e-05
5.07983e-05
6.65752e-05
8.14681e-05
9.02965e-05
9.18359e-05
8.7161e-05
7.89697e-05
7.00198e-05
6.19652e-05
5.50044e-05
4.89841e-05
4.37623e-05
3.93254e-05
3.57323e-05
3.30174e-05
3.1141e-05
2.99949e-05
2.94373e-05
2.93226e-05
2.95118e-05
2.98665e-05
3.02429e-05
3.05021e-05
3.05378e-05
3.03053e-05
2.98275e-05
2.91743e-05
2.84268e-05
2.76514e-05
2.68877e-05
2.61498e-05
2.54332e-05
2.47228e-05
2.40002e-05
2.32472e-05
2.24489e-05
2.15924e-05
2.06695e-05
1.96707e-05
1.85956e-05
1.74338e-05
1.62027e-05
1.4884e-05
1.35385e-05
1.21542e-05
1.0856e-05
1.00739e-05
3.39138e-05
2.80244e-05
2.38058e-05
2.1106e-05
1.93691e-05
1.81957e-05
1.7808e-05
1.93668e-05
2.34031e-05
2.87791e-05
3.37032e-05
3.78297e-05
4.43644e-05
5.66367e-05
7.3102e-05
8.78058e-05
9.58468e-05
9.619e-05
9.00439e-05
8.06058e-05
7.08984e-05
6.23193e-05
5.51098e-05
4.90412e-05
4.38547e-05
3.94534e-05
3.58635e-05
3.31245e-05
3.12174e-05
3.00545e-05
2.95052e-05
2.94285e-05
2.96877e-05
3.01475e-05
3.06653e-05
3.10962e-05
3.13197e-05
3.12726e-05
3.0963e-05
3.04536e-05
2.98266e-05
2.91533e-05
2.84797e-05
2.78254e-05
2.71899e-05
2.65603e-05
2.59193e-05
2.5249e-05
2.45341e-05
2.37608e-05
2.29194e-05
2.19984e-05
2.09949e-05
1.98942e-05
1.87112e-05
1.74193e-05
1.60819e-05
1.46725e-05
1.33439e-05
1.25475e-05
3.41063e-05
2.84438e-05
2.43695e-05
2.18032e-05
2.02731e-05
1.93372e-05
1.90917e-05
2.06214e-05
2.4664e-05
3.03974e-05
3.6127e-05
4.14589e-05
4.90701e-05
6.23563e-05
7.93516e-05
9.38284e-05
0.000101099
0.000100201
9.25812e-05
8.20485e-05
7.15239e-05
6.24154e-05
5.49761e-05
4.88874e-05
4.37706e-05
3.94387e-05
3.5878e-05
3.31274e-05
3.1187e-05
2.99912e-05
2.94258e-05
2.93586e-05
2.96584e-05
3.01945e-05
3.08273e-05
3.14087e-05
3.18066e-05
3.19405e-05
3.18024e-05
3.14456e-05
3.09504e-05
3.03912e-05
2.98188e-05
2.9258e-05
2.87123e-05
2.81721e-05
2.76216e-05
2.70443e-05
2.64253e-05
2.57508e-05
2.50106e-05
2.41919e-05
2.32904e-05
2.2288e-05
2.11979e-05
1.99851e-05
1.87167e-05
1.73461e-05
1.6059e-05
1.52907e-05
3.42613e-05
2.87991e-05
2.48521e-05
2.23923e-05
2.10449e-05
2.03593e-05
2.03095e-05
2.18601e-05
2.59036e-05
3.1942e-05
3.84008e-05
4.49418e-05
5.3719e-05
6.7868e-05
8.52293e-05
9.94359e-05
0.000105924
0.00010376
9.48257e-05
8.32102e-05
7.18619e-05
6.2247e-05
5.4607e-05
4.85295e-05
4.35171e-05
3.92896e-05
3.5788e-05
3.30458e-05
3.10798e-05
2.98462e-05
2.92498e-05
2.91711e-05
2.94866e-05
3.00721e-05
3.07928e-05
3.15003e-05
3.20533e-05
3.23555e-05
3.23833e-05
3.2179e-05
3.1819e-05
3.13787e-05
3.09126e-05
3.04496e-05
2.99975e-05
2.95498e-05
2.90934e-05
2.86134e-05
2.80963e-05
2.75289e-05
2.69017e-05
2.62013e-05
2.54233e-05
2.45472e-05
2.35859e-05
2.24966e-05
2.13522e-05
2.00813e-05
1.89079e-05
1.8212e-05
3.43862e-05
2.91003e-05
2.52658e-05
2.28858e-05
2.16871e-05
2.12431e-05
2.14254e-05
2.30482e-05
2.7097e-05
3.33915e-05
4.05026e-05
4.81847e-05
5.81788e-05
7.31145e-05
9.06743e-05
0.000104521
0.000110214
0.000106853
9.66976e-05
8.40252e-05
7.18865e-05
6.18096e-05
5.40076e-05
4.79754e-05
4.31018e-05
3.90131e-05
3.56013e-05
3.28914e-05
3.09137e-05
2.96461e-05
2.90131e-05
2.89093e-05
2.92216e-05
2.98339e-05
3.06176e-05
3.14265e-05
3.21129e-05
3.25669e-05
3.27492e-05
3.26908e-05
3.2463e-05
3.21405e-05
3.17804e-05
3.1415e-05
3.10556e-05
3.06993e-05
3.03358e-05
2.99525e-05
2.95374e-05
2.90792e-05
2.85692e-05
2.7995e-05
2.73527e-05
2.66208e-05
2.58134e-05
2.48812e-05
2.3905e-05
2.27861e-05
2.17909e-05
2.12086e-05
3.44872e-05
2.93559e-05
2.56209e-05
2.32971e-05
2.22078e-05
2.19786e-05
2.24087e-05
2.41486e-05
2.82138e-05
3.47193e-05
4.24114e-05
5.11142e-05
6.2314e-05
7.79692e-05
9.55998e-05
0.000109022
0.000113918
0.000109427
9.81204e-05
8.4443e-05
7.15781e-05
6.11017e-05
5.31857e-05
4.72352e-05
4.25335e-05
3.86161e-05
3.53241e-05
3.2671e-05
3.06993e-05
2.94071e-05
2.87384e-05
2.86033e-05
2.88999e-05
2.95212e-05
3.03468e-05
3.12343e-05
3.20327e-05
3.26202e-05
3.29429e-05
3.30202e-05
3.29172e-05
3.27074e-05
3.2449e-05
3.21772e-05
3.19065e-05
3.16371e-05
3.13618e-05
3.10704e-05
3.07532e-05
3.04009e-05
3.00065e-05
2.9559e-05
2.90561e-05
2.84767e-05
2.78374e-05
2.70839e-05
2.6307e-05
2.53799e-05
2.46145e-05
2.41804e-05
3.4569e-05
2.95731e-05
2.59269e-05
2.36394e-05
2.26196e-05
2.25647e-05
2.32362e-05
2.51252e-05
2.9221e-05
3.58948e-05
4.41034e-05
5.36811e-05
6.60041e-05
8.23133e-05
9.99213e-05
0.000112872
0.000116976
0.000111414
9.90281e-05
8.44256e-05
7.09235e-05
6.01257e-05
5.21518e-05
4.63217e-05
4.1823e-05
3.81066e-05
3.49622e-05
3.23898e-05
3.04427e-05
2.91383e-05
2.84397e-05
2.82725e-05
2.85463e-05
2.91641e-05
3.00145e-05
3.09611e-05
3.18516e-05
3.2555e-05
3.30033e-05
3.32044e-05
3.32167e-05
3.31117e-05
3.29484e-05
3.27638e-05
3.25754e-05
3.23863e-05
3.2192e-05
3.19853e-05
3.17587e-05
3.15052e-05
3.12199e-05
3.0894e-05
3.05276e-05
3.01006e-05
2.96336e-05
2.90689e-05
2.85092e-05
2.77999e-05
2.73005e-05
2.70408e-05
3.46353e-05
2.97578e-05
2.61915e-05
2.39249e-05
2.29374e-05
2.3008e-05
2.38945e-05
2.59469e-05
3.00847e-05
3.68856e-05
4.55496e-05
5.58567e-05
6.91536e-05
8.60403e-05
0.000103558
0.000116004
0.000119324
0.000112747
9.93677e-05
8.3946e-05
6.99165e-05
5.88886e-05
5.09198e-05
4.525e-05
4.09833e-05
3.7494e-05
3.4522e-05
3.20525e-05
3.0148e-05
2.88448e-05
2.81248e-05
2.79283e-05
2.81769e-05
2.87834e-05
2.96459e-05
3.06352e-05
3.16004e-05
3.24032e-05
3.29631e-05
3.3276e-05
3.33934e-05
3.33846e-05
3.33084e-05
3.32035e-05
3.30897e-05
3.2973e-05
3.28516e-05
3.27206e-05
3.25755e-05
3.24113e-05
3.22258e-05
3.20125e-05
3.17743e-05
3.14932e-05
3.11947e-05
3.08192e-05
3.04826e-05
3.00039e-05
2.9791e-05
2.97231e-05
3.46892e-05
2.9915e-05
2.64213e-05
2.41647e-05
2.31771e-05
2.33212e-05
2.43799e-05
2.65902e-05
3.07741e-05
3.76603e-05
4.67167e-05
5.76264e-05
7.16988e-05
8.90625e-05
0.000106438
0.000118354
0.0001209
0.000113369
9.91012e-05
8.29889e-05
6.85586e-05
5.74024e-05
4.9507e-05
4.4038e-05
4.00292e-05
3.6789e-05
3.40107e-05
3.16636e-05
2.98184e-05
2.85297e-05
2.77977e-05
2.75774e-05
2.78015e-05
2.83925e-05
2.9258e-05
3.02772e-05
3.13023e-05
3.219e-05
3.28485e-05
3.32622e-05
3.34752e-05
3.35536e-05
3.35564e-05
3.35234e-05
3.34764e-05
3.34238e-05
3.33665e-05
3.33022e-05
3.32285e-05
3.31431e-05
3.30463e-05
3.29341e-05
3.28126e-05
3.26667e-05
3.25268e-05
3.23331e-05
3.22155e-05
3.1969e-05
3.20492e-05
3.21824e-05
3.47329e-05
3.0049e-05
2.66217e-05
2.43682e-05
2.33543e-05
2.35215e-05
2.46983e-05
2.70416e-05
3.12641e-05
3.81908e-05
4.75694e-05
5.89804e-05
7.36095e-05
9.13168e-05
0.000108499
0.000119866
0.000121655
0.000113241
9.82067e-05
8.1551e-05
6.68597e-05
5.56847e-05
4.7934e-05
4.27058e-05
3.89776e-05
3.6004e-05
3.34368e-05
3.12288e-05
2.94576e-05
2.81954e-05
2.74607e-05
2.72231e-05
2.74255e-05
2.79996e-05
2.88622e-05
2.99014e-05
3.09742e-05
3.19343e-05
3.26801e-05
3.31847e-05
3.34844e-05
3.36422e-05
3.37163e-05
3.37477e-05
3.376e-05
3.37637e-05
3.3762e-05
3.37552e-05
3.37431e-05
3.37257e-05
3.3706e-05
3.36824e-05
3.36646e-05
3.36402e-05
3.36453e-05
3.36208e-05
3.37108e-05
3.36893e-05
3.40577e-05
3.43941e-05
3.47685e-05
3.01633e-05
2.67972e-05
2.45431e-05
2.34837e-05
2.36283e-05
2.48636e-05
2.72984e-05
3.15385e-05
3.84561e-05
4.80745e-05
5.99063e-05
7.48858e-05
9.27695e-05
0.0001097
0.000120501
0.000121553
0.00011234
9.66792e-05
7.96417e-05
6.48384e-05
5.37584e-05
4.62248e-05
4.12754e-05
3.78466e-05
3.51526e-05
3.28096e-05
3.07541e-05
2.90691e-05
2.78441e-05
2.71154e-05
2.68669e-05
2.70516e-05
2.76095e-05
2.84659e-05
2.95178e-05
3.06283e-05
3.16502e-05
3.24734e-05
3.30604e-05
3.34393e-05
3.36693e-05
3.38079e-05
3.3897e-05
3.39617e-05
3.40144e-05
3.40608e-05
3.4103e-05
3.41433e-05
3.41838e-05
3.42297e-05
3.42825e-05
3.43546e-05
3.4437e-05
3.45714e-05
3.47001e-05
3.49814e-05
3.51714e-05
3.58143e-05
3.63502e-05
3.47974e-05
3.02609e-05
2.69514e-05
2.46956e-05
2.35781e-05
2.36619e-05
2.48961e-05
2.73687e-05
3.15914e-05
3.84441e-05
4.82061e-05
6.03859e-05
7.55471e-05
9.34185e-05
0.000110023
0.000120238
0.000120581
0.000110666
9.45307e-05
7.72829e-05
6.25221e-05
5.16518e-05
4.44058e-05
3.97705e-05
3.66558e-05
3.42493e-05
3.2139e-05
3.02461e-05
2.86575e-05
2.74784e-05
2.67631e-05
2.65097e-05
2.66811e-05
2.72245e-05
2.80732e-05
2.91328e-05
3.02731e-05
3.13476e-05
3.22398e-05
3.29018e-05
3.33536e-05
3.36499e-05
3.38474e-05
3.39884e-05
3.40994e-05
3.4195e-05
3.42825e-05
3.43663e-05
3.44507e-05
3.45397e-05
3.4641e-05
3.47582e-05
3.4907e-05
3.50815e-05
3.53288e-05
3.55934e-05
3.60469e-05
3.64306e-05
3.73287e-05
3.80558e-05
3.48208e-05
3.03442e-05
2.70871e-05
2.48305e-05
2.36483e-05
2.36417e-05
2.48194e-05
2.72701e-05
3.14285e-05
3.81541e-05
4.79498e-05
6.03972e-05
7.56203e-05
9.3291e-05
0.000109474
0.000119082
0.000118746
0.000108237
9.17899e-05
7.45086e-05
5.99457e-05
4.93976e-05
4.25058e-05
3.82155e-05
3.54249e-05
3.33089e-05
3.14355e-05
2.97119e-05
2.82272e-05
2.71011e-05
2.64053e-05
2.61522e-05
2.63142e-05
2.68456e-05
2.76864e-05
2.87502e-05
2.99141e-05
3.10338e-05
3.19877e-05
3.27186e-05
3.32378e-05
3.35956e-05
3.38472e-05
3.40353e-05
3.41877e-05
3.43208e-05
3.44437e-05
3.45627e-05
3.46838e-05
3.48133e-05
3.49605e-05
3.51315e-05
3.53448e-05
3.55974e-05
3.59416e-05
3.63245e-05
3.69299e-05
3.74876e-05
3.86177e-05
3.95246e-05
3.48399e-05
3.04154e-05
2.7207e-05
2.49515e-05
2.3703e-05
2.35852e-05
2.46593e-05
2.70274e-05
3.10667e-05
3.75978e-05
4.73062e-05
5.99202e-05
7.51278e-05
9.24358e-05
0.000108089
0.000117062
0.00011608
0.000105096
8.85008e-05
7.13637e-05
5.71516e-05
4.70324e-05
4.05551e-05
3.66352e-05
3.41738e-05
3.23467e-05
3.07099e-05
2.91588e-05
2.77832e-05
2.67153e-05
2.60439e-05
2.57952e-05
2.59514e-05
2.64732e-05
2.73066e-05
2.83725e-05
2.95553e-05
3.07138e-05
3.17231e-05
3.25175e-05
3.30998e-05
3.35153e-05
3.38172e-05
3.40485e-05
3.42382e-05
3.44043e-05
3.45578e-05
3.47065e-05
3.48584e-05
3.50212e-05
3.52063e-05
3.54218e-05
3.56886e-05
3.60067e-05
3.64329e-05
3.6917e-05
3.76543e-05
3.83655e-05
3.97029e-05
4.07757e-05
3.48554e-05
3.04763e-05
2.73129e-05
2.50612e-05
2.37486e-05
2.35078e-05
2.44408e-05
2.66701e-05
3.05323e-05
3.67991e-05
4.62934e-05
5.89451e-05
7.40825e-05
9.09121e-05
0.000105924
0.000114229
0.000112636
0.000101297
8.47208e-05
6.79028e-05
5.41879e-05
4.45954e-05
3.85846e-05
3.50539e-05
3.29219e-05
3.13775e-05
2.9973e-05
2.85943e-05
2.73305e-05
2.63246e-05
2.56809e-05
2.54396e-05
2.55927e-05
2.61071e-05
2.69341e-05
2.80009e-05
2.91989e-05
3.03912e-05
3.14504e-05
3.23036e-05
3.29454e-05
3.34154e-05
3.37646e-05
3.40361e-05
3.426e-05
3.44555e-05
3.46356e-05
3.48097e-05
3.49872e-05
3.51776e-05
3.53937e-05
3.56455e-05
3.59564e-05
3.63286e-05
3.68233e-05
3.73931e-05
3.82433e-05
3.9088e-05
4.06075e-05
4.18312e-05
3.4868e-05
3.05285e-05
2.74066e-05
2.51616e-05
2.379e-05
2.34217e-05
2.4187e-05
2.62298e-05
2.98588e-05
3.57928e-05
4.49463e-05
5.74797e-05
7.24888e-05
8.87759e-05
0.000103054
0.000110655
0.000108484
9.69148e-05
8.0518e-05
6.41882e-05
5.1107e-05
4.21273e-05
3.66249e-05
3.34952e-05
3.16876e-05
3.04155e-05
2.92351e-05
2.80256e-05
2.68742e-05
2.59323e-05
2.53184e-05
2.50867e-05
2.52387e-05
2.57474e-05
2.65689e-05
2.76361e-05
2.88466e-05
3.00682e-05
3.11726e-05
3.20806e-05
3.27788e-05
3.33008e-05
3.36952e-05
3.40046e-05
3.42599e-05
3.44822e-05
3.46856e-05
3.48815e-05
3.50806e-05
3.52936e-05
3.55351e-05
3.58166e-05
3.61633e-05
3.658e-05
3.71313e-05
3.77727e-05
3.87182e-05
3.96774e-05
4.13549e-05
4.27141e-05
3.48781e-05
3.05732e-05
2.74895e-05
2.52538e-05
2.38303e-05
2.33364e-05
2.39183e-05
2.57376e-05
2.90841e-05
3.46222e-05
4.33154e-05
5.55548e-05
7.03519e-05
8.60714e-05
9.95548e-05
0.000106425
0.000103706
9.20286e-05
7.59689e-05
6.02879e-05
4.79639e-05
3.9669e-05
3.47054e-05
3.19807e-05
3.04876e-05
2.94737e-05
2.8506e-05
2.74597e-05
2.6419e-05
2.55417e-05
2.4959e-05
2.47379e-05
2.48899e-05
2.5394e-05
2.62108e-05
2.72781e-05
2.84992e-05
2.97465e-05
3.0892e-05
3.18512e-05
3.26031e-05
3.31752e-05
3.3613e-05
3.39585e-05
3.42435e-05
3.44902e-05
3.47146e-05
3.49293e-05
3.51466e-05
3.53785e-05
3.56407e-05
3.59462e-05
3.6322e-05
3.67749e-05
3.73726e-05
3.80732e-05
3.90985e-05
4.01548e-05
4.19677e-05
4.34467e-05
3.48863e-05
3.06115e-05
2.75631e-05
2.5339e-05
2.38715e-05
2.32585e-05
2.3651e-05
2.5222e-05
2.8247e-05
3.33361e-05
4.14632e-05
5.32256e-05
6.76886e-05
8.28298e-05
9.54966e-05
0.000101622
9.83849e-05
8.67252e-05
7.11556e-05
5.62743e-05
4.48148e-05
3.72603e-05
3.28534e-05
3.053e-05
2.93369e-05
2.8564e-05
2.77948e-05
2.6903e-05
2.59696e-05
2.51563e-05
2.46049e-05
2.43948e-05
2.45471e-05
2.50472e-05
2.58598e-05
2.6927e-05
2.81572e-05
2.94272e-05
3.06103e-05
3.16174e-05
3.24206e-05
3.30412e-05
3.35211e-05
3.39015e-05
3.42147e-05
3.44842e-05
3.47277e-05
3.4959e-05
3.51918e-05
3.54393e-05
3.57185e-05
3.60434e-05
3.64428e-05
3.69249e-05
3.75604e-05
3.83096e-05
3.94009e-05
4.05388e-05
4.24663e-05
4.40503e-05
3.4893e-05
3.06444e-05
2.76282e-05
2.54177e-05
2.39144e-05
2.31924e-05
2.33978e-05
2.47078e-05
2.73845e-05
3.19846e-05
3.94599e-05
5.05697e-05
6.45391e-05
7.90768e-05
9.09351e-05
9.63247e-05
9.2598e-05
8.10943e-05
6.61646e-05
5.22215e-05
4.17149e-05
3.49383e-05
3.10934e-05
2.91599e-05
2.82483e-05
2.76966e-05
2.71094e-05
2.63616e-05
2.55301e-05
2.47789e-05
2.42583e-05
2.40588e-05
2.42112e-05
2.47072e-05
2.55158e-05
2.65826e-05
2.78207e-05
2.91111e-05
3.03285e-05
3.13806e-05
3.22331e-05
3.29007e-05
3.34218e-05
3.38361e-05
3.41765e-05
3.44677e-05
3.47287e-05
3.49749e-05
3.52212e-05
3.54819e-05
3.57749e-05
3.61157e-05
3.65339e-05
3.70396e-05
3.77057e-05
3.84944e-05
3.964e-05
4.08456e-05
4.28692e-05
4.45443e-05
3.48983e-05
3.06728e-05
2.7686e-05
2.54905e-05
2.39593e-05
2.31404e-05
2.31675e-05
2.42147e-05
2.65297e-05
3.06163e-05
3.73778e-05
4.76814e-05
6.09726e-05
7.48463e-05
8.59154e-05
9.0598e-05
8.6463e-05
7.523e-05
6.10857e-05
4.82043e-05
3.87167e-05
3.27364e-05
2.94461e-05
2.78842e-05
2.7232e-05
2.68797e-05
2.64567e-05
2.58407e-05
2.51044e-05
2.44122e-05
2.39212e-05
2.37316e-05
2.38833e-05
2.43746e-05
2.51787e-05
2.62448e-05
2.74898e-05
2.87986e-05
3.00475e-05
3.11421e-05
3.20418e-05
3.27553e-05
3.33168e-05
3.37645e-05
3.41314e-05
3.44433e-05
3.47207e-05
3.49804e-05
3.52385e-05
3.55104e-05
3.5815e-05
3.61686e-05
3.66021e-05
3.71267e-05
3.78173e-05
3.8638e-05
3.98277e-05
4.10892e-05
4.31927e-05
4.49459e-05
3.49025e-05
3.06973e-05
2.77373e-05
2.55578e-05
2.40059e-05
2.31032e-05
2.29657e-05
2.37576e-05
2.57101e-05
2.92748e-05
3.52867e-05
4.4664e-05
5.70881e-05
7.01956e-05
8.04827e-05
8.45007e-05
8.00827e-05
6.92258e-05
5.60116e-05
4.42959e-05
3.58683e-05
3.06831e-05
2.79281e-05
2.67133e-05
2.62958e-05
2.61202e-05
2.58424e-05
2.53446e-05
2.46955e-05
2.40586e-05
2.35954e-05
2.34145e-05
2.35644e-05
2.405e-05
2.48488e-05
2.59136e-05
2.71646e-05
2.849e-05
2.97681e-05
3.09026e-05
3.18478e-05
3.26062e-05
3.32076e-05
3.36882e-05
3.4081e-05
3.4413e-05
3.4706e-05
3.49782e-05
3.52469e-05
3.55285e-05
3.58427e-05
3.62068e-05
3.66526e-05
3.71923e-05
3.79025e-05
3.8749e-05
3.99744e-05
4.12816e-05
4.34508e-05
4.52704e-05
3.49059e-05
3.07184e-05
2.77829e-05
2.56199e-05
2.40539e-05
2.30805e-05
2.27948e-05
2.33464e-05
2.49468e-05
2.79964e-05
3.3249e-05
4.1621e-05
5.30078e-05
6.52143e-05
7.46997e-05
7.80982e-05
7.35166e-05
6.31805e-05
5.10376e-05
4.05657e-05
3.32115e-05
2.88009e-05
2.65512e-05
2.56544e-05
2.54452e-05
2.54228e-05
2.52708e-05
2.48769e-05
2.43051e-05
2.37197e-05
2.32824e-05
2.31088e-05
2.32554e-05
2.37339e-05
2.45264e-05
2.5589e-05
2.6845e-05
2.81856e-05
2.94907e-05
3.06629e-05
3.16519e-05
3.24542e-05
3.30949e-05
3.36082e-05
3.40267e-05
3.43783e-05
3.46863e-05
3.49702e-05
3.52485e-05