/*--------------------------------*- C++ -*----------------------------------*\
| =========                 |                                                 |
| \\      /  F ield         | OpenFOAM: The Open Source CFD Toolbox           |
|  \\    /   O peration     | Version:  2.4.0                                 |
|   \\  /    A nd           | Web:      www.OpenFOAM.org                      |
|    \\/     M anipulation  |                                                 |
\*---------------------------------------------------------------------------*/
FoamFile
{
    version     2.0;
    format      ascii;
    class       volScalarField;
    location    "6.95";
    object      epsilon;
}
// * * * * * * * * * * * * * * * * * * * * * * * * * * * * * * * * * * * * * //

dimensions      [0 2 -3 0 0 0 0];

internalField   nonuniform List<scalar> 
6000
(
0.995187
0.381741
0.0487724
0.00581038
0.000779668
0.00296932
0.00186492
0.00352765
0.00382857
0.00524385
0.00617533
0.00768032
0.00912127
0.0109693
0.0129393
0.0151911
0.0175893
0.0201801
0.0229082
0.0257897
0.0288303
0.0322355
0.0359614
0.0398505
0.0439023
0.0481153
0.0524864
0.0570151
0.0617004
0.0665423
0.0715622
0.0767423
0.0820634
0.0875268
0.0931242
0.098848
0.104687
0.110636
0.116677
0.122815
0.129014
0.135316
0.141629
0.148077
0.154517
0.160993
0.174643
0.192433
0.211256
0.235367
0.259642
0.29469
0.326696
0.38279
0.425746
0.52721
0.585379
0.800167
0.884762
1.51965
0.558285
0.355066
0.0228308
0.00519999
0.000362565
0.000900068
0.000832619
0.00130138
0.00157731
0.00205511
0.00251579
0.00308848
0.003729
0.0044743
0.00531214
0.00623902
0.00724453
0.00832028
0.0094607
0.0106632
0.0119365
0.0133154
0.0147872
0.0163215
0.0179174
0.0195751
0.021295
0.0230786
0.0249274
0.026845
0.0288454
0.0309386
0.033104
0.0353435
0.0376575
0.0400468
0.0425117
0.0450536
0.0476725
0.0503724
0.0531514
0.0560214
0.0589728
0.0620366
0.065216
0.0685578
0.0737014
0.079853
0.0865151
0.0944191
0.10288
0.113612
0.124831
0.140559
0.156344
0.181753
0.206939
0.252772
0.304543
0.413109
0.416734
0.411498
0.0306048
0.00379037
0.000291254
0.000527532
0.000606026
0.000876432
0.00111774
0.00144205
0.00179364
0.00220899
0.00268791
0.0032398
0.00386441
0.00455452
0.00530452
0.00610679
0.00695779
0.00785522
0.00880325
0.0098129
0.0108776
0.0119862
0.0131383
0.0143341
0.0155745
0.0168608
0.018195
0.0195808
0.0210279
0.0225385
0.0241032
0.0257236
0.0274008
0.0291359
0.0309304
0.0327862
0.0347047
0.0366894
0.0387421
0.04087
0.0430748
0.0453732
0.0477959
0.050364
0.0537874
0.0576951
0.0619707
0.0668112
0.0721476
0.0784245
0.0854323
0.0941057
0.103995
0.116999
0.132744
0.154228
0.186221
0.230023
0.367367
0.406321
0.0520336
0.00234204
0.000281004
0.000419822
0.000527541
0.000740876
0.000960604
0.00123733
0.00154624
0.00190894
0.00232875
0.00281287
0.00336025
0.00396522
0.00462213
0.00532474
0.00606968
0.00685495
0.0076826
0.00855697
0.00947384
0.0104275
0.0114178
0.012445
0.0135098
0.0146136
0.0157583
0.0169472
0.0181873
0.0194781
0.0208146
0.0221979
0.023629
0.0251092
0.0266397
0.0282222
0.0298585
0.0315513
0.0333032
0.0351197
0.0370058
0.038974
0.0410668
0.0432672
0.0459959
0.0490253
0.0523539
0.0560168
0.0601165
0.0647295
0.0700648
0.0762151
0.0837236
0.0925448
0.104462
0.11829
0.141918
0.167898
0.343018
0.37638
0.0745094
0.00179296
0.000297635
0.000382864
0.0004981
0.000688427
0.000895875
0.00115283
0.00144154
0.0017812
0.0021738
0.00262719
0.00313895
0.00370474
0.0043186
0.00497519
0.00567106
0.00640441
0.00717604
0.00798769
0.00883622
0.00971821
0.0106335
0.0115823
0.0125655
0.0135842
0.0146401
0.0157364
0.0168781
0.0180637
0.01929
0.0205578
0.0218682
0.0232219
0.0246202
0.0260643
0.0275557
0.0290969
0.0306904
0.0323407
0.0340545
0.0358427
0.0377506
0.0397321
0.0420853
0.0446496
0.0474691
0.0505139
0.0539485
0.0577052
0.0621405
0.0670319
0.0732551
0.0800767
0.0899415
0.100288
0.119605
0.137968
0.329443
0.340315
0.0978913
0.0027524
0.000346893
0.000374945
0.000492265
0.000670959
0.000871564
0.00111957
0.00139838
0.00172737
0.00210677
0.0025454
0.00303982
0.00358667
0.00417974
0.00481424
0.00548665
0.00619522
0.00693999
0.0077214
0.00853694
0.00938429
0.0102633
0.0111742
0.0121177
0.0130949
0.0141074
0.0151578
0.0162501
0.017382
0.0185515
0.0197592
0.0210056
0.0222915
0.0236176
0.0249849
0.0263946
0.0278488
0.0293497
0.0309013
0.0325111
0.0341897
0.0359776
0.0378136
0.039931
0.0422069
0.0447055
0.0473683
0.0503822
0.0536163
0.0574824
0.061623
0.0670344
0.0727015
0.0812824
0.0896927
0.10639
0.120632
0.321263
0.305847
0.115079
0.00802466
0.000474045
0.000385395
0.000501798
0.000672898
0.000869807
0.00111405
0.00138857
0.00171327
0.00208694
0.00251925
0.00300613
0.00354494
0.00412931
0.00475478
0.00541778
0.00611652
0.00685052
0.0076195
0.00842132
0.00925424
0.0101181
0.0110132
0.01194
0.0128995
0.0138933
0.0149238
0.0159935
0.0171001
0.0182421
0.0194198
0.0206335
0.0218835
0.0231704
0.0244947
0.0258574
0.0272599
0.0287043
0.0301942
0.0317375
0.0333454
0.0350463
0.036779
0.038734
0.0408127
0.0430881
0.045489
0.0482089
0.051088
0.0545561
0.0581963
0.0630422
0.06796
0.0756566
0.0828467
0.0977645
0.109436
0.315829
0.275756
0.126878
0.0179646
0.000795368
0.000414206
0.000524478
0.000688474
0.000883358
0.00112659
0.00140016
0.00172434
0.00209678
0.00252783
0.00301315
0.00355058
0.00413369
0.00475825
0.00542058
0.00611882
0.00685213
0.00761979
0.00841984
0.0092509
0.0101128
0.0110057
0.0119301
0.0128869
0.0138775
0.0149039
0.0159677
0.0170665
0.0181991
0.0193655
0.0205657
0.0217997
0.0230676
0.0243697
0.0257063
0.0270787
0.0284886
0.0299392
0.0314388
0.0329988
0.0346313
0.0362874
0.0381228
0.0400568
0.0421657
0.0443736
0.0468727
0.0494919
0.0526613
0.055941
0.0603653
0.0647558
0.0718011
0.0781532
0.0917669
0.101669
0.311896
0.250638
0.13408
0.0307505
0.0016001
0.000469563
0.000561309
0.000715906
0.000909278
0.00115291
0.00142763
0.00175367
0.00212781
0.00256094
0.00304863
0.00358914
0.00417603
0.00480515
0.00547275
0.0061769
0.00691643
0.00769032
0.00849675
0.0093345
0.0102034
0.0111035
0.0120352
0.0129994
0.0139971
0.0150304
0.0160996
0.0172024
0.0183378
0.0195054
0.0207049
0.021936
0.0231982
0.0244916
0.0258161
0.0271724
0.028562
0.0299877
0.0314583
0.0329832
0.0345603
0.0361568
0.0378993
0.0397213
0.041699
0.0437562
0.0460803
0.0484977
0.051431
0.0544348
0.0585284
0.0625244
0.0690654
0.0748038
0.0874063
0.0960037
0.3089
0.230189
0.13743
0.0445512
0.00367651
0.00057389
0.000616161
0.000755649
0.000946833
0.00119132
0.00146847
0.00179794
0.00217578
0.0026133
0.00310615
0.00365292
0.00424718
0.00488484
0.00556206
0.00627677
0.00702759
0.00781323
0.00863195
0.00948261
0.010365
0.0112791
0.0122252
0.013204
0.0142166
0.0152645
0.0163472
0.0174625
0.0186093
0.019787
0.0209948
0.022232
0.023498
0.0247921
0.0261139
0.0274637
0.0288427
0.0302533
0.0317046
0.0332008
0.0347324
0.0362801
0.0379474
0.0396783
0.0415479
0.0434817
0.045661
0.0479139
0.0506523
0.0534348
0.0572582
0.0609445
0.0670787
0.0723445
0.084128
0.0917109
0.306552
0.213786
0.137733
0.0574816
0.00838215
0.000781524
0.000696827
0.000809982
0.000996754
0.00124167
0.00152188
0.00185576
0.0022387
0.00268228
0.00318232
0.00373772
0.00434208
0.0049913
0.00568145
0.00641032
0.0071763
0.00797794
0.00881348
0.00968182
0.0105827
0.0115159
0.0124818
0.0134809
0.014514
0.0155824
0.0166847
0.0178189
0.0189835
0.0201778
0.0214005
0.0226506
0.0239269
0.0252284
0.0265542
0.0279042
0.0292792
0.0306813
0.0321201
0.0335894
0.0350837
0.0365898
0.0381934
0.0398473
0.0416243
0.043453
0.0455077
0.0476212
0.050193
0.0527906
0.0563856
0.0598186
0.0656137
0.0705
0.0815967
0.0883596
0.304676
0.200747
0.135799
0.0685527
0.0149379
0.00121098
0.0008178
0.000883268
0.00106107
0.00130496
0.0015882
0.001927
0.00231596
0.00276679
0.00327557
0.0038414
0.00445799
0.00512116
0.00582687
0.00657276
0.00735703
0.00817805
0.00903401
0.00992383
0.0108471
0.0118037
0.0127936
0.0138173
0.0148754
0.0159691
0.0170957
0.0182535
0.0194409
0.0206567
0.0218993
0.0231672
0.0244587
0.0257724
0.027107
0.0284618
0.0298374
0.0312355
0.0326647
0.0341092
0.0355715
0.0370406
0.0385885
0.0401747
0.0418696
0.0436055
0.0455496
0.0475408
0.0499658
0.0524035
0.0557997
0.0590185
0.0645226
0.0690934
0.0795976
0.0856774
0.303153
0.19044
0.132364
0.0772487
0.0227595
0.00215189
0.00100653
0.000982854
0.00114325
0.00138323
0.0016687
0.00201244
0.00240794
0.00286685
0.0033855
0.00396318
0.00459367
0.00527272
0.00599614
0.00676141
0.00756654
0.0084097
0.00928906
0.0102035
0.0111524
0.0121356
0.013153
0.0142049
0.0152917
0.0164142
0.017569
0.0187542
0.0199682
0.0212093
0.0224755
0.0237648
0.0250752
0.0264047
0.0277514
0.0291142
0.0304935
0.0318906
0.0333101
0.0347322
0.0361659
0.0376008
0.0390981
0.0406228
0.0422428
0.0438941
0.0457375
0.0476181
0.0499104
0.0522057
0.0554247
0.0584566
0.0637047
0.0680053
0.0779865
0.0834842
0.301904
0.182322
0.128047
0.0834406
0.03097
0.00436522
0.00131759
0.00112088
0.0012487
0.00147973
0.00176561
0.00211371
0.00251583
0.00298327
0.00351259
0.0041032
0.00474894
0.00544543
0.00618835
0.00697497
0.0078031
0.00867075
0.00957599
0.0105176
0.0114949
0.0125075
0.0135553
0.0146383
0.0157568
0.0169111
0.018097
0.0193127
0.0205562
0.0218255
0.0231181
0.0244317
0.0257635
0.0271111
0.0284723
0.0298452
0.0312303
0.032628
0.0340359
0.0354379
0.0368449
0.0382472
0.039697
0.0411642
0.042714
0.0442863
0.0460358
0.0478138
0.0499834
0.0521487
0.0552063
0.0580712
0.0630891
0.0671521
0.0766631
0.0816558
0.300871
0.175946
0.123332
0.0872557
0.0390721
0.00815479
0.00185677
0.0013177
0.00138556
0.00159922
0.00188217
0.00223329
0.00264158
0.00311764
0.00365808
0.00426238
0.00492443
0.00563964
0.00640352
0.00721314
0.0080661
0.00896022
0.00989344
0.0108644
0.0118724
0.0129168
0.0139973
0.0151139
0.0162666
0.0174551
0.0186745
0.019923
0.0211984
0.0224981
0.0238192
0.0251589
0.026514
0.0278814
0.0292584
0.0306428
0.0320346
0.0334321
0.0348277
0.0362107
0.0375919
0.038962
0.0403663
0.0417782
0.0432609
0.0447576
0.0464177
0.0480986
0.0501529
0.0521969
0.0551048
0.0578169
0.062624
0.0664735
0.075555
0.0801037
0.300012
0.170949
0.118573
0.0889779
0.0465835
0.0134114
0.00283339
0.00160836
0.00156621
0.00174852
0.00202293
0.00237462
0.00278795
0.00327224
0.0038239
0.00444234
0.00512144
0.00585637
0.00664243
0.00747644
0.00835577
0.00927802
0.010241
0.0112432
0.0122838
0.0133619
0.0144772
0.0156295
0.0168184
0.018043
0.0192979
0.020581
0.0218899
0.0232217
0.0245728
0.0259399
0.0273194
0.0287075
0.0301012
0.0314976
0.0328965
0.0342906
0.0356741
0.0370384
0.0383939
0.0397315
0.0410909
0.0424487
0.043866
0.0452892
0.0468628
0.0484502
0.0503943
0.0523231
0.0550898
0.0576596
0.0622706
0.0659246
0.0746091
0.0787634
0.299295
0.167042
0.114014
0.0889751
0.0530906
0.0196668
0.00468281
0.00205496
0.00180966
0.00193745
0.00219416
0.00254237
0.00295865
0.00345018
0.00401269
0.00464537
0.00534197
0.00609734
0.00690652
0.00776603
0.008673
0.00962481
0.0106191
0.0116541
0.0127289
0.0138424
0.0149941
0.0161837
0.0174106
0.0186728
0.0199645
0.0212837
0.0226274
0.0239923
0.0253744
0.0267697
0.0281741
0.0295833
0.0309937
0.032402
0.0338063
0.0351949
0.0365659
0.0379111
0.0392403
0.0405444
0.0418589
0.0431628
0.0445152
0.0458658
0.0473547
0.0488509
0.0506882
0.0525061
0.0551381
0.0575732
0.0619991
0.0654714
0.0737852
0.0775864
0.298693
0.163995
0.109807
0.0876446
0.0583028
0.0264147
0.0076644
0.00276725
0.0021457
0.00218013
0.00240443
0.00274274
0.00315852
0.00365548
0.0042279
0.00487447
0.00558864
0.00636486
0.00719781
0.0080837
0.00901933
0.0100018
0.0110286
0.0120978
0.0132081
0.0143583
0.0155478
0.016776
0.0180423
0.0193431
0.0206729
0.022029
0.0234084
0.024807
0.0262204
0.0276441
0.0290735
0.0305035
0.0319303
0.0333498
0.0347559
0.036138
0.0374957
0.0388208
0.0401224
0.0413915
0.0426603
0.0439097
0.0451972
0.0464753
0.0478804
0.0492864
0.0510193
0.0527292
0.055231
0.057537
0.0617864
0.0650876
0.0730523
0.0765356
0.298187
0.161625
0.106034
0.0853715
0.0620697
0.0331717
0.0117476
0.00393917
0.00262182
0.00249724
0.00266554
0.00298394
0.00339383
0.00389327
0.00447387
0.00513342
0.00586481
0.00666193
0.00751899
0.00843181
0.00939685
0.0104109
0.0114712
0.0125755
0.0137224
0.0149104
0.0161387
0.0174066
0.0187133
0.0200534
0.0214219
0.0228155
0.0242308
0.0256634
0.0271082
0.0285601
0.0300139
0.0314641
0.0329063
0.0343345
0.0357396
0.0371139
0.038457
0.0397603
0.0410325
0.0422649
0.0434866
0.0446803
0.0459022
0.0471073
0.0484286
0.0497449
0.0513748
0.0529784
0.0553536
0.0575346
0.0616139
0.0647523
0.0723863
0.0755822
0.297761
0.159789
0.102727
0.0825017
0.0643738
0.0394961
0.0166808
0.00585966
0.00331455
0.00291921
0.00299381
0.00327691
0.00367267
0.00417005
0.00475604
0.00542692
0.00617461
0.00699222
0.00787335
0.00881334
0.00980822
0.0108544
0.0119489
0.0130891
0.0142733
0.0154999
0.0167677
0.018076
0.0194238
0.0208036
0.022211
0.0236423
0.0250936
0.0265599
0.0280355
0.0295149
0.0309923
0.0324615
0.0339173
0.03535
0.0367525
0.0381175
0.0394439
0.0407235
0.0419642
0.0431576
0.0443304
0.0454669
0.046622
0.0477531
0.0489902
0.0502165
0.0517442
0.0532426
0.0554935
0.0575525
0.0614666
0.0644488
0.071768
0.0747034
0.2974
0.158373
0.0998842
0.0793256
0.0653098
0.0450217
0.0221992
0.00871301
0.0043472
0.00349139
0.00341199
0.00363619
0.00400548
0.00449401
0.00508115
0.00576075
0.00652308
0.00736021
0.00826489
0.00923189
0.0102567
0.0113353
0.0124643
0.0136408
0.0148628
0.0161283
0.0174361
0.0187852
0.0201742
0.0215939
0.0230403
0.0245089
0.0259957
0.0274951
0.0290006
0.0305064
0.0320059
0.0334925
0.034958
0.0363927
0.0377906
0.0391439
0.0404515
0.0417048
0.0429116
0.0440634
0.0451852
0.0462625
0.0473492
0.0484048
0.0495569
0.0506927
0.0521184
0.0535121
0.0556404
0.0575794
0.0613323
0.0641637
0.0711818
0.0738808
0.297095
0.15729
0.0974811
0.0760723
0.0650548
0.0494781
0.0279756
0.0124964
0.00591558
0.00428145
0.00395195
0.00408126
0.00440573
0.0048755
0.00545756
0.00614193
0.0069163
0.00777125
0.0086984
0.00969176
0.0107461
0.011857
0.0130205
0.0142334
0.0154933
0.0167979
0.0181457
0.0195357
0.0209657
0.022425
0.0239099
0.0254152
0.0269366
0.0284679
0.0300021
0.0315326
0.0330525
0.0345529
0.0360246
0.037459
0.0388499
0.040189
0.0414749
0.0426993
0.0438693
0.0449766
0.0460449
0.0470608
0.0480772
0.0490558
0.0501217
0.051166
0.0524896
0.0537787
0.0557855
0.0576061
0.0612008
0.063886
0.0706151
0.0730996
0.296836
0.156468
0.0954802
0.072911
0.0638366
0.0527025
0.033654
0.0170888
0.00818138
0.00538942
0.0046585
0.00463819
0.00489091
0.00532753
0.00589557
0.00657903
0.00736158
0.00823174
0.00917953
0.010198
0.011281
0.0124236
0.0136211
0.0148701
0.0161676
0.017511
0.0188985
0.0203291
0.0217997
0.0232978
0.0248203
0.0263613
0.0279161
0.0294778
0.0310387
0.032592
0.0341289
0.0356392
0.0371145
0.0385458
0.0399267
0.0412487
0.04251
0.0437023
0.0448323
0.0458922
0.0469042
0.0478562
0.0488002
0.0496997
0.0506781
0.0516299
0.0528508
0.0540353
0.0559213
0.0576246
0.0610634
0.0636062
0.0700575
0.0723475
0.296615
0.155852
0.0938377
0.0699573
0.0619034
0.0546413
0.0388862
0.0222626
0.011238
0.00694629
0.0055946
0.00534192
0.00548361
0.00586654
0.00640793
0.00708244
0.00786768
0.00874923
0.00971488
0.0107564
0.0118667
0.0130397
0.0142705
0.0155547
0.0168891
0.0182706
0.0196971
0.0211677
0.0226776
0.0242136
0.0257724
0.0273475
0.0289338
0.0305239
0.0321094
0.0336821
0.0352319
0.0367491
0.0382249
0.0396501
0.0410177
0.0423191
0.0435524
0.0447092
0.045796
0.046805
0.0477579
0.0486432
0.0495125
0.050331
0.0512203
0.0520783
0.0531961
0.0542754
0.0560412
0.057628
0.0609129
0.0633169
0.0695005
0.0716142
0.296427
0.155399
0.0925085
0.0672817
0.0594975
0.0553411
0.0433649
0.0277251
0.0150888
0.00907422
0.00684775
0.00623899
0.00621306
0.00651318
0.00701031
0.00766473
0.00844503
0.00933262
0.0103122
0.0113739
0.012509
0.0137108
0.0149732
0.0162914
0.0176615
0.0190799
0.0205442
0.0220537
0.0236015
0.0251737
0.0267671
0.0283743
0.0299899
0.031606
0.0332124
0.0348002
0.0363596
0.0378804
0.0393534
0.0407688
0.0421195
0.0433967
0.0445982
0.0457158
0.0467557
0.0477104
0.048601
0.0494169
0.050209
0.0509444
0.051743
0.0525059
0.0535197
0.0544936
0.0561394
0.0576104
0.060743
0.0630114
0.0689366
0.0708912
0.296266
0.155074
0.0914487
0.0649191
0.0568371
0.0549315
0.0468521
0.0331506
0.0196313
0.0118741
0.00851344
0.00739082
0.00711692
0.00729334
0.00772197
0.00834107
0.00910606
0.00999238
0.0109805
0.0120582
0.0132151
0.0144429
0.0157347
0.017085
0.0184889
0.0199425
0.021443
0.0229898
0.0245734
0.0261797
0.0278055
0.0294422
0.0310845
0.0327221
0.0343455
0.035945
0.0375104
0.039031
0.0404973
0.0418989
0.0432288
0.0444777
0.0456434
0.0467179
0.047707
0.0486038
0.0494289
0.0501723
0.0508848
0.0515348
0.0522411
0.0529076
0.0538168
0.0546848
0.0562107
0.0575665
0.0605483
0.0626841
0.0683599
0.0701712
0.296128
0.15485
0.0906173
0.0628782
0.054104
0.053601
0.0491985
0.0382091
0.0246732
0.015388
0.0106914
0.00886825
0.00824301
0.00823925
0.00856646
0.0091297
0.00986547
0.0107407
0.0117301
0.0128184
0.0139925
0.0152429
0.0165611
0.0179407
0.019376
0.0208624
0.0223968
0.0239791
0.0255957
0.0272334
0.0288887
0.0305515
0.0322159
0.0338714
0.0355079
0.0371153
0.0386826
0.0401989
0.041654
0.0430377
0.0443422
0.0455585
0.0466842
0.0477112
0.0486457
0.0494808
0.0502369
0.0509049
0.0515351
0.0520976
0.0527098
0.0532787
0.0540825
0.0548442
0.0562505
0.0574918
0.0603241
0.0623303
0.0677649
0.069448
0.296009
0.154706
0.0899778
0.0611492
0.0514392
0.0515703
0.0503523
0.0425945
0.0299555
0.0195777
0.0134654
0.0107498
0.00964703
0.00939046
0.00957237
0.0100524
0.0107406
0.0115919
0.0125731
0.0136646
0.0148503
0.0161185
0.0174591
0.0188644
0.020328
0.0218441
0.0234095
0.0250247
0.0266707
0.0283363
0.0300166
0.0317015
0.0333841
0.0350534
0.0366989
0.0383096
0.0398744
0.0413817
0.0428211
0.0441819
0.0454565
0.0466355
0.0477165
0.0486918
0.0495674
0.0503368
0.0510205
0.05161
0.0521554
0.0526282
0.0531448
0.0536147
0.0543124
0.0549677
0.0562546
0.057382
0.0600662
0.0619459
0.0671473
0.0687163
0.295906
0.154624
0.0894977
0.0597106
0.0489432
0.0490676
0.0503566
0.0460515
0.0351777
0.0243212
0.0168793
0.0131129
0.0113911
0.0107918
0.0107737
0.0111354
0.0117518
0.0125624
0.013523
0.0146085
0.0157983
0.0170781
0.018436
0.0198626
0.0213502
0.0228923
0.024485
0.0261283
0.0277998
0.0294891
0.0311903
0.0328931
0.0345893
0.0362679
0.0379175
0.0395268
0.0410839
0.0425771
0.0439957
0.0453286
0.0465681
0.0477049
0.0487364
0.0496554
0.0504677
0.0511676
0.0517753
0.0522831
0.0527412
0.0531222
0.0535415
0.0539115
0.0545026
0.0550512
0.056219
0.0572336
0.059771
0.0615271
0.066503
0.0679714
0.295817
0.154591
0.089149
0.0585341
0.0466795
0.0463068
0.0493362
0.0483992
0.0400246
0.0294217
0.0209174
0.0160204
0.0135397
0.0124934
0.0122081
0.0124076
0.0129225
0.0136712
0.0145958
0.0156632
0.0168476
0.0181313
0.0194997
0.0209417
0.022448
0.0240112
0.0256266
0.0272932
0.0289854
0.0306938
0.032411
0.0341267
0.0358316
0.0375142
0.0391627
0.040765
0.0423091
0.0437828
0.0451749
0.0464745
0.0476735
0.0487628
0.0497399
0.0505978
0.0513424
0.0519687
0.0524968
0.0529199
0.053288
0.0535753
0.0538959
0.054165
0.0546491
0.0550912
0.0561403
0.057043
0.0594352
0.061071
0.0658288
0.0672092
0.295739
0.154596
0.088908
0.0575888
0.0446816
0.0434726
0.0474763
0.0495465
0.0441937
0.0346251
0.0254947
0.019503
0.016152
0.0145479
0.0139171
0.0139013
0.0142782
0.014939
0.0158081
0.0168427
0.0180099
0.0192879
0.0206586
0.0221089
0.0236275
0.0252058
0.0268384
0.0285226
0.0302302
0.0319521
0.03368
0.0354029
0.0371108
0.0387917
0.0404331
0.0420227
0.0435478
0.0449959
0.0463557
0.0476161
0.048769
0.0498053
0.0507227
0.0515145
0.0521871
0.0527355
0.0531806
0.0535159
0.0537916
0.0539832
0.0542039
0.0543714
0.0547482
0.055084
0.0560152
0.0568072
0.0590558
0.0605748
0.0651216
0.0664262
0.295671
0.154629
0.0887543
0.0568433
0.0429591
0.040712
0.044997
0.0494983
0.0474239
0.0396403
0.0304567
0.0235449
0.0192705
0.0170056
0.0159443
0.0156514
0.0158469
0.0163882
0.0171786
0.0181623
0.0192982
0.0205586
0.0219219
0.0233718
0.0248951
0.0264813
0.0281247
0.0298199
0.0315367
0.0332658
0.034998
0.036722
0.0384266
0.0400993
0.0417273
0.0432976
0.0447973
0.0462135
0.0475348
0.0487498
0.0498506
0.0508282
0.0516805
0.0524013
0.052997
0.0534637
0.053822
0.0540666
0.0542476
0.0543418
0.0544614
0.0545267
0.0547963
0.0550265
0.0558406
0.0565234
0.0586303
0.0600359
0.0643789
0.0656193
0.295612
0.154684
0.0886709
0.0562679
0.0415049
0.0381312
0.0421266
0.0483509
0.0495214
0.0441634
0.0355881
0.0280729
0.0229086
0.0199075
0.0183315
0.017694
0.017658
0.018043
0.0187269
0.0196383
0.0207258
0.0219549
0.0232989
0.0247383
0.0262572
0.0278433
0.0294901
0.0311884
0.032907
0.0346363
0.036366
0.0380839
0.0397782
0.0414359
0.0430435
0.0445876
0.046055
0.0474324
0.0487084
0.0498716
0.0509141
0.0518272
0.0526089
0.0532535
0.0537678
0.0541485
0.0544166
0.0545677
0.0546517
0.054647
0.0546645
0.0546275
0.0547901
0.0549155
0.0556135
0.0561891
0.0581563
0.0594523
0.0635985
0.0647858
0.29556
0.154754
0.0886438
0.0558354
0.0403006
0.0357984
0.0390794
0.0462759
0.0503797
0.047904
0.0406274
0.0329534
0.027039
0.0232756
0.0211139
0.0200634
0.0197416
0.0199283
0.0204737
0.0212879
0.022307
0.0234884
0.0247995
0.0262164
0.0277204
0.0292968
0.0309386
0.0326311
0.0343434
0.0360649
0.0377842
0.0394883
0.0411647
0.0427997
0.0443794
0.0458899
0.0473176
0.0486491
0.0498728
0.0509775
0.0519552
0.0527976
0.053503
0.0540662
0.0544945
0.0547852
0.0549598
0.0550146
0.0549996
0.0548947
0.0548095
0.0546702
0.0547262
0.0547479
0.0553314
0.0558018
0.0576317
0.0588222
0.0627782
0.0639231
0.295514
0.154836
0.0886609
0.0555216
0.0393217
0.0337486
0.0360384
0.0434963
0.0499913
0.0506128
0.0452854
0.0379963
0.0315858
0.0271038
0.0243136
0.0227885
0.0221251
0.0220684
0.0224395
0.0231282
0.0240561
0.025171
0.0264332
0.0278142
0.0292911
0.030847
0.0324743
0.0341506
0.0358475
0.0375523
0.0392525
0.0409345
0.0425846
0.0441887
0.0457324
0.0472013
0.0485814
0.0498595
0.0510236
0.0520627
0.052969
0.0537345
0.0543579
0.0548346
0.0551723
0.055369
0.0554468
0.0554028
0.055287
0.0550807
0.0548925
0.0546511
0.0546015
0.054521
0.0549917
0.0553594
0.0570545
0.0581437
0.0619164
0.0630291
0.295474
0.154924
0.0887123
0.0553052
0.0385405
0.0319913
0.0331453
0.0402585
0.0484469
0.0521085
0.0492686
0.0429639
0.0364204
0.0313489
0.0279316
0.0258877
0.0248314
0.0244851
0.0246437
0.0251756
0.0259869
0.027014
0.0282096
0.029539
0.0309753
0.0324983
0.0340999
0.0357492
0.0374203
0.0390987
0.0407704
0.0424209
0.0440358
0.0456002
0.0470992
0.048518
0.0498425
0.0510591
0.0521561
0.0531224
0.0539505
0.0546328
0.0551684
0.0555534
0.0557959
0.055895
0.0558728
0.0557277
0.0555095
0.0552012
0.0549098
0.054567
0.0544129
0.0542321
0.054592
0.0548598
0.0564231
0.0574154
0.0610116
0.0621019
0.295439
0.155018
0.0887898
0.0551681
0.0379295
0.0305171
0.0304983
0.0368045
0.0459232
0.0522993
0.0523047
0.0475858
0.0413636
0.0359244
0.0319409
0.0293631
0.027874
0.0271951
0.0271025
0.0274447
0.0281117
0.029028
0.030137
0.0313977
0.0327781
0.0342548
0.0358175
0.0374281
0.0390623
0.0407036
0.0423365
0.0439456
0.0455156
0.0470308
0.048476
0.0498359
0.0510961
0.0522431
0.053265
0.0541511
0.0548941
0.0554869
0.055929
0.0562173
0.0563603
0.0563579
0.0562329
0.0559846
0.0556629
0.055252
0.0548576
0.0544144
0.0541574
0.0538785
0.05413
0.0543011
0.0557358
0.0566362
0.0600624
0.0611398
0.295408
0.155113
0.0888866
0.0550948
0.0374623
0.0293043
0.0281542
0.0333484
0.0426595
0.0511959
0.0541705
0.0515777
0.0461923
0.040698
0.0362797
0.0331943
0.0312527
0.0302066
0.0298268
0.0299465
0.0304406
0.0312212
0.0322223
0.0333956
0.0347036
0.036119
0.0376285
0.0391877
0.0407728
0.0423653
0.0439484
0.0455054
0.0470202
0.0484764
0.0498581
0.0511498
0.0523369
0.0534057
0.0543446
0.055143
0.0557939
0.0562909
0.0566339
0.0568204
0.0568597
0.0567526
0.0565222
0.056169
0.0557427
0.0552291
0.0547324
0.0541902
0.0538321
0.0534577
0.0536038
0.0536818
0.0549914
0.0558047
0.0590677
0.0601413
0.29538
0.155209
0.088997
0.0550724
0.037115
0.0283249
0.0261356
0.0300606
0.0389271
0.0489131
0.0547184
0.0546648
0.0506511
0.0454927
0.0408471
0.0373326
0.0349486
0.033516
0.0328198
0.0326865
0.0329795
0.0335992
0.0344701
0.0355361
0.036754
0.0380921
0.039533
0.041027
0.0425499
0.0440813
0.0456028
0.0470964
0.0485451
0.0499318
0.05124
0.0524539
0.0535588
0.0545408
0.0553885
0.0560916
0.0566437
0.0570385
0.0572768
0.0573569
0.0572885
0.0570735
0.0567355
0.056276
0.0557444
0.0551285
0.0545304
0.053891
0.0534342
0.0529675
0.0530112
0.0530001
0.0541885
0.0549202
0.0580265
0.059105
0.295356
0.155303
0.0891164
0.0550897
0.0368663
0.0275481
0.024439
0.0270609
0.034997
0.0456568
0.0538977
0.056608
0.0544682
0.0500928
0.0455018
0.0416968
0.0389195
0.0371032
0.0360733
0.0356627
0.0357288
0.0361632
0.0368814
0.0378198
0.0389291
0.0401733
0.0415291
0.0429432
0.0443901
0.0458474
0.0472948
0.0487133
0.0500845
0.0513909
0.0526153
0.0537416
0.0547548
0.0556413
0.0563897
0.05699
0.0574363
0.057723
0.0578514
0.0578205
0.0576408
0.0573152
0.0568676
0.0563007
0.0556639
0.0549462
0.0542482
0.053514
0.0529612
0.0524055
0.0523506
0.0522547
0.0533261
0.0539817
0.056938
0.0580299
0.295335
0.155395
0.0892412
0.0551376
0.036698
0.0269432
0.0230432
0.024419
0.0311105
0.0416996
0.0517668
0.0572315
0.0573762
0.0542539
0.050064
0.0461703
0.0430953
0.0409281
0.0395648
0.0388621
0.0386811
0.0389083
0.0394526
0.0402435
0.0412256
0.0423591
0.0436127
0.0449316
0.0462881
0.0476576
0.0490181
0.0503491
0.0516314
0.0528463
0.0539764
0.055005
0.0559173
0.0566994
0.0573404
0.0578306
0.0581645
0.0583372
0.0583506
0.0582047
0.0579104
0.0574718
0.0569132
0.0562384
0.0554965
0.0546783
0.0538823
0.0530559
0.0524103
0.0517698
0.0516202
0.0514443
0.0524034
0.0529888
0.0558016
0.056915
0.295316
0.155485
0.0893684
0.0552085
0.0365942
0.0264818
0.0219167
0.0221616
0.027459
0.0373458
0.0484918
0.0564481
0.0591365
0.0577169
0.0543211
0.0506011
0.0473754
0.0449266
0.0432538
0.042259
0.0418191
0.0418224
0.0421742
0.042799
0.0436361
0.0446423
0.0457764
0.0469846
0.0482361
0.049504
0.0507645
0.0519956
0.0531769
0.0542892
0.0553142
0.0562353
0.0570372
0.0577064
0.0582321
0.058605
0.0588201
0.0588734
0.0587672
0.0585025
0.0580909
0.0575374
0.0568667
0.056084
0.0552379
0.0543209
0.0534293
0.0525139
0.0517793
0.0510582
0.0508184
0.0505678
0.0514195
0.0519408
0.0546168
0.0557595
0.2953
0.155571
0.0894958
0.0552961
0.0365419
0.0261385
0.0210236
0.0202826
0.0241733
0.0328946
0.0443304
0.0542782
0.0595666
0.0602273
0.0580371
0.0548046
0.0516277
0.0490082
0.047079
0.0458113
0.045113
0.0448833
0.0450291
0.0454722
0.0461482
0.0470113
0.0480093
0.0490916
0.0502236
0.0513761
0.0525234
0.0536421
0.0547107
0.0557091
0.0566187
0.0574223
0.0581048
0.0586526
0.0590553
0.0593042
0.0593947
0.0593234
0.0590935
0.0587068
0.0581756
0.0575059
0.0567228
0.0558327
0.0548837
0.0538701
0.052886
0.0518853
0.0510658
0.0502691
0.0499441
0.0496244
0.0503739
0.0508375
0.0533833
0.0545627
0.295285
0.155653
0.0896215
0.0553954
0.0365298
0.025891
0.0203276
0.0187537
0.0213243
0.0286056
0.0396018
0.050857
0.0585661
0.061558
0.0609662
0.0585702
0.0556901
0.0530546
0.0509559
0.0494585
0.0485185
0.0480576
0.0479908
0.0482413
0.0487431
0.0494479
0.0502961
0.0512382
0.0522368
0.0532605
0.0542819
0.055276
0.0562204
0.057094
0.0578779
0.0585545
0.0591087
0.0595272
0.0597998
0.0599183
0.0598788
0.0596786
0.0593214
0.0588102
0.0581577
0.0573711
0.0564759
0.0554794
0.0544295
0.0533222
0.052249
0.0511674
0.0502677
0.0494008
0.048996
0.0486132
0.0492662
0.0496787
0.052101
0.0533241
0.295272
0.155732
0.0897444
0.0555021
0.0365487
0.0257205
0.0197947
0.0175339
0.0189316
0.0246756
0.0346459
0.0464273
0.0561395
0.0615355
0.0628711
0.0616705
0.0593742
0.0569203
0.0547757
0.0531195
0.0519748
0.0512983
0.0510221
0.0510759
0.051395
0.0519298
0.0526163
0.0534055
0.0542581
0.0551407
0.0560241
0.0568821
0.0576912
0.0584298
0.0590782
0.0596189
0.0600366
0.0603184
0.0604544
0.0604369
0.0602626
0.0599296
0.0594424
0.0588048
0.0580302
0.0571267
0.0561202
0.0550193
0.0538712
0.0526737
0.0515154
0.0503578
0.0493832
0.0484519
0.0479731
0.0475336
0.0480963
0.0484644
0.0507698
0.0520436
0.295261
0.155807
0.0898635
0.0556131
0.036591
0.0256111
0.0193946
0.0165781
0.0169763
0.0212277
0.0297801
0.0413146
0.0524088
0.0600659
0.0635446
0.0638752
0.0624728
0.0604355
0.0584051
0.0566917
0.0554025
0.0545435
0.0540733
0.053935
0.0540696
0.0544273
0.0549435
0.0555699
0.0562657
0.0569962
0.0577308
0.0584423
0.0591061
0.0597001
0.0602042
0.0606007
0.0608747
0.0610131
0.0610067
0.0608484
0.0605355
0.0600668
0.0594476
0.0586825
0.0577857
0.0567661
0.0556502
0.0544475
0.0532045
0.0519209
0.0506825
0.0494542
0.0484105
0.0474212
0.0468747
0.0463854
0.046864
0.0471949
0.0493901
0.0507208
0.295251
0.155877
0.0899781
0.0557257
0.0366505
0.0255497
0.0191014
0.0158412
0.0154156
0.018315
0.0252626
0.0358871
0.0476118
0.057159
0.062835
0.0649692
0.06477
0.0634113
0.0616891
0.0600512
0.0587036
0.0577149
0.0570814
0.0567668
0.0567229
0.056903
0.0572448
0.0577017
0.0582329
0.0588026
0.0593795
0.0599355
0.0604453
0.0608864
0.0612384
0.0614838
0.0616075
0.0615971
0.0614436
0.0611407
0.0606862
0.06008
0.0593277
0.0584351
0.0574169
0.0562831
0.0550602
0.053759
0.0524254
0.0510606
0.0497474
0.0484546
0.0473481
0.0463077
0.0457004
0.0451685
0.0455696
0.0458705
0.0479621
0.0493559
0.295242
0.155944
0.0900879
0.055838
0.0367221
0.0255255
0.018893
0.0152824
0.0141947
0.0159332
0.0212694
0.0305073
0.0420827
0.0529432
0.0606719
0.0647736
0.0660558
0.0656481
0.0644547
0.0630546
0.0617611
0.0607176
0.0599685
0.0595067
0.0593008
0.0593104
0.0594798
0.0597654
0.0601276
0.0605308
0.0609435
0.0613371
0.0616861
0.0619676
0.0621614
0.0622499
0.0622183
0.0620548
0.0617508
0.0613006
0.0607029
0.0599582
0.059073
0.0580539
0.0569162
0.0556709
0.0543446
0.0529494
0.05153
0.0500897
0.0487079
0.0473573
0.046195
0.0451109
0.0444499
0.043883
0.0442137
0.0444919
0.0464867
0.047949
0.295234
0.156007
0.0901926
0.0559487
0.0368019
0.0255295
0.0187514
0.0148658
0.0132561
0.0140388
0.0178892
0.0254844
0.0362131
0.0476676
0.0570896
0.0631707
0.0661439
0.0669471
0.0665179
0.0655425
0.0644411
0.0634404
0.0626422
0.0620774
0.0617379
0.0615941
0.0616003
0.0617185
0.061912
0.0621469
0.062392
0.0626191
0.0628027
0.0629202