/*--------------------------------*- C++ -*----------------------------------*\
| =========                 |                                                 |
| \\      /  F ield         | OpenFOAM: The Open Source CFD Toolbox           |
|  \\    /   O peration     | Version:  2.4.0                                 |
|   \\  /    A nd           | Web:      www.OpenFOAM.org                      |
|    \\/     M anipulation  |                                                 |
\*---------------------------------------------------------------------------*/
FoamFile
{
    version     2.0;
    format      ascii;
    class       volScalarField;
    location    "6.95";
    object      p;
}
// * * * * * * * * * * * * * * * * * * * * * * * * * * * * * * * * * * * * * //

dimensions      [0 2 -2 0 0 0 0];

internalField   nonuniform List<scalar> 
6000
(
-0.125153
0.231671
0.188949
0.208788
0.201467
0.206223
0.203238
0.205162
0.203903
0.204628
0.204081
0.204302
0.20405
0.20409
0.203985
0.204023
0.204064
0.204224
0.204466
0.204843
0.205351
0.206023
0.206877
0.207937
0.209217
0.210739
0.212519
0.214577
0.216929
0.219592
0.222581
0.225905
0.229576
0.233599
0.237973
0.242692
0.247741
0.253099
0.258729
0.264595
0.27062
0.276767
0.282882
0.288969
0.294704
0.300253
0.30493
0.309284
0.311865
0.314336
0.313082
0.313174
0.30471
0.30313
0.279727
0.281797
0.222941
0.249836
0.0938323
0.217848
-0.0988142
0.228256
0.189023
0.208635
0.201488
0.206209
0.20325
0.20516
0.203915
0.204635
0.204095
0.204317
0.204069
0.204111
0.204007
0.204045
0.204086
0.204244
0.204484
0.204857
0.205361
0.206029
0.206879
0.207933
0.209207
0.210722
0.212496
0.214547
0.216891
0.219544
0.222523
0.225843
0.229508
0.233523
0.237888
0.242599
0.247637
0.252984
0.258601
0.264452
0.270459
0.276586
0.282675
0.288734
0.294435
0.299945
0.304585
0.308891
0.311427
0.313829
0.31252
0.312506
0.303983
0.302226
0.278781
0.280517
0.22175
0.247855
0.0924529
0.214428
-0.0819263
0.224802
0.189051
0.208543
0.201497
0.206203
0.203257
0.205165
0.203925
0.20465
0.204112
0.20434
0.204094
0.204142
0.20404
0.204082
0.204123
0.204282
0.20452
0.204892
0.205393
0.206058
0.206903
0.207953
0.209221
0.210729
0.212494
0.214536
0.216871
0.219515
0.222481
0.225785
0.229433
0.233431
0.237778
0.242468
0.247485
0.252808
0.258399
0.264222
0.270198
0.276291
0.282342
0.288361
0.294015
0.299477
0.304064
0.308318
0.310791
0.313132
0.311742
0.311659
0.30303
0.301188
0.277606
0.279215
0.220272
0.246102
0.0904668
0.211562
-0.0697036
0.220949
0.189263
0.208459
0.201498
0.206197
0.203262
0.205173
0.203934
0.204667
0.204128
0.204366
0.204121
0.204175
0.204074
0.204119
0.204161
0.20432
0.204557
0.204927
0.205426
0.206088
0.20693
0.207973
0.209235
0.210736
0.212492
0.214524
0.216848
0.21948
0.222434
0.225722
0.229353
0.233333
0.23766
0.242328
0.247322
0.25262
0.258182
0.263976
0.269919
0.275977
0.281989
0.287967
0.293573
0.298986
0.303515
0.307714
0.310115
0.312395
0.310908
0.310762
0.301994
0.300099
0.276299
0.277878
0.218572
0.244384
0.0880843
0.208929
-0.0578965
0.216823
0.189645
0.208378
0.201497
0.206189
0.203266
0.205182
0.203942
0.204684
0.204143
0.204389
0.204144
0.204204
0.204104
0.204151
0.204193
0.204353
0.204589
0.204957
0.205454
0.206113
0.20695
0.207988
0.209244
0.210737
0.212485
0.214508
0.216821
0.219441
0.222383
0.225657
0.229273
0.233236
0.237545
0.242194
0.247167
0.252442
0.25798
0.263746
0.26966
0.275686
0.281662
0.287602
0.293165
0.298532
0.303005
0.307148
0.309476
0.311695
0.310107
0.309898
0.300978
0.299034
0.274987
0.27656
0.21682
0.242697
0.0856308
0.206484
-0.046312
0.212587
0.190154
0.208281
0.201504
0.206177
0.203271
0.205189
0.203948
0.204699
0.204155
0.204409
0.204163
0.204228
0.204128
0.204178
0.204219
0.204379
0.204614
0.20498
0.205474
0.20613
0.206964
0.207997
0.209246
0.210732
0.212473
0.214487
0.21679
0.2194
0.22233
0.225592
0.229195
0.233144
0.237437
0.242069
0.247023
0.252279
0.257795
0.263538
0.269425
0.275423
0.281367
0.287272
0.292795
0.29812
0.302538
0.306628
0.308885
0.311042
0.309354
0.309081
0.300009
0.298013
0.273716
0.27528
0.215099
0.241047
0.0832341
0.204205
-0.0355716
0.208339
0.190693
0.208158
0.201523
0.206161
0.203276
0.205194
0.203954
0.204711
0.204166
0.204427
0.20418
0.204249
0.204148
0.204201
0.204241
0.204401
0.204634
0.204998
0.20549
0.206143
0.206972
0.208001
0.209244
0.210724
0.212457
0.214463
0.216758
0.219358
0.222278
0.225529
0.229119
0.233055
0.237335
0.241952
0.24689
0.252128
0.257624
0.263347
0.26921
0.275183
0.281097
0.286971
0.292457
0.297741
0.302107
0.306147
0.308335
0.310432
0.308646
0.308309
0.299088
0.297039
0.272496
0.274047
0.213434
0.239449
0.0809374
0.20209
-0.0257321
0.204154
0.191191
0.208016
0.201549
0.206142
0.203282
0.205198
0.203959
0.204723
0.204175
0.204442
0.204193
0.204267
0.204166
0.204219
0.204259
0.204419
0.204649
0.205013
0.205501
0.206152
0.206977
0.208
0.209238
0.210712
0.212438
0.214437
0.216724
0.219315
0.222225
0.225466
0.229046
0.232971
0.237238
0.241842
0.246765
0.251988
0.257467
0.263171
0.269013
0.274963
0.28085
0.286695
0.292146
0.297391
0.301709
0.305701
0.307821
0.309861
0.30798
0.307579
0.298213
0.29611
0.271326
0.272863
0.211829
0.237907
0.0787523
0.20013
-0.0165637
0.200094
0.191597
0.20787
0.201569
0.206124
0.203288
0.205201
0.203964
0.204732
0.204183
0.204455
0.204205
0.204282
0.20418
0.204235
0.204274
0.204433
0.204662
0.205023
0.205509
0.206157
0.206978
0.207997
0.209229
0.210697
0.212417
0.214409
0.216688
0.219272
0.222173
0.225405
0.228976
0.23289
0.237146
0.241738
0.246649
0.251858
0.257322
0.263009
0.268832
0.274761
0.280623
0.286441
0.29186
0.297068
0.301341
0.305285
0.307342
0.309326
0.307352
0.30689
0.297382
0.295224
0.270206
0.271726
0.210286
0.23642
0.076683
0.198307
-0.00791171
0.196198
0.191891
0.207722
0.201585
0.206108
0.203297
0.205203
0.203969
0.204741
0.20419
0.204466
0.204215
0.204295
0.204192
0.204249
0.204286
0.204444
0.204671
0.205031
0.205514
0.206159
0.206976
0.207991
0.209218
0.21068
0.212395
0.21438
0.216652
0.219228
0.222122
0.225346
0.228907
0.232812
0.237059
0.241641
0.24654
0.251737
0.257188
0.26286
0.268666
0.274576
0.280416
0.286208
0.291596
0.29677
0.300999
0.3049
0.306895
0.308824
0.306761
0.306238
0.296593
0.29438
0.269137
0.270633
0.208808
0.234986
0.0747314
0.196606
0.000276559
0.192489
0.192066
0.207553
0.201623
0.206093
0.203308
0.205204
0.203974
0.204749
0.204196
0.204476
0.204224
0.204307
0.204202
0.20426
0.204295
0.204453
0.204679
0.205036
0.205517
0.206158
0.206972
0.207982
0.209205
0.210662
0.21237
0.214349
0.216615
0.219185
0.222072
0.225288
0.228842
0.232739
0.236977
0.24155
0.246439
0.251625
0.257064
0.262723
0.268513
0.274406
0.280225
0.285993
0.291353
0.296495
0.300683
0.30454
0.306477
0.308353
0.306204
0.30562
0.295843
0.293574
0.268115
0.269583
0.207394
0.233601
0.0728971
0.19501
0.00802976
0.188981
0.192125
0.207359
0.201691
0.206076
0.203323
0.205205
0.20398
0.204755
0.204202
0.204485
0.204231
0.204316
0.204211
0.204269
0.204303
0.204461
0.204684
0.205039
0.205517
0.206156
0.206966
0.207972
0.20919
0.210642
0.212345
0.214319
0.216579
0.219142
0.222022
0.225232
0.228779
0.232668
0.236899
0.241464
0.246344
0.251521
0.256949
0.262596
0.268372
0.274249
0.280049
0.285795
0.291129
0.296239
0.300388
0.304205
0.306086
0.30791
0.305679
0.305035
0.295132
0.292804
0.267141
0.268572
0.206044
0.232262
0.0711779
0.193507
0.0153831
0.185684
0.192077
0.207132
0.201791
0.206053
0.203342
0.205206
0.203987
0.204762
0.204208
0.204493
0.204238
0.204325
0.204218
0.204277
0.20431
0.204466
0.204687
0.205041
0.205516
0.206152
0.206959
0.207961
0.209174
0.210621
0.21232
0.214288
0.216542
0.2191
0.221974
0.225177
0.228718
0.232602
0.236825
0.241383
0.246256
0.251424
0.256842
0.262479
0.268242
0.274105
0.279887
0.285613
0.290921
0.296002
0.300114
0.303892
0.305718
0.307492
0.305182
0.304479
0.294455
0.292067
0.26621
0.267597
0.204756
0.230966
0.0695707
0.192083
0.0223716
0.182603
0.19193
0.206865
0.201923
0.206015
0.203368
0.205208
0.203995
0.204768
0.204214
0.204501
0.204244
0.204333
0.204225
0.204284
0.204315
0.204471
0.20469
0.205041
0.205514
0.206147
0.20695
0.207948
0.209158
0.2106
0.212294
0.214257
0.216507
0.219059
0.221927
0.225125
0.22866
0.232538
0.236756
0.241307
0.246173
0.251334
0.256744
0.262371
0.268123
0.273972
0.279738
0.285444
0.290729
0.295781
0.299858
0.303598
0.305373
0.307097
0.304712
0.303949
0.29381
0.29136
0.265321
0.266656
0.203528
0.229709
0.0680716
0.190727
0.029023
0.179741
0.191696
0.206555
0.202069
0.205975
0.203395
0.205213
0.204005
0.204774
0.20422
0.204508
0.204251
0.20434
0.204231
0.20429
0.20432
0.204474
0.204691
0.205041
0.205511
0.206142
0.206941
0.207936
0.209141
0.210579
0.212269
0.214227
0.216472
0.219019
0.221882
0.225075
0.228605
0.232478
0.23669
0.241236
0.246096
0.251251
0.256653
0.262271
0.268012
0.273848
0.279599
0.285287
0.290549
0.295575
0.299619
0.303321
0.305047
0.306723
0.304265
0.303443
0.293196
0.29068
0.264472
0.265746
0.202358
0.22849
0.0666767
0.189429
0.0353591
0.177096
0.191386
0.206202
0.202215
0.205942
0.203419
0.20522
0.204017
0.204781
0.204227
0.204515
0.204257
0.204347
0.204237
0.204295
0.204324
0.204478
0.204693
0.20504
0.205508
0.206136
0.206932
0.207923
0.209125
0.210559
0.212244
0.214198
0.216438
0.218981
0.22184
0.225028
0.228553
0.232421
0.236629
0.24117
0.246025
0.251173
0.256568
0.262178
0.26791
0.273734
0.279471
0.285141
0.290382
0.295382
0.299394
0.30306
0.30474
0.306368
0.303841
0.30296
0.292609
0.290026
0.263661
0.264865
0.201245
0.227304
0.065382
0.18818
0.0413983
0.174664
0.191014
0.205806
0.202352
0.205916
0.203445
0.205231
0.204033
0.204789
0.204236
0.204523
0.204264
0.204354
0.204243
0.204301
0.204329
0.204481
0.204694
0.205039
0.205505
0.20613
0.206923
0.207911
0.209109
0.210539
0.21222
0.21417
0.216406
0.218944
0.221799
0.224983
0.228504
0.232368
0.236572
0.241108
0.245958
0.251101
0.25649
0.262093
0.267815
0.273629
0.279352
0.285005
0.290226
0.295201
0.299182
0.302814
0.304448
0.306029
0.303436
0.302496
0.292049
0.289395
0.262885
0.264009
0.200186
0.226149
0.0641835
0.186973
0.0471572
0.17244
0.190592
0.205373
0.202476
0.205897
0.203474
0.205246
0.204053
0.204798
0.204246
0.204532
0.204272
0.204362
0.20425
0.204308
0.204333
0.204484
0.204696
0.205039
0.205503
0.206125
0.206915
0.2079
0.209094
0.21052
0.212198
0.214144
0.216376
0.21891
0.221761
0.224941
0.228459
0.232319
0.236519
0.241051
0.245897
0.251035
0.256418
0.262014
0.267728
0.273531
0.279242
0.284879
0.29008
0.295031
0.298983
0.302581
0.304171
0.305706
0.30305
0.30205
0.291512
0.288785
0.262143
0.263178
0.19918
0.225022
0.0630773
0.185799
0.0526508
0.170417
0.190133
0.204907
0.202582
0.205884
0.203514
0.20526
0.204078
0.20481
0.204258
0.204542
0.204281
0.204371
0.204257
0.204315
0.204339
0.204489
0.204698
0.20504
0.205501
0.206121
0.206908
0.207889
0.20908
0.210503
0.212177
0.21412
0.216348
0.218878
0.221726
0.224902
0.228417
0.232273
0.23647
0.240999
0.24584
0.250974
0.256352
0.261941
0.267648
0.273441
0.279139
0.284761
0.289944
0.29487
0.298795
0.302359
0.303908
0.305397
0.302681
0.301621
0.290998
0.288194
0.261433
0.262368
0.198225
0.223922
0.0620599
0.184652
0.0578927
0.168588
0.189648
0.204415
0.202665
0.205872
0.203573
0.205269
0.204108
0.204825
0.204273
0.204553
0.204293
0.204381
0.204267
0.204323
0.204346
0.204495
0.204702
0.205042
0.205501
0.206118
0.206903
0.207881
0.209069
0.210489
0.212159
0.214098
0.216323
0.21885
0.221694
0.224867
0.228378
0.232232
0.236425
0.240951
0.245789
0.250919
0.256292
0.261875
0.267574
0.273358
0.279044
0.28465
0.289816
0.294719
0.298616
0.302147
0.303656
0.3051
0.302328
0.301207
0.290505
0.287622
0.260754
0.261579
0.197318
0.222845
0.0611277
0.183526
0.0628954
0.166944
0.189148
0.203902
0.202724
0.205858
0.203648
0.205277
0.204142
0.204844
0.204292
0.204567
0.204306
0.204393
0.204278
0.204333
0.204355
0.204502
0.204708
0.205046
0.205502
0.206118
0.206899
0.207875
0.209059
0.210476
0.212143
0.214079
0.2163
0.218824
0.221665
0.224835
0.228344
0.232195
0.236385
0.240908
0.245743
0.250869
0.256237
0.261815
0.267506
0.273281
0.278956
0.284548
0.289695
0.294576
0.298447
0.301946
0.303416
0.304815
0.301988
0.300806
0.290031
0.287065
0.260104
0.260809
0.19646
0.221789
0.0602774
0.182417
0.0676704
0.165475
0.188641
0.203376
0.202756
0.20584
0.203736
0.205286
0.204181
0.204868
0.204315
0.204584
0.204323
0.204407
0.204291
0.204345
0.204366
0.204511
0.204716
0.205051
0.205506
0.206119
0.206898
0.207871
0.209052
0.210466
0.21213
0.214063
0.216281
0.218802
0.22164
0.224808
0.228314
0.232162
0.23635
0.24087
0.245702
0.250824
0.256188
0.26176
0.267445
0.273211
0.278875
0.284452
0.289582
0.294441
0.298286
0.301753
0.303186
0.30454
0.301662
0.300419
0.289576
0.286524
0.259482
0.260056
0.195647
0.220754
0.0595059
0.18132
0.0722288
0.164173
0.188135
0.202843
0.202762
0.205815
0.203835
0.205301
0.204222
0.204897
0.204343
0.204605
0.204342
0.204425
0.204308
0.20436
0.204379
0.204523
0.204726
0.20506
0.205512
0.206123
0.2069
0.20787
0.209049
0.21046
0.212121
0.214051
0.216266
0.218784
0.221619
0.224785
0.228288
0.232134
0.236319
0.240837
0.245666
0.250785
0.256144
0.261711
0.267389
0.273147
0.2788
0.284363
0.289477
0.294313
0.298133
0.301568
0.302966
0.304275
0.301349
0.300042
0.289139
0.285996
0.258886
0.25932
0.194879
0.219737
0.0588102
0.180231
0.0765811
0.163028
0.187639
0.202309
0.202742
0.205783
0.203943
0.205325
0.204267
0.20493
0.204377
0.204631
0.204367
0.204446
0.204328
0.204379
0.204396
0.204539
0.204739
0.205072
0.205522
0.206131
0.206905
0.207873
0.209049
0.210457
0.212115
0.214042
0.216255
0.21877
0.221603
0.224766
0.228267
0.232111
0.236294
0.240809
0.245636
0.250751
0.256107
0.261669
0.26734
0.273088
0.278731
0.28428
0.289377
0.294192
0.297988
0.301391
0.302754
0.304018
0.301046
0.299677
0.288717
0.285482
0.258316
0.258598
0.194154
0.218737
0.0581876
0.179145
0.0807374
0.16203
0.187156
0.201778
0.202701
0.205742
0.204057
0.205358
0.204318
0.204965
0.204418
0.204661
0.204395
0.204471
0.204352
0.204401
0.204417
0.204557
0.204756
0.205087
0.205535
0.206142
0.206914
0.207879
0.209053
0.210458
0.212114
0.214038
0.216248
0.218761
0.221592
0.224753
0.228252
0.232093
0.236274
0.240787
0.245611
0.250723
0.256075
0.261631
0.267296
0.273036
0.278668
0.284203
0.289284
0.294077
0.297849
0.301221
0.302551
0.30377
0.300755
0.299321
0.288311
0.284979
0.25777
0.257891
0.193471
0.217751
0.0576354
0.17806
0.0847072
0.161171
0.186693
0.201257
0.202639
0.205692
0.204175
0.205398
0.20438
0.205004
0.204466
0.204697
0.20443
0.204501
0.20438
0.204427
0.204441
0.20458
0.204778
0.205106
0.205553
0.206157
0.206928
0.20789
0.209061
0.210464
0.212118
0.214039
0.216247
0.218757
0.221586
0.224745
0.228242
0.232082
0.236261
0.240771
0.245592
0.250702
0.256049
0.2616
0.267259
0.27299
0.278611
0.284132
0.289197
0.293968
0.297717
0.301057
0.302355
0.303529
0.300473
0.298974
0.287919
0.284488
0.257248
0.257197
0.192829
0.21678
0.0571513
0.176973
0.0884998
0.160441
0.186252
0.200749
0.202561
0.205635
0.204294
0.205446
0.204454
0.205047
0.204519
0.204739
0.20447
0.204536
0.204414
0.204458
0.204471
0.204608
0.204803
0.20513
0.205575
0.206178
0.206946
0.207906
0.209075
0.210476
0.212126
0.214046
0.216251
0.218759
0.221585
0.224742
0.228238
0.232076
0.236253
0.240761
0.24558
0.250686
0.256029
0.261575
0.267227
0.272949
0.278561
0.284066
0.289116
0.293865
0.297591
0.3009
0.302166
0.303295
0.300201
0.298636
0.287542
0.284007
0.256748
0.256515
0.192227
0.215821
0.0567328
0.175881
0.0921242
0.159831
0.185837
0.200258
0.20247
0.205572
0.204414
0.205502
0.204539
0.205095
0.204577
0.204787
0.204518
0.204578
0.204454
0.204495
0.204506
0.204641
0.204835
0.205159
0.205602
0.206203
0.206969
0.207927
0.209094
0.210492
0.212141
0.214058
0.21626
0.218767
0.221591
0.224746
0.22824
0.232076
0.236251
0.240758
0.245574
0.250677
0.256016
0.261557
0.267202
0.272915
0.278515
0.284007
0.28904
0.293767
0.297471
0.300748
0.301984
0.303067
0.299937
0.298305
0.287177
0.283536
0.25627
0.255844
0.191664
0.214874
0.056378
0.174782
0.0955888
0.159332
0.185449
0.199787
0.20237
0.205505
0.204532
0.205565
0.204638
0.205151
0.204642
0.204841
0.204572
0.204625
0.2045
0.204538
0.204547
0.20468
0.204872
0.205194
0.205636
0.206234
0.206998
0.207954
0.209119
0.210515
0.212161
0.214076
0.216277
0.218781
0.221604
0.224757
0.228249
0.232083
0.236257
0.240761
0.245574
0.250674
0.256009
0.261544
0.267182
0.272886
0.278476
0.283953
0.28897
0.293675
0.297357
0.300602
0.301809
0.302846
0.299682
0.297982
0.286826
0.283074
0.255814
0.255185
0.191138
0.213937
0.0560846
0.173674
0.0989017
0.158936
0.18509
0.199338
0.202264
0.205436
0.204649
0.205634
0.204749
0.205216
0.204714
0.204902
0.204633
0.20468
0.204553
0.204587
0.204595
0.204725
0.204915
0.205236
0.205675
0.206272
0.207034
0.207988
0.20915
0.210544
0.212188
0.214101
0.216299
0.218802
0.221623
0.224775
0.228265
0.232098
0.236269
0.240772
0.245582
0.250678
0.256009
0.261539
0.26717
0.272864
0.278443
0.283905
0.288906
0.293589
0.297248
0.300461
0.301639
0.302631
0.299435
0.297666
0.286486
0.282621
0.255378
0.254536
0.190649
0.21301
0.055851
0.172555
0.102071
0.158636
0.184761
0.198914
0.202155
0.205368
0.204764
0.205708
0.204872
0.205292
0.204795
0.204969
0.204702
0.204742
0.204613
0.204644
0.20465
0.204777
0.204965
0.205284
0.205721
0.206316
0.207076
0.208028
0.209189
0.210581
0.212223
0.214133
0.21633
0.21883
0.22165
0.2248
0.228289
0.23212
0.23629
0.240789
0.245597
0.25069
0.256016
0.26154
0.267164
0.272848
0.278416
0.283863
0.288847
0.293507
0.297145
0.300326
0.301476
0.302421
0.299196
0.297357
0.286158
0.282176
0.254963
0.253896
0.190196
0.212092
0.0556752
0.171423
0.105103
0.158423
0.184462
0.198515
0.202047
0.205302
0.204877
0.205789
0.205007
0.205379
0.204887
0.205043
0.204778
0.204811
0.204681
0.204708
0.204712
0.204837
0.205023
0.20534
0.205775
0.206368
0.207126
0.208076
0.209235
0.210625
0.212264
0.214173
0.216368
0.218867
0.221685
0.224833
0.22832
0.23215
0.236318
0.240815
0.24562
0.250709
0.256031
0.261548
0.267164
0.272839
0.278395
0.283826
0.288794
0.293432
0.297047
0.300195
0.301318
0.302216
0.298964
0.297054
0.285842
0.281739
0.254566
0.253267
0.189779
0.211182
0.0555556
0.170277
0.108007
0.158292
0.184193
0.198142
0.201942
0.205241
0.204991
0.205875
0.205153
0.205479
0.20499
0.205125
0.204863
0.204889
0.204757
0.20478
0.204782
0.204904
0.205089
0.205403
0.205837
0.206428
0.207184
0.208132
0.209289
0.210677
0.212314
0.214221
0.216414
0.218912
0.221728
0.224875
0.22836
0.232188
0.236354
0.240849
0.245651
0.250736
0.256053
0.261563
0.267172
0.272836
0.278381
0.283796
0.288747
0.293361
0.296954
0.300069
0.301166
0.302017
0.298739
0.296757
0.285536
0.28131
0.254189
0.252646
0.189395
0.21028
0.0554906
0.169116
0.110787
0.158234
0.183953
0.197797
0.201841
0.205187
0.205106
0.205968
0.205308
0.205592
0.205107
0.205217
0.204955
0.204974
0.204842
0.20486
0.204861
0.20498
0.205163
0.205475
0.205907
0.206496
0.207251
0.208197
0.209352
0.210738
0.212373
0.214278
0.216469
0.218965
0.22178
0.224925
0.22841
0.232236
0.236399
0.240892
0.245691
0.250771
0.256083
0.261587
0.267187
0.27284
0.278372
0.283771
0.288706
0.293296
0.296867
0.299949
0.301019
0.301822
0.298521
0.296466
0.285241
0.280889
0.253831
0.252034
0.189046
0.209384
0.0554787
0.167938
0.113451
0.158245
0.183743
0.197478
0.201748
0.205141
0.205224
0.206068
0.205473
0.205719
0.205239
0.205321
0.205058
0.205067
0.204935
0.204949
0.204949
0.205065
0.205246
0.205556
0.205986
0.206573
0.207326
0.208271
0.209424
0.210808
0.212441
0.214344
0.216534
0.219028
0.221841
0.224985
0.228468
0.232292
0.236454
0.240944
0.245739
0.250815
0.256121
0.261618
0.26721
0.272852
0.278371
0.283753
0.28867
0.293236
0.296784
0.299833
0.300878
0.301633
0.298309
0.29618
0.284957
0.280474
0.25349
0.251431
0.18873
0.208495
0.0555187
0.166743
0.116004
0.158319
0.183563
0.197187
0.201664
0.205104
0.205346
0.206177
0.205646
0.205859
0.205386
0.205437
0.205171
0.20517
0.205037
0.205047
0.205045
0.205159
0.205339
0.205647
0.206075
0.20666
0.207411
0.208354
0.209505
0.210887
0.212519
0.21442
0.216608
0.219101
0.221913
0.225055
0.228536
0.232359
0.236518
0.241005
0.245796
0.250868
0.256168
0.261657
0.26724
0.27287
0.278377
0.283741
0.28864
0.293181
0.296708
0.299722
0.300742
0.301448
0.298104
0.295901
0.284682
0.280067
0.253168
0.250837
0.188446
0.207612
0.0556091
0.16553
0.118452
0.158449
0.18341
0.196922
0.20159
0.205078
0.205472
0.206296
0.205829
0.206012
0.205549
0.205568
0.205297
0.205283
0.205149
0.205155
0.205152
0.205263
0.205441
0.205747
0.206174
0.206757
0.207507
0.208448
0.209597
0.210977
0.212607
0.214506
0.216693
0.219184
0.221994
0.225136
0.228615
0.232435
0.236592
0.241076
0.245864
0.25093
0.256224
0.261705
0.267278
0.272897
0.278389
0.283736
0.288617
0.293133
0.296636
0.299616
0.300611
0.301268
0.297906
0.295626
0.284418
0.279667
0.252863
0.25025
0.188195
0.206734
0.0557487
0.164298
0.120801
0.158631
0.183286
0.196683
0.201526
0.205064
0.205605
0.206427
0.206022
0.206179
0.205728
0.205715
0.205437
0.205408
0.205272
0.205272
0.205268
0.205377
0.205553
0.205857
0.206283
0.206864
0.207612
0.208552
0.209699
0.211078
0.212706
0.214603
0.216788
0.219278
0.222087
0.225227
0.228704
0.232523
0.236677
0.241157
0.245941
0.251002
0.25629
0.261762
0.267325
0.272931
0.278409
0.283737
0.288599
0.29309
0.29657
0.299515
0.300486
0.301093
0.297714
0.295358
0.284163
0.279273
0.252575
0.249672
0.187974
0.205862
0.0559365
0.163046
0.123054
0.15886
0.183188
0.196471
0.201475
0.205061
0.205745
0.20657
0.206226
0.206359
0.205923
0.20588
0.205593
0.205546
0.205406
0.205401
0.205395
0.205501
0.205677
0.205979
0.206402
0.206983
0.207729
0.208667
0.209813
0.21119
0.212816
0.214711
0.216895
0.219384
0.222191
0.225329
0.228805
0.232621
0.236773
0.24125
0.246029
0.251084
0.256365
0.261828
0.267381
0.272973
0.278437
0.283746
0.288588
0.293052
0.29651
0.299419
0.300366
0.300923
0.297529
0.295095
0.283919
0.278887
0.252305
0.249102
0.187785
0.204994
0.0561713
0.161774
0.125217
0.159133
0.183116
0.196284
0.201435
0.205071
0.205892
0.206726
0.206441
0.206554
0.206134
0.206062
0.205766
0.205699
0.205553
0.205541
0.205533
0.205637
0.205811
0.206111
0.206534
0.207112
0.207858
0.208794
0.209939
0.211314
0.212938
0.214832
0.217014
0.219501
0.222307
0.225444
0.228918
0.232731
0.23688
0.241353
0.246128
0.251177
0.25645
0.261904
0.267446
0.273024
0.278472
0.283762
0.288584
0.293021
0.296455
0.299328
0.300251
0.300758
0.29735
0.294837
0.283684
0.278508
0.252051
0.248539
0.187626
0.204131
0.0564521
0.160482
0.127295
0.159444
0.18307
0.196121
0.201408
0.205094
0.206048
0.206896
0.206669
0.206763
0.206361
0.206263
0.205957
0.205868
0.205714
0.205693
0.205684
0.205784
0.205957
0.206255
0.206677
0.207254
0.207998
0.208933
0.210076
0.21145
0.213072
0.214965
0.217146
0.219632
0.222436
0.225571
0.229043
0.232854
0.236999
0.241469
0.246238
0.251281
0.256546
0.26199
0.26752
0.273084
0.278516
0.283785
0.288587
0.292996
0.296406
0.299242
0.300142
0.300598
0.297177
0.294585
0.283458
0.278135
0.251814
0.247985
0.187497
0.203273
0.0567781
0.159169
0.12929
0.15979
0.183049
0.195983
0.201394
0.20513
0.206211
0.207079
0.206911
0.206989
0.206604
0.206483
0.206169
0.206056
0.205892
0.20586
0.205847
0.205944
0.206115
0.206412
0.206832
0.207408
0.208151
0.209085
0.210227
0.211599
0.21322
0.215111
0.217291
0.219775
0.222578
0.225711
0.229181
0.232989
0.237131
0.241596
0.24636
0.251396
0.256652
0.262086
0.267604
0.273152
0.278568
0.283816
0.288597
0.292978
0.296363
0.299162
0.300038
0.300443
0.297011
0.294339
0.283242
0.27777
0.251594
0.24744
0.187398
0.202419
0.0571483
0.157835
0.131207
0.160167
0.183052
0.195869
0.201393
0.205178
0.206384
0.207275
0.207166
0.207232
0.206864
0.206722
0.2064
0.206263
0.206087
0.206043
0.206025
0.206117
0.206286
0.206582
0.207001
0.207576
0.208318
0.20925
0.210391
0.211761
0.213381
0.215271
0.217449
0.219932
0.222733
0.225865
0.229332
0.233138
0.237276
0.241736
0.246494
0.251523
0.25677
0.262193
0.267698
0.27323
0.278629
0.283854
0.288614
0.292966
0.296327
0.299088
0.29994
0.300293
0.296852
0.294098
0.283035
0.277411
0.25139
0.246902
0.187328
0.20157
0.057562
0.15648
0.13305
0.160572
0.183078
0.195777
0.201404
0.205239
0.206565
0.207485
0.207434
0.207492
0.20714
0.20698
0.206653
0.206492
0.206302
0.206243
0.206218
0.206305
0.206472
0.206765
0.207183
0.207757
0.208498
0.20943
0.210569
0.211938
0.213556
0.215445
0.217622
0.220103
0.222903
0.226032
0.229497
0.2333
0.237434
0.24189
0.246641
0.251662
0.2569
0.262311
0.267802
0.273318
0.278698
0.283901
0.288638
0.292961
0.296296
0.299019
0.299848
0.300148
0.296698
0.293864
0.282839
0.277061
0.251203
0.246373
0.187287
0.200725
0.0580184
0.155103
0.134821
0.161003
0.183127
0.195708
0.201429
0.205313
0.206754
0.207707
0.207715
0.207771
0.207435
0.207257
0.206926
0.206743
0.206538
0.206463
0.206429
0.206509
0.206673
0.206963
0.20738
0.207952
0.208692
0.209623
0.210762
0.212129
0.213746
0.215634
0.217809
0.220289
0.223088
0.226215
0.229677
0.233477
0.237607
0.242057
0.246802
0.251814
0.257042
0.262441
0.267918
0.273416
0.278777
0.283957
0.28867
0.292962
0.296272
0.298956
0.299762
0.300009
0.296552
0.293635
0.282651
0.276717
0.251031
0.245852
0.187275
0.199885
0.0585167
0.153706
0.136525
0.161455
0.183197
0.195661
0.201467
0.205399
0.206952
0.207942
0.20801
0.208068
0.207749
0.207555
0.207221
0.207017
0.206797
0.206703
0.206659
0.20673
0.20689
0.207177
0.207592
0.208163
0.208902
0.209832
0.21097
0.212336
0.213952
0.215838
0.218012
0.220491
0.223288
0.226413
0.229872
0.233668
0.237794
0.242238
0.246976
0.251979
0.257197
0.262582
0.268044
0.273524
0.278866
0.284021
0.288711
0.292972
0.296255
0.298899
0.299682
0.299876
0.296412
0.293412
0.282474
0.276381
0.250876
0.245341
0.187291
0.199048
0.0590564
0.152287
0.138163
0.161927
0.183288
0.195635
0.201519
0.205498
0.207159
0.208188
0.208316
0.208382
0.208082
0.207873
0.207537
0.207314
0.20708
0.206967
0.20691
0.206971
0.207125
0.207408
0.207821
0.20839
0.209128
0.210057
0.211194
0.212559
0.214174
0.216059
0.218232
0.220709
0.223504
0.226626
0.230083
0.233875
0.237996
0.242434
0.247164
0.252158
0.257364
0.262736
0.268182
0.273643
0.278964
0.284094
0.288759
0.292988
0.296245
0.298848
0.299608
0.299748
0.29628
0.293197
0.282306
0.276054
0.250737
0.244838
0.187336
0.198217
0.0596368
0.150848
0.13974
0.162417
0.183399
0.19563
0.201583
0.205609
0.207374
0.208446
0.208634
0.208713
0.208434
0.208214
0.207875
0.207635
0.207387
0.207254
0.207184
0.207232
0.207379
0.207657
0.208067
0.208634
0.209371
0.210299
0.211435
0.212799
0.214412
0.216296
0.218468
0.220944
0.223736
0.226857
0.23031
0.234098
0.238214
0.242645
0.247367
0.252351
0.257545
0.262902
0.268332
0.273773
0.279073
0.284177
0.288816
0.293012
0.296242
0.298804
0.299541
0.299627
0.296154
0.292987
0.282148
0.275734
0.250614
0.244344
0.187408
0.197391
0.0602574
0.149387
0.141257
0.162921
0.18353
0.195646
0.201661
0.205731
0.207598
0.208714
0.208963
0.20906
0.208804
0.208576
0.208235
0.20798
0.20772
0.207568
0.207482
0.207517
0.207655
0.207926
0.208332
0.208897
0.209632
0.210559
0.211693
0.213056
0.214669
0.216552
0.218722
0.221196
0.223987
0.227104
0.230555
0.234338
0.238448
0.242872
0.247586
0.252559
0.25774
0.263082
0.268494
0.273915
0.279192
0.284269
0.288882
0.293045
0.296246
0.298767
0.29948
0.299512
0.296036
0.292785
0.281999
0.275423
0.250508
0.243861
0.187508
0.196569
0.0609178
0.147907
0.142717
0.163438
0.183679
0.195681
0.201752
0.205866
0.20783
0.208993
0.209303
0.209421
0.209191
0.20896
0.208619
0.208349
0.208078
0.207908
0.207806
0.207826
0.207953
0.208216
0.208618
0.209179
0.209912
0.210837
0.211971
0.213333
0.214944
0.216825
0.218994
0.221467
0.224255
0.22737
0.230816
0.234595
0.238699
0.243116
0.24782
0.252781
0.25795
0.263275
0.268669
0.274068
0.279322
0.284371
0.288957
0.293085
0.296258
0.298736
0.299426
0.299403
0.295924
0.292589
0.281861
0.27512
0.250418
0.243387
0.187636
0.195753
0.0616174
0.146406
0.144122
0.163965
0.183847
0.195736
0.201857
0.206013
0.20807
0.209282
0.209652
0.209795
0.209595
0.209365
0.209025
0.208743
0.208462
0.208275
0.208158
0.208161
0.208277
0.20853
0.208926
0.209482
0.210213
0.211136
0.212268
0.213628
0.215238
0.217119
0.219286
0.221756
0.224542
0.227654
0.231097
0.23487
0.238968
0.243376
0.248071
0.25302
0.258174
0.263482
0.268857
0.274233
0.279463
0.284484
0.289041
0.293134
0.296277
0.298713
0.299379
0.299301
0.295821
0.292401
0.281734
0.274827
0.250344
0.242924
0.187791
0.194942
0.0623558
0.144885
0.145475
0.164502
0.184031
0.195809
0.201974
0.206172
0.208319
0.20958
0.21001
0.210181
0.210013
0.20979
0.209454
0.209161
0.208872
0.20867
0.208537
0.208524
0.208627
0.20887
0.209257
0.209809
0.210535
0.211456
0.212586
0.213945
0.215553
0.217432
0.219598
0.222066
0.224849
0.227958
0.231396
0.235164
0.239255
0.243654
0.248338
0.253275
0.258413
0.263704
0.269059
0.274411
0.279616
0.284607
0.289135
0.293192
0.296305
0.298697
0.29934
0.299206
0.295725
0.292221
0.281616
0.274543
0.250286
0.242471
0.187973
0.194138
0.0631327
0.143345
0.146778
0.165047
0.184232
0.195901
0.202105
0.206343
0.208576
0.209887
0.210376
0.210579
0.210444
0.210232
0.209905
0.209604
0.209308
0.209092
0.208946
0.208917
0.209005
0.209236
0.209614
0.210159
0.210881
0.211799
0.212927
0.214284
0.21589
0.217767
0.219931
0.222396
0.225177
0.228282
0.231715
0.235477
0.23956
0.243951
0.248623
0.253546
0.258669
0.263941
0.269275
0.274602
0.279781
0.284741
0.289239
0.293258
0.296341
0.298689
0.299308
0.299118
0.295637
0.292049
0.281509
0.274269
0.250245
0.24203
0.188182
0.19334
0.0639477
0.141786
0.148032
0.165598
0.184449
0.19601
0.202249
0.206525
0.208842
0.210204
0.210751
0.210987
0.210887
0.210691
0.210376
0.210072
0.20977
0.209542
0.209384
0.209339
0.209413
0.20963
0.209999
0.210536
0.211252
0.212166
0.213291
0.214645
0.216249
0.218124
0.220286
0.222749
0.225526
0.228627
0.232055
0.23581
0.239885
0.244266
0.248926
0.253835
0.258941
0.264193
0.269505
0.274807
0.279958
0.284886
0.289353
0.293335
0.296385
0.298689
0.299283
0.299038
0.295558
0.291885
0.281413
0.274005
0.25022
0.2416
0.188419
0.192549
0.0648006
0.14021
0.14924
0.166153
0.18468
0.196137
0.202405
0.206719
0.209116
0.21053
0.211134
0.211405
0.211342
0.211164
0.210865
0.210563
0.210258
0.21002
0.209851
0.209792
0.209852
0.210055
0.210413
0.21094
0.21165