/*--------------------------------*- C++ -*----------------------------------*\
| =========                 |                                                 |
| \\      /  F ield         | OpenFOAM: The Open Source CFD Toolbox           |
|  \\    /   O peration     | Version:  2.4.0                                 |
|   \\  /    A nd           | Web:      www.OpenFOAM.org                      |
|    \\/     M anipulation  |                                                 |
\*---------------------------------------------------------------------------*/
FoamFile
{
    version     2.0;
    format      ascii;
    class       volVectorField;
    location    "0.76";
    object      U;
}
// * * * * * * * * * * * * * * * * * * * * * * * * * * * * * * * * * * * * * //

dimensions      [0 1 -1 0 0 0 0];

internalField   nonuniform List<vector> 
6000
(
(0.990441 -0.000273757 0)
(0.970231 0.0020497 0)
(0.948316 0.00334879 0)
(0.925587 0.00413663 0)
(0.903364 0.00452022 0)
(0.882322 0.00453153 0)
(0.862685 0.0042882 0)
(0.844554 0.00390123 0)
(0.82799 0.00344511 0)
(0.812998 0.00296854 0)
(0.799522 0.00250372 0)
(0.787462 0.00207061 0)
(0.776704 0.00168015 0)
(0.767124 0.00133708 0)
(0.758595 0.00104212 0)
(0.750997 0.000793473 0)
(0.744215 0.000587914 0)
(0.738143 0.000421471 0)
(0.732683 0.000289881 0)
(0.727748 0.000188866 0)
(0.723261 0.000114294 0)
(0.719154 6.22692e-05 0)
(0.715366 2.91866e-05 0)
(0.711846 1.17826e-05 0)
(0.708547 7.12663e-06 0)
(0.705429 1.26343e-05 0)
(0.702459 2.59886e-05 0)
(0.699605 4.50523e-05 0)
(0.696844 6.78216e-05 0)
(0.694157 9.24401e-05 0)
(0.691527 0.000117253 0)
(0.688945 0.000140892 0)
(0.686404 0.000162376 0)
(0.683898 0.0001812 0)
(0.681422 0.000197389 0)
(0.678969 0.000211485 0)
(0.67653 0.000224463 0)
(0.67409 0.000237621 0)
(0.671629 0.000252476 0)
(0.669119 0.000270708 0)
(0.666524 0.000294179 0)
(0.663798 0.000325022 0)
(0.660881 0.000365794 0)
(0.657694 0.000419669 0)
(0.654139 0.00049068 0)
(0.650087 0.000584023 0)
(0.645373 0.000706487 0)
(0.639783 0.000867017 0)
(0.633036 0.00107736 0)
(0.624771 0.00135312 0)
(0.614509 0.00171526 0)
(0.601618 0.0021925 0)
(0.585268 0.00282407 0)
(0.564296 0.00366675 0)
(0.537319 0.00479054 0)
(0.501877 0.00631276 0)
(0.456929 0.0082319 0)
(0.394083 0.0108146 0)
(0.32998 0.0132215 0)
(0.182601 0.0118194 0)
(1.00417 0.00480515 0)
(1.01373 0.00718215 0)
(1.0207 0.00682435 0)
(1.02486 0.00641225 0)
(1.02687 0.00609189 0)
(1.02702 0.0057267 0)
(1.02543 0.00535088 0)
(1.02232 0.00499896 0)
(1.01792 0.00467245 0)
(1.01248 0.00436629 0)
(1.00623 0.00407863 0)
(0.999349 0.00380906 0)
(0.992003 0.00355715 0)
(0.984333 0.00332225 0)
(0.976458 0.00310357 0)
(0.968478 0.0029002 0)
(0.960478 0.00271117 0)
(0.952527 0.00253546 0)
(0.944684 0.00237208 0)
(0.936997 0.00222011 0)
(0.929507 0.00207876 0)
(0.922246 0.00194737 0)
(0.915237 0.00182539 0)
(0.9085 0.00171248 0)
(0.902047 0.00160835 0)
(0.895884 0.00151274 0)
(0.890013 0.00142551 0)
(0.884431 0.0013466 0)
(0.879129 0.00127584 0)
(0.874095 0.00121295 0)
(0.869315 0.00115749 0)
(0.86477 0.00110898 0)
(0.860441 0.00106696 0)
(0.856306 0.00103111 0)
(0.852344 0.00100138 0)
(0.848536 0.000978056 0)
(0.84486 0.00096179 0)
(0.841295 0.000953649 0)
(0.837821 0.00095514 0)
(0.834413 0.000968285 0)
(0.831044 0.000995764 0)
(0.827682 0.00104111 0)
(0.824285 0.00110898 0)
(0.820804 0.00120552 0)
(0.817175 0.00133877 0)
(0.813315 0.00151928 0)
(0.809121 0.00176091 0)
(0.804457 0.00208193 0)
(0.799147 0.00250661 0)
(0.792961 0.00306749 0)
(0.785596 0.00380898 0)
(0.776638 0.00479238 0)
(0.765534 0.00610436 0)
(0.751459 0.00786646 0)
(0.733388 0.0102555 0)
(0.709213 0.0134987 0)
(0.677758 0.0179176 0)
(0.6297 0.0235814 0)
(0.577931 0.0318884 0)
(0.440411 0.0318693 0)
(1.00036 0.00116234 0)
(1.00263 0.00202372 0)
(1.00544 0.00239372 0)
(1.00803 0.00304093 0)
(1.01052 0.0037047 0)
(1.013 0.00418586 0)
(1.01529 0.00450997 0)
(1.01726 0.00472081 0)
(1.01884 0.00483316 0)
(1.02001 0.00486099 0)
(1.02076 0.00482351 0)
(1.02109 0.00473938 0)
(1.021 0.00462371 0)
(1.02051 0.00448811 0)
(1.01964 0.00434121 0)
(1.01841 0.00418926 0)
(1.01683 0.00403657 0)
(1.01492 0.00388599 0)
(1.0127 0.00373926 0)
(1.01019 0.00359737 0)
(1.00741 0.00346078 0)
(1.00438 0.00332972 0)
(1.00111 0.00320423 0)
(0.997641 0.00308425 0)
(0.993987 0.00296955 0)
(0.990175 0.00285983 0)
(0.986233 0.00275491 0)
(0.982187 0.00265472 0)
(0.978067 0.00255921 0)
(0.973897 0.00246835 0)
(0.969705 0.00238212 0)
(0.965513 0.00230058 0)
(0.961341 0.00222391 0)
(0.957207 0.00215253 0)
(0.953123 0.00208715 0)
(0.949098 0.00202882 0)
(0.945136 0.00197903 0)
(0.941236 0.00193975 0)
(0.937392 0.00191357 0)
(0.933593 0.00190378 0)
(0.92982 0.00191463 0)
(0.926047 0.00195154 0)
(0.922239 0.00202154 0)
(0.918347 0.0021337 0)
(0.914307 0.00229977 0)
(0.910039 0.00253502 0)
(0.905436 0.00285931 0)
(0.900361 0.00329864 0)
(0.894639 0.00388735 0)
(0.888044 0.00467139 0)
(0.880287 0.00571334 0)
(0.870995 0.00709945 0)
(0.859692 0.00895243 0)
(0.845724 0.0114433 0)
(0.828366 0.0148347 0)
(0.806164 0.0194452 0)
(0.778838 0.0259367 0)
(0.739597 0.0342638 0)
(0.700427 0.0480714 0)
(0.596487 0.0527662 0)
(1.00025 0.00137449 0)
(1.00159 0.00317762 0)
(1.00312 0.00385962 0)
(1.00435 0.00422168 0)
(1.00551 0.00448979 0)
(1.00681 0.00462058 0)
(1.00821 0.00464381 0)
(1.00962 0.0046118 0)
(1.01101 0.00454645 0)
(1.01236 0.00445794 0)
(1.01365 0.0043566 0)
(1.01486 0.00425119 0)
(1.01598 0.0041473 0)
(1.017 0.00404809 0)
(1.0179 0.00395532 0)
(1.01869 0.00386978 0)
(1.01935 0.00379161 0)
(1.01989 0.00372045 0)
(1.02031 0.00365562 0)
(1.02059 0.00359624 0)
(1.02075 0.00354133 0)
(1.02076 0.00348994 0)
(1.02065 0.00344121 0)
(1.02039 0.00339428 0)
(1.01998 0.00334837 0)
(1.01944 0.00330292 0)
(1.01874 0.00325748 0)
(1.01789 0.00321171 0)
(1.0169 0.00316537 0)
(1.01575 0.00311831 0)
(1.01445 0.00307049 0)
(1.013 0.00302211 0)
(1.01141 0.0029736 0)
(1.00968 0.00292575 0)
(1.0078 0.00287979 0)
(1.0058 0.00283745 0)
(1.00367 0.00280103 0)
(1.00141 0.00277348 0)
(0.999026 0.00275855 0)
(0.99652 0.00276095 0)
(0.993882 0.00278662 0)
(0.991101 0.00284314 0)
(0.988157 0.0029402 0)
(0.985017 0.00309024 0)
(0.981637 0.00330929 0)
(0.97795 0.00361802 0)
(0.97387 0.00404312 0)
(0.969278 0.00461927 0)
(0.964016 0.00539179 0)
(0.957877 0.00642062 0)
(0.950593 0.00778628 0)
(0.94181 0.00959803 0)
(0.931078 0.012009 0)
(0.917787 0.015228 0)
(0.90126 0.0195764 0)
(0.880238 0.0254204 0)
(0.854539 0.0336235 0)
(0.819007 0.0439997 0)
(0.78428 0.0616228 0)
(0.703244 0.0708741 0)
(1.00018 0.00117351 0)
(1.00125 0.00265202 0)
(1.00255 0.00313694 0)
(1.00361 0.00339464 0)
(1.00455 0.00368377 0)
(1.00554 0.00390457 0)
(1.00659 0.00402481 0)
(1.00763 0.00408057 0)
(1.00866 0.00409615 0)
(1.00967 0.00407995 0)
(1.01068 0.00403942 0)
(1.01168 0.00398273 0)
(1.01266 0.0039165 0)
(1.01361 0.00384553 0)
(1.01454 0.00377336 0)
(1.01543 0.00370254 0)
(1.0163 0.00363482 0)
(1.01714 0.00357126 0)
(1.01793 0.00351237 0)
(1.0187 0.00345828 0)
(1.01942 0.00340887 0)
(1.0201 0.00336384 0)
(1.02075 0.00332279 0)
(1.02134 0.00328532 0)
(1.02189 0.00325108 0)
(1.02239 0.00321977 0)
(1.02283 0.00319114 0)
(1.02322 0.00316492 0)
(1.02354 0.00314087 0)
(1.0238 0.00311878 0)
(1.024 0.00309852 0)
(1.02412 0.00308008 0)
(1.02416 0.00306368 0)
(1.02412 0.00304987 0)
(1.02398 0.00303963 0)
(1.02375 0.00303449 0)
(1.02341 0.00303665 0)
(1.02295 0.00304908 0)
(1.02237 0.00307579 0)
(1.02165 0.00312199 0)
(1.02077 0.00319452 0)
(1.01971 0.00330228 0)
(1.01844 0.00345686 0)
(1.01694 0.00367327 0)
(1.01514 0.00397102 0)
(1.01299 0.00437533 0)
(1.01041 0.00491884 0)
(1.0073 0.00564393 0)
(1.00351 0.0066059 0)
(0.998864 0.00787754 0)
(0.993126 0.00955593 0)
(0.985988 0.0117716 0)
(0.977058 0.0147053 0)
(0.965802 0.0186 0)
(0.951632 0.0238245 0)
(0.933456 0.0307861 0)
(0.911065 0.0404568 0)
(0.880219 0.0525688 0)
(0.849328 0.0726654 0)
(0.783833 0.0853048 0)
(1.00014 0.000986938 0)
(1.00102 0.00234198 0)
(1.00218 0.00292822 0)
(1.00322 0.00327081 0)
(1.00413 0.00359503 0)
(1.00506 0.00382753 0)
(1.00603 0.00394146 0)
(1.00699 0.00398001 0)
(1.00792 0.00397608 0)
(1.00883 0.00394128 0)
(1.00972 0.00388337 0)
(1.01059 0.00381112 0)
(1.01145 0.00373202 0)
(1.01229 0.00365131 0)
(1.01311 0.00357251 0)
(1.01392 0.00349795 0)
(1.01471 0.00342903 0)
(1.01549 0.00336642 0)
(1.01626 0.00331023 0)
(1.01701 0.00326024 0)
(1.01776 0.00321601 0)
(1.01849 0.00317699 0)
(1.0192 0.00314257 0)
(1.0199 0.00311224 0)
(1.02059 0.00308551 0)
(1.02126 0.00306202 0)
(1.02191 0.00304141 0)
(1.02254 0.00302344 0)
(1.02315 0.00300792 0)
(1.02373 0.00299476 0)
(1.02429 0.00298396 0)
(1.02481 0.00297574 0)
(1.0253 0.00297058 0)
(1.02575 0.00296929 0)
(1.02616 0.0029732 0)
(1.02651 0.0029842 0)
(1.0268 0.00300491 0)
(1.02701 0.00303885 0)
(1.02715 0.00309065 0)
(1.02718 0.00316635 0)
(1.0271 0.00327378 0)
(1.02687 0.00342315 0)
(1.02648 0.00362769 0)
(1.02588 0.0039046 0)
(1.02504 0.00427617 0)
(1.02388 0.00477128 0)
(1.02234 0.00542734 0)
(1.02032 0.00629295 0)
(1.0177 0.00743153 0)
(1.01433 0.0089264 0)
(1.01001 0.0108883 0)
(1.00448 0.013465 0)
(0.997433 0.0168595 0)
(0.988434 0.021342 0)
(0.977038 0.0273176 0)
(0.96239 0.0352311 0)
(0.944411 0.0461227 0)
(0.919714 0.0597456 0)
(0.894816 0.0816434 0)
(0.844072 0.0971725 0)
(1.00011 0.00084219 0)
(1.00084 0.00209722 0)
(1.00189 0.00272307 0)
(1.00289 0.00306788 0)
(1.00378 0.00335925 0)
(1.00468 0.00357133 0)
(1.00563 0.00368 0)
(1.00656 0.0037197 0)
(1.00748 0.00372107 0)
(1.00836 0.00369479 0)
(1.00923 0.00364694 0)
(1.01007 0.00358512 0)
(1.0109 0.00351625 0)
(1.0117 0.00344512 0)
(1.01248 0.00337494 0)
(1.01324 0.00330784 0)
(1.01399 0.00324519 0)
(1.01473 0.00318772 0)
(1.01546 0.0031357 0)
(1.01617 0.00308906 0)
(1.01688 0.00304755 0)
(1.01758 0.00301078 0)
(1.01827 0.00297834 0)
(1.01895 0.00294984 0)
(1.01963 0.00292494 0)
(1.02029 0.00290336 0)
(1.02095 0.00288489 0)
(1.0216 0.00286937 0)
(1.02224 0.00285675 0)
(1.02287 0.00284705 0)
(1.02348 0.00284043 0)
(1.02407 0.00283725 0)
(1.02465 0.00283817 0)
(1.0252 0.00284423 0)
(1.02572 0.00285696 0)
(1.0262 0.00287856 0)
(1.02664 0.00291202 0)
(1.02703 0.00296129 0)
(1.02735 0.00303158 0)
(1.02759 0.00312966 0)
(1.02774 0.00326432 0)
(1.02777 0.00344693 0)
(1.02765 0.00369228 0)
(1.02735 0.00401951 0)
(1.02683 0.0044534 0)
(1.02603 0.00502597 0)
(1.02488 0.0057787 0)
(1.02329 0.00676535 0)
(1.02117 0.00805595 0)
(1.01836 0.00974222 0)
(1.01471 0.0119454 0)
(1.00999 0.0148265 0)
(1.00395 0.0186044 0)
(0.996253 0.0235677 0)
(0.986584 0.0301437 0)
(0.974333 0.038801 0)
(0.959623 0.050606 0)
(0.940031 0.0653951 0)
(0.920786 0.0884675 0)
(0.884211 0.10684 0)
(1.00009 0.000728812 0)
(1.00071 0.00188098 0)
(1.00166 0.00251235 0)
(1.00261 0.00285662 0)
(1.00348 0.003132 0)
(1.00436 0.00334172 0)
(1.00529 0.00345876 0)
(1.00621 0.00350663 0)
(1.00711 0.00351435 0)
(1.00799 0.00349408 0)
(1.00885 0.00345203 0)
(1.00969 0.00339545 0)
(1.0105 0.00333114 0)
(1.01129 0.00326396 0)
(1.01207 0.00319715 0)
(1.01282 0.00313289 0)
(1.01356 0.00307265 0)
(1.01428 0.00301724 0)
(1.01499 0.00296703 0)
(1.01569 0.00292202 0)
(1.01638 0.00288201 0)
(1.01706 0.00284669 0)
(1.01773 0.0028157 0)
(1.0184 0.00278867 0)
(1.01906 0.00276532 0)
(1.01971 0.00274539 0)
(1.02036 0.00272874 0)
(1.02099 0.00271525 0)
(1.02162 0.00270495 0)
(1.02224 0.00269796 0)
(1.02285 0.00269454 0)
(1.02345 0.00269521 0)
(1.02402 0.00270078 0)
(1.02458 0.00271251 0)
(1.02512 0.00273219 0)
(1.02562 0.00276231 0)
(1.02609 0.00280623 0)
(1.02651 0.00286838 0)
(1.02688 0.00295454 0)
(1.02717 0.0030722 0)
(1.02738 0.00323109 0)
(1.02748 0.00344376 0)
(1.02744 0.00372645 0)
(1.02724 0.00410015 0)
(1.02682 0.00459194 0)
(1.02615 0.00523677 0)
(1.02514 0.00607972 0)
(1.02373 0.00717913 0)
(1.02181 0.0086107 0)
(1.01925 0.0104731 0)
(1.0159 0.012896 0)
(1.01155 0.0160502 0)
(1.006 0.0201652 0)
(0.998942 0.0255406 0)
(0.99014 0.0326116 0)
(0.979142 0.0418543 0)
(0.966163 0.0543114 0)
(0.949627 0.0699205 0)
(0.933691 0.093475 0)
(0.907824 0.114422 0)
(1.00007 0.000636571 0)
(1.00061 0.00168643 0)
(1.00146 0.00230827 0)
(1.00237 0.00265443 0)
(1.00322 0.0029189 0)
(1.00409 0.00312322 0)
(1.00499 0.00324223 0)
(1.0059 0.00329252 0)
(1.00679 0.00330222 0)
(1.00766 0.00328512 0)
(1.00852 0.00324746 0)
(1.00935 0.00319577 0)
(1.01016 0.00313645 0)
(1.01095 0.00307421 0)
(1.01172 0.00301212 0)
(1.01248 0.00295229 0)
(1.01321 0.00289611 0)
(1.01393 0.00284437 0)
(1.01464 0.00279744 0)
(1.01534 0.00275535 0)
(1.01602 0.00271794 0)
(1.0167 0.00268495 0)
(1.01736 0.00265605 0)
(1.01802 0.00263097 0)
(1.01868 0.00260943 0)
(1.01932 0.00259129 0)
(1.01996 0.00257642 0)
(1.02059 0.00256482 0)
(1.02121 0.00255658 0)
(1.02182 0.00255193 0)
(1.02242 0.00255126 0)
(1.02301 0.00255524 0)
(1.02359 0.00256485 0)
(1.02414 0.00258156 0)
(1.02467 0.00260741 0)
(1.02518 0.00264518 0)
(1.02565 0.00269859 0)
(1.02607 0.00277251 0)
(1.02645 0.00287329 0)
(1.02676 0.00300914 0)
(1.02698 0.00319067 0)
(1.0271 0.00343156 0)
(1.0271 0.00374946 0)
(1.02693 0.00416714 0)
(1.02657 0.00471388 0)
(1.02596 0.00542741 0)
(1.02503 0.00635627 0)
(1.02372 0.00756309 0)
(1.02192 0.00912884 0)
(1.01952 0.0111586 0)
(1.01637 0.0137895 0)
(1.01228 0.0172005 0)
(1.00705 0.0216296 0)
(1.00043 0.0273832 0)
(0.992196 0.0348966 0)
(0.981994 0.0446445 0)
(0.970018 0.0576087 0)
(0.955266 0.0738295 0)
(0.940892 0.0973987 0)
(0.921429 0.120337 0)
(1.00006 0.000559604 0)
(1.00052 0.00151227 0)
(1.0013 0.00211481 0)
(1.00216 0.00246016 0)
(1.003 0.00271327 0)
(1.00385 0.00290872 0)
(1.00473 0.00302685 0)
(1.00563 0.00307912 0)
(1.00651 0.0030914 0)
(1.00738 0.0030781 0)
(1.00823 0.00304534 0)
(1.00906 0.00299889 0)
(1.00987 0.00294474 0)
(1.01066 0.00288743 0)
(1.01143 0.00282996 0)
(1.01218 0.00277435 0)
(1.01291 0.00272195 0)
(1.01363 0.00267358 0)
(1.01434 0.00262963 0)
(1.01504 0.00259018 0)
(1.01572 0.00255513 0)
(1.0164 0.00252426 0)
(1.01706 0.00249732 0)
(1.01772 0.00247406 0)
(1.01837 0.0024543 0)
(1.01901 0.0024379 0)
(1.01965 0.00242484 0)
(1.02027 0.00241514 0)
(1.02089 0.00240899 0)
(1.0215 0.00240671 0)
(1.0221 0.00240881 0)
(1.02269 0.00241607 0)
(1.02326 0.00242968 0)
(1.02381 0.00245126 0)
(1.02434 0.00248309 0)
(1.02485 0.00252823 0)
(1.02532 0.00259075 0)
(1.02575 0.00267595 0)
(1.02613 0.00279072 0)
(1.02644 0.00294395 0)
(1.02668 0.00314708 0)
(1.02682 0.00341489 0)
(1.02683 0.00376637 0)
(1.0267 0.00422597 0)
(1.02637 0.00482508 0)
(1.02581 0.00560406 0)
(1.02495 0.00661473 0)
(1.02372 0.00792375 0)
(1.02203 0.00961703 0)
(1.01976 0.0118055 0)
(1.01679 0.0146332 0)
(1.01293 0.0182865 0)
(1.008 0.0230104 0)
(1.00177 0.0291168 0)
(0.99405 0.0370378 0)
(0.984533 0.0472455 0)
(0.973378 0.0606457 0)
(0.959933 0.0773764 0)
(0.94657 0.100791 0)
(0.930573 0.125078 0)
(1.00005 0.000494161 0)
(1.00046 0.00135606 0)
(1.00117 0.00193157 0)
(1.00199 0.00227172 0)
(1.00281 0.00251313 0)
(1.00364 0.00269854 0)
(1.00451 0.00281458 0)
(1.00539 0.00286848 0)
(1.00626 0.0028831 0)
(1.00712 0.00287302 0)
(1.00797 0.00284445 0)
(1.00879 0.00280265 0)
(1.0096 0.00275317 0)
(1.01039 0.00270042 0)
(1.01116 0.0026473 0)
(1.01191 0.00259574 0)
(1.01265 0.00254705 0)
(1.01337 0.00250204 0)
(1.01408 0.00246112 0)
(1.01477 0.00242441 0)
(1.01546 0.00239182 0)
(1.01613 0.00236321 0)
(1.0168 0.00233835 0)
(1.01746 0.00231705 0)
(1.01811 0.00229917 0)
(1.01875 0.00228463 0)
(1.01938 0.00227344 0)
(1.02001 0.00226571 0)
(1.02063 0.0022617 0)
(1.02124 0.00226181 0)
(1.02184 0.00226667 0)
(1.02242 0.0022772 0)
(1.02299 0.00229471 0)
(1.02355 0.00232104 0)
(1.02408 0.00235869 0)
(1.02459 0.00241097 0)
(1.02506 0.00248229 0)
(1.02549 0.00257836 0)
(1.02588 0.00270658 0)
(1.0262 0.00287647 0)
(1.02645 0.00310031 0)
(1.02661 0.00339388 0)
(1.02664 0.00377745 0)
(1.02654 0.00427705 0)
(1.02625 0.0049261 0)
(1.02574 0.00576741 0)
(1.02494 0.00685589 0)
(1.0238 0.00826198 0)
(1.02221 0.0100762 0)
(1.02009 0.0124149 0)
(1.01729 0.0154282 0)
(1.01367 0.0193091 0)
(1.00904 0.0243085 0)
(1.00321 0.0307427 0)
(0.995984 0.0390389 0)
(0.987133 0.0496662 0)
(0.976776 0.0634542 0)
(0.964484 0.0806246 0)
(0.952127 0.103873 0)
(0.938231 0.128986 0)
(1.00005 0.000437553 0)
(1.00041 0.00121509 0)
(1.00106 0.00175793 0)
(1.00184 0.00208868 0)
(1.00264 0.00231825 0)
(1.00346 0.00249307 0)
(1.00431 0.00260567 0)
(1.00518 0.00266027 0)
(1.00605 0.00267661 0)
(1.0069 0.00266915 0)
(1.00774 0.00264429 0)
(1.00856 0.00260683 0)
(1.00937 0.00256187 0)
(1.01016 0.00251357 0)
(1.01093 0.00246473 0)
(1.01168 0.0024172 0)
(1.01241 0.00237222 0)
(1.01313 0.00233058 0)
(1.01384 0.0022927 0)
(1.01454 0.00225872 0)
(1.01522 0.00222862 0)
(1.0159 0.00220225 0)
(1.01657 0.00217947 0)
(1.01722 0.00216011 0)
(1.01787 0.0021441 0)
(1.01852 0.00213139 0)
(1.01915 0.00212206 0)
(1.01978 0.00211629 0)
(1.0204 0.00211439 0)
(1.02101 0.00211685 0)
(1.02161 0.00212442 0)
(1.02219 0.00213814 0)
(1.02277 0.00215946 0)
(1.02332 0.00219042 0)
(1.02386 0.00223369 0)
(1.02437 0.00229288 0)
(1.02484 0.00237268 0)
(1.02528 0.00247919 0)
(1.02568 0.00262031 0)
(1.02601 0.00280616 0)
(1.02628 0.00304979 0)
(1.02645 0.00336794 0)
(1.02651 0.00378208 0)
(1.02644 0.00431975 0)
(1.02619 0.00501622 0)
(1.02573 0.00591665 0)
(1.025 0.00707883 0)
(1.02395 0.00857671 0)
(1.02248 0.010505 0)
(1.0205 0.0129852 0)
(1.01789 0.0161728 0)
(1.01451 0.0202668 0)
(1.01019 0.0255228 0)
(1.00476 0.0322603 0)
(0.998044 0.0409005 0)
(0.989853 0.0519079 0)
(0.980293 0.0660413 0)
(0.969082 0.0835836 0)
(0.957791 0.106693 0)
(0.945493 0.13226 0)
(1.00004 0.000387796 0)
(1.00037 0.00108696 0)
(1.00097 0.00159329 0)
(1.00172 0.00191091 0)
(1.0025 0.00212822 0)
(1.0033 0.00229196 0)
(1.00413 0.00239981 0)
(1.00499 0.00245414 0)
(1.00585 0.0024717 0)
(1.0067 0.00246647 0)
(1.00754 0.00244497 0)
(1.00836 0.00241158 0)
(1.00916 0.00237092 0)
(1.00995 0.00232692 0)
(1.01072 0.00228225 0)
(1.01147 0.00223865 0)
(1.0122 0.00219731 0)
(1.01293 0.00215899 0)
(1.01363 0.00212413 0)
(1.01433 0.00209289 0)
(1.01502 0.00206525 0)
(1.01569 0.00204114 0)
(1.01636 0.00202044 0)
(1.01702 0.00200305 0)
(1.01767 0.0019889 0)
(1.01831 0.00197804 0)
(1.01895 0.00197057 0)
(1.01957 0.00196673 0)
(1.02019 0.00196691 0)
(1.0208 0.0019717 0)
(1.0214 0.00198192 0)
(1.02199 0.00199875 0)
(1.02257 0.00202378 0)
(1.02313 0.0020592 0)
(1.02366 0.0021079 0)
(1.02418 0.00217372 0)
(1.02466 0.00226164 0)
(1.02511 0.00237815 0)
(1.02551 0.00253158 0)
(1.02586 0.00273264 0)
(1.02614 0.00299509 0)
(1.02633 0.00333656 0)
(1.02642 0.00377967 0)
(1.02638 0.00435334 0)
(1.02618 0.00509461 0)
(1.02577 0.0060508 0)
(1.02512 0.00728237 0)
(1.02416 0.00886654 0)
(1.02281 0.0109019 0)
(1.02098 0.0135145 0)
(1.01857 0.0168649 0)
(1.01544 0.021157 0)
(1.01145 0.0266507 0)
(1.00642 0.0336675 0)
(1.00022 0.0426221 0)
(0.992691 0.053972 0)
(0.983924 0.0684127 0)
(0.97374 0.0862632 0)
(0.963518 0.109255 0)
(0.952619 0.135031 0)
(1.00004 0.000343414 0)
(1.00034 0.000969601 0)
(1.00089 0.001437 0)
(1.00161 0.00173818 0)
(1.00237 0.00194254 0)
(1.00316 0.00209478 0)
(1.00398 0.00219682 0)
(1.00483 0.00224999 0)
(1.00568 0.00226832 0)
(1.00652 0.00226495 0)
(1.00736 0.00224645 0)
(1.00817 0.00221685 0)
(1.00898 0.00218028 0)
(1.00976 0.00214042 0)
(1.01053 0.00209979 0)
(1.01128 0.00206005 0)
(1.01202 0.00202231 0)
(1.01274 0.0019873 0)
(1.01345 0.00195545 0)
(1.01415 0.00192694 0)
(1.01483 0.00190178 0)
(1.01551 0.00187994 0)
(1.01618 0.00186133 0)
(1.01684 0.00184589 0)
(1.01749 0.00183362 0)
(1.01813 0.00182458 0)
(1.01877 0.00181896 0)
(1.0194 0.00181703 0)
(1.02002 0.00181926 0)
(1.02063 0.00182632 0)
(1.02123 0.00183913 0)
(1.02182 0.00185897 0)
(1.02239 0.00188758 0)
(1.02295 0.00192729 0)
(1.0235 0.0019812 0)
(1.02401 0.00205335 0)
(1.0245 0.00214903 0)
(1.02496 0.00227504 0)
(1.02537 0.00244015 0)
(1.02573 0.00265561 0)
(1.02603 0.00293585 0)
(1.02624 0.00329933 0)
(1.02636 0.00376971 0)
(1.02636 0.00437723 0)
(1.0262 0.00516054 0)
(1.02586 0.00616896 0)
(1.02528 0.00746542 0)
(1.02442 0.00913014 0)
(1.02319 0.0112653 0)
(1.02153 0.0140009 0)
(1.01932 0.0175022 0)
(1.01645 0.0219775 0)
(1.01279 0.0276898 0)
(1.00818 0.0349623 0)
(1.00251 0.0442026 0)
(0.995634 0.05586 0)
(0.987651 0.0705731 0)
(0.978451 0.0886772 0)
(0.969264 0.111563 0)
(0.959631 0.13739 0)
(1.00003 0.000303297 0)
(1.00031 0.000861294 0)
(1.00083 0.0012883 0)
(1.00151 0.00157022 0)
(1.00226 0.00176077 0)
(1.00303 0.00190117 0)
(1.00385 0.00199652 0)
(1.00468 0.00204773 0)
(1.00553 0.00206634 0)
(1.00637 0.0020645 0)
(1.0072 0.00204867 0)
(1.00801 0.00202257 0)
(1.00881 0.00198991 0)
(1.0096 0.00195405 0)
(1.01037 0.00191737 0)
(1.01112 0.00188142 0)
(1.01186 0.00184724 0)
(1.01258 0.00181551 0)
(1.01329 0.00178666 0)
(1.01398 0.00176087 0)
(1.01467 0.0017382 0)
(1.01535 0.00171862 0)
(1.01602 0.0017021 0)
(1.01668 0.00168862 0)
(1.01733 0.00167822 0)
(1.01797 0.001671 0)
(1.01861 0.00166719 0)
(1.01924 0.00166715 0)
(1.01986 0.0016714 0)
(1.02047 0.00168067 0)
(1.02107 0.00169599 0)
(1.02166 0.00171874 0)
(1.02224 0.00175079 0)
(1.02281 0.00179462 0)
(1.02335 0.00185349 0)
(1.02387 0.00193167 0)
(1.02437 0.0020347 0)
(1.02483 0.0021697 0)
(1.02526 0.00234583 0)
(1.02563 0.00257485 0)
(1.02595 0.0028718 0)
(1.02619 0.00325591 0)
(1.02633 0.0037518 0)
(1.02637 0.00439091 0)
(1.02626 0.00521337 0)
(1.02598 0.00627036 0)
(1.02548 0.00762703 0)
(1.02472 0.00936635 0)
(1.02363 0.0115937 0)
(1.02213 0.0144428 0)
(1.02013 0.0180828 0)
(1.01753 0.022726 0)
(1.01421 0.0286381 0)
(1.01003 0.0361429 0)
(1.00489 0.0456413 0)
(0.998666 0.0575732 0)
(0.99146 0.072527 0)
(0.983206 0.0908398 0)
(0.975006 0.113629 0)
(0.96652 0.139408 0)
(1.00003 0.000266595 0)
(1.00029 0.00076056 0)
(1.00078 0.00114642 0)
(1.00143 0.00140672 0)
(1.00216 0.00158252 0)
(1.00293 0.00171079 0)
(1.00373 0.00179873 0)
(1.00456 0.00184721 0)
(1.0054 0.00186566 0)
(1.00623 0.00186502 0)
(1.00706 0.00185156 0)
(1.00787 0.00182873 0)
(1.00867 0.0017998 0)
(1.00945 0.00176781 0)
(1.01022 0.00173499 0)
(1.01097 0.00170276 0)
(1.01171 0.00167209 0)
(1.01243 0.00164361 0)
(1.01314 0.00161775 0)
(1.01384 0.00159468 0)
(1.01453 0.00157449 0)
(1.01521 0.00155718 0)
(1.01587 0.00154275 0)
(1.01653 0.00153123 0)
(1.01719 0.00152268 0)
(1.01783 0.00151727 0)
(1.01847 0.00151527 0)
(1.0191 0.00151708 0)
(1.01972 0.0015233 0)
(1.02033 0.00153473 0)
(1.02094 0.00155247 0)
(1.02153 0.00157802 0)
(1.02211 0.00161337 0)
(1.02268 0.00166111 0)
(1.02323 0.0017247 0)
(1.02376 0.00180859 0)
(1.02426 0.00191854 0)
(1.02473 0.002062 0)
(1.02517 0.00224848 0)
(1.02555 0.00249017 0)
(1.02589 0.0028027 0)
(1.02615 0.003206 0)
(1.02633 0.00372556 0)
(1.0264 0.00439392 0)
(1.02635 0.00525255 0)
(1.02613 0.0063543 0)
(1.02572 0.00776636 0)
(1.02506 0.00957413 0)
(1.02411 0.0118859 0)
(1.02278 0.0148387 0)
(1.021 0.0186051 0)
(1.01868 0.0234008 0)
(1.0157 0.0294936 0)
(1.01195 0.0372078 0)
(1.00734 0.0469375 0)
(1.00178 0.0591132 0)
(0.995339 0.0742789 0)
(0.987995 0.0927641 0)
(0.980735 0.115464 0)
(0.973285 0.14114 0)
(1.00003 0.000232642 0)
(1.00027 0.000666149 0)
(1.00073 0.00101056 0)
(1.00137 0.00124732 0)
(1.00208 0.00140744 0)
(1.00283 0.00152327 0)
(1.00363 0.00160322 0)
(1.00445 0.00164832 0)
(1.00528 0.00166615 0)
(1.00611 0.00166642 0)
(1.00693 0.00165508 0)
(1.00774 0.00163529 0)
(1.00854 0.00160991 0)
(1.00933 0.00158168 0)
(1.01009 0.00155263 0)
(1.01085 0.00152407 0)
(1.01158 0.00149686 0)
(1.01231 0.00147162 0)
(1.01302 0.00144872 0)
(1.01372 0.00142838 0)
(1.0144 0.00141066 0)
(1.01508 0.00139562 0)
(1.01575 0.00138329 0)
(1.01641 0.00137371 0)
(1.01706 0.00136701 0)
(1.01771 0.00136339 0)
(1.01835 0.00136317 0)
(1.01898 0.0013668 0)
(1.0196 0.00137494 0)
(1.02021 0.00138846 0)
(1.02082 0.00140854 0)
(1.02142 0.00143678 0)
(1.022 0.00147526 0)
(1.02257 0.00152672 0)
(1.02312 0.00159476 0)
(1.02366 0.00168402 0)
(1.02417 0.00180047 0)
(1.02465 0.00195182 0)
(1.02509 0.00214793 0)
(1.0255 0.00240139 0)
(1.02585 0.00272833 0)
(1.02614 0.00314933 0)
(1.02635 0.00369067 0)
(1.02647 0.00438585 0)
(1.02646 0.00527758 0)
(1.02632 0.00642016 0)
(1.02599 0.00788263 0)
(1.02544 0.00975254 0)
(1.02463 0.0121408 0)
(1.02348 0.0151872 0)
(1.02192 0.0190674 0)
(1.01988 0.0240001 0)
(1.01725 0.0302548 0)
(1.01394 0.0381558 0)
(1.00987 0.0480911 0)
(1.00496 0.0604816 0)
(0.999276 0.0758331 0)
(0.992811 0.0944617 0)
(0.986449 0.117082 0)
(0.979937 0.142629 0)
(1.00003 0.000200911 0)
(1.00025 0.000576999 0)
(1.0007 0.000879965 0)
(1.00131 0.00109165 0)
(1.00201 0.0012352 0)
(1.00275 0.00133828 0)
(1.00354 0.00140978 0)
(1.00435 0.00145089 0)
(1.00518 0.00146768 0)
(1.00601 0.00146861 0)
(1.00683 0.00145916 0)
(1.00764 0.00144221 0)
(1.00843 0.00142024 0)
(1.00922 0.00139566 0)
(1.00998 0.0013703 0)
(1.01074 0.00134534 0)
(1.01147 0.00132157 0)
(1.0122 0.00129954 0)
(1.01291 0.0012796 0)
(1.01361 0.00126196 0)
(1.01429 0.00124672 0)
(1.01497 0.00123395 0)
(1.01564 0.0012237 0)
(1.0163 0.00121607 0)
(1.01696 0.0012112 0)
(1.0176 0.00120936 0)
(1.01824 0.00121088 0)
(1.01887 0.0012163 0)
(1.0195 0.0012263 0)
(1.02011 0.00124184 0)
(1.02072 0.00126417 0)
(1.02132 0.00129497 0)
(1.0219 0.00133642 0)
(1.02248 0.0013914 0)
(1.02303 0.00146362 0)
(1.02357 0.00155789 0)
(1.02409 0.00168039 0)
(1.02458 0.00183907 0)
(1.02504 0.00204406 0)
(1.02546 0.00230835 0)
(1.02584 0.0026485 0)
(1.02615 0.00308567 0)
(1.02639 0.00364682 0)
(1.02655 0.00436634 0)
(1.0266 0.00528798 0)
(1.02653 0.00646738 0)
(1.02629 0.00797515 0)
(1.02585 0.00990077 0)
(1.02518 0.0123573 0)
(1.02421 0.0154872 0)
(1.02288 0.0194686 0)
(1.02113 0.0245226 0)
(1.01886 0.0309203 0)
(1.016 0.0389858 0)
(1.01246 0.0491018 0)
(1.0082 0.0616801 0)
(1.00327 0.0771939 0)
(0.99765 0.0959431 0)
(0.992146 0.118496 0)
(0.986489 0.143908 0)
(1.00003 0.000170977 0)
(1.00024 0.000492197 0)
(1.00067 0.000753907 0)
(1.00126 0.000939313 0)
(1.00195 0.00106545 0)
(1.00268 0.0011555 0)
(1.00346 0.00121817 0)
(1.00427 0.00125478 0)
(1.00509 0.00127016 0)
(1.00592 0.0012715 0)
(1.00673 0.00126374 0)
(1.00754 0.00124945 0)
(1.00834 0.00123075 0)
(1.00912 0.00120972 0)
(1.00989 0.00118798 0)
(1.01064 0.00116658 0)
(1.01138 0.00114621 0)
(1.0121 0.00112737 0)
(1.01281 0.00111038 0)
(1.01351 0.00109544 0)
(1.0142 0.00108267 0)
(1.01488 0.00107216 0)
(1.01555 0.00106399 0)
(1.01621 0.00105829 0)
(1.01687 0.00105525 0)
(1.01751 0.00105515 0)
(1.01815 0.0010584 0)
(1.01878 0.00106555 0)
(1.01941 0.00107737 0)
(1.02003 0.00109485 0)
(1.02063 0.00111933 0)
(1.02123 0.00115256 0)
(1.02182 0.00119683 0)
(1.0224 0.0012551 0)
(1.02296 0.00133122 0)
(1.02351 0.00143014 0)
(1.02403 0.00155823 0)
(1.02454 0.00172363 0)
(1.02501 0.00193675 0)
(1.02544 0.0022109 0)
(1.02584 0.00256303 0)
(1.02618 0.00301479 0)
(1.02646 0.00359376 0)
(1.02666 0.00433506 0)
(1.02677 0.00528338 0)
(1.02676 0.00649548 0)
(1.02661 0.00804334 0)
(1.02629 0.0100181 0)
(1.02576 0.0125347 0)
(1.02498 0.0157376 0)
(1.02389 0.0198073 0)
(1.02242 0.024967 0)
(1.02052 0.0314889 0)
(1.0181 0.039697 0)
(1.01511 0.0499694 0)
(1.01149 0.0627103 0)
(1.0073 0.078365 0)
(1.00251 0.0972174 0)
(0.997827 0.119717 0)
(0.992956 0.145006 0)
(1.00003 0.000142485 0)
(1.00023 0.000410953 0)
(1.00064 0.000631688 0)
(1.00122 0.000789876 0)
(1.0019 0.000897872 0)
(1.00263 0.000974622 0)
(1.0034 0.00102814 0)
(1.0042 0.00105982 0)
(1.00502 0.00107346 0)
(1.00584 0.001075 0)
(1.00666 0.00106875 0)
(1.00746 0.00105698 0)
(1.00826 0.00104143 0)
(1.00904 0.00102387 0)
(1.00981 0.00100569 0)
(1.01056 0.000987799 0)
(1.0113 0.000970798 0)
(1.01202 0.00095512 0)
(1.01273 0.000941064 0)
(1.01343 0.000928823 0)
(1.01412 0.000918521 0)
(1.0148 0.000910263 0)
(1.01547 0.000904165 0)
(1.01613 0.000900385 0)
(1.01679 0.000899149 0)
(1.01744 0.000900778 0)
(1.01808 0.000905715 0)
(1.01871 0.000914564 0)
(1.01934 0.000928131 0)
(1.01995 0.00094748 0)
(1.02056 0.000974008 0)
(1.02117 0.00100954 0)
(1.02176 0.00105644 0)
(1.02234 0.00111778 0)
(1.02291 0.00119751 0)
(1.02346 0.00130071 0)
(1.02399 0.00143391 0)
(1.0245 0.00160542 0)
(1.02499 0.0018259 0)
(1.02544 0.00210891 0)
(1.02586 0.00247176 0)
(1.02623 0.00293651 0)
(1.02654 0.00353124 0)
(1.02679 0.00429172 0)
(1.02695 0.00526341 0)
(1.02702 0.00650402 0)
(1.02696 0.00808667 0)
(1.02676 0.0101038 0)
(1.02638 0.0126721 0)
(1.02578 0.0159376 0)
(1.02493 0.0200827 0)
(1.02376 0.0253322 0)
(1.02222 0.0319597 0)
(1.02025 0.0402887 0)
(1.01781 0.050694 0)
(1.01483 0.0635733 0)
(1.01137 0.0793497 0)
(1.00739 0.0982925 0)
(1.0035 0.120755 0)
(0.999353 0.145942 0)
(1.00002 0.00011514 0)
(1.00022 0.000332577 0)
(1.00062 0.000512649 0)
(1.00119 0.000642909 0)
(1.00186 0.000732138 0)
(1.00258 0.000795329 0)
(1.00335 0.000839455 0)
(1.00414 0.000865857 0)
(1.00496 0.00087745 0)
(1.00578 0.000879011 0)
(1.00659 0.000874141 0)
(1.0074 0.000864743 0)
(1.00819 0.000852245 0)
(1.00898 0.000838078 0)
(1.00974 0.000823405 0)
(1.01049 0.000808989 0)
(1.01123 0.000795331 0)
(1.01196 0.000782803 0)
(1.01267 0.00077167 0)
(1.01337 0.000762116 0)
(1.01406 0.000754272 0)
(1.01474 0.000748261 0)
(1.01541 0.000744225 0)
(1.01607 0.000742353 0)
(1.01673 0.000742903 0)
(1.01737 0.000746231 0)
(1.01801 0.000752821 0)
(1.01865 0.000763318 0)
(1.01928 0.000778575 0)
(1.0199 0.000799709 0)
(1.02051 0.000828177 0)
(1.02111 0.000865867 0)
(1.02171 0.000915223 0)
(1.02229 0.000979397 0)
(1.02287 0.00106244 0)
(1.02343 0.00116955 0)
(1.02397 0.00130737 0)
(1.02449 0.00148438 0)
(1.02499 0.00171142 0)
(1.02546 0.00200229 0)
(1.0259 0.00237457 0)
(1.02629 0.00285066 0)
(1.02664 0.00345907 0)
(1.02693 0.00423608 0)
(1.02716 0.00522778 0)
(1.0273 0.00649264 0)
(1.02733 0.00810471 0)
(1.02725 0.0101575 0)
(1.02702 0.0127689 0)
(1.02662 0.0160865 0)
(1.026 0.0202939 0)
(1.02513 0.0256175 0)
(1.02396 0.0323317 0)
(1.02245 0.0407602 0)
(1.02055 0.0512753 0)
(1.01822 0.0642702 0)
(1.01548 0.080151 0)
(1.01229 0.0991747 0)
(1.00916 0.12162 0)
(1.0057 0.146735 0)
(1.00002 8.86845e-05 0)
(1.00022 0.000256453 0)
(1.00061 0.000396163 0)
(1.00116 0.000497971 0)
(1.00182 0.000567916 0)
(1.00254 0.000617328 0)
(1.00331 0.000651866 0)
(1.0041 0.00067271 0)
(1.00491 0.000682017 0)
(1.00573 0.000683441 0)
(1.00654 0.000679832 0)
(1.00735 0.000672707 0)