/*--------------------------------*- C++ -*----------------------------------*\
| =========                 |                                                 |
| \\      /  F ield         | OpenFOAM: The Open Source CFD Toolbox           |
|  \\    /   O peration     | Version:  2.4.0                                 |
|   \\  /    A nd           | Web:      www.OpenFOAM.org                      |
|    \\/     M anipulation  |                                                 |
\*---------------------------------------------------------------------------*/
FoamFile
{
    version     2.0;
    format      ascii;
    class       volScalarField;
    location    "3.76";
    object      p;
}
// * * * * * * * * * * * * * * * * * * * * * * * * * * * * * * * * * * * * * //

dimensions      [0 2 -2 0 0 0 0];

internalField   nonuniform List<scalar> 
6000
(
-0.115252
0.241596
0.198854
0.218723
0.211343
0.216162
0.213218
0.21531
0.214116
0.214903
0.214028
0.213684
0.212593
0.211994
0.211931
0.213305
0.215966
0.218617
0.218873
0.216787
0.218089
0.22165
0.218693
0.209335
0.198795
0.190482
0.184271
0.179912
0.177139
0.175962
0.176425
0.178658
0.182806
0.188996
0.197393
0.208125
0.221293
0.236952
0.255087
0.275589
0.298205
0.322496
0.347725
0.3728
0.396105
0.415772
0.429572
0.435598
0.432078
0.419011
0.39669
0.368654
0.33524
0.303141
0.265575
0.237917
0.190361
0.174599
0.0853977
0.104121
-0.0889129
0.238181
0.198928
0.218571
0.211364
0.216145
0.213226
0.215305
0.214133
0.214932
0.214083
0.213752
0.212653
0.212011
0.211857
0.21309
0.215584
0.21811
0.218416
0.216624
0.218175
0.222015
0.219391
0.210014
0.199242
0.190772
0.184465
0.18003
0.177188
0.17594
0.176334
0.178497
0.182557
0.188714
0.197064
0.20775
0.220872
0.236485
0.254569
0.275011
0.297554
0.321749
0.346857
0.37178
0.394913
0.41442
0.428053
0.433912
0.43025
0.417083
0.394723
0.366703
0.333339
0.3013
0.263926
0.236304
0.188992
0.172904
0.084036
0.102379
-0.0720245
0.234726
0.198956
0.218479
0.211372
0.216138
0.213228
0.215307
0.214148
0.214971
0.21414
0.213828
0.212721
0.21204
0.211795
0.212875
0.215179
0.217567
0.217941
0.216462
0.218276
0.222335
0.219963
0.210601
0.19973
0.191184
0.184796
0.180277
0.17735
0.176018
0.176326
0.178407
0.18239
0.188438
0.196691
0.207278
0.2203
0.235809
0.253786
0.274111
0.296525
0.320575
0.345516
0.370254
0.393194
0.412518
0.425986
0.431716
0.427984
0.414829
0.392559
0.364708
0.331548
0.299782
0.262542
0.235147
0.187745
0.172003
0.0826574
0.101716
-0.0598008
0.230874
0.199168
0.218395
0.211371
0.216129
0.213228
0.215311
0.214163
0.21501
0.214193
0.213899
0.212781
0.212063
0.211729
0.212668
0.214801
0.217084
0.217543
0.216328
0.218368
0.222556
0.220342
0.210993
0.200118
0.191561
0.185116
0.180524
0.177514
0.176096
0.176315
0.178304
0.182195
0.188141
0.196288
0.206769
0.219683
0.235084
0.252947
0.273154
0.295441
0.319352
0.344142
0.368718
0.391488
0.410628
0.423923
0.42951
0.425687
0.412519
0.39031
0.362611
0.329627
0.298095
0.260968
0.233844
0.186369
0.170994
0.0811178
0.101186
-0.0479927
0.226747
0.19955
0.218314
0.211369
0.216118
0.213229
0.215315
0.214175
0.215044
0.214238
0.21396
0.212832
0.21208
0.211662
0.212477
0.214468
0.216683
0.217232
0.21624
0.218444
0.22269
0.220544
0.211197
0.200384
0.191857
0.185376
0.180723
0.177639
0.176142
0.176276
0.178176
0.181976
0.187828
0.195878
0.206262
0.21908
0.234382
0.252147
0.272252
0.294431
0.318228
0.342895
0.36734
0.389966
0.408939
0.422067
0.427504
0.423562
0.410339
0.388138
0.360542
0.327683
0.296363
0.259333
0.232495
0.184912
0.169975
0.0794726
0.100777
-0.036407
0.22251
0.200057
0.218218
0.211374
0.216103
0.213229
0.215317
0.214185
0.215074
0.214277
0.214013
0.212874
0.21209
0.211597
0.212298
0.214168
0.21634
0.216991
0.216191
0.218521
0.222767
0.220613
0.211267
0.200561
0.192086
0.185582
0.180876
0.177726
0.176155
0.176209
0.178026
0.181739
0.187504
0.195466
0.205762
0.218492
0.233708
0.251386
0.271403
0.293491
0.317192
0.341757
0.366093
0.388594
0.407419
0.420393
0.425679
0.421605
0.408301
0.386073
0.358543
0.325775
0.29465
0.257705
0.231159
0.183438
0.168994
0.0777965
0.100487
-0.0256654
0.218263
0.200596
0.218095
0.211393
0.216084
0.21323
0.215318
0.214195
0.2151
0.214311
0.21406
0.212911
0.212097
0.211531
0.212127
0.213892
0.216037
0.216802
0.216183
0.218613
0.22281
0.220586
0.211244
0.200678
0.192266
0.185748
0.180996
0.177783
0.176142
0.17612
0.177858
0.181489
0.187171
0.19505
0.205264
0.217913
0.233049
0.250649
0.270586
0.292593
0.31621
0.340686
0.364927
0.387316
0.406011
0.418841
0.423983
0.419772
0.406373
0.384095
0.356609
0.323912
0.292972
0.256101
0.229851
0.181978
0.168063
0.0761352
0.100309
-0.0158247
0.214077
0.201093
0.217953
0.211418
0.216062
0.213232
0.215318
0.214204
0.215124
0.214342
0.214102
0.212944
0.212102
0.211466
0.211963
0.213631
0.215763
0.216655
0.216216
0.218733
0.222835
0.220493
0.211162
0.200753
0.192409
0.185883
0.181089
0.177816
0.176107
0.176013
0.177674
0.181226
0.186829
0.194628
0.204764
0.217337
0.232398
0.249923
0.269788
0.29172
0.315261
0.339657
0.363812
0.3861
0.404677
0.417374
0.422376
0.418027
0.404522
0.382181
0.354723
0.322085
0.291322
0.254521
0.22857
0.180543
0.167179
0.074509
0.100228
-0.00665496
0.210016
0.2015
0.217808
0.211438
0.216041
0.213236
0.215318
0.214214
0.215146
0.214371
0.214142
0.212975
0.212104
0.211402
0.211804
0.213383
0.215511
0.216542
0.21629
0.218889
0.222859
0.22036
0.211042
0.200799
0.192525
0.185994
0.18116
0.17783
0.176056
0.17589
0.177477
0.180953
0.186478
0.194201
0.204261
0.21676
0.231749
0.249204
0.268999
0.290861
0.314331
0.338654
0.362731
0.384927
0.403398
0.415969
0.420836
0.416345
0.402727
0.380311
0.352869
0.320281
0.289691
0.252959
0.227313
0.179132
0.166339
0.0729264
0.100231
0.00199841
0.206121
0.201794
0.217659
0.211454
0.216022
0.21324
0.215317
0.214223
0.215168
0.214399
0.214179
0.213004
0.212106
0.211339
0.211649
0.213144
0.215276
0.216458
0.216403
0.219088
0.222897
0.220209
0.210906
0.200828
0.19262
0.186086
0.181214
0.177829
0.17599
0.175754
0.177268
0.180669
0.186119
0.193767
0.203753
0.21618
0.2311
0.248487
0.268214
0.290009
0.313411
0.337667
0.36167
0.383783
0.402155
0.414608
0.419341
0.414707
0.400968
0.378468
0.351034
0.318491
0.288072
0.251411
0.226075
0.177748
0.165541
0.0713911
0.10031
0.010188
0.202412
0.201969
0.217489
0.211491
0.216005
0.213247
0.215316
0.214234
0.215188
0.214427
0.214216
0.213032
0.212107
0.211277
0.211498
0.212912
0.215054
0.216397
0.216555
0.219334
0.22296
0.220058
0.210769
0.200849
0.192701
0.186165
0.181256
0.177816
0.175913
0.175608
0.17705
0.180377
0.185752
0.193327
0.203241
0.215597
0.230448
0.247767
0.267428
0.289158
0.312495
0.336687
0.360619
0.382656
0.400935
0.413273
0.417875
0.413096
0.399231
0.376639
0.349207
0.316706
0.286459
0.249875
0.224855
0.176389
0.164783
0.0699048
0.100456
0.0179426
0.198904
0.202029
0.217295
0.211558
0.215987
0.213258
0.215314
0.214245
0.215208
0.214454
0.214251
0.213059
0.212109
0.211217
0.211351
0.212686
0.214842
0.216356
0.216743
0.219628
0.223058
0.219923
0.210643
0.20087
0.192775
0.186234
0.181288
0.177793
0.175828
0.175454
0.176824
0.180078
0.18538
0.192881
0.202724
0.215009
0.229791
0.247043
0.266639
0.288303
0.311576
0.335706
0.359571
0.381536
0.399725
0.411953
0.416425
0.411497
0.3975
0.374811
0.347377
0.314919
0.284845
0.248346
0.22365
0.175056
0.164062
0.0684677
0.100665
0.0252974
0.195607
0.201981
0.217068
0.211657
0.215964
0.213274
0.215314
0.214257
0.215228
0.214482
0.214286
0.213088
0.212112
0.21116
0.211208
0.212466
0.214637
0.21633
0.216964
0.219967
0.223198
0.219816
0.21054
0.200898
0.192847
0.1863
0.181314
0.177765
0.175736
0.175294
0.176593
0.179774
0.185003
0.192431
0.202201
0.214416
0.229129
0.246314
0.265843
0.287441
0.310651
0.334718
0.358519
0.380414
0.398517
0.410636
0.414978
0.409898
0.395764
0.372974
0.345536
0.313123
0.283227
0.246822
0.222458
0.173747
0.163378
0.0670792
0.100931
0.0322873
0.192526
0.201835
0.2168
0.211789
0.215927
0.213296
0.215315
0.214271
0.215248
0.21451
0.214322
0.213117
0.212116
0.211105
0.211069
0.212252
0.214438
0.216316
0.217215
0.220349
0.223383
0.219748
0.210467
0.20094
0.192923
0.186364
0.181339
0.177734
0.175642
0.175131
0.176359
0.179466
0.184622
0.191977
0.201675
0.213818
0.228461
0.245577
0.265039
0.286571
0.309716
0.33372
0.357458
0.379284
0.397302
0.409313
0.413523
0.408289
0.394013
0.371118
0.343676
0.311311
0.2816
0.2453
0.221275
0.172462
0.162728
0.0657382
0.101249
0.0389401
0.189665
0.201602
0.21649
0.211935
0.215887
0.213323
0.215318
0.214287
0.215269
0.21454
0.214358
0.213147
0.212122
0.211055
0.210936
0.212043
0.214244
0.216312
0.217493
0.220767
0.223613
0.219724
0.210431
0.200999
0.193005
0.186431
0.181364
0.177703
0.175546
0.174967
0.176123
0.179157
0.184239
0.191521
0.201146
0.213217
0.227788
0.244834
0.264226
0.285689
0.308769
0.332708
0.356384
0.378141
0.396074
0.407976
0.412053
0.40666
0.392238
0.369235
0.341789
0.309479
0.27996
0.243777
0.220102
0.171199
0.162111
0.0644434
0.101618
0.0452775
0.187021
0.201293
0.216135
0.212083
0.215855
0.213348
0.215325
0.214307
0.215292
0.214571
0.214395
0.213179
0.212131
0.211009
0.21081
0.21184
0.214056
0.216315
0.217792
0.221214
0.223886
0.219748
0.210436
0.20108
0.193098
0.186505
0.181392
0.177673
0.175451
0.174803
0.175887
0.178849
0.183856
0.191064
0.200614
0.212611
0.22711
0.244084
0.263404
0.284797
0.307809
0.331682
0.355294
0.37698
0.394827
0.406618
0.410558
0.405003
0.39043
0.367317
0.33987
0.307623
0.278304
0.242251
0.218936
0.169959
0.161526
0.0631932
0.102035
0.0513181
0.184589
0.200922
0.215739
0.212223
0.21583
0.213376
0.215337
0.21433
0.215316
0.214604
0.214434
0.213214
0.212142
0.210968
0.21069
0.211646
0.213873
0.216324
0.218109
0.221683
0.2242
0.219825
0.210485
0.201187
0.193205
0.186586
0.181425
0.177648
0.17536
0.174642
0.175654
0.178541
0.183474
0.190607
0.200082
0.212004
0.226428
0.243327
0.262574
0.283894
0.306835
0.33064
0.354186
0.3758
0.393558
0.405235
0.409034
0.40331
0.388581
0.365359
0.337913
0.305737
0.276629
0.240721
0.217775
0.16874
0.160972
0.061986
0.102496
0.0570785
0.182366
0.200502
0.215305
0.212349
0.215813
0.213408
0.215354
0.214359
0.215343
0.21464
0.214474
0.213251
0.212158
0.210934
0.210579
0.211461
0.213697
0.216339
0.21844
0.222166
0.224547
0.219952
0.21058
0.201321
0.19333
0.186679
0.181467
0.177628
0.175274
0.174485
0.175424
0.178238
0.183095
0.190152
0.19955
0.211396
0.225743
0.242566
0.261737
0.282981
0.305848
0.329582
0.35306
0.374597
0.392262
0.40382
0.407472
0.401574
0.386685
0.363352
0.335913
0.303819
0.274933
0.239184
0.21662
0.167542
0.160448
0.0608201
0.103001
0.0625735
0.180344
0.200044
0.214839
0.212458
0.215802
0.213451
0.215372
0.214394
0.215375
0.214679
0.214516
0.21329
0.212177
0.210905
0.210478
0.211286
0.213529
0.216358
0.218779
0.222656
0.224921
0.22013
0.210721
0.201485
0.193473
0.186785
0.181518
0.177617
0.175194
0.174334
0.175201
0.177939
0.182721
0.1897
0.199021
0.210789
0.225057
0.241801
0.260892
0.282058
0.304847
0.328508
0.351913
0.373369
0.390935
0.402369
0.405868
0.399789
0.384735
0.361293
0.333865
0.301864
0.273212
0.23764
0.215469
0.166365
0.159954
0.0596939
0.103548
0.0678168
0.178516
0.199561
0.214347
0.212544
0.215792
0.213514
0.215386
0.214434
0.215411
0.214723
0.214561
0.213333
0.212201
0.210884
0.210387
0.211124
0.213371
0.216381
0.219124
0.223147
0.225315
0.220355
0.210908
0.201679
0.193637
0.186907
0.181582
0.177615
0.175124
0.174192
0.174984
0.177647
0.182352
0.189254
0.198496
0.210184
0.224372
0.241034
0.260044
0.281127
0.303835
0.327419
0.350746
0.372115
0.389577
0.400879
0.404217
0.397948
0.382724
0.359174
0.331765
0.29987
0.271467
0.236087
0.214322
0.165206
0.15949
0.0586055
0.104136
0.0728208
0.176872
0.199061
0.213835
0.212606
0.215781
0.213594
0.2154
0.214477
0.215453
0.214773
0.21461
0.21338
0.212229
0.210871
0.210307
0.210975
0.213224
0.216408
0.21947
0.223634
0.225722
0.220623
0.21114
0.201904
0.193823
0.187044
0.181658
0.177625
0.175063
0.174059
0.174777
0.177364
0.181992
0.188815
0.197977
0.209583
0.223689
0.240267
0.259191
0.280189
0.302813
0.326315
0.349559
0.370835
0.388184
0.399346
0.402512
0.396046
0.380647
0.356991
0.329609
0.297834
0.269694
0.234524
0.213178
0.164067
0.159055
0.0575533
0.104765
0.0775972
0.175405
0.198556
0.213309
0.212642
0.215767
0.213688
0.215415
0.214528
0.215501
0.214829
0.214664
0.213432
0.212263
0.210867
0.21024
0.210842
0.21309
0.216438
0.219813
0.224114
0.226135
0.220929
0.211413
0.202159
0.194032
0.1872
0.181749
0.177648
0.175014
0.173937
0.174581
0.177091
0.181641
0.188384
0.197465
0.208989
0.223009
0.239501
0.258338
0.279246
0.301782
0.325197
0.348353
0.369527
0.386755
0.397766
0.400751
0.394077
0.378498
0.354738
0.327394
0.295754
0.267892
0.232951
0.212037
0.162947
0.158648
0.0565355
0.105434
0.082157
0.174104
0.198052
0.212777
0.212652
0.215746
0.213795
0.215437
0.21458
0.215555
0.214894
0.214723
0.213489
0.212303
0.210871
0.210186
0.210725
0.212969
0.216471
0.22015
0.224581
0.226548
0.221267
0.211725
0.202444
0.194265
0.187374
0.181856
0.177685
0.174979
0.173828
0.174396
0.17683
0.181301
0.187964
0.196963
0.208402
0.222336
0.23874
0.257485
0.278301
0.300745
0.324068
0.347128
0.368192
0.385288
0.396137
0.398928
0.392036
0.376272
0.35241
0.325115
0.293626
0.266061
0.231366
0.2109
0.161844
0.158271
0.0555504
0.106143
0.0865107
0.17296
0.197558
0.212243
0.212637
0.215717
0.21391
0.215468
0.214635
0.215611
0.214968
0.21479
0.213552
0.212349
0.210885
0.210145
0.210626
0.212864
0.216507
0.220478
0.225035
0.226957
0.221633
0.212073
0.202758
0.194522
0.187568
0.181979
0.177737
0.174957
0.173732
0.174225
0.176582
0.180975
0.187557
0.196472
0.207825
0.221671
0.237984
0.256635
0.277356
0.299703
0.322929
0.345885
0.36683
0.383782
0.394456
0.397039
0.389917
0.373961
0.350004
0.322769
0.29145
0.264199
0.229769
0.209765
0.160759
0.157923
0.0545962
0.106892
0.0906683
0.171964
0.197077
0.211714
0.212599
0.21568
0.214033
0.215509
0.214696
0.215668
0.21505
0.214864
0.213623
0.212403
0.210909
0.21012
0.210545
0.212775
0.216545
0.220794
0.225472
0.227358
0.22202
0.212451
0.203099
0.194802
0.187781
0.182121
0.177805
0.174952
0.173652
0.174069
0.176349
0.180663
0.187163
0.195995
0.207261
0.221017
0.237236
0.255791
0.276413
0.298658
0.321781
0.344626
0.365441
0.382237
0.392721
0.39508
0.387715
0.371563
0.347514
0.320354
0.289224
0.262306
0.22816
0.208634
0.159691
0.157605
0.0536711
0.107681
0.0946395
0.171106
0.196616
0.211194
0.212542
0.215635
0.21416
0.215558
0.214768
0.215725
0.215139
0.214948
0.213702
0.212465
0.210944
0.210109
0.210484
0.212702
0.216587
0.221095
0.225889
0.227749
0.222422
0.212856
0.203465
0.195105
0.188016
0.182281
0.177891
0.174963
0.173588
0.17393
0.176132
0.180367
0.186786
0.195532
0.20671
0.220375
0.236499
0.254955
0.275474
0.297614
0.320627
0.343352
0.364026
0.380652
0.390931
0.393049
0.385426
0.369071
0.344937
0.317867
0.286945
0.260382
0.226537
0.207507
0.158639
0.157316
0.0527732
0.10851
0.0984335
0.170377
0.196177
0.210687
0.212469
0.215583
0.214289
0.215615
0.214852
0.215782
0.215231
0.215041
0.213792
0.212536
0.21099
0.210114
0.210442
0.212648
0.216632
0.22138
0.226286
0.228127
0.222833
0.213284
0.203856
0.195431
0.188271
0.18246
0.177995
0.174992
0.173542
0.173808
0.175934
0.180089
0.186426
0.195087
0.206176
0.219748
0.235775
0.25413
0.274542
0.296572
0.319469
0.342066
0.362587
0.379027
0.389083
0.390941
0.383045
0.366481
0.342269
0.315307
0.284614
0.258427
0.224902
0.206384
0.157603
0.157056
0.0519007
0.10938
0.102059
0.169768
0.195764
0.210198
0.212383
0.215526
0.214418
0.21568
0.214948
0.215843
0.215324
0.215142
0.213893
0.212618
0.211049
0.210135
0.210421
0.212611
0.216681
0.221647
0.226659
0.228492
0.223246
0.21373
0.204269
0.195779
0.188546
0.182659
0.178118
0.175039
0.173515
0.173706
0.175754
0.17983
0.186085
0.194661
0.205661
0.219139
0.235067
0.253318
0.273621
0.295535
0.31831
0.340769
0.361124
0.377363
0.387177
0.388756
0.380569
0.363791
0.339508
0.312671
0.28223
0.256442
0.223253
0.205267
0.156582
0.156828
0.0510515
0.110292
0.105525
0.16927
0.195378
0.209729
0.212288
0.215464
0.214546
0.215752
0.215057
0.215909
0.215418
0.215249
0.214005
0.212711
0.21112
0.210172
0.210421
0.212594
0.216734
0.221895
0.227008
0.228842
0.223659
0.214192
0.204703
0.196149
0.188842
0.182878
0.17826
0.175106
0.173508
0.173623
0.175595
0.179592
0.185766
0.194256
0.205166
0.218549
0.234377
0.252521
0.272711
0.294506
0.317151
0.339463
0.359639
0.375661
0.385213
0.386491
0.377997
0.360997
0.336652
0.309961
0.279794
0.254428
0.221592
0.204156
0.155574
0.15663
0.0502236
0.111245
0.108839
0.168876
0.195021
0.209282
0.212187
0.215401
0.214672
0.215831
0.215179
0.215982
0.215513
0.215359
0.214128
0.212818
0.211207
0.210226
0.210442
0.212598
0.216791
0.222123
0.227331
0.229177
0.224068
0.214665
0.205156
0.196538
0.189159
0.183116
0.178423
0.175194
0.173521
0.173562
0.175458
0.179377
0.185469
0.193874
0.204693
0.217981
0.233708
0.251744
0.271818
0.293487
0.315997
0.338151
0.358134
0.373921
0.383192
0.384146
0.375327
0.3581
0.333702
0.307177
0.277306
0.252386
0.219918
0.203052
0.15458
0.156463
0.0494151
0.112241
0.11201
0.168577
0.194694
0.20886
0.212083
0.215338
0.214796
0.215916
0.215313
0.216065
0.215612
0.21547
0.21426
0.212937
0.211308
0.210299
0.210483
0.212623
0.216856
0.222332
0.227627
0.229497
0.224472
0.215146
0.205624
0.196947
0.189495
0.183375
0.178606
0.175302
0.173556
0.173523
0.175344
0.179186
0.185197
0.193517
0.204246
0.217438
0.233062
0.250987
0.270942
0.292483
0.314849
0.336835
0.356612
0.372145
0.381113
0.381722
0.372559
0.355101
0.33066
0.304322
0.27477
0.250319
0.218232
0.201957
0.153598
0.156328
0.0486236
0.11328
0.115044
0.168366
0.194397
0.208464
0.21198
0.215279
0.21492
0.216006
0.215458
0.216158
0.215716
0.21558
0.214399
0.213071
0.211427
0.21039
0.210546
0.21267
0.21693
0.222522
0.227895
0.229804
0.224867
0.215633
0.206106
0.197373
0.189851
0.183654
0.17881
0.175432
0.173614
0.173508
0.175255
0.17902
0.184951
0.193187
0.203826
0.216921
0.232442
0.250255
0.270087
0.291494
0.313711
0.335519
0.355073
0.370336
0.37898
0.37922
0.369698
0.352004
0.327532
0.301403
0.272189
0.248231
0.216536
0.200872
0.152628
0.156226
0.0478471
0.114362
0.117948
0.168235
0.19413
0.208093
0.21188
0.215224
0.215043
0.216102
0.215613
0.216262
0.21583
0.215691
0.214542
0.213216
0.211562
0.210501
0.21063
0.212736
0.217015
0.222695
0.228139
0.230094
0.225254
0.216122
0.2066
0.197816
0.190225
0.183954
0.179035
0.175585
0.173695
0.173517
0.175191
0.178881
0.184733
0.192885
0.203435
0.216434
0.23185
0.249549
0.269256
0.290525
0.312586
0.334204
0.353523
0.368496
0.376794
0.376644
0.366747
0.348818
0.324326
0.298427
0.26957
0.246127
0.21483
0.199799
0.151667
0.156155
0.0470835
0.115488
0.12073
0.16818
0.193893
0.20775
0.211785
0.215175
0.215167
0.216204
0.215777
0.216378
0.215953
0.215804
0.214688
0.213372
0.211715
0.210634
0.210739
0.212824
0.217113
0.222855
0.228359
0.230363
0.22563
0.216613
0.207103
0.198274
0.190618
0.184273
0.179282
0.17576
0.173801
0.173552
0.175154
0.17877
0.184545
0.192614
0.203075
0.215978
0.23129
0.248873
0.268453
0.289579
0.311476
0.332895
0.351962
0.366628
0.37456
0.374
0.363714
0.345552
0.321054
0.295405
0.26692
0.244011
0.213117
0.19874
0.150716
0.156118
0.0463306
0.116657
0.123395
0.168192
0.193685
0.207434
0.211697
0.215135
0.215294
0.216313
0.21595
0.216506
0.216088
0.215922
0.214835
0.213537
0.211885
0.210789
0.210872
0.212934
0.217222
0.223008
0.228558
0.230608
0.225993
0.217102
0.207616
0.198747
0.191029
0.184613
0.179551
0.175959
0.173931
0.173614
0.175146
0.178689
0.184388
0.192375
0.202749
0.215556
0.230763
0.248229
0.267679
0.288659
0.310385
0.331594
0.350394
0.364735
0.372281
0.371292
0.360609
0.342219
0.317732
0.292353
0.26425
0.241891
0.2114
0.197697
0.149773
0.156114
0.0455862
0.11787
0.12595
0.168267
0.193507
0.207145
0.211618
0.215105
0.215424
0.21643
0.216131
0.216646
0.216237
0.216048
0.214985
0.213709
0.212071
0.210965
0.21103
0.213068
0.217345
0.223156
0.228735
0.23083
0.226343
0.217588
0.208135
0.199234
0.191457
0.184973
0.179842
0.176182
0.174087
0.173703
0.175167
0.17864
0.184263
0.192171
0.202458
0.21517
0.230272
0.247621
0.266938
0.287767
0.309317
0.330304
0.348824
0.362822
0.369964
0.368529
0.357444
0.338835
0.314377
0.289287
0.261573
0.239776
0.209681
0.196672
0.148838
0.156143
0.0448486
0.119127
0.128399
0.168398
0.193357
0.206883
0.211549
0.215085
0.215559
0.216557
0.216321
0.216798
0.216399
0.216184
0.21514
0.213886
0.212271
0.211165
0.211215
0.213229
0.217484
0.223302
0.228893
0.231027
0.226677
0.218069
0.208659
0.199733
0.191903
0.185353
0.180155
0.176429
0.174269
0.17382
0.175218
0.178622
0.184173
0.192002
0.202204
0.214823
0.229819
0.24705
0.266232
0.286908
0.308273
0.329028
0.347253
0.360892
0.367613
0.36572
0.35423
0.335417
0.311007
0.286224
0.258903
0.237676
0.207967
0.195669
0.14791
0.156206
0.0441158
0.120427
0.130749
0.168582
0.193234
0.206648
0.211491
0.215076
0.215699
0.216695
0.216519
0.216963
0.216575
0.216332
0.215303
0.214068
0.212484
0.211386
0.211428
0.213416
0.217641
0.223446
0.229032
0.231199
0.226993
0.218543
0.209188
0.200245
0.192365
0.185752
0.180491
0.176701
0.174478
0.173966
0.1753
0.178638
0.184119
0.191872
0.20199
0.214516
0.229408
0.24652
0.265566
0.286084
0.307259
0.327771
0.345686
0.358951
0.365236
0.362875
0.350982
0.331981
0.307639
0.283181
0.256253
0.235601
0.206262
0.194689
0.146989
0.156302
0.0433863
0.12177
0.133004
0.168813
0.193139
0.206438
0.211444
0.215079
0.215847
0.216844
0.216726
0.217139
0.216765
0.216494
0.215475
0.214257
0.212709
0.211628
0.211668
0.213632
0.217819
0.223594
0.229156
0.231348
0.22729
0.219007
0.209719
0.200767
0.192843
0.186172
0.18085
0.176999
0.174716
0.174143
0.175415
0.178689
0.184101
0.191781
0.201818
0.214253
0.229041
0.246034
0.264942
0.285299
0.306277
0.326535
0.344127
0.357003
0.362839
0.360003
0.347714
0.328545
0.304293
0.280175
0.253636
0.233561
0.204572
0.193737
0.146074
0.15643
0.0426586
0.123154
0.135168
0.169086
0.193069
0.206253
0.211409
0.215095
0.216001
0.217005
0.216944
0.217328
0.216969
0.216671
0.21566
0.214455
0.212945
0.211889
0.211935
0.213877
0.21802
0.223747
0.229268
0.231474
0.227565
0.219459
0.21025
0.201299
0.193338
0.186612
0.181232
0.177322
0.174981
0.17435
0.175564
0.178776
0.184123
0.191731
0.201689
0.214034
0.22872
0.245594
0.264364
0.284555
0.30533
0.325324
0.34258
0.355054
0.36043
0.357115
0.34444
0.325126
0.300983
0.277219
0.251064
0.231566
0.202904
0.192815
0.145168
0.15659
0.0419315
0.124577
0.137247
0.169399
0.193025
0.206093
0.211387
0.215123
0.216163
0.217179
0.217174
0.21753
0.217187
0.216865
0.215861
0.214665
0.213192
0.212168
0.212229
0.214153
0.218245
0.223908
0.229369
0.231579
0.227818
0.219897
0.21078
0.201841
0.193848
0.187073
0.181638
0.177672
0.175276
0.17459
0.175747
0.178901
0.184185
0.191725
0.201605
0.213864
0.228448
0.245203
0.263833
0.283857
0.304422
0.324141
0.341047
0.353108
0.358016
0.354223
0.341176
0.32174
0.297725
0.274326
0.248546
0.229622
0.201264
0.191927
0.14427
0.156782
0.0412041
0.126038
0.139243
0.169746
0.193006
0.205958
0.211378
0.215164
0.216333
0.217366
0.217415
0.217747
0.217419
0.217075
0.216078
0.214889
0.213452
0.212465
0.212547
0.214457
0.218496
0.224081
0.229465
0.231664
0.228049
0.220317
0.211306
0.20239
0.194373
0.187553
0.182067
0.178049
0.175601
0.174862
0.175966
0.179064
0.184289
0.191763
0.20157
0.213743
0.228228
0.244865
0.263354
0.283208
0.303556
0.322989
0.339534
0.351171
0.355606
0.351338
0.337934
0.318402
0.294532
0.271506
0.246089
0.227736
0.199658
0.191075
0.143383
0.157003
0.0404761
0.127534
0.141162
0.170125
0.193011
0.205846
0.211381
0.215218
0.216511
0.217565
0.217669
0.217979
0.217666
0.217303
0.216314
0.21513
0.213728
0.212779
0.212889
0.214791
0.218774
0.224269
0.229557
0.231734
0.228256
0.220719
0.211825
0.202945
0.194913
0.188054
0.182521
0.178454
0.175957
0.175168
0.176222
0.179268
0.184436
0.191848
0.201584
0.213675
0.228062
0.244582
0.26293
0.28261
0.302736
0.321873
0.338044
0.349248
0.353208
0.348471
0.334729
0.315126
0.291416
0.268768
0.243701
0.225912
0.198088
0.190263
0.142509
0.157254
0.0397472
0.129061
0.143006
0.170532
0.19304
0.205757
0.211397
0.215284
0.216697
0.217777
0.217934
0.218227
0.217929
0.217548
0.216569
0.21539
0.21402
0.213111
0.213254
0.215152
0.219079
0.224473
0.22965
0.231789
0.22844
0.221099
0.212335
0.203504
0.195466
0.188574
0.182999
0.178887
0.176344
0.175509
0.176516
0.179513
0.184628
0.191981
0.20165
0.213662
0.227953
0.244356
0.262563
0.282068
0.301964
0.320794
0.336581
0.347345
0.350829
0.345634
0.331574
0.311925
0.288388
0.266119
0.241384
0.224152
0.196559
0.189491
0.141649
0.157534
0.0390179
0.130617
0.144778
0.170963
0.19309
0.20569
0.211426
0.215363
0.216892
0.218002
0.218212
0.218493
0.218207
0.217812
0.216845
0.215672
0.214333
0.213461
0.21364
0.215538
0.21941
0.224696
0.229747
0.231835
0.228604
0.221457
0.212833
0.204065
0.196032
0.189115
0.183502
0.179348
0.176763
0.175885
0.176849
0.1798
0.184867
0.192164
0.201769
0.213705
0.227904
0.244192
0.262258
0.281584
0.301244
0.319756
0.335148
0.345468
0.348477
0.342836
0.328482
0.308812
0.285457
0.263564
0.239143
0.222459
0.195073
0.188762
0.140806
0.157841
0.038289
0.132198
0.146483
0.171417
0.193163
0.205646
0.211469
0.215454
0.217095
0.218238
0.218502
0.218775
0.218503
0.218094
0.217141
0.215976
0.214667
0.213833
0.214047
0.215948
0.219766
0.224938
0.229852
0.231873
0.228749
0.221792
0.213317
0.204625
0.196608
0.189674
0.18403
0.179839
0.177215
0.176297
0.177222
0.180132
0.185153
0.1924
0.201945
0.213808
0.227916
0.244092
0.262016
0.281162
0.300578
0.318762
0.333749
0.343622
0.346161
0.340089
0.325464
0.305796
0.282629
0.261107
0.23698
0.220834
0.193632
0.188077
0.139983
0.158176
0.0375619
0.1338
0.148123
0.171891
0.193256
0.205623
0.211524
0.215557
0.217306
0.218485
0.218803
0.219073
0.218816
0.218395
0.217457
0.216304
0.215026
0.214226
0.214474
0.21638
0.220145
0.225199
0.229966
0.231908
0.228877
0.222104
0.213785
0.205182
0.197194
0.190252
0.184583
0.180359
0.1777
0.176747
0.177637
0.180509
0.185489
0.192688
0.202178
0.213972
0.227994
0.244059
0.261842
0.280805
0.29997
0.317813
0.332387
0.341812
0.343888
0.337402
0.322531
0.302887
0.27991
0.25875
0.234895
0.219277
0.192237
0.187436
0.139182
0.158538
0.0368382
0.135418
0.149701
0.172382
0.193369
0.20562
0.211593
0.215672
0.217525
0.218743
0.219115
0.219387
0.219147
0.218717
0.217796
0.216657
0.215411
0.214644
0.214924
0.216833
0.220546
0.225479
0.230091
0.231944
0.228992
0.222395
0.214234
0.205734
0.197787
0.190847
0.18516
0.180909
0.17822
0.177236
0.178093
0.180932
0.185876
0.193033
0.202471
0.214201
0.228139
0.244095
0.261739
0.280515
0.299422
0.316913
0.331066
0.340044
0.341665
0.334785
0.319694
0.300094
0.277305
0.256495
0.232889
0.217788
0.19089
0.186839
0.138405
0.158925
0.0361201
0.137048
0.151219
0.172887
0.193502
0.205638
0.211674
0.215799
0.217753
0.219012
0.219437
0.219716
0.219495
0.219061
0.218156
0.217034
0.215822
0.215088
0.215396
0.217306
0.220965
0.225778
0.230229
0.231982
0.229097
0.222666
0.214665
0.206277
0.198385
0.191457
0.185761
0.181489
0.178774
0.177763
0.178593
0.181403
0.186315
0.193434
0.202826
0.214496
0.228354
0.244205
0.26171
0.280297
0.298936
0.316063
0.329788
0.338321
0.3395
0.332246
0.31696
0.297421
0.274816
0.254342
0.230962
0.216365
0.189591
0.186286
0.137653
0.159339
0.03541
0.138687
0.15268
0.173405
0.193653
0.205676
0.211769
0.215938
0.217988
0.21929
0.219769
0.22006
0.21986
0.219425
0.218539
0.217437
0.216261
0.215559
0.215892
0.217798
0.221401
0.226092
0.230381
0.232027
0.229196
0.22292
0.215078
0.206811
0.198985
0.192082
0.186385
0.182099
0.179364
0.178331
0.179138
0.181923
0.186808
0.193895
0.203245
0.214859
0.228642
0.24439
0.261757
0.280152
0.298514
0.315264
0.328558
0.33665
0.337397
0.329795
0.314339
0.294875
0.272444
0.25229
0.229113
0.21501
0.188341
0.185778
0.13693
0.159779
0.0347105
0.14033
0.154087
0.173935
0.193823
0.205733
0.211877
0.216088
0.218232
0.219578
0.220111
0.220416
0.220241
0.21981
0.218945
0.217865
0.216727
0.216058
0.216413
0.21831
0.221853
0.226421
0.230546
0.23208
0.229292
0.22316
0.215474
0.207334
0.199587
0.19272
0.187031
0.182738
0.179989
0.178938
0.179728
0.182493
0.187356
0.194416
0.203731
0.215295
0.229006
0.244655
0.261885
0.280084
0.298157
0.314519
0.327376
0.335033
0.335365
0.327437
0.311836
0.292458
0.270189
0.250338
0.22734
0.213719
0.18714
0.185315
0.136235
0.160243
0.0340245
0.141975
0.155441
0.174473
0.194009
0.205809
0.211999
0.216251
0.218483
0.219876
0.220462
0.220785
0.220635
0.220215
0.219374
0.218319
0.21722
0.216585
0.216959
0.218841
0.222319
0.226762
0.230724
0.232143
0.22939
0.223391
0.215855
0.207846
0.200187
0.193368
0.187698
0.183406
0.180649
0.179587
0.180364
0.183115
0.187961
0.195
0.204284
0.215804
0.229449
0.245002
0.262097
0.280095
0.297867
0.313828
0.326247
0.333474
0.333406
0.32518
0.309456
0.290172
0.26805
0.248482
0.225642
0.212494
0.185988
0.184895
0.135572
0.160733
0.0333545
0.143617
0.156745
0.175019
0.194212
0.205903
0.212133
0.216425
0.218743
0.220182
0.220821
0.221165
0.221044
0.220637
0.219825
0.218799
0.217741
0.21714
0.21753
0.219392
0.222798
0.227113
0.230913
0.232217
0.229492
0.223615
0.216224
0.208347
0.200785
0.194025
0.188385
0.184102
0.181344
0.180278
0.181047
0.18379
0.188625
0.195648
0.204909
0.216389
0.229973
0.245435
0.262394
0.280185
0.297643
0.313192
0.325171
0.331977
0.331527
0.323029
0.307205
0.288017
0.266026
0.246721
0.224019
0.211332
0.184885
0.184518
0.134942
0.161246
0.0327035
0.145255
0.158
0.175571
0.19443
0.206014
0.21228
0.216611
0.219011
0.220498
0.221188
0.221556
0.221464
0.221076
0.220296
0.219304
0.218288
0.217723
0.218128
0.219963
0.22329
0.227474
0.231113
0.232304
0.229602
0.223838
0.216585
0.20884
0.201381
0.19469
0.18909
0.184826
0.182075
0.18101
0.181778
0.184518
0.189349
0.196363
0.205606
0.217054
0.230582
0.245956
0.262781
0.280358
0.297486
0.312612
0.324151
0.330544
0.329732
0.320989
0.305085
0.285993
0.264112
0.245051
0.222467
0.210232
0.183832
0.184184
0.134345
0.161783
0.0320741
0.146885
0.159209
0.176128
0.194664
0.206143
0.21244
0.216808
0.219288
0.220822
0.221564
0.221957
0.221897
0.221531
0.220786
0.219832
0.218862
0.218333
0.21875
0.220553
0.223795
0.227843
0.231323
0.232403
0.229721
0.224064
0.216941