/*--------------------------------*- C++ -*----------------------------------*\
| =========                 |                                                 |
| \\      /  F ield         | OpenFOAM: The Open Source CFD Toolbox           |
|  \\    /   O peration     | Version:  2.4.0                                 |
|   \\  /    A nd           | Web:      www.OpenFOAM.org                      |
|    \\/     M anipulation  |                                                 |
\*---------------------------------------------------------------------------*/
FoamFile
{
    version     2.0;
    format      ascii;
    class       volScalarField;
    location    "4.36";
    object      nut;
}
// * * * * * * * * * * * * * * * * * * * * * * * * * * * * * * * * * * * * * //

dimensions      [0 2 -1 0 0 0 0];

internalField   nonuniform List<scalar> 
6000
(
4.70151e-05
1.44412e-05
4.24852e-06
8.77675e-06
7.78895e-06
8.92686e-06
8.5684e-06
8.94211e-06
8.81802e-06
9.02724e-06
9.06746e-06
9.29869e-06
9.51446e-06
9.87411e-06
1.02893e-05
1.08155e-05
1.14055e-05
1.2074e-05
1.28018e-05
1.35972e-05
1.44549e-05
1.53745e-05
1.63447e-05
1.73515e-05
1.8375e-05
1.9395e-05
2.03905e-05
2.13407e-05
2.22248e-05
2.30223e-05
2.37124e-05
2.42739e-05
2.46854e-05
2.49245e-05
2.49666e-05
2.47888e-05
2.43686e-05
2.36837e-05
2.27168e-05
2.14563e-05
1.99127e-05
1.81243e-05
1.61729e-05
1.57852e-05
1.77579e-05
1.9792e-05
2.17869e-05
2.37906e-05
2.55877e-05
2.73807e-05
2.87354e-05
3.02648e-05
3.09636e-05
3.24149e-05
3.21695e-05
3.40953e-05
3.23235e-05
3.58727e-05
3.16575e-05
3.81254e-05
2.94897e-05
9.50707e-06
3.16622e-06
7.01507e-06
6.32285e-06
7.0173e-06
6.77568e-06
7.00981e-06
6.93852e-06
7.08679e-06
7.14426e-06
7.33619e-06
7.54051e-06
7.85453e-06
8.22766e-06
8.6909e-06
9.21726e-06
9.81392e-06
1.04711e-05
1.11933e-05
1.19772e-05
1.28199e-05
1.37114e-05
1.4639e-05
1.55872e-05
1.65415e-05
1.74885e-05
1.84168e-05
1.93174e-05
2.01839e-05
2.10122e-05
2.18016e-05
2.25555e-05
2.32817e-05
2.39913e-05
2.47103e-05
2.54822e-05
2.63797e-05
2.75245e-05
2.91258e-05
3.15358e-05
3.53293e-05
4.10974e-05
4.21351e-05
3.5989e-05
3.14479e-05
2.83878e-05
2.63615e-05
2.50773e-05
2.42914e-05
2.3772e-05
2.35418e-05
2.32314e-05
2.3306e-05
2.28487e-05
2.33115e-05
2.23234e-05
2.36343e-05
2.15949e-05
2.4271e-05
2.14309e-05
8.16011e-06
2.81437e-06
5.88992e-06
5.3268e-06
5.68258e-06
5.49848e-06
5.63348e-06
5.59671e-06
5.71312e-06
5.79861e-06
5.99309e-06
6.2319e-06
6.57472e-06
6.99884e-06
7.52279e-06
8.13722e-06
8.84898e-06
9.65956e-06
1.05751e-05
1.15976e-05
1.27244e-05
1.39475e-05
1.52544e-05
1.66316e-05
1.8067e-05
1.95516e-05
2.10815e-05
2.26583e-05
2.42905e-05
2.59946e-05
2.7798e-05
2.97422e-05
3.18849e-05
3.4288e-05
3.70727e-05
4.04114e-05
4.45674e-05
4.99445e-05
5.71837e-05
6.72523e-05
8.15091e-05
0.000100494
0.000103154
8.31667e-05
6.63579e-05
5.36112e-05
4.39869e-05
3.7019e-05
3.17565e-05
2.79843e-05
2.50285e-05
2.29029e-05
2.11652e-05
1.98595e-05
1.88599e-05
1.787e-05
1.75412e-05
1.64272e-05
1.68536e-05
1.78746e-05
7.96936e-06
2.98819e-06
5.26081e-06
4.70408e-06
4.76817e-06
4.59485e-06
4.65212e-06
4.63758e-06
4.74356e-06
4.8713e-06
5.10819e-06
5.43202e-06
5.88282e-06
6.46317e-06
7.19064e-06
8.07737e-06
9.14006e-06
1.03993e-05
1.18732e-05
1.35772e-05
1.55171e-05
1.76916e-05
2.00922e-05
2.27088e-05
2.55325e-05
2.856e-05
3.17966e-05
3.52589e-05
3.89769e-05
4.29975e-05
4.73907e-05
5.2258e-05
5.76994e-05
6.38362e-05
7.09233e-05
7.9281e-05
8.93692e-05
0.000101837
0.000117619
0.000137934
0.000164131
0.000194923
0.000197978
0.000165363
0.000134244
0.000108092
8.65485e-05
6.97e-05
5.61921e-05
4.60281e-05
3.77714e-05
3.1797e-05
2.66821e-05
2.32346e-05
1.99527e-05
1.80106e-05
1.58685e-05
1.47333e-05
1.35043e-05
1.67546e-05
8.44511e-06
3.53558e-06
5.0392e-06
4.40623e-06
4.18554e-06
3.98081e-06
3.96803e-06
3.96699e-06
4.08035e-06
4.27012e-06
4.59468e-06
5.06872e-06
5.72887e-06
6.60816e-06
7.73835e-06
9.16512e-06
1.09318e-05
1.30937e-05
1.56971e-05
1.8785e-05
2.23829e-05
2.65045e-05
3.11498e-05
3.63134e-05
4.19883e-05
4.81738e-05
5.48797e-05
6.21306e-05
6.99687e-05
7.84584e-05
8.76953e-05
9.78226e-05
0.000108803
0.000120855
0.00013427
0.000149389
0.000166683
0.000186776
0.000210511
0.000238857
0.000272635
0.000308288
0.00031061
0.000271832
0.000230629
0.000192693
0.000158727
0.000129845
0.000105018
8.49489e-05
6.79034e-05
5.48508e-05
4.35532e-05
3.56011e-05
2.8171e-05
2.37122e-05
1.87544e-05
1.65115e-05
1.35312e-05
1.71085e-05
9.39792e-06
4.39216e-06
5.14754e-06
4.41111e-06
3.88998e-06
3.6107e-06
3.52448e-06
3.53003e-06
3.66773e-06
3.94732e-06
4.41746e-06
5.13287e-06
6.14539e-06
7.53234e-06
9.36065e-06
1.17295e-05
1.47301e-05
1.84702e-05
2.30374e-05
2.85097e-05
3.49344e-05
4.2337e-05
5.07184e-05
6.00635e-05
7.03475e-05
8.15465e-05
9.36426e-05
0.00010663
0.000120514
0.000135323
0.00015111
0.000167907
0.000185466
0.000204053
0.000223885
0.000245204
0.00026836
0.000293814
0.000322195
0.000354176
0.000390092
0.000424942
0.000426229
0.000386954
0.000341471
0.000296517
0.000253545
0.000214343
0.000178469
0.000147324
0.000119494
9.6623e-05
7.63251e-05
6.09156e-05
4.67922e-05
3.74417e-05
2.7876e-05
2.28909e-05
1.74774e-05
1.83893e-05
1.07092e-05
5.51699e-06
5.50568e-06
4.69593e-06
3.86617e-06
3.46612e-06
3.29346e-06
3.29923e-06
3.47946e-06
3.88773e-06
4.58189e-06
5.66869e-06
7.2381e-06
9.4324e-06
1.23773e-05
1.62445e-05
2.11866e-05
2.73649e-05
3.49e-05
4.38866e-05
5.43724e-05
6.63701e-05
7.9853e-05
9.47631e-05
0.000111019
0.000128531
0.000147204
0.000166952
0.000187693
0.000209362
0.000231932
0.000255124
0.000278665
0.000302787
0.000327612
0.000353269
0.000379988
0.000408088
0.000438032
0.000470316
0.000504838
0.000536172
0.000536592
0.000499977
0.000454438
0.000406854
0.00035906
0.000313051
0.000268849
0.000228168
0.000190167
0.000156865
0.000126403
0.000101453
7.86276e-05
6.18386e-05
4.57041e-05
3.577e-05
2.6898e-05
2.02058e-05
1.22753e-05
6.86686e-06
6.06119e-06
5.2065e-06
4.11193e-06
3.54759e-06
3.26836e-06
3.2678e-06
3.51185e-06
4.10194e-06
5.12657e-06
6.76379e-06
9.16672e-06
1.25619e-05
1.71489e-05
2.31735e-05
3.08374e-05
4.03248e-05
5.175e-05
6.51833e-05
8.06375e-05
9.80819e-05
0.000117433
0.000138558
0.00016129
0.000185438
0.000210808
0.000237208
0.000264452
0.000292375
0.000320852
0.000349245
0.000377465
0.000405649
0.000433839
0.000462086
0.000490531
0.000519396
0.000549035
0.000579842
0.000611296
0.000638332
0.000638147
0.000605462
0.000562226
0.000514932
0.000465548
0.000416012
0.000366628
0.000319106
0.000273115
0.000230695
0.000190777
0.000155936
0.000123802
9.79256e-05
7.39468e-05
5.69208e-05
4.36559e-05
2.2247e-05
1.39955e-05
8.38979e-06
6.80673e-06
5.8606e-06
4.61336e-06
3.86289e-06
3.45722e-06
3.44432e-06
3.77815e-06
4.61935e-06
6.11171e-06
8.52595e-06
1.20977e-05
1.71428e-05
2.39277e-05
3.27443e-05
4.38009e-05
5.725e-05
7.31511e-05
9.15142e-05
0.000112297
0.000135412
0.000160706
0.000187963
0.000216918
0.000247278
0.000278746
0.000311034
0.000343866
0.000376992
0.000410127
0.000442514
0.000474174
0.000505168
0.000535484
0.000565113
0.00059414
0.000622719
0.000651131
0.000679656
0.000707553
0.000730376
0.000729778
0.000701224
0.000661344
0.000615973
0.000567067
0.0005164
0.000464419
0.000412677
0.000361193
0.000311822
0.000264206
0.000220554
0.000179773
0.000144531
0.000112452
8.701e-05
6.88591e-05
2.42783e-05
1.57759e-05
1.00268e-05
7.74508e-06
6.60046e-06
5.32029e-06
4.40755e-06
3.87116e-06
3.8443e-06
4.29956e-06
5.47483e-06
7.59499e-06
1.10385e-05
1.61277e-05
2.3249e-05
3.27035e-05
4.47775e-05
5.96326e-05
7.73401e-05
9.78782e-05
0.000121189
0.000147178
0.000175706
0.000206557
0.00023943
0.000273969
0.000309791
0.000346511
0.000383762
0.000421196
0.000458505
0.000495191
0.000530591
0.000564742
0.000597648
0.000629255
0.000659517
0.000688474
0.000716233
0.000743031
0.000768993
0.000793402
0.000812422
0.000811503
0.000786748
0.000750495
0.000707812
0.000660554
0.000610308
0.000557569
0.0005037
0.000448907
0.000394807
0.000341523
0.000290855
0.000242804
0.000199059
0.000159429
0.000125345
0.000102292
2.61484e-05
1.75359e-05
1.17168e-05
8.86248e-06
7.41984e-06
6.15249e-06
5.14504e-06
4.50573e-06
4.47487e-06
5.08877e-06
6.68526e-06
9.594e-06
1.4303e-05
2.12061e-05
3.07215e-05
4.31384e-05
5.86841e-05
7.74345e-05
9.93601e-05
0.000124361
0.000152327
0.000183126
0.000216579
0.000252409
0.000290241
0.000329639
0.000370142
0.000411292
0.000452662
0.000493847
0.000534508
0.000573885
0.000611565
0.000647526
0.000681725
0.00071408
0.000744511
0.000773033
0.00079972
0.000824762
0.000848168
0.000869361
0.000885053
0.000883817
0.000862304
0.000829518
0.000789754
0.000744713
0.000695804
0.000643517
0.000589037
0.000532637
0.000475721
0.000418653
0.000362914
0.000309215
0.000258476
0.000212307
0.000170304
0.000142621
2.77811e-05
1.92132e-05
1.34029e-05
1.01257e-05
8.34137e-06
7.04625e-06
6.0098e-06
5.32392e-06
5.31532e-06
6.12759e-06
8.22092e-06
1.20485e-05
1.81959e-05
2.71015e-05
3.91687e-05
5.46325e-05
7.36254e-05
9.61254e-05
0.000122009
0.000151121
0.000183317
0.000218443
0.000256281
0.000296502
0.00033866
0.00038225
0.000426746
0.000471627
0.00051642
0.000560673
0.000603978
0.000645471
0.000684896
0.000722179
0.000757241
0.000789977
0.000820287
0.000848164
0.000873665
0.000896913
0.000917909
0.000936195
0.000948995
0.000947386
0.000928496
0.0008988
0.000861875
0.000819242
0.000772154
0.000721061
0.000667004
0.000610241
0.000552016
0.000492745
0.000433714
0.000375957
0.000319952
0.000268452
0.000219835
0.000187922
2.91563e-05
2.07654e-05
1.50359e-05
1.14891e-05
9.37999e-06
7.98568e-06
6.94066e-06
6.26158e-06
6.30893e-06
7.35282e-06
9.98922e-06
1.48072e-05
2.24721e-05
3.34377e-05
4.80554e-05
6.64782e-05
8.87297e-05
0.000114698
0.000144187
0.000177007
0.000212995
0.000251979
0.000293706
0.000337793
0.000383728
0.000430946
0.000478863
0.000526909
0.000574572
0.000621362
0.000666766
0.000709947
0.000750718
0.000788965
0.000824579
0.00085744
0.000887432
0.000914538
0.000938795
0.000960273
0.000979038
0.000994706
0.00100497
0.0010029
0.000986029
0.00095896
0.000924627
0.000884367
0.000839298
0.000789818
0.000736852
0.0006806
0.000622193
0.000561972
0.000501144
0.000440747
0.000381143
0.000325548
0.000271857
0.000236158
3.02873e-05
2.21683e-05
1.65779e-05
1.29025e-05
1.05316e-05
8.9877e-06
7.91093e-06
7.25841e-06
7.38121e-06
8.6681e-06
1.18498e-05
1.76565e-05
2.68181e-05
3.97839e-05
5.68302e-05
7.80157e-05
0.000103256
0.000132365
0.000165096
0.000201239
0.000240623
0.000283054
0.000328241
0.00037575
0.000425006
0.000475387
0.000526262
0.000577017
0.000627109
0.000676019
0.000723104
0.000767643
0.000809454
0.000848392
0.000884324
0.00091712
0.000946654
0.000972902
0.000995875
0.00101565
0.00103234
0.00104564
0.00105365
0.00105101
0.00103561
0.00101068
0.000978617
0.000940569
0.000897541
0.000849874
0.000798407
0.000743257
0.00068548
0.000625269
0.000563832
0.000502
0.000440261
0.00038174
0.000324496
0.000285471
3.12037e-05
2.34129e-05
1.80026e-05
1.4317e-05
1.17749e-05
1.00714e-05
8.92716e-06
8.28565e-06
8.47387e-06
9.98028e-06
1.36585e-05
2.03796e-05
3.09312e-05
4.57501e-05
6.50289e-05
8.87298e-05
0.000116667
0.000148596
0.000184233
0.00022336
0.000265794
0.00031132
0.000359607
0.000410166
0.000462362
0.000515524
0.000568979
0.000622073
0.00067424
0.000724939
0.000773375
0.000819007
0.000861617
0.00090103
0.000937095
0.000969678
0.000998644
0.00102396
0.00104563
0.00106377
0.00107853
0.00108965
0.00109563
0.00109229
0.00107789
0.00105465
0.0010245
0.000988433
0.000947361
0.00090157
0.000851827
0.000798163
0.000741582
0.000682098
0.000620969
0.000558687
0.000496035
0.000435637
0.000376209
0.000334323
3.19396e-05
2.45009e-05
1.92949e-05
1.56896e-05
1.30772e-05
1.12422e-05
1.00079e-05
9.34766e-06
9.56527e-06
1.12337e-05
1.53127e-05
2.28126e-05
3.45825e-05
5.10501e-05
7.2326e-05
9.82794e-05
0.000128628
0.000163083
0.000201327
0.000243139
0.000288327
0.000336646
0.000387723
0.000441018
0.000495836
0.00055146
0.000607181
0.000662308
0.000716255
0.000768433
0.000817994
0.000864505
0.000907714
0.000947424
0.000983473
0.00101572
0.00104403
0.00106835
0.00108872
0.00110528
0.00111821
0.00112732
0.00113141
0.00112728
0.00111345
0.00109147
0.00106289
0.00102856
0.000989307
0.000945365
0.000897449
0.000845509
0.00079051
0.000732279
0.000672144
0.000610204
0.000547618
0.000486258
0.000425809
0.000381524
3.25279e-05
2.54417e-05
2.04487e-05
1.69853e-05
1.44e-05
1.24903e-05
1.1168e-05
1.04649e-05
1.0666e-05
1.24191e-05
1.6772e-05
2.48721e-05
3.76435e-05
5.55193e-05
7.85378e-05
0.000106481
0.000138972
0.000175684
0.000216271
0.000260506
0.000308183
0.000359029
0.000412628
0.000468387
0.000525552
0.000583365
0.000641084
0.000697983
0.000753463
0.000806865
0.00085736
0.000904568
0.000948208
0.000988066
0.00102397
0.00105577
0.00108333
0.00110661
0.00112568
0.00114072
0.00115189
0.00115911
0.00116143
0.0011564
0.00114282
0.00112173
0.00109439
0.00106155
0.00102394
0.000981766
0.0009357
0.000885619
0.000832452
0.000775853
0.00071722
0.000656245
0.000594494
0.000532954
0.000472435
0.000426213
3.29975e-05
2.62485e-05
2.14658e-05
1.8179e-05
1.57037e-05
1.37931e-05
1.24102e-05
1.16555e-05
1.18053e-05
1.35609e-05
1.805e-05
2.65502e-05
4.00798e-05
5.91015e-05
8.35974e-05
0.000113271
0.000147652
0.000186376
0.000229064
0.000275481
0.000325408
0.000378541
0.000434418
0.000492398
0.000551668
0.000611428
0.000670912
0.000729356
0.000786156
0.000840567
0.000891829
0.000939575
0.000983501
0.00102338
0.00105902
0.00109029
0.00111701
0.00113922
0.001157
0.00117054
0.00118002
0.00118543
0.00118607
0.00118006
0.00116642
0.0011459
0.00111953
0.00108792
0.00105178
0.00101128
0.000967037
0.00091888
0.000867702
0.000813002
0.000756238
0.000696717
0.000636394
0.00057533
0.000515499
0.000467799
3.33723e-05
2.69365e-05
2.23531e-05
1.92549e-05
1.69518e-05
1.51192e-05
1.37246e-05
1.29289e-05
1.30155e-05
1.46986e-05
1.91932e-05
2.78921e-05
4.19264e-05
6.18206e-05
8.75228e-05
0.000118671
0.000154697
0.000195204
0.000239767
0.000288143
0.000340095
0.000395287
0.000453216
0.000513194
0.000574348
0.00063584
0.000696878
0.000756665
0.000814595
0.000869831
0.000921711
0.000969856
0.00101394
0.00105371
0.001089
0.00111962
0.00114547
0.00116658
0.00118307
0.00119512
0.00120296
0.00120664
0.00120565
0.00119857
0.00118466
0.00116444
0.00113875
0.00110817
0.00107333
0.00103438
0.000991914
0.000945701
0.000896603
0.000843988
0.000789356
0.000731665
0.000673222
0.000613181
0.000554636
0.000505906
3.3672e-05
2.75211e-05
2.3121e-05
2.02063e-05
1.81136e-05
1.64327e-05
1.50899e-05
1.42831e-05
1.43133e-05
1.58847e-05
2.02617e-05
2.89719e-05
4.3262e-05
6.37528e-05
9.03869e-05
0.000122756
0.000160189
0.000202256
0.000248479
0.000298599
0.000352359
0.000409393
0.000469159
0.000530924
0.000593756
0.000656776
0.000719177
0.00078012
0.000838992
0.000894907
0.000947269
0.000995686
0.00103981
0.00107938
0.00111419
0.0011441
0.00116902
0.00118902
0.0012042
0.00121478
0.00122102
0.00122301
0.00122043
0.00121223
0.00119785
0.0011777
0.00115249
0.00112274
0.00108904
0.00105153
0.00101077
0.000966488
0.000919517
0.000869113
0.000816797
0.000761226
0.000705003
0.000646438
0.000589645
0.000540319
3.3912e-05
2.80168e-05
2.37819e-05
2.10333e-05
1.9166e-05
1.76969e-05
1.64766e-05
1.5705e-05
1.5702e-05
1.7163e-05
2.13202e-05
2.98741e-05
4.41866e-05
6.50037e-05
9.22951e-05
0.00012563
0.000164235
0.000207646
0.000255318
0.000306972
0.000362327
0.000420991
0.000482383
0.000545731
0.000610042
0.0006744
0.000737981
0.000799905
0.000859548
0.00091601
0.000968728
0.0010173
0.00106135
0.0011006
0.00113485
0.00116399
0.00118796
0.00120681
0.00122067
0.00122979
0.00123445
0.0012348
0.00123066
0.00122128
0.00120629
0.00118601
0.0011611
0.001132
0.0010993
0.00106312
0.00102399
0.000981628
0.000936802
0.000888693
0.000838821
0.000785592
0.000731843
0.000675128
0.000620449
0.000570946
3.41047e-05
2.84368e-05
2.43488e-05
2.17419e-05
2.00946e-05
1.8878e-05
1.78489e-05
1.71717e-05
1.71739e-05
1.85427e-05
2.2458e-05
3.06817e-05
4.4807e-05
6.56927e-05
9.33701e-05
0.000127418
0.000166956
0.000211497
0.00026041
0.000313389
0.000370131
0.000430213
0.000493023
0.000557755
0.00062335
0.000688858
0.000753445
0.000816182
0.000876443
0.000933325
0.000986281
0.0010349
0.00107875
0.00111758
0.00115121
0.00117954
0.00120251
0.00122018
0.00123272
0.00124038
0.00124347
0.00124221
0.00123654
0.00122594
0.00121021
0.00118966
0.00116488
0.0011363
0.00110448
0.00106954
0.00103197
0.000991484
0.000948803
0.000903044
0.000855702
0.000804985
0.0007539
0.000699342
0.000647057
0.000597777
3.42598e-05
2.87926e-05
2.48343e-05
2.23419e-05
2.0893e-05
1.99477e-05
1.91691e-05
1.86518e-05
1.87109e-05
2.00207e-05
2.37081e-05
3.15206e-05
4.52277e-05
6.59425e-05
9.37417e-05
0.00012825
0.000168482
0.000213938
0.000263884
0.000317983
0.000375902
0.000437191
0.000501212
0.000567127
0.000633815
0.000700288
0.00076571
0.000829095
0.000889833
0.000947013
0.00100009
0.00104861
0.00109216
0.00113051
0.00116347
0.00119094
0.00121287
0.00122934
0.00124054
0.00124674
0.00124828
0.00124543
0.00123823
0.00122639
0.00120984
0.0011889
0.00116412
0.00113594
0.00110488
0.00107109
0.00103503
0.000996389
0.000955846
0.000912472
0.000867719
0.000819643
0.000771361
0.000719215
0.000669541
0.000620863
3.43849e-05
2.90944e-05
2.52503e-05
2.28454e-05
2.15623e-05
2.08852e-05
2.03999e-05
2.01077e-05
2.02849e-05
2.15829e-05
2.50744e-05
3.24693e-05
4.56045e-05
6.58732e-05
9.35412e-05
0.00012826
0.000168946
0.0002151
0.00026587
0.000320883
0.000379771
0.000442059
0.000507079
0.000573977
0.000641565
0.000708817
0.000774903
0.000838772
0.00089986
0.000957189
0.00101025
0.00105857
0.00110176
0.00113956
0.00117179
0.00119834
0.0012192
0.00123445
0.0012443
0.00124903
0.00124903
0.00124461
0.00123591
0.00122281
0.00120536
0.00118392
0.00115905
0.00113117
0.0011008
0.00106809
0.00103348
0.000996651
0.000958233
0.000917267
0.000875142
0.000829807
0.00078443
0.000734906
0.000688012
0.000640293
3.4486e-05
2.93504e-05
2.56075e-05
2.32654e-05
2.21095e-05
2.16783e-05
2.15085e-05
2.14988e-05
2.18601e-05
2.32041e-05
2.65474e-05
3.35431e-05
4.60608e-05
6.56763e-05
9.28971e-05
0.00012758
0.000168478
0.000215113
0.000266498
0.00032222
0.00038187
0.000444945
0.000510755
0.000578434
0.000646725
0.000714567
0.000781147
0.000845339
0.000906585
0.000963952
0.0010169
0.00106494
0.00110769
0.00114487
0.00117631
0.00120191
0.00122166
0.00123567
0.00124414
0.00124741
0.00124587
0.00123989
0.00122971
0.00121533
0.00119694
0.00117494
0.00114989
0.00112223
0.00109248
0.00106079
0.00102758
0.000992548
0.000956243
0.000917701
0.000878231
0.000835716
0.000793319
0.00074659
0.00070261
0.000656186
3.45679e-05
2.9568e-05
2.5915e-05
2.3615e-05
2.25461e-05
2.23235e-05
2.24687e-05
2.27842e-05
2.33942e-05
2.48497e-05
2.81048e-05
3.47409e-05
4.66287e-05
6.54884e-05
9.2061e-05
0.000126342
0.00016721
0.000214106
0.000265895
0.000322121
0.000382328
0.00044598
0.000512369
0.000580624
0.000649419
0.000717658
0.000784488
0.000848857
0.000910137
0.000967428
0.00102016
0.00106784
0.00111007
0.00114657
0.00117717
0.00120177
0.00122038
0.00123312
0.00124021
0.001242
0.00123893
0.00123141
0.00121975
0.00120409
0.00118473
0.00116211
0.00113682
0.00110932
0.00108014
0.00104943
0.0010176
0.000984334
0.000950134
0.00091403
0.000877234
0.0008376
0.000798238
0.000754451
0.000713489
0.000668675
3.46343e-05
2.97531e-05
2.61809e-05
2.39066e-05
2.2886e-05
2.28248e-05
2.32633e-05
2.39269e-05
2.48416e-05
2.64767e-05
2.97127e-05
3.60461e-05
4.7321e-05
6.53603e-05
9.11264e-05
0.000124785
0.000165367
0.000212213
0.000264186
0.000320713
0.000381271
0.000445294
0.00051205
0.000580632
0.000649704
0.00071814
0.000785047
0.000849448
0.000910635
0.000967736
0.00102015
0.00106738
0.00110901
0.00114478
0.00117448
0.00119804
0.00121548
0.00122691
0.00123261
0.00123292
0.00122832
0.00121928
0.00120616
0.00118922
0.00116887
0.0011456
0.00112003
0.00109265
0.00106399
0.00103423
0.00100375
0.000972243
0.000940144
0.000906489
0.000872382
0.000835681
0.000799395
0.000758673
0.000720812
0.000677903
3.46882e-05
2.99107e-05
2.64117e-05
2.41511e-05
2.31448e-05
2.31928e-05
2.38843e-05
2.48961e-05
2.6157e-05
2.80363e-05
3.13272e-05
3.74279e-05
4.81313e-05
6.53215e-05
9.01599e-05
0.000123
0.000163055
0.000209609
0.000261526
0.000318124
0.000378809
0.000442976
0.000509872
0.000578561
0.000647699
0.000716131
0.000782952
0.000847231
0.000908196
0.000964991
0.00101699
0.00106368
0.00110464
0.0011396
0.00116835
0.00119083
0.00120706
0.00121717
0.00122145
0.00122029
0.00121417
0.0012036
0.00118904
0.00117083
0.00114947
0.00112553
0.00109965
0.00107237
0.00104421
0.00101538
0.000986238
0.00095649
0.000926491
0.000895299
0.000863896
0.000830169
0.000796993
0.00075944
0.000724749
0.000684017
3.47321e-05
3.00451e-05
2.66129e-05
2.4358e-05
2.33377e-05
2.34427e-05
2.43333e-05
2.56705e-05
2.72987e-05
2.94771e-05
3.28962e-05
3.88429e-05
4.90359e-05
6.5381e-05
8.9208e-05
0.000121066
0.000160369
0.000206395
0.000258019
0.000314459
0.000375048
0.000439136
0.000505951
0.00057453
0.000643522
0.000711748
0.000778324
0.000842327
0.000902936
0.000959304
0.00101078
0.00105684
0.00109706
0.00113114
0.00115889
0.00118025
0.00119523
0.001204
0.00120685
0.0012042
0.00119656
0.00118449
0.0011685
0.00114904
0.00112668
0.00110205
0.00107585
0.00104864
0.00102097
0.000993073
0.000965263
0.000937273
0.000909381
0.000880668
0.000851983
0.000821268
0.000791226
0.000756931
0.000725467
0.000687168
3.47677e-05
3.01597e-05
2.67891e-05
2.45353e-05
2.34794e-05
2.35927e-05
2.46203e-05
2.62392e-05
2.82323e-05
3.07484e-05
3.43628e-05
4.0237e-05
4.99952e-05
6.55274e-05
8.82958e-05
0.000119039
0.00015739
0.000202663
0.00025376
0.000309816
0.000370089
0.000433882
0.000500399
0.000568655
0.000637291
0.000705106
0.000771283
0.000834853
0.000894969
0.000950787
0.00100164
0.00104697
0.00108636
0.0011195
0.0011462
0.00116638
0.00118009
0.00118749
0.0011889
0.00118475
0.0011756
0.00116204
0.00114464
0.00112394
0.00110059
0.00107529
0.00104877
0.00102163
0.000994451
0.000967475
0.000941004
0.00091478
0.000889006
0.000862789
0.000836839
0.000809169
0.000782282
0.000751323
0.000723134
0.000687504
3.47966e-05
3.02575e-05
2.69437e-05
2.46894e-05
2.35828e-05
2.36621e-05
2.4762e-05
2.66024e-05
2.89337e-05
3.18047e-05
3.56684e-05
4.1549e-05
5.09561e-05
6.57305e-05
8.7427e-05
0.000116959
0.000154183
0.000198493
0.000248836
0.000304286
0.000364028
0.000427314
0.000493323
0.000561049
0.000629119
0.000696347
0.00076195
0.000824928
0.000884411
0.000939553
0.000989663
0.00103418
0.00107266
0.00110479
0.00113038
0.00114934
0.00116173
0.00116774
0.0011677
0.00116205
0.00115139
0.00113635
0.00111757
0.00109566
0.00107134
0.00104537
0.00101853
0.000991482
0.000964796
0.000938755
0.000913635
0.000889193
0.000865551
0.000841851
0.000818651
0.000794056
0.000770344
0.000742788
0.000717918
0.000685174
3.48202e-05
3.03411e-05
2.70799e-05
2.48252e-05
2.36591e-05
2.36701e-05
2.47798e-05
2.67706e-05
2.93907e-05
3.26092e-05
3.67576e-05
4.27138e-05
5.18555e-05
6.59436e-05
8.65847e-05
0.000114843
0.000150797
0.000193952
0.000243326
0.000297952
0.000356953
0.000419527
0.000484824
0.000551818
0.000619117
0.000685589
0.000750445
0.000812671
0.000871377
0.000925713
0.00097497
0.00101857
0.00105606
0.0010871
0.00111151
0.00112921
0.00114026
0.00114486
0.00114334
0.00113619
0.00112403
0.00110753
0.00108739
0.00106429
0.00103903
0.00101242
0.00098529
0.000958339
0.000932166
0.000907077
0.000883327
0.000860684
0.000839196
0.000818033
0.000797602
0.000776111
0.000755589
0.000731495
0.00070998
0.000680323
3.48393e-05
3.04126e-05
2.72002e-05
2.49466e-05
2.37172e-05
2.36345e-05
2.46978e-05
2.67631e-05
2.96043e-05
3.3137e-05
3.7582e-05
4.36674e-05
5.26244e-05
6.61069e-05
8.57333e-05
0.000112687
0.000147259
0.000189092
0.000237294
0.000290888
0.000348943
0.000410606
0.000474996
0.000541063
0.000607389
0.000672946
0.000736884
0.000798198
0.000855981
0.000909378
0.000957665
0.00100024
0.00103665
0.00106654
0.00108972
0.00110611
0.00111577
0.00111892
0.00111592
0.00110728
0.00109362
0.00107569
0.00105421
0.00102996
0.00100378
0.000976563
0.000949175
0.000922353
0.00089672
0.000872608
0.00085025
0.00082943
0.000810115
0.000791513
0.000773868
0.000755506
0.000738191
0.000717609
0.000699483
0.000673097
3.48548e-05
3.04738e-05
2.73065e-05
2.50563e-05
2.37644e-05
2.35711e-05
2.45405e-05
2.66057e-05
2.95875e-05
3.33776e-05
3.81046e-05
4.43512e-05
5.31923e-05
6.61519e-05
8.48217e-05
0.000110471
0.00014358
0.000183948
0.000230794
0.000283157
0.00034007
0.00040063
0.000463924
0.000528879
0.000594054
0.000658526
0.00072138
0.000781623
0.000838336
0.000890661
0.000937857
0.00097931
0.00101454
0.0010432
0.00106508
0.00108011
0.00108836
0.00109005
0.00108555
0.0010754
0.00106027
0.00104092
0.00101815
0.000992784
0.000965736
0.000937949
0.000910338
0.000883682
0.000858623
0.000835518
0.00081458
0.000795608
0.000778489
0.000762469
0.000747628
0.000732417
0.000718321
0.000701295
0.000686587
0.000663637
3.48674e-05
3.05261e-05
2.74005e-05
2.51565e-05
2.38057e-05
2.34929e-05
2.43317e-05
2.63281e-05
2.93643e-05
3.33354e-05
3.83031e-05
4.47172e-05
5.34929e-05
6.60065e-05
8.37877e-05
0.000108155
0.000139751
0.000178538
0.000223864
0.000274811
0.000330392
0.000389666
0.000451685
0.000515348
0.000579218
0.000642432
0.000704039
0.000763055
0.000818553
0.000869671
0.000915654
0.000955875
0.00098984
0.00101719
0.00103771
0.00105133
0.00105813
0.00105832
0.00105232
0.00104068
0.00102408
0.00100335
0.000979319
0.00095289
0.000925025
0.000896722
0.000868939
0.000842495
0.000818052
0.00079599
0.000776501
0.000759403
0.000744502
0.000731081
0.00071906
0.000707018
0.000696151
0.000682716
0.000671452
0.000652088
3.48776e-05
3.0571e-05
2.74839e-05
2.52485e-05
2.38447e-05
2.34103e-05
2.40927e-05
2.59615e-05
2.89666e-05
3.30294e-05
3.81724e-05
4.47324e-05
5.34695e-05
6.56007e-05
8.25636e-05
0.000105687
0.000135748
0.000172866
0.00021653
0.000265889
0.00031996
0.000377771
0.000438344
0.000500545
0.000562962
0.000624758
0.000684961
0.000742597
0.000796737
0.000846513
0.000891162
0.000930043
0.000962649
0.000988611
0.00100771
0.00101987
0.00102517
0.00102386
0.00101635
0.00100321
0.000985181
0.000963094
0.000937858
0.000910421
0.000881801
0.000853046
0.000825152
0.000798977
0.000775197
0.000754218
0.000736212
0.000721011
0.000708347
0.000697541
0.000688351
0.000679489
0.000671857
0.000662038
0.000654241
0.000638593
3.48859e-05
3.06095e-05
2.75577e-05
2.53334e-05
2.38838e-05
2.33312e-05
2.38418e-05
2.55365e-05
2.84316e-05
3.24909e-05
3.77244e-05
4.43817e-05
5.30799e-05
6.48728e-05
8.10816e-05
0.000103012
0.000131535
0.000166919
0.000208803
0.00025642
0.000308813
0.000364994
0.000423957
0.000484532
0.000545359
0.000605585
0.000664237
0.000720347
0.000772988
0.000821291
0.000864485
0.000901918
0.00093307
0.000957564
0.000975174
0.000985825
0.000989604
0.000986767
0.000977742
0.000963129
0.000943687
0.000920296
0.00089391
0.000865533
0.000836233
0.000807102
0.000779171
0.000753331
0.000730272
0.00071042
0.00069393
0.000680648
0.000670235
0.000662051
0.000655695
0.000650016
0.000645619
0.000639433
0.000635118
0.000623296
3.48925e-05
3.06426e-05
2.76233e-05
2.54119e-05
2.39243e-05
2.32608e-05
2.35937e-05
2.5081e-05
2.77984e-05
3.17607e-05
3.69878e-05
4.36698e-05
5.23008e-05
6.37752e-05
7.92813e-05
0.000100068
0.000127068
0.000160678
0.000200683
0.000246422
0.000296982
0.000351373
0.000408571
0.000467361
0.000526473
0.000584989
0.000641948
0.000696393
0.0007474
0.000794103
0.000835723
0.0008716
0.000901206
0.000924155
0.000940214
0.000949309
0.000951534
0.000947156
0.000936621
0.000920553
0.000899741
0.000875102
0.000847637
0.000818403
0.000788513
0.000759098
0.000731218
0.000705791
0.000683517
0.000664841
0.000649898
0.000638552
0.000630396
0.00062483
0.000621303
0.000618798
0.000617628
0.000615078
0.000614252
0.000606348
3.48979e-05
3.06712e-05
2.76814e-05
2.54845e-05
2.39666e-05
2.32025e-05
2.33596e-05
2.46189e-05
2.71053e-05
3.08852e-05
3.60049e-05
4.26214e-05
5.11305e-05
6.22794e-05
7.7115e-05
9.68047e-05
0.000122304
0.000154115
0.000192164
0.000235905
0.000284489
0.00033694
0.000392224
0.000449105
0.000506359
0.000563031
0.000618166
0.000670815
0.000720061
0.00076504
0.000804972
0.000839191
0.00086716
0.000888487
0.000902936
0.000910433
0.000911079
0.000905152
0.000893119
0.000875627
0.000853495
0.000827679
0.000799223
0.000769232
0.000738859
0.00070927
0.000681545
0.000656623
0.000635209
0.000617759
0.000604393
0.000594991
0.000589087
0.000586122
0.000585403
0.000586049
0.000588085
0.000589158
0.000591821
0.0005879
3.49021e-05
3.06958e-05
2.7733e-05
2.55517e-05
2.40107e-05
2.31578e-05
2.31471e-05
2.417e-05
2.63873e-05
2.99128e-05
3.48279e-05
4.12792e-05
4.95902e-05
6.038e-05
7.45545e-05
9.31802e-05
0.000117204
0.000147204
0.000183237
0.000224877
0.000271354
0.000321722
0.000374952
0.0004298
0.000485066
0.000539769
0.000592955
0.000643686
0.000691051
0.000734191
0.000772327
0.000804789
0.000831035
0.000850669
0.000863452
0.000869313
0.000868361
0.000860888
0.000847379
0.000828508
0.000805124
0.000778218
0.000748878
0.000718251
0.000687527
0.000657894
0.000630448
0.000606137
0.000585666
0.000569497
0.000557734
0.000550273
0.000546601
0.0005462
0.000548252
0.000552003
0.000557209
0.000561875
0.000568011
0.000568114
3.49056e-05
3.07171e-05
2.7779e-05
2.56138e-05
2.40563e-05
2.3127e-05
2.29611e-05
2.37489e-05
2.56746e-05
2.88904e-05
3.35146e-05
3.96998e-05
4.77224e-05
5.80962e-05
7.1595e-05
8.91734e-05
0.000111741
0.000139927
0.000173897
0.000213346
0.000257595
0.000305748
0.000356787
0.000409482
0.000462635
0.000515251
0.000566374
0.000615073
0.000660446
0.000701639
0.000737878
0.000768492
0.000792935
0.000810811
0.00082188
0.000826077
0.000823518
0.000814511
0.000799563
0.000779374
0.000754824
0.000726939
0.000696847
0.000665733
0.000634814
0.000605294
0.000578273
0.000554698
0.000535263
0.000520431
0.000510289
0.000504753
0.000503272
0.000505375
0.000510134
0.000516922
0.00052524
0.000533442
0.000543019
0.000547156
3.49083e-05
3.07357e-05
2.78199e-05
2.5671e-05
2.41029e-05
2.31094e-05
2.28036e-05
2.33659e-05
2.49914e-05
2.78601e-05
3.21236e-05
3.79494e-05
4.55878e-05
5.54719e-05
6.82581e-05
8.4787e-05
0.00010591
0.000132277
0.000164146
0.000201326
0.000243239
0.000289049
0.000337766