/*--------------------------------*- C++ -*----------------------------------*\
| =========                 |                                                 |
| \\      /  F ield         | OpenFOAM: The Open Source CFD Toolbox           |
|  \\    /   O peration     | Version:  2.4.0                                 |
|   \\  /    A nd           | Web:      www.OpenFOAM.org                      |
|    \\/     M anipulation  |                                                 |
\*---------------------------------------------------------------------------*/
FoamFile
{
    version     2.0;
    format      ascii;
    class       volVectorField;
    location    "1.49";
    object      UMean;
}
// * * * * * * * * * * * * * * * * * * * * * * * * * * * * * * * * * * * * * //

dimensions      [0 1 -1 0 0 0 0];

internalField   nonuniform List<vector> 
2320
(
(0.802975 0.00204847 0)
(1.12214 -0.00261861 0)
(0.794315 -0.00207972 0)
(1.13062 -0.00567931 0)
(0.789212 -0.00231871 0)
(1.13562 -0.00474591 0)
(0.781734 -0.00332935 0)
(1.13963 -0.00857226 0)
(0.779809 -0.00497896 0)
(1.14366 -0.00774034 0)
(0.771551 -0.00544253 0)
(1.15079 -0.00974463 0)
(0.765925 -0.00754367 0)
(1.16096 -0.0121557 0)
(0.759023 -0.0116573 0)
(1.17967 -0.0160089 0)
(0.758605 -0.0150071 0)
(1.20382 -0.0240809 0)
(0.77315 -0.0199484 0)
(1.24166 -0.0324106 0)
(0.939376 0.00242691 0)
(0.986445 0.000328932 0)
(0.944674 0.00197692 0)
(0.99069 -0.000323764 0)
(0.946149 0.00404964 0)
(0.992855 -0.000833942 0)
(0.949093 0.00605509 0)
(0.996829 0.00011516 0)
(0.954515 0.0072748 0)
(0.997717 0.000600935 0)
(0.962616 0.00799199 0)
(1.00093 -0.00121018 0)
(0.968201 0.010612 0)
(1.00122 -0.00148741 0)
(0.977541 0.0126307 0)
(1.00646 -0.00427718 0)
(0.995803 0.0148005 0)
(1.01576 -0.00842513 0)
(1.02156 0.0160216 0)
(1.04873 -0.0117472 0)
(0.986406 0.00760971 0)
(0.939778 -0.00661318 0)
(0.9928 0.00546368 0)
(0.942073 -0.00981131 0)
(0.995026 0.00623031 0)
(0.944137 -0.0109252 0)
(0.999335 0.00666116 0)
(0.947945 -0.0137652 0)
(1.0058 0.00592313 0)
(0.95016 -0.0160855 0)
(1.01489 0.00854965 0)
(0.948054 -0.0178942 0)
(1.02368 0.00994976 0)
(0.94771 -0.0240745 0)
(1.03252 0.00798641 0)
(0.94787 -0.0332867 0)
(1.04559 0.00695522 0)
(0.95482 -0.0452716 0)
(1.06767 -0.00246653 0)
(0.983914 -0.063818 0)
(0.999335 0.00689243 0)
(0.928424 -0.006797 0)
(1.00251 0.0067782 0)
(0.931713 -0.00921765 0)
(1.00609 0.00731383 0)
(0.936207 -0.0103054 0)
(1.01193 0.00914507 0)
(0.938534 -0.0134093 0)
(1.01726 0.0117125 0)
(0.942686 -0.0152423 0)
(1.02379 0.0155017 0)
(0.947509 -0.0191914 0)
(1.03285 0.0190154 0)
(0.958369 -0.0232863 0)
(1.0428 0.0223629 0)
(0.971003 -0.0320353 0)
(1.06153 0.0216474 0)
(0.995672 -0.0452045 0)
(1.09047 0.0133466 0)
(1.03195 -0.0640208 0)
(0.993517 0.0122953 0)
(0.933424 -0.0128113 0)
(0.994641 0.0110995 0)
(0.935416 -0.0175162 0)
(0.997725 0.0117021 0)
(0.937378 -0.0184718 0)
(0.998897 0.0140493 0)
(0.93679 -0.0221386 0)
(1.00126 0.0153994 0)
(0.93883 -0.0257859 0)
(1.00619 0.0178663 0)
(0.941325 -0.0305965 0)
(1.01176 0.0197346 0)
(0.94395 -0.0386503 0)
(1.01966 0.0194571 0)
(0.953351 -0.0527217 0)
(1.02943 0.0168553 0)
(0.97065 -0.0722305 0)
(1.04605 0.0065797 0)
(1.00407 -0.102846 0)
(0.993987 0.0105684 0)
(0.934892 -0.0124078 0)
(0.997654 0.00774248 0)
(0.932298 -0.0166285 0)
(0.999636 0.00794612 0)
(0.932614 -0.0177903 0)
(1.00449 0.0112283 0)
(0.938162 -0.0222446 0)
(1.01132 0.0120955 0)
(0.940884 -0.0267614 0)
(1.01898 0.0169388 0)
(0.943178 -0.0310629 0)
(1.02941 0.019656 0)
(0.94764 -0.038377 0)
(1.04352 0.0214447 0)
(0.95199 -0.0524894 0)
(1.06638 0.0184255 0)
(0.962385 -0.0733825 0)
(1.09728 0.00511297 0)
(0.985777 -0.102835 0)
(0.970729 0.016645 0)
(0.960622 -0.0173282 0)
(0.975367 0.0178565 0)
(0.958892 -0.0208947 0)
(0.97647 0.0174152 0)
(0.957336 -0.0245719 0)
(0.985188 0.0187537 0)
(0.966824 -0.0290738 0)
(0.992529 0.0224517 0)
(0.969488 -0.033465 0)
(0.998905 0.0257481 0)
(0.976897 -0.0405341 0)
(1.00831 0.0285578 0)
(0.984838 -0.0506811 0)
(1.02086 0.0292906 0)
(0.994581 -0.0688223 0)
(1.04051 0.0254568 0)
(1.00696 -0.0930325 0)
(1.07347 0.00982734 0)
(1.02594 -0.131734 0)
(0.965182 0.0109073 0)
(0.967631 -0.0150719 0)
(0.973291 0.0101041 0)
(0.970128 -0.0182657 0)
(0.982086 0.00799262 0)
(0.972402 -0.022924 0)
(0.990309 0.00707487 0)
(0.972942 -0.0273479 0)
(0.998023 0.0106446 0)
(0.976228 -0.0317179 0)
(1.00827 0.0130434 0)
(0.97974 -0.038253 0)
(1.01979 0.0150053 0)
(0.986768 -0.0484818 0)
(1.03275 0.0164087 0)
(0.994897 -0.0674993 0)
(1.04717 0.0128296 0)
(1.00823 -0.0965735 0)
(1.07115 4.92907e-05 0)
(1.02436 -0.141019 0)
(0.954011 0.0178493 0)
(0.98041 -0.0226242 0)
(0.961675 0.0184267 0)
(0.985001 -0.0262102 0)
(0.971305 0.0179211 0)
(0.987978 -0.0301244 0)
(0.979695 0.0192469 0)
(0.990306 -0.0332901 0)
(0.989376 0.0216211 0)
(0.995551 -0.0383756 0)
(0.99822 0.0244106 0)
(1.00073 -0.0435284 0)
(1.00565 0.0244902 0)
(1.00898 -0.053101 0)
(1.01435 0.0235855 0)
(1.01956 -0.0711408 0)
(1.02578 0.0157392 0)
(1.03187 -0.101453 0)
(1.04677 -0.00192007 0)
(1.04784 -0.154365 0)
(0.946979 0.00798388 0)
(0.98686 -0.0148441 0)
(0.951912 0.00460875 0)
(0.988974 -0.0192985 0)
(0.959185 0.0023898 0)
(0.992876 -0.0217588 0)
(0.968097 0.00183943 0)
(1.00012 -0.0248948 0)
(0.980014 0.00190696 0)
(1.00646 -0.0282072 0)
(0.987033 0.00350939 0)
(1.01056 -0.0331379 0)
(0.996338 0.00190695 0)
(1.01328 -0.0423126 0)
(1.0031 0.000911708 0)
(1.02239 -0.0597519 0)
(1.00832 -0.00370353 0)
(1.03203 -0.0917784 0)
(1.00827 -0.0139504 0)
(1.04695 -0.152496 0)
(0.949686 0.0173481 0)
(0.987525 -0.0244006 0)
(0.949635 0.0148224 0)
(0.988256 -0.0297725 0)
(0.953288 0.0130913 0)
(0.990816 -0.0342204 0)
(0.964758 0.0117939 0)
(0.998129 -0.0374194 0)
(0.975746 0.0138135 0)
(1.00053 -0.0392886 0)
(0.979677 0.016658 0)
(1.00261 -0.0438417 0)
(0.980667 0.016951 0)
(1.00229 -0.0512679 0)
(0.985023 0.0104838 0)
(1.00577 -0.0662829 0)
(0.990232 -0.000167738 0)
(1.00385 -0.092768 0)
(1.00209 -0.0250215 0)
(0.995581 -0.143856 0)
(0.960598 0.00237159 0)
(0.975765 -0.00748187 0)
(0.958762 -0.00144657 0)
(0.983294 -0.0132267 0)
(0.957319 -0.00499363 0)
(0.994514 -0.0183515 0)
(0.963656 -0.009151 0)
(1.00407 -0.0185644 0)
(0.966508 -0.00886531 0)
(1.0109 -0.0178784 0)
(0.967101 -0.00931552 0)
(1.01826 -0.0198485 0)
(0.960347 -0.0118865 0)
(1.02842 -0.0270528 0)
(0.953717 -0.0183224 0)
(1.03921 -0.0388846 0)
(0.938175 -0.0243476 0)
(1.04724 -0.069125 0)
(0.917308 -0.0317175 0)
(1.04735 -0.14345 0)
(0.985835 0.0153146 0)
(0.948679 -0.0215013 0)
(0.990528 0.00897997 0)
(0.950219 -0.0295345 0)
(0.992463 0.005673 0)
(0.960601 -0.0356238 0)
(0.99651 0.00330399 0)
(0.970461 -0.0368394 0)
(0.99988 0.00608735 0)
(0.978952 -0.0363207 0)
(1.00184 0.00866761 0)
(0.984256 -0.0377554 0)
(0.996659 0.006426 0)
(0.990581 -0.0456318 0)
(0.987514 -0.00311643 0)
(1.00373 -0.055004 0)
(0.967057 -0.0150309 0)
(1.01993 -0.0793384 0)
(0.912005 -0.0348355 0)
(1.03843 -0.15585 0)
(0.982473 -0.00197454 0)
(0.950499 -0.0029343 0)
(0.985188 -0.00920596 0)
(0.947902 -0.00865654 0)
(0.987319 -0.0165247 0)
(0.956319 -0.0134459 0)
(0.995051 -0.0222091 0)
(0.966925 -0.0107786 0)
(1.00345 -0.0232903 0)
(0.973086 -0.007045 0)
(1.00628 -0.0242688 0)
(0.970555 -0.00288571 0)
(1.00253 -0.0290177 0)
(0.969148 -0.0035111 0)
(1.00239 -0.0426736 0)
(0.97706 -0.00215393 0)
(0.997074 -0.0593565 0)
(0.983491 -0.00491786 0)
(0.963453 -0.0767371 0)
(0.983717 -0.0353195 0)
(0.99435 0.0154056 0)
(0.940315 -0.0212454 0)
(0.997878 0.00989324 0)
(0.938181 -0.0298112 0)
(1.00159 0.00225512 0)
(0.949316 -0.0396141 0)
(1.01209 -0.00139809 0)
(0.963945 -0.041113 0)
(1.02231 0.00236874 0)
(0.969194 -0.037583 0)
(1.02491 0.0089609 0)
(0.964233 -0.0384343 0)
(1.02605 0.00587784 0)
(0.962758 -0.0498546 0)
(1.02746 -0.00784074 0)
(0.973191 -0.0547103 0)
(1.01903 -0.0221485 0)
(0.990288 -0.058298 0)
(0.985298 -0.0442855 0)
(1.0125 -0.0978479 0)
(0.985595 -0.00615939 0)
(0.948403 0.00169024 0)
(0.989092 -0.0143008 0)
(0.945259 -0.00530447 0)
(0.996052 -0.0282302 0)
(0.95439 -0.0132842 0)
(1.00995 -0.036143 0)
(0.968123 -0.00820919 0)
(1.01517 -0.0350493 0)
(0.971872 0.00315257 0)
(1.01463 -0.0304125 0)
(0.96199 0.00957415 0)
(1.01789 -0.0376412 0)
(0.938083 0.010683 0)
(1.02615 -0.0612572 0)
(0.923212 0.0233776 0)
(1.03242 -0.0955799 0)
(0.91479 0.0478347 0)
(1.01712 -0.128623 0)
(0.917329 0.101681 0)
(0.974714 0.0154735 0)
(0.961982 -0.0227522 0)
(0.975789 0.0110827 0)
(0.961069 -0.0352832 0)
(0.982683 -0.00153009 0)
(0.967665 -0.0486315 0)
(0.991987 -0.00642748 0)
(0.969419 -0.0463428 0)
(0.996462 0.000364817 0)
(0.970631 -0.0396687 0)
(1.0019 0.0120723 0)
(0.961374 -0.0441909 0)
(1.00479 0.0193432 0)
(0.936013 -0.0618688 0)
(1.02229 0.00907949 0)
(0.915608 -0.0685814 0)
(1.03388 -0.00539589 0)
(0.86799 -0.0582993 0)
(1.034 -0.0613204 0)
(0.851064 -0.0442689 0)
(0.965638 -0.0109562 0)
(0.970403 0.00763709 0)
(0.964355 -0.0188359 0)
(0.971587 -0.00338057 0)
(0.966233 -0.0350152 0)
(0.968738 -0.0121373 0)
(0.954094 -0.0395087 0)
(0.961181 -0.00494301 0)
(0.952073 -0.0397807 0)
(0.957801 0.0112886 0)
(0.953971 -0.0302749 0)
(0.955208 0.0174941 0)
(0.950126 -0.0274864 0)
(0.963776 0.00742824 0)
(0.950294 -0.0537412 0)
(0.962025 0.0191465 0)
(0.954874 -0.0790772 0)
(0.917554 0.0680909 0)
(0.938317 -0.121635 0)
(0.790472 0.251287 0)
(0.972955 0.013696 0)
(0.961233 -0.0200425 0)
(0.97113 0.00799282 0)
(0.955119 -0.0361132 0)
(0.952572 -0.0031181 0)
(0.915436 -0.0433329 0)
(0.911801 -0.00487465 0)
(0.885167 -0.0465389 0)
(0.878746 -0.00153438 0)
(0.8584 -0.0414361 0)
(0.868345 0.00734428 0)
(0.837189 -0.0428106 0)
(0.866683 0.0103095 0)
(0.846012 -0.0661173 0)
(0.817796 0.0125762 0)
(0.8452 -0.0804481 0)
(0.771505 0.0258939 0)
(0.848481 -0.0802848 0)
(0.837551 -0.0260143 0)
(0.6484 -0.0262913 0)
(0.955519 -0.0131702 0)
(0.975789 0.0131856 0)
(0.946534 -0.0185361 0)
(0.946865 0.0112443 0)
(0.896068 -0.0152102 0)
(0.904067 0.0129035 0)
(0.83419 -0.0219692 0)
(0.843953 0.0175466 0)
(0.771347 -0.0242828 0)
(0.783159 0.0254817 0)
(0.736867 -0.019961 0)
(0.747537 0.0269427 0)
(0.70495 -0.0284509 0)
(0.700691 0.0356241 0)
(0.636318 -0.0457736 0)
(0.63118 0.0444629 0)
(0.544337 -0.0671759 0)
(0.558379 0.0442714 0)
(0.419069 0.0150005 0)
(0.564134 0.294959 0)
(0.799819 -0.0293847 0)
(1.30472 -0.0477895 0)
(0.86497 -0.0414558 0)
(1.41108 -0.0496411 0)
(0.960533 -0.044315 0)
(1.53971 -0.0663004 0)
(1.12317 -0.0593237 0)
(1.70973 -0.0803804 0)
(1.0616 0.0149554 0)
(1.11727 -0.0182204 0)
(1.11576 0.00511539 0)
(1.22003 -0.0246234 0)
(1.21487 -0.0164991 0)
(1.35148 -0.0355289 0)
(1.36125 -0.0234505 0)
(1.5211 -0.0461279 0)
(1.10994 -0.0235935 0)
(1.05705 -0.0865472 0)
(1.17295 -0.0547847 0)
(1.18308 -0.103252 0)
(1.25744 -0.0828077 0)
(1.33321 -0.127007 0)
(1.38521 -0.113309 0)
(1.51349 -0.165429 0)
(1.13844 -0.00749193 0)
(1.08617 -0.0836436 0)
(1.20979 -0.0426029 0)
(1.17388 -0.0977634 0)
(1.31635 -0.0901175 0)
(1.3076 -0.120162 0)
(1.46764 -0.126289 0)
(1.49805 -0.158833 0)
(1.07369 -0.0205443 0)
(1.07375 -0.139966 0)
(1.13312 -0.0690265 0)
(1.19353 -0.169743 0)
(1.24779 -0.130516 0)
(1.33504 -0.198526 0)
(1.43003 -0.194026 0)
(1.48477 -0.246951 0)
(1.14213 -0.0278637 0)
(1.04397 -0.140065 0)
(1.20174 -0.0866516 0)
(1.16852 -0.177352 0)
(1.27819 -0.155005 0)
(1.34119 -0.218028 0)
(1.38844 -0.216159 0)
(1.52408 -0.269414 0)
(1.12645 -0.0322935 0)
(1.06633 -0.180348 0)
(1.19927 -0.108375 0)
(1.15848 -0.225393 0)
(1.296 -0.200326 0)
(1.28242 -0.259928 0)
(1.42571 -0.278642 0)
(1.51762 -0.340463 0)
(1.1163 -0.0381462 0)
(1.05266 -0.194873 0)
(1.19302 -0.11613 0)
(1.14824 -0.242118 0)
(1.24196 -0.201629 0)
(1.30478 -0.29597 0)
(1.45646 -0.333377 0)
(1.51785 -0.373072 0)
(1.09479 -0.0453226 0)
(1.06391 -0.229783 0)
(1.19987 -0.139313 0)
(1.07275 -0.262951 0)
(1.28429 -0.249781 0)
(1.34836 -0.376388 0)
(1.45907 -0.380397 0)
(1.55492 -0.448569 0)
(1.00767 -0.0456616 0)
(1.08858 -0.254496 0)
(1.05812 -0.110265 0)
(1.10878 -0.323933 0)
(1.35732 -0.322455 0)
(1.33692 -0.410243 0)
(1.47487 -0.424389 0)
(1.54081 -0.480879 0)
(1.03993 -0.0845027 0)
(1.01274 -0.244308 0)
(1.04593 -0.133253 0)
(1.20907 -0.422678 0)
(1.36614 -0.345125 0)
(1.31817 -0.453992 0)
(1.47585 -0.460016 0)
(1.49389 -0.519098 0)
(0.944245 -0.0653585 0)
(0.991142 -0.240407 0)
(1.14111 -0.216013 0)
(1.23132 -0.47048 0)
(1.35091 -0.360157 0)
(1.29651 -0.498128 0)
(1.46857 -0.487812 0)
(1.40759 -0.524538 0)
(0.794715 -0.0873902 0)
(1.06571 -0.335411 0)
(1.15147 -0.289966 0)
(1.24086 -0.51302 0)
(1.31551 -0.371236 0)
(1.28737 -0.549368 0)
(1.41932 -0.482623 0)
(1.29537 -0.526366 0)
(0.856256 -0.0990168 0)
(1.10441 -0.377893 0)
(1.16964 -0.342984 0)
(1.22538 -0.519574 0)
(1.26769 -0.375424 0)
(1.2631 -0.578565 0)
(1.3269 -0.453548 0)
(1.22933 -0.55286 0)
(0.843655 -0.186526 0)
(1.12147 -0.454644 0)
(1.15799 -0.401172 0)
(1.17765 -0.526878 0)
(1.2287 -0.399952 0)
(1.21396 -0.596817 0)
(1.24103 -0.423873 0)
(1.17266 -0.599641 0)
(0.905607 -0.191572 0)
(1.11273 -0.457685 0)
(1.14123 -0.418677 0)
(1.12962 -0.509777 0)
(1.19212 -0.414244 0)
(1.14107 -0.583037 0)
(1.15052 -0.393666 0)
(1.14327 -0.654802 0)
(0.882942 -0.354015 0)
(1.0872 -0.521209 0)
(1.07505 -0.465647 0)
(1.07456 -0.517121 0)
(1.12065 -0.439246 0)
(1.05577 -0.572378 0)
(1.09576 -0.405454 0)
(1.09645 -0.708132 0)
(0.906467 -0.356007 0)
(1.0481 -0.47553 0)
(1.02372 -0.449951 0)
(1.03281 -0.49006 0)
(1.06127 -0.437111 0)
(0.989094 -0.545695 0)
(1.04436 -0.411141 0)
(1.01169 -0.711372 0)
(0.852863 -0.580419 0)
(0.992118 -0.56451 0)
(0.942206 -0.507724 0)
(0.971085 -0.512617 0)
(0.967457 -0.459301 0)
(0.902018 -0.535264 0)
(0.96799 -0.451106 0)
(0.902312 -0.703001 0)
(0.860309 -0.547042 0)
(0.932301 -0.469264 0)
(0.876358 -0.457018 0)
(0.89515 -0.459341 0)
(0.863969 -0.432244 0)
(0.816322 -0.498038 0)
(0.837399 -0.438422 0)
(0.686237 -0.590677 0)
(1.31667 -0.0728881 0)
(1.92627 -0.0988934 0)
(1.57109 -0.0823647 0)
(2.19129 -0.111637 0)
(1.89813 -0.0804975 0)
(2.49902 -0.103774 0)
(2.25529 -0.0741883 0)
(2.83728 -0.0990686 0)
(2.63922 -0.0671121 0)
(3.17848 -0.0891697 0)
(3.00846 -0.0575428 0)
(3.48963 -0.0770961 0)
(3.32544 -0.0458869 0)
(3.73161 -0.0612784 0)
(3.54952 -0.0315361 0)
(3.87282 -0.0438451 0)
(3.64979 -0.0156741 0)
(3.89101 -0.0273826 0)
(3.61161 -0.000477643 0)
(3.78328 -0.0140811 0)
(3.44043 0.010781 0)
(3.5703 -0.00593894 0)
(3.16454 0.0165188 0)
(3.28607 -0.00558259 0)
(2.83031 0.0156465 0)
(2.98214 -0.0149853 0)
(2.50307 0.00799023 0)
(2.72809 -0.0468335 0)
(1.55423 -0.0314418 0)
(1.73796 -0.0596444 0)
(1.79443 -0.0447687 0)
(2.003 -0.0802737 0)
(2.06613 -0.0687081 0)
(2.31049 -0.0996594 0)
(2.38487 -0.088467 0)
(2.66303 -0.113874 0)
(2.7278 -0.0977256 0)
(3.03099 -0.112979 0)
(3.06746 -0.0901425 0)
(3.37283 -0.095455 0)
(3.36405 -0.0670178 0)
(3.6422 -0.0600765 0)
(3.57486 -0.0303836 0)
(3.80167 -0.0122423 0)
(3.66694 0.0161267 0)
(3.82867 0.0394715 0)
(3.62175 0.065879 0)
(3.72001 0.0875809 0)
(3.44563 0.109553 0)
(3.49296 0.12477 0)
(3.16831 0.141506 0)
(3.18261 0.14582 0)
(2.83251 0.15698 0)
(2.83718 0.142745 0)
(2.493 0.155322 0)
(2.50113 0.106091 0)
(1.56776 -0.142867 0)
(1.7423 -0.207983 0)
(1.80213 -0.174271 0)
(2.01965 -0.241552 0)
(2.09628 -0.20214 0)
(2.33255 -0.260758 0)
(2.44313 -0.224436 0)
(2.68369 -0.271921 0)
(2.80885 -0.231811 0)
(3.04934 -0.263194 0)
(3.15827 -0.212997 0)
(3.39247 -0.2278 0)
(3.45093 -0.16794 0)
(3.66695 -0.165972 0)
(3.65269 -0.101647 0)
(3.83056 -0.0849997 0)
(3.7366 -0.0221268 0)
(3.85891 0.00176581 0)
(3.68552 0.0596226 0)
(3.74758 0.080196 0)
(3.50674 0.130479 0)
(3.51577 0.136831 0)
(3.22724 0.179592 0)
(3.19942 0.162641 0)
(2.89256 0.203236 0)
(2.84622 0.14932 0)
(2.55551 0.202514 0)
(2.50865 0.0901218 0)
(1.64863 -0.162 0)
(1.73769 -0.202982 0)
(1.86129 -0.194935 0)
(2.023 -0.250324 0)
(2.12897 -0.232256 0)
(2.35714 -0.292867 0)
(2.45779 -0.268568 0)
(2.71594 -0.313409 0)
(2.8296 -0.281802 0)
(3.07323 -0.302984 0)
(3.19602 -0.258874 0)
(3.39958 -0.256509 0)
(3.50393 -0.196028 0)
(3.66098 -0.176261 0)
(3.71548 -0.10007 0)
(3.8182 -0.0683658 0)
(3.80393 0.0146435 0)
(3.84331 0.0509575 0)
(3.75489 0.132558 0)
(3.72858 0.1613 0)
(3.57348 0.234898 0)
(3.49241 0.245609 0)
(3.2891 0.306236 0)
(3.17073 0.290158 0)
(2.94487 0.336951 0)
(2.81821 0.286573 0)
(2.59148 0.322869 0)
(2.49805 0.232425 0)
(1.64959 -0.247918 0)
(1.69183 -0.300256 0)
(1.89949 -0.304494 0)
(1.97658 -0.365211 0)
(2.18558 -0.35734 0)
(2.32668 -0.422265 0)
(2.50476 -0.395597 0)
(2.707 -0.453746 0)
(2.85527 -0.407081 0)
(3.0778 -0.440771 0)
(3.21023 -0.376246 0)
(3.40299 -0.375879 0)
(3.52223 -0.296817 0)
(3.65718 -0.266016 0)
(3.73899 -0.173306 0)
(3.81193 -0.124099 0)
(3.83087 -0.0246301 0)
(3.83877 0.0300809 0)
(3.78363 0.126846 0)
(3.7278 0.173152 0)
(3.60417 0.257821 0)
(3.49224 0.283427 0)
(3.31945 0.349317 0)
(3.16574 0.341436 0)
(2.96459 0.387608 0)
(2.80481 0.339126 0)
(2.59306 0.363332 0)
(2.47023 0.280376 0)
(1.6027 -0.28109 0)
(1.73661 -0.330593 0)
(1.89295 -0.357335 0)
(2.0026 -0.397247 0)
(2.21164 -0.424953 0)
(2.31774 -0.460085 0)
(2.53827 -0.472989 0)
(2.67856 -0.499892 0)
(2.86665 -0.480139 0)
(3.04544 -0.490895 0)
(3.18155 -0.433609 0)
(3.37195 -0.420269 0)
(3.46369 -0.33388 0)
(3.62414 -0.290648 0)
(3.67051 -0.185137 0)
(3.77634 -0.120501 0)
(3.7574 -0.00317726 0)
(3.80401 0.066483 0)
(3.71393 0.182075 0)
(3.70327 0.241273 0)
(3.55158 0.344361 0)
(3.48859 0.377247 0)
(3.28809 0.457423 0)
(3.1889 0.453355 0)
(2.94608 0.502315 0)
(2.84406 0.458805 0)
(2.57194 0.471445 0)
(2.50101 0.394434 0)
(1.62201 -0.353955 0)
(1.78552 -0.430108 0)
(1.87873 -0.440795 0)
(2.04305 -0.507491 0)
(2.16616 -0.520994 0)
(2.31219 -0.574091 0)
(2.48449 -0.583481 0)
(2.61861 -0.610049 0)
(2.79831 -0.595644 0)
(2.94364 -0.592198 0)
(3.08185 -0.540748 0)
(3.24871 -0.510259 0)
(3.32818 -0.421691 0)
(3.49335 -0.364231 0)
(3.51034 -0.247711 0)
(3.62293 -0.164654 0)
(3.58268 -0.0342507 0)
(3.63417 0.0535542 0)
(3.54267 0.182155 0)
(3.53933 0.256025 0)
(3.40374 0.370822 0)
(3.35966 0.415968 0)
(3.1752 0.503034 0)
(3.11547 0.511679 0)
(2.87317 0.560774 0)
(2.82323 0.527462 0)
(2.52975 0.534291 0)
(2.50749 0.460352 0)
(1.68309 -0.426384 0)
(1.76035 -0.464526 0)
(1.88001 -0.498042 0)
(1.99072 -0.541433 0)
(2.10435 -0.57299 0)
(2.25369 -0.622517 0)
(2.38464 -0.637603 0)
(2.52034 -0.660735 0)
(2.67429 -0.650724 0)
(2.78641 -0.636995 0)
(2.93447 -0.590748 0)
(3.0475 -0.548331 0)
(3.16195 -0.462089 0)
(3.25366 -0.385758 0)
(3.29115 -0.256035 0)
(3.33993 -0.156662 0)
(3.3255 -0.0132128 0)
(3.32868 0.0881759 0)
(3.27765 0.225588 0)
(3.24716 0.313119 0)
(3.15707 0.429495 0)
(3.11112 0.489922 0)
(2.97023 0.571801 0)
(2.92861 0.59797 0)
(2.73426 0.637492 0)
(2.69885 0.619617 0)
(2.46589 0.614898 0)
(2.42606 0.551835 0)
(1.662 -0.479027 0)
(1.71469 -0.519351 0)
(1.82461 -0.553579 0)
(1.90574 -0.607645 0)
(2.04618 -0.656941 0)
(2.15027 -0.705929 0)
(2.26822 -0.722114 0)
(2.38211 -0.748731 0)
(2.49352 -0.733306 0)
(2.58793 -0.717766 0)
(2.71561 -0.674316 0)
(2.80149 -0.625694 0)
(2.88677 -0.526471 0)
(2.92198 -0.429006 0)
(2.94287 -0.28874 0)
(2.95899 -0.176933 0)
(2.93611 -0.0245286 0)
(2.93856 0.0829699 0)
(2.88714 0.228203 0)
(2.87962 0.324716 0)
(2.7915 0.444202 0)
(2.78478 0.515142 0)
(2.65666 0.598004 0)
(2.65402 0.634829 0)
(2.49978 0.675791 0)
(2.48091 0.668152 0)
(2.32541 0.662455 0)
(2.26816 0.60379 0)
(1.6058 -0.507609 0)
(1.65762 -0.545236 0)
(1.75369 -0.594893 0)
(1.85244 -0.654974 0)
(1.95319 -0.704987 0)
(2.01948 -0.737577 0)
(2.11515 -0.761808 0)
(2.17913 -0.777672 0)
(2.2557 -0.760034 0)
(2.33103 -0.747635 0)
(2.43192 -0.706379 0)
(2.45433 -0.63375 0)
(2.50284 -0.521087 0)
(2.48637 -0.411129 0)
(2.4973 -0.268632 0)
(2.48416 -0.147884 0)
(2.46462 0.00214552 0)
(2.47418 0.111573 0)
(2.42618 0.257701 0)
(2.44801 0.358377 0)
(2.36278 0.479832 0)
(2.39532 0.554586 0)
(2.2846 0.638901 0)
(2.31471 0.675701 0)
(2.20065 0.719059 0)
(2.21088 0.705337 0)
(2.11106 0.723328 0)
(2.06762 0.661361 0)
(1.53812 -0.53464 0)
(1.5868 -0.587985 0)
(1.69981 -0.648838 0)
(1.75524 -0.704666 0)
(1.81252 -0.744254 0)
(1.84847 -0.780917 0)
(1.89681 -0.804009 0)
(1.91653 -0.8144 0)
(1.96434 -0.806031 0)
(2.0245 -0.800174 0)
(2.03535 -0.737002 0)
(2.03202 -0.650594 0)
(2.02607 -0.536054 0)
(1.99337 -0.421499 0)
(1.978 -0.278149 0)
(1.96149 -0.156275 0)
(1.93021 -0.01192 0)
(1.95153 0.10515 0)
(1.89123 0.252894 0)
(1.9582 0.355809 0)
(1.86668 0.475192 0)
(1.95013 0.557219 0)
(1.84933 0.640323 0)
(1.92806 0.685041 0)
(1.83112 0.731266 0)
(1.88737 0.707894 0)
(1.83577 0.726717 0)
(1.85061 0.67015 0)
(1.45618 -0.54845 0)
(1.54154 -0.625801 0)
(1.61625 -0.679468 0)
(1.63013 -0.716639 0)
(1.6462 -0.75532 0)
(1.62936 -0.777459 0)
(1.63368 -0.796837 0)
(1.60856 -0.811152 0)
(1.65009 -0.812642 0)
(1.61033 -0.783375 0)
(1.59668 -0.709091 0)
(1.532 -0.619091 0)
(1.50553 -0.502755 0)
(1.42466 -0.381095 0)
(1.42097 -0.248713 0)
(1.37254 -0.124628 0)
(1.35807 0.00877986 0)
(1.35137 0.126393 0)
(1.32958 0.269421 0)
(1.38165 0.372675 0)
(1.33593 0.485842 0)
(1.43005 0.566994 0)
(1.38479 0.645138 0)
(1.47959 0.688181 0)
(1.45574 0.738017 0)
(1.5011 0.718627 0)
(1.50587 0.747985 0)
(1.56914 0.688757 0)
(1.42341 -0.590343 0)
(1.48043 -0.667549 0)
(1.51692 -0.692774 0)
(1.46622 -0.718841 0)
(1.41613 -0.742927 0)
(1.36561 -0.765291 0)
(1.31516 -0.796633 0)
(1.2808 -0.818254 0)
(1.22739 -0.803718 0)
(1.17453 -0.768422 0)
(1.07673 -0.689873 0)
(1.00244 -0.594829 0)
(0.894116 -0.475873 0)
(0.845815 -0.373183 0)
(0.7818 -0.245913 0)
(0.754783 -0.11888 0)
(0.717171 0.00640915 0)
(0.728953 0.115474 0)
(0.72154 0.246761 0)
(0.7815 0.351793 0)
(0.769209 0.459075 0)
(0.873785 0.535985 0)
(0.875158 0.617052 0)
(0.977239 0.663209 0)
(1.0262 0.706026 0)
(1.10609 0.672479 0)
(1.17173 0.702574 0)
(1.22255 0.66541 0)
(1.38287 -0.631346 0)
(1.40177 -0.674812 0)
(1.36221 -0.66671 0)
(1.23161 -0.676229 0)
(1.16642 -0.705161 0)
(1.05433 -0.726735 0)
(0.98113 -0.757334 0)
(0.856293 -0.764718 0)
(0.803585 -0.758471 0)
(0.650455 -0.705747 0)
(0.54985 -0.621021 0)
(0.405514 -0.524784 0)
(0.320325 -0.42461 0)
(0.204226 -0.319934 0)
(0.153776 -0.200752 0)
(0.0935656 -0.0903558 0)
(0.0965902 0.0213165 0)
(0.0570383 0.133721 0)
(0.104904 0.248242 0)
(0.155689 0.344853 0)
(0.192569 0.447423 0)
(0.294421 0.516858 0)
(0.35515 0.58512 0)
(0.487214 0.624973 0)
(0.56687 0.680078 0)
(0.672163 0.65655 0)
(0.791101 0.683529 0)
(0.896207 0.623795 0)
(1.34293 -0.658521 0)
(1.27628 -0.655506 0)
(1.14658 -0.60461 0)
(0.99049 -0.626947 0)
(0.854757 -0.645183 0)
(0.718053 -0.665851 0)
(0.563923 -0.700959 0)
(0.450099 -0.726108 0)
(0.268017 -0.696567 0)
(0.121358 -0.640027 0)
(-0.0495358 -0.562372 0)
(-0.184889 -0.474879 0)
(-0.330645 -0.37217 0)
(-0.415289 -0.291007 0)
(-0.511529 -0.183035 0)
(-0.532668 -0.0826006 0)
(-0.581193 0.0233562 0)
(-0.560784 0.10799 0)
(-0.530707 0.212861 0)
(-0.464085 0.309914 0)
(-0.402132 0.396125 0)
(-0.264667 0.453408 0)
(-0.191528 0.526136 0)
(-0.0333807 0.562557 0)
(0.101959 0.600527 0)
(0.263465 0.559455 0)
(0.406691 0.60263 0)
(0.515513 0.562506 0)
(1.2702 -0.655753 0)
(1.0791 -0.581504 0)
(0.907904 -0.513924 0)
(0.670783 -0.534294 0)
(0.548487 -0.566267 0)
(0.337092 -0.588323 0)
(0.200713 -0.619791 0)
(-0.0590423 -0.613086 0)
(-0.201307 -0.596842 0)
(-0.452659 -0.544011 0)
(-0.588729 -0.466128 0)
(-0.814766 -0.383572 0)
(-0.904972 -0.305595 0)
(-1.06477 -0.223523 0)
(-1.11699 -0.137608 0)
(-1.18325 -0.0507894 0)
(-1.18305 0.0389904 0)
(-1.19196 0.115099 0)
(-1.12024 0.201875 0)
(-1.06995 0.280051 0)
(-0.93855 0.356141 0)
(-0.832298 0.410037 0)
(-0.690895 0.468978 0)
(-0.518178 0.490517 0)
(-0.320953 0.530269 0)
(-0.191202 0.512133 0)
(0.0248454 0.549638 0)
(0.159852 0.489655 0)
(1.13018 -0.596647 0)
(0.844517 -0.477371 0)
(0.628896 -0.407945 0)
(0.404635 -0.464009 0)
(0.199533 -0.474391 0)
(-0.00119601 -0.490403 0)
(-0.273626 -0.515549 0)
(-0.482414 -0.524885 0)
(-0.770156 -0.491324 0)
(-0.975365 -0.45107 0)
(-1.19931 -0.378763 0)
(-1.36627 -0.320125 0)
(-1.52467 -0.247224 0)
(-1.64097 -0.185378 0)
(-1.73086 -0.115896 0)
(-1.76214 -0.051617 0)
(-1.7932 0.0264682 0)
(-1.75165 0.0835451 0)
(-1.71196 0.15579 0)
(-1.61198 0.213371 0)
(-1.48412 0.283147 0)
(-1.34443 0.324023 0)
(-1.18296 0.366221 0)
(-0.981885 0.379185 0)
(-0.787969 0.424847 0)
(-0.610054 0.392136 0)
(-0.337415 0.424792 0)
(-0.214554 0.383414 0)
(0.965397 -0.495624 0)
(0.566554 -0.344224 0)
(0.369052 -0.270369 0)
(0.0409525 -0.317266 0)
(-0.121683 -0.355446 0)
(-0.423519 -0.353126 0)
(-0.631335 -0.37507 0)
(-0.992816 -0.368794 0)
(-1.20181 -0.354981 0)
(-1.53926 -0.322125 0)
(-1.69525 -0.269175 0)
(-1.95717 -0.218057 0)
(-2.05164 -0.166725 0)
(-2.23055 -0.119087 0)
(-2.24901 -0.0724472 0)
(-2.35658 -0.0173121 0)
(-2.30883 0.0341685 0)
(-2.31332 0.0778806 0)
(-2.21676 0.12932 0)
(-2.14446 0.171462 0)
(-1.96807 0.226552 0)
(-1.84112 0.25578 0)
(-1.6102 0.28342 0)
(-1.44248 0.301192 0)
(-1.18456 0.325434 0)
(-1.00573 0.301269 0)
(-0.708286 0.335746 0)
(-0.594485 0.300125 0)
(0.723283 -0.297529 0)
(0.263725 -0.190574 0)
(0.0864697 -0.164088 0)
(-0.202785 -0.235719 0)
(-0.483933 -0.232708 0)
(-0.774173 -0.249128 0)
(-1.05402 -0.245459 0)
(-1.38378 -0.250477 0)
(-1.66054 -0.225587 0)
(-1.96651 -0.218373 0)
(-2.18833 -0.174127 0)
(-2.41113 -0.150671 0)
(-2.55394 -0.113006 0)
(-2.69199 -0.0859902 0)
(-2.75919 -0.0503855 0)
(-2.82246 -0.0270213 0)
(-2.79716 0.00758648 0)
(-2.78209 0.036808 0)
(-2.6935 0.0692018 0)
(-2.5935 0.0907956 0)
(-2.42606 0.12763 0)
(-2.26081 0.13826 0)
(-2.03807 0.163315 0)
(-1.8375 0.167888 0)
(-1.57291 0.185151 0)
(-1.37331 0.167132 0)
(-1.0648 0.192188 0)
(-0.914979 0.159741 0)
(0.469196 -0.20056 0)
(-0.174101 -0.0380852 0)
(-0.0380178 -0.0159755 0)
(-0.523723 -0.036172 0)
(-0.625062 -0.0640022 0)
(-1.11198 -0.0639705 0)
(-1.28785 -0.07108 0)
(-1.77065 -0.0597205 0)
(-1.93076 -0.0582463 0)
(-2.35859 -0.0554209 0)
(-2.49795 -0.0464294 0)
(-2.81627 -0.0353727 0)
(-2.88048 -0.0265352 0)
(-3.10685 -0.0132233 0)
(-3.07659 -0.00446863 0)
(-3.22272 0.0034358 0)
(-3.12567 0.0151465 0)
(-3.18181 0.0280374 0)
(-2.99437 0.0353878 0)
(-2.97694 0.0435899 0)
(-2.71833 0.0550005 0)
(-2.63009 0.0610647 0)
(-2.318 0.0689548 0)
(-2.17889 0.0708451 0)
(-1.84279 0.0752168 0)
(-1.69351 0.0689629 0)
(-1.34077 0.0800505 0)
(-1.20709 0.071046 0)
(2.2736 0.0300712 0)
(2.25654 -0.23947 0)
(1.84649 -0.286918 0)
(1.64058 -0.474081 0)
(1.46143 -0.619089 0)
(1.26301 -0.902223 0)
(0.717397 -0.886687 0)
(0.00187973 -0.717489 0)
(2.23323 0.14606 0)
(2.13039 -0.0130773 0)
(1.81563 -0.0937931 0)
(1.72705 -0.318512 0)
(1.44651 -0.442382 0)
(1.18226 -0.657305 0)
(0.806552 -0.619656 0)
(0.787336 -0.754538 0)
(2.27942 0.169618 0)
(2.23323 0.0138379 0)
(2.13147 -0.0541725 0)
(1.94273 -0.238827 0)
(1.68882 -0.331205 0)
(1.41028 -0.572037 0)
(1.18377 -0.636667 0)
(0.372524 -0.258779 0)
(2.25621 0.250475 0)
(2.24385 0.100564 0)
(1.90342 0.0450929 0)
(1.86239 -0.119326 0)
(1.44016 -0.183244 0)
(1.37105 -0.369063 0)
(0.481263 -0.167435 0)
(0.263986 -0.194382 0)
(2.25254 0.270827 0)
(2.20115 0.177594 0)
(1.95355 0.120226 0)
(2.01368 -0.0306588 0)
(1.67053 -0.0631268 0)
(1.6506 -0.156716 0)
(1.14013 -0.0403907 0)
(1.08715 -0.264873 0)
(2.22825 0.36588 0)
(2.17906 0.269427 0)
(1.95183 0.182234 0)
(1.84713 0.0525024 0)
(1.53033 0.0257061 0)
(1.46696 -0.0965925 0)
(1.1615 0.0727927 0)
(1.10248 -0.00847841 0)
(2.20048 0.427045 0)
(2.1927 0.311298 0)
(1.94423 0.267197 0)
(1.87873 0.144556 0)
(1.72266 0.1175 0)
(1.61207 -0.00126056 0)
(1.44427 0.128433 0)
(1.31602 -0.0304706 0)
(2.18208 0.520143 0)
(2.1313 0.393227 0)
(1.89633 0.362702 0)
(1.86105 0.182181 0)
(1.61634 0.20072 0)
(1.47385 0.0625761 0)
(1.29231 0.208602 0)
(1.22336 0.126997 0)
(2.12556 0.560964 0)
(2.03035 0.457229 0)
(1.86173 0.409919 0)
(1.79801 0.259919 0)
(1.60108 0.280539 0)
(1.60642 0.13355 0)
(1.4315 0.226542 0)
(1.44066 0.12198 0)
(1.98259 0.628566 0)
(1.91385 0.517738 0)
(1.8198 0.481038 0)
(1.69023 0.336003 0)
(1.57981 0.327478 0)
(1.50124 0.191825 0)
(1.33363 0.270722 0)
(1.36295 0.198665 0)
(1.76337 0.648358 0)
(1.75814 0.542609 0)
(1.69685 0.519686 0)
(1.61833 0.360222 0)
(1.55058 0.349303 0)
(1.45413 0.240467 0)
(1.40041 0.276361 0)
(1.36568 0.232944 0)
(1.54855 0.662552 0)
(1.57382 0.560148 0)
(1.53253 0.570678 0)
(1.52323 0.420176 0)
(1.44871 0.422957 0)
(1.43518 0.289352 0)
(1.34153 0.301165 0)
(1.3576 0.248627 0)
(1.27819 0.646538 0)
(1.31751 0.5368 0)
(1.37346 0.535791 0)
(1.36934 0.389345 0)
(1.36005 0.403153 0)
(1.36707 0.295524 0)
(1.31311 0.307499 0)
(1.35727 0.265004 0)
(1.00029 0.623422 0)
(1.05354 0.52676 0)
(1.15059 0.563368 0)
(1.1829 0.411688 0)
(1.23544 0.430168 0)
(1.26268 0.303166 0)
(1.24284 0.307899 0)
(1.30263 0.262683 0)
(0.681208 0.563836 0)
(0.774028 0.438728 0)
(0.923812 0.477939 0)
(0.979029 0.333144 0)
(1.06861 0.397784 0)
(1.1325 0.273033 0)
(1.14836 0.294509 0)
(1.23133 0.234543 0)
(0.399887 0.501775 0)
(0.445627 0.415227 0)
(0.664388 0.470086 0)
(0.72127 0.318431 0)
(0.888093 0.370835 0)
(0.944184 0.238238 0)
(1.02232 0.285924 0)
(1.12102 0.223793 0)
(0.069102 0.404605 0)
(0.130763 0.303445 0)
(0.418197 0.33689 0)
(0.452292 0.21671 0)
(0.664279 0.309354 0)
(0.701953 0.17437 0)
(0.82407 0.224386 0)
(0.922953 0.148029 0)
(-0.214993 0.308246 0)
(-0.20946 0.268132 0)
(0.147355 0.302119 0)
(0.110033 0.196433 0)
(0.474672 0.255099 0)
(0.460013 0.146053 0)
(0.653035 0.206071 0)
(0.704215 0.134258 0)
(-0.534547 0.175979 0)
(-0.541202 0.147304 0)
(-0.0384578 0.13699 0)
(-0.158895 0.0624786 0)
(0.217067 0.130211 0)
(0.151059 0.0686577 0)
(0.432356 0.112351 0)
(0.456328 0.0427679 0)
(-0.819799 0.0823579 0)
(-0.792901 0.0731798 0)
(-0.286316 0.0854471 0)
(-0.455362 0.0978904 0)
(0.099685 0.0933755 0)
(-0.0490593 0.0398421 0)
(0.318176 0.0707948 0)
(0.326204 0.0400475 0)
(-0.620738 -0.417796 0)
(0.378117 0.169714 0)
(0.60349 0.437088 0)
(0.735151 0.472977 5.16054e-18)
(1.14294 0.635658 4.18094e-19)
(1.28983 0.520886 0)
(1.70426 0.477534 3.32119e-18)
(1.4764 0.342499 1.90047e-19)
(1.67967 0.341625 2.47101e-18)
(1.46983 0.272338 2.37597e-18)
(1.77083 0.302927 0)
(1.54299 0.242879 1.99412e-18)
(1.88903 0.288665 -8.3766e-20)
(1.65738 0.235482 1.6389e-18)