/*--------------------------------*- C++ -*----------------------------------*\
| =========                 |                                                 |
| \\      /  F ield         | OpenFOAM: The Open Source CFD Toolbox           |
|  \\    /   O peration     | Version:  2.4.0                                 |
|   \\  /    A nd           | Web:      www.OpenFOAM.org                      |
|    \\/     M anipulation  |                                                 |
\*---------------------------------------------------------------------------*/
FoamFile
{
    version     2.0;
    format      ascii;
    class       volScalarField;
    location    "0.2";
    object      p_rgh;
}
// * * * * * * * * * * * * * * * * * * * * * * * * * * * * * * * * * * * * * //

dimensions      [1 -1 -2 0 0 0 0];

internalField   nonuniform List<scalar> 
2268
(
2135.1
2143
2145.9
2144.92
2141.98
2138.75
2135.88
2133.57
2132.04
2131.67
2133.16
2137.72
2147.27
2164.62
2193.73
2240.49
2311.16
2409.45
2533.47
2665.4
2768.63
2793.45
2835.77
2133.74
2141.55
2144.37
2143.35
2140.39
2137.13
2134.2
2131.79
2130.12
2129.56
2130.79
2135.04
2144.18
2160.96
2189.17
2233.07
2297.65
2388.82
2507.84
2642.44
2756.5
2788.94
2843.72
2131.03
2138.68
2141.33
2140.2
2137.21
2133.88
2130.83
2128.22
2126.26
2125.3
2126.03
2129.64
2137.95
2153.64
2180.26
2222.11
2284.03
2369.15
2477.39
2600.2
2722.54
2801.8
2894.19
2126.99
2134.4
2136.81
2135.51
2132.44
2129.03
2125.79
2122.88
2120.46
2118.9
2118.87
2121.51
2128.59
2142.65
2167.12
2206.16
2264.19
2343.85
2444.61
2558.18
2680.57
2795.47
2922.74
2121.65
2128.77
2130.86
2129.32
2126.15
2122.61
2119.1
2115.76
2112.72
2110.35
2109.29
2110.63
2116.03
2127.91
2149.55
2184.94
2238.26
2312.03
2406.31
2514.37
2632.94
2755.26
2902.45
2115.05
2121.84
2123.53
2121.68
2118.36
2114.64
2110.78
2106.87
2103.05
2099.64
2097.26
2096.91
2100.17
2109.26
2127.29
2158.14
2205.9
2273.03
2360.03
2461.69
2572.04
2682.04
2811.43
2107.26
2113.69
2114.84
2112.62
2109.13
2105.17
2100.87
2096.25
2091.46
2086.79
2082.8
2080.42
2081.04
2086.71
2100.3
2125.54
2166.48
2225.71
2303.85
2395.91
2491.27
2573.03
2610.01
2098.34
2104.3
2104.78
2102.14
2098.46
2094.23
2089.39
2083.93
2078
2071.87
2066.04
2061.3
2058.88
2060.57
2068.96
2087.52
2120.19
2169.55
2236.6
2314.98
2387.21
2430.7
2286.43
5.73393
5.71404
5.69454
5.67439
5.65188
5.62597
5.59513
5.5589
5.51789
5.4735
5.42751
5.38184
5.33828
5.29835
5.26335
5.23427
5.21187
5.19667
5.18899
5.73726
5.71432
5.69463
5.67474
5.65244
5.62678
5.59604
5.55972
5.51847
5.47376
5.42744
5.38144
5.3376
5.29745
5.26227
5.23305
5.21056
5.19528
5.18759
5.74245
5.71523
5.69489
5.67547
5.65359
5.62845
5.5979
5.5614
5.51967
5.47431
5.4273
5.38066
5.33625
5.29563
5.26006
5.23057
5.20788
5.19249
5.18473
5.75205
5.71648
5.69493
5.67652
5.65531
5.63101
5.60077
5.56398
5.52151
5.47516
5.4271
5.37946
5.33418
5.29284
5.25672
5.22683
5.20384
5.18826
5.18041
5.76559
5.71729
5.69462
5.67771
5.65758
5.63456
5.60476
5.56756
5.52404
5.47631
5.42681
5.37782
5.33137
5.2891
5.25224
5.22178
5.1984
5.18259
5.17462
5.78536
5.71641
5.69391
5.67857
5.6603
5.6392
5.61001
5.57223
5.52731
5.47778
5.42643
5.37572
5.3278
5.28433
5.24654
5.21539
5.19154
5.17543
5.16732
5.81298
5.71037
5.69222
5.67917
5.66348
5.64512
5.61672
5.57814
5.53139
5.47958
5.42592
5.37311
5.3234
5.27848
5.2396
5.20763
5.18323
5.16677
5.1585
5.85329
5.69488
5.68943
5.6792
5.66793
5.65263
5.62515
5.58545
5.53634
5.48169
5.42523
5.36991
5.3181
5.27151
5.23136
5.19848
5.17343
5.15657
5.1481
2082.67
2087.68
2087.15
2083.82
2079.69
2074.84
2068.94
2061.91
2053.87
2045.03
2035.78
2026.66
2018.59
2012.9
2011.6
2017.81
2035.5
2065.92
2111.65
2160.67
2178.84
2109.53
1523.59
2056.83
2060.51
2058.49
2054.03
2048.86
2042.53
2034.44
2024.4
2012.43
1998.55
1982.81
1965.28
1946.13
1925.43
1903.95
1885.03
1875.2
1876.29
1879.94
1881.57
1852.95
1745.28
1438.08
2027.33
2029.45
2025.71
2019.96
2013.4
2005.04
1994.07
1980.21
1963.3
1943.03
1919.05
1890.61
1856.64
1815.15
1764.25
1705.2
1648.13
1593.44
1556.25
1504.4
1450.94
1423.65
1369.43
1994.91
1995.32
1989.8
1982.64
1974.32
1963.37
1948.86
1930.41
1907.53
1879.52
1845.55
1803.65
1752.13
1685.07
1592.09
1468.39
1323.32
1075.66
815.163
588.389
498.72
629.619
944.239
1960.39
1959.02
1951.8
1943.13
1932.7
1918.68
1900.12
1876.42
1846.71
1810.05
1764.99
1709.12
1640.47
1540.52
1386.99
1081.55
664.767
156.538
-2.33971
-0.966821
0.703889
16.8033
115.168
1924.49
1921.26
1912.54
1902.3
1889.52
1872.19
1849.35
1820.15
1783.54
1738.21
1682.36
1612.36
1519.54
1359.63
832.15
125.202
-1.95938
-4.71435
-5.35986
-5.80518
-5.91626
-5.90128
-5.32235
1888.26
1883.01
1873.09
1861.43
1846.38
1825.94
1799.08
1764.86
1722.08
1667.38
1598.46
1504.71
1245.39
525.044
1.96631
-3.31725
-4.80403
-5.49104
-5.81284
-6.16099
-6.63466
-7.24331
-7.7852
1853.58
1846.51
1835.93
1822.9
1805.83
1782.65
1751.8
1712.13
1661.96
1589.19
1388.19
876.629
200.504
-3.56196
-3.18123
-4.43029
-5.27207
-5.73845
-6.06893
-6.47415
-7.03258
-7.68106
-8.25108
1820.2
1811.25
1800.28
1785.02
1765.31
1739.08
1698.41
1588.72
1343.43
865.506
324.386
-3.86551
-4.1737
-3.79515
-3.37885
-2.70321
-4.91372
-5.9895
-6.2514
-6.59029
-7.10931
-7.70577
-8.19403
1766.9
1656.93
1643.55
1574.07
1445.54
1245.01
929.418
535.389
185.214
-3.05178
-3.79006
-3.73596
-3.90199
-3.89612
-1.9851
1.6773
-2.30173
-6.12215
-6.32185
-6.61203
-7.05734
-7.54485
-7.95772
805.926
470.226
451.947
350.921
217.065
83.9996
-2.00105
-2.34516
-2.70881
-3.0322
-3.51347
-3.87952
-4.11124
-4.12143
-0.121918
1.97233
-0.56699
-6.054
-6.31168
-6.55435
-6.93132
-7.35512
-7.7679
-1.89041
-1.88909
-1.93454
-2.00904
-2.11232
-2.23701
-2.27715
-2.4318
-2.71953
-3.11846
-3.61535
-4.12304
-4.49979
-4.56261
-1.70885
2.40033
0.0764554
-6.00071
-6.22146
-6.42419
-6.75963
-7.16977
-7.63764
-1.89361
-1.89719
-1.93726
-1.99793
-2.07764
-2.1769
-2.28408
-2.45551
-2.74622
-3.19353
-3.78604
-3.81084
-4.62983
-5.14298
-2.45763
2.66787
-0.297582
-5.95793
-6.04704
-6.22546
-6.53229
-6.94903
-7.48729
-1.9033
-1.91248
-1.94457
-1.99635
-2.06513
-2.15462
-2.27531
-2.45895
-2.76598
-3.25061
-3.71801
-3.05753
-3.81566
-5.57982
-2.60586
2.80895
-2.09981
-5.80592
-5.80471
-5.96268
-6.24352
-6.65507
-7.2368
-1.90514
-1.92373
-1.94878
-1.99204
-2.05311
-2.13652
-2.25534
-2.43573
-2.74463
-3.24148
-2.86919
-3.04101
-3.9669
-5.55878
-3.29119
1.57988
-5.59618
-5.50274
-5.50759
-5.64547
-5.89632
-6.27665
-6.84388
-1.89613
-1.91661
-1.93908
-1.97804
-2.0337
-2.11138
-2.22205
-2.38368
-2.66858
-3.13287
-2.85618
-2.71361
-3.42882
-4.77439
-2.59693
-2.41125
-5.2216
-5.12899
-5.16171
-5.28561
-5.49946
-5.82373
-6.30668
-1.87816
-1.8964
-1.91721
-1.95324
-2.00447
-2.07575
-2.17401
-2.31604
-2.55433
-2.94062
-3.46659
-3.13328
-3.2909
-4.58626
-4.97192
-4.88316
-4.76505
-4.72653
-4.77957
-4.88643
-5.05432
-5.29874
-5.64921
-1.85018
-1.86365
-1.8846
-1.91778
-1.96503
-2.0298
-2.11665
-2.23719
-2.42367
-2.71411
-3.11031
-3.5469
-3.91757
-4.1743
-4.28839
-4.29428
-4.27686
-4.30666
-4.36598
-4.45439
-4.57049
-4.72448
-4.92807
-1.8111
-1.82175
-1.84171
-1.87246
-1.9159
-1.97464
-2.05175
-2.15378
-2.29752
-2.50533
-2.78077
-3.08328
-3.35283
-3.55526
-3.67862
-3.73805
-3.81319
-3.88125
-3.94315
-4.00565
-4.06924
-4.13621
-4.20105
-1.76241
-1.77165
-1.79008
-1.81841
-1.85811
-1.9112
-1.97995
-2.06808
-2.18346
-2.33581
-2.52564
-2.73513
-2.93816
-3.11178
-3.2423
-3.33714
-3.41766
-3.48035
-3.52741
-3.55959
-3.57498
-3.56889
-3.52647
-1.70603
-1.71428
-1.7311
-1.75694
-1.79284
-1.84031
-1.90115
-1.97772
-2.07386
-2.19333
-2.33515
-2.49055
-2.64498
-2.78347
-2.89744
-2.98729
-3.05628
-3.10394
-3.13055
-3.13336
-3.10825
-3.04682
-2.93313
-1.6435
-1.65094
-1.66613
-1.68939
-1.72141
-1.76322
-1.81611
-1.88163
-1.96163
-2.05739
-2.16723
-2.28527
-2.40264
-2.51016
-2.60158
-2.67413
-2.7261
-2.75588
-2.76154
-2.7389
-2.68266
-2.58284
-2.42905
-1.57616
-1.58282
-1.59635
-1.61699
-1.64512
-1.68138
-1.72655
-1.78152
-1.84711
-1.92345
-2.00883
-2.0991
-2.18823
-2.26991
-2.33917
-2.39229
-2.42618
-2.43824
-2.42527
-2.38273
-2.30564
-2.18696
-2.01092
-1.50505
-1.51091
-1.52279
-1.5408
-1.56514
-1.5961
-1.63408
-1.67947
-1.7325
-1.79285
-1.8589
-1.92738
-1.99391
-2.05391
-2.10325
-2.13814
-2.15525
-2.15149
-2.12327
-2.06633
-1.97593
-1.84573
-1.66637
-1.43098
-1.43603
-1.44629
-1.46174
-1.48246
-1.50848
-1.53989
-1.57674
-1.6189
-1.66579
-1.71597
-1.76692
-1.81528
-1.8574
-1.88975
-1.9089
-1.91163
-1.89486
-1.85515
-1.78868
-1.69142
-1.5585
-1.38419
-1.35464
-1.3589
-1.36758
-1.38061
-1.39792
-1.4194
-1.44492
-1.47428
-1.50713
-1.54278
-1.57996
-1.61664
-1.65019
-1.67765
-1.69598
-1.70214
-1.69326
-1.66648
-1.61873
-1.54682
-1.44751
-1.31738
-1.153
-1.27662
-1.28015
-1.28733
-1.29808
-1.31224
-1.32961
-1.34992
-1.37281
-1.39778
-1.42411
-1.45065
-1.47574
-1.49729
-1.51287
-1.5199
-1.51576
-1.4979
-1.46385
-1.41106
-1.33695
-1.23906
-1.11508
-0.963097
-1.19745
-1.2003
-1.2061
-1.21473
-1.22602
-1.2397
-1.25545
-1.27279
-1.29117
-1.30983
-1.32772
-1.34348
-1.35541
-1.36153
-1.35969
-1.34766
-1.32329
-1.28445
-1.22908
-1.1552
-1.06107
-0.945207
-0.806596
-1.11762
-1.11984
-1.12436
-1.13107
-1.13976
-1.15017
-1.16194
-1.17457
-1.18746
-1.19988
-1.21085
-1.21922
-1.2236
-1.22237
-1.21378
-1.19598
-1.16719
-1.12567
-1.06974
-0.997904
-0.909016
-0.802238
-0.67705
-1.03748
-1.03916
-1.04252
-1.04749
-1.05387
-1.0614
-1.06973
-1.07836
-1.08673
-1.09411
-1.09962
-1.10226
-1.10088
-1.09416
-1.08067
-1.05893
-1.02748
-0.984906
-0.929939
-0.861508
-0.77883
-0.681402
-0.569166
-0.95735
-0.958536
-0.960884
-0.96432
-0.968669
-0.973707
-0.979085
-0.984368
-0.989017
-0.992362
-0.993622
-0.991925
-0.986293
-0.975648
-0.958838
-0.934682
-0.902014
-0.859741
-0.806906
-0.742739
-0.666713
-0.578618
-0.478631
-0.877428
-0.878187
-0.879658
-0.881774
-0.884394
-0.887307
-0.890205
-0.89271
-0.894335
-0.894486
-0.892486
-0.887582
-0.878941
-0.865674
-0.846858
-0.821556
-0.788859
-0.747933
-0.698057
-0.638677
-0.569506
-0.490542
-0.401993
-0.797878
-0.798271
-0.799006
-0.80002
-0.801198
-0.802347
-0.80321
-0.803459
-0.802669
-0.80034
-0.795899
-0.788703
-0.778052
-0.763215
-0.743454
-0.718032
-0.686239
-0.647444
-0.60112
-0.5469
-0.484638
-0.414416
-0.336523
-0.718831
-0.718923
-0.719058
-0.71918
-0.719191
-0.71892
-0.718158
-0.716625
-0.713966
-0.709772
-0.703572
-0.694831
-0.682969
-0.667397
-0.647526
-0.622779
-0.592609
-0.556537
-0.514193
-0.465345
-0.409938
-0.3481
-0.280125
-0.640393
-0.640248
-0.639907
-0.63933
-0.638425
-0.637052
-0.635041
-0.632158
-0.628117
-0.622594
-0.615213
-0.605541
-0.593115
-0.577468
-0.55814
-0.534681
-0.506673
-0.473764
-0.435699
-0.39234
-0.343675
-0.289828
-0.231154
-0.562616
-0.562286
-0.561583
-0.560475
-0.558882
-0.556694
-0.553773
-0.549929
-0.544942
-0.538562
-0.530497
-0.520411
-0.507949
-0.492756
-0.474479
-0.452776
-0.427336
-0.397907
-0.364317
-0.32649
-0.284433
-0.23821
-0.188334
-0.485521
-0.485053
-0.484082
-0.48259
-0.480505
-0.477748
-0.474208
-0.469742
-0.464189
-0.457361
-0.44904
-0.43898
-0.426924
-0.412612
-0.395786
-0.376196
-0.353621
-0.327891
-0.298899
-0.266615
-0.231087
-0.192485
-0.150681
-0.409139
-0.408584
-0.407422
-0.405667
-0.40325
-0.400121
-0.396199
-0.391389
-0.38558
-0.378641
-0.37042
-0.360752
-0.349464
-0.33638
-0.321321
-0.30412
-0.284632
-0.262753
-0.238426
-0.211649
-0.182464
-0.150965
-0.117158
-0.333563
-0.332977
-0.331687
-0.329765
-0.327144
-0.323797
-0.319678
-0.314736
-0.308908
-0.302114
-0.294266
-0.28527
-0.275027
-0.263433
-0.250382
-0.235776
-0.219537
-0.201615
-0.181991
-0.160682
-0.137724
-0.113169
-0.0870545
-0.259154
-0.258576
-0.257216
-0.255196
-0.252461
-0.249005
-0.244819
-0.239893
-0.234205
-0.227726
-0.220429
-0.212284
-0.203258
-0.193312
-0.182409
-0.170515
-0.157611
-0.143693
-0.128774
-0.112887
-0.0960702
-0.0783452
-0.0597101
-0.185403
-0.184879
-0.183519
-0.181468
-0.178696
-0.175227
-0.171086
-0.166298
-0.160886
-0.154872
-0.14828
-0.14114
-0.133476
-0.125312
-0.116673
-0.107586
-0.0980809
-0.0881966
-0.0779754
-0.0674714
-0.0567346
-0.0457717
-0.0345167
-0.108062
-0.107825
-0.106539
-0.104535
-0.101838
-0.0985071
-0.0946003
-0.0901789
-0.0853076
-0.0800551
-0.0744962
-0.0687088
-0.062772
-0.0567645
-0.050764
-0.044846
-0.039083
-0.0335426
-0.0282869
-0.0233823
-0.0188914
-0.0148227
-0.0110078
481.808
442.947
5.97697
6.28273
953.999
705.726
588.031
385.141
1192.1
1027.21
934.659
864.729
1072.51
1036.95
1002.19
990.778
233.345
376.346
848.849
1022.75
-4.476
-2.68641
69.9138
646.2
-7.78036
-7.90462
-6.09215
123.311
-8.53301
-8.51517
-8.4979
-5.70782
-8.41578
-8.53194
-8.84563
-8.6474
-8.22049
-8.39854
-8.71197
-8.97244
-8.11698
-8.35892
-8.65714
-8.97188
-8.07335
-8.36895
-8.6768
-9.0102
-8.01475
-8.34448
-8.66525
-8.95799
-7.83
-8.20214
-7.94106
-8.80382
-7.41259
-7.75827
-6.64864
-5.99887
-6.79866
-7.08513
-7.05107
-6.36401
-5.99923
-6.22833
-6.43356
-6.27092
-5.10807
-5.22822
-5.36576
-5.54195
-4.22474
-4.22283
-4.22115
-4.25032
-3.44548
-3.36836
-3.27427
-3.17606
-2.79223
-2.67671
-2.53932
-2.38362
-2.25992
-2.12959
-1.97883
-1.80908
-1.83389
-1.70268
-1.55456
-1.39073
-1.49425
-1.3699
-1.2323
-1.08259
-1.22323
-1.10918
-0.985043
-0.851864
-1.00586
-0.903209
-0.79298
-0.676064
-0.830467
-0.739094
-0.642037
-0.540014
-0.688131
-0.607323
-0.522212
-0.433365
-0.571888
-0.500698
-0.426194
-0.348832
-0.476225
-0.413668
-0.348513
-0.281133
-0.396799
-0.341957
-0.285049
-0.226388
-0.330222
-0.282293
-0.232711
-0.181737
-0.273898
-0.232205
-0.189191
-0.145075
-0.225858
-0.189836
-0.152768
-0.114833
-0.184594
-0.153776
-0.122142
-0.0898329
-0.148939
-0.122935
-0.0963084
-0.0691622
-0.117963
-0.0964413
-0.0744609
-0.0520932
-0.0908139
-0.0735289
-0.055913
-0.038015
-0.0668146
-0.0535658
-0.0400892
-0.0264168
-0.04537
-0.0360067
-0.0264999
-0.0168691
-0.0259462
-0.0203672
-0.0147137
-0.00899561
-0.00815244
-0.00630103
-0.00443042
-0.00254299
5.93967
5.63681
5.68646
5.67814
5.67582
5.66722
5.64148
5.59933
5.54554
5.48545
5.42376
5.36386
5.30829
5.25875
5.21637
5.18187
5.15571
5.13815
5.12935
9.20295
5.92751
5.67814
5.65279
5.68629
5.69827
5.67569
5.62698
5.56275
5.49158
5.42006
5.35191
5.28983
5.23535
5.18933
5.15224
5.12432
5.10569
5.09637
313.439
6.16892
5.44765
5.53389
5.69894
5.75292
5.72923
5.66626
5.58499
5.49825
5.41322
5.33468
5.26483
5.20469
5.15465
5.11478
5.085
5.06524
5.0554
828.319
119.626
5.04102
5.40477
5.77664
5.85786
5.81189
5.7191
5.61073
5.50204
5.40051
5.30989
5.23145
5.16535
5.11124
5.06865
5.03712
5.0163
5.00597
957.343
379.626
11.8627
5.70333
6.02117
6.03676
5.92701
5.78277
5.63582
5.499
5.37808
5.27443
5.18738
5.11567
5.05792
5.01299
4.98001
4.95835
4.94763
983.911
666.066
49.2152
6.85695
6.35542
6.26986
6.06514
5.84584
5.65049
5.48145
5.34037
5.22444
5.13002
5.0539
4.99352
4.94702
4.91311
4.89095
4.88
906.732
869.335
124.583
8.68322
6.92317
6.54421
6.2013
5.89154
5.63896
5.43856
5.2805
5.15573
5.05684
4.97851
4.91709
4.87013
4.83603
4.81378
4.80281
856.748
834.641
232.783
10.542
7.71724
6.83886
6.30059
5.88069
5.57915
5.35738
5.19141
5.06455
4.96587
4.88849
4.8281
4.78202
4.74859
4.72678
4.71602
702.114
837.926
266.353
11.6135
8.07637
6.96129
6.2452
5.76222
5.4458
5.22656
5.06818
4.94898
4.8565
4.78373
4.72664
4.68284
4.65092
4.63005
4.61973
553.062
877.081
208.614
10.769
7.57211
6.66623
5.94438
5.49729
5.22472
5.04262
4.91113
4.81029
4.73003
4.6653
4.6135
4.57317
4.54349
4.52396
4.51427
478.253
843.961
173.113
8.50131
6.33015
5.79654
5.35888
5.08204
4.92481
4.81527
4.7279
4.65381
4.58997
4.53549
4.49018
4.45404
4.42703
4.40907
4.40012
553.167
837.782
178.631
5.14925
4.58077
4.41245
4.51376
4.56218
4.58449
4.56956
4.53373
4.48857
4.44163
4.39741
4.35859
4.32666
4.30235
4.28602
4.27784
443.69
835.7
249.083
1.11179
2.20747
2.73546
3.62194
4.08786
4.27721
4.34203
4.34807
4.32488
4.29045
4.25409
4.22052
4.19217
4.17028
4.15548
4.14804
19.2977
857.874
736.747
44.5664
1.07847
1.66171
2.98742
3.79171
4.08068
4.16856
4.18635
4.16975
4.13996
4.1075
4.07719
4.05146
4.03155
4.01808
4.0113
-6.63418
476.479
736.56
328.942
9.5057
2.71515
3.3078
3.89059
4.0364
4.06026
4.05067
4.02332
3.99026
3.95787
3.92897
3.905
3.88667
3.87436
3.86819
-3.37477
15.4464
349.491
361.323
68.0584
5.19403
4.13304
4.10204
4.043
3.97662
3.92378
3.87786
3.83784
3.80375
3.77543
3.75286
3.73598
3.72479
3.71924
-4.89128
-5.00228
18.771
85.3175
65.2551
8.99541
4.5221
4.18129
3.99214
3.86571
3.78209
3.72257
3.67773
3.64297
3.61581
3.59498
3.5798
3.56987
3.56499
-5.61628
-3.69599
-1.05102
5.22606
10.7289
6.55663
4.42772
4.04397
3.83474
3.69937
3.61058
3.5498
3.50623
3.47394
3.44963
3.4315
3.41853
3.41018
3.40609
-4.1418
-2.97629
-1.30372
2.18597
3.92555
4.08609
3.89221
3.71263
3.57635
3.47689
3.4071
3.35791
3.3225
3.29648
3.27714
3.26291
3.25286
3.24643
3.24332
-2.91717
-2.01587
-0.517038
1.42836
2.74075
3.1993
3.30892
3.30457
3.26274
3.21758
3.17991
3.15072
3.12862
3.11196
3.09945
3.09022
3.08371
3.07957
3.07757
-2.05003
-1.24789
-0.108787
1.15114
2.08245
2.57563
2.80801
2.9044
2.93845
2.94442
2.94107
2.93475
2.92838
2.92283
2.9183
2.9148
2.91227
2.91065
2.90988
-1.47027
-0.788045
0.065664
0.95423
1.66117
2.11662
2.3878
2.54245
2.62921
2.67394
2.70141
2.7167
2.72612
2.73201
2.73577
2.73825
2.73987
2.74087
2.74137
-1.07831
-0.510513
0.14577
0.805798
1.36114
1.76656
2.04275
2.2247
2.34276
2.41867
2.4695
2.50202
2.5258
2.54236
2.55396
2.5622
2.56786
2.5714
2.57317
-0.805916
-0.336005
0.182002
0.694659
1.1429
1.49735
1.76129
1.95132
2.08595
2.1807
2.24802
2.29585
2.33079
2.35643
2.37471
2.38817
2.39751
2.40336
2.40636
-0.611035
-0.220535
0.197415
0.608715
0.978388
1.2865
1.53044
1.7174
1.85805
1.96288
2.04098
2.0992
2.14284
2.17555
2.19979
2.21753
2.22996
2.2378
2.2419
-0.467889
-0.140917
0.202571
0.540159
0.849834
1.11755
1.33902
1.51673
1.65651
1.76514
1.84907
1.91371
1.96338
2.00135
2.03001
2.05118
2.06611
2.07559
2.08053
-0.360371
-0.0844118
0.202061
0.483806
0.746219
0.979154
1.1782
1.34352
1.47808
1.5861
1.67202
1.73988
1.79313
1.83452
1.86623
1.88987
1.90666
1.91738
1.92291
-0.278194
-0.0436049
0.198039
0.436057
0.66032
0.863333
1.04111
1.19274
1.31952
1.42393
1.50894
1.57748
1.63222
1.67541
1.70889
1.73409
1.75211
1.76367
1.76956
-0.214542
-0.0139326
0.191632
0.394459
0.58728
0.764441
0.922515
1.06018
1.17775
1.27659
1.35861
1.4259
1.48044
1.52403
1.55818
1.58409
1.60274
1.61477
1.62083
-0.164723
0.00757412
0.183477
0.357317
0.523734
0.678396
0.818419
0.942376
1.05005
1.1421
1.2197
1.28429
1.33732
1.38017
1.41404
1.43994
1.45869
1.47083
1.47689
-0.125425
0.022916
0.173949
0.323418
0.467287
0.602189
0.725728
0.836521
0.934088
1.01865
1.09088
1.15172
1.20223
1.24343
1.27627
1.30155
1.31993
1.33188
1.33781
-0.0942807
0.0334715
0.163271
0.291874
0.416188
0.533571
0.642044
0.740343
0.827877
0.904596
0.970851
1.02724
1.07449
1.11335
1.14454
1.16868
1.18632
1.19782
1.20348
-0.0695756
0.0402135
0.151579
0.262017
0.369133
0.470838
0.565504
0.652016
0.729754
0.798524
0.858456
0.909907
0.953361
0.989354
1.01841
1.04103
1.0576
1.06845
1.07374
-0.0500462
0.0438465
0.13896
0.233349
0.325144
0.412687
0.494647
0.570059
0.638326
0.699181
0.752619
0.798828
0.838118
0.870858
0.897428
0.91819
0.933456
0.943473
0.948328
-0.0347437
0.0448937
0.125478
0.205491
0.283473
0.358109
0.428311
0.493261
0.552413
0.605475
0.652364
0.693157
0.728036
0.757248
0.781058
0.799728
0.813494
0.822548
0.826902
-0.0229387
0.0437561
0.11118
0.178156
0.243543
0.3063
0.365552
0.420615
0.471008
0.516447
0.556807
0.592096
0.622411
0.647905
0.668761
0.685163
0.697286
0.705277
0.709086
-0.0140516
0.0407521
0.0961087
0.151114
0.204885
0.256609
0.305589
0.351268
0.39324
0.431243
0.465141
0.4949
0.520562
0.542218
0.559986
0.573996
0.584372
0.591226
0.594459
-0.00760734
0.0361399
0.0802942
0.124175
0.167114
0.208489
0.247761
0.28449
0.318345
0.3491
0.376626
0.400869
0.421838
0.439582
0.454179
0.465713
0.474269
0.479934
0.482567
-0.00321253
0.0301292
0.0637559
0.0971754
0.129901
0.161476
0.1915
0.219642
0.245645
0.269328
0.290579
0.309343
0.325612
0.339411
0.350785
0.359789
0.366477
0.370917
0.372935
-0.000542817
0.0228872
0.0465001
0.0699663
0.0929565
0.115161
0.136303
0.156152
0.174525
0.191291
0.206364
0.219699
0.231282
0.241124
0.24925
0.255692
0.260482
0.263674
0.265075
0.000683275
0.0145609
0.0285374
0.0424259
0.0560372
0.0691919
0.0817291
0.0935123
0.104433
0.114412
0.123395
0.131354
0.138277
0.144167
0.149036
0.152901
0.155775
0.157709
0.158496
0.000644518
0.00520871
0.00980028
0.0143612
0.0188317
0.0231545
0.0272777
0.031157
0.0347568
0.0380504
0.0410199
0.0436547
0.0459499
0.0479053
0.0495237
0.0508103
0.0517648
0.0524166
0.0526594
)
;

boundaryField
{
    leftWall
    {
        type            fixedFluxPressure;
        gradient        uniform 0;
        value           nonuniform List<scalar> 
50
(
2135.1
2133.74
2131.03
2126.99
2121.65
2115.05
2107.26
2098.34
2082.67
2056.83
2027.33
1994.91
1960.39
1924.49
1888.26
1853.58
1820.2
1766.9
805.926
-1.89041
-1.89361
-1.9033
-1.90514
-1.89613
-1.87816
-1.85018
-1.8111
-1.76241
-1.70603
-1.6435
-1.57616
-1.50505
-1.43098
-1.35464
-1.27662
-1.19745
-1.11762
-1.03748
-0.95735
-0.877428
-0.797878
-0.718831
-0.640393
-0.562616
-0.485521
-0.409139
-0.333563
-0.259154
-0.185403
-0.108062
)
;
    }
    rightWall
    {
        type            fixedFluxPressure;
        gradient        uniform 0;
        value           nonuniform List<scalar> 
50
(
5.18899
5.18759
5.18473
5.18041
5.17462
5.16732
5.1585
5.1481
5.12935
5.09637
5.0554
5.00597
4.94763
4.88
4.80281
4.71602
4.61973
4.51427
4.40012
4.27784
4.14804
4.0113
3.86819
3.71924
3.56499
3.40609
3.24332
3.07757
2.90988
2.74137
2.57317
2.40636
2.2419
2.08053
1.92291
1.76956
1.62083
1.47689
1.33781
1.20348
1.07374
0.948328
0.826902
0.709086
0.594459
0.482567
0.372935
0.265075
0.158496
0.0526594
)
;
    }
    lowerWall
    {
        type            fixedFluxPressure;
        gradient        uniform 0;
        value           nonuniform List<scalar> 
62
(
2135.1
2143
2145.9
2144.92
2141.98
2138.75
2135.88
2133.57
2132.04
2131.67
2133.16
2137.72
2147.27
2164.62
2193.73
2240.49
2311.16
2409.45
2533.47
2665.4
2768.63
2793.45
2835.77
2835.77
2843.72
2894.19
2922.74
2902.45
2811.43
2610.01
2286.43
481.808
442.947
5.97697
6.28273
5.73393
5.73726
5.74245
5.75205
5.76559
5.78536
5.81298
5.85329
5.73393
5.71404
5.69454
5.67439
5.65188
5.62597
5.59513
5.5589
5.51789
5.4735
5.42751
5.38184
5.33828
5.29835
5.26335
5.23427
5.21187
5.19667
5.18899
)
;
    }
    atmosphere
    {
        type            totalPressure;
        rho             rho;
        psi             none;
        gamma           1;
        p0              uniform 0;
        value           nonuniform List<scalar> 
46
(
-0.0657614
-0.0660341
-0.0647584
-0.0628136
-0.0602322
-0.0570816
-0.0534315
-0.0493595
-0.0449508
-0.0402973
-0.0354961
-0.0306482
-0.0258561
-0.0212212
-0.0168414
-0.0128086
-0.00920725
-0.00611148
-0.00358507
-0.00168764
-0.000482336
-1.08689e-05
0
0
0
0
0
0
0
0
0
0
0
0
0
0
0
0
0
0
0
0
0
0
0
0
)
;
    }
    defaultFaces
    {
        type            empty;
    }
}


// ************************************************************************* //
