/*--------------------------------*- C++ -*----------------------------------*\
| =========                 |                                                 |
| \\      /  F ield         | OpenFOAM: The Open Source CFD Toolbox           |
|  \\    /   O peration     | Version:  2.4.0                                 |
|   \\  /    A nd           | Web:      www.OpenFOAM.org                      |
|    \\/     M anipulation  |                                                 |
\*---------------------------------------------------------------------------*/
FoamFile
{
    version     2.0;
    format      ascii;
    class       volScalarField;
    location    "4.89";
    object      k;
}
// * * * * * * * * * * * * * * * * * * * * * * * * * * * * * * * * * * * * * //

dimensions      [0 2 -2 0 0 0 0];

internalField   nonuniform List<scalar> 
6000
(
0.0117122
0.00656264
0.00175501
0.000444967
0.000122681
0.000319262
0.000253915
0.000404866
0.000469869
0.000625918
0.000758176
0.000918725
0.00105201
0.00117254
0.00125325
0.00129995
0.00131729
0.00135163
0.00147898
0.00174887
0.00212376
0.00254873
0.00295509
0.00333391
0.00368817
0.00402172
0.00433738
0.00463688
0.00492125
0.00519149
0.00544568
0.00568388
0.00590549
0.00610988
0.00629642
0.00646473
0.0066144
0.00674566
0.00685821
0.00695339
0.0070303
0.00709248
0.00713684
0.00717031
0.0071884
0.00730039
0.00748498
0.0077099
0.00790339
0.00819102
0.00840152
0.00880799
0.00903034
0.00965757
0.00986611
0.0109142
0.0110466
0.0129604
0.0129697
0.017557
0.0120372
0.0117113
0.0020894
0.000676041
0.00013755
0.000281866
0.000380696
0.00053883
0.000711428
0.000941804
0.00118007
0.00144696
0.00169478
0.00193114
0.00212142
0.00225947
0.00234132
0.00243355
0.00267217
0.00316603
0.00386931
0.00465458
0.00542637
0.00615954
0.00685492
0.00751801
0.0081537
0.00876548
0.00935595
0.00992024
0.0104614
0.0109796
0.0114739
0.0119433
0.0123865
0.0128026
0.0131906
0.0135505
0.0138819
0.0141863
0.0144631
0.0147169
0.0149457
0.0151578
0.0153524
0.0155533
0.0157615
0.0159783
0.0161765
0.0164192
0.0166235
0.016933
0.01715
0.017589
0.0178185
0.0184931
0.0187137
0.0198397
0.0203055
0.0229912
0.011568
0.0151653
0.0028827
0.000648307
0.000188058
0.000335134
0.000482371
0.000674804
0.000901671
0.00119211
0.00149904
0.00183564
0.0021496
0.00244277
0.00268007
0.00285516
0.00297044
0.0031081
0.00343152
0.00406724
0.00495372
0.00593305
0.00689705
0.00781488
0.00868625
0.00951713
0.0103132
0.0110786
0.0118162
0.0125226
0.0132002
0.0138491
0.0144682
0.0150562
0.0156116
0.0161332
0.0166198
0.0170712
0.017487
0.0178685
0.0182158
0.0185332
0.0188203
0.0190846
0.0193287
0.0195631
0.0198026
0.0200414
0.0202709
0.0205279
0.02077
0.0210845
0.0213581
0.0217861
0.0221122
0.022745
0.0231603
0.0241676
0.0249955
0.027511
0.0114637
0.0160709
0.00401182
0.000532784
0.000236706
0.000386388
0.000560139
0.00078278
0.00104905
0.00138567
0.00174386
0.00213036
0.00249069
0.00282214
0.00309193
0.00329507
0.00344023
0.00361955
0.00401004
0.00474426
0.00575208
0.00686134
0.00795623
0.00900111
0.00999397
0.0109406
0.0118472
0.0127181
0.0135566
0.0143602
0.015131
0.0158688
0.0165725
0.0172407
0.0178716
0.0184638
0.0190159
0.0195275
0.0199982
0.0204292
0.0208209
0.0211773
0.0214995
0.0217941
0.0220648
0.0223178
0.0225754
0.0228262
0.0230748
0.0233386
0.0236057
0.0239211
0.0242358
0.0246547
0.0250566
0.0256609
0.0262304
0.0271643
0.0283311
0.0306739
0.0113762
0.0157663
0.00532574
0.000483612
0.000281048
0.000430906
0.0006246
0.00087329
0.00117187
0.0015467
0.00194702
0.00237428
0.0027726
0.00313592
0.00343386
0.00366305
0.00383718
0.00405454
0.00449934
0.00530749
0.00640592
0.00761496
0.00881264
0.00995851
0.0110485
0.0120879
0.0130829
0.0140383
0.0149577
0.0158391
0.0166843
0.0174932
0.0182646
0.0189967
0.0196879
0.0203363
0.0209404
0.0214996
0.0220134
0.0224828
0.0229085
0.0232942
0.0236424
0.0239582
0.0242465
0.0245115
0.0247797
0.0250364
0.0252958
0.0255612
0.0258432
0.0261554
0.026498
0.0269062
0.0273646
0.0279432
0.0286328
0.0295076
0.0309344
0.0331081
0.0113033
0.0149414
0.00672868
0.000608851
0.000323559
0.000470376
0.000680832
0.000952392
0.00127888
0.00168673
0.00212368
0.00258664
0.00301875
0.00341132
0.00373607
0.00399117
0.00419402
0.00444638
0.00493587
0.00580129
0.00697097
0.00826157
0.00954552
0.0107774
0.0119505
0.0130696
0.0141407
0.015169
0.016158
0.0171063
0.0180157
0.0188859
0.0197156
0.0205031
0.0212463
0.0219432
0.0225921
0.0231921
0.0237427
0.0242445
0.0246987
0.0251085
0.0254775
0.0258091
0.02611
0.0263834
0.0266574
0.0269162
0.0271807
0.0274441
0.027734
0.0280403
0.0284008
0.0287974
0.0292976
0.0298532
0.030637
0.0314623
0.0330889
0.0350972
0.0112435
0.013942
0.00776367
0.00114035
0.000372521
0.000506727
0.000731661
0.00102349
0.00137472
0.00181186
0.0022817
0.00277722
0.00324085
0.00366167
0.00401315
0.00429472
0.00452637
0.0048112
0.00533773
0.00624788
0.00747478
0.00883415
0.0101931
0.0115008
0.012748
0.0139383
0.0150776
0.0161712
0.0172226
0.018231
0.019198
0.0201234
0.0210057
0.021843
0.022633
0.0233737
0.0240629
0.0246996
0.0252829
0.0258136
0.0262927
0.0267233
0.0271098
0.0274535
0.0277639
0.028043
0.0283196
0.0285777
0.0288431
0.029102
0.0293943
0.0296926
0.0300635
0.0304478
0.0309783
0.031513
0.0323713
0.0331544
0.0349352
0.0367818
0.0111888
0.0129397
0.00846437
0.00207433
0.000448822
0.000542084
0.000779019
0.00108877
0.00146224
0.00192574
0.00242573
0.00295168
0.00344554
0.00389441
0.00427318
0.00458217
0.00484292
0.00515811
0.00571542
0.00666025
0.00793329
0.00935149
0.0107769
0.0121532
0.0134678
0.0147232
0.0159251
0.0170787
0.0181875
0.0192512
0.0202712
0.0212474
0.0221783
0.0230617
0.0238951
0.0246762
0.0254027
0.0260731
0.0266866
0.0272435
0.0277451
0.0281942
0.0285955
0.0289489
0.0292665
0.0295493
0.0298261
0.0300814
0.0303445
0.0305967
0.0308872
0.0311757
0.0315509
0.0319223
0.0324738
0.0329891
0.0339061
0.0346524
0.0365514
0.0382403
0.011136
0.0120146
0.00888041
0.00319929
0.00059781
0.000579425
0.000824563
0.00114989
0.00154338
0.00203082
0.00255878
0.00311362
0.00363697
0.00411414
0.00452112
0.00485871
0.00514899
0.00549286
0.00607575
0.00704691
0.00835679
0.00982555
0.0113105
0.0127494
0.0141264
0.0154423
0.0167025
0.017912
0.0190744
0.0201897
0.0212595
0.0222834
0.0232598
0.0241865
0.0250607
0.0258799
0.0266413
0.0273434
0.0279851
0.0285664
0.0290886
0.0295546
0.0299682
0.0303297
0.0306527
0.0309375
0.0312126
0.0314634
0.0317215
0.0319653
0.0322503
0.0325275
0.0329021
0.0332597
0.0338247
0.0343216
0.0352841
0.0359974
0.0379854
0.0395208
0.0110858
0.0111982
0.00905986
0.00433734
0.000908043
0.000623865
0.000870065
0.0012083
0.00161971
0.00212893
0.00268302
0.00326553
0.00381795
0.0043239
0.00476022
0.00512772
0.00544815
0.00581935
0.0064235
0.00741387
0.00875254
0.0102646
0.0118031
0.0132997
0.0147347
0.0161074
0.0174224
0.0186848
0.0198977
0.0210618
0.0221786
0.0232476
0.0242672
0.025235
0.026148
0.0270033
0.027798
0.0285301
0.0291984
0.0298026
0.0303441
0.0308254
0.0312494
0.0316177
0.0319447
0.0322302
0.0325019
0.0327468
0.0329977
0.0332314
0.0335081
0.0337724
0.0341422
0.034485
0.0350572
0.0355361
0.0365331
0.0372162
0.0392687
0.0406553
0.0110393
0.0104972
0.00905257
0.00534263
0.0014858
0.000685287
0.000917814
0.00126548
0.00169256
0.00222156
0.00280013
0.00340929
0.00399051
0.00452585
0.00499272
0.00539156
0.00574289
0.00614043
0.00676222
0.00776569
0.00912597
0.0106748
0.0122614
0.0138113
0.0153007
0.0167269
0.0180938
0.0194063
0.0206673
0.0218777
0.0230392
0.0241513
0.0252122
0.0262193
0.0271693
0.0280592
0.0288857
0.0296464
0.03034
0.030966
0.0315256
0.0320205
0.0324536
0.0328278
0.0331575
0.0334425
0.0337096
0.0339471
0.034189
0.0344111
0.0346769
0.0349268
0.0352883
0.0356152
0.0361891
0.03665
0.0376721
0.0383267
0.0404232
0.041666
0.010997
0.0099056
0.00890714
0.00615925
0.00223625
0.000783043
0.000971215
0.00132315
0.0017633
0.00231007
0.00291151
0.00354638
0.0041562
0.00472157
0.00522024
0.0056519
0.00603503
0.00645827
0.00709474
0.00810602
0.0094814
0.0110608
0.0126905
0.0142897
0.0158302
0.017307
0.0187232
0.0200835
0.0213902
0.022645
0.0238492
0.0250025
0.026103
0.0271477
0.0281333
0.0290564
0.0299133
0.0307016
0.0314194
0.032066
0.0326427
0.0331495
0.0335909
0.0339701
0.0343014
0.0345848
0.0348461
0.0350751
0.0353064
0.0355155
0.0357683
0.0360024
0.0363523
0.0366622
0.0372331
0.0376757
0.0387146
0.0393418
0.0414647
0.042569
0.010959
0.0094122
0.00866735
0.00676743
0.00306684
0.000956722
0.00103584
0.00138353
0.00183338
0.0023958
0.00301845
0.00367812
0.0043163
0.00491229
0.00544401
0.00591002
0.00632598
0.00677458
0.00742336
0.00843786
0.0098224
0.0114266
0.0130946
0.0147391
0.0163275
0.0178523
0.0193155
0.0207214
0.0220718
0.023369
0.0246143
0.0258071
0.0269454
0.0280264
0.0290462
0.0300012
0.0308875
0.0317021
0.0324431
0.0331095
0.0337019
0.0342195
0.0346685
0.0350518
0.0353838
0.0356646
0.0359191
0.0361386
0.0363578
0.0365527
0.0367905
0.0370074
0.0373431
0.0376347
0.0381983
0.038622
0.0396705
0.0402708
0.0424052
0.0433767
0.010925
0.00900403
0.00837003
0.0071723
0.00387965
0.00128789
0.00112136
0.00144971
0.00190454
0.00248018
0.00312225
0.00380569
0.00447193
0.00509906
0.00566501
0.00616688
0.00661685
0.00709079
0.00775003
0.00876381
0.0101521
0.0117755
0.013477
0.0151632
0.0167965
0.0183667
0.0198746
0.0213241
0.0227163
0.0240541
0.0253386
0.0265694
0.0277442
0.0288599
0.0299126
0.0308983
0.0318129
0.0326529
0.0334161
0.0341013
0.0347078
0.0352355
0.0356914
0.0360782
0.03641
0.0366874
0.0369342
0.0371431
0.0373491
0.0375285
0.0377496
0.037948
0.038267
0.0385391
0.0390918
0.0394958
0.0405473
0.0411209
0.0432538
0.0440983
0.010895
0.00866837
0.00804438
0.00739349
0.00463091
0.00180767
0.00124437
0.00152621
0.00197898
0.00256485
0.00322423
0.00393032
0.00462416
0.00528281
0.00588404
0.00642328
0.00690853
0.00740812
0.00807647
0.00908617
0.0104731
0.0121105
0.0138408
0.0155649
0.01724
0.0188532
0.0204036
0.0218946
0.0233269
0.0247036
0.0260257
0.0272928
0.0285026
0.0296517
0.0307361
0.0317513
0.032693
0.0335573
0.0343419
0.0350447
0.035664
0.0362014
0.0366635
0.0370531
0.0373839
0.037657
0.0378953
0.0380929
0.0382844
0.0384473
0.0386502
0.0388288
0.039129
0.0393803
0.0399187
0.0403021
0.0413509
0.0418974
0.0440178
0.0447416
0.0108685
0.00839359
0.00771235
0.00745821
0.00528548
0.00248074
0.00143309
0.00161993
0.00205961
0.00265178
0.0033259
0.00405327
0.00477406
0.00546442
0.00610184
0.00667987
0.0072018
0.00772763
0.00840422
0.00940701
0.010788
0.0124341
0.0141886
0.0159469
0.0176609
0.0193144
0.0209052
0.0224357
0.0239062
0.0253201
0.0266782
0.0279801
0.0292234
0.0304045
0.0315192
0.0325628
0.0335305
0.0344181
0.0352231
0.0359417
0.0365733
0.0371197
0.0375874
0.0379792
0.0383084
0.0385764
0.0388055
0.0389909
0.039167
0.0393124
0.0394956
0.0396533
0.0399327
0.0401619
0.0406831
0.0410448
0.0420856
0.0426049
0.0447033
0.0453125
0.0108453
0.00816944
0.00738949
0.00739679
0.00581816
0.00323022
0.00173612
0.00174165
0.00215043
0.00274345
0.00342901
0.00417597
0.00492277
0.00564479
0.00631909
0.00693726
0.00749732
0.00805026
0.00873468
0.00972826
0.0110991
0.0127489
0.014523
0.0163116
0.0180613
0.0197528
0.0213816
0.0229496
0.0244566
0.0259058
0.0272983
0.0286334
0.0299087
0.0311204
0.0322641
0.0333347
0.0343274
0.0352372
0.0360612
0.0367944
0.0374377
0.0379926
0.0384653
0.0388586
0.0391855
0.0394477
0.039667
0.0398394
0.0399992
0.0401262
0.0402886
0.0404242
0.0406811
0.040887
0.0413882
0.0417272
0.0427553
0.0432466
0.0453151
0.0458162
0.0108249
0.00798715
0.00708609
0.00723968
0.00621526
0.0039862
0.00218292
0.00190799
0.00225717
0.00284304
0.00353567
0.00430005
0.00507156
0.00582491
0.00653652
0.007196
0.00779568
0.00837688
0.00906916
0.0100517
0.0114086
0.0130572
0.0148462
0.0166612
0.0184436
0.0201702
0.0218349
0.0234384
0.0249799
0.0264627
0.0278878
0.0292545
0.0305602
0.031801
0.0329723
0.0340687
0.0350851
0.036016
0.036857
0.0376042
0.0382586
0.0388214
0.0392985
0.0396926
0.0400167
0.0402725
0.0404813
0.0406401
0.0407829
0.0408906
0.0410312
0.0411436
0.0413764
0.0415577
0.0420366
0.0423517
0.0433629
0.0438257
0.0458573
0.0462567
0.0108072
0.00783932
0.00680829
0.00701524
0.006474
0.004695
0.00275958
0.00214379
0.00238805
0.0029548
0.00364849
0.00442745
0.00522189
0.00600589
0.00675492
0.00745667
0.00809745
0.00870828
0.00940887
0.0103791
0.0117185
0.0133612
0.0151605
0.0169979
0.0188096
0.0205687
0.0222669
0.0239037
0.0254778
0.0269924
0.0284483
0.0298449
0.0311794
0.0324478
0.0336451
0.034766
0.0358048
0.036755
0.0376118
0.0383723
0.0390372
0.0396071
0.040088
0.0404825
0.040803
0.0410519
0.0412497
0.0413943
0.0415194
0.0416069
0.0417248
0.0418131
0.0420203
0.042176
0.0426304
0.0429204
0.0439109
0.0443445
0.0463334
0.0466377
0.0107918
0.00771977
0.00655911
0.00674846
0.00660087
0.00531678
0.00341911
0.00248097
0.00255505
0.00308441
0.0037708
0.00456052
0.00537549
0.006189
0.00697519
0.00771991
0.00840318
0.00904522
0.00975497
0.010712
0.012031
0.0136632
0.015468
0.0173237
0.0191613
0.0209501
0.0226793
0.0243472
0.0259518
0.0274962
0.0289812
0.0304059
0.0317674
0.0330617
0.0342836
0.0354275
0.0364871
0.0374545
0.0383264
0.0390994
0.039774
0.0403505
0.0408346
0.0412288
0.0415453
0.0417867
0.041973
0.0421028
0.0422096
0.0422764
0.0423706
0.0424339
0.0426144
0.0427434
0.0431712
0.043435
0.0444014
0.044805
0.0467466
0.0469622
0.0107784
0.00762336
0.00633932
0.0064602
0.00660943
0.00582426
0.00411148
0.00293909
0.00277535
0.00323961
0.00390686
0.00470214
0.00553442
0.00637575
0.00719835
0.00798639
0.00871344
0.0093884
0.0101086
0.011052
0.0123479
0.0139653
0.0157709
0.0176407
0.0195006
0.021316
0.0230737
0.0247703
0.0264033
0.0279756
0.0294875
0.0309385
0.0323253
0.0336438
0.0348887
0.0360539
0.0371318
0.0381155
0.0390014
0.0397861
0.0404696
0.041052
0.0415387
0.0419321
0.0422441
0.0424774
0.0426517
0.0427662
0.0428542
0.0428997
0.0429695
0.0430071
0.0431597
0.043261
0.0436605
0.043897
0.0448361
0.0452092
0.0470994
0.0472328
0.0107668
0.00754586
0.00614818
0.00616701
0.00651802
0.00620158
0.00478984
0.00350955
0.00307251
0.00343076
0.00406224
0.00485591
0.00570117
0.00656796
0.00742568
0.00825696
0.00902881
0.0097385
0.0104707
0.0114007
0.0126712
0.0142697
0.0160714
0.0179508
0.0198293
0.0216682
0.0234516
0.0251745
0.0268337
0.0284316
0.0299685
0.0314438
0.0328539
0.0341947
0.0354608
0.0366449
0.0377394
0.0387383
0.0396373
0.0404328
0.0411244
0.041712
0.0422006
0.0425926
0.0428995
0.0431243
0.0432862
0.0433851
0.0434538
0.0434774
0.0435223
0.0435334
0.0436572
0.0437298
0.0440993
0.0443076
0.0452166
0.0455586
0.0473942
0.0474519
0.0107568
0.00748379
0.00598397
0.00588128
0.00634748
0.00644309
0.00541325
0.00415939
0.0034687
0.00367152
0.00424419
0.00502626
0.00587878
0.00676779
0.00765864
0.00853256
0.00934994
0.0100962
0.0108423
0.0117595
0.0130027
0.0145784
0.0163714
0.0182561
0.0201493
0.0220082
0.0238145
0.0255611
0.0272441
0.0288654
0.0304251
0.0319225
0.033354
0.0347153
0.036
0.0372007
0.0383106
0.0393233
0.0402343
0.0410396
0.0417384
0.0423305
0.0428204
0.0432104
0.0435118
0.0437276
0.0438768
0.0439596
0.0440087
0.04401
0.0440293
0.0440134
0.0441076
0.0441506
0.0444888
0.0446678
0.0455443
0.0458547
0.0476331
0.0476216
0.0107481
0.00743431
0.00584439
0.00561173
0.00611916
0.00655214
0.00594831
0.00484522
0.00397094
0.00397969
0.00446212
0.00521878
0.00607095
0.00697785
0.00789904
0.00881434
0.00967755
0.010462
0.0112243
0.0121297
0.0133444
0.0148936
0.0166732
0.0185584
0.0204622
0.0223378
0.0241638
0.0259314
0.0276357
0.029278
0.0308583
0.0323756
0.0338263
0.0352052
0.0365061
0.0377219
0.0388457
0.0398709
0.0407926
0.0416066
0.0423118
0.0429075
0.043398
0.0437855
0.0440809
0.0442874
0.0444235
0.04449
0.0445191
0.0444978
0.0444911
0.0444476
0.0445114
0.0445242
0.0448298
0.0449786
0.0458203
0.0460987
0.047818
0.0477435
0.0107405
0.00739506
0.00572693
0.0053639
0.00585332
0.00653951
0.00637013
0.00552223
0.00456677
0.00437128
0.00472907
0.00544032
0.0062822
0.00720122
0.00814902
0.00910368
0.0100125
0.0108367
0.0116175
0.0125128
0.0136981
0.0152174
0.0169789
0.0188598
0.0207699
0.0226585
0.0245011
0.0262867
0.0280096
0.0296704
0.0312688
0.0328038
0.0342706
0.0356646
0.0369796
0.0382087
0.0393448
0.040381
0.0413123
0.0421339
0.0428445
0.043443
0.0439334
0.0443178
0.0446068
0.0448036
0.0449263
0.0449762
0.0449851
0.0449408
0.0449079
0.0448363
0.0448692
0.0448511
0.045123
0.0452409
0.0460459
0.0462919
0.0479507
0.0478193
0.010734
0.00736416
0.00562899
0.00514082
0.00556795
0.00642162
0.00666303
0.006149
0.0052277
0.00485379
0.00505873
0.00570097
0.00651801
0.00744162
0.0084111
0.00940218
0.0103556
0.0112208
0.0120226
0.0129098
0.0140654
0.0155517
0.0172905
0.0191624
0.0210743
0.0229719
0.0248277
0.0266282
0.0283669
0.0300435
0.0316575
0.0332067
0.034687
0.0360938
0.037421
0.0386616
0.0398082
0.0408539
0.0417932
0.0426213
0.0433362
0.0439367
0.0444264
0.0448072
0.0450892
0.045276
0.0453851
0.0454181
0.0454067
0.0453393
0.0452798
0.0451799
0.0451813
0.0451319
0.0453691
0.0454554
0.0462219
0.0464355
0.0480327
0.0478506
0.0107283
0.00734002
0.00554805
0.00494357
0.00527809
0.0062185
0.00682068
0.00668999
0.00591553
0.00542332
0.00546235
0.00601026
0.00678665
0.00770398
0.00868827
0.00971173
0.010708
0.0116148
0.0124403
0.0133219
0.014448
0.0158987
0.0176102
0.019468
0.0213771
0.0232795
0.0251449
0.0269571
0.0287086
0.0303979
0.0320239
0.0335847
0.0350761
0.0364934
0.0378306
0.0390806
0.0402359
0.0412895
0.0422355
0.0430687
0.0437869
0.0443885
0.0448767
0.0452533
0.0455281
0.0457044
0.0457998
0.0458158
0.0457839
0.0456932
0.0456071
0.0454787
0.0454482
0.045367
0.0455687
0.0456228
0.0463494
0.0465304
0.0480655
0.0478385
0.0107234
0.00732138
0.00548179
0.00477182
0.00499551
0.00595185
0.00684572
0.00711704
0.0065886
0.00606265
0.00594657
0.00637757
0.00709529
0.00799461
0.00898534
0.0100345
0.0110709
0.0120194
0.012871
0.0137499
0.0148474
0.0162602
0.0179399
0.0197786
0.02168
0.023583
0.025454
0.0272741
0.0290348
0.0307335
0.0323689
0.0339384
0.0354383
0.0368637
0.0382086
0.0394658
0.040628
0.0416877
0.0426388
0.0434758
0.0441962
0.044798
0.045284
0.0456559
0.045923
0.0460886
0.0461701
0.046169
0.0461166
0.0460026
0.0458897
0.0457326
0.0456701
0.0455568
0.0457224
0.0457437
0.0464292
0.0465776
0.0480504
0.0477844
0.0107191
0.00730719
0.00542807
0.0046243
0.00472879
0.00564316
0.00674864
0.00741041
0.00720635
0.00674302
0.00650973
0.00681078
0.00745136
0.00831896
0.00930685
0.010375
0.0114459
0.0124352
0.013315
0.0141946
0.015265
0.0166381
0.0182818
0.0200958
0.0219843
0.0238831
0.0257556
0.0275799
0.0293463
0.0310514
0.032693
0.0342685
0.0357741
0.037205
0.0385551
0.0398174
0.0409843
0.0420483
0.0430029
0.0438424
0.0445638
0.0451649
0.045648
0.0460146
0.0462736
0.0464284
0.0464957
0.0464775
0.0464046
0.0462674
0.0461278
0.045942
0.0458472
0.0457016
0.0458305
0.0458189
0.0464621
0.0465782
0.0479887
0.0476894
0.0107153
0.00729659
0.00538497
0.00449915
0.00448361
0.00531229
0.00654627
0.00755954
0.00773233
0.00742814
0.00713961
0.00731389
0.00786165
0.0086826
0.00965694
0.010736
0.0118357
0.0128632
0.0137725
0.0146558
0.015701
0.0170331
0.0186369
0.0204211
0.0222916
0.0241815
0.026051
0.0278756
0.0296441
0.0313522
0.0329968
0.0345753
0.0360838
0.0375174
0.0388703
0.0401353
0.0413048
0.0423711
0.0433276
0.0441681
0.0448894
0.0454887
0.0459682
0.0463289
0.0465795
0.0467232
0.0467764
0.0467412
0.0466479
0.0464875
0.0463213
0.0461069
0.0459798
0.0458019
0.0458937
0.0458488
0.046449
0.0465329
0.0478817
0.0475544
0.0107121
0.00728887
0.00535083
0.00439417
0.00426316
0.00497634
0.00625978
0.0075633
0.00813641
0.00807857
0.00781337
0.00788448
0.00833098
0.00909078
0.0100397
0.0111204
0.0122424
0.0133044
0.0142435
0.0151333
0.0161555
0.017446
0.0190064
0.020756
0.0226032
0.0244792
0.0263413
0.028162
0.029929
0.0316365
0.0332809
0.0348592
0.0363676
0.0378012
0.0391541
0.0404193
0.0415892
0.0426559
0.0436124
0.0444525
0.0451724
0.0457691
0.0462442
0.0465986
0.0468404
0.0469729
0.0470119
0.0469597
0.0468461
0.0466628
0.0464702
0.0462274
0.0460681
0.0458578
0.0459124
0.045834
0.0463905
0.0464428
0.0477304
0.0473805
0.0107092
0.00728347
0.00532418
0.00430707
0.00406867
0.00464909
0.00591249
0.00742953
0.00839638
0.0086554
0.00849961
0.00851177
0.00886037
0.00954748
0.010459
0.0115312
0.0126676
0.0137596
0.0147279
0.0156268
0.0166284
0.0178772
0.0193914
0.0211018
0.0229205
0.0247776
0.0266275
0.0284402
0.0302017
0.0319049
0.0335456
0.0351205
0.0366256
0.0380561
0.0394064
0.0406693
0.0418372
0.0429021
0.043857
0.0446951
0.0454124
0.0460054
0.0464755
0.046823
0.0470558
0.0471768
0.0472018
0.0471327
0.0469992
0.0467932
0.0465744
0.0463035
0.0461122
0.0458697
0.0458869
0.0457751
0.0462875
0.0463087
0.0475359
0.0471685
0.0107068
0.0072799
0.00530376
0.00423561
0.00389989
0.00434074
0.00552784
0.007174
0.00849934
0.00912314
0.0091616
0.00917607
0.00944527
0.0100543
0.0109175
0.0119706
0.013113
0.0142293
0.0152254
0.0161354
0.0171192
0.018327
0.0197925
0.0214594
0.0232446
0.0250776
0.0269104
0.0287107
0.0304626
0.0321578
0.0337912
0.0353592
0.0368578
0.0382823
0.0396269
0.0408848
0.0420484
0.0431095
0.0440609
0.0448954
0.0456088
0.0461972
0.0466615
0.0470016
0.0472252
0.0473348
0.0473457
0.04726
0.0471068
0.0468785
0.046634
0.0463353
0.0461123
0.0458379
0.0458177
0.0456727
0.0461406
0.0461313
0.0472991
0.0469193
0.0107046
0.00727778
0.00528848
0.00417762
0.00375555
0.00405813
0.00512756
0.00681864
0.00844237
0.00945218
0.00976067
0.00984967
0.0100741
0.0106092
0.0114163
0.0124404
0.0135797
0.0147139
0.0157355
0.0166581
0.0176269
0.0187947
0.02021
0.0218293
0.0235761
0.02538
0.0271908
0.0289741
0.0307121
0.0323953
0.0340177
0.0355753
0.037064
0.0384793
0.0398154
0.0410656
0.0422223
0.0432774
0.0442233
0.0450528
0.045761
0.0463438
0.0468016
0.047134
0.047348
0.0474461
0.0474432
0.0473412
0.0471687
0.0469185
0.0466489
0.0463229
0.0460686
0.0457626
0.0457052
0.0455272
0.0459505
0.0459115
0.0470212
0.0466337
0.0107027
0.00727679
0.00527742
0.00413116
0.00363373
0.00380511
0.00473029
0.00638935
0.00823264
0.00962072
0.0102593
0.010499
0.0107279
0.0112048
0.0119539
0.0129407
0.0140681
0.0152132
0.0162571
0.0171933
0.01815
0.0192795
0.0206434
0.0222119
0.0239155
0.0256852
0.027469
0.0292306
0.0309504
0.0326175
0.0342251
0.0357686
0.037244
0.0386467
0.0399712
0.0412109
0.0423583
0.0434051
0.0443437
0.0451665
0.0458683
0.0464445
0.0468951
0.0472194
0.0474238
0.0475105
0.0474939
0.0473759
0.0471846
0.0469132
0.0466189
0.0462662
0.0459811
0.0456441
0.0455498
0.0453392
0.045718
0.0456502
0.046703
0.0463125
0.010701
0.00727668
0.00526978
0.00409443
0.00353219
0.00358312
0.00435079
0.00591347
0.00788666
0.0096165
0.0106236
0.0110872
0.0113805
0.0118282
0.0125249
0.0134695
0.0145773
0.0157263
0.0167887
0.0177388
0.0186862
0.0197797
0.0210919
0.0226067
0.0242628
0.0259934
0.027745
0.0294802
0.0311774
0.0328242
0.0344129
0.0359386
0.0373972
0.038784
0.0400938
0.0413201
0.0424556
0.0434919
0.0444212
0.0452357
0.0459298
0.0464986
0.0469414
0.0472572
0.0474518
0.0475272
0.0474973
0.0473638
0.0471543
0.0468623
0.0465439
0.0461652
0.04585
0.0454826
0.0453518
0.0451091
0.0454436
0.045348
0.0463453
0.0459563
0.0106995
0.00727723
0.00526491
0.00406589
0.00344853
0.00339172
0.00399963
0.00541746
0.00742867
0.00943783
0.0108263
0.0115769
0.0120004
0.0124597
0.0131193
0.0140222
0.0151048
0.0162511
0.017328
0.0182919
0.0192327
0.0202928
0.0215538
0.0230127
0.0246172
0.026304
0.0280186
0.0297225
0.0313925
0.0330147
0.0345806
0.0360847
0.0375228
0.0388903
0.0401823
0.0413924
0.0425133
0.0435368
0.0444549
0.0452596
0.0459448
0.0465052
0.0469397
0.0472466
0.0474315
0.0474958
0.0474529
0.0473045
0.0470774
0.0467655
0.046424
0.0460201
0.0456755
0.0452784
0.0451117
0.0448375
0.0451281
0.0450057
0.0459492
0.0455659
0.0106983
0.00727828
0.00526224
0.00404415
0.00338042
0.00322924
0.00368339
0.00492482
0.00688829
0.00909406
0.0108481
0.0119333
0.0125527
0.013074
0.013722
0.0145903
0.0156456
0.0167841
0.0178715
0.0188488
0.0197856
0.0208155
0.0220264
0.0234281
0.0249777
0.0266161
0.0282887
0.0299567
0.0315949
0.0331883
0.0347272
0.0362059
0.0376198
0.0389646
0.0402356
0.0414265
0.0425302
0.0435387
0.0444437
0.045237
0.0459122
0.0464635
0.046889
0.047187
0.0473622
0.0474157
0.0473603
0.0471976
0.0469537
0.0466227
0.0462589
0.0458308
0.0454577
0.0450318
0.0448298
0.044525
0.0447721
0.0446242
0.0455153
0.045142
0.0106971
0.0072797
0.0052613
0.00402803
0.00332565
0.00309319
0.00340515
0.00445464
0.0062977
0.00860501
0.0106801
0.0121258
0.0130013
0.013641
0.0143125
0.0151614
0.0161919
0.0173198
0.0184146
0.0194047
0.0203402
0.0213434
0.0225063
0.0238501
0.025342
0.026928
0.0285542
0.0301815
0.0317835
0.0333436
0.0348515
0.0363008
0.0376869
0.0390056
0.0402523
0.0414212
0.0425052
0.0434964
0.0443865
0.045167
0.045831
0.0463723
0.0467886
0.0470775
0.0472431
0.0472862
0.0472189
0.0470426
0.0467827
0.0464337
0.0460486
0.0455973
0.0451966
0.0447429
0.0445064
0.0441719
0.0443763
0.0442041
0.0450446
0.0446851
0.0106961
0.00728137
0.00526171
0.0040165
0.00328218
0.00298071
0.00316522
0.00402087
0.00568862
0.0079994
0.0103251
0.0121314
0.0133114
0.0141273
0.0148656
0.0157183
0.0167326
0.0178504
0.0189507
0.0199536
0.0208904
0.021871
0.0229887
0.0242751
0.0257074
0.0272374
0.0288129
0.030395
0.0319563
0.0334789
0.0349517
0.0363678
0.0377225
0.0390117
0.040231
0.041375
0.0424368
0.0434086
0.0442819
0.0450481
0.0456999
0.0462306
0.0466373
0.0469171
0.0470734
0.0471066
0.0470281
0.0468391
0.0465643
0.0461982
0.0457929
0.0453196
0.0448925
0.0444121
0.0441421
0.0437788
0.0439413
0.0437461
0.0445378
0.0441959
0.0106952
0.00728321
0.00526314
0.00400869
0.00324822
0.00288881
0.00296193
0.00363223
0.00508952
0.00731225
0.00979774
0.0119364
0.0134522
0.0144985
0.0153518
0.0162397
0.0172529
0.0183652
0.0194714
0.0204879
0.0214292
0.0223916
0.0234679
0.0246982
0.0260698
0.0275408
0.0290619
0.0305948
0.0321111
0.0335921
0.0350258
0.0364049
0.0377246
0.0389809
0.0401698
0.041286
0.0423232
0.0432734
0.0441283
0.0448789
0.0455177
0.0460373
0.0464342
0.0467049
0.0468523
0.0468762
0.0467873
0.0465866
0.0462979
0.045916
0.0454917
0.0449976
0.0445453
0.0440395
0.0437372
0.0433463
0.0434677
0.0432511
0.0439957
0.0436751
0.0106945
0.00728517
0.00526533
0.00400387
0.00322216
0.00281461
0.00279229
0.00329276
0.00452358
0.00658155
0.00912416
0.0115387
0.0133989
0.0147212
0.0157394
0.0167001
0.0177339
0.0188505
0.019966
0.0209981
0.0219477
0.0228971
0.0239365
0.0251133
0.0264242
0.0278342
0.0292977
0.0307774
0.0322449
0.0336803
0.0350711
0.0364095
0.0376907
0.0389109
0.0400663
0.0411522
0.0421624
0.0430891
0.043924
0.0446579
0.0452828
0.0457909
0.0461779
0.0464399
0.0465789
0.0465942
0.0464959
0.0462846
0.0459832
0.0455869
0.045145
0.0446315
0.0441554
0.0436255
0.0432919
0.0428747
0.0429562
0.0427198
0.0434191
0.0431232
0.0106938
0.00728717
0.00526808
0.0040014
0.00320262
0.00275541
0.00265266
0.00300269
0.00400746
0.0058445
0.00834015
0.0109488
0.0131358
0.0147654
0.0159959
0.0170709
0.0181534
0.0192894
0.0204212
0.021473
0.0224356
0.023378
0.0243862
0.025513
0.0267644
0.0281122
0.0295156
0.030939
0.0323539
0.03374
0.0350843
0.0363786
0.037618
0.038799
0.0399182
0.0409712
0.0419521
0.0428536
0.0436672
0.0443833
0.0449937
0.04549
0.0458673
0.046121
0.0462522
0.0462599
0.0461533
0.0459325
0.0456198
0.0452105
0.0447525
0.0442212
0.0437227
0.0431702
0.0428069
0.0423647
0.0424075
0.0421528
0.0428087
0.0425408
0.0106932
0.00728919
0.00527121
0.00400077
0.0031884
0.00270879
0.00253913
0.00275949
0.00355106
0.00513407
0.00748791
0.0101903
0.0126583
0.0146069
0.0160897
0.0173219
0.018486
0.0196618
0.0208208
0.021899
0.0228808
0.023823
0.0248067
0.0258885
0.0270826
0.0283683
0.0297099
0.0310744
0.0324336
0.0337672
0.0350616
0.0363085
0.0375031
0.038642
0.0397224
0.0407402
0.04169
0.0425646
0.0433555
0.0440532
0.0446486
0.0451331
0.045501
0.0457469
0.0458712
0.0458723
0.0457586
0.0455298
0.0452074
0.0447866
0.0443141
0.0437667
0.0432475
0.042674
0.0422823
0.0418168
0.0418221
0.0415509
0.0421653
0.0419286
0.0106927
0.0072912
0.00527458
0.00400156
0.00317848
0.00267262
0.0024479
0.0025589
0.00315822
0.00447625
0.006612
0.0092988
0.0119748
0.0142301
0.0159931
0.0174227
0.0187041
0.0199448
0.0211462
0.0222603
0.0232693
0.0242196
0.0251865
0.0262294
0.02737
0.0285947
0.0298741
0.0311777
0.0324787
0.0337569
0.0349985
0.0361951
0.0373421
0.0384364
0.0394755
0.0404561
0.041373
0.0422194
0.0429867
0.0436653
0.0442456
0.0447184
0.0450773
0.0453163
0.0454348
0.0454306
0.0453111
0.045076
0.0447454
0.0443149
0.0438298
0.043268
0.0427298
0.0421371
0.0417187
0.0412315
0.0412008
0.0409149
0.0414896
0.041287
0.0106922
0.00729318
0.0052781
0.00400341
0.00317201
0.00264503
0.00237543
0.00239581
0.00282789
0.00388859
0.00575468
0.00831957
0.0111076
0.0136303
0.0156838
0.0173446
0.0187793
0.0201133
0.0213765
0.022539
0.0235851
0.024553
0.0255124
0.026524
0.0276162
0.0287826
0.0300001
0.031242
0.032483
0.0337035
0.0348898
0.0360337
0.0371306
0.038178
0.0391739
0.0401155
0.0409981
0.0418151
0.0425582
0.0432173
0.0437826
0.0442442
0.0445949
0.0448278
0.0449418
0.0449337
0.0448102
0.0445704
0.0442335
0.0437952
0.0432993
0.042725
0.0421698
0.0415598
0.0411163
0.0406092
0.0405442
0.0402454
0.0407824
0.0406167
0.0106918
0.0072951
0.00528169
0.00400604
0.00316825
0.00262444
0.00231854
0.00226487
0.00255563
0.00338004
0.0049517
0.00730309
0.0100931
0.0128162
0.0151486
0.0170626
0.0186837
0.0201413
0.0214884
0.022715
0.0238104
0.0248074
0.0257697
0.026759
0.0278095
0.0289216
0.030079
0.0312592
0.0324393
0.0336005
0.0347296
0.0358188
0.0368637
0.0378623
0.0388134
0.0397145
0.0405617
0.0413487
0.042067
0.0427067
0.0432573
0.0437083
0.0440518
0.0442801
0.044391
0.0443807
0.0442549
0.0440123
0.0436711
0.0432271
0.0427224
0.0421379
0.0415676
0.0409424
0.0404758
0.0399506
0.0398529
0.0395432
0.0400444
0.0399183
0.0106915
0.00729696
0.00528528
0.00400923
0.0031666
0.00260949
0.00227447
0.00216096
0.00233502
0.00295208
0.00422917
0.00629991
0.00897944
0.0118112
0.0143849
0.0165584
0.018392
0.0200026
0.0214579
0.0227669
0.023926
0.0249648
0.0259423
0.0269198
0.0279368
0.0290001
0.0301007
0.0312205
0.0323395
0.0334406
0.0345114
0.0355443
0.0365357
0.0374842
0.0383891
0.0392488
0.04006
0.0408165
0.0415102
0.0421307
0.0426673
0.0431088