/*--------------------------------*- C++ -*----------------------------------*\
| =========                 |                                                 |
| \\      /  F ield         | OpenFOAM: The Open Source CFD Toolbox           |
|  \\    /   O peration     | Version:  2.4.0                                 |
|   \\  /    A nd           | Web:      www.OpenFOAM.org                      |
|    \\/     M anipulation  |                                                 |
\*---------------------------------------------------------------------------*/
FoamFile
{
    version     2.0;
    format      ascii;
    class       volScalarField;
    location    "220";
    object      nut;
}
// * * * * * * * * * * * * * * * * * * * * * * * * * * * * * * * * * * * * * //

dimensions      [0 2 -1 0 0 0 0];

internalField   nonuniform List<scalar> 
6000
(
1.35205e-05
9.80977e-06
5.56134e-06
5.14831e-06
5.25905e-06
5.50706e-06
5.80699e-06
6.21797e-06
6.67413e-06
7.04027e-06
7.21881e-06
7.14267e-06
6.40212e-06
6.7984e-06
7.15413e-06
7.2688e-06
7.27444e-06
7.43592e-06
6.83739e-06
9.40456e-06
1.13307e-05
1.30875e-05
1.44877e-05
1.55829e-05
1.64176e-05
1.70312e-05
1.74586e-05
1.77334e-05
1.7888e-05
1.79445e-05
1.79123e-05
1.77856e-05
1.75482e-05
1.71626e-05
1.66009e-05
1.58314e-05
1.37822e-05
1.34854e-05
1.32224e-05
1.29731e-05
1.27262e-05
1.24829e-05
1.22331e-05
1.19445e-05
1.16918e-05
1.14294e-05
1.11452e-05
1.08457e-05
1.05575e-05
1.02968e-05
9.86814e-06
9.28559e-06
9.08738e-06
9.35086e-06
9.43125e-06
9.72028e-06
9.65214e-06
1.01363e-05
9.90187e-06
1.09658e-05
2.16993e-05
1.63852e-05
1.46834e-05
1.58269e-05
2.24336e-05
2.62825e-05
2.876e-05
3.10983e-05
3.51209e-05
4.13906e-05
4.81553e-05
5.43205e-05
5.69142e-05
4.79079e-05
4.11861e-05
3.65408e-05
3.08486e-05
2.51006e-05
1.97643e-05
2.14462e-05
2.41669e-05
2.77031e-05
3.20885e-05
3.73707e-05
4.35655e-05
5.06486e-05
5.85248e-05
6.68842e-05
7.51559e-05
8.3897e-05
9.29273e-05
0.000101936
0.000110385
0.000117316
0.000121764
0.000121654
0.000115724
0.000103006
9.0089e-05
7.7548e-05
6.58326e-05
5.53193e-05
4.62442e-05
3.86096e-05
3.20649e-05
2.71979e-05
2.48309e-05
2.66433e-05
3.2808e-05
3.97818e-05
4.6345e-05
5.6899e-05
6.4836e-05
6.38776e-05
5.86741e-05
5.20539e-05
4.41033e-05
3.76505e-05
2.80087e-05
2.52925e-05
2.83912e-05
2.19879e-05
1.99265e-05
2.4129e-05
4.23142e-05
5.59233e-05
6.45412e-05
7.14633e-05
8.06443e-05
9.27107e-05
0.000103909
0.000111219
0.000109447
9.22175e-05
7.8373e-05
6.6898e-05
5.11156e-05
3.80225e-05
3.59108e-05
4.18355e-05
5.04935e-05
6.11459e-05
7.34601e-05
8.70772e-05
0.000101629
0.000116759
0.00013206
0.000146829
0.00016113
0.000175631
0.000189987
0.000203524
0.00021505
0.000222706
0.000224568
0.000217846
0.000206399
0.000187125
0.000166667
0.000146274
0.000126722
0.000108639
9.24966e-05
7.86325e-05
6.70389e-05
5.96646e-05
5.986e-05
6.98406e-05
8.26158e-05
9.09882e-05
0.0001035
0.000128963
0.000143276
0.000140485
0.000130152
0.000118303
0.000102663
9.13022e-05
7.1562e-05
6.94263e-05
3.19836e-05
2.55954e-05
2.3229e-05
2.86617e-05
5.28903e-05
7.72975e-05
9.48215e-05
0.0001082
0.000122531
0.000138596
0.000151935
0.000157777
0.000149694
0.000124571
0.000103454
8.55075e-05
6.32345e-05
5.07119e-05
5.49027e-05
6.78753e-05
8.42838e-05
0.000102464
0.000121533
0.000140922
0.000160268
0.00017935
0.000197971
0.000215554
0.000232893
0.000250339
0.000267437
0.000283203
0.000295859
0.000302844
0.000301403
0.000290184
0.000273887
0.000250826
0.000226037
0.000201111
0.000177017
0.000154523
0.000134289
0.000117099
0.000104057
9.88529e-05
0.000104997
0.000118505
0.000129614
0.000137835
0.000161895
0.000199636
0.000214262
0.000209434
0.000196242
0.000181609
0.00016217
0.000148033
0.00012416
0.000121587
3.37105e-05
2.77474e-05
2.52881e-05
3.10438e-05
5.70089e-05
9.03871e-05
0.000116867
0.000137209
0.000156416
0.00017546
0.000189927
0.000193884
0.000180468
0.000148295
0.00012009
9.67529e-05
7.18654e-05
6.4552e-05
7.63398e-05
9.6795e-05
0.000119872
0.000143314
0.00016624
0.000188338
0.000209556
0.000229974
0.000249692
0.000268329
0.000287078
0.000306064
0.000324773
0.000341969
0.000355344
0.000361677
0.000357511
0.000343374
0.000323504
0.000298052
0.000270648
0.000243034
0.000216305
0.000191343
0.000169042
0.000150847
0.000139239
0.000138477
0.000147721
0.000159622
0.000168359
0.000180027
0.000219551
0.000262142
0.000273252
0.000266255
0.000251463
0.000235166
0.000214295
0.000198263
0.000173642
0.00016913
3.45661e-05
2.90191e-05
2.65347e-05
3.20467e-05
5.85767e-05
9.76918e-05
0.000131997
0.000158964
0.000182652
0.000204145
0.000219445
0.000222001
0.000204842
0.000166949
0.000131657
0.000103455
8.00721e-05
8.0037e-05
9.95421e-05
0.000126437
0.000154137
0.000180461
0.000204939
0.000227672
0.000248948
0.000269117
0.000288491
0.000307055
0.000326075
0.000345662
0.000365315
0.000383614
0.000397751
0.000403771
0.000397666
0.000381517
0.000359457
0.000332563
0.000303666
0.000274576
0.000246487
0.000220408
0.000197556
0.000180246
0.000171986
0.000175068
0.000183865
0.00019352
0.000201018
0.000220716
0.000274896
0.000315075
0.000321358
0.000312238
0.000296397
0.000278922
0.000257716
0.00024023
0.000216458
0.000209146
3.50091e-05
2.97744e-05
2.72585e-05
3.21964e-05
5.83585e-05
0.000100744
0.000141851
0.000174753
0.0002025
0.000226225
0.000242496
0.000244498
0.000225105
0.000182924
0.000140344
0.000108565
8.93462e-05
9.727e-05
0.000123745
0.000155405
0.000185729
0.000213072
0.000237483
0.000259453
0.000279551
0.000298347
0.000316321
0.000333843
0.000352219
0.000371684
0.000391831
0.000411143
0.000426325
0.000432531
0.000425294
0.000407936
0.00038484
0.000357244
0.000327665
0.000297968
0.000269445
0.000243273
0.000221111
0.000206199
0.000202126
0.000207004
0.000214047
0.000222091
0.000229762
0.000262329
0.000325726
0.000359035
0.00036062
0.000349496
0.000332797
0.000314343
0.000293206
0.000274535
0.000252163
0.000241837
3.52414e-05
3.02249e-05
2.76549e-05
3.18509e-05
5.68487e-05
0.000100824
0.000147696
0.000185825
0.000217256
0.000243204
0.00026085
0.000263253
0.00024302
0.00019765
0.000148006
0.000114297
0.000100486
0.000116127
0.00014825
0.000182905
0.000214203
0.00024119
0.000264385
0.000284582
0.00030257
0.000319095
0.000334792
0.000350413
0.000367367
0.000386107
0.00040643
0.000426825
0.000443534
0.000450596
0.000443088
0.000425414
0.000402125
0.000374402
0.000344729
0.000315048
0.000286774
0.000261316
0.0002409
0.000229555
0.000229403
0.000234196
0.000239802
0.000246576
0.000256709
0.000305555
0.00037054
0.000395398
0.000392941
0.000379944
0.000362411
0.00034305
0.000322041
0.000302358
0.000281404
0.0002682
3.5359e-05
3.04931e-05
2.78517e-05
3.12463e-05
5.43736e-05
9.91492e-05
0.000150281
0.000193173
0.00022801
0.000256306
0.000275879
0.000279639
0.000259788
0.000212562
0.000156963
0.000121934
0.000113936
0.000136342
0.000172498
0.000208546
0.000239537
0.000265159
0.00028629
0.000303947
0.000319079
0.000332581
0.00034524
0.000358205
0.000373054
0.000390548
0.000410804
0.000432468
0.000451368
0.000460166
0.000453361
0.000436287
0.00041339
0.000385956
0.000356595
0.000327358
0.000299824
0.000275717
0.000257933
0.000250876
0.000253627
0.000257437
0.000262235
0.000267851
0.000284077
0.000349189
0.000409044
0.00042576
0.000419866
0.000405118
0.000386712
0.000366458
0.000345482
0.0003249
0.000305139
0.000289339
3.54114e-05
3.06507e-05
2.79301e-05
3.05327e-05
5.13197e-05
9.6267e-05
0.000149734
0.000197488
0.000235594
0.000266434
0.000288548
0.000294596
0.00027619
0.000228775
0.000168773
0.000132504
0.000129874
0.000157571
0.00019609
0.00023219
0.000261902
0.000285413
0.000303847
0.000318369
0.000330048
0.000339906
0.000348889
0.00035855
0.000370689
0.000386458
0.00040643
0.000429603
0.000451504
0.000463133
0.000458133
0.00044248
0.000420383
0.000393522
0.000364722
0.000336196
0.000309735
0.000287472
0.00027303
0.000270475
0.000274871
0.00027769
0.000281943
0.000286829
0.000313836
0.000391081
0.000441799
0.000451425
0.000442594
0.000426201
0.00040687
0.000385721
0.00036463
0.000343217
0.000324333
0.000306261
3.54262e-05
3.07405e-05
2.79408e-05
2.98019e-05
4.80195e-05
9.21554e-05
0.000147354
0.000199163
0.000240583
0.000274195
0.000299469
0.000308703
0.000292692
0.000246722
0.00018438
0.000146673
0.00014825
0.000179451
0.000218777
0.000253858
0.000281563
0.000302417
0.000317691
0.000328644
0.00033643
0.000342181
0.000347003
0.000352835
0.000361731
0.000375296
0.000394714
0.000419591
0.000445367
0.000461089
0.000459076
0.00044552
0.000424523
0.000398413
0.00037031
0.000342638
0.000317463
0.000297418
0.00028683
0.000288508
0.00029348
0.000295695
0.000299248
0.000304697
0.000347007
0.000429416
0.000469703
0.00047341
0.000462036
0.000444096
0.000423795
0.000401743
0.000380387
0.000358185
0.000339849
0.000319815
3.5419e-05
3.0788e-05
2.79149e-05
2.91065e-05
4.47229e-05
8.70073e-05
0.000143759
0.000198263
0.000243323
0.000279954
0.000308964
0.000322246
0.000309523
0.000266346
0.000203956
0.000164659
0.000168812
0.000201648
0.00024043
0.000273663
0.00029883
0.000316647
0.000328466
0.000335596
0.000339248
0.000340642
0.000341023
0.000342658
0.000347843
0.000358674
0.000377108
0.000403692
0.000434143
0.000455305
0.000457457
0.000446553
0.000426899
0.000401651
0.000374299
0.000347542
0.000323783
0.000306235
0.000299804
0.000305064
0.000309943
0.000311886
0.000314429
0.000322974
0.000383136
0.000463352
0.000493664
0.000492493
0.000478885
0.000459488
0.000438189
0.00041523
0.000393474
0.000370509
0.000352421
0.000330703
3.53989e-05
3.08093e-05
2.78713e-05
2.84738e-05
4.15983e-05
8.11293e-05
0.00013895
0.00019548
0.000243955
0.000283879
0.00031714
0.000335289
0.000326727
0.000287348
0.00022669
0.000186208
0.000191171
0.000223888
0.000261018
0.000291781
0.000314042
0.000328604
0.000336852
0.000340124
0.000339657
0.000336718
0.000332638
0.000329907
0.000330986
0.000338462
0.000355211
0.000383129
0.000418793
0.000446711
0.000454142
0.00044638
0.000428292
0.000403978
0.00037739
0.000351563
0.000329299
0.000314453
0.000312263
0.00032024
0.000324727
0.00032646
0.000327885
0.000343348
0.000420493
0.000492915
0.000514466
0.000509268
0.000493671
0.000472898
0.000450589
0.000426725
0.000404461
0.000380749
0.000362655
0.000339487
3.53716e-05
3.08144e-05
2.7821e-05
2.79152e-05
3.87465e-05
7.48555e-05
0.000132883
0.000191474
0.000242428
0.000285988
0.00032395
0.000347722
0.00034419
0.00030937
0.000251807
0.000210699
0.000214876
0.00024597
0.00028058
0.000308425
0.000327563
0.000338816
0.000343581
0.000343209
0.000338927
0.00033199
0.000323723
0.000316683
0.000313374
0.000316798
0.000330833
0.00035917
0.000400105
0.000435932
0.000449659
0.000445523
0.000429225
0.000405904
0.000380071
0.00035517
0.000334456
0.000322456
0.000324385
0.000334158
0.000338183
0.000339497
0.000340255
0.000367278
0.000456945
0.000518596
0.000532747
0.000524194
0.000506803
0.000484728
0.000461407
0.000436646
0.000413793
0.000389344
0.000371038
0.000346618
3.53405e-05
3.08095e-05
2.77705e-05
2.74324e-05
3.6216e-05
6.84961e-05
0.000125661
0.000186268
0.00023926
0.000286202
0.000329245
0.000359321
0.000361677
0.000332046
0.000278474
0.000237339
0.000239493
0.000267773
0.000299209
0.00032384
0.000339779
0.000347836
0.000349417
0.000345862
0.000338341
0.000328013
0.000316085
0.000305021
0.00029722
0.000295934
0.000305979
0.000333205
0.000378773
0.000423359
0.000444287
0.000444289
0.000430027
0.000407756
0.000382664
0.000358678
0.000339562
0.0003305
0.000336237
0.000346965
0.000350516
0.000351063
0.000352472
0.000395443
0.000490853
0.000541032
0.000548994
0.00053763
0.000518599
0.000495285
0.000470961
0.000445315
0.000421813
0.000396638
0.000377962
0.000352451
3.53079e-05
3.07989e-05
2.77233e-05
2.70217e-05
3.40186e-05
6.23097e-05
0.000117499
0.000179779
0.000234862
0.000284543
0.000332817
0.000369784
0.00037886
0.000355006
0.000305981
0.000265348
0.000264654
0.000289241
0.000317038
0.000338291
0.000351089
0.000356222
0.000355102
0.000349018
0.000339011
0.000326059
0.000311134
0.0002965
0.00028433
0.0002779
0.000282684
0.000306779
0.0003555
0.000409233
0.00043813
0.000442842
0.000430888
0.000409733
0.000385369
0.000362289
0.000344814
0.00033873
0.000347805
0.000358797
0.000361819
0.000361301
0.000365753
0.000427358
0.000521421
0.000560838
0.000563617
0.000549854
0.000529305
0.000504809
0.000479497
0.000452979
0.00042879
0.000402899
0.000383734
0.000357265
3.52751e-05
3.07853e-05
2.76812e-05
2.66768e-05
3.21424e-05
5.64917e-05
0.000108684
0.000171987
0.0002292
0.000281437
0.000334422
0.000378773
0.000395361
0.000377868
0.000333773
0.000294074
0.000290077
0.000310374
0.000334226
0.000352053
0.000361888
0.000364502
0.000361288
0.000353419
0.000341715
0.000326902
0.000309634
0.000291953
0.000275752
0.000264104
0.000262705
0.000281527
0.000331091
0.000393692
0.000431227
0.000441258
0.000431911
0.00041195
0.000388301
0.000366118
0.000350321
0.000347203
0.000359022
0.000369766
0.000372111
0.000370498
0.000381476
0.000461498
0.000548563
0.000578536
0.000576957
0.000561088
0.000539116
0.000513486
0.000487202
0.000459831
0.000434928
0.000408333
0.000388596
0.000361278
3.52429e-05
3.07703e-05
2.7645e-05
2.639e-05
3.05615e-05
5.11732e-05
9.95289e-05
0.000162962
0.000222213
0.000276895
0.000334218
0.000385929
0.000410771
0.00040024
0.000361414
0.000323016
0.000315562
0.000331214
0.000350951
0.000365402
0.000372549
0.000373134
0.000368475
0.000359535
0.00034683
0.000330779
0.000311691
0.000291448
0.000271679
0.000255111
0.000247193
0.000258975
0.000306503
0.000376868
0.00042357
0.000439559
0.000433151
0.00041447
0.000391527
0.000370229
0.000356135
0.000355912
0.000369842
0.000379947
0.000381399
0.000379142
0.000400909
0.000495911
0.000572597
0.000594552
0.000589266
0.000571504
0.000548185
0.00052146
0.000494224
0.000466016
0.000440388
0.000413103
0.000392737
0.000364661
3.5212e-05
3.0755e-05
2.76146e-05
2.61539e-05
2.92434e-05
4.6427e-05
9.03409e-05
0.000152866
0.000213863
0.000270867
0.000332199
0.000391137
0.000424676
0.000421727
0.00038854
0.000351803
0.000340972
0.000351828
0.000367393
0.000378601
0.000383398
0.000382469
0.000376973
0.000367558
0.000354371
0.000337501
0.000316934
0.000294509
0.000271657
0.000250707
0.000236529
0.000240278
0.000282814
0.000358937
0.000415139
0.000437744
0.000434633
0.000417335
0.000395085
0.000374651
0.000362267
0.000364807
0.000380205
0.000389375
0.000389716
0.000387954
0.00042481
0.000528926
0.000593988
0.000609221
0.000600735
0.000581237
0.00055663
0.000528845
0.000500674
0.000471647
0.000445289
0.000417329
0.000396301
0.000367544
3.51825e-05
3.07403e-05
2.759e-05
2.59613e-05
2.81537e-05
4.22773e-05
8.13976e-05
0.000141934
0.000204166
0.000263307
0.000328309
0.00039427
0.000436803
0.000441936
0.000414824
0.000380154
0.000366217
0.000372297
0.000383728
0.000391884
0.000394695
0.000392739
0.000386911
0.000377454
0.000364104
0.000346635
0.000324759
0.000300407
0.000274888
0.000250173
0.000230405
0.000226017
0.000261099
0.000340159
0.000405925
0.000435797
0.000436372
0.000420569
0.000398996
0.000379395
0.000368699
0.000373811
0.00039006
0.000398063
0.000397173
0.000397892
0.000453079
0.000559523
0.000613212
0.000622802
0.000611509
0.000590393
0.000564544
0.000535726
0.000506638
0.000476811
0.000449725
0.000421108
0.0003994
0.000370027
3.51546e-05
3.07265e-05
2.75706e-05
2.58056e-05
2.72592e-05
3.8712e-05
7.29287e-05
0.000130451
0.000193204
0.000254199
0.000322491
0.000395179
0.000446961
0.000460509
0.000439954
0.000407838
0.000391225
0.000392698
0.000400115
0.000405446
0.000406629
0.00040406
0.00039827
0.000389033
0.000375668
0.000357663
0.000334519
0.000308386
0.000280517
0.0002526
0.000228073
0.000216167
0.00024226
0.000320888
0.000395944
0.000433702
0.000438375
0.000424195
0.000403281
0.000384461
0.000375401
0.000382838
0.000399364
0.000406016
0.000403994
0.000410086
0.000484691
0.00058733
0.000630687
0.000635493
0.000621697
0.000599051
0.000571996
0.000542168
0.000512182
0.000481573
0.000453767
0.00042451
0.000402119
0.000372186
3.51285e-05
3.07139e-05
2.7556e-05
2.5681e-05
2.65293e-05
3.56935e-05
6.51073e-05
0.000118729
0.000181134
0.000243566
0.000314683
0.000393752
0.000454922
0.000477256
0.00046362
0.000434639
0.000415928
0.000413097
0.000416689
0.000419438
0.000419308
0.000416443
0.000410924
0.000402022
0.000388664
0.000370077
0.00034563
0.000317781
0.000287776
0.000257112
0.000228631
0.000210234
0.000226844
0.00030159
0.000385243
0.00043144
0.000440648
0.000428234
0.000407955
0.000389849
0.000382338
0.000391803
0.00040809
0.000413255
0.000410556
0.00042568
0.000518019
0.000612411
0.000646754
0.000647442
0.000631381
0.000607271
0.000579038
0.000548222
0.000517355
0.000485981
0.000457466
0.00042759
0.000404521
0.000374078
3.51042e-05
3.07025e-05
2.75457e-05
2.55825e-05
2.5937e-05
3.31694e-05
5.80468e-05
0.000107079
0.000168174
0.000231486
0.00030482
0.000389906
0.000460498
0.000492001
0.000485543
0.000460335
0.000440239
0.000433532
0.000433547
0.000433956
0.000432773
0.000429823
0.000424679
0.000416114
0.000402703
0.000383431
0.000357605
0.000328057
0.000296053
0.000262975
0.000231219
0.000207476
0.000214748
0.000282998
0.000373905
0.000428996
0.000443194
0.000432707
0.000413039
0.000395559
0.000389473
0.000400628
0.000416227
0.000419838
0.000417416
0.000445572
0.000551374
0.000635055
0.000661683
0.00065876
0.00064062
0.000615097
0.00058571
0.000553922
0.000522191
0.000490071
0.000460861
0.000430387
0.000406654
0.000375745
3.50815e-05
3.06926e-05
2.75392e-05
2.55058e-05
2.54588e-05
3.10803e-05
5.18042e-05
9.57896e-05
0.000154595
0.000218094
0.000293089
0.000383596
0.000463532
0.00050456
0.000505581
0.000484678
0.000464039
0.000454005
0.000450745
0.000449045
0.000447001
0.000444074
0.000439306
0.000431001
0.000417427
0.000397342
0.00037006
0.000338801
0.000304883
0.000269626
0.00023512
0.000207097
0.000205791
0.000265642
0.000362038
0.000426351
0.000446017
0.000437637
0.000418556
0.000401595
0.000396772
0.000409246
0.000423781
0.000425886
0.000425324
0.000470101
0.000583442
0.000655624
0.00067568
0.000669527
0.000649457
0.000622558
0.000592037
0.000559294
0.000526716
0.000493869
0.00046398
0.000432931
0.000408552
0.000377218
3.50605e-05
3.0684e-05
2.75361e-05
2.54474e-05
2.50748e-05
2.93661e-05
4.63875e-05
8.51113e-05
0.000140705
0.000203587
0.000279556
0.00037479
0.000463889
0.000514783
0.000523621
0.000507441
0.00048716
0.00047447
0.000468294
0.000464701
0.00046192
0.000459033
0.000454562
0.000446387
0.00043252
0.000411496
0.000382688
0.0003497
0.000313921
0.00027665
0.000239784
0.000208415
0.000199658
0.000249888
0.00034977
0.000423491
0.000449115
0.00044305
0.000424534
0.000407967
0.000404212
0.000417611
0.000430781
0.000431606
0.000435203
0.00049885
0.000613455
0.000674466
0.0006889
0.000679783
0.000657917
0.000629675
0.000598036
0.000564353
0.000530946
0.000497391
0.000466842
0.000435241
0.000410239
0.000378519
3.50412e-05
3.06767e-05
2.75357e-05
2.54039e-05
2.47681e-05
2.79697e-05
4.17657e-05
7.52411e-05
0.000126824
0.000188216
0.000264363
0.000363479
0.000461457
0.000522539
0.000539556
0.000528484
0.000509386
0.00049482
0.000486152
0.000480867
0.000477416
0.000474512
0.000470199
0.000461995
0.000447699
0.000425628
0.000395245
0.000360512
0.000322917
0.000283751
0.000244857
0.000211009
0.000195828
0.000235944
0.000337233
0.000420397
0.000452485
0.000448969
0.000431003
0.00041469
0.000411777
0.000425695
0.000437289
0.000437321
0.000448061
0.000530701
0.000641118
0.000691883
0.000701451
0.000689594
0.000666018
0.000636456
0.000603716
0.00056911
0.000534892
0.000500648
0.00046946
0.000437331
0.000411732
0.000379662
3.50233e-05
3.06707e-05
2.75379e-05
2.5373e-05
2.45249e-05
2.68393e-05
3.78803e-05
6.63164e-05
0.000113267
0.000172274
0.000247718
0.00034967
0.000456149
0.000527699
0.00055328
0.000547709
0.000530516
0.000514875
0.000504222
0.000497446
0.000493343
0.000490308
0.000485976
0.000477565
0.000462707
0.000439506
0.000407531
0.000371042
0.000331678
0.000290717
0.000250412
0.000214373
0.000193757
0.00022387
0.000324556
0.000417046
0.00045612
0.00045542
0.000438002
0.00042179
0.000419466
0.000433492
0.000443409
0.000443495
0.000464832
0.000564155
0.00066646
0.000708117
0.000713412
0.000698995
0.000673767
0.000642906
0.000609081
0.000573568
0.000538558
0.000503646
0.00047184
0.000439209
0.000413042
0.000380657
3.50068e-05
3.06658e-05
2.75423e-05
2.53524e-05
2.43335e-05
2.5929e-05
3.46557e-05
5.84134e-05
0.000100326
0.000156086
0.000229885
0.000333383
0.000447902
0.00053014
0.000564691
0.000565023
0.000550398
0.000534442
0.000522301
0.000514292
0.00050953
0.000506209
0.000501656
0.000492857
0.00047731
0.00045292
0.00041937
0.000381129
0.000340099
0.000297786
0.000256181
0.000218165
0.000192986
0.000213607
0.000311858
0.000413411
0.000460006
0.000462427
0.00044557
0.0004293
0.000427292
0.000441029
0.000449302
0.000450749
0.000486135
0.000597741
0.000689674
0.000723356
0.000724832
0.000707998
0.000681162
0.000649022
0.000614128
0.000577727
0.000541944
0.000506388
0.000473987
0.000440881
0.000414175
0.00038151
3.49917e-05
3.0662e-05
2.75484e-05
2.53403e-05
2.41843e-05
2.51998e-05
3.2009e-05
5.15509e-05
8.82451e-05
0.000139996
0.000211181
0.000315068
0.000436695
0.000529756
0.000573684
0.000580336
0.000568887
0.000553345
0.000540227
0.000531182
0.000525743
0.000521997
0.000517015
0.000507645
0.00049129
0.000465674
0.000430602
0.000390832
0.000348361
0.000304818
0.000261958
0.000222158
0.00019315
0.000205016
0.000299243
0.000409459
0.000464124
0.000470014
0.000453754
0.000437264
0.000435289
0.000448357
0.000455207
0.000459857
0.000512046
0.000630318
0.000711016
0.000737741
0.000735741
0.000716606
0.000688198
0.000654798
0.000618854
0.000581582
0.000545049
0.00050887
0.000475901
0.000442347
0.000415134
0.000382223
3.49779e-05
3.06592e-05
2.75562e-05
2.53352e-05
2.40696e-05
2.46186e-05
2.98568e-05
4.5699e-05
7.72162e-05
0.000124343
0.000191965
0.00029497
0.000422553
0.000526451
0.000580154
0.000593558
0.000585842
0.000571396
0.000557817
0.000547945
0.000541799
0.000537462
0.000531853
0.000521753
0.000504511
0.000477722
0.000441292
0.000400149
0.000356393
0.000311688
0.000267608
0.0002262
0.000193966
0.000197911
0.000286796
0.00040515
0.000468446
0.000478203
0.000462604
0.00044574
0.000443508
0.000455578
0.000461458
0.000471697
0.00054199
0.000661177
0.000730739
0.000751371
0.000746154
0.000724814
0.000694866
0.000660225
0.00062325
0.000585128
0.000547867
0.000511091
0.000477578
0.000443606
0.000415919
0.000382796
3.49652e-05
3.06573e-05
2.75652e-05
2.53358e-05
2.39828e-05
2.41575e-05
2.81207e-05
4.07902e-05
6.73639e-05
0.000109444
0.000172622
0.000273391
0.000405728
0.000520147
0.000583994
0.000604593
0.000601129
0.000588404
0.000574869
0.000564395
0.000557526
0.000552448
0.000546041
0.000535086
0.000516919
0.000489041
0.000451413
0.000409042
0.000364118
0.000318297
0.000273042
0.000230182
0.000195215
0.00019209
0.000274585
0.000400436
0.000472936
0.00048701
0.000472177
0.000454796
0.000452027
0.000462874
0.000468503
0.000487146
0.000574847
0.000689987
0.000749064
0.000764314
0.000756074
0.000732611
0.000701152
0.000665291
0.000627306
0.000588357
0.000550392
0.000513045
0.000479016
0.000444655
0.000416528
0.000383228
3.49536e-05
3.06563e-05
2.75753e-05
2.53411e-05
2.39188e-05
2.37939e-05
2.67297e-05
3.67326e-05
5.87459e-05
9.55741e-05
0.000153552
0.000250697
0.000386324
0.000510784
0.000585096
0.000613345
0.000614618
0.00060418
0.000591174
0.000580331
0.000572748
0.000566812
0.000559471
0.000547575
0.000528475
0.000499609
0.000460933
0.000417466
0.000371466
0.000324573
0.000278194
0.00023402
0.000196727
0.000187351
0.000262664
0.000395264
0.000477548
0.000496451
0.00048253
0.000464515
0.000460953
0.00047047
0.000476919
0.0005069
0.000609236
0.000716683
0.000766175
0.000776614
0.000765495
0.000739983
0.000707042
0.000669984
0.000631012
0.000591259
0.000552617
0.000514726
0.00048021
0.000445492
0.000416959
0.000383515
3.4943e-05
3.06559e-05
2.75864e-05
2.53503e-05
2.38732e-05
2.3509e-05
2.56218e-05
3.34209e-05
5.1357e-05
8.29489e-05
0.000135146
0.000227309
0.000364527
0.000498332
0.000583355
0.000619712
0.000626181
0.000618539
0.000606516
0.000595552
0.000587292
0.00058042
0.000572052
0.00055916
0.000539148
0.0005094
0.000469817
0.000425371
0.000378373
0.000330457
0.000283015
0.00023765
0.000198367
0.000183505
0.000251071
0.000389572
0.000482222
0.000506533
0.000493725
0.000474993
0.000470421
0.000478664
0.000487401
0.00053127
0.000643839
0.00074135
0.000782214
0.000788294
0.000774405
0.000746916
0.000712522
0.00067429
0.000634355
0.000593825
0.000554533
0.000516126
0.000481153
0.00044611
0.000417206
0.000383655
3.49333e-05
3.06563e-05
2.75981e-05
2.53625e-05
2.38425e-05
2.32875e-05
2.47441e-05
3.07475e-05
4.51393e-05
7.17118e-05
0.000117769
0.000203688
0.000340609
0.0004828
0.000578673
0.000623587
0.000635695
0.000631309
0.000620689
0.000609858
0.000600994
0.000593151
0.000583703
0.000569795
0.000548911
0.000518386
0.000478024
0.000432709
0.000384785
0.000335902
0.000287463
0.000241016
0.000200026
0.000180378
0.000239837
0.000383293
0.000486889
0.000517256
0.000505825
0.000486341
0.000480603
0.00048783
0.000500717
0.000560025
0.000677616
0.000764143
0.000797287
0.000799364
0.00078279
0.000753391
0.000717573
0.000678195
0.000637324
0.000596044
0.000556131
0.000517239
0.00048184
0.000446505
0.000417267
0.000383643
3.49244e-05
3.06572e-05
2.76105e-05
2.53771e-05
2.38239e-05
2.3117e-05
2.40524e-05
2.86091e-05
3.99951e-05
6.19288e-05
0.000101736
0.000180325
0.00031492
0.00046425
0.000570963
0.000624865
0.000643042
0.000642327
0.000633495
0.000623057
0.000613695
0.000604893
0.000594352
0.000579438
0.000557736
0.000526532
0.000485514
0.000439428
0.000390654
0.000340867
0.0002915
0.000244071
0.000201616
0.000177817
0.000228985
0.000376355
0.000491461
0.00052861
0.000518892
0.00049868
0.000491706
0.000498428
0.000517615
0.000592385
0.000709873
0.000785234
0.000811469
0.000809825
0.000790631
0.000759393
0.000722182
0.000681684
0.000639908
0.000597907
0.000557404
0.000518058
0.000482265
0.000446672
0.000417136
0.000383476
3.49164e-05
3.06586e-05
2.76233e-05
2.53937e-05
2.3815e-05
2.29875e-05
2.351e-05
2.6912e-05
3.58026e-05
5.3591e-05
8.72855e-05
0.000157715
0.000287889
0.000442803
0.00056016
0.000623439
0.000648104
0.000651442
0.000644753
0.000634968
0.000625248
0.000615541
0.000603933
0.00058805
0.000565598
0.000533809
0.000492246
0.000445484
0.000395935
0.000345314
0.00029509
0.000246776
0.000203064
0.000175684
0.000218531
0.000368686
0.000495837
0.000540571
0.000532984
0.000512143
0.000503975
0.000510989
0.000538671
0.000627183
0.000740229
0.000804786
0.000824811
0.000819671
0.000797914
0.000764904
0.000726331
0.000684745
0.000642093
0.000599403
0.000558342
0.000518575
0.000482421
0.000446605
0.000416808
0.000383148
3.4909e-05
3.06605e-05
2.76365e-05
2.54119e-05
2.38139e-05
2.28908e-05
2.3087e-05
2.5574e-05
3.24298e-05
4.66252e-05
7.4568e-05
0.000136331
0.000260019
0.000418653
0.000546225
0.000619206
0.000650771
0.000658519
0.000654297
0.000645427
0.000635515
0.000624999
0.000612388
0.000595595
0.000572466
0.000540185
0.000498177
0.000450832
0.000400588
0.000349206
0.000298201
0.000249092
0.000204306
0.000173861
0.000208491
0.000360209
0.000499896
0.000553102
0.000548153
0.000526867
0.000517683
0.00052608
0.000564119
0.000663126
0.000768525
0.000822936
0.000837344
0.000828888
0.000804639
0.000769906
0.000730007
0.000687365
0.00064387
0.000600524
0.000558938
0.000518783
0.000482303
0.000446299
0.000416279
0.000382657
3.49024e-05
3.06627e-05
2.76499e-05
2.54312e-05
2.3819e-05
2.28204e-05
2.27593e-05
2.45251e-05
2.97457e-05
4.09103e-05
6.36364e-05
0.000116592
0.000231874
0.00039207
0.000529158
0.000612071
0.000650934
0.000663436
0.000661982
0.000654284
0.000644373
0.000633179
0.000619658
0.000602037
0.000578312
0.000545628
0.000503267
0.00045543
0.000404575
0.000352512
0.000300802
0.000250987
0.00020529
0.00017224
0.000198876
0.000350852
0.000503498
0.000566143
0.000564437
0.000542989
0.000533125
0.000544236
0.000593734
0.000699038
0.000794748
0.000839797
0.000849085
0.000837461
0.000810793
0.000774385
0.000733193
0.000689531
0.000645228
0.000601261
0.000559184
0.000518677
0.000481906
0.00044575
0.000415545
0.000381997
3.48963e-05
3.06653e-05
2.76635e-05
2.54513e-05
2.38291e-05
2.27711e-05
2.25073e-05
2.37073e-05
2.76291e-05
3.62958e-05
5.44508e-05
9.88266e-05
0.000204055
0.000363413
0.000509005
0.000601953
0.000648491
0.000666079
0.000667681
0.000661411
0.000651711
0.000639999
0.00062569
0.000607337
0.000583103
0.000550101
0.000507476
0.000459238
0.000407859
0.000355196
0.000302864
0.000252429
0.000205968
0.00017073
0.000189696
0.000340549
0.000506484
0.000579615
0.000581859
0.000560637
0.000550591
0.00056586
0.000626817
0.000733997
0.00081896
0.000855457
0.000860042
0.000845374
0.000816362
0.000778325
0.000735878
0.000691231
0.000646159
0.000601606
0.000559075
0.000518252
0.000481224
0.000444954
0.000414601
0.000381165
3.48908e-05
3.06681e-05
2.76772e-05
2.54721e-05
2.38432e-05
2.27385e-05
2.23154e-05
2.30727e-05
2.59724e-05
3.26201e-05
4.68932e-05
8.32488e-05
0.000177174
0.000333126
0.000485872
0.000588793
0.000643346
0.00066635
0.000671284
0.000666696
0.00065743
0.000645384
0.000630431
0.000611458
0.000586806
0.000553569
0.000510766
0.000462218
0.000410405
0.00035723
0.000304356
0.00025339
0.0002063
0.000169247
0.000180958
0.000329243
0.00050867
0.000593407
0.000600417
0.000579919
0.000570336
0.000591122
0.000662327
0.00076736
0.000841258
0.000869978
0.00087021
0.000852609
0.000821329
0.000781711
0.000738049
0.000692458
0.000646652
0.000601553
0.000558605
0.000517502
0.000480255
0.000443908
0.000413446
0.000380159
3.48858e-05
3.06711e-05
2.76908e-05
2.54933e-05
2.38603e-05
2.27193e-05
2.2171e-05
2.25829e-05
2.46836e-05
2.97247e-05
4.07913e-05
6.99426e-05
0.000151816
0.000301738
0.000459934
0.000572557
0.000635412
0.000664157
0.000672698
0.000670042
0.000661444
0.000649266
0.000633831
0.000614362
0.000589387
0.000555998
0.000513102
0.000464337
0.000412181
0.000358581
0.000305253
0.000253842
0.000206249
0.000167717
0.000172663
0.000316893
0.000509855
0.000607381
0.000620082
0.000600913
0.00059255
0.000619875
0.000699085
0.000798728
0.000861747
0.000883406
0.000879583
0.000859147
0.000825679
0.00078453
0.000739696
0.0006932
0.000646703