/*--------------------------------*- C++ -*----------------------------------*\
| =========                 |                                                 |
| \\      /  F ield         | OpenFOAM: The Open Source CFD Toolbox           |
|  \\    /   O peration     | Version:  2.4.0                                 |
|   \\  /    A nd           | Web:      www.OpenFOAM.org                      |
|    \\/     M anipulation  |                                                 |
\*---------------------------------------------------------------------------*/
FoamFile
{
    version     2.0;
    format      ascii;
    class       volVectorField;
    location    "5.96";
    object      U;
}
// * * * * * * * * * * * * * * * * * * * * * * * * * * * * * * * * * * * * * //

dimensions      [0 1 -1 0 0 0 0];

internalField   nonuniform List<vector> 
6000
(
(0.513516 -0.043071 -6.48966e-18)
(-0.317794 0.0668558 0)
(0.111655 -0.027353 9.75987e-18)
(0.00930897 -0.00185476 0)
(0.00584044 5.98044e-05 0)
(-0.0292223 0.00568252 0)
(-0.0149133 0.00319692 4.18455e-18)
(-0.0319359 0.00583593 9.29443e-24)
(-0.0310699 0.00583889 0)
(-0.0431604 0.00732487 0)
(-0.0479532 0.00799547 3.51994e-18)
(-0.0571131 0.00873642 -6.79954e-18)
(-0.0627283 0.00919915 0)
(-0.0702694 0.00960477 0)
(-0.0774796 0.01006 -1.55033e-18)
(-0.0863668 0.0104823 0)
(-0.0954406 0.0108137 0)
(-0.104638 0.0109273 -1.44462e-18)
(-0.113175 0.0108224 -1.41752e-18)
(-0.12104 0.0104954 0)
(-0.128005 0.00998217 1.3756e-18)
(-0.13409 0.00931199 6.80216e-19)
(-0.139622 0.00853323 -6.74534e-19)
(-0.144584 0.00763806 0)
(-0.148942 0.00663927 0)
(-0.152658 0.00554879 0)
(-0.155683 0.00438142 3.35061e-19)
(-0.157968 0.00315301 -3.36812e-19)
(-0.159447 0.00188383 0)
(-0.160015 0.000597083 0)
(-0.15951 -0.000776056 4.34786e-20)
(-0.158033 -0.0020969 0)
(-0.155514 -0.0033695 3.60245e-19)
(-0.151883 -0.00457078 -3.68083e-19)
(-0.14707 -0.00567251 0)
(-0.140999 -0.00664487 0)
(-0.133598 -0.00745364 7.9732e-19)
(-0.124789 -0.00806561 0)
(-0.114504 -0.00843885 8.50367e-19)
(-0.102645 -0.00854005 0)
(-0.0891703 -0.00831343 0)
(-0.0739253 -0.00773413 1.89928e-18)
(-0.0569736 -0.00671961 -3.95104e-18)
(-0.0379377 -0.00526313 0)
(-0.0173485 -0.00326568 0)
(0.00597056 -0.000678669 2.23391e-18)
(0.0302103 0.00254339 0)
(0.0582364 0.00644745 0)
(0.0864018 0.01117 -4.9915e-18)
(0.120255 0.0166925 -5.1822e-18)
(0.152145 0.0232404 -5.33005e-18)
(0.193755 0.0307585 -5.92544e-21)
(0.228276 0.0394889 5.57467e-18)
(0.281703 0.0496081 0)
(0.315585 0.0608312 -9.53293e-21)
(0.390158 0.074918 -5.9132e-18)
(0.413412 0.0878022 4.94567e-18)
(0.533301 0.110164 5.88127e-18)
(0.519892 0.119959 1.74625e-20)
(0.761506 0.166156 0)
(0.726769 -0.108553 4.96067e-18)
(-0.209418 0.0626906 5.70579e-18)
(0.091782 -0.0316471 -4.73463e-18)
(-0.0218072 0.00860141 -5.05238e-18)
(0.00485149 0.00145288 0)
(-0.04217 0.00900117 0)
(-0.02405 0.00515958 -4.11683e-18)
(-0.0428842 0.00828217 7.8938e-18)
(-0.0418308 0.00830403 0)
(-0.0540339 0.00966951 0)
(-0.0589485 0.0103967 -3.42313e-18)
(-0.0676258 0.0108746 3.29761e-18)
(-0.0734065 0.0113601 1.59036e-18)
(-0.0808612 0.0117041 0)
(-0.0882989 0.0122338 1.49478e-18)
(-0.0969533 0.0126138 0)
(-0.105571 0.0128567 0)
(-0.113976 0.0127995 0)
(-0.121674 0.0125202 0)
(-0.128708 0.0120167 0)
(-0.135031 0.0113488 1.25578e-22)
(-0.140727 0.0105498 0)
(-0.145852 0.00964463 -6.38325e-19)
(-0.150362 0.00861753 0)
(-0.154227 0.00748218 0)
(-0.157403 0.00625004 3.14405e-19)
(-0.159845 0.00493655 -3.14582e-19)
(-0.161504 0.00355632 4.03159e-23)
(-0.162322 0.00212415 1.58723e-19)
(-0.162255 0.000660862 0)
(-0.161301 -0.000812297 -4.04852e-20)
(-0.159338 -0.00226922 -1.64155e-19)
(-0.156295 -0.00368436 -1.15456e-22)
(-0.152101 -0.00502988 3.40274e-19)
(-0.146683 -0.00627494 -3.47498e-19)
(-0.139965 -0.00738747 0)
(-0.131877 -0.00832987 0)
(-0.122337 -0.00906692 0)
(-0.111277 -0.00955176 0)
(-0.0985997 -0.00975034 0)
(-0.0842626 -0.00959898 -1.65097e-18)
(-0.0681087 -0.00907498 0)
(-0.0502042 -0.00808435 1.77134e-18)
(-0.0301724 -0.00662288 1.83451e-18)
(-0.0085061 -0.00457894 0)
(0.0158772 -0.0019214 0)
(0.0414979 0.00144565 0)
(0.0708382 0.00550387 0)
(0.100738 0.0105197 4.36025e-18)
(0.136171 0.0163024 0)
(0.170278 0.0233715 0)
(0.213798 0.0312484 -4.75491e-18)
(0.251269 0.0408711 -4.78943e-18)
(0.307004 0.0513887 0)
(0.345039 0.0641298 -9.48631e-18)
(0.422182 0.0784613 0)
(0.453577 0.0945433 -8.3023e-18)
(0.574221 0.116156 -4.82623e-18)
(0.580516 0.133049 1.948e-18)
(0.817756 0.17479 4.61052e-18)
(0.798659 -0.0913483 -3.36048e-19)
(-0.0780449 0.0481048 -5.3326e-18)
(0.067036 -0.027725 0)
(-0.053729 0.0168166 5.0113e-18)
(0.0016572 0.00277686 0)
(-0.0466668 0.0104386 0)
(-0.0278174 0.00625523 0)
(-0.0462414 0.00927135 -3.8429e-18)
(-0.0450437 0.00950478 0)
(-0.0566888 0.0106591 -3.45776e-18)
(-0.0613678 0.0114432 0)
(-0.069712 0.0117601 0)
(-0.0753892 0.0122738 -1.5216e-18)
(-0.0826585 0.0126139 0)
(-0.0898291 0.0131966 0)
(-0.0980417 0.0135608 0)
(-0.106148 0.0137501 0)
(-0.114049 0.0135996 0)
(-0.121309 0.0132287 0)
(-0.127984 0.0126397 1.24752e-18)
(-0.134032 0.0118997 -1.22367e-18)
(-0.139514 0.0110359 0)
(-0.144418 0.0100651 -6.32836e-23)
(-0.14871 0.00896979 -5.88163e-19)
(-0.152357 0.00776363 0)
(-0.155316 0.00645731 -5.80909e-19)
(-0.157542 0.00506618 0)
(-0.158985 0.00360476 2.90077e-19)
(-0.159595 0.00208848 -1.45537e-19)
(-0.159326 0.000532239 0)
(-0.158143 -0.00101749 0)
(-0.155947 -0.0025592 1.4931e-19)
(-0.152665 -0.00406443 -1.15518e-22)
(-0.148229 -0.00550385 0)
(-0.142565 -0.00684564 6.26408e-19)
(-0.1356 -0.00805707 0)
(-0.12726 -0.00909956 6.53749e-19)
(-0.117465 -0.00993744 0)
(-0.106147 -0.0105224 0)
(-0.0932078 -0.0108203 0)
(-0.0786054 -0.0107651 1.4565e-18)
(-0.0621826 -0.0103349 0)
(-0.0440022 -0.00943241 0)
(-0.0236981 -0.0080534 -1.59629e-18)
(-0.00171614 -0.00608064 0)
(0.0229411 -0.0034971 0)
(0.0490194 -0.000171403 1.74378e-18)
(0.0786983 0.00381724 -1.79696e-18)
(0.109182 0.00883388 -1.84487e-18)
(0.144976 0.0145417 0)
(0.179862 0.0216918 0)
(0.223739 0.0294431 0)
(0.262328 0.0393117 3.95608e-18)
(0.318343 0.0495254 4.04228e-18)
(0.358116 0.0628726 3.88017e-18)
(0.435257 0.0763795 0)
(0.469393 0.0939416 3.33751e-18)
(0.589326 0.113298 7.65393e-18)
(0.600256 0.133371 0)
(0.832577 0.168114 -3.53883e-18)
(0.83649 -0.0599335 -2.63412e-19)
(0.0437167 0.0395671 4.90166e-18)
(0.0473208 -0.0205486 -4.59973e-18)
(-0.0749184 0.0221075 0)
(-0.00102314 0.00321902 0)
(-0.0483796 0.0113739 0)
(-0.0297098 0.00689819 0)
(-0.0474718 0.00990753 0)
(-0.046205 0.0102712 0)
(-0.0573348 0.0113335 3.33616e-18)
(-0.0618388 0.0121406 3.16929e-18)
(-0.0699472 0.0123848 0)
(-0.0755482 0.0129179 0)
(-0.0826486 0.0132835 0)
(-0.089564 0.0139147 1.35671e-18)
(-0.0973988 0.0142872 0)
(-0.105101 0.014448 1.2737e-18)
(-0.112628 0.0142394 -1.23655e-18)
(-0.119571 0.0138052 0)
(-0.125983 0.0131556 -1.17329e-18)
(-0.131812 0.0123618 0)
(-0.137101 0.0114464 -5.635e-19)
(-0.141812 0.0104223 1.10943e-18)
(-0.145918 0.00927091 5.47669e-19)
(-0.149382 0.00800558 0)
(-0.152163 0.0066363 2.69237e-19)
(-0.154214 0.00517832 0)
(-0.155487 0.00364613 2.67664e-19)
(-0.155933 0.00205615 0)
(-0.155504 0.000426983 0)
(-0.15415 -0.00121373 0)
(-0.151784 -0.00284528 1.36472e-19)
(-0.148336 -0.00444454 -5.52068e-19)
(-0.143735 -0.00598257 0)
(-0.137909 -0.007427 -2.84276e-19)
(-0.130785 -0.00874462 0)
(-0.122289 -0.00989621 -5.90379e-19)
(-0.112342 -0.0108456 0)
(-0.100874 -0.0115435 0)
(-0.0877893 -0.0119554 0)
(-0.0730435 -0.0120144 1.29704e-18)
(-0.056481 -0.0116969 0)
(-0.0381598 -0.0109066 1.368e-18)
(-0.0177258 -0.0096337 -1.40589e-18)
(0.00441995 -0.00776486 0)
(0.0291975 -0.00528321 -1.48054e-18)
(0.0555162 -0.00204459 -3.0404e-18)
(0.0853238 0.00185039 1.56134e-18)
(0.116115 0.00680142 3.18823e-18)
(0.152012 0.0124193 -3.25674e-18)
(0.187323 0.0195422 -3.29895e-18)
(0.231239 0.0271865 0)
(0.270474 0.037105 -3.34812e-18)
(0.326372 0.0471289 -3.39757e-18)
(0.36722 0.0607008 -3.20716e-18)
(0.443886 0.0737457 0)
(0.479869 0.0919225 0)
(0.598468 0.110054 -3.08767e-18)
(0.612984 0.131248 0)
(0.839489 0.161557 2.69949e-18)
(0.86151 -0.0344714 -2.46469e-19)
(0.153192 0.0356395 -8.98712e-20)
(0.0542683 -0.0147665 4.55885e-18)
(-0.0862414 0.0249951 4.95781e-18)
(-0.00336554 0.00313165 0)
(-0.0490565 0.0121049 -4.20899e-18)
(-0.0307279 0.0073314 0)
(-0.04785 0.0104115 0)
(-0.046504 0.010847 0)
(-0.0571748 0.0118881 3.23057e-18)
(-0.0615253 0.0126992 -3.05896e-18)
(-0.0694367 0.0129123 0)
(-0.0749659 0.0134577 0)
(-0.081902 0.0138571 0)
(-0.0885724 0.0145304 -1.29853e-18)
(-0.0960616 0.0149181 0)
(-0.103406 0.0150595 -1.21457e-18)
(-0.110607 0.0148071 1.17661e-18)
(-0.117274 0.0143214 0)
(-0.123452 0.0136213 0)
(-0.129078 0.0127804 5.42705e-19)
(-0.134179 0.011818 5.31503e-19)
(-0.138708 0.0107441 -1.04439e-18)
(-0.142638 0.00954018 -5.14565e-19)
(-0.145932 0.0082188 0)
(-0.148548 0.00678938 2.51991e-19)
(-0.150438 0.00526706 0)
(-0.151558 0.00366623 -2.49652e-19)
(-0.151855 0.00200351 1.24737e-19)
(-0.151281 0.000297992 0)
(-0.149778 -0.0014271 0)
(-0.147267 -0.00314858 -2.52707e-19)
(-0.143679 -0.00484282 2.55079e-19)
(-0.138942 -0.0064808 0)
(-0.132987 -0.00802978 -2.61457e-19)
(-0.125738 -0.00945611 0)
(-0.117123 -0.0107201 5.40619e-19)
(-0.107062 -0.0117849 0)
(-0.0954865 -0.0126008 0)
(-0.0822991 -0.0131322 0)
(-0.0674565 -0.0133122 -1.17858e-18)
(-0.0508035 -0.0131147 -1.20591e-18)
(-0.0323937 -0.0124461 -1.23678e-18)
(-0.011884 -0.0112887 1.55243e-21)
(0.0103657 -0.00953686 -1.29556e-18)
(0.0352047 -0.00716865 1.32691e-18)
(0.0616717 -0.00403807 2.71135e-18)
(0.0915283 -0.000248562 0)
(0.122511 0.00460587 -1.41221e-18)
(0.158419 0.0101257 2.87654e-18)
(0.194004 0.0171697 2.90103e-18)
(0.237854 0.0247146 0)
(0.277533 0.0345863 0)
(0.333201 0.0444758 0)
(0.374839 0.0580739 2.75754e-18)
(0.450921 0.0708424 0)
(0.488353 0.0892001 0)
(0.605541 0.106611 2.55467e-18)
(0.623086 0.128005 -9.22613e-19)
(0.844072 0.155227 -2.20529e-18)
(0.880293 -0.0137338 -2.28011e-19)
(0.250948 0.0348617 -4.51349e-18)
(0.0816205 -0.00990569 0)
(-0.0884994 0.0268308 -4.93566e-18)
(-0.00565451 0.00282655 -4.44245e-18)
(-0.049237 0.0127123 2.79202e-22)
(-0.0312173 0.00763214 0)
(-0.047767 0.01084 0)
(-0.0463125 0.0113049 0)
(-0.0565686 0.0123692 -3.14078e-18)
(-0.0607682 0.013175 0)
(-0.0685015 0.0133807 0)
(-0.0739543 0.0139332 1.34932e-18)
(-0.0807275 0.0143667 0)
(-0.0871583 0.0150747 0)
(-0.0943203 0.015479 0)
(-0.10133 0.0156062 0)
(-0.108228 0.0153192 -1.12681e-18)
(-0.114636 0.0147898 0)
(-0.120591 0.0140458 1.06061e-18)
(-0.126018 0.0131622 -5.16747e-19)
(-0.130934 0.0121559 -5.05266e-19)
(-0.135284 0.0110348 9.91057e-19)
(-0.139042 0.00978077 9.74959e-19)
(-0.14217 0.00840564 0)
(-0.144625 0.00691827 -2.38006e-19)
(-0.146362 0.00533367 0)
(-0.147332 0.0036661 0)
(-0.147487 0.00193212 -2.34624e-19)
(-0.146774 0.000150544 0)
(-0.145134 -0.00165669 0)
(-0.14249 -0.00346676 2.3657e-19)
(-0.138774 -0.00525501 0)
(-0.133917 -0.00699219 0)
(-0.127847 -0.00864524 2.43734e-19)
(-0.12049 -0.0101801 0)
(-0.111775 -0.0115566 -5.02372e-19)
(-0.101619 -0.0127374 0)
(-0.0899575 -0.0136723 0)
(-0.0766909 -0.0143245 0)
(-0.0617761 -0.0146276 0)
(-0.0450591 -0.0145523 1.1107e-18)
(-0.0265887 -0.0140084 1.13445e-18)
(-0.00603217 -0.0129706 1.29854e-21)
(0.0162875 -0.0113409 1.18549e-18)
(0.0411558 -0.0090912 1.2081e-18)
(0.0677177 -0.00607869 -1.23346e-18)
(0.0975817 -0.00240032 0)
(0.128687 0.00234196 -1.27341e-18)
(0.16456 0.00775959 1.29219e-18)
(0.200333 0.0146978 -2.59515e-18)
(0.244069 0.0221471 0)
(0.284076 0.0319204 0)
(0.339473 0.0417055 -2.58294e-18)
(0.381732 0.0552203 -2.41063e-18)
(0.45721 0.0678157 2.44778e-18)
(0.495851 0.0861151 1.95082e-18)
(0.611657 0.103087 -2.21062e-18)
(0.631841 0.124204 7.88042e-19)
(0.847694 0.149163 0)
(0.895361 0.00500997 -2.04972e-19)
(0.337847 0.036528 0)
(0.120466 -0.00464608 4.3514e-18)
(-0.0789554 0.0276375 4.87242e-18)
(-0.00785365 0.00258905 -5.04788e-22)
(-0.0491191 0.0132097 4.10818e-18)
(-0.0313226 0.00783621 0)
(-0.0473781 0.0112124 0)
(-0.0457837 0.0116775 0)
(-0.0556608 0.012794 1.53301e-18)
(-0.0597048 0.0135914 1.44378e-18)
(-0.0672698 0.0138049 0)
(-0.0726391 0.014361 -1.30842e-18)
(-0.0792496 0.0148257 1.25584e-18)
(-0.0854445 0.0155613 0)
(-0.0922918 0.0159819 0)
(-0.0989809 0.0160985 0)
(-0.105586 0.0157835 -1.07162e-22)
(-0.111743 0.0152165 0)
(-0.117478 0.0144334 -2.03567e-18)
(-0.122707 0.0135104 4.95208e-19)
(-0.127437 0.0124624 4.83418e-19)
(-0.131607 0.0112962 1.00099e-23)
(-0.135194 0.00999408 -4.65128e-19)
(-0.138157 0.0085671 0)
(-0.140453 0.00702366 0)
(-0.142037 0.00537859 0)
(-0.142862 0.00364607 1.11599e-19)
(-0.142876 0.00184242 2.2252e-19)
(-0.142027 -1.39855e-05 0)
(-0.140253 -0.00190189 0)
(-0.137482 -0.0037989 -2.23545e-19)
(-0.133647 -0.00567962 -1.12468e-19)
(-0.128676 -0.00751458 0)
(-0.1225 -0.00927042 0)
(-0.115045 -0.0109127 0)
(-0.106239 -0.0124008 0)
(-0.0960021 -0.0136968 0)
(-0.0842668 -0.0147502 0)
(-0.0709352 -0.015523 0)
(-0.0559637 -0.0159493 0)
(-0.0391994 -0.0159967 0)
(-0.0206864 -0.0155784 -9.93943e-22)
(-0.000101649 -0.0146621 1.07856e-18)
(0.0222645 -0.0131568 0)
(0.0471409 -0.0110285 -2.2372e-18)
(0.0737611 -0.0081394 -1.13701e-18)
(0.103606 -0.00457561 0)
(0.134788 4.57481e-05 1.17155e-18)
(0.170599 0.005358 -1.18564e-18)
(0.206498 0.012175 2.37398e-18)
(0.250096 0.0195294 -2.3812e-18)
(0.290348 0.0291744 0)
(0.345457 0.0388695 7.55775e-21)
(0.388219 0.0522382 2.17141e-18)
(0.463101 0.0647158 -4.38158e-18)
(0.502777 0.0828202 -1.33952e-20)
(0.61726 0.0995074 -1.93448e-18)
(0.639775 0.12009 6.53437e-19)
(0.85085 0.143317 1.58518e-18)
(0.907669 0.0223004 -9.65517e-19)
(0.414787 0.040089 0)
(0.166662 0.00130579 9.94091e-21)
(-0.0573922 0.0278092 -3.28664e-21)
(-0.00940199 0.00264233 4.47065e-18)
(-0.048774 0.0136052 4.08363e-18)
(-0.0311086 0.00796229 0)
(-0.0467542 0.0115376 3.4527e-18)
(-0.0449913 0.0119821 0)
(-0.0545204 0.013172 -1.50172e-18)
(-0.0584007 0.0139607 6.27847e-23)
(-0.0658031 0.0141931 -1.3381e-18)
(-0.0710805 0.0147497 0)
(-0.0775284 0.0152421 -2.442e-18)
(-0.0834905 0.0159985 0)
(-0.0900326 0.0164343 0)
(-0.0964094 0.0165431 0)
(-0.102728 0.0162057 1.0491e-18)
(-0.108637 0.0156059 0)
(-0.114153 0.0147876 9.81792e-19)
(-0.119181 0.0138276 -9.54097e-19)
(-0.123722 0.0127399 0)
(-0.127712 0.0115303 2.38287e-24)
(-0.131126 0.0101818 0)
(-0.133922 0.00870461 0)
(-0.136059 0.00710671 -2.16957e-19)
(-0.13749 0.00540278 0)
(-0.138167 0.00360689 -2.13395e-19)
(-0.138041 0.00173509 -1.06279e-19)
(-0.137057 -0.00019478 -2.65138e-20)
(-0.135152 -0.00216206 2.65265e-20)
(-0.132257 -0.00414446 1.06455e-19)
(-0.128304 -0.0061161 2.14029e-19)
(-0.123225 -0.00804734 0)
(-0.116948 -0.00990454 2.17753e-19)
(-0.1094 -0.0116529 0)
(-0.100511 -0.0132513 0)
(-0.0901993 -0.0146614 0)
(-0.0783991 -0.0158323 4.61039e-19)
(-0.0650121 -0.0167249 0)
(-0.0499948 -0.017274 0)
(-0.0331949 -0.0174438 9.74397e-19)
(-0.0146525 -0.0171514 -9.94127e-19)
(0.00594699 -0.0163575 0)
(0.0283414 -0.014978 0)
(0.0532098 -0.0129726 1.04787e-18)
(0.0798607 -0.01021 1.06387e-18)
(0.109667 -0.006763 -1.07801e-18)
(0.14089 -0.00226802 0)
(0.176619 0.00293654 0)
(0.2126 0.00962253 0)
(0.256043 0.0168816 5.16035e-21)
(0.296477 0.0263795 0)
(0.351292 0.0359926 2.14269e-18)
(0.394466 0.0491753 0)
(0.468767 0.0615687 1.99467e-18)
(0.509342 0.0793917 -1.56427e-18)
(0.622564 0.0958901 3.48629e-18)
(0.647149 0.115787 -5.85459e-19)
(0.853761 0.13766 -1.41791e-18)
(0.917704 0.0379327 1.70981e-19)
(0.482645 0.0450082 -3.9344e-18)
(0.217444 0.00791689 -4.10993e-18)
(-0.0268271 0.0281264 -3.27721e-21)
(-0.00911243 0.00314069 -4.48514e-18)
(-0.0481844 0.0139274 -4.0788e-18)
(-0.0305992 0.00802164 0)
(-0.0459275 0.0118209 -3.41433e-18)
(-0.0439726 0.0122286 0)
(-0.0531826 0.0135087 -1.47606e-18)
(-0.05689 0.0142896 -1.38348e-18)
(-0.0641328 0.0145496 1.30969e-18)
(-0.06931 0.0151046 -1.24506e-18)
(-0.0755957 0.0156206 1.19147e-18)
(-0.081328 0.0163917 -1.14338e-18)
(-0.0875729 0.0168412 1.09952e-18)
(-0.0936435 0.0169444 0)
(-0.0996796 0.0165889 0)
(-0.10534 0.0159607 0)
(-0.110634 0.0151104 4.75618e-19)
(-0.115459 0.0141157 4.61652e-19)
(-0.119808 0.0129899 0)
(-0.123614 0.0117385 -4.39375e-19)
(-0.126852 0.010345 0)
(-0.12948 0.00881904 0)
(-0.131455 0.00716811 2.08962e-19)
(-0.132731 0.00540676 -2.06745e-19)
(-0.13326 0.00354891 1.02601e-19)
(-0.132992 0.00161032 0)
(-0.131871 -0.000391696 5.09113e-20)
(-0.129836 -0.00243702 -5.08953e-20)
(-0.126817 -0.0045033 0)
(-0.122749 -0.00656437 -1.025e-19)
(-0.117563 -0.00859037 2.06338e-19)
(-0.111188 -0.0105474 -2.08278e-19)
(-0.103551 -0.0124004 0)
(-0.0945828 -0.0141078 0)
(-0.0842019 -0.0156306 0)
(-0.072343 -0.016918 -4.39526e-19)
(-0.0589077 -0.0179294 0)
(-0.0438527 -0.0186003 0)
(-0.0270264 -0.0188921 -9.26377e-19)
(-0.00846455 -0.0187251 0)
(0.0121388 -0.0180541 9.5907e-19)
(0.0345463 -0.016801 -9.74139e-19)
(0.0593936 -0.0149195 0)
(0.0860527 -0.0122852 1.00263e-18)
(0.115806 -0.00895648 2.03243e-18)
(0.147041 -0.00459154 -1.02302e-18)
(0.182673 0.000503508 0)
(0.218696 0.00705169 0)
(0.261973 0.0142148 1.03066e-18)
(0.302538 0.0235524 0)
(0.357056 0.0330883 1.98273e-18)
(0.400567 0.0460574 0)
(0.474304 0.0583884 1.82973e-18)
(0.515664 0.0758708 1.41862e-18)
(0.627685 0.0922446 -1.59479e-18)
(0.654117 0.11136 0)
(0.85654 0.132171 1.2676e-18)
(0.925876 0.0519128 2.59844e-19)
(0.542268 0.0508356 7.39876e-20)
(0.270645 0.015074 4.01814e-18)
(0.0107576 0.0290756 -3.44405e-21)
(-0.00583292 0.00417142 -5.93059e-22)
(-0.0472257 0.0142287 0)
(-0.0297903 0.00802323 0)
(-0.044908 0.0120655 0)
(-0.0427446 0.0124233 -1.55737e-18)
(-0.0516646 0.0138076 2.91022e-18)
(-0.0551904 0.0145821 0)
(-0.0622754 0.0148773 1.28606e-18)
(-0.0673444 0.0154287 -5.09759e-23)
(-0.0734685 0.0159643 -1.1665e-18)
(-0.0789743 0.0167444 -5.50681e-23)
(-0.0849292 0.0172056 -1.07365e-18)
(-0.0906984 0.0173049 0)
(-0.0964533 0.0169354 0)
(-0.101863 0.0162823 0)
(-0.106933 0.0154029 -4.62509e-19)
(-0.111551 0.0143754 0)
(-0.115704 0.0132132 4.36429e-19)
(-0.119323 0.0119213 4.26085e-19)
(-0.122382 0.0104842 -4.17364e-19)
(-0.124838 0.00891077 0)
(-0.126649 0.00720813 0)
(-0.127767 0.00539068 1.99915e-19)
(-0.128145 0.00347219 0)
(-0.127733 0.00146809 9.85842e-20)
(-0.126474 -0.000604803 -2.45652e-20)
(-0.124307 -0.00272681 2.45413e-20)
(-0.121165 -0.00487551 -9.82893e-20)
(-0.116982 -0.00702448 0)
(-0.111689 -0.00914372 -1.98638e-19)
(-0.105217 -0.0111991 0)
(-0.0974938 -0.0131551 0)
(-0.088449 -0.0149701 4.09456e-19)
(-0.0780025 -0.0166042 0)
(-0.0660894 -0.0180066 0)
(-0.0526113 -0.0191355 0)
(-0.037525 -0.0199273 0)
(-0.0206797 -0.0203402 0)
(-0.00210686 -0.0202981 0)
(0.0184908 -0.0197501 -1.83169e-18)
(0.0408983 -0.0186234 9.29795e-19)
(0.0657131 -0.0168663 9.42376e-19)
(0.0923613 -0.0143614 -1.90864e-18)
(0.122047 -0.0111519 -9.65853e-19)
(0.15327 -0.00691952 9.71526e-19)
(0.188792 -0.00193551 -9.75595e-19)
(0.224827 0.00446999 0)
(0.267926 0.0115361 2.05056e-21)
(0.308578 0.0207039 -1.87481e-18)
(0.362798 0.030165 -1.86475e-18)
(0.406582 0.0429004 -1.7005e-18)
(0.479773 0.0551835 -3.41613e-18)
(0.521819 0.0722825 -1.32118e-18)
(0.632692 0.088577 1.46379e-18)
(0.660772 0.106849 4.54791e-19)
(0.859252 0.126832 -1.1703e-18)
(0.932556 0.0644432 -1.49132e-19)
(0.594458 0.0572274 3.75668e-18)
(0.324573 0.0226518 2.39241e-21)
(0.0545079 0.0307255 -3.82358e-21)
(0.001475 0.00607429 4.41851e-18)
(-0.0456081 0.0145795 4.12411e-18)
(-0.0286496 0.0079784 -3.67906e-18)
(-0.0436888 0.0122737 1.6853e-18)
(-0.0413109 0.0125701 -5.14881e-23)
(-0.0499726 0.0140707 -1.43851e-18)
(-0.053309 0.0148405 -1.34235e-18)
(-0.0602381 0.0151774 -1.26633e-18)
(-0.0651916 0.0157237 2.4e-18)
(-0.0711553 0.0162753 -5.29009e-23)
(-0.0764381 0.0170589 1.09604e-18)
(-0.0821102 0.0175299 0)
(-0.0875822 0.0176266 1.00946e-18)
(-0.0930567 0.0172463 0)
(-0.0982147 0.0165717 -9.34498e-19)
(-0.103056 0.0156658 -4.51274e-19)
(-0.107463 0.0146073 -4.37237e-19)
(-0.111415 0.0134101 -2.63813e-24)
(-0.114843 0.012079 -4.14717e-19)
(-0.11772 0.0105996 4.05946e-19)
(-0.12 0.00897989 0)
(-0.121643 0.00722678 -1.9636e-19)
(-0.1226 0.00535447 0)
(-0.122824 0.0033766 0)
(-0.122265 0.00130824 -9.56195e-20)
(-0.120866 -0.000834272 0)
(-0.118566 -0.0030316 0)
(-0.115299 -0.00526124 9.51751e-20)
(-0.111 -0.0074966 0)
(-0.1056 -0.00970751 0)
(-0.0990324 -0.0118597 1.93508e-19)
(-0.0912234 -0.0139171 0)
(-0.0821042 -0.015838 -3.95444e-19)
(-0.0715948 -0.0175819 0)
(-0.059631 -0.0190979 4.06202e-19)
(-0.0461145 -0.020343 0)
(-0.0310023 -0.0212543 0)
(-0.0141443 -0.0217873 0)
(0.00443222 -0.0218691 0)
(0.0250159 -0.0214439 8.79918e-19)
(0.0474114 -0.0204435 0)
(0.0721833 -0.0188107 -1.80786e-18)
(0.0988038 -0.0164358 9.14348e-19)
(0.128411 -0.0133463 -9.22627e-19)
(0.1596 -0.00924811 9.26522e-19)
(0.194999 -0.00437646 9.31779e-19)
(0.231017 0.00188275 0)
(0.27393 0.00885059 9.20941e-19)
(0.314631 0.0178413 2.66985e-18)
(0.36855 0.0272287 -1.75872e-18)
(0.412552 0.0397152 1.60848e-18)
(0.48521 0.0519599 1.60908e-18)
(0.527856 0.0686438 0)
(0.637629 0.0848915 -1.37374e-18)
(0.66718 0.102281 -8.3871e-19)
(0.861939 0.121629 0)
(0.938054 0.0757268 3.37052e-19)
(0.639971 0.0639177 0)
(0.377901 0.0305272 1.21645e-22)
(0.1026 0.0332413 -4.31978e-21)
(0.0156018 0.0084378 -4.34133e-18)
(-0.0427598 0.0150825 -8.32366e-18)
(-0.027105 0.00790743 7.39305e-18)
(-0.0422471 0.0124479 -1.68218e-18)
(-0.0396639 0.0126719 1.53524e-18)
(-0.0481042 0.0142995 0)
(-0.0512462 0.015066 -4.08959e-23)
(-0.058022 0.0154508 0)
(-0.0628536 0.0159908 -2.36576e-18)
(-0.0686584 0.0165549 1.12733e-18)
(-0.0737227 0.0173371 0)
(-0.0791189 0.0178156 0)
(-0.0842978 0.0179106 -9.9023e-19)
(-0.0894926 0.0175225 0)
(-0.0943961 0.0168293 9.15128e-19)
(-0.0990059 0.0158994 4.41572e-19)
(-0.103196 0.0148116 -1.24216e-24)
(-0.106944 0.0135807 -4.15353e-19)
(-0.110177 0.0122118 -4.04915e-19)
(-0.112866 0.0106912 0)
(-0.114968 0.00902635 0)
(-0.116438 0.00722394 1.91409e-19)
(-0.117231 0.00529797 0)
(-0.117298 0.00326193 9.36457e-20)
(-0.116588 0.00113054 -9.30508e-20)
(-0.115047 -0.00108034 2.31536e-20)
(-0.112611 -0.00335162 -2.31064e-20)
(-0.109217 -0.00566073 9.24717e-20)
(-0.104801 -0.00798094 -9.27404e-20)
(-0.0992946 -0.0102819 1.86442e-19)
(-0.0926302 -0.0125292 -1.87869e-19)
(-0.084736 -0.0146865 0)
(-0.0755435 -0.0167116 0)
(-0.0649733 -0.0185637 0)
(-0.0529616 -0.0201916 -1.76198e-22)
(-0.0394104 -0.0215513 3.9936e-19)
(-0.0242769 -0.0225809 0)
(-0.00741172 -0.0232329 0)
(0.0111618 -0.0234375 0)
(0.0317235 -0.0231345 0)
(0.0540963 -0.0222598 0)
(0.0788154 -0.0207512 7.53879e-22)
(0.105393 -0.0185063 0)
(0.13491 -0.0155372 1.77612e-18)
(0.166046 -0.0115745 -1.78153e-18)
(0.201311 -0.00681633 -8.92714e-19)
(0.237286 -0.000706131 0)
(0.280003 0.00616197 0)
(0.320719 0.0149701 -1.69781e-18)
(0.374335 0.0242835 4.40312e-21)
(0.418504 0.0365096 -1.5213e-18)
(0.490641 0.0487218 1.51885e-18)
(0.53381 0.0649667 1.15411e-18)
(0.642525 0.0811912 -1.28508e-18)
(0.673388 0.0976742 7.7111e-19)
(0.864625 0.11655 1.00565e-18)
(0.942622 0.085913 1.31893e-19)
(0.679514 0.0706975 -3.48653e-18)
(0.429613 0.0385852 -7.55716e-18)
(0.153581 0.0366775 -4.94694e-21)
(0.0366423 0.0112305 4.25007e-18)
(-0.0376397 0.0158738 4.19107e-18)
(-0.0250184 0.0078497 -1.86234e-18)
(-0.0405404 0.0125915 0)
(-0.0377853 0.012731 0)
(-0.0460495 0.0144951 1.41716e-18)
(-0.0489962 0.0152594 1.31621e-18)
(-0.0556229 0.0156978 0)
(-0.0603276 0.0162307 1.1688e-18)
(-0.0659762 0.0168043 0)
(-0.0708267 0.0175804 0)
(-0.0759547 0.0180642 0)
(-0.0808449 0.0181579 0)
(-0.0857606 0.0177644 9.34456e-19)
(-0.0904072 0.0170555 4.49239e-19)
(-0.0947813 0.0161037 -4.33218e-19)
(-0.0987513 0.0149882 1.05468e-24)
(-0.10229 0.013725 0)
(-0.105323 0.0123194 3.96484e-19)
(-0.107822 0.0107588 0)
(-0.109739 0.00905001 0)
(-0.111034 0.00719943 1.87105e-19)
(-0.111658 0.00522097 -1.8473e-19)
(-0.111565 0.00312794 -9.14878e-20)
(-0.110702 0.000934712 9.08702e-20)
(-0.109014 -0.00134328 -4.51979e-20)
(-0.10644 -0.00368715 4.50881e-20)
(-0.102918 -0.00607426 -9.01981e-20)
(-0.098383 -0.00847778 9.04273e-20)
(-0.0927682 -0.0108672 -5.38223e-23)
(-0.0860069 -0.013208 -1.82932e-19)
(-0.0780275 -0.0154633 0)
(-0.0687626 -0.017591 0)
(-0.058133 -0.0195495 0)
(-0.0460757 -0.0212878 -7.65503e-19)
(-0.032493 -0.0227605 -3.88395e-19)
(-0.0173423 -0.0239067 0)
(-0.000475099 -0.0246764 0)
(0.0180892 -0.0250026 -8.11836e-19)
(0.0386215 -0.0248211 0)
(0.0609615 -0.0240714 0)
(0.0856184 -0.0226866 1.68772e-18)
(0.112139 -0.0205714 -8.51169e-19)
(0.141555 -0.017723 -1.71701e-18)
(0.17262 -0.0138965 1.04103e-21)
(0.207739 -0.00925284 1.72338e-18)
(0.243649 -0.0032937 8.51205e-19)
(0.28616 0.00347311 0)
(0.326859 0.0120943 8.15792e-19)
(0.380168 0.0213328 1.60964e-18)
(0.424461 0.0332895 1.45863e-18)
(0.496086 0.0454724 -1.45394e-18)
(0.539708 0.0612601 -1.10158e-18)
(0.647401 0.077479 1.22464e-18)
(0.679431 0.0930419 -3.61624e-19)
(0.867329 0.111585 -9.5506e-19)
(0.946467 0.0951236 1.24654e-19)
(0.713751 0.0774069 3.45659e-18)
(0.478951 0.0467152 3.65863e-21)
(0.206277 0.0409859 -5.65231e-21)
(0.0636918 0.0147282 0)
(-0.0286161 0.0168872 0)
(-0.0221409 0.00787315 2.54607e-22)
(-0.0384994 0.0127118 0)
(-0.0356446 0.0127499 0)
(-0.0437911 0.0146583 5.02277e-23)
(-0.0465475 0.015421 0)
(-0.0530323 0.0159184 0)
(-0.057607 0.0164437 1.15752e-18)
(-0.0631032 0.0170244 0)
(-0.0677458 0.0177898 0)
(-0.0726136 0.0182766 0)
(-0.0772199 0.0183692 0)
(-0.0818578 0.0179724 2.07909e-23)
(-0.0862456 0.0172502 -4.42063e-19)
(-0.0903803 0.0162787 8.52026e-19)
(-0.0941257 0.0151372 2.45605e-24)
(-0.0974506 0.0138429 3.99668e-19)
(-0.10028 0.0124019 0)
(-0.102583 0.0108023 3.80286e-19)
(-0.104313 0.00905066 0)
(-0.105428 0.00715303 -1.83425e-19)
(-0.10588 0.00512319 2.34508e-23)
(-0.105622 0.00297433 0)
(-0.104602 0.000720447 0)
(-0.102765 -0.0016234 4.40186e-24)
(-0.100051 -0.00403851 -4.87034e-24)
(-0.0963981 -0.00650216 4.40986e-20)
(-0.0917423 -0.00898743 0)
(-0.0860179 -0.0114637 -1.77622e-19)
(-0.0791588 -0.0138962 1.788e-19)
(-0.0710941 -0.0162479 0)
(-0.0617571 -0.0184764 -3.64277e-19)
(-0.0510693 -0.0205395 0)
(-0.0389685 -0.0223863 1.43544e-22)
(-0.0253572 -0.0239703 0)
(-0.010193 -0.0252316 3.84304e-19)
(0.00667154 -0.0261177 3.89937e-19)
(0.0252205 -0.0265641 4.25055e-22)
(0.0457165 -0.0265031 -8.0128e-19)
(0.0680141 -0.0258776 0)
(0.0925997 -0.0246158 -6.19739e-22)
(0.119051 -0.0226301 8.27736e-19)
(0.148355 -0.0199024 8.16363e-22)
(0.179331 -0.0162124 8.34747e-19)
(0.214294 -0.0116842 -1.08341e-21)
(0.250117 -0.00587766 -1.2833e-21)
(0.292412 0.000786243 0)
(0.333066 0.00921714 0)
(0.386062 0.0183791 0)
(0.430438 0.0300594 0)
(0.501558 0.0422142 0)
(0.545568 0.0575309 1.04468e-18)
(0.652271 0.0737572 0)
(0.685337 0.0883945 0)
(0.870064 0.106725 -9.00168e-19)
(0.94976 0.103472 -4.88456e-19)
(0.743301 0.0839307 0)
(0.525374 0.0548106 5.14969e-21)
(0.259696 0.046061 -6.37897e-21)
(0.0961467 0.0189826 0)
(-0.0143456 0.0181713 2.0767e-18)
(-0.0180587 0.008065 -1.90065e-18)
(-0.0360136 0.0128229 0)
(-0.0331959 0.0127322 0)
(-0.0413027 0.0147902 -1.41003e-18)
(-0.0438829 0.0155511 0)
(-0.0502371 0.0161127 0)
(-0.0546815 0.0166301 -1.1487e-18)
(-0.0600306 0.0172156 0)
(-0.0644723 0.0179665 -1.03788e-18)
(-0.0690889 0.0184538 0)
(-0.073417 0.0185452 0)
(-0.0777791 0.0181469 1.84497e-23)
(-0.0819065 0.0174136 0)
(-0.0857988 0.0164243 -4.19828e-19)
(-0.0893156 0.0152583 4.05674e-19)
(-0.0924231 0.0139343 -7.86825e-19)
(-0.0950444 0.0124589 3.82881e-19)
(-0.0971481 0.0108216 -3.73982e-19)
(-0.0986865 0.00902806 0)
(-0.0996176 0.00708446 -1.80207e-19)
(-0.0998932 0.00500435 3.55602e-19)
(-0.0994668 0.0028008 0)
(-0.0982867 0.000487431 -4.36553e-20)
(-0.0962978 -0.00192104 2.17048e-20)
(-0.0934406 -0.00440601 -2.1638e-20)
(-0.089654 -0.00694474 -4.3254e-20)
(-0.0848756 -0.00951022 0)
(-0.07904 -0.0120717 -1.74035e-19)
(-0.072082 -0.0145943 1.75138e-19)
(-0.0639316 -0.0170406 0)
(-0.0545229 -0.0193681 3.56845e-19)
(-0.043778 -0.021534 0)
(-0.0316353 -0.0234875 3.65623e-19)
(-0.0179981 -0.0251811 0)
(-0.00282388 -0.0265556 -3.7599e-19)
(0.0140333 -0.0275567 -3.81291e-19)
(0.0325611 -0.0281217 3.85246e-22)
(0.053014 -0.0281801 7.82987e-19)
(0.07526 -0.0276777 0)
(0.0997654 -0.0265381 -8.00833e-19)
(0.126135 -0.0246812 0)
(0.155316 -0.0220741 8.12486e-19)
(0.186189 -0.0185209 0)
(0.220983 -0.0141089 -8.12619e-19)
(0.256699 -0.00845616 -1.6019e-18)
(0.298768 -0.00189678 0)
(0.33935 0.00634105 0)
(0.392027 0.0154246 0)
(0.436447 0.0268227 6.73956e-19)
(0.507067 0.0389496 0)
(0.551406 0.0537844 -5.79549e-21)
(0.657146 0.070028 0)
(0.691127 0.0837397 3.1097e-19)
(0.872838 0.101963 8.65262e-19)
(0.952638 0.111062 0)
(0.768743 0.0901901 3.25697e-18)
(0.568522 0.0627716 3.60802e-18)
(0.31297 0.0517675 -7.07473e-21)
(0.133259 0.0239417 0)
(0.00552538 0.0198528 -2.04662e-18)
(-0.0121863 0.00851881 0)
(-0.0329083 0.0129499 1.71823e-18)
(-0.0303733 0.0126837 1.54202e-18)
(-0.0385471 0.0148925 1.41164e-18)
(-0.0409783 0.01565 1.30082e-18)
(-0.0472195 0.0162805 1.2154e-18)
(-0.0515368 0.0167899 0)
(-0.0567462 0.0173788 0)
(-0.0609956 0.0181113 1.0291e-18)
(-0.0653711 0.0185967 0)
(-0.069428 0.0186865 0)
(-0.0735171 0.0182881 -8.97837e-19)
(-0.0773835 0.0175456 0)
(-0.0810309 0.0165405 -4.14554e-19)
(-0.0843158 0.0153514 0)
(-0.0872021 0.013999 3.88041e-19)
(-0.0896115 0.0124904 -3.7748e-19)
(-0.0915117 0.0108163 0)
(-0.0928545 0.00898198 0)
(-0.0935979 0.00699346 1.78064e-23)
(-0.0936936 0.00486418 -1.7503e-19)
(-0.0930953 0.00260705 0)
(-0.0917517 0.000235349 4.2951e-20)
(-0.0896074 -0.00223651 2.1341e-20)
(-0.0866043 -0.00479001 -2.1269e-20)
(-0.082682 -0.00740235 0)
(-0.0777789 -0.0100465 0)
(-0.0718307 -0.0126916 4.24182e-23)
(-0.0647729 -0.0153024 -4.5139e-23)
(-0.0565364 -0.0178415 0)
(-0.0470561 -0.0202662 0)
(-0.0362549 -0.022533 3.54204e-19)
(-0.0240722 -0.0245914 0)
(-0.0104115 -0.0263927 0)
(0.00476945 -0.0278788 0)
(0.0216148 -0.0289931 0)
(0.0401156 -0.0296753 7.57134e-19)
(0.0605187 -0.0298517 7.66472e-19)
(0.0827045 -0.0294713 0)
(0.107121 -0.0284531 0)
(0.133396 -0.0267241 7.888e-19)
(0.162445 -0.0242375 0)
(0.193199 -0.0208209 0)
(0.227813 -0.0165257 -7.92197e-19)