/*--------------------------------*- C++ -*----------------------------------*\
| =========                 |                                                 |
| \\      /  F ield         | OpenFOAM: The Open Source CFD Toolbox           |
|  \\    /   O peration     | Version:  2.4.0                                 |
|   \\  /    A nd           | Web:      www.OpenFOAM.org                      |
|    \\/     M anipulation  |                                                 |
\*---------------------------------------------------------------------------*/
FoamFile
{
    version     2.0;
    format      ascii;
    class       volScalarField;
    location    "0.8";
    object      nut;
}
// * * * * * * * * * * * * * * * * * * * * * * * * * * * * * * * * * * * * * //

dimensions      [0 2 -1 0 0 0 0];

internalField   nonuniform List<scalar> 
6000
(
1.40163e-05
7.47985e-06
3.24693e-06
3.98998e-06
4.40329e-06
5.9346e-06
7.38496e-06
8.22461e-06
8.58012e-06
8.34894e-06
7.71048e-06
7.04677e-06
6.31796e-06
5.65042e-06
5.16415e-06
5.01282e-06
5.66394e-06
6.64476e-06
7.53549e-06
8.31567e-06
8.9794e-06
9.52825e-06
9.9703e-06
1.03211e-05
1.05981e-05
1.08186e-05
1.09956e-05
1.11388e-05
1.12504e-05
1.1336e-05
1.14044e-05
1.14617e-05
1.15061e-05
1.15429e-05
1.15663e-05
1.15869e-05
1.15955e-05
1.16054e-05
1.15997e-05
1.16056e-05
1.1588e-05
1.15922e-05
1.15643e-05
1.15687e-05
1.15334e-05
1.1539e-05
1.14957e-05
1.15046e-05
1.1453e-05
1.14699e-05
1.14056e-05
1.14399e-05
1.13543e-05
1.1412e-05
1.12983e-05
1.13962e-05
1.12374e-05
1.13879e-05
1.11602e-05
1.16252e-05
2.13869e-05
1.36535e-05
6.4505e-06
1.07913e-05
6.67767e-06
4.97926e-06
5.44349e-06
6.02088e-06
7.23078e-06
9.39506e-06
1.17781e-05
1.4183e-05
1.65719e-05
1.85197e-05
1.93732e-05
1.87243e-05
1.74249e-05
1.6261e-05
1.5586e-05
1.54119e-05
1.55753e-05
1.59556e-05
1.64012e-05
1.66503e-05
1.66805e-05
1.65782e-05
1.65125e-05
1.63972e-05
1.62169e-05
1.60356e-05
1.58239e-05
1.55988e-05
1.53471e-05
1.51511e-05
1.485e-05
1.46535e-05
1.44177e-05
1.4218e-05
1.3975e-05
1.37625e-05
1.35344e-05
1.32744e-05
1.3061e-05
1.27714e-05
1.2564e-05
1.22419e-05
1.20312e-05
1.1689e-05
1.14916e-05
1.11231e-05
1.09523e-05
1.05471e-05
1.03574e-05
9.98617e-06
9.81537e-06
9.41792e-06
9.33537e-06
8.94416e-06
8.91361e-06
8.33809e-06
3.06104e-05
2.04447e-05
1.24391e-05
2.27687e-05
1.58347e-05
9.51151e-06
1.03061e-05
1.40944e-05
1.88723e-05
2.41845e-05
2.75114e-05
2.97818e-05
3.11529e-05
3.17637e-05
3.14733e-05
3.04677e-05
2.9008e-05
2.72724e-05
2.55622e-05
2.40986e-05
2.29604e-05
2.21722e-05
2.18187e-05
2.17802e-05
2.16321e-05
2.13691e-05
2.11798e-05
2.0943e-05
2.07089e-05
2.04878e-05
2.02521e-05
2.00165e-05
1.97437e-05
1.9537e-05
1.9248e-05
1.89974e-05
1.86148e-05
1.83713e-05
1.81063e-05
1.78082e-05
1.75312e-05
1.71663e-05
1.68333e-05
1.64236e-05
1.60341e-05
1.55708e-05
1.51202e-05
1.46075e-05
1.41085e-05
1.35488e-05
1.30144e-05
1.24009e-05
1.18481e-05
1.11857e-05
1.06336e-05
9.94896e-06
9.39098e-06
8.7237e-06
8.17502e-06
7.33255e-06
3.47993e-05
2.65419e-05
1.78941e-05
3.19976e-05
3.29827e-05
1.79928e-05
2.02588e-05
2.62965e-05
3.14029e-05
3.52856e-05
3.6927e-05
3.77655e-05
3.82224e-05
3.83032e-05
3.79866e-05
3.73252e-05
3.63386e-05
3.50799e-05
3.34928e-05
3.17089e-05
2.99452e-05
2.86096e-05
2.77002e-05
2.70137e-05
2.64969e-05
2.6114e-05
2.58038e-05
2.55279e-05
2.53149e-05
2.51375e-05
2.49749e-05
2.48212e-05
2.46277e-05
2.44882e-05
2.43387e-05
2.41577e-05
2.38421e-05
2.35846e-05
2.33988e-05
2.31358e-05
2.2887e-05
2.25806e-05
2.2241e-05
2.18582e-05
2.14263e-05
2.09641e-05
2.04332e-05
1.98776e-05
1.92544e-05
1.85844e-05
1.78881e-05
1.7107e-05
1.63085e-05
1.54503e-05
1.45179e-05
1.35585e-05
1.25375e-05
1.15243e-05
1.04547e-05
9.49872e-06
3.66871e-05
3.07045e-05
2.25024e-05
3.73326e-05
5.07851e-05
3.11105e-05
3.18108e-05
3.62835e-05
3.90693e-05
4.11873e-05
4.15456e-05
4.1398e-05
4.10285e-05
4.07483e-05
4.05695e-05
4.01012e-05
3.93314e-05
3.82996e-05
3.69695e-05
3.54624e-05
3.39587e-05
3.26483e-05
3.15839e-05
3.07422e-05
3.01549e-05
2.97311e-05
2.94143e-05
2.91736e-05
2.89916e-05
2.88508e-05
2.87434e-05
2.86475e-05
2.85213e-05
2.84399e-05
2.83796e-05
2.82644e-05
2.80651e-05
2.78946e-05
2.77833e-05
2.76324e-05
2.747e-05
2.7283e-05
2.70559e-05
2.68084e-05
2.65038e-05
2.6187e-05
2.58076e-05
2.54017e-05
2.49307e-05
2.44148e-05
2.3821e-05
2.31722e-05
2.24324e-05
2.1634e-05
2.07264e-05
1.97628e-05
1.87235e-05
1.75909e-05
1.63505e-05
1.57679e-05
3.75206e-05
3.34946e-05
2.61857e-05
4.14044e-05
6.44307e-05
4.56228e-05
4.2507e-05
4.38656e-05
4.391e-05
4.4378e-05
4.36318e-05
4.28206e-05
4.19721e-05
4.13186e-05
4.09421e-05
4.07299e-05
4.0099e-05
3.91562e-05
3.79469e-05
3.65952e-05
3.52497e-05
3.40441e-05
3.30713e-05
3.23425e-05
3.18068e-05
3.14272e-05
3.11692e-05
3.09859e-05
3.08436e-05
3.07406e-05
3.06722e-05
3.06087e-05
3.05268e-05
3.04802e-05
3.04512e-05
3.03686e-05
3.0268e-05
3.01923e-05
3.01386e-05
3.00712e-05
2.99923e-05
2.99058e-05
2.97966e-05
2.96829e-05
2.95396e-05
2.93918e-05
2.92191e-05
2.90261e-05
2.88114e-05
2.85298e-05
2.82454e-05
2.78414e-05
2.74745e-05
2.69143e-05
2.64498e-05
2.56997e-05
2.51254e-05
2.42207e-05
2.33187e-05
2.34036e-05
3.78766e-05
3.51123e-05
2.89414e-05
4.46273e-05
7.46013e-05
5.79783e-05
5.09584e-05
4.89366e-05
4.71333e-05
4.674e-05
4.50324e-05
4.35474e-05
4.22087e-05
4.12573e-05
4.06523e-05
4.03194e-05
3.99657e-05
3.9217e-05
3.81227e-05
3.68299e-05
3.55462e-05
3.43891e-05
3.34571e-05
3.27794e-05
3.22865e-05
3.19517e-05
3.17415e-05
3.1597e-05
3.14893e-05
3.14224e-05
3.13848e-05
3.13431e-05
3.12918e-05
3.12592e-05
3.12289e-05
3.11836e-05
3.11524e-05
3.1128e-05
3.11052e-05
3.10799e-05
3.10465e-05
3.10152e-05
3.09854e-05
3.09571e-05
3.09387e-05
3.08884e-05
3.0871e-05
3.07909e-05
3.07643e-05
3.06484e-05
3.06061e-05
3.04422e-05
3.03755e-05
3.01388e-05
3.0047e-05
2.9715e-05
2.95631e-05
2.92845e-05
2.89376e-05
2.96907e-05
3.8009e-05
3.60652e-05
3.08997e-05
4.70646e-05
8.19741e-05
6.97226e-05
5.80287e-05
5.33708e-05
5.06357e-05
4.93283e-05
4.66424e-05
4.43145e-05
4.24051e-05
4.10645e-05
4.02358e-05
3.97061e-05
3.95343e-05
3.89962e-05
3.80945e-05
3.69158e-05
3.56441e-05
3.44694e-05
3.35403e-05
3.28812e-05
3.2397e-05
3.20757e-05
3.18845e-05
3.17591e-05
3.16701e-05
3.16272e-05
3.1609e-05
3.15787e-05
3.15379e-05
3.1505e-05
3.14883e-05
3.14793e-05
3.14713e-05
3.14627e-05
3.14529e-05
3.14462e-05
3.14445e-05
3.14438e-05
3.1461e-05
3.1458e-05
3.14842e-05
3.14819e-05
3.15224e-05
3.15222e-05
3.15783e-05
3.15776e-05
3.16538e-05
3.16508e-05
3.17538e-05
3.17454e-05
3.18973e-05
3.18888e-05
3.20801e-05
3.22687e-05
3.24685e-05
3.38568e-05
3.80506e-05
3.64366e-05
3.21527e-05
4.86867e-05
8.71244e-05
8.13465e-05
6.5349e-05
5.83489e-05
5.49152e-05
5.27263e-05
4.89435e-05
4.5472e-05
4.28062e-05
4.10102e-05
3.98553e-05
3.92781e-05
3.89416e-05
3.86763e-05
3.79564e-05
3.68975e-05
3.56949e-05
3.45437e-05
3.35974e-05
3.29154e-05
3.2426e-05
3.21087e-05
3.19191e-05
3.18008e-05
3.17193e-05
3.16882e-05
3.16792e-05
3.16487e-05
3.16078e-05
3.15914e-05
3.15882e-05
3.15848e-05
3.15815e-05
3.15798e-05
3.15827e-05
3.15873e-05
3.16024e-05
3.16083e-05
3.16339e-05
3.16481e-05
3.16898e-05
3.17118e-05
3.17738e-05
3.18089e-05
3.19012e-05
3.19531e-05
3.20869e-05
3.21625e-05
3.23559e-05
3.24684e-05
3.27646e-05
3.29429e-05
3.33794e-05
3.38098e-05
3.44435e-05
3.63549e-05
3.80615e-05
3.66314e-05
3.28621e-05
4.95231e-05
9.04253e-05
9.25963e-05
7.33793e-05
6.41694e-05
6.02084e-05
5.72005e-05
5.22132e-05
4.72518e-05
4.34973e-05
4.11272e-05
3.96143e-05
3.88025e-05
3.84242e-05
3.82819e-05
3.77753e-05
3.6864e-05
3.57221e-05
3.45898e-05
3.36468e-05
3.29614e-05
3.24609e-05
3.21264e-05
3.19298e-05
3.18145e-05
3.17371e-05
3.17097e-05
3.17014e-05
3.16689e-05
3.16338e-05
3.16269e-05
3.16253e-05
3.1624e-05
3.16246e-05
3.16282e-05
3.16388e-05
3.16452e-05
3.16624e-05
3.16737e-05
3.1702e-05
3.17224e-05
3.1769e-05
3.18003e-05
3.18703e-05
3.19187e-05
3.20252e-05
3.20982e-05
3.22569e-05
3.23662e-05
3.26021e-05
3.27704e-05
3.31389e-05
3.34135e-05
3.39843e-05
3.45783e-05
3.54297e-05
3.76953e-05
3.80654e-05
3.65743e-05
3.31297e-05
4.97673e-05
9.18526e-05
0.000103133
8.23165e-05
7.09656e-05
6.65381e-05
6.27719e-05
5.65661e-05
4.98794e-05
4.45981e-05
4.1396e-05
3.94979e-05
3.84021e-05
3.7996e-05
3.78119e-05
3.75386e-05
3.67937e-05
3.57424e-05
3.46401e-05
3.3697e-05
3.29982e-05
3.2491e-05
3.21465e-05
3.1941e-05
3.18264e-05
3.17523e-05
3.17201e-05
3.17073e-05
3.1676e-05
3.16474e-05
3.1643e-05
3.16424e-05
3.16425e-05
3.16463e-05
3.16517e-05
3.16635e-05
3.16713e-05
3.16893e-05
3.17024e-05
3.17315e-05
3.17538e-05
3.18015e-05
3.18361e-05
3.19088e-05
3.19623e-05
3.20737e-05
3.21553e-05
3.23237e-05
3.24477e-05
3.27021e-05
3.28958e-05
3.32984e-05
3.36175e-05
3.42623e-05
3.49157e-05
3.59112e-05
3.83862e-05
3.80728e-05
3.63998e-05
3.29247e-05
4.95739e-05
9.16848e-05
0.00011228
9.21384e-05
7.87469e-05
7.37664e-05
6.9238e-05
6.18861e-05
5.34977e-05
4.63245e-05
4.18558e-05
3.94611e-05
3.80931e-05
3.75122e-05
3.73326e-05
3.72503e-05
3.66889e-05
3.57455e-05
3.46864e-05
3.37473e-05
3.30353e-05
3.25207e-05
3.21641e-05
3.19486e-05
3.18344e-05
3.17659e-05
3.17289e-05
3.171e-05
3.16797e-05
3.1656e-05
3.16532e-05
3.1653e-05
3.16537e-05
3.1658e-05
3.16639e-05
3.16761e-05
3.16846e-05
3.17028e-05
3.17164e-05
3.17454e-05
3.17682e-05
3.18159e-05
3.18513e-05
3.19246e-05
3.19795e-05
3.20928e-05
3.21771e-05
3.23499e-05
3.24792e-05
3.27428e-05
3.29466e-05
3.33655e-05
3.37049e-05
3.4384e-05
3.50734e-05
3.6129e-05
3.87097e-05
3.80913e-05
3.61665e-05
3.27238e-05
4.8849e-05
9.03559e-05
0.000119495
0.00010262
8.74285e-05
8.16591e-05
7.62363e-05
6.77937e-05
5.79915e-05
4.88934e-05
4.26655e-05
3.94748e-05
3.78543e-05
3.70698e-05
3.69179e-05
3.69133e-05
3.65464e-05
3.5728e-05
3.47257e-05
3.3795e-05
3.30724e-05
3.2551e-05
3.21825e-05
3.19574e-05
3.18422e-05
3.17767e-05
3.17337e-05
3.17109e-05
3.16818e-05
3.16608e-05
3.16589e-05
3.16588e-05
3.16596e-05
3.16639e-05
3.16703e-05
3.16832e-05
3.16921e-05
3.17105e-05
3.17244e-05
3.17532e-05
3.1776e-05
3.18231e-05
3.18586e-05
3.19315e-05
3.19869e-05
3.21003e-05
3.21858e-05
3.23603e-05
3.24923e-05
3.27599e-05
3.29685e-05
3.33949e-05
3.3743e-05
3.44359e-05
3.51478e-05
3.6227e-05
3.88518e-05
3.81228e-05
3.59241e-05
3.23366e-05
4.75005e-05
8.80584e-05
0.000124477
0.000113328
9.68255e-05
8.99658e-05
8.33633e-05
7.37586e-05
6.29107e-05
5.23067e-05
4.4067e-05
3.95942e-05
3.76331e-05
3.66904e-05
3.64489e-05
3.65184e-05
3.63614e-05
3.5687e-05
3.47558e-05
3.38401e-05
3.31107e-05
3.25807e-05
3.22033e-05
3.1969e-05
3.18514e-05
3.17847e-05
3.17365e-05
3.17091e-05
3.16814e-05
3.1663e-05
3.16615e-05
3.16616e-05
3.16624e-05
3.16667e-05
3.16735e-05
3.16869e-05
3.16961e-05
3.1715e-05
3.1729e-05
3.17579e-05
3.17806e-05
3.18272e-05
3.18625e-05
3.19349e-05
3.19901e-05
3.21034e-05
3.21892e-05
3.23646e-05
3.24977e-05
3.27679e-05
3.29787e-05
3.34093e-05
3.37611e-05
3.44587e-05
3.51844e-05
3.62702e-05
3.89026e-05
3.81641e-05
3.56886e-05
3.18992e-05
4.632e-05
8.49913e-05
0.000127073
0.000123897
0.000106651
9.8462e-05
9.02758e-05
7.92808e-05
6.76232e-05
5.61903e-05
4.62149e-05
3.99901e-05
3.73916e-05
3.63524e-05
3.5998e-05
3.61078e-05
3.61348e-05
3.56211e-05
3.47751e-05
3.38826e-05
3.31498e-05
3.26101e-05
3.22264e-05
3.19841e-05
3.18618e-05
3.17901e-05
3.17382e-05
3.17061e-05
3.16802e-05
3.1665e-05
3.1664e-05
3.16641e-05
3.16649e-05
3.16687e-05
3.16753e-05
3.16884e-05
3.16977e-05
3.17168e-05
3.17311e-05
3.17603e-05
3.17829e-05
3.18294e-05
3.18645e-05
3.19365e-05
3.19915e-05
3.21047e-05
3.21907e-05
3.23669e-05
3.25007e-05
3.27726e-05
3.29843e-05
3.34175e-05
3.37708e-05
3.44706e-05
3.5202e-05
3.62881e-05
3.89113e-05
3.82095e-05
3.54988e-05
3.14126e-05
4.5239e-05
8.07346e-05
0.00012794
0.000133402
0.000116546
0.000106939
9.67316e-05
8.40046e-05
7.15658e-05
5.98911e-05
4.89632e-05
4.08754e-05
3.71725e-05
3.59995e-05
3.55862e-05
3.57203e-05
3.58726e-05
3.55314e-05
3.4782e-05
3.39222e-05
3.31887e-05
3.264e-05
3.22506e-05
3.20024e-05
3.18723e-05
3.17945e-05
3.17389e-05
3.17037e-05
3.16791e-05
3.16666e-05
3.16658e-05
3.16658e-05
3.16665e-05
3.16697e-05
3.16758e-05
3.16884e-05
3.16977e-05
3.17167e-05
3.17311e-05
3.17606e-05
3.17833e-05
3.18298e-05
3.18649e-05
3.19369e-05
3.19918e-05
3.21052e-05
3.21913e-05
3.23682e-05
3.25023e-05
3.27754e-05
3.29878e-05
3.34229e-05
3.37769e-05
3.44779e-05
3.52122e-05
3.62949e-05
3.89005e-05
3.82589e-05
3.53232e-05
3.08746e-05
4.39161e-05
7.61976e-05
0.000127406
0.00014115
0.00012609
0.000115196
0.00010258
8.77354e-05
7.43804e-05
6.2755e-05
5.18159e-05
4.23347e-05
3.71192e-05
3.55808e-05
3.52075e-05
3.5301e-05
3.55726e-05
3.54146e-05
3.47746e-05
3.39572e-05
3.32264e-05
3.26708e-05
3.22748e-05
3.20222e-05
3.18823e-05
3.17986e-05
3.17397e-05
3.17013e-05
3.16784e-05
3.16681e-05
3.16676e-05
3.16677e-05
3.16682e-05
3.16708e-05
3.16761e-05
3.16873e-05
3.16963e-05
3.1715e-05
3.17295e-05
3.17591e-05
3.17819e-05
3.18287e-05
3.18639e-05
3.1936e-05
3.1991e-05
3.21047e-05
3.21911e-05
3.23686e-05
3.2503e-05
3.27772e-05
3.299e-05
3.34268e-05
3.37812e-05
3.44828e-05
3.52193e-05
3.62969e-05
3.88813e-05
3.83056e-05
3.52412e-05
3.03105e-05
4.27021e-05
7.15309e-05
0.000125622
0.000146646
0.000134923
0.000123034
0.000107729
9.04007e-05
7.59239e-05
6.40069e-05
5.40528e-05
4.41864e-05
3.74037e-05
3.51035e-05
3.48267e-05
3.4896e-05
3.52444e-05
3.52694e-05
3.47514e-05
3.39859e-05
3.32628e-05
3.27019e-05
3.22989e-05
3.20414e-05
3.18911e-05
3.18028e-05
3.17415e-05
3.16999e-05
3.16773e-05
3.1668e-05
3.16676e-05
3.16677e-05
3.16682e-05
3.16703e-05
3.16746e-05
3.16844e-05
3.16933e-05
3.17119e-05
3.17265e-05
3.17563e-05
3.17793e-05
3.18264e-05
3.18617e-05
3.19342e-05
3.19893e-05
3.21035e-05
3.219e-05
3.23682e-05
3.25028e-05
3.2778e-05
3.29912e-05
3.34296e-05
3.37843e-05
3.44865e-05
3.52249e-05
3.62968e-05
3.88589e-05
3.83452e-05
3.52179e-05
2.97262e-05
4.16943e-05
6.63693e-05
0.000123208
0.000149353
0.000142826
0.000130242
0.000112112
9.20012e-05
7.58904e-05
6.4242e-05
5.48917e-05
4.6014e-05
3.80892e-05
3.46775e-05
3.43541e-05
3.45148e-05
3.49239e-05
3.50993e-05
3.47119e-05
3.40075e-05
3.32978e-05
3.27318e-05
3.2323e-05
3.20583e-05
3.18994e-05
3.18069e-05
3.1745e-05
3.17024e-05
3.1677e-05
3.16658e-05
3.16651e-05
3.16653e-05
3.16658e-05
3.16678e-05
3.16718e-05
3.16808e-05
3.16896e-05
3.17082e-05
3.17229e-05
3.17529e-05
3.17759e-05
3.18232e-05
3.18586e-05
3.19316e-05
3.19869e-05
3.21016e-05
3.21884e-05
3.23671e-05
3.25019e-05
3.27779e-05
3.29915e-05
3.34316e-05
3.37866e-05
3.44892e-05
3.52296e-05
3.62956e-05
3.88355e-05
3.83788e-05
3.52149e-05
2.91809e-05
4.061e-05
6.08262e-05
0.000120205
0.000148502
0.000149299
0.000136578
0.000115676
9.25827e-05
7.50833e-05
6.39298e-05
5.50292e-05
4.69454e-05
3.9038e-05
3.44666e-05
3.37022e-05
3.41628e-05
3.45804e-05
3.49028e-05
3.46564e-05
3.40222e-05
3.33304e-05
3.27608e-05
3.23469e-05
3.20735e-05
3.19066e-05
3.18114e-05
3.17514e-05
3.1707e-05
3.16771e-05
3.16631e-05
3.16618e-05
3.1662e-05
3.16625e-05
3.16644e-05
3.16684e-05
3.16774e-05
3.16862e-05
3.17049e-05
3.17194e-05
3.17494e-05
3.17723e-05
3.18197e-05
3.18553e-05
3.19287e-05
3.19842e-05
3.20995e-05
3.21864e-05
3.23656e-05
3.25005e-05
3.27772e-05
3.29911e-05
3.34328e-05
3.37881e-05
3.44912e-05
3.52336e-05
3.6294e-05
3.88122e-05
3.84013e-05
3.52827e-05
2.8702e-05
3.94449e-05
5.61266e-05
0.000115148
0.000145507
0.000153513
0.000141738
0.00011837
9.22271e-05
7.3851e-05
6.21496e-05
5.43891e-05
4.71386e-05
4.0022e-05
3.45119e-05
3.31133e-05
3.37239e-05
3.42374e-05
3.46809e-05
3.45851e-05
3.40297e-05
3.33602e-05
3.27895e-05
3.23708e-05
3.20873e-05
3.19127e-05
3.18167e-05
3.17592e-05
3.17132e-05
3.16786e-05
3.16616e-05
3.16595e-05
3.16597e-05
3.166e-05
3.16619e-05
3.16658e-05
3.1675e-05
3.16837e-05
3.17023e-05
3.17168e-05
3.17465e-05
3.17693e-05
3.18168e-05
3.18524e-05
3.19262e-05
3.19818e-05
3.20977e-05
3.21845e-05
3.23641e-05
3.2499e-05
3.27764e-05
3.29905e-05
3.34337e-05
3.37893e-05
3.44928e-05
3.52371e-05
3.62919e-05
3.87892e-05
3.84145e-05
3.53923e-05
2.83285e-05
3.82052e-05
5.22131e-05
0.0001099
0.000142281
0.000155035
0.000145337
0.000120179
9.09311e-05
7.10866e-05
5.95484e-05
5.25972e-05
4.6838e-05
4.0431e-05
3.47197e-05
3.26391e-05
3.31172e-05
3.39126e-05
3.44461e-05
3.44981e-05
3.40297e-05
3.33873e-05
3.28184e-05
3.23953e-05
3.21004e-05
3.19182e-05
3.18221e-05
3.17674e-05
3.172e-05
3.16815e-05
3.16608e-05
3.16577e-05
3.16578e-05
3.16581e-05
3.16599e-05
3.16638e-05
3.16731e-05
3.16818e-05
3.17005e-05
3.17149e-05
3.17446e-05
3.17673e-05
3.18148e-05
3.18504e-05
3.19246e-05
3.19802e-05
3.20964e-05
3.21833e-05
3.2363e-05
3.24978e-05
3.27757e-05
3.299e-05
3.34345e-05
3.37903e-05
3.44941e-05
3.52402e-05
3.62897e-05
3.87669e-05
3.84084e-05
3.55403e-05
2.80267e-05
3.68762e-05
4.88271e-05
0.000103603
0.000139081
0.000153512
0.00014693
0.000121181
8.92469e-05
6.7829e-05
5.64239e-05
5.0218e-05
4.56646e-05
4.0445e-05
3.50348e-05
3.22557e-05
3.25867e-05
3.36279e-05
3.41967e-05
3.43952e-05
3.40215e-05
3.34119e-05
3.28477e-05
3.24196e-05
3.21145e-05
3.19245e-05
3.18265e-05
3.1773e-05
3.17263e-05
3.16837e-05
3.16601e-05
3.16559e-05
3.16559e-05
3.16562e-05
3.16579e-05
3.16618e-05
3.16712e-05
3.168e-05
3.1699e-05
3.17135e-05
3.17435e-05
3.17662e-05
3.18138e-05
3.18495e-05
3.19239e-05
3.19795e-05
3.20961e-05
3.21827e-05
3.23627e-05
3.24973e-05
3.27754e-05
3.29898e-05
3.34356e-05
3.37914e-05
3.44953e-05
3.52431e-05
3.62874e-05
3.87454e-05
3.83994e-05
3.56965e-05
2.79766e-05
3.55201e-05
4.59153e-05
9.50866e-05
0.000135708
0.000149069
0.000146101
0.000121025
8.66822e-05
6.41308e-05
5.29029e-05
4.74828e-05
4.3926e-05
4.00785e-05
3.52518e-05
3.19861e-05
3.19883e-05
3.31705e-05
3.39469e-05
3.42771e-05
3.40045e-05
3.3434e-05
3.28769e-05
3.24436e-05
3.21303e-05
3.19329e-05
3.18309e-05
3.1774e-05
3.17283e-05
3.16849e-05
3.16596e-05
3.16546e-05
3.16546e-05
3.16547e-05
3.16563e-05
3.16603e-05
3.16696e-05
3.16785e-05
3.16978e-05
3.17124e-05
3.17429e-05
3.17656e-05
3.18136e-05
3.18493e-05
3.1924e-05
3.19796e-05
3.20962e-05
3.21827e-05
3.23626e-05
3.24972e-05
3.27757e-05
3.29901e-05
3.34368e-05
3.37927e-05
3.44966e-05
3.52458e-05
3.6285e-05
3.87246e-05
3.83792e-05
3.58568e-05
2.79646e-05
3.41404e-05
4.34234e-05
8.5798e-05
0.000132197
0.000143088
0.000142892
0.000119602
8.32897e-05
6.02527e-05
4.92023e-05
4.45721e-05
4.19086e-05
3.91583e-05
3.51038e-05
3.18016e-05
3.14343e-05
3.27298e-05
3.37201e-05
3.41439e-05
3.3978e-05
3.34529e-05
3.29055e-05
3.24676e-05
3.21471e-05
3.19429e-05
3.18357e-05
3.17733e-05
3.17279e-05
3.16856e-05
3.16596e-05
3.1654e-05
3.16539e-05
3.1654e-05
3.16555e-05
3.16594e-05
3.16688e-05
3.16776e-05
3.16969e-05
3.17117e-05
3.17424e-05
3.17653e-05
3.18137e-05
3.18495e-05
3.19246e-05
3.19801e-05
3.20968e-05
3.21832e-05
3.2363e-05
3.24974e-05
3.27762e-05
3.29907e-05
3.34384e-05
3.37943e-05
3.4498e-05
3.52485e-05
3.62828e-05
3.87047e-05
3.83475e-05
3.60105e-05
2.8073e-05
3.27555e-05
4.12932e-05
7.6676e-05
0.000128554
0.000137218
0.000137859
0.000116407
7.93552e-05
5.64605e-05
4.55706e-05
4.16278e-05
3.98061e-05
3.7896e-05
3.493e-05
3.17067e-05
3.09381e-05
3.22446e-05
3.34889e-05
3.40012e-05
3.3942e-05
3.34678e-05
3.29328e-05
3.24916e-05
3.21645e-05
3.19537e-05
3.18413e-05
3.17715e-05
3.17269e-05
3.16861e-05
3.166e-05
3.1654e-05
3.16539e-05
3.16539e-05
3.16554e-05
3.16592e-05
3.16685e-05
3.16772e-05
3.16965e-05
3.17113e-05
3.17423e-05
3.17652e-05
3.1814e-05
3.18498e-05
3.19251e-05
3.19806e-05
3.20973e-05
3.21835e-05
3.23634e-05
3.24977e-05
3.27769e-05
3.29915e-05
3.34401e-05
3.37959e-05
3.44995e-05
3.52511e-05
3.62806e-05
3.86856e-05
3.83109e-05
3.61395e-05
2.83598e-05
3.1402e-05
3.94959e-05
6.7834e-05
0.000122432
0.000131669
0.000131713
0.000111381
7.48595e-05
5.29505e-05
4.22934e-05
3.87896e-05
3.77448e-05
3.64797e-05
3.44265e-05
3.16566e-05
3.0514e-05
3.17242e-05
3.31646e-05
3.38497e-05
3.38967e-05
3.34782e-05
3.29586e-05
3.2515e-05
3.21822e-05
3.19646e-05
3.18471e-05
3.17698e-05
3.17252e-05
3.16866e-05
3.16606e-05
3.16543e-05
3.16542e-05
3.16542e-05
3.16556e-05
3.16594e-05
3.16687e-05
3.16774e-05
3.16967e-05
3.17114e-05
3.17424e-05
3.17653e-05
3.18142e-05
3.185e-05
3.19254e-05
3.19809e-05
3.20975e-05
3.21836e-05
3.23636e-05
3.24979e-05
3.27776e-05
3.29922e-05
3.34417e-05
3.37975e-05
3.45009e-05
3.52535e-05
3.62786e-05
3.86674e-05
3.82718e-05
3.6231e-05
2.87686e-05
3.01177e-05
3.79984e-05
5.93009e-05
0.000114275
0.00012436
0.000123558
0.000104469
6.98828e-05
4.97854e-05
3.96043e-05
3.62292e-05
3.57781e-05
3.51013e-05
3.36771e-05
3.13474e-05
3.01587e-05
3.12102e-05
3.28322e-05
3.36942e-05
3.38409e-05
3.3484e-05
3.29825e-05
3.25379e-05
3.22e-05
3.19762e-05
3.18518e-05
3.17711e-05
3.1725e-05
3.1687e-05
3.1661e-05
3.16544e-05
3.16543e-05
3.16543e-05
3.16557e-05
3.16596e-05
3.1669e-05
3.16778e-05
3.16971e-05
3.17118e-05
3.17426e-05
3.17655e-05
3.18142e-05
3.185e-05
3.19254e-05
3.19808e-05
3.20974e-05
3.21834e-05
3.23636e-05
3.24979e-05
3.2778e-05
3.29928e-05
3.34432e-05
3.3799e-05
3.45023e-05
3.52558e-05
3.62765e-05
3.865e-05
3.82338e-05
3.62758e-05
2.93053e-05
2.88971e-05
3.67909e-05
5.25993e-05
0.000104473
0.000115895
0.000113969
9.64134e-05
6.45886e-05
4.69058e-05
3.75702e-05
3.41188e-05
3.3972e-05
3.38488e-05
3.28108e-05
3.11469e-05
2.98931e-05
3.06765e-05
3.24709e-05
3.35343e-05
3.37751e-05
3.34854e-05
3.30038e-05
3.25605e-05
3.22174e-05
3.1988e-05
3.18573e-05
3.17726e-05
3.17246e-05
3.16867e-05
3.16613e-05
3.16549e-05
3.16548e-05
3.16549e-05
3.16563e-05
3.16602e-05
3.16699e-05
3.16787e-05
3.16981e-05
3.17126e-05
3.17431e-05
3.17657e-05
3.18142e-05
3.18498e-05
3.19252e-05
3.19805e-05
3.20971e-05
3.21831e-05
3.23635e-05
3.24978e-05
3.27785e-05
3.29933e-05
3.34446e-05
3.38004e-05
3.45035e-05
3.52579e-05
3.62745e-05
3.86334e-05
3.81993e-05
3.62658e-05
2.99242e-05
2.78369e-05
3.58003e-05
4.73255e-05
9.39336e-05
0.000107602
0.000104737
8.7862e-05
5.91569e-05
4.42077e-05
3.60971e-05
3.22994e-05
3.23725e-05
3.27155e-05
3.19683e-05
3.07494e-05
2.97236e-05
3.0268e-05
3.20834e-05
3.33503e-05
3.3702e-05
3.34815e-05
3.30231e-05
3.25815e-05
3.22352e-05
3.19992e-05
3.18617e-05
3.17768e-05
3.17249e-05
3.16866e-05
3.16616e-05
3.16553e-05
3.16553e-05
3.16553e-05
3.16568e-05
3.16608e-05
3.16707e-05
3.16795e-05
3.16988e-05
3.17131e-05
3.17434e-05
3.17658e-05
3.1814e-05
3.18496e-05
3.19248e-05
3.198e-05
3.20967e-05
3.21827e-05
3.23634e-05
3.24977e-05
3.2779e-05
3.29939e-05
3.3446e-05
3.38016e-05
3.45046e-05
3.52598e-05
3.62725e-05
3.86177e-05
3.81751e-05
3.61727e-05
3.06306e-05
2.69322e-05
3.4527e-05
4.31773e-05
8.34363e-05
9.86393e-05
9.52544e-05
7.90971e-05
5.37687e-05
4.16077e-05
3.50182e-05
3.12107e-05
3.09965e-05
3.16921e-05
3.12348e-05
3.02317e-05
2.93707e-05
2.98856e-05
3.16843e-05
3.31321e-05
3.36228e-05
3.34713e-05
3.30409e-05
3.25997e-05
3.22529e-05
3.20102e-05
3.18657e-05
3.1782e-05
3.17275e-05
3.16871e-05
3.16614e-05
3.16547e-05
3.16546e-05
3.16548e-05
3.16563e-05
3.16603e-05
3.16701e-05
3.16789e-05
3.16981e-05
3.17125e-05
3.17429e-05
3.17653e-05
3.18136e-05
3.18491e-05
3.19244e-05
3.19795e-05
3.20964e-05
3.21825e-05
3.23635e-05
3.24979e-05
3.27796e-05
3.29945e-05
3.34472e-05
3.38028e-05
3.45055e-05
3.52615e-05
3.62705e-05
3.86027e-05
3.81615e-05
3.60548e-05
3.13487e-05
2.65683e-05
3.32729e-05
3.97457e-05
7.3548e-05
8.89981e-05
8.55487e-05
7.05278e-05
4.86257e-05
3.90894e-05
3.41449e-05
3.07483e-05
2.98511e-05
3.0783e-05
3.06025e-05
2.97134e-05
2.90726e-05
2.95414e-05
3.12857e-05
3.29012e-05
3.35366e-05
3.34552e-05
3.30564e-05
3.26164e-05
3.22691e-05
3.20223e-05
3.18696e-05
3.17862e-05
3.17323e-05
3.16889e-05
3.16601e-05
3.16519e-05
3.16518e-05
3.1652e-05
3.16536e-05
3.16576e-05
3.16675e-05
3.16764e-05
3.16958e-05
3.17104e-05
3.17413e-05
3.17639e-05
3.18127e-05
3.18482e-05
3.19237e-05
3.19789e-05
3.20962e-05
3.21823e-05
3.23638e-05
3.24982e-05
3.27803e-05
3.29952e-05
3.34485e-05
3.38039e-05
3.45064e-05
3.52631e-05
3.62685e-05
3.85886e-05
3.8164e-05
3.58777e-05
3.20403e-05
2.63983e-05
3.19135e-05
3.72298e-05
6.44326e-05
7.89332e-05
7.58539e-05
6.25029e-05
4.38916e-05
3.67393e-05
3.32945e-05
3.0522e-05
2.93161e-05
3.00234e-05
3.00614e-05
2.92343e-05
2.87636e-05
2.9255e-05
3.08917e-05
3.26545e-05
3.344e-05
3.34348e-05
3.30685e-05
3.26347e-05
3.22832e-05
3.20356e-05
3.18736e-05
3.17878e-05
3.17376e-05
3.16921e-05
3.16584e-05
3.16475e-05
3.16474e-05
3.16476e-05
3.16491e-05
3.16532e-05
3.16631e-05
3.16722e-05
3.1692e-05
3.17069e-05
3.17387e-05
3.17617e-05
3.18111e-05
3.18468e-05
3.19228e-05
3.19781e-05
3.20958e-05
3.21821e-05
3.2364e-05
3.24985e-05
3.27811e-05
3.29959e-05
3.34497e-05
3.3805e-05
3.45072e-05
3.52646e-05
3.62667e-05
3.85753e-05
3.81764e-05
3.56532e-05
3.26801e-05
2.64043e-05
3.03846e-05
3.53879e-05
5.6353e-05
6.88301e-05
6.6581e-05
5.52201e-05
3.96735e-05
3.4623e-05
3.24916e-05
3.02635e-05
2.90876e-05
2.93042e-05
2.95874e-05
2.88225e-05
2.83838e-05
2.89189e-05
3.0541e-05
3.23986e-05
3.33319e-05
3.34113e-05
3.30781e-05
3.26551e-05
3.22959e-05
3.20477e-05
3.18789e-05
3.17884e-05
3.17411e-05
3.1696e-05
3.16575e-05
3.1643e-05
3.16429e-05
3.16431e-05
3.16445e-05
3.16484e-05
3.16584e-05
3.16676e-05
3.16878e-05
3.1703e-05
3.17355e-05
3.17589e-05
3.18089e-05
3.18449e-05
3.19214e-05
3.1977e-05
3.20952e-05
3.21816e-05
3.23642e-05
3.24987e-05
3.27817e-05
3.29965e-05
3.34508e-05
3.3806e-05
3.45079e-05
3.5266e-05
3.6265e-05
3.85629e-05
3.82048e-05
3.53826e-05
3.32375e-05
2.67575e-05
2.89499e-05
3.42683e-05
4.9759e-05
5.92137e-05
5.82751e-05
4.87515e-05
3.60294e-05
3.27617e-05
3.17879e-05
2.99984e-05
2.88357e-05
2.89286e-05
2.91818e-05
2.84848e-05
2.80021e-05
2.85985e-05
3.02301e-05
3.21378e-05
3.32142e-05
3.33843e-05
3.30864e-05
3.26764e-05
3.23082e-05
3.20575e-05
3.18863e-05
3.17884e-05
3.17423e-05
3.16998e-05
3.16578e-05
3.16394e-05
3.16393e-05
3.16395e-05
3.16408e-05
3.16445e-05
3.16544e-05
3.16636e-05
3.1684e-05
3.16994e-05
3.17323e-05
3.17559e-05
3.18065e-05
3.18427e-05
3.19197e-05
3.19755e-05
3.20942e-05
3.21808e-05
3.23638e-05
3.24985e-05
3.2782e-05
3.29969e-05
3.34518e-05
3.3807e-05
3.45087e-05
3.52674e-05
3.62635e-05
3.85513e-05
3.82526e-05
3.5093e-05
3.36391e-05
2.7429e-05
2.72783e-05
3.33319e-05
4.47119e-05
5.06816e-05
5.14432e-05
4.29924e-05
3.29859e-05
3.1156e-05
3.11537e-05
2.98349e-05
2.86383e-05
2.87081e-05
2.87876e-05
2.8211e-05
2.76484e-05
2.82662e-05
2.99178e-05
3.18692e-05
3.30882e-05
3.33529e-05
3.3095e-05
3.26958e-05
3.23209e-05
3.20654e-05
3.18944e-05
3.17898e-05
3.17423e-05
3.17013e-05
3.1658e-05
3.16369e-05
3.16367e-05
3.16369e-05
3.16382e-05
3.16418e-05
3.16514e-05
3.16606e-05
3.16809e-05
3.16963e-05
3.17295e-05
3.17532e-05
3.18042e-05
3.18405e-05
3.19179e-05
3.19737e-05
3.20928e-05
3.21795e-05
3.2363e-05
3.24978e-05
3.2782e-05
3.2997e-05
3.34526e-05
3.38078e-05
3.45094e-05
3.52687e-05
3.62621e-05
3.85406e-05
3.83147e-05
3.48059e-05
3.38924e-05
2.83151e-05
2.62695e-05
3.20069e-05
4.01965e-05
4.38382e-05
4.61681e-05
3.8044e-05
3.05589e-05
2.98034e-05
3.05649e-05
2.97416e-05
2.85313e-05
2.84782e-05
2.85708e-05
2.79813e-05
2.73626e-05
2.79195e-05
2.96054e-05
3.16008e-05
3.29557e-05
3.33165e-05
3.31036e-05
3.27128e-05
3.23336e-05
3.20728e-05
3.19021e-05
3.17926e-05
3.17423e-05
3.17019e-05
3.16583e-05
3.16352e-05
3.16349e-05
3.16351e-05
3.16363e-05
3.16398e-05
3.16493e-05
3.16584e-05
3.16786e-05
3.1694e-05
3.17274e-05
3.17511e-05
3.18023e-05
3.18386e-05
3.1916e-05
3.19719e-05
3.20912e-05
3.2178e-05
3.23619e-05
3.24968e-05
3.27817e-05
3.29968e-05
3.34532e-05
3.38085e-05
3.45102e-05
3.52701e-05
3.6261e-05
3.85308e-05
3.83897e-05
3.45333e-05
3.39564e-05
2.92334e-05
2.60042e-05
3.02566e-05
3.61119e-05
3.8883e-05
4.16852e-05
3.38461e-05
2.87323e-05
2.87163e-05
3.00102e-05
2.96649e-05
2.85022e-05
2.82918e-05
2.84203e-05
2.77823e-05
2.71215e-05
2.75784e-05
2.92892e-05
3.1347e-05
3.28191e-05
3.32756e-05
3.31106e-05
3.27288e-05
3.23463e-05
3.20795e-05
3.19094e-05
3.17975e-05
3.17425e-05
3.17023e-05
3.16581e-05
3.16337e-05
3.16332e-05
3.16334e-05
3.16346e-05
3.1638e-05
3.16475e-05
3.16566e-05
3.1677e-05
3.16925e-05
3.1726e-05
3.17498e-05
3.18011e-05
3.18373e-05
3.19146e-05
3.19703e-05
3.20896e-05
3.21763e-05
3.23605e-05
3.24956e-05
3.27811e-05
3.29965e-05
3.34538e-05
3.38092e-05
3.4511e-05
3.52715e-05
3.62601e-05
3.85219e-05
3.8471e-05
3.43112e-05
3.3818e-05
3.01357e-05
2.59149e-05
2.83267e-05
3.30024e-05
3.52567e-05
3.73787e-05
3.07285e-05
2.74751e-05
2.7882e-05
2.94729e-05
2.95524e-05
2.85171e-05
2.81758e-05
2.82525e-05
2.76576e-05
2.69223e-05
2.7262e-05
2.89611e-05
3.10953e-05
3.26771e-05
3.32309e-05
3.31145e-05
3.27453e-05
3.23599e-05
3.20849e-05
3.19163e-05
3.18037e-05
3.17436e-05
3.17021e-05
3.16583e-05
3.16336e-05
3.1633e-05
3.16331e-05
3.16342e-05
3.16375e-05
3.16467e-05
3.16559e-05
3.16763e-05
3.1692e-05
3.17259e-05
3.17496e-05
3.18007e-05
3.18367e-05
3.19137e-05
3.19692e-05
3.20884e-05
3.21751e-05
3.23594e-05
3.24946e-05
3.27806e-05
3.29963e-05
3.34545e-05
3.38099e-05
3.45119e-05
3.5273e-05
3.62594e-05
3.85138e-05
3.85545e-05
3.41331e-05
3.36279e-05
3.09322e-05
2.63568e-05
2.65522e-05
3.04635e-05
3.25098e-05
3.33194e-05
2.87799e-05
2.66857e-05
2.72758e-05
2.89749e-05
2.93965e-05
2.85277e-05
2.81251e-05
2.81246e-05
2.75448e-05
2.67426e-05
2.69778e-05
2.86223e-05
3.08416e-05
3.25314e-05
3.31833e-05
3.31146e-05
3.27627e-05
3.23748e-05
3.20898e-05
3.19212e-05
3.18089e-05
3.17454e-05
3.17016e-05
3.16577e-05
3.1633e-05
3.16324e-05
3.16325e-05
3.16338e-05
3.16373e-05
3.16473e-05
3.16567e-05
3.16778e-05
3.16933e-05
3.17271e-05
3.17505e-05
3.18012e-05
3.18369e-05
3.19135e-05
3.19689e-05
3.20878e-05
3.21743e-05
3.23586e-05
3.24938e-05
3.27803e-05
3.29962e-05
3.34552e-05
3.38108e-05
3.45128e-05
3.52744e-05
3.62588e-05
3.85065e-05
3.8637e-05
3.40018e-05
3.33391e-05
3.15402e-05
2.71274e-05
2.61075e-05
2.8551e-05
3.07648e-05
3.01392e-05
2.7506e-05
2.62994e-05
2.68185e-05
2.85618e-05
2.91788e-05
2.85005e-05
2.81004e-05
2.80554e-05
2.74477e-05
2.65997e-05
2.67246e-05
2.82845e-05
3.05732e-05
3.23858e-05
3.31346e-05
3.31122e-05
3.27792e-05
3.23905e-05
3.2096e-05
3.19227e-05
3.18126e-05
3.17464e-05
3.16995e-05
3.16571e-05
3.16353e-05
3.1635e-05
3.16351e-05
3.16364e-05
3.16399e-05
3.16503e-05
3.16598e-05
3.16807e-05
3.16959e-05
3.17289e-05
3.1752e-05
3.1802e-05
3.18375e-05
3.19139e-05
3.19691e-05
3.20878e-05
3.21742e-05
3.23584e-05