/*--------------------------------*- C++ -*----------------------------------*\
| =========                 |                                                 |
| \\      /  F ield         | OpenFOAM: The Open Source CFD Toolbox           |
|  \\    /   O peration     | Version:  2.4.0                                 |
|   \\  /    A nd           | Web:      www.OpenFOAM.org                      |
|    \\/     M anipulation  |                                                 |
\*---------------------------------------------------------------------------*/
FoamFile
{
    version     2.0;
    format      ascii;
    class       volScalarField;
    location    "25";
    object      nut;
}
// * * * * * * * * * * * * * * * * * * * * * * * * * * * * * * * * * * * * * //

dimensions      [0 2 -1 0 0 0 0];

internalField   nonuniform List<scalar> 
1800
(
0.0199398
0.0278128
0.0314936
0.0335397
0.0348467
0.0357303
0.0363355
0.0367551
0.0370556
0.037283
0.0374668
0.0376254
0.0377705
0.0379094
0.0380462
0.0381835
0.0383225
0.0384641
0.0386086
0.0387562
0.00526973
0.0112217
0.0155099
0.0183012
0.0200958
0.0212586
0.0220095
0.0224883
0.0227881
0.0229718
0.0230819
0.0231471
0.0231863
0.023212
0.023232
0.0232513
0.0232729
0.0232986
0.0233292
0.0233652
0.00039163
0.00242765
0.00543508
0.00832669
0.0106056
0.0122496
0.013389
0.014159
0.0146657
0.0149875
0.0151814
0.0152888
0.015339
0.0153531
0.0153456
0.0153267
0.0153033
0.0152799
0.0152595
0.0152438
5.84288e-06
0.000129605
0.000804442
0.00213915
0.00387653
0.00561994
0.00710999
0.00827238
0.00913462
0.00975359
0.0101845
0.0104733
0.0106567
0.0107631
0.0108148
0.0108285
0.010817
0.01079
0.0107547
0.0107162
5.24114e-06
4.93229e-06
3.40881e-05
0.000194637
0.000615805
0.00137366
0.0024029
0.00353556
0.00460905
0.00552925
0.00626909
0.00683996
0.00726706
0.00757686
0.00779292
0.00793527
0.00802064
0.00806289
0.00807348
0.00806169
5.2359e-06
3.41551e-06
3.2151e-06
8.88939e-06
4.16398e-05
0.000143903
0.000374454
0.000784423
0.00137931
0.00210684
0.00288151
0.00362268
0.00427845
0.00482774
0.00527041
0.00561634
0.00587859
0.00607033
0.00620381
0.00629011
5.23579e-06
3.38557e-06
2.53717e-06
2.28285e-06
3.3903e-06
1.02252e-05
3.43084e-05
9.48686e-05
0.000220315
0.000442731
0.00078346
0.00123901
0.00177808
0.00235243
0.00291388
0.00342701
0.00387286
0.00424579
0.00454831
0.00478693
5.23578e-06
3.3861e-06
2.51784e-06
2.06062e-06
1.85213e-06
2.0496e-06
3.61155e-06
9.59371e-06
2.61717e-05
6.35127e-05
0.000137136
0.000266795
0.000471571
0.000762175
0.00113415
0.0015665
0.00202739
0.00248376
0.00290952
0.00328907
5.23578e-06
3.38771e-06
2.51978e-06
2.05417e-06
1.78192e-06
1.6297e-06
1.62753e-06
2.01928e-06
3.62833e-06
8.50601e-06
2.04586e-05
4.57975e-05
9.42737e-05
0.00017905
0.000314908
0.000514329
0.000782312
0.00111241
0.00148684
0.0018815
5.23578e-06
3.38963e-06
2.52307e-06
2.05776e-06
1.78224e-06
1.6083e-06
1.49946e-06
1.45761e-06
1.55348e-06
2.0346e-06
3.58515e-06
7.71906e-06
1.71761e-05
3.65336e-05
7.29131e-05
0.000136184
0.000238078
0.000389734
0.000597955
0.00086198
5.23578e-06
3.39173e-06
2.5268e-06
2.06246e-06
1.7872e-06
1.61194e-06
1.49509e-06
1.41714e-06
1.37461e-06
1.38966e-06
1.54721e-06
2.09222e-06
3.63571e-06
7.45524e-06
1.58583e-05
3.27229e-05
6.40543e-05
0.000118069
0.000204249
0.000331317
5.23577e-06
3.3939e-06
2.53071e-06
2.06752e-06
1.79292e-06
1.61783e-06
1.50035e-06
1.41915e-06
1.36323e-06
1.32902e-06
1.32365e-06
1.37953e-06
1.5946e-06
2.2293e-06
3.90047e-06
7.86851e-06
1.64184e-05
3.33423e-05
6.41561e-05
0.00011555
5.23576e-06
3.396e-06
2.53455e-06
2.07255e-06
1.7987e-06
1.62399e-06
1.50654e-06
1.42489e-06
1.36735e-06
1.32754e-06
1.30284e-06
1.29555e-06
1.31927e-06
1.41759e-06
1.71293e-06
2.52162e-06
4.57907e-06
9.36884e-06
1.94558e-05
3.85517e-05
5.23575e-06
3.39793e-06
2.53808e-06
2.07721e-06
1.80409e-06
1.62978e-06
1.51243e-06
1.43057e-06
1.37245e-06
1.33141e-06
1.30368e-06
1.28763e-06
1.28417e-06
1.29979e-06
1.35622e-06
1.51801e-06
1.96588e-06
3.17045e-06
6.18486e-06
1.28777e-05
5.23573e-06
3.39956e-06
2.54107e-06
2.08117e-06
1.80867e-06
1.63469e-06
1.51738e-06
1.43528e-06
1.3766e-06
1.33459e-06
1.30535e-06
1.28671e-06
1.27784e-06
1.27951e-06
1.29561e-06
1.33884e-06
1.44786e-06
1.74665e-06
2.5906e-06
4.81589e-06
5.23572e-06
3.40083e-06
2.5434e-06
2.08426e-06
1.8123e-06
1.63867e-06
1.52159e-06
1.43964e-06
1.38109e-06
1.33924e-06
1.31019e-06
1.29171e-06
1.28273e-06
1.28308e-06
1.29374e-06
1.31797e-06
1.36488e-06
1.46721e-06
1.73502e-06
2.51572e-06
5.30092e-06
3.59857e-06
2.9791e-06
2.91333e-06
3.24877e-06
3.95512e-06
5.03341e-06
6.47363e-06
8.23704e-06
1.0256e-05
1.24441e-05
1.47087e-05
1.69609e-05
1.91208e-05
2.11186e-05
2.28943e-05
2.43895e-05
2.54846e-05
2.6068e-05
2.68493e-05
0.000382289
0.000385994
0.000389372
0.00039251
0.000395447
0.0003982
0.000400783
0.0004032
0.000405455
0.000407547
0.000409465
0.000411194
0.000412702
0.000413941
0.000414821
0.00041519
0.000414657
0.000412363
0.000405225
0.00038758
0.0389072
0.0390615
0.0392188
0.0393791
0.0395421
0.0234067
0.0234535
0.0235054
0.0235623
0.023624
0.0152337
0.0152296
0.0152316
0.0152399
0.0152543
0.010678
0.0106426
0.0106115
0.0105857
0.0105659
0.00803497
0.00799906
0.00795833
0.00791608
0.00787488
0.00633898
0.0063588
0.00635651
0.00633783
0.00630755
0.00496962
0.00510442
0.00519866
0.00525875
0.00529036
0.0036163
0.00389126
0.00411687
0.00429684
0.00443506
0.0022731
0.0026441
0.00298338
0.00328437
0.0035436
0.00117314
0.00151762
0.00187944
0.00224157
0.00258799
0.000505286
0.000729255
0.00100345
0.00132181
0.00166989
0.000194332
0.000307598
0.000464656
0.000674661
0.000939997
7.09196e-05
0.000121083
0.000196605
0.000309171
0.000470442
2.56112e-05
4.65349e-05
7.97222e-05
0.000133058
0.00021733
9.72999e-06
1.82786e-05
3.21767e-05
5.57065e-05
9.5857e-05
4.46721e-06
7.93624e-06
1.35657e-05
2.33247e-05
4.09224e-05
2.68112e-05
2.643e-05
2.66065e-05
2.78529e-05
3.2058e-05
0.000308201
0.000250199
0.000219363
0.000193521
0.000167309
0.039708
0.0398766
0.0400482
0.040223
0.0404016
0.0405847
0.0407741
0.0409727
0.0411868
0.0414268
0.0416977
0.0418982
0.0410952
0.0377022
0.0134416
0.0236905
0.0237618
0.0238378
0.0239187
0.024005
0.0240974
0.0241974
0.024308
0.0244351
0.0245871
0.024756
0.0247934
0.0240052
0.0204013
0.00914779
0.0152749
0.0153017
0.0153346
0.0153738
0.0154196
0.0154726
0.0155343
0.0156072
0.0156957
0.0158038
0.015908
0.0158415
0.0150563
0.0122666
0.00618655
0.0105528
0.0105466
0.0105477
0.0105563
0.0105728
0.0105978
0.0106324
0.0106785
0.0107385
0.0108108
0.0108612
0.0107361
0.0100524
0.00816137
0.00432639
0.00783682
0.00780356
0.00777643
0.00775649
0.00774466
0.00774186
0.0077491
0.00776766
0.00779817
0.0078351
0.00784309
0.00770345
0.00717329
0.00594074
0.00318631
0.00626981
0.00622826
0.00618602
0.00614577
0.00610981
0.00608016
0.00605863
0.00604671
0.0060447
0.00604691
0.00602494
0.00589777
0.00551338
0.00468572
0.00246979
0.00529874
0.00528882
0.00526517
0.00523195
0.00519297
0.00515179
0.00511172
0.00507571
0.00504561
0.00501883
0.00497713
0.00486901
0.00459224
0.00398441
0.00200592
0.00453581
0.00460363
0.00464311
0.00465867
0.0046546
0.00463521
0.00460491
0.00456819
0.00452909
0.00448897
0.00443875
0.00434637
0.00413463
0.00362636
0.00169831
0.00376037
0.00393618
0.00407366
0.00417586
0.00424603
0.00428786
0.00430552
0.0043038
0.00428775
0.00426119
0.00422083
0.00414585
0.00397042
0.00348953
0.00149127
0.00290665
0.00319074
0.00343736
0.00364564
0.00381594
0.00394968
0.00404936
0.00411846
0.0041612
0.00418143
0.00417795
0.00413483
0.00398819
0.00349786
0.00135143
0.00202894
0.00238206
0.00271678
0.00302451
0.00329957
0.0035388
0.00374117
0.00390733
0.00403906
0.00413822
0.00420279
0.00421698
0.00411088
0.0036015
0.00125819
0.00125346
0.00160144
0.00196801
0.00233744
0.00269583
0.00303255
0.00334048
0.0036154
0.00385511
0.00405812
0.00421978
0.00432142
0.00428112
0.00376543
0.0011988
0.00068755
0.000961781
0.00128831
0.00165592
0.0020488
0.00245013
0.00284526
0.00322291
0.00357496
0.00389524
0.00417549
0.00439311
0.00445141
0.00396161
0.00116558
0.000343772
0.000522915
0.000762963
0.00106686
0.00142996
0.00184007
0.00228043
0.00273367
0.00318456
0.00362083
0.00402998
0.0043864
0.00458002
0.00416594
0.00115488
0.00016161
0.000264093
0.000416116
0.000630642
0.000916728
0.00127656
0.00170361
0.00218397
0.0027001
0.0032349
0.00377212
0.00428572
0.0046567
0.00438895
0.00117095
7.18804e-05
0.000124379
0.000209905
0.000343261
0.000540795
0.000817304
0.00118185
0.00163468
0.00216735
0.00276645
0.00341724
0.00409925
0.00469184
0.004664
0.0012245
4.25431e-05
6.45884e-05
0.000106078
0.000178463
0.000297581
0.000483299
0.000756805
0.00113588
0.0016305
0.0022426
0.00296981
0.00380899
0.00465245
0.00497722
0.0013411
0.000143714
0.000126711
0.000121763
0.000137275
0.00018611
0.000286193
0.000460001
0.000734205
0.00113707
0.00169462
0.00242995
0.00337201
0.00445538
0.00525005
0.0015537
0.000654186
0.000375414
0.000322342
0.000277926
0.000245566
0.00077048
0.000806785
0.000757314
0.000633054
0.000529231
0.000804296
0.00142386
0.00155001
0.00145756
0.0013262
0.000787622
0.00103487
0.00133892
0.00159047
0.00163049
0.000687345
0.000935736
0.00111661
0.00127604
0.00133387
0.000607594
0.00090695
0.00097687
0.00103691
0.0010572
0.000551604
0.000871275
0.000893322
0.000913582
0.000905639
0.00050988
0.000833039
0.000837077
0.000844377
0.000826203
0.000474758
0.000797216
0.000794587
0.000791527
0.00075628
0.000441204
0.000765853
0.000759295
0.000729497
0.00067534
0.000413196
0.000738169
0.000719561
0.000636186
0.000560102
0.000387576
0.00070917
0.000654897
0.000521494
0.00044828
0.000363211
0.000669298
0.000561181
0.000418376
0.000349698
0.000339495
0.000606745
0.000449762
0.000315384
0.000244896
0.000316221
0.000502343
0.000328627
0.000206037
0.000137476
0.000293262
0.000329645
0.000195465
0.000101563
6.00085e-05
0.000269429
0.000155154
7.85062e-05
3.94069e-05
2.90724e-05
4.42357e-05
4.53611e-05
3.88222e-05
2.55188e-05
1.78446e-05
0.000220612
0.000198204
0.000178988
0.000167037
0.000170396
0.000203059
0.000287246
0.000452744
0.000734836
0.00117582
0.00182716
0.00275589
0.0039657
0.00504243
0.0030984
0.000422888
0.00034296
0.000283781
0.000240306
0.000210999
0.000199223
0.000215814
0.000283618
0.000440272
0.000734165
0.00122518
0.00199555
0.00309935
0.00419109
0.00386005
0.00100564
0.000774144
0.000603964
0.000477268
0.000383541
0.000317052
0.000277137
0.000270499
0.00031623
0.000452588
0.00073785
0.00124275
0.00201218
0.00283563
0.00306579
0.00137404
0.00116624
0.000969742
0.000794814
0.00064715
0.000527971
0.000437162
0.000376038
0.000350541
0.000376004
0.000483416
0.000718474
0.00110643
0.00154628
0.00179781
0.00132905
0.00129673
0.00119337
0.00105841
0.000916542
0.000782433
0.000664793
0.000569141
0.000500134
0.000464047
0.000471391
0.000537577
0.000671427
0.000839887
0.000975688
0.00107546
0.00115836
0.00119258
0.00115419
0.00108073
0.000990165
0.000895749
0.000807654
0.000733826
0.00068099
0.000655607
0.000663917
0.00070903
0.000784266
0.000875492
0.00091211
0.000953449
0.00102349
0.00106984
0.00107839
0.00106177
0.0010315
0.000997062
0.000967338
0.000950868
0.000956032
0.000990652
0.00106014
0.00116306
0.00128716
0.000865636
0.000840147
0.000862494
0.00090084
0.000947776
0.000979699
0.00100679
0.0010335
0.00106573
0.00111062
0.0011758
0.00126739
0.00138693
0.00152748
0.0016733
0.000816715
0.000807677
0.000776169
0.000773348
0.000788792
0.000814536
0.000851668
0.000900977
0.000964421
0.00104536
0.00114717
0.00127121
0.00141484
0.00157026
0.00172644
0.000710508
0.000731115
0.000700888
0.000677973
0.000662408
0.000657249
0.000666803
0.000695052
0.000744789
0.000818688
0.000917847
0.00104167
0.00118662
0.00134616
0.0015125
0.000584308
0.000604351
0.000595093
0.000575321
0.000553177
0.000534636
0.00052397
0.000525969
0.000545237
0.000587259
0.000655244
0.000751606
0.000875514
0.00102292
0.00118747
0.00047468
0.000494519
0.000499073
0.000492632
0.00047886
0.000462913
0.000448348
0.000438306
0.000435773
0.000446074
0.000474046
0.000526946
0.000610337
0.000725743
0.000869409
0.000407895
0.000433555
0.000443058
0.000446706
0.000443148
0.000433218
0.000418934
0.000402487
0.000385752
0.00037295
0.000368753
0.000382199
0.00042335
0.000499274
0.000610279
0.000345989
0.000357058
0.000364273
0.000368491
0.000363611
0.000348346
0.000325825
0.000299964
0.000273876
0.000252373
0.000238772
0.00023946
0.000262799
0.00031702
0.000404221
0.000186569
0.000187683
0.000181714
0.000175055
0.000162932
0.000147041
0.000129921
0.000114235
0.000101121
9.23115e-05
8.83505e-05
9.16825e-05
0.000106775
0.000141872
0.000206652
6.48315e-05
6.11183e-05
5.38959e-05
4.93548e-05
4.53003e-05
4.16274e-05
3.84286e-05
3.58597e-05
3.38938e-05
3.26113e-05
3.20643e-05
3.2681e-05
3.55423e-05
4.3464e-05
6.29629e-05
3.77855e-05
3.6092e-05
3.35126e-05
3.17702e-05
3.06934e-05
3.003e-05
2.95744e-05
2.9265e-05
2.90458e-05
2.8895e-05
2.88095e-05
2.881e-05
2.89649e-05
2.94635e-05
3.08418e-05
3.08852e-05
3.07515e-05
3.02488e-05
3.00385e-05
3.01716e-05
3.03048e-05
3.05668e-05
3.08794e-05
3.12286e-05
3.15974e-05
3.19839e-05
3.23864e-05
3.28033e-05
3.32338e-05
3.36807e-05
0.00103569
0.000963771
0.000901671
0.000847446
0.00080016
0.000759368
0.000724351
0.000694511
0.00066945
0.000647677
0.000615824
0.000595239
0.00057912
0.000564502
0.000549488
0.000537044
0.000525602
0.000513345
0.000501946
0.000524829
0.000545983
0.00055045
0.000545079
0.000533428
0.000518222
0.000501346
0.000484086
0.000467333
0.000451647
0.000437451
0.000425119
0.000414884
0.000407051
0.000401748
0.000399118
0.000409331
0.000368268
0.000406286
0.000394742
0.00038872
0.00324751
0.00298828
0.00277818
0.00256489
0.00240174
0.00228375
0.00219714
0.00213272
0.00208518
0.0020478
0.00199778
0.00197518
0.00196471
0.0019592
0.00194841
0.00187398
0.0017947
0.00182665
0.0020259
0.00223774
0.00228292
0.00230402
0.00230054
0.00227485
0.00223104
0.00217401
0.00210875
0.00203983
0.00197117
0.00190663
0.00184992
0.00180344
0.00176914
0.00174434
0.00173074
0.001796
0.00122816
0.00118413
0.00114891
0.00116333
0.00299008
0.00291488
0.00283538
0.00273458
0.00263265
0.00254114
0.00246237
0.00239599
0.0023414
0.00229602
0.0022361
0.00219814
0.00217377
0.0021572
0.00214328
0.00210519
0.00205922
0.00206117
0.00216267
0.00233598
0.00240486
0.00246597
0.00251137
0.00253824
0.00254616
0.00253697
0.00251422
0.00248228
0.00244596
0.00241052
0.00238115
0.00236254
0.00235759
0.00236991
0.00239515
0.00258692
0.00212879
0.00202835
0.00194805
0.00195696
0.00189223
0.00195971
0.00203393
0.00209129
0.00212547
0.00214321
0.00215078
0.00215174
0.00214866
0.0021439
0.00213427
0.00212552
0.00211939
0.00211593
0.00211424
0.00210343
0.00208589
0.00208586
0.00213365
0.00222966
0.00227949
0.00233405
0.00238492
0.0024283
0.00246154
0.00248377
0.00249622
0.00250213
0.00250639
0.00251522
0.00253613
0.002578
0.00264878
0.00275467
0.00288888
0.00329764
0.0030131
0.00297074
0.00300474
0.00308973
0.00107509
0.00117533
0.00129215
0.00141045
0.00151713
0.00160976
0.00168929
0.00175638
0.00181177
0.00185841
0.00191465
0.00195271
0.00198107
0.0020051
0.00202732
0.00204023
0.00204312
0.00204969
0.00207727
0.0021275
0.00215753
0.00219636
0.00223924
0.00228463
0.00233144
0.00237945
0.00242964
0.00248488
0.00255028
0.00263318
0.00274277
0.00288872
0.00307628
0.00330044
0.00354273
0.00405876
0.00391025
0.00393842
0.00407201
0.0042133
0.000975215
0.00107956
0.00118816
0.001301
0.00141408
0.0015226
0.0016232
0.00171405
0.00179403
0.00186369
0.00194583
0.00200672
0.00205285
0.00209015
0.00212244
0.00213925
0.00213979
0.00213824
0.00214984
0.00218369
0.00221205
0.00224819
0.00229467
0.0023517
0.00241967
0.00249915
0.0025918
0.00270054
0.00283005
0.00298689
0.00317847
0.00341009
0.00367917
0.00396936
0.0042575
0.00476703
0.00471261
0.00479564
0.00498508
0.00515161
0.0014143
0.00152871
0.0016306
0.00172983
0.00182948
0.00192606
0.00201615
0.00209856
0.00217245
0.00223594
0.002304
0.0023592
0.00240133
0.00243354
0.00245936
0.0024642
0.00244909
0.0024331
0.00243456
0.00247398
0.00251352
0.00256107
0.00261825
0.00268754
0.00277184
0.0028718
0.00298946
0.00312839
0.00329371
0.00349169
0.00372766
0.00400184
0.00430441
0.00461224
0.0049028
0.00536283
0.00537254
0.00549398
0.00571182
0.00588723
0.00180991
0.00193079
0.00204105
0.00214894
0.00225579
0.00235797
0.00245255
0.00253868
0.00261544
0.00268002
0.00274779
0.00280416
0.00284671
0.00287819
0.00290267
0.00290382
0.00288168
0.00285918
0.00286017
0.0029138
0.00296341
0.00301686
0.00308142
0.00315623
0.00324328
0.00334783
0.00347282
0.0036229
0.00380369
0.00402047
0.00427503
0.00456182
0.00486536
0.00516101
0.0054312
0.00582913
0.00588718
0.00603543
0.00626526
0.00644082
0.00187641
0.0020182
0.00215473
0.0022891
0.00242018
0.00254459
0.00266002
0.00276553
0.00285984
0.00294085
0.00303103
0.0031063
0.00316526
0.00321238
0.00325323
0.00327307
0.00326914
0.00326211
0.00327728
0.00334594
0.00340138
0.00345665
0.00352139
0.00359788
0.00368752
0.00379453
0.00392389
0.00408038
0.00426896
0.00449243
0.00474843
0.00502698
0.00531087
0.00557871
0.00581985
0.00615812
0.00625443
0.0064212
0.00665237
0.0068228
0.00168117
0.0018495
0.00201623
0.00218044
0.00233959
0.0024906
0.00263146
0.00276101
0.00287784
0.00298153
0.00310049
0.00320124
0.00328392
0.00335488
0.00342094
0.00347022
0.00349833
0.00352139
0.00356201
0.00364756
0.0037106
0.00377206
0.00384201
0.00392365
0.00402085
0.00413569
0.00427317
0.0044371
0.00463052
0.00485311
0.00509923
0.00535729
0.00561193
0.00584746
0.00605976
0.00634703
0.00647277
0.00665135
0.00687666
0.00703851
0.00136429
0.00154847
0.00173521
0.00192066
0.0021012
0.00227365
0.00243583
0.00258625
0.00272356
0.00284901
0.00299287
0.00311723
0.00322316
0.00331818
0.00340964
0.00348837
0.00354975
0.00360595
0.00367558
0.00377963
0.00385534
0.00392956
0.00401223
0.00410699
0.00421732
0.00434548
0.00449401
0.00466533
0.00486002
0.00507524
0.00530396
0.00553564
0.00575882
0.00596369
0.00615095
0.00639614
0.00654256
0.0067269
0.00694125
0.00709205
0.00103565
0.00121738
0.00140714
0.00159888
0.00178788
0.00197058
0.00214444
0.00230766
0.00245903
0.00260084
0.00276125
0.00290308
0.00302771
0.00314283
0.00325564
0.00335922
0.00344944
0.00353565
0.0036327
0.00375519
0.00384782
0.0039398
0.00404043
0.00415334
0.00428084
0.00442362
0.00458168
0.00475662
0.00494699
0.00514866
0.00535512
0.00555841
0.00575139
0.00592901
0.00609491
0.00630402
0.00646248
0.00664677
0.00684608
0.00698383
0.000751649
0.000915356
0.0010924
0.0012754
0.00145892
0.00163906
0.00181306
0.00197897
0.00213572
0.00228591
0.00245298
0.00260428
0.00274113
0.0028706
0.00299901
0.00312131
0.00323429
0.00334526
0.00346583
0.00360496
0.00371611
0.00382772
0.00394779
0.00407908
0.00422215
0.00437572
0.00453775
0.00470914
0.00488774
0.00506956
0.00524975
0.00542352
0.00558746
0.00573982
0.0058856
0.00606041
0.00622254
0.0064009
0.0065813
0.00670406
0.000520507
0.000659541
0.000814313
0.000978181
0.00114572
0.00131301
0.00147729
0.00163665
0.00179024
0.00194041
0.00210502
0.00225794
0.00240029
0.00253798
0.00267603
0.0028107
0.00293995
0.00306968
0.00320866
0.00336085
0.0034887
0.00361776
0.00375378
0.00389777
0.00404836
0.00420327
0.00435918
0.00451575
0.00467205
0.00482552
0.00497374
0.00511487
0.00524822
0.00537399
0.00549733
0.00563518
0.00579289
0.00595888
0.00611605
0.00622159
0.000304809
0.000428472
0.000565615
0.000709179
0.000856427
0.00100549
0.00115429
0.00130117
0.00144548
0.0015892
0.00174497
0.00189375
0.00203635
0.00217711
0.00231952
0.00246038
0.0025988
0.00273986
0.00288958
0.00304737
0.00318424
0.00332132
0.00346115
0.00360284
0.00374397
0.0038816
0.00401291
0.00413731
0.00425605
0.00436914
0.00447671
0.00457904
0.00467697
0.00477145
0.00486694
0.00496159
0.00510652
0.00525245
0.00538098
0.00546671
0.000105771
0.000183536
0.000296632
0.000431964
0.000573568
0.000712489
0.000847772
0.000981096
0.00111421
0.00124944
0.00139466
0.001537
0.00167619
0.00181444
0.00195318
0.00208945
0.00222392
0.00236083
0.00250236
0.00264318
0.00276525
0.00288366
0.00299792
0.00310655
0.00320686
0.00329669
0.00337731
0.00344909
0.00351476
0.00357611
0.00363514
0.00369282
0.00375021
0.00380806
0.00386977
0.00391439
0.00403603
0.00415184
0.0042444
0.00430718
3.47025e-05
4.55683e-05
7.37778e-05
0.00013393
0.000232482
0.000360604
0.00050314
0.000647688
0.000787274
0.000919579
0.00104577
0.00116166
0.00126847
0.00136808
0.00146158
0.00155013
0.00163825
0.00172645
0.00181012
0.0018804
0.00194071
0.00199631
0.0020448
0.00208634
0.00211647
0.00214071
0.0021611
0.00217791
0.00219278
0.0022069
0.00222197
0.00223854
0.00225722
0.00227819
0.00230395
0.00230126
0.00237999
0.00245157
0.002499
0.00253404
3.41667e-05
3.47247e-05
3.54667e-05
3.67489e-05
3.93979e-05
4.45588e-05
5.28649e-05
6.39202e-05
7.67799e-05
9.0698e-05
0.000106301
0.000120455
0.000134089
0.000147367
0.000160413
0.000173117
0.000186009
0.000199048
0.00021107
0.000220187
0.000224899
0.000231733
0.000237517
0.000242252
0.000246219
0.000249408
0.0002519
0.000253706
0.000254919
0.000255687
0.0002562
0.000256595
0.000257019
0.000257585
0.000258654
0.000262545
0.000263494
0.000273237
0.000279569
0.000281714
)
;

boundaryField
{
    inlet
    {
        type            calculated;
        value           uniform 9.96555e-06;
    }
    outlet
    {
        type            calculated;
        value           nonuniform List<scalar> 
18
(
0.00038872
0.00116333
0.00195696
0.00308973
0.0042133
0.00515161
0.00588723
0.00644082
0.0068228
0.00703851
0.00709205
0.00698383
0.00670406
0.00622159
0.00546671
0.00430718
0.00253404
0.000281714
)
;
    }
    centerline
    {
        type            symmetry;
    }
    fixedWalls
    {
        type            nutkWallFunction;
        Cmu             0.09;
        kappa           0.41;
        E               9.8;
        value           nonuniform List<scalar> 
156
(
4.09169e-05
4.12784e-05
4.16078e-05
4.19135e-05
4.21994e-05
4.24672e-05
4.27183e-05
4.29531e-05
4.31721e-05
4.33751e-05
4.35612e-05
4.37288e-05
4.3875e-05
4.3995e-05
4.40803e-05
4.41161e-05
4.40644e-05
4.38422e-05
4.31499e-05
4.14333e-05
6.67409e-05
7.74669e-05
8.05566e-05
7.90358e-05
6.98214e-05
6.24034e-05
5.71422e-05
5.319e-05
4.98396e-05
4.66104e-05
4.3895e-05
4.13957e-05
3.90038e-05
3.66598e-05
3.43432e-05
3.20413e-05
2.96358e-05
5.33396e-06
5.33396e-06
5.47276e-06
4.67182e-06
2.99493e-06
1.97968e-06
3.73463e-06
3.71456e-06
3.65173e-06
3.62366e-06
3.64245e-06
3.66061e-06
3.69496e-06
3.73594e-06
3.78138e-06
3.82926e-06
3.87921e-06
3.93112e-06
3.98473e-06
4.0399e-06
4.09688e-06
4.15818e-06
4.2268e-06
4.31315e-06
4.45074e-06
4.71922e-06
5.23787e-06
6.09004e-06
7.25702e-06
8.64715e-06
1.01757e-05
1.19038e-05
1.34771e-05
1.49903e-05
1.64587e-05
1.78943e-05
1.9286e-05
2.06832e-05
2.20819e-05
2.3366e-05
2.43455e-05
2.48727e-05
2.56112e-05
2.62384e-05
2.67547e-05
2.71891e-05
2.75413e-05
2.78198e-05
2.80252e-05
2.81676e-05
2.82619e-05
2.83275e-05
2.83779e-05
2.84278e-05
2.84882e-05
2.85962e-05
2.89861e-05
2.9074e-05
3.00479e-05
3.06749e-05
3.08814e-05
0.000101376
9.49525e-05
8.93713e-05
8.44698e-05
8.01727e-05
7.64478e-05
7.32358e-05
7.04877e-05
6.81713e-05
6.61524e-05
6.31872e-05
6.12637e-05
5.97533e-05
5.83802e-05
5.69666e-05
5.57924e-05
5.47106e-05
5.35501e-05
5.24708e-05
5.46496e-05
5.66531e-05
5.7077e-05
5.65721e-05
5.5473e-05
5.40342e-05
5.24323e-05
5.07886e-05
4.91879e-05
4.76841e-05
4.63188e-05
4.51294e-05
4.41398e-05
4.33809e-05
4.28663e-05
4.26108e-05
4.35968e-05
3.959e-05
4.32978e-05
4.21705e-05
4.15808e-05
0.00105908
0.000742958
0.000518662
0.000373694
0.000282484
0.00022384
0.000185139
0.000159068
0.000141296
0.000129173
0.000121029
0.000115813
0.000112885
0.000111939
0.000113355
0.000118064
0.000128259
0.000146657
)
;
    }
    frontAndBack
    {
        type            empty;
    }
}


// ************************************************************************* //
