/*--------------------------------*- C++ -*----------------------------------*\
| =========                 |                                                 |
| \\      /  F ield         | OpenFOAM: The Open Source CFD Toolbox           |
|  \\    /   O peration     | Version:  2.4.0                                 |
|   \\  /    A nd           | Web:      www.OpenFOAM.org                      |
|    \\/     M anipulation  |                                                 |
\*---------------------------------------------------------------------------*/
FoamFile
{
    version     2.0;
    format      ascii;
    class       surfaceScalarField;
    location    "7.19";
    object      phi;
}
// * * * * * * * * * * * * * * * * * * * * * * * * * * * * * * * * * * * * * //

dimensions      [0 3 -1 0 0 0 0];

internalField   nonuniform List<scalar> 
11840
(
7.85112e-07
9.21489e-06
-2.03286e-08
8.05441e-07
-4.80748e-08
2.77462e-08
-7.3051e-08
2.49762e-08
-8.37742e-08
1.07232e-08
-8.51704e-08
1.39621e-09
-8.91252e-08
3.95476e-09
-8.8629e-08
-4.96193e-10
-9.10141e-08
2.38508e-09
-9.15524e-08
5.38381e-10
-9.42817e-08
2.72929e-09
-9.68095e-08
2.52773e-09
-1.01222e-07
4.41234e-09
-1.06411e-07
5.18912e-09
-1.13365e-07
6.9544e-09
-1.21594e-07
8.22828e-09
-1.31547e-07
9.95354e-09
-1.43024e-07
1.14763e-08
-1.56216e-07
1.31927e-08
-1.71025e-07
1.48086e-08
-1.87479e-07
1.64538e-08
-2.05442e-07
1.79638e-08
-2.24779e-07
1.93365e-08
-2.45222e-07
2.04434e-08
-2.66446e-07
2.12239e-08
-2.88028e-07
2.15822e-08
-3.09479e-07
2.145e-08
-3.30211e-07
2.07322e-08
-3.49546e-07
1.93352e-08
-3.66719e-07
1.71733e-08
-3.809e-07
1.41807e-08
-3.91203e-07
1.03034e-08
-3.96724e-07
5.52055e-09
-3.96608e-07
-1.15896e-10
-3.89948e-07
-6.65984e-09
-3.75985e-07
-1.39629e-08
-3.54065e-07
-2.19198e-08
-3.23612e-07
-3.04533e-08
-2.84317e-07
-3.92947e-08
-2.3588e-07
-4.84375e-08
-1.78554e-07
-5.73256e-08
-1.12591e-07
-6.59632e-08
-3.95881e-08
-7.3003e-08
3.67959e-08
-7.6384e-08
1.10835e-07
-7.4039e-08
1.85199e-07
-7.43642e-08
2.56921e-07
-7.17219e-08
3.30324e-07
-7.34035e-08
3.9692e-07
-6.65954e-08
4.67754e-07
-7.08339e-08
5.23391e-07
-5.56374e-08
5.91931e-07
-6.85394e-08
6.2851e-07
-3.65799e-08
7.00815e-07
-7.23041e-08
7.06133e-07
-5.31842e-09
7.99213e-07
-9.308e-08
7.54252e-07
4.49607e-08
9.07457e-07
-1.53205e-07
7.87455e-07
1.20002e-07
-3.99439e-07
1.9181e-06
1.72968e-05
1.02182e-07
2.62136e-06
-7.4336e-08
2.04264e-07
-1.77887e-07
1.28527e-07
-2.09728e-07
4.25641e-08
-2.27243e-07
1.89121e-08
-2.37691e-07
1.44018e-08
-2.42554e-07
4.36712e-09
-2.48752e-07
8.58276e-09
-2.53335e-07
5.12196e-09
-2.6074e-07
1.01344e-08
-2.69265e-07
1.10525e-08
-2.8143e-07
1.65771e-08
-2.96464e-07
2.02238e-08
-3.15599e-07
2.60892e-08
-3.38474e-07
3.11025e-08
-3.65638e-07
3.7118e-08
-3.96916e-07
4.27548e-08
-4.32496e-07
4.87721e-08
-4.72196e-07
5.45088e-08
-5.15891e-07
6.01493e-08
-5.63184e-07
6.52563e-08
-6.13555e-07
6.97075e-08
-6.66219e-07
7.31078e-08
-7.20204e-07
7.52089e-08
-7.74328e-07
7.57063e-08
-8.27237e-07
7.43588e-08
-8.77367e-07
7.08617e-08
-9.22946e-07
6.49149e-08
-9.62031e-07
5.62582e-08
-9.9255e-07
4.46996e-08
-1.01234e-06
3.00973e-08
-1.01925e-06
1.24252e-08
-1.01112e-06
-8.24705e-09
-9.86011e-07
-3.17661e-08
-9.42072e-07
-5.79016e-08
-8.77771e-07
-8.62214e-08
-7.91809e-07
-1.16415e-07
-6.83367e-07
-1.47737e-07
-5.51866e-07
-1.79938e-07
-3.97691e-07
-2.11501e-07
-2.22067e-07
-2.41588e-07
-2.89952e-08
-2.66074e-07
1.68393e-07
-2.73773e-07
3.59792e-07
-2.65437e-07
5.49888e-07
-2.6446e-07
7.35026e-07
-2.5686e-07
9.18766e-07
-2.57143e-07
1.09107e-06
-2.38903e-07
1.26248e-06
-2.42239e-07
1.41138e-06
-2.04541e-07
1.56691e-06
-2.24062e-07
1.68058e-06
-1.50251e-07
1.82485e-06
-2.16582e-07
1.88931e-06
-6.97726e-08
2.04216e-06
-2.45935e-07
2.04049e-06
4.66311e-08
2.25745e-06
-3.70166e-07
2.17582e-06
2.01634e-07
-1.04491e-06
2.91716e-06
2.43796e-05
3.96465e-07
5.14206e-06
-4.05373e-08
6.41267e-07
-2.39366e-07
3.27356e-07
-3.02468e-07
1.05666e-07
-3.44182e-07
6.06265e-08
-3.64177e-07
3.4397e-08
-3.78123e-07
1.8313e-08
-3.89403e-07
1.98624e-08
-3.99767e-07
1.54857e-08
-4.12331e-07
2.26988e-08
-4.27459e-07
2.61809e-08
-4.47266e-07
3.6384e-08
-4.7195e-07
4.49077e-08
-5.02588e-07
5.67269e-08
-5.39216e-07
6.77301e-08
-5.82286e-07
8.01886e-08
-6.31732e-07
9.22011e-08
-6.87616e-07
1.04655e-07
-7.49668e-07
1.16561e-07
-8.17519e-07
1.28e-07
-8.90464e-07
1.38202e-07
-9.67536e-07
1.46779e-07
-1.04739e-06
1.52965e-07
-1.12839e-06
1.56205e-07
-1.20858e-06
1.55901e-07
-1.28578e-06
1.51553e-07
-1.35749e-06
1.42569e-07
-1.42094e-06
1.28372e-07
-1.47318e-06
1.08491e-07
-1.51107e-06
8.25952e-08
-1.53145e-06
5.04766e-08
-1.53118e-06
1.2151e-08
-1.50725e-06
-3.21767e-08
-1.45696e-06
-8.20562e-08
-1.37789e-06
-1.36973e-07
-1.26809e-06
-1.96016e-07
-1.12611e-06
-2.58399e-07
-9.51187e-07
-3.22657e-07
-7.43285e-07
-3.8784e-07
-5.03807e-07
-4.50979e-07
-2.36289e-07
-5.09106e-07
5.16342e-08
-5.53998e-07
3.4297e-07
-5.65109e-07
6.29622e-07
-5.5209e-07
9.16016e-07
-5.50854e-07
1.19813e-06
-5.38973e-07
1.47589e-06
-5.34907e-07
1.74097e-06
-5.03984e-07
1.99814e-06
-4.99401e-07
2.23148e-06
-4.37887e-07
2.45936e-06
-4.51943e-07
2.64747e-06
-3.38357e-07
2.84623e-06
-4.15347e-07
2.97718e-06
-2.00725e-07
3.16281e-06
-4.31564e-07
3.22849e-06
-1.90488e-08
3.45821e-06
-5.99877e-07
3.47241e-06
1.87432e-07
-1.77554e-06
3.80889e-06
3.05707e-05
8.13209e-07
8.13774e-06
5.2439e-08
1.40204e-06
-2.5331e-07
6.33104e-07
-3.61938e-07
2.14294e-07
-4.33776e-07
1.32464e-07
-4.68299e-07
6.89195e-08
-4.94016e-07
4.40308e-08
-5.1257e-07
3.84157e-08
-5.29932e-07
3.28484e-08
-5.48558e-07
4.13246e-08
-5.70613e-07
4.82359e-08
-5.9809e-07
6.38604e-08
-6.32015e-07
7.88331e-08
-6.7343e-07
9.81423e-08
-7.22683e-07
1.16983e-07
-7.80152e-07
1.37657e-07
-8.45802e-07
1.57852e-07
-9.19538e-07
1.78391e-07
-1.00093e-06
1.97948e-07
-1.08929e-06
2.16367e-07
-1.18355e-06
2.32464e-07
-1.28224e-06
2.45469e-07
-1.38343e-06
2.54148e-07
-1.48477e-06
2.57549e-07
-1.58359e-06
2.54725e-07
-1.67691e-06
2.44867e-07
-1.7614e-06
2.27064e-07
-1.83348e-06
2.00451e-07
-1.88935e-06
1.64361e-07
-1.92514e-06
1.18381e-07
-1.93698e-06
6.23163e-08
-1.92116e-06
-3.66494e-09
-1.87429e-06
-7.90474e-08
-1.79341e-06
-1.6294e-07
-1.67607e-06
-2.54316e-07
-1.5205e-06
-3.51581e-07
-1.32572e-06
-4.53183e-07
-1.09173e-06
-5.56641e-07
-8.19764e-07
-6.59809e-07
-5.12921e-07
-7.57823e-07
-1.77236e-07
-8.4479e-07
1.77119e-07
-9.08353e-07
5.36221e-07
-9.24211e-07
8.96867e-07
-9.12736e-07
1.26074e-06
-9.14724e-07
1.62293e-06
-9.0117e-07
1.97985e-06
-8.91824e-07
2.32406e-06
-8.48197e-07
2.65527e-06
-8.30605e-07
2.96171e-06
-7.44328e-07
3.25327e-06
-7.435e-07
3.50583e-06
-5.90917e-07
3.75398e-06
-6.63498e-07
3.94117e-06
-3.87921e-07
4.15908e-06
-6.49466e-07
4.27814e-06
-1.38114e-07
4.5236e-06
-8.45333e-07
4.61453e-06
9.65038e-08
-2.53528e-06
4.61529e-06
3.59554e-05
1.32415e-06
1.14289e-05
2.12443e-07
2.51374e-06
-2.18534e-07
1.06408e-06
-3.86941e-07
3.82701e-07
-4.95196e-07
2.4072e-07
-5.49336e-07
1.23059e-07
-5.89688e-07
8.43833e-08
-6.17749e-07
6.6477e-08
-6.43394e-07
5.84934e-08
-6.68971e-07
6.69014e-08
-6.98265e-07
7.75291e-08
-7.33371e-07
9.89671e-08
-7.76045e-07
1.21507e-07
-8.27376e-07
1.49473e-07
-8.8795e-07
1.77557e-07
-9.5807e-07
2.07778e-07
-1.03767e-06
2.37447e-07
-1.12643e-06
2.67158e-07
-1.22369e-06
2.95211e-07
-1.32841e-06
3.21084e-07
-1.43906e-06
3.43112e-07
-1.55362e-06
3.60033e-07
-1.66956e-06
3.70084e-07
-1.78388e-06
3.71864e-07
-1.89321e-06
3.64057e-07
-1.99389e-06
3.45551e-07
-2.08197e-06
3.15142e-07
-2.15325e-06
2.71731e-07
-2.20344e-06
2.14549e-07
-2.22828e-06
1.4322e-07
-2.22367e-06
5.77075e-08
-2.18585e-06
-4.14856e-08
-2.11155e-06
-1.53348e-07
-1.99809e-06
-2.76392e-07
-1.84352e-06
-4.08889e-07
-1.64672e-06
-5.4838e-07
-1.40754e-06
-6.9236e-07
-1.12701e-06
-8.37173e-07
-8.07572e-07
-9.79249e-07
-4.53594e-07
-1.1118e-06
-7.23798e-08
-1.226e-06
3.25686e-07
-1.30642e-06
7.32096e-07
-1.33062e-06
1.14734e-06
-1.32798e-06
1.56978e-06
-1.33717e-06
1.99408e-06
-1.32547e-06
2.41406e-06
-1.31181e-06
2.82306e-06
-1.2572e-06
3.21642e-06
-1.22396e-06
3.58562e-06
-1.11353e-06
3.93301e-06
-1.09088e-06
4.24264e-06
-9.00553e-07
4.5358e-06
-9.56657e-07
4.77278e-06
-6.249e-07
5.02195e-06
-8.98631e-07
5.18526e-06
-3.01423e-07
5.44785e-06
-1.10793e-06
5.59799e-06
-5.3639e-08
-3.28461e-06
5.34676e-06
4.06087e-05
1.90184e-06
1.48738e-05
4.47637e-07
3.96794e-06
-1.33889e-07
1.64561e-06
-3.76308e-07
6.25121e-07
-5.27611e-07
3.92022e-07
-6.06595e-07
2.02044e-07
-6.64635e-07
1.42423e-07
-7.04498e-07
1.0634e-07
-7.39781e-07
9.37763e-08
-7.73199e-07
1.00319e-07
-8.10034e-07
1.14364e-07
-8.5267e-07
1.41603e-07
-9.03512e-07
1.72349e-07
-9.6376e-07
2.09721e-07
-1.03417e-06
2.4797e-07
-1.11497e-06
2.88572e-07
-1.20596e-06
3.28438e-07
-1.30659e-06
3.67787e-07
-1.41586e-06
4.04485e-07
-1.53232e-06
4.37546e-07
-1.65396e-06
4.64753e-07
-1.77822e-06
4.84293e-07
-1.90198e-06
4.93844e-07
-2.02168e-06
4.9156e-07
-2.13342e-06
4.75799e-07
-2.23308e-06
4.45213e-07
-2.31634e-06
3.984e-07
-2.37876e-06
3.34149e-07
-2.41595e-06
2.51736e-07
-2.4237e-06
1.50979e-07
-2.39816e-06
3.21629e-08
-2.33594e-06
-1.03711e-07
-2.23424e-06
-2.55043e-07
-2.09095e-06
-4.19686e-07
-1.90471e-06
-5.95122e-07
-1.6751e-06
-7.77997e-07
-1.40264e-06
-9.64823e-07
-1.089e-06
-1.15081e-06
-7.37291e-07
-1.33096e-06
-3.52323e-07
-1.49677e-06
5.84789e-08
-1.63681e-06
4.85802e-07
-1.73374e-06
9.25512e-07
-1.77033e-06
1.37962e-06
-1.78209e-06
1.8439e-06
-1.80144e-06
2.31295e-06
-1.79452e-06
2.77927e-06
-1.77813e-06
3.23711e-06
-1.71504e-06
3.67882e-06
-1.66568e-06
4.09874e-06
-1.53345e-06
4.49276e-06
-1.4849e-06
4.85214e-06
-1.25994e-06
5.18555e-06
-1.29006e-06
5.46859e-06
-9.07937e-07
5.7474e-06
-1.17744e-06
5.95153e-06
-5.05554e-07
6.23052e-06
-1.38691e-06
6.42855e-06
-2.51677e-07
-3.99657e-06
6.0088e-06
4.45999e-05
2.52338e-06
1.83592e-05
7.56396e-07
5.73493e-06
-2.60098e-09
2.4046e-06
-3.28861e-07
9.5138e-07
-5.30106e-07
5.93267e-07
-6.39342e-07
3.1128e-07
-7.18329e-07
2.2141e-07
-7.72374e-07
1.60385e-07
-8.18737e-07
1.4014e-07
-8.609e-07
1.42482e-07
-9.05578e-07
1.59042e-07
-9.5559e-07
1.91615e-07
-1.01394e-06
2.30701e-07
-1.08198e-06
2.77759e-07
-1.16059e-06
3.26577e-07
-1.24987e-06
3.77852e-07
-1.34947e-06
4.28039e-07
-1.45853e-06
4.76852e-07
-1.57571e-06
5.21665e-07
-1.69912e-06
5.60951e-07
-1.82628e-06
5.91915e-07
-1.95416e-06
6.12175e-07
-2.0792e-06
6.18881e-07
-2.19745e-06
6.09809e-07
-2.30474e-06
5.83088e-07
-2.39678e-06
5.37254e-07
-2.46922e-06
4.70838e-07
-2.51772e-06
3.82656e-07
-2.53815e-06
2.72164e-07
-2.52667e-06
1.39493e-07
-2.47985e-06
-1.46514e-08
-2.39483e-06
-1.88732e-07
-2.26929e-06
-3.80586e-07
-2.10156e-06
-5.87412e-07
-1.89077e-06
-8.05917e-07
-1.63686e-06
-1.0319e-06
-1.34075e-06
-1.26094e-06
-1.00436e-06
-1.48719e-06
-6.3101e-07
-1.70431e-06
-2.25495e-07
-1.90228e-06
2.05168e-07
-2.06747e-06
6.5307e-07
-2.18164e-06
1.11672e-06
-2.23398e-06
1.59816e-06
-2.26353e-06
2.09142e-06
-2.2947e-06
2.59119e-06
-2.29429e-06
3.0894e-06
-2.27634e-06
3.58117e-06
-2.20681e-06
4.05725e-06
-2.14176e-06
4.51436e-06
-1.99056e-06
4.94381e-06
-1.91435e-06
5.3431e-06
-1.65923e-06
5.70978e-06
-1.65674e-06
6.03394e-06
-1.2321e-06
6.33909e-06
-1.4826e-06
6.58303e-06
-7.49493e-07
6.87583e-06
-1.67972e-06
7.11615e-06
-4.91991e-07
-4.65372e-06
6.60527e-06
4.79946e-05
3.16978e-06
2.17947e-05
1.13508e-06
7.76963e-06
1.93094e-07
3.34659e-06
-2.43332e-07
1.38781e-06
-5.0165e-07
8.51585e-07
-6.46755e-07
4.56385e-07
-7.5017e-07
3.24825e-07
-8.20889e-07
2.31103e-07
-8.79881e-07
1.99132e-07
-9.31728e-07
1.94328e-07
-9.84568e-07
2.11883e-07
-1.04177e-06
2.48813e-07
-1.10691e-06
2.9584e-07
-1.18151e-06
3.52364e-07
-1.26655e-06
4.11617e-07
-1.36201e-06
4.73312e-07
-1.46734e-06
5.33368e-07
-1.58138e-06
5.90889e-07
-1.70243e-06
6.42722e-07
-1.82824e-06
6.8676e-07
-1.95597e-06
7.19646e-07
-2.08226e-06
7.38467e-07
-2.20331e-06
7.39928e-07
-2.31503e-06
7.21527e-07
-2.41323e-06
6.81291e-07
-2.49373e-06
6.17752e-07
-2.55238e-06
5.29486e-07
-2.58516e-06
4.15434e-07
-2.58829e-06
2.75299e-07
-2.55837e-06
1.09572e-07
-2.49242e-06
-8.06051e-08
-2.38793e-06
-2.93223e-07
-2.24291e-06
-5.25603e-07
-2.05601e-06
-7.74313e-07
-1.82659e-06
-1.03533e-06
-1.55483e-06
-1.30367e-06
-1.24176e-06
-1.57401e-06
-8.89415e-07
-1.83954e-06
-5.01084e-07
-2.09264e-06
-8.13972e-08
-2.32197e-06
3.63232e-07
-2.5121e-06
8.2622e-07
-2.64463e-06
1.30734e-06
-2.71509e-06
1.80791e-06
-2.7641e-06
2.32096e-06
-2.80776e-06
2.84123e-06
-2.81456e-06
3.36048e-06
-2.79559e-06
3.87448e-06
-2.7208e-06
4.37326e-06
-2.64054e-06
4.85535e-06
-2.47265e-06
5.30921e-06
-2.36821e-06
5.73726e-06
-2.08728e-06
6.12855e-06
-2.04803e-06
6.48589e-06
-1.58944e-06
6.81191e-06
-1.80862e-06
7.09261e-06
-1.0302e-06
7.39505e-06
-1.98215e-06
7.67406e-06
-7.71003e-07
-5.24584e-06
7.13973e-06
5.08549e-05
3.8252e-06
2.51092e-05
1.57689e-06
1.00179e-05
4.37982e-07
4.4855e-06
-1.17801e-07
1.94359e-06
-4.41057e-07
1.17484e-06
-6.27901e-07
6.4323e-07
-7.59454e-07
4.56378e-07
-8.49487e-07
3.21136e-07
-9.22783e-07
2.72429e-07
-9.85315e-07
2.5686e-07
-1.04667e-06
2.73242e-07
-1.11086e-06
3.13002e-07
-1.18205e-06
3.67026e-07
-1.26196e-06
4.32278e-07
-1.35167e-06
5.01318e-07
-1.45103e-06
5.72677e-07
-1.55933e-06
6.4167e-07
-1.67515e-06
7.06708e-07
-1.79653e-06
7.64101e-07
-1.92094e-06
8.1117e-07
-2.04534e-06
8.44045e-07
-2.16623e-06
8.59354e-07
-2.27976e-06
8.53456e-07
-2.3819e-06
8.2367e-07
-2.46863e-06
7.68019e-07
-2.53599e-06
6.85114e-07
-2.58014e-06
5.73639e-07
-2.5974e-06
4.32693e-07
-2.58435e-06
2.6225e-07
-2.53793e-06
6.31524e-08
-2.45547e-06
-1.63065e-07
-2.3347e-06
-4.13989e-07
-2.17386e-06
-6.86451e-07
-1.97176e-06
-9.76412e-07
-1.72792e-06
-1.27916e-06
-1.44262e-06
-1.58897e-06
-1.11695e-06
-1.89967e-06
-7.5294e-07
-2.20355e-06
-3.53817e-07
-2.49177e-06
7.60313e-08
-2.75182e-06
5.30826e-07
-2.96689e-06
1.00511e-06
-3.11891e-06
1.49901e-06
-3.209e-06
2.01285e-06
-3.27794e-06
2.53915e-06
-3.33405e-06
3.07269e-06
-3.34811e-06
3.60527e-06
-3.32817e-06
4.13306e-06
-3.24859e-06
4.6459e-06
-3.15338e-06
5.14349e-06
-2.97025e-06
5.61273e-06
-2.83744e-06
6.05957e-06
-2.53411e-06
6.46714e-06
-2.45561e-06
6.84841e-06
-1.97071e-06
7.18885e-06
-2.14906e-06
7.50001e-06
-1.34136e-06
7.80705e-06
-2.28918e-06
8.11979e-06
-1.08374e-06
-5.76894e-06
7.61599e-06
5.32389e-05
4.47648e-06
2.82488e-05
2.07305e-06
1.24214e-05
7.37668e-07
5.82088e-06
4.98222e-08
2.63143e-06
-3.47003e-07
1.57167e-06
-5.81731e-07
8.77958e-07
-7.45356e-07
6.20002e-07
-8.57519e-07
4.33299e-07
-9.46948e-07
3.61858e-07
-1.02126e-06
3.31175e-07
-1.09157e-06
3.43555e-07
-1.16261e-06
3.84035e-07
-1.23915e-06
4.43567e-07
-1.32318e-06
5.16314e-07
-1.4159e-06
5.94034e-07
-1.51712e-06
6.73897e-07
-1.626e-06
7.5055e-07
-1.74095e-06
8.21658e-07
-1.85986e-06
8.83008e-07
-1.98006e-06
9.31371e-07
-2.09845e-06
9.62434e-07
-2.21153e-06
9.72439e-07
-2.31556e-06
9.57483e-07
-2.40667e-06
9.14784e-07
-2.48107e-06
8.4242e-07
-2.53508e-06
7.39118e-07
-2.56513e-06
6.03694e-07
-2.56785e-06
4.35413e-07
-2.54011e-06
2.34506e-07
-2.47911e-06
2.14742e-09
-2.38237e-06
-2.59801e-07
-2.2478e-06
-5.48562e-07
-2.07377e-06
-8.6048e-07
-1.85924e-06
-1.19094e-06
-1.60382e-06
-1.53458e-06
-1.30784e-06
-1.88496e-06
-9.72421e-07
-2.23509e-06
-5.99572e-07
-2.57639e-06
-1.92421e-07
-2.89892e-06
2.44899e-07
-3.18914e-06
7.07211e-07
-3.4292e-06
1.18994e-06
-3.60165e-06
1.69308e-06
-3.71213e-06
2.21587e-06
-3.80073e-06
2.75066e-06
-3.86884e-06
3.29231e-06
-3.88976e-06
3.83273e-06
-3.86858e-06
4.36834e-06
-3.78421e-06
4.88904e-06
-3.67408e-06
5.39528e-06
-3.47649e-06
5.87316e-06
-3.31533e-06
6.33101e-06
-2.99196e-06
6.74811e-06
-2.8727e-06
7.1449e-06
-2.3675e-06
7.49383e-06
-2.49799e-06
7.82755e-06
-1.67508e-06
8.13454e-06
-2.59617e-06
8.47384e-06
-1.42305e-06
-6.22432e-06
8.03813e-06
5.52008e-05
5.11288e-06
3.1174e-05
2.61343e-06
1.49208e-05
1.09173e-06
7.34258e-06
2.60844e-07
3.46232e-06
-2.18051e-07
2.05056e-06
-5.07074e-07
1.16698e-06
-7.0692e-07
8.19848e-07
-8.44237e-07
5.70616e-07
-9.51804e-07
4.69425e-07
-1.03914e-06
4.18509e-07
-1.11896e-06
4.23379e-07
-1.19681e-06
4.61877e-07
-1.27814e-06
5.24904e-07
-1.36529e-06
6.03463e-07
-1.45964e-06
6.88381e-07
-1.56103e-06
7.75289e-07
-1.6686e-06
8.58121e-07
-1.78069e-06
9.33749e-07
-1.89514e-06
9.97453e-07
-2.00926e-06
1.04549e-06
-2.11999e-06
1.07317e-06
-2.22395e-06
1.0764e-06
-2.31754e-06
1.05107e-06
-2.39711e-06
9.94358e-07
-2.45911e-06
9.04419e-07
-2.5001e-06
7.80112e-07
-2.51679e-06
6.20381e-07
-2.50603e-06
4.24654e-07
-2.46492e-06
1.93399e-07
-2.39087e-06
-7.1911e-08
-2.28153e-06
-3.6914e-07
-2.13493e-06
-6.95159e-07
-1.94958e-06
-1.04583e-06
-1.72453e-06
-1.41599e-06
-1.45948e-06
-1.79963e-06
-1.15477e-06
-2.18967e-06
-8.11566e-07
-2.57829e-06
-4.3183e-07
-2.95613e-06
-1.85929e-08
-3.31215e-06
4.24267e-07
-3.632e-06
8.92106e-07
-3.89704e-06
1.38104e-06
-4.09058e-06
1.89061e-06
-4.2217e-06
2.41906e-06
-4.32918e-06
2.9588e-06
-4.40858e-06
3.50475e-06
-4.43571e-06
4.04899e-06
-4.41282e-06
4.58813e-06
-4.32334e-06
5.11223e-06
-4.19818e-06
5.62221e-06
-3.98647e-06
6.10384e-06
-3.79696e-06
6.56699e-06
-3.4551e-06
6.98849e-06
-3.29421e-06
7.39408e-06
-2.77309e-06
7.74676e-06
-2.85066e-06
8.09553e-06
-2.02386e-06
8.39889e-06
-2.89953e-06
8.75665e-06
-1.78081e-06
-6.61679e-06
8.41038e-06
5.67904e-05
5.7259e-06
3.38585e-05
3.18725e-06
1.74595e-05
1.49822e-06
9.03161e-06
5.18239e-07
4.4423e-06
-5.2826e-08
2.62163e-06
-4.02638e-07
1.51679e-06
-6.43053e-07
1.06026e-06
-8.08782e-07
7.36345e-07
-9.36702e-07
5.97344e-07
-1.03848e-06
5.20285e-07
-1.12855e-06
5.13454e-07
-1.21335e-06
5.46678e-07
-1.29914e-06
6.10692e-07
-1.38866e-06
6.9298e-07
-1.48359e-06
7.83312e-07
-1.5839e-06
8.75604e-07
-1.68881e-06
9.63024e-07
-1.79666e-06
1.0416e-06
-1.90534e-06
1.10613e-06
-2.01223e-06
1.15238e-06
-2.11438e-06
1.17531e-06
-2.20854e-06
1.17056e-06
-2.29133e-06
1.13386e-06
-2.3593e-06
1.06233e-06
-2.40912e-06
9.54244e-07
-2.4376e-06
8.08584e-07
-2.44163e-06
6.24415e-07
-2.41829e-06
4.01314e-07
-2.36486e-06
1.39974e-07
-2.27889e-06
-1.5788e-07
-2.15817e-06
-4.89868e-07
-2.00082e-06
-8.52504e-07
-1.80548e-06
-1.24118e-06
-1.57127e-06
-1.65019e-06
-1.29795e-06
-2.07295e-06
-9.85922e-07
-2.5017e-06
-6.36345e-07
-2.92787e-06
-2.51154e-07
-3.34132e-06
1.66721e-07
-3.73003e-06
6.13647e-07
-4.07893e-06
1.08543e-06
-4.36882e-06
1.57868e-06
-4.58383e-06
2.09241e-06
-4.73543e-06
2.62396e-06
-4.86074e-06
3.1659e-06
-4.95052e-06
3.71325e-06
-4.98306e-06
4.25829e-06
-4.95786e-06
4.79776e-06
-4.86281e-06
5.32196e-06
-4.72239e-06
5.83209e-06
-4.49659e-06
6.3139e-06
-4.27877e-06
6.77816e-06
-3.91937e-06
7.20031e-06
-3.71635e-06
7.60964e-06
-3.18242e-06
7.9625e-06
-3.20351e-06
8.32005e-06
-2.38141e-06
8.61734e-06
-3.19682e-06
8.98595e-06
-2.14942e-06
-6.9528e-06
8.73701e-06
5.80534e-05
6.30905e-06
3.62864e-05
3.78363e-06
1.99849e-05
1.95361e-06
1.08616e-05
8.23181e-07
5.57272e-06
1.51291e-07
3.29352e-06
-2.66998e-07
1.93508e-06
-5.52511e-07
1.34578e-06
-7.50174e-07
9.34008e-07
-9.00893e-07
7.48063e-07
-1.01876e-06
6.38152e-07
-1.12006e-06
6.1475e-07
-1.2122e-06
6.38825e-07
-1.30237e-06
7.00857e-07
-1.39382e-06
7.84429e-07
-1.48865e-06
8.78143e-07
-1.58705e-06
9.74002e-07
-1.68838e-06
1.06436e-06
-1.79111e-06
1.14433e-06
-1.89321e-06
1.20824e-06
-1.99219e-06
1.25136e-06
-2.08525e-06
1.26837e-06
-2.16932e-06
1.25463e-06
-2.24122e-06
1.20575e-06
-2.2977e-06
1.11881e-06
-2.33565e-06
9.92195e-07
-2.35206e-06
8.24995e-07
-2.34404e-06
6.16392e-07
-2.30883e-06
3.66099e-07
-2.24387e-06
7.50183e-08
-2.14683e-06
-2.54919e-07
-2.0156e-06
-6.21095e-07
-1.84844e-06
-1.01966e-06
-1.64407e-06
-1.44555e-06
-1.4017e-06
-1.89256e-06
-1.12114e-06
-2.35351e-06
-8.02833e-07
-2.82001e-06
-4.47955e-07
-3.28275e-06
-5.84129e-08
-3.73086e-06
3.6297e-07
-4.15141e-06
8.12774e-07
-4.52873e-06
1.28718e-06
-4.84323e-06
1.78316e-06
-5.07981e-06
2.29914e-06
-5.25141e-06
2.83172e-06
-5.39332e-06
3.37367e-06
-5.49247e-06
3.92014e-06
-5.52952e-06
4.46362e-06
-5.50135e-06
5.00095e-06
-5.40013e-06
5.52273e-06
-5.24417e-06
6.0303e-06
-5.00416e-06
6.50958e-06
-4.75804e-06
6.97188e-06
-4.38167e-06
7.39185e-06
-4.13633e-06
7.80117e-06
-3.59175e-06
8.15157e-06
-3.55391e-06
8.51301e-06
-2.74285e-06
8.80262e-06
-3.48643e-06
9.17569e-06
-2.52249e-06
-7.23891e-06
9.02226e-06
5.90311e-05
6.85763e-06
3.84511e-05
4.39202e-06
2.24505e-05
2.45287e-06
1.28008e-05
1.17621e-06
6.84939e-06
3.95393e-07
4.07433e-06
-9.8375e-08
2.42885e-06
-4.33879e-07
1.68128e-06
-6.67286e-07
1.16741e-06
-8.43506e-07
9.24284e-07
-9.79384e-07
7.74031e-07
-1.09314e-06
7.2851e-07
-1.19331e-06
7.38989e-07
-1.28806e-06
7.95613e-07
-1.38132e-06
8.77686e-07
-1.4757e-06
9.72519e-07
-1.57169e-06
1.06999e-06
-1.6689e-06
1.16157e-06
-1.76596e-06
1.24139e-06
-1.86101e-06
1.30329e-06
-1.95171e-06
1.34206e-06
-2.03543e-06
1.35209e-06
-2.1093e-06
1.32851e-06
-2.17033e-06
1.26678e-06
-2.21549e-06
1.16397e-06
-2.24185e-06
1.01856e-06
-2.24659e-06
8.29735e-07
-2.22699e-06
5.96787e-07
-2.18044e-06
3.19552e-07
-2.10455e-06
-8.77925e-10
-1.99706e-06
-3.62399e-07
-1.856e-06
-7.62159e-07
-1.67973e-06
-1.19594e-06
-1.46705e-06
-1.65823e-06
-1.21727e-06
-2.14234e-06
-9.30262e-07
-2.64052e-06
-6.06493e-07
-3.14378e-06
-2.47163e-07
-3.64208e-06
1.45845e-07
-4.12387e-06
5.6981e-07
-4.57538e-06
1.0215e-06
-4.98042e-06
1.49738e-06
-5.31911e-06
1.99469e-06
-5.57712e-06
2.51131e-06
-5.76803e-06
3.04321e-06
-5.92522e-06
3.58339e-06
-6.03265e-06
4.12711e-06
-6.07324e-06
4.66713e-06
-6.04138e-06
5.20036e-06
-5.93335e-06
5.71771e-06
-5.76153e-06
6.22061e-06
-5.50706e-06
6.69525e-06
-5.23268e-06
7.15323e-06
-4.83965e-06
7.56887e-06
-4.55197e-06
7.97537e-06
-3.99825e-06
8.32132e-06
-3.89986e-06
8.68292e-06
-3.10444e-06
8.9638e-06
-3.76731e-06
9.3363e-06
-2.89499e-06
-7.48107e-06
9.27024e-06
5.97609e-05
7.36852e-06
4.03528e-05
5.00258e-06
2.48164e-05
2.9897e-06
1.48137e-05
1.57676e-06
8.26233e-06
6.81292e-07
4.9698e-06
1.05108e-07
3.00503e-06
-2.85576e-07
2.07196e-06
-5.58823e-07
1.44066e-06
-7.63505e-07
1.12897e-06
-9.19603e-07
9.30129e-07
-1.04736e-06
8.56268e-07
-1.15651e-06
8.48136e-07
-1.25637e-06
8.95475e-07
-1.3516e-06
9.72918e-07
-1.44546e-06
1.06637e-06
-1.53883e-06
1.16337e-06
-1.63165e-06
1.25439e-06
-1.72276e-06
1.3325e-06
-1.81051e-06
1.39104e-06
-1.89273e-06
1.42428e-06
-1.967e-06
1.42636e-06
-2.03066e-06
1.39216e-06
-2.0809e-06
1.31702e-06
-2.1149e-06
1.19798e-06
-2.12992e-06
1.03358e-06
-2.12331e-06
8.2312e-07
-2.09249e-06
5.65971e-07
-2.03503e-06
2.62091e-07
-1.94865e-06
-8.72645e-08
-1.8312e-06
-4.79844e-07
-1.68081e-06
-9.12548e-07
-1.49596e-06
-1.38079e-06
-1.27556e-06
-1.87864e-06
-1.01897e-06
-2.39893e-06
-7.26137e-07
-2.93335e-06
-3.9757e-07
-3.47234e-06
-3.4485e-08
-4.00516e-06
3.61255e-07
-4.51961e-06
7.87021e-07
-5.00114e-06
1.23973e-06
-5.43312e-06
1.71609e-06
-5.79547e-06
2.21351e-06
-6.07454e-06
2.72936e-06
-6.28389e-06
3.25912e-06
-6.45498e-06
3.79602e-06
-6.56955e-06
4.33545e-06
-6.61267e-06
4.87043e-06
-6.57635e-06
5.39792e-06
-6.46085e-06
5.90921e-06
-6.27281e-06
6.40572e-06
-6.00358e-06
6.87403e-06
-5.70098e-06
7.32583e-06
-5.29145e-06
7.73543e-06
-4.96157e-06
8.13693e-06
-4.39975e-06
8.47691e-06
-4.23984e-06
8.83582e-06
-3.46336e-06
9.10726e-06
-4.03875e-06
9.47534e-06
-3.26306e-06
-7.68437e-06
9.48489e-06
6.0276e-05
7.83995e-06
4.19977e-05
5.6064e-06
2.705e-05
3.55676e-06
1.68633e-05
2.02306e-06
9.79602e-06
1.01043e-06
5.98242e-06
3.45504e-07
3.66996e-06
-1.05896e-07
2.52336e-06
-4.23315e-07
1.75808e-06
-6.59661e-07
1.36531e-06
-8.38489e-07
1.10896e-06
-9.82083e-07
9.99863e-07
-1.10149e-06
9.67539e-07
-1.20726e-06
1.00125e-06
-1.30491e-06
1.07057e-06
-1.39843e-06
1.1599e-06
-1.48921e-06
1.25415e-06
-1.57756e-06
1.34274e-06
-1.66261e-06
1.41755e-06
-1.74295e-06
1.47137e-06
-1.81663e-06
1.49796e-06
-1.88144e-06
1.49117e-06
-1.93492e-06
1.44564e-06
-1.97448e-06
1.35659e-06
-1.99749e-06
1.22099e-06
-2.00138e-06
1.03747e-06
-1.98368e-06
8.05412e-07
-1.94195e-06
5.24247e-07
-1.87391e-06
1.94048e-07
-1.77739e-06
-1.83788e-07
-1.65035e-06
-6.06876e-07
-1.49105e-06
-1.07186e-06
-1.29806e-06
-1.57378e-06
-1.07038e-06
-2.10631e-06
-8.07477e-07
-2.66183e-06
-5.0934e-07
-3.23149e-06
-1.76528e-07
-3.80516e-06
1.89723e-07
-4.37141e-06
5.87568e-07
-4.91746e-06
1.01445e-06
-5.42803e-06
1.46741e-06
-5.88609e-06
1.94335e-06
-6.27141e-06
2.43977e-06
-6.57095e-06
2.95362e-06
-6.79774e-06
3.47999e-06
-6.98134e-06
4.01232e-06
-7.10188e-06
4.54614e-06
-7.14649e-06
5.07472e-06
-7.10493e-06
5.59511e-06
-6.98124e-06
6.09892e-06
-6.77663e-06
6.58763e-06
-6.49228e-06
7.04817e-06
-6.16153e-06
7.49228e-06
-5.73556e-06
7.89445e-06
-5.36373e-06
8.28924e-06
-4.79455e-06
8.62201e-06
-4.5726e-06
8.97604e-06
-3.81739e-06
9.23751e-06
-4.30022e-06
9.59826e-06
-3.62381e-06
-7.85301e-06
9.66995e-06
6.0606e-05
8.27131e-06
4.33964e-05
6.19569e-06
2.91256e-05
4.14605e-06
1.8913e-05
2.51202e-06
1.143e-05
1.38361e-06
7.11084e-06
6.24874e-07
4.4287e-06
1.07084e-07
3.04115e-06
-2.59136e-07
2.1243e-06
-5.30542e-07
1.63672e-06
-7.34894e-07
1.31331e-06
-8.96457e-07
1.16143e-06
-1.02769e-06
1.09877e-06
-1.14046e-06
1.11402e-06
-1.24122e-06
1.17133e-06
-1.33483e-06
1.2535e-06
-1.42324e-06
1.34256e-06
-1.50723e-06
1.42673e-06
-1.58627e-06
1.49659e-06
-1.65922e-06
1.54432e-06
-1.72438e-06
1.56312e-06
-1.77977e-06
1.54656e-06
-1.82315e-06
1.48903e-06
-1.85216e-06
1.38559e-06
-1.86433e-06
1.23316e-06
-1.85729e-06
1.03043e-06
-1.82872e-06
7.76837e-07
-1.77633e-06
4.71864e-07
-1.69798e-06
1.15696e-07
-1.59161e-06
-2.90159e-07
-1.4553e-06
-7.43184e-07
-1.28741e-06
-1.23975e-06
-1.08664e-06
-1.77455e-06
-8.52085e-07
-2.34087e-06
-5.83276e-07
-2.93064e-06
-2.80278e-07
-3.53449e-06
5.63014e-08
-4.14173e-06
4.25209e-07
-4.74032e-06
8.24609e-07
-5.31686e-06
1.252e-06
-5.85542e-06
1.70452e-06
-6.33861e-06
2.17922e-06
-6.74611e-06
2.67364e-06
-7.06537e-06
3.18439e-06
-7.3085e-06
3.70626e-06
-7.50321e-06
4.2329e-06
-7.62852e-06
4.75994e-06
-7.67353e-06
5.28094e-06
-7.62593e-06
5.79302e-06
-7.49332e-06
6.28816e-06
-7.27177e-06
6.76782e-06
-6.97194e-06
7.21938e-06
-6.61309e-06
7.65451e-06
-6.17069e-06
8.04806e-06
-5.75728e-06
8.43474e-06
-5.18123e-06
8.75928e-06
-4.89714e-06
9.10668e-06
-4.16479e-06
9.35775e-06
-4.55129e-06
9.70898e-06
-3.97504e-06
-7.99043e-06
9.82892e-06
6.07771e-05
8.66288e-06
4.45624e-05
6.76386e-06
3.10246e-05
4.74924e-06
2.09276e-05
3.03931e-06
1.314e-05
1.80077e-06
8.34938e-06
9.44897e-07
5.28457e-06
3.55277e-07
3.63077e-06
-6.44479e-08
2.54403e-06
-3.74526e-07
1.94679e-06
-6.07455e-07
1.54624e-06
-7.89393e-07
1.34336e-06
-9.34329e-07
1.24371e-06
-1.05546e-06
1.23515e-06
-1.16029e-06
1.27616e-06
-1.25461e-06
1.34782e-06
-1.34106e-06
1.42901e-06
-1.42095e-06
1.50662e-06
-1.49414e-06
1.56978e-06
-1.55983e-06
1.61e-06
-1.61658e-06
1.61987e-06
-1.66266e-06
1.59264e-06
-1.69607e-06
1.52244e-06
-1.71465e-06
1.40417e-06
-1.71615e-06
1.23466e-06
-1.69837e-06
1.01265e-06
-1.65913e-06
7.37598e-07
-1.59631e-06
4.09045e-07
-1.50788e-06
2.72692e-08
-1.39191e-06
-4.06129e-07
-1.24659e-06
-8.88501e-07
-1.07041e-06
-1.41593e-06
-8.62174e-07
-1.98279e-06
-6.21067e-07
-2.58198e-06
-3.46714e-07
-3.20499e-06
-3.92452e-08
-3.84195e-06
3.00682e-07
-4.48166e-06
6.71794e-07
-5.11143e-06
1.07225e-06
-5.71731e-06
1.4996e-06
-6.28276e-06
1.95104e-06
-6.79005e-06
2.42374e-06
-7.21881e-06
2.91525e-06
-7.55689e-06
3.42192e-06
-7.81516e-06
3.9383e-06
-8.01958e-06
4.45823e-06
-8.14846e-06
4.97747e-06
-8.19277e-06
5.48983e-06
-8.13829e-06
5.99254e-06
-7.99603e-06
6.47792e-06
-7.75715e-06
6.94744e-06
-7.44146e-06
7.38895e-06
-7.0546e-06
7.81398e-06
-6.59572e-06
8.19786e-06
-6.14116e-06
8.57526e-06
-5.55863e-06
8.89068e-06
-5.21256e-06
9.23005e-06
-4.50416e-06
9.47034e-06
-4.79158e-06
9.81039e-06
-4.31509e-06
-8.09948e-06
9.96506e-06
6.08121e-05
9.01576e-06
4.55117e-05
7.30556e-06
3.27348e-05
5.35802e-06
2.28751e-05
3.59942e-06
1.48986e-05
2.26084e-06
9.68796e-06
1.30681e-06
6.2386e-06
6.40502e-07
4.29708e-06
1.62674e-07
3.02185e-06
-1.8984e-07
2.29931e-06
-4.54603e-07
1.811e-06
-6.59561e-07
1.54832e-06
-8.20351e-07
1.4045e-06
-9.5149e-07
1.36629e-06
-1.06158e-06
1.38626e-06
-1.15746e-06
1.44369e-06
-1.24253e-06
1.51408e-06
-1.31874e-06
1.58283e-06
-1.38638e-06
1.63743e-06
-1.44503e-06
1.66865e-06
-1.49355e-06
1.6684e-06
-1.5305e-06
1.62959e-06
-1.5541e-06
1.54605e-06
-1.56243e-06
1.4125e-06
-1.55343e-06
1.22566e-06
-1.52508e-06
9.84302e-07
-1.47538e-06
6.87892e-07
-1.40233e-06
3.35994e-07
-1.30404e-06
-7.10194e-08
-1.17869e-06
-5.31476e-07
-1.02461e-06
-1.04259e-06
-8.4039e-07
-1.60015e-06
-6.24964e-07
-2.19821e-06
-3.7761e-07
-2.82933e-06
-9.80389e-08
-3.48456e-06
2.13551e-07
-4.15354e-06
5.5645e-07
-4.82456e-06
9.29354e-07
-5.48434e-06
1.33041e-06
-6.11837e-06
1.75719e-06
-6.70954e-06
2.20696e-06
-7.23982e-06
2.67696e-06
-7.68881e-06
3.16474e-06
-8.04467e-06
3.66642e-06
-8.31684e-06
4.1764e-06
-8.52956e-06
4.68871e-06
-8.66077e-06
5.19922e-06
-8.70328e-06
5.70199e-06
-8.64106e-06
6.19436e-06
-8.4884e-06
6.66899e-06
-8.23178e-06
7.12738e-06
-7.89985e-06
7.55785e-06
-7.48507e-06
7.9718e-06
-7.00967e-06
8.3451e-06
-6.51446e-06
8.71218e-06
-5.92571e-06
9.01769e-06
-5.51807e-06
9.34786e-06
-4.83433e-06
9.57701e-06
-5.02073e-06
9.90459e-06
-4.64267e-06
-8.18247e-06
1.00814e-05
6.07307e-05
9.3316e-06
4.62615e-05
7.81669e-06
3.42497e-05
5.96436e-06
2.47275e-05
4.1859e-06
1.6677e-05
2.7616e-06
1.11123e-05
1.71124e-06
7.28895e-06
9.64524e-07
5.0438e-06
4.24295e-07
3.56208e-06
2.53628e-08
2.69824e-06
-2.74602e-07
2.11097e-06
-5.05411e-07
1.77913e-06
-6.84464e-07
1.58355e-06
-8.27514e-07
1.50934e-06
-9.44325e-07
1.50307e-06
-1.04283e-06
1.5422e-06
-1.1273e-06
1.59855e-06
-1.20038e-06
1.6559e-06
-1.2629e-06
1.69995e-06
-1.31484e-06
1.72059e-06
-1.3554e-06
1.70896e-06
-1.38344e-06
1.65762e-06
-1.39744e-06
1.56005e-06
-1.39572e-06
1.41077e-06
-1.37642e-06
1.20636e-06
-1.33771e-06
9.45593e-07
-1.27774e-06
6.27921e-07
-1.19466e-06
2.52919e-07
-1.08672e-06
-1.78963e-07
-9.5221e-07
-6.65983e-07
-7.89587e-07
-1.20521e-06
-5.97582e-07
-1.79215e-06
-3.75226e-07
-2.42057e-06
-1.21906e-07
-3.08265e-06
1.62584e-07
-3.76905e-06
4.77973e-07
-4.46893e-06
8.23494e-07
-5.17008e-06
1.1978e-06
-5.85865e-06
1.59903e-06
-6.51959e-06
2.02475e-06
-7.13526e-06
2.47229e-06
-7.68737e-06