/*--------------------------------*- C++ -*----------------------------------*\
| =========                 |                                                 |
| \\      /  F ield         | OpenFOAM: The Open Source CFD Toolbox           |
|  \\    /   O peration     | Version:  2.4.0                                 |
|   \\  /    A nd           | Web:      www.OpenFOAM.org                      |
|    \\/     M anipulation  |                                                 |
\*---------------------------------------------------------------------------*/
FoamFile
{
    version     2.0;
    format      ascii;
    class       volScalarField;
    location    "2.19";
    object      nut;
}
// * * * * * * * * * * * * * * * * * * * * * * * * * * * * * * * * * * * * * //

dimensions      [0 2 -1 0 0 0 0];

internalField   nonuniform List<scalar> 
6000
(
4.70161e-05
1.44323e-05
4.26691e-06
8.77019e-06
7.79618e-06
8.95146e-06
8.61599e-06
9.00217e-06
8.91215e-06
9.23612e-06
9.49312e-06
9.87993e-06
9.84408e-06
9.03392e-06
6.9036e-06
4.51818e-06
6.6176e-06
8.90938e-06
9.36654e-06
7.86502e-06
1.16434e-05
1.98614e-05
2.78748e-05
3.49586e-05
4.07417e-05
4.50577e-05
4.78103e-05
4.8875e-05
4.80479e-05
4.51624e-05
4.00783e-05
3.26796e-05
2.27286e-05
1.16333e-05
1.59021e-05
2.26794e-05
2.66654e-05
2.86107e-05
2.91197e-05
2.86838e-05
2.77177e-05
2.65358e-05
2.53768e-05
2.44196e-05
2.37801e-05
2.35166e-05
2.36202e-05
2.40671e-05
2.47705e-05
2.57093e-05
2.67113e-05
2.78844e-05
2.88296e-05
3.01066e-05
3.05733e-05
3.21906e-05
3.14867e-05
3.4464e-05
3.13628e-05
3.71798e-05
2.94901e-05
9.49906e-06
3.1857e-06
7.01213e-06
6.32989e-06
7.03712e-06
6.81427e-06
7.06228e-06
7.02676e-06
7.26567e-06
7.46455e-06
7.70909e-06
7.62761e-06
6.99259e-06
5.6054e-06
4.67996e-06
6.27805e-06
7.74328e-06
8.26265e-06
8.36188e-06
1.16454e-05
1.65937e-05
2.10868e-05
2.47628e-05
2.75201e-05
2.93581e-05
3.02945e-05
3.03174e-05
2.93951e-05
2.75619e-05
2.48113e-05
2.11438e-05
1.67798e-05
1.37431e-05
1.40205e-05
1.64439e-05
1.8152e-05
1.90287e-05
1.92341e-05
1.8958e-05
1.84092e-05
1.77534e-05
1.71225e-05
1.66158e-05
1.62947e-05
1.61857e-05
1.62776e-05
1.65555e-05
1.69707e-05
1.75058e-05
1.80733e-05
1.87195e-05
1.92533e-05
1.99353e-05
2.02276e-05
2.10516e-05
2.07676e-05
2.22204e-05
2.07702e-05
2.34303e-05
2.1431e-05
8.15496e-06
2.82926e-06
5.89021e-06
5.33484e-06
5.70087e-06
5.5344e-06
5.68791e-06
5.69299e-06
5.88595e-06
6.05692e-06
6.22224e-06
6.14085e-06
5.70153e-06
5.02158e-06
5.20905e-06
6.2254e-06
7.27341e-06
8.20713e-06
9.65918e-06
1.22272e-05
1.5209e-05
1.77124e-05
1.95472e-05
2.07289e-05
2.13408e-05
2.14719e-05
2.1192e-05
2.0612e-05
1.98158e-05
1.89187e-05
1.81936e-05
1.90227e-05
2.19967e-05
1.48176e-05
1.35332e-05
1.3509e-05
1.3597e-05
1.35428e-05
1.33059e-05
1.29488e-05
1.2547e-05
1.21721e-05
1.18792e-05
1.17004e-05
1.16459e-05
1.1705e-05
1.18686e-05
1.21096e-05
1.24146e-05
1.27414e-05
1.31049e-05
1.3421e-05
1.3796e-05
1.39995e-05
1.44207e-05
1.43548e-05
1.50276e-05
1.4431e-05
1.54602e-05
1.78744e-05
7.96607e-06
2.99993e-06
5.26418e-06
4.71429e-06
4.7876e-06
4.63344e-06
4.71719e-06
4.75512e-06
4.93116e-06
5.10095e-06
5.24001e-06
5.21162e-06
5.02269e-06
5.09004e-06
6.0682e-06
6.57656e-06
7.53111e-06
9.1768e-06
1.15035e-05
1.34185e-05
1.52276e-05
1.66318e-05
1.75768e-05
1.81637e-05
1.8537e-05
1.88466e-05
1.9261e-05
1.98729e-05
2.0836e-05
2.24549e-05
2.5613e-05
3.38193e-05
3.83972e-05
2.05658e-05
1.4224e-05
1.19197e-05
1.09318e-05
1.04112e-05
1.00329e-05
9.69286e-06
9.37818e-06
9.1079e-06
8.90351e-06
8.77688e-06
8.72767e-06
8.74654e-06
8.82706e-06
8.95459e-06
9.11944e-06
9.30316e-06
9.50627e-06
9.69723e-06
9.90697e-06
1.00554e-05
1.02697e-05
1.03056e-05
1.05834e-05
1.04055e-05
1.06179e-05
1.67544e-05
8.4431e-06
3.5456e-06
5.04561e-06
4.41987e-06
4.20864e-06
4.02722e-06
4.05279e-06
4.12041e-06
4.30482e-06
4.50295e-06
4.66977e-06
4.7625e-06
4.91916e-06
5.83902e-06
7.28988e-06
7.4547e-06
8.59865e-06
1.11053e-05
1.38256e-05
1.53548e-05
1.66394e-05
1.77419e-05
1.87752e-05
1.99413e-05
2.14615e-05
2.35755e-05
2.65443e-05
3.02108e-05
3.48636e-05
4.09551e-05
4.98722e-05
6.5206e-05
6.29664e-05
3.47343e-05
2.03497e-05
1.38372e-05
1.07578e-05
9.22154e-06
8.38243e-06
7.85267e-06
7.47884e-06
7.20458e-06
7.00915e-06
6.88145e-06
6.81062e-06
6.78576e-06
6.80101e-06
6.84831e-06
6.92087e-06
7.01211e-06
7.11696e-06
7.22824e-06
7.34325e-06
7.44987e-06
7.55608e-06
7.62803e-06
7.71262e-06
7.7224e-06
7.55374e-06
1.71082e-05
9.39688e-06
4.40142e-06
5.1567e-06
4.42943e-06
3.91947e-06
3.67041e-06
3.6393e-06
3.73719e-06
3.95638e-06
4.22069e-06
4.48033e-06
4.78872e-06
5.44091e-06
7.32995e-06
8.94172e-06
8.97654e-06
1.05437e-05
1.3826e-05
1.67192e-05
1.82974e-05
1.98249e-05
2.17232e-05
2.43822e-05
2.81967e-05
3.35169e-05
4.06288e-05
4.92648e-05
5.85928e-05
6.86658e-05
7.94309e-05
9.15422e-05
0.000105039
9.2476e-05
5.87684e-05
3.48311e-05
2.10677e-05
1.37877e-05
1.00716e-05
8.16308e-06
7.11436e-06
6.49282e-06
6.10068e-06
5.84369e-06
5.673e-06
5.56018e-06
5.4874e-06
5.4463e-06
5.43111e-06
5.43663e-06
5.46163e-06
5.49962e-06
5.55339e-06
5.60788e-06
5.67739e-06
5.72374e-06
5.79581e-06
5.79023e-06
5.86578e-06
5.54864e-06
1.83891e-05
1.0709e-05
5.52612e-06
5.51721e-06
4.71978e-06
3.90495e-06
3.54532e-06
3.4508e-06
3.58301e-06
3.86873e-06
4.25154e-06
4.69133e-06
5.3512e-06
6.70704e-06
9.5738e-06
1.10867e-05
1.12069e-05
1.33259e-05
1.71822e-05
2.037e-05
2.26266e-05
2.54911e-05
2.99251e-05
3.68046e-05
4.6729e-05
5.97774e-05
7.54875e-05
9.09589e-05
0.000105339
0.00011812
0.000128824
0.000137456
0.000141792
0.000122522
8.86174e-05
5.80975e-05
3.56897e-05
2.15909e-05
1.37277e-05
9.63544e-06
7.48837e-06
6.31775e-06
5.64653e-06
5.23975e-06
4.97822e-06
4.79971e-06
4.67043e-06
4.57454e-06
4.50449e-06
4.45484e-06
4.42595e-06
4.4114e-06
4.41716e-06
4.42563e-06
4.45841e-06
4.46556e-06
4.51834e-06
4.47126e-06
4.55137e-06
4.20274e-06
2.02058e-05
1.22758e-05
6.87626e-06
6.07502e-06
5.2358e-06
4.16275e-06
3.65296e-06
3.48312e-06
3.65743e-06
4.05091e-06
4.62593e-06
5.36723e-06
6.56416e-06
8.84365e-06
1.24778e-05
1.37526e-05
1.41274e-05
1.68104e-05
2.11315e-05
2.50076e-05
2.88046e-05
3.45513e-05
4.40328e-05
5.85896e-05
7.8171e-05
0.00010097
0.000124285
0.000143155
0.000157947
0.000168431
0.000174553
0.000176454
0.000171717
0.000149946
0.00011829
8.57258e-05
5.6995e-05
3.52869e-05
2.13157e-05
1.34463e-05
9.26035e-06
7.04439e-06
5.83844e-06
5.14923e-06
4.72773e-06
4.44802e-06
4.24548e-06
4.08869e-06
3.96331e-06
3.86111e-06
3.78145e-06
3.71803e-06
3.67709e-06
3.64236e-06
3.63517e-06
3.60812e-06
3.62996e-06
3.55968e-06
3.61538e-06
3.28678e-06
2.22472e-05
1.39966e-05
8.39967e-06
6.82307e-06
5.89465e-06
4.67784e-06
4.00051e-06
3.74565e-06
3.97496e-06
4.53059e-06
5.39817e-06
6.60155e-06
8.55124e-06
1.18736e-05
1.58813e-05
1.69234e-05
1.76501e-05
2.08595e-05
2.57361e-05
3.08703e-05
3.72999e-05
4.78599e-05
6.51935e-05
9.01232e-05
0.000120021
0.00015006
0.000175979
0.000193656
0.000204973
0.000210452
0.000210697
0.000206192
0.000195282
0.000173286
0.000144304
0.000112464
8.10188e-05
5.36527e-05
3.32471e-05
2.02795e-05
1.28996e-05
8.92155e-06
6.79047e-06
5.61463e-06
4.92686e-06
4.48999e-06
4.18491e-06
3.9519e-06
3.7629e-06
3.60303e-06
3.46831e-06
3.3517e-06
3.2586e-06
3.17515e-06
3.12052e-06
3.05431e-06
3.03546e-06
2.94308e-06
2.96041e-06
2.66743e-06
2.42788e-05
1.57775e-05
1.00372e-05
7.76408e-06
6.63867e-06
5.39798e-06
4.58065e-06
4.24748e-06
4.55274e-06
5.33944e-06
6.62494e-06
8.47608e-06
1.13613e-05
1.56414e-05
1.96356e-05
2.05545e-05
2.16724e-05
2.54052e-05
3.11003e-05
3.81693e-05
4.84727e-05
6.58123e-05
9.29948e-05
0.000128464
0.000165932
0.000198744
0.000222976
0.000236802
0.000243035
0.000242906
0.000237596
0.00022795
0.000213501
0.00019214
0.000165637
0.000135614
0.00010395
7.36907e-05
4.83536e-05
3.01728e-05
1.8772e-05
1.22595e-05
8.69879e-06
6.74961e-06
5.64037e-06
4.96232e-06
4.50871e-06
4.17335e-06
3.90428e-06
3.67444e-06
3.47346e-06
3.29204e-06
3.13434e-06
2.98896e-06
2.87356e-06
2.7552e-06
2.68351e-06
2.55948e-06
2.52908e-06
2.2685e-06
2.6149e-05
1.75379e-05
1.17277e-05
8.88405e-06
7.46215e-06
6.24108e-06
5.35188e-06
4.97634e-06
5.39008e-06
6.48786e-06
8.32717e-06
1.09975e-05
1.489e-05
1.98664e-05
2.36471e-05
2.4597e-05
2.61252e-05
3.04492e-05
3.73245e-05
4.70508e-05
6.24474e-05
8.80334e-05
0.000125397
0.000169272
0.000210609
0.000242822
0.00026319
0.000272133
0.0002729
0.000267307
0.000257042
0.000243424
0.000227055
0.00020658
0.000182335
0.00015452
0.000123951
9.28614e-05
6.46041e-05
4.22277e-05
2.67701e-05
1.72288e-05
1.1754e-05
8.69974e-06
6.97148e-06
5.93979e-06
5.27403e-06
4.79943e-06
4.42658e-06
4.10846e-06
3.82398e-06
3.55923e-06
3.31684e-06
3.08771e-06
2.89006e-06
2.69778e-06
2.5549e-06
2.38111e-06
2.29171e-06
2.05066e-06
2.77818e-05
1.92155e-05
1.3414e-05
1.01495e-05
8.38776e-06
7.14334e-06
6.24388e-06
5.88296e-06
6.44726e-06
7.93621e-06
1.04497e-05
1.40491e-05
1.88868e-05
2.42774e-05
2.78729e-05
2.90155e-05
3.0986e-05
3.60292e-05
4.44799e-05
5.756e-05
7.90325e-05
0.000113439
0.000159811
0.000209259
0.000251625
0.000281426
0.000297082
0.00030084
0.000296155
0.00028536
0.000270604
0.000253939
0.000236428
0.00021685
0.000194724
0.000169315
0.000140559
0.000109919
8.03523e-05
5.5138e-05
3.62574e-05
2.36781e-05
1.60103e-05
1.15681e-05
9.01922e-06
7.50844e-06
6.55633e-06
5.89955e-06
5.39616e-06
4.96939e-06
4.58147e-06
4.21033e-06
3.85633e-06
3.51259e-06
3.20083e-06
2.90191e-06
2.65949e-06
2.40825e-06
2.24191e-06
2.00191e-06
2.9157e-05
2.07679e-05
1.5047e-05
1.15146e-05
9.43025e-06
8.08959e-06
7.19325e-06
6.89173e-06
7.64286e-06
9.58455e-06
1.28507e-05
1.74062e-05
2.3056e-05
2.87024e-05
3.22994e-05
3.37933e-05
3.62665e-05
4.21881e-05
5.25948e-05
6.96193e-05
9.77445e-05
0.000140651
0.000194163
0.00024678
0.000288437
0.000315006
0.000325674
0.000324196
0.000314155
0.000298365
0.000279461
0.000260436
0.000242029
0.000223263
0.000203159
0.000180305
0.000153846
0.000124488
9.47285e-05
6.78425e-05
4.63992e-05
3.11566e-05
2.13037e-05
1.5334e-05
1.18181e-05
9.7216e-06
8.41577e-06
7.53881e-06
6.88363e-06
6.33365e-06
5.82713e-06
5.32866e-06
4.83437e-06
4.33912e-06
3.8716e-06
3.42109e-06
3.0377e-06
2.66915e-06
2.39724e-06
2.135e-06
3.02881e-05
2.2171e-05
1.65889e-05
1.29291e-05
1.05852e-05
9.09752e-06
8.17443e-06
7.93622e-06
8.88132e-06
1.12977e-05
1.53391e-05
2.08159e-05
2.71672e-05
3.30712e-05
3.69234e-05
3.89274e-05
4.19939e-05
4.89558e-05
6.16462e-05
8.30327e-05
0.000117931
0.000168419
0.000227203
0.000281286
0.000321257
0.000344156
0.000349867
0.000343178
0.000327874
0.000307246
0.000284603
0.000263516
0.000244254
0.000226161
0.000207981
0.000187787
0.000163997
0.000136544
0.000107397
7.9725e-05
5.65057e-05
3.91164e-05
2.72979e-05
1.98257e-05
1.52925e-05
1.25549e-05
1.08563e-05
9.74018e-06
8.9283e-06
8.25644e-06
7.63141e-06
6.99793e-06
6.34386e-06
5.66364e-06
4.99566e-06
4.33984e-06
3.76133e-06
3.22186e-06
2.80227e-06
2.48874e-06
3.12044e-05
2.34155e-05
1.80132e-05
1.4344e-05
1.1831e-05
1.01862e-05
9.19668e-06
8.98709e-06
1.0092e-05
1.29531e-05
1.77387e-05
2.40785e-05
3.10861e-05
3.73741e-05
4.1741e-05
4.44189e-05
4.81945e-05
5.63393e-05
7.15595e-05
9.75162e-05
0.00013892
0.00019582
0.000258305
0.000312726
0.000350472
0.000369445
0.000370324
0.000358472
0.000337992
0.000312662
0.000286816
0.000263674
0.000243501
0.000225911
0.000209523
0.000192033
0.0001712
0.000146163
0.000118269
9.05009e-05
6.6144e-05
4.71001e-05
3.36136e-05
2.47722e-05
1.92613e-05
1.58883e-05
1.37983e-05
1.24523e-05
1.15023e-05
1.07328e-05
1.00134e-05
9.26201e-06
8.45219e-06
7.57264e-06
6.67131e-06
5.75954e-06
4.92685e-06
4.15237e-06
3.53045e-06
3.12979e-06
3.19403e-05
2.45035e-05
1.93047e-05
1.57162e-05
1.31348e-05
1.13609e-05
1.02808e-05
1.00535e-05
1.12492e-05
1.44762e-05
1.99327e-05
2.70809e-05
3.47686e-05
4.16235e-05
4.67403e-05
5.02625e-05
5.48642e-05
6.43187e-05
8.2215e-05
0.000112743
0.000160119
0.000222244
0.0002872
0.000341212
0.000376432
0.000391374
0.000387499
0.000370544
0.000344985
0.000315272
0.000286588
0.000261341
0.000240173
0.000222902
0.000208131
0.00019331
0.000175627
0.000153426
0.000127339
0.000100057
7.50883e-05
5.48069e-05
3.99378e-05
2.98934e-05
2.34909e-05
1.95305e-05
1.70841e-05
1.55428e-05
1.44943e-05
1.36725e-05
1.29074e-05
1.2085e-05
1.11574e-05
1.00994e-05
8.96328e-06
7.76803e-06
6.63444e-06
5.56238e-06
4.67877e-06
4.14955e-06
3.25285e-05
2.54441e-05
2.04578e-05
1.70108e-05
1.44579e-05
1.26115e-05
1.14421e-05
1.11635e-05
1.23655e-05
1.58474e-05
2.18707e-05
2.97819e-05
3.82164e-05
4.58291e-05
5.1899e-05
5.644e-05
6.19858e-05
7.28478e-05
9.34612e-05
0.000128384
0.000181051
0.00024731
0.000313784
0.000366878
0.000399393
0.000410256
0.000401686
0.000379709
0.000349193
0.000315703
0.000284253
0.000256906
0.000234673
0.000217542
0.000204175
0.000191901
0.000177455
0.000158419
0.00013462
0.00010835
8.3232e-05
6.20694e-05
4.60625e-05
3.49669e-05
2.77621e-05
2.32722e-05
2.05162e-05
1.88241e-05
1.77253e-05
1.69061e-05
1.61583e-05
1.53344e-05
1.43598e-05
1.31858e-05
1.18599e-05
1.03979e-05
8.9526e-06
7.54271e-06
6.35007e-06
5.6509e-06
3.2998e-05
2.62507e-05
2.1474e-05
1.82028e-05
1.57605e-05
1.3915e-05
1.26835e-05
1.23404e-05
1.34821e-05
1.70866e-05
2.35516e-05
3.21806e-05
4.14411e-05
4.99879e-05
5.71813e-05
6.29139e-05
6.95373e-05
8.18573e-05
0.000105129
0.000144134
0.000201351
0.000270773
0.00033802
0.000389826
0.000419515
0.000426278
0.000413072
0.000386176
0.000351051
0.000314302
0.000280104
0.000250715
0.000227387
0.000210241
0.000198043
0.000188117
0.000176885
0.000161234
0.000140132
0.000115358
9.05238e-05
6.88041e-05
5.18716e-05
3.98498e-05
3.19122e-05
2.69359e-05
2.39065e-05
2.20995e-05
2.09904e-05
2.02223e-05
1.95525e-05
1.8802e-05
1.78685e-05
1.66735e-05
1.52486e-05
1.35914e-05
1.18785e-05
1.01362e-05
8.62177e-06
7.72218e-06
3.33728e-05
2.69386e-05
2.23604e-05
1.92767e-05
1.70062e-05
1.52397e-05
1.39948e-05
1.35952e-05
1.46478e-05
1.82342e-05
2.50021e-05
3.42913e-05
4.44453e-05
5.40794e-05
6.25378e-05
6.9625e-05
7.74662e-05
9.12594e-05
0.000117046
0.000159724
0.000220739
0.000292475
0.000359891
0.000410119
0.000436885
0.000439541
0.000421764
0.000390079
0.000351079
0.000311222
0.000274391
0.000243078
0.000218681
0.000201406
0.000190139
0.0001823
0.000174148
0.000161984
0.000143903
0.000121066
9.69331e-05
7.49697e-05
5.73095e-05
4.44675e-05
3.58456e-05
3.04029e-05
2.71134e-05
2.5206e-05
2.41064e-05
2.34181e-05
2.28687e-05
2.22533e-05
2.1445e-05
2.03336e-05
1.89281e-05
1.71924e-05
1.53138e-05
1.33044e-05
1.15092e-05
1.0403e-05
3.36724e-05
2.7523e-05
2.31275e-05
2.02255e-05
1.81643e-05
1.65496e-05
1.53544e-05
1.4927e-05
1.58855e-05
1.93661e-05
2.62621e-05
3.613e-05
4.72174e-05
5.80664e-05
6.79043e-05
7.64921e-05
8.56928e-05
0.000100952
0.000129043
0.000174927
0.000239003
0.000312302
0.000379378
0.00042778
0.000451531
0.00045008
0.000427817
0.000391811
0.000349423
0.000306603
0.000267328
0.000234268
0.000208888
0.000191424
0.000180868
0.000174813
0.000169511
0.000160818
0.000145983
0.000125469
0.000102436
8.05419e-05
6.2352e-05
4.87909e-05
3.95208e-05
3.36136e-05
3.00548e-05
2.80377e-05
2.69431e-05
2.63383e-05
2.59261e-05
2.54819e-05
2.48599e-05
2.39225e-05
2.26542e-05
2.09763e-05
1.90735e-05
1.69163e-05
1.49403e-05
1.36555e-05
3.39124e-05
2.80186e-05
2.37875e-05
2.10499e-05
1.92119e-05
1.78079e-05
1.67322e-05
1.63232e-05
1.72034e-05
2.05412e-05
2.73987e-05
3.77123e-05
4.97326e-05
6.18906e-05
7.32031e-05
8.34139e-05
9.41116e-05
0.000110824
0.000140967
0.000189554
0.000255985
0.000330176
0.000396459
0.000442802
0.000463435
0.000457892
0.000431364
0.000391683
0.000346137
0.000300567
0.000259098
0.000224521
0.000198306
0.000180652
0.000170625
0.000166034
0.00016327
0.000157914
0.000146446
0.000128572
0.000107013
8.55016e-05
6.69881e-05
5.28141e-05
4.29314e-05
3.65537e-05
3.27019e-05
3.05473e-05
2.94327e-05
2.88926e-05
2.86092e-05
2.83436e-05
2.79381e-05
2.72344e-05
2.61969e-05
2.47022e-05
2.29251e-05
2.07699e-05
1.87567e-05
1.73562e-05
3.41051e-05
2.84384e-05
2.43537e-05
2.17559e-05
2.0135e-05
1.89808e-05
1.80924e-05
1.77605e-05
1.8597e-05
2.178e-05
2.85152e-05
3.90597e-05
5.19587e-05
6.54621e-05
7.83434e-05
9.02739e-05
0.000102595
0.000120756
0.000152682
0.000203458
0.000271573
0.000346036
0.000411107
0.000455155
0.000472543
0.000462978
0.000432726
0.000389729
0.000341279
0.000293227
0.000249857
0.000214043
0.000187194
0.000169409
0.000159777
0.000156339
0.000155745
0.000153488
0.000145396
0.0001304
0.000110651
8.98306e-05
7.12094e-05
5.65404e-05
4.60884e-05
3.92359e-05
3.50626e-05
3.27333e-05
3.15608e-05
3.10513e-05
3.08691e-05
3.07656e-05
3.05768e-05
3.01317e-05
2.93813e-05
2.81631e-05
2.66403e-05
2.46362e-05
2.27454e-05
2.13168e-05
3.42601e-05
2.87942e-05
2.48385e-05
2.23534e-05
2.09274e-05
2.00403e-05
1.93968e-05
1.92071e-05
2.00499e-05
2.30897e-05
2.96431e-05
4.02837e-05
5.3865e-05
6.87037e-05
8.32243e-05
9.69453e-05
0.000110997
0.000130622
0.000164075
0.000216538
0.000285698
0.000359845
0.000423286
0.000464784
0.000478793
0.000465546
0.000431968
0.000385983
0.000334909
0.000284684
0.000239748
0.000203013
0.000175773
0.000157971
0.000148658
0.000146088
0.000147268
0.000147781
0.000142969
0.000130999
0.000113346
9.35124e-05
7.50065e-05
5.99736e-05
4.90077e-05
4.16852e-05
3.71653e-05
3.46226e-05
3.33497e-05
3.28288e-05
3.27091e-05
3.27349e-05
3.27404e-05
3.25484e-05
3.21042e-05
3.12149e-05
3.00363e-05
2.83059e-05
2.66832e-05
2.53231e-05
3.43852e-05
2.90958e-05
2.52539e-05
2.28546e-05
2.15905e-05
2.09661e-05
2.06083e-05
2.06252e-05
2.1535e-05
2.44639e-05
3.08021e-05
4.14249e-05
5.55226e-05
7.15377e-05
8.77371e-05
0.000103297
0.000119163
0.000140294
0.000175062
0.000228736
0.000298336
0.000371576
0.000432957
0.000471572
0.00048224
0.000465701
0.000429145
0.000380486
0.000327094
0.000275038
0.0002289
0.000191588
0.000164234
0.00014657
0.000137553
0.000135615
0.000138168
0.000141056
0.00013933
0.000130439
0.000115109
9.65343e-05
7.83682e-05
6.31146e-05
5.17041e-05
4.39279e-05
3.90451e-05
3.62553e-05
3.4841e-05
3.42658e-05
3.41656e-05
3.42798e-05
3.44429e-05
3.44771e-05
3.43278e-05
3.3782e-05
3.29941e-05
3.16205e-05
3.0378e-05
2.91758e-05
3.44863e-05
2.93517e-05
2.56106e-05
2.32726e-05
2.21318e-05
2.17465e-05
2.16945e-05
2.19737e-05
2.30165e-05
2.58838e-05
3.1999e-05
4.2503e-05
5.69701e-05
7.39784e-05
9.17699e-05
0.000109195
0.000126935
0.000149639
0.000185585
0.000240043
0.000309504
0.0003811
0.000439934
0.000475595
0.000483037
0.000463533
0.000424312
0.000373289
0.000317907
0.000264391
0.000217438
0.000179912
0.00015274
0.000135397
0.000126701
0.00012521
0.000128757
0.000133585
0.000134666
0.000128816
0.000115967
9.88901e-05
8.12831e-05
6.59604e-05
5.41875e-05
4.59868e-05
4.07365e-05
3.76737e-05
3.60828e-05
3.54137e-05
3.52914e-05
3.54511e-05
3.57289e-05
3.59497e-05
3.60634e-05
3.58464e-05
3.54574e-05
3.44829e-05
3.36902e-05
3.27183e-05
3.45682e-05
2.95692e-05
2.59178e-05
2.36206e-05
2.25627e-05
2.23786e-05
2.26299e-05
2.32121e-05
2.44521e-05
2.73187e-05
3.32275e-05
4.35315e-05
5.82087e-05
7.60546e-05
9.52689e-05
0.000114512
0.000134165
0.000158528
0.000195614
0.000250406
0.000318887
0.000388304
0.000444333
0.000476989
0.000481325
0.000459128
0.00041753
0.000364453
0.000307434
0.000252848
0.000205486
0.00016812
0.000141428
0.000124607
0.000116293
0.000115119
0.00011932
0.000125641
0.000129183
0.000126245
0.000115961
0.000100582
8.37413e-05
6.85052e-05
5.64625e-05
4.7879e-05
4.22682e-05
3.8916e-05
3.71212e-05
3.63248e-05
3.6143e-05
3.63076e-05
3.66565e-05
3.70194e-05
3.73529e-05
3.74307e-05
3.742e-05
3.68521e-05
3.65384e-05
3.5847e-05
3.46346e-05
2.97542e-05
2.61834e-05
2.39108e-05
2.28976e-05
2.28669e-05
2.3398e-05
2.43037e-05
2.57963e-05
2.87283e-05
3.44675e-05
4.45153e-05
5.92429e-05
7.7737e-05
9.82302e-05
0.000119193
0.000140715
0.000166837
0.000204873
0.000259518
0.000326447
0.000393254
0.000446272
0.000475884
0.000477234
0.000452571
0.00040887
0.000354059
0.000295771
0.000240526
0.00019317
0.000156337
0.000130422
0.00011432
0.000106474
0.000105536
0.000110106
0.000117481
0.000123093
0.00012286
0.000115153
0.000101624
8.57365e-05
7.07419e-05
5.85298e-05
4.96152e-05
4.36602e-05
4.00134e-05
3.79958e-05
3.70459e-05
3.67735e-05
3.69075e-05
3.72871e-05
3.77476e-05
3.82534e-05
3.85813e-05
3.89098e-05
3.87299e-05
3.8891e-05
3.85085e-05
3.46885e-05
2.99117e-05
2.6414e-05
2.41542e-05
2.3152e-05
2.32225e-05
2.39918e-05
2.5219e-05
2.70041e-05
3.00659e-05
3.56867e-05
4.54493e-05
6.00788e-05
7.90089e-05
0.000100592
0.000123157
0.000146475
0.000174282
0.000213143
0.00026725
0.000332169
0.000396029
0.00044587
0.000472401
0.000470882
0.000443957
0.000398419
0.0003422
0.000283028
0.000227549
0.000180621
0.000144685
0.000119825
0.000104633
9.73469e-05
9.66091e-05
0.000101318
0.000109344
0.000116611
0.00011881
0.000113619
0.000102038
8.72675e-05
7.26635e-05
6.03866e-05
5.12008e-05
4.49275e-05
4.09896e-05
3.87385e-05
3.76164e-05
3.7229e-05
3.73029e-05
3.76781e-05
3.81954e-05
3.88269e-05
3.93564e-05
3.99746e-05
4.01471e-05
4.07543e-05
4.069e-05
3.47323e-05
3.0046e-05
2.6615e-05
2.43603e-05
2.33413e-05
2.34612e-05
2.4414e-05
2.59377e-05
2.80347e-05
3.12813e-05
3.68426e-05
4.63166e-05
6.0721e-05
7.98648e-05
0.00010231
0.000126316
0.000151322
0.000180674
0.000220224
0.000273495
0.000336056
0.000396713
0.000443245
0.000466661
0.000462388
0.000433387
0.000386278
0.000328987
0.000269331
0.000214052
0.000167969
0.00013328
0.000109729
9.56158e-05
8.89839e-05
8.84375e-05
9.3115e-05
0.000101437
0.000109941
0.000114249
0.000111446
0.000101862
8.83397e-05
7.42648e-05
6.20285e-05
5.26373e-05
4.60789e-05
4.18613e-05
3.93738e-05
3.80677e-05
3.75476e-05
3.75382e-05
3.788e-05
3.84187e-05
3.9133e-05
3.98165e-05
4.06715e-05
4.11512e-05
4.21597e-05
4.24076e-05
3.47679e-05
3.01605e-05
2.6791e-05
2.45371e-05
2.34802e-05
2.36013e-05
2.46756e-05
2.64506e-05
2.88552e-05
3.23255e-05
3.78857e-05
4.70886e-05
6.11687e-05
8.03082e-05
0.000103359
0.000128602
0.000155155
0.000185862
0.00022594
0.000278156
0.000338118
0.000395392
0.000438514
0.00045878
0.000451868
0.000420974
0.000372562
0.000314548
0.000254817
0.00020018
0.000155351
0.00012223
0.000100213
8.73214e-05
8.14268e-05
8.10832e-05
8.56097e-05
9.39298e-05
0.000103273
0.000109332
0.000108734
0.00010114
8.89654e-05
7.55436e-05
6.34509e-05
5.39234e-05
4.71192e-05
4.26398e-05
3.99192e-05
3.84236e-05
3.77592e-05
3.76498e-05
3.79355e-05
3.84662e-05
3.9226e-05
4.00194e-05
4.10592e-05
4.17969e-05
4.31535e-05
4.36961e-05
3.47968e-05
3.02583e-05
2.69455e-05
2.46908e-05
2.35815e-05
2.36625e-05
2.47939e-05
2.67595e-05
2.94435e-05
3.31549e-05
3.87639e-05
4.77272e-05
6.1414e-05
8.03477e-05
0.00010373
0.000129965
0.000157895
0.000189743
0.000230148
0.00028115
0.000338367
0.000392146
0.00043179
0.000448871
0.000439445
0.000406845
0.000357406
0.000299026
0.000239642
0.000186084
0.000142899
0.000111637
9.13395e-05
7.97846e-05
7.46959e-05
7.45763e-05
7.88752e-05
8.6958e-05
9.67702e-05
0.000104211
0.000105587
9.99271e-05
8.91643e-05
7.65017e-05
6.46502e-05
5.50567e-05
4.80499e-05
4.33316e-05
4.03869e-05
3.8702e-05
3.78873e-05
3.76665e-05
3.78793e-05
3.83789e-05
3.9153e-05
4.00176e-05
4.11939e-05
4.21405e-05
4.37883e-05
4.46007e-05
3.48203e-05
3.03419e-05
2.70816e-05
2.48264e-05
2.36564e-05
2.3664e-05
2.47912e-05
2.68767e-05
2.97901e-05
3.37353e-05
3.94271e-05
4.81877e-05
6.14403e-05
7.99934e-05
0.000103429
0.000130375
0.000159481
0.000192253
0.000232751
0.000282408
0.00033681
0.000387046
0.000423176
0.00043704
0.000425246
0.000391138
0.000340959
0.000282581
0.000223969
0.000171923
0.000130744
0.00010159
8.31608e-05
7.30259e-05
6.87941e-05
6.8922e-05
7.29496e-05
8.06273e-05
9.05727e-05
9.90244e-05
0.000102111
9.82862e-05
8.89628e-05
7.71453e-05
6.56243e-05
5.60342e-05
4.88707e-05
4.39405e-05
4.07852e-05
3.89157e-05
3.79494e-05
3.76111e-05
3.77396e-05
3.81905e-05
3.8954e-05
3.98568e-05
4.11267e-05
4.22357e-05
4.41188e-05
4.5171e-05
3.48395e-05
3.04133e-05
2.72018e-05
2.49477e-05
2.37138e-05
2.36236e-05
2.46919e-05
2.68228e-05
2.98983e-05
3.40453e-05
3.98324e-05
4.84235e-05
6.12236e-05
7.92537e-05
0.000102474
0.000129823
0.000159868
0.000193359
0.000233702
0.000281887
0.000333458
0.000380156
0.000412772
0.00042339
0.000409412
0.000374009
0.000323389
0.000265388
0.000207974
0.000157856
0.00011901
9.21674e-05
7.5714e-05
6.70532e-05
6.37116e-05
6.41081e-05
6.78436e-05
7.50042e-05
8.47877e-05
9.38978e-05
9.84124e-05
9.62844e-05
8.83939e-05
7.74852e-05
6.6374e-05
5.68539e-05
4.95805e-05
4.44682e-05
4.11195e-05
3.9074e-05
3.79589e-05
3.75012e-05
3.75386e-05
3.79284e-05
3.86619e-05
3.9576e-05
4.09026e-05
4.21318e-05
4.41974e-05
4.54573e-05
3.4855e-05
3.04744e-05
2.7308e-05
2.50574e-05
2.37605e-05
2.35568e-05
2.45208e-05
2.66247e-05
2.97839e-05
3.40779e-05
3.99487e-05
4.83914e-05
6.07351e-05
7.81332e-05
0.000100893
0.00012832
0.000159031
0.000193052
0.000233004
0.000279578
0.000328326
0.000371538
0.000400672
0.000408116
0.000392099
0.000355628
0.000304876
0.000247633
0.00019184
0.000144041
0.000107809
8.34332e-05
6.90232e-05
6.1864e-05
5.94294e-05
6.01102e-05
6.35477e-05
7.01052e-05
7.94942e-05
8.89394e-05
9.45908e-05
9.39922e-05
8.7496e-05
7.75369e-05
6.69027e-05
5.75147e-05
5.01779e-05
4.49153e-05
4.13931e-05
3.91834e-05
3.79258e-05
3.73502e-05
3.72937e-05
3.76146e-05
3.83038e-05
3.92076e-05
4.05602e-05
4.18725e-05
4.40726e-05
4.55077e-05
3.48676e-05
3.05267e-05
2.74019e-05
2.51576e-05
2.38019e-05
2.34767e-05
2.43016e-05
2.63129e-05
2.9473e-05
3.38417e-05
3.97596e-05
4.80573e-05
5.99458e-05
7.66334e-05
9.87171e-05
0.000125897
0.000156965
0.00019133
0.000230699
0.000275515
0.000321453
0.000361255
0.000386972
0.000391387
0.000373474
0.00033618
0.000285615
0.00022951
0.00017575
0.000130627
9.72397e-05
7.5436e-05
6.31004e-05
5.7447e-05
5.59229e-05
5.68973e-05
6.00387e-05
6.59357e-05
7.47473e-05
8.42391e-05
9.07394e-05
9.14807e-05
8.63115e-05
7.73204e-05
6.72172e-05
5.80176e-05
5.06626e-05
4.52822e-05
4.16083e-05
3.92488e-05
3.78575e-05
3.71688e-05
3.70189e-05
3.72666e-05
3.79017e-05
3.87787e-05
4.01322e-05
4.14958e-05
4.37881e-05
4.53668e-05
3.48777e-05
3.05715e-05
2.74852e-05
2.52497e-05
2.38412e-05
2.33934e-05
2.40555e-05
2.59191e-05
2.89993e-05
3.33592e-05
3.92659e-05
4.74006e-05
5.88315e-05
7.47541e-05
9.59822e-05
0.000122601
0.000153689
0.000188203
0.000226851
0.00026978
0.000312907
0.000349388
0.000371775
0.000373337
0.00035372
0.000315865
0.000265809
0.000211222
0.000159889
0.000117757
8.73861e-05
6.82097e-05
5.79465e-05
5.37851e-05
5.31644e-05
5.44358e-05
5.72856e-05
6.24871e-05
7.05808e-05
7.98688e-05
8.69417e-05
8.88195e-05
8.48856e-05
7.68592e-05
6.73271e-05
5.83654e-05
5.10351e-05
4.55693e-05
4.17671e-05
3.9274e-05
3.77602e-05
3.69653e-05
3.6725e-05
3.68984e-05
3.74733e-05
3.83113e-05
3.96459e-05
4.10342e-05
4.33823e-05
4.50749e-05
3.4886e-05
3.061e-05
2.7559e-05
2.53347e-05
2.38808e-05
2.33144e-05
2.38004e-05
2.54736e-05
2.84011e-05
3.26649e-05
3.84859e-05
4.6418e-05
5.7379e-05
7.24978e-05
9.27265e-05
0.000118496
0.000149245
0.000183684
0.000221527
0.000262486
0.000302799
0.000336046
0.000355203
0.000354124
0.000333033
0.00029489
0.000245667
0.000192972
0.000144435
0.000105556
7.83137e-05
6.17733e-05
5.35532e-05
5.08566e-05
5.11261e-05
5.26927e-05
5.52548e-05
5.97399e-05
6.7011e-05
7.58829e-05
8.32705e-05
8.6075e-05
8.32652e-05
7.61802e-05
6.72454e-05
5.85633e-05
5.12971e-05
4.57779e-05
4.18712e-05
3.92621e-05
3.76385e-05
3.67462e-05
3.64209e-05
3.65212e-05
3.70327e-05
3.78232e-05
3.91239e-05
4.0515e-05
4.28884e-05
4.46677e-05
3.48926e-05
3.06431e-05
2.76244e-05
2.54132e-05
2.39219e-05
2.3245e-05
2.35507e-05
2.5004e-05
2.77179e-05
3.18019e-05
3.74533e-05
4.51251e-05
5.55897e-05
6.98737e-05
8.89922e-05
0.000113657
0.000143706
0.000177807
0.000214788
0.000253761
0.000291272
0.000321372
0.0003374
0.00033393
0.00031162
0.000273469
0.0002254
0.000174962
0.000129558
9.4132e-05
7.00697e-05
5.61325e-05
4.99049e-05
4.86382e-05
4.97819e-05
5.1639e-05
5.3914e-05
5.76697e-05
6.4041e-05
7.23205e-05
7.97871e-05
8.3309e-05
8.14974e-05
7.53127e-05
6.69876e-05
5.86186e-05
5.14521e-05
4.591e-05
4.19229e-05
3.92161e-05
3.74966e-05
3.65172e-05
3.61136e-05
3.61441e-05
3.65915e-05
3.73289e-05
3.85844e-05
3.9961e-05
4.23345e-05
4.41762e-05
3.4898e-05
3.06715e-05
2.76825e-05
2.54859e-05
2.39648e-05
2.3188e-05
2.33169e-05
2.45336e-05
2.69875e-05
3.08178e-05
3.62146e-05
4.35558e-05
5.34838e-05
6.69031e-05
8.48278e-05
0.000108174
0.000137169
0.000170626
0.000206682
0.000243721
0.000278487
0.000305535
0.000318532
0.000312956
0.000289696
0.000251812
0.000205214
0.00015739
0.000115411
8.35726e-05
6.26832e-05
5.12807e-05
4.69803e-05
4.71066e-05
4.91098e-05
5.12509e-05
5.32354e-05
5.62506e-05
6.16649e-05
6.92073e-05
7.65421e-05
8.05776e-05
7.96283e-05
7.42875e-05
6.65714e-05
5.85408e-05
5.15051e-05
4.59686e-05
4.19248e-05
3.91392e-05
3.73384e-05
3.6283e-05
3.58091e-05
3.57745e-05
3.61589e-05
3.68401e-05
3.80425e-05
3.93911e-05
4.17445e-05
4.36273e-05
3.49022e-05
3.06961e-05
2.7734e-05
2.55531e-05
2.40095e-05
2.3145e-05
2.31064e-05
2.40813e-05
2.62443e-05
2.97611e-05
3.48246e-05
4.17602e-05
5.11003e-05
6.36227e-05
8.02916e-05
0.000102145
0.00012976
0.00016223
0.000197257
0.000232459
0.000264597
0.000288715
0.000298765
0.000291414
0.000267468
0.000230122
0.000185316
0.000140446
0.000102131
7.39437e-05
5.61659e-05
4.72017e-05
4.47555e-05
4.62405e-05
4.90928e-05
5.15124e-05
5.31981e-05
5.54598e-05
5.98719e-05
6.65591e-05
7.35756e-05
7.79306e-05
7.77022e-05
7.31365e-05
6.60167e-05
5.83412e-05
5.14627e-05
4.59579e-05
4.18802e-05
3.90346e-05
3.71676e-05
3.60481e-05
3.55125e-05
3.54185e-05
3.57424e-05
3.63664e-05
3.75105e-05
3.88206e-05
4.11381e-05
4.30437e-05
3.49057e-05
3.07174e-05
2.77799e-05
2.56151e-05
2.40556e-05
2.3116e-05
2.29234e-05
2.36608e-05
2.55169e-05
2.86774e-05
3.33418e-05
3.97998e-05
4.84957e-05
6.00867e-05
7.54539e-05
9.56831e-05
0.000121627
0.000152749
0.000186579
0.00022004
0.000249723
0.000271074
0.000278355
0.000269515
0.000245129
0.000208592
0.000165904
0.000124307
8.98315e-05
6.52884e-05
5.05138e-05
4.3871e-05
4.32054e-05
4.60224e-05
4.97209e-05
5.24163e-05
5.37907e-05
5.52798e-05
5.86501e-05
6.43839e-05
7.0919e-05
7.54113e-05
7.57606e-05
7.18914e-05
6.53446e-05
5.80328e-05
5.13327e-05
4.58833e-05
4.17934e-05
3.8906e-05
3.6988e-05
3.58163e-05