/*--------------------------------*- C++ -*----------------------------------*\
| =========                 |                                                 |
| \\      /  F ield         | OpenFOAM: The Open Source CFD Toolbox           |
|  \\    /   O peration     | Version:  2.4.0                                 |
|   \\  /    A nd           | Web:      www.OpenFOAM.org                      |
|    \\/     M anipulation  |                                                 |
\*---------------------------------------------------------------------------*/
FoamFile
{
    version     2.0;
    format      ascii;
    class       volScalarField;
    location    "0.3";
    object      p;
}
// * * * * * * * * * * * * * * * * * * * * * * * * * * * * * * * * * * * * * //

dimensions      [0 2 -2 0 0 0 0];

internalField   nonuniform List<scalar> 
6000
(
0.219755
0.21434
0.211844
0.210972
0.210083
0.208984
0.207887
0.206869
0.205915
0.205007
0.204152
0.203359
0.202629
0.201949
0.2013
0.200662
0.200019
0.199367
0.198707
0.198046
0.19739
0.196747
0.196122
0.195518
0.194932
0.194361
0.193802
0.193248
0.192697
0.192148
0.191602
0.191061
0.190529
0.190008
0.189503
0.189019
0.188561
0.188138
0.187759
0.187437
0.187188
0.187033
0.186998
0.187118
0.187438
0.188013
0.188915
0.190239
0.192103
0.19466
0.198107
0.202698
0.208759
0.216712
0.227113
0.24063
0.258196
0.280272
0.308335
0.336017
0.215816
0.213556
0.211798
0.210969
0.210151
0.209128
0.208067
0.20706
0.206105
0.205191
0.204323
0.203511
0.202756
0.202048
0.201371
0.200709
0.20005
0.199387
0.198722
0.198059
0.197402
0.196758
0.196131
0.195523
0.194935
0.194363
0.193802
0.193247
0.192696
0.192146
0.1916
0.19106
0.190527
0.190006
0.1895
0.189015
0.188557
0.188133
0.187752
0.187428
0.187177
0.187018
0.18698
0.187095
0.187407
0.187973
0.188865
0.190173
0.192018
0.194549
0.197962
0.202507
0.208504
0.216364
0.22663
0.239942
0.257216
0.278875
0.306847
0.334189
0.215664
0.214051
0.212112
0.210999
0.210118
0.209094
0.208023
0.207011
0.20606
0.205155
0.204295
0.203489
0.202737
0.202031
0.201355
0.200695
0.200038
0.199379
0.198718
0.198057
0.197403
0.19676
0.196134
0.195527
0.194939
0.194366
0.193803
0.193248
0.192695
0.192146
0.191599
0.191058
0.190525
0.190003
0.189497
0.189011
0.188552
0.188126
0.187744
0.187417
0.187162
0.187
0.186956
0.187064
0.187368
0.187923
0.188799
0.190088
0.191906
0.194402
0.197767
0.202245
0.208148
0.215869
0.225918
0.238881
0.255583
0.27629
0.302994
0.328957
0.215012
0.213615
0.211871
0.210796
0.209974
0.20902
0.207994
0.207012
0.206086
0.205199
0.20435
0.203548
0.202795
0.202083
0.2014
0.200731
0.200067
0.199404
0.19874
0.198079
0.197425
0.196783
0.196156
0.195547
0.194956
0.194379
0.193812
0.193253
0.192698
0.192146
0.191598
0.191056
0.190522
0.19
0.189493
0.189005
0.188544
0.188116
0.187731
0.187401
0.187141
0.186973
0.186921
0.187019
0.18731
0.187847
0.188701
0.189961
0.191742
0.194188
0.197486
0.201873
0.207648
0.215186
0.224962
0.237499
0.253515
0.273125
0.297991
0.32188
0.214455
0.21337
0.211869
0.210794
0.209953
0.209017
0.208009
0.207033
0.206111
0.205228
0.204381
0.203577
0.20282
0.202103
0.201413
0.20074
0.200073
0.199409
0.198746
0.198087
0.197435
0.196795
0.196169
0.195559
0.194966
0.194387
0.193818
0.193256
0.192699
0.192146
0.191597
0.191054
0.190519
0.189995
0.189487
0.188998
0.188534
0.188104
0.187715
0.18738
0.187115
0.186939
0.186877
0.186963
0.187237
0.187754
0.18858
0.189805
0.191539
0.193924
0.19714
0.201417
0.207039
0.214362
0.223822
0.235883
0.251152
0.269627
0.292532
0.314116
0.213986
0.213131
0.211803
0.210726
0.209873
0.208966
0.207988
0.207029
0.206118
0.205245
0.204404
0.203604
0.202847
0.202127
0.201433
0.200756
0.200087
0.199422
0.198758
0.1981
0.197448
0.196808
0.196183
0.195572
0.194977
0.194395
0.193824
0.19326
0.1927
0.192146
0.191595
0.191051
0.190515
0.18999
0.18948
0.188989
0.188523
0.188089
0.187696
0.187355
0.187083
0.186898
0.186824
0.186895
0.187149
0.18764
0.188434
0.189616
0.191294
0.193606
0.196725
0.200872
0.206318
0.213393
0.2225
0.234042
0.24852
0.265832
0.286771
0.306001
0.213583
0.21289
0.211713
0.210662
0.20981
0.20893
0.207979
0.207035
0.206133
0.205267
0.204431
0.203633
0.202874
0.20215
0.201453
0.200771
0.200099
0.199432
0.198768
0.198109
0.197459
0.19682
0.196194
0.195583
0.194986
0.194402
0.193828
0.193262
0.192701
0.192145
0.191593
0.191048
0.19051
0.189984
0.189472
0.188978
0.188509
0.188071
0.187673
0.187326
0.187046
0.18685
0.186763
0.186815
0.187047
0.187509
0.188264
0.189396
0.19101
0.193237
0.196246
0.200244
0.20549
0.21229
0.221008
0.231993
0.245644
0.26177
0.280785
0.297728
0.21323
0.212657
0.211613
0.210602
0.209753
0.208893
0.207966
0.207036
0.206143
0.205284
0.204453
0.203657
0.202897
0.202171
0.20147
0.200785
0.20011
0.199442
0.198778
0.19812
0.19747
0.196831
0.196205
0.195593
0.194995
0.194409
0.193833
0.193265
0.192702
0.192144
0.191591
0.191044
0.190505
0.189977
0.189462
0.188966
0.188494
0.188051
0.187648
0.187294
0.187004
0.186796
0.186693
0.186725
0.186931
0.187359
0.188072
0.189148
0.190689
0.192822
0.195706
0.199539
0.204563
0.211062
0.219362
0.229759
0.242558
0.257491
0.274653
0.289452
0.212921
0.212437
0.211508
0.210542
0.209699
0.208855
0.207951
0.207037
0.206152
0.205299
0.204474
0.20368
0.20292
0.202191
0.201486
0.200799
0.200122
0.199452
0.198787
0.198129
0.19748
0.196841
0.196215
0.195602
0.195003
0.194415
0.193837
0.193267
0.192702
0.192142
0.191588
0.191039
0.190499
0.189969
0.189452
0.188953
0.188477
0.188029
0.187619
0.187257
0.186957
0.186735
0.186615
0.186625
0.186802
0.187193
0.187858
0.188872
0.190333
0.19236
0.195107
0.19876
0.203544
0.209719
0.217574
0.227358
0.23929
0.253036
0.268439
0.281265
0.212647
0.212232
0.211401
0.210482
0.209647
0.208818
0.207936
0.207036
0.20616
0.205313
0.204492
0.2037
0.20294
0.202209
0.201502
0.200811
0.200132
0.199461
0.198796
0.198138
0.197489
0.19685
0.196224
0.195611
0.19501
0.194421
0.193841
0.193268
0.192702
0.192141
0.191584
0.191034
0.190492
0.18996
0.189441
0.188938
0.188458
0.188005
0.187588
0.187217
0.186905
0.186669
0.18653
0.186515
0.186661
0.187011
0.187623
0.18857
0.189942
0.191856
0.194454
0.197911
0.202436
0.208266
0.215656
0.224807
0.235864
0.24844
0.262188
0.273216
0.212404
0.212042
0.211293
0.210421
0.209599
0.208783
0.207919
0.207034
0.206167
0.205326
0.204509
0.203719
0.202958
0.202226
0.201516
0.200823
0.200142
0.19947
0.198804
0.198146
0.197497
0.196859
0.196232
0.195618
0.195016
0.194425
0.193844
0.19327
0.192702
0.192139
0.191581
0.191029
0.190485
0.189951
0.189429
0.188923
0.188437
0.187979
0.187554
0.187173
0.186849
0.186596
0.186437
0.186396
0.186507
0.186813
0.187369
0.188242
0.189519
0.19131
0.193748
0.196996
0.201246
0.206713
0.213618
0.222121
0.232301
0.243732
0.25593
0.265329
0.212189
0.211869
0.211188
0.210361
0.209554
0.20875
0.207903
0.207032
0.206172
0.205337
0.204524
0.203736
0.202975
0.202241
0.20153
0.200835
0.200152
0.199478
0.198812
0.198154
0.197505
0.196867
0.19624
0.195625
0.195022
0.19443
0.193847
0.193271
0.192701
0.192136
0.191577
0.191023
0.190477
0.18994
0.189415
0.188905
0.188415
0.18795
0.187517
0.187126
0.186788
0.186519
0.186337
0.186268
0.186342
0.186601
0.187095
0.18789
0.189066
0.190725
0.192992
0.196018
0.199979
0.205066
0.21147
0.219312
0.228619
0.238935
0.249686
0.257615
0.211997
0.21171
0.211088
0.210302
0.209511
0.208718
0.207886
0.207028
0.206177
0.205346
0.204537
0.203751
0.202991
0.202256
0.201542
0.200845
0.200161
0.199486
0.19882
0.198162
0.197513
0.196874
0.196247
0.195632
0.195027
0.194434
0.193849
0.193271
0.1927
0.192134
0.191573
0.191017
0.190469
0.189929
0.189401
0.188887
0.188392
0.18792
0.187479
0.187076
0.186724
0.186436
0.186231
0.186131
0.186166
0.186375
0.186804
0.187515
0.188583
0.190103
0.19219
0.194983
0.19864
0.203332
0.209221
0.216395
0.224835
0.23407
0.24347
0.250072
0.211826
0.211566
0.210993
0.210246
0.209471
0.208689
0.20787
0.207025
0.206181
0.205355
0.204549
0.203765
0.203005
0.202269
0.201553
0.200855
0.200169
0.199493
0.198826
0.198168
0.197519
0.196881
0.196253
0.195637
0.195032
0.194437
0.193851
0.193272
0.192699
0.192131
0.191568
0.191011
0.19046
0.189918
0.189386
0.188868
0.188367
0.187888
0.187437
0.187023
0.186656
0.186349
0.186118
0.185986
0.18598
0.186135
0.186496
0.187119
0.188073
0.189446
0.191344
0.193893
0.197235
0.201519
0.206882
0.213382
0.220964
0.229152
0.237292
0.242694
0.211675
0.211437
0.210904
0.210192
0.209434
0.208662
0.207855
0.20702
0.206184
0.205362
0.20456
0.203777
0.203017
0.20228
0.201564
0.200864
0.200177
0.1995
0.198833
0.198174
0.197526
0.196887
0.196259
0.195642
0.195036
0.19444
0.193852
0.193272
0.192697
0.192127
0.191563
0.191004
0.190451
0.189906
0.18937
0.188848
0.188341
0.187854
0.187394
0.186968
0.186584
0.186257
0.186
0.185834
0.185785
0.185884
0.186173
0.186702
0.187538
0.188757
0.190458
0.192753
0.195768
0.199633
0.20446
0.210283
0.217018
0.224193
0.231156
0.235471
0.211542
0.211321
0.210822
0.210141
0.2094
0.208637
0.207841
0.207016
0.206186
0.205369
0.204569
0.203788
0.203029
0.202291
0.201573
0.200872
0.200184
0.199506
0.198839
0.19818
0.197531
0.196892
0.196264
0.195647
0.19504
0.194442
0.193853
0.193271
0.192695
0.192124
0.191558
0.190996
0.190441
0.189893
0.189354
0.188826
0.188313
0.187819
0.187349
0.186909
0.186509
0.18616
0.185876
0.185675
0.18558
0.185621
0.185835
0.186268
0.186979
0.188039
0.189535
0.191567
0.194246
0.197682
0.201965
0.207108
0.213007
0.219203
0.225062
0.228387
0.211425
0.211218
0.210748
0.210094
0.209368
0.208614
0.207827
0.207011
0.206188
0.205375
0.204577
0.203798
0.203038
0.2023
0.201582
0.200879
0.20019
0.199512
0.198844
0.198185
0.197536
0.196897
0.196268
0.19565
0.195043
0.194444
0.193854
0.19327
0.192693
0.19212
0.191552
0.190989
0.190431
0.18988
0.189337
0.188804
0.188285
0.187782
0.187302
0.186849
0.186432
0.18606
0.185747
0.18551
0.185368
0.185348
0.185484
0.185817
0.186399
0.187294
0.188579
0.19034
0.192673
0.195672
0.199405
0.203867
0.208942
0.214189
0.21901
0.221429
0.211323
0.211128
0.210681
0.210051
0.20934
0.208594
0.207815
0.207007
0.206189
0.205379
0.204584
0.203806
0.203047
0.202309
0.201589
0.200886
0.200196
0.199517
0.198848
0.198189
0.19754
0.196901
0.196272
0.195653
0.195045
0.194446
0.193854
0.193269
0.19269
0.192116
0.191546
0.190981
0.19042
0.189866
0.189319
0.188781
0.188255
0.187744
0.187253
0.186786
0.186351
0.185957
0.185614
0.185339
0.185148
0.185065
0.185121
0.18535
0.1858
0.186525
0.187592
0.189075
0.191056
0.193609
0.196786
0.200568
0.20483
0.209156
0.212996
0.214579
0.211236
0.21105
0.210623
0.210013
0.209314
0.208576
0.207804
0.207003
0.20619
0.205383
0.20459
0.203813
0.203055
0.202316
0.201596
0.200891
0.2002
0.199521
0.198852
0.198193
0.197544
0.196904
0.196275
0.195656
0.195047
0.194446
0.193854
0.193268
0.192687
0.192112
0.19154
0.190972
0.190409
0.189852
0.189301
0.188758
0.188225
0.187705
0.187203
0.186722
0.186268
0.18585
0.185477
0.185163
0.184922
0.184775
0.184747
0.184871
0.185184
0.185735
0.186579
0.187778
0.189399
0.191501
0.194118
0.197219
0.200678
0.204108
0.207014
0.20782
0.211162
0.210984
0.210573
0.209979
0.209292
0.208561
0.207794
0.206999
0.206191
0.205387
0.204595
0.203819
0.203061
0.202322
0.201601
0.200896
0.200205
0.199525
0.198856
0.198196
0.197547
0.196907
0.196278
0.195658
0.195048
0.194447
0.193853
0.193266
0.192684
0.192107
0.191533
0.190964
0.190398
0.189837
0.189282
0.188733
0.188194
0.187665
0.187151
0.186655
0.186183
0.185741
0.185337
0.184982
0.18469
0.184477
0.184365
0.18438
0.184554
0.184926
0.185542
0.186453
0.187709
0.189353
0.191407
0.193827
0.196491
0.199046
0.201059
0.201136
0.211101
0.21093
0.210531
0.209951
0.209274
0.208548
0.207786
0.206996
0.206191
0.205389
0.204599
0.203824
0.203066
0.202327
0.201606
0.2009
0.200208
0.199528
0.198858
0.198199
0.197549
0.196909
0.196279
0.195659
0.195049
0.194447
0.193852
0.193264
0.192681
0.192102
0.191527
0.190955
0.190387
0.189822
0.189263
0.188709
0.188162
0.187624
0.187099
0.186588
0.186096
0.185629
0.185194
0.184798
0.184453
0.184173
0.183974
0.183879
0.183911
0.184102
0.184487
0.185103
0.185989
0.187172
0.188659
0.190399
0.192275
0.193971
0.195123
0.194507
0.211053
0.210886
0.210498
0.209929
0.209259
0.208538
0.20778
0.206993
0.206192
0.205392
0.204602
0.203828
0.203071
0.202331
0.201609
0.200903
0.200211
0.19953
0.198861
0.198201
0.197551
0.196911
0.196281
0.19566
0.195049
0.194446
0.193851
0.193262
0.192677
0.192097
0.19152
0.190946
0.190375
0.189807
0.189243
0.188684
0.18813
0.187583
0.187045
0.186519
0.186008
0.185516
0.185048
0.184611
0.184213
0.183864
0.183578
0.183369
0.183258
0.183265
0.183415
0.183735
0.184247
0.184964
0.18588
0.186941
0.188033
0.188883
0.189197
0.187916
0.211017
0.210854
0.210472
0.209911
0.209248
0.20853
0.207775
0.206991
0.206192
0.205393
0.204605
0.203831
0.203074
0.202334
0.201612
0.200906
0.200213
0.199532
0.198862
0.198202
0.197552
0.196912
0.196281
0.195661
0.195049
0.194446
0.193849
0.193259
0.192673
0.192092
0.191513
0.190937
0.190363
0.189792
0.189223
0.188658
0.188097
0.187541
0.186991
0.18645
0.185919
0.185401
0.184901
0.184422
0.18397
0.183552
0.183177
0.182854
0.182597
0.182418
0.182331
0.182351
0.182486
0.182735
0.183079
0.183458
0.18377
0.183781
0.183273
0.181345
0.210994
0.210833
0.210456
0.2099
0.20924
0.208525
0.207772
0.20699
0.206192
0.205394
0.204606
0.203833
0.203076
0.202336
0.201614
0.200907
0.200214
0.199533
0.198863
0.198203
0.197553
0.196912
0.196282
0.19566
0.195048
0.194444
0.193847
0.193256
0.192669
0.192086
0.191506
0.190928
0.190351
0.189776
0.189203
0.188632
0.188064
0.187498
0.186937
0.18638
0.185829
0.185286
0.184752
0.18423
0.183724
0.183236
0.182772
0.182335
0.181931
0.181564
0.181239
0.180957
0.180713
0.180491
0.180259
0.179956
0.179487
0.178663
0.177341
0.174774
0.210982
0.210822
0.210447
0.209894
0.209236
0.208522
0.20777
0.206989
0.206192
0.205395
0.204607
0.203834
0.203077
0.202337
0.201614
0.200908
0.200215
0.199534
0.198863
0.198203
0.197553
0.196912
0.196281
0.19566
0.195047
0.194443
0.193845
0.193253
0.192665
0.192081
0.191499
0.190918
0.190339
0.189761
0.189183
0.188607
0.188031
0.187456
0.186882
0.186309
0.185738
0.185169
0.184602
0.184038
0.183477
0.18292
0.182365
0.181813
0.181261
0.180707
0.180142
0.179557
0.178932
0.178237
0.177429
0.17644
0.175189
0.173526
0.17139
0.168185
0.210982
0.210822
0.210447
0.209894
0.209236
0.208522
0.20777
0.206989
0.206192
0.205395
0.204607
0.203834
0.203077
0.202337
0.201614
0.200908
0.200214
0.199533
0.198863
0.198203
0.197552
0.196911
0.19628
0.195658
0.195046
0.19444
0.193842
0.193249
0.192661
0.192075
0.191491
0.190909
0.190327
0.189745
0.189163
0.188581
0.187997
0.187413
0.186827
0.186239
0.185647
0.185053
0.184453
0.183846
0.18323
0.182602
0.181958
0.18129
0.180591
0.179848
0.179044
0.178155
0.177149
0.17598
0.174593
0.172915
0.170876
0.16837
0.165411
0.161558
0.210994
0.210833
0.210456
0.2099
0.20924
0.208525
0.207772
0.206989
0.206192
0.205394
0.204606
0.203833
0.203075
0.202336
0.201613
0.200907
0.200213
0.199532
0.198862
0.198201
0.197551
0.19691
0.196279
0.195657
0.195043
0.194438
0.193839
0.193246
0.192656
0.192069
0.191484
0.190899
0.190315
0.189729
0.189143
0.188555
0.187964
0.18737
0.186772
0.186168
0.185557
0.184936
0.184303
0.183654
0.182984
0.182286
0.181552
0.180769
0.179923
0.178992
0.177949
0.176757
0.175369
0.173726
0.171758
0.169388
0.166553
0.16319
0.159392
0.154873
0.211017
0.210854
0.210472
0.209911
0.209247
0.20853
0.207775
0.206991
0.206192
0.205393
0.204604
0.203831
0.203073
0.202334
0.201611
0.200905
0.200212
0.199531
0.19886
0.1982
0.197549
0.196908
0.196277
0.195654
0.195041
0.194435
0.193836
0.193242
0.192651
0.192063
0.191476
0.19089
0.190302
0.189714
0.189123
0.188529
0.187931
0.187328
0.186717
0.186098
0.185467
0.184821
0.184155
0.183463
0.182739
0.181971
0.181148
0.180251
0.179258
0.178141
0.176859
0.175365
0.173597
0.17148
0.16893
0.165862
0.162222
0.157984
0.153321
0.148108
0.211053
0.210886
0.210497
0.209928
0.209259
0.208538
0.20778
0.206993
0.206192
0.205391
0.204602
0.203827
0.20307
0.20233
0.201608
0.200902
0.200209
0.199528
0.198858
0.198198
0.197547
0.196906
0.196274
0.195652
0.195038
0.194432
0.193832
0.193237
0.192646
0.192057
0.191469
0.19088
0.19029
0.189698
0.189103
0.188504
0.187898
0.187286
0.186663
0.186029
0.185378
0.184706
0.184008
0.183275
0.182496
0.18166
0.180748
0.179738
0.178601
0.177298
0.17578
0.173986
0.17184
0.169249
0.166116
0.162345
0.157886
0.152751
0.147188
0.141242
0.211101
0.21093
0.210531
0.209951
0.209274
0.208548
0.207786
0.206996
0.206191
0.205389
0.204599
0.203823
0.203066
0.202326
0.201604
0.200899
0.200206
0.199525
0.198855
0.198195
0.197544
0.196902
0.196271
0.195648
0.195034
0.194428
0.193828
0.193233
0.192641
0.192051
0.191461
0.190871
0.190278
0.189683
0.189083
0.188478
0.187866
0.187244
0.18661
0.18596
0.18529
0.184593
0.183863
0.183088
0.182257
0.181353
0.180354
0.179232
0.177951
0.176466
0.174715
0.172624
0.170102
0.16704
0.163322
0.158842
0.153548
0.147487
0.14098
0.134251
0.211162
0.210984
0.210573
0.209979
0.209292
0.208561
0.207794
0.206999
0.206191
0.205386
0.204594
0.203818
0.20306
0.202321
0.2016
0.200894
0.200202
0.199522
0.198852
0.198191
0.19754
0.196899
0.196267
0.195644
0.19503
0.194424
0.193824
0.193229
0.192636
0.192045
0.191454
0.190861
0.190266
0.189668
0.189064
0.188454
0.187834
0.187204
0.186558
0.185893
0.185204
0.184482
0.18372
0.182905
0.182022
0.181051
0.179966
0.178735
0.177313
0.175647
0.173667
0.171283
0.168389
0.164858
0.160555
0.155359
0.149213
0.142192
0.134684
0.127111
0.211235
0.21105
0.210623
0.210012
0.209314
0.208576
0.207804
0.207003
0.20619
0.205383
0.204589
0.203812
0.203054
0.202315
0.201594
0.200889
0.200198
0.199518
0.198848
0.198187
0.197536
0.196895
0.196263
0.19564
0.195026
0.19442
0.19382
0.193224
0.192631
0.192039
0.191446
0.190852
0.190255
0.189653
0.189045
0.18843
0.187803
0.187164
0.186507
0.185827
0.185119
0.184374
0.183581
0.182726
0.181792
0.180756
0.179587
0.178248
0.176689
0.174846
0.17264
0.169968
0.166706
0.16271
0.157823
0.151904
0.144885
0.136865
0.128289
0.119796
0.211323
0.211128
0.210681
0.210051
0.209339
0.208594
0.207815
0.207007
0.206189
0.205379
0.204583
0.203805
0.203046
0.202307
0.201587
0.200883
0.200192
0.199513
0.198843
0.198183
0.197531
0.19689
0.196258
0.195635
0.195021
0.194415
0.193815
0.193219
0.192625
0.192033
0.191439
0.190843
0.190244
0.189639
0.189027
0.188406
0.187773
0.187125
0.186457
0.185763
0.185037
0.184268
0.183445
0.182552
0.181568
0.180468
0.179217
0.177773
0.17608
0.174065
0.171638
0.168683
0.16506
0.160604
0.155134
0.148485
0.14057
0.131506
0.121781
0.112279
0.211425
0.211218
0.210748
0.210093
0.209368
0.208614
0.207827
0.207011
0.206188
0.205374
0.204576
0.203797
0.203037
0.202299
0.201579
0.200876
0.200186
0.199507
0.198838
0.198177
0.197526
0.196884
0.196252
0.19563
0.195016
0.19441
0.19381
0.193214
0.19262
0.192027
0.191432
0.190834
0.190233
0.189625
0.189009
0.188383
0.187744
0.187087
0.186408
0.185701
0.184957
0.184165
0.183313
0.182382
0.18135
0.180188
0.178859
0.177313
0.175489
0.173306
0.170664
0.167433
0.163456
0.158545
0.152494
0.14511
0.136276
0.126117
0.115149
0.104529
0.211542
0.211321
0.210822
0.21014
0.209399
0.208636
0.20784
0.207015
0.206186
0.205368
0.204568
0.203787
0.203027
0.202289
0.201571
0.200869
0.20018
0.199501
0.198832
0.198172
0.19752
0.196878
0.196246
0.195624
0.19501
0.194405
0.193805
0.193209
0.192615
0.192021
0.191425
0.190826
0.190222
0.189611
0.188992
0.188361
0.187715
0.187051
0.186361
0.185641
0.18488
0.184066
0.183186
0.182219
0.18114
0.179919
0.178513
0.176868
0.174918
0.172573
0.169722
0.166222
0.161899
0.156542
0.149915
0.14179
0.132012
0.120703
0.10838
0.0965174
0.211675
0.211437
0.210904
0.210191
0.209434
0.208661
0.207855
0.20702
0.206183
0.205362
0.204559
0.203776
0.203016
0.202278
0.201561
0.20086
0.200172
0.199495
0.198826
0.198165
0.197514
0.196872
0.19624
0.195617
0.195004
0.194399
0.193799
0.193203
0.192609
0.192015
0.191418
0.190818
0.190212
0.189598
0.188975
0.18834
0.187688
0.187016
0.186316
0.185583
0.184805
0.183971
0.183063
0.182061
0.180939
0.17966
0.17818
0.176441
0.174369
0.171868
0.168815
0.165056
0.160396
0.154602
0.147404
0.138536
0.127788
0.115268
0.101463
0.0882097
0.211826
0.211566
0.210992
0.210245
0.209471
0.208688
0.20787
0.207024
0.20618
0.205354
0.204548
0.203764
0.203003
0.202266
0.201551
0.200851
0.200164
0.199487
0.198819
0.198158
0.197507
0.196865
0.196232
0.19561
0.194998
0.194393
0.193794
0.193198
0.192604
0.192009
0.191411
0.19081
0.190202
0.189586
0.188959
0.188319
0.187662
0.186982
0.186274
0.185528
0.184734
0.18388
0.182946
0.181911
0.180746
0.179412
0.177862
0.176033
0.173844
0.171193
0.167947
0.163938
0.158953
0.152733
0.144972
0.135359
0.123616
0.109821
0.0943874
0.0795715
0.211997
0.21171
0.211088
0.210302
0.209511
0.208718
0.207886
0.207028
0.206176
0.205346
0.204536
0.20375
0.202989
0.202253
0.201539
0.200841
0.200156
0.19948
0.198811
0.198151
0.197499
0.196857
0.196225
0.195603
0.19499
0.194386
0.193788
0.193193
0.192599
0.192003
0.191405
0.190802
0.190192
0.189574
0.188944
0.1883
0.187637
0.18695
0.186233
0.185475
0.184667
0.183793
0.182835
0.181769
0.180563
0.179177
0.17756
0.175645
0.173346
0.170552
0.167122
0.162873
0.157575
0.150942
0.142629
0.132273
0.119512
0.104376
0.0871455
0.070566
0.212189
0.211869
0.211188
0.210361
0.209553
0.208749
0.207902
0.207031
0.206172
0.205336
0.204523
0.203734
0.202973
0.202239
0.201526
0.200831
0.200147
0.199471
0.198804
0.198143
0.197491
0.196848
0.196216
0.195595
0.194983
0.194379
0.193782
0.193187
0.192593
0.191998
0.191399
0.190795
0.190183
0.189563
0.18893
0.188282
0.187614
0.18692
0.186194
0.185426
0.184604
0.183712
0.182731
0.181634
0.18039
0.178955
0.177275
0.175279
0.172875
0.169947
0.166342
0.161865
0.156268
0.149237
0.140387
0.129294
0.115495
0.0989484
0.0797317
0.0611547
0.212404
0.212042
0.211293
0.210421
0.209599
0.208783
0.207919
0.207034
0.206166
0.205325
0.204508
0.203717
0.202956
0.202223
0.201513
0.200819
0.200137
0.199463
0.198795
0.198135
0.197482
0.196839
0.196207
0.195586
0.194975
0.194372
0.193775
0.193181
0.192588
0.191993
0.191393
0.190788
0.190175
0.189552
0.188917
0.188265
0.187592
0.186892
0.186158
0.18538
0.184544
0.183635
0.182632
0.181508
0.180228
0.178747
0.177008
0.174936
0.172434
0.169379
0.16561
0.160919
0.155038
0.147628
0.138257
0.126438
0.111585
0.093561
0.0721448
0.0512969
0.212647
0.212232
0.2114
0.210482
0.209647
0.208818
0.207935
0.207035
0.206159
0.205312
0.204491
0.203699
0.202938
0.202206
0.201498
0.200807
0.200126
0.199453
0.198786
0.198126
0.197473
0.19683
0.196198
0.195577
0.194966
0.194365
0.193769
0.193176
0.192583
0.191988
0.191388
0.190782
0.190167
0.189542
0.188904
0.188249
0.187572
0.186866
0.186125
0.185337
0.184489
0.183565
0.182541
0.181391
0.180078
0.178554
0.17676
0.174617
0.172025
0.168852
0.164929
0.160038
0.15389
0.146121
0.136251
0.123723
0.107808
0.0882422
0.0643904
0.0409501
0.21292
0.212436
0.211508
0.210542
0.209698
0.208855
0.207951
0.207036
0.206151
0.205298
0.204473
0.203678
0.202917
0.202188
0.201483
0.200794
0.200116
0.199444
0.198777
0.198116
0.197463
0.19682
0.196187
0.195567
0.194957
0.194357
0.193762
0.19317
0.192578
0.191983
0.191383
0.190776
0.19016
0.189533
0.188893
0.188234
0.187553
0.186842
0.186094
0.185297
0.184438
0.183499
0.182458
0.181284
0.17994
0.178377
0.176533
0.174325
0.171648
0.168367
0.164303
0.159226
0.152831
0.144725
0.134382
0.121169
0.104192
0.0830285
0.056483
0.0300677
0.21323
0.212656
0.211613
0.210602
0.209753
0.208893
0.207966
0.207036
0.206142
0.205282
0.204452
0.203655
0.202895
0.202168
0.201466
0.20078
0.200104
0.199434
0.198767
0.198106
0.197453
0.196809
0.196176
0.195556
0.194948
0.194349
0.193755
0.193165
0.192573
0.191978
0.191378
0.19077
0.190154
0.189525
0.188882
0.188221
0.187536
0.186821
0.186066
0.185261
0.184392
0.18344
0.182382
0.181186
0.179815
0.178216
0.176326
0.174059
0.171306
0.167926
0.163734
0.158487
0.151865
0.143449
0.132663
0.118796
0.100773
0.0779658
0.0484513
0.0185939
0.213582
0.212889
0.211713
0.210662
0.20981
0.20893
0.207979
0.207034
0.206132
0.205265
0.20443
0.203631
0.202872
0.202147
0.201449
0.200766
0.200093
0.199423
0.198757
0.198096
0.197441
0.196797
0.196164
0.195545
0.194938
0.19434
0.193748
0.193159
0.192568
0.191974
0.191374
0.190765
0.190148
0.189518
0.188873
0.188209
0.187521
0.186801
0.186041
0.185229
0.184351
0.183387
0.182314
0.181099
0.179703
0.178072
0.176141
0.173821
0.171
0.167532
0.163224
0.157824
0.150998
0.142299
0.131106
0.116628
0.0975895
0.0731111
0.0403449
0.00645323
0.213986
0.213131
0.211803
0.210725
0.209873
0.208966
0.207987
0.207028
0.206117
0.205243
0.204403
0.203602
0.202845
0.202124
0.201429
0.200751
0.200081
0.199413
0.198747
0.198085
0.19743
0.196785
0.196152
0.195533
0.194927
0.194331
0.193741
0.193154
0.192564
0.19197
0.19137
0.190761
0.190143
0.189512
0.188865
0.188199
0.187507
0.186784
0.186019
0.185201
0.184315
0.183341
0.182254
0.181022
0.179604
0.177946
0.175978
0.173612
0.170731
0.167185
0.162776
0.157242
0.150234
0.141284
0.129726
0.114688
0.0946865
0.0685364
0.0322473
-0.00644507
0.214454
0.21337
0.211869
0.210793
0.209953
0.209017
0.208008
0.207032
0.20611
0.205227
0.204379
0.203576
0.202818
0.202099
0.201409
0.200734
0.200066
0.1994
0.198735
0.198072
0.197416
0.196771
0.196138
0.19552
0.194915
0.194321
0.193733
0.193148
0.19256
0.191967
0.191366
0.190758
0.190138
0.189506
0.188858
0.18819
0.187496
0.186769
0.186
0.185177
0.184284
0.183301
0.182203
0.180957
0.17952
0.177837
0.175839
0.173434
0.170502
0.166889
0.162393
0.156744
0.14958
0.140414
0.128538
0.113004
0.0921203
0.0643359
0.0242965
-0.0201848
0.215011
0.213615
0.211871
0.210795
0.209974
0.209019
0.207993
0.207011
0.206085
0.205197
0.204349
0.203546
0.202793
0.20208
0.201395
0.200726
0.200061
0.199395
0.198729
0.198064
0.197406
0.196758
0.196125
0.195507
0.194904
0.194312
0.193726
0.193143
0.192556
0.191964
0.191364
0.190754
0.190135
0.189502
0.188852
0.188183
0.187487
0.186757
0.185985
0.185157
0.184258
0.183268
0.182161
0.180903
0.179451
0.177749
0.175726
0.173287
0.170314
0.166647
0.162079
0.156336
0.149045
0.139701
0.127562
0.111609
0.0899606
0.0606371
0.0167214
-0.0348936
0.215664
0.21405
0.212111
0.210999
0.210118
0.209094
0.208022
0.20701
0.206059
0.205154
0.204294
0.203487
0.202735
0.202027
0.201351
0.200689
0.200031
0.19937
0.198706
0.198042
0.197383
0.196735
0.196102
0.195486
0.194886
0.194298
0.193716
0.193136
0.192551
0.19196
0.191361
0.190752
0.190132
0.189498
0.188848
0.188177
0.187479
0.186748
0.185973
0.185142
0.184239
0.183243
0.182129
0.180861
0.179397
0.17768
0.175638
0.173174
0.170168
0.16646
0.161837
0.156021
0.148632
0.139149
0.126806
0.110523
0.0882645
0.0575829
0.00985876
-0.0509916
0.215816
0.213556
0.211798
0.210969
0.210151
0.209128
0.208066
0.207059
0.206104
0.20519
0.204321
0.203509
0.202753
0.202044
0.201366
0.200703
0.200042
0.199378
0.198711
0.198043
0.197382
0.196732
0.196098
0.195482
0.194882
0.194295
0.193714
0.193134
0.19255
0.191959
0.19136
0.190751
0.19013
0.189496
0.188845
0.188173
0.187474
0.186741
0.185964
0.185131
0.184225
0.183225
0.182106
0.180832
0.179359
0.177632
0.175575
0.173094
0.170065
0.166326
0.161664
0.155796
0.148337
0.138755
0.126266
0.109745
0.0870607
0.0553056
0.00436693
-0.0687793
0.219755
0.21434
0.211844
0.210972
0.210082
0.208983
0.207886
0.206869
0.205914
0.205006
0.204151
0.203357
0.202626
0.201946
0.201296
0.200656
0.200012
0.199358
0.198696
0.198031
0.19737
0.196722
0.19609
0.195476
0.194878
0.194293
0.193713
0.193134
0.192551
0.191959
0.19136
0.19075
0.190129
0.189495
0.188844
0.188171
0.187472
0.186739
0.185961
0.185126
0.184219
0.183218
0.182096
0.180819
0.179343
0.177611
0.175548
0.173059
0.17002
0.166268
0.16159
0.155699
0.148209
0.138583
0.126029
0.109399
0.0865133
0.0542567
0.00145667
-0.0819378
0.413123
0.291924
0.215787
0.188039
0.171542
0.154675
0.140526
0.131392
0.126082
0.122898
0.120932
0.120003
0.120019
0.120892
0.122642
0.12549
0.129967
0.137221
0.147889
0.141353
0.1205
0.09361
0.0638516
0.031417
-0.00387992
-0.0421449
-0.083798
-0.12983
-0.181873
-0.240459
-0.305207
-0.372389
-0.434874
-0.473438
-0.478473
-0.442998
-0.37347
-0.290668
-0.204752
-0.117901
-0.0363076
0.0286339
0.0694763
0.0784836
0.0541651
0.0343951
0.0265585
0.0231034
0.0194074
0.0156704
0.0127286
0.010551
0.00865416
0.00678136
0.00513639
0.00381687
0.00285615
0.00220468
0.00215431
0.000435523
0.403165
0.285195
0.210694
0.185155
0.169617
0.153049
0.139177
0.13033
0.125371
0.122279
0.120368
0.119464
0.119477
0.120325
0.122037
0.124832
0.129232
0.135973
0.144092
0.136593
0.115379
0.0886039
0.0593498
0.0277203
-0.00643871
-0.0431488
-0.0827544
-0.126045
-0.173532
-0.225533
-0.280694
-0.334552
-0.383431
-0.417159
-0.428229
-0.407417
-0.358111
-0.291317
-0.214929
-0.130072
-0.0469808
0.0205697
0.0638511
0.0754476
0.0542093
0.0354277
0.0269846
0.0232452
0.0196128
0.0159219
0.0129553
0.0107101
0.00879694
0.0069339
0.00529698
0.00395309
0.00295187
0.00220591
0.00204731
0.000382575
0.385673
0.280085
0.208851
0.183966
0.168688
0.152319
0.138713
0.130091
0.124994
0.121854
0.119926
0.118991
0.118955
0.119739
0.121368
0.124043
0.128187
0.134081
0.140319
0.132641
0.111995
0.0858446
0.0573017
0.0265306
-0.00653435
-0.0417945
-0.0794213
-0.1199
-0.163585
-0.210457
-0.259307
-0.307045
-0.352586
-0.385381
-0.392044
-0.377364
-0.338321
-0.281028
-0.211122
-0.131112
-0.0510548
0.0150165
0.0588569
0.0720517
0.0536689
0.0357243
0.0268532
0.02298
0.0194902
0.0158765
0.0128992
0.010641
0.00872244
0.00696437
0.00532969
0.00397767
0.00296018
0.00218067
0.00192048
0.000434309
0.366653
0.274897
0.206483
0.181519
0.166634
0.150742
0.137465
0.12899
0.124074
0.121193
0.119307
0.118364
0.11829
0.119005
0.120532
0.12304
0.126827
0.131846
0.136249
0.128154
0.107839
0.0821615
0.0543076
0.0245071
-0.00725529
-0.0407946
-0.0761426
-0.113591
-0.153278
-0.194908
-0.237204
-0.277281
-0.313777
-0.33959
-0.35187
-0.3444
-0.315299
-0.267326
-0.205746
-0.133252
-0.057975
0.00737105
0.0524187
0.0672214
0.052137
0.0356192
0.0267046
0.0227505
0.0194005
0.0158934
0.0129353
0.0106801
0.0087884
0.007028
0.00540829
0.00405754
0.00302075
0.00219813
0.00182326
0.000479429
0.348691
0.269257
0.203961
0.17905
0.16471
0.149418
0.136541