/*--------------------------------*- C++ -*----------------------------------*\
| =========                 |                                                 |
| \\      /  F ield         | OpenFOAM: The Open Source CFD Toolbox           |
|  \\    /   O peration     | Version:  2.4.0                                 |
|   \\  /    A nd           | Web:      www.OpenFOAM.org                      |
|    \\/     M anipulation  |                                                 |
\*---------------------------------------------------------------------------*/
FoamFile
{
    version     2.0;
    format      ascii;
    class       volSymmTensorField;
    location    "1.23";
    object      UPrime2Mean;
}
// * * * * * * * * * * * * * * * * * * * * * * * * * * * * * * * * * * * * * //

dimensions      [0 2 -2 0 0 0 0];

internalField   nonuniform List<symmTensor> 
2320
(
(0.0790747 0.000441296 0 0.0011535 0 0)
(0.104414 0.00114095 0 0.0036051 0 0)
(0.102524 0.00166862 0 0.00396032 0 0)
(0.0989619 0.000681762 0 0.00376261 0 0)
(0.104435 0.000392614 0 0.00282038 0 0)
(0.104339 0.00046314 0 0.00385492 0 0)
(0.122729 0.000831189 0 0.00434708 0 0)
(0.111979 0.000527725 0 0.00578666 0 0)
(0.127685 0.00108531 0 0.00475519 0 0)
(0.121641 0.000484235 0 0.00623772 0 0)
(0.149591 0.00107961 0 0.00625863 0 0)
(0.138837 0.000693598 0 0.00850902 0 0)
(0.165719 0.000865936 0 0.00742657 0 0)
(0.154617 -0.000577403 0 0.0101735 0 0)
(0.203335 0.00216824 0 0.009204 0 0)
(0.163016 -0.000941912 0 0.0127119 0 0)
(0.253599 0.00120325 0 0.0130008 0 0)
(0.180794 -0.00226397 0 0.0189671 0 0)
(0.299173 -0.00186541 0 0.0196095 0 0)
(0.196241 -0.000898351 0 0.0281004 0 0)
(0.0274045 0.000612082 0 0.00215269 0 0)
(0.0435074 0.000624124 0 0.00541702 0 0)
(0.0358876 0.00370259 0 0.00613187 0 0)
(0.0387822 0.00234161 0 0.00574332 0 0)
(0.0388914 0.00265632 0 0.0053447 0 0)
(0.0329251 0.00219095 0 0.00609476 0 0)
(0.0453331 0.00335483 0 0.0062119 0 0)
(0.0329274 0.00208476 0 0.00691663 0 0)
(0.0472792 0.00360557 0 0.00681763 0 0)
(0.0377165 0.00315278 0 0.00918387 0 0)
(0.048243 0.00386571 0 0.00953731 0 0)
(0.0385651 0.00290717 0 0.0107254 0 0)
(0.0529327 0.00222576 0 0.0100906 0 0)
(0.0494719 0.00173193 0 0.0136054 0 0)
(0.0612289 0.00171517 0 0.0135471 0 0)
(0.0585482 7.68077e-05 0 0.0174467 0 0)
(0.0650453 -0.00107425 0 0.0177095 0 0)
(0.0775263 -0.00252243 0 0.022934 0 0)
(0.0777103 -0.00472118 0 0.0207315 0 0)
(0.0899499 -0.00719197 0 0.0282928 0 0)
(0.0293907 0.000667912 0 0.00232634 0 0)
(0.0397742 0.001901 0 0.00580607 0 0)
(0.0330615 0.00211095 0 0.00648796 0 0)
(0.0397932 0.00246496 0 0.00482275 0 0)
(0.033753 0.00198513 0 0.00459432 0 0)
(0.0446654 0.00171582 0 0.00508491 0 0)
(0.0376501 0.00184114 0 0.00578662 0 0)
(0.0472865 0.00175547 0 0.00521005 0 0)
(0.0395326 0.00140661 0 0.00571588 0 0)
(0.0566176 0.00386487 0 0.00636252 0 0)
(0.0396364 0.00154087 0 0.00660567 0 0)
(0.076431 0.00342718 0 0.00643359 0 0)
(0.0382883 0.00117633 0 0.00756655 0 0)
(0.0896778 0.00271835 0 0.00834401 0 0)
(0.0439466 0.00449392 0 0.00915774 0 0)
(0.105986 0.00601289 0 0.0085454 0 0)
(0.05172 0.00418316 0 0.0102926 0 0)
(0.121785 0.00632029 0 0.0107976 0 0)
(0.0661048 0.00247158 0 0.0113353 0 0)
(0.129494 0.00608241 0 0.0161973 0 0)
(0.0119709 6.40171e-05 0 0.00286237 0 0)
(0.0311129 0.00157054 0 0.00591106 0 0)
(0.0170029 0.00202483 0 0.00692167 0 0)
(0.0290864 0.00265056 0 0.00582809 0 0)
(0.0171428 0.00168446 0 0.00636286 0 0)
(0.0277437 0.00172868 0 0.00675956 0 0)
(0.019233 0.000643561 0 0.00703658 0 0)
(0.0314586 0.0033513 0 0.00762401 0 0)
(0.0206905 1.25121e-06 0 0.00872399 0 0)
(0.0319115 0.00530623 0 0.00928611 0 0)
(0.0227284 7.93396e-05 0 0.00981218 0 0)
(0.0358634 0.00575294 0 0.010366 0 0)
(0.0252035 -0.000561424 0 0.0120966 0 0)
(0.02923 0.00487495 0 0.0129393 0 0)
(0.027721 0.00238049 0 0.0134135 0 0)
(0.0342259 0.00624312 0 0.0155452 0 0)
(0.0301754 0.00234574 0 0.0153892 0 0)
(0.0285987 0.00583526 0 0.0190894 0 0)
(0.0370433 0.00196227 0 0.0128764 0 0)
(0.0281371 0.00171874 0 0.0238063 0 0)
(0.00877823 0.000784279 0 0.00213868 0 0)
(0.0307426 0.000799286 0 0.00405789 0 0)
(0.0113909 0.0025033 0 0.00594614 0 0)
(0.0265859 0.00199315 0 0.00472842 0 0)
(0.00956198 0.00226066 0 0.00502323 0 0)
(0.0263818 0.00132218 0 0.00405846 0 0)
(0.0107568 0.00178235 0 0.00583704 0 0)
(0.0295342 0.00252667 0 0.00526907 0 0)
(0.012526 0.00181186 0 0.00608004 0 0)
(0.0294677 0.00284153 0 0.00614752 0 0)
(0.0145183 0.00140226 0 0.00773782 0 0)
(0.0307738 0.00235222 0 0.00719777 0 0)
(0.0188484 0.00159747 0 0.00828042 0 0)
(0.0331597 0.00256619 0 0.00981684 0 0)
(0.0248461 0.00227866 0 0.00963187 0 0)
(0.03241 0.0040581 0 0.010332 0 0)
(0.0336478 0.00360413 0 0.00935993 0 0)
(0.0307331 0.00488436 0 0.0128975 0 0)
(0.038916 0.0033803 0 0.00806742 0 0)
(0.0274508 0.0015228 0 0.0189625 0 0)
(0.0131382 0.000828136 0 0.00373348 0 0)
(0.0226112 0.00331107 0 0.00869039 0 0)
(0.0163135 0.00503145 0 0.0117932 0 0)
(0.0243819 0.00355147 0 0.00968437 0 0)
(0.0131631 0.00325887 0 0.00831496 0 0)
(0.0241205 0.00373726 0 0.00851129 0 0)
(0.015905 0.00345792 0 0.0112834 0 0)
(0.0227676 0.00501832 0 0.011034 0 0)
(0.0168709 0.00221762 0 0.0115917 0 0)
(0.0230481 0.00635343 0 0.0120033 0 0)
(0.0177426 0.00210426 0 0.0136451 0 0)
(0.0260654 0.00560849 0 0.0137304 0 0)
(0.0177601 0.00223424 0 0.0151895 0 0)
(0.0279905 0.00502806 0 0.0180917 0 0)
(0.0204559 0.00218176 0 0.0175879 0 0)
(0.0351848 0.00702329 0 0.0211841 0 0)
(0.0271928 0.0019249 0 0.0189328 0 0)
(0.0415317 0.00814114 0 0.028969 0 0)
(0.04121 0.00121065 0 0.017326 0 0)
(0.0450862 0.00860076 0 0.037414 0 0)
(0.0156752 0.000882476 0 0.00329294 0 0)
(0.023498 0.00195091 0 0.00771576 0 0)
(0.017282 0.00426133 0 0.0103497 0 0)
(0.0284551 0.00396086 0 0.00918104 0 0)
(0.0161611 0.00288503 0 0.00738637 0 0)
(0.0313903 0.00245946 0 0.00698853 0 0)
(0.0161108 0.00126029 0 0.0100883 0 0)
(0.0259773 0.00382416 0 0.0105062 0 0)
(0.0155277 0.00182208 0 0.011456 0 0)
(0.0252667 0.00448448 0 0.0103885 0 0)
(0.0175685 0.00124455 0 0.0127776 0 0)
(0.0224512 0.00467661 0 0.0124612 0 0)
(0.0208111 0.00155921 0 0.0142007 0 0)
(0.0223376 0.00338467 0 0.0158871 0 0)
(0.0218971 0.0018734 0 0.0157747 0 0)
(0.025883 0.00303624 0 0.0195834 0 0)
(0.0239347 0.00315481 0 0.0173948 0 0)
(0.0306714 0.00251355 0 0.0272481 0 0)
(0.0296872 0.00402964 0 0.0171959 0 0)
(0.038721 -0.00269744 0 0.0385094 0 0)
(0.0237333 0.00217188 0 0.00369278 0 0)
(0.0121983 0.00394516 0 0.00892758 0 0)
(0.0224677 0.00605797 0 0.0116281 0 0)
(0.0132513 0.00514323 0 0.0108749 0 0)
(0.0185012 0.00521047 0 0.00979038 0 0)
(0.0137965 0.00297366 0 0.00996894 0 0)
(0.0184449 0.00317119 0 0.0123623 0 0)
(0.0178232 0.00502917 0 0.0113779 0 0)
(0.0186146 0.00497312 0 0.0122187 0 0)
(0.018059 0.0062357 0 0.0134946 0 0)
(0.0183076 0.00345058 0 0.0160435 0 0)
(0.0211777 0.00438105 0 0.0162962 0 0)
(0.0183298 0.00393956 0 0.0169332 0 0)
(0.0222806 0.00496589 0 0.0212317 0 0)
(0.0188884 0.00316646 0 0.0196486 0 0)
(0.0238031 0.00661804 0 0.0254015 0 0)
(0.02398 0.00581946 0 0.0189957 0 0)
(0.0257319 0.00591414 0 0.036933 0 0)
(0.0338154 0.0058892 0 0.0193925 0 0)
(0.0310702 0.00384392 0 0.0536524 0 0)
(0.0262877 0.00166986 0 0.00327236 0 0)
(0.0127022 0.00277119 0 0.00694595 0 0)
(0.0253411 0.0049328 0 0.00858083 0 0)
(0.0119133 0.00371788 0 0.00898287 0 0)
(0.0183542 0.00373962 0 0.00825796 0 0)
(0.0146936 0.00292744 0 0.00774766 0 0)
(0.0157572 0.00425752 0 0.00901777 0 0)
(0.0183724 0.00482121 0 0.00873584 0 0)
(0.0142977 0.0035569 0 0.0101706 0 0)
(0.0208133 0.00462106 0 0.00998922 0 0)
(0.016185 0.00295308 0 0.0121215 0 0)
(0.0226881 0.0039927 0 0.0119156 0 0)
(0.0160212 0.00236057 0 0.0130608 0 0)
(0.025491 0.0030852 0 0.0161052 0 0)
(0.0172721 0.00380341 0 0.0155996 0 0)
(0.0259568 0.00427092 0 0.0217747 0 0)
(0.0192178 0.00432238 0 0.0174641 0 0)
(0.0295521 0.00285686 0 0.034062 0 0)
(0.0259763 0.00711524 0 0.0185989 0 0)
(0.033595 -0.00350086 0 0.0567843 0 0)
(0.0359359 0.00381474 0 0.00296313 0 0)
(0.0155405 0.00319454 0 0.00586335 0 0)
(0.0371797 0.00644591 0 0.00805808 0 0)
(0.0153066 0.00352651 0 0.00820404 0 0)
(0.0341465 0.00633061 0 0.00824078 0 0)
(0.0180467 0.00360616 0 0.00730777 0 0)
(0.031785 0.00647458 0 0.00988335 0 0)
(0.0220539 0.00349058 0 0.00926749 0 0)
(0.0313027 0.00561125 0 0.0112466 0 0)
(0.0250609 0.00413822 0 0.0108644 0 0)
(0.0341334 0.00486543 0 0.0134898 0 0)
(0.0267911 0.0037969 0 0.0135425 0 0)
(0.030047 0.00379162 0 0.0150846 0 0)
(0.0274563 0.00484734 0 0.0166616 0 0)
(0.0286942 0.0041048 0 0.0175907 0 0)
(0.0227768 0.00756601 0 0.0225203 0 0)
(0.0283998 0.00510535 0 0.0181047 0 0)
(0.0186117 0.0068149 0 0.0340588 0 0)
(0.0346351 0.00651145 0 0.0188899 0 0)
(0.0190231 -0.000690133 0 0.0605272 0 0)
(0.0392864 0.00210086 0 0.00313272 0 0)
(0.0099635 0.00296308 0 0.00671174 0 0)
(0.0481239 0.00568736 0 0.00750047 0 0)
(0.0104829 0.00288913 0 0.0087453 0 0)
(0.0470576 0.00311058 0 0.00740392 0 0)
(0.0159735 0.00267254 0 0.00779617 0 0)
(0.0420845 0.00333371 0 0.00895874 0 0)
(0.0209356 0.000626581 0 0.00965082 0 0)
(0.0375105 0.00180362 0 0.00970735 0 0)
(0.0297438 0.00129615 0 0.0100607 0 0)
(0.0400344 0.00342119 0 0.010605 0 0)
(0.0359002 0.00143144 0 0.0119049 0 0)
(0.0398798 0.00283153 0 0.00992668 0 0)
(0.0421959 0.00200205 0 0.0131762 0 0)
(0.0366403 0.00388331 0 0.0106996 0 0)
(0.0427195 0.00183272 0 0.0176047 0 0)
(0.0336464 0.00527415 0 0.0114727 0 0)
(0.0430237 -1.33581e-05 0 0.028181 0 0)
(0.0292714 0.00854435 0 0.0143735 0 0)
(0.0411934 -0.000245711 0 0.0532677 0 0)
(0.0204498 0.00441467 0 0.00335054 0 0)
(0.0223639 0.002175 0 0.00535381 0 0)
(0.0308938 0.00724132 0 0.00771611 0 0)
(0.0191791 0.0027965 0 0.00732687 0 0)
(0.0357692 0.00687836 0 0.00829135 0 0)
(0.0158745 0.00246962 0 0.00763006 0 0)
(0.0360636 0.00688984 0 0.0102587 0 0)
(0.0177037 0.00225981 0 0.00922746 0 0)
(0.0391203 0.00608353 0 0.0117974 0 0)
(0.0203299 0.00432129 0 0.010861 0 0)
(0.0442867 0.00714015 0 0.0136966 0 0)
(0.0282396 0.00654847 0 0.0124891 0 0)
(0.0510648 0.00813902 0 0.0132994 0 0)
(0.0358591 0.00788404 0 0.015011 0 0)
(0.0571165 0.00944505 0 0.0147159 0 0)
(0.045698 0.00868799 0 0.0175209 0 0)
(0.0723738 0.0111749 0 0.0131232 0 0)
(0.0528569 0.00689273 0 0.0248356 0 0)
(0.099327 0.0111456 0 0.0128907 0 0)
(0.0574945 -0.0111186 0 0.0589535 0 0)
(0.0208259 0.0031676 0 0.00285272 0 0)
(0.0293285 0.00303493 0 0.00448425 0 0)
(0.0220715 0.00554317 0 0.0069266 0 0)
(0.030702 0.00394936 0 0.00679147 0 0)
(0.0228124 0.00575782 0 0.00779927 0 0)
(0.0272381 0.00215779 0 0.00745435 0 0)
(0.0252935 0.00652687 0 0.00767322 0 0)
(0.0296431 0.00208348 0 0.00700265 0 0)
(0.0296359 0.00445828 0 0.00820706 0 0)
(0.0334346 0.00198313 0 0.00904565 0 0)
(0.0346603 0.00207263 0 0.0111287 0 0)
(0.0338955 0.00490213 0 0.0101711 0 0)
(0.0449527 -0.00149911 0 0.011378 0 0)
(0.0339557 0.00543707 0 0.0118297 0 0)
(0.0576199 -0.00248266 0 0.012151 0 0)
(0.0327797 0.00569791 0 0.013689 0 0)
(0.0706509 -0.00332293 0 0.0127241 0 0)
(0.0378346 0.00525082 0 0.020934 0 0)
(0.110903 0.00139882 0 0.0131848 0 0)
(0.0411042 -0.00242122 0 0.0517262 0 0)
(0.0279716 0.00523614 0 0.00328761 0 0)
(0.0234078 0.00180969 0 0.00520413 0 0)
(0.0294835 0.00739531 0 0.00868595 0 0)
(0.028312 0.00235411 0 0.0073187 0 0)
(0.0300921 0.00867074 0 0.010151 0 0)
(0.0263488 0.00107095 0 0.00719251 0 0)
(0.0287072 0.00854137 0 0.0119517 0 0)
(0.0298053 0.000675218 0 0.008954 0 0)
(0.031103 0.00566002 0 0.0146786 0 0)
(0.0352049 0.000862414 0 0.0131635 0 0)
(0.0333786 0.00531719 0 0.0174035 0 0)
(0.0362493 0.00439168 0 0.0144362 0 0)
(0.0377532 0.00530827 0 0.0179831 0 0)
(0.0348523 0.00491577 0 0.0172426 0 0)
(0.0371735 0.00519972 0 0.0223708 0 0)
(0.0318428 0.00409987 0 0.020469 0 0)
(0.0364113 0.00125988 0 0.0259608 0 0)
(0.0328412 0.00483976 0 0.0308934 0 0)
(0.0480295 0.00561959 0 0.0258031 0 0)
(0.0359906 0.00261045 0 0.0552796 0 0)
(0.0301207 0.00321339 0 0.00253193 0 0)
(0.030296 0.00344614 0 0.00427245 0 0)
(0.0325984 0.00548777 0 0.00665244 0 0)
(0.0321783 0.00436368 0 0.00669747 0 0)
(0.0324513 0.00639096 0 0.00813582 0 0)
(0.0302115 0.00197061 0 0.00954195 0 0)
(0.0356415 0.00603541 0 0.00919461 0 0)
(0.0330905 -0.000667941 0 0.0107476 0 0)
(0.0354627 0.00463241 0 0.0109385 0 0)
(0.0372188 0.000991919 0 0.0136452 0 0)
(0.0344293 0.00403465 0 0.0142874 0 0)
(0.0375382 0.00494885 0 0.0135279 0 0)
(0.0354477 -0.000986973 0 0.015289 0 0)
(0.0383847 0.005395 0 0.0163026 0 0)
(0.0404596 -0.00404472 0 0.016541 0 0)
(0.0399703 0.0015365 0 0.0164505 0 0)
(0.0492358 -0.00952869 0 0.0198731 0 0)
(0.0488075 -0.000662704 0 0.0196184 0 0)
(0.0580737 -0.00788077 0 0.02082 0 0)
(0.0578476 0.00210326 0 0.0329993 0 0)
(0.0292908 0.00523784 0 0.00322881 0 0)
(0.0208037 0.00231348 0 0.00486557 0 0)
(0.0312114 0.00872982 0 0.00805683 0 0)
(0.0223208 0.0040055 0 0.00710112 0 0)
(0.0300534 0.00891722 0 0.012792 0 0)
(0.0234708 0.000409625 0 0.01003 0 0)
(0.0284637 0.00799187 0 0.0171347 0 0)
(0.0224372 -7.0447e-05 0 0.0116949 0 0)
(0.0277492 0.00740496 0 0.0187123 0 0)
(0.0252753 0.00389815 0 0.0166725 0 0)
(0.0298091 0.00827472 0 0.0201706 0 0)
(0.0244211 0.00423828 0 0.0203353 0 0)
(0.0326329 0.00390738 0 0.0255906 0 0)
(0.0311328 0.0018115 0 0.0225033 0 0)
(0.0340891 -0.000495918 0 0.034159 0 0)
(0.040586 -0.00316358 0 0.0265547 0 0)
(0.0428296 -0.0157593 0 0.0564476 0 0)
(0.0544248 -0.00422072 0 0.0507755 0 0)
(0.0542699 -0.024953 0 0.0736337 0 0)
(0.0470574 0.00276961 0 0.152049 0 0)
(0.0290597 0.00121229 0 0.00180336 0 0)
(0.0193987 0.00298968 0 0.00384231 0 0)
(0.0327202 0.00383162 0 0.00464897 0 0)
(0.0198315 0.005506 0 0.00860202 0 0)
(0.0322779 0.00373972 0 0.00979564 0 0)
(0.018519 0.00415913 0 0.0141789 0 0)
(0.0282706 0.00379415 0 0.0106741 0 0)
(0.0167349 0.00440849 0 0.0140495 0 0)
(0.0295638 0.00424712 0 0.0121388 0 0)
(0.017765 0.00408309 0 0.0182138 0 0)
(0.0349648 0.00400624 0 0.0150843 0 0)
(0.0215974 0.00186514 0 0.0191194 0 0)
(0.0409533 0.00395736 0 0.0163176 0 0)
(0.0370654 0.00814663 0 0.0233857 0 0)
(0.0379115 0.00290568 0 0.0153174 0 0)
(0.0346515 0.00623276 0 0.0243022 0 0)
(0.0557502 0.000734476 0 0.0218492 0 0)
(0.0573109 0.0131727 0 0.0211145 0 0)
(0.0703108 -0.0165541 0 0.029025 0 0)
(0.048543 0.00707491 0 0.0226238 0 0)
(0.0273013 0.00532164 0 0.00239959 0 0)
(0.0232108 0.00316923 0 0.0041138 0 0)
(0.0334186 0.00900725 0 0.00602527 0 0)
(0.0240256 0.00671655 0 0.00960529 0 0)
(0.0315384 0.0126439 0 0.0123117 0 0)
(0.0256151 0.0115989 0 0.0123278 0 0)
(0.037895 0.016805 0 0.0136672 0 0)
(0.0312909 0.00745578 0 0.0143465 0 0)
(0.0407331 0.0147182 0 0.0166921 0 0)
(0.0381794 -3.75745e-05 0 0.0201136 0 0)
(0.0431837 0.010124 0 0.0191029 0 0)
(0.0448168 -1.01124e-06 0 0.0203115 0 0)
(0.0546892 0.0100418 0 0.0228912 0 0)
(0.0445593 0.00272782 0 0.0221064 0 0)
(0.0539523 0.00904777 0 0.0270393 0 0)
(0.0523929 -0.00470763 0 0.0280232 0 0)
(0.0592541 0.0061372 0 0.0400707 0 0)
(0.0372538 0.00567389 0 0.052968 0 0)
(0.0511726 -0.0200061 0 0.0742479 0 0)
(0.108723 -0.0787955 0 0.350062 0 0)
(0.0189245 -0.000398211 0 0.000984015 0 0)
(0.0266938 0.00286455 0 0.00207776 0 0)
(0.0236638 0.00187818 0 0.00330427 0 0)
(0.0313443 0.00980972 0 0.00879243 0 0)
(0.0468495 0.0116035 0 0.00741125 0 0)
(0.0946833 0.0183718 0 0.0106262 0 0)
(0.122173 0.0135944 0 0.00963526 0 0)
(0.1381 0.0145532 0 0.0139082 0 0)
(0.171607 0.0061002 0 0.0117179 0 0)
(0.164319 0.00756099 0 0.015849 0 0)
(0.158716 -0.00219378 0 0.0106247 0 0)
(0.172111 0.00331693 0 0.0179145 0 0)
(0.127913 -0.00667634 0 0.0141174 0 0)
(0.121487 0.0140192 0 0.0243591 0 0)
(0.166322 -0.0158012 0 0.0143787 0 0)
(0.0908408 0.00165093 0 0.0406422 0 0)
(0.177138 -0.0324519 0 0.0281956 0 0)
(0.0695995 -0.0115025 0 0.0522033 0 0)
(0.0749524 -0.00396557 0 0.0126176 0 0)
(0.207832 0.0149428 0 0.0210568 0 0)
(0.0225328 0.00213405 0 0.00112869 0 0)
(0.0266832 -0.00045722 0 0.00174339 0 0)
(0.0333154 0.00502871 0 0.00284346 0 0)
(0.0721618 0.00242943 0 0.00270411 0 0)
(0.128518 0.00110751 0 0.00384722 0 0)
(0.169134 0.000356317 0 0.00535234 0 0)
(0.282304 0.00723036 0 0.0046587 0 0)
(0.302734 -0.00753806 0 0.00554886 0 0)
(0.408823 0.00734435 0 0.00634986 0 0)
(0.410585 -0.0174824 0 0.00723143 0 0)
(0.442074 -0.00238897 0 0.0082408 0 0)
(0.442809 -0.0218558 0 0.00854657 0 0)
(0.448886 0.00312614 0 0.0092993 0 0)
(0.459811 -0.0353812 0 0.0100958 0 0)
(0.533296 0.0240116 0 0.0150537 0 0)
(0.523205 -0.0565705 0 0.0139611 0 0)
(0.615123 0.0677505 0 0.0256352 0 0)
(0.494529 -0.0741037 0 0.0262648 0 0)
(0.675841 -0.0515216 0 0.0193287 0 0)
(0.260682 -0.191584 0 0.32542 0 0)
(0.385713 0.00379455 0 0.0304454 0 0)
(0.210629 0.0040114 0 0.0395442 0 0)
(0.429281 -0.00310606 0 0.0319729 0 0)
(0.191478 -0.0043426 0 0.0281786 0 0)
(0.569987 -0.0203919 0 0.0294412 0 0)
(0.268623 -0.00497264 0 0.04031 0 0)
(0.748168 -0.0202344 0 0.0411851 0 0)
(0.355439 -0.0060722 0 0.0410323 0 0)
(0.101599 0.00178501 0 0.0265443 0 0)
(0.105726 -0.0027753 0 0.0328794 0 0)
(0.137573 -0.0027801 0 0.026757 0 0)
(0.149079 -0.0180659 0 0.0342806 0 0)
(0.184637 -0.0209255 0 0.0351868 0 0)
(0.232835 -0.0321194 0 0.0455679 0 0)
(0.287697 -0.0217893 0 0.0390883 0 0)
(0.327088 -0.0314529 0 0.054221 0 0)
(0.0868303 0.000736287 0 0.017845 0 0)
(0.136815 -0.0033166 0 0.0256164 0 0)
(0.121136 -0.0126741 0 0.0223652 0 0)
(0.139307 -0.0127114 0 0.0241665 0 0)
(0.157655 -0.0192543 0 0.0275576 0 0)
(0.200063 -0.0202051 0 0.0287613 0 0)
(0.234298 -0.035745 0 0.0360841 0 0)
(0.332969 -0.0378731 0 0.0310096 0 0)
(0.0544415 0.00134187 0 0.0162482 0 0)
(0.0557993 -0.0016072 0 0.0332546 0 0)
(0.0808467 -0.00777259 0 0.0196156 0 0)
(0.0953744 -0.016765 0 0.0334934 0 0)
(0.137419 -0.0246591 0 0.0305398 0 0)
(0.185414 -0.031912 0 0.035955 0 0)
(0.256833 -0.0482845 0 0.03435 0 0)
(0.289479 -0.0601089 0 0.0421558 0 0)
(0.0457029 -0.00102387 0 0.00937665 0 0)
(0.0403658 -0.00828277 0 0.0328622 0 0)
(0.0669633 -0.010494 0 0.0175781 0 0)
(0.086785 -0.0380714 0 0.0384412 0 0)
(0.0920969 -0.0323903 0 0.0301224 0 0)
(0.200234 -0.0661748 0 0.0401709 0 0)
(0.183355 -0.068213 0 0.0444582 0 0)
(0.313857 -0.0890706 0 0.0468641 0 0)
(0.0658005 -0.00714881 0 0.015585 0 0)
(0.0497921 0.00131843 0 0.046493 0 0)
(0.105825 -0.027485 0 0.0208209 0 0)
(0.068766 -0.0314247 0 0.0528371 0 0)
(0.135337 -0.0552101 0 0.0389575 0 0)
(0.17593 -0.0825895 0 0.0596643 0 0)
(0.182319 -0.0746399 0 0.0472655 0 0)
(0.38789 -0.140143 0 0.0683068 0 0)
(0.0434738 -0.00256354 0 0.0150202 0 0)
(0.0396139 -0.00757384 0 0.0559072 0 0)
(0.0778044 -0.0264887 0 0.0241333 0 0)
(0.0550459 -0.0353191 0 0.0660135 0 0)
(0.148594 -0.0778429 0 0.059082 0 0)
(0.11037 -0.0646725 0 0.0622703 0 0)
(0.280366 -0.136321 0 0.0847459 0 0)
(0.380994 -0.164728 0 0.0930512 0 0)
(0.0482412 0.0016416 0 0.0149744 0 0)
(0.0380563 -0.00449838 0 0.0787764 0 0)
(0.0792614 -0.0254327 0 0.0224273 0 0)
(0.0532138 -0.0463105 0 0.0938918 0 0)
(0.108111 -0.0571003 0 0.0501375 0 0)
(0.200249 -0.128478 0 0.112796 0 0)
(0.382746 -0.199164 0 0.123108 0 0)
(0.475353 -0.231503 0 0.13543 0 0)
(0.043242 0.00511022 0 0.0179032 0 0)
(0.0454679 -0.0176275 0 0.097392 0 0)
(0.115483 -0.0405034 0 0.0338146 0 0)
(0.0498926 -0.020289 0 0.0947738 0 0)
(0.21719 -0.121415 0 0.0909663 0 0)
(0.283703 -0.205287 0 0.178679 0 0)
(0.424085 -0.247561 0 0.167909 0 0)
(0.527683 -0.282514 0 0.178959 0 0)
(0.0431645 0.00835943 0 0.0198269 0 0)
(0.0345188 -0.0305998 0 0.133511 0 0)
(0.0622089 -0.000847134 0 0.0183211 0 0)
(0.0957494 -0.0858091 0 0.204769 0 0)
(0.35163 -0.224671 0 0.169484 0 0)
(0.26469 -0.224172 0 0.230268 0 0)
(0.455984 -0.275383 0 0.195602 0 0)
(0.552879 -0.322148 0 0.220792 0 0)
(0.0418087 0.0038887 0 0.0310127 0 0)
(0.0353721 -0.00372206 0 0.112977 0 0)
(0.117405 -0.0182218 0 0.038058 0 0)
(0.1694 -0.194551 0 0.321969 0 0)
(0.379753 -0.237336 0 0.187253 0 0)
(0.235886 -0.225101 0 0.258998 0 0)
(0.537823 -0.334258 0 0.247514 0 0)
(0.554311 -0.342559 0 0.252824 0 0)
(0.0933797 0.0154266 0 0.0197232 0 0)
(0.0628584 -0.0279379 0 0.148544 0 0)
(0.118595 -0.0802054 0 0.116707 0 0)
(0.180683 -0.242368 0 0.420914 0 0)
(0.340504 -0.229883 0 0.20092 0 0)
(0.257335 -0.279925 0 0.363688 0 0)
(0.595022 -0.378856 0 0.289336 0 0)
(0.403497 -0.284355 0 0.24998 0 0)
(0.273726 0.0467911 0 0.0239239 0 0)
(0.0614943 -0.0617415 0 0.228457 0 0)
(0.126002 -0.121828 0 0.213804 0 0)
(0.192237 -0.264325 0 0.470111 0 0)
(0.337116 -0.239174 0 0.233372 0 0)
(0.292374 -0.323845 0 0.436961 0 0)
(0.524365 -0.320922 0 0.259085 0 0)
(0.308835 -0.233298 0 0.242603 0 0)
(0.137487 0.0286136 0 0.0297344 0 0)
(0.0968283 -0.119849 0 0.316651 0 0)
(0.155703 -0.17757 0 0.299556 0 0)
(0.181262 -0.262711 0 0.495202 0 0)
(0.302723 -0.235881 0 0.257157 0 0)
(0.249248 -0.325498 0 0.508 0 0)
(0.465005 -0.278598 0 0.240033 0 0)
(0.28534 -0.261031 0 0.312698 0 0)
(0.138385 0.0757796 0 0.090922 0 0)
(0.148931 -0.205054 0 0.459364 0 0)
(0.148488 -0.183903 0 0.388992 0 0)
(0.156331 -0.241119 0 0.493774 0 0)
(0.283057 -0.23346 0 0.297883 0 0)
(0.243437 -0.329858 0 0.544735 0 0)
(0.394756 -0.223828 0 0.216369 0 0)
(0.300531 -0.295006 0 0.396534 0 0)
(0.0691531 0.0388891 0 0.0994365 0 0)
(0.171135 -0.236227 0 0.49048 0 0)
(0.151924 -0.180232 0 0.408334 0 0)
(0.155336 -0.237125 0 0.49164 0 0)
(0.276981 -0.235147 0 0.331617 0 0)
(0.187443 -0.286825 0 0.546927 0 0)
(0.339247 -0.190084 0 0.211038 0 0)
(0.423432 -0.44486 0 0.599501 0 0)
(0.0618887 0.0364703 0 0.365696 0 0)
(0.17102 -0.273176 0 0.627648 0 0)
(0.123567 -0.171263 0 0.491746 0 0)
(0.150853 -0.221606 0 0.503534 0 0)
(0.226415 -0.212204 0 0.368503 0 0)
(0.175822 -0.257837 0 0.554606 0 0)
(0.391676 -0.243957 0 0.292414 0 0)
(0.473575 -0.526179 0 0.771003 0 0)
(0.066851 -0.0679687 0 0.412491 0 0)
(0.155464 -0.224354 0 0.53918 0 0)
(0.101854 -0.147305 0 0.467724 0 0)
(0.151742 -0.212962 0 0.488899 0 0)
(0.193959 -0.204924 0 0.404604 0 0)
(0.190157 -0.256271 0 0.564004 0 0)
(0.362746 -0.261572 0 0.362671 0 0)
(0.479727 -0.586579 0 0.954096 0 0)
(0.0930118 -0.121557 0 1.02839 0 0)
(0.115363 -0.211436 0 0.700194 0 0)
(0.0922242 -0.131488 0 0.582906 0 0)
(0.155229 -0.210435 0 0.526887 0 0)
(0.170604 -0.181158 0 0.456209 0 0)
(0.202228 -0.244515 0 0.576885 0 0)
(0.401944 -0.310583 0 0.483082 0 0)
(0.427012 -0.571735 0 1.07097 0 0)
(0.120407 -0.170367 0 0.914228 0 0)
(0.110518 -0.171545 0 0.522202 0 0)
(0.098058 -0.129707 0 0.51384 0 0)
(0.158466 -0.219983 0 0.49416 0 0)
(0.191382 -0.201835 0 0.476664 0 0)
(0.254568 -0.295816 0 0.590507 0 0)
(0.361609 -0.329073 0 0.558091 0 0)
(0.418328 -0.50426 0 0.986526 0 0)
(0.997946 -0.0189789 0 0.0350502 0 0)
(0.468475 -0.00931502 0 0.0365178 0 0)
(1.23462 -0.0326187 0 0.0275145 0 0)
(0.605008 -0.0202687 0 0.0243251 0 0)
(1.3691 -0.04828 0 0.0144675 0 0)
(0.767178 -0.025354 0 0.0131196 0 0)
(1.55404 -0.0461043 0 0.0125918 0 0)
(0.973305 -0.0299333 0 0.0113939 0 0)
(1.64242 -0.044246 0 0.00806013 0 0)
(1.20153 -0.027469 0 0.00989351 0 0)
(1.6653 -0.0375145 0 0.00692284 0 0)
(1.36971 -0.0242443 0 0.00836829 0 0)
(1.58701 -0.0228532 0 0.00628846 0 0)
(1.43658 -0.0229051 0 0.00816518 0 0)
(1.40418 -0.00853331 0 0.00618413 0 0)
(1.40051 -0.0205217 0 0.00885765 0 0)
(1.15493 0.00201889 0 0.0068368 0 0)
(1.27854 -0.0201852 0 0.00960654 0 0)
(0.880668 0.00754264 0 0.00961891 0 0)
(1.1073 -0.0187166 0 0.0109152 0 0)
(0.649547 0.00706329 0 0.0137652 0 0)
(0.904241 -0.0192872 0 0.0133674 0 0)
(0.508171 0.00638487 0 0.0201486 0 0)
(0.719706 -0.0212354 0 0.0182243 0 0)
(0.445359 -0.000909407 0 0.0289101 0 0)
(0.571939 -0.0242876 0 0.0262091 0 0)
(0.471505 -0.0488668 0 0.0487477 0 0)
(0.470464 -0.0161407 0 0.0295427 0 0)
(0.414552 -0.0161937 0 0.0451121 0 0)
(0.466054 -0.0329826 0 0.0552185 0 0)
(0.590236 -0.0250777 0 0.0511843 0 0)
(0.646207 -0.0372275 0 0.0500948 0 0)
(0.821724 -0.030025 0 0.0384322 0 0)
(0.876737 -0.0350106 0 0.0358365 0 0)
(1.07998 -0.0311311 0 0.027688 0 0)
(1.11622 -0.0264053 0 0.020688 0 0)
(1.31767 -0.0233619 0 0.0201449 0 0)
(1.31336 -0.00735792 0 0.0162452 0 0)
(1.47323 -0.00546708 0 0.0161892 0 0)
(1.4152 0.0158973 0 0.0148379 0 0)
(1.4895 0.0208625 0 0.015769 0 0)
(1.40307 0.0378613 0 0.0146954 0 0)
(1.36322 0.0429386 0 0.0162619 0 0)
(1.28837 0.0540825 0 0.0162968 0 0)
(1.14301 0.0532814 0 0.0176955 0 0)
(1.09978 0.0621466 0 0.0184099 0 0)
(0.885207 0.0509591 0 0.0183485 0 0)
(0.878799 0.0610747 0 0.0210729 0 0)
(0.644337 0.0410384 0 0.0183544 0 0)
(0.669347 0.0509836 0 0.0229002 0 0)
(0.449878 0.0306787 0 0.0197368 0 0)
(0.49266 0.0397265 0 0.0285458 0 0)
(0.33406 0.0225326 0 0.0266283 0 0)
(0.349775 0.0281136 0 0.0357715 0 0)
(0.311437 -0.00467343 0 0.0465823 0 0)
(0.291604 -0.00257551 0 0.0663454 0 0)
(0.35452 -0.0557186 0 0.0357103 0 0)
(0.507615 -0.0601352 0 0.0350181 0 0)
(0.551376 -0.0832677 0 0.0396886 0 0)
(0.710936 -0.0750601 0 0.0442645 0 0)
(0.756763 -0.0862716 0 0.037131 0 0)
(0.963543 -0.0819836 0 0.0396067 0 0)
(0.976925 -0.0979218 0 0.0398466 0 0)
(1.21332 -0.0744322 0 0.0433937 0 0)
(1.20579 -0.0894625 0 0.0349693 0 0)
(1.42132 -0.048696 0 0.039747 0 0)
(1.38454 -0.0590588 0 0.0299008 0 0)
(1.50972 -0.0109621 0 0.0370659 0 0)
(1.4553 -0.0130933 0 0.025486 0 0)
(1.45514 0.0237124 0 0.0355843 0 0)
(1.38786 0.0332908 0 0.0241305 0 0)
(1.29802 0.0445266 0 0.0330835 0 0)
(1.20435 0.0648637 0 0.024897 0 0)
(1.07727 0.0549067 0 0.0295393 0 0)
(0.962734 0.0765913 0 0.0250351 0 0)
(0.837805 0.0525999 0 0.0266012 0 0)
(0.71037 0.0738443 0 0.0260161 0 0)
(0.622334 0.0438595 0 0.0232617 0 0)
(0.493444 0.0641231 0 0.0293941 0 0)
(0.451688 0.0338264 0 0.0251459 0 0)
(0.326763 0.0478881 0 0.0408347 0 0)
(0.335895 0.0224041 0 0.0406913 0 0)
(0.253541 0.018511 0 0.073922 0 0)
(0.319128 -0.0287604 0 0.0971992 0 0)
(0.410932 -0.0684709 0 0.0438904 0 0)
(0.467287 -0.0795992 0 0.0412441 0 0)
(0.60735 -0.0931964 0 0.038889 0 0)
(0.724737 -0.0980791 0 0.0398971 0 0)
(0.857925 -0.105477 0 0.0402259 0 0)
(1.02906 -0.109662 0 0.0465565 0 0)
(1.12431 -0.104439 0 0.0472917 0 0)
(1.32964 -0.0933482 0 0.0481243 0 0)
(1.34708 -0.0832622 0 0.0505606 0 0)
(1.55919 -0.0522548 0 0.0516969 0 0)
(1.48272 -0.0305311 0 0.0491561 0 0)
(1.6607 0.0129926 0 0.052548 0 0)
(1.50026 0.03158 0 0.0510172 0 0)
(1.59414 0.0779929 0 0.0559297 0 0)
(1.39166 0.0850434 0 0.0541066 0 0)
(1.40507 0.117003 0 0.0604764 0 0)
(1.17927 0.115362 0 0.0556745 0 0)
(1.15508 0.129462 0 0.0617114 0 0)
(0.918246 0.11941 0 0.0550511 0 0)
(0.894222 0.120292 0 0.0585641 0 0)
(0.665451 0.103155 0 0.0529206 0 0)
(0.653934 0.0970469 0 0.0547762 0 0)
(0.467268 0.0825735 0 0.052094 0 0)
(0.462348 0.0683845 0 0.0528213 0 0)
(0.329737 0.0596358 0 0.0620909 0 0)
(0.334398 0.0398958 0 0.0647422 0 0)
(0.267446 0.0245704 0 0.103986 0 0)
(0.294911 -0.0168567 0 0.122619 0 0)
(0.388884 -0.110821 0 0.0537462 0 0)
(0.497456 -0.111461 0 0.0514283 0 0)
(0.666828 -0.149501 0 0.0610432 0 0)
(0.758285 -0.137644 0 0.0659618 0 0)
(0.977633 -0.167784 0 0.0714472 0 0)
(1.08412 -0.154813 0 0.0781172 0 0)
(1.29149 -0.167868 0 0.079596 0 0)
(1.41466 -0.146902 0 0.0886628 0 0)
(1.55033 -0.129518 0 0.0841925 0 0)
(1.64986 -0.0955568 0 0.0918469 0 0)
(1.65124 -0.0512289 0 0.0816511 0 0)
(1.74246 -0.0147528 0 0.092549 0 0)
(1.57179 0.0367619 0 0.0824254 0 0)
(1.66645 0.0649134 0 0.0936063 0 0)
(1.39488 0.101077 0 0.0841634 0 0)
(1.462 0.118207 0 0.0930561 0 0)
(1.16339 0.13324 0 0.0840524 0 0)
(1.19961 0.139559 0 0.0872504 0 0)
(0.910133 0.135236 0 0.079952 0 0)
(0.921852 0.134791 0 0.0792118 0 0)
(0.677593 0.119696 0 0.0736232 0 0)
(0.669204 0.111741 0 0.0689792 0 0)
(0.492183 0.0944063 0 0.0740823 0 0)
(0.47139 0.0869271 0 0.0672123 0 0)
(0.378838 0.0603191 0 0.0879629 0 0)
(0.329473 0.0592801 0 0.088239 0 0)
(0.334683 0.00975432 0 0.133332 0 0)
(0.287358 0.0113418 0 0.155866 0 0)
(0.372074 -0.12385 0 0.0622255 0 0)
(0.662844 -0.181169 0 0.0753058 0 0)
(0.717449 -0.184075 0 0.0777067 0 0)
(0.956741 -0.199982 0 0.0834174 0 0)
(1.09001 -0.208639 0 0.0896645 0 0)
(1.25207 -0.20222 0 0.0981995 0 0)
(1.38843 -0.188283 0 0.10523 0 0)
(1.51505 -0.169077 0 0.111832 0 0)
(1.59578 -0.121711 0 0.112088 0 0)
(1.68609 -0.0821265 0 0.117935 0 0)
(1.68175 -0.0192346 0 0.114764 0 0)
(1.69019 0.0373286 0 0.124358 0 0)
(1.57147 0.0889826 0 0.121677 0 0)
(1.54684 0.135427 0 0.133048 0 0)
(1.3501 0.15787 0 0.132153 0 0)
(1.30429 0.190583 0 0.139632 0 0)
(1.12266 0.186764 0 0.134892 0 0)
(1.03366 0.201476 0 0.138108 0 0)
(0.899684 0.185638 0 0.127079 0 0)
(0.769686 0.176281 0 0.127265 0 0)
(0.694948 0.167337 0 0.115967 0 0)
(0.559015 0.133408 0 0.113191 0 0)
(0.517674 0.134262 0 0.110368 0 0)
(0.415358 0.0937531 0 0.109804 0 0)
(0.401688 0.0901741 0 0.121123 0 0)
(0.332321 0.0552362 0 0.131503 0 0)
(0.362137 0.03434 0 0.163784 0 0)
(0.317256 0.00960482 0 0.197184 0 0)
(0.513753 -0.200702 0 0.101527 0 0)
(0.757837 -0.244339 0 0.113086 0 0)
(0.806985 -0.247131 0 0.117412 0 0)
(1.07208 -0.252337 0 0.12529 0 0)
(1.08992 -0.253426 0 0.136263 0 0)
(1.2919 -0.217413 0 0.143372 0 0)
(1.338 -0.222104 0 0.156403 0 0)
(1.48775 -0.159606 0 0.162661 0 0)
(1.49665 -0.132702 0 0.164508 0 0)
(1.60595 -0.0552854 0 0.173003 0 0)
(1.517 -0.00392344 0 0.166163 0 0)
(1.54216 0.0768796 0 0.178943 0 0)
(1.40025 0.107218 0 0.172599 0 0)
(1.33812 0.166455 0 0.190358 0 0)
(1.1898 0.178008 0 0.180071 0 0)
(1.1102 0.205184 0 0.186079 0 0)
(0.982228 0.20358 0 0.17543 0 0)
(0.875719 0.207084 0 0.172222 0 0)
(0.783881 0.200379 0 0.161006 0 0)
(0.65553 0.175396 0 0.152688 0 0)
(0.595585 0.173534 0 0.145357 0 0)
(0.487508 0.132634 0 0.138251 0 0)
(0.444038 0.127749 0 0.136141 0 0)
(0.377342 0.0896762 0 0.139514 0 0)
(0.360084 0.0775683 0 0.148585 0 0)
(0.330093 0.0425871 0 0.171829 0 0)
(0.33752 0.0262224 0 0.192089 0 0)
(0.34829 -0.0161659 0 0.247841 0 0)
(0.679605 -0.274285 0 0.139957 0 0)
(0.788054 -0.288611 0 0.145715 0 0)
(0.885846 -0.270191 0 0.136779 0 0)
(1.01923 -0.266594 0 0.147426 0 0)
(1.04898 -0.233917 0 0.152437 0 0)
(1.21112 -0.220308 0 0.172037 0 0)
(1.2541 -0.191144 0 0.184016 0 0)
(1.39899 -0.134787 0 0.191801 0 0)
(1.4192 -0.09475 0 0.197864 0 0)
(1.47867 0.00358904 0 0.20198 0 0)
(1.40015 0.0618517 0 0.202958 0 0)
(1.37782 0.147597 0 0.213437 0 0)
(1.21872 0.183806 0 0.22588 0 0)