/*--------------------------------*- C++ -*----------------------------------*\
| =========                 |                                                 |
| \\      /  F ield         | OpenFOAM: The Open Source CFD Toolbox           |
|  \\    /   O peration     | Version:  2.4.0                                 |
|   \\  /    A nd           | Web:      www.OpenFOAM.org                      |
|    \\/     M anipulation  |                                                 |
\*---------------------------------------------------------------------------*/
FoamFile
{
    version     2.0;
    format      ascii;
    class       volScalarField;
    location    "10";
    object      nut;
}
// * * * * * * * * * * * * * * * * * * * * * * * * * * * * * * * * * * * * * //

dimensions      [0 2 -1 0 0 0 0];

internalField   nonuniform List<scalar> 
1800
(
0.0192008
0.0270518
0.0307341
0.032787
0.0341038
0.0349987
0.0356153
0.036045
0.036354
0.036588
0.0367769
0.0369395
0.0370879
0.0372298
0.0373695
0.0375099
0.0376524
0.0377978
0.0379466
0.0380991
0.00490751
0.0106852
0.0149252
0.0177115
0.0195143
0.0206902
0.0214556
0.021948
0.0222594
0.0224523
0.0225693
0.0226394
0.0226819
0.0227099
0.0227315
0.0227523
0.0227753
0.0228026
0.0228352
0.0228736
0.000326395
0.00217842
0.00502683
0.0078423
0.0101021
0.0117516
0.0129051
0.0136916
0.0142144
0.0145504
0.014756
0.0148723
0.0149292
0.014948
0.0149436
0.0149267
0.0149046
0.0148822
0.0148627
0.014848
5.67576e-06
0.000102429
0.000680767
0.00187965
0.00350344
0.00518703
0.00666128
0.00783058
0.00870814
0.0093444
0.00979208
0.010096
0.0102922
0.0104091
0.010469
0.0104889
0.010482
0.0104583
0.0104252
0.0103884
5.23965e-06
4.5534e-06
2.62283e-05
0.000154154
0.000505008
0.00116389
0.00209722
0.00316437
0.00420858
0.00512586
0.00587646
0.00646321
0.0069071
0.00723292
0.00746352
0.00761863
0.00771486
0.00776615
0.00778409
0.0077782
5.2359e-06
3.40776e-06
3.03354e-06
7.03286e-06
3.15564e-05
0.000111278
0.000296778
0.000638973
0.00115589
0.0018141
0.00254175
0.00326087
0.00391388
0.00447176
0.00492817
0.00528948
0.00556704
0.00577329
0.0059201
0.00601838
5.23582e-06
3.3858e-06
2.53183e-06
2.21898e-06
2.93546e-06
7.79005e-06
2.56522e-05
7.18658e-05
0.000169883
0.000348725
0.000632261
0.00102592
0.00151005
0.00204518
0.00258569
0.00309336
0.00354413
0.00392773
0.00424355
0.00449635
5.23582e-06
3.38644e-06
2.51826e-06
2.05858e-06
1.83054e-06
1.91866e-06
2.98025e-06
7.21235e-06
1.93426e-05
4.72956e-05
0.000103508
0.000204802
0.000369282
0.000610359
0.000930076
0.00131557
0.00174141
0.00217691
0.00259458
0.00297542
5.23582e-06
3.38798e-06
2.52025e-06
2.05472e-06
1.78152e-06
1.62233e-06
1.58493e-06
1.83124e-06
2.92696e-06
6.34765e-06
1.49635e-05
3.35944e-05
6.98671e-05
0.000134544
0.000240588
0.000400485
0.000622056
0.000904305
0.00123581
0.00159728
5.23582e-06
3.38982e-06
2.52341e-06
2.05823e-06
1.78278e-06
1.60848e-06
1.49702e-06
1.44265e-06
1.48968e-06
1.8041e-06
2.85366e-06
5.71866e-06
1.24243e-05
2.6391e-05
5.30487e-05
0.000100183
0.000177535
0.000295221
0.000460977
0.000677333
5.23581e-06
3.39184e-06
2.52699e-06
2.06273e-06
1.78754e-06
1.61231e-06
1.4953e-06
1.41629e-06
1.36894e-06
1.3657e-06
1.46192e-06
1.82043e-06
2.85462e-06
5.46168e-06
1.1304e-05
2.31994e-05
4.55795e-05
8.46627e-05
0.000147911
0.000242691
5.2358e-06
3.39393e-06
2.53075e-06
2.06757e-06
1.79298e-06
1.61789e-06
1.50039e-06
1.41906e-06
1.36261e-06
1.32635e-06
1.31347e-06
1.34429e-06
1.48237e-06
1.89797e-06
3.00101e-06
5.65451e-06
1.14479e-05
2.30293e-05
4.42806e-05
7.99662e-05
5.23578e-06
3.39595e-06
2.53444e-06
2.07239e-06
1.79849e-06
1.62372e-06
1.5062e-06
1.42443e-06
1.36672e-06
1.32653e-06
1.30075e-06
1.29e-06
1.30247e-06
1.36576e-06
1.55784e-06
2.08035e-06
3.40854e-06
6.51962e-06
1.31106e-05
2.56132e-05
5.23577e-06
3.3978e-06
2.53782e-06
2.07684e-06
1.80361e-06
1.62919e-06
1.51171e-06
1.42969e-06
1.37138e-06
1.33007e-06
1.30193e-06
1.2851e-06
1.27971e-06
1.28967e-06
1.32858e-06
1.43673e-06
1.72579e-06
2.48464e-06
4.36712e-06
8.52899e-06
5.23575e-06
3.39937e-06
2.54069e-06
2.08062e-06
1.80796e-06
1.63382e-06
1.51634e-06
1.43403e-06
1.37512e-06
1.33284e-06
1.30323e-06
1.28409e-06
1.27448e-06
1.27475e-06
1.2875e-06
1.32093e-06
1.39914e-06
1.59755e-06
2.1269e-06
3.47202e-06
5.23573e-06
3.40059e-06
2.54292e-06
2.08357e-06
1.81141e-06
1.63759e-06
1.52031e-06
1.43813e-06
1.37934e-06
1.33722e-06
1.30784e-06
1.28898e-06
1.27949e-06
1.27916e-06
1.28872e-06
1.31069e-06
1.35156e-06
1.43322e-06
1.62367e-06
2.12598e-06
5.30096e-06
3.59845e-06
2.97909e-06
2.91402e-06
3.25129e-06
3.96136e-06
5.04615e-06
6.49643e-06
8.27394e-06
1.03111e-05
1.25213e-05
1.48113e-05
1.70916e-05
1.92816e-05
2.13102e-05
2.3116e-05
2.4638e-05
2.57488e-05
2.6327e-05
2.70125e-05
0.000382305
0.000386031
0.000389432
0.000392594
0.000395555
0.000398332
0.000400936
0.000403375
0.000405651
0.000407761
0.000409698
0.000411445
0.000412972
0.00041423
0.000415133
0.000415529
0.000415031
0.000412788
0.000405777
0.000388364
0.0382554
0.0384153
0.0385787
0.0387454
0.0389151
0.0229178
0.0229677
0.0230232
0.023084
0.0231499
0.0148391
0.0148366
0.0148406
0.0148511
0.0148681
0.0103515
0.0103172
0.0102871
0.0102625
0.0102441
0.00775613
0.00772387
0.00768597
0.00764593
0.00760645
0.00607783
0.00610684
0.0061124
0.00610029
0.00607536
0.00469319
0.00484159
0.00494854
0.00502022
0.00506209
0.00330979
0.00359511
0.00383257
0.00402475
0.00417476
0.00196724
0.00232712
0.00266327
0.00296629
0.00323032
0.000940543
0.00124173
0.0015683
0.0019044
0.00223299
0.000375002
0.000549414
0.000769037
0.00103203
0.00132843
0.000135053
0.00021496
0.00032727
0.000480358
0.000678496
4.67866e-05
7.95095e-05
0.000128711
0.000202277
0.000308569
1.64041e-05
2.91918e-05
4.92288e-05
8.10834e-05
0.000131063
6.3739e-06
1.13172e-05
1.9185e-05
3.22233e-05
5.40383e-05
3.27975e-06
5.21312e-06
8.23232e-06
1.33065e-05
2.21988e-05
2.66717e-05
2.56299e-05
2.46738e-05
2.39293e-05
2.43532e-05
0.000310822
0.000251707
0.000219535
0.000192706
0.000165267
0.0390876
0.0392631
0.0394415
0.0396231
0.0398081
0.0399974
0.0401925
0.0403962
0.0406144
0.0408574
0.0411302
0.0413348
0.0405619
0.0372366
0.0133185
0.0232209
0.0232968
0.0233775
0.0234633
0.0235544
0.0236514
0.0237559
0.0238705
0.024001
0.0241555
0.0243266
0.0243714
0.0236125
0.0200858
0.00905607
0.0148916
0.0149215
0.0149577
0.0150004
0.0150499
0.0151066
0.0151719
0.0152482
0.0153397
0.0154504
0.015558
0.0155017
0.0147464
0.0120232
0.00611532
0.0102324
0.0102279
0.0102308
0.0102414
0.01026
0.0102873
0.0103242
0.0103725
0.0104348
0.0105094
0.0105639
0.0104506
0.00979537
0.00795889
0.00426927
0.00756972
0.0075375
0.0075112
0.00749192
0.00748065
0.00747833
0.00748602
0.00750501
0.00753605
0.00757414
0.00758599
0.00745797
0.00695341
0.00576563
0.00313838
0.00604183
0.00600338
0.00596319
0.00592402
0.00588824
0.00585797
0.00583517
0.00582154
0.00581773
0.00581894
0.00579906
0.00568155
0.00531886
0.004529
0.00242888
0.00507925
0.00507647
0.00505817
0.00502839
0.0049909
0.00494928
0.00490699
0.00486733
0.00483275
0.00480186
0.00475893
0.00465671
0.00439693
0.00382475
0.0019698
0.00428625
0.00436324
0.00440983
0.00442998
0.00442763
0.00440687
0.00437212
0.0043282
0.00427992
0.00423022
0.00417293
0.00408081
0.00388243
0.00341908
0.00166325
0.0034528
0.00363375
0.00377464
0.00387747
0.00394468
0.00397928
0.00398518
0.00396734
0.00393175
0.00388432
0.00382572
0.00374208
0.00357878
0.0031699
0.00145175
0.00253958
0.00281449
0.00305212
0.00324939
0.00340482
0.00351839
0.00359168
0.00362798
0.00363245
0.00361163
0.00356992
0.00350225
0.00336632
0.00299354
0.00130069
0.00164227
0.00195656
0.00225658
0.00253049
0.00276934
0.00296709
0.00312053
0.00322916
0.00329517
0.00332331
0.0033187
0.0032814
0.00317864
0.00284485
0.00118918
0.000918853
0.00119251
0.00148648
0.00178535
0.00207321
0.00233602
0.00256305
0.00274733
0.00288561
0.00297846
0.00302887
0.0030386
0.00298203
0.00270143
0.0011048
0.000453553
0.000639791
0.000865719
0.00112435
0.00140314
0.00168603
0.00195645
0.00219994
0.00240577
0.00256783
0.00268423
0.0027551
0.00275944
0.00255102
0.00104045
0.000205763
0.00031155
0.000453858
0.000635467
0.000854427
0.00110291
0.00136781
0.00163293
0.00188197
0.00210146
0.00228245
0.00242034
0.00249619
0.00237805
0.000992032
8.90951e-05
0.000142775
0.000221216
0.00033082
0.000476254
0.000658898
0.000875194
0.00111609
0.00136802
0.0016155
0.00184434
0.00204431
0.00219688
0.00218722
0.000959993
3.73798e-05
6.23139e-05
0.000101637
0.000161133
0.000247035
0.000364973
0.000518413
0.000707055
0.000925855
0.00116538
0.00141374
0.0016601
0.00188922
0.00200969
0.000947423
2.75123e-05
3.56017e-05
5.16191e-05
7.95147e-05
0.000124262
0.000191758
0.00028814
0.000418546
0.000585724
0.000789184
0.00102563
0.00129213
0.00158513
0.00186225
0.000966942
0.000139115
0.000116526
0.000100086
9.28415e-05
9.84438e-05
0.00012166
0.000168053
0.000243342
0.000353317
0.000503731
0.000700406
0.000953511
0.001279
0.00173964
0.00103869
0.000653096
0.000376534
0.0003243
0.000278876
0.000245364
0.00069983
0.000781983
0.000741738
0.00062367
0.000523244
0.000706518
0.00126933
0.00145345
0.00139147
0.00127848
0.000681706
0.000863965
0.00118947
0.00146693
0.0015243
0.000575052
0.000752111
0.000959916
0.00112862
0.00119507
0.000490576
0.000681695
0.000787291
0.000868643
0.000898614
0.000428334
0.00059354
0.000660211
0.000705461
0.000705841
0.000378744
0.000503263
0.000545858
0.000572263
0.000553173
0.000333692
0.000411677
0.000431626
0.000437849
0.000407046
0.000284509
0.00032152
0.000317195
0.000283093
0.000255804
0.000244334
0.000238108
0.000211818
0.000130922
0.00011766
0.000210395
0.000169523
0.000120949
7.00327e-05
5.69903e-05
0.000184559
0.000129149
8.80883e-05
8.25838e-05
6.54084e-05
0.000168238
0.000132787
0.00012255
9.98636e-05
7.22312e-05
0.000160067
0.000158487
0.000140901
0.000100004
7.07385e-05
0.000158658
0.000160732
0.000142706
8.38979e-05
6.77594e-05
0.000161978
0.000140365
0.000101498
5.15012e-05
5.92368e-05
2.98313e-05
3.85219e-05
4.20797e-05
4.05876e-05
3.76382e-05
0.000219156
0.000194673
0.000171144
0.000149874
0.000133619
0.000126341
0.00013333
0.000161357
0.000218066
0.000311446
0.000451446
0.000656843
0.000961777
0.00144112
0.00137989
0.000418518
0.000339079
0.000279199
0.000233007
0.000196802
0.000169222
0.000151163
0.000145855
0.00015923
0.000200216
0.000280368
0.000417143
0.000644694
0.000998578
0.00119182
0.000973095
0.000751157
0.000586535
0.000462443
0.000368246
0.000296635
0.000242877
0.000204686
0.000182324
0.000179067
0.000202214
0.000264383
0.000384312
0.000563108
0.000672377
0.00129607
0.00110579
0.000921153
0.000754528
0.000612086
0.000494559
0.000400194
0.000326557
0.000271666
0.000234801
0.000217207
0.000222592
0.00025599
0.000309633
0.000337896
0.00121007
0.00119817
0.00110544
0.000978967
0.000844203
0.000715299
0.000599732
0.000501053
0.000420449
0.000357938
0.000313217
0.000286055
0.000275534
0.000276383
0.000277413
0.000926806
0.00102497
0.00106912
0.00103553
0.000965315
0.000877236
0.000783974
0.000694289
0.000614097
0.000547203
0.000495947
0.000461797
0.000445535
0.000446431
0.000460784
0.000711852
0.000784238
0.00086744
0.000919253
0.000929
0.000909247
0.000873934
0.000832023
0.000791033
0.000757542
0.000737445
0.000736119
0.000757849
0.000803007
0.000863269
0.00054517
0.000578632
0.000651824
0.000709888
0.000767719
0.000799525
0.000819404
0.000834
0.000849166
0.000871157
0.00090628
0.000959776
0.00103333
0.00112154
0.00121062
0.00035053
0.000359729
0.000429921
0.00048237
0.000542475
0.000586164
0.00062808
0.000672408
0.000722711
0.000782716
0.000855389
0.000941568
0.0010384
0.00113881
0.00123341
0.000197343
0.000191892
0.000203151
0.000237802
0.000273937
0.000307292
0.000341111
0.000379347
0.000425687
0.000483112
0.000553025
0.000634303
0.000723473
0.000816271
0.00090896
9.74258e-05
9.00044e-05
8.43803e-05
8.82121e-05
9.56497e-05
0.000103056
0.000110396
0.000118948
0.00012997
0.000144578
0.000165559
0.00019564
0.000236264
0.000287375
0.000350578
5.23444e-05
4.86394e-05
4.53018e-05
4.35864e-05
4.29596e-05
4.27289e-05
4.24729e-05
4.2147e-05
4.18794e-05
4.1848e-05
4.24308e-05
4.42026e-05
4.79304e-05
5.45859e-05
6.56288e-05
5.06497e-05
4.40098e-05
3.98597e-05
3.77428e-05
3.65408e-05
3.57152e-05
3.50277e-05
3.44108e-05
3.38595e-05
3.3398e-05
3.30452e-05
3.2796e-05
3.26281e-05
3.25392e-05
3.25751e-05
5.21441e-05
4.32692e-05
3.85608e-05
3.66921e-05
3.58047e-05
3.51701e-05
3.46515e-05
3.42202e-05
3.38575e-05
3.3571e-05
3.33784e-05
3.32882e-05
3.32931e-05
3.33692e-05
3.34748e-05
5.04896e-05
4.10832e-05
3.71691e-05
3.56387e-05
3.49813e-05
3.45856e-05
3.43075e-05
3.40954e-05
3.39216e-05
3.37825e-05
3.36864e-05
3.36416e-05
3.36514e-05
3.37151e-05
3.3828e-05
5.47157e-05
4.39184e-05
3.91211e-05
3.72115e-05
3.64326e-05
3.60856e-05
3.59029e-05
3.57896e-05
3.57065e-05
3.56402e-05
3.55927e-05
3.55689e-05
3.55717e-05
3.56035e-05
3.56658e-05
6.83698e-05
5.9261e-05
5.42863e-05
5.30477e-05
5.21185e-05
5.17617e-05
5.16339e-05
5.16207e-05
5.16696e-05
5.17463e-05
5.18433e-05
5.19632e-05
5.21057e-05
5.22688e-05
5.24509e-05
6.47938e-05
6.37025e-05
6.32302e-05
6.33006e-05
6.38873e-05
6.4463e-05
6.51647e-05
6.59444e-05
6.67465e-05
6.75614e-05
6.83924e-05
6.92384e-05
7.00952e-05
7.09608e-05
7.18343e-05
0.000682062
0.000636899
0.000596185
0.000557745
0.000521726
0.000488551
0.000458398
0.000431602
0.00040867
0.000389196
0.000364892
0.00035222
0.000347061
0.000347975
0.000355446
0.000364766
0.000372816
0.000388208
0.000433872
0.000514397
0.000534408
0.000533916
0.000525651
0.000513838
0.000500024
0.000485051
0.000469632
0.000454396
0.00043988
0.00042651
0.000414639
0.000404449
0.000396198
0.000389874
0.000385533
0.000379212
0.000340698
0.000374362
0.000361652
0.000354794
0.00107337
0.00100622
0.000952835
0.000909653
0.000882058
0.000868772
0.000867733
0.000876014
0.000890377
0.000908829
0.000938561
0.000977705
0.00102378
0.0010789
0.0011466
0.0011798
0.00119671
0.00129304
0.00153535
0.00174823
0.00178954
0.00181737
0.00183112
0.00182756
0.00180653
0.00177006
0.00172121
0.00166348
0.00160032
0.0015347
0.00146894
0.0014037
0.00133901
0.00126969
0.00120135
0.00100233
0.000757418
0.000745416
0.000752431
0.000771191
0.000640587
0.000593038
0.000564309
0.000544159
0.000526369
0.000511577
0.000501306
0.000495686
0.000493943
0.000495932
0.000512932
0.000532836
0.000556888
0.000589237
0.000637663
0.000712767
0.000802617
0.000914202
0.00107972
0.00130713
0.00138248
0.001451
0.00150844
0.00155098
0.00157587
0.00158229
0.001571
0.00154381
0.00150306
0.00145102
0.00138945
0.00131927
0.0012406
0.0011559
0.00107073
0.000880288
0.00081379
0.000778019
0.000738831
0.000717054
0.000326664
0.000309244
0.000300415
0.000295625
0.000290297
0.00028425
0.000278523
0.000273565
0.000269358
0.000266136
0.000268554
0.00027196
0.000277299
0.000286503
0.000304177
0.000344971
0.000406357
0.000476687
0.000550307
0.000632048
0.000670951
0.000715867
0.00076345
0.000810861
0.000853932
0.000888224
0.000910113
0.000917352
0.000909159
0.00088604
0.000849549
0.000802398
0.000748628
0.000695104
0.000648462
0.00056829
0.000600154
0.000597027
0.000582098
0.000568041
0.000275142
0.000271603
0.000267463
0.000262926
0.000257882
0.000252364
0.000246607
0.000240837
0.000235204
0.00022967
0.00022253
0.00021668
0.000211976
0.000208453
0.000207016
0.000213221
0.000231302
0.000257077
0.000281295
0.000293963
0.000298592
0.00030586
0.00031535
0.000327017
0.000340251
0.000353909
0.000366553
0.000376801
0.000383711
0.000387126
0.000387866
0.000387702
0.000388738
0.000392662
0.000398778
0.000416172
0.000443009
0.000446816
0.000441414
0.00043622
0.000481074
0.000496487
0.000501965
0.000501373
0.000498398
0.000493481
0.000486266
0.000477178
0.000467039
0.000455444
0.000431633
0.000412664
0.000395615
0.000378208
0.000358423
0.000333728
0.000308857
0.000290579
0.000280056
0.000273435
0.000270543
0.000270661
0.000273219
0.000277542
0.000283315
0.000290439
0.000299005
0.000309229
0.000321414
0.00033592
0.000353076
0.000373024
0.000395339
0.000418563
0.000440004
0.000471715
0.000468329
0.000465824
0.000463713
0.000464092
0.000922617
0.000964789
0.000986766
0.000997077
0.00100165
0.00100071
0.000993506
0.000980979
0.000964718
0.000943547
0.000897441
0.000859624
0.00082415
0.000786456
0.000742622
0.000685578
0.000623689
0.000569424
0.000528494
0.000505
0.000499705
0.000493113
0.000488503
0.0004861
0.000485314
0.000486057
0.000488469
0.000492822
0.000499371
0.000508288
0.000519564
0.000532828
0.000547133
0.000560592
0.000571651
0.000572067
0.000552965
0.000545089
0.000541701
0.000540687
0.00128631
0.00134076
0.00137697
0.00140251
0.00142064
0.00143054
0.00143151
0.00142461
0.00141134
0.00139004
0.00134394
0.00130319
0.00126208
0.00121633
0.00116219
0.00109174
0.00101163
0.000936135
0.00087431
0.000835225
0.000820653
0.000805709
0.000789664
0.000772634
0.000756039
0.000739802
0.000724188
0.000709528
0.000696029
0.000683767
0.000672663
0.000662362
0.000652294
0.000641377
0.000630184
0.000587477
0.000576537
0.000564702
0.000551232
0.000540014
0.00131597
0.00138442
0.0014408
0.00148786
0.00152588
0.0015538
0.00157132
0.00157931
0.00157881
0.00156855
0.00154222
0.00151471
0.00148301
0.00144508
0.001399
0.00134129
0.00127383
0.00120396
0.00113865
0.00108822
0.00105998
0.00102839
0.000995862
0.00096207
0.000926585
0.000889939
0.000852506
0.00081464
0.000776535
0.000738321
0.000700103
0.000661922
0.000624102
0.000586861
0.000552792
0.000477353
0.000482276
0.00046692
0.00044084
0.00041824
0.000999351
0.00108469
0.0011626
0.00123171
0.00129092
0.00133949
0.00137737
0.00140501
0.00142292
0.00143073
0.00143262
0.00142679
0.00141329
0.00139274
0.00136548
0.00133443
0.00129732
0.00125156
0.00119779
0.00114289
0.00110457
0.00106044
0.00101304
0.000963059
0.000911237
0.000858194
0.000802786
0.000745054
0.000685565
0.000625038
0.000564424
0.000505034
0.000448762
0.00039722
0.000353476
0.000280607
0.00029743
0.000284127
0.000258298
0.000237616
0.000425359
0.000507012
0.000589225
0.000667758
0.000740534
0.000806371
0.00086423
0.000913257
0.000953037
0.000983874
0.00101817
0.00103896
0.00104917
0.00105211
0.00105025
0.00105284
0.00105405
0.00104168
0.00100885
0.000956694
0.000915006
0.000865427
0.000810663
0.000751529
0.000688584
0.000623378
0.000558979
0.000492509
0.000426213
0.00036253
0.000304032
0.000252993
0.000210933
0.000177978
0.000154077
0.000124265
0.000139187
0.000135175
0.000125408
0.000119259
8.26057e-05
0.000105977
0.000134752
0.000167658
0.000203787
0.000242166
0.000281353
0.000319611
0.00035567
0.000388991
0.000432602
0.000464433
0.000488421
0.000508597
0.000527371
0.000558499
0.000593498
0.000612147
0.000601405
0.000557199
0.000520969
0.000477703
0.000430562
0.000380762
0.000329459
0.000278282
0.000230383
0.000188449
0.000152895
0.000124861
0.000104275
9.02663e-05
8.15184e-05
7.64912e-05
7.41429e-05
7.11741e-05
7.47487e-05
7.62218e-05
7.72617e-05
7.8726e-05
3.29354e-05
3.39548e-05
3.59197e-05
3.90103e-05
4.33824e-05
4.91546e-05
5.63032e-05
6.46043e-05
7.37564e-05
8.35018e-05
9.82156e-05
0.000110724
0.000121914
0.000133032
0.000144832
0.000165527
0.000191944
0.000210062
0.000209038
0.000185547
0.000169688
0.000151289
0.000132244
0.000113322
9.53566e-05
7.93995e-05
6.65197e-05
5.79504e-05
5.34672e-05
5.18159e-05
5.18922e-05
5.28133e-05
5.39979e-05
5.50914e-05
5.61196e-05
5.62774e-05
5.76495e-05
5.94977e-05
6.11876e-05
6.23867e-05
3.35649e-05
3.36137e-05
3.36197e-05
3.35907e-05
3.35365e-05
3.34797e-05
3.34597e-05
3.35269e-05
3.37134e-05
3.40708e-05
3.48589e-05
3.58058e-05
3.68945e-05
3.81954e-05
3.98472e-05
4.31762e-05
4.84109e-05
5.28954e-05
5.3334e-05
4.87281e-05
4.60981e-05
4.31763e-05
4.05008e-05
3.84191e-05
3.72944e-05
3.7279e-05
3.82238e-05
3.96031e-05
4.10761e-05
4.25298e-05
4.39068e-05
4.51342e-05
4.61502e-05
4.68989e-05
4.74934e-05
4.75582e-05
4.87024e-05
4.95899e-05
5.02175e-05
5.06108e-05
3.39824e-05
3.41691e-05
3.43784e-05
3.4599e-05
3.48167e-05
3.50149e-05
3.51773e-05
3.52922e-05
3.53506e-05
3.5355e-05
3.52262e-05
3.50462e-05
3.4829e-05
3.45571e-05
3.42369e-05
3.36857e-05
3.30265e-05
3.26137e-05
3.25013e-05
3.27582e-05
3.3007e-05
3.34157e-05
3.39715e-05
3.46572e-05
3.54209e-05
3.61645e-05
3.6966e-05
3.78649e-05
3.88486e-05
3.98592e-05
4.08142e-05
4.16358e-05
4.22825e-05
4.27289e-05
4.30535e-05
4.33633e-05
4.36657e-05
4.38249e-05
4.39434e-05
4.39754e-05
3.5759e-05
3.58821e-05
3.60326e-05
3.62064e-05
3.63973e-05
3.65976e-05
3.67983e-05
3.69904e-05
3.71648e-05
3.7317e-05
3.74402e-05
3.75191e-05
3.75593e-05
3.75586e-05
3.75195e-05
3.73849e-05
3.71491e-05
3.69211e-05
3.68246e-05
3.69181e-05
3.69887e-05
3.71318e-05
3.74666e-05
3.79556e-05
3.85763e-05
3.93459e-05
4.02451e-05
4.12432e-05
4.22993e-05
4.3371e-05
4.44212e-05
4.54229e-05
4.63665e-05
4.72439e-05
4.80838e-05
4.94142e-05
4.95206e-05
5.00373e-05
5.08493e-05
5.1613e-05
5.26514e-05
5.28693e-05
5.31021e-05
5.33471e-05
5.36008e-05
5.38597e-05
5.41198e-05
5.43775e-05
5.46292e-05
5.48744e-05
5.51342e-05
5.53718e-05
5.55931e-05
5.58055e-05
5.60164e-05
5.61165e-05
5.61544e-05
5.63097e-05
5.67407e-05
5.76654e-05
5.83305e-05
5.90222e-05
5.96245e-05
6.01921e-05
6.07739e-05
6.14093e-05
6.21355e-05
6.30007e-05
6.40394e-05
6.52724e-05
6.67111e-05
6.8363e-05
7.02346e-05
7.23301e-05
7.4636e-05
7.6869e-05
7.93757e-05
8.22693e-05
8.50005e-05
8.75527e-05
7.27363e-05
7.36523e-05
7.45636e-05
7.54677e-05
7.63625e-05
7.72469e-05
7.812e-05
7.89806e-05
7.98292e-05
8.06924e-05
8.1988e-05
8.27013e-05
8.34908e-05
8.43722e-05
8.53617e-05
8.62866e-05
8.7473e-05
8.90101e-05
9.04994e-05
9.14204e-05
9.06014e-05
9.05702e-05
9.0144e-05
8.9355e-05
8.82376e-05
8.68265e-05
8.51538e-05
8.32537e-05
8.11682e-05
7.89483e-05
7.66568e-05
7.43681e-05
7.21672e-05
7.01374e-05
6.83834e-05
6.72859e-05
6.53836e-05
6.62562e-05
6.6524e-05
6.62245e-05
)
;

boundaryField
{
    inlet
    {
        type            calculated;
        value           uniform 9.96555e-06;
    }
    outlet
    {
        type            calculated;
        value           nonuniform List<scalar> 
18
(
0.000354794
0.000771191
0.000717054
0.000568041
0.00043622
0.000464092
0.000540687
0.000540014
0.00041824
0.000237616
0.000119259
7.8726e-05
6.23867e-05
5.06108e-05
4.39754e-05
5.1613e-05
8.75527e-05
6.62245e-05
)
;
    }
    centerline
    {
        type            symmetry;
    }
    fixedWalls
    {
        type            nutkWallFunction;
        Cmu             0.09;
        kappa           0.41;
        E               9.8;
        value           nonuniform List<scalar> 
156
(
4.09188e-05
4.12829e-05
4.1615e-05
4.19235e-05
4.22121e-05
4.24827e-05
4.27362e-05
4.29735e-05
4.31948e-05
4.33999e-05
4.3588e-05
4.37576e-05
4.39058e-05
4.40279e-05
4.41156e-05
4.4154e-05
4.41061e-05
4.38891e-05
4.32101e-05
4.15187e-05
6.66314e-05
7.02476e-05
7.06263e-05
6.80808e-05
5.8039e-05
4.99447e-05
4.38261e-05
3.88455e-05
3.42685e-05
2.9368e-05
2.54791e-05
2.23392e-05
2.01449e-05
1.89408e-05
1.84851e-05
1.86292e-05
1.91374e-05
3.66285e-06
3.66285e-06
4.76335e-06
5.22211e-06
5.04539e-06
4.70306e-06
8.08228e-06
7.95464e-06
7.89159e-06
7.90998e-06
7.97929e-06
8.04955e-06
8.1353e-06
8.22993e-06
8.3269e-06
8.42519e-06
8.52522e-06
8.62679e-06
8.72943e-06
8.8329e-06
8.93708e-06
9.04444e-06
9.15323e-06
9.26123e-06
9.36811e-06
9.47367e-06
9.57778e-06
9.68034e-06
9.78125e-06
9.88057e-06
9.98147e-06
1.01333e-05
1.02162e-05
1.03081e-05
1.04107e-05
1.05261e-05
1.06338e-05
1.0772e-05
1.09511e-05
1.11245e-05
1.12323e-05
1.11368e-05
1.11359e-05
1.10899e-05
1.10025e-05
1.08775e-05
1.07185e-05
1.05293e-05
1.03134e-05
1.00751e-05
9.81996e-06
9.55491e-06
9.28856e-06
9.03105e-06
8.79253e-06
8.58568e-06
8.45736e-06
8.22726e-06
8.33487e-06
8.36806e-06
8.33216e-06
6.14113e-05
5.78086e-05
5.45171e-05
5.13477e-05
4.83322e-05
4.55262e-05
4.29655e-05
4.07012e-05
3.87988e-05
3.72468e-05
3.55157e-05
3.48784e-05
3.4937e-05
3.55652e-05
3.6823e-05
3.81187e-05
3.91819e-05
4.09276e-05
4.56102e-05
5.34367e-05
5.53288e-05
5.52703e-05
5.44681e-05
5.33208e-05
5.19748e-05
5.05109e-05
4.89985e-05
4.74993e-05
4.60659e-05
4.47408e-05
4.35592e-05
4.25401e-05
4.17095e-05
4.10665e-05
4.06158e-05
3.99312e-05
3.62145e-05
3.94706e-05
3.82414e-05
3.75697e-05
0.00104815
0.000734793
0.000512388
0.000368712
0.000278327
0.000220294
0.000181949
0.000155803
0.000137337
0.000123776
0.000113429
0.000105286
9.87733e-05
9.35501e-05
8.9644e-05
8.72269e-05
8.71313e-05
9.0772e-05
)
;
    }
    frontAndBack
    {
        type            empty;
    }
}


// ************************************************************************* //
