/*--------------------------------*- C++ -*----------------------------------*\
| =========                 |                                                 |
| \\      /  F ield         | OpenFOAM: The Open Source CFD Toolbox           |
|  \\    /   O peration     | Version:  2.4.0                                 |
|   \\  /    A nd           | Web:      www.OpenFOAM.org                      |
|    \\/     M anipulation  |                                                 |
\*---------------------------------------------------------------------------*/
FoamFile
{
    version     2.0;
    format      ascii;
    class       volScalarField;
    location    "4.5";
    object      epsilon;
}
// * * * * * * * * * * * * * * * * * * * * * * * * * * * * * * * * * * * * * //

dimensions      [0 2 -3 0 0 0 0];

internalField   nonuniform List<scalar> 
5625
(
0.359356
0.289809
0.111085
0.0640662
0.0535307
0.0437919
0.0388061
0.0346473
0.0321978
0.0302403
0.0290591
0.0282132
0.0277201
0.0276442
0.0277861
0.0280897
0.0285747
0.0292192
0.0300054
0.0309297
0.0319882
0.0331694
0.0344639
0.035863
0.0373599
0.0389492
0.0406281
0.0423973
0.0442548
0.0461626
0.0481381
0.050176
0.0522775
0.0544385
0.056656
0.0589271
0.0612496
0.0636208
0.0660386
0.0685013
0.0710089
0.0735613
0.0761497
0.0787747
0.081438
0.0841395
0.0868797
0.0896612
0.0924844
0.0953557
0.098366
0.103855
0.109903
0.116429
0.123494
0.131158
0.139541
0.148687
0.158851
0.169973
0.182653
0.19643
0.212894
0.230108
0.252995
0.273898
0.309427
0.332287
0.392157
0.420051
0.515307
0.561756
0.706203
0.830654
0.702152
0.0501475
0.235841
0.147935
0.0681985
0.038595
0.0261059
0.0206311
0.0172966
0.0153976
0.0140775
0.0132569
0.0127117
0.0123873
0.0122399
0.0122129
0.0122837
0.0124497
0.0126953
0.0130119
0.0133961
0.0138427
0.0143456
0.0149
0.0155015
0.0161468
0.016833
0.0175583
0.0183235
0.0191202
0.0199436
0.0207996
0.0216929
0.0226146
0.0235636
0.024539
0.0255401
0.0265662
0.0276167
0.0286914
0.0297902
0.0309134
0.032062
0.0332333
0.034428
0.035648
0.0368942
0.0381677
0.03947
0.0408035
0.0421746
0.0436214
0.045654
0.0478757
0.0502427
0.0527711
0.0554914
0.0584126
0.0616001
0.0650255
0.0688614
0.072937
0.0777107
0.0826555
0.0887647
0.0951044
0.102788
0.112073
0.121136
0.135815
0.147757
0.169274
0.189822
0.218014
0.26896
0.130412
0.0474808
0.183482
0.156693
0.0876887
0.0462051
0.0281812
0.0204062
0.0160994
0.0137099
0.0121485
0.0111727
0.0105205
0.0101082
0.00987519
0.00976952
0.00975558
0.00982917
0.00997618
0.0101868
0.0104557
0.0107774
0.0111459
0.0115567
0.0120059
0.01249
0.0130065
0.0135536
0.0141298
0.0147312
0.0153541
0.0160014
0.0166732
0.0173658
0.0180783
0.0188102
0.0195608
0.0203297
0.0211165
0.021921
0.0227433
0.0235836
0.0244425
0.0253188
0.0262131
0.0271268
0.0280606
0.0290156
0.0299932
0.0309953
0.0320274
0.0331136
0.0344719
0.035938
0.037491
0.0391353
0.0408921
0.0427573
0.044785
0.0469256
0.0493372
0.0518131
0.0547994
0.0576835
0.0615235
0.0650226
0.0699283
0.0747711
0.0806871
0.0881012
0.0958267
0.106308
0.119477
0.132361
0.160023
0.151544
0.0451881
0.146984
0.154377
0.108103
0.0589244
0.0343341
0.0233712
0.0176078
0.0144454
0.0124478
0.0111944
0.0103537
0.00980869
0.00946681
0.00927167
0.00919068
0.00919767
0.00928254
0.00943337
0.0096429
0.00990449
0.0102118
0.0105597
0.010944
0.0113612
0.0118083
0.0122831
0.0127837
0.0133072
0.0138505
0.0144149
0.0149995
0.0156019
0.0162213
0.0168569
0.0175083
0.0181749
0.0188563
0.0195524
0.0202631
0.0209887
0.0217293
0.0224844
0.0232544
0.0240403
0.0248427
0.0256627
0.0265013
0.0273605
0.0282447
0.0291721
0.0302602
0.0314249
0.0326532
0.0339461
0.0353199
0.0367686
0.0383363
0.0399772
0.0418227
0.0436923
0.0459615
0.0480957
0.0510095
0.053517
0.057277
0.0605852
0.0652469
0.0701078
0.0762412
0.0829848
0.0931989
0.101556
0.11898
0.172916
0.0431905
0.118396
0.149176
0.122041
0.0736896
0.0430391
0.0282382
0.0204976
0.0162631
0.0136514
0.0120133
0.010924
0.0102066
0.00973635
0.00944179
0.00928091
0.00922678
0.00925525
0.00935596
0.00951967
0.00973831
0.0100046
0.0103128
0.0106579
0.0110361
0.011444
0.0118791
0.0123388
0.0128208
0.0133223
0.0138436
0.0143833
0.0149394
0.0155111
0.0160975
0.016698
0.0173121
0.0179393
0.0185793
0.0192321
0.0198977
0.0205762
0.0212673
0.0219711
0.0226885
0.0234199
0.0241663
0.0249285
0.0257083
0.0265095
0.0273464
0.0282899
0.0292927
0.0303465
0.0314511
0.0326195
0.0338458
0.0351667
0.0365432
0.038084
0.0396391
0.0415183
0.0432762
0.0456792
0.0477084
0.0508308
0.0534086
0.0573786
0.061015
0.0663059
0.0713134
0.0798929
0.0863108
0.0999563
0.19253
0.0414223
0.0952978
0.140867
0.128997
0.0890934
0.0535794
0.0346289
0.0244813
0.0188986
0.0155027
0.0133739
0.0119627
0.011023
0.0103913
0.00997648
0.00972152
0.00959365
0.00956448
0.0096153
0.00973589
0.0099165
0.0101486
0.0104254
0.0107412
0.0110915
0.0114725
0.0118812
0.0123146
0.0127705
0.0132464
0.0137417
0.0142546
0.0147835
0.0153274
0.0158853
0.0164565
0.0170403
0.0176363
0.0182441
0.0188634
0.0194938
0.0201356
0.0207884
0.0214525
0.0221282
0.0228161
0.0235168
0.0242312
0.0249607
0.0257088
0.0264867
0.02734
0.0282412
0.0291845
0.0301696
0.0312074
0.0322936
0.033458
0.0346689
0.036016
0.0373768
0.0390066
0.0405387
0.0426117
0.0443646
0.0470715
0.0492352
0.0527531
0.0556943
0.0604496
0.0644998
0.0720202
0.0774015
0.0894714
0.209969
0.0398396
0.0768169
0.130088
0.130219
0.102814
0.0653053
0.0423854
0.029509
0.0222969
0.01793
0.015191
0.0133798
0.0121657
0.011338
0.0107791
0.0104146
0.0101999
0.0101037
0.0100998
0.0101737
0.0103145
0.0105124
0.0107593
0.0110487
0.0113751
0.0117342
0.0121225
0.0125366
0.0129741
0.0134324
0.01391
0.0144052
0.0149164
0.0154423
0.015982
0.0165346
0.0170992
0.0176754
0.0182625
0.0188603
0.0194685
0.0200869
0.0207153
0.0213537
0.0220024
0.0226618
0.0233322
0.0240146
0.0247102
0.0254219
0.0261585
0.0269499
0.0277805
0.0286468
0.0295481
0.030494
0.031481
0.0325343
0.0336288
0.0348396
0.0360661
0.0375197
0.0388993
0.0407379
0.0423108
0.0447201
0.046622
0.0498117
0.0523173
0.0566881
0.0601587
0.0669152
0.0716693
0.0831065
0.225331
0.0384062
0.0630358
0.116247
0.128929
0.112408
0.0774853
0.0512936
0.0355559
0.0264668
0.0209373
0.0174578
0.015159
0.0136108
0.0125455
0.011813
0.0113177
0.011002
0.0108247
0.0107591
0.0107807
0.0108781
0.0110396
0.0112557
0.0115185
0.0118219
0.0121607
0.0125307
0.0129282
0.0133505
0.0137948
0.0142591
0.0147414
0.0152401
0.0157537
0.016281
0.016821
0.0173729
0.0179359
0.0185093
0.0190927
0.0196857
0.020288
0.0208993
0.0215195
0.0221487
0.0227872
0.0234353
0.0240936
0.0247633
0.0254468
0.0261512
0.0268979
0.0276772
0.0284872
0.0293272
0.0302048
0.0311166
0.0320856
0.0330915
0.0341976
0.0353224
0.0366424
0.0379096
0.0395704
0.0410151
0.043197
0.0449196
0.0478539
0.0500678
0.0541401
0.0572268
0.0634104
0.0677471
0.0790103
0.238857
0.0370963
0.0537649
0.100404
0.124935
0.117373
0.0893658
0.0610292
0.0425577
0.0314211
0.0245484
0.0201925
0.0173104
0.0153613
0.0140111
0.0130707
0.0124195
0.0119841
0.0117132
0.0115722
0.011535
0.0115829
0.0117035
0.0118855
0.0121198
0.0123989
0.0127168
0.0130687
0.0134503
0.0138586
0.0142905
0.0147434
0.0152152
0.015704
0.0162082
0.0167263
0.0172572
0.0177999
0.0183534
0.0189171
0.0194902
0.0200722
0.0206628
0.0212616
0.0218682
0.0224826
0.023105
0.0237356
0.0243749
0.0250238
0.0256845
0.0263624
0.027073
0.0278106
0.0285744
0.0293639
0.0301864
0.0310395
0.0319429
0.0328797
0.0339019
0.0349448
0.0361568
0.0373342
0.0388534
0.0401996
0.0421995
0.043791
0.0465168
0.0485252
0.0523527
0.0551669
0.0609045
0.0649455
0.0762729
0.250787
0.0358873
0.047291
0.0849123
0.118029
0.118362
0.0994939
0.0711401
0.0503786
0.0371484
0.0287855
0.0234206
0.0198548
0.0174318
0.0157443
0.0145571
0.0137214
0.0131447
0.0127637
0.0125347
0.0124275
0.0124188
0.0124925
0.0126357
0.0128377
0.0130898
0.0133849
0.0137174
0.0140824
0.0144764
0.0148959
0.0153379
0.0157999
0.0162799
0.0167759
0.0172863
0.0178098
0.0183451
0.0188912
0.0194471
0.0200122
0.0205857
0.021167
0.0217556
0.0223512
0.0229535
0.0235626
0.0241786
0.0248017
0.0254327
0.0260735
0.0267284
0.0274085
0.0281109
0.0288357
0.0295824
0.0303577
0.0311599
0.0320063
0.0328833
0.033837
0.0348131
0.0359365
0.0370381
0.0384385
0.0397038
0.041553
0.0430426
0.045592
0.0474495
0.0510677
0.0536777
0.0590558
0.0628782
0.0743943
0.261331
0.0347599
0.0426247
0.0709561
0.108538
0.117428
0.106271
0.0811167
0.0587973
0.0435945
0.0336557
0.0271651
0.022816
0.0198427
0.0177607
0.0162841
0.0152317
0.014489
0.0139789
0.0136478
0.0134576
0.0133834
0.0134026
0.013501
0.0136658
0.013887
0.0141562
0.0144669
0.0148134
0.0151917
0.0155978
0.0160282
0.0164802
0.0169513
0.0174392
0.0179422
0.0184587
0.0189873
0.0195267
0.0200759
0.0206338
0.0211997
0.0217729
0.0223526
0.0229383
0.0235298
0.0241269
0.0247295
0.0253378
0.0259525
0.0265748
0.0272084
0.0278615
0.0285327
0.0292227
0.0299314
0.0306648
0.0314217
0.0322177
0.0330417
0.0339341
0.0348499
0.0358971
0.0369345
0.0382345
0.0394289
0.0411486
0.0425546
0.0449509
0.0466922
0.0501273
0.0525765
0.0576554
0.0613108
0.0730769
0.270653
0.0337
0.0391619
0.0591781
0.0972452
0.114451
0.109549
0.0902988
0.0675027
0.0506479
0.0391386
0.0314386
0.026215
0.0226149
0.0200787
0.0182668
0.0169622
0.0160263
0.0153659
0.0149157
0.0146299
0.0144775
0.0144344
0.0144806
0.0146023
0.0147876
0.0150269
0.0153125
0.0156377
0.015998
0.0163889
0.0168063
0.017247
0.0177081
0.0181873
0.0186824
0.0191916
0.0197132
0.0202458
0.0207881
0.0213389
0.0218973
0.0224624
0.0230334
0.0236096
0.0241905
0.0247758
0.0253654
0.0259593
0.0265579
0.0271623
0.0277753
0.0284031
0.0290453
0.0297031
0.0303764
0.0310712
0.0317862
0.032536
0.0333112
0.034148
0.0350086
0.0359869
0.0369644
0.0381774
0.0393095
0.0409148
0.0422487
0.0445091
0.0461561
0.049429
0.0517456
0.0565683
0.0600925
0.0721326
0.278881
0.0326967
0.0365096
0.0505006
0.0844451
0.108898
0.109838
0.0976229
0.0761083
0.0581325
0.0451763
0.0362348
0.030065
0.0257668
0.0227164
0.0205213
0.018927
0.0177682
0.0169339
0.016346
0.0159496
0.0157071
0.0155906
0.0155768
0.0156484
0.015792
0.0159964
0.0162526
0.016553
0.0168923
0.0172654
0.0176675
0.0180949
0.0185446
0.0190136
0.0194995
0.0200003
0.0205139
0.0210388
0.0215735
0.0221166
0.0226669
0.0232233
0.023785
0.024351
0.0249209
0.025494
0.0260701
0.0266491
0.0272313
0.0278174
0.0284096
0.0290127
0.0296269
0.0302537
0.0308931
0.0315509
0.0322261
0.0329322
0.0336613
0.0344461
0.0352546
0.0361696
0.0370906
0.038224
0.0392972
0.0408028
0.0420708
0.0442085
0.0457756
0.0489025
0.0511055
0.0557033
0.0591218
0.0714365
0.286113
0.0317418
0.0344084
0.0441289
0.0717329
0.100958
0.108664
0.101995
0.0842276
0.0658057
0.0516645
0.0415217
0.0343654
0.02931
0.025689
0.023063
0.02114
0.019727
0.0186935
0.0179476
0.0174241
0.017078
0.0168765
0.0167932
0.0168068
0.0169019
0.0170657
0.0172876
0.0175591
0.0178736
0.0182256
0.0186095
0.0190213
0.0194571
0.0199139
0.0203889
0.0208795
0.0213837
0.0218994
0.0224251
0.0229591
0.0235
0.0240467
0.0245979
0.0251527
0.0257103
0.0262702
0.0268317
0.0273948
0.0279595
0.0285264
0.029097
0.0296752
0.0302614
0.0308575
0.0314635
0.032085
0.0327212
0.0333849
0.0340692
0.0348043
0.0355626
0.0364181
0.0372848
0.0383447
0.0393611
0.0407753
0.0419831
0.0440076
0.0455042
0.0484974
0.0506004
0.0549964
0.0583275
0.0709027
0.292425
0.0308288
0.0326885
0.0393869
0.060167
0.0912659
0.10558
0.103598
0.0911292
0.0733577
0.0584473
0.0472341
0.0390969
0.0332458
0.0290063
0.0259044
0.023614
0.0219145
0.0206555
0.0197299
0.0190615
0.0185969
0.0182983
0.0181345
0.0180816
0.0181207
0.0182373
0.0184193
0.0186568
0.0189423
0.0192693
0.0196316
0.0200246
0.0204439
0.0208859
0.0213475
0.0218258
0.0223184
0.0228231
0.0233379
0.023861
0.0243908
0.0249259
0.025465
0.026007
0.0265508
0.0270957
0.0276412
0.0281868
0.0287325
0.0292787
0.0298265
0.0303788
0.0309364
0.0315013
0.0320736
0.0326588
0.0332561
0.0338779
0.0345179
0.0352045
0.0359135
0.0367119
0.0375253
0.0385162
0.039477
0.040806
0.0419563
0.0438759
0.0453082
0.0481771
0.0501897
0.0544016
0.0576581
0.0704702
0.297877
0.0299526
0.0312396
0.0358079
0.0504576
0.0804183
0.100181
0.103214
0.095925
0.0804435
0.065316
0.0532679
0.0442153
0.0375607
0.0326693
0.0290529
0.0263589
0.0243412
0.0228296
0.021702
0.0208699
0.020271
0.0198619
0.0196065
0.019477
0.0194519
0.0195142
0.0196499
0.0198479
0.0200994
0.020397
0.0207339
0.0211044
0.0215038
0.021928
0.0223734
0.0228367
0.0233152
0.0238064
0.0243081
0.024818
0.0253346
0.0258561
0.0263809
0.0269079
0.0274359
0.0279639
0.0284912
0.0290175
0.0295422
0.0300659
0.030589
0.0311141
0.0316419
0.0321746
0.0327124
0.0332606
0.0338185
0.0343981
0.0349939
0.0356323
0.0362923
0.0370352
0.0377957
0.0387207
0.0396262
0.0408751
0.0419686
0.04379
0.045162
0.0479138
0.0498431
0.0538844
0.0570757
0.0700949
0.302515
0.0291082
0.0299841
0.0330557
0.0432608
0.0688484
0.0926877
0.101434
0.098154
0.0866598
0.0720122
0.0594768
0.049647
0.0422223
0.0366671
0.0325084
0.0293798
0.0270145
0.025224
0.0238718
0.0228567
0.022107
0.0215735
0.0212144
0.020998
0.0208995
0.0208997
0.0209822
0.0211345
0.0213466
0.0216099
0.0219167
0.0222607
0.0226365
0.0230394
0.0234653
0.0239106
0.0243721
0.0248469
0.0253326
0.0258269
0.0263275
0.0268328
0.027341
0.0278505
0.0283602
0.028869
0.0293758
0.0298803
0.0303819
0.0308807
0.0313772
0.0318733
0.0323697
0.0328688
0.0333707
0.0338808
0.0343984
0.0349352
0.035486
0.0360763
0.0366869
0.0373751
0.0380826
0.0389439
0.0397941
0.0409666
0.0420038
0.0437318
0.0450462
0.0476861
0.0495377
0.053419
0.0565513
0.069744
0.306378
0.0282914
0.0288693
0.03089
0.0378862
0.0578659
0.0836152
0.097687
0.0981845
0.0912926
0.0782359
0.0656714
0.0552848
0.0471744
0.0409734
0.0362609
0.0326751
0.0299371
0.0278437
0.0262449
0.025028
0.0241108
0.0234383
0.022963
0.0226487
0.0224673
0.0223968
0.0224188
0.0225188
0.0226854
0.022909
0.0231809
0.0234938
0.0238418
0.0242194
0.0246222
0.0250459
0.025487
0.0259424
0.0264091
0.0268845
0.0273664
0.0278526
0.0283412
0.0288305
0.0293192
0.029806
0.0302897
0.0307698
0.0312456
0.0317171
0.0321845
0.0326495
0.0331126
0.0335763
0.0340407
0.0345113
0.0349873
0.0354802
0.0359852
0.0365268
0.0370875
0.0377212
0.0383754
0.0391742
0.0399688
0.0410677
0.0420484
0.043687
0.0449453
0.0474774
0.0492554
0.0529853
0.0560627
0.0693929
0.309497
0.0274999
0.027859
0.0291422
0.0338446
0.0482485
0.0735787
0.0918338
0.0970791
0.093641
0.0836892
0.0716236
0.0609853
0.0523341
0.0455427
0.040287
0.0362344
0.0331058
0.0306893
0.0288241
0.0273873
0.0262863
0.0254604
0.0248561
0.0244326
0.0241583
0.0240083
0.023962
0.0240025
0.0241172
0.0242953
0.0245268
0.0248039
0.0251194
0.0254675
0.025843
0.0262413
0.0266584
0.0270907
0.0275349
0.0279882
0.028448
0.0289119
0.0293779
0.0298439
0.0303085
0.0307703
0.0312279
0.0316808
0.032128
0.0325695
0.0330052
0.0334366
0.0338642
0.0342904
0.0347155
0.0351449
0.0355777
0.0360254
0.0364834
0.0369756
0.0374856
0.0380646
0.0386648
0.0394021
0.0401405
0.0411679
0.0420917
0.0436438
0.0448471
0.0472742
0.048982
0.0525675
0.0555925
0.0690231
0.311905
0.0267317
0.0269282
0.0276936
0.0307728
0.0407154
0.0629861
0.0841834
0.0942962
0.0939512
0.0877973
0.0770677
0.066569
0.0575885
0.0503072
0.0445474
0.0400357
0.036509
0.0337555
0.0316076
0.0299351
0.0286351
0.0276418
0.0268959
0.0263519
0.0259746
0.0257359
0.0256129
0.025587
0.0256427
0.0257691
0.0259547
0.0261905
0.0264687
0.0267826
0.0271266
0.0274953
0.0278843
0.0282896
0.0287077
0.0291352
0.0295694
0.0300076
0.0304474
0.0308868
0.031324
0.0317576
0.0321859
0.0326084
0.0330239
0.0334325
0.0338338
0.034229
0.0346186
0.0350052
0.0353888
0.035775
0.0361629
0.0365641
0.0369737
0.0374154
0.0378737
0.0383977
0.0389433
0.0396193
0.040301
0.0412583
0.0421247
0.0435928
0.0447415
0.0470658
0.0487062
0.0521531
0.055127
0.0686205
0.313628
0.025985
0.0260604
0.0264617
0.028401
0.0351328
0.0527183
0.0752113
0.0894521
0.0930615
0.0899443
0.08173
0.0718242
0.0627935
0.0551743
0.0489842
0.0440431
0.040125
0.0370295
0.0345882
0.032667
0.0311553
0.0299819
0.0290825
0.0284071
0.0279167
0.0275802
0.0273721
0.0272718
0.0272625
0.0273303
0.0274639
0.0276529
0.0278885
0.0281634
0.0284711
0.0288057
0.0291624
0.0295367
0.0299245
0.0303224
0.0307271
0.0311358
0.0315459
0.0319551
0.0323615
0.0327633
0.0331591
0.0335478
0.0339285
0.0343011
0.0346649
0.0350212
0.0353702
0.0357148
0.0360547
0.0363958
0.036737
0.0370898
0.0374497
0.0378397
0.0382453
0.0387137
0.039204
0.039819
0.0404433
0.0413314
0.0421396
0.0435258
0.0446202
0.0468433
0.0484186
0.051732
0.0546549
0.0681741
0.31467
0.0252584
0.0252294
0.0253909
0.0265381
0.0309787
0.0436617
0.0654953
0.0828093
0.0906704
0.090215
0.0851617
0.0765095
0.0677757
0.0600247
0.0535179
0.0482046
0.0439198
0.0404889
0.0377514
0.0355735
0.0338405
0.0324765
0.0314131
0.0305961
0.0299831
0.0295399
0.0292385
0.0290561
0.0289744
0.0289778
0.0290529
0.0291893
0.029377
0.0296077
0.0298742
0.03017
0.0304898
0.0308287
0.0311822
0.0315463
0.0319176
0.0322929
0.0326694
0.0330446
0.0334164
0.0337829
0.0341425
0.0344941
0.0348367
0.03517
0.0354933
0.0358078
0.0361136
0.0364136
0.0367076
0.0370015
0.037294
0.0375969
0.0379056
0.0382428
0.0385946
0.0390066
0.0394408
0.0399947
0.0405613
0.0413805
0.0421308
0.0434361
0.0444764
0.0465995
0.0481116
0.051296
0.0541673
0.0676757
0.315062
0.0245504
0.0244195
0.0244386
0.0250461
0.027871
0.0365122
0.0554809
0.074703
0.0863395
0.0893159
0.086835
0.0803754
0.0723349
0.0647121
0.0580463
0.0524497
0.0478449
0.0441003
0.0410739
0.0386381
0.036679
0.035117
0.0338811
0.0329138
0.0321697
0.0316115
0.031209
0.0309372
0.030776
0.0307083
0.0307193
0.0307969
0.0309311
0.0311122
0.0313326
0.0315847
0.0318631
0.032162
0.0324766
0.0328027
0.0331364
0.0334742
0.0338131
0.0341504
0.0344838
0.0348114
0.0351312
0.0354422
0.0357432
0.0360339
0.0363137
0.0365835
0.0368433
0.0370962
0.0373419
0.0375864
0.0378284
0.0380798
0.0383357
0.0386189
0.0389159
0.0392709
0.0396485
0.0401411
0.0406495
0.0413998
0.0420926
0.043318
0.0443041
0.0463282
0.0477789
0.0508382
0.053657
0.0671193
0.314872
0.0238599
0.0236555
0.0235266
0.0238177
0.0255306
0.031264
0.0459324
0.0656148
0.0802568
0.0869689
0.0867927
0.0830468
0.0762467
0.0690652
0.0624433
0.0566876
0.0518356
0.0478173
0.044522
0.0418363
0.0396522
0.0378892
0.0364756
0.0353515
0.0344692
0.0337889
0.0332782
0.0329101
0.0326626
0.0325173
0.0324582
0.0324716
0.0325464
0.0326728
0.0328418
0.0330454
0.0332774
0.0335318
0.0338031
0.0340867
0.0343785
0.0346747
0.0349719
0.0352674
0.0355585
0.0358432
0.0361196
0.0363864
0.0366424
0.0368874
0.0371204
0.0373425
0.0375536
0.037757
0.0379521
0.0381452
0.0383347
0.038533
0.0387348
0.0389629
0.0392041
0.0395014
0.0398218
0.0402529
0.0407023
0.0413853
0.0420202
0.0431662
0.0440983
0.0460242
0.0474152
0.0503531
0.053118
0.0665003
0.314077
0.0231858
0.022935
0.022656
0.022759
0.0237302
0.027411
0.0376896
0.0561263
0.0727121
0.0827659
0.0856935
0.0840618
0.079288
0.0728912
0.0665606
0.060807
0.0558095
0.051579
0.0480504
0.0451338
0.0427338
0.0407726
0.03918
0.0378957
0.0368703
0.0360623
0.0354374
0.0349669
0.0346273
0.0343984
0.0342633
0.0342071
0.0342173
0.0342835
0.0343962
0.0345461
0.0347271
0.0349322
0.0351558
0.0353925
0.035638
0.0358883
0.0361398
0.0363894
0.0366343
0.0368725
0.0371017
0.0373207
0.0375283
0.0377243
0.0379075
0.0380791
0.0382389
0.0383902
0.0385326
0.0386723
0.0388076
0.0389512
0.0390976
0.0392696
0.0394543
0.0396933
0.0399563
0.040325
0.0407164
0.0413317
0.0419094
0.0429764
0.0438547
0.0456834
0.0470161
0.049836
0.0525454
0.065815
0.312698
0.0225273
0.0222517
0.0218315
0.0218067
0.0223045
0.0245698
0.0313921
0.046677
0.0640986
0.0768936
0.083089
0.0836341
0.0811023
0.0759786
0.0702296
0.064676
0.0596655
0.0553082
0.0516
0.0484854
0.0458882
0.0437388
0.0419714
0.0405274
0.0393571
0.0384181
0.0376748
0.0370972
0.0366602
0.0363427
0.0361263
0.0359951
0.0359358
0.0359371
0.0359882
0.0360796
0.036205
0.0363563
0.0365275
0.036713
0.036908
0.0371083
0.0373099
0.0375096
0.0377045
0.0378923
0.0380707
0.0382385
0.0383944
0.0385383
0.0386687
0.038787
0.0388928
0.0389899
0.0390774
0.0391619
0.0392414
0.0393291
0.039419
0.039534
0.0396616
0.0398419
0.0400471
0.040353
0.040688
0.0412351
0.0417567
0.0427447
0.0435695
0.0453019
0.0465779
0.049283
0.0519353
0.065061
0.310752
0.0218834
0.0215964
0.0210728
0.0209036
0.0211315
0.0224512
0.026838
0.0380733
0.0549564
0.0696123
0.0787318
0.0820768
0.081338
0.0781226
0.0732661
0.0681442
0.0632841
0.0589116
0.0550979
0.0518337
0.0490697
0.0467509
0.0448198
0.0432216
0.0419083
0.0408379
0.0399743
0.0392864
0.0387485
0.0383381
0.038036
0.0378254
0.0376919
0.0376233
0.0376091
0.0376369
0.0377023
0.0377954
0.03791
0.0380398
0.0381802
0.0383264
0.0384741
0.0386201
0.0387613
0.0388951
0.0390193
0.0391325
0.0392336
0.0393223
0.0393971
0.0394595
0.0395091
0.0395499
0.0395806
0.0396082
0.0396306
0.0396612
0.0396937
0.0397513
0.0398213
0.0399422
0.040089
0.0403343
0.0406129
0.0410916
0.0415588
0.0424674
0.0432395
0.0448768
0.0460973
0.0486909
0.0512842
0.0642365
0.308257
0.0212534
0.0209622
0.0203721
0.0200546
0.0201234
0.0208298
0.0235412
0.0309831
0.0458749
0.061297
0.0728147
0.078929
0.080431
0.0789537
0.0754808
0.0710453
0.0665287
0.062279
0.0584558
0.0551078
0.0522212
0.0497626
0.0476866
0.045946
0.0444966
0.0432981
0.042315
0.0415162
0.0408754
0.0403694
0.0399783
0.0396846
0.0394731
0.0393308
0.0392464
0.0392079
0.0392086
0.0392392
0.0392931
0.0393634
0.0394452
0.0395334
0.0396235
0.0397121
0.0397959
0.0398724
0.039939
0.0399945
0.040038
0.0400688
0.0400854
0.0400895
0.0400808
0.0400635
0.0400358
0.0400052
0.0399694
0.039942
0.0399164
0.0399164
0.0399283
0.0399888
0.0400808
0.040264
0.0404877
0.0408976
0.0413129
0.0421413
0.0428617
0.0444053
0.0455718
0.0480569
0.0505896
0.0633405
0.305228
0.0206364
0.0203441
0.0197195
0.0192697
0.0192121
0.0195466
0.0211374
0.0259128
0.0372532
0.0524143
0.0655773
0.0741969
0.078214
0.078436
0.0766487
0.0732045
0.0692484
0.0652847
0.0615707
0.0582234
0.0552738
0.0527166
0.0505243
0.0486606
0.0470877
0.045769
0.0446709
0.0437633
0.04302
0.0424176
0.0419358
0.0415566
0.0412643
0.0410451
0.0408872
0.0407785
0.040711
0.0406757
0.0406653
0.0406722
0.0406919
0.0407185
0.0407476
0.0407755
0.0407987
0.0408147
0.0408208
0.0408157
0.040799
0.0407695
0.0407256
0.0406697
0.0406008
0.0405235
0.0404362
0.0403465
0.0402516
0.0401659
0.0400818
0.0400231
0.0399757
0.0399818
0.0400168
0.0401383
0.0403091
0.0406497
0.0410156
0.0417639
0.0424339
0.0438852
0.0449991
0.0473788
0.0498494
0.0623725
0.301681
0.0200361
0.01974
0.0191033
0.01856
0.0183591
0.0184866
0.0193531
0.0222936
0.0299806
0.0435598
0.0573881
0.0680269
0.0744117
0.0768224
0.0764502
0.0744559
0.0712845
0.0677901
0.0643253
0.0610829
0.0581461
0.0555451
0.0532757
0.0513165
0.0496397
0.0482141
0.0470101
0.0459994
0.0451568
0.0444595
0.0438872
0.0434217
0.043047
0.0427489
0.0425151
0.0423335
0.042195
0.0420906
0.0420126
0.0419534
0.0419077
0.0418697
0.0418347
0.0417989
0.0417586
0.0417113
0.0416545
0.0415867
0.041507
0.041415
0.0413091
0.0411914
0.041061
0.0409227
0.0407748
0.0406254
0.0404711
0.0403269
0.0401829
0.0400667
0.0399632
0.0399133
0.0398919
0.0399556
0.0400736
0.0403451
0.040664
0.0413332
0.0419538
0.0433146
0.0443772
0.0466548
0.0490618
0.0613325
0.297631
0.0194476
0.0191502
0.0185117
0.017915
0.0175665
0.0175745
0.0179863
0.0197015
0.0245568
0.0352236
0.048719
0.0606736
0.0691488
0.073739
0.0751954
0.0744888
0.0724775
0.0696486
0.0665912
0.063576
0.0607445
0.0581687
0.0558731
0.0538561
0.0521027
0.0505901
0.0492943
0.0481904
0.0472553
0.0464675
0.0458072
0.0452566
0.0447996
0.044422
0.044111
0.0438548
0.0436434
0.0434677
0.0433197
0.0431918
0.0430782
0.0429731
0.0428714
0.0427695
0.0426635
0.0425507
0.0424287
0.0422963
0.0421519
0.0419959
0.0418264
0.0416458
0.041453
0.0412531
0.0410442
0.0408349
0.0406209
0.0404164
0.0402158
0.0400447
0.0398845
0.0397796
0.0397008
0.0397128
0.0397767
0.0399822
0.0402556
0.0408471
0.0414196
0.0426917
0.0437047
0.0458833
0.0482255
0.0602211
0.293094
0.0188702
0.0185742
0.0179389
0.0173167
0.0168599
0.0167271
0.016896
0.0178261
0.0207667
0.0280747
0.0401426
0.0525187
0.0625928
0.0692189
0.0725992
0.0734461
0.0726107
0.0707123
0.0682323
0.0655823
0.0629644
0.0604972
0.058239
0.0562122
0.0544183
0.0528459
0.0514783
0.0502961
0.0492794
0.0484088
0.047666
0.0470338
0.0464968
0.0460407
0.0456529
0.0453215
0.0450364
0.0447882
0.0445688
0.0443706
0.0441873
0.0440132
0.0438432
0.0436733
0.0434997
0.0433198
0.0431312
0.0429327
0.0427226
0.0425014
0.0422675
0.0420234
0.0417679
0.0415063
0.0412366
0.040966
0.0406918
0.0404327
0.0401763
0.0399501
0.0397348
0.0395765
0.039442
0.0394025
0.0394155
0.0395598
0.0397878
0.0403036
0.0408296
0.0420154
0.0429803
0.0450631
0.0473395
0.059039
0.288086
0.0183035
0.0180114
0.0173832
0.0167497
0.0162293
0.0159472
0.0159807
0.0164267
0.0181115
0.0226456
0.0321927
0.0440474
0.0550333
0.0633669
0.0686113
0.0711653
0.0716478
0.0708167
0.069111
0.0669754
0.0646923
0.0624307
0.0602861
0.0583084
0.0565198
0.0549225
0.0535101
0.05227
0.0511873
0.0502457
0.0494291
0.0487218
0.0481093
0.0475779
0.0471154
0.0467101
0.0463517
0.0460311
0.04574
0.0454708
0.045217
0.044973
0.0447335
0.0444947
0.0442525
0.0440046
0.0437484
0.0434832
0.0432068
0.0429203
0.0426219
0.0423143
0.0419964
0.0416722
0.0413399
0.0410124
0.0406833
0.0403684
0.040057
0.0397776
0.0395092
0.0392996
0.0391121
0.0390226
0.0389839
0.0390771
0.0392584
0.039701
0.0401826
0.0412844
0.0422029
0.0441935
0.0464033
0.0577874
0.282623
0.0177471
0.0174607
0.0168439
0.0162051
0.0156542
0.0152548
0.0151566
0.0153368
0.0162309
0.0189174
0.0253949
0.035818
0.0468808
0.0563995
0.063305
0.0675415
0.0695308
0.0698475
0.0690943
0.067627
0.0658097
0.063862
0.0619187
0.0600601
0.0583322
0.0567535
0.0553303
0.0540593
0.0529313
0.0519349
0.0510572
0.0502845
0.049604
0.049003
0.0484699
0.0479936
0.0475643
0.0471728
0.0468109
0.0464712
0.0461473
0.0458334
0.0455244
0.0452165
0.0449056
0.0445896
0.044266
0.0439341
0.0435919
0.0432403
0.0428779
0.0425062
0.0421243
0.0417408
0.0413529
0.0409693
0.0405846
0.040216
0.039852
0.0395217
0.039203
0.0389448
0.0387075
0.0385705
0.0384801
0.0385302
0.0386646
0.0390382
0.0394774
0.0404979
0.0413718
0.0432736
0.0454164
0.0564678
0.276721
0.0172005
0.0169213
0.0163204
0.0156794
0.0151149
0.0146475
0.0144031
0.0144425
0.0148593
0.0163546
0.0202658
0.0283697
0.038642
0.0486548
0.0568409
0.0626328
0.0661335
0.0677725
0.0680464
0.0674315
0.0661971
0.0646796
0.0630351
0.0613755
0.0597734
0.0582654
0.0568731
0.0556044
0.0544579
0.0534281
0.0525061
0.0516815
0.0509435
0.0502813
0.0496844
0.0491424
0.0486462
0.048187
0.0477569
0.0473487
0.0469562
0.0465738
0.0461964
0.0458205
0.0454418
0.0450586
0.0446686
0.044271
0.0438639
0.0434463
0.0430187
0.0425869
0.0421484
0.0417085
0.0412641
0.0408261
0.0403884
0.0399688
0.0395551
0.039177
0.0388113
0.0385076
0.0382243
0.038043
0.0379034
0.037914
0.0380053
0.0383144
0.0387129
0.0396552
0.0404865
0.0423033
0.0443788
0.0550819
0.270399
0.0166635
0.0163926
0.0158113
0.0151725
0.0145994
0.0141014
0.0137411
0.0136519
0.0138111
0.0145737
0.0168148
0.0221458
0.0308673
0.0405831
0.0494965
0.0565628
0.0614942
0.0644827
0.0659169
0.0662221
0.0657671
0.0647728
0.0635312
0.0621581
0.0607556
0.0593784
0.0580663
0.0568405
0.0557081
0.0546714
0.0537268
0.0528677
0.0520866
0.0513748
0.0507235
0.0501236
0.0495668
0.0490451
0.0485511
0.0480781
0.0476201
0.0471719
0.0467285
0.0462868
0.0458424
0.0453941
0.0449378
0.0444741
0.0440017
0.0435254
0.043041
0.042552
0.0420565
0.0415616
0.0410638
0.0405745
0.0400872
0.0396201
0.0391604
0.0387382
0.0383294
0.0379841
0.037659
0.037437
0.0372531
0.0372235
0.0372794
0.0375289
0.0378886
0.0387558
0.0395466
0.0412824
0.0432907
0.0536318
0.263674
0.0161356
0.0158737
0.0153145
0.014684
0.0141042
0.0135927
0.0131695
0.0129359
0.0129636
0.0132966
0.0144892
0.0175892
0.0240628
0.0327126
0.0416669
0.0495641
0.0557122
0.0599989
0.0626366
0.0639707
0.0643462
0.0640621
0.0633147
0.0623104
0.0611879
0.0600087
0.0588331
0.0576973
0.0566178
0.0556066
0.054666
0.0537943
0.0529882
0.0522418
0.0515487
0.0509013
0.0502928
0.0497161
0.0491647
0.0486324
0.0481138
0.047604
0.0470978
0.0465917
0.0460827
0.0455701
0.0450541
0.0445331
0.0440045
0.0434703
0.042929
0.0423851
0.0418362
0.04129
0.0407426
0.0402061
0.0396734
0.0391631
0.0386617
0.0381998
0.0377526
0.03737
0.0370081
0.0367496
0.0365273
0.0364578
0.036484
0.036681
0.0370035
0.0377993
0.0385521
0.040211
0.0421524
0.0521196
0.256564
0.0156166
0.0153642
0.0148281
0.0142123
0.0136293
0.0131084
0.0126593
0.0123199
0.0122172
0.0123304
0.0129008
0.0145932
0.0186207
0.0255822
0.0338442
0.0419868
0.04899
0.0544065
0.0582128
0.0606202
0.061918
0.0623891
0.0622676
0.0617589
0.0609863
0.0600703
0.0590936
0.0581014
0.0571195
0.056171
0.055265
0.0544072
0.0535988
0.0528368
0.0521179
0.0514364
0.0507873
0.0501648
0.0495635
0.0489781
0.048404
0.0478369
0.0472741
0.0467132
0.0461495
0.0455827
0.0450106
0.0444336
0.0438499
0.043262
0.0426684
0.042074
0.0414764
0.0408836
0.0402915
0.0397127
0.0391395
0.038591
0.0380533
0.0375567
0.0370765
0.0366616
0.0362684
0.035978
0.0357237
0.035617
0.0356166
0.0357701
0.0360572
0.0367858
0.0375031
0.0390895
0.0409647
0.050548
0.249091
0.0151061
0.0148635
0.0143506
0.0137549
0.0131744
0.0126456
0.0121841
0.0117957
0.0115502
0.0115534
0.0117725
0.0126137
0.0148382
0.0196188
0.0265631
0.0342869
0.0416436
0.0478879
0.0527244
0.0561777
0.0584357
0.0597372
0.0603153
0.0603402
0.060067
0.0594933
0.0587738
0.0579795
0.0571432
0.0563008
0.0554657
0.0546514
0.0538656
0.0531094
0.0523832
0.051684
0.0510091
0.0503545
0.0497163
0.0490903
0.0484728
0.0478603
0.0472495
0.0466383
0.0460235
0.0454056
0.0447826
0.0441553
0.0435222
0.0428863
0.042246
0.0416067
0.040966
0.0403323
0.0397014
0.039086
0.0384783
0.0378974
0.0373294
0.0368039
0.0362968
0.0358553
0.0354369
0.0351199
0.03484
0.0347015
0.034675
0.034796
0.035049
0.0357156
0.0364001
0.0379185
0.0397284
0.0489196
0.241274
0.014604
0.0143713
0.0138811
0.013309
0.0127378
0.0122045
0.0117327
0.011326
0.010996
0.0108604
0.0109176
0.0112794
0.0124118
0.0151427
0.0203226
0.0269865
0.0340982
0.040736
0.0463433
0.050722
0.0539138
0.0560747
0.0574079
0.0580764
0.0582898
0.0581656
0.0577906
0.0572611
0.0566224
0.0559306
0.0552078