/*--------------------------------*- C++ -*----------------------------------*\
| =========                 |                                                 |
| \\      /  F ield         | OpenFOAM: The Open Source CFD Toolbox           |
|  \\    /   O peration     | Version:  2.4.0                                 |
|   \\  /    A nd           | Web:      www.OpenFOAM.org                      |
|    \\/     M anipulation  |                                                 |
\*---------------------------------------------------------------------------*/
FoamFile
{
    version     2.0;
    format      ascii;
    class       surfaceScalarField;
    location    "0.6";
    object      phi;
}
// * * * * * * * * * * * * * * * * * * * * * * * * * * * * * * * * * * * * * //

dimensions      [0 3 -1 0 0 0 0];

internalField   nonuniform List<scalar> 
4456
(
2.50019e-06
-1.92856e-10
2.50078e-06
-5.91226e-10
2.50183e-06
-1.0424e-09
2.50342e-06
-1.59312e-09
2.50572e-06
-2.2972e-09
2.50894e-06
-3.22025e-09
2.51338e-06
-4.44766e-09
2.51948e-06
-6.09298e-09
2.52779e-06
-8.3074e-09
2.53908e-06
-1.12905e-08
2.55438e-06
-1.53031e-08
2.57506e-06
-2.06831e-08
2.60293e-06
-2.78665e-08
2.64034e-06
-3.74087e-08
2.69034e-06
-5.00015e-08
2.75681e-06
-6.64686e-08
2.84454e-06
-8.77319e-08
2.95926e-06
-1.14721e-07
3.10748e-06
-1.48224e-07
-1.88632e-07
3.29612e-06
2.50019e-06
-3.80817e-10
2.50076e-06
-1.16766e-09
2.50178e-06
-2.05902e-09
2.50334e-06
-3.1471e-09
2.50558e-06
-4.53818e-09
2.50872e-06
-6.3621e-09
2.51306e-06
-8.78774e-09
2.519e-06
-1.20399e-08
2.52712e-06
-1.64179e-08
2.53814e-06
-2.23174e-08
2.55309e-06
-3.02558e-08
2.57332e-06
-4.09047e-08
2.60058e-06
-5.51319e-08
2.63722e-06
-7.4046e-08
2.68625e-06
-9.90322e-08
2.75153e-06
-1.31746e-07
2.83785e-06
-1.74056e-07
2.95099e-06
-2.27858e-07
3.09756e-06
-2.94795e-07
-3.75726e-07
3.28465e-06
2.50018e-06
-5.59599e-10
2.50073e-06
-1.71567e-09
2.50169e-06
-3.02552e-09
2.50317e-06
-4.62461e-09
2.5053e-06
-6.66924e-09
2.50829e-06
-9.35053e-09
2.51242e-06
-1.29172e-08
2.51808e-06
-1.77005e-08
2.5258e-06
-2.41421e-08
2.53631e-06
-3.28265e-08
2.55058e-06
-4.45194e-08
2.56989e-06
-6.0217e-08
2.59597e-06
-8.12104e-08
2.63108e-06
-1.09155e-07
2.67818e-06
-1.46132e-07
2.74108e-06
-1.94644e-07
2.82457e-06
-2.57548e-07
2.93449e-06
-3.37784e-07
3.07769e-06
-4.37995e-07
-5.59657e-07
3.26163e-06
2.50017e-06
-7.24787e-10
2.50067e-06
-2.22185e-09
2.50156e-06
-3.91831e-09
2.50293e-06
-5.98966e-09
2.5049e-06
-8.63859e-09
2.50766e-06
-1.21131e-08
2.51148e-06
-1.67364e-08
2.51672e-06
-2.29392e-08
2.52387e-06
-3.12966e-08
2.53362e-06
-4.25711e-08
2.54686e-06
-5.77638e-08
2.56483e-06
-7.81815e-08
2.58914e-06
-1.05525e-07
2.62197e-06
-1.41986e-07
2.66618e-06
-1.90341e-07
2.72549e-06
-2.53956e-07
2.80469e-06
-3.36745e-07
2.90971e-06
-4.42801e-07
3.0477e-06
-5.75989e-07
-7.38663e-07
3.22671e-06
2.50015e-06
-8.72303e-10
2.5006e-06
-2.6738e-09
2.5014e-06
-4.71553e-09
2.50262e-06
-7.20888e-09
2.50438e-06
-1.03982e-08
2.50685e-06
-1.45827e-08
2.51026e-06
-2.01528e-08
2.51495e-06
-2.76294e-08
2.52136e-06
-3.77095e-08
2.53011e-06
-5.13189e-08
2.54203e-06
-6.9677e-08
2.55823e-06
-9.43815e-08
2.58022e-06
-1.27523e-07
2.61005e-06
-1.71811e-07
2.65042e-06
-2.30713e-07
2.70494e-06
-3.08475e-07
2.77835e-06
-4.10154e-07
2.87666e-06
-5.41115e-07
3.00747e-06
-7.06793e-07
-9.1082e-07
3.17962e-06
2.50013e-06
-9.98504e-10
2.50051e-06
-3.06042e-09
2.50119e-06
-5.39759e-09
2.50224e-06
-8.25231e-09
2.50374e-06
-1.19048e-08
2.50586e-06
-1.66986e-08
2.50879e-06
-2.30826e-08
2.51282e-06
-3.16566e-08
2.51833e-06
-4.32248e-08
2.52587e-06
-5.8858e-08
2.53617e-06
-7.99721e-08
2.55022e-06
-1.0843e-07
2.56938e-06
-1.46684e-07
2.5955e-06
-1.97936e-07
2.63112e-06
-2.66334e-07
2.67965e-06
-3.56999e-07
2.74575e-06
-4.76252e-07
2.83543e-06
-6.30795e-07
2.95692e-06
-8.28291e-07
-1.07376e-06
3.11987e-06
2.5001e-06
-1.10027e-09
2.50041e-06
-3.37216e-09
2.50096e-06
-5.94767e-09
2.50181e-06
-9.09419e-09
2.50302e-06
-1.31211e-08
2.50473e-06
-1.84086e-08
2.5071e-06
-2.54533e-08
2.51037e-06
-3.49209e-08
2.51485e-06
-4.77055e-08
2.52099e-06
-6.50011e-08
2.52941e-06
-8.83931e-08
2.54096e-06
-1.19977e-07
2.55681e-06
-1.62534e-07
2.57859e-06
-2.19715e-07
2.60858e-06
-2.96328e-07
2.64993e-06
-3.98345e-07
2.70715e-06
-5.33477e-07
2.78612e-06
-7.09764e-07
2.89603e-06
-9.38198e-07
-1.22415e-06
3.04642e-06
2.50007e-06
-1.17508e-09
2.5003e-06
-3.60126e-09
2.50071e-06
-6.35207e-09
2.50133e-06
-9.71354e-09
2.50222e-06
-1.4017e-08
2.50348e-06
-1.96697e-08
2.50524e-06
-2.72053e-08
2.50766e-06
-3.73398e-08
2.51099e-06
-5.10374e-08
2.51558e-06
-6.95903e-08
2.52191e-06
-9.47219e-08
2.53065e-06
-1.28722e-07
2.54277e-06
-1.74653e-07
2.55962e-06
-2.36564e-07
2.58317e-06
-3.19878e-07
2.61619e-06
-4.31373e-07
2.66294e-06
-5.80221e-07
2.72906e-06
-7.75887e-07
2.82452e-06
-1.03365e-06
-1.35806e-06
2.95843e-06
2.50005e-06
-1.22106e-09
2.50019e-06
-3.74199e-09
2.50044e-06
-6.60063e-09
2.50082e-06
-1.00947e-08
2.50137e-06
-1.45694e-08
2.50215e-06
-2.04498e-08
2.50324e-06
-2.82934e-08
2.50475e-06
-3.88499e-08
2.50684e-06
-5.31321e-08
2.50975e-06
-7.25017e-08
2.51382e-06
-9.87838e-08
2.51951e-06
-1.34415e-07
2.52755e-06
-1.82689e-07
2.53896e-06
-2.47975e-07
2.55534e-06
-3.36258e-07
2.57897e-06
-4.55001e-07
2.61365e-06
-6.149e-07
2.66469e-06
-8.2693e-07
2.74185e-06
-1.11081e-06
-1.47289e-06
2.85668e-06
2.50002e-06
-1.23703e-09
2.50006e-06
-3.79075e-09
2.50015e-06
-6.68697e-09
2.50028e-06
-1.02279e-08
2.50048e-06
-1.47642e-08
2.50076e-06
-2.07281e-08
2.50115e-06
-2.8688e-08
2.50171e-06
-3.94094e-08
2.50251e-06
-5.39298e-08
2.50366e-06
-7.36489e-08
2.50533e-06
-1.00454e-07
2.50779e-06
-1.36875e-07
2.51147e-06
-1.86373e-07
2.51703e-06
-2.53537e-07
2.52564e-06
-3.44871e-07
2.53886e-06
-4.68218e-07
2.56012e-06
-6.36157e-07
2.59336e-06
-8.60172e-07
2.64836e-06
-1.16582e-06
-1.5666e-06
2.74207e-06
2.49999e-06
-1.22256e-09
2.49994e-06
-3.74618e-09
2.49986e-06
-6.60867e-09
2.49974e-06
-1.01092e-08
2.49958e-06
-1.45954e-08
2.49934e-06
-2.04962e-08
2.49903e-06
-2.83764e-08
2.49862e-06
-3.89992e-08
2.49809e-06
-5.34013e-08
2.49743e-06
-7.29867e-08
2.49664e-06
-9.9661e-08
2.49575e-06
-1.35987e-07
2.49491e-06
-1.85529e-07
2.49433e-06
-2.52956e-07
2.49474e-06
-3.45285e-07
2.49664e-06
-4.70118e-07
2.50353e-06
-6.43046e-07
2.51528e-06
-8.71919e-07
2.54674e-06
-1.19728e-06
-1.62954e-06
2.60968e-06
2.49996e-06
-1.17796e-09
2.49982e-06
-3.60925e-09
2.49958e-06
-6.36737e-09
2.49921e-06
-9.74116e-09
2.49868e-06
-1.40663e-08
2.49794e-06
-1.97579e-08
2.49693e-06
-2.73634e-08
2.49555e-06
-3.76238e-08
2.4937e-06
-5.15497e-08
2.49123e-06
-7.05137e-08
2.48796e-06
-9.63934e-08
2.48369e-06
-1.31717e-07
2.47825e-06
-1.80085e-07
2.47137e-06
-2.46077e-07
2.46334e-06
-3.3726e-07
2.45326e-06
-4.60037e-07
2.44529e-06
-6.35069e-07
2.43105e-06
-8.57684e-07
2.44136e-06
-1.2076e-06
-1.63368e-06
2.4455e-06
2.49993e-06
-1.10429e-09
2.4997e-06
-3.38319e-09
2.4993e-06
-5.96875e-09
2.49869e-06
-9.13222e-09
2.49782e-06
-1.31891e-08
2.49659e-06
-1.853e-08
2.4949e-06
-2.56709e-08
2.49258e-06
-3.5312e-08
2.48944e-06
-4.84112e-08
2.4852e-06
-6.62735e-08
2.47951e-06
-9.07001e-08
2.47191e-06
-1.24116e-07
2.4619e-06
-1.70075e-07
2.44873e-06
-2.32908e-07
2.43223e-06
-3.20755e-07
2.40996e-06
-4.37767e-07
2.38702e-06
-6.12129e-07
2.34302e-06
-8.13685e-07
2.33598e-06
-1.20056e-06
-1.53178e-06
2.23409e-06
2.4999e-06
-1.00331e-09
2.49959e-06
-3.07345e-09
2.49904e-06
-5.42241e-09
2.49821e-06
-8.29704e-09
2.497e-06
-1.19846e-08
2.49531e-06
-1.68413e-08
2.49298e-06
-2.33385e-08
2.48979e-06
-3.21166e-08
2.48543e-06
-4.40552e-08
2.47951e-06
-6.0356e-08
2.47151e-06
-8.26929e-08
2.46071e-06
-1.13318e-07
2.44628e-06
-1.55646e-07
2.427e-06
-2.1363e-07
2.40215e-06
-2.95899e-07
2.36812e-06
-4.03736e-07
2.33054e-06
-5.74555e-07
2.25677e-06
-7.39913e-07
2.23572e-06
-1.17951e-06
-1.27447e-06
1.97841e-06
2.49987e-06
-8.77487e-10
2.49949e-06
-2.6876e-09
2.49881e-06
-4.74166e-09
2.49777e-06
-7.25594e-09
2.49626e-06
-1.04822e-08
2.49416e-06
-1.47328e-08
2.49124e-06
-2.04219e-08
2.48724e-06
-2.81133e-08
2.48176e-06
-3.85835e-08
2.4743e-06
-5.28967e-08
2.46416e-06
-7.25473e-08
2.45039e-06
-9.95503e-08
2.4318e-06
-1.37057e-07
2.40676e-06
-1.88584e-07
2.37379e-06
-2.6293e-07
2.32901e-06
-3.58958e-07
2.27727e-06
-5.22818e-07
2.18088e-06
-6.43519e-07
2.15319e-06
-1.15182e-06
-8.51131e-07
1.72985e-06
2.49985e-06
-7.29918e-10
2.4994e-06
-2.23509e-09
2.4986e-06
-3.94321e-09
2.49738e-06
-6.03446e-09
2.49562e-06
-8.71855e-09
2.49314e-06
-1.2256e-08
2.48971e-06
-1.69926e-08
2.485e-06
-2.33998e-08
2.47854e-06
-3.21286e-08
2.46972e-06
-4.40743e-08
2.45767e-06
-6.05011e-08
2.44125e-06
-8.31268e-08
2.41888e-06
-1.14687e-07
2.38856e-06
-1.58267e-07
2.34779e-06
-2.22158e-07
2.29346e-06
-3.04628e-07
2.22703e-06
-4.56387e-07
2.1222e-06
-5.38686e-07
2.1e-06
-1.12962e-06
-3.23079e-07
1.57194e-06
2.49983e-06
-5.64269e-10
2.49933e-06
-1.72706e-09
2.49843e-06
-3.04675e-09
2.49706e-06
-4.66277e-09
2.49508e-06
-6.73731e-09
2.49229e-06
-9.47213e-09
2.48844e-06
-1.31352e-08
2.48313e-06
-1.80927e-08
2.47585e-06
-2.48505e-08
2.46588e-06
-3.41078e-08
2.45224e-06
-4.68521e-08
2.43356e-06
-6.44491e-08
2.40793e-06
-8.90552e-08
2.37298e-06
-1.23322e-07
2.32488e-06
-1.74059e-07
2.26179e-06
-2.41541e-07
2.17806e-06
-3.72649e-07
2.07797e-06
-4.38602e-07
2.05583e-06
-1.10748e-06
1.99393e-07
1.53336e-06
2.49982e-06
-3.84607e-10
2.49927e-06
-1.1761e-09
2.4983e-06
-2.07454e-09
2.49681e-06
-3.17489e-09
2.49466e-06
-4.58768e-09
2.49164e-06
-6.45053e-09
2.48745e-06
-8.94634e-09
2.48168e-06
-1.23252e-08
2.47376e-06
-1.69331e-08
2.46291e-06
-2.32504e-08
2.44801e-06
-3.19518e-08
2.42756e-06
-4.39987e-08
2.39934e-06
-6.08353e-08
2.36059e-06
-8.45731e-08
2.30609e-06
-1.19565e-07
2.23415e-06
-1.69603e-07
2.12945e-06
-2.6794e-07
2.03702e-06
-3.46176e-07
1.9231e-06
-9.93559e-07
5.51279e-07
1.57121e-06
2.49981e-06
-1.95107e-10
2.49923e-06
-5.95783e-10
2.49821e-06
-1.05067e-09
2.49664e-06
-1.60783e-09
2.49437e-06
-2.3233e-09
2.49119e-06
-3.26686e-09
2.48678e-06
-4.53122e-09
2.48069e-06
-6.24335e-09
2.47234e-06
-8.57861e-09
2.46087e-06
-1.17824e-08
2.44511e-06
-1.61946e-08
2.42344e-06
-2.23208e-08
2.39345e-06
-3.08498e-08
2.35194e-06
-4.3063e-08
2.29296e-06
-6.05843e-08
2.2115e-06
-8.81464e-08
2.08466e-06
-1.41096e-07
1.95532e-06
-2.16836e-07
1.72432e-06
-7.62558e-07
6.09602e-07
1.666e-06
2.4998e-06
2.49921e-06
2.49816e-06
2.49655e-06
2.49423e-06
2.49096e-06
2.48643e-06
2.48019e-06
2.47161e-06
2.45982e-06
2.44363e-06
2.42131e-06
2.39046e-06
2.3474e-06
2.28681e-06
2.19867e-06
2.05757e-06
1.84073e-06
1.07818e-06
1.68778e-06
3.53171e-06
-2.35593e-07
3.81944e-06
-2.87727e-07
4.16179e-06
-3.42352e-07
4.55773e-06
-3.95942e-07
5.00294e-06
-4.45205e-07
5.4903e-06
-4.87364e-07
6.00999e-06
-5.19693e-07
-5.39757e-07
6.54975e-06
3.51907e-06
-4.70011e-07
3.80628e-06
-5.74938e-07
4.14889e-06
-6.84959e-07
4.54575e-06
-7.92798e-07
4.99252e-06
-8.91975e-07
5.48238e-06
-9.77229e-07
6.0057e-06
-1.04302e-06
-1.08391e-06
6.54985e-06
3.49364e-06
-7.02028e-07
3.77983e-06
-8.6113e-07
4.12287e-06
-1.028e-06
4.5216e-06
-1.19153e-06
4.97243e-06
-1.3428e-06
5.46887e-06
-1.47367e-06
5.99938e-06
-1.57353e-06
-1.6324e-06
6.54787e-06
3.45498e-06
-9.30301e-07
3.7394e-06
-1.14555e-06
4.08308e-06
-1.37168e-06
4.48604e-06
-1.59449e-06
4.94443e-06
-1.80119e-06
5.44689e-06
-1.97613e-06
5.97568e-06
-2.10232e-06
-2.17152e-06
6.5148e-06
3.40241e-06
-1.15309e-06
3.68427e-06
-1.4274e-06
4.03056e-06
-1.71797e-06
4.44026e-06
-2.00418e-06
4.90017e-06
-2.26111e-06
5.39176e-06
-2.46772e-06
5.90748e-06
-2.61804e-06
-2.7203e-06
6.45627e-06
3.33489e-06
-1.36812e-06
3.61518e-06
-1.70769e-06
3.9662e-06
-2.06899e-06
4.37277e-06
-2.41075e-06
4.81305e-06
-2.7014e-06
5.29627e-06
-2.95094e-06
5.86442e-06
-3.18618e-06
-3.4076e-06
6.55172e-06
3.25234e-06
-1.57404e-06
3.53345e-06
-1.9888e-06
3.87897e-06
-2.41452e-06
4.25885e-06
-2.79062e-06
4.69578e-06
-3.13833e-06
5.28018e-06
-3.53534e-06
6.07709e-06
-3.98309e-06
-4.38652e-06
7.056e-06
3.15627e-06
-1.77188e-06
3.43159e-06
-2.26413e-06
3.74584e-06
-2.72877e-06
4.11765e-06
-3.16243e-06
4.68702e-06
-3.7077e-06
5.57141e-06
-4.41973e-06
6.71605e-06
-5.12772e-06
-5.61615e-06
7.94568e-06
3.04413e-06
-1.95933e-06
3.28903e-06
-2.50903e-06
3.57711e-06
-3.01685e-06
4.07952e-06
-3.66484e-06
4.99086e-06
-4.61905e-06
6.26102e-06
-5.68989e-06
7.63091e-06
-6.49761e-06
-6.84459e-06
8.85935e-06
2.90155e-06
-2.1188e-06
3.09936e-06
-2.70684e-06
3.47482e-06
-3.39231e-06
4.32673e-06
-4.51675e-06
5.66002e-06
-5.95234e-06
7.14929e-06
-7.17916e-06
8.44961e-06
-7.79793e-06
-7.80768e-06
9.41271e-06
2.71026e-06
-2.21939e-06
2.92071e-06
-2.91728e-06
3.60178e-06
-4.07338e-06
4.91613e-06
-5.8311e-06
6.50096e-06
-7.53716e-06
7.89565e-06
-8.57386e-06
8.86562e-06
-8.7679e-06
-8.39831e-06
9.45624e-06
2.48037e-06
-2.25426e-06
2.88337e-06
-3.32028e-06
4.04644e-06
-5.23645e-06
5.69632e-06
-7.48098e-06
7.21317e-06
-9.05401e-06
8.24863e-06
-9.60931e-06
8.79814e-06
-9.31741e-06
-8.70651e-06
9.10633e-06
2.28376e-06
-2.30393e-06
3.10766e-06
-4.14418e-06
4.72779e-06
-6.85658e-06
6.40876e-06
-9.16195e-06
7.57149e-06
-1.02167e-05
8.15226e-06
-1.01901e-05
8.37953e-06
-9.54469e-06
-8.94761e-06
8.62064e-06
2.23546e-06
-2.56099e-06
3.6036e-06
-5.51232e-06
5.44176e-06
-8.69475e-06
6.83598e-06
-1.05562e-05
7.51049e-06
-1.08912e-05
7.72387e-06
-1.04035e-05
7.83868e-06
-9.65951e-06
-9.33276e-06
8.22383e-06
2.42273e-06
-3.25386e-06
4.25145e-06
-7.34104e-06
5.97842e-06
-1.04217e-05
6.8825e-06
-1.14603e-05
7.11419e-06
-1.11229e-05
7.15897e-06
-1.04482e-05
7.35583e-06
-9.85636e-06
-9.96344e-06
7.98652e-06
2.84542e-06
-4.52734e-06
4.8747e-06
-9.37032e-06
6.20189e-06
-1.17489e-05
6.58298e-06
-1.18413e-05
6.55055e-06
-1.10905e-05
6.62329e-06
-1.0521e-05
6.97366e-06
-1.02067e-05
-1.08045e-05
7.81476e-06
3.41798e-06
-6.41196e-06
5.31452e-06
-1.12669e-05
6.07671e-06
-1.25111e-05
6.06485e-06
-1.18295e-05
5.98441e-06
-1.10101e-05
6.18839e-06
-1.0725e-05
6.62687e-06
-1.06452e-05
-1.17038e-05
7.5261e-06
4.0072e-06
-8.84795e-06
5.45543e-06
-1.27151e-05
5.66512e-06
-1.27208e-05
5.48772e-06
-1.16521e-05
5.50435e-06
-1.10267e-05
5.82273e-06
-1.10433e-05
6.2397e-06
-1.10622e-05
-1.24369e-05
6.9728e-06
4.46885e-06
-1.16508e-05
5.25027e-06
-1.34965e-05
5.11268e-06
-1.25832e-05
4.97948e-06
-1.15189e-05
5.10464e-06
-1.11519e-05
5.41299e-06
-1.13517e-05
5.72324e-06
-1.13724e-05
-1.29351e-05
6.22149e-06
4.64462e-06
-1.46076e-05
4.78135e-06
-1.36332e-05
4.59542e-06
-1.23972e-05
4.58977e-06
-1.15132e-05
4.74027e-06
-1.13024e-05
4.8678e-06
-1.14792e-05
4.85345e-06
-1.13581e-05
5.62731e-06
-1.3709e-05
7.09596e-06
-5.4621e-07
7.6352e-06
-5.39241e-07
8.15603e-06
-5.20828e-07
8.65064e-06
-4.94611e-07
9.11559e-06
-4.64951e-07
9.55142e-06
-4.35831e-07
9.96168e-06
-4.10255e-07
1.03516e-05
-3.89958e-07
1.07269e-05
-3.75226e-07
1.10918e-05
-3.64946e-07
1.14488e-05
-3.57008e-07
1.17978e-05
-3.48961e-07
1.21365e-05
-3.38701e-07
1.24615e-05
-3.24981e-07
1.2769e-05
-3.07579e-07
1.30561e-05
-2.87104e-07
1.33207e-05
-2.64582e-07
1.35617e-05
-2.41005e-07
1.37787e-05
-2.16996e-07
1.39714e-05
-1.92684e-07
1.41392e-05
-1.67773e-07
1.42809e-05
-1.41728e-07
1.4395e-05
-1.14108e-07
1.44796e-05
-8.45876e-08
1.45335e-05
-5.39427e-08
1.45558e-05
-2.22954e-08
1.45526e-05
3.28448e-09
2.01064e-08
1.45325e-05
7.10021e-06
-1.09656e-06
7.64204e-06
-1.08108e-06
8.16301e-06
-1.04179e-06
8.65512e-06
-9.86719e-07
9.11535e-06
-9.2518e-07
9.54494e-06
-8.65427e-07
9.94823e-06
-8.13543e-07
1.03312e-05
-7.72957e-07
1.07001e-05
-7.44118e-07
1.10598e-05
-7.24623e-07
1.14128e-05
-7.10046e-07
1.17591e-05
-6.95266e-07
1.20963e-05
-6.75892e-07
1.24207e-05
-6.49325e-07
1.27282e-05
-6.15113e-07
1.30157e-05
-5.74556e-07
1.32809e-05
-5.29833e-07
1.35229e-05
-4.83041e-07
1.37415e-05
-4.35499e-07
1.39362e-05
-3.8747e-07
1.41068e-05
-3.38302e-07
1.42519e-05
-2.86842e-07
1.43698e-05
-2.31999e-07
1.44584e-05
-1.73213e-07
1.45156e-05
-1.11169e-07
1.45414e-05
-4.80348e-08
1.45347e-05
9.97947e-09
4.60756e-08
1.45087e-05
7.09721e-06
-1.6459e-06
7.63261e-06
-1.61648e-06
8.14382e-06
-1.553e-06
8.62579e-06
-1.46869e-06
9.07794e-06
-1.37733e-06
9.50303e-06
-1.29052e-06
9.90616e-06
-1.21667e-06
1.02937e-05
-1.16051e-06
1.0672e-05
-1.12237e-06
1.10456e-05
-1.09824e-06
1.14165e-05
-1.08096e-06
1.17835e-05
-1.06234e-06
1.21431e-05
-1.03547e-06
1.24903e-05
-9.96474e-07
1.28202e-05
-9.45011e-07
1.31292e-05
-8.83571e-07
1.34153e-05
-8.15949e-07
1.36779e-05
-7.45637e-07
1.39171e-05
-6.74689e-07
1.41329e-05
-6.03321e-07
1.43248e-05
-5.30194e-07
1.44912e-05
-4.53159e-07
1.46293e-05
-3.70171e-07
1.47362e-05
-2.80121e-07
1.48087e-05
-1.8363e-07
1.48444e-05
-8.37601e-08
1.48422e-05
1.22159e-08
8.70193e-08
1.48012e-05
7.05482e-06
-2.18592e-06
7.59048e-06
-2.15214e-06
8.11729e-06
-2.0798e-06
8.63062e-06
-1.98202e-06
9.12658e-06
-1.87329e-06
9.60338e-06
-1.76732e-06
1.00623e-05
-1.67562e-06
1.05073e-05
-1.60549e-06
1.0943e-05
-1.55809e-06
1.13729e-05
-1.52814e-06
1.17977e-05
-1.50569e-06
1.22147e-05
-1.4794e-06
1.26192e-05
-1.43997e-06
1.30055e-05
-1.38273e-06
1.33686e-05
-1.30812e-06
1.37055e-05
-1.22045e-06
1.4015e-05
-1.12549e-06
1.42976e-05
-1.02821e-06
1.45541e-05
-9.3117e-07
1.47849e-05
-8.34187e-07
1.49896e-05
-7.34873e-07
1.51663e-05
-6.2985e-07
1.53122e-05
-5.16072e-07
1.5424e-05
-3.91914e-07
1.54983e-05
-2.57957e-07
1.55322e-05
-1.1764e-07
1.55227e-05
2.17223e-08
1.46479e-07
1.54632e-05
7.04843e-06
-2.77808e-06
7.67901e-06
-2.78273e-06
8.32774e-06
-2.72853e-06
8.96971e-06
-2.62399e-06
9.58487e-06
-2.48846e-06
1.01625e-05
-2.34498e-06
1.07014e-05
-2.21446e-06
1.12065e-05
-2.1106e-06
1.16853e-05
-2.03685e-06
1.21439e-05
-1.98679e-06
1.25854e-05
-1.94724e-06
1.30093e-05
-1.90321e-06
1.34121e-05
-1.84279e-06
1.37897e-05
-1.76032e-06
1.41385e-05
-1.65695e-06
1.44567e-05
-1.53862e-06
1.47441e-05
-1.41289e-06
1.50018e-05
-1.28596e-06
1.52314e-05
-1.16077e-06
1.54339e-05
-1.03663e-06
1.56092e-05
-9.10191e-07
1.57563e-05
-7.76991e-07
1.58734e-05
-6.3315e-07
1.59581e-05
-4.76609e-07
1.6008e-05
-3.07837e-07
1.60204e-05
-1.30094e-07
1.59912e-05
5.0921e-08
2.25909e-07
1.59118e-05
7.34578e-06
-3.57214e-06
8.19061e-06
-3.62755e-06
9.02084e-06
-3.55876e-06
9.78893e-06
-3.39208e-06
1.04721e-05
-3.17164e-06
1.10682e-05
-2.94102e-06
1.15879e-05
-2.73425e-06
1.20482e-05
-2.57088e-06
1.24659e-05
-2.45455e-06
1.28545e-05
-2.37539e-06
1.32224e-05
-2.31515e-06
1.35729e-05
-2.25364e-06
1.3905e-05
-2.17493e-06
1.42159e-05
-2.07123e-06
1.45024e-05
-1.9434e-06
1.47622e-05
-1.79842e-06
1.49947e-05
-1.64546e-06
1.52009e-05
-1.49209e-06
1.5382e-05
-1.34193e-06
1.55396e-05
-1.19418e-06
1.56741e-05
-1.04472e-06
1.57852e-05
-8.88059e-07
1.58713e-05
-7.19275e-07
1.59302e-05
-5.35549e-07
1.59593e-05
-3.36944e-07
1.59555e-05
-1.2626e-07
1.59143e-05
9.21088e-08
3.12579e-07
1.58277e-05
8.10778e-06
-4.62392e-06
9.11262e-06
-4.6324e-06
9.99292e-06
-4.43906e-06
1.07215e-05
-4.12066e-06
1.13053e-05
-3.75549e-06
1.17688e-05
-3.4045e-06
1.21425e-05
-3.10793e-06
1.24563e-05
-2.88469e-06
1.27357e-05
-2.73395e-06
1.29998e-05
-2.63947e-06
1.32603e-05
-2.5757e-06
1.35218e-05
-2.51514e-06
1.37827e-05
-2.43577e-06
1.40374e-05
-2.32598e-06
1.42796e-05
-2.18553e-06
1.45038e-05
-2.02266e-06
1.47075e-05
-1.84911e-06
1.48903e-05
-1.67494e-06
1.50537e-05
-1.50527e-06
1.51989e-05
-1.3394e-06
1.53263e-05
-1.17215e-06
1.54346e-05
-9.96336e-07
1.55208e-05
-8.0546e-07
1.55809e-05
-5.95726e-07
1.5611e-05
-3.67007e-07
1.56074e-05
-1.22706e-07
1.55665e-05
1.33002e-07
3.97263e-07
1.54819e-05
9.08277e-06
-5.76101e-06
1.00208e-05
-5.57047e-06
1.07354e-05
-5.15366e-06
1.12536e-05
-4.63878e-06
1.16205e-05
-4.12243e-06
1.18826e-05
-3.66663e-06
1.20813e-05
-3.30661e-06
1.2251e-05
-3.05434e-06
1.24188e-05
-2.90181e-06
1.26043e-05
-2.82491e-06
1.28173e-05
-2.78875e-06
1.30578e-05
-2.75568e-06
1.33171e-05
-2.69505e-06
1.35816e-05
-2.59048e-06
1.38379e-05
-2.44182e-06
1.40764e-05
-2.26115e-06
1.42926e-05
-2.06533e-06
1.44863e-05
-1.86857e-06
1.46588e-05
-1.67781e-06
1.48113e-05
-1.49187e-06
1.49428e-05
-1.3037e-06
1.50507e-05
-1.10417e-06
1.51309e-05
-8.857e-07
1.51798e-05
-6.44583e-07
1.51945e-05
-3.8174e-07
1.51743e-05
-1.0249e-07
1.51179e-05
1.8938e-07
4.92294e-07
1.50229e-05
9.81831e-06
-6.71997e-06
1.04896e-05
-6.24178e-06
1.09259e-05
-5.58997e-06
1.12e-05
-4.91282e-06
1.13742e-05
-4.29666e-06
1.1496e-05
-3.7884e-06
1.16014e-05
-3.41199e-06
1.17187e-05
-3.17173e-06
1.18702e-05
-3.05329e-06
1.20695e-05
-3.02415e-06
1.23178e-05
-3.03706e-06
1.26032e-05
-3.04113e-06
1.29048e-05
-2.99661e-06
1.31998e-05
-2.88546e-06
1.34704e-05
-2.7125e-06
1.3707e-05
-2.49775e-06
1.39069e-05
-2.2652e-06
1.40716e-05
-2.03329e-06
1.42039e-05
-1.81006e-06
1.43055e-05
-1.59348e-06
1.4377e-05
-1.37524e-06
1.44184e-05
-1.14552e-06
1.44295e-05
-8.96777e-07
1.44107e-05
-6.25849e-07
1.43636e-05
-3.346e-07
1.42898e-05
-2.87434e-08
1.41919e-05
2.87329e-07
6.10201e-07
1.4074e-05
1.00408e-05
-7.34809e-06
1.04127e-05
-6.61366e-06
1.06295e-05
-5.80671e-06
1.07697e-05
-5.05311e-06
1.08788e-05
-4.40571e-06
1.09824e-05
-3.89203e-06
1.10992e-05
-3.52878e-06
1.12453e-05
-3.31787e-06
1.14335e-05
-3.24144e-06
1.16662e-05
-3.25683e-06
1.1931e-05
-3.30193e-06
1.22043e-05
-3.31444e-06
1.24606e-05
-3.25286e-06
1.26809e-05
-3.10581e-06
1.28561e-05
-2.88762e-06
1.29844e-05
-2.62614e-06
1.30692e-05
-2.34992e-06
1.31154e-05
-2.07953e-06
1.31291e-05
-1.82379e-06
1.31163e-05
-1.5807e-06
1.30825e-05
-1.3414e-06
1.30318e-05
-1.09477e-06
1.29662e-05
-8.31238e-07
1.28861e-05
-5.45747e-07
1.27907e-05
-2.39175e-07
1.26787e-05
8.31957e-08
1.25553e-05
4.10798e-07
7.37068e-07
1.24284e-05
9.79385e-06
-7.6857e-06
1e-05
-6.81985e-06
1.01645e-05
-5.97114e-06
1.0324e-05
-5.21268e-06
1.04793e-05
-4.56098e-06
1.06254e-05
-4.03813e-06
1.07632e-05
-3.66657e-06
1.08984e-05
-3.45302e-06
1.10342e-05
-3.37727e-06
1.1163e-05
-3.3856e-06
1.12679e-05
-3.40688e-06
1.13356e-05
-3.38207e-06
1.13642e-05
-3.28147e-06
1.13616e-05
-3.10322e-06
1.13377e-05
-2.86371e-06
1.12997e-05
-2.58817e-06
1.12526e-05
-2.30282e-06
1.12012e-05
-2.02814e-06
1.11508e-05
-1.7734e-06
1.11057e-05
-1.53559e-06
1.1067e-05
-1.30266e-06
1.10314e-05
-1.05922e-06
1.09924e-05
-7.9224e-07
1.09418e-05
-4.95127e-07
1.08727e-05
-1.70022e-07
1.07813e-05
1.74525e-07
1.06688e-05
5.23284e-07
8.62934e-07
1.0543e-05
9.33849e-06
-7.91786e-06
9.57151e-06
-7.05288e-06
9.82464e-06
-6.22427e-06
1.0064e-05
-5.45203e-06
1.02441e-05
-4.74111e-06
1.03434e-05
-4.13737e-06
1.03591e-05
-3.68228e-06
1.02962e-05
-3.3902e-06
1.01582e-05
-3.23923e-06
9.9476e-06
-3.175e-06
9.68255e-06
-3.14184e-06
9.40454e-06
-3.10406e-06
9.16144e-06
-3.03837e-06
8.98417e-06
-2.92595e-06
8.87906e-06
-2.75859e-06
8.83597e-06
-2.54508e-06
8.83997e-06
-2.30682e-06
8.87731e-06
-2.06547e-06
8.93481e-06
-1.8309e-06
8.9984e-06
-1.59918e-06
9.05406e-06
-1.35832e-06
9.09054e-06
-1.0957e-06
9.10117e-06
-8.0287e-07
9.08342e-06
-4.77381e-07
9.03751e-06
-1.24114e-07
8.96096e-06
2.51081e-07
8.85244e-06
6.31802e-07
9.98123e-07
8.71725e-06
8.94696e-06
-8.24417e-06
9.31736e-06
-7.42328e-06
9.65314e-06
-6.56005e-06
9.85781e-06
-5.6567e-06
9.87323e-06
-4.75654e-06
9.69848e-06
-3.96262e-06
9.35106e-06
-3.33486e-06
8.85642e-06
-2.89555e-06
8.25038e-06
-2.63318e-06
7.60385e-06
-2.52847e-06
7.0266e-06
-2.56459e-06
6.62029e-06
-2.69775e-06
6.42286e-06
-2.84094e-06
6.40432e-06
-2.9074e-06
6.50301e-06
-2.85728e-06
6.65837e-06
-2.70045e-06
6.82378e-06
-2.47223e-06
6.96744e-06
-2.20914e-06
7.06989e-06
-1.93334e-06
7.12329e-06
-1.65258e-06
7.13024e-06
-1.36527e-06
7.10073e-06
-1.06619e-06
7.04796e-06
-7.50099e-07
6.98411e-06
-4.13524e-07
6.91662e-06
-5.6628e-08
6.84645e-06
3.2125e-07
6.77007e-06
7.08186e-07
1.08607e-06
6.68212e-06
8.72644e-06
-8.74678e-06
9.1735e-06
-7.87034e-06
9.39611e-06
-6.78266e-06
9.2884e-06
-5.54899e-06
8.84742e-06
-4.31555e-06
8.15193e-06
-3.26713e-06
7.26686e-06
-2.4498e-06
6.2846e-06
-1.91329e-06
5.34171e-06
-1.6903e-06
4.62449e-06
-1.81125e-06
4.26214e-06
-2.20223e-06
4.23064e-06
-2.66626e-06
4.39725e-06
-3.00754e-06
4.6283e-06
-3.13846e-06
4.83836e-06
-3.06734e-06
4.98463e-06
-2.84672e-06
5.05235e-06
-2.53995e-06
5.0459e-06
-2.20269e-06
4.98069e-06
-1.86814e-06
4.87765e-06
-1.54954e-06
4.75753e-06
-1.24515e-06
4.6376e-06
-9.46257e-07
4.53078e-06
-6.43285e-07
4.44575e-06
-3.28485e-07
4.38781e-06
1.30427e-09
4.35939e-06
3.49673e-07
4.35126e-06
7.1632e-07
1.08467e-06
4.35266e-06
8.57223e-06
-9.33249e-06
8.85443e-06
-8.15254e-06
8.61284e-06
-6.54107e-06
7.85509e-06
-4.79124e-06
6.72868e-06
-3.18915e-06
5.46111e-06
-1.99956e-06
4.19639e-06
-1.18508e-06
3.15242e-06
-8.69314e-07
2.54972e-06
-1.0876e-06
2.43049e-06
-1.69202e-06
2.60166e-06
-2.3734e-06
2.82857e-06
-2.89317e-06
2.9889e-06
-3.16787e-06
3.05375e-06
-3.20331e-06
3.03107e-06
-3.04466e-06
2.93819e-06
-2.75383e-06
2.79515e-06
-2.39691e-06
2.62373e-06
-2.03127e-06
2.44103e-06
-1.68543e-06
2.26185e-06
-1.37036e-06
2.09574e-06
-1.07905e-06
1.94911e-06
-7.99625e-07
1.82796e-06
-5.22138e-07
1.74055e-06
-2.41065e-07
1.68917e-06
5.26805e-08
1.68637e-06
3.52476e-07
1.72751e-06
6.75172e-07
1.00623e-06
1.80595e-06
8.2365e-06
-9.75423e-06
7.96863e-06
-7.88468e-06
6.8704e-06
-5.44283e-06
5.28635e-06
-3.20719e-06
3.58287e-06
-1.48567e-06
2.17707e-06
-5.93754e-07
1.29431e-06
-3.02318e-07
1.03932e-06
-6.14329e-07
1.18205e-06
-1.23032e-06
1.36632e-06
-1.87629e-06
1.42639e-06
-2.43348e-06
1.35405e-06
-2.82082e-06
1.19277e-06
-3.0066e-06
9.84702e-07
-2.99523e-06
7.5432e-07
-2.81427e-06
5.11972e-07
-2.51149e-06
2.61787e-07
-2.14673e-06
6.38989e-09
-1.77587e-06
-2.40538e-07
-1.4385e-06
-4.72196e-07
-1.13871e-06
-6.79245e-07
-8.71999e-07
-8.53012e-07
-6.25857e-07
-9.8558e-07
-3.89571e-07
-1.07116e-06
-1.55482e-07
-1.10493e-06
8.64463e-08
-1.08368e-06
3.31232e-07
-1.00231e-06
5.93796e-07
8.68738e-07
-8.64812e-07
7.4167e-06
-9.64483e-06
6.16603e-06
-6.63401e-06
4.02694e-06
-3.30375e-06
1.99885e-06
-1.1791e-06
4.91398e-07
2.17852e-08
5.02359e-08
-1.52592e-07
2.34209e-07
-4.86291e-07
3.57371e-07
-7.37492e-07
3.40577e-07
-1.21353e-06
1.74807e-07
-1.71052e-06
-1.12562e-07
-2.14611e-06
-4.71041e-07
-2.46234e-06
-8.58965e-07
-2.61867e-06
-1.25449e-06
-2.59971e-06
-1.64655e-06
-2.42221e-06
-2.02723e-06
-2.1308e-06
-2.3892e-06
-1.78476e-06
-2.72497e-06
-1.4401e-06
-3.03042e-06
-1.13306e-06
-3.29762e-06
-8.715e-07
-3.52079e-06
-6.48837e-07
-3.69466e-06
-4.5198e-07
-3.81519e-06
-2.69047e-07
-3.88202e-06
-8.8652e-08
-3.88928e-06
9.37066e-08
-3.8371e-06
2.79052e-07
-3.72088e-06
4.77582e-07
6.87688e-07
-3.53983e-06
5.77828e-06
-8.45031e-06
3.40083e-06
-4.25657e-06
7.00665e-07
-6.03583e-07
-2.57491e-07
-2.20944e-07
-2.94877e-07
5.9171e-08
-2.94969e-07
-1.525e-07
-3.46055e-07
-4.35204e-07
-4.87585e-07
-5.95962e-07
-7.42154e-07
-9.58961e-07
-1.13285e-06
-1.31983e-06
-1.6451e-06
-1.63386e-06
-2.24185e-06
-1.86559e-06
-2.87714e-06
-1.98339e-06
-3.5076e-06
-1.96925e-06
-4.09897e-06
-1.83084e-06
-4.62941e-06
-1.60036e-06
-5.0898e-06
-1.32437e-06
-5.48112e-06
-1.04878e-06
-5.80986e-06
-8.0432e-07
-6.08069e-06
-6.00669e-07
-6.29611e-06
-4.33415e-07
-6.45622e-06
-2.91873e-07
-6.56016e-06
-1.65103e-07
-6.60661e-06
-4.21994e-08
-6.59212e-06
7.92162e-08
-6.51676e-06
2.03687e-07
-6.37591e-06
3.36732e-07
4.78227e-07
-6.16645e-06
2.98962e-06
-5.21845e-06
2.52193e-07
-1.51914e-06
-9.24491e-07
5.731e-07
-7.40536e-07
-4.04899e-07
-6.6974e-07
-1.16252e-08
-7.47949e-07
-7.42913e-08
-9.40602e-07
-2.42551e-07
-1.18894e-06
-3.4762e-07
-1.61483e-06
-5.33076e-07
-2.21105e-06
-7.23606e-07
-2.95063e-06
-8.94278e-07
-3.79227e-06
-1.02395e-06
-4.68216e-06
-1.0935e-06
-5.55985e-06
-1.09156e-06
-6.37011e-06
-1.02058e-06
-7.07375e-06
-8.9672e-07
-7.65353e-06
-7.44593e-07
-8.11291e-06
-5.89394e-07
-8.46821e-06
-4.49025e-07
-8.73814e-06
-3.3074e-07
-8.93787e-06
-2.33679e-07
-9.07691e-06
-1.52837e-07
-9.15951e-06
-8.2498e-08
-9.18621e-06
-1.55059e-08
-9.15358e-06
4.65911e-08
-9.05899e-06
1.09097e-07
-8.89787e-06
1.75607e-07
2.46265e-07
-8.66591e-06
4.0886e-07
-1.11028e-06
-5.37176e-07
-9.42075e-07
-9.537e-07
-1.02799e-06
-1.27054e-06
-1.61816e-06
-2.15124e-06
-2.87485e-06
-3.76912e-06
-4.79307e-06
-5.88658e-06
-6.97814e-06
-7.99872e-06
-8.89544e-06
-9.64003e-06
-1.02294e-05
-1.06784e-05
-1.10092e-05
-1.12429e-05
-1.13957e-05
-1.14782e-05
-1.14937e-05
-1.14471e-05
-1.1338e-05
-1.11624e-05
-1.09161e-05
1.4534e-05
-1.81319e-08
1.66317e-08
1.45238e-05
-2.84662e-07
2.94819e-07
1.45295e-05
-8.80246e-07
8.74517e-07
1.43501e-05
-2.01687e-06
2.19633e-06
1.33037e-05
-3.83005e-06
4.87638e-06
1.04384e-05
-6.00785e-06
8.87321e-06
6.0012e-06
-6.60083e-06
1.1038e-05
-4.33548e-06
1.18862e-06
9.14806e-06
1.44672e-05
2.33643e-08
1.43462e-05
-1.63624e-07
1.40623e-05
-5.96429e-07
1.34109e-05
-1.36539e-06
1.20534e-05
-2.47253e-06
9.64343e-06
-3.59792e-06
6.48784e-06
-3.44525e-06
-1.29351e-06
3.44588e-06
1.47128e-05
1.11804e-07
1.45274e-05
2.18081e-08
1.41678e-05
-2.36908e-07
1.34964e-05
-6.93969e-07
1.2302e-05
-1.2781e-06
1.03878e-05
-1.68377e-06
7.95364e-06
-1.01105e-06
1.03884e-06
5.62129e-06
1.534e-05
2.35088e-07
1.51103e-05
2.51481e-07
1.47023e-05
1.71072e-07
1.40043e-05
4.01777e-09
1.28725e-05
-1.46278e-07
1.12258e-05
-3.70258e-08
9.24264e-06
9.72061e-07
2.8943e-06
7.38718e-06
1.57648e-05
3.8213e-07
1.55111e-05
5.05137e-07
1.50879e-05
5.94243e-07
1.44107e-05
6.81262e-07
1.33917e-05
8.72733e-07
1.19945e-05
1.36012e-06
1.03867e-05
2.57991e-06
4.40163e-06
8.87936e-06
1.56781e-05
5.31727e-07
1.5431e-05
7.52165e-07
1.50335e-05
9.91778e-07
1.44213e-05
1.29342e-06
1.35414e-05
1.75266e-06
1.24021e-05
2.49945e-06
1.1141e-05
3.84103e-06
5.57845e-06
9.96414e-06
1.53387e-05
6.74868e-07
1.51086e-05
9.82314e-07
1.4748e-05
1.3523e-06
1.42081e-05
1.83334e-06
1.34585e-05
2.50228e-06
1.25254e-05
3.43257e-06
1.15404e-05
4.82606e-06
6.47055e-06
1.06482e-05
1.48806e-05
8.17144e-07
1.467e-05
1.19287e-06
1.43552e-05
1.66712e-06
1.38936e-05
2.29501e-06
1.32613e-05
3.13451e-06
1.24858e-05
4.20805e-06
1.1694e-05
5.61792e-06
7.1513e-06
1.10132e-05
1.39376e-05
9.53481e-07
1.37741e-05
1.35647e-06
1.35563e-05
1.88489e-06
1.32418e-05
2.60946e-06
1.27955e-05
3.58083e-06
1.22228e-05
4.78073e-06
1.1624e-05
6.21672e-06
7.65531e-06
1.112e-05
1.23106e-05
1.07128e-06
1.22108e-05
1.45632e-06
1.21217e-05
1.97394e-06
1.20113e-05
2.71986e-06
1.18336e-05
3.7586e-06