/*--------------------------------*- C++ -*----------------------------------*\
| =========                 |                                                 |
| \\      /  F ield         | OpenFOAM: The Open Source CFD Toolbox           |
|  \\    /   O peration     | Version:  2.4.0                                 |
|   \\  /    A nd           | Web:      www.OpenFOAM.org                      |
|    \\/     M anipulation  |                                                 |
\*---------------------------------------------------------------------------*/
FoamFile
{
    version     2.0;
    format      ascii;
    class       volVectorField;
    location    "22";
    object      U;
}
// * * * * * * * * * * * * * * * * * * * * * * * * * * * * * * * * * * * * * //

dimensions      [0 1 -1 0 0 0 0];

internalField   nonuniform List<vector> 
1800
(
(0.811117 -2.2179 0)
(0.96875 -1.77076 0)
(0.988471 -1.65993 0)
(0.962025 -1.60349 0)
(0.930051 -1.57998 0)
(0.898135 -1.57537 0)
(0.867647 -1.58078 0)
(0.838794 -1.59172 0)
(0.811074 -1.60621 0)
(0.784107 -1.62302 0)
(0.757728 -1.64118 0)
(0.731836 -1.65997 0)
(0.706345 -1.67891 0)
(0.681186 -1.69772 0)
(0.656309 -1.7162 0)
(0.631667 -1.73421 0)
(0.607209 -1.75172 0)
(0.582877 -1.7687 0)
(0.558611 -1.78517 0)
(0.534353 -1.80117 0)
(1.09109 -0.934486 0)
(1.0203 -0.808331 0)
(0.970161 -0.736284 0)
(0.945051 -0.69063 0)
(0.922532 -0.66754 0)
(0.897116 -0.658116 0)
(0.870569 -0.656425 0)
(0.844172 -0.659185 0)
(0.818028 -0.66476 0)
(0.792029 -0.672229 0)
(0.76617 -0.680937 0)
(0.740485 -0.690404 0)
(0.71499 -0.700295 0)
(0.689687 -0.710378 0)
(0.664578 -0.720493 0)
(0.639654 -0.730525 0)
(0.614895 -0.7404 0)
(0.590263 -0.750078 0)
(0.565707 -0.759544 0)
(0.54117 -0.768804 0)
(1.01806 -0.731005 0)
(0.993042 -0.657379 0)
(0.961604 -0.59765 0)
(0.938248 -0.553847 0)
(0.917413 -0.523646 0)
(0.895003 -0.505256 0)
(0.871339 -0.495806 0)
(0.847222 -0.492414 0)
(0.822782 -0.493114 0)
(0.797993 -0.496695 0)
(0.772943 -0.502331 0)
(0.747751 -0.509414 0)
(0.722509 -0.5175 0)
(0.697279 -0.526265 0)
(0.672113 -0.535465 0)
(0.647051 -0.544913 0)
(0.622107 -0.554466 0)
(0.597274 -0.564022 0)
(0.572518 -0.573516 0)
(0.547787 -0.582919 0)
(0.994264 -0.543618 0)
(0.969307 -0.528977 0)
(0.945858 -0.50887 0)
(0.927854 -0.485904 0)
(0.910919 -0.461623 0)
(0.892066 -0.44034 0)
(0.871421 -0.424588 0)
(0.849711 -0.41436 0)
(0.827176 -0.408754 0)
(0.803871 -0.406854 0)
(0.779924 -0.407863 0)
(0.755503 -0.411109 0)
(0.73075 -0.416059 0)
(0.705777 -0.422304 0)
(0.680689 -0.429525 0)
(0.655573 -0.437459 0)
(0.630497 -0.445892 0)
(0.605496 -0.454646 0)
(0.580567 -0.46359 0)
(0.555673 -0.472635 0)
(0.995401 -0.405897 0)
(0.976292 -0.405699 0)
(0.956396 -0.405686 0)
(0.938864 -0.404518 0)
(0.920968 -0.399293 0)
(0.900977 -0.390169 0)
(0.87955 -0.379365 0)
(0.857652 -0.368996 0)
(0.835477 -0.360383 0)
(0.812809 -0.354166 0)
(0.789509 -0.350496 0)
(0.765596 -0.349221 0)
(0.741166 -0.350053 0)
(0.716333 -0.352671 0)
(0.69122 -0.356765 0)
(0.66595 -0.362053 0)
(0.640634 -0.368277 0)
(0.615358 -0.37521 0)
(0.590168 -0.382655 0)
(0.565052 -0.390462 0)
(0.996749 -0.317958 0)
(0.982018 -0.318325 0)
(0.965809 -0.319739 0)
(0.951114 -0.322372 0)
(0.936202 -0.324457 0)
(0.91925 -0.32494 0)
(0.899948 -0.323747 0)
(0.878698 -0.321079 0)
(0.855945 -0.317283 0)
(0.832104 -0.312977 0)
(0.807574 -0.308906 0)
(0.78263 -0.305692 0)
(0.757387 -0.303719 0)
(0.731866 -0.30316 0)
(0.70609 -0.304035 0)
(0.680129 -0.30626 0)
(0.654098 -0.30968 0)
(0.628123 -0.314096 0)
(0.602301 -0.319293 0)
(0.576666 -0.325072 0)
(0.997547 -0.257932 0)
(0.985848 -0.257749 0)
(0.972441 -0.258032 0)
(0.959897 -0.259378 0)
(0.947221 -0.261037 0)
(0.933179 -0.262523 0)
(0.91749 -0.263782 0)
(0.900182 -0.264755 0)
(0.881074 -0.265282 0)
(0.859905 -0.265253 0)
(0.836623 -0.2647 0)
(0.81149 -0.263792 0)
(0.784987 -0.2628 0)
(0.757634 -0.262046 0)
(0.729856 -0.26183 0)
(0.701938 -0.262376 0)
(0.674072 -0.263802 0)
(0.64641 -0.266112 0)
(0.619096 -0.269202 0)
(0.592219 -0.2729 0)
(0.99815 -0.214554 0)
(0.989011 -0.213671 0)
(0.978227 -0.212871 0)
(0.967836 -0.212849 0)
(0.957199 -0.213151 0)
(0.94542 -0.213448 0)
(0.932309 -0.213794 0)
(0.917943 -0.214296 0)
(0.902234 -0.214947 0)
(0.884904 -0.215677 0)
(0.865621 -0.21643 0)
(0.844092 -0.217183 0)
(0.820154 -0.217946 0)
(0.79386 -0.21876 0)
(0.765535 -0.219702 0)
(0.735742 -0.220887 0)
(0.70516 -0.222436 0)
(0.67445 -0.224433 0)
(0.644162 -0.226869 0)
(0.614678 -0.229614 0)
(0.998683 -0.182122 0)
(0.991971 -0.180564 0)
(0.98386 -0.178833 0)
(0.975841 -0.177715 0)
(0.967485 -0.176862 0)
(0.958133 -0.175959 0)
(0.947597 -0.17504 0)
(0.935897 -0.174236 0)
(0.922963 -0.173606 0)
(0.908612 -0.173166 0)
(0.892616 -0.172936 0)
(0.874708 -0.172959 0)
(0.854582 -0.173287 0)
(0.831916 -0.173986 0)
(0.806456 -0.175133 0)
(0.778157 -0.176808 0)
(0.7473 -0.179078 0)
(0.714567 -0.181959 0)
(0.680981 -0.185353 0)
(0.647683 -0.188967 0)
(0.99919 -0.157443 0)
(0.994879 -0.155314 0)
(0.989537 -0.152829 0)
(0.984093 -0.150854 0)
(0.978273 -0.149081 0)
(0.971633 -0.147183 0)
(0.964 -0.145158 0)
(0.955317 -0.143122 0)
(0.945468 -0.14114 0)
(0.934261 -0.139237 0)
(0.921472 -0.137449 0)
(0.906857 -0.135839 0)
(0.890129 -0.134496 0)
(0.870945 -0.133539 0)
(0.848915 -0.133125 0)
(0.823655 -0.133459 0)
(0.794905 -0.134786 0)
(0.762743 -0.13735 0)
(0.727838 -0.141273 0)
(0.691566 -0.146277 0)
(0.999681 -0.138578 0)
(0.997758 -0.136021 0)
(0.995245 -0.132978 0)
(0.992518 -0.130366 0)
(0.989427 -0.127896 0)
(0.985735 -0.125223 0)
(0.981308 -0.122312 0)
(0.976038 -0.119255 0)
(0.969773 -0.116103 0)
(0.962303 -0.112864 0)
(0.953378 -0.109556 0)
(0.942704 -0.106223 0)
(0.929933 -0.102938 0)
(0.914644 -0.0998097 0)
(0.896336 -0.0970046 0)
(0.874434 -0.094775 0)
(0.84834 -0.0935093 0)
(0.817591 -0.0937668 0)
(0.7823 -0.0962701 0)
(0.74371 -0.101359 0)
(1.00015 -0.124254 0)
(1.00056 -0.121433 0)
(1.00086 -0.11804 0)
(1.00089 -0.115009 0)
(1.00063 -0.112064 0)
(1.00002 -0.108846 0)
(0.999004 -0.105295 0)
(0.997446 -0.101475 0)
(0.995182 -0.097415 0)
(0.992014 -0.0930956 0)
(0.987693 -0.0884982 0)
(0.981904 -0.0836237 0)
(0.974239 -0.0784942 0)
(0.964176 -0.0731593 0)
(0.951047 -0.0677188 0)
(0.933998 -0.0623591 0)
(0.911971 -0.0574454 0)
(0.883704 -0.0536549 0)
(0.848291 -0.052471 0)
(0.806427 -0.0554981 0)
(1.00059 -0.113573 0)
(1.0032 -0.110657 0)
(1.00618 -0.107129 0)
(1.00891 -0.103898 0)
(1.01143 -0.100701 0)
(1.01391 -0.0971823 0)
(1.01635 -0.0932604 0)
(1.01863 -0.0889747 0)
(1.02061 -0.0843271 0)
(1.02212 -0.0792692 0)
(1.02297 -0.0737406 0)
(1.02288 -0.0676856 0)
(1.02147 -0.0610516 0)
(1.01819 -0.0537883 0)
(1.01229 -0.0458649 0)
(1.0027 -0.0372832 0)
(0.987927 -0.0281701 0)
(0.965546 -0.0187532 0)
(0.932572 -0.0119283 0)
(0.887499 -0.0105738 0)
(1.00098 -0.105847 0)
(1.00557 -0.103003 0)
(1.011 -0.0995489 0)
(1.01621 -0.0963297 0)
(1.02133 -0.0931043 0)
(1.02673 -0.089534 0)
(1.03248 -0.0855265 0)
(1.03849 -0.081098 0)
(1.04467 -0.0762283 0)
(1.05093 -0.0708438 0)
(1.05718 -0.0648473 0)
(1.06324 -0.058129 0)
(1.06886 -0.0505574 0)
(1.0736 -0.0419667 0)
(1.07685 -0.0321541 0)
(1.07752 -0.0208846 0)
(1.07443 -0.00799545 0)
(1.06365 0.00638604 0)
(1.03853 0.0203166 0)
(0.994068 0.0299148 0)
(1.00131 -0.100511 0)
(1.00757 -0.0978878 0)
(1.01509 -0.0947018 0)
(1.02244 -0.0916926 0)
(1.02983 -0.0886488 0)
(1.03779 -0.0852676 0)
(1.04647 -0.0814554 0)
(1.05584 -0.0772118 0)
(1.06586 -0.072502 0)
(1.07655 -0.0672385 0)
(1.08794 -0.0613025 0)
(1.10003 -0.0545485 0)
(1.11276 -0.0467873 0)
(1.12599 -0.0377611 0)
(1.13944 -0.0271065 0)
(1.15243 -0.0143542 0)
(1.16387 0.00109646 0)
(1.16984 0.0194914 0)
(1.16168 0.0432592 0)
(1.12749 0.0681105 0)
(1.00156 -0.0970681 0)
(1.00913 -0.0947859 0)
(1.01828 -0.0920325 0)
(1.02731 -0.0894036 0)
(1.03649 -0.086724 0)
(1.04649 -0.0837432 0)
(1.05753 -0.0803775 0)
(1.06963 -0.0766173 0)
(1.0828 -0.0724238 0)
(1.09718 -0.0677111 0)
(1.11294 -0.0623607 0)
(1.13024 -0.0562219 0)
(1.1493 -0.0490904 0)
(1.17032 -0.0406774 0)
(1.19353 -0.0305412 0)
(1.21909 -0.0180268 0)
(1.24653 -0.00189286 0)
(1.27477 0.0197686 0)
(1.29646 0.053542 0)
(1.29267 0.101106 0)
(1.00153 -0.0946688 0)
(1.00988 -0.092879 0)
(1.02011 -0.090708 0)
(1.03025 -0.0886019 0)
(1.04064 -0.0864398 0)
(1.052 -0.0840391 0)
(1.06465 -0.081336 0)
(1.07861 -0.0783192 0)
(1.09398 -0.0749559 0)
(1.11097 -0.071178 0)
(1.12985 -0.0668907 0)
(1.15098 -0.061972 0)
(1.17476 -0.0562539 0)
(1.20177 -0.0494954 0)
(1.23271 -0.0413106 0)
(1.26881 -0.0310594 0)
(1.31099 -0.0172672 0)
(1.3636 0.00317848 0)
(1.42491 0.038688 0)
(1.49414 0.106857 0)
(1.0004 -0.0925604 0)
(1.00642 -0.0912552 0)
(1.01438 -0.0898912 0)
(1.02231 -0.0885413 0)
(1.03058 -0.0871358 0)
(1.03998 -0.0855641 0)
(1.05085 -0.0837859 0)
(1.06326 -0.0817939 0)
(1.07733 -0.0795682 0)
(1.09332 -0.0770682 0)
(1.1116 -0.0742385 0)
(1.13259 -0.0710094 0)
(1.15687 -0.0672867 0)
(1.18521 -0.0629379 0)
(1.21865 -0.0577536 0)
(1.25918 -0.0513791 0)
(1.30904 -0.0429643 0)
(1.3778 -0.0305438 0)
(1.4705 -0.00885278 0)
(1.64916 0.0368431 0)
(0.510056 -1.81671 0)
(0.485682 -1.83183 0)
(0.461207 -1.84653 0)
(0.436605 -1.86083 0)
(0.411849 -1.87473 0)
(0.516602 -0.777871 0)
(0.491962 -0.786761 0)
(0.467222 -0.795481 0)
(0.442361 -0.804032 0)
(0.417354 -0.812413 0)
(0.523025 -0.592227 0)
(0.498186 -0.60145 0)
(0.473241 -0.610592 0)
(0.448171 -0.619647 0)
(0.42296 -0.628605 0)
(0.530754 -0.481741 0)
(0.505749 -0.490898 0)
(0.480618 -0.500102 0)
(0.455349 -0.509338 0)
(0.429936 -0.518574 0)
(0.539948 -0.398543 0)
(0.514768 -0.406864 0)
(0.489447 -0.415424 0)
(0.463959 -0.424206 0)
(0.438315 -0.433163 0)
(0.551164 -0.331295 0)
(0.52567 -0.337911 0)
(0.500055 -0.344937 0)
(0.474252 -0.352396 0)
(0.448271 -0.360253 0)
(0.565755 -0.277041 0)
(0.539537 -0.281554 0)
(0.513326 -0.2865 0)
(0.486949 -0.29199 0)
(0.460378 -0.298057 0)
(0.58613 -0.232479 0)
(0.55835 -0.235364 0)
(0.530935 -0.238389 0)
(0.503491 -0.24184 0)
(0.475869 -0.24592 0)
(0.615564 -0.192338 0)
(0.584908 -0.195077 0)
(0.555298 -0.197204 0)
(0.526017 -0.19924 0)
(0.496642 -0.20172 0)
(0.655654 -0.151515 0)
(0.621373 -0.155841 0)
(0.588765 -0.158599 0)
(0.556893 -0.160357 0)
(0.524969 -0.162112 0)
(0.704243 -0.108309 0)
(0.666458 -0.115099 0)
(0.631152 -0.119572 0)
(0.596979 -0.121938 0)
(0.56241 -0.123777 0)
(0.761406 -0.0631452 0)
(0.718305 -0.0729046 0)
(0.67987 -0.079783 0)
(0.644234 -0.0830118 0)
(0.608098 -0.0850529 0)
(0.833445 -0.0163517 0)
(0.779921 -0.0288338 0)
(0.734712 -0.0395284 0)
(0.696517 -0.0441095 0)
(0.659398 -0.0461551 0)
(0.930538 0.0296093 0)
(0.860959 0.014113 0)
(0.802104 -0.000783457 0)
(0.756812 -0.00678127 0)
(0.716466 -0.00876449 0)
(1.0564 0.0823124 0)
(0.966355 0.0607846 0)
(0.889154 0.0376002 0)
(0.832938 0.0281574 0)
(0.786144 0.0250954 0)
(1.22064 0.153816 0)
(1.10053 0.122459 0)
(0.994783 0.0837576 0)
(0.923412 0.0661998 0)
(0.869675 0.0591927 0)
(1.43974 0.247879 0)
(1.26669 0.20663 0)
(1.10094 0.153331 0)
(0.992332 0.121698 0)
(0.922011 0.103316 0)
(1.77347 0.279966 0)
(1.61554 0.269887 0)
(1.39019 0.236797 0)
(1.20128 0.198853 0)
(1.05832 0.16613 0)
(0.386902 -1.88825 0)
(0.361725 -1.9014 0)
(0.336269 -1.91421 0)
(0.31048 -1.9267 0)
(0.284281 -1.93888 0)
(0.257563 -1.95079 0)
(0.230153 -1.96249 0)
(0.201745 -1.97406 0)
(0.171725 -1.98571 0)
(0.138741 -1.99802 0)
(0.099485 -2.0134 0)
(0.0481236 -2.0438 0)
(-0.0222666 -2.06254 0)
(-0.323138 -2.18389 0)
(0.320337 -4.43923 0)
(0.392166 -0.820627 0)
(0.366756 -0.82868 0)
(0.341082 -0.836574 0)
(0.31509 -0.844313 0)
(0.288717 -0.85189 0)
(0.261874 -0.859293 0)
(0.234431 -0.866488 0)
(0.206192 -0.873391 0)
(0.176834 -0.879799 0)
(0.145869 -0.885333 0)
(0.112806 -0.889741 0)
(0.0773396 -0.894404 0)
(0.0374747 -0.91013 0)
(0.0392111 -1.0824 0)
(-0.0665904 -1.82833 0)
(0.39758 -0.637454 0)
(0.371994 -0.646192 0)
(0.346164 -0.654818 0)
(0.320048 -0.663323 0)
(0.293603 -0.671687 0)
(0.266775 -0.679872 0)
(0.239505 -0.687804 0)
(0.211738 -0.695334 0)
(0.183436 -0.702174 0)
(0.15477 -0.707898 0)
(0.126217 -0.712375 0)
(0.100317 -0.719553 0)
(0.0721314 -0.750081 0)
(0.099075 -0.888868 0)
(-0.061994 -1.31787 0)
(0.404366 -0.527778 0)
(0.378611 -0.536931 0)
(0.352639 -0.546019 0)
(0.326421 -0.555024 0)
(0.299938 -0.563917 0)
(0.273177 -0.572648 0)
(0.246141 -0.58114 0)
(0.218888 -0.589262 0)
(0.191554 -0.596819 0)
(0.164583 -0.603715 0)
(0.138382 -0.610827 0)
(0.115481 -0.623717 0)
(0.0863054 -0.658815 0)
(0.10314 -0.748788 0)
(-0.0371206 -1.02518 0)
(0.412522 -0.442231 0)
(0.386565 -0.451364 0)
(0.360418 -0.460532 0)
(0.334063 -0.469707 0)
(0.307495 -0.478851 0)
(0.280731 -0.487916 0)
(0.253805 -0.496843 0)
(0.226809 -0.505566 0)
(0.199884 -0.514049 0)
(0.173387 -0.522524 0)
(0.147162 -0.53235 0)
(0.122979 -0.548171 0)
(0.0893161 -0.579694 0)
(0.0915004 -0.636927 0)
(-0.0183134 -0.816553 0)
(0.422147 -0.368423 0)
(0.395883 -0.376834 0)
(0.369454 -0.385443 0)
(0.342839 -0.394221 0)
(0.316041 -0.403131 0)
(0.289076 -0.412127 0)
(0.261974 -0.421174 0)
(0.234786 -0.430257 0)
(0.207541 -0.439437 0)
(0.180366 -0.449028 0)
(0.152627 -0.460131 0)
(0.125639 -0.475516 0)
(0.0889825 -0.500311 0)
(0.0789814 -0.53815 0)
(-0.00587544 -0.659913 0)
(0.433673 -0.304626 0)
(0.406867 -0.311599 0)
(0.379929 -0.318932 0)
(0.352821 -0.326615 0)
(0.325529 -0.334626 0)
(0.298057 -0.342934 0)
(0.270399 -0.351513 0)
(0.242536 -0.360364 0)
(0.214373 -0.369541 0)
(0.185853 -0.379233 0)
(0.156192 -0.390016 0)
(0.126586 -0.403168 0)
(0.0890339 -0.42155 0)
(0.0705618 -0.448546 0)
(0.0031835 -0.536598 0)
(0.448135 -0.250602 0)
(0.420367 -0.25577 0)
(0.392532 -0.261372 0)
(0.364552 -0.26743 0)
(0.33638 -0.273958 0)
(0.307996 -0.28094 0)
(0.279357 -0.28836 0)
(0.250388 -0.296209 0)
(0.220923 -0.304488 0)
(0.190846 -0.313229 0)
(0.159479 -0.322614 0)
(0.127977 -0.33315 0)
(0.0906619 -0.346728 0)
(0.0665664 -0.367514 0)
(0.0105593 -0.435296 0)
(0.467203 -0.204772 0)
(0.437846 -0.208263 0)
(0.408551 -0.212129 0)
(0.379178 -0.216424 0)
(0.349622 -0.221212 0)
(0.319834 -0.226503 0)
(0.289751 -0.232283 0)
(0.259275 -0.238534 0)
(0.228239 -0.245223 0)
(0.196555 -0.252301 0)
(0.163748 -0.259785 0)
(0.130855 -0.267905 0)
(0.0938939 -0.278104 0)
(0.0658487 -0.294845 0)
(0.0168069 -0.349001 0)
(0.492969 -0.164265 0)
(0.4612 -0.166673 0)
(0.429715 -0.169223 0)
(0.398303 -0.172016 0)
(0.366766 -0.175187 0)
(0.335016 -0.178785 0)
(0.302985 -0.182809 0)
(0.270579 -0.187244 0)
(0.237662 -0.192062 0)
(0.204206 -0.197211 0)
(0.169919 -0.202691 0)
(0.135655 -0.208672 0)
(0.0985146 -0.216308 0)
(0.0673033 -0.229829 0)
(0.0220979 -0.273301 0)
(0.527295 -0.125904 0)
(0.492324 -0.128087 0)
(0.457858 -0.130057 0)
(0.423694 -0.131915 0)
(0.389531 -0.133893 0)
(0.355227 -0.136103 0)
(0.32071 -0.138573 0)
(0.285896 -0.141317 0)
(0.250676 -0.144342 0)
(0.215062 -0.147641 0)
(0.178879 -0.151246 0)
(0.142798 -0.155325 0)
(0.104583 -0.160785 0)
(0.0703727 -0.171291 0)
(0.0266228 -0.205186 0)
(0.570407 -0.0875286 0)
(0.532163 -0.0901218 0)
(0.494298 -0.0922359 0)
(0.456845 -0.0938442 0)
(0.419493 -0.0952284 0)
(0.382084 -0.096551 0)
(0.344562 -0.0978784 0)
(0.306844 -0.0992702 0)
(0.26882 -0.100789 0)
(0.230493 -0.102492 0)
(0.191731 -0.104454 0)
(0.153059 -0.106842 0)
(0.112649 -0.110324 0)
(0.0751317 -0.117805 0)
(0.0307249 -0.142304 0)
(0.620194 -0.0488069 0)
(0.579566 -0.051863 0)
(0.538834 -0.0544105 0)
(0.498257 -0.0561962 0)
(0.457594 -0.0575121 0)
(0.416795 -0.0584795 0)
(0.37591 -0.0591552 0)
(0.334895 -0.0596235 0)
(0.293618 -0.0599964 0)
(0.252018 -0.0603921 0)
(0.209925 -0.0609348 0)
(0.167749 -0.0618018 0)
(0.123863 -0.0634056 0)
(0.0823138 -0.0677751 0)
(0.0349657 -0.0824565 0)
(0.674908 -0.0111743 0)
(0.631981 -0.0140216 0)
(0.589126 -0.016498 0)
(0.546427 -0.0185016 0)
(0.503292 -0.0199602 0)
(0.459598 -0.0208807 0)
(0.41553 -0.0212779 0)
(0.371194 -0.0212008 0)
(0.326503 -0.0207485 0)
(0.281322 -0.0200603 0)
(0.235349 -0.0192942 0)
(0.188866 -0.0186678 0)
(0.140152 -0.0184139 0)
(0.0934471 -0.019562 0)
(0.0403375 -0.0235193 0)
(0.739689 0.0220969 0)
(0.692615 0.0190071 0)
(0.646146 0.0163909 0)
(0.600421 0.0142081 0)
(0.554931 0.0126176 0)
(0.509178 0.0116675 0)
(0.462941 0.0113632 0)
(0.416132 0.0116896 0)
(0.368613 0.0126034 0)
(0.320195 0.0140169 0)
(0.27038 0.015812 0)
(0.219221 0.0177674 0)
(0.164505 0.0198415 0)
(0.111651 0.0213955 0)
(0.0488718 0.027085 0)
(0.818772 0.0537464 0)
(0.767605 0.0496317 0)
(0.716824 0.0465253 0)
(0.666637 0.0440398 0)
(0.616962 0.0420751 0)
(0.567725 0.0407593 0)
(0.518757 0.0402076 0)
(0.469709 0.0405057 0)
(0.42008 0.0417148 0)
(0.369361 0.0438535 0)
(0.316678 0.046927 0)
(0.261813 0.0507948 0)
(0.200937 0.0558227 0)
(0.141832 0.0614038 0)
(0.060961 0.0802866 0)
(0.867319 0.0896938 0)
(0.819261 0.082374 0)
(0.773723 0.078132 0)
(0.728003 0.0752031 0)
(0.680848 0.0730872 0)
(0.63219 0.0716807 0)
(0.58252 0.0710382 0)
(0.532336 0.071349 0)
(0.48176 0.0728844 0)
(0.430526 0.0759136 0)
(0.377475 0.0807423 0)
(0.322304 0.0875101 0)
(0.258247 0.0975041 0)
(0.197981 0.111547 0)
(0.08895 0.164708 0)
(0.950998 0.138735 0)
(0.87248 0.123228 0)
(0.813563 0.113476 0)
(0.765926 0.10734 0)
(0.723457 0.103765 0)
(0.68215 0.101959 0)
(0.6398 0.101432 0)
(0.595664 0.102064 0)
(0.549889 0.104061 0)
(0.503102 0.107853 0)
(0.45496 0.114124 0)
(0.40674 0.123616 0)
(0.34829 0.139253 0)
(0.30515 0.169474 0)
(0.116139 0.29259 0)
(0.994179 0.228131 0)
(1.44063 0.237026 0)
(1.46587 0.25587 0)
(1.3686 0.243633 0)
(1.23566 0.221552 0)
(0.073261 -0.00121169 0)
(0.52144 0.151752 0)
(0.827131 0.224413 0)
(0.972924 0.23904 0)
(0.991846 0.237023 0)
(0.0119735 -0.0621224 0)
(0.00618691 0.00477158 0)
(0.193367 0.106539 0)
(0.370194 0.158327 0)
(0.44405 0.184825 0)
(0.0200347 -0.0592808 0)
(-0.0831715 -0.0356785 0)
(-0.0320638 0.00423666 0)
(0.0320137 0.0574116 0)
(0.040061 0.0952749 0)
(0.0250213 -0.0481195 4.95713e-19)
(-0.0870786 -0.0355416 5.40475e-20)
(-0.081385 -0.018499 0)
(-0.0910696 0.00530383 -1.79459e-19)
(-0.09579 0.0250648 -1.80355e-19)
(0.0224114 -0.03662 -5.12778e-19)
(-0.0801382 -0.0253897 -5.41695e-20)
(-0.0837387 -0.0142877 0)
(-0.105189 -0.00264377 1.73105e-19)
(-0.107749 0.00558621 1.73433e-19)
(0.0154712 -0.0265235 0)
(-0.073064 -0.0139552 0)
(-0.0704302 -0.0056145 0)
(-0.0822298 0.000785098 0)
(-0.0795912 0.00629089 0)
(0.00634172 -0.0175328 0)
(-0.0655964 -0.00475375 0)
(-0.0533505 0.00231976 0)
(-0.0520512 0.00673232 0)
(-0.0436895 0.0116025 0)
(-0.00388241 -0.009004 -8.37352e-19)
(-0.0569595 0.00192389 0)
(-0.0360207 0.00831048 0)
(-0.0230974 0.0121679 -1.2715e-21)
(-0.0148292 0.015833 0)
(-0.0125439 -0.00224664 -2.35626e-20)
(-0.0467572 0.00658018 -4.72881e-19)
(-0.0188838 0.0124547 4.56038e-20)
(0.00231168 0.0160926 2.71737e-19)
(0.00933673 0.0168981 0)
(-0.0176168 0.00214852 1.54623e-18)
(-0.0345735 0.010014 4.67908e-19)
(-0.00169083 0.0151967 -2.60323e-19)
(0.0218344 0.0176645 -8.19451e-19)
(0.0270539 0.015856 0)
(-0.0215844 0.00555485 -1.16983e-19)
(-0.0214237 0.0128376 0)
(0.014424 0.0166996 -2.70727e-19)
(0.034692 0.0172946 5.34988e-19)
(0.0331699 0.0138664 -9.93997e-19)
(-0.0241265 0.00785424 -1.52352e-19)
(-0.00797395 0.0150927 0)
(0.0258453 0.0170553 -2.61997e-19)
(0.0383239 0.0157732 0)
(0.0280226 0.0110003 -1.31486e-19)
(-0.0247572 0.00938662 -4.15038e-19)
(0.00561843 0.0169609 0)
(0.030187 0.0167192 -2.43374e-19)
(0.0326074 0.0134149 0)
(0.016965 0.00768393 1.12012e-18)
(-0.0234647 0.0104918 1.10262e-19)
(0.0183069 0.0182033 0)
(0.0284273 0.0155903 9.62452e-19)
(0.0218704 0.0104875 -2.55851e-18)
(0.00755138 0.00495519 0)
(-0.0192192 0.0112441 -1.08843e-19)
(0.0250731 0.01839 0)
(0.0216966 0.013423 0)
(0.0120906 0.0076774 2.57967e-18)
(0.00246555 0.00355401 0)
(-0.0213727 0.0135361 0)
(0.0181522 0.0236149 0)
(0.0127102 0.0125707 0)
(0.0084442 0.00526173 0)
(-0.00160542 0.00307825 0)
(0.0218256 0.00844943 1.00507e-18)
(0.0676664 0.0154217 3.20305e-18)
(0.0312511 0.0078915 0)
(0.00152257 0.0033286 2.78584e-18)
(-0.00235524 0.00272358 2.41282e-18)
(1.11498 0.190657 0)
(1.00433 0.17105 0)
(0.911396 0.155093 0)
(0.836359 0.143427 0)
(0.776836 0.135773 0)
(0.728959 0.13139 0)
(0.688427 0.129541 0)
(0.651579 0.1297 0)
(0.615986 0.131662 0)
(0.581019 0.135574 0)
(0.546393 0.141999 0)
(0.516495 0.151877 0)
(0.485032 0.167873 0)
(0.507711 0.198727 0)
(0.507611 0.25086 0)
(1.00486 0.217065 0)
(0.97998 0.204582 0)
(0.932973 0.18991 0)
(0.877783 0.176749 0)
(0.823513 0.166271 0)
(0.775191 0.158777 0)
(0.734794 0.154209 0)
(0.702232 0.152277 0)
(0.676298 0.152607 0)
(0.656294 0.154896 0)
(0.641789 0.158961 0)
(0.638468 0.164755 0)
(0.647344 0.171401 0)
(0.707294 0.179218 0)
(0.814744 0.158692 0)
(0.598996 0.193222 0)
(0.702504 0.198164 0)
(0.755328 0.195623 0)
(0.774205 0.189657 0)
(0.772393 0.182497 0)
(0.759694 0.17565 0)
(0.743385 0.170042 0)
(0.728684 0.166088 0)
(0.719016 0.163761 0)
(0.717013 0.162654 0)
(0.72455 0.161864 0)
(0.746608 0.159963 0)
(0.786879 0.153266 0)
(0.855575 0.136742 0)
(0.95185 0.0918004 0)
(0.207128 0.130254 0)
(0.351294 0.152498 0)
(0.463139 0.166046 0)
(0.545461 0.172505 0)
(0.603423 0.173922 0)
(0.643132 0.172357 0)
(0.670732 0.169261 0)
(0.692028 0.165511 0)
(0.712231 0.161448 0)
(0.736056 0.156839 0)
(0.767367 0.150656 0)
(0.809765 0.141018 0)
(0.864909 0.124447 0)
(0.928746 0.0970659 0)
(0.988956 0.056342 0)
(-0.0131416 0.0618622 0)
(0.0862928 0.0968928 0)
(0.19494 0.119061 0)
(0.29587 0.133993 0)
(0.383933 0.143302 0)
(0.459299 0.148091 0)
(0.523975 0.149367 0)
(0.580865 0.147867 0)
(0.633349 0.143961 0)
(0.684902 0.137556 0)
(0.73844 0.127958 0)
(0.795339 0.113929 0)
(0.85408 0.0939312 0)
(0.907507 0.067605 0)
(0.943662 0.0389196 0)
(-0.0834351 0.0216479 0)
(-0.0461498 0.0479081 0)
(0.026163 0.0738938 0)
(0.108024 0.0915172 0)
(0.192038 0.103885 0)
(0.273984 0.112138 0)
(0.352156 0.116551 0)
(0.426229 0.117384 0)
(0.496678 0.114754 0)
(0.564202 0.108596 0)
(0.629054 0.0986635 0)
(0.690062 0.0847029 0)
(0.743804 0.0669885 0)
(0.78431 0.0473883 0)
(0.80554 0.0305902 0)
(-0.0690678 0.0128355 0)
(-0.0726741 0.0226919 0)
(-0.0392058 0.0384293 0)
(0.00866931 0.0549606 0)
(0.0690166 0.0675177 0)
(0.135766 0.0759913 0)
(0.20545 0.0812014 0)
(0.275536 0.0831245 0)
(0.344191 0.0817196 0)
(0.409799 0.0769783 0)
(0.470444 0.0690146 0)
(0.523463 0.0582685 0)
(0.56543 0.0458902 0)
(0.593127 0.0341434 0)
(0.605803 0.0262987 0)
(-0.0215207 0.0145776 0)
(-0.044498 0.0158389 0)
(-0.0319127 0.0219319 0)
(-0.0134809 0.0305321 0)
(0.0197808 0.0392743 0)
(0.0624091 0.0458813 0)
(0.111484 0.050347 0)
(0.163995 0.0523474 0)
(0.217085 0.0518152 0)
(0.268054 0.0488433 0)
(0.314243 0.0437665 0)
(0.353071 0.0372785 0)
(0.382462 0.0305631 0)
(0.401712 0.0252469 0)
(0.41243 0.0229209 0)
(0.0257144 0.0168047 0)
(-0.00186912 0.0158347 0)
(0.00687602 0.0165658 0)
(0.0112173 0.0188518 0)
(0.0247201 0.0217697 0)
(0.0454997 0.0247283 0)
(0.0721984 0.0271013 0)
(0.102993 0.0283747 0)
(0.135561 0.0283218 0)
(0.167489 0.0269829 0)
(0.196569 0.0246839 0)
(0.221069 0.0220004 0)
(0.240083 0.0197028 0)
(0.253863 0.0185878 0)
(0.264012 0.0191546 0)
(0.0510767 0.015963 0)
(0.0355879 0.0152925 0)
(0.0387185 0.0137891 0)
(0.0439842 0.0136499 0)
(0.0497807 0.013548 0)
(0.0578173 0.0134926 0)
(0.06865 0.01351 0)
(0.0817963 0.013446 0)
(0.0962678 0.0131779 0)
(0.11092 0.012716 0)
(0.124686 0.0122303 0)
(0.136794 0.0119889 0)
(0.146975 0.012283 0)
(0.155587 0.0133264 0)
(0.163604 0.0151238 0)
(0.0617299 0.0135752 0)
(0.0544706 0.0131053 0)
(0.0547869 0.0117514 0)
(0.0603782 0.0108008 0)
(0.0648514 0.00986004 0)
(0.068285 0.00886779 0)
(0.0718038 0.00794803 0)
(0.0756162 0.00718146 0)
(0.0794999 0.00662073 0)
(0.0832623 0.00635162 0)
(0.0868348 0.00646076 0)
(0.0902332 0.0070288 0)
(0.0936245 0.00809852 0)
(0.0973872 0.00962982 0)
(0.102046 0.0114824 0)
(0.0592501 0.0103616 0)
(0.0536776 0.0101804 0)
(0.0532502 0.00956336 0)
(0.0577925 0.00864216 0)
(0.0612159 0.00777235 0)
(0.0628976 0.0069994 0)
(0.0638499 0.00632527 0)
(0.0644282 0.00578737 0)
(0.064591 0.00543331 0)
(0.0643727 0.00532921 0)
(0.0639516 0.00550367 0)
(0.0635906 0.005982 0)
(0.06362 0.00676841 0)
(0.0643951 0.00781545 0)
(0.0662483 0.00903659 0)
(0.0430527 0.00704973 0)
(0.0367585 0.00763158 0)
(0.0370635 0.00763576 0)
(0.0408025 0.00702732 0)
(0.0430192 0.00651762 0)
(0.0437111 0.00619939 0)
(0.0438611 0.00597832 0)
(0.0437693 0.00582986 0)
(0.043418 0.00577267 0)
(0.0428524 0.00583156 0)
(0.0422241 0.00599985 0)
(0.0417424 0.00627905 0)
(0.0416166 0.00666704 0)
(0.0420222 0.00714987 0)
(0.043088 0.00771268 0)
(0.018433 0.00490698 0)
(0.0146923 0.00594444 0)
(0.0165583 0.00606677 0)
(0.0190909 0.00581586 0)
(0.0202444 0.00570973 0)
(0.0206943 0.00572824 0)
(0.0210761 0.00576985 0)
(0.0214637 0.0058111 0)
(0.0217886 0.00585962 0)
(0.0220679 0.00593103 0)
(0.0223959 0.00601533 0)
(0.0228849 0.00611453 0)
(0.0236243 0.00623782 0)
(0.0246855 0.00638553 0)
(0.0261119 0.00656986 0)
(-0.000896757 0.0043685 0)
(0.00183079 0.00487041 0)
(0.00359791 0.00490434 0)
(0.00470208 0.0049044 0)
(0.00572964 0.00499231 0)
(0.00674398 0.00508884 0)
(0.00783903 0.00516594 0)
(0.00894666 0.00522361 0)
(0.0100304 0.00526889 0)
(0.011099 0.00530279 0)
(0.012171 0.00532374 0)
(0.013268 0.00533232 0)
(0.0144036 0.00533442 0)
(0.015607 0.0053365 0)
(0.0169278 0.00535023 0)
(-0.00229384 0.00414693 0)
(-0.000973161 0.00401158 0)
(0.00108108 0.00413086 0)
(0.00137396 0.00417493 0)
(0.00277109 0.0042491 0)
(0.00404571 0.00429899 0)
(0.0053707 0.00433961 0)
(0.00670337 0.00437202 0)
(0.00803287 0.00440178 0)
(0.00937257 0.00441931 0)
(0.0107183 0.00443264 0)
(0.0120644 0.00443938 0)
(0.0134018 0.00443433 0)
(0.0147184 0.00442084 0)
(0.0160007 0.00439752 0)
(-0.000291184 0.00343472 0)
(-0.00158749 0.00329758 0)
(0.00122884 0.00340861 0)
(0.0014346 0.00343271 0)
(0.00299281 0.00351195 0)
(0.00419511 0.00350984 0)
(0.00549754 0.003545 0)
(0.00680246 0.00356841 0)
(0.00811926 0.00358803 0)
(0.00945319 0.00360052 0)
(0.0107989 0.00360967 0)
(0.012158 0.00361485 0)
(0.0135267 0.00361364 0)
(0.0148967 0.00360752 0)
(0.0162578 0.0035959 0)
(0.000100777 0.0027014 0)
(-0.00393475 0.00271728 0)
(0.000258518 0.00274913 0)
(-0.00134541 0.00276525 0)
(0.0015618 0.00282102 0)
(0.00157409 0.0027972 0)
(0.00294251 0.00281371 0)
(0.00415187 0.00282077 0)
(0.00538004 0.00282536 0)
(0.00661763 0.00282721 0)
(0.00787673 0.0028275 0)
(0.00916303 0.00282623 0)
(0.0104611 0.00282281 0)
(0.0117585 0.00281774 0)
(0.0130478 0.00281104 0)
(0.801809 0.00209346 7.23773e-21)
(0.86519 -0.015698 -7.27555e-21)
(0.800335 -0.0104232 0)
(0.739607 -0.00761473 0)
(0.708493 -0.00823276 0)
(0.684924 -0.00986329 0)
(0.657419 -0.0113457 0)
(0.628708 -0.0123854 0)
(0.60246 -0.0130098 0)
(0.580194 -0.0135024 0)
(0.546897 -0.0178246 1.52767e-19)
(0.511206 -0.0186322 -1.8125e-19)
(0.484351 -0.0191647 2.17649e-19)
(0.460927 -0.0203347 -2.26751e-19)
(0.442859 -0.0228 4.33212e-20)
(0.409211 -0.0255439 -6.31378e-20)
(0.338958 -0.0279409 0)
(0.258083 -0.0314183 1.95098e-18)
(0.205621 -0.0364337 -5.44028e-19)
(0.209067 -0.0357321 0)
(0.241101 -0.0249867 2.90287e-18)
(0.27026 -0.0210613 0)
(0.30055 -0.0166049 -2.8858e-19)
(0.331578 -0.0118378 -3.96762e-18)
(0.363998 -0.00668278 -7.66683e-18)
(0.397232 -0.00124191 -7.316e-18)
(0.430631 0.00433318 0)
(0.464255 0.00995539 0)
(0.498545 0.0156237 5.41685e-18)
(0.534049 0.0212244 0)
(0.571514 0.0265579 5.21197e-18)
(0.61257 0.0314087 -2.94885e-19)
(0.657984 0.0349236 0)
(0.715583 0.036032 6.7838e-19)
(0.771385 0.0282747 0)
(0.993815 0.0256491 0)
(0.935435 -0.0420027 -4.13766e-20)
(0.761182 -0.0125382 3.7363e-20)
(0.655214 0.00885159 -6.53272e-22)
(0.68583 0.00220399 0)
(0.965728 0.0121531 -5.59719e-21)
(0.978801 -0.0157367 1.94651e-20)
(0.925843 -0.000575393 -1.39183e-20)
(0.889447 0.00746487 0)
(0.873449 0.00715065 0)
(0.859038 0.00526597 -9.52466e-20)
(0.839359 0.00416049 9.84382e-20)
(0.817422 0.00358877 1.13393e-19)
(0.796344 0.00309975 -2.42572e-19)
(0.777283 0.00272976 1.28736e-19)
(0.751825 0.00241708 -1.14701e-19)
(0.720856 0.00105946 4.08575e-19)
(0.694449 8.68475e-05 -1.46358e-19)
(0.670467 -0.000905334 -1.61813e-19)
(0.64584 -0.00229019 2.34396e-22)
(0.618661 -0.00582693 0)
(0.578016 -0.00745438 -4.11662e-19)
(0.523532 -0.00699463 -4.33069e-19)
(0.471491 -0.00538623 3.89578e-19)
(0.440487 -0.00109683 -5.36078e-18)
(0.438804 0.00447658 -1.89531e-18)
(0.446605 0.00978672 -1.12266e-19)
(0.456476 0.0158006 -3.34235e-18)
(0.468144 0.0221499 -2.52174e-18)
(0.482408 0.0288142 -9.3607e-20)
(0.499025 0.0355703 -8.45147e-20)
(0.517606 0.0421835 -4.60493e-18)
(0.538362 0.0484672 0)
(0.561864 0.0541319 -8.38742e-18)
(0.58868 0.0590971 -2.25339e-19)
(0.619732 0.0632121 -1.3144e-18)
(0.655907 0.0659989 0)
(0.69952 0.0659651 0)
(0.74741 0.0610758 -9.4124e-19)
(0.804899 0.0453602 -7.63664e-22)
(0.855861 0.0180678 4.18398e-22)
(0.966213 -0.0566972 4.02164e-20)
(0.919861 -0.0139533 3.10049e-20)
(0.888725 0.0189911 5.14829e-21)
(0.905365 0.00523563 -6.12097e-21)
(1.01678 0.012338 0)
(1.00618 -0.00394385 1.24064e-20)
(0.961849 0.00999665 -1.23554e-20)
(0.929592 0.0173787 0)
(0.912581 0.0169929 0)
(0.897649 0.015389 -7.89872e-20)
(0.87967 0.0147804 8.13164e-20)
(0.860718 0.0146195 0)
(0.842939 0.0142642 -1.0207e-19)
(0.826762 0.0139042 1.05786e-19)
(0.805678 0.0160966 0)
(0.780567 0.0147778 0)
(0.758786 0.0138875 0)
(0.738675 0.0134203 0)
(0.7161 0.0134888 3.5678e-22)
(0.692423 0.0115313 0)
(0.667928 0.0105989 0)
(0.637885 0.0123632 0)
(0.602027 0.0181709 5.77665e-19)
(0.567853 0.0253368 4.43001e-18)
(0.557405 0.0231021 0)
(0.556703 0.0270727 0)
(0.557644 0.0314433 2.55053e-18)
(0.560578 0.036051 2.67932e-18)
(0.566508 0.0406785 6.76285e-20)
(0.575411 0.0450902 -6.60356e-20)
(0.587096 0.0491169 4.1299e-18)
(0.601718 0.0525932 3.11533e-18)
(0.619797 0.0552526 2.01425e-18)
(0.642096 0.0569612 0)
(0.6695 0.0574682 1.36636e-18)
(0.702269 0.0560679 -8.67669e-19)
(0.741112 0.0513825 7.85547e-20)
(0.779985 0.0416967 2.49971e-19)
(0.821389 0.0268008 0)
(0.827144 -0.00284974 0)
(0.86201 -0.0227977 -4.67879e-20)
(0.853895 -0.00582092 -2.24566e-20)
(0.85219 0.0169498 0)
(0.87443 0.00536607 0)
(1.01452 0.0150293 0)
(0.99669 0.00922248 0)
(0.962938 0.0210265 0)
(0.938165 0.0270921 0)
(0.922688 0.0264476 6.09903e-20)