/*--------------------------------*- C++ -*----------------------------------*\
| =========                 |                                                 |
| \\      /  F ield         | OpenFOAM: The Open Source CFD Toolbox           |
|  \\    /   O peration     | Version:  2.4.0                                 |
|   \\  /    A nd           | Web:      www.OpenFOAM.org                      |
|    \\/     M anipulation  |                                                 |
\*---------------------------------------------------------------------------*/
FoamFile
{
    version     2.0;
    format      ascii;
    class       volScalarField;
    location    "1.4";
    object      p;
}
// * * * * * * * * * * * * * * * * * * * * * * * * * * * * * * * * * * * * * //

dimensions      [0 2 -2 0 0 0 0];

internalField   nonuniform List<scalar> 
6000
(
-0.11151
0.249242
0.24918
0.254817
0.254184
0.256171
0.257359
0.25746
0.251535
0.241477
0.220803
0.188644
0.149145
0.10947
0.0831044
0.0778988
0.100356
0.141971
0.194358
0.245557
0.288779
0.322484
0.347414
0.365732
0.379183
0.389423
0.397245
0.403676
0.408822
0.413178
0.416724
0.419659
0.421878
0.423516
0.42443
0.424764
0.42441
0.423522
0.422027
0.420075
0.417554
0.414606
0.411069
0.407076
0.402381
0.39714
0.390989
0.384142
0.375986
0.366865
0.355861
0.343425
0.328118
0.310583
0.288399
0.262624
0.228611
0.189503
0.132154
0.092917
-0.0805219
0.246012
0.249148
0.25477
0.254153
0.256104
0.25731
0.257509
0.251805
0.241931
0.221468
0.189321
0.149674
0.109644
0.0828342
0.077295
0.0989323
0.140517
0.193059
0.244548
0.28807
0.321997
0.347085
0.365506
0.379028
0.38931
0.397163
0.403608
0.408764
0.413123
0.41667
0.419603
0.421817
0.423447
0.424351
0.424672
0.424303
0.423399
0.421887
0.419918
0.417378
0.414413
0.410854
0.406839
0.402119
0.39685
0.390667
0.383784
0.375585
0.366418
0.355351
0.342854
0.327458
0.309837
0.287527
0.261612
0.227424
0.188222
0.130721
0.0905405
-0.0702427
0.243949
0.24914
0.254788
0.254136
0.256065
0.257272
0.25756
0.251929
0.24202
0.221388
0.189206
0.149611
0.109522
0.0823432
0.0768051
0.0981233
0.13958
0.192202
0.243894
0.287631
0.321718
0.346905
0.36538
0.37893
0.389226
0.397088
0.403537
0.408696
0.413058
0.416605
0.419539
0.421751
0.42338
0.424279
0.424598
0.424222
0.423314
0.421794
0.41982
0.417275
0.414305
0.410741
0.406722
0.401999
0.396721
0.39054
0.38364
0.375447
0.366256
0.355204
0.342666
0.327293
0.309606
0.287325
0.261312
0.227182
0.187671
0.130485
0.0897794
-0.0561329
0.241781
0.249164
0.254795
0.254122
0.256024
0.257241
0.25767
0.252277
0.242365
0.221587
0.189288
0.1496
0.109245
0.081549
0.0759437
0.0964281
0.138061
0.190984
0.243056
0.287126
0.321418
0.346721
0.365253
0.378826
0.389133
0.396999
0.403448
0.408607
0.41297
0.416515
0.41945
0.421659
0.423287
0.42418
0.424491
0.424106
0.423186
0.421654
0.419666
0.417105
0.41412
0.410538
0.4065
0.401755
0.396453
0.390243
0.383315
0.375079
0.365854
0.354732
0.342162
0.326685
0.308962
0.286538
0.260462
0.226134
0.186615
0.129334
0.0882589
-0.0429643
0.239459
0.249166
0.254801
0.254118
0.255986
0.257223
0.257831
0.252638
0.242649
0.221661
0.189284
0.149513
0.108818
0.0805537
0.0750022
0.0948215
0.13652
0.189765
0.24224
0.286665
0.321164
0.346575
0.365152
0.378738
0.389049
0.396913
0.403358
0.408513
0.412875
0.416418
0.419353
0.421562
0.423187
0.424076
0.424381
0.423988
0.42306
0.421518
0.419522
0.416952
0.413959
0.410369
0.406322
0.40157
0.396255
0.390044
0.383094
0.374861
0.365604
0.354501
0.341866
0.326421
0.308594
0.286206
0.259977
0.225721
0.185866
0.128858
0.087151
-0.0310038
0.237061
0.24911
0.254804
0.254126
0.255943
0.257225
0.258044
0.253124
0.243003
0.221736
0.189234
0.149329
0.108247
0.0794105
0.0737298
0.0929217
0.13479
0.18844
0.24138
0.286207
0.32093
0.346449
0.365066
0.378658
0.388967
0.396825
0.403264
0.408415
0.412774
0.416316
0.419251
0.421459
0.423084
0.423969
0.424269
0.423868
0.42293
0.421378
0.419371
0.416789
0.413783
0.41018
0.406118
0.401349
0.396015
0.389781
0.382807
0.374536
0.365251
0.354078
0.34143
0.32588
0.308041
0.285521
0.259255
0.224818
0.184944
0.127884
0.0859289
-0.0200273
0.234674
0.24898
0.254801
0.254147
0.255905
0.257234
0.258301
0.253675
0.243416
0.221844
0.189152
0.149042
0.107546
0.0781799
0.0721149
0.0908103
0.132869
0.187
0.240467
0.285742
0.320708
0.346338
0.364989
0.378579
0.388883
0.396732
0.40316
0.408305
0.412663
0.416204
0.419142
0.421352
0.422976
0.423861
0.424155
0.423747
0.422799
0.421237
0.41922
0.416628
0.41361
0.409997
0.405923
0.401143
0.395794
0.389551
0.382555
0.37428
0.36496
0.353803
0.341077
0.325549
0.3076
0.285092
0.258673
0.224274
0.184118
0.127252
0.0848039
-0.00982019
0.232343
0.248768
0.254783
0.25418
0.255883
0.257246
0.258587
0.254272
0.243876
0.221988
0.189032
0.148657
0.106718
0.076876
0.0701942
0.0885002
0.130766
0.185451
0.239503
0.285268
0.320495
0.346238
0.364919
0.378499
0.388793
0.396628
0.403045
0.408183
0.412539
0.416081
0.419022
0.421236
0.422863
0.423748
0.424039
0.423626
0.422669
0.421098
0.41907
0.416468
0.41344
0.409816
0.405729
0.400937
0.395572
0.389314
0.382296
0.373994
0.364648
0.353431
0.340697
0.325092
0.307119
0.28452
0.258046
0.223529
0.183291
0.12645
0.0837298
-0.000267181
0.23009
0.248473
0.254742
0.254224
0.255871
0.257264
0.258889
0.254905
0.24438
0.22215
0.188869
0.148192
0.105768
0.0754451
0.0680679
0.0860033
0.128493
0.183801
0.238495
0.284792
0.320294
0.346149
0.364855
0.378418
0.388698
0.396515
0.402916
0.408046
0.4124
0.415943
0.418889
0.42111
0.422742
0.423631
0.423921
0.423503
0.422539
0.420959
0.418921
0.41631
0.413271
0.409637
0.405538
0.400734
0.395354
0.389084
0.382044
0.37373
0.364353
0.353141
0.340338
0.324725
0.306669
0.284047
0.257456
0.222924
0.182497
0.125766
0.0827199
0.00870095
0.227926
0.248095
0.254671
0.254279
0.255869
0.25729
0.259203
0.255556
0.244918
0.222312
0.18867
0.147669
0.104713
0.0738504
0.06578
0.083328
0.126058
0.182057
0.237451
0.28432
0.320108
0.346075
0.3648
0.378336
0.388597
0.396393
0.402775
0.407895
0.412246
0.415792
0.418744
0.420975
0.422614
0.423509
0.423799
0.423379
0.422407
0.420821
0.418773
0.416154
0.413103
0.409461
0.405349
0.400535
0.39514
0.388857
0.381797
0.373465
0.364062
0.352808
0.339985
0.324328
0.306226
0.28355
0.256879
0.222286
0.181731
0.125085
0.0817633
0.0171404
0.225859
0.247642
0.254563
0.25434
0.255878
0.257321
0.259521
0.256205
0.245467
0.222472
0.188448
0.147101
0.103562
0.072106
0.063336
0.0804784
0.123464
0.180223
0.236369
0.283856
0.319942
0.346017
0.36475
0.378259
0.388492
0.396262
0.402622
0.407731
0.412077
0.415627
0.418587
0.420828
0.422477
0.423381
0.423674
0.423253
0.422275
0.420683
0.418625
0.415998
0.412937
0.409286
0.405163
0.400338
0.394929
0.388635
0.381555
0.373208
0.363776
0.352512
0.339639
0.323956
0.305793
0.283078
0.256317
0.221683
0.180992
0.124434
0.0808567
0.0251021
0.223894
0.247119
0.254413
0.254403
0.2559
0.257359
0.259836
0.256846
0.246013
0.222633
0.18821
0.146494
0.102326
0.0702264
0.0607442
0.0774556
0.120704
0.178299
0.235248
0.283398
0.319799
0.345978
0.36471
0.378188
0.388385
0.396124
0.402459
0.407553
0.411895
0.415448
0.418416
0.420672
0.422333
0.423247
0.423545
0.423125
0.422142
0.420544
0.418478
0.415844
0.412773
0.409114
0.404979
0.400145
0.394722
0.388417
0.381317
0.372955
0.363497
0.352206
0.339301
0.323588
0.305369
0.282614
0.255768
0.221094
0.180276
0.123807
0.0799932
0.0326316
0.222036
0.246537
0.254218
0.254461
0.255934
0.257406
0.260143
0.257469
0.246551
0.222798
0.187961
0.145855
0.101013
0.0682238
0.0580145
0.0742598
0.117774
0.176274
0.234088
0.28294
0.319676
0.345958
0.36468
0.378124
0.388278
0.395982
0.402287
0.407365
0.411699
0.415256
0.418234
0.420505
0.42218
0.423107
0.423412
0.422995
0.422008
0.420406
0.418331
0.415691
0.412611
0.408944
0.404798
0.399955
0.394518
0.388202
0.381083
0.372707
0.363222
0.351913
0.338969
0.323228
0.304955
0.282161
0.255233
0.220519
0.179583
0.123201
0.0791682
0.0397681
0.220288
0.245905
0.253978
0.254509
0.255975
0.257462
0.26044
0.258066
0.247077
0.222964
0.187706
0.145191
0.0996332
0.0661104
0.0551584
0.0708923
0.114665
0.174137
0.232886
0.282481
0.319568
0.34595
0.364664
0.378069
0.388172
0.395836
0.402108
0.407166
0.411492
0.415052
0.418039
0.420328
0.422019
0.422962
0.423277
0.422863
0.421873
0.420268
0.418186
0.41554
0.41245
0.408777
0.40462
0.399768
0.394317
0.387992
0.380854
0.372464
0.362954
0.351626
0.338645
0.322876
0.304551
0.281719
0.254711
0.21996
0.178911
0.122614
0.0783785
0.0465448
0.218649
0.245234
0.253693
0.254541
0.256021
0.257528
0.26072
0.258634
0.247586
0.223129
0.18745
0.144507
0.0982
0.0639004
0.0521896
0.0673581
0.111373
0.171876
0.23163
0.282021
0.319474
0.345952
0.364659
0.378021
0.388071
0.39569
0.401924
0.40696
0.411273
0.414836
0.417833
0.42014
0.421851
0.422811
0.423137
0.42273
0.421737
0.42013
0.418041
0.41539
0.412291
0.408612
0.404444
0.399585
0.39412
0.387786
0.38063
0.372226
0.362691
0.351344
0.338328
0.322533
0.304155
0.281288
0.254202
0.219415
0.178261
0.122047
0.077622
0.0529906
0.217119
0.244533
0.253366
0.254554
0.256069
0.257605
0.260981
0.259169
0.248074
0.223294
0.187193
0.143807
0.0967252
0.0616105
0.0491267
0.0636692
0.107897
0.169484
0.230311
0.281554
0.319391
0.345962
0.364663
0.377978
0.387973
0.395546
0.401737
0.406747
0.411045
0.414609
0.417615
0.419943
0.421675
0.422655
0.422995
0.422594
0.4216
0.419992
0.417897
0.415241
0.412134
0.408449
0.404271
0.399405
0.393927
0.387584
0.380411
0.371994
0.362435
0.351069
0.338019
0.322198
0.303769
0.280867
0.253706
0.218885
0.177631
0.121498
0.0768968
0.0591305
0.215695
0.243811
0.253003
0.254544
0.256119
0.257687
0.261223
0.259668
0.248534
0.223458
0.186936
0.143098
0.0952212
0.0592606
0.0459937
0.0598477
0.104247
0.166954
0.22892
0.281075
0.31931
0.345984
0.364675
0.377941
0.387878
0.395404
0.40155
0.40653
0.410809
0.414373
0.417387
0.419736
0.42149
0.422492
0.422849
0.422457
0.421463
0.419854
0.417753
0.415094
0.411979
0.408288
0.4041
0.399228
0.393738
0.387387
0.380196
0.371767
0.362184
0.350801
0.337717
0.321871
0.303393
0.280457
0.253224
0.21837
0.177021
0.120966
0.0762017
0.064986
0.214376
0.243077
0.252603
0.254511
0.256167
0.257772
0.261448
0.260124
0.248964
0.223619
0.186677
0.142387
0.0937021
0.056873
0.0428196
0.0559252
0.100444
0.164288
0.227453
0.280576
0.319228
0.346013
0.364693
0.377907
0.387785
0.395264
0.401364
0.406311
0.410568
0.414128
0.417149
0.41952
0.421299
0.422324
0.4227
0.422318
0.421325
0.419717
0.417611
0.414948
0.411825
0.40813
0.403933
0.399054
0.393553
0.387193
0.379986
0.371545
0.361939
0.35054
0.337422
0.321553
0.303026
0.280058
0.252754
0.21787
0.176431
0.120452
0.0755358
0.0705764
0.21316
0.242338
0.25217
0.254456
0.256209
0.257858
0.261654
0.260538
0.249357
0.223772
0.186417
0.141681
0.0921849
0.0544714
0.039636
0.0519392
0.0965189
0.1615
0.225899
0.280054
0.319141
0.346046
0.364713
0.377877
0.387693
0.395126
0.40118
0.406093
0.410323
0.413877
0.416903
0.419296
0.4211
0.422151
0.422549
0.422177
0.421186
0.41958
0.41747
0.414804
0.411674
0.407975
0.403769
0.398884
0.393371
0.387004
0.379781
0.371329
0.3617
0.350285
0.337135
0.321243
0.30267
0.27967
0.252298
0.217384
0.175861
0.119956
0.074898
0.0759184
0.212043
0.241601
0.251708
0.254379
0.256238
0.257947
0.261838
0.260911
0.249707
0.223914
0.186157
0.140984
0.0906877
0.0520806
0.0364753
0.04793
0.0925072
0.158613
0.224259
0.279494
0.319057
0.346082
0.364734
0.377848
0.387602
0.394989
0.400998
0.405877
0.410077
0.413622
0.41665
0.419064
0.420894
0.421972
0.422394
0.422034
0.421047
0.419443
0.417329
0.414661
0.411525
0.407822
0.403607
0.398718
0.393193
0.38682
0.379581
0.371118
0.361468
0.350037
0.336856
0.320942
0.302323
0.279293
0.251855
0.216913
0.175312
0.119478
0.0742876
0.0810269
0.211025
0.240871
0.251225
0.254277
0.256255
0.25804
0.261996
0.261238
0.250012
0.224041
0.185899
0.140301
0.0892286
0.0497253
0.0333696
0.0439373
0.0884461
0.155656
0.222544
0.278886
0.318969
0.346117
0.364755
0.377819
0.387512
0.394853
0.400818
0.405664
0.409831
0.413364
0.41639
0.418825
0.420682
0.421788
0.422237
0.42189
0.420907
0.419307
0.417189
0.41452
0.411377
0.407672
0.403449
0.398555
0.39302
0.38664
0.379386
0.370913
0.361242
0.349796
0.336585
0.32065
0.301986
0.278928
0.251426
0.216456
0.174781
0.119016
0.0737038
0.0859151
0.210102
0.240152
0.250724
0.254149
0.256258
0.258134
0.262126
0.261517
0.250269
0.224149
0.185641
0.139639
0.0878242
0.0474299
0.0303506
0.0400005
0.0843728
0.152656
0.220772
0.278227
0.318874
0.346149
0.364773
0.377789
0.387421
0.394718
0.40064
0.405453
0.409587
0.413105
0.416126
0.418579
0.420464
0.421598
0.422078
0.421744
0.420767
0.419171
0.417051
0.41438
0.411232
0.407524
0.403293
0.398395
0.39285
0.386464
0.379195
0.370714
0.361022
0.349562
0.336322
0.320366
0.301659
0.278573
0.251011
0.216015
0.17427
0.118572
0.0731458
0.0905952
0.209273
0.239447
0.25021
0.253997
0.256246
0.258228
0.262226
0.261747
0.250475
0.224231
0.185384
0.139003
0.0864894
0.045218
0.0274492
0.0361572
0.0803245
0.14964
0.218969
0.277518
0.318763
0.346177
0.364787
0.377755
0.38733
0.394584
0.400464
0.405247
0.409345
0.412846
0.415859
0.41833
0.42024
0.421404
0.421916
0.421596
0.420626
0.419035
0.416914
0.414242
0.411089
0.407379
0.403141
0.398239
0.392685
0.386293
0.379011
0.37052
0.360808
0.349336
0.336066
0.320091
0.301343
0.27823
0.250609
0.215589
0.173779
0.118144
0.072613
0.0950782
0.208535
0.238759
0.249689
0.253822
0.256219
0.258311
0.2623
0.261926
0.250629
0.22428
0.18513
0.1384
0.0852371
0.0431123
0.024695
0.0324442
0.0763381
0.146632
0.217151
0.276775
0.318633
0.346197
0.364795
0.377717
0.387236
0.39445
0.40029
0.405043
0.409108
0.412591
0.41559
0.418076
0.420011
0.421205
0.421753
0.421447
0.420485
0.4189
0.416777
0.414106
0.410948
0.407236
0.402992
0.398087
0.392523
0.386127
0.378831
0.370331
0.360601
0.349116
0.335819
0.319825
0.301036
0.277899
0.250221
0.215177
0.173306
0.117733
0.0721046
0.0993748
0.207886
0.23809
0.249166
0.253622
0.25618
0.258375
0.262356
0.26205
0.250728
0.224297
0.184871
0.137834
0.0840791
0.0411341
0.0221167
0.0288963
0.0724494
0.143659
0.215352
0.275993
0.318479
0.346203
0.364797
0.377674
0.387139
0.394316
0.400117
0.404843
0.408875
0.412339
0.415322
0.41782
0.419777
0.421002
0.421589
0.421297
0.420344
0.418766
0.416642
0.413971
0.41081
0.407097
0.402846
0.397938
0.392366
0.385965
0.378656
0.370149
0.3604
0.348903
0.335579
0.319568
0.30074
0.277579
0.249847
0.214781
0.172853
0.117339
0.0716201
0.103495
0.207321
0.237441
0.248644
0.253401
0.256133
0.258412
0.262403
0.262111
0.250775
0.224278
0.184606
0.137308
0.0830264
0.0393034
0.0197413
0.0255463
0.0686919
0.140753
0.213583
0.275186
0.318303
0.346191
0.364789
0.377625
0.387038
0.394181
0.399946
0.404647
0.408645
0.412091
0.415055
0.417567
0.419537
0.420794
0.421424
0.421145
0.420203
0.418632
0.416509
0.413838
0.410674
0.40696
0.402704
0.397793
0.392213
0.385808
0.378487
0.369972
0.360206
0.348697
0.335348
0.31932
0.300455
0.27727
0.249487
0.214399
0.172418
0.116962
0.0711589
0.107448
0.206837
0.236815
0.248127
0.25316
0.256073
0.258417
0.262438
0.262104
0.250769
0.22422
0.184335
0.136824
0.0820906
0.0376392
0.0175942
0.0224241
0.0650982
0.137952
0.211856
0.274366
0.318108
0.346159
0.364769
0.377568
0.386932
0.394044
0.399777
0.404455
0.40842
0.411848
0.414793
0.417317
0.419288
0.420585
0.421258
0.420991
0.420062
0.418499
0.416376
0.413707
0.41054
0.406826
0.402565
0.397652
0.392065
0.385656
0.378323
0.369801
0.360019
0.348499
0.335125
0.319081
0.30018
0.276973
0.24914
0.214033
0.172001
0.1166
0.0707203
0.111245
0.20643
0.236211
0.247619
0.252903
0.255996
0.258394
0.262445
0.262032
0.250711
0.224118
0.184057
0.136388
0.0812734
0.036163
0.0156985
0.0195578
0.0617073
0.135287
0.210177
0.273539
0.3179
0.346105
0.364735
0.377502
0.38682
0.393904
0.399609
0.404267
0.4082
0.411611
0.414535
0.417068
0.419034
0.420376
0.421092
0.420837
0.419921
0.418367
0.416245
0.413578
0.410408
0.406695
0.402429
0.397515
0.391921
0.385508
0.378165
0.369637
0.359838
0.348308
0.334911
0.318851
0.299916
0.276688
0.248808
0.213682
0.171604
0.116255
0.0703038
0.114893
0.206095
0.235632
0.247122
0.252632
0.255899
0.258353
0.262408
0.261901
0.2506
0.22397
0.183771
0.136011
0.0805749
0.0348931
0.0140712
0.0169806
0.0585671
0.132766
0.208569
0.272712
0.317682
0.346027
0.364685
0.377426
0.386702
0.393762
0.399442
0.40408
0.407985
0.411379
0.414284
0.41682
0.418779
0.420166
0.420927
0.420681
0.41978
0.418236
0.416116
0.413451
0.410279
0.406566
0.402296
0.397381
0.391781
0.385365
0.378012
0.369478
0.359664
0.348125
0.334705
0.318631
0.299663
0.276415
0.24849
0.213345
0.171224
0.115926
0.069909
0.118403
0.205825
0.235078
0.246638
0.252349
0.255779
0.258306
0.262316
0.261722
0.250429
0.223778
0.183474
0.135695
0.0800084
0.033836
0.0127229
0.0147347
0.0557016
0.130398
0.20705
0.271895
0.317458
0.345926
0.364617
0.377339
0.386577
0.393615
0.399276
0.403897
0.407775
0.411148
0.414044
0.416573
0.418523
0.419956
0.420763
0.420524
0.41964
0.418106
0.415988
0.413326
0.410153
0.406441
0.402168
0.397252
0.391646
0.385228
0.377864
0.369325
0.359497
0.347948
0.334507
0.318419
0.29942
0.276153
0.248186
0.213024
0.170863
0.115613
0.0695352
0.121782
0.205616
0.234551
0.246168
0.252057
0.25564
0.258252
0.262159
0.2615
0.250194
0.223542
0.183166
0.135435
0.0795731
0.0330111
0.011681
0.0128271
0.0531369
0.128211
0.205637
0.271101
0.317232
0.345801
0.364531
0.377241
0.386446
0.393463
0.399109
0.403719
0.407571
0.410916
0.413817
0.416328
0.418273
0.419739
0.420602
0.420365
0.419501
0.417977
0.415862
0.413203
0.41003
0.406319
0.402042
0.397126
0.391515
0.385095
0.377723
0.369178
0.359336
0.34778
0.334318
0.318217
0.299188
0.275904
0.247896
0.212718
0.17052
0.115316
0.0691822
0.12504
0.205462
0.234051
0.245713
0.251757
0.255484
0.258184
0.261937
0.261236
0.249889
0.223266
0.182847
0.135226
0.0792641
0.0324432
0.010959
0.0112758
0.0508991
0.126232
0.204342
0.270341
0.317011
0.345653
0.364424
0.377131
0.386306
0.393306
0.39894
0.403545
0.407375
0.410691
0.413595
0.416088
0.418032
0.419523
0.420434
0.420206
0.419363
0.417849
0.415738
0.413082
0.409909
0.4062
0.401921
0.397005
0.391389
0.384967
0.377586
0.369037
0.359183
0.347618
0.334138
0.318025
0.298967
0.275666
0.24762
0.212428
0.170194
0.115034
0.0688493
0.128185
0.205356
0.233578
0.245274
0.25145
0.255319
0.258091
0.261661
0.260921
0.249518
0.222952
0.182516
0.13505
0.0790893
0.0321507
0.0105645
0.0100985
0.0490103
0.124487
0.203176
0.269619
0.3168
0.345484
0.364298
0.377007
0.38616
0.393144
0.398768
0.403372
0.407184
0.410479
0.413373
0.415854
0.417799
0.419318
0.420249
0.420048
0.419227
0.417723
0.415615
0.412964
0.409791
0.406084
0.401803
0.396887
0.391268
0.384844
0.377456
0.368902
0.359036
0.347465
0.333966
0.317842
0.298757
0.275441
0.247359
0.212152
0.169887
0.114768
0.0685363
0.131222
0.205295
0.233133
0.244852
0.251139
0.255147
0.257967
0.261339
0.260547
0.249088
0.222598
0.182176
0.134883
0.0790656
0.0321442
0.0105019
0.00930807
0.0474892
0.122998
0.202154
0.268935
0.316608
0.345294
0.36415
0.37687
0.386006
0.392977
0.398595
0.4032
0.406997
0.410276
0.413155
0.415628
0.417577
0.419119
0.42005
0.419893
0.419092
0.417598
0.415494
0.412847
0.409675
0.405972
0.401689
0.396774
0.391151
0.384726
0.377331
0.368774
0.358897
0.347319
0.333803
0.317668
0.298558
0.275227
0.247111
0.211892
0.169597
0.114517
0.0682426
0.134159
0.205272
0.232716
0.244445
0.250833
0.254965
0.257808
0.260982
0.260101
0.248602
0.222202
0.181829
0.134704
0.0792109
0.0324268
0.0107726
0.00891164
0.0463504
0.121785
0.201291
0.268315
0.316417
0.345083
0.363982
0.376718
0.385844
0.392805
0.398418
0.403029
0.406817
0.410079
0.412943
0.415409
0.417367
0.418922
0.419842
0.419743
0.41896
0.417475
0.415376
0.412734
0.409563
0.405862
0.401578
0.396665
0.391039
0.384613
0.377212
0.368651
0.358764
0.34718
0.333648
0.317504
0.298371
0.275025
0.246878
0.211646
0.169325
0.114282
0.0679681
0.137001
0.205284
0.232326
0.244055
0.250537
0.254768
0.257616
0.260601
0.259569
0.248067
0.221764
0.18148
0.134509
0.0795264
0.0329941
0.0113742
0.0089114
0.0456042
0.120866
0.200624
0.267801
0.316176
0.344855
0.363794
0.376553
0.385674
0.392628
0.398238
0.402857
0.406642
0.409891
0.412739
0.415194
0.417173
0.418721
0.419628
0.4196
0.41883
0.417353
0.41526
0.412622
0.409454
0.405756
0.401472
0.39656
0.390932
0.384505
0.377098
0.368535
0.358639
0.347049
0.333503
0.317349
0.298194
0.274836
0.246659
0.211416
0.16907
0.114062
0.0677122
0.139753
0.205328
0.231963
0.243684
0.250251
0.254558
0.257395
0.260198
0.25895
0.247489
0.221282
0.181134
0.134323
0.0799887
0.0338344
0.0123005
0.00930491
0.0452571
0.120255
0.200193
0.267402
0.315852
0.344612
0.363586
0.376373
0.385497
0.392446
0.398056
0.402684
0.406473
0.409709
0.412541
0.414981
0.416995
0.418518
0.41941
0.419462
0.418702
0.417233
0.415145
0.412514
0.409348
0.405654
0.40137
0.39646
0.39083
0.384402
0.376991
0.368425
0.358521
0.346926
0.333366
0.317205
0.298029
0.274659
0.246455
0.211201
0.168832
0.113857
0.0674748
0.142418
0.2054
0.231626
0.243333
0.249973
0.254338
0.257153
0.259761
0.258259
0.246871
0.220761
0.180797
0.134169
0.0805765
0.0349333
0.0135418
0.0100847
0.0453128
0.119971
0.200027
0.267091
0.315457
0.344355
0.36336
0.376179
0.385311
0.39226
0.397871
0.402509
0.406309
0.409535
0.412351
0.414778
0.416822
0.418317
0.41919
0.419332
0.418577
0.417114
0.415034
0.412408
0.409245
0.405555
0.401271
0.396363
0.390733
0.384305
0.376889
0.368322
0.35841
0.346811
0.333238
0.317069
0.297875
0.274494
0.246265
0.211002
0.168612
0.113667
0.0672555
0.145001
0.205498
0.231314
0.243002
0.2497
0.254112
0.256888
0.259288
0.257512
0.246209
0.220204
0.180471
0.13405
0.0812834
0.0362765
0.0150846
0.0112384
0.0457719
0.120032
0.2001
0.266877
0.315015
0.344089
0.363118
0.375971
0.385118
0.392069
0.397683
0.402333
0.406147
0.409368
0.412167
0.414587
0.416648
0.418122
0.418982
0.419197
0.418455
0.416998
0.414925
0.412305
0.409146
0.40546
0.401177
0.396272
0.39064
0.384213
0.376794
0.368225
0.358306
0.346704
0.33312
0.316944
0.297732
0.274341
0.246089
0.210817
0.168409
0.113491
0.067054
0.147502
0.205621
0.231028
0.242692
0.249433
0.25388
0.256599
0.258784
0.256714
0.245496
0.219616
0.18016
0.133968
0.0821073
0.037849
0.0169128
0.0127503
0.0466321
0.120437
0.200383
0.266792
0.314527
0.343815
0.36286
0.37575
0.384917
0.391874
0.397493
0.402156
0.405986
0.409208
0.411991
0.414402
0.416479
0.417937
0.418792
0.419048
0.418337
0.416884
0.414818
0.412204
0.40905
0.405368
0.401086
0.396185
0.390553
0.384126
0.376704
0.368134
0.35821
0.346604
0.33301
0.316828
0.2976
0.274201
0.245928
0.210648
0.168223
0.113331
0.0668701
0.149925
0.205767
0.230767
0.242401
0.249174
0.253642
0.256301
0.258239
0.255884
0.244725
0.219005
0.179888
0.1339
0.0830453
0.0396339
0.0190077
0.0146022
0.0478878
0.12118
0.200885
0.266835
0.314002
0.343532
0.362589
0.375516
0.384709
0.391675
0.397301
0.401978
0.405827
0.409054
0.411823
0.414224
0.416304
0.417781
0.418611
0.418889
0.418224
0.416772
0.414714
0.412107
0.408957
0.40528
0.401001
0.396102
0.390471
0.384044
0.37662
0.36805
0.358121
0.346512
0.332909
0.316722
0.29748
0.274072
0.245781
0.210494
0.168054
0.113186
0.0667036
0.152271
0.205936
0.23053
0.242128
0.248924
0.253398
0.256001
0.257648
0.255051
0.243887
0.218386
0.179653
0.133866
0.0840813
0.0416114
0.0213492
0.016775
0.0495289
0.122252
0.201603
0.266999
0.313474
0.343241
0.362307
0.375271
0.384493
0.391473
0.397106
0.4018
0.405669
0.408904
0.411663
0.414054
0.416124
0.41765
0.418437
0.418721
0.418117
0.416662
0.414613
0.412013
0.408868
0.405196
0.400919
0.396024
0.390394
0.383968
0.376543
0.367973
0.358039
0.346428
0.332817
0.316626
0.297371
0.273957
0.245648
0.210355
0.167902
0.113055
0.0665543
0.154541
0.206126
0.230317
0.241873
0.248685
0.253152
0.255694
0.25703
0.254218
0.242978
0.217765
0.179424
0.133919
0.0851946
0.0437629
0.0239163
0.01925
0.0515414
0.12364
0.202529
0.267257
0.312995
0.342945
0.362017
0.375015
0.38427
0.391266
0.39691
0.401621
0.405512
0.408759
0.411511
0.413892
0.415952
0.417525
0.418275
0.418548
0.418016
0.416554
0.414515
0.411922
0.408783
0.405116
0.400842
0.39595
0.390321
0.383897
0.376471
0.367902
0.357965
0.346352
0.332735
0.316539
0.297274
0.273853
0.24553
0.210231
0.167767
0.112939
0.066422
0.156737
0.206338
0.230128
0.241636
0.248457
0.252907
0.25537
0.256422
0.253373
0.242004
0.21714
0.1792
0.134062
0.0863892
0.0460765
0.0266886
0.0220094
0.0539084
0.125334
0.203644
0.267562
0.312624
0.342649
0.36172
0.374749
0.384041
0.391057
0.396713
0.401441
0.405356
0.408617
0.411365
0.413739
0.41579
0.417402
0.418127
0.418376
0.417917
0.416448
0.414421
0.411834
0.408701
0.40504
0.400769
0.395881
0.390255
0.383832
0.376406
0.367837
0.357898
0.346285
0.332661
0.316463
0.297188
0.273762
0.245426
0.210123
0.167649
0.112837
0.0663065
0.15886
0.206571
0.229962
0.241416
0.248239
0.252669
0.255026
0.255844
0.252503
0.240986
0.216515
0.178985
0.134282
0.0876739
0.0485425
0.0296467
0.0250355
0.0566128
0.127322
0.204932
0.267867
0.312405
0.342357
0.361418
0.374476
0.383805
0.390845
0.396514
0.401261
0.405201
0.408479
0.411226
0.413594
0.415636
0.417284
0.417993
0.418214
0.417813
0.416346
0.414329
0.41175
0.408623
0.404968
0.400701
0.395817
0.390193
0.383772
0.376347
0.367779
0.357838
0.346225
0.332597
0.316396
0.297114
0.273684
0.245337
0.21003
0.167548
0.11275
0.0662077
0.160912
0.206825
0.229819
0.241213
0.24803
0.252438
0.254667
0.25529
0.251613
0.239964
0.215878
0.17878
0.134582
0.0890501
0.0511534
0.0327728
0.0283116
0.059639
0.129593
0.206352
0.268185
0.312355
0.342073
0.361113
0.374195
0.383565
0.39063
0.396315
0.40108
0.405047
0.408345
0.411094
0.413457
0.415489
0.417157
0.417892
0.418058
0.417701
0.416247
0.414241
0.41167
0.408549
0.404901
0.400637
0.395757
0.390136
0.383718
0.376294
0.367728
0.357786
0.346173
0.332542
0.31634
0.297051
0.273617
0.245262
0.209952
0.167463
0.112677
0.0661254
0.162895
0.207098
0.229698
0.241027
0.247831
0.252214
0.254305
0.254735
0.250738
0.238971
0.215207
0.178587
0.134979
0.0905121
0.0539024
0.0360517
0.031823
0.0629733
0.13214
0.207877
0.268606
0.312396
0.341801
0.360807
0.37391
0.383319
0.390413
0.396114
0.400899
0.404894
0.408213
0.410968
0.413328
0.415351
0.41702
0.417821
0.417914
0.417585
0.416151
0.414157
0.411593
0.40848
0.404837
0.400579
0.395703
0.390085
0.38367
0.376248
0.367683
0.357742
0.346129
0.332496
0.316293
0.296999
0.273564
0.245201
0.209889
0.167395
0.112619
0.0660597
0.164811
0.207388
0.229598
0.240859
0.247642
0.251999
0.253948
0.254163
0.249911
0.238011
0.214504
0.178407
0.135489
0.0920508
0.0567846
0.0394713
0.0355587
0.0666034
0.13495
0.209513
0.269183
0.312447
0.341542
0.360501
0.37362
0.383069
0.390194
0.395913
0.400718
0.404741
0.408084
0.410848
0.413206
0.415221
0.416887
0.417754
0.417783
0.417468
0.41606
0.414077
0.41152
0.408414
0.404778
0.400525
0.395653
0.390039
0.383627
0.376207
0.367645
0.357705
0.346093
0.33246
0.316256
0.29696
0.273523
0.245155
0.209841
0.167344
0.112575
0.0660103
0.166663
0.207695
0.229519
0.240708
0.247462
0.25179
0.253604
0.253574
0.249148
0.237078
0.213788
0.178327
0.136081
0.0936272
0.0597965
0.0430226
0.0395122
0.0705175
0.138013
0.211257
0.269889
0.312516
0.341296
0.360198
0.373329
0.382817
0.389973
0.395712
0.400537
0.404589
0.407958
0.410733
0.413092
0.415101
0.416763
0.417688
0.417666
0.417354
0.415974
0.414002
0.411451
0.408353
0.404723
0.400475
0.395608
0.389999
0.383589
0.376173
0.367614
0.357676
0.346065
0.332432
0.316229
0.296932
0.273494
0.245124
0.209809
0.16731
0.112546
0.0659773
0.168452
0.208017
0.22946
0.240575
0.247293
0.251587
0.253275
0.252983
0.24842
0.236184
0.213103
0.178364
0.136775
0.0951972
0.06293
0.0466997
0.0436813
0.0747048
0.141313
0.21312
0.270682
0.312605
0.341064
0.359899
0.373035
0.382561
0.389751
0.395512
0.400357
0.404438
0.407834
0.410625
0.412986
0.414989
0.416646
0.417617
0.417571
0.417241
0.415893
0.41393
0.411386
0.408296
0.404673
0.400431
0.395567
0.389964
0.383558
0.376146
0.367589
0.357654
0.346046
0.332414
0.316212
0.296915
0.273477
0.245107
0.209792
0.167292
0.112531
0.0659605
0.170183
0.208351
0.22942
0.24046
0.247134
0.251392
0.252958
0.252406
0.24769
0.23537
0.212487
0.178442
0.137644
0.0967684
0.0661748
0.0504999
0.0480671
0.079155
0.144831
0.215107
0.271535
0.312717
0.340847
0.359605
0.372742
0.382304
0.389528
0.395311
0.400177
0.404287
0.407713
0.410521
0.412887
0.414887
0.416536
0.417535
0.417505
0.417131
0.415816
0.413863
0.411325
0.408244
0.404627
0.400392
0.395532
0.389934
0.383532
0.376125
0.367571
0.35764
0.346034
0.332405
0.316205
0.29691
0.273474
0.245104
0.20979
0.167291
0.11253
0.0659601
0.171858
0.208695
0.229398
0.240363
0.246987
0.251203
0.252654
0.251871
0.246919
0.234658
0.211955
0.178539
0.138669
0.0983969
0.0695338
0.0544254
0.0526735
0.0838571
0.148543
0.217203
0.272438
0.312854
0.340645
0.359317
0.37245
0.382046
0.389305
0.395111
0.399998
0.404138
0.407593
0.410422
0.412795
0.414794
0.416434
0.41744
0.417468
0.417024
0.415744
0.413801
0.411268
0.408196
0.404586
0.400358
0.395502
0.38991
0.383512
0.37611
0.36756
0.357634
0.346031
0.332406
0.316209
0.296916
0.273482
0.245116
0.209804
0.167306
0.112544
0.0659759
0.17348
0.209048
0.229395
0.240283
0.246852
0.251024
0.252355
0.251409
0.246115
0.234041
0.211454
0.178701
0.139813
0.100142
0.0730114
0.0584835
0.0575062
0.0887996
0.152426
0.219394
0.273382
0.313014
0.340458
0.359035
0.37216
0.381787
0.389082
0.394912
0.399819
0.403989
0.407476
0.410328
0.41271
0.414709
0.416343
0.417346
0.417445
0.416922
0.415678
0.413744
0.411216
0.408153
0.40455
0.400329
0.395476
0.389892
0.383498
0.376101
0.367556
0.357635
0.346036
0.332416
0.316222
0.296935
0.273504
0.245142
0.209832
0.167339
0.112572
0.066008
0.175049
0.209408
0.22941
0.24022
0.246729
0.250854
0.252061
0.250982
0.245326
0.233454
0.21098
0.179017
0.141054
0.10204
0.0765929
0.0626844
0.0625722
0.0939704
0.156457
0.221665
0.274362
0.313199
0.340287
0.358761
0.371873
0.381529
0.388859
0.394713
0.399642
0.403841
0.407361
0.410238
0.412631
0.414633
0.416262
0.417263
0.417421
0.416827
0.415617
0.413691
0.411168
0.408115
0.404519
0.400305
0.395456
0.389879
0.383489
0.376099
0.367559
0.357644
0.346049
0.332435
0.316245
0.296964
0.273537
0.245183
0.209876
0.167387
0.112615
0.0660564
0.176569
0.209774