/*--------------------------------*- C++ -*----------------------------------*\
| =========                 |                                                 |
| \\      /  F ield         | OpenFOAM: The Open Source CFD Toolbox           |
|  \\    /   O peration     | Version:  2.4.0                                 |
|   \\  /    A nd           | Web:      www.OpenFOAM.org                      |
|    \\/     M anipulation  |                                                 |
\*---------------------------------------------------------------------------*/
FoamFile
{
    version     2.0;
    format      ascii;
    class       volVectorField;
    location    "1.4";
    object      U;
}
// * * * * * * * * * * * * * * * * * * * * * * * * * * * * * * * * * * * * * //

dimensions      [0 1 -1 0 0 0 0];

internalField   nonuniform List<vector> 
6000
(
(0.732294 -0.119277 -6.48669e-19)
(0.0299703 -0.00365512 0)
(-0.0311446 0.00684407 1.32567e-18)
(-0.0550558 0.0113704 0)
(-0.0362285 0.00696666 0)
(-0.0317335 0.00522269 0)
(0.00865649 -0.00313298 5.34322e-19)
(0.0488396 -0.00956198 -4.80927e-23)
(0.0709758 -0.0108711 0)
(0.0357423 -0.000477848 0)
(-0.0667503 0.0192797 3.86486e-19)
(-0.191622 0.0376218 -6.37516e-19)
(-0.30406 0.0495058 0)
(-0.385491 0.0550477 0)
(-0.440557 0.0566052 -6.39104e-20)
(-0.475119 0.0550396 0)
(-0.471021 0.0472685 0)
(-0.426275 0.0366897 -1.02582e-19)
(-0.361831 0.026653 -1.37853e-19)
(-0.290436 0.0180199 0)
(-0.220403 0.0113167 1.98243e-19)
(-0.158321 0.00626632 1.09367e-19)
(-0.10508 0.00263701 -1.16454e-19)
(-0.0598253 0.000108424 0)
(-0.0216191 -0.00153259 0)
(0.0121272 -0.00258144 0)
(0.0414394 -0.00300577 6.45105e-20)
(0.0692555 -0.0030481 -6.52797e-20)
(0.0932022 -0.00262411 0)
(0.117898 -0.00189894 0)
(0.137639 -0.000793033 8.38848e-21)
(0.160221 0.000623412 0)
(0.175935 0.00229109 6.82234e-20)
(0.196293 0.00429643 -6.87773e-20)
(0.208025 0.00637918 0)
(0.225858 0.00884151 0)
(0.234013 0.011167 1.40833e-19)
(0.249511 0.0139647 0)
(0.254896 0.016404 1.43129e-19)
(0.269044 0.0194793 0)
(0.272758 0.022001 0)
(0.286773 0.025413 2.94157e-19)
(0.289628 0.0280467 -5.94113e-19)
(0.304588 0.0319051 0)
(0.307001 0.0346832 0)
(0.323854 0.0391283 3.07025e-19)
(0.326157 0.0421035 0)
(0.346208 0.0473762 0)
(0.348615 0.0506292 -6.34332e-19)
(0.373271 0.0570802 -6.41072e-19)
(0.375684 0.0606566 -6.45696e-19)
(0.40706 0.0688247 -5.39031e-22)
(0.409277 0.0726845 6.47949e-19)
(0.450626 0.0834575 0)
(0.452132 0.0875406 -9.55023e-22)
(0.508896 0.102387 -6.09639e-19)
(0.508655 0.106679 5.6456e-19)
(0.589185 0.128002 5.02519e-19)
(0.583962 0.131894 2.05549e-21)
(0.730251 0.166801 0)
(0.795902 -0.163194 5.30963e-19)
(0.152502 -0.00272654 7.0304e-19)
(-0.010834 0.00774737 -6.6231e-19)
(-0.063979 0.01403 -6.29909e-19)
(-0.048635 0.00900939 0)
(-0.0497603 0.00730444 0)
(-0.00807866 -0.0032675 -5.33997e-19)
(0.0322463 -0.0101706 1.01777e-18)
(0.0518273 -0.00891151 0)
(-0.00346028 0.0076114 0)
(-0.129138 0.0326663 -3.86338e-19)
(-0.258679 0.0521067 3.18935e-19)
(-0.364136 0.0633561 1.22313e-19)
(-0.446414 0.0688614 0)
(-0.495118 0.0682733 6.39067e-20)
(-0.514887 0.0631419 0)
(-0.497827 0.0516186 0)
(-0.448668 0.0379899 0)
(-0.379144 0.0253245 0)
(-0.302956 0.0147067 0)
(-0.227961 0.00696226 -3.94391e-22)
(-0.160548 0.0016531 0)
(-0.102162 -0.00193075 -1.16205e-19)
(-0.051823 -0.00428303 0)
(-0.00882261 -0.00570295 0)
(0.0297293 -0.00654953 6.3537e-20)
(0.0634352 -0.00674606 -6.44712e-20)
(0.0961146 -0.00653601 1.123e-23)
(0.123867 -0.00576189 3.29409e-20)
(0.153259 -0.00461167 0)
(0.1761 -0.00301522 -8.38448e-21)
(0.20289 -0.00100093 -3.38169e-20)
(0.221056 0.00130483 -1.02828e-23)
(0.244795 0.0040014 6.87465e-20)
(0.258398 0.00681793 -6.92728e-20)
(0.278865 0.0100016 0)
(0.288465 0.0130874 0)
(0.30615 0.0165982 0)
(0.312827 0.0197739 0)
(0.328813 0.0235343 0)
(0.333697 0.0267635 -2.91037e-19)
(0.34908 0.0308096 0)
(0.353416 0.0341575 2.96862e-19)
(0.369364 0.0386219 2.99899e-19)
(0.373956 0.0422068 0)
(0.391287 0.0472251 0)
(0.39669 0.0511288 0)
(0.416673 0.0569654 0)
(0.423484 0.0613371 6.33895e-19)
(0.447417 0.0683607 0)
(0.456211 0.0733303 0)
(0.485698 0.0820257 -6.48155e-19)
(0.497318 0.0879148 -6.47394e-19)
(0.534822 0.0990099 0)
(0.550484 0.106252 -1.25841e-18)
(0.600151 0.120939 0)
(0.62132 0.130229 -1.12581e-18)
(0.692847 0.1508 -4.99068e-19)
(0.714757 0.161579 3.77315e-19)
(0.856222 0.199667 2.81717e-19)
(0.830061 -0.117786 -3.76725e-20)
(0.23395 -0.00190783 -7.01637e-19)
(0.0346267 0.00666535 0)
(-0.0584264 0.0144049 6.28871e-19)
(-0.0508191 0.00924585 0)
(-0.0579321 0.00745216 0)
(-0.0291285 -0.00227892 0)
(0.0039195 -0.00687207 -5.08717e-19)
(0.0152012 0.00122045 0)
(-0.0527411 0.0275674 -4.39264e-19)
(-0.175841 0.0557455 0)
(-0.293302 0.0710283 0)
(-0.384621 0.0760396 -1.22257e-19)
(-0.4573 0.076487 0)
(-0.501574 0.0714833 0)
(-0.518027 0.0617335 0)
(-0.498955 0.0446676 0)
(-0.449647 0.028169 0)
(-0.379624 0.0141556 0)
(-0.302605 0.00367587 1.6944e-19)
(-0.226786 -0.00292594 -1.97395e-19)
(-0.158575 -0.00693214 0)
(-0.099227 -0.00929152 6.07425e-23)
(-0.0477803 -0.0106372 -1.2101e-19)
(-0.00355845 -0.0113185 0)
(0.0364862 -0.011601 -1.26964e-19)
(0.0715443 -0.0113335 0)
(0.10606 -0.0107583 6.51905e-20)
(0.135347 -0.00965062 -3.29225e-20)
(0.167127 -0.0081852 0)
(0.191873 -0.00626093 0)
(0.221203 -0.00389444 3.38036e-20)
(0.241612 -0.00115329 -1.27126e-23)
(0.267555 0.00194298 0)
(0.283342 0.00528801 1.3849e-19)
(0.305439 0.00886677 0)
(0.316859 0.0124813 1.40649e-19)
(0.335588 0.0163282 0)
(0.343834 0.0199983 0)
(0.360469 0.0240219 0)
(0.366795 0.0277296 2.90965e-19)
(0.382469 0.0319418 0)
(0.388247 0.0357641 0)
(0.404231 0.0403148 -2.99828e-19)
(0.410386 0.0444123 0)
(0.427682 0.0494535 0)
(0.43484 0.053932 3.0974e-19)
(0.454746 0.0596862 -3.13267e-19)
(0.463606 0.0647663 -3.1645e-19)
(0.487503 0.0715805 0)
(0.498791 0.0775084 0)
(0.528332 0.085818 0)
(0.543134 0.092874 6.45763e-19)
(0.580758 0.103362 6.41332e-19)
(0.600686 0.112044 6.28632e-19)
(0.650429 0.125797 0)
(0.677722 0.136945 5.62108e-19)
(0.74952 0.156472 9.96263e-19)
(0.780595 0.169838 0)
(0.926102 0.203854 -2.81721e-19)
(0.849997 -0.10258 -4.22405e-20)
(0.308825 0.000711261 6.87764e-19)
(0.0876889 0.00607148 -6.60835e-19)
(-0.0440872 0.0150275 0)
(-0.0488802 0.00920131 0)
(-0.0605779 0.00756189 0)
(-0.0463454 -0.00112328 0)
(-0.0246373 -0.00373107 0)
(-0.0219339 0.00875015 0)
(-0.0926073 0.0398746 4.39234e-19)
(-0.204818 0.0680378 3.87096e-19)
(-0.303637 0.0800822 0)
(-0.385905 0.0832952 0)
(-0.455002 0.081819 0)
(-0.498774 0.0744845 6.21938e-20)
(-0.514351 0.0625411 0)
(-0.495494 0.0429122 7.02149e-20)
(-0.446922 0.023223 -9.8782e-20)
(-0.377362 0.00727926 0)
(-0.300618 -0.00405544 -1.69256e-19)
(-0.22493 -0.0105049 0)
(-0.156701 -0.0138173 -1.08651e-19)
(-0.097262 -0.0154015 2.31851e-19)
(-0.0456525 -0.0160253 1.20937e-19)
(-0.00123963 -0.016141 0)
(0.0391291 -0.0159741 6.34367e-20)
(0.0745305 -0.0153947 0)
(0.109715 -0.0145794 6.51262e-20)
(0.139564 -0.0132862 0)
(0.172359 -0.0116183 0)
(0.198103 -0.00946639 0)
(0.228571 -0.00684033 3.37748e-20)
(0.25056 -0.00373065 -1.36218e-19)
(0.277669 -0.000303449 0)
(0.295363 0.00352015 -6.92138e-20)
(0.318522 0.00747579 0)
(0.331673 0.0116056 -1.40608e-19)
(0.35107 0.0157849 0)
(0.360666 0.0199134 0)
(0.377597 0.0241898 0)
(0.38503 0.028309 2.90685e-19)
(0.400787 0.0326897 0)
(0.407387 0.0368539 2.96352e-19)
(0.423357 0.0415184 -2.99482e-19)
(0.430329 0.0459425 0)
(0.447504 0.0510528 -3.06094e-19)
(0.455526 0.0558385 -6.19125e-19)
(0.475214 0.0616327 3.13185e-19)
(0.485047 0.0670027 6.32483e-19)
(0.508694 0.0738753 -6.3835e-19)
(0.521144 0.0800189 -6.42675e-19)
(0.550436 0.0884454 0)
(0.566643 0.0957813 -6.45564e-19)
(0.604043 0.106425 -6.41126e-19)
(0.625737 0.115551 -6.26128e-19)
(0.675271 0.12941 0)
(0.704887 0.141324 0)
(0.776351 0.160356 -4.96905e-19)
(0.811125 0.174916 0)
(0.955956 0.208778 2.73903e-19)
(0.864552 -0.0856933 -3.8878e-20)
(0.374098 0.0053025 -6.7355e-21)
(0.140657 0.00720323 6.59921e-19)
(-0.0211539 0.0155363 6.27887e-19)
(-0.0437455 0.00922593 0)
(-0.0596923 0.00755978 -5.56585e-19)
(-0.0554608 -0.000261168 0)
(-0.0473854 -0.000407472 0)
(-0.0518776 0.0173165 0)
(-0.119996 0.0520497 4.40319e-19)
(-0.217203 0.0786732 -3.86902e-19)
(-0.302009 0.0877121 0)
(-0.380675 0.0894835 0)
(-0.448351 0.0866742 0)
(-0.492827 0.0767996 -6.21865e-20)
(-0.508919 0.0615169 0)
(-0.489911 0.0381632 -7.01496e-20)
(-0.441963 0.0160696 9.87059e-20)
(-0.373003 -0.00139327 0)
(-0.296871 -0.0130753 0)
(-0.221802 -0.018958 9.80831e-20)
(-0.154098 -0.0213011 1.08613e-19)
(-0.095105 -0.0218974 -2.31677e-19)
(-0.0438229 -0.0216633 -1.20832e-19)
(0.000352 -0.0211467 0)
(0.0406217 -0.0204847 6.33877e-20)
(0.0759747 -0.0195611 0)
(0.111294 -0.0184685 -6.51026e-20)
(0.141284 -0.0169796 3.28707e-20)
(0.174395 -0.0151263 0)
(0.200636 -0.0127821 0)
(0.231539 -0.00998962 -6.75155e-20)
(0.254518 -0.00659844 6.80761e-20)
(0.282177 -0.00294981 0)
(0.301109 0.00124135 -6.91568e-20)
(0.324858 0.00546596 0)
(0.339268 0.00998753 1.40487e-19)
(0.359135 0.0143945 0)
(0.369752 0.0188515 0)
(0.38692 0.0232608 0)
(0.39513 0.0276353 -2.90607e-19)
(0.410959 0.0320597 -2.93261e-19)
(0.418087 0.0364019 -2.96269e-19)
(0.433997 0.0410141 1.40547e-22)
(0.441414 0.0455791 -3.0244e-19)
(0.458515 0.0505888 3.06001e-19)
(0.466977 0.0554969 6.18546e-19)
(0.486506 0.0611088 0)
(0.496801 0.0666156 -3.16002e-19)
(0.520258 0.0732034 6.38098e-19)
(0.533218 0.0795792 6.42402e-19)
(0.562346 0.0875832 0)
(0.57917 0.0951038 0)
(0.61642 0.105217 0)
(0.638889 0.114462 6.25752e-19)
(0.688242 0.127663 0)
(0.718919 0.139588 0)
(0.789998 0.157923 4.9186e-19)
(0.826297 0.172587 -3.68087e-19)
(0.969891 0.204068 -2.73524e-19)
(0.876496 -0.0685483 -3.5473e-20)
(0.431028 0.0111104 -6.79402e-19)
(0.192747 0.00984429 0)
(0.00827337 0.0164387 -6.27452e-19)
(-0.0348803 0.00938702 -5.8437e-19)
(-0.0563301 0.00750514 8.77041e-23)
(-0.058108 0.000189371 0)
(-0.062172 0.00220332 0)
(-0.0725687 0.023623 0)
(-0.135964 0.0611375 -4.40175e-19)
(-0.218975 0.086618 0)
(-0.295655 0.0942016 0)
(-0.372898 0.0952621 1.21311e-19)
(-0.439872 0.091218 0)
(-0.48448 0.0793197 0)
(-0.501414 0.0607267 0)
(-0.482088 0.034163 0)
(-0.434454 0.00912146 -9.61778e-20)
(-0.366004 -0.0099461 0)
(-0.290649 -0.0220196 1.67345e-19)
(-0.216599 -0.027346 -9.80603e-20)
(-0.149927 -0.0287156 -1.08433e-19)
(-0.0918877 -0.0283372 2.31558e-19)
(-0.0413793 -0.027259 2.41606e-19)
(0.00219717 -0.0261244 0)
(0.0420631 -0.0249764 -6.33793e-20)
(0.0771245 -0.0237277 0)
(0.112318 -0.0223773 0)
(0.142262 -0.0207064 -6.57218e-20)
(0.175406 -0.0186773 0)
(0.201906 -0.0161444 0)
(0.232926 -0.0132015 6.74848e-20)
(0.256471 -0.0095432 0)
(0.28436 -0.00568532 0)
(0.304021 -0.00115654 6.91407e-20)
(0.32809 0.00331959 0)
(0.343285 0.00820026 -1.40454e-19)
(0.363441 0.0128382 0)
(0.374719 0.0176097 0)
(0.392058 0.0221763 0)
(0.400776 0.0268118 0)
(0.416678 0.0313186 2.93185e-19)
(0.424147 0.0358603 2.95924e-19)
(0.440017 0.0404711 1.46916e-22)
(0.44765 0.0451998 3.02349e-19)
(0.46472 0.0501579 3.05555e-19)
(0.473391 0.0552136 -3.09072e-19)
(0.492837 0.0607147 0)
(0.503343 0.0663547 -3.15396e-19)
(0.526689 0.0727924 3.18359e-19)
(0.539885 0.0792409 -6.4085e-19)
(0.568874 0.0870637 0)
(0.585951 0.0948011 0)
(0.623088 0.104574 -6.37275e-19)
(0.645848 0.114131 -6.2291e-19)
(0.695111 0.126788 5.99376e-19)
(0.726107 0.139195 5.54079e-19)
(0.796986 0.156348 -4.91206e-19)
(0.833788 0.171504 3.67497e-19)
(0.975959 0.200878 0)
(0.886717 -0.0522403 -3.27566e-20)
(0.480973 0.0174922 0)
(0.243449 0.0136373 6.57796e-19)
(0.0422159 0.0179459 6.26989e-19)
(-0.0220467 0.00978721 -6.18711e-23)
(-0.0507697 0.0076136 5.54311e-19)
(-0.0565071 0.000393971 0)
(-0.0688619 0.0041303 0)
(-0.0845393 0.0286452 0)
(-0.142992 0.0679152 2.2072e-19)
(-0.214486 0.0928309 1.93295e-19)
(-0.287229 0.100031 0)
(-0.363508 0.100808 -1.21156e-19)
(-0.430346 0.0955521 8.44933e-20)
(-0.474192 0.0816022 0)
(-0.491409 0.0595064 0)
(-0.472445 0.0299147 0)
(-0.424759 0.00201497 1.44568e-21)
(-0.356478 -0.0186369 0)
(-0.281732 -0.0310631 -3.33951e-19)
(-0.208825 -0.0357867 9.77227e-20)
(-0.143563 -0.0361326 1.08419e-19)
(-0.0869593 -0.0347465 -3.53717e-23)
(-0.0377012 -0.032808 -1.20783e-19)
(0.00487303 -0.0310619 0)
(0.0440084 -0.0294341 0)
(0.0785293 -0.0278706 0)
(0.113384 -0.026274 3.25202e-20)
(0.14313 -0.0244381 6.57001e-20)
(0.176145 -0.0222621 0)
(0.202745 -0.0195522 0)
(0.233748 -0.0164719 -6.74616e-20)
(0.257599 -0.0125565 -3.4002e-20)
(0.28559 -0.0085008 0)
(0.305674 -0.00365939 0)
(0.329918 0.00105677 0)
(0.345581 0.00627217 0)
(0.365914 0.0111295 0)
(0.377604 0.0161766 0)
(0.395059 0.0208782 0)
(0.404099 0.0257106 0)
(0.420065 0.0302685 0)
(0.427768 0.0349247 -1.3129e-22)
(0.44363 0.0394988 2.98955e-19)
(0.451394 0.0442652 0)
(0.468454 0.0491363 -6.10781e-19)
(0.477261 0.054182 -3.08603e-19)
(0.49667 0.0595532 0)
(0.507321 0.0651371 3.15283e-19)
(0.530603 0.0714037 -3.1823e-19)
(0.543965 0.0777844 6.40556e-19)
(0.572907 0.0853952 -6.42628e-19)
(0.590189 0.0928994 0)
(0.627262 0.102496 9.53391e-22)
(0.650266 0.111766 6.22386e-19)
(0.699457 0.124194 -1.19618e-18)
(0.730776 0.136151 -1.58886e-21)
(0.801458 0.153073 -4.85989e-19)
(0.838648 0.16773 3.6248e-19)
(0.97959 0.195921 2.61554e-19)
(0.895616 -0.0371665 -6.17499e-20)
(0.5251 0.0241163 0)
(0.292464 0.0183112 -6.69562e-22)
(0.0792787 0.0201633 -7.17032e-23)
(-0.00523362 0.0105307 5.83876e-19)
(-0.0431318 0.00772135 5.53407e-19)
(-0.0519722 0.000646293 0)
(-0.0700445 0.00558414 5.09857e-19)
(-0.0896317 0.0325455 0)
(-0.143502 0.0732025 -2.20563e-19)
(-0.206724 0.0979352 1.33055e-22)
(-0.27748 0.105532 -1.58364e-19)
(-0.352656 0.106171 0)
(-0.419649 0.0997615 -1.68211e-19)
(-0.462851 0.0834256 0)
(-0.479223 0.0584727 0)
(-0.461395 0.0255845 0)
(-0.413526 -0.00516812 9.46777e-20)
(-0.345018 -0.0273909 0)
(-0.27047 -0.0401335 1.66608e-19)
(-0.198467 -0.0442188 -1.95241e-19)
(-0.134716 -0.0434894 0)
(-0.0798813 -0.0410732 -3.15098e-23)
(-0.0323222 -0.038265 0)
(0.00880225 -0.0359167 0)
(0.046826 -0.033816 -6.3334e-20)
(0.0805106 -0.0319534 0)
(0.114796 -0.0301269 -6.50299e-20)
(0.144179 -0.0281363 -3.28448e-20)
(0.176935 -0.0258307 -8.28529e-21)
(0.203503 -0.0229559 8.35714e-21)
(0.234421 -0.0197571 3.37252e-20)
(0.258417 -0.0156027 6.79924e-20)
(0.286446 -0.0113592 0)
(0.306762 -0.00621614 6.90766e-20)
(0.331094 -0.00126399 0)
(0.347029 0.00426912 0)
(0.36747 0.00933905 0)
(0.37941 0.0146476 1.42545e-19)
(0.396942 0.0194809 0)
(0.406183 0.0245023 0)
(0.422202 0.0291124 2.92739e-19)
(0.430059 0.0338946 -2.95703e-19)
(0.445939 0.0384399 0)
(0.453776 0.0432884 0)
(0.470856 0.0480729 3.05258e-19)
(0.479737 0.0531954 3.08549e-19)
(0.499163 0.0584197 -3.11728e-19)
(0.509886 0.0640918 0)
(0.533195 0.0701386 0)
(0.546617 0.076641 0)
(0.575578 0.0839234 6.96446e-22)
(0.592927 0.0916164 0)
(0.630054 0.100751 6.35533e-19)
(0.653141 0.110204 0)
(0.702411 0.122009 5.96915e-19)
(0.733821 0.13422 -5.51281e-19)
(0.804537 0.150108 9.68608e-19)
(0.841885 0.164881 -3.6189e-19)
(0.981925 0.191333 -2.6097e-19)
(0.903483 -0.0232466 2.86389e-20)
(0.564274 0.0308122 -6.52419e-19)
(0.339595 0.0236487 -6.56352e-19)
(0.118477 0.0231028 -1.37427e-22)
(0.0154107 0.0117167 -5.83879e-19)
(-0.033376 0.00800044 -5.52791e-19)
(-0.0457081 0.000883629 0)
(-0.0672576 0.00679829 -5.09333e-19)
(-0.0893306 0.0356826 0)
(-0.139299 0.0773947 -2.21232e-19)
(-0.197293 0.102434 -1.92815e-19)
(-0.266626 0.110808 1.58205e-19)
(-0.340323 0.111391 -1.19982e-19)
(-0.40741 0.103866 8.37286e-20)
(-0.450662 0.0851527 -5.7295e-20)
(-0.466108 0.0572702 5.01331e-20)
(-0.449337 0.0212644 0)
(-0.401368 -0.0124311 0)
(-0.332317 -0.0362331 0)
(-0.257533 -0.049237 8.25895e-20)
(-0.18597 -0.0526425 9.75192e-20)
(-0.123501 -0.0507693 0)
(-0.0705064 -0.0472833 -1.15661e-19)
(-0.02494 -0.0435899 0)
(0.0143198 -0.0406559 0)
(0.0508128 -0.0380929 6.33342e-20)
(0.0833082 -0.0359511 -6.42327e-20)
(0.116749 -0.0339176 3.25104e-20)
(0.145574 -0.0317878 0)
(0.177932 -0.0293703 1.65675e-20)
(0.20435 -0.0263411 -1.67112e-20)
(0.235128 -0.0230355 0)
(0.259161 -0.0186532 -3.39909e-20)
(0.287191 -0.0142287 6.85183e-20)
(0.307624 -0.00879471 -6.9076e-20)
(0.331993 -0.00361387 0)
(0.348072 0.00222534 0)
(0.368565 0.007506 0)
(0.380646 0.0130662 -1.42543e-19)
(0.398222 0.0180297 0)
(0.407581 0.0232281 0)
(0.423638 0.0278912 -2.92731e-19)
(0.431597 0.0327825 0)
(0.447503 0.037307 2.98482e-19)
(0.455396 0.0421972 -3.01599e-19)
(0.472497 0.0469059 0)
(0.481445 0.0520154 3.08159e-19)
(0.500894 0.0571332 6.23193e-19)
(0.511699 0.0627198 -3.14491e-19)
(0.535019 0.0686553 0)
(0.548557 0.0749486 0)
(0.577542 0.0821507 3.21114e-19)
(0.595014 0.0896059 0)
(0.632169 0.0986151 6.33442e-19)
(0.6554 0.107805 0)
(0.704707 0.119431 5.93852e-19)
(0.736307 0.131242 5.47721e-19)
(0.806992 0.146853 -4.82803e-19)
(0.844554 0.161147 0)
(0.983745 0.186527 2.54272e-19)
(0.910533 -0.0103281 -5.30009e-20)
(0.599107 0.0374668 6.02705e-21)
(0.384698 0.0294682 6.54154e-19)
(0.159104 0.0267348 -2.20519e-22)
(0.0394539 0.0134203 -1.33841e-22)
(-0.0213392 0.00850755 0)
(-0.0381383 0.00118098 0)
(-0.0617619 0.00777432 0)
(-0.0854088 0.0381031 -2.40981e-19)
(-0.132134 0.0807827 4.42343e-19)
(-0.186754 0.106616 0)
(-0.254733 0.11589 1.57765e-19)
(-0.326707 0.116411 4.42367e-22)
(-0.393723 0.10785 -8.20486e-20)
(-0.437551 0.0868527 1.28123e-21)
(-0.452647 0.0560507 -5.01311e-20)
(-0.43665 0.016957 0)
(-0.388666 -0.0197432 0)
(-0.318885 -0.0451785 0)
(-0.243535 -0.0583901 -8.25802e-20)
(-0.17198 -0.0610509 0)
(-0.110352 -0.0579736 1.08101e-19)
(-0.0590029 -0.0533567 1.15598e-19)
(-0.0154765 -0.0487545 -1.20679e-19)
(0.0216506 -0.045235 0)
(0.0562229 -0.042223 0)
(0.087138 -0.0398286 6.42336e-20)
(0.119409 -0.037619 0)
(0.147435 -0.0353744 3.28106e-20)
(0.179227 -0.0328702 -8.28232e-21)
(0.205369 -0.0297021 8.35413e-21)
(0.235946 -0.0262998 -3.3691e-20)
(0.25994 -0.0216991 0)
(0.287944 -0.0170989 -6.85178e-20)
(0.308426 -0.0113795 0)
(0.3328 -0.00597168 0)
(0.348943 0.00016727 1.40226e-19)
(0.369448 0.00565514 0)
(0.381596 0.0114596 0)
(0.399183 0.0165519 0)
(0.4086 0.0219202 0)
(0.424675 0.0266319 0)
(0.432698 0.0316252 0)
(0.448628 0.0361234 -5.9682e-19)
(0.45656 0.0410571 3.01595e-19)
(0.473686 0.0456752 3.04732e-19)
(0.482682 0.0508037 -6.16126e-19)
(0.502174 0.0557771 -3.11485e-19)
(0.513031 0.0613912 3.14477e-19)
(0.536414 0.0671043 -3.17047e-19)
(0.549994 0.0735064 0)
(0.579053 0.0803766 3.29166e-22)
(0.596592 0.087873 -6.38297e-19)
(0.633843 0.0965053 -6.3334e-19)
(0.65716 0.105698 -6.17252e-19)
(0.706583 0.116847 -1.18605e-18)
(0.738288 0.128635 -5.47507e-19)
(0.80904 0.14358 4.78501e-19)
(0.846753 0.157608 3.55227e-19)
(0.985225 0.181794 -2.53989e-19)
(0.916925 0.00170561 -2.53629e-20)
(0.630075 0.0439946 6.46456e-19)
(0.427629 0.03561 -1.2883e-21)
(0.200609 0.0309997 -3.17144e-22)
(0.0664091 0.0157004 5.8367e-19)
(-0.00687828 0.0093093 5.51969e-19)
(-0.0293593 0.001576 -5.26519e-19)
(-0.054389 0.0086334 2.54654e-19)
(-0.0789407 0.0401588 -6.07093e-22)
(-0.123114 0.0837141 -2.211e-19)
(-0.175245 0.110571 -1.9277e-19)
(-0.24187 0.120749 -1.57681e-19)
(-0.312078 0.121239 2.38447e-19)
(-0.378833 0.111754 9.40119e-22)
(-0.423457 0.0885232 5.60022e-20)
(-0.438979 0.0548817 0)
(-0.423605 0.0126831 5.78643e-20)
(-0.375645 -0.0271013 0)
(-0.30503 -0.0542164 -1.26433e-19)
(-0.22889 -0.0676272 -8.18264e-20)
(-0.157027 -0.0694623 -9.70181e-20)
(-0.0958339 -0.0651032 -5.21524e-23)
(-0.0457686 -0.0592948 -1.15586e-19)
(-0.0041047 -0.0537545 1.2067e-19)
(0.0308553 -0.0496149 0)
(0.0632421 -0.0461667 -6.3283e-20)
(0.0921999 -0.0435458 0)
(0.122939 -0.0411976 0)
(0.149879 -0.0388702 -3.28111e-20)
(0.180897 -0.0363106 0)
(0.20662 -0.033027 0)
(0.236912 -0.0295442 3.36908e-20)
(0.260801 -0.0247373 0)
(0.28875 -0.0199659 0)
(0.309242 -0.013965 6.9014e-20)
(0.3336 -0.00832999 0)
(0.349761 -0.00189516 -1.40226e-19)
(0.37025 0.00379944 0)
(0.382417 0.00984326 1.42403e-19)
(0.399989 0.0150628 0)
(0.409425 0.0205944 0)
(0.425498 0.0253531 0)
(0.433554 0.0304409 0)
(0.449497 0.0349141 2.98342e-19)
(0.457457 0.0398833 0)
(0.474603 0.0444184 -6.09303e-19)
(0.483638 0.0495442 3.07974e-19)
(0.503168 0.0544014 -3.11088e-19)
(0.514081 0.0599642 3.14039e-19)
(0.537508 0.0655463 3.17043e-19)
(0.551171 0.0717884 0)
(0.58029 0.0785277 3.20073e-19)
(0.597916 0.0858939 9.57035e-19)
(0.635245 0.0943153 -6.31508e-19)
(0.65867 0.103352 6.17194e-19)
(0.708193 0.114201 5.92287e-19)
(0.740031 0.125753 0)
(0.810838 0.140232 -4.78366e-19)
(0.848697 0.153909 -7.08334e-19)
(0.9865 0.177047 0)
(0.922775 0.0129399 1.54611e-19)
(0.657597 0.0503424 0)
(0.468285 0.0419405 -1.45808e-21)
(0.242541 0.0358197 -4.22802e-22)
(0.0959106 0.0185857 -5.83849e-19)
(0.010012 0.0104753 -1.10344e-18)
(-0.0193401 0.00210334 1.05144e-18)
(-0.0456388 0.00941026 -2.54105e-19)
(-0.0708329 0.041919 2.40986e-19)
(-0.112744 0.0863517 0)
(-0.162839 0.114301 -1.41268e-22)
(-0.228067 0.125391 0)
(-0.296632 0.125903 -2.37408e-19)
(-0.362989 0.115624 8.10826e-20)
(-0.408408 0.0902 0)
(-0.42503 0.0537983 0)
(-0.410399 0.00846249 -5.78708e-20)
(-0.362519 -0.0344912 0)
(-0.290901 -0.0633349 1.26453e-19)
(-0.213866 -0.0769494 8.18295e-20)
(-0.14146 -0.0779255 1.56727e-22)
(-0.0804278 -0.0721636 -1.08032e-19)
(-0.0312815 -0.0651116 -1.15551e-19)
(0.00881323 -0.0585967 0)
(0.0417848 -0.0537788 0)
(0.0719318 -0.0498927 6.32814e-20)
(0.0986509 -0.0470627 0)
(0.127495 -0.0446156 3.2463e-20)
(0.153029 -0.0422456 -3.27833e-20)
(0.183024 -0.0396703 8.27193e-21)
(0.208157 -0.0363015 -8.34381e-21)
(0.238056 -0.0327586 3.36634e-20)
(0.26177 -0.027762 -3.39431e-20)
(0.289628 -0.0228267 6.84486e-20)
(0.3101 -0.0165488 -6.90136e-20)
(0.334428 -0.0106856 0)
(0.350581 -0.00395739 0)
(0.371036 0.00194475 0)
(0.383193 0.00822449 -4.68258e-23)
(0.400731 0.0135711 1.43548e-19)
(0.410158 0.0192613 0)
(0.426213 0.0240653 0)
(0.43428 0.0292428 0)
(0.450226 0.0336906 0)
(0.458201 0.0386927 0)
(0.475362 0.0431415 1.58671e-22)
(0.484428 0.0482647 0)
(0.503993 0.0529913 6.21986e-19)
(0.514951 0.0585292 -6.27868e-19)
(0.538433 0.0639307 -3.16555e-19)
(0.552148 0.0701699 0)
(0.581342 0.0766613 0)
(0.599043 0.0839531 -6.37172e-19)
(0.636466 0.0920943 8.65074e-22)
(0.659985 0.101018 -6.15156e-19)
(0.709622 0.111513 5.89725e-19)
(0.741577 0.122881 5.42931e-19)
(0.812455 0.136862 -4.7453e-19)
(0.850448 0.15017 7.04615e-19)
(0.987627 0.172318 2.4552e-19)
(0.928174 0.0234462 2.26815e-20)
(0.682021 0.0564618 -6.30326e-19)
(0.506608 0.0483521 -1.30092e-18)
(0.284539 0.0411156 -5.33432e-22)
(0.127604 0.0220728 5.83821e-19)
(0.0292959 0.0120735 5.51553e-19)
(-0.00799765 0.00280399 -2.62488e-19)
(-0.0358104 0.0101435 0)
(-0.0614396 0.0434764 0)
(-0.101312 0.0887328 2.21981e-19)
(-0.149595 0.117812 1.92584e-19)
(-0.213327 0.129826 0)
(-0.280421 0.130442 1.18425e-19)
(-0.34637 0.119479 0)
(-0.392488 0.0919206 0)
(-0.410653 0.0528243 0)
(-0.39712 0.0043216 0)
(-0.349536 -0.0418984 8.35011e-20)
(-0.276613 -0.0725643 6.18091e-20)
(-0.198588 -0.0863271 -8.10327e-20)
(-0.125572 -0.0864331 1.56726e-22)
(-0.0644364 -0.0791981 0)
(-0.0159822 -0.0708166 1.15547e-19)
(0.0228592 -0.0632936 0)
(0.0541244 -0.0577346 0)
(0.0821879 -0.0533865 6.3245e-20)
(0.106564 -0.0503458 -6.41456e-20)
(0.13321 -0.0478335 -3.24635e-20)
(0.157005 -0.0454656 3.2784e-20)
(0.185697 -0.0429224 -1.65401e-20)
(0.210039 -0.0395079 1.66838e-20)
(0.239412 -0.0359319 -3.36634e-20)
(0.262871 -0.0307665 3.39429e-20)
(0.290589 -0.0256771 -2.53847e-23)
(0.311015 -0.0191284 -6.89677e-20)
(0.335295 -0.0130367 0)
(0.351425 -0.00601708 0)
(0.371833 9.40846e-05 0)
(0.383963 0.00660708 -2.84665e-19)
(0.401453 0.0120815 -1.43548e-19)
(0.410855 0.0179261 0)
(0.426878 0.0227751 0)
(0.434942 0.0280376 -2.9494e-19)
(0.45088 0.0324607 0)
(0.458864 0.0374905 0)
(0.476032 0.0418551 6.08673e-19)
(0.485124 0.0469666 -3.07462e-19)
(0.504717 0.0515704 -6.21608e-19)
(0.515717 0.0570666 2.06517e-22)
(0.539246 0.0623097 6.32877e-19)
(0.553021 0.0684605 3.18126e-19)
(0.58228 0.074761 0)
(0.600052 0.0819617 3.18407e-19)
(0.637566 0.0898439 6.3063e-19)
(0.661176 0.0986393 6.15153e-19)
(0.710926 0.108796 -5.89717e-19)
(0.742993 0.11996 -5.42917e-19)
(0.813943 0.133461 4.74508e-19)
(0.852059 0.146396 -3.51402e-19)
(0.988645 0.167602 -2.45478e-19)
(0.933199 0.0332911 2.15182e-20)
(0.703659 0.0623235 6.30435e-19)
(0.542523 0.0547422 1.71866e-21)
(0.326236 0.0467861 -6.45168e-22)
(0.161171 0.0261407 0)
(0.0509015 0.0141531 0)
(0.00477507 0.00372548 6.21881e-23)
(-0.0250861 0.0108813 0)
(-0.0509688 0.0448579 0)
(-0.0889749 0.0908862 4.64867e-22)
(-0.135542 0.121118 0)
(-0.197643 0.134076 0)
(-0.263459 0.134861 1.17324e-19)
(-0.329017 0.123325 0)
(-0.37575 0.0937117 0)
(-0.395653 0.0519778 0)
(-0.383657 0.000285827 0)
(-0.336836 -0.0493155 -2.29968e-21)
(-0.262497 -0.081921 -6.18192e-20)
(-0.183056 -0.0957676 1.61667e-19)
(-0.109489 -0.0949636 1.5726e-22)
(-0.0481415 -0.0862101 1.07921e-19)
(-0.000165992 -0.0764457 0)
(0.0376662 -0.0678509 1.20619e-19)
(0.0675028 -0.0615006 0)
(0.0937527 -0.0566518 -6.32443e-20)
(0.115892 -0.0533778 2.35933e-23)
(0.140167 -0.0508165 0)
(0.161915 -0.0484934 0)
(0.189001 -0.0460367 4.28324e-24)
(0.212325 -0.0426245 -4.22284e-24)
(0.241018 -0.0390498 1.68161e-20)
(0.264124 -0.0337423 0)
(0.291646 -0.0285124 -6.84225e-20)
(0.311994 -0.021701 6.89674e-20)
(0.336208 -0.0153811 0)
(0.352302 -0.0080726 -1.40052e-19)
(0.372652 -0.00175068 0)
(0.384743 0.00499317 4.67362e-23)
(0.402175 0.0105964 0)
(0.411542 0.016592 1.44684e-19)
(0.427524 0.0214858 1.46017e-19)
(0.435576 0.0268291 1.20024e-22)
(0.451496 0.0312278 -2.97811e-19)
(0.459484 0.0362817 0)
(0.476652 0.0405617 -1.53182e-22)
(0.485766 0.0456588 3.07463e-19)
(0.505382 0.0501385 1.84812e-22)
(0.51642 0.0555908 3.13625e-19)
(0.539993 0.0606714 -2.31281e-22)
(0.553819 0.0667562 -2.57418e-22)
(0.583144 0.0728499 0)
(0.600984 0.07995 0)
(0.638584 0.0875751 0)
(0.662282 0.0962328 0)
(0.712141 0.106056 0)
(0.744316 0.117006 5.40167e-19)
(0.815334 0.130039 0)
(0.853561 0.142599 0)
(0.989579 0.162902 -2.40589e-19)
(0.937911 0.042538 -1.33497e-19)
(0.722799 0.0679112 0)
(0.575973 0.0610245 1.81067e-21)
(0.367358 0.0527457 -7.51303e-22)
(0.196333 0.030763 0)
(0.074775 0.0167455 2.75869e-19)
(0.0190861 0.00491934 -2.62186e-19)
(-0.0135606 0.0116601 0)
(-0.0395333 0.0460847 0)
(-0.0758239 0.0928373 -2.21949e-19)
(-0.120682 0.124232 0)
(-0.18103 0.138147 0)
(-0.245738 0.139159 -1.17298e-19)
(-0.310886 0.127157 0)
(-0.358129 0.0955768 -4.81405e-20)
(-0.379749 0.0512604 0)
(-0.369619 -0.00361771 0)
(-0.324208 -0.0567185 -2.4311e-21)
(-0.24898 -0.0913875 0)
(-0.167351 -0.105333 -8.06346e-20)
(-0.0931578 -0.103522 9.65692e-20)
(-0.0317466 -0.0931777 -2.15825e-19)
(0.0159659 -0.0820308 1.15551e-19)
(0.052936 -0.0722775 -1.2062e-19)
(0.0815826 -0.0651022 0)
(0.106293 -0.0597044 -6.32122e-20)
(0.126462 -0.0561595 1.28219e-19)
(0.14837 -0.0535415 0)
(0.16784 -0.0512943 -1.63683e-20)
(0.193021 -0.0489806 8.26407e-21)
(0.215076 -0.0456271 -8.33589e-21)
(0.242911 -0.0420962 -1.68162e-20)
(0.265556 -0.0366793 0)
(0.292812 -0.0313268 -6.83676e-20)
(0.313047 -0.0242634 6.89178e-20)
(0.337171 -0.017717 0)
(0.353216 -0.0101225 1.40052e-19)
(0.373497 -0.00358818 0)
(0.385541 0.00338406 1.42262e-19)
(0.402906 0.00911738 0)
(0.412231 0.0152605 -1.44684e-19)
(0.428163 0.0201994 -1.46017e-19)
(0.436198 0.0256193 1.18311e-22)
(0.452093 0.0299944 2.97812e-19)
(0.46008 0.0350681 0)
(0.477244 0.0392652 -3.04107e-19)
(0.486377 0.0443423 0)
(0.506011 0.0487006 3.10527e-19)
(0.517085 0.0541035 0)
(0.540696 0.0590242 -3.16092e-19)
(0.554574 0.0650326 -6.35492e-19)
(0.583957 0.0709252 0)
(0.601864 0.0779197 0)
(0.639546 0.0852908 0)
(0.663328 0.0938034 3.06153e-19)
(0.713292 0.103298 0)
(0.745569 0.114025 -1.32101e-21)
(0.816651 0.1266 0)
(0.854981 0.138784 3.46472e-19)
(0.990448 0.158217 2.40589e-19)
(0.942356 0.0512446 0)
(0.739716 0.0732204 6.17071e-19)
(0.606924 0.0671358 6.46369e-19)
(0.407703 0.0589248 -8.47822e-22)
(0.232768 0.0358793 0)
(0.100915 0.0198791 -2.75928e-19)
(0.0350495 0.00644659 0)
(-0.00126131 0.0125024 2.53365e-19)
(-0.027199 0.0471747 2.42247e-19)
(-0.0619161 0.0946048 2.22597e-19)
(-0.105032 0.127151 1.92821e-19)
(-0.163543 0.142044 1.56159e-19)
(-0.22718 0.143356 0)
(-0.291899 0.130955 0)
(-0.339435 0.097495 4.81195e-20)
(-0.362555 0.050646 0)
(-0.354408 -0.00737249 0)
(-0.311005 -0.0640648 -7.87244e-20)
(-0.236088 -0.100956 0)
(-0.151869 -0.115054 -7.97264e-20)
(-0.0765557 -0.112105 0)
(-0.0152237 -0.100118 1.07906e-19)
(0.0322086 -0.0875548 -1.15557e-19)
(0.0684506 -0.0765854 0)
(0.0960876 -0.0685629 0)
(0.119498 -0.0625762 1.5735e-23)
(0.138008 -0.0587052 -6.40992e-20)
(0.15773 -0.0560013 0)
(0.174818 -0.0538399 1.63685e-20)
(0.197827 -0.0517211 8.25512e-21)
(0.21835 -0.0484892 -8.32695e-21)
(0.245131 -0.0450526 0)
(0.267188 -0.0395659 0)
(0.294102 -0.0341135 2.92157e-23)
(0.31418 -0.0268116 -2.59933e-23)
(0.338188 -0.0200421 0)
(0.35417 -0.0121654 0)
(0.374369 -0.00541722 1.41055e-19)
(0.386359 0.0017807 0)
(0.403648 0.00764545 0)
(0.412927 0.0139325 0)
(0.428803 0.0189169 0)
(0.436815 0.0244093 2.94702e-19)
(0.45268 0.0287616 2.97557e-19)
(0.460664 0.0338512 0)
(0.477819 0.0379664 0)
(0.486968 0.0430195 3.0698e-19)
(0.506616 0.0472576 0)
(0.517724 0.0526066 0)
(0.541371 0.0573698 -3.15645e-19)
(0.555297 0.0632966 3.17622e-19)
(0.584736 0.0689905 0)
(0.602707 0.0758738 0)
(0.640466 0.0829937 0)
(0.664331 0.0913545 -3.06155e-19)
(0.714395 0.100524 2.92515e-19)
(0.746769 0.111022 -1.07644e-18)
(0.81791 0.123146 0)
(0.856333 0.134956 -3.4648e-19)
(0.991266 0.153548 -2.3612e-19)
(0.946571 0.0594638 0)
(0.754672 0.0782509 -6.17147e-19)
(0.635356 0.0730211 0)
(0.446929 0.0652031 -9.32555e-19)
(0.270203 0.0414386 0)
(0.129247 0.0235681 -2.76124e-19)
(0.0528218 0.00836285 0)
(0.0118232 0.0134346 -2.52954e-19)
(-0.0140178 0.0481437 -2.41848e-19)
(-0.0472949 0.0962035 -2.22381e-19)
(-0.0886285 0.129876 -1.92724e-19)
(-0.145232 0.145776 -1.56097e-19)
(-0.207716 0.147446 0)
(-0.271937 0.134701 0)
(-0.31943 0.0994246 0)
(-0.343684 0.0500921 0)
(-0.33747 -0.010981 0)
(-0.296434 -0.0712938 3.67204e-20)
(-0.223212 -0.110599 0)