/*--------------------------------*- C++ -*----------------------------------*\
| =========                 |                                                 |
| \\      /  F ield         | OpenFOAM: The Open Source CFD Toolbox           |
|  \\    /   O peration     | Version:  2.4.0                                 |
|   \\  /    A nd           | Web:      www.OpenFOAM.org                      |
|    \\/     M anipulation  |                                                 |
\*---------------------------------------------------------------------------*/
FoamFile
{
    version     2.0;
    format      ascii;
    class       volVectorField;
    location    "5.8";
    object      U;
}
// * * * * * * * * * * * * * * * * * * * * * * * * * * * * * * * * * * * * * //

dimensions      [0 1 -1 0 0 0 0];

internalField   nonuniform List<vector> 
6000
(
(0.165118 -0.00671286 1.30282e-18)
(-0.00974589 0.00185845 0)
(0.000828775 -0.00023425 7.24085e-18)
(-0.0066336 0.00128756 0)
(-0.00500562 0.000987383 0)
(-0.00607628 0.00113991 0)
(-0.00534352 0.000984032 4.01707e-18)
(-0.00550764 0.000961925 3.33607e-22)
(-0.00512451 0.000866331 0)
(-0.00512588 0.000821675 0)
(-0.00495199 0.000759628 3.91793e-18)
(-0.00498005 0.000722602 -7.76126e-18)
(-0.0049827 0.000686512 0)
(-0.00511716 0.000664236 0)
(-0.00528813 0.000647026 -1.88288e-18)
(-0.00555823 0.000636778 0)
(-0.00588678 0.000629775 0)
(-0.0062976 0.000624931 -1.83472e-18)
(-0.00677271 0.000619991 -1.82171e-18)
(-0.00731947 0.000613161 0)
(-0.00792807 0.000602556 1.80123e-18)
(-0.00859687 0.000586225 8.96998e-19)
(-0.00931606 0.000562363 -8.94455e-19)
(-0.010077 0.000529143 0)
(-0.0108661 0.000485075 0)
(-0.0116694 0.000428967 0)
(-0.0124704 0.000360066 4.4814e-19)
(-0.0132506 0.000277999 -4.50024e-19)
(-0.0139878 0.000182959 0)
(-0.0146573 7.57626e-05 0)
(-0.015231 -4.2026e-05 5.75212e-20)
(-0.0156785 -0.000168082 0)
(-0.0159672 -0.000299609 4.70972e-19)
(-0.0160626 -0.00043028 -4.77644e-19)
(-0.015929 -0.000550819 0)
(-0.0155293 -0.000659596 0)
(-0.0148291 -0.000747627 1.00545e-18)
(-0.0137916 -0.000805776 0)
(-0.0123867 -0.000823725 1.04671e-18)
(-0.0105779 -0.000790869 0)
(-0.00834865 -0.000695332 0)
(-0.00566849 -0.000526235 2.23282e-18)
(-0.00256492 -0.000272249 -4.56061e-18)
(0.000932734 7.30308e-05 0)
(0.00442007 0.000477031 0)
(0.00811735 0.000950065 2.41609e-18)
(0.0118486 0.00149543 0)
(0.0159511 0.00213192 0)
(0.0199049 0.00284124 -5.0056e-18)
(0.0245324 0.00367185 -5.03262e-18)
(0.0284694 0.00453853 -5.00995e-18)
(0.0339168 0.00561051 -1.8128e-21)
(0.0373013 0.00658818 4.84791e-18)
(0.0444608 0.0080328 0)
(0.0460778 0.008965 -2.99758e-21)
(0.0573015 0.0111769 -4.30672e-18)
(0.0543533 0.0115695 3.44412e-18)
(0.0754048 0.0157048 3.55919e-18)
(0.0625202 0.0145651 4.12479e-21)
(0.104479 0.0229659 0)
(0.360298 -0.0164518 -1.80933e-18)
(0.00301714 0.00650595 4.29247e-18)
(0.00549199 -0.000893736 -4.34254e-18)
(-0.0149552 0.00337576 -4.60637e-18)
(-0.0124293 0.0025791 0)
(-0.0157697 0.0030596 0)
(-0.0142801 0.00266484 -4.58605e-18)
(-0.0148761 0.00262487 9.08393e-18)
(-0.0140265 0.00238196 0)
(-0.0140901 0.002269 0)
(-0.0137022 0.00211318 -4.34675e-18)
(-0.0138055 0.00202069 4.28246e-18)
(-0.0138525 0.0019336 2.10923e-18)
(-0.0142311 0.00188237 0)
(-0.0147138 0.00184553 2.05124e-18)
(-0.0154515 0.00182688 0)
(-0.016346 0.00181674 0)
(-0.0174515 0.00181166 0)
(-0.0187226 0.00180543 0)
(-0.0201726 0.00179289 0)
(-0.0217739 0.00176866 -1.25718e-23)
(-0.0235171 0.00172716 0)
(-0.0253733 0.00166326 -9.5517e-19)
(-0.0273154 0.00157184 0)
(-0.0293049 0.00144884 0)
(-0.0313022 0.00129117 4.75433e-19)
(-0.0332624 0.00109697 -4.7624e-19)
(-0.0351356 0.000865332 -2.45967e-24)
(-0.036864 0.000596935 2.40165e-19)
(-0.038384 0.000294168 0)
(-0.0396254 -3.85009e-05 -6.0991e-20)
(-0.0405125 -0.000394385 -2.46566e-19)
(-0.0409653 -0.000764882 9.34077e-24)
(-0.0408993 -0.00113503 5.06395e-19)
(-0.0402293 -0.00148557 -5.14483e-19)
(-0.038867 -0.00180468 0)
(-0.0367272 -0.00206971 0)
(-0.033721 -0.00225674 0)
(-0.0297715 -0.00233832 0)
(-0.0247884 -0.00228603 0)
(-0.0187255 -0.00206713 -2.32195e-18)
(-0.0115117 -0.00165033 0)
(-0.00323746 -0.000998752 2.41887e-18)
(0.00591016 -8.06618e-05 2.46823e-18)
(0.0149658 0.00101509 0)
(0.0245376 0.00228449 0)
(0.0342127 0.00374257 0)
(0.0447191 0.00543084 0)
(0.0549181 0.00731287 5.4515e-18)
(0.0665962 0.00949268 0)
(0.0768167 0.0117881 0)
(0.0903139 0.0145682 -5.52139e-18)
(0.0994635 0.0171763 -5.41082e-18)
(0.116729 0.0208602 0)
(0.122324 0.0234431 -9.99278e-18)
(0.148475 0.028935 0)
(0.144732 0.0304493 -7.97348e-18)
(0.192385 0.0403333 -4.13806e-18)
(0.168105 0.0385933 1.68034e-18)
(0.262917 0.0575999 2.99311e-18)
(0.500824 -0.011366 -1.73808e-19)
(0.0412799 0.00906113 -4.25564e-18)
(0.0141238 -0.00129297 0)
(-0.0188704 0.00483412 4.61372e-18)
(-0.0175038 0.00374051 0)
(-0.0234468 0.00457155 0)
(-0.0218109 0.00403394 0)
(-0.0229981 0.00400784 -4.54751e-18)
(-0.0219365 0.00367194 0)
(-0.0221411 0.00351514 -4.41828e-18)
(-0.0216548 0.00330171 0)
(-0.0218676 0.0031754 0)
(-0.0220015 0.0030633 -2.11045e-18)
(-0.0226239 0.00300224 0)
(-0.0234133 0.00296505 0)
(-0.0245866 0.00295388 0)
(-0.0260037 0.00295558 0)
(-0.0277389 0.00296323 0)
(-0.0297245 0.00296758 0)
(-0.0319743 0.00295981 1.9432e-18)
(-0.0344438 0.00293133 -1.92885e-18)
(-0.0371124 0.00287285 0)
(-0.0399312 0.00277601 7.0861e-24)
(-0.0428531 0.00263256 -9.50877e-19)
(-0.0458144 0.00243616 0)
(-0.04875 0.00218224 -9.48969e-19)
(-0.0515869 0.00186819 0)
(-0.0542451 0.00149292 4.76611e-19)
(-0.0566342 0.00105789 -2.3945e-19)
(-0.0586561 0.000567369 0)
(-0.0602039 2.90174e-05 0)
(-0.0611649 -0.000545818 2.45498e-19)
(-0.0614212 -0.00114218 -4.34068e-24)
(-0.0608506 -0.00173908 0)
(-0.0593322 -0.00231323 1.02198e-18)
(-0.0567433 -0.00283711 0)
(-0.052968 -0.00327788 1.05685e-18)
(-0.0478889 -0.00360023 0)
(-0.0414097 -0.00376348 0)
(-0.0334253 -0.00372637 0)
(-0.0239042 -0.00344027 2.27338e-18)
(-0.0128055 -0.002858 0)
(-0.000352913 -0.00191824 0)
(0.0131268 -0.000563559 -2.37537e-18)
(0.0267083 0.00109735 0)
(0.0412028 0.00302766 0)
(0.0560109 0.00526567 2.58041e-18)
(0.0720529 0.00785014 -2.63756e-18)
(0.0878037 0.0107595 -2.68051e-18)
(0.105605 0.0140855 0)
(0.121586 0.0176628 0)
(0.14198 0.0218596 0)
(0.156765 0.0259971 5.36848e-18)
(0.182371 0.0314422 5.32075e-18)
(0.192746 0.0357601 4.98024e-18)
(0.230504 0.0435981 0)
(0.228912 0.0469102 3.98526e-18)
(0.296126 0.0603951 8.28738e-18)
(0.267797 0.0599961 0)
(0.401993 0.0847007 -3.01159e-18)
(0.605049 0.000253634 -1.44286e-19)
(0.0969952 0.0110045 4.13106e-18)
(0.0279023 -0.00122744 -4.33096e-18)
(-0.0183261 0.00584382 0)
(-0.0200989 0.00456415 0)
(-0.029045 0.00577072 0)
(-0.0278659 0.00514171 0)
(-0.0298306 0.00516527 0)
(-0.0288088 0.00476932 0)
(-0.0292448 0.00459474 4.42107e-18)
(-0.0287744 0.00434558 4.35161e-18)
(-0.0291345 0.00420531 0)
(-0.0293953 0.00408571 0)
(-0.0302593 0.00403108 0)
(-0.0313448 0.00400813 2.05122e-18)
(-0.0329152 0.00401758 0)
(-0.0348017 0.00404264 1.99983e-18)
(-0.0370892 0.00407313 -1.97751e-18)
(-0.0396921 0.00409668 0)
(-0.042619 0.00410098 -1.93997e-18)
(-0.0458086 0.00407418 0)
(-0.0492258 0.00400336 -9.56152e-19)
(-0.0528012 0.00387709 1.9024e-18)
(-0.0564661 0.00368419 9.47596e-19)
(-0.060132 0.00341642 0)
(-0.0637088 0.00306831 4.72297e-19)
(-0.0670975 0.00263697 0)
(-0.0701912 0.00212151 4.73741e-19)
(-0.0728717 0.00152456 0)
(-0.0750129 0.00085252 0)
(-0.0764809 0.00011631 0)
(-0.0771373 -0.00066834 2.43069e-19)
(-0.0768397 -0.0014809 -9.82427e-19)
(-0.0754459 -0.00229462 0)
(-0.0728183 -0.00307907 -5.03386e-19)
(-0.0688221 -0.00379785 0)
(-0.0633357 -0.00440945 -1.03599e-18)
(-0.056243 -0.00486983 0)
(-0.0474606 -0.0051286 0)
(-0.0369083 -0.00513519 0)
(-0.024605 -0.0048295 2.18997e-18)
(-0.0105752 -0.00415076 0)
(0.00484626 -0.003019 2.22039e-18)
(0.0213679 -0.00136455 -2.24642e-18)
(0.0384614 0.000700664 0)
(0.0569019 0.00312671 -2.40097e-18)
(0.0759782 0.0059801 -4.94784e-18)
(0.096669 0.00929676 2.54221e-18)
(0.117246 0.0130715 5.18942e-18)
(0.140279 0.0173697 -5.28173e-18)
(0.161461 0.0220682 -5.32007e-18)
(0.187688 0.027466 0)
(0.207861 0.0329907 -5.27717e-18)
(0.240225 0.0398664 -5.24724e-18)
(0.255865 0.0458642 -4.90823e-18)
(0.302317 0.0554223 0)
(0.305113 0.0607213 0)
(0.385714 0.0764396 -4.11726e-18)
(0.359212 0.0782071 0)
(0.520362 0.10535 2.94475e-18)
(0.684215 0.0143671 -1.25456e-19)
(0.16288 0.0131477 -3.18917e-20)
(0.0478683 -0.00060773 4.30504e-18)
(-0.0132765 0.00653906 4.60715e-18)
(-0.0200954 0.00513276 0)
(-0.0325177 0.00670564 -4.64568e-18)
(-0.0323854 0.00602117 0)
(-0.0353442 0.00612026 0)
(-0.0346088 0.00569107 0)
(-0.035379 0.00551984 4.42203e-18)
(-0.035035 0.00525426 -4.35253e-18)
(-0.0355842 0.00511682 0)
(-0.0360076 0.0050048 0)
(-0.0371096 0.00497013 0)
(-0.0384742 0.00497323 -2.04978e-18)
(-0.0403967 0.00501342 0)
(-0.0426892 0.00507012 -1.99694e-18)
(-0.0454397 0.00512997 1.97375e-18)
(-0.0485465 0.00517745 0)
(-0.052009 0.00519688 0)
(-0.0557482 0.00517319 9.5884e-19)
(-0.0597122 0.0050901 9.519e-19)
(-0.0638102 0.00493329 -1.89233e-18)
(-0.0679519 0.00468915 -9.41695e-19)
(-0.0720257 0.00434815 0)
(-0.0759193 0.00390455 4.68356e-19)
(-0.079512 0.00335586 0)
(-0.0826762 0.00270197 -4.68605e-19)
(-0.0852746 0.00194717 2.34877e-19)
(-0.0871645 0.00110035 0)
(-0.0881983 0.000175813 0)
(-0.0882276 -0.000806522 -4.77513e-19)
(-0.0871045 -0.00182108 4.81317e-19)
(-0.0846878 -0.00283624 0)
(-0.0808432 -0.00381486 -4.90439e-19)
(-0.0754453 -0.0047149 0)
(-0.0683874 -0.00548845 1.00247e-18)
(-0.0595739 -0.00608538 0)
(-0.0489487 -0.00644882 0)
(-0.0364645 -0.00652138 0)
(-0.0221811 -0.00623448 -2.08211e-18)
(-0.00615929 -0.0055146 -2.08891e-18)
(0.0112398 -0.00426956 -2.08983e-18)
(0.0298684 -0.00243116 1.15689e-21)
(0.0495696 -0.000109148 -2.17871e-18)
(0.0709856 0.00265105 2.25802e-18)
(0.0933792 0.00594207 4.66395e-18)
(0.117736 0.00980512 0)
(0.142281 0.014253 -2.46611e-18)
(0.169614 0.0193301 5.04475e-18)
(0.195333 0.0249611 5.10415e-18)
(0.226444 0.0313559 0)
(0.251639 0.0380964 0)
(0.289524 0.0461422 0)
(0.310603 0.0536983 4.79155e-18)
(0.363592 0.0645308 0)
(0.372137 0.0718464 0)
(0.461579 0.0888372 4.03177e-18)
(0.440739 0.0931396 -1.61169e-18)
(0.619014 0.120533 -2.91591e-18)
(0.745566 0.0291101 -1.12209e-19)
(0.23342 0.0160016 -3.9573e-18)
(0.074573 0.000579306 0)
(-0.00364488 0.00707727 -4.59712e-18)
(-0.0173819 0.00552741 -4.62113e-18)
(-0.0338153 0.007424 5.12911e-22)
(-0.0353117 0.00670581 0)
(-0.039511 0.0068968 0)
(-0.0393049 0.00645465 0)
(-0.0405248 0.0063033 -4.42267e-18)
(-0.040415 0.00603719 0)
(-0.0411989 0.00591612 0)
(-0.0418167 0.00582404 2.10908e-18)
(-0.0431512 0.00581991 0)
(-0.0447716 0.00585796 0)
(-0.0469944 0.00593582 0)
(-0.0496191 0.00602903 0)
(-0.0527311 0.00612103 -1.96759e-18)
(-0.0562138 0.00619315 0)
(-0.0600536 0.00622651 1.92461e-18)
(-0.0641539 0.00620301 -9.53178e-19)
(-0.0684444 0.00610339 -9.45105e-19)
(-0.072815 0.00591096 1.87638e-18)
(-0.0771559 0.00561034 1.86483e-18)
(-0.0813373 0.0051915 0)
(-0.0852312 0.00464933 -4.62213e-19)
(-0.0887037 0.00398244 0)
(-0.0916171 0.00319215 0)
(-0.0938277 0.00228485 -4.60769e-19)
(-0.0951899 0.00127216 0)
(-0.0955579 0.000171651 0)
(-0.094789 -0.000993035 4.64801e-19)
(-0.0927464 -0.00219239 0)
(-0.0893009 -0.00339074 0)
(-0.0843319 -0.00454669 4.72909e-19)
(-0.0777302 -0.00561423 0)
(-0.0694064 -0.00654127 -9.60038e-19)
(-0.0592829 -0.00727354 0)
(-0.0473221 -0.00774968 0)
(-0.0334934 -0.00790667 0)
(-0.0178711 -0.00766859 0)
(-0.000518386 -0.00694958 1.96758e-18)
(0.0182341 -0.00565092 1.96275e-18)
(0.038381 -0.00371527 1.19588e-21)
(0.0599865 -0.00124861 2.03981e-18)
(0.083559 0.00171868 2.10805e-18)
(0.108386 0.00529562 -2.17926e-18)
(0.135436 0.00953279 0)
(0.162999 0.0144586 -2.30771e-18)
(0.193615 0.0201092 2.36666e-18)
(0.223015 0.0264537 -4.80456e-18)
(0.258015 0.0336266 0)
(0.287627 0.0413653 0)
(0.329981 0.0503473 -4.85933e-18)
(0.356322 0.0592739 -4.58686e-18)
(0.414346 0.0710649 4.57364e-18)
(0.429236 0.0802954 3.73584e-18)
(0.524535 0.097942 -3.93402e-18)
(0.511424 0.104834 1.57923e-18)
(0.699766 0.131132 0)
(0.793858 0.0436841 -1.01239e-19)
(0.304745 0.0197911 0)
(0.107937 0.00233723 4.23238e-18)
(0.0106902 0.0076193 4.58081e-18)
(-0.0118564 0.00582625 -6.12758e-23)
(-0.0328792 0.00797312 4.64502e-18)
(-0.0365848 0.0072292 0)
(-0.0423001 0.00751924 0)
(-0.0428657 0.00707763 0)
(-0.0446633 0.00695836 2.21097e-18)
(-0.0448943 0.00670377 2.1754e-18)
(-0.0459622 0.00660934 0)
(-0.0468033 0.00654648 -2.10732e-18)
(-0.0483629 0.00658043 2.0747e-18)
(-0.0502098 0.00665924 0)
(-0.0526748 0.00677845 0)
(-0.0555491 0.00690961 0)
(-0.0589116 0.00703293 5.42513e-23)
(-0.062632 0.00712669 0)
(-0.0666823 0.00716913 -3.82176e-18)
(-0.0709498 0.00713956 9.44898e-19)
(-0.0753483 0.00701633 9.35378e-19)
(-0.0797528 0.00678116 -3.06089e-23)
(-0.0840404 0.00641778 -9.19315e-19)
(-0.0880719 0.00591661 0)
(-0.0917129 0.00527391 0)
(-0.0948274 0.00449005 0)
(-0.0972789 0.00356812 2.24997e-19)
(-0.0989281 0.00251672 4.48986e-19)
(-0.0996374 0.00134993 0)
(-0.0992716 8.80238e-05 0)
(-0.0977009 -0.00124254 -4.49108e-19)
(-0.0948027 -0.00260949 -2.24939e-19)
(-0.0904591 -0.00397465 0)
(-0.0845613 -0.00529394 0)
(-0.0770118 -0.00651853 0)
(-0.0677315 -0.00759343 0)
(-0.0566515 -0.00846117 0)
(-0.0437413 -0.00905669 0)
(-0.0289743 -0.00931156 0)
(-0.0124234 -0.00914304 0)
(0.00586065 -0.00845386 0)
(0.0255998 -0.00714339 -9.58691e-22)
(0.0468926 -0.00517083 1.8657e-18)
(0.0699 -0.00263856 0)
(0.0950257 0.000445348 -3.94641e-18)
(0.1216 0.00419669 -2.03197e-18)
(0.150557 0.00867548 0)
(0.180298 0.0139192 2.15067e-18)
(0.213261 0.0199649 -2.206e-18)
(0.245429 0.0268138 4.48369e-18)
(0.283309 0.0345509 -4.55585e-18)
(0.316494 0.0430426 0)
(0.362279 0.0527307 8.97484e-21)
(0.393296 0.0627709 4.3375e-18)
(0.455173 0.0752698 -8.68298e-18)
(0.476321 0.0861864 -1.31687e-20)
(0.575587 0.104113 -3.74957e-18)
(0.570938 0.113414 1.49561e-18)
(0.764587 0.137896 2.70772e-18)
(0.832278 0.057654 3.12189e-18)
(0.374273 0.0245424 0)
(0.147318 0.00468385 2.61607e-21)
(0.029865 0.0082876 -2.75818e-22)
(-0.00342206 0.00613228 4.608e-18)
(-0.0296385 0.00840134 4.64134e-18)
(-0.0361404 0.00762621 0)
(-0.0436744 0.00801296 4.55292e-18)
(-0.0452575 0.00757838 0)
(-0.0477733 0.00749899 -2.21044e-18)
(-0.0484526 0.00726384 -9.44387e-23)
(-0.049858 0.00720303 -2.13972e-18)
(-0.0509494 0.00717537 0)
(-0.0527253 0.00725185 -4.14154e-18)
(-0.0547654 0.00737407 0)
(-0.0574102 0.00753516 0)
(-0.0604469 0.00770257 0)
(-0.0639463 0.00785339 1.94617e-18)
(-0.0677671 0.00796316 0)
(-0.0718687 0.00800775 1.89241e-18)
(-0.0761268 0.00796455 -1.86796e-18)
(-0.0804449 0.0078104 0)
(-0.0846903 0.00752625 -3.29602e-23)
(-0.0887358 0.00709584 0)
(-0.0924414 0.00651069 0)
(-0.0956755 0.00576897 -4.43448e-19)
(-0.0983074 0.0048729 0)
(-0.100208 0.00382726 -4.37649e-19)
(-0.101248 0.00264245 -2.17793e-19)
(-0.101301 0.00133443 -5.42522e-20)
(-0.100242 -7.46073e-05 5.41302e-20)
(-0.0979531 -0.00155636 2.16198e-19)
(-0.0943214 -0.00307684 4.32113e-19)
(-0.0892359 -0.00459636 0)
(-0.0825954 -0.00606885 4.33055e-19)
(-0.0743084 -0.00744327 0)
(-0.0643007 -0.00866225 0)
(-0.0525064 -0.00966541 0)
(-0.0388965 -0.0103843 8.77232e-19)
(-0.0234429 -0.0107451 0)
(-0.00621136 -0.0106589 0)
(0.0127652 -0.0100188 1.76135e-18)
(0.0332652 -0.00872567 -1.75931e-18)
(0.0554527 -0.00675739 0)
(0.0795103 -0.00421292 0)
(0.105766 -0.00107438 1.85716e-18)
(0.133599 0.00277421 1.90641e-18)
(0.163897 0.00740154 -1.95568e-18)
(0.195182 0.0128473 0)
(0.229773 0.0191548 0)
(0.263935 0.0263419 0)
(0.30383 0.0344684 7.2628e-21)
(0.339721 0.0434882 0)
(0.387966 0.0536778 4.25451e-18)
(0.422808 0.0645475 0)
(0.487485 0.0775421 4.06489e-18)
(0.514238 0.0898158 -3.35103e-18)
(0.616151 0.107796 7.08297e-18)
(0.619716 0.119133 -1.42432e-18)
(0.815545 0.141537 -2.58462e-18)
(0.863048 0.0707572 8.43632e-20)
(0.440365 0.0301549 -3.63945e-18)
(0.191682 0.00764185 -4.12716e-18)
(0.0538931 0.00919379 -1.83176e-22)
(0.0080956 0.00653624 -4.59566e-18)
(-0.0240107 0.00875892 -4.63636e-18)
(-0.0339084 0.00793309 0)
(-0.0435889 0.00840394 -4.55117e-18)
(-0.0464421 0.00797586 0)
(-0.0498301 0.00793962 -2.20926e-18)
(-0.0510681 0.00772761 -2.17286e-18)
(-0.0528697 0.00770406 2.13737e-18)
(-0.0542384 0.00771429 -2.10086e-18)
(-0.0562227 0.00783472 2.06543e-18)
(-0.0584214 0.0080001 -2.0301e-18)
(-0.0611844 0.00820098 1.99586e-18)
(-0.064299 0.00840066 0)
(-0.0678302 0.00857348 0)
(-0.0716299 0.00869267 0)
(-0.0756498 0.00873252 9.34792e-19)
(-0.0797601 0.00866924 9.208e-19)
(-0.0838607 0.00847896 0)
(-0.0878187 0.00814257 -8.9537e-19)
(-0.0915092 0.00764434 0)
(-0.0947975 0.00697718 0)
(-0.0975588 0.00614114 4.32305e-19)
(-0.0996707 0.00514005 -4.28227e-19)
(-0.101013 0.00397999 2.12388e-19)
(-0.101466 0.00267257 0)
(-0.100911 0.00123505 1.04884e-19)
(-0.0992329 -0.000309083 -1.04443e-19)
(-0.096322 -0.00193037 0)
(-0.092069 -0.00359386 -2.07659e-19)
(-0.0863681 -0.00525858 4.14847e-19)
(-0.0791226 -0.00687681 -4.15049e-19)
(-0.0702442 -0.00839555 0)
(-0.0596608 -0.00975528 0)
(-0.0473074 -0.0108928 0)
(-0.0331544 -0.0117364 -8.37896e-19)
(-0.0171705 -0.0122072 0)
(0.000587412 -0.012211 0)
(0.020106 -0.0116333 -1.68225e-18)
(0.0412153 -0.0103789 0)
(0.0641168 -0.00844319 1.68963e-18)
(0.0889739 -0.00592158 -1.71989e-18)
(0.116064 -0.00277012 0)
(0.144811 0.0011235 1.79689e-18)
(0.176058 0.00583598 3.678e-18)
(0.208438 0.0114038 -1.87451e-18)
(0.244147 0.0178802 0)
(0.279723 0.0252853 0)
(0.320989 0.0336732 1.97085e-18)
(0.358855 0.0430438 0)
(0.408778 0.0535753 3.93264e-18)
(0.446577 0.0650178 0)
(0.513157 0.0783391 3.75666e-18)
(0.544572 0.0916105 3.09813e-18)
(0.648116 0.109507 -3.30412e-18)
(0.658998 0.122402 0)
(0.854965 0.14275 2.39678e-18)
(0.887776 0.0828591 -3.37284e-18)
(0.502048 0.0364608 2.00252e-20)
(0.239786 0.0112223 4.07281e-18)
(0.0826694 0.0104481 -1.62701e-22)
(0.0228805 0.00710491 -6.62188e-22)
(-0.0158988 0.0090983 0)
(-0.029813 0.00818754 0)
(-0.0419897 0.00871861 0)
(-0.0463761 0.00828959 -2.24058e-18)
(-0.0508038 0.00829501 4.4155e-18)
(-0.0527169 0.00810572 0)
(-0.0549802 0.00811976 2.13408e-18)
(-0.0566561 0.00816737 6.45219e-23)
(-0.0588446 0.00833049 -2.05851e-18)
(-0.0611712 0.00853642 5.91019e-23)
(-0.0639981 0.00877325 -1.98361e-18)
(-0.0671184 0.00900016 0)
(-0.0705954 0.00918926 0)
(-0.0742803 0.00931206 0)
(-0.0781223 0.00934195 -9.21916e-19)
(-0.0819925 0.00925455 0)
(-0.0857923 0.00902588 8.9129e-19)
(-0.0893933 0.0086371 8.77401e-19)
(-0.0926766 0.00807314 -8.64551e-19)
(-0.0955146 0.00732823 0)
(-0.0977905 0.00640402 0)
(-0.0993897 0.00530561 4.16428e-19)
(-0.1002 0.00403988 0)
(-0.100107 0.00261929 2.04412e-19)
(-0.099002 0.00106197 -5.0753e-20)
(-0.0967748 -0.000607736 5.04589e-20)
(-0.0933195 -0.00235965 -2.00789e-19)
(-0.0885298 -0.0041581 0)
(-0.0823036 -0.00596092 -3.9947e-19)
(-0.0745473 -0.00771885 0)
(-0.0651747 -0.00937711 0)
(-0.0541149 -0.0108741 8.00029e-19)
(-0.041303 -0.012144 0)
(-0.0267082 -0.0131121 0)
(-0.0102957 -0.0136947 0)
(0.00788698 -0.0137933 0)
(0.0278456 -0.013288 0)
(0.0494543 -0.0120883 0)
(0.0729324 -0.0102046 -3.24738e-18)
(0.0984052 -0.00772848 1.64782e-18)
(0.126115 -0.00459196 1.67655e-18)
(0.155534 -0.000688501 -3.41615e-18)
(0.187453 0.00406615 -1.74142e-18)
(0.22061 0.00970146 1.76964e-18)
(0.257084 0.0162831 -1.7964e-18)
(0.293658 0.0238223 0)
(0.33584 0.0323821 3.34478e-21)
(0.375131 0.0419737 -3.6326e-18)
(0.426157 0.052732 -3.65783e-18)
(0.466178 0.0645429 -3.45967e-18)
(0.533972 0.0780673 -6.95881e-18)
(0.569092 0.0920112 -2.87594e-18)
(0.673495 0.109746 3.03708e-18)
(0.690513 0.12371 1.19853e-18)
(0.885318 0.142186 -2.23061e-18)
(0.907674 0.0939165 -7.31295e-20)
(0.55881 0.0432674 3.49989e-18)
(0.290333 0.0154125 2.24713e-21)
(0.115929 0.012133 -2.02819e-22)
(0.0411129 0.00790674 4.55487e-18)
(-0.00519451 0.00947262 4.61589e-18)
(-0.023773 0.00842877 -4.5844e-18)
(-0.0388136 0.00898389 2.2718e-18)
(-0.0450099 0.00853981 4.44333e-23)
(-0.0506598 0.00858046 -2.20573e-18)
(-0.0533724 0.00840938 -2.16792e-18)
(-0.0561721 0.00845813 -2.13014e-18)
(-0.0581916 0.00853976 4.18053e-18)
(-0.060588 0.00874208 5.53813e-23)
(-0.0630213 0.00898435 2.0097e-18)
(-0.0658714 0.00925246 0)
(-0.0689439 0.00950159 1.92948e-18)
(-0.0723058 0.00970216 0)
(-0.0758132 0.00982431 -1.85279e-18)
(-0.0794178 0.00984113 -9.08286e-19)
(-0.0829953 0.00972795 -8.91042e-19)
(-0.0864522 0.00946093 -3.26671e-23)
(-0.0896665 0.00902154 -8.5962e-19)
(-0.0925265 0.00839535 8.45571e-19)
(-0.094912 0.00757763 0)
(-0.0967131 0.00657139 -4.10542e-19)
(-0.097822 0.0053826 0)
(-0.0981323 0.00401872 0)
(-0.0975366 0.00249273 -1.98541e-19)
(-0.0959291 0.000823401 0)
(-0.093206 -0.000964327 0)
(-0.089263 -0.00283985 1.94405e-19)
(-0.0839964 -0.00476676 0)
(-0.0773073 -0.00670175 0)
(-0.0691045 -0.00859415 3.85599e-19)
(-0.0593033 -0.0103875 0)
(-0.0478338 -0.0120182 -7.72505e-19)
(-0.0346311 -0.0134179 0)
(-0.0196633 -0.0145092 7.76149e-19)
(-0.00289228 -0.0152042 0)
(0.0156441 -0.0154007 0)
(0.0359685 -0.0149751 0)
(0.0579915 -0.0138422 0)
(0.0819375 -0.0120242 1.56851e-18)
(0.107887 -0.00960788 0)
(0.136059 -0.00650492 -3.21968e-18)
(0.165968 -0.00261547 1.63448e-18)
(0.19836 0.00215198 -1.65793e-18)
(0.232067 0.00781738 1.67839e-18)
(0.269057 0.0144603 1.70181e-18)
(0.306331 0.0220751 0)
(0.349111 0.0307446 1.72371e-18)
(0.389421 0.0404647 5.10569e-18)
(0.441148 0.0513694 -3.40226e-18)
(0.482821 0.0633955 3.22483e-18)
(0.551335 0.0770378 3.22938e-18)
(0.589334 0.0913899 0)
(0.694046 0.108928 -2.81485e-18)
(0.71603 0.123527 -2.20569e-18)
(0.908894 0.140386 0)
(0.92368 0.103942 3.6e-18)
(0.610452 0.0503841 0)
(0.342088 0.0201717 2.03053e-21)
(0.153242 0.0143053 -2.83246e-22)
(0.0629374 0.00900288 -4.52832e-18)
(0.00822412 0.00994076 -9.20236e-18)
(-0.0157016 0.00869762 9.1557e-18)
(-0.0339878 0.00922725 -2.26917e-18)
(-0.0422875 0.00874764 2.2365e-18)
(-0.0493574 0.00881196 0)
(-0.0530057 0.00865062 4.38719e-23)
(-0.0564281 0.00872819 0)
(-0.0588378 0.00883798 -4.16712e-18)
(-0.0614576 0.00907431 2.04104e-18)
(-0.0639899 0.0093477 0)
(-0.0668399 0.00964231 0)
(-0.069832 0.0099092 -1.91111e-18)
(-0.0730426 0.0101176 0)
(-0.0763371 0.0102364 1.8285e-18)
(-0.079673 0.0102386 8.94798e-19)
(-0.0829332 0.0100995 2.93037e-23)
(-0.0860305 0.00979536 -8.58953e-19)
(-0.0888505 0.00930791 -8.42722e-19)
(-0.0912885 0.00862321 0)
(-0.0932311 0.00773739 0)
(-0.0945749 0.00665452 4.0096e-19)
(-0.0952173 0.00538128 0)
(-0.0950571 0.00392544 1.95356e-19)
(-0.0939915 0.0023004 -1.93321e-19)
(-0.0919189 0.000525431 4.79084e-20)
(-0.088739 -0.00137419 -4.752e-20)
(-0.0843488 -0.00336752 1.88838e-19)
(-0.0786475 -0.00541739 -1.87935e-19)
(-0.0715389 -0.00747936 3.74694e-19)
(-0.0629342 -0.00950147 -3.74186e-19)
(-0.05275 -0.0114256 0)
(-0.0409175 -0.0131865 0)
(-0.0273719 -0.0147132 0)
(-0.0120803 -0.0159259 -2.1193e-22)
(0.00499838 -0.0167328 7.54524e-19)
(0.0238359 -0.0170292 0)
(0.0444688 -0.0166889 0)
(0.0668374 -0.0156319 0)
(0.0911624 -0.0138886 0)
(0.117481 -0.0115411 0)
(0.145994 -0.00848409 1.07936e-21)
(0.176257 -0.00462494 0)
(0.208975 0.000134937 3.18214e-18)
(0.243061 0.00580433 -3.21089e-18)
(0.280385 0.0124777 -1.61901e-18)
(0.31814 0.0201271 0)
(0.361293 0.0288625 0)
(0.402324 0.0386452 -3.20513e-18)
(0.45447 0.0496395 7.73463e-21)
(0.497365 0.061769 -3.00437e-18)
(0.566257 0.0754715 2.99606e-18)
(0.606478 0.0900289 2.44964e-18)
(0.711128 0.107361 -2.58641e-18)
(0.737066 0.122243 2.01347e-18)
(0.927561 0.137757 1.86834e-18)
(0.936534 0.112982 6.54435e-20)
(0.656987 0.0576366 -3.35821e-18)
(0.39394 0.0254332 -7.79909e-18)
(0.194031 0.0169971 -3.9417e-22)
(0.0884209 0.0104472 4.49582e-18)
(0.0244957 0.0105604 4.58121e-18)
(-0.00550709 0.00903849 -2.28355e-18)
(-0.0274288 0.00947671 0)
(-0.0381453 0.00893522 0)
(-0.0468496 0.0090063 2.20028e-18)
(-0.0515839 0.00884246 2.16107e-18)
(-0.0557296 0.00894013 0)
(-0.0585895 0.00907001 2.0764e-18)
(-0.061463 0.00933381 0)
(-0.0641024 0.00963247 0)
(-0.0669468 0.00994887 0)
(-0.0698451 0.0102297 0)
(-0.0728883 0.0104431 1.84809e-18)
(-0.0759544 0.0105568 9.025e-19)
(-0.0790093 0.0105439 -8.81943e-19)
(-0.0819442 0.0103793 2.84746e-23)
(-0.0846793 0.0100395 0)
(-0.0871078 0.00950658 8.27332e-19)
(-0.0891319 0.00876678 0)
(-0.0906447 0.00781694 0)
(-0.0915483 0.00666203 3.92386e-19)
(-0.091745 0.00530924 -3.86736e-19)
(-0.0911378 0.00376659 -1.90923e-19)
(-0.089628 0.00204778 1.88823e-19)
(-0.0871176 0.000172467 -9.35209e-20)
(-0.0835091 -0.00183392 9.26983e-20)
(-0.0787007 -0.00394009 -1.84121e-19)
(-0.072595 -0.00610806 1.83173e-19)
(-0.0650981 -0.00829233 -6.62442e-23)
(-0.0561234 -0.0104397 -3.64372e-19)
(-0.0455892 -0.0124906 0)
(-0.0334278 -0.014378 0)
(-0.0195746 -0.0160286 0)
(-0.00399586 -0.0173605 -1.46581e-18)
(0.0133518 -0.0182784 -7.34667e-19)
(0.0324496 -0.0186756 0)
(0.0533446 -0.0184246 0)
(0.0760012 -0.0174501 -1.4761e-18)
(0.100631 -0.0157875 0)
(0.127232 -0.0135141 0)
(0.155992 -0.0105113 3.01447e-18)
(0.186502 -0.0066936 -1.5204e-18)
(0.219432 -0.00195563 -3.06984e-18)
(0.253767 0.00369928 1.66217e-21)
(0.291289 0.010381 3.10645e-18)
(0.32936 0.0180355 1.54897e-18)
(0.372721 0.0268052 0)
(0.414251 0.0366028 1.52148e-18)
(0.466614 0.0476465 3.02313e-18)
(0.510407 0.0597976 2.83431e-18)
(0.579438 0.073521 -2.81592e-18)
(0.621375 0.0881313 -2.29346e-18)
(0.725716 0.105261 2.41294e-18)
(0.754791 0.120159 -9.28543e-19)
(0.942712 0.134582 -1.73207e-18)
(0.946832 0.1211 6.24648e-20)
(0.698572 0.064875 3.31893e-18)
(0.444937 0.0311104 -1.57059e-21)
(0.237606 0.0202168 -5.30824e-22)
(0.117525 0.0122844 0)
(0.0437381 0.0113906 0)
(0.00693213 0.00949413 1.72175e-22)
(-0.0190418 0.00976138 0)
(-0.0325113 0.00912586 0)
(-0.043081 0.00918115 -7.35288e-24)
(-0.0490683 0.00899895 0)
(-0.0540544 0.00910531 0)
(-0.0574404 0.00924522 2.0692e-18)
(-0.0606137 0.00952872 0)
(-0.0633842 0.00984622 0)
(-0.0662334 0.0101796 0)
(-0.0690403 0.0104707 0)
(-0.0719151 0.0106868 -3.68621e-23)
(-0.0747509 0.0107941 -8.9166e-19)
(-0.077524 0.0107656 1.74038e-18)
(-0.0801351 0.0105761 2.70316e-23)
(-0.0825124 0.0102022 8.31024e-19)
(-0.0845567 0.0096259 0)
(-0.086177 0.0088339 7.97434e-19)
(-0.0872728 0.00782346 0)
(-0.0877513 0.00660034 -3.84923e-19)
(-0.0875192 0.00517212 3.17286e-23)
(-0.0864834 0.00354699 0)
(-0.0845491 0.00173887 0)
(-0.0816214 -0.000232283 5.49398e-24)
(-0.0776046 -0.002341 -6.02812e-24)
(-0.0723995 -0.00455561 9.00166e-20)
(-0.0659115 -0.00683729 0)
(-0.0580493 -0.00913953 -3.5687e-19)
(-0.0487285 -0.011408 3.56178e-19)
(-0.037869 -0.0135816 0)
(-0.0254043 -0.0155919 -7.12675e-19)
(-0.0112706 -0.0173633 0)
(0.00456651 -0.0188118 1.72507e-22)
(0.0221529 -0.0198392 0)
(0.0414776 -0.0203374 7.18844e-19)
(0.062596 -0.0201784 7.20255e-19)
(0.0854914 -0.019291 5.3319e-22)
(0.110364 -0.0177128 -1.44825e-18)
(0.137176 -0.0155164 0)
(0.166107 -0.0125729 -9.03912e-22)
(0.196779 -0.00880426 1.4789e-18)
(0.22983 -0.00409836 1.29247e-21)
(0.264312 0.00152876 1.49401e-18)
(0.301927 0.00820262 -1.80589e-21)
(0.340185 0.0158407 -2.11929e-21)
(0.383628 0.0246213 0)
(0.425486 0.0343989 0)
(0.477916 0.0454623 0)
(0.522361 0.0575744 0)
(0.591364 0.0712912 0)
(0.634626 0.0858405 2.13867e-18)
(0.738498 0.10278 0)
(0.770068 0.117492 0)
(0.955341 0.131053 -1.59262e-18)
(0.95506 0.128368 -1.93197e-18)
(0.735456 0.071976 0)
(0.4943 0.0371034 -1.3781e-21)
(0.283213 0.0239492 -6.8751e-22)
(0.15009 0.0145481 0)
(0.0660382 0.0124887 2.26522e-18)
(0.0217532 0.0101063 -2.26877e-18)
(-0.00872054 0.0101115 0)
(-0.0253042 0.00934414 0)
(-0.0379866 0.00935505 -2.19414e-18)
(-0.0454123 0.00913516 0)
(-0.0513736 0.00923609 0)
(-0.0553784 0.00937402 -2.06249e-18)
(-0.058914 0.00966817 0)
(-0.0618546 0.00999727 -1.96134e-18)
(-0.064733 0.0103425 0)
(-0.0674632 0.0106402 0)
(-0.0701793 0.0108566 -2.95991e-23)
(-0.072792 0.010956 0)
(-0.0752899 0.0109115 -8.59695e-19)
(-0.0775841 0.0106973 8.38817e-19)
(-0.0796114 0.0102903 -1.63871e-18)
(-0.0812806 0.00967248 8.0137e-19)
(-0.0825078 0.00883065 -7.84976e-19)
(-0.0831983 0.00776246 0)
(-0.0832646 0.00647433 -3.78387e-19)
(-0.0826175 0.00497415 7.45077e-19)
(-0.0811677 0.00327022 0)
(-0.0788239 0.00137666 -9.07755e-20)
(-0.0754943 -0.000686437 4.49052e-20)
(-0.0710849 -0.00289357 -4.44802e-20)
(-0.0654993 -0.00521264 -8.82928e-20)
(-0.0586459 -0.00760397 0)
(-0.0504359 -0.0100201 -3.4981e-19)
(-0.0407872 -0.0124057 3.49095e-19)
(-0.0296216 -0.0146982 0)
(-0.0168739 -0.0168277 6.98744e-19)
(-0.00248126 -0.0187165 0)
(0.0135914 -0.0202788 7.01574e-19)
(0.0313917 -0.021414 0)
(0.0509153 -0.0220127 -7.04745e-19)
(0.0722238 -0.0219472 -7.06392e-19)
(0.095315 -0.0211499 4.946e-22)
(0.120376 -0.019658 1.42054e-18)
(0.147341 -0.0175397 0)
(0.176379 -0.0146585 -1.436e-18)
(0.207143 -0.010944 0)
(0.240243 -0.00627733 1.45001e-18)
(0.274788 -0.000687656 0)
(0.312411 0.00596626 -1.45247e-18)
(0.350754 0.0135717 -2.88051e-18)
(0.39418 0.0223456 0)
(0.436231 0.0320768 0)
(0.488616 0.0431373 0)
(0.533522 0.0551653 1.27472e-18)
(0.602372 0.0688554 0)
(0.646658 0.0832581 -9.8901e-21)
(0.749954 0.100021 0)
(0.783518 0.114398 7.77833e-19)
(0.966144 0.127296 1.49287e-18)
(0.961618 0.134864 0)
(0.767948 0.0788429 3.2303e-18)
(0.541417 0.0433074 3.74887e-18)
(0.330071 0.0281574 -8.55641e-22)
(0.185833 0.0172591 0)
(0.0914392 0.0139062 -2.24988e-18)
(0.0390935 0.010917 0)
(0.00364921 0.0105597 2.25199e-18)
(-0.0164339 0.00961604 2.22479e-18)
(-0.03149 0.00954736 2.19113e-18)
(-0.0405587 0.00926713 2.1503e-18)
(-0.0476479 0.00934572 2.1059e-18)
(-0.052382 0.00946762 0)
(-0.0563585 0.00976187 0)
(-0.0595224 0.0100943 1.95141e-18)
(-0.0624664 0.0104456 0)
(-0.0651449 0.0107456 0)
(-0.0677202 0.0109595 -1.79506e-18)
(-0.0701235 0.0110493 0)
(-0.0723578 0.0109879 -8.50488e-19)
(-0.0743455 0.010749 0)
(-0.0760329 0.0103097 8.09189e-19)
(-0.0773372 0.00965163 -7.90857e-19)
(-0.0781817 0.00876184 0)
(-0.0784778 0.00763824 0)
(-0.0781432 0.00628781 2.50497e-23)
(-0.0770929 0.00471862 -3.66874e-19)
(-0.075241 0.00293908 0)
(-0.0724997 0.00096344 8.93486e-20)
(-0.0687803 -0.00118817 4.41622e-20)
(-0.0639905 -0.0034902 -4.37343e-20)