/*--------------------------------*- C++ -*----------------------------------*\
| =========                 |                                                 |
| \\      /  F ield         | OpenFOAM: The Open Source CFD Toolbox           |
|  \\    /   O peration     | Version:  2.4.0                                 |
|   \\  /    A nd           | Web:      www.OpenFOAM.org                      |
|    \\/     M anipulation  |                                                 |
\*---------------------------------------------------------------------------*/
FoamFile
{
    version     2.0;
    format      ascii;
    class       volScalarField;
    location    "950";
    object      nut;
}
// * * * * * * * * * * * * * * * * * * * * * * * * * * * * * * * * * * * * * //

dimensions      [0 2 -1 0 0 0 0];

internalField   nonuniform List<scalar> 
48900
(
4.86919e-06
6.91559e-06
8.03588e-06
8.49706e-06
8.53667e-06
8.33272e-06
7.9996e-06
7.60582e-06
7.19357e-06
6.78819e-06
6.40295e-06
6.04495e-06
5.62082e-06
5.20486e-06
4.8391e-06
4.51852e-06
4.23968e-06
3.9979e-06
3.79017e-06
3.61204e-06
3.46075e-06
3.33234e-06
3.2246e-06
3.13398e-06
3.05876e-06
2.99592e-06
2.94435e-06
2.90169e-06
2.86732e-06
2.83958e-06
2.81816e-06
2.80224e-06
2.79172e-06
2.78746e-06
2.79322e-06
2.80293e-06
2.35781e-05
1.49421e-05
1.24097e-05
1.13459e-05
1.08311e-05
1.05779e-05
1.0481e-05
1.04969e-05
1.05954e-05
1.07295e-05
1.08566e-05
1.09933e-05
1.11521e-05
1.11805e-05
1.11525e-05
1.11505e-05
1.11766e-05
1.12278e-05
1.13051e-05
1.14042e-05
1.15246e-05
1.16633e-05
1.18169e-05
1.19833e-05
1.21582e-05
1.23408e-05
1.25269e-05
1.27171e-05
1.2907e-05
1.30997e-05
1.32896e-05
1.34832e-05
1.36738e-05
1.38741e-05
1.40788e-05
1.42366e-05
0.000152127
7.62864e-05
5.04679e-05
3.78961e-05
3.06472e-05
2.60727e-05
2.30087e-05
2.08833e-05
1.93871e-05
1.83311e-05
1.75774e-05
1.70419e-05
1.6684e-05
1.64729e-05
1.63809e-05
1.63891e-05
1.64809e-05
1.66448e-05
1.68691e-05
1.71482e-05
1.74766e-05
1.76171e-05
1.77386e-05
1.78776e-05
1.80555e-05
1.82421e-05
1.84621e-05
1.86826e-05
1.89328e-05
1.91774e-05
1.94499e-05
1.97125e-05
2.0006e-05
2.02882e-05
2.06203e-05
2.09639e-05
0.000465444
0.000266165
0.000179327
0.000132292
0.000103398
8.43024e-05
7.09798e-05
6.12857e-05
5.40022e-05
4.83897e-05
4.39759e-05
4.04526e-05
3.76141e-05
3.53198e-05
3.34659e-05
3.19733e-05
3.07802e-05
2.98381e-05
2.91069e-05
2.85452e-05
2.81068e-05
2.77641e-05
2.75028e-05
2.73162e-05
2.71954e-05
2.71347e-05
2.71257e-05
2.71631e-05
2.72403e-05
2.73552e-05
2.75023e-05
2.76812e-05
2.78892e-05
2.81315e-05
2.84062e-05
2.85838e-05
0.000788429
0.000548914
0.000406488
0.000316054
0.000254773
0.000211328
0.000179402
0.000155224
0.000136465
0.00012162
0.000109669
9.9908e-05
9.18367e-05
8.50973e-05
7.94266e-05
7.46269e-05
7.05452e-05
6.70614e-05
6.40773e-05
6.14943e-05
5.9214e-05
5.71837e-05
5.53796e-05
5.37839e-05
5.23774e-05
5.11417e-05
5.00586e-05
4.91124e-05
4.82886e-05
4.75761e-05
4.69643e-05
4.64465e-05
4.6009e-05
4.56387e-05
4.53232e-05
4.50775e-05
0.00099628
0.000807907
0.000659208
0.000547201
0.000462289
0.000396956
0.000345844
0.000305183
0.000272353
0.000245506
0.000223294
0.000204727
0.000189059
0.000175731
0.00016431
0.000154465
0.00014593
0.000138496
0.000131991
0.000126268
0.000121197
0.000116674
0.000112619
0.000108969
0.000105673
0.00010269
9.99855e-05
9.753e-05
9.52993e-05
9.32741e-05
9.14381e-05
8.97797e-05
8.82782e-05
8.69122e-05
8.56657e-05
8.45563e-05
0.00110425
0.000986612
0.000868999
0.000764774
0.000676196
0.000601976
0.00053993
0.000487887
0.000444
0.000406778
0.000375014
0.000347746
0.000324202
0.000303761
0.000285925
0.00027029
0.000256524
0.000244356
0.000233558
0.000223938
0.00021533
0.000207594
0.000200611
0.000194284
0.000188529
0.000183279
0.000178475
0.000174072
0.000170028
0.000166312
0.000162898
0.000159766
0.000156899
0.000154284
0.000151907
0.000149778
0.00115478
0.00109088
0.00101331
0.000933615
0.00085793
0.000788837
0.000727019
0.000672239
0.000623897
0.000581288
0.000543713
0.000510524
0.000481143
0.000455068
0.000431863
0.000411156
0.000392629
0.000376006
0.000361051
0.000347559
0.000335349
0.000324268
0.00031418
0.000304967
0.00029653
0.000288782
0.00028165
0.000275071
0.000268994
0.000263373
0.000258172
0.000253362
0.000248919
0.000244825
0.000241059
0.000237639
0.00117702
0.00114543
0.00110042
0.00104768
0.000992044
0.000936788
0.000883848
0.000834219
0.000788311
0.000746197
0.000707757
0.00067277
0.000640971
0.000612082
0.000585831
0.000561961
0.000540234
0.000520434
0.000502362
0.000485841
0.000470711
0.000456828
0.000444062
0.0004323
0.00042144
0.000411393
0.000402081
0.000393436
0.000385401
0.000377924
0.000370964
0.000364483
0.000358452
0.000352844
0.000347635
0.000342861
0.00118636
0.00117179
0.00114808
0.00111688
0.0010806
0.00104153
0.00100146
0.000961694
0.000923091
0.00088618
0.000851257
0.000818458
0.000787811
0.000759273
0.000732763
0.000708173
0.000685383
0.000664268
0.000644704
0.000626568
0.000609746
0.000594127
0.000579611
0.000566104
0.000553518
0.000541778
0.000530813
0.000520561
0.000510965
0.000501979
0.000493558
0.000485666
0.00047827
0.00047134
0.000464851
0.000458865
0.00119013
0.00118372
0.00117215
0.00115529
0.00113388
0.00110896
0.00108167
0.001053
0.00102378
0.00099462
0.000965987
0.000938201
0.000911473
0.000885933
0.000861648
0.000838644
0.000816913
0.000796425
0.000777136
0.000758992
0.000741932
0.000725895
0.000710818
0.000696638
0.000683296
0.000670737
0.000658907
0.000647758
0.000637246
0.000627331
0.000617975
0.000609147
0.000600815
0.000592952
0.000585538
0.000578663
0.00119157
0.00118882
0.00118348
0.00117502
0.0011634
0.00114887
0.00113193
0.00111311
0.00109297
0.00107198
0.00105058
0.00102909
0.00100779
0.000986876
0.000966498
0.000946761
0.000927736
0.000909467
0.000891973
0.000875259
0.000859318
0.000844133
0.00082968
0.000815933
0.000802861
0.000790434
0.000778621
0.000767393
0.000756721
0.000746576
0.000736933
0.000727768
0.000719056
0.000710777
0.000702917
0.000695593
0.00119209
0.00119086
0.00118847
0.00118445
0.00117857
0.00117074
0.00116105
0.0011497
0.00113696
0.0011231
0.00110841
0.00109314
0.00107753
0.00106176
0.001046
0.00103037
0.00101499
0.000999921
0.000985236
0.000970973
0.000957161
0.000943816
0.000930949
0.00091856
0.000906646
0.000895201
0.000884213
0.000873672
0.000863565
0.000853879
0.000844598
0.00083571
0.000827199
0.000819051
0.000811265
0.000803972
0.00119225
0.00119162
0.00119051
0.00118866
0.00118583
0.00118188
0.00117673
0.0011704
0.00116295
0.0011545
0.0011452
0.00113518
0.00112461
0.00111362
0.00110233
0.00109087
0.00107934
0.00106781
0.00105635
0.00104503
0.00103389
0.00102297
0.00101229
0.00100187
0.000991727
0.000981875
0.000972316
0.000963055
0.000954092
0.000945425
0.000937051
0.000928965
0.000921163
0.000913637
0.000906396
0.000899572
0.00119227
0.00119184
0.00119119
0.00119019
0.00118868
0.00118652
0.00118363
0.00117994
0.00117546
0.00117021
0.00116424
0.00115764
0.00115048
0.00114285
0.00113484
0.00112654
0.00111802
0.00110936
0.0011006
0.00109182
0.00108305
0.00107434
0.00106571
0.0010572
0.00104883
0.00104061
0.00103257
0.0010247
0.00101702
0.00100953
0.00100225
0.000995158
0.00098827
0.000981583
0.00097511
0.000968989
0.00119227
0.0011919
0.00119145
0.00119083
0.00118995
0.00118871
0.00118703
0.00118485
0.00118212
0.00117885
0.00117503
0.0011707
0.00116589
0.00116065
0.00115503
0.0011491
0.0011429
0.00113649
0.00112991
0.00112321
0.00111644
0.00110962
0.00110279
0.00109598
0.00108921
0.0010825
0.00107586
0.00106933
0.00106289
0.00105657
0.00105037
0.0010443
0.00103836
0.00103256
0.00102691
0.00102155
0.00119226
0.00119191
0.00119153
0.00119109
0.00119054
0.00118981
0.00118884
0.00118758
0.00118599
0.00118404
0.00118172
0.00117902
0.00117595
0.00117255
0.00116882
0.0011648
0.00116053
0.00115603
0.00115134
0.00114649
0.00114152
0.00113645
0.0011313
0.00112611
0.0011209
0.00111567
0.00111046
0.00110527
0.00110012
0.00109501
0.00108997
0.00108499
0.00108009
0.00107527
0.00107054
0.00106603
0.00119224
0.00119189
0.00119154
0.00119118
0.00119078
0.0011903
0.00118971
0.00118897
0.00118805
0.00118692
0.00118556
0.00118395
0.00118209
0.00117998
0.00117764
0.00117506
0.00117227
0.00116928
0.00116612
0.00116279
0.00115933
0.00115576
0.00115208
0.00114832
0.0011445
0.00114064
0.00113674
0.00113282
0.00112889
0.00112497
0.00112106
0.00111717
0.0011133
0.00110948
0.0011057
0.00110207
0.00119222
0.00119186
0.00119152
0.00119118
0.00119083
0.00119047
0.00119007
0.00118959
0.00118903
0.00118837
0.00118757
0.00118663
0.00118554
0.00118428
0.00118287
0.00118129
0.00117956
0.00117767
0.00117565
0.00117349
0.0011712
0.00116881
0.00116632
0.00116375
0.0011611
0.00115838
0.00115562
0.00115281
0.00114997
0.0011471
0.00114422
0.00114132
0.00113843
0.00113553
0.00113266
0.00112988
0.00119221
0.00119184
0.00119148
0.00119114
0.00119082
0.00119049
0.00119016
0.00118981
0.00118943
0.001189
0.0011885
0.00118794
0.00118729
0.00118655
0.00118571
0.00118477
0.00118373
0.00118259
0.00118134
0.00118
0.00117857
0.00117704
0.00117544
0.00117376
0.00117202
0.00117021
0.00116834
0.00116643
0.00116448
0.00116249
0.00116047
0.00115843
0.00115637
0.00115429
0.00115221
0.00115019
0.0011922
0.00119181
0.00119145
0.0011911
0.00119077
0.00119046
0.00119015
0.00118984
0.00118953
0.0011892
0.00118886
0.00118848
0.00118806
0.0011876
0.00118708
0.00118652
0.00118589
0.0011852
0.00118445
0.00118364
0.00118276
0.00118183
0.00118083
0.00117978
0.00117868
0.00117752
0.00117632
0.00117508
0.0011738
0.00117249
0.00117114
0.00116977
0.00116837
0.00116695
0.00116552
0.00116412
0.00119219
0.00119179
0.00119142
0.00119106
0.00119072
0.0011904
0.00119009
0.0011898
0.00118951
0.00118922
0.00118893
0.00118863
0.00118832
0.00118799
0.00118764
0.00118726
0.00118686
0.00118642
0.00118596
0.00118545
0.00118491
0.00118434
0.00118372
0.00118307
0.00118239
0.00118167
0.00118092
0.00118014
0.00117933
0.00117849
0.00117762
0.00117673
0.00117582
0.00117489
0.00117395
0.00117302
0.00119218
0.00119178
0.00119139
0.00119103
0.00119068
0.00119035
0.00119003
0.00118973
0.00118944
0.00118915
0.00118888
0.0011886
0.00118833
0.00118806
0.00118778
0.00118749
0.00118719
0.00118688
0.00118656
0.00118622
0.00118586
0.00118548
0.00118508
0.00118467
0.00118423
0.00118377
0.0011833
0.0011828
0.00118229
0.00118175
0.0011812
0.00118064
0.00118005
0.00117946
0.00117885
0.00117825
0.00119217
0.00119176
0.00119137
0.001191
0.00119064
0.0011903
0.00118997
0.00118966
0.00118936
0.00118907
0.00118879
0.00118852
0.00118825
0.00118799
0.00118774
0.00118748
0.00118722
0.00118697
0.0011867
0.00118644
0.00118616
0.00118588
0.00118559
0.0011853
0.00118499
0.00118468
0.00118435
0.00118402
0.00118367
0.00118332
0.00118295
0.00118258
0.0011822
0.00118181
0.00118141
0.00118102
0.00119216
0.00119175
0.00119135
0.00119097
0.00119061
0.00119025
0.00118992
0.0011896
0.00118929
0.00118899
0.0011887
0.00118842
0.00118815
0.00118789
0.00118763
0.00118738
0.00118714
0.00118689
0.00118665
0.00118641
0.00118617
0.00118593
0.00118569
0.00118544
0.0011852
0.00118495
0.0011847
0.00118444
0.00118418
0.00118392
0.00118366
0.00118338
0.00118311
0.00118283
0.00118256
0.00118229
0.00119216
0.00119174
0.00119134
0.00119095
0.00119058
0.00119022
0.00118987
0.00118954
0.00118922
0.00118892
0.00118862
0.00118833
0.00118805
0.00118778
0.00118752
0.00118726
0.00118701
0.00118677
0.00118653
0.00118629
0.00118606
0.00118583
0.0011856
0.00118538
0.00118515
0.00118493
0.00118471
0.00118448
0.00118426
0.00118404
0.00118382
0.0011836
0.00118338
0.00118316
0.00118294
0.00118273
0.00119215
0.00119173
0.00119133
0.00119093
0.00119055
0.00119019
0.00118984
0.0011895
0.00118917
0.00118885
0.00118855
0.00118825
0.00118797
0.00118769
0.00118742
0.00118715
0.0011869
0.00118664
0.0011864
0.00118616
0.00118592
0.00118569
0.00118546
0.00118524
0.00118502
0.0011848
0.00118459
0.00118437
0.00118416
0.00118396
0.00118375
0.00118355
0.00118335
0.00118315
0.00118296
0.00118277
0.00119215
0.00119172
0.00119131
0.00119092
0.00119053
0.00119016
0.00118981
0.00118946
0.00118913
0.0011888
0.00118849
0.00118819
0.00118789
0.00118761
0.00118733
0.00118706
0.00118679
0.00118653
0.00118628
0.00118603
0.00118579
0.00118555
0.00118532
0.00118509
0.00118487
0.00118465
0.00118443
0.00118422
0.00118401
0.00118381
0.00118361
0.00118341
0.00118321
0.00118302
0.00118283
0.00118266
0.00119214
0.00119172
0.00119131
0.00119091
0.00119052
0.00119014
0.00118978
0.00118943
0.00118909
0.00118876
0.00118844
0.00118813
0.00118783
0.00118754
0.00118725
0.00118698
0.0011867
0.00118644
0.00118618
0.00118593
0.00118568
0.00118544
0.0011852
0.00118496
0.00118474
0.00118451
0.00118429
0.00118407
0.00118386
0.00118365
0.00118345
0.00118325
0.00118305
0.00118286
0.00118267
0.0011825
0.00119214
0.00119171
0.0011913
0.0011909
0.00119051
0.00119013
0.00118976
0.00118941
0.00118906
0.00118873
0.0011884
0.00118809
0.00118778
0.00118749
0.00118719
0.00118691
0.00118663
0.00118636
0.0011861
0.00118584
0.00118559
0.00118534
0.00118509
0.00118486
0.00118462
0.00118439
0.00118417
0.00118395
0.00118373
0.00118352
0.00118331
0.00118311
0.00118291
0.00118271
0.00118252
0.00118235
0.00119214
0.00119171
0.00119129
0.00119089
0.0011905
0.00119011
0.00118974
0.00118939
0.00118904
0.0011887
0.00118837
0.00118805
0.00118774
0.00118744
0.00118715
0.00118686
0.00118658
0.0011863
0.00118603
0.00118577
0.00118551
0.00118526
0.00118501
0.00118477
0.00118453
0.0011843
0.00118407
0.00118385
0.00118363
0.00118341
0.0011832
0.00118299
0.00118279
0.00118259
0.0011824
0.00118222
0.00119214
0.00119171
0.00119129
0.00119088
0.00119049
0.0011901
0.00118973
0.00118937
0.00118902
0.00118868
0.00118835
0.00118803
0.00118771
0.00118741
0.00118711
0.00118682
0.00118653
0.00118625
0.00118598
0.00118571
0.00118545
0.0011852
0.00118495
0.0011847
0.00118446
0.00118422
0.00118399
0.00118376
0.00118354
0.00118332
0.00118311
0.0011829
0.0011827
0.0011825
0.0011823
0.00118212
0.00119214
0.00119171
0.00119129
0.00119088
0.00119048
0.0011901
0.00118972
0.00118936
0.00118901
0.00118866
0.00118833
0.00118801
0.00118769
0.00118738
0.00118708
0.00118678
0.0011865
0.00118621
0.00118594
0.00118567
0.00118541
0.00118515
0.00118489
0.00118465
0.0011844
0.00118417
0.00118393
0.0011837
0.00118348
0.00118326
0.00118304
0.00118283
0.00118262
0.00118242
0.00118223
0.00118205
0.00119214
0.00119171
0.00119128
0.00119088
0.00119048
0.00119009
0.00118972
0.00118935
0.001189
0.00118865
0.00118832
0.00118799
0.00118767
0.00118736
0.00118706
0.00118676
0.00118647
0.00118619
0.00118591
0.00118564
0.00118537
0.00118511
0.00118486
0.00118461
0.00118436
0.00118412
0.00118389
0.00118366
0.00118343
0.00118321
0.00118299
0.00118278
0.00118257
0.00118237
0.00118217
0.00118199
0.00119214
0.0011917
0.00119128
0.00119087
0.00119048
0.00119009
0.00118971
0.00118935
0.00118899
0.00118865
0.00118831
0.00118798
0.00118766
0.00118735
0.00118705
0.00118675
0.00118646
0.00118617
0.00118589
0.00118562
0.00118536
0.00118509
0.00118484
0.00118459
0.00118434
0.0011841
0.00118386
0.00118363
0.00118341
0.00118318
0.00118297
0.00118275
0.00118254
0.00118234
0.00118214
0.00118196
0.00119214
0.00119171
0.00119128
0.00119088
0.00119048
0.00119009
0.00118971
0.00118935
0.00118899
0.00118865
0.00118831
0.00118798
0.00118766
0.00118735
0.00118704
0.00118674
0.00118645
0.00118617
0.00118589
0.00118562
0.00118535
0.00118509
0.00118483
0.00118458
0.00118433
0.00118409
0.00118386
0.00118363
0.0011834
0.00118318
0.00118296
0.00118274
0.00118253
0.00118233
0.00118213
0.00118195
0.00119214
0.00119171
0.00119129
0.00119088
0.00119048
0.00119009
0.00118972
0.00118935
0.001189
0.00118865
0.00118831
0.00118798
0.00118766
0.00118735
0.00118705
0.00118675
0.00118646
0.00118617
0.00118589
0.00118562
0.00118535
0.00118509
0.00118484
0.00118459
0.00118434
0.0011841
0.00118386
0.00118363
0.0011834
0.00118318
0.00118297
0.00118275
0.00118254
0.00118234
0.00118214
0.00118196
0.00119214
0.00119171
0.00119129
0.00119088
0.00119048
0.0011901
0.00118972
0.00118936
0.001189
0.00118866
0.00118832
0.00118799
0.00118767
0.00118736
0.00118706
0.00118676
0.00118647
0.00118619
0.00118591
0.00118564
0.00118537
0.00118511
0.00118485
0.0011846
0.00118436
0.00118412
0.00118388
0.00118365
0.00118343
0.0011832
0.00118299
0.00118277
0.00118257
0.00118236
0.00118217
0.00118198
0.00119214
0.00119171
0.00119129
0.00119088
0.00119049
0.0011901
0.00118973
0.00118937
0.00118901
0.00118867
0.00118833
0.00118801
0.00118769
0.00118738
0.00118708
0.00118678
0.00118649
0.00118621
0.00118593
0.00118566
0.00118539
0.00118513
0.00118488
0.00118463
0.00118439
0.00118415
0.00118391
0.00118368
0.00118346
0.00118324
0.00118302
0.00118281
0.0011826
0.0011824
0.0011822
0.00118202
0.00119214
0.00119171
0.00119129
0.00119089
0.00119049
0.00119011
0.00118974
0.00118938
0.00118903
0.00118868
0.00118835
0.00118803
0.00118771
0.0011874
0.0011871
0.00118681
0.00118652
0.00118624
0.00118596
0.00118569
0.00118543
0.00118517
0.00118492
0.00118467
0.00118443
0.00118419
0.00118395
0.00118372
0.0011835
0.00118328
0.00118306
0.00118285
0.00118264
0.00118244
0.00118224
0.00118206
0.00119214
0.00119172
0.0011913
0.0011909
0.0011905
0.00119012
0.00118975
0.00118939
0.00118904
0.0011887
0.00118837
0.00118805
0.00118774
0.00118743
0.00118713
0.00118684
0.00118655
0.00118627
0.001186
0.00118573
0.00118547
0.00118521
0.00118496
0.00118471
0.00118446
0.00118422
0.00118399
0.00118376
0.00118353
0.0011833
0.00118308
0.00118286
0.00118265
0.00118244
0.00118223
0.00118204
0.00119215
0.00119172
0.00119131
0.0011909
0.00119051
0.00119014
0.00118977
0.00118941
0.00118907
0.00118873
0.0011884
0.00118808
0.00118777
0.00118747
0.00118717
0.00118688
0.00118659
0.00118631
0.00118604
0.00118577
0.0011855
0.00118524
0.00118498
0.00118472
0.00118447
0.00118422
0.00118397
0.00118373
0.00118348
0.00118324
0.001183
0.00118276
0.00118252
0.00118228
0.00118205
0.00118183
0.00119215
0.00119173
0.00119131
0.00119092
0.00119053
0.00119015
0.00118979
0.00118944
0.00118909
0.00118876
0.00118843
0.00118812
0.0011878
0.0011875
0.0011872
0.0011869
0.00118661
0.00118632
0.00118604
0.00118575
0.00118547
0.00118518
0.0011849
0.00118461
0.00118433
0.00118404
0.00118375
0.00118346
0.00118317
0.00118287
0.00118257
0.00118227
0.00118196
0.00118165
0.00118135
0.00118105
0.00119215
0.00119173
0.00119133
0.00119093
0.00119055
0.00119018
0.00118982
0.00118947
0.00118912
0.00118879
0.00118846
0.00118814
0.00118782
0.0011875
0.00118718
0.00118686
0.00118654
0.00118621
0.00118588
0.00118554
0.00118519
0.00118484
0.00118448
0.0011841
0.00118372
0.00118333
0.00118292
0.00118251
0.00118208
0.00118165
0.0011812
0.00118074
0.00118028
0.0011798
0.00117932
0.00117884
0.00119216
0.00119174
0.00119134
0.00119095
0.00119057
0.0011902
0.00118984
0.00118949
0.00118914
0.00118879
0.00118844
0.00118808
0.00118772
0.00118735
0.00118696
0.00118655
0.00118613
0.00118568
0.00118521
0.00118472
0.0011842
0.00118366
0.00118309
0.00118249
0.00118187
0.00118121
0.00118054
0.00117984
0.00117911
0.00117836
0.00117759
0.0011768
0.001176
0.00117517
0.00117433
0.0011735
0.00119216
0.00119175
0.00119135
0.00119097
0.00119059
0.00119021
0.00118984
0.00118946
0.00118906
0.00118865
0.00118822
0.00118775
0.00118724
0.00118669
0.00118609
0.00118544
0.00118474
0.00118398
0.00118316
0.00118229
0.00118135
0.00118037
0.00117932
0.00117822
0.00117708
0.00117588
0.00117464
0.00117336
0.00117204
0.00117068
0.00116929
0.00116787
0.00116643
0.00116496
0.00116348
0.00116201
0.00119217
0.00119177
0.00119137
0.00119097
0.00119057
0.00119016
0.00118971
0.00118922
0.00118867
0.00118805
0.00118734
0.00118653
0.00118562
0.0011846
0.00118347
0.00118222
0.00118085
0.00117937
0.00117778
0.00117607
0.00117427
0.00117238
0.00117039
0.00116833
0.00116619
0.00116398
0.00116172
0.00115941
0.00115704
0.00115465
0.00115222
0.00114976
0.00114728
0.00114479
0.0011423
0.00113984
0.00119218
0.00119177
0.00119136
0.00119091
0.00119041
0.00118983
0.00118913
0.00118828
0.00118725
0.00118603
0.00118459
0.00118293
0.00118105
0.00117893
0.0011766
0.00117406
0.00117132
0.00116839
0.00116529
0.00116205
0.00115866
0.00115515
0.00115154
0.00114784
0.00114407
0.00114024
0.00113636
0.00113245
0.00112851
0.00112456
0.0011206
0.00111665
0.00111271
0.00110879
0.00110491
0.00110111
0.00119218
0.00119174
0.00119123
0.00119058
0.00118973
0.0011886
0.00118713
0.00118527
0.001183
0.0011803
0.00117716
0.00117361
0.00116966
0.00116534
0.00116069
0.00115574
0.00115054
0.00114511
0.0011395
0.00113373
0.00112784
0.00112187
0.00111583
0.00110975
0.00110365
0.00109756
0.00109148
0.00108543
0.00107943
0.00107349
0.00106762
0.00106182
0.0010561
0.00105047
0.00104494
0.00103958
0.00119215
0.00119155
0.00119066
0.00118931
0.00118735
0.00118467
0.00118119
0.00117688
0.00117177
0.0011659
0.00115934
0.00115216
0.00114446
0.00113632
0.00112781
0.00111903
0.00111005
0.00110092
0.0010917
0.00108246
0.00107322
0.00106402
0.0010549
0.00104588
0.00103699
0.00102823
0.00101963
0.00101119
0.00100293
0.000994846
0.000986946
0.000979232
0.000971707
0.00096437
0.000957232
0.000950371
0.00119196
0.00119076
0.0011886
0.00118513
0.00118016
0.00117362
0.00116556
0.0011561
0.00114543
0.00113377
0.00112131
0.00110825
0.00109477
0.00108103
0.00106716
0.00105326
0.00103943
0.00102575
0.00101227
0.000999041
0.000986094
0.000973458
0.000961149
0.000949181
0.00093756
0.000926289
0.000915369
0.000904795
0.000894564
0.00088467
0.000875104
0.000865858
0.000856924
0.000848293
0.000839966
0.000832014
0.00119118
0.00118789
0.00118189
0.00117281
0.0011607
0.00114592
0.00112894
0.00111032
0.00109055
0.00107007
0.00104925
0.00102837
0.00100766
0.000987304
0.000967413
0.000948079
0.000929362
0.000911298
0.000893906
0.000877194
0.000861156
0.000845782
0.000831055
0.000816956
0.000803463
0.000790551
0.000778196
0.000766374
0.00075506
0.000744231
0.000733863
0.000723933
0.000714421
0.000705306
0.000696575
0.000688286
0.00118828
0.0011785
0.00116227
0.00114025
0.00111377
0.00108431
0.00105318
0.00102142
0.000989784
0.000958805
0.000928827
0.000900064
0.000872631
0.000846579
0.000821913
0.000798606
0.000776613
0.000755878
0.000736335
0.000717916
0.000700555
0.000684184
0.000668737
0.000654155
0.000640378
0.000627352
0.000615028
0.000603357
0.000592297
0.000581806
0.000571849
0.000562389
0.000553395
0.000544838
0.000536694
0.000528996
0.00117831
0.00115031
0.00111063
0.00106396
0.00101438
0.000964715
0.000916716
0.00087131
0.000828915
0.000789638
0.000753413
0.000720083
0.000689445
0.000661284
0.000635384
0.000611543
0.000589569
0.000569286
0.000550535
0.00053317
0.000517061
0.00050209
0.000488152
0.000475153
0.00046301
0.000451647
0.000441
0.000431008
0.000421618
0.000412781
0.000404454
0.000396599
0.000389179
0.000382163
0.000375524
0.000369269
0.00114599
0.00107391
0.00099133
0.000909869
0.000834697
0.000767465
0.000708191
0.000656196
0.000610597
0.000570525
0.000535193
0.000503922
0.000476134
0.00045134
0.000429131
0.000409162
0.000391139
0.000374814
0.000359974
0.000346437
0.000334047
0.000322672
0.000312198
0.000302527
0.000293576
0.000285272
0.000277552
0.000270361
0.000263652
0.000257379
0.000251507
0.000246001
0.000240831
0.000235969
0.000231392
0.000227094
0.00104908
0.000894769
0.000761788
0.000655339
0.000571031
0.000503836
0.000449679
0.000405433
0.000368806
0.000338119
0.000312131
0.000289906
0.000270736
0.000254073
0.000239485
0.000226633
0.000215237
0.000205072
0.000195952
0.000187727
0.000180273
0.000173489
0.000167294
0.000161618
0.000156404
0.000151603
0.000147172
0.000143075
0.00013928
0.000135759
0.000132487
0.000129443
0.000126605
0.000123957
0.000121484
0.000119176
0.000798297
0.00056824
0.000431627
0.000344445
0.000284841
0.000242029
0.000210113
0.000185552
0.000166166
0.000150545
0.000137741
0.000127094
0.000118132
0.00011051
0.000103965
9.82932e-05
9.33291e-05
8.89428e-05
8.50348e-05
8.15309e-05
7.83754e-05
7.5528e-05
7.29554e-05
7.06281e-05
6.85207e-05
6.66103e-05
6.48771e-05
6.33035e-05
6.18739e-05
6.05747e-05
5.93937e-05
5.832e-05
5.73441e-05
5.64572e-05
5.56517e-05
5.49207e-05
0.000358484
0.000205132
0.000142828
0.000109477
8.89017e-05
7.51394e-05
6.54032e-05
5.82057e-05
5.27125e-05
4.8417e-05
4.49957e-05
4.22337e-05
3.99837e-05
3.81414e-05
3.66292e-05
3.53857e-05
3.43599e-05
3.35081e-05
3.27945e-05
3.21902e-05
3.16739e-05
3.12331e-05
3.08597e-05
3.05473e-05
3.02908e-05
3.00845e-05
2.99241e-05
2.98049e-05
2.97234e-05
2.96757e-05
2.96589e-05
2.96699e-05
2.97065e-05
2.97659e-05
2.98467e-05
2.9946e-05
6.07291e-05
3.57922e-05
2.73264e-05
2.32173e-05
2.0905e-05
1.94948e-05
1.85952e-05
1.8012e-05
1.76402e-05
1.74196e-05
1.73142e-05
1.73018e-05
1.73687e-05
1.75058e-05
1.7707e-05
1.7967e-05
1.828e-05
1.86372e-05
1.90261e-05
1.94324e-05
1.98451e-05
2.00133e-05
2.00763e-05
2.0151e-05
2.02281e-05
2.03152e-05
2.04029e-05
2.05001e-05
2.05962e-05
2.07016e-05
2.08044e-05
2.09165e-05
2.10247e-05
2.11422e-05
2.12546e-05
2.1375e-05
4.82941e-06
6.72209e-06
8.18931e-06
9.2493e-06
9.96551e-06
1.04127e-05
1.06611e-05
1.07655e-05
1.07682e-05
1.07007e-05
1.05862e-05
1.04412e-05
1.02775e-05
1.01036e-05
9.9255e-06
9.74745e-06
9.57262e-06
9.40296e-06
9.23993e-06
9.0841e-06
8.936e-06
8.79583e-06
8.66386e-06
8.53892e-06
8.42143e-06
8.31012e-06
8.20562e-06
8.10653e-06
8.01373e-06
7.92571e-06
7.8435e-06
7.76547e-06
7.69287e-06
7.62382e-06
7.55992e-06
7.4989e-06
8.55564e-10
3.62782e-08
8.97335e-08
1.68716e-07
2.77374e-07
4.25822e-07
6.34735e-07
9.48726e-07
1.30907e-06
1.66935e-06
2.01394e-06
2.34877e-06
2.74695e-06
3.14926e-06
3.54408e-06
3.92355e-06
4.28384e-06
4.62371e-06
4.94334e-06
5.24358e-06
5.5255e-06
5.79017e-06
6.03865e-06
6.27191e-06
6.49081e-06
6.69611e-06
6.88846e-06
7.06844e-06
7.23651e-06
7.39307e-06
7.53844e-06
7.67289e-06
7.79666e-06
7.90992e-06
8.01281e-06
8.10541e-06
8.18778e-06
8.25998e-06
8.322e-06
8.37385e-06
8.41549e-06
8.4469e-06
8.46799e-06
8.4787e-06
8.47892e-06
8.46853e-06
8.44739e-06
8.41531e-06
8.3721e-06
8.31751e-06
8.25119e-06
8.17544e-06
8.09707e-06
8.01393e-06
7.92415e-06
7.82613e-06
7.71841e-06
7.59964e-06
7.46855e-06
7.3239e-06
7.16446e-06
6.98897e-06
6.7961e-06
6.58442e-06
6.35238e-06
6.0983e-06
5.82028e-06
5.51625e-06
5.18391e-06
4.82078e-06
4.42428e-06
3.9919e-06
3.52163e-06
3.01283e-06
2.46767e-06
1.89504e-06
1.3144e-06
7.80821e-07
3.64216e-07
1.50734e-07
1.39339e-07
1.43106e-07
1.3853e-07
1.30549e-07
1.18687e-07
9.67759e-08
8.34137e-08
7.67134e-08
6.94722e-08
5.80115e-08
4.29731e-08
3.03481e-08
2.60402e-08
3.18459e-08
4.95983e-08
8.44054e-08
1.40052e-07
2.15805e-07
3.06723e-07
4.05495e-07
5.05314e-07
6.00885e-07
6.90024e-07
7.73838e-07
8.56784e-07
9.48567e-07
1.04776e-06
1.14342e-06
1.23574e-06
1.32373e-06
1.40694e-06
1.48526e-06
1.55453e-06
1.61856e-06
1.66992e-06
1.77065e-06
1.88215e-06
1.96009e-06
1.99556e-06
1.98722e-06
1.93695e-06
1.84883e-06
1.7283e-06
1.58167e-06
1.41823e-06
1.27391e-06
1.15e-06
1.03657e-06
9.33375e-07
8.452e-07
7.80811e-07
7.50986e-07
7.65961e-07
8.28804e-07
9.32637e-07
1.06722e-06
1.23675e-06
1.43655e-06
1.62181e-06
1.75915e-06
1.86819e-06
3.32105e-06
6.62516e-06
9.83315e-06
1.26232e-05
1.49708e-05
1.69763e-05
1.82917e-05
1.85324e-05
1.86958e-05
1.88131e-05
1.89031e-05
1.89781e-05
1.90454e-05
1.91091e-05
1.91716e-05
1.92346e-05
1.92989e-05
1.93651e-05
1.94336e-05
1.95047e-05
1.95788e-05
1.96564e-05
1.97378e-05
1.98237e-05
1.99146e-05
2.00114e-05
2.01145e-05
2.02254e-05
2.03453e-05
2.04756e-05
2.061e-05
2.07409e-05
2.08684e-05
2.09925e-05
2.11135e-05
2.12315e-05
2.13464e-05
2.14585e-05
2.15679e-05
2.16745e-05
2.17786e-05
2.18801e-05
2.19793e-05
2.20762e-05
2.21708e-05
2.22634e-05
2.23539e-05
2.24426e-05
2.25294e-05
2.26146e-05
2.26982e-05
2.27804e-05
2.28613e-05
2.29411e-05
2.30199e-05
2.30979e-05
2.31755e-05
2.32527e-05
2.33299e-05
2.34073e-05
2.34853e-05
2.35644e-05
2.36447e-05
2.37269e-05
2.38113e-05
2.38996e-05
2.39879e-05
2.40767e-05
2.41663e-05
2.42565e-05
2.43467e-05
2.44379e-05
2.453e-05
2.46231e-05
2.47176e-05
2.48135e-05
2.49111e-05
2.50107e-05
2.51123e-05
2.52164e-05
2.53231e-05
2.54328e-05
2.55456e-05
2.56619e-05
2.57821e-05
2.59065e-05
2.60354e-05
2.61693e-05
2.63086e-05
2.64537e-05
2.66051e-05
2.67634e-05
2.69291e-05
2.71029e-05
2.72852e-05
2.7477e-05
2.76789e-05
2.78918e-05
2.81168e-05
2.83547e-05
2.86068e-05
2.88742e-05
2.91585e-05
2.94611e-05
2.97838e-05
3.01285e-05
3.04974e-05
3.08931e-05
3.13183e-05
3.17762e-05
3.22704e-05
3.28052e-05
3.33857e-05
3.40176e-05
3.47078e-05
3.54635e-05
3.62891e-05
3.62305e-05
3.58361e-05
3.54417e-05
3.50383e-05
3.46268e-05
3.42077e-05
3.37813e-05
3.33478e-05
3.29075e-05
3.24604e-05
3.20068e-05
3.15471e-05
3.10817e-05
3.06109e-05
3.01349e-05
2.9654e-05
2.91683e-05
2.86779e-05
2.81826e-05
2.76832e-05
2.71803e-05
2.66749e-05
2.61688e-05
2.56739e-05
2.52341e-05
2.51193e-05
2.51501e-05
2.51838e-05
2.52152e-05
2.52442e-05
2.52712e-05
2.52964e-05
2.53201e-05
2.53424e-05
2.53637e-05
2.53841e-05
2.54039e-05
2.54233e-05
2.54423e-05
2.54608e-05
2.54787e-05
2.5496e-05
2.55127e-05
2.55292e-05
2.55453e-05
2.55609e-05
2.55763e-05
2.47289e-05
2.39347e-05
2.32085e-05
2.25435e-05
2.19331e-05
2.13716e-05
2.08538e-05
2.03753e-05
1.99324e-05
1.95217e-05
1.91402e-05
1.87855e-05
1.84551e-05
1.8147e-05
1.78594e-05
1.75906e-05
1.73392e-05
1.71038e-05
1.68832e-05
1.66762e-05
1.64818e-05
1.62992e-05
1.61274e-05
1.59657e-05
1.58133e-05
1.56697e-05
1.5534e-05
1.54059e-05
1.52847e-05
1.517e-05
1.50613e-05
1.49581e-05
1.48601e-05
1.47668e-05
1.46779e-05
1.4593e-05
1.45119e-05
1.44339e-05
1.43592e-05
1.4287e-05
1.4217e-05
1.41526e-05
1.40919e-05
1.40352e-05
1.39809e-05
1.3927e-05
1.38737e-05
1.3821e-05
1.37684e-05
1.37154e-05
1.36646e-05
1.36085e-05
1.35778e-05
1.34688e-05
1.35325e-05
3.55452e-09
5.39349e-08
4.0575e-07
1.20853e-06
2.91576e-06
6.59385e-06
1.38258e-05
2.11563e-05
2.84366e-05
3.5146e-05
4.1435e-05
4.73833e-05
5.29695e-05
5.81667e-05
6.29592e-05
6.73434e-05
7.13254e-05
7.49187e-05
7.81419e-05
8.10166e-05
8.35654e-05
8.58112e-05
8.7776e-05
8.94803e-05
9.09434e-05
9.21826e-05
9.3214e-05
9.4052e-05
9.47097e-05
9.51985e-05
9.55289e-05
9.57101e-05
9.57506e-05
9.56582e-05
9.54396e-05
9.51012e-05
9.46487e-05
9.40873e-05
9.34218e-05
9.26566e-05
9.17959e-05
9.08434e-05
8.98027e-05
8.86773e-05
8.74703e-05
8.61846e-05
8.4823e-05
8.33881e-05