/*--------------------------------*- C++ -*----------------------------------*\
| =========                 |                                                 |
| \\      /  F ield         | OpenFOAM: The Open Source CFD Toolbox           |
|  \\    /   O peration     | Version:  2.4.0                                 |
|   \\  /    A nd           | Web:      www.OpenFOAM.org                      |
|    \\/     M anipulation  |                                                 |
\*---------------------------------------------------------------------------*/
FoamFile
{
    version     2.0;
    format      ascii;
    class       volVectorField;
    location    "145";
    object      U;
}
// * * * * * * * * * * * * * * * * * * * * * * * * * * * * * * * * * * * * * //

dimensions      [0 1 -1 0 0 0 0];

internalField   nonuniform List<vector> 
10000
(
(0.999999 4.57487e-07 0)
(0.999979 1.20556e-06 0)
(0.999944 1.95355e-06 0)
(0.999899 2.73923e-06 0)
(0.999846 3.59815e-06 0)
(0.999785 4.56261e-06 0)
(0.999717 5.66327e-06 0)
(0.999642 6.94538e-06 0)
(0.999562 8.44323e-06 0)
(0.999476 1.0235e-05 0)
(0.999384 1.23502e-05 0)
(0.999286 1.49455e-05 0)
(0.999179 1.79476e-05 0)
(0.999068 2.17021e-05 0)
(0.998946 2.52374e-05 0)
(0.99883 2.91261e-05 0)
(0.998693 2.50152e-05 0)
(0.998653 1.37013e-05 0)
(0.998497 -8.47637e-05 0)
(0.99917 0.00109576 0)
(0.999999 1.38224e-06 0)
(0.999979 3.64824e-06 0)
(0.999944 5.91331e-06 0)
(0.999899 8.29255e-06 0)
(0.999846 1.08927e-05 0)
(0.999784 1.38117e-05 0)
(0.999716 1.7142e-05 0)
(0.999642 2.10194e-05 0)
(0.999562 2.55486e-05 0)
(0.999476 3.09601e-05 0)
(0.999384 3.73523e-05 0)
(0.999286 4.51739e-05 0)
(0.99918 5.42728e-05 0)
(0.99907 6.56048e-05 0)
(0.998947 7.69385e-05 0)
(0.998827 9.02554e-05 0)
(0.998676 8.90435e-05 0)
(0.998547 8.52702e-05 0)
(0.998207 -2.14039e-05 0)
(0.997834 0.000234189 0)
(0.999999 2.32916e-06 0)
(0.999979 6.15557e-06 0)
(0.999944 9.9791e-06 0)
(0.999899 1.39953e-05 0)
(0.999846 1.8382e-05 0)
(0.999785 2.33047e-05 0)
(0.999717 2.89185e-05 0)
(0.999643 3.54479e-05 0)
(0.999563 4.30712e-05 0)
(0.999477 5.21612e-05 0)
(0.999386 6.2901e-05 0)
(0.999289 7.59894e-05 0)
(0.999184 9.13229e-05 0)
(0.999074 0.000110343 0)
(0.998953 0.000130837 0)
(0.998831 0.000156615 0)
(0.998679 0.000176045 0)
(0.998524 0.000219777 0)
(0.998255 0.000275659 0)
(0.998 0.00070927 0)
(0.999999 3.30303e-06 0)
(0.999979 8.73227e-06 0)
(0.999944 1.41564e-05 0)
(0.9999 1.98529e-05 0)
(0.999846 2.60717e-05 0)
(0.999785 3.30466e-05 0)
(0.999717 4.09948e-05 0)
(0.999644 5.02287e-05 0)
(0.999564 6.09983e-05 0)
(0.999479 7.38109e-05 0)
(0.999389 8.89354e-05 0)
(0.999293 0.000107294 0)
(0.99919 0.000128887 0)
(0.999082 0.000155588 0)
(0.998965 0.000185698 0)
(0.998844 0.000224492 0)
(0.9987 0.000265648 0)
(0.998552 0.00034178 0)
(0.998354 0.000460476 0)
(0.998187 0.000798404 0)
(0.999999 4.30224e-06 0)
(0.999979 1.13762e-05 0)
(0.999944 1.84421e-05 0)
(0.9999 2.58607e-05 0)
(0.999846 3.39543e-05 0)
(0.999786 4.30246e-05 0)
(0.999718 5.33506e-05 0)
(0.999645 6.53282e-05 0)
(0.999566 7.92764e-05 0)
(0.999482 9.58232e-05 0)
(0.999393 0.00011532 0)
(0.999299 0.00013887 0)
(0.999198 0.000166607 0)
(0.999094 0.000200712 0)
(0.998982 0.000240138 0)
(0.998866 0.000290703 0)
(0.998737 0.000349614 0)
(0.998605 0.000442868 0)
(0.998462 0.000576709 0)
(0.998354 0.000828486 0)
(0.999999 5.32611e-06 0)
(0.999979 1.40862e-05 0)
(0.999945 2.28341e-05 0)
(0.9999 3.20147e-05 0)
(0.999847 4.20228e-05 0)
(0.999786 5.3227e-05 0)
(0.99972 6.59658e-05 0)
(0.999647 8.07133e-05 0)
(0.999569 9.78517e-05 0)
(0.999486 0.000118111 0)
(0.999399 0.000141916 0)
(0.999307 0.000170498 0)
(0.99921 0.000204119 0)
(0.99911 0.000245086 0)
(0.999004 0.000292913 0)
(0.998896 0.000353047 0)
(0.998782 0.000424415 0)
(0.998671 0.000524623 0)
(0.998565 0.000656131 0)
(0.998493 0.000849342 0)
(0.999999 6.37427e-06 0)
(0.999979 1.68612e-05 0)
(0.999945 2.73301e-05 0)
(0.999901 3.83108e-05 0)
(0.999848 5.02697e-05 0)
(0.999788 6.36406e-05 0)
(0.999721 7.88185e-05 0)
(0.99965 9.63477e-05 0)
(0.999573 0.000116666 0)
(0.999491 0.000140583 0)
(0.999406 0.00016858 0)
(0.999317 0.000201953 0)
(0.999224 0.00024106 0)
(0.999129 0.000288147 0)
(0.999031 0.000343078 0)
(0.998933 0.000410341 0)
(0.998834 0.000489433 0)
(0.998742 0.000590906 0)
(0.998663 0.00071456 0)
(0.998615 0.000869912 0)
(0.999999 7.44628e-06 0)
(0.999979 1.96996e-05 0)
(0.999945 3.19273e-05 0)
(0.999901 4.47436e-05 0)
(0.999849 5.8686e-05 0)
(0.999789 7.425e-05 0)
(0.999723 9.18836e-05 0)
(0.999653 0.000112191 0)
(0.999577 0.000135656 0)
(0.999498 0.000163141 0)
(0.999414 0.000195161 0)
(0.999328 0.000233013 0)
(0.99924 0.000277095 0)
(0.999151 0.000329422 0)
(0.999061 0.000389987 0)
(0.998973 0.000462055 0)
(0.998889 0.000545044 0)
(0.998815 0.000644318 0)
(0.998756 0.000757932 0)
(0.998722 0.000886559 0)
(0.999999 8.54159e-06 0)
(0.999979 2.25998e-05 0)
(0.999946 3.6622e-05 0)
(0.999902 5.1307e-05 0)
(0.99985 6.72608e-05 0)
(0.999791 8.50377e-05 0)
(0.999726 0.000105133 0)
(0.999656 0.0001282 0)
(0.999582 0.000154754 0)
(0.999505 0.000185682 0)
(0.999424 0.00022151 0)
(0.999342 0.000263465 0)
(0.999259 0.000311925 0)
(0.999176 0.00036855 0)
(0.999094 0.00043327 0)
(0.999017 0.000508108 0)
(0.998946 0.000592121 0)
(0.998886 0.000687208 0)
(0.998842 0.000790523 0)
(0.998817 0.000899576 0)
(0.999999 9.65951e-06 0)
(0.999979 2.55597e-05 0)
(0.999946 4.14102e-05 0)
(0.999903 5.79935e-05 0)
(0.999851 7.5982e-05 0)
(0.999793 9.59837e-05 0)
(0.999729 0.000118535 0)
(0.999661 0.000144324 0)
(0.999588 0.000173887 0)
(0.999513 0.000208103 0)
(0.999436 0.000247478 0)
(0.999358 0.000293113 0)
(0.999279 0.000345303 0)
(0.999203 0.000405276 0)
(0.99913 0.000472773 0)
(0.999062 0.000548708 0)
(0.999003 0.000631733 0)
(0.998955 0.000721652 0)
(0.998921 0.000815371 0)
(0.998904 0.000909715 0)
(0.999999 1.07992e-05 0)
(0.999979 2.85766e-05 0)
(0.999946 4.62869e-05 0)
(0.999904 6.47945e-05 0)
(0.999853 8.48354e-05 0)
(0.999795 0.000107066 0)
(0.999732 0.000132055 0)
(0.999666 0.000160514 0)
(0.999595 0.000192981 0)
(0.999523 0.000230298 0)
(0.999449 0.000272924 0)
(0.999375 0.000321782 0)
(0.999302 0.000377035 0)
(0.999232 0.000439448 0)
(0.999167 0.00050851 0)
(0.999109 0.000584235 0)
(0.999059 0.000664958 0)
(0.999021 0.000749364 0)
(0.998995 0.000834511 0)
(0.998982 0.000917495 0)
(0.999999 1.19597e-05 0)
(0.99998 3.16477e-05 0)
(0.999947 5.12464e-05 0)
(0.999905 7.17004e-05 0)
(0.999854 9.38055e-05 0)
(0.999798 0.00011826 0)
(0.999736 0.000145657 0)
(0.999671 0.000176715 0)
(0.999603 0.000211959 0)
(0.999533 0.000252166 0)
(0.999463 0.000297717 0)
(0.999393 0.000349326 0)
(0.999326 0.000406981 0)
(0.999263 0.000470999 0)
(0.999205 0.000540607 0)
(0.999155 0.00061515 0)
(0.999114 0.000692781 0)
(0.999083 0.000771698 0)
(0.999064 0.000849313 0)
(0.999054 0.000923271 0)
(0.999999 1.31398e-05 0)
(0.99998 3.47696e-05 0)
(0.999948 5.62822e-05 0)
(0.999906 7.87002e-05 0)
(0.999856 0.000102875 0)
(0.999801 0.000129539 0)
(0.999741 0.000159302 0)
(0.999677 0.000192873 0)
(0.999612 0.000230745 0)
(0.999545 0.000273609 0)
(0.999478 0.00032174 0)
(0.999413 0.000375622 0)
(0.999351 0.000435051 0)
(0.999294 0.000499933 0)
(0.999243 0.000569263 0)
(0.999201 0.000641936 0)
(0.999167 0.000716052 0)
(0.999142 0.000789705 0)
(0.999127 0.000860733 0)
(0.999121 0.00092734 0)
(0.999999 1.43383e-05 0)
(0.99998 3.79383e-05 0)
(0.999948 6.13871e-05 0)
(0.999907 8.57819e-05 0)
(0.999858 0.000112025 0)
(0.999804 0.000140875 0)
(0.999746 0.000172948 0)
(0.999684 0.000208928 0)
(0.999621 0.000249264 0)
(0.999557 0.000294533 0)
(0.999495 0.00034489 0)
(0.999434 0.000400579 0)
(0.999378 0.000461198 0)
(0.999326 0.000526306 0)
(0.999282 0.000594716 0)
(0.999246 0.000665058 0)
(0.999218 0.000735486 0)
(0.999198 0.000804202 0)
(0.999187 0.000869461 0)
(0.999182 0.000929953 0)
(0.999999 1.55536e-05 0)
(0.99998 4.11495e-05 0)
(0.999949 6.65529e-05 0)
(0.999909 9.29321e-05 0)
(0.999861 0.000121235 0)
(0.999808 0.000152237 0)
(0.999751 0.000186553 0)
(0.999692 0.000224826 0)
(0.999631 0.000267443 0)
(0.999571 0.000314854 0)
(0.999512 0.00036708 0)
(0.999456 0.000424128 0)
(0.999405 0.000485412 0)
(0.999359 0.000550212 0)
(0.999321 0.00061722 0)
(0.99929 0.000684948 0)
(0.999267 0.000751678 0)
(0.999251 0.00081582 0)
(0.999243 0.00087601 0)
(0.99924 0.000931324 0)
(0.999999 1.67839e-05 0)
(0.999981 4.43983e-05 0)
(0.99995 7.17706e-05 0)
(0.99991 0.000100136 0)
(0.999864 0.000130482 0)
(0.999812 0.000163595 0)
(0.999757 0.000200073 0)
(0.9997 0.000240507 0)
(0.999642 0.000285211 0)
(0.999585 0.000334495 0)
(0.99953 0.000388239 0)
(0.999479 0.000446229 0)
(0.999432 0.000507714 0)
(0.999392 0.00057177 0)
(0.999359 0.00063703 0)
(0.999333 0.000701992 0)
(0.999314 0.000765114 0)
(0.999302 0.000825052 0)
(0.999295 0.000880763 0)
(0.999294 0.000931627 0)
(0.999999 1.80275e-05 0)
(0.999981 4.76792e-05 0)
(0.999951 7.70304e-05 0)
(0.999912 0.000107379 0)
(0.999866 0.000139745 0)
(0.999816 0.000174915 0)
(0.999763 0.000213464 0)
(0.999708 0.000255917 0)
(0.999653 0.000302504 0)
(0.9996 0.000353388 0)
(0.999549 0.000408311 0)
(0.999502 0.000466858 0)
(0.99946 0.000528147 0)
(0.999425 0.000591113 0)
(0.999396 0.000654387 0)
(0.999374 0.000716531 0)
(0.999359 0.000776195 0)
(0.99935 0.000832281 0)
(0.999345 0.000884016 0)
(0.999344 0.00093101 0)
(0.999999 1.92822e-05 0)
(0.999981 5.09863e-05 0)
(0.999952 8.23216e-05 0)
(0.999914 0.000114643 0)
(0.99987 0.000148997 0)
(0.999821 0.000186162 0)
(0.99977 0.00022668 0)
(0.999717 0.000271001 0)
(0.999665 0.000319259 0)
(0.999615 0.000371476 0)
(0.999568 0.000427255 0)
(0.999526 0.000486015 0)
(0.999488 0.000546771 0)
(0.999457 0.000608383 0)
(0.999433 0.000669522 0)
(0.999415 0.00072886 0)
(0.999402 0.000785247 0)
(0.999395 0.00083781 0)
(0.999392 0.000885998 0)
(0.999392 0.00092959 0)
(0.999999 2.05457e-05 0)
(0.999982 5.43132e-05 0)
(0.999953 8.76326e-05 0)
(0.999916 0.000121911 0)
(0.999873 0.000158214 0)
(0.999826 0.000197303 0)
(0.999777 0.000239678 0)
(0.999727 0.000285706 0)
(0.999678 0.000335423 0)
(0.999631 0.000388709 0)
(0.999588 0.000445045 0)
(0.99955 0.000503711 0)
(0.999517 0.000563658 0)
(0.999489 0.000623718 0)
(0.999469 0.000682642 0)
(0.999453 0.000739235 0)
(0.999444 0.00079254 0)
(0.999438 0.000841882 0)
(0.999436 0.000886887 0)
(0.999437 0.000927466 0)
(0.999999 2.18154e-05 0)
(0.999982 5.76526e-05 0)
(0.999954 9.29511e-05 0)
(0.999918 0.000129164 0)
(0.999876 0.000167368 0)
(0.999831 0.000208301 0)
(0.999784 0.000252413 0)
(0.999737 0.000299982 0)
(0.999691 0.000350946 0)
(0.999648 0.000405049 0)
(0.999608 0.000461666 0)
(0.999574 0.000519973 0)
(0.999544 0.000578887 0)
(0.999521 0.000637258 0)
(0.999503 0.000693937 0)
(0.999491 0.000747875 0)
(0.999483 0.000798294 0)
(0.999479 0.000844689 0)
(0.999479 0.000886828 0)
(0.99948 0.000924718 0)
(0.999999 2.30887e-05 0)
(0.999983 6.0997e-05 0)
(0.999955 9.82638e-05 0)
(0.99992 0.000136382 0)
(0.99988 0.000176433 0)
(0.999837 0.000219122 0)
(0.999792 0.000264844 0)
(0.999748 0.000313785 0)
(0.999705 0.000365784 0)
(0.999665 0.000420465 0)
(0.999629 0.000477114 0)
(0.999598 0.000534834 0)
(0.999572 0.000592541 0)
(0.999552 0.000649134 0)
(0.999537 0.000703576 0)
(0.999527 0.000754969 0)
(0.999521 0.000802694 0)
(0.999519 0.000846389 0)
(0.999519 0.000885934 0)
(0.999521 0.000921411 0)
(0.999999 2.43625e-05 0)
(0.999983 6.43384e-05 0)
(0.999957 0.000103557 0)
(0.999923 0.000143544 0)
(0.999884 0.000185379 0)
(0.999843 0.00022973 0)
(0.9998 0.000276929 0)
(0.999759 0.000327071 0)
(0.999719 0.000379901 0)
(0.999682 0.000434937 0)
(0.999649 0.000491396 0)
(0.999622 0.000548339 0)
(0.999599 0.000604706 0)
(0.999582 0.000659468 0)
(0.99957 0.000711712 0)
(0.999562 0.000760679 0)
(0.999558 0.000805892 0)
(0.999556 0.00084711 0)
(0.999557 0.0008843 0)
(0.999559 0.000917599 0)
(0.999999 2.56338e-05 0)
(0.999984 6.76681e-05 0)
(0.999958 0.000108816 0)
(0.999925 0.000150629 0)
(0.999888 0.000194179 0)
(0.999849 0.00024009 0)
(0.999809 0.00028863 0)
(0.99977 0.000339803 0)
(0.999733 0.000393266 0)
(0.999699 0.000448451 0)
(0.99967 0.000504524 0)
(0.999646 0.000560533 0)
(0.999626 0.000615464 0)
(0.999612 0.000668375 0)
(0.999602 0.000718477 0)
(0.999595 0.000765142 0)
(0.999592 0.000808016 0)
(0.999592 0.000846957 0)
(0.999593 0.000882 0)
(0.999596 0.000913325 0)
(0.999999 2.68993e-05 0)
(0.999984 7.0977e-05 0)
(0.999959 0.000114025 0)
(0.999928 0.000157616 0)
(0.999893 0.000202805 0)
(0.999855 0.000250168 0)
(0.999818 0.000299909 0)
(0.999781 0.000351945 0)
(0.999747 0.000405855 0)
(0.999717 0.000460999 0)
(0.999691 0.000516519 0)
(0.999669 0.000571469 0)
(0.999652 0.000624898 0)
(0.99964 0.000675962 0)
(0.999632 0.000723991 0)
(0.999627 0.000768478 0)
(0.999626 0.000809174 0)
(0.999626 0.000846017 0)
(0.999628 0.000879098 0)
(0.999631 0.000908626 0)
(0.999999 2.81554e-05 0)
(0.999985 7.42557e-05 0)
(0.999961 0.00011917 0)
(0.999931 0.000164482 0)
(0.999897 0.000211228 0)
(0.999862 0.000259932 0)
(0.999827 0.000310733 0)
(0.999793 0.000363467 0)
(0.999762 0.000417648 0)
(0.999734 0.000472583 0)
(0.999711 0.000527405 0)
(0.999692 0.000581198 0)
(0.999678 0.000633085 0)
(0.999668 0.000682324 0)
(0.999662 0.000728359 0)
(0.999658 0.00077079 0)
(0.999657 0.000809457 0)
(0.999658 0.000844365 0)
(0.999661 0.000875646 0)
(0.999664 0.000903532 0)
(0.999999 2.93985e-05 0)
(0.999985 7.74943e-05 0)
(0.999962 0.000124233 0)
(0.999934 0.000171205 0)
(0.999902 0.000219421 0)
(0.999869 0.000269351 0)
(0.999836 0.000321071 0)
(0.999805 0.000374346 0)
(0.999776 0.000428633 0)
(0.999752 0.000483208 0)
(0.999731 0.000537211 0)
(0.999715 0.000589774 0)
(0.999703 0.0006401 0)
(0.999695 0.00068755 0)
(0.99969 0.000731674 0)
(0.999688 0.000772166 0)
(0.999688 0.000808943 0)
(0.999689 0.000842062 0)
(0.999692 0.000871688 0)
(0.999696 0.000898067 0)
(0.999999 3.06248e-05 0)
(0.999986 8.06828e-05 0)
(0.999964 0.000129198 0)
(0.999937 0.000177763 0)
(0.999907 0.000227355 0)
(0.999876 0.000278394 0)
(0.999845 0.000330895 0)
(0.999816 0.000384558 0)
(0.999791 0.000438802 0)
(0.999769 0.000492884 0)
(0.999751 0.00054597 0)
(0.999737 0.000597248 0)
(0.999727 0.000646012 0)
(0.999721 0.000691719 0)
(0.999717 0.000734018 0)
(0.999716 0.000772683 0)
(0.999717 0.000807697 0)
(0.999719 0.000839159 0)
(0.999722 0.000867259 0)
(0.999726 0.000892255 0)
(0.999999 3.18304e-05 0)
(0.999987 8.38106e-05 0)
(0.999966 0.00013405 0)
(0.99994 0.000184133 0)
(0.999912 0.000235005 0)
(0.999883 0.000287034 0)
(0.999855 0.000340179 0)
(0.999828 0.000394087 0)
(0.999805 0.00044815 0)
(0.999786 0.000501624 0)
(0.999771 0.000553714 0)
(0.999759 0.000603674 0)
(0.999751 0.000650887 0)
(0.999746 0.000694904 0)
(0.999744 0.000735463 0)
(0.999743 0.000772409 0)
(0.999745 0.000805777 0)
(0.999747 0.000835702 0)
(0.999751 0.000862392 0)
(0.999754 0.000886111 0)
(0.999999 3.30113e-05 0)
(0.999987 8.68673e-05 0)
(0.999968 0.00013877 0)
(0.999943 0.000190293 0)
(0.999917 0.000242346 0)
(0.99989 0.000295246 0)
(0.999864 0.000348902 0)
(0.99984 0.000402921 0)
(0.99982 0.000456679 0)
(0.999803 0.000509447 0)
(0.99979 0.000560478 0)
(0.99978 0.000609101 0)
(0.999774 0.000654785 0)
(0.99977 0.000697171 0)
(0.999769 0.000736074 0)
(0.999769 0.000771402 0)
(0.999771 0.000803232 0)
(0.999774 0.000831728 0)
(0.999778 0.000857112 0)
(0.999782 0.000879651 0)
(0.999999 3.41634e-05 0)
(0.999988 8.98422e-05 0)
(0.999969 0.000143344 0)
(0.999947 0.000196223 0)
(0.999922 0.000249354 0)
(0.999897 0.000303006 0)
(0.999873 0.000357046 0)
(0.999852 0.000411049 0)
(0.999834 0.000464393 0)
(0.999819 0.000516373 0)
(0.999808 0.000566299 0)
(0.9998 0.000613578 0)
(0.999795 0.000657763 0)
(0.999793 0.000698578 0)
(0.999793 0.000735908 0)
(0.999794 0.000769712 0)
(0.999797 0.000800105 0)
(0.9998 0.000827271 0)
(0.999804 0.000851442 0)
(0.999808 0.000872888 0)
(0.999999 3.52828e-05 0)
(0.999989 9.27249e-05 0)
(0.999971 0.000147753 0)
(0.99995 0.000201902 0)
(0.999927 0.000256006 0)
(0.999904 0.000310293 0)
(0.999883 0.000364595 0)
(0.999864 0.000418468 0)
(0.999848 0.000471299 0)
(0.999835 0.000522423 0)
(0.999826 0.000571212 0)
(0.99982 0.00061715 0)
(0.999816 0.000659873 0)
(0.999815 0.00069918 0)
(0.999816 0.000735016 0)
(0.999818 0.000767386 0)
(0.999821 0.000796433 0)
(0.999824 0.000822359 0)
(0.999828 0.000845402 0)
(0.999832 0.000865832 0)
(0.999999 3.63652e-05 0)
(0.999989 9.55046e-05 0)
(0.999973 0.000151983 0)
(0.999953 0.000207309 0)
(0.999932 0.000262282 0)
(0.999912 0.000317089 0)
(0.999892 0.000371537 0)
(0.999876 0.000425174 0)
(0.999862 0.000477409 0)
(0.999851 0.000527621 0)
(0.999844 0.000575252 0)
(0.999839 0.000619862 0)
(0.999837 0.000661164 0)
(0.999836 0.000699025 0)
(0.999838 0.000733443 0)
(0.99984 0.000764462 0)
(0.999843 0.000792248 0)
(0.999847 0.000817016 0)
(0.999851 0.000839009 0)
(0.999856 0.000858494 0)
(1 3.74068e-05 0)
(0.99999 9.81711e-05 0)
(0.999975 0.000156018 0)
(0.999957 0.000212428 0)
(0.999937 0.000268163 0)
(0.999919 0.000323379 0)
(0.999902 0.000377863 0)
(0.999887 0.00043117 0)
(0.999875 0.000482735 0)
(0.999866 0.000531993 0)
(0.999861 0.000578454 0)
(0.999857 0.000621755 0)
(0.999856 0.00066168 0)
(0.999857 0.000698157 0)
(0.999859 0.000731232 0)
(0.999862 0.000760977 0)
(0.999865 0.00078758 0)
(0.999869 0.000811265 0)
(0.999873 0.000832277 0)
(0.999878 0.000850881 0)
(1 3.84035e-05 0)
(0.999991 0.000100714 0)
(0.999977 0.000159843 0)
(0.99996 0.00021724 0)
(0.999943 0.000273632 0)
(0.999926 0.000329149 0)
(0.999911 0.000383569 0)
(0.999898 0.000436458 0)
(0.999888 0.000487292 0)
(0.999881 0.000535563 0)
(0.999877 0.000580852 0)
(0.999875 0.000622869 0)
(0.999875 0.000661463 0)
(0.999876 0.000696618 0)
(0.999879 0.000728417 0)
(0.999882 0.000756962 0)
(0.999886 0.000782454 0)
(0.99989 0.000805125 0)
(0.999894 0.000825219 0)
(0.999899 0.000843001 0)
(1 3.93515e-05 0)
(0.999991 0.000103124 0)
(0.999979 0.000163445 0)
(0.999963 0.00022173 0)
(0.999948 0.000278674 0)
(0.999933 0.000334388 0)
(0.99992 0.00038865 0)
(0.999909 0.000441046 0)
(0.999901 0.000491097 0)
(0.999895 0.000538359 0)
(0.999892 0.000582481 0)
(0.999891 0.000623241 0)
(0.999892 0.000660552 0)
(0.999894 0.000694443 0)
(0.999897 0.000725033 0)
(0.999901 0.000752445 0)
(0.999905 0.000776893 0)
(0.99991 0.000798613 0)
(0.999914 0.000817849 0)
(0.999918 0.00083486 0)
(1 4.0247e-05 0)
(0.999992 0.000105393 0)
(0.99998 0.000166811 0)
(0.999967 0.000225884 0)
(0.999953 0.000283278 0)
(0.99994 0.00033909 0)
(0.999929 0.000393106 0)
(0.99992 0.000444942 0)
(0.999913 0.000494169 0)
(0.999909 0.000540406 0)
(0.999907 0.000583371 0)
(0.999907 0.000622908 0)
(0.999909 0.000658982 0)
(0.999912 0.000691667 0)
(0.999915 0.000721111 0)
(0.999919 0.000747453 0)
(0.999924 0.000770919 0)
(0.999928 0.000791745 0)
(0.999933 0.000810175 0)
(0.999937 0.000826466 0)
(1 4.10867e-05 0)
(0.999993 0.00010751 0)
(0.999982 0.000169928 0)
(0.99997 0.000229689 0)
(0.999958 0.000287432 0)
(0.999947 0.000343249 0)
(0.999937 0.00039694 0)
(0.99993 0.000448157 0)
(0.999925 0.000496527 0)
(0.999922 0.000541732 0)
(0.999922 0.000583555 0)
(0.999923 0.000621902 0)
(0.999925 0.000656787 0)
(0.999928 0.000688321 0)
(0.999932 0.000716677 0)
(0.999936 0.00074201 0)
(0.999941 0.000764549 0)
(0.999946 0.000784535 0)
(0.99995 0.00080221 0)
(0.999955 0.000817824 0)
(1 4.18672e-05 0)
(0.999994 0.000109469 0)
(0.999984 0.000172787 0)
(0.999973 0.000233135 0)
(0.999963 0.000291129 0)
(0.999953 0.000346863 0)
(0.999945 0.000400156 0)
(0.99994 0.000450705 0)
(0.999936 0.000498191 0)
(0.999935 0.000542361 0)
(0.999935 0.000583063 0)
(0.999937 0.000620254 0)
(0.99994 0.000653997 0)
(0.999944 0.000684434 0)
(0.999948 0.000711758 0)
(0.999953 0.000736136 0)
(0.999957 0.000757802 0)
(0.999962 0.000776998 0)
(0.999967 0.000793961 0)
(0.999971 0.000808939 0)
(1 4.25856e-05 0)
(0.999994 0.000111262 0)
(0.999986 0.000175378 0)
(0.999977 0.000236212 0)
(0.999967 0.000294363 0)
(0.99996 0.00034993 0)
(0.999953 0.000402762 0)
(0.999949 0.000452598 0)
(0.999947 0.000499182 0)
(0.999947 0.000542321 0)
(0.999948 0.000581923 0)
(0.99995 0.000617996 0)
(0.999954 0.000650642 0)
(0.999958 0.000680032 0)
(0.999963 0.000706377 0)
(0.999968 0.000729851 0)
(0.999973 0.000750694 0)
(0.999977 0.000769144 0)
(0.999982 0.000785438 0)
(0.999986 0.000799817 0)
(1 4.32391e-05 0)
(0.999995 0.000112883 0)
(0.999988 0.000177693 0)
(0.99998 0.000238914 0)
(0.999972 0.00029713 0)
(0.999966 0.000352454 0)
(0.999961 0.000404765 0)
(0.999958 0.000453854 0)
(0.999957 0.000499522 0)
(0.999958 0.000541637 0)
(0.99996 0.000580163 0)
(0.999963 0.000615155 0)
(0.999967 0.000646749 0)
(0.999972 0.00067514 0)
(0.999977 0.000700555 0)
(0.999982 0.000723174 0)
(0.999987 0.000743238 0)
(0.999992 0.000760986 0)
(0.999996 0.000776648 0)
(1 0.000790462 0)
(1 4.38255e-05 0)
(0.999996 0.000114326 0)
(0.999989 0.000179726 0)
(0.999983 0.000241236 0)
(0.999977 0.00029943 0)
(0.999972 0.000354438 0)
(0.999968 0.000406176 0)
(0.999967 0.000454488 0)
(0.999967 0.000499232 0)
(0.999969 0.000540335 0)
(0.999971 0.000577811 0)
(0.999975 0.000611759 0)
(0.99998 0.000642343 0)
(0.999985 0.000669782 0)
(0.99999 0.000694313 0)
(0.999995 0.000716121 0)
(1 0.000735449 0)
(1 0.000752533 0)
(1.00001 0.000767599 0)
(1.00001 0.000780881 0)
(1 4.43426e-05 0)
(0.999996 0.000115588 0)
(0.999991 0.000181472 0)
(0.999986 0.000243174 0)
(0.999981 0.000301263 0)
(0.999977 0.000355888 0)
(0.999975 0.000407009 0)
(0.999975 0.000454519 0)
(0.999976 0.000498335 0)
(0.999979 0.00053844 0)
(0.999982 0.000574893 0)
(0.999987 0.000607832 0)
(0.999991 0.000637449 0)
(0.999997 0.000663979 0)
(1 0.00068767 0)
(1.00001 0.000708709 0)
(1.00001 0.000727341 0)
(1.00002 0.000743796 0)
(1.00002 0.000758299 0)
(1.00003 0.000771078 0)
(1 4.4789e-05 0)
(0.999997 0.000116664 0)
(0.999993 0.000182928 0)
(0.999988 0.000244728 0)
(0.999985 0.000302631 0)
(0.999983 0.000356814 0)
(0.999982 0.000407276 0)
(0.999982 0.000453966 0)
(0.999985 0.000496854 0)
(0.999988 0.000535975 0)
(0.999992 0.000571434 0)
(0.999997 0.0006034 0)
(1 0.000632089 0)
(1.00001 0.000657752 0)
(1.00001 0.000680643 0)
(1.00002 0.000700953 0)
(1.00002 0.000718924 0)
(1.00003 0.000734785 0)
(1.00003 0.000748755 0)
(1.00004 0.000761058 0)
(1 4.51635e-05 0)
(0.999998 0.000117553 0)
(0.999994 0.000184092 0)
(0.999991 0.000245898 0)
(0.999989 0.000303541 0)
(0.999988 0.000357225 0)
(0.999988 0.000406994 0)
(0.99999 0.000452847 0)
(0.999993 0.000494811 0)
(0.999997 0.000532967 0)
(1 0.000567459 0)
(1.00001 0.000598486 0)
(1.00001 0.000626285 0)
(1.00002 0.00065112 0)
(1.00002 0.00067325 0)
(1.00003 0.000692867 0)
(1.00003 0.000710211 0)
(1.00004 0.000725509 0)
(1.00004 0.000738974 0)
(1.00005 0.000750827 0)
(1 4.54652e-05 0)
(0.999998 0.000118253 0)
(0.999996 0.000184963 0)
(0.999994 0.000246687 0)
(0.999992 0.000303999 0)
(0.999992 0.000357133 0)
(0.999994 0.000406177 0)
(0.999996 0.000451184 0)
(1 0.000492229 0)
(1 0.000529438 0)
(1.00001 0.000562991 0)
(1.00002 0.000593113 0)
(1.00002 0.000620059 0)
(1.00003 0.000644102 0)
(1.00003 0.000665507 0)
(1.00004 0.000684465 0)
(1.00004 0.000701215 0)
(1.00005 0.000715977 0)
(1.00005 0.000728964 0)
(1.00006 0.000740389 0)
(1 4.56937e-05 0)
(0.999999 0.000118763 0)
(0.999997 0.000185542 0)
(0.999996 0.0002471 0)
(0.999996 0.000304013 0)
(0.999997 0.00035655 0)
(0.999999 0.000404845 0)
(1 0.000448997 0)
(1.00001 0.000489131 0)
(1.00001 0.000525412 0)
(1.00002 0.000558054 0)
(1.00002 0.000587303 0)
(1.00003 0.00061343 0)
(1.00004 0.000636716 0)
(1.00004 0.00065743 0)
(1.00005 0.000675761 0)
(1.00005 0.000691945 0)
(1.00006 0.000706199 0)
(1.00006 0.000718731 0)
(1.00007 0.000729751 0)
(1 4.58489e-05 0)
(0.999999 0.000119084 0)
(0.999998 0.000185833 0)
(0.999998 0.000247141 0)
(0.999999 0.000303594 0)
(1 0.000355493 0)
(1 0.000403014 0)
(1.00001 0.000446307 0)
(1.00001 0.000485539 0)
(1.00002 0.000520913 0)
(1.00003 0.000552671 0)
(1.00003 0.000581078 0)
(1.00004 0.000606419 0)
(1.00004 0.00062898 0)
(1.00005 0.000649035 0)
(1.00006 0.000666768 0)
(1.00006 0.000682413 0)
(1.00007 0.000696184 0)
(1.00007 0.000708284 0)
(1.00007 0.000718918 0)
(1 4.59312e-05 0)
(1 0.000119217 0)
(1 0.00018584 0)
(1 0.000246819 0)
(1 0.000302753 0)
(1 0.000353975 0)
(1.00001 0.000400705 0)
(1.00001 0.000443136 0)
(1.00002 0.000481477 0)
(1.00003 0.000515964 0)
(1.00003 0.000546863 0)
(1.00004 0.000574458 0)
(1.00004 0.000599044 0)
(1.00005 0.000620912 0)
(1.00006 0.000640336 0)
(1.00006 0.000657499 0)
(1.00007 0.000672631 0)
(1.00007 0.000685942 0)
(1.00008 0.00069763 0)
(1.00008 0.000707897 0)
(1 4.59413e-05 0)
(1 0.000119167 0)
(1 0.000185567 0)
(1 0.000246143 0)
(1 0.000301504 0)
(1.00001 0.000352014 0)
(1.00001 0.000397937 0)
(1.00002 0.000439506 0)
(1.00002 0.000476967 0)
(1.00003 0.000510587 0)
(1.00004 0.000540653 0)
(1.00004 0.000567465 0)
(1.00005 0.000591324 0)
(1.00006 0.000612527 0)
(1.00006 0.000631348 0)
(1.00007 0.000647967 0)
(1.00007 0.000662609 0)
(1.00008 0.000675482 0)
(1.00008 0.000686778 0)
(1.00009 0.000696695 0)
(1 4.58802e-05 0)
(1 0.000118934 0)
(1 0.000185021 0)
(1 0.000245124 0)
(1.00001 0.00029986 0)
(1.00001 0.000349629 0)
(1.00002 0.00039473 0)
(1.00002 0.000435439 0)
(1.00003 0.000472032 0)
(1.00004 0.000504804 0)
(1.00004 0.000534062 0)
(1.00005 0.000560117 0)
(1.00006 0.000583277 0)
(1.00006 0.000603843 0)
(1.00007 0.000622087 0)
(1.00007 0.000638185 0)
(1.00008 0.00065236 0)
(1.00008 0.000664814 0)
(1.00009 0.000675735 0)
(1.00009 0.000685319 0)
(1 4.57495e-05 0)
(1 0.000118526 0)
(1 0.000184211 0)
(1.00001 0.000243771 0)
(1.00001 0.000297837 0)
(1.00001 0.000346836 0)
(1.00002 0.000391106 0)
(1.00003 0.000430956 0)
(1.00003 0.000466694 0)
(1.00004 0.000498639 0)
(1.00005 0.000527112 0)
(1.00005 0.000552435 0)
(1.00006 0.000574923 0)
(1.00007 0.000594876 0)
(1.00007 0.000612567 0)
(1.00008 0.000628166 0)
(1.00009 0.000641894 0)
(1.00009 0.000653948 0)
(1.00009 0.000664511 0)
(1.0001 0.000673776 0)
(1 4.5551e-05 0)
(1 0.000117945 0)
(1 0.000183145 0)
(1.00001 0.0002421 0)
(1.00001 0.000295451 0)
(1.00002 0.000343656 0)
(1.00002 0.000387085 0)
(1.00003 0.000426081 0)
(1.00004 0.000460977 0)
(1.00004 0.000492113 0)
(1.00005 0.000519823 0)
(1.00006 0.000544439 0)
(1.00007 0.000566278 0)
(1.00007 0.000585643 0)
(1.00008 0.000602802 0)
(1.00008 0.000617923 0)
(1.00009 0.000631223 0)
(1.00009 0.000642894 0)
(1.0001 0.000653115 0)
(1.0001 0.000662074 0)
(1 4.52869e-05 0)
(1 0.000117199 0)
(1 0.000181833 0)
(1.00001 0.000240122 0)
(1.00001 0.000292719 0)
(1.00002 0.000340108 0)
(1.00003 0.00038269 0)
(1.00003 0.000420835 0)
(1.00004 0.000454902 0)
(1.00005 0.000485247 0)
(1.00006 0.000512217 0)
(1.00006 0.000536148 0)
(1.00007 0.000557361 0)
(1.00008 0.000576158 0)
(1.00008 0.000592807 0)
(1.00009 0.00060747 0)
(1.00009 0.000620359 0)
(1.0001 0.000631662 0)
(1.0001 0.000641556 0)
(1.00011 0.000650223 0)
(1 4.49596e-05 0)
(1 0.000116293 0)
(1.00001 0.000180285 0)
(1.00001 0.000237853 0)
(1.00002 0.000289659 0)
(1.00002 0.000336212 0)
(1.00003 0.000377941 0)
(1.00004 0.000415241 0)
(1.00004 0.000448492 0)
(1.00005 0.000478063 0)
(1.00006 0.000504312 0)
(1.00007 0.00052758 0)
(1.00007 0.000548188 0)
(1.00008 0.000566439 0)
(1.00009 0.000582597 0)
(1.00009 0.000596819 0)
(1.0001 0.000609314 0)
(1.0001 0.000620265 0)
(1.00011 0.000629844 0)
(1.00011 0.000638231 0)
(1 4.4572e-05 0)
(1 0.000115236 0)
(1.00001 0.000178513 0)
(1.00001 0.000235307 0)
(1.00002 0.000286289 0)
(1.00002 0.000331989 0)
(1.00003 0.000372861 0)
(1.00004 0.000409321 0)
(1.00005 0.000441768 0)
(1.00005 0.000470583 0)
(1.00006 0.00049613 0)
(1.00007 0.000518754 0)
(1.00008 0.000538778 0)
(1.00008 0.000556502 0)
(1.00009 0.000572186 0)
(1.00009 0.000585985 0)
(1.0001 0.0005981 0)
(1.0001 0.000608712 0)
(1.00011 0.000617989 0)
(1.00011 0.000626107 0)
(1 4.41268e-05 0)
(1 0.000114034 0)
(1.00001 0.000176529 0)
(1.00001 0.0002325 0)
(1.00002 0.000282628 0)
(1.00003 0.000327459 0)
(1.00003 0.00036747 0)
(1.00004 0.000403097 0)
(1.00005 0.000434752 0)
(1.00006 0.000462826 0)
(1.00006 0.00048769 0)
(1.00007 0.000509689 0)
(1.00008 0.000529147 0)
(1.00008 0.000546361 0)
(1.00009 0.000561589 0)
(1.0001 0.000574979 0)
(1.0001 0.00058673 0)
(1.00011 0.000597016 0)
(1.00011 0.000606002 0)
(1.00011 0.000613861 0)
(1 4.36271e-05 0)
(1 0.000112696 0)
(1.00001 0.000174345 0)
(1.00001 0.000229449 0)
(1.00002 0.000278693 0)
(1.00003 0.000322643 0)
(1.00003 0.000361792 0)
(1.00004 0.000396591 0)
(1.00005 0.000427466 0)
(1.00006 0.000454815 0)
(1.00007 0.000479012 0)
(1.00007 0.000500404 0)
(1.00008 0.000519313 0)
(1.00009 0.000536034 0)
(1.00009 0.000550821 0)
(1.0001 0.000563817 0)
(1.0001 0.000575215 0)
(1.00011 0.000585187 0)
(1.00011 0.000593893 0)
(1.00011 0.000601502 0)
(1 4.30762e-05 0)
(1 0.00011123 0)
(1.00001 0.000171973 0)
(1.00001 0.000226169 0)
(1.00002 0.000274505 0)
(1.00003 0.000317562 0)
(1.00004 0.000355846 0)
(1.00004 0.000389824 0)
(1.00005 0.000419931 0)
(1.00006 0.000446569 0)
(1.00007 0.000470115 0)
(1.00007 0.000490916 0)
(1.00008 0.000509293 0)
(1.00009 0.000525536 0)
(1.00009 0.000539896 0)
(1.0001 0.00055251 0)
(1.0001 0.000563569 0)
(1.00011 0.000573238 0)
(1.00011 0.000581673 0)
(1.00012 0.000589042 0)
(1 4.24772e-05 0)
(1 0.000109644 0)
(1.00001 0.000169427 0)
(1.00001 0.000222676 0)
(1.00002 0.000270082 0)
(1.00003 0.000312235 0)
(1.00004 0.000349655 0)
(1.00004 0.000382819 0)
(1.00005 0.000412167 0)
(1.00006 0.000438107 0)
(1.00007 0.000461017 0)
(1.00008 0.000481243 0)
(1.00008 0.000499102 0)
(1.00009 0.000514882 0)
(1.00009 0.000528829 0)
(1.0001 0.000541074 0)
(1.0001 0.000551804 0)
(1.00011 0.00056118 0)
(1.00011 0.000569354 0)
(1.00012 0.00057649 0)
(1 4.18336e-05 0)
(1 0.000107946 0)
(1.00001 0.000166719 0)
(1.00001 0.000218987 0)
(1.00002 0.000265442 0)
(1.00003 0.000306682 0)
(1.00004 0.000343238 0)
(1.00005 0.000375594 0)
(1.00005 0.000404195 0)
(1.00006 0.000429451 0)
(1.00007 0.000451739 0)
(1.00008 0.000471404 0)
(1.00008 0.000488759 0)
(1.00009 0.000504088 0)
(1.00009 0.000517634 0)
(1.0001 0.000529522 0)
(1.0001 0.000539933 0)
(1.00011 0.000549025 0)
(1.00011 0.000556947 0)
(1.00012 0.000563859 0)
(1 4.11488e-05 0)
(1 0.000106147 0)
(1.00001 0.000163863 0)
(1.00001 0.000215118 0)