/*--------------------------------*- C++ -*----------------------------------*\
| =========                 |                                                 |
| \\      /  F ield         | OpenFOAM: The Open Source CFD Toolbox           |
|  \\    /   O peration     | Version:  2.4.0                                 |
|   \\  /    A nd           | Web:      www.OpenFOAM.org                      |
|    \\/     M anipulation  |                                                 |
\*---------------------------------------------------------------------------*/
FoamFile
{
    version     2.0;
    format      ascii;
    class       volScalarField;
    location    "1.26";
    object      nut;
}
// * * * * * * * * * * * * * * * * * * * * * * * * * * * * * * * * * * * * * //

dimensions      [0 2 -1 0 0 0 0];

internalField   nonuniform List<scalar> 
6000
(
2.40581e-05
2.70589e-05
2.95827e-05
3.16182e-05
3.31908e-05
3.4349e-05
3.51522e-05
3.56632e-05
3.59428e-05
3.60456e-05
3.60189e-05
3.59013e-05
3.57235e-05
3.55095e-05
3.52772e-05
3.50397e-05
3.48061e-05
3.45828e-05
3.43736e-05
3.41807e-05
3.40047e-05
3.38457e-05
3.37027e-05
3.35744e-05
3.34591e-05
3.33551e-05
3.32606e-05
3.31738e-05
3.30931e-05
3.3017e-05
3.29443e-05
3.28738e-05
3.28047e-05
3.27363e-05
3.26679e-05
3.25992e-05
3.25297e-05
3.2459e-05
3.23867e-05
3.23123e-05
3.22351e-05
3.21543e-05
3.20689e-05
3.19774e-05
3.18779e-05
3.17679e-05
3.16444e-05
3.15031e-05
3.13388e-05
3.11448e-05
3.09121e-05
3.06295e-05
3.02825e-05
2.9852e-05
2.93155e-05
2.86405e-05
2.78073e-05
2.67434e-05
2.56024e-05
2.39755e-05
4.52336e-05
3.94809e-05
3.46735e-05
3.09934e-05
2.83843e-05
2.66578e-05
2.56033e-05
2.50492e-05
2.48725e-05
2.49878e-05
2.53361e-05
2.58759e-05
2.65768e-05
2.74154e-05
2.8372e-05
2.94292e-05
3.05701e-05
3.17781e-05
3.30362e-05
3.43275e-05
3.5635e-05
3.69422e-05
3.82337e-05
3.94954e-05
4.07152e-05
4.18831e-05
4.29917e-05
4.4036e-05
4.50133e-05
4.59233e-05
4.67675e-05
4.75491e-05
4.82723e-05
4.89421e-05
4.9564e-05
5.01435e-05
5.06861e-05
5.1197e-05
5.16807e-05
5.21415e-05
5.25831e-05
5.30088e-05
5.34213e-05
5.38235e-05
5.42177e-05
5.46067e-05
5.49937e-05
5.53827e-05
5.57791e-05
5.6191e-05
5.66301e-05
5.71151e-05
5.76747e-05
5.83552e-05
5.92296e-05
6.04177e-05
6.21039e-05
6.4569e-05
6.79802e-05
7.62517e-05
4.98371e-05
4.86949e-05
4.7185e-05
4.5293e-05
4.30833e-05
4.06954e-05
3.82785e-05
3.59526e-05
3.37986e-05
3.18622e-05
3.01626e-05
2.8702e-05
2.74735e-05
2.64662e-05
2.56681e-05
2.50676e-05
2.46542e-05
2.44183e-05
2.43516e-05
2.44463e-05
2.46951e-05
2.50905e-05
2.56249e-05
2.62901e-05
2.70774e-05
2.7977e-05
2.89787e-05
3.00715e-05
3.12437e-05
3.24835e-05
3.37787e-05
3.51171e-05
3.6487e-05
3.78773e-05
3.92773e-05
4.06776e-05
4.20696e-05
4.34459e-05
4.48004e-05
4.61278e-05
4.74242e-05
4.86864e-05
4.99119e-05
5.1099e-05
5.22461e-05
5.3352e-05
5.44153e-05
5.54343e-05
5.64073e-05
5.73323e-05
5.82081e-05
5.90355e-05
5.98207e-05
6.05824e-05
6.13633e-05
6.22634e-05
6.34706e-05
6.54411e-05
6.86443e-05
7.71583e-05
5.00841e-05
4.95483e-05
4.89992e-05
4.84047e-05
4.7734e-05
4.69673e-05
4.60975e-05
4.51292e-05
4.40764e-05
4.29587e-05
4.17979e-05
4.06145e-05
3.94267e-05
3.82493e-05
3.70943e-05
3.59709e-05
3.48868e-05
3.38482e-05
3.28609e-05
3.19305e-05
3.10626e-05
3.02632e-05
2.95385e-05
2.88951e-05
2.83394e-05
2.78779e-05
2.75165e-05
2.72605e-05
2.71142e-05
2.70811e-05
2.71635e-05
2.73623e-05
2.76776e-05
2.8108e-05
2.86514e-05
2.93044e-05
3.00629e-05
3.09218e-05
3.18754e-05
3.29174e-05
3.4041e-05
3.52394e-05
3.65051e-05
3.78312e-05
3.92106e-05
4.06368e-05
4.21039e-05
4.36065e-05
4.51404e-05
4.67024e-05
4.82907e-05
4.99049e-05
5.15468e-05
5.3222e-05
5.49424e-05
5.67427e-05
5.86908e-05
6.10534e-05
6.41457e-05
7.09199e-05
5.00958e-05
4.96032e-05
4.91474e-05
4.87183e-05
4.83056e-05
4.7899e-05
4.74892e-05
4.70678e-05
4.66286e-05
4.61673e-05
4.56815e-05
4.51709e-05
4.46362e-05
4.40792e-05
4.35023e-05
4.29081e-05
4.22992e-05
4.16782e-05
4.10473e-05
4.04088e-05
3.97643e-05
3.91158e-05
3.84648e-05
3.7813e-05
3.71623e-05
3.65146e-05
3.58724e-05
3.52383e-05
3.46159e-05
3.40091e-05
3.34224e-05
3.28612e-05
3.23314e-05
3.18392e-05
3.13914e-05
3.0995e-05
3.06569e-05
3.0384e-05
3.0183e-05
3.00603e-05
3.00218e-05
3.00732e-05
3.02198e-05
3.0467e-05
3.08201e-05
3.12852e-05
3.18691e-05
3.25805e-05
3.34302e-05
3.44326e-05
3.5606e-05
3.69745e-05
3.85682e-05
4.04244e-05
4.2587e-05
4.51072e-05
4.80384e-05
5.14994e-05
5.56025e-05
6.19158e-05
5.00963e-05
4.96062e-05
4.91573e-05
4.87436e-05
4.83595e-05
4.80003e-05
4.76612e-05
4.73381e-05
4.70267e-05
4.67236e-05
4.64253e-05
4.61292e-05
4.58328e-05
4.55342e-05
4.52321e-05
4.49251e-05
4.46127e-05
4.42941e-05
4.39692e-05
4.36376e-05
4.32995e-05
4.29547e-05
4.26035e-05
4.22459e-05
4.1882e-05
4.15119e-05
4.11358e-05
4.07536e-05
4.03655e-05
3.99715e-05
3.95717e-05
3.91661e-05
3.87549e-05
3.83383e-05
3.79163e-05
3.74895e-05
3.70582e-05
3.66229e-05
3.61844e-05
3.57435e-05
3.53014e-05
3.48592e-05
3.44187e-05
3.3982e-05
3.35519e-05
3.31325e-05
3.27298e-05
3.23529e-05
3.2016e-05
3.17408e-05
3.15606e-05
3.15244e-05
3.17033e-05
3.21952e-05
3.31291e-05
3.46649e-05
3.69842e-05
4.02855e-05
4.47382e-05
5.10238e-05
5.00962e-05
4.96062e-05
4.91577e-05
4.8745e-05
4.83636e-05
4.80093e-05
4.7679e-05
4.73694e-05
4.70779e-05
4.68021e-05
4.65397e-05
4.62889e-05
4.60476e-05
4.58144e-05
4.55877e-05
4.53661e-05
4.51486e-05
4.4934e-05
4.47214e-05
4.45101e-05
4.42992e-05
4.40883e-05
4.38769e-05
4.36644e-05
4.34505e-05
4.3235e-05
4.30175e-05
4.27978e-05
4.25757e-05
4.2351e-05
4.21235e-05
4.1893e-05
4.16592e-05
4.14219e-05
4.11807e-05
4.09352e-05
4.06848e-05
4.04287e-05
4.01662e-05
3.98959e-05
3.96161e-05
3.93248e-05
3.90191e-05
3.86952e-05
3.83478e-05
3.79703e-05
3.75536e-05
3.70863e-05
3.65538e-05
3.59395e-05
3.52267e-05
3.44053e-05
3.34854e-05
3.25219e-05
3.16471e-05
3.11073e-05
3.12625e-05
3.2577e-05
3.54946e-05
4.05898e-05
5.00962e-05
4.96061e-05
4.91575e-05
4.87448e-05
4.83634e-05
4.80095e-05
4.76799e-05
4.73719e-05
4.70829e-05
4.6811e-05
4.65544e-05
4.63113e-05
4.60804e-05
4.58603e-05
4.565e-05
4.54483e-05
4.52542e-05
4.50669e-05
4.48856e-05
4.47095e-05
4.4538e-05
4.43704e-05
4.42061e-05
4.40447e-05
4.38857e-05
4.37287e-05
4.35733e-05
4.34191e-05
4.32658e-05
4.31132e-05
4.29609e-05
4.28088e-05
4.26566e-05
4.2504e-05
4.23509e-05
4.21968e-05
4.20417e-05
4.1885e-05
4.17263e-05
4.15651e-05
4.14006e-05
4.12318e-05
4.10573e-05
4.08753e-05
4.0683e-05
4.04767e-05
4.0251e-05
3.9998e-05
3.97057e-05
3.93563e-05
3.89221e-05
3.83616e-05
3.76141e-05
3.66004e-05
3.52448e-05
3.35549e-05
3.17548e-05
3.04799e-05
3.05595e-05
3.30868e-05
5.00962e-05
4.9606e-05
4.91573e-05
4.87444e-05
4.8363e-05
4.8009e-05
4.76794e-05
4.73714e-05
4.70827e-05
4.68112e-05
4.65552e-05
4.63133e-05
4.6084e-05
4.58662e-05
4.56588e-05
4.5461e-05
4.52719e-05
4.50907e-05
4.49167e-05
4.47493e-05
4.45879e-05
4.4432e-05
4.42811e-05
4.41348e-05
4.39926e-05
4.38542e-05
4.37191e-05
4.35871e-05
4.34579e-05
4.33311e-05
4.32066e-05
4.30839e-05
4.2963e-05
4.28436e-05
4.27255e-05
4.26083e-05
4.24921e-05
4.23764e-05
4.2261e-05
4.21456e-05
4.203e-05
4.19135e-05
4.17957e-05
4.16759e-05
4.15529e-05
4.14255e-05
4.12915e-05
4.11482e-05
4.09911e-05
4.08129e-05
4.0602e-05
4.03377e-05
3.99825e-05
3.94676e-05
3.86686e-05
3.73887e-05
3.53979e-05
3.27827e-05
3.02145e-05
2.95668e-05
5.00962e-05
4.96059e-05
4.91571e-05
4.87442e-05
4.83626e-05
4.80085e-05
4.76788e-05
4.73707e-05
4.70819e-05
4.68104e-05
4.65545e-05
4.63126e-05
4.60835e-05
4.5866e-05
4.56591e-05
4.54619e-05
4.52736e-05
4.50936e-05
4.49211e-05
4.47555e-05
4.45964e-05
4.44433e-05
4.42957e-05
4.41533e-05
4.40156e-05
4.38823e-05
4.37531e-05
4.36277e-05
4.35058e-05
4.33873e-05
4.32717e-05
4.3159e-05
4.30488e-05
4.2941e-05
4.28355e-05
4.27319e-05
4.26302e-05
4.25301e-05
4.24314e-05
4.2334e-05
4.22376e-05
4.21419e-05
4.20468e-05
4.19519e-05
4.18567e-05
4.17607e-05
4.16632e-05
4.15633e-05
4.14596e-05
4.135e-05
4.12311e-05
4.10964e-05
4.09331e-05
4.07135e-05
4.03751e-05
3.97779e-05
3.86207e-05
3.6476e-05
3.30086e-05
2.97633e-05
5.00962e-05
4.96059e-05
4.9157e-05
4.8744e-05
4.83623e-05
4.80081e-05
4.76783e-05
4.73702e-05
4.70813e-05
4.68097e-05
4.65537e-05
4.63117e-05
4.60826e-05
4.58651e-05
4.56582e-05
4.54611e-05
4.52729e-05
4.5093e-05
4.49207e-05
4.47555e-05
4.45968e-05
4.44443e-05
4.42974e-05
4.41558e-05
4.40191e-05
4.38871e-05
4.37594e-05
4.36358e-05
4.35159e-05
4.33997e-05
4.32867e-05
4.31769e-05
4.30701e-05
4.2966e-05
4.28646e-05
4.27655e-05
4.26688e-05
4.25741e-05
4.24814e-05
4.23905e-05
4.23013e-05
4.22136e-05
4.21272e-05
4.20419e-05
4.19576e-05
4.18741e-05
4.17911e-05
4.17084e-05
4.16258e-05
4.1543e-05
4.14595e-05
4.13746e-05
4.12858e-05
4.11865e-05
4.10564e-05
4.0838e-05
4.03613e-05
3.92334e-05
3.65908e-05
3.24935e-05
5.00962e-05
4.96058e-05
4.91569e-05
4.87438e-05
4.8362e-05
4.80078e-05
4.76779e-05
4.73697e-05
4.70807e-05
4.6809e-05
4.65529e-05
4.63109e-05
4.60817e-05
4.58642e-05
4.56573e-05
4.54601e-05
4.52719e-05
4.5092e-05
4.49197e-05
4.47545e-05
4.45959e-05
4.44434e-05
4.42967e-05
4.41552e-05
4.40188e-05
4.3887e-05
4.37596e-05
4.36364e-05
4.3517e-05
4.34013e-05
4.32891e-05
4.31801e-05
4.30742e-05
4.29711e-05
4.28709e-05
4.27732e-05
4.2678e-05
4.2585e-05
4.24943e-05
4.24056e-05
4.23189e-05
4.22339e-05
4.21506e-05
4.2069e-05
4.19888e-05
4.191e-05
4.18327e-05
4.17568e-05
4.16826e-05
4.16105e-05
4.15412e-05
4.14758e-05
4.14159e-05
4.13628e-05
4.13146e-05
4.12562e-05
4.11194e-05
4.06941e-05
3.92742e-05
3.59958e-05
5.00962e-05
4.96058e-05
4.91568e-05
4.87436e-05
4.83618e-05
4.80075e-05
4.76776e-05
4.73692e-05
4.70802e-05
4.68085e-05
4.65523e-05
4.63103e-05
4.6081e-05
4.58634e-05
4.56564e-05
4.54592e-05
4.5271e-05
4.5091e-05
4.49187e-05
4.47535e-05
4.45949e-05
4.44424e-05
4.42956e-05
4.41542e-05
4.40177e-05
4.3886e-05
4.37587e-05
4.36355e-05
4.35162e-05
4.34006e-05
4.32885e-05
4.31797e-05
4.3074e-05
4.29713e-05
4.28713e-05
4.2774e-05
4.26792e-05
4.25868e-05
4.24966e-05
4.24086e-05
4.23226e-05
4.22386e-05
4.21564e-05
4.2076e-05
4.19972e-05
4.19202e-05
4.1845e-05
4.17718e-05
4.17009e-05
4.1633e-05
4.15694e-05
4.15119e-05
4.14636e-05
4.14287e-05
4.14121e-05
4.14166e-05
4.14236e-05
4.13485e-05
4.07853e-05
3.88515e-05
5.00962e-05
4.96058e-05
4.91567e-05
4.87435e-05
4.83616e-05
4.80073e-05
4.76773e-05
4.73689e-05
4.70798e-05
4.6808e-05
4.65518e-05
4.63097e-05
4.60804e-05
4.58627e-05
4.56557e-05
4.54585e-05
4.52702e-05
4.50902e-05
4.49179e-05
4.47526e-05
4.4594e-05
4.44415e-05
4.42946e-05
4.41532e-05
4.40167e-05
4.3885e-05
4.37577e-05
4.36345e-05
4.35152e-05
4.33996e-05
4.32875e-05
4.31787e-05
4.30731e-05
4.29704e-05
4.28705e-05
4.27733e-05
4.26786e-05
4.25863e-05
4.24963e-05
4.24085e-05
4.23227e-05
4.22389e-05
4.21571e-05
4.20771e-05
4.19988e-05
4.19225e-05
4.1848e-05
4.17758e-05
4.17062e-05
4.164e-05
4.15787e-05
4.15244e-05
4.14808e-05
4.14532e-05
4.1449e-05
4.14777e-05
4.15417e-05
4.16189e-05
4.1512e-05
4.06404e-05
5.00962e-05
4.96058e-05
4.91567e-05
4.87434e-05
4.83615e-05
4.80071e-05
4.7677e-05
4.73686e-05
4.70794e-05
4.68076e-05
4.65513e-05
4.63092e-05
4.60798e-05
4.58621e-05
4.56551e-05
4.54578e-05
4.52695e-05
4.50895e-05
4.49171e-05
4.47519e-05
4.45932e-05
4.44406e-05
4.42938e-05
4.41523e-05
4.40159e-05
4.38841e-05
4.37567e-05
4.36335e-05
4.35142e-05
4.33987e-05
4.32866e-05
4.31778e-05
4.30721e-05
4.29694e-05
4.28695e-05
4.27723e-05
4.26776e-05
4.25854e-05
4.24954e-05
4.24076e-05
4.23219e-05
4.22383e-05
4.21565e-05
4.20766e-05
4.19986e-05
4.19225e-05
4.18483e-05
4.17765e-05
4.17074e-05
4.1642e-05
4.15816e-05
4.15287e-05
4.14871e-05
4.14624e-05
4.14631e-05
4.15008e-05
4.15864e-05
4.17245e-05
4.18303e-05
4.15917e-05
5.00962e-05
4.96058e-05
4.91566e-05
4.87433e-05
4.83614e-05
4.80069e-05
4.76768e-05
4.73683e-05
4.70791e-05
4.68072e-05
4.6551e-05
4.63088e-05
4.60794e-05
4.58616e-05
4.56546e-05
4.54573e-05
4.52689e-05
4.50889e-05
4.49165e-05
4.47512e-05
4.45925e-05
4.44399e-05
4.42931e-05
4.41516e-05
4.40151e-05
4.38833e-05
4.37559e-05
4.36327e-05
4.35134e-05
4.33978e-05
4.32857e-05
4.31769e-05
4.30712e-05
4.29685e-05
4.28686e-05
4.27714e-05
4.26767e-05
4.25845e-05
4.24945e-05
4.24067e-05
4.23211e-05
4.22374e-05
4.21557e-05
4.20759e-05
4.1998e-05
4.1922e-05
4.1848e-05
4.17764e-05
4.17076e-05
4.16425e-05
4.15827e-05
4.15304e-05
4.14897e-05
4.14662e-05
4.14688e-05
4.15095e-05
4.16026e-05
4.17627e-05
4.19592e-05
4.20454e-05
5.00962e-05
4.96057e-05
4.91566e-05
4.87433e-05
4.83613e-05
4.80068e-05
4.76766e-05
4.73681e-05
4.70789e-05
4.68069e-05
4.65506e-05
4.63084e-05
4.6079e-05
4.58612e-05
4.56541e-05
4.54568e-05
4.52684e-05
4.50884e-05
4.49159e-05
4.47506e-05
4.45919e-05
4.44393e-05
4.42925e-05
4.41509e-05
4.40144e-05
4.38826e-05
4.37552e-05
4.3632e-05
4.35127e-05
4.33971e-05
4.32849e-05
4.31761e-05
4.30704e-05
4.29677e-05
4.28678e-05
4.27706e-05
4.26759e-05
4.25837e-05
4.24937e-05
4.2406e-05
4.23203e-05
4.22367e-05
4.21551e-05
4.20753e-05
4.19974e-05
4.19215e-05
4.18477e-05
4.17762e-05
4.17076e-05
4.16428e-05
4.15832e-05
4.15314e-05
4.14911e-05
4.14683e-05
4.14715e-05
4.15131e-05
4.1608e-05
4.17742e-05
4.20055e-05
4.22419e-05
5.00962e-05
4.96057e-05
4.91566e-05
4.87432e-05
4.83612e-05
4.80067e-05
4.76765e-05
4.73679e-05
4.70786e-05
4.68067e-05
4.65503e-05
4.63081e-05
4.60786e-05
4.58608e-05
4.56537e-05
4.54564e-05
4.5268e-05
4.50879e-05
4.49155e-05
4.47501e-05
4.45914e-05
4.44388e-05
4.42919e-05
4.41504e-05
4.40139e-05
4.38821e-05
4.37547e-05
4.36314e-05
4.35121e-05
4.33965e-05
4.32843e-05
4.31755e-05
4.30698e-05
4.29671e-05
4.28672e-05
4.27699e-05
4.26753e-05
4.2583e-05
4.24931e-05
4.24053e-05
4.23197e-05
4.22361e-05
4.21545e-05
4.20748e-05
4.1997e-05
4.19211e-05
4.18474e-05
4.17761e-05
4.17077e-05
4.16431e-05
4.15838e-05
4.15323e-05
4.14924e-05
4.14699e-05
4.14735e-05
4.15151e-05
4.16097e-05
4.17759e-05
4.20177e-05
4.23161e-05
5.00961e-05
4.96057e-05
4.91565e-05
4.87432e-05
4.83611e-05
4.80065e-05
4.76763e-05
4.73677e-05
4.70784e-05
4.68065e-05
4.65501e-05
4.63078e-05
4.60783e-05
4.58605e-05
4.56534e-05
4.5456e-05
4.52676e-05
4.50875e-05
4.49151e-05
4.47497e-05
4.4591e-05
4.44384e-05
4.42915e-05
4.41499e-05
4.40134e-05
4.38816e-05
4.37542e-05
4.36309e-05
4.35116e-05
4.33959e-05
4.32838e-05
4.3175e-05
4.30693e-05
4.29665e-05
4.28666e-05
4.27694e-05
4.26747e-05
4.25825e-05
4.24925e-05
4.24048e-05
4.23192e-05
4.22356e-05
4.21541e-05
4.20744e-05
4.19967e-05
4.19209e-05
4.18473e-05
4.17761e-05
4.17079e-05
4.16435e-05
4.15845e-05
4.15333e-05
4.14938e-05
4.14716e-05
4.14753e-05
4.15167e-05
4.16105e-05
4.17745e-05
4.20169e-05
4.23359e-05
5.00961e-05
4.96057e-05
4.91565e-05
4.87431e-05
4.8361e-05
4.80065e-05
4.76762e-05
4.73676e-05
4.70783e-05
4.68063e-05
4.65499e-05
4.63076e-05
4.60781e-05
4.58603e-05
4.56531e-05
4.54557e-05
4.52673e-05
4.50872e-05
4.49147e-05
4.47494e-05
4.45906e-05
4.4438e-05
4.42911e-05
4.41495e-05
4.4013e-05
4.38812e-05
4.37537e-05
4.36305e-05
4.35111e-05
4.33955e-05
4.32834e-05
4.31745e-05
4.30688e-05
4.29661e-05
4.28662e-05
4.27689e-05
4.26743e-05
4.2582e-05
4.24921e-05
4.24044e-05
4.23188e-05
4.22353e-05
4.21537e-05
4.20741e-05
4.19965e-05
4.19208e-05
4.18473e-05
4.17762e-05
4.17082e-05
4.1644e-05
4.15853e-05
4.15345e-05
4.14953e-05
4.14735e-05
4.14774e-05
4.15186e-05
4.16115e-05
4.1773e-05
4.20122e-05
4.23338e-05
5.00961e-05
4.96057e-05
4.91565e-05
4.87431e-05
4.8361e-05
4.80064e-05
4.76761e-05
4.73675e-05
4.70781e-05
4.68061e-05
4.65497e-05
4.63074e-05
4.60779e-05
4.58601e-05
4.56529e-05
4.54555e-05
4.52671e-05
4.50869e-05
4.49145e-05
4.47491e-05
4.45903e-05
4.44377e-05
4.42908e-05
4.41492e-05
4.40127e-05
4.38808e-05
4.37534e-05
4.36301e-05
4.35108e-05
4.33952e-05
4.3283e-05
4.31742e-05
4.30684e-05
4.29657e-05
4.28658e-05
4.27686e-05
4.26739e-05
4.25817e-05
4.24918e-05
4.24041e-05
4.23185e-05
4.2235e-05
4.21535e-05
4.2074e-05
4.19964e-05
4.19208e-05
4.18474e-05
4.17765e-05
4.17086e-05
4.16447e-05
4.15863e-05
4.15358e-05
4.14969e-05
4.14755e-05
4.14797e-05
4.15209e-05
4.16131e-05
4.17723e-05
4.20076e-05
4.23247e-05
5.00961e-05
4.96057e-05
4.91565e-05
4.87431e-05
4.83609e-05
4.80063e-05
4.76761e-05
4.73674e-05
4.7078e-05
4.6806e-05
4.65496e-05
4.63073e-05
4.60777e-05
4.58599e-05
4.56527e-05
4.54553e-05
4.52669e-05
4.50867e-05
4.49143e-05
4.47489e-05
4.45901e-05
4.44375e-05
4.42905e-05
4.4149e-05
4.40124e-05
4.38806e-05
4.37532e-05
4.36299e-05
4.35105e-05
4.33949e-05
4.32827e-05
4.31739e-05
4.30682e-05
4.29654e-05
4.28655e-05
4.27683e-05
4.26737e-05
4.25814e-05
4.24915e-05
4.24039e-05
4.23183e-05
4.22349e-05
4.21534e-05
4.20739e-05
4.19964e-05
4.19209e-05
4.18476e-05
4.17769e-05
4.17092e-05
4.16456e-05
4.15874e-05
4.15372e-05
4.14988e-05
4.14777e-05
4.14823e-05
4.15236e-05
4.16155e-05
4.17729e-05
4.20047e-05
4.23155e-05
5.00961e-05
4.96057e-05
4.91565e-05
4.87431e-05
4.83609e-05
4.80063e-05
4.7676e-05
4.73673e-05
4.7078e-05
4.68059e-05
4.65495e-05
4.63072e-05
4.60776e-05
4.58598e-05
4.56526e-05
4.54552e-05
4.52667e-05
4.50866e-05
4.49141e-05
4.47487e-05
4.45899e-05
4.44373e-05
4.42904e-05
4.41488e-05
4.40122e-05
4.38804e-05
4.3753e-05
4.36297e-05
4.35103e-05
4.33947e-05
4.32825e-05
4.31737e-05
4.3068e-05
4.29652e-05
4.28653e-05
4.27681e-05
4.26735e-05
4.25813e-05
4.24914e-05
4.24037e-05
4.23182e-05
4.22348e-05
4.21534e-05
4.20739e-05
4.19965e-05
4.19211e-05
4.1848e-05
4.17774e-05
4.17099e-05
4.16465e-05
4.15886e-05
4.15388e-05
4.15008e-05
4.14802e-05
4.14852e-05
4.15269e-05
4.16187e-05
4.17751e-05
4.20042e-05
4.23091e-05
5.00961e-05
4.96057e-05
4.91565e-05
4.8743e-05
4.83609e-05
4.80063e-05
4.7676e-05
4.73673e-05
4.70779e-05
4.68059e-05
4.65494e-05
4.63071e-05
4.60776e-05
4.58597e-05
4.56525e-05
4.54551e-05
4.52666e-05
4.50865e-05
4.4914e-05
4.47486e-05
4.45898e-05
4.44372e-05
4.42902e-05
4.41487e-05
4.40121e-05
4.38803e-05
4.37528e-05
4.36296e-05
4.35102e-05
4.33946e-05
4.32824e-05
4.31736e-05
4.30679e-05
4.29651e-05
4.28652e-05
4.2768e-05
4.26734e-05
4.25812e-05
4.24913e-05
4.24037e-05
4.23182e-05
4.22348e-05
4.21534e-05
4.20741e-05
4.19967e-05
4.19214e-05
4.18484e-05
4.1778e-05
4.17107e-05
4.16475e-05
4.159e-05
4.15405e-05
4.15029e-05
4.14828e-05
4.14883e-05
4.15306e-05
4.16228e-05
4.17789e-05
4.20064e-05
4.23069e-05
5.00961e-05
4.96057e-05
4.91565e-05
4.8743e-05
4.83609e-05
4.80063e-05
4.7676e-05
4.73673e-05
4.70779e-05
4.68058e-05
4.65494e-05
4.63071e-05
4.60775e-05
4.58597e-05
4.56525e-05
4.5455e-05
4.52666e-05
4.50864e-05
4.4914e-05
4.47486e-05
4.45898e-05
4.44371e-05
4.42902e-05
4.41486e-05
4.40121e-05
4.38802e-05
4.37528e-05
4.36295e-05
4.35101e-05
4.33945e-05
4.32823e-05
4.31735e-05
4.30678e-05
4.29651e-05
4.28652e-05
4.2768e-05
4.26734e-05
4.25812e-05
4.24913e-05
4.24037e-05
4.23183e-05
4.22349e-05
4.21536e-05
4.20743e-05
4.1997e-05
4.19218e-05
4.18489e-05
4.17787e-05
4.17116e-05
4.16486e-05
4.15914e-05
4.15423e-05
4.15051e-05
4.14856e-05
4.14918e-05
4.15348e-05
4.16277e-05
4.17843e-05
4.20116e-05
4.23094e-05
5.00961e-05
4.96057e-05
4.91565e-05
4.8743e-05
4.83609e-05
4.80063e-05
4.7676e-05
4.73673e-05
4.70779e-05
4.68058e-05
4.65494e-05
4.63071e-05
4.60775e-05
4.58597e-05
4.56525e-05
4.5455e-05
4.52666e-05
4.50864e-05
4.4914e-05
4.47486e-05
4.45898e-05
4.44371e-05
4.42902e-05
4.41486e-05
4.40121e-05
4.38802e-05
4.37528e-05
4.36295e-05
4.35102e-05
4.33945e-05
4.32824e-05
4.31735e-05
4.30678e-05
4.29651e-05
4.28652e-05
4.2768e-05
4.26734e-05
4.25812e-05
4.24914e-05
4.24038e-05
4.23184e-05
4.22351e-05
4.21538e-05
4.20746e-05
4.19974e-05
4.19223e-05
4.18495e-05
4.17794e-05
4.17125e-05
4.16498e-05
4.15929e-05
4.15442e-05
4.15075e-05
4.14886e-05
4.14955e-05
4.15394e-05
4.16335e-05
4.17914e-05
4.20197e-05
4.2317e-05
5.00961e-05
4.96057e-05
4.91565e-05
4.8743e-05
4.83609e-05
4.80063e-05
4.7676e-05
4.73673e-05
4.70779e-05
4.68059e-05
4.65494e-05
4.63071e-05
4.60776e-05
4.58597e-05
4.56525e-05
4.54551e-05
4.52666e-05
4.50865e-05
4.4914e-05
4.47486e-05
4.45898e-05
4.44372e-05
4.42903e-05
4.41487e-05
4.40121e-05
4.38803e-05
4.37529e-05
4.36296e-05
4.35102e-05
4.33946e-05
4.32824e-05
4.31736e-05
4.30679e-05
4.29652e-05
4.28653e-05
4.27682e-05
4.26735e-05
4.25814e-05
4.24916e-05
4.2404e-05
4.23187e-05
4.22354e-05
4.21542e-05
4.2075e-05
4.19978e-05
4.19229e-05
4.18502e-05
4.17803e-05
4.17136e-05
4.16511e-05
4.15945e-05
4.15462e-05
4.151e-05
4.14917e-05
4.14995e-05
4.15446e-05
4.16403e-05
4.18003e-05
4.20309e-05
4.233e-05
5.00961e-05
4.96057e-05
4.91565e-05
4.87431e-05
4.83609e-05
4.80063e-05
4.7676e-05
4.73673e-05
4.7078e-05
4.68059e-05
4.65495e-05
4.63072e-05
4.60776e-05
4.58598e-05
4.56526e-05
4.54552e-05
4.52667e-05
4.50866e-05
4.49141e-05
4.47487e-05
4.45899e-05
4.44373e-05
4.42904e-05
4.41488e-05
4.40123e-05
4.38804e-05
4.3753e-05
4.36297e-05
4.35104e-05
4.33947e-05
4.32826e-05
4.31738e-05
4.30681e-05
4.29654e-05
4.28655e-05
4.27683e-05
4.26738e-05
4.25816e-05
4.24918e-05
4.24043e-05
4.2319e-05
4.22357e-05
4.21546e-05
4.20754e-05
4.19984e-05
4.19235e-05
4.1851e-05
4.17812e-05
4.17147e-05
4.16525e-05
4.15962e-05
4.15483e-05
4.15126e-05
4.1495e-05
4.15037e-05
4.15502e-05
4.16479e-05
4.18109e-05
4.20452e-05
4.23485e-05
5.00961e-05
4.96057e-05
4.91565e-05
4.87431e-05
4.83609e-05
4.80063e-05
4.76761e-05
4.73674e-05
4.7078e-05
4.6806e-05
4.65496e-05
4.63073e-05
4.60778e-05
4.58599e-05
4.56527e-05
4.54553e-05
4.52669e-05
4.50867e-05
4.49143e-05
4.47489e-05
4.45901e-05
4.44375e-05
4.42906e-05
4.4149e-05
4.40125e-05
4.38806e-05
4.37532e-05
4.36299e-05
4.35106e-05
4.3395e-05
4.32828e-05
4.3174e-05
4.30683e-05
4.29656e-05
4.28658e-05
4.27686e-05
4.2674e-05
4.25819e-05
4.24922e-05
4.24047e-05
4.23194e-05
4.22362e-05
4.2155e-05
4.2076e-05
4.1999e-05
4.19242e-05
4.18519e-05
4.17822e-05
4.17159e-05
4.1654e-05
4.1598e-05
4.15505e-05
4.15153e-05
4.14984e-05
4.15082e-05
4.15563e-05
4.16565e-05
4.18233e-05
4.2063e-05
4.23729e-05
5.00961e-05
4.96057e-05
4.91565e-05
4.87431e-05
4.8361e-05
4.80064e-05
4.76761e-05
4.73675e-05
4.70782e-05
4.68061e-05
4.65497e-05
4.63074e-05
4.60779e-05
4.58601e-05
4.56529e-05
4.54555e-05
4.52671e-05
4.50869e-05
4.49145e-05
4.47491e-05
4.45903e-05
4.44377e-05
4.42908e-05
4.41492e-05
4.40127e-05
4.38809e-05
4.37535e-05
4.36302e-05
4.35109e-05
4.33952e-05
4.32831e-05
4.31743e-05
4.30686e-05
4.2966e-05
4.28661e-05
4.2769e-05
4.26744e-05
4.25823e-05
4.24926e-05
4.24051e-05
4.23198e-05
4.22367e-05
4.21556e-05
4.20766e-05
4.19997e-05
4.19251e-05
4.18528e-05
4.17833e-05
4.17173e-05
4.16556e-05
4.15999e-05
4.15528e-05
4.15182e-05
4.1502e-05
4.15129e-05
4.15628e-05
4.1666e-05
4.18377e-05
4.20842e-05
4.24036e-05
5.00961e-05
4.96057e-05
4.91565e-05
4.87431e-05
4.8361e-05
4.80065e-05
4.76762e-05
4.73676e-05
4.70783e-05
4.68063e-05
4.65499e-05
4.63076e-05
4.60781e-05
4.58603e-05
4.56531e-05
4.54557e-05
4.52673e-05
4.50872e-05
4.49148e-05
4.47494e-05
4.45906e-05
4.4438e-05
4.42911e-05
4.41496e-05
4.4013e-05
4.38812e-05
4.37538e-05
4.36306e-05
4.35112e-05
4.33956e-05
4.32835e-05
4.31747e-05
4.3069e-05
4.29664e-05
4.28665e-05
4.27694e-05
4.26749e-05
4.25828e-05
4.24931e-05
4.24056e-05
4.23204e-05
4.22373e-05
4.21563e-05
4.20773e-05
4.20006e-05
4.1926e-05
4.18539e-05
4.17845e-05
4.17187e-05
4.16572e-05
4.16019e-05
4.15552e-05
4.15211e-05
4.15057e-05
4.15179e-05
4.15698e-05
4.16765e-05
4.1854e-05
4.21091e-05
4.24412e-05
5.00961e-05
4.96057e-05
4.91565e-05
4.87432e-05
4.83611e-05
4.80065e-05
4.76763e-05
4.73677e-05
4.70784e-05
4.68065e-05
4.65501e-05
4.63078e-05
4.60783e-05
4.58605e-05
4.56534e-05
4.5456e-05
4.52676e-05
4.50875e-05
4.49151e-05
4.47497e-05
4.4591e-05
4.44384e-05
4.42915e-05
4.415e-05
4.40134e-05
4.38816e-05
4.37542e-05
4.3631e-05
4.35117e-05
4.33961e-05
4.3284e-05
4.31752e-05
4.30695e-05
4.29669e-05
4.28671e-05
4.27699e-05
4.26754e-05
4.25834e-05
4.24937e-05
4.24063e-05
4.23211e-05
4.2238e-05
4.2157e-05
4.20782e-05
4.20015e-05
4.1927e-05
4.1855e-05
4.17858e-05
4.17201e-05
4.1659e-05
4.16039e-05
4.15576e-05
4.15241e-05
4.15096e-05
4.15231e-05
4.15773e-05
4.16879e-05
4.18725e-05
4.2138e-05
4.24864e-05
5.00962e-05
4.96057e-05
4.91566e-05
4.87432e-05
4.83612e-05
4.80067e-05
4.76765e-05
4.73679e-05
4.70786e-05
4.68067e-05
4.65503e-05
4.63081e-05
4.60786e-05
4.58609e-05
4.56537e-05
4.54564e-05
4.5268e-05
4.50879e-05
4.49155e-05
4.47502e-05
4.45914e-05
4.44388e-05
4.42919e-05
4.41504e-05
4.40139e-05
4.38821e-05
4.37547e-05
4.36315e-05
4.35122e-05
4.33966e-05
4.32845e-05
4.31757e-05
4.30701e-05
4.29675e-05
4.28677e-05
4.27706e-05
4.26761e-05
4.2584e-05
4.24944e-05
4.2407e-05
4.23218e-05
4.22388e-05
4.21579e-05
4.20791e-05
4.20025e-05
4.19281e-05
4.18562e-05
4.17872e-05
4.17217e-05
4.16608e-05
4.16061e-05
4.15602e-05
4.15273e-05
4.15136e-05
4.15285e-05
4.15852e-05
4.17003e-05
4.18931e-05
4.21712e-05
4.25402e-05
5.00962e-05
4.96057e-05
4.91566e-05
4.87433e-05
4.83613e-05
4.80068e-05
4.76766e-05
4.73681e-05
4.70789e-05
4.68069e-05
4.65506e-05
4.63084e-05
4.6079e-05
4.58612e-05
4.56541e-05
4.54568e-05
4.52684e-05
4.50884e-05
4.4916e-05
4.47506e-05
4.45919e-05
4.44393e-05
4.42925e-05
4.4151e-05
4.40145e-05
4.38827e-05
4.37553e-05
4.36321e-05
4.35128e-05
4.33972e-05
4.32852e-05
4.31764e-05
4.30708e-05
4.29682e-05
4.28684e-05
4.27713e-05
4.26768e-05
4.25848e-05
4.24952e-05
4.24079e-05
4.23227e-05
4.22397e-05
4.21589e-05
4.20802e-05
4.20036e-05
4.19294e-05
4.18576e-05
4.17887e-05
4.17234e-05
4.16627e-05
4.16083e-05
4.15629e-05
4.15305e-05
4.15177e-05
4.15341e-05
4.15936e-05
4.17137e-05
4.19162e-05
4.2209e-05
4.26037e-05
5.00962e-05
4.96058e-05
4.91566e-05
4.87433e-05
4.83614e-05
4.80069e-05
4.76768e-05
4.73683e-05
4.70791e-05
4.68072e-05
4.6551e-05
4.63088e-05
4.60794e-05
4.58617e-05
4.56546e-05
4.54573e-05
4.52689e-05
4.50889e-05
4.49165e-05
4.47512e-05
4.45925e-05
4.444e-05
4.42931e-05
4.41516e-05
4.40151e-05
4.38834e-05
4.3756e-05
4.36328e-05
4.35136e-05
4.3398e-05
4.32859e-05
4.31772e-05
4.30716e-05
4.2969e-05
4.28692e-05
4.27722e-05
4.26777e-05
4.25857e-05
4.24961e-05
4.24088e-05
4.23237e-05
4.22408e-05
4.216e-05
4.20813e-05
4.20049e-05
4.19307e-05
4.18591e-05
4.17904e-05
4.17252e-05
4.16648e-05
4.16107e-05
4.15656e-05
4.15338e-05
4.15219e-05
4.15399e-05
4.16024e-05
4.17281e-05
4.19417e-05
4.22517e-05
4.26784e-05
5.00962e-05
4.96058e-05
4.91567e-05
4.87434e-05
4.83615e-05
4.80071e-05
4.7677e-05
4.73686e-05
4.70794e-05
4.68076e-05
4.65513e-05
4.63092e-05
4.60798e-05
4.58622e-05
4.56551e-05
4.54578e-05
4.52695e-05
4.50895e-05
4.49172e-05
4.47519e-05
4.45932e-05
4.44407e-05
4.42938e-05
4.41524e-05
4.40159e-05
4.38842e-05
4.37568e-05
4.36337e-05
4.35144e-05
4.33989e-05
4.32868e-05
4.31781e-05
4.30725e-05
4.29699e-05
4.28702e-05
4.27732e-05
4.26787e-05
4.25868e-05
4.24972e-05
4.24099e-05
4.23248e-05
4.22419e-05
4.21612e-05
4.20826e-05
4.20062e-05
4.19321e-05
4.18606e-05
4.1792e-05
4.1727e-05
4.16668e-05
4.1613e-05
4.15683e-05
4.15371e-05
4.15261e-05
4.15457e-05
4.16115e-05
4.17434e-05
4.19697e-05
4.22997e-05
4.27663e-05
5.00962e-05
4.96058e-05
4.91567e-05
4.87435e-05
4.83616e-05
4.80073e-05
4.76773e-05
4.73689e-05
4.70798e-05
4.6808e-05
4.65518e-05
4.63097e-05
4.60804e-05
4.58627e-05
4.56557e-05
4.54585e-05
4.52702e-05
4.50902e-05
4.49179e-05
4.47527e-05
4.4594e-05
4.44415e-05
4.42947e-05
4.41532e-05
4.40168e-05
4.38851e-05
4.37578e-05
4.36346e-05
4.35154e-05
4.33998e-05
4.32878e-05
4.31791e-05
4.30735e-05
4.2971e-05
4.28712e-05
4.27742e-05
4.26798e-05
4.25878e-05
4.24983e-05
4.2411e-05
4.23259e-05
4.2243e-05
4.21623e-05
4.20837e-05
4.20073e-05
4.19333e-05
4.18618e-05
4.17933e-05
4.17284e-05
4.16684e-05
4.16148e-05
4.15704e-05
4.15398e-05
4.15298e-05
4.15511e-05
4.16203e-05
4.17591e-05
4.20001e-05
4.23532e-05
4.28695e-05
5.00962e-05
4.96058e-05
4.91568e-05
4.87436e-05
4.83618e-05
4.80075e-05
4.76776e-05
4.73692e-05
4.70802e-05
4.68085e-05
4.65523e-05
4.63103e-05
4.6081e-05
4.58634e-05
4.56564e-05
4.54592e-05
4.5271e-05
4.50911e-05
4.49188e-05
4.47535e-05
4.45949e-05
4.44424e-05
4.42957e-05
4.41542e-05
4.40178e-05
4.38861e-05
4.37588e-05
4.36357e-05
4.35164e-05
4.34009e-05
4.32889e-05
4.31801e-05
4.30745e-05
4.29719e-05
4.28721e-05
4.27751e-05
4.26806e-05
4.25885e-05
4.24988e-05
4.24115e-05
4.23263e-05
4.22433e-05
4.21624e-05
4.20837e-05
4.20072e-05
4.1933e-05
4.18614e-05
4.17928e-05
4.1728e-05
4.16679e-05
4.16144e-05
4.15703e-05
4.15402e-05
4.15311e-05
4.15542e-05
4.16272e-05
4.17737e-05
4.20318e-05
4.24116e-05
4.29906e-05
5.00962e-05
4.96058e-05
4.91569e-05
4.87438e-05
4.8362e-05
4.80078e-05
4.76779e-05
4.73697e-05
4.70807e-05
4.6809e-05
4.65529e-05
4.63109e-05
4.60817e-05
4.58642e-05
4.56573e-05
4.54601e-05
4.52719e-05
4.5092e-05
4.49197e-05
4.47545e-05
4.45959e-05
4.44435e-05
4.42967e-05
4.41553e-05
4.40188e-05
4.38871e-05
4.37598e-05
4.36365e-05
4.35172e-05
4.34016e-05
4.32894e-05
4.31805e-05
4.30747e-05
4.29719e-05
4.28718e-05
4.27744e-05
4.26795e-05
4.25871e-05
4.2497e-05
4.24091e-05
4.23234e-05
4.22399e-05
4.21584e-05
4.20791e-05
4.2002e-05
4.19272e-05
4.1855e-05
4.17859e-05
4.17205e-05
4.16601e-05
4.16064e-05
4.15623e-05
4.15325e-05
4.15243e-05
4.15495e-05
4.16269e-05
4.17822e-05
4.20605e-05
4.2472e-05
4.31309e-05
5.00962e-05
4.96059e-05
4.9157e-05
4.8744e-05
4.83623e-05
4.80081e-05
4.76783e-05
4.73702e-05
4.70813e-05
4.68097e-05
4.65537e-05
4.63117e-05
4.60826e-05
4.58651e-05
4.56582e-05
4.54611e-05
4.52729e-05
4.5093e-05
4.49207e-05
4.47555e-05
4.45969e-05
4.44443e-05
4.42974e-05
4.41559e-05
4.40192e-05
4.38872e-05
4.37596e-05
4.3636e-05
4.35162e-05
4.34e-05
4.32871e-05
4.31775e-05
4.30708e-05
4.2967e-05
4.28658e-05
4.27672e-05
4.2671e-05
4.2577e-05
4.24853e-05
4.23957e-05
4.23082e-05
4.22228e-05
4.21395e-05
4.20582e-05
4.19792e-05
4.19024e-05
4.18284e-05
4.17574e-05
4.16904e-05
4.16286e-05
4.15738e-05
4.15292e-05
4.14995e-05
4.14925e-05
4.15203e-05
4.16033e-05
4.17699e-05
4.20732e-05
4.25235e-05
4.32869e-05
5.00962e-05
4.96059e-05
4.91571e-05
4.87442e-05
4.83626e-05
4.80085e-05
4.76788e-05
4.73707e-05
4.70819e-05
4.68104e-05
4.65545e-05
4.63126e-05
4.60835e-05
4.5866e-05
4.56591e-05
4.54619e-05
4.52737e-05
4.50936e-05
4.49211e-05
4.47555e-05
4.45965e-05
4.44434e-05
4.42958e-05
4.41533e-05
4.40157e-05
4.38824e-05
4.37533e-05
4.3628e-05
4.35062e-05
4.33877e-05
4.32723e-05
4.31598e-05
4.305e-05
4.29426e-05
4.28376e-05
4.27348e-05
4.26341e-05
4.25354e-05
4.24386e-05
4.23438e-05
4.22508e-05
4.21598e-05
4.20709e-05
4.19843e-05
4.18998e-05
4.18178e-05
4.17387e-05
4.1663e-05
4.15917e-05