/*--------------------------------*- C++ -*----------------------------------*\
| =========                 |                                                 |
| \\      /  F ield         | OpenFOAM: The Open Source CFD Toolbox           |
|  \\    /   O peration     | Version:  2.4.0                                 |
|   \\  /    A nd           | Web:      www.OpenFOAM.org                      |
|    \\/     M anipulation  |                                                 |
\*---------------------------------------------------------------------------*/
FoamFile
{
    version     2.0;
    format      ascii;
    class       volScalarField;
    location    "0.05";
    object      p;
}
// * * * * * * * * * * * * * * * * * * * * * * * * * * * * * * * * * * * * * //

dimensions      [0 2 -2 0 0 0 0];

internalField   nonuniform List<scalar> 
1600
(
8.74109e-08
-0.00107344
-0.00349343
-0.00670656
-0.0101127
-0.0132729
-0.0158726
-0.0176918
-0.0185862
-0.0184714
-0.0173113
-0.0151086
-0.011897
-0.00773638
-0.00270757
0.00309081
0.00954538
0.0165306
0.0239107
0.0315422
0.0392755
0.046957
0.0544319
0.0615465
0.0681512
0.0741041
0.0792748
0.0835485
0.0868311
0.0890543
0.0901811
0.0902127
0.0891957
0.0872304
0.0844819
0.0811925
0.0776966
0.0744473
0.0720471
0.0710273
0.00107108
-2.03384e-06
-0.00195669
-0.00443599
-0.00704534
-0.00945937
-0.0114265
-0.0127595
-0.0133279
-0.0130495
-0.0118833
-0.00982257
-0.00688944
-0.00313021
0.00138855
0.00658326
0.012356
0.0185969
0.0251866
0.0319976
0.0388973
0.0457495
0.0524172
0.0587647
0.0646611
0.069983
0.0746184
0.0784706
0.0814622
0.0835399
0.0846794
0.0848905
0.0842226
0.0827711
0.0806829
0.0781627
0.0754778
0.0729644
0.0710247
0.07001
0.00350223
0.00194456
-3.81782e-05
-0.00226004
-0.00450686
-0.00653752
-0.00815344
-0.00920318
-0.00957675
-0.00920207
-0.00804085
-0.00608437
-0.00334944
0.000125231
0.00428213
0.00904786
0.0143354
0.0200465
0.0260733
0.032301
0.0386092
0.0448747
0.050973
0.0567817
0.0621827
0.0670653
0.0713296
0.0748902
0.0776797
0.079653
0.080791
0.081105
0.0806409
0.0794825
0.0777546
0.0756248
0.0733059
0.0710506
0.0690873
0.0676072
0.00679788
0.00445127
0.00211531
-0.000172503
-0.00235948
-0.00426633
-0.00573774
-0.00665684
-0.00693705
-0.00652056
-0.00537692
-0.00350038
-0.000907092
0.00236746
0.00627094
0.0107364
0.0156844
0.0210246
0.0266582
0.0324791
0.0383763
0.0442355
0.0499419
0.0553817
0.0604456
0.0650311
0.0690456
0.07241
0.0750619
0.0769588
0.0780819
0.0784393
0.0780685
0.0770388
0.0754517
0.0734406
0.0711763
0.0688517
0.0665401
0.0642911
0.0104327
0.00717351
0.00433055
0.0018137
-0.000471143
-0.00239371
-0.00383496
-0.00471019
-0.00495624
-0.00453102
-0.00341405
-0.001605
0.000878034
0.00400038
0.0077126
0.0119521
0.0166448
0.0217069
0.027046
0.0325634
0.0381552
0.0437144
0.049133
0.0543042
0.0591245
0.0634969
0.0673336
0.0705585
0.0731111
0.0749488
0.0760501
0.0764169
0.0760767
0.0750833
0.0735154
0.0714758
0.0691012
0.0665384
0.0637201
0.0605736
0.0140366
0.00982723
0.00639361
0.00354109
0.00104815
-0.000991997
-0.00248928
-0.00338719
-0.00364444
-0.00323469
-0.00214828
-0.000391813
0.00201297
0.00503033
0.00861174
0.0126972
0.0172162
0.0220894
0.0272295
0.032543
0.0379313
0.0432928
0.0485243
0.0535234
0.0581906
0.0624318
0.066161
0.0693032
0.0717968
0.0735966
0.0746762
0.0750298
0.0746738
0.0736465
0.0720063
0.0698298
0.0672275
0.064313
0.060898
0.0568107
0.0173452
0.0121862
0.00811679
0.00485794
0.00207919
-0.00015287
-0.00177027
-0.00274033
-0.00304135
-0.00266193
-0.00160344
0.000119807
0.00248116
0.00544239
0.00895436
0.0129579
0.0173847
0.0221579
0.0271938
0.0324023
0.0376885
0.0429539
0.0480985
0.0530222
0.0576271
0.0618199
0.0655143
0.0686334
0.0711128
0.0729026
0.0739694
0.0742987
0.0738951
0.0727828
0.0710021
0.0686083
0.0656935
0.0623491
0.0582847
0.0532497
0.0201619
0.0140664
0.009339
0.00563038
0.00251551
4.2318e-05
-0.00173771
-0.00281174
-0.00317525
-0.00283062
-0.00179005
-7.59381e-05
0.00227946
0.00523435
0.00873777
0.0127301
0.0171435
0.0219029
0.026926
0.0321248
0.0374065
0.0426742
0.0478291
0.0527716
0.0574036
0.0616305
0.0653634
0.0685222
0.071037
0.0728515
0.0739243
0.0742309
0.0737644
0.0725356
0.0705691
0.0679035
0.0646184
0.0607923
0.0560471
0.0500683
0.022334
0.0153135
0.00991637
0.00573168
0.00224953
-0.000495084
-0.00246282
-0.00365747
-0.00408964
-0.0037743
-0.00273404
-0.000999418
0.00139115
0.00439154
0.00794802
0.0119995
0.0164777
0.0213074
0.0264071
0.0316896
0.0370623
0.0424289
0.04769
0.0527451
0.0574941
0.0618391
0.0656874
0.0689528
0.0715592
0.0734417
0.0745497
0.074848
0.0743182
0.0729584
0.0707797
0.0678072
0.0641133
0.0597698
0.0543212
0.0473977
0.0237342
0.0157921
0.00971641
0.00503905
0.00117106
-0.00186148
-0.0040284
-0.00534779
-0.00584367
-0.00554271
-0.00447746
-0.00268672
-0.000215394
0.00288551
0.00655876
0.0107409
0.0153621
0.0203465
0.025612
0.0310709
0.0366301
0.0421922
0.0476564
0.0529193
0.0578775
0.0624286
0.0664737
0.0699196
0.0726814
0.0746848
0.0758685
0.0761858
0.0756062
0.0741158
0.0717136
0.0684138
0.0642852
0.0593976
0.0532235
0.0453424
0.0242482
0.0153768
0.00861222
0.00343095
-0.000832895
-0.00415973
-0.00652644
-0.0079639
-0.00850856
-0.00819818
-0.00707505
-0.00518626
-0.00258351
0.000676835
0.00453344
0.00891979
0.0137639
0.0189882
0.0245093
0.0302382
0.0360802
0.0419361
0.047702
0.0532712
0.0585351
0.0633853
0.0677154
0.0714233
0.0744141
0.0766022
0.077914
0.0782905
0.0776883
0.0760814
0.0734575
0.0698214
0.0652407
0.0597865
0.052861
0.0439944
0.0237639
0.0139443
0.00647725
0.000783421
-0.00388039
-0.00749986
-0.0100579
-0.0115973
-0.0121666
-0.0118144
-0.0105929
-0.00855747
-0.00576708
-0.00228387
0.00182624
0.00649315
0.0116421
0.0171933
0.0230615
0.0291556
0.0353789
0.0416291
0.0477989
0.0537768
0.0594483
0.0646974
0.0694088
0.07347
0.0767741
0.0792227
0.0807284
0.0812178
0.0806339
0.078938
0.0761061
0.0721344
0.0670905
0.0610491
0.0533402
0.0434441
0.0221655
0.0113676
0.00318042
-0.00303334
-0.00809682
-0.0120007
-0.0147333
-0.0163498
-0.0169108
-0.016476
-0.0151075
-0.01287
-0.00982973
-0.00605516
-0.00161722
0.00341001
0.00894863
0.0149162
0.0212252
0.0277821
0.0344877
0.0412363
0.0479163
0.0544108
0.0605982
0.0663541
0.0715526
0.0760693
0.0797836
0.0825821
0.0843617
0.0850327
0.0845228
0.0827788
0.0797646
0.0754668
0.0699542
0.0633054
0.0547745
0.0437888
0.0193271
0.00751097
-0.00141812
-0.00815849
-0.0136175
-0.0177912
-0.0206742
-0.0223342
-0.0228448
-0.0222775
-0.0207055
-0.0182028
-0.0148438
-0.0107036
-0.0058588
-0.000387541
0.00562883
0.0121051
0.0189513
0.0260715
0.0333636
0.0407185
0.0480199
0.0551449
0.0619643
0.0683438
0.0741462
0.0792332
0.0834686
0.0867219
0.0888716
0.0898095
0.0894452
0.0877092
0.0845507
0.079946
0.0739644
0.0666886
0.0572905
0.0451398
0.0151088
0.00222545
-0.00747098
-0.0147437
-0.0205902
-0.0250129
-0.0280135
-0.0296741
-0.0300825
-0.0293235
-0.0274821
-0.0246427
-0.0208887
-0.0163026
-0.0109664
-0.00496297
0.00162295
0.00870348
0.0161863
0.0239733
0.0319596
0.0400328
0.048072
0.055948
0.0635235
0.0706538
0.0771888
0.082975
0.0878583
0.0916886
0.0943231
0.0956319
0.0955034
0.0938481
0.0905981
0.0857166
0.0792721
0.071351
0.0610343
0.0476289
0.00935302
-0.00465507
-0.0151474
-0.0229568
-0.0291778
-0.0338211
-0.0368973
-0.038505
-0.0387483
-0.0377272
-0.0355401
-0.0322832
-0.0280496
-0.0229298
-0.0170119
-0.0103834
-0.00313212
0.0046515
0.0128733
0.0214335
0.0302251
0.0391328
0.0480314
0.0567857
0.0652501
0.0732691
0.0806787
0.0873083
0.0929841
0.0975331
0.100788
0.102594
0.102812
0.10133
0.0980588
0.0929439
0.0860513
0.0774694
0.0661777
0.0514138
0.00188078
-0.0133176
-0.0246369
-0.0329847
-0.039561
-0.0443874
-0.0474858
-0.0489742
-0.0489765
-0.0476098
-0.0449885
-0.041222
-0.0364147
-0.0306653
-0.0240687
-0.0167166
-0.00870011
-0.000111255
0.00895469
0.0183971
0.0281079
0.0379698
0.0478543
0.0576208
0.0671157
0.0761724
0.0846122
0.0922462
0.0988785
0.10431
0.108346
0.110799
0.111501
0.110309
0.107107
0.101819
0.0945042
0.0852506
0.0729239
0.0566849
-0.00751174
-0.0239745
-0.0361538
-0.0450377
-0.0519419
-0.0569018
-0.0599544
-0.0612415
-0.0609102
-0.0590988
-0.0559399
-0.0515586
-0.0460717
-0.0395875
-0.0322075
-0.0240278
-0.0151418
-0.00564254
0.00437492
0.0148105
0.0255565
0.036495
0.0474958
0.0584141
0.0690891
0.0793435
0.0889837
0.0978011
0.105575
0.112079
0.117082
0.120362
0.121715
0.120959
0.117943
0.112563
0.104868
0.0949392
0.0815152
0.0636713
-0.0190573
-0.036868
-0.0499419
-0.0593539
-0.0665471
-0.0715752
-0.0744953
-0.0754786
-0.0747007
-0.0723254
-0.0685074
-0.0633901
-0.0571043
-0.0497688
-0.0414921
-0.0323743
-0.0225104
-0.0119929
-0.00091503
0.0106254
0.0225232
0.0346623
0.0469123
0.0591264
0.0711382
0.0827607
0.0937855
0.103984
0.113109
0.120899
0.127089
0.131412
0.133616
0.133477
0.130797
0.125435
0.11742
0.106825
0.0922407
0.0726492
-0.0330227
-0.0522767
-0.0662811
-0.0762047
-0.0836321
-0.0886421
-0.0913182
-0.0918688
-0.0905049
-0.0874217
-0.0828004
-0.0768059
-0.0695854
-0.0612692
-0.0519729
-0.0417999
-0.0308454
-0.0191997
-0.00695231
0.00580408
0.0189694
0.0324319
0.0460646
0.0597208
0.0732313
0.0864012
0.0990084
0.110804
0.121512
0.130836
0.138466
0.144086
0.147387
0.148088
0.145935
0.140735
0.132488
0.121251
0.105446
0.0839503
-0.0497154
-0.0705235
-0.0854953
-0.0959016
-0.103487
-0.108364
-0.110651
-0.110606
-0.108482
-0.104515
-0.0989184
-0.0918816
-0.0835709
-0.0741293
-0.0636793
-0.0523267
-0.0401652
-0.0272805
-0.0137555
0.000325174
0.01487
0.0297757
0.0449219
0.0601662
0.0753398
0.0902429
0.104642
0.118269
0.130818
0.141955
0.15132
0.158536
0.16323
0.165048
0.163663
0.158815
0.150462
0.138629
0.121546
0.0979738
-0.0694928
-0.0919866
-0.107963
-0.118806
-0.126442
-0.131031
-0.132742
-0.131891
-0.128791
-0.123724
-0.116943
-0.108669
-0.0990897
-0.0883603
-0.0766103
-0.0639464
-0.0504582
-0.0362242
-0.0213168
-0.00580884
0.0102212
0.0266828
0.0434671
0.060441
0.0774408
0.0942664
0.110676
0.126385
0.141059
0.154322
0.165759
0.174926
0.18137
0.184645
0.184335
0.180088
0.1718
0.15945
0.14104
0.115201
-0.0927753
-0.117115
-0.134134
-0.145341
-0.152879
-0.156971
-0.157856
-0.155929
-0.151578
-0.145144
-0.136928
-0.127188
-0.116132
-0.103933
-0.0907236
-0.0766095
-0.0616733
-0.0459819
-0.0295934
-0.0125637
0.00504676
0.0231658
0.0417023
0.0605382
0.0795213
0.0984572
0.117102
0.135156
0.152262
0.168
0.181897
0.19343
0.202051
0.207207
0.20836
0.20504
0.197054
0.184307
0.164534
0.136213
-0.120066
-0.146452
-0.164549
-0.176008
-0.183236
-0.186546
-0.186275
-0.182925
-0.176974
-0.168842
-0.158887
-0.147407
-0.134638
-0.120764
-0.105923
-0.090214
-0.0737085
-0.0564573
-0.0384984
-0.0198653
-0.000594046
0.019268
0.0396543
0.0604696
0.0815809
0.102807
0.123911
0.144585
0.164451
0.18305
0.199845
0.21423
0.225544
0.233099
0.236208
0.234243
0.226883
0.213922
0.192766
0.161719
-0.151977
-0.180666
-0.199868
-0.211411
-0.218026
-0.220165
-0.218297
-0.213067
-0.205075
-0.194835
-0.182773
-0.169232
-0.154478
-0.138703
-0.122045
-0.104593
-0.0864007
-0.0674966
-0.0478923
-0.0275918
-0.00659988
0.0150686
0.0373796
0.0602696
0.0836346
0.107317
0.131095
0.154666
0.177638
0.199518
0.219708
0.237508
0.252131
0.262729
0.268421
0.268374
0.262082
0.249175
0.226647
0.192592
-0.189274
-0.220598
-0.240917
-0.25228
-0.25785
-0.258277
-0.254222
-0.246521
-0.235928
-0.223072
-0.20846
-0.192485
-0.175436
-0.157513
-0.138845
-0.119503
-0.0995156
-0.0788808
-0.0575761
-0.0355681
-0.0128226
0.0106866
0.0349673
0.0599977
0.0857139
0.111995
0.138647
0.165386
0.19182
0.217433
0.24157
0.263438
0.282107
0.29654
0.305616
0.308231
0.303617
0.291159
0.267316
0.229915
-0.232941
-0.267333
-0.288742
-0.29952
-0.303416
-0.301378
-0.294342
-0.283398
-0.269496
-0.253403
-0.235717
-0.216877
-0.197192
-0.176858
-0.155984
-0.134614
-0.11274
-0.0903202
-0.0672877
-0.0435637
-0.0190659
0.0062818
0.032539
0.0597367
0.0878638
0.11685
0.146549
0.17671
0.206963
0.236784
0.265479
0.292163
0.315757
0.335004
0.348491
0.354756
0.352669
0.341242
0.316219
0.275062
-0.284281
-0.322309
-0.344699
-0.354253
-0.355552
-0.349996
-0.338912
-0.323723
-0.305626
-0.285546
-0.264172
-0.241986
-0.219297
-0.196284
-0.17302
-0.149504
-0.125681
-0.101454
-0.0767034
-0.0512951
-0.0250891
0.00205
0.0302436
0.0595873
0.0901367
0.12189
0.154765
0.188573
0.222987
0.257507
0.29142
0.32377
0.35333
0.378601
0.397817
0.409057
0.410687
0.40116
0.375223
0.329809
-0.345078
-0.387479
-0.410577
-0.417887
-0.415223
-0.404671
-0.388104
-0.367381
-0.343992
-0.319036
-0.293279
-0.267223
-0.241156
-0.215209
-0.189399
-0.163659
-0.137865
-0.111856
-0.0854465
-0.0584357
-0.0306176
-0.00178829
0.0282454
0.0596553
0.0925782
0.127098
0.163223
0.200852
0.239738
0.279442
0.319274
0.35824
0.39499
0.427772
0.454416
0.47242
0.479457
0.47315
0.4468
0.396512
-0.417871
-0.465574
-0.488768
-0.492184
-0.483521
-0.465894
-0.441929
-0.414032
-0.384026
-0.353167
-0.32227
-0.291809
-0.262011
-0.23292
-0.204462
-0.176477
-0.148755
-0.121053
-0.0931047
-0.0646348
-0.0353624
-0.005007
0.026705
0.0600323
0.0952071
0.132419
0.171789
0.213341
0.25695
0.302289
0.348755
0.395379
0.440736
0.48285
0.519106
0.546301
0.561173
0.560124
0.534296
0.478405
-0.506431
-0.560509
-0.582508
-0.579334
-0.561618
-0.534003
-0.500111
-0.462999
-0.424816
-0.386924
-0.350109
-0.314748
-0.280934
-0.248573
-0.217454
-0.187296
-0.157774
-0.128547
-0.0992569
-0.0695446
-0.0390473
-0.00740209
0.0257516
0.060768
0.097987
0.137721
0.180234
0.225707
0.274193
0.325547
0.379335
0.434713
0.490283
0.543924
0.592593
0.632278
0.658512
0.665924
0.642366
0.580111
-0.616618
-0.678044
-0.696189
-0.681977
-0.650632
-0.608981
-0.561889
-0.513094
-0.464986
-0.418898
-0.375454
-0.33481
-0.296832
-0.261215
-0.227558
-0.195419
-0.164338
-0.133854
-0.103511
-0.0728573
-0.0414449
-0.00882613
0.0254496
0.0618369
0.100792
0.142767
0.18819
0.237444
0.290816
0.348428
0.410128
0.475344
0.542876
0.610629
0.675252
0.731904
0.774648
0.795631
0.777662
0.70857
-0.758021
-0.826827
-0.835723
-0.803121
-0.751329
-0.690117
-0.625713
-0.562397
-0.502549
-0.447212
-0.39662
-0.350538
-0.308475
-0.269824
-0.233937
-0.200172
-0.167908
-0.136555
-0.10555
-0.0743474
-0.0424166
-0.00922622
0.0257622
0.0631034
0.103374
0.147172
0.195117
0.247825
0.30588
0.369765
0.439759
0.51576
0.597031
0.681815
0.766765
0.846388
0.913157
0.955934
0.949918
0.874792
-0.947277
-1.02008
-1.00881
-0.945703
-0.86348
-0.775397
-0.688782
-0.607951
-0.534738
-0.469444
-0.41158
-0.360281
-0.314548
-0.273372
-0.235801
-0.200958
-0.168047
-0.136343
-0.105176
-0.0739157
-0.0419519
-0.00867976
0.0265188
0.0642911
0.105328
0.15038
0.200261
0.255853
0.318091
0.38792
0.46621
0.553589
0.65016
0.75502
0.865444
0.975885
1.07753
1.15537
1.17368
1.09742
-1.21483
-1.27805
-1.22451
-1.11122
-0.984451
-0.860398
-0.746305
-0.645331
-0.557794
-0.482564
-0.417973
-0.362251
-0.313726
-0.270901
-0.232474
-0.197323
-0.164473
-0.133073
-0.102357
-0.0716228
-0.0401983
-0.00742028
0.0273923
0.0649628
0.106083
0.151638
0.202637
0.260235
0.325753
0.400682
0.486645
0.58529
0.698048
0.825627
0.96701
1.11795
1.26966
1.4038
1.47076
1.40981
-1.61657
-1.63031
-1.49147
-1.29733
-1.10721
-0.936974
-0.790809
-0.668393
-0.566974
-0.483062
-0.413287
-0.3547
-0.304832
-0.261653
-0.223509
-0.189043
-0.157127
-0.126808
-0.0972533
-0.0677101
-0.0374705
-0.00583686
0.0279096
0.064542
0.104924
0.150048
0.201088
0.25945
0.32684
0.405329
0.497415
0.60604
0.734499
0.886095
1.0632
1.26544
1.48731
1.71044
1.87214
1.87161
-2.25442
-2.11615
-1.81438
-1.49587
-1.21957
-0.993326
-0.812763
-0.670158
-0.557481
-0.467804
-0.395583
-0.336518
-0.287316
-0.245448
-0.208964
-0.176331
-0.146321
-0.117925
-0.09028
-0.0626216
-0.0342362
-0.00442389
0.0275396
0.0624414
0.101175
0.144795
0.194582
0.25213
0.319466
0.3992
0.49472
0.610427
0.751967
0.926345
1.14164
1.40558
1.72188
2.07991
2.41784
2.58841
-3.35673
-2.78419
-2.17417
-1.67796
-1.29541
-1.00925
-0.798235
-0.641752
-0.523992
-0.433799
-0.363342
-0.30709
-0.261103
-0.222529
-0.189263
-0.159709
-0.132625
-0.107011
-0.0820297
-0.0569458
-0.03108
-0.00376627
0.0256859
0.0580339
0.0941489
0.135077
0.182117
0.236938
0.301734
0.37947
0.474228
0.591734
0.740091
0.930824
1.18029
1.51009
1.94223
2.49188
3.1583
3.79428
-5.52197
-3.66225
-2.43284
-1.71677
-1.24518
-0.925981
-0.709698
-0.559285
-0.451073
-0.370814
-0.309573
-0.261507
-0.22268
-0.190362
-0.162593
-0.137922
-0.115238
-0.0936535
-0.0724347
-0.0509398
-0.0285769
-0.00476471
0.0210993
0.0496804
0.0817497
0.11824
0.160327
0.209538
0.267933
0.338368
0.424947
0.533757
0.674109
0.860814
1.11846
1.48628
2.01772
2.8066
4.12416
6.09177
-9.20804
-4.52111
-2.30829
-1.4241
-0.962833
-0.687779
-0.517985
-0.406971
-0.329706
-0.273325
-0.230632
-0.197208
-0.170169
-0.14754
-0.127906
-0.110214
-0.0936518
-0.0775681
-0.0614181
-0.0447228
-0.0270373
-0.00792542
0.0130726
0.036461
0.0628242
0.0928677
0.127475
0.16779
0.215344
0.272264
0.341631
0.428132
0.539341
0.688569
0.901473
1.22732
1.75633
2.73496
5.06253
9.86967
)
;

boundaryField
{
    movingWall
    {
        type            zeroGradient;
    }
    fixedWalls
    {
        type            zeroGradient;
    }
    frontAndBack
    {
        type            empty;
    }
}


// ************************************************************************* //
