/*--------------------------------*- C++ -*----------------------------------*\
| =========                 |                                                 |
| \\      /  F ield         | OpenFOAM: The Open Source CFD Toolbox           |
|  \\    /   O peration     | Version:  2.4.0                                 |
|   \\  /    A nd           | Web:      www.OpenFOAM.org                      |
|    \\/     M anipulation  |                                                 |
\*---------------------------------------------------------------------------*/
FoamFile
{
    version     2.0;
    format      ascii;
    class       volScalarField;
    location    "35";
    object      p;
}
// * * * * * * * * * * * * * * * * * * * * * * * * * * * * * * * * * * * * * //

dimensions      [0 2 -2 0 0 0 0];

internalField   nonuniform List<scalar> 
10000
(
0.0018439
0.00185924
0.00188807
0.00192805
0.00197783
0.00203755
0.00210685
0.00218486
0.00227061
0.0023639
0.00246396
0.00257181
0.00268526
0.00280796
0.00292913
0.00306023
0.00312909
0.00317581
0.00260674
0.00257171
0.00184379
0.0018592
0.00188809
0.00192808
0.00197787
0.00203756
0.00210681
0.00218473
0.00227034
0.00236345
0.00246327
0.00257072
0.00268389
0.00280626
0.00293066
0.00307085
0.00319696
0.00342554
0.00374659
0.00535128
0.00184358
0.00185905
0.00188797
0.00192792
0.00197768
0.00203728
0.00210638
0.00218407
0.00226937
0.00236203
0.00246129
0.00256796
0.00268032
0.00280181
0.00292762
0.00307167
0.00321966
0.00346382
0.00379848
0.00466934
0.00184323
0.00185875
0.00188767
0.00192753
0.00197722
0.00203664
0.00210544
0.00218274
0.00226751
0.00235943
0.00245774
0.00256313
0.00267402
0.00279366
0.00291867
0.00306089
0.00321098
0.00342179
0.00364857
0.00402932
0.00184275
0.0018583
0.00188719
0.00192691
0.00197646
0.00203561
0.002104
0.00218074
0.00226474
0.00235563
0.00245259
0.00255618
0.00266488
0.00278148
0.00290341
0.00303919
0.00318099
0.00335542
0.00352376
0.00373299
0.00184212
0.00185768
0.00188652
0.00192606
0.00197541
0.0020342
0.00210205
0.00217805
0.00226106
0.00235061
0.00244582
0.00254708
0.00265284
0.00276525
0.00288211
0.00300864
0.00313803
0.00328293
0.00341926
0.00356253
0.00184131
0.00185689
0.00188565
0.00192496
0.00197404
0.00203237
0.00209955
0.00217463
0.00225642
0.00234432
0.00243739
0.00253578
0.00263787
0.0027451
0.00285534
0.00297113
0.00308648
0.00320624
0.00331494
0.00341484
0.00184034
0.00185592
0.00188457
0.00192361
0.00197234
0.00203012
0.00209649
0.00217047
0.00225078
0.00233673
0.00242727
0.0025223
0.00262007
0.00272132
0.00282388
0.00292833
0.00302945
0.00312792
0.00321354
0.00328482
0.00183917
0.00185474
0.00188325
0.00192197
0.00197028
0.0020274
0.00209282
0.00216551
0.00224412
0.00232781
0.00241545
0.00250668
0.00259958
0.00269427
0.00278856
0.00288173
0.00296932
0.00305025
0.00311803
0.00317119
0.0018378
0.00185335
0.00188169
0.00192005
0.00196786
0.00202421
0.00208854
0.00215976
0.00223642
0.00231758
0.00240198
0.00248901
0.00257661
0.00266439
0.0027502
0.00283256
0.00290785
0.00297453
0.0030288
0.00307008
0.00183621
0.00185172
0.00187987
0.00191782
0.00196503
0.0020205
0.0020836
0.00215316
0.00222766
0.00230602
0.00238688
0.0024694
0.0025514
0.00263212
0.00270952
0.00278183
0.00284621
0.00290135
0.00294528
0.00297833
0.00183439
0.00184985
0.00187777
0.00191525
0.00196179
0.00201628
0.00207801
0.00214573
0.00221784
0.00229316
0.00237022
0.002448
0.00252423
0.0025979
0.00266719
0.00273031
0.00278519
0.00283095
0.00286689
0.00289394
0.00183231
0.00184771
0.00187536
0.00191233
0.0019581
0.0020115
0.00207172
0.00213743
0.00220696
0.00227903
0.00235208
0.00242495
0.00249534
0.00256213
0.00262375
0.0026786
0.00272528
0.00276339
0.00279305
0.00281557
0.00182997
0.00184528
0.00187264
0.00190905
0.00195397
0.00200617
0.00206474
0.00212827
0.00219504
0.00226368
0.00233257
0.00240044
0.00246503
0.00252519
0.00257968
0.00262715
0.00266678
0.0026986
0.00272326
0.00274222
0.00182734
0.00184255
0.00186957
0.00190536
0.00194934
0.00200024
0.00205704
0.00211824
0.00218209
0.00224716
0.00231177
0.00237462
0.00243353
0.00248742
0.00253533
0.00257627
0.00260986
0.00263649
0.00265709
0.00267316
0.00182441
0.00183949
0.00186614
0.00190127
0.00194423
0.00199372
0.00204862
0.00210735
0.00216816
0.00222954
0.00228982
0.00234767
0.00240111
0.0024491
0.00249103
0.00252621
0.00255462
0.00257691
0.00259416
0.00260786
0.00182116
0.00183608
0.00186233
0.00189673
0.0019386
0.00198657
0.00203946
0.00209561
0.00215325
0.00221087
0.0022668
0.00231977
0.00236796
0.00241048
0.00244698
0.00247711
0.0025011
0.00251974
0.00253419
0.00254586
0.00181758
0.00183232
0.00185811
0.00189174
0.00193244
0.00197881
0.00202957
0.00208304
0.00213744
0.00219125
0.00224287
0.00229108
0.0023343
0.00237177
0.0024034
0.0024291
0.00244927
0.00246483
0.00247691
0.00248684
0.00181363
0.00182816
0.00185345
0.00188626
0.00192572
0.0019704
0.00201894
0.00206964
0.00212074
0.00217073
0.00221811
0.00226175
0.00230029
0.00233313
0.00236041
0.00238223
0.00239913
0.00241205
0.00242211
0.00243051
0.00180931
0.0018236
0.00184836
0.00188029
0.00191844
0.00196135
0.00200759
0.00205546
0.00210322
0.00214943
0.00219266
0.00223192
0.0022661
0.00229472
0.00231811
0.00233654
0.00235063
0.00236129
0.0023696
0.00237665
0.00180459
0.0018186
0.00184278
0.00187378
0.00191058
0.00195164
0.00199551
0.00204049
0.00208492
0.00212739
0.00216661
0.00220172
0.00223185
0.00225664
0.00227658
0.00229206
0.0023037
0.00231243
0.00231921
0.00232506
0.00179946
0.00181317
0.00183672
0.00186675
0.00190212
0.00194127
0.00198272
0.0020248
0.00206591
0.00210471
0.00214007
0.00217126
0.00219765
0.00221898
0.00223587
0.00224876
0.00225831
0.00226535
0.00227081
0.00227558
0.00179389
0.00180725
0.00183014
0.00185914
0.00189305
0.00193024
0.00196922
0.00200839
0.00204621
0.00208146
0.00211312
0.00214064
0.00216358
0.00218181
0.002196
0.00220665
0.00221438
0.00221996
0.00222426
0.00222806
0.00178788
0.00180086
0.00182304
0.00185097
0.00188336
0.00191855
0.00195505
0.00199131
0.00202591
0.00205771
0.00208587
0.00210996
0.00212974
0.00214518
0.00215699
0.00216568
0.00217184
0.00217617
0.00217943
0.00218236
0.00178138
0.00179396
0.00181538
0.0018422
0.00187304
0.00190619
0.0019402
0.00197359
0.00200503
0.00203352
0.00205837
0.00207927
0.00209617
0.00210911
0.00211883
0.00212582
0.00213062
0.00213386
0.00213623
0.00213836
0.0017744
0.00178654
0.00180716
0.00183283
0.00186208
0.00189318
0.0019247
0.00195526
0.00198365
0.00200898
0.0020307
0.00204865
0.00206292
0.00207363
0.00208151
0.00208703
0.00209065
0.00209295
0.00209452
0.00209593
0.00176689
0.00177857
0.00179835
0.00182284
0.00185048
0.00187952
0.00190857
0.00193635
0.00196178
0.00198411
0.00200291
0.00201814
0.00203001
0.00203873
0.002045
0.00204924
0.00205186
0.00205334
0.00205422
0.00205497
0.00175887
0.00177006
0.00178897
0.00181223
0.00183823
0.00186521
0.00189183
0.00191691
0.00193951
0.00195898
0.00197505
0.00198778
0.00199748
0.00200443
0.00200928
0.00201241
0.00201415
0.00201494
0.0020152
0.00201537
0.0017503
0.00176096
0.00177896
0.00180098
0.00182533
0.00185026
0.00187449
0.00189696
0.00191684
0.00193363
0.00194717
0.0019576
0.00196533
0.00197071
0.0019743
0.00197646
0.00197745
0.00197764
0.00197737
0.00197701
0.00174117
0.00175129
0.00176836
0.0017891
0.00181179
0.00183469
0.0018566
0.00187654
0.00189384
0.00190811
0.00191929
0.00192762
0.00193356
0.00193752
0.00194001
0.00194132
0.00194168
0.00194135
0.00194063
0.0019398
0.00173145
0.00174102
0.00175712
0.00177656
0.00179759
0.0018185
0.00183815
0.00185568
0.00187053
0.00188244
0.00189145
0.00189785
0.00190216
0.00190486
0.00190636
0.00190693
0.00190674
0.00190598
0.00190488
0.00190363
0.00172115
0.00173014
0.00174527
0.00176339
0.00178276
0.00180172
0.00181919
0.00183441
0.00184696
0.00185667
0.00186367
0.00186831
0.00187114
0.00187267
0.0018733
0.00187322
0.00187256
0.00187145
0.00187002
0.00186842
0.00171023
0.00171864
0.00173277
0.00174956
0.00176729
0.00178435
0.00179972
0.00181275
0.00182313
0.0018308
0.00183595
0.00183899
0.00184047
0.00184095
0.00184078
0.00184014
0.00183908
0.00183766
0.00183597
0.00183408
0.0016987
0.00170652
0.00171963
0.0017351
0.0017512
0.00176641
0.00177977
0.00179074
0.0017991
0.00180488
0.00180833
0.00180989
0.00181014
0.00180966
0.00180877
0.00180762
0.00180621
0.00180455
0.00180265
0.00180051
0.00168653
0.00169376
0.00170585
0.00171998
0.00173448
0.00174791
0.00175936
0.00176839
0.00177487
0.0017789
0.0017808
0.00178102
0.00178015
0.00177878
0.00177723
0.00177562
0.00177391
0.00177204
0.00176997
0.00176764
0.00167374
0.00168037
0.00169142
0.00170422
0.00171716
0.00172886
0.00173852
0.00174573
0.00175046
0.0017529
0.00175337
0.00175237
0.00175047
0.00174828
0.00174612
0.00174409
0.0017421
0.00174006
0.00173786
0.00173539
0.00166029
0.00166632
0.00167634
0.00168782
0.00169923
0.00170929
0.00171724
0.00172276
0.0017259
0.00172687
0.00172605
0.00172394
0.00172109
0.00171814
0.00171541
0.00171297
0.00171073
0.00170855
0.00170625
0.00170368
0.0016462
0.00165162
0.00166061
0.00167079
0.00168072
0.0016892
0.00169555
0.00169952
0.00170119
0.00170082
0.00169883
0.0016957
0.001692
0.00168833
0.00168506
0.00168224
0.00167975
0.00167744
0.00167506
0.00167245
0.00163144
0.00163627
0.00164424
0.00165313
0.00166162
0.0016686
0.00167347
0.001676
0.00167633
0.00167476
0.00167171
0.00166767
0.00166317
0.00165884
0.00165505
0.00165185
0.00164912
0.00164668
0.00164426
0.00164162
0.00161604
0.00162028
0.00162723
0.00163486
0.00164196
0.00164753
0.001651
0.00165222
0.00165135
0.0016487
0.00164469
0.00163981
0.0016346
0.00162964
0.00162535
0.00162178
0.00161881
0.00161624
0.00161379
0.00161115
0.00159997
0.00160362
0.00160957
0.00161599
0.00162175
0.00162598
0.00162817
0.00162819
0.00162623
0.00162261
0.00161775
0.00161213
0.00160625
0.00160072
0.00159595
0.001592
0.00158878
0.00158609
0.00158361
0.001581
0.00158326
0.00158634
0.00159131
0.00159653
0.00160102
0.00160398
0.00160498
0.00160392
0.00160098
0.0015965
0.0015909
0.00158461
0.00157814
0.00157206
0.00156683
0.00156251
0.00155903
0.00155619
0.0015537
0.00155114
0.0015659
0.00156842
0.00157243
0.0015765
0.00157977
0.00158154
0.00158144
0.0015794
0.0015756
0.00157037
0.00156411
0.00155724
0.00155024
0.00154366
0.00153798
0.00153329
0.00152953
0.00152656
0.00152403
0.00152155
0.00154791
0.00154988
0.00155297
0.00155593
0.00155803
0.00155869
0.00155758
0.00155465
0.00155009
0.00154422
0.00153739
0.00153001
0.00152253
0.0015155
0.00150939
0.00150434
0.00150031
0.00149718
0.00149461
0.0014922
0.00152929
0.00153073
0.00153293
0.00153483
0.00153583
0.00153544
0.0015334
0.00152968
0.00152446
0.00151802
0.00151071
0.0015029
0.00149502
0.00148758
0.00148108
0.00147567
0.00147135
0.00146804
0.00146543
0.00146309
0.00151006
0.001511
0.00151234
0.00151323
0.00151318
0.00151182
0.00150893
0.0015045
0.0014987
0.00149178
0.00148407
0.00147591
0.00146768
0.00145989
0.00145302
0.00144727
0.00144265
0.00143916
0.00143649
0.00143421
0.00149023
0.00149068
0.00149121
0.00149114
0.00149012
0.00148784
0.00148418
0.00147912
0.00147281
0.0014655
0.00145747
0.00144902
0.00144051
0.00143241
0.00142523
0.00141914
0.00141425
0.00141054
0.0014078
0.00140557
0.00146984
0.00146983
0.00146958
0.00146861
0.00146666
0.00146354
0.00145916
0.00145354
0.0014468
0.00143917
0.00143088
0.00142222
0.00141349
0.00140515
0.00139769
0.0013913
0.00138612
0.0013822
0.00137937
0.00137717
0.00144887
0.00144843
0.00144745
0.00144564
0.00144284
0.00143894
0.00143391
0.00142778
0.00142068
0.00141278
0.00140431
0.00139549
0.00138662
0.00137809
0.00137039
0.00136374
0.00135828
0.00135414
0.0013512
0.00134901
0.00142738
0.00142653
0.00142488
0.00142228
0.00141868
0.00141406
0.00140844
0.00140186
0.00139444
0.00138634
0.00137774
0.00136883
0.00135987
0.00135122
0.00134334
0.00133645
0.00133073
0.00132637
0.0013233
0.00132111
0.00140536
0.00140415
0.00140186
0.00139854
0.00139421
0.00138893
0.00138277
0.00137579
0.00136811
0.00135986
0.00135118
0.00134224
0.00133323
0.00132452
0.0013165
0.00130942
0.00130348
0.0012989
0.00129569
0.00129348
0.00138286
0.00138131
0.00137845
0.00137447
0.00136946
0.00136358
0.00135692
0.0013496
0.0013417
0.00133333
0.00132462
0.00131569
0.00130671
0.00129797
0.00128988
0.00128265
0.0012765
0.00127172
0.00126836
0.0012661
0.0013599
0.00135803
0.00135465
0.00135007
0.00134445
0.00133802
0.00133093
0.0013233
0.00131521
0.00130677
0.00129807
0.00128919
0.00128027
0.00127158
0.00126346
0.00125613
0.00124981
0.00124485
0.00124132
0.00123901
0.00133651
0.00133437
0.00133051
0.00132538
0.00131923
0.0013123
0.00130482
0.00129691
0.00128867
0.00128019
0.00127152
0.00126273
0.00125393
0.00124532
0.00123722
0.00122983
0.00122338
0.00121825
0.00121457
0.00121219
0.00131271
0.00131032
0.00130605
0.00130044
0.0012938
0.00128644
0.00127861
0.00127046
0.0012621
0.0012536
0.00124499
0.00123632
0.00122766
0.00121918
0.00121115
0.00120375
0.00119721
0.00119194
0.00118812
0.00118565
0.00128855
0.00128594
0.0012813
0.00127527
0.00126821
0.00126047
0.00125233
0.00124397
0.00123552
0.00122701
0.00121848
0.00120995
0.00120147
0.00119315
0.00118523
0.00117787
0.00117128
0.00116589
0.00116194
0.00115938
0.00126403
0.00126124
0.00125629
0.0012499
0.00124247
0.0012344
0.001226
0.00121748
0.00120894
0.00120044
0.00119201
0.00118364
0.00117535
0.00116722
0.00115946
0.00115217
0.00114558
0.00114011
0.00113606
0.0011334
0.00123923
0.00123628
0.00123105
0.00122436
0.00121663
0.00120828
0.00119966
0.00119099
0.00118239
0.00117393
0.0011656
0.0011574
0.00114932
0.0011414
0.00113382
0.00112665
0.00112009
0.00111458
0.00111044
0.00110769
0.00121414
0.00121106
0.00120562
0.00119867
0.0011907
0.00118213
0.00117333
0.00116454
0.0011559
0.00114747
0.00113926
0.00113124
0.00112337
0.00111569
0.00110831
0.00110129
0.00109481
0.00108929
0.0010851
0.00108228
0.00118883
0.00118564
0.00118002
0.00117288
0.00116471
0.00115596
0.00114703
0.00113816
0.0011295
0.00112111
0.00111301
0.00110516
0.00109753
0.00109008
0.00108292
0.00107608
0.00106971
0.00106423
0.00106
0.00105714
0.0011633
0.00116004
0.00115428
0.00114699
0.00113868
0.00112981
0.00112078
0.00111185
0.00110319
0.00109486
0.00108688
0.00107921
0.00107179
0.00106459
0.00105767
0.00105103
0.0010448
0.0010394
0.00103517
0.0010323
0.00113762
0.00113431
0.00112844
0.00112105
0.00111265
0.0011037
0.00109461
0.00108566
0.00107701
0.00106874
0.00106088
0.00105338
0.00104617
0.00103922
0.00103253
0.00102612
0.00102006
0.00101477
0.00101058
0.00100772
0.0011118
0.00110846
0.00110253
0.00109508
0.00108662
0.00107764
0.00106854
0.00105958
0.00105097
0.00104277
0.00103503
0.00102769
0.0010207
0.00101398
0.00100754
0.00100136
0.000995506
0.000990352
0.000986247
0.000983416
0.0010859
0.00108254
0.00107658
0.00106911
0.00106064
0.00105167
0.00104257
0.00103365
0.00102509
0.00101698
0.00100936
0.00100219
0.000995394
0.000988913
0.000982716
0.000976772
0.000971125
0.000966134
0.000962127
0.000959355
0.00105993
0.00105658
0.00105062
0.00104316
0.00103472
0.00102579
0.00101674
0.00100788
0.000999392
0.000991382
0.000983888
0.000976881
0.000970292
0.000964035
0.000958091
0.000952384
0.000946977
0.000942156
0.000938292
0.000935577
0.00103396
0.00103062
0.00102468
0.00101727
0.0010089
0.00100003
0.00099107
0.000982289
0.000973893
0.000965993
0.000958635
0.000951793
0.0009454
0.000939368
0.000933663
0.000928197
0.000923022
0.000918392
0.000914665
0.000912036
0.00100798
0.00100468
0.000998792
0.000991454
0.000983178
0.000974421
0.000965563
0.000956893
0.000948609
0.000940834
0.000933617
0.000926942
0.000920744
0.000914934
0.000909467
0.000904249
0.000899315
0.000894892
0.000891322
0.000888795
0.000982077
0.000978815
0.000972994
0.000965755
0.000957602
0.000948977
0.000940253
0.000931711
0.00092356
0.000915918
0.00090885
0.000902337
0.00089633
0.00089073
0.000885495
0.000880518
0.000875831
0.000871625
0.000868229
0.000865816
0.000956241
0.000953039
0.000947309
0.000940196
0.000932192
0.000923722
0.000915156
0.000906768
0.000898761
0.000891268
0.000884349
0.000878005
0.000872176
0.000866787
0.000861767
0.000857045
0.000852595
0.00084864
0.000845414
0.000843155
0.000930538
0.000927396
0.000921773
0.000914804
0.00090697
0.000898686
0.000890296
0.000882081
0.000874237
0.000866903
0.000860141
0.000853962
0.00084831
0.000843117
0.000838307
0.000833812
0.000829599
0.000825868
0.000822825
0.000820697
0.000904971
0.000901909
0.000896411
0.000889607
0.000881966
0.000873881
0.000865697
0.000857674
0.000850011
0.000842846
0.000836251
0.000830239
0.000824762
0.000819756
0.000815148
0.000810871
0.00080689
0.00080338
0.000800526
0.000798539
0.000879601
0.000876616
0.000871256
0.00086463
0.000857197
0.000849339
0.000841376
0.000833566
0.000826101
0.000819119
0.000812695
0.000806849
0.000801543
0.000796717
0.000792304
0.000788241
0.000784493
0.000781215
0.000778568
0.000776741
0.000854431
0.000851543
0.000846333
0.000839901
0.000832693
0.000825073
0.000817354
0.000809775
0.000802525
0.000795739
0.000789492
0.00078381
0.000778662
0.000773996
0.000769751
0.000765876
0.00076234
0.000759284
0.000756848
0.000755196
0.000829521
0.000826724
0.000821672
0.000815444
0.000808474
0.00080111
0.000793646
0.000786318
0.000779298
0.00077272
0.000766657
0.000761141
0.000756139
0.000751611
0.000747502
0.000743779
0.000740418
0.000737561
0.000735329
0.000733868
0.000804872
0.000802184
0.000797302
0.000791289
0.000784564
0.000777466
0.000770274
0.000763207
0.000756433
0.000750074
0.000744209
0.000738858
0.000734005
0.0007296
0.000725617
0.00072201
0.000718813
0.000716121
0.000714104
0.000712824
0.000780546
0.000777957
0.000773247
0.000767454
0.000760988
0.00075416
0.000747248
0.000740453
0.000733935
0.000727808
0.000722144
0.000716965
0.000712259
0.000707979
0.000704109
0.000700621
0.000697567
0.000695049
0.000693229
0.000692151
0.000756542
0.000754066
0.000749534
0.000743967
0.000737758
0.000731213
0.000724585
0.000718071
0.000711816
0.000705926
0.000700468
0.000695463
0.000690898
0.000686735
0.000682969
0.000679589
0.000676667
0.000674313
0.000672686
0.000671814
0.000732918
0.000730542
0.000726189
0.00072085
0.000714904
0.00070864
0.000702304
0.000696074
0.000690088
0.000684439
0.000679194
0.000674364
0.000669941
0.000665889
0.000662217
0.000658929
0.000656122
0.000653916
0.00065247
0.000651801
0.000709673
0.000707411
0.000703241
0.000698128
0.000692447
0.000686467
0.00068042
0.000674478
0.000668763
0.000663363
0.000658329
0.000653681
0.000649395
0.000645456
0.000641864
0.000638673
0.000635966
0.000633918
0.000632641
0.00063219
0.000686861
0.000684698
0.000680708
0.000675828
0.000670405
0.000664707
0.00065895
0.000653295
0.000647851
0.000642698
0.000637877
0.000633403
0.000629252
0.000625418
0.000621913
0.000618814
0.000616226
0.000614339
0.000613258
0.000613015
0.000664479
0.000662428
0.00065862
0.000653963
0.000648803
0.000643383
0.000637913
0.000632542
0.000627371
0.000622467
0.000617861
0.000613561
0.000609543
0.000605806
0.000602383
0.000599368
0.000596895
0.000595162
0.000594272
0.000594229
0.000642579
0.000640627
0.000636997
0.000632564
0.000627655
0.00062251
0.00061732
0.000612232
0.000607331
0.000602677
0.000598288
0.000594163
0.000590276
0.000586634
0.000583279
0.000580331
0.000577946
0.000576339
0.000575608
0.00057574
0.000621163
0.000619321
0.000615864
0.00061165
0.000606989
0.000602106
0.000597191
0.000592376
0.000587746
0.000583343
0.000579181
0.000575242
0.000571506
0.000567967
0.000564693
0.000561798
0.000559485
0.000557951
0.000557332
0.000557568
0.000600281
0.000598531
0.000595247
0.00059124
0.000586817
0.000582189
0.000577536
0.000572987
0.000568617
0.000564461
0.000560521
0.000556775
0.000553199
0.000549787
0.000546611
0.000543799
0.000541567
0.000540123
0.000539603
0.000539939
0.000579936
0.000578286
0.000575163
0.000571359
0.000567163
0.000562779
0.000558376
0.000554079
0.000549956
0.000546034
0.000542305
0.000538743
0.00053532
0.000532033
0.000528961
0.000526244
0.000524111
0.000522778
0.000522378
0.000522841
0.000560176
0.00055861
0.000555639
0.000552025
0.000548048
0.000543894
0.000539731
0.000535672
0.000531783
0.000528079
0.000524552
0.000521163
0.000517884
0.000514712
0.000511734
0.000509101
0.000507056
0.000505828
0.000505556
0.000506167
0.000541012
0.000539528
0.000536703
0.000533267
0.000529492
0.000525557
0.000521617
0.000517786
0.000514116
0.000510624
0.000507284
0.000504062
0.000500915
0.000497849
0.000494943
0.000492376
0.00049039
0.000489257
0.000489098
0.000489866
0.000522483
0.000521074
0.000518376
0.000515105
0.000511517
0.000507784
0.000504054
0.000500432
0.000496967
0.000493669
0.000490507
0.000487441
0.000484424
0.000481464
0.000478642
0.000476149
0.00047424
0.0004732
0.000473155
0.000474053
0.000504608
0.000503265
0.00050069
0.000497568
0.000494149
0.0004906
0.000487059
0.000483627
0.000480348
0.000477229
0.000474234
0.00047132
0.000468439
0.000465598
0.00046288
0.00046048
0.000458664
0.000457717
0.000457768
0.000458758
0.000487426
0.000486142
0.000483671
0.000480682
0.000477416
0.00047403
0.000470658
0.000467393
0.000464278
0.000461315
0.000458466
0.000455684
0.000452922
0.000450187
0.000447564
0.000445254
0.000443526
0.000442671
0.000442817
0.0004439
0.000470966
0.000469735
0.000467356
0.000464481
0.000461347
0.000458103
0.000454878
0.000451761
0.000448791
0.000445966
0.000443246
0.000440583
0.000437926
0.000435283
0.000432741
0.000430507
0.00042886
0.000428093
0.000428342
0.000429536
0.000455282
0.00045409
0.000451783
0.000449003
0.000445976
0.000442851
0.000439746
0.000436752
0.000433902
0.000431193
0.000428578
0.000426008
0.000423429
0.00042085
0.000418361
0.000416177
0.000414587
0.000413895
0.00041424
0.000415546
0.000440416
0.000439257
0.000437003
0.000434288
0.000431343
0.000428307
0.0004253
0.000422405
0.000419661
0.000417054
0.000414542
0.00041206
0.00040956
0.000407038
0.000404601
0.000402454
0.00040091
0.000400267
0.000400687
0.000402073
0.000426444
0.000425299
0.000423069
0.000420389
0.000417491
0.000414509
0.000411562
0.00040873
0.000406049
0.000403498
0.000401034
0.000398586
0.000396107
0.000393592
0.000391153
0.000388998
0.000387447
0.000386808
0.000387246
0.000388666
0.00041344
0.000412294
0.000410053
0.000407369
0.000404477
0.000401515
0.000398606
0.000395829
0.000393218
0.000390748
0.000388366
0.000385989
0.000383567
0.000381093
0.000378683
0.000376552
0.000375027
0.000374421
0.000374905
0.000376382
0.000401524
0.000400342
0.00039804
0.000395295
0.000392348
0.000389328
0.000386359
0.00038352
0.000380852
0.000378325
0.000375887
0.000373452
0.000370965
0.00036842
0.000365941
0.00036375
0.000362187
0.000361581
0.000362103
0.000363649
0.000390846
0.000389582
0.000387132
0.000384268
0.000381241
0.000378184
0.000375211
0.000372408
0.000369804
0.000367378
0.000365054
0.00036275
0.000360382
0.00035795
0.000355561
0.000353452
0.000351951
0.000351414
0.00035202
0.000353676
0.00038161
0.000380211
0.000377465
0.000374282
0.00037093
0.000367541
0.000364228
0.000361082
0.000358139
0.000355393
0.00035278
0.000350224
0.000347647
0.000345046
0.000342526
0.000340315
0.000338749
0.000338192
0.00033882
0.000340537
0.000374116
0.000372386
0.00036935
0.00036603
0.000362624
0.000359248
0.000356016
0.000353004
0.000350227
0.000347669
0.000345254
0.000342901
0.000340519
0.0003381
0.000335745
0.000333676
0.000332199
0.000331688
0.00033234
0.000334074
0.000369463
0.000366136
0.000361653
0.000357191
0.000352725
0.00034834
0.00034417
0.000340305
0.000336759
0.000333523
0.000330526
0.00032769
0.000324923
0.000322207
0.000319628
0.000317375
0.000315763
0.000315156
0.000315739
0.00031742
0.00218844
0.00403767
0.00434911
0.00420856
0.00405498
0.00387175
0.00367847
0.00350068
0.00334187
0.00320051
0.00307612
0.0029672
0.00287112
0.00278514
0.00270723
0.00263589
0.00256991
0.00250807
0.00244942
0.00239303
0.00233825
0.00228452
0.00223152
0.00217898
0.00212682
0.00207493
0.00202334
0.00197203
0.00192106
0.00187044
0.00182022
0.0017704
0.001721
0.00167206
0.00162356
0.00157551
0.00152788
0.00148071
0.00143391
0.0013875
0.00134142
0.00129563
0.00124995
0.00120446
0.00115914
0.00111405
0.00106897
0.00102417
0.000979638
0.000935541
0.000891188
0.000847129
0.000803383
0.000760249
0.000717917
0.000676425
0.000635931
0.000595877
0.000557947
0.000520317
0.000484603
0.000447478
0.000416358
0.000382026
0.000358493
0.000326767
0.000310608
0.000278219
0.000270275
0.000234093
0.000228034
0.000193893
0.000196292
0.000166379
0.000158137
0.000138663
0.000137922
0.000105445
0.00018248
0.000118733
0.00736231
0.00535562
0.00420052
0.00368483
0.00341242
0.00323725
0.00311328
0.00302087
0.00294567
0.00287958
0.00281948
0.00276368
0.00271061
0.002659
0.00260826
0.00255815
0.00250857
0.00245932
0.00241033
0.0023614
0.00231249
0.0022635
0.00221447
0.00216536
0.00211623
0.00206709
0.00201801
0.00196899
0.00192012
0.00187141
0.00182291
0.00177464
0.00172662
0.00167889
0.00163143
0.00158427
0.00153738
0.00149081
0.00144448
0.00139843
0.0013526
0.00130695
0.00126134
0.00121582
0.00117043
0.00112518
0.00107989
0.00103488
0.000990086
0.000945674
0.000900993
0.000856625
0.000812539
0.00076904
0.00072638
0.00068457
0.000643739
0.000603358
0.000565112
0.000527137
0.000491127
0.000453652
0.000422274
0.000387635
0.000363916
0.000331778
0.000315566
0.000282766
0.00027486
0.000238064
0.000232332
0.000197431
0.000200496
0.000168999
0.000161937
0.000140935
0.000140893
0.000108279
0.00018348
0.000122918
0.00549591
0.0045419
0.00399962
0.00378517
0.00364087
0.00351492
0.00340104
0.00329683
0.00320016
0.00310975
0.00302535
0.00294657
0.00287256
0.00280228
0.00273508
0.00267046
0.00260803
0.00254741
0.00248835
0.00243057
0.00237393
0.00231826
0.0022635
0.00220952
0.00215629
0.00210369
0.00205171
0.00200027
0.00194937
0.00189894
0.00184898
0.00179946
0.00175036
0.00170169
0.00165339
0.00160549
0.00155792
0.00151073
0.0014638
0.00141719
0.0013708
0.0013246
0.00127843
0.00123238
0.00118644
0.00114062
0.00109477
0.00104924
0.00100389
0.00095891
0.000913693
0.000868839
0.000824228
0.000780215
0.000737104
0.000694887
0.000653625
0.00061283
0.000574159
0.000535766
0.000499401
0.000461517
0.000429862
0.00039489
0.000370967
0.000338361
0.000322161
0.000288852
0.000281042
0.000243573
0.000238355
0.000202423
0.000206232
0.000172688
0.000167306
0.000144035
0.000145508
0.000112399
0.00018407
0.000128273
0.00438424
0.00412581
0.00392306
0.00378378
0.00365122
0.00352528
0.00340979
0.00330464
0.00320849
0.00311975
0.00303727
0.00296023
0.00288759
0.00281829
0.00275167
0.00268725
0.00262463
0.00256351
0.00250375
0.00244517
0.0023877
0.00233127
0.00227585
0.00222135
0.00216772
0.00211487
0.00206274
0.00201125
0.00196036
0.00191
0.00186015
0.00181076
0.00176179
0.00171325
0.00166507
0.00161727
0.00156977
0.00152262
0.0014757
0.00142907
0.0013826
0.00133628
0.00128995
0.00124371
0.00119754
0.00115146
0.00110534
0.00105953
0.00101387
0.000968557
0.000923049
0.00087792
0.000832988
0.000788684
0.000745337
0.000702919
0.000661406
0.000620362
0.000581409
0.000542791
0.000506226
0.000468125
0.000436335
0.000401235
0.000377204
0.00034432
0.000328195
0.000294564
0.000286868
0.000248988
0.000244159
0.000207239
0.000211554
0.000176219
0.000172333
0.00014688
0.000150069
0.000116228
0.000182516
0.000131167
0.00391902
0.00385618
0.00376778
0.00367133
0.00356636
0.00346238
0.00336382
0.00327148
0.00318509
0.00310388
0.00302696
0.00295394
0.00288423
0.00281701
0.00275183
0.00268841
0.00262638
0.00256557
0.00250595
0.0024474
0.00238992
0.0023335
0.00227812
0.00222372
0.00217026
0.00211763
0.00206579
0.00201463
0.00196411
0.00191414
0.00186469
0.0018157
0.00176714
0.00171899
0.00167117
0.0016237
0.0015765
0.00152961
0.00148291
0.00143644
0.00139008
0.00134381
0.0012975
0.00125123
0.00120501
0.00115883
0.00111259
0.00106664
0.00102082
0.000975363
0.000929742
0.000884504
0.000839436
0.000795042
0.000751633
0.000709187
0.000667566
0.000626425
0.000587343
0.000548693
0.000512053
0.000473908
0.000442132
0.000407107
0.000383026
0.000350053
0.000334022
0.000300245
0.000292585
0.000254498
0.000249786
0.000211971
0.00021648
0.000179699
0.000177096
0.000149647
0.000154411
0.000119526
0.000179256
0.00013198
0.00367724
0.00365628
0.00360198
0.00353391
0.00345673
0.00337662
0.0032971
0.00321964
0.00314468
0.0030723
0.00300208
0.00293392
0.00286782
0.00280327
0.00274004
0.00267816
0.00261733
0.00255746
0.00249865
0.00244078
0.00238393
0.0023281
0.00227327
0.00221943
0.00216653
0.00211447
0.0020632
0.00201262
0.00196269
0.00191331
0.00186444
0.00181603
0.00176803
0.00172041
0.0016731
0.00162611
0.00157935
0.00153285
0.00148649
0.00144031
0.00139418
0.0013481
0.00130193
0.00125578
0.00120962
0.00116348
0.00111727
0.00107133
0.00102552
0.000980089
0.000934534
0.000889372
0.000844371
0.00080009
0.000756797
0.000714471
0.000672886
0.000631818
0.000592772
0.00055423
0.000517622
0.000479621
0.000447979
0.000413168
0.000389058
0.000356137
0.000340178
0.00030636
0.00029861
0.000260363
0.000255469
0.000216873
0.000221339
0.000183418
0.000181744
0.000152424
0.000158438
0.000122347
0.000174833
0.000131418
0.00348685
0.0034846
0.00345317
0.0034071
0.00335093
0.00328902
0.00322457
0.00315945
0.00309467
0.00303073
0.00296765
0.00290522
0.00284355
0.00278244
0.00272168
0.00266149
0.00260199
0.00254316
0.00248534
0.00242839
0.00237241
0.00231744
0.00226343
0.0022104
0.00215827
0.00210697
0.00205645
0.00200659
0.00195737
0.00190869
0.00186052
0.00181278
0.00176542
0.00171843
0.00167171
0.00162528
0.00157903
0.001533
0.00148707
0.00144126
0.00139547
0.00134967
0.00130375
0.00125783
0.00121187
0.00116589
0.00111984
0.00107405
0.00102842
0.000983172
0.000937862
0.000892963
0.00084823
0.000804249
0.000761222
0.000719156
0.000677757
0.000636932
0.000598057
0.000559738
0.000523259
0.000485558
0.000454141
0.000419636
0.000395501
0.000362753
0.000346801
0.000312967
0.000304908
0.00026651
0.000261197
0.000221965
0.000226111
0.000187318
0.000186276
0.000155192
0.000162141
0.000124762
0.000169638
0.000129878
0.00333336
0.00334065
0.00332425
0.00329295
0.00325101
0.0032021
0.00314905
0.00309375
0.0030374
0.00298068
0.00292391
0.00286714
0.00281049
0.00275381
0.00269679
0.00263943
0.00258209
0.00252484
0.00246806
0.00241202
0.0023569
0.00230284
0.0022497
0.00219758
0.00214634
0.00209591
0.00204623
0.0019972
0.00194878
0.00190088