/*--------------------------------*- C++ -*----------------------------------*\
| =========                 |                                                 |
| \\      /  F ield         | OpenFOAM: The Open Source CFD Toolbox           |
|  \\    /   O peration     | Version:  2.4.0                                 |
|   \\  /    A nd           | Web:      www.OpenFOAM.org                      |
|    \\/     M anipulation  |                                                 |
\*---------------------------------------------------------------------------*/
FoamFile
{
    version     2.0;
    format      ascii;
    class       volVectorField;
    location    "7.02";
    object      U;
}
// * * * * * * * * * * * * * * * * * * * * * * * * * * * * * * * * * * * * * //

dimensions      [0 1 -1 0 0 0 0];

internalField   nonuniform List<vector> 
6000
(
(0.165117 -0.00671281 1.27901e-18)
(-0.00974654 0.00185861 0)
(0.000828194 -0.000234126 7.2151e-18)
(-0.00663401 0.00128765 0)
(-0.00500579 0.000987419 0)
(-0.00607616 0.00113989 0)
(-0.00534304 0.000983948 4.00453e-18)
(-0.00550669 0.000961753 3.33575e-22)
(-0.00512268 0.000866034 0)
(-0.00512232 0.000821066 0)
(-0.00494474 0.000758518 3.90598e-18)
(-0.0049661 0.000720579 -7.73762e-18)
(-0.00495771 0.000682961 0)
(-0.005076 0.00065871 0)
(-0.0052252 0.000639049 -1.87702e-18)
(-0.00546816 0.000626124 0)
(-0.0057649 0.000616376 0)
(-0.00614013 0.000608965 -1.82852e-18)
(-0.00657738 0.000601842 -1.81527e-18)
(-0.00708555 0.000593414 0)
(-0.00765669 0.000581942 1.79408e-18)
(-0.00829123 0.000565598 8.93188e-19)
(-0.00898158 0.000542598 -8.9037e-19)
(-0.00972126 0.000511106 0)
(-0.0104986 0.000469526 0)
(-0.0113008 0.000416459 0)
(-0.0121117 0.000350899 4.45388e-19)
(-0.0129129 0.000272228 -4.47068e-19)
(-0.0136823 0.000180358 0)
(-0.0143941 7.5848e-05 0)
(-0.0150195 -3.99528e-05 5.70742e-20)
(-0.0155266 -0.000164881 0)
(-0.0158811 -0.000296074 4.67011e-19)
(-0.0160476 -0.00043033 -4.73512e-19)
(-0.0159891 -0.000552373 0)
(-0.0156676 -0.000664729 0)
(-0.0150477 -0.000757905 9.96351e-19)
(-0.014093 -0.000822645 0)
(-0.0127733 -0.000848715 1.03726e-18)
(-0.0110537 -0.000825551 0)
(-0.00891645 -0.000741431 0)
(-0.00633035 -0.000585278 2.21373e-18)
(-0.00332771 -0.000346904 -4.52274e-18)
(0.000132434 -1.21654e-05 0)
(0.00358262 0.000380573 0)
(0.00724012 0.00084274 2.39744e-18)
(0.0109363 0.00137607 0)
(0.0149994 0.00200073 0)
(0.0189359 0.00269863 -4.97059e-18)
(0.0235294 0.00351806 -4.99825e-18)
(0.0274803 0.00437589 -4.97782e-18)
(0.0328937 0.00543818 -1.78247e-21)
(0.0363438 0.00641226 4.82049e-18)
(0.0434543 0.00784911 0)
(0.0452149 0.00878991 -2.99089e-21)
(0.0563541 0.0109926 -4.28025e-18)
(0.0536416 0.0114104 3.43555e-18)
(0.0745696 0.0155342 3.53204e-18)
(0.0619656 0.0144253 4.15997e-21)
(0.103757 0.0228132 0)
(0.360297 -0.0164517 -1.78186e-18)
(0.00301532 0.0065064 4.2772e-18)
(0.00549023 -0.000893374 -4.32709e-18)
(-0.0149566 0.00337602 -4.59124e-18)
(-0.01243 0.00257922 0)
(-0.0157697 0.00305954 0)
(-0.0142792 0.0026646 -4.57173e-18)
(-0.0148739 0.00262437 9.05588e-18)
(-0.0140221 0.00238101 0)
(-0.0140812 0.00226709 0)
(-0.0136838 0.00210952 -4.33353e-18)
(-0.01377 0.00201406 4.26948e-18)
(-0.0137885 0.0019223 2.10284e-18)
(-0.0141255 0.00186507 0)
(-0.0145523 0.00182098 2.04498e-18)
(-0.0152207 0.00179456 0)
(-0.0160347 0.00177666 0)
(-0.0170513 0.00176453 0)
(-0.0182292 0.00175259 0)
(-0.0195861 0.00173622 0)
(-0.0210993 0.00171046 -9.77453e-24)
(-0.0227649 0.00167004 0)
(-0.0245594 0.00160988 -9.51055e-19)
(-0.0264611 0.00152474 0)
(-0.0284359 0.00141014 0)
(-0.0304466 0.00126228 4.72865e-19)
(-0.0324486 0.0010785 -4.73473e-19)
(-0.0343918 0.000857196 -4.00534e-24)
(-0.0362175 0.000598204 2.38574e-19)
(-0.0378594 0.000303197 0)
(-0.0392445 -2.39575e-05 -6.05413e-20)
(-0.0402939 -0.000377076 -2.4467e-19)
(-0.0409237 -0.000747631 1.0773e-23)
(-0.0410459 -0.00112482 5.02272e-19)
(-0.0405733 -0.00148157 -5.10221e-19)
(-0.0394157 -0.00181151 0)
(-0.0374865 -0.00209129 0)
(-0.0346973 -0.00229674 0)
(-0.0309718 -0.0024006 0)
(-0.0262227 -0.00237454 0)
(-0.0204001 -0.00218638 -2.30493e-18)
(-0.0134284 -0.0018042 0)
(-0.00538931 -0.00119727 2.40422e-18)
(0.00370924 -0.000310813 2.45014e-18)
(0.012678 0.000757529 0)
(0.022162 0.00199917 0)
(0.0317592 0.00342609 0)
(0.0421819 0.00508404 0)
(0.052343 0.00693585 5.41751e-18)
(0.0639549 0.00908777 0)
(0.0742068 0.0113586 0)
(0.0876477 0.0141163 -5.48933e-18)
(0.0969409 0.0167115 -5.38289e-18)
(0.114134 0.020381 0)
(0.120037 0.0229744 -9.95119e-18)
(0.146061 0.0284578 0)
(0.142817 0.0300126 -7.95636e-18)
(0.190287 0.0398977 -4.10759e-18)
(0.166585 0.0382063 1.69046e-18)
(0.261136 0.0572264 2.95659e-18)
(0.500824 -0.0113658 -1.73808e-19)
(0.0412769 0.00906188 -4.24051e-18)
(0.0141208 -0.00129235 0)
(-0.0188731 0.00483459 4.59857e-18)
(-0.0175055 0.00374073 0)
(-0.0234473 0.0045715 0)
(-0.02181 0.00403357 0)
(-0.0229953 0.00400705 -4.53347e-18)
(-0.0219303 0.00367031 0)
(-0.0221283 0.00351185 -4.4048e-18)
(-0.021628 0.00329516 0)
(-0.0218152 0.00316352 0)
(-0.0219065 0.00304343 -2.1041e-18)
(-0.0224664 0.00297216 0)
(-0.023172 0.00292291 0)
(-0.024242 0.00289909 0)
(-0.0255399 0.00288842 0)
(-0.0271447 0.00288524 0)
(-0.0289956 0.00288127 0)
(-0.0311132 0.0028686 1.93663e-18)
(-0.0334609 0.00283925 -1.92198e-18)
(-0.0360265 0.00278441 0)
(-0.0387697 0.00269576 4.51734e-24)
(-0.0416509 0.00256471 -9.46779e-19)
(-0.0446129 0.00238404 0)
(-0.0475932 0.0021478 -9.44252e-19)
(-0.0505189 0.00185204 0)
(-0.0533091 0.00149443 4.73907e-19)
(-0.0558709 0.00107503 -2.3801e-19)
(-0.0581016 0.000596944 0)
(-0.0598896 6.68876e-05 0)
(-0.0611166 -0.000504639 2.43821e-19)
(-0.0616588 -0.0011029 -1.99127e-24)
(-0.0613885 -0.00170825 0)
(-0.0601808 -0.00229563 1.01482e-18)
(-0.0579103 -0.00283846 0)
(-0.0544579 -0.00330365 1.04979e-18)
(-0.0497062 -0.00365544 0)
(-0.0435569 -0.00385327 0)
(-0.0359056 -0.00385586 0)
(-0.0267093 -0.00361553 2.26367e-18)
(-0.0159131 -0.00308445 0)
(-0.00370748 -0.0022128 0)
(0.00973975 -0.000906952 -2.36173e-18)
(0.0231751 0.000713668 0)
(0.0375274 0.00260006 0)
(0.052206 0.004788 2.5671e-18)
(0.0681134 0.00732367 -2.62403e-18)
(0.083788 0.0101817 -2.667e-18)
(0.101484 0.0134628 0)
(0.117487 0.0169947 0)
(0.137804 0.0211579 0)
(0.152768 0.0252641 5.34418e-18)
(0.178299 0.0306943 5.29387e-18)
(0.18908 0.0350044 4.96154e-18)
(0.22672 0.0428535 0)
(0.225792 0.046185 3.97776e-18)
(0.292845 0.0597195 8.22792e-18)
(0.265284 0.0593452 0)
(0.39923 0.08414 -2.97524e-18)
(0.605048 0.000253993 -1.44285e-19)
(0.0969913 0.0110056 4.11614e-18)
(0.0278979 -0.00122655 -4.31558e-18)
(-0.0183301 0.00584453 0)
(-0.0201017 0.00456452 0)
(-0.0290464 0.00577073 0)
(-0.0278653 0.00514128 0)
(-0.0298278 0.00516423 0)
(-0.0288018 0.00476707 0)
(-0.0292297 0.00459007 4.4076e-18)
(-0.0287419 0.00433613 4.33844e-18)
(-0.0290701 0.0041881 0)
(-0.0292775 0.00405705 0)
(-0.0300631 0.00398795 0)
(-0.0310436 0.00394821 2.04519e-18)
(-0.0324852 0.00394042 0)
(-0.0342244 0.00394908 1.99396e-18)
(-0.0363532 0.00396582 -1.97167e-18)
(-0.038795 0.0039796 0)
(-0.0415682 0.00397932 -1.93402e-18)
(-0.044622 0.00395393 0)
(-0.0479324 0.00389108 -9.53002e-19)
(-0.0514406 0.00377922 1.89582e-18)
(-0.0550875 0.0036065 9.44139e-19)
(-0.0587918 0.0033632 0)
(-0.0624658 0.00304167 4.70367e-19)
(-0.0660095 0.002637 0)
(-0.0693133 0.00214661 4.71594e-19)
(-0.0722546 0.00157111 0)
(-0.0747 0.000915376 0)
(-0.0765083 0.000189129 0)
(-0.0775325 -0.000592927 2.41844e-19)
(-0.077622 -0.00141053 -9.776e-19)
(-0.0766259 -0.00223719 0)
(-0.0744004 -0.00304204 -5.0111e-19)
(-0.0708057 -0.00378826 0)
(-0.0657146 -0.0044339 -1.0322e-18)
(-0.059008 -0.00493403 0)
(-0.0505971 -0.00523812 0)
(-0.0403978 -0.0052954 0)
(-0.0284125 -0.00504699 2.19035e-18)
(-0.0146492 -0.00443187 0)
(0.000595419 -0.00338391 2.22638e-18)
(0.017067 -0.00178744 -2.23965e-18)
(0.0339701 0.000231088 0)
(0.0522267 0.00260095 -2.39434e-18)
(0.0711301 0.00538971 -4.93467e-18)
(0.0916403 0.00864226 2.53524e-18)
(0.112094 0.0123466 5.17495e-18)
(0.134976 0.0165827 -5.26574e-18)
(0.156141 0.021213 -5.30389e-18)
(0.18226 0.0265635 0)
(0.2026 0.0320317 -5.26049e-18)
(0.234886 0.0388906 -5.22672e-18)
(0.250962 0.044852 -4.89465e-18)
(0.297327 0.0544428 0)
(0.300863 0.0597243 0)
(0.381377 0.0755503 -4.08965e-18)
(0.355737 0.0772979 0)
(0.516733 0.104632 2.90955e-18)
(0.684215 0.0143676 -1.25455e-19)
(0.162875 0.0131491 -3.18918e-20)
(0.0478624 -0.000606527 4.28975e-18)
(-0.0132823 0.00654005 4.592e-18)
(-0.0200997 0.00513331 0)
(-0.0325203 0.00670574 -4.63104e-18)
(-0.0323858 0.00602072 0)
(-0.0353419 0.00611904 0)
(-0.0346018 0.00568828 0)
(-0.0353631 0.00551387 4.40859e-18)
(-0.0349997 0.00524201 -4.33942e-18)
(-0.035513 0.00509438 0)
(-0.0358757 0.00496748 0)
(-0.0368886 0.00491422 0)
(-0.0381339 0.00489611 -2.04399e-18)
(-0.0399114 0.00491506 0)
(-0.0420402 0.00495222 -1.99156e-18)
(-0.0446177 0.00499663 1.96856e-18)
(-0.0475542 0.00503442 0)
(-0.0508613 0.00505137 0)
(-0.054473 0.00503333 9.56471e-19)
(-0.0583504 0.00496455 9.49569e-19)
(-0.0624153 0.0048303 -1.88771e-18)
(-0.0665871 0.0046158 -9.39393e-19)
(-0.0707612 0.00430925 0)
(-0.0748262 0.00390181 4.67193e-19)
(-0.0786577 0.00338829 0)
(-0.0821227 0.00276635 -4.67432e-19)
(-0.0850758 0.00203773 2.34297e-19)
(-0.0873635 0.00120953 0)
(-0.0888271 0.000294752 0)
(-0.0893062 -0.000687722 -4.76532e-19)
(-0.0886415 -0.00171244 4.80542e-19)
(-0.0866802 -0.00274726 0)
(-0.0832805 -0.00375442 -4.90058e-19)
(-0.0783103 -0.00469089 0)
(-0.0716564 -0.00550788 1.00298e-18)
(-0.0632198 -0.00615384 0)
(-0.0529387 -0.00657142 0)
(-0.0407633 -0.00670306 0)
(-0.0267392 -0.00648179 -2.09192e-18)
(-0.0109182 -0.00583473 -2.10181e-18)
(0.00636771 -0.00468182 -2.10403e-18)
(0.0248986 -0.00290536 1.06527e-21)
(0.0443904 -0.000631677 -2.17925e-18)
(0.0656056 0.00206472 2.25894e-18)
(0.0878075 0.00528245 4.6666e-18)
(0.111962 0.00907209 0)
(0.136353 0.0134368 -2.46702e-18)
(0.163502 0.0184394 5.04475e-18)
(0.18916 0.0239828 5.10317e-18)
(0.220125 0.030317 0)
(0.245443 0.0369743 0)
(0.283228 0.0449974 0)
(0.304716 0.052482 4.78677e-18)
(0.357638 0.0633634 0)
(0.366922 0.0706136 0)
(0.456354 0.0877678 4.00851e-18)
(0.436392 0.0919946 -1.62414e-18)
(0.614657 0.119688 -2.88282e-18)
(0.745566 0.0291107 -1.12207e-19)
(0.233415 0.0160033 -3.94289e-18)
(0.0745656 0.000580857 0)
(-0.00365248 0.00707857 -4.58201e-18)
(-0.017388 0.00552817 -4.60621e-18)
(-0.0338195 0.00742423 5.12777e-22)
(-0.0353134 0.00670539 0)
(-0.0395099 0.00689546 0)
(-0.0392989 0.00645142 0)
(-0.0405097 0.00629617 -4.40927e-18)
(-0.0403798 0.00602237 0)
(-0.0411261 0.00588881 0)
(-0.0416798 0.0057786 2.10303e-18)
(-0.0429198 0.0057521 0)
(-0.0444143 0.00576509 0)
(-0.0464858 0.0058186 0)
(-0.048943 0.00589039 0)
(-0.0518834 0.00596685 -1.96345e-18)
(-0.055205 0.00603128 0)
(-0.0589088 0.0060664 1.92151e-18)
(-0.0629131 0.00605502 -9.51891e-19)
(-0.0671619 0.00597817 -9.44088e-19)
(-0.0715572 0.00581828 1.87486e-18)
(-0.0759983 0.00555808 1.86381e-18)
(-0.0803595 0.00518433 0)
(-0.0845102 0.00468777 -4.62199e-19)
(-0.0883088 0.00406364 0)
(-0.0916077 0.00331059 0)
(-0.0942506 0.00243211 -4.61129e-19)
(-0.0960775 0.00143792 0)
(-0.0969283 0.000344473 0)
(-0.0966465 -0.00082537 4.65686e-19)
(-0.0950813 -0.00204172 0)
(-0.0920945 -0.00326773 0)
(-0.0875583 -0.00446067 4.74552e-19)
(-0.0813584 -0.00557319 0)
(-0.0734013 -0.00655186 -9.64619e-19)
(-0.0636087 -0.0073407 0)
(-0.0519396 -0.00787775 0)
(-0.0383643 -0.00810009 0)
(-0.022947 -0.00793402 0)
(-0.00574855 -0.00729522 1.98659e-18)
(0.0129185 -0.00609224 1.9822e-18)
(0.0329203 -0.00421976 1.10071e-21)
(0.0543144 -0.0018018 2.04699e-18)
(0.0776864 0.00109712 2.11594e-18)
(0.102322 0.00459613 -2.1877e-18)
(0.129172 0.00875511 0)
(0.156575 0.0135911 -2.31669e-18)
(0.186999 0.0191605 2.37507e-18)
(0.216315 0.0254056 -4.82053e-18)
(0.251151 0.0325088 0)
(0.280841 0.0401436 0)
(0.323075 0.0490963 -4.86507e-18)
(0.349766 0.0579179 -4.59481e-18)
(0.407723 0.0697667 4.5699e-18)
(0.423297 0.078881 3.74315e-18)
(0.518641 0.0967352 -3.91777e-18)
(0.506363 0.103489 1.59321e-18)
(0.694845 0.13019 0)
(0.793857 0.0436849 -1.01237e-19)
(0.304739 0.0197931 0)
(0.107928 0.00233917 4.21737e-18)
(0.0106805 0.00762095 4.56575e-18)
(-0.0118645 0.00582726 -6.13915e-23)
(-0.0328854 0.00797353 4.63038e-18)
(-0.0365883 0.00722888 0)
(-0.0423007 0.00751786 0)
(-0.0428616 0.0070741 0)
(-0.0446505 0.0069503 2.20429e-18)
(-0.0448622 0.00668677 2.16895e-18)
(-0.0458933 0.00657778 0)
(-0.0466708 0.00649391 -2.10148e-18)
(-0.0481364 0.00650227 2.06929e-18)
(-0.0498587 0.00655301 0)
(-0.0521766 0.00664595 0)
(-0.0548927 0.00675537 0)
(-0.058101 0.00686497 4.96121e-23)
(-0.0616876 0.0069552 0)
(-0.0656412 0.00700588 -3.82064e-18)
(-0.0698642 0.00699697 9.45165e-19)
(-0.0742841 0.00690668 9.36192e-19)
(-0.0787856 0.00671509 -2.80722e-23)
(-0.0832516 0.00640319 -9.21197e-19)
(-0.0875424 0.00595708 0)
(-0.0915161 0.00536797 0)
(-0.0950243 0.00463229 0)
(-0.0979165 0.00375031 2.25928e-19)
(-0.100038 0.0027276 4.51047e-19)
(-0.101236 0.00157663 0)
(-0.10136 0.000316992 0)
(-0.100268 -0.00102515 -4.51853e-19)
(-0.0978247 -0.00241655 -2.26412e-19)
(-0.0939078 -0.00381714 0)
(-0.0884035 -0.00518109 0)
(-0.0812117 -0.00645794 0)
(-0.072252 -0.00759113 0)
(-0.0614568 -0.00852142 0)
(-0.0487943 -0.00918322 0)
(-0.0342407 -0.00950863 0)
(-0.0178612 -0.00941763 0)
(0.000291274 -0.00881506 0)
(0.0199475 -0.0076012 -8.94759e-22)
(0.0410614 -0.00569111 1.87879e-18)
(0.063863 -0.00320844 0)
(0.0887945 -0.000196017 -3.97306e-18)
(0.115185 0.00347461 -2.04615e-18)
(0.143952 0.00787251 0)
(0.173539 0.0130229 2.16584e-18)
(0.20632 0.018984 -2.22106e-18)
(0.238402 0.0257271 4.51361e-18)
(0.276122 0.0333899 -4.58349e-18)
(0.309364 0.0417645 0)
(0.355026 0.0514194 8.7459e-21)
(0.386345 0.0613293 4.35866e-18)
(0.448156 0.0738912 -8.70182e-18)
(0.469915 0.0846474 -1.28777e-20)
(0.569257 0.102814 -3.74298e-18)
(0.565361 0.111913 1.51255e-18)
(0.759286 0.136892 2.68383e-18)
(0.832278 0.057655 3.09737e-18)
(0.374266 0.0245448 0)
(0.147308 0.00468621 2.61595e-21)
(0.029853 0.00828965 -2.75669e-22)
(-0.00343249 0.00613358 4.59312e-18)
(-0.0296471 0.00840199 4.62671e-18)
(-0.0361462 0.00762605 0)
(-0.0436773 0.00801165 4.53889e-18)
(-0.0452561 0.00757472 0)
(-0.0477643 0.00749032 -2.2038e-18)
(-0.0484266 0.00724521 -9.40491e-23)
(-0.0497985 0.00716812 -2.1337e-18)
(-0.0508309 0.00711711 0)
(-0.0525194 0.00716552 -4.13171e-18)
(-0.0544443 0.00725776 0)
(-0.0569566 0.00739209 0)
(-0.0598571 0.00753921 0)
(-0.0632338 0.00768011 1.94572e-18)
(-0.0669631 0.00779252 0)
(-0.0710211 0.00785361 1.89516e-18)
(-0.0752971 0.00784093 -1.87239e-18)
(-0.0797053 0.00773046 0)
(-0.0841189 0.00750066 -3.09217e-23)
(-0.0884112 0.00713156 0)
(-0.0924372 0.00660949 0)
(-0.0960535 0.00592678 -4.46394e-19)
(-0.099114 0.00508156 0)
(-0.101475 0.00407593 -4.41091e-19)
(-0.102991 0.00291748 -2.19612e-19)
(-0.103521 0.001621 -5.47288e-20)
(-0.102929 0.000208536 5.4626e-20)
(-0.101086 -0.00129138 2.18315e-19)
(-0.0978722 -0.00284318 4.36441e-19)
(-0.0931732 -0.0044049 0)
(-0.0868852 -0.00592853 4.37606e-19)
(-0.0789162 -0.00736124 0)
(-0.0691918 -0.00864399 0)
(-0.0576488 -0.00971469 0)
(-0.0442574 -0.0105045 8.87742e-19)
(-0.0289932 -0.0109405 0)
(-0.0119156 -0.0109367 0)
(0.00693666 -0.0103887 1.78602e-18)
(0.0273441 -0.0091916 -1.78346e-18)
(0.049333 -0.00728391 0)
(0.0731923 -0.00479082 0)
(0.0992612 -0.0017263 1.87467e-18)
(0.126918 0.00203948 1.92472e-18)
(0.157037 0.00658383 -1.9748e-18)
(0.188176 0.0119338 0)
(0.222598 0.0181544 0)
(0.25668 0.0252316 0)
(0.296429 0.0332808 7.0543e-21)
(0.332372 0.0421756 0)
(0.380508 0.0523298 4.2875e-18)
(0.415626 0.0630528 0)
(0.480251 0.0761143 4.08654e-18)
(0.507559 0.0881949 -3.37656e-18)
(0.609575 0.106437 7.0904e-18)
(0.613812 0.117524 -1.44395e-18)
(0.810035 0.140495 -2.56767e-18)
(0.863047 0.0707584 8.43612e-20)
(0.440358 0.0301576 -3.62582e-18)
(0.19167 0.00764468 -4.11254e-18)
(0.0538788 0.00919629 -1.83061e-22)
(0.00808258 0.00653788 -4.58083e-18)
(-0.0240221 0.00875987 -4.62175e-18)
(-0.033917 0.00793315 0)
(-0.0435947 0.00840279 -4.53715e-18)
(-0.0464442 0.00797225 0)
(-0.0498263 0.0079307 -2.20267e-18)
(-0.0510509 0.00770804 -2.1666e-18)
(-0.0528249 0.00766698 2.13156e-18)
(-0.0541434 0.00765218 -2.09572e-18)
(-0.0560525 0.007743 2.06119e-18)
(-0.0581534 0.0078777 -2.02706e-18)
(-0.0608077 0.00805283 1.99429e-18)
(-0.0638185 0.00823535 0)
(-0.0672685 0.00840369 0)
(-0.0710273 0.00853308 0)
(-0.0750612 0.00859856 9.38072e-19)
(-0.0792511 0.00857578 9.25185e-19)
(-0.0835034 0.00843921 0)
(-0.0876865 0.00816642 -9.01797e-19)
(-0.0916718 0.0077372 0)
(-0.095316 0.0071386 0)
(-0.0984808 0.00636447 4.36644e-19)
(-0.101028 0.00541466 -4.32817e-19)
(-0.102824 0.00429292 2.1478e-19)
(-0.103734 0.00300843 0)
(-0.10363 0.00157773 1.06143e-19)
(-0.102385 2.46074e-05 -1.05731e-19)
(-0.0998835 -0.00162081 0)
(-0.0960118 -0.00332152 -2.10315e-19)
(-0.0906618 -0.00503418 4.20181e-19)
(-0.0837356 -0.00670902 -4.20414e-19)
(-0.075145 -0.00829113 0)
(-0.0648186 -0.00971927 0)
(-0.0526943 -0.0109287 0)
(-0.0387419 -0.0118473 -8.49431e-19)
(-0.0229341 -0.0123975 0)
(-0.00532253 -0.0124882 0)
(0.0140703 -0.0120069 -1.70839e-18)
(0.035073 -0.0108471 0)
(0.0577664 -0.00896972 1.71046e-18)
(0.0824323 -0.00650187 -1.7403e-18)
(0.10934 -0.00342674 0)
(0.137918 0.000382124 1.81847e-18)
(0.168992 0.00500955 3.72249e-18)
(0.201233 0.0104793 -1.89752e-18)
(0.236785 0.0168665 0)
(0.272287 0.0241584 0)
(0.313421 0.0324662 1.99388e-18)
(0.351343 0.0417061 0)
(0.401174 0.0522001 3.97459e-18)
(0.439239 0.0634849 0)
(0.50579 0.0768757 3.78802e-18)
(0.537726 0.0899321 3.13131e-18)
(0.641404 0.108106 -3.31701e-18)
(0.652896 0.120715 0)
(0.849362 0.141684 2.38672e-18)
(0.887776 0.0828604 -3.34896e-18)
(0.502041 0.0364638 2.00264e-20)
(0.239772 0.0112256 4.05839e-18)
(0.0826526 0.010451 -1.62631e-22)
(0.0228646 0.00710693 -6.62318e-22)
(-0.0159134 0.00909961 0)
(-0.0298248 0.00818789 0)
(-0.0419989 0.00871773 0)
(-0.0463825 0.00828625 -2.23378e-18)
(-0.0508067 0.00828628 4.40244e-18)
(-0.0527109 0.00808601 0)
(-0.0549549 0.00808186 2.12856e-18)
(-0.0565931 0.00810358 6.31273e-23)
(-0.0587241 0.00823654 -2.05511e-18)
(-0.0609765 0.00841234 5.61803e-23)
(-0.0637256 0.00862573 -1.98383e-18)
(-0.0667806 0.00883989 0)
(-0.0702221 0.00903098 0)
(-0.0739173 0.00917204 0)
(-0.0778271 0.00923652 -9.27169e-19)
(-0.0818293 0.00919874 0)
(-0.085828 0.00903229 8.99048e-19)
(-0.0896925 0.00871433 8.86223e-19)
(-0.0932975 0.00822484 -8.74276e-19)
(-0.0965055 0.00755183 0)
(-0.0991861 0.00669063 0)
(-0.10121 0.0056426 4.22135e-19)
(-0.102454 0.00441277 0)
(-0.102793 0.00301146 2.0737e-19)
(-0.102107 0.00145643 -5.14968e-20)
(-0.10028 -0.000227223 5.12187e-20)
(-0.0972017 -0.00200837 -2.03822e-19)
(-0.0927627 -0.00384907 0)
(-0.0868593 -0.00570471 -4.05432e-19)
(-0.0793972 -0.00752392 0)
(-0.0702908 -0.00924991 0)
(-0.05947 -0.0108194 8.11969e-19)
(-0.0468729 -0.012165 0)
(-0.0324682 -0.0132117 0)
(-0.0162251 -0.0138775 0)
(0.00181288 -0.0140667 0)
(0.0216399 -0.013661 0)
(0.0431269 -0.0125541 0)
(0.0663937 -0.0107269 -3.29421e-18)
(0.091681 -0.00830725 1.67082e-18)
(0.119213 -0.00524925 1.69997e-18)
(0.148465 -0.00143249 -3.46418e-18)
(0.180216 0.00323489 -1.76603e-18)
(0.213239 0.00876989 1.79493e-18)
(0.249562 0.0152595 -1.82214e-18)
(0.286068 0.0226823 0)
(0.32813 0.0311587 3.27024e-21)
(0.367479 0.0406148 -3.68418e-18)
(0.418431 0.0513329 -3.70549e-18)
(0.458715 0.0629778 -3.50691e-18)
(0.526502 0.0765727 -7.03471e-18)
(0.562125 0.0902861 -2.91411e-18)
(0.666693 0.10831 3.05701e-18)
(0.684282 0.121964 1.22288e-18)
(0.879675 0.1411 -2.22683e-18)
(0.907674 0.0939179 -7.31271e-20)
(0.558804 0.0432708 3.4867e-18)
(0.290319 0.0154163 2.2465e-21)
(0.11591 0.0121365 -2.02822e-22)
(0.0410938 0.00790922 4.54018e-18)
(-0.00521256 0.00947434 4.60135e-18)
(-0.0237885 0.00842947 -4.5701e-18)
(-0.0388268 0.0089834 2.26481e-18)
(-0.0450212 0.00853695 4.43452e-23)
(-0.0506702 0.00857236 -2.19926e-18)
(-0.0533797 0.0083904 -2.16195e-18)
(-0.0561703 0.00842091 -2.12495e-18)
(-0.0581676 0.00847662 4.17247e-18)
(-0.0605281 0.00864922 5.34699e-23)
(-0.0629152 0.00886293 2.00936e-18)
(-0.0657221 0.00911091 0)
(-0.0687696 0.00935243 1.9345e-18)
(-0.0721408 0.00956173 0)
(-0.0757047 0.00970996 -1.86401e-18)
(-0.0794219 0.00976949 -9.1542e-19)
(-0.0831715 0.00971367 -8.99594e-19)
(-0.0868594 0.00951565 -3.12911e-23)
(-0.0903593 0.00915248 -8.70509e-19)
(-0.0935519 0.00860447 8.57327e-19)
(-0.0963073 0.00786054 0)
(-0.0985032 0.00691734 -4.16977e-19)
(-0.100019 0.00577748 0)
(-0.10074 0.0044469 0)
(-0.100548 0.00293674 -2.01871e-19)
(-0.0993308 0.00126567 0)
(-0.096979 -0.00054029 0)
(-0.0933859 -0.00244936 1.97719e-19)
(-0.0884456 -0.00442281 0)
(-0.0820575 -0.0064148 0)
(-0.0741301 -0.00837247 3.91962e-19)
(-0.0645797 -0.0102373 0)
(-0.0533371 -0.0119441 -7.85141e-19)
(-0.0403403 -0.0134228 0)
(-0.0255569 -0.014596 7.89022e-19)
(-0.00895272 -0.0153774 0)
(0.00943669 -0.0156675 0)
(0.0296216 -0.0153441 0)
(0.0515084 -0.0143023 0)
(0.0752431 -0.0125393 1.59397e-18)
(0.101011 -0.0101822 0)
(0.129006 -0.00715982 -3.27061e-18)
(0.15875 -0.00335905 1.66045e-18)
(0.190977 0.00131877 -1.68452e-18)
(0.224551 0.00688141 1.7056e-18)
(0.261395 0.0134293 1.72928e-18)
(0.298604 0.0209244 0)
(0.341273 0.0295068 1.75122e-18)
(0.381643 0.0390867 5.18834e-18)
(0.433311 0.0499476 -3.45396e-18)
(0.475244 0.0618008 3.27567e-18)
(0.543772 0.075513 3.27174e-18)
(0.582263 0.0896228 0)
(0.68717 0.107458 -2.83979e-18)
(0.709699 0.121729 -2.25623e-18)
(0.903226 0.139277 0)
(0.92368 0.103944 3.57656e-18)
(0.610446 0.0503879 0)
(0.342073 0.0201761 2.02965e-21)
(0.153221 0.0143093 -2.83354e-22)
(0.062915 0.00900588 -4.51373e-18)
(0.00820217 0.00994296 -9.17338e-18)
(-0.0157212 0.00869875 9.12715e-18)
(-0.0340054 0.00922724 -2.2622e-18)
(-0.0423041 0.00874546 2.22976e-18)
(-0.0493759 0.00880492 0)
(-0.0530274 0.00863324 4.3697e-23)
(-0.056452 0.00869315 0)
(-0.0588572 0.00877777 -4.16037e-18)
(-0.0614652 0.00898565 2.03966e-18)
(-0.0639813 0.00923287 0)
(-0.0668234 0.0095112 0)
(-0.0698292 0.00977585 -1.91855e-18)
(-0.0730892 0.00999946 0)
(-0.0764789 0.0101514 1.84284e-18)
(-0.0799621 0.0102034 9.03599e-19)
(-0.0834224 0.010128 2.78609e-23)
(-0.0867706 0.00989812 -8.70501e-19)
(-0.0898866 0.00949085 -8.55313e-19)
(-0.0926581 0.00888685 0)
(-0.0949628 0.00807581 0)
(-0.0966862 0.00705551 4.08119e-19)
(-0.0977156 0.00582956 0)
(-0.0979416 0.00440458 1.98987e-19)
(-0.0972546 0.0027923 -1.96933e-19)
(-0.0955469 0.00101208 4.88019e-20)
(-0.0927142 -0.000909401 -4.84214e-20)
(-0.0886521 -0.00293991 1.92365e-19)
(-0.0832576 -0.00503998 -1.9139e-19)
(-0.0764333 -0.00716255 3.81484e-19)
(-0.0680902 -0.00925337 -3.8088e-19)
(-0.0581458 -0.0112523 0)
(-0.0465322 -0.0130923 0)
(-0.0331872 -0.014701 0)
(-0.0180774 -0.0159984 -2.02453e-22)
(-0.00116599 -0.0168944 7.68304e-19)
(0.0175199 -0.0172869 0)
(0.0380045 -0.0170505 0)
(0.0602232 -0.0160833 0)
(0.0843384 -0.0143941 0)
(0.110477 -0.0121086 0)
(0.138814 -0.00913411 1.02268e-21)
(0.168911 -0.00536564 0)
(0.201464 -0.000697885 3.23842e-18)
(0.235417 0.00486618 -3.26824e-18)
(0.272598 0.0114412 -1.64799e-18)
(0.310289 0.0189675 0)
(0.353338 0.0276116 0)
(0.394431 0.0372495 -3.2629e-18)
(0.446528 0.0481959 7.64833e-21)
(0.489682 0.0601461 -3.0579e-18)
(0.558604 0.0739167 3.04145e-18)
(0.599311 0.0882218 2.49357e-18)
(0.704179 0.105856 -2.61465e-18)
(0.730645 0.120396 2.06491e-18)
(0.921867 0.13662 1.87267e-18)
(0.936534 0.112984 6.54408e-20)
(0.656981 0.0576408 -3.34538e-18)
(0.393924 0.0254382 -7.7715e-18)
(0.194007 0.0170018 -3.94422e-22)
(0.088395 0.0104508 4.48133e-18)
(0.0244695 0.0105632 4.56679e-18)
(-0.0055311 0.00904012 -2.27643e-18)
(-0.0274513 0.00947729 0)
(-0.0381677 0.00893391 0)
(-0.0468764 0.00900073 2.19396e-18)
(-0.0516202 0.00882748 2.15545e-18)
(-0.05578 0.00890867 0)
(-0.0586538 0.00901483 2.07367e-18)
(-0.0615403 0.00925213 0)
(-0.0641936 0.00952749 0)
(-0.0670636 0.00983166 0)
(-0.0700107 0.0101154 0)
(-0.0731374 0.01035 1.86148e-18)
(-0.0763296 0.0105031 9.11021e-19)
(-0.0795573 0.0105458 -8.92152e-19)
(-0.082711 0.01045 2.72255e-23)
(-0.0857079 0.0101887 0)
(-0.0884351 0.00973891 8.41279e-19)
(-0.0907878 0.00908153 0)
(-0.0926511 0.00820695 0)
(-0.0939176 0.00711393 4.00103e-19)
(-0.094481 0.00580685 -3.94496e-19)
(-0.094238 0.00429288 -1.9479e-19)
(-0.0930842 0.00258415 1.9265e-19)
(-0.0909169 0.00070061 -9.54209e-20)
(-0.0876355 -0.00133066 9.4591e-20)
(-0.0831375 -0.00347709 -1.87814e-19)
(-0.0773231 -0.00569837 1.86784e-19)
(-0.0700976 -0.00794631 -6.54788e-23)
(-0.0613742 -0.0101654 -3.71337e-19)
(-0.0510721 -0.0122939 0)
(-0.0391244 -0.014263 0)
(-0.0254691 -0.0159982 0)
(-0.0100721 -0.0174172 -1.49373e-18)
(0.00710595 -0.0184266 -7.48986e-19)
(0.026046 -0.018922 0)
(0.0467836 -0.0187761 0)
(0.0692776 -0.0178902 -1.50559e-18)
(0.0936993 -0.0162816 0)
(0.120121 -0.0140728 0)
(0.148703 -0.0111543 3.0718e-18)
(0.179046 -0.00742926 -1.54951e-18)
(0.211809 -0.00278599 -3.12884e-18)
(0.24601 0.0027609 1.60471e-21)
(0.28339 0.00934072 3.16681e-18)
(0.321397 0.0168686 1.57946e-18)
(0.364658 0.0255425 0)
(0.406251 0.0351909 1.55139e-18)
(0.458572 0.0461819 3.07962e-18)
(0.502624 0.0581477 2.88959e-18)
(0.571699 0.0719364 -2.86342e-18)
(0.614116 0.0862855 -2.3387e-18)
(0.718696 0.103721 2.44365e-18)
(0.748287 0.118264 -9.54289e-19)
(0.936989 0.133415 -1.73929e-18)
(0.946832 0.121102 6.2462e-20)
(0.698566 0.0648796 3.30625e-18)
(0.444921 0.031116 -1.56913e-21)
(0.237581 0.0202222 -5.31261e-22)
(0.117495 0.0122886 0)
(0.0437074 0.0113939 0)
(0.00690317 0.00949634 1.72216e-22)
(-0.0190697 0.00976264 0)
(-0.0325398 0.00912558 0)
(-0.0431162 0.00917738 -7.63793e-24)
(-0.0491186 0.00898706 0)
(-0.0541303 0.00907862 0)
(-0.0575481 0.00919687 2.06704e-18)
(-0.0607585 0.00945628 0)
(-0.0635715 0.00975362 0)
(-0.0664772 0.0100788 0)
(-0.0693632 0.0103777 0)
(-0.0723498 0.0106202 -3.46288e-23)
(-0.0753355 0.0107722 -9.01287e-19)
(-0.0782998 0.0108043 1.76307e-18)
(-0.0811414 0.0106878 2.60249e-23)
(-0.0837852 0.0103956 8.45081e-19)
(-0.0861263 0.0099047 0)
(-0.0880673 0.00919633 8.13107e-19)
(-0.0895005 0.00826136 0)
(-0.090325 0.00709939 -3.93066e-19)
(-0.0904407 0.00571545 3.23221e-23)
(-0.0897491 0.0041171 0)
(-0.0881509 0.0023168 0)
(-0.0855475 0.000334933 5.58522e-24)
(-0.0818415 -0.00180118 -6.10137e-24)
(-0.0769321 -0.00405863 9.19293e-20)
(-0.0707229 -0.00639625 0)
(-0.0631221 -0.00876478 -3.64183e-19)
(-0.0540449 -0.0111075 3.63366e-19)
(-0.0434123 -0.0133612 0)
(-0.0311584 -0.0154555 -7.26771e-19)
(-0.0172217 -0.0173136 0)
(-0.00156783 -0.0188514 1.64403e-22)
(0.0158449 -0.0199723 0)
(0.035005 -0.0205703 7.33692e-19)
(0.0559566 -0.0205172 7.3528e-19)
(0.0786777 -0.0197176 4.97915e-22)
(0.103342 -0.0181939 -1.47799e-18)
(0.129975 -0.0160644 0)
(0.158724 -0.0132069 -8.55743e-22)
(0.189227 -0.00953293 1.50921e-18)
(0.222108 -0.00492436 1.24086e-21)
(0.256455 0.000591953 1.52512e-18)
(0.293926 0.00716025 -1.75463e-21)
(0.332121 0.0146679 -2.06654e-21)
(0.375466 0.0233482 0)
(0.417387 0.0329719 0)
(0.469783 0.0439776 0)
(0.514487 0.0558987 0)
(0.583543 0.0696775 0)
(0.627282 0.0839573 2.18505e-18)
(0.73141 0.101205 0)
(0.763486 0.11555 0)
(0.949587 0.129853 -1.60154e-18)
(0.95506 0.12837 -1.92044e-18)
(0.73545 0.071981 0)
(0.494284 0.0371097 -1.37632e-21)
(0.283186 0.0239553 -6.88174e-22)
(0.150057 0.0145531 0)
(0.0660028 0.0124927 2.25809e-18)
(0.0217189 0.0101092 -2.2617e-18)
(-0.00875441 0.0101135 0)
(-0.0253391 0.00934501 0)
(-0.0380298 0.00935333 -2.1879e-18)
(-0.0454753 0.0091269 0)
(-0.0514723 0.00921515 0)
(-0.0555254 0.00933392 -2.06081e-18)
(-0.0591206 0.00960675 0)
(-0.0621299 0.00991894 -1.96619e-18)
(-0.0650921 0.0102598 0)
(-0.0679275 0.0105696 0)
(-0.0707783 0.010817 -2.81354e-23)
(-0.0735592 0.0109657 0)
(-0.0762611 0.0109859 -8.7192e-19)
(-0.0787927 0.0108482 8.52519e-19)
(-0.0810874 0.0105255 -1.6685e-18)
(-0.0830487 0.00999483 8.17169e-19)
(-0.0845869 0.00923751 -8.01398e-19)
(-0.0856014 0.00824485 0)
(-0.0859976 0.00701717 -3.8685e-19)
(-0.0856808 0.00556004 7.61973e-19)
(-0.0845574 0.00388129 0)
(-0.0825324 0.00199364 -9.28361e-20)
(-0.0795111 -8.21802e-05 4.5942e-20)
(-0.0753985 -0.00231878 -4.54895e-20)
(-0.0700964 -0.00468283 -9.02581e-20)
(-0.0635118 -0.00713231 0)
(-0.0555553 -0.00961697 -3.57316e-19)
(-0.0461446 -0.012079 3.5647e-19)
(-0.0352024 -0.0144536 0)
(-0.0226642 -0.0166691 7.13186e-19)
(-0.00846914 -0.0186466 0)
(0.0074173 -0.0202999 7.16443e-19)
(0.025039 -0.0215302 0)
(0.0443906 -0.02223 -7.19869e-19)
(0.0655229 -0.0222709 -7.21706e-19)
(0.0884289 -0.021561 4.61697e-22)
(0.113281 -0.0201244 1.45125e-18)
(0.140064 -0.0180752 0)
(0.168918 -0.0152817 -1.46706e-18)
(0.199508 -0.0116638 0)
(0.232435 -0.00709719 1.48181e-18)
(0.266842 -0.00162117 0)
(0.30432 0.00492337 -1.48476e-18)
(0.342598 0.0123947 -2.94545e-18)
(0.385929 0.0210633 0)
(0.428044 0.0306361 0)
(0.480399 0.0416337 0)
(0.525563 0.053465 1.30384e-18)
(0.594476 0.0672132 0)
(0.639236 0.0813389 -9.80188e-21)
(0.742803 0.0984109 0)
(0.776864 0.112411 8.03501e-19)
(0.960361 0.126063 1.50364e-18)
(0.961619 0.134866 0)
(0.767943 0.0788482 3.21786e-18)
(0.541401 0.0433143 3.73561e-18)
(0.330043 0.0281643 -8.56575e-22)
(0.185796 0.0172649 0)
(0.0913989 0.013911 -2.2428e-18)
(0.0390533 0.0109206 0)
(0.0036089 0.0105626 2.24507e-18)
(-0.0164754 0.00961815 2.2181e-18)
(-0.0315408 0.00954788 2.1849e-18)
(-0.0406326 0.00926288 2.14498e-18)
(-0.0477657 0.00933124 2.10215e-18)
(-0.0525625 0.00943686 0)
(-0.0566186 0.0097128 0)
(-0.0598744 0.0100316 1.95703e-18)
(-0.0629262 0.010382 0)
(-0.065732 0.0106981 0)
(-0.0684606 0.010947 -1.81341e-18)
(-0.0710462 0.01109 0)
(-0.0734931 0.0110967 -8.63364e-19)
(-0.0757216 0.0109372 0)
(-0.0776748 0.0105843 8.24698e-19)
(-0.0792649 0.0100148 -8.07237e-19)
(-0.0804102 0.00921016 0)
(-0.0810172 0.00816208 0)
(-0.0809972 0.00687146 2.58824e-23)
(-0.0802612 0.0053443 -3.7554e-19)
(-0.0787198 0.00358861 0)
(-0.0762821 0.00161734 9.14577e-20)
(-0.0728573 -0.000548591 4.5221e-20)
(-0.0683525 -0.00288176 -4.47648e-20)
(-0.0626723 -0.00534836 0)