/*--------------------------------*- C++ -*----------------------------------*\
| =========                 |                                                 |
| \\      /  F ield         | OpenFOAM: The Open Source CFD Toolbox           |
|  \\    /   O peration     | Version:  2.4.0                                 |
|   \\  /    A nd           | Web:      www.OpenFOAM.org                      |
|    \\/     M anipulation  |                                                 |
\*---------------------------------------------------------------------------*/
FoamFile
{
    version     2.0;
    format      ascii;
    class       volScalarField;
    location    "1000";
    object      p;
}
// * * * * * * * * * * * * * * * * * * * * * * * * * * * * * * * * * * * * * //

dimensions      [0 2 -2 0 0 0 0];

internalField   nonuniform List<scalar> 
48900
(
-5.96754
-7.28486
-7.86106
-8.08166
-8.33484
-8.58727
-8.80119
-8.99387
-9.17083
-9.33164
-9.47296
-9.59718
-9.70889
-9.81135
-9.9024
-9.98301
-10.0531
-10.1151
-10.1688
-10.2173
-10.2594
-10.2994
-10.3352
-10.3722
-10.4058
-10.4435
-10.4775
-10.5191
-10.5558
-10.6042
-10.6458
-10.7051
-10.7548
-10.8316
-10.8958
-10.9934
-6.25931
-7.36147
-7.87398
-8.09133
-8.34116
-8.59051
-8.80234
-8.99308
-9.16804
-9.32701
-9.46733
-9.59215
-9.70415
-9.80607
-9.89635
-9.97653
-10.0462
-10.1082
-10.1618
-10.2106
-10.2528
-10.293
-10.3289
-10.3662
-10.3999
-10.438
-10.4721
-10.5139
-10.5508
-10.5992
-10.6409
-10.6995
-10.7494
-10.8236
-10.8864
-10.9749
-6.55062
-7.37986
-7.86497
-8.09979
-8.34811
-8.59151
-8.79855
-8.98509
-9.15601
-9.31187
-9.45037
-9.57475
-9.68566
-9.78672
-9.87626
-9.95655
-10.0263
-10.0891
-10.1432
-10.193
-10.2362
-10.2782
-10.3148
-10.3534
-10.3876
-10.4265
-10.4609
-10.5029
-10.5401
-10.5876
-10.6298
-10.6852
-10.7359
-10.8005
-10.8606
-10.9105
-6.80984
-7.43543
-7.89039
-8.12726
-8.36545
-8.5988
-8.80002
-8.98257
-9.14986
-9.30311
-9.43965
-9.56281
-9.67236
-9.77268
-9.8614
-9.94166
-10.0112
-10.0744
-10.1287
-10.1794
-10.2232
-10.2665
-10.3035
-10.3429
-10.3772
-10.4164
-10.4508
-10.4925
-10.5291
-10.5754
-10.6166
-10.6686
-10.7166
-10.7725
-10.8227
-10.852
-7.03615
-7.51821
-7.92727
-8.15705
-8.38542
-8.60901
-8.80422
-8.98209
-9.14497
-9.2946
-9.42822
-9.54946
-9.6574
-9.75663
-9.84426
-9.92421
-9.99339
-10.0571
-10.1117
-10.1634
-10.2077
-10.2518
-10.2895
-10.3296
-10.3644
-10.4038
-10.4385
-10.4796
-10.5164
-10.5605
-10.6011
-10.6489
-10.694
-10.7415
-10.7826
-10.8043
-7.22738
-7.60751
-7.9709
-8.19179
-8.41079
-8.6242
-8.81262
-8.98512
-9.14324
-9.28891
-9.41949
-9.53861
-9.6448
-9.74265
-9.82912
-9.90852
-9.97734
-10.0412
-10.096
-10.1483
-10.193
-10.2378
-10.2761
-10.3167
-10.352
-10.3914
-10.4264
-10.4666
-10.5032
-10.5452
-10.5848
-10.6284
-10.6701
-10.7104
-10.7446
-10.761
-7.39071
-7.69431
-8.01789
-8.2294
-8.43886
-8.64211
-8.8235
-8.99041
-9.14368
-9.28521
-9.4126
-9.52927
-9.63353
-9.72977
-9.81502
-9.8936
-9.96201
-10.0258
-10.0807
-10.1333
-10.1785
-10.2237
-10.2626
-10.3034
-10.3394
-10.3785
-10.4138
-10.4529
-10.4892
-10.5292
-10.5673
-10.6073
-10.6453
-10.6801
-10.7083
-10.7212
-7.53504
-7.77789
-8.06626
-8.26791
-8.46765
-8.66115
-8.83561
-8.99692
-9.14536
-9.28273
-9.40687
-9.52093
-9.62321
-9.71772
-9.80175
-9.87938
-9.94737
-10.0108
-10.066
-10.1186
-10.1644
-10.2097
-10.2494
-10.2902
-10.3267
-10.3655
-10.401
-10.4391
-10.475
-10.513
-10.5495
-10.5862
-10.6207
-10.651
-10.6746
-10.6854
-7.66584
-7.85958
-8.1156
-8.30665
-8.49639
-8.68047
-8.84813
-9.00387
-9.14756
-9.2808
-9.40173
-9.51312
-9.61341
-9.70613
-9.78894
-9.86553
-9.9331
-9.99613
-10.0515
-10.1041
-10.1504
-10.1958
-10.2361
-10.2769
-10.3139
-10.3522
-10.3878
-10.4249
-10.4602
-10.4964
-10.5311
-10.565
-10.5963
-10.623
-10.6431
-10.6524
-7.7859
-7.94015
-8.16616
-8.34578
-8.52514
-8.69992
-8.86076
-9.01091
-9.1499
-9.27906
-9.39681
-9.50551
-9.6038
-9.69471
-9.77633
-9.85182
-9.91896
-9.98151
-10.037
-10.0895
-10.1363
-10.1816
-10.2225
-10.2632
-10.3006
-10.3385
-10.3741
-10.4102
-10.4448
-10.4793
-10.5123
-10.5437
-10.5721
-10.5959
-10.6135
-10.622
-7.89684
-8.01969
-8.21811
-8.38563
-8.55424
-8.71969
-8.87359
-9.01804
-9.15231
-9.27739
-9.39195
-9.49793
-9.59423
-9.68332
-9.76373
-9.83812
-9.9048
-9.96682
-10.0224
-10.0747
-10.1219
-10.1672
-10.2086
-10.2491
-10.2868
-10.3242
-10.3596
-10.3949
-10.4287
-10.4617
-10.493
-10.5222
-10.5483
-10.5698
-10.5856
-10.5937
-7.99978
-8.09795
-8.27136
-8.4264
-8.58405
-8.74009
-8.88687
-9.02545
-9.1549
-9.27585
-9.38718
-9.4904
-9.58464
-9.67189
-9.75108
-9.82436
-9.89052
-9.95199
-10.0075
-10.0597
-10.1071
-10.1524
-10.1941
-10.2345
-10.2723
-10.3093
-10.3445
-10.379
-10.4119
-10.4435
-10.4733
-10.5006
-10.5248
-10.5446
-10.5592
-10.5672
-8.09559
-8.17452
-8.32559
-8.4681
-8.61477
-8.76136
-8.90085
-9.03339
-9.15788
-9.27461
-9.3826
-9.483
-9.57511
-9.66049
-9.7384
-9.81054
-9.8761
-9.937
-9.99244
-10.0444
-10.092
-10.1371
-10.179
-10.2193
-10.2571
-10.2938
-10.3286
-10.3623
-10.3944
-10.4249
-10.4533
-10.4791
-10.5017
-10.5202
-10.534
-10.5421
-8.18517
-8.24902
-8.38045
-8.51059
-8.64645
-8.78366
-8.91571
-9.04207
-9.16145
-9.27387
-9.37841
-9.47589
-9.56575
-9.64922
-9.72576
-9.79672
-9.86161
-9.92189
-9.97713
-10.0288
-10.0765
-10.1215
-10.1635
-10.2036
-10.2413
-10.2776
-10.3121
-10.3451
-10.3763
-10.4057
-10.4329
-10.4575
-10.4789
-10.4965
-10.51
-10.5184
-8.25893
-8.31223
-8.42876
-8.54829
-8.67494
-8.80405
-8.92952
-9.0504
-9.16521
-9.27377
-9.37518
-9.47004
-9.55785
-9.63959
-9.71485
-9.78475
-9.84896
-9.90868
-9.96364
-10.0151
-10.0627
-10.1076
-10.1496
-10.1895
-10.2272
-10.2631
-10.2972
-10.3297
-10.3603
-10.3889
-10.4152
-10.4389
-10.4596
-10.4766
-10.4901
-10.4989
-8.32054
-8.36643
-8.47096
-8.58177
-8.70052
-8.82263
-8.94234
-9.05833
-9.16907
-9.27417
-9.37277
-9.46526
-9.5512
-9.63136
-9.70544
-9.77436
-9.83791
-9.89709
-9.95176
-10.0029
-10.0504
-10.0952
-10.1371
-10.1769
-10.2144
-10.2501
-10.2839
-10.3159
-10.346
-10.374
-10.3998
-10.4229
-10.4431
-10.4598
-10.4734
-10.4826
-8.38147
-8.4211
-8.51433
-8.61666
-8.72747
-8.84247
-8.95624
-9.06717
-9.17364
-9.2751
-9.37071
-9.46068
-9.54461
-9.62307
-9.69587
-9.76371
-9.82652
-9.88508
-9.93938
-9.9902
-10.0376
-10.0821
-10.124
-10.1635
-10.2009
-10.2363
-10.2698
-10.3014
-10.331
-10.3585
-10.3837
-10.4062
-10.4261
-10.4427
-10.4564
-10.4662
-8.44164
-8.47592
-8.55874
-8.6528
-8.75572
-8.86355
-8.97125
-9.07693
-9.17896
-9.27661
-9.36907
-9.45637
-9.53814
-9.61479
-9.68618
-9.75285
-9.81482
-9.87268
-9.92652
-9.97695
-10.0241
-10.0684
-10.1101
-10.1494
-10.1865
-10.2217
-10.2548
-10.286
-10.3151
-10.3421
-10.3668
-10.389
-10.4087
-10.4253
-10.4392
-10.4496
-8.50083
-8.53058
-8.60391
-8.68997
-8.78513
-8.88582
-8.98736
-9.08766
-9.18509
-9.27878
-9.36793
-9.45241
-9.53189
-9.6066
-9.67646
-9.74187
-9.80288
-9.85996
-9.91325
-9.96321
-10.01
-10.054
-10.0954
-10.1345
-10.1714
-10.2062
-10.239
-10.2698
-10.2985
-10.3251
-10.3494
-10.3714
-10.3908
-10.4075
-10.4218
-10.4329
-8.55887
-8.58478
-8.64956
-8.72794
-8.81557
-8.90918
-9.00451
-9.09935
-9.19205
-9.28166
-9.36735
-9.44888
-9.52592
-9.59858
-9.66679
-9.73082
-9.79077
-9.84698
-9.89961
-9.94903
-9.99542
-10.0391
-10.0802
-10.119
-10.1555
-10.19
-10.2225
-10.2529
-10.2812
-10.3075
-10.3315
-10.3532
-10.3727
-10.3895
-10.4043
-10.4161
-8.6156
-8.63825
-8.69536
-8.76647
-8.84683
-8.93351
-9.02264
-9.11196
-9.19984
-9.28525
-9.36737
-9.44583
-9.5203
-9.59079
-9.65723
-9.71979
-9.77856
-9.8338
-9.88568
-9.93448
-9.98037
-10.0236
-10.0644
-10.1028
-10.139
-10.1732
-10.2052
-10.2353
-10.2633
-10.2893
-10.3131
-10.3348
-10.3543
-10.3714
-10.3866
-10.3991
-8.67083
-8.6907
-8.741
-8.80527
-8.87869
-8.95862
-9.04162
-9.12542
-9.20843
-9.28957
-9.368
-9.44329
-9.51508
-9.58329
-9.64784
-9.70882
-9.76631
-9.82049
-9.87152
-9.91961
-9.96493
-10.0077
-10.048
-10.086
-10.1219
-10.1557
-10.1874
-10.2172
-10.2449
-10.2706
-10.2944
-10.316
-10.3356
-10.353
-10.3687
-10.3821
-8.72435
-8.74183
-8.78613
-8.84401
-8.91086
-8.9843
-9.06129
-9.13962
-9.21775
-9.29456
-9.36924
-9.44126
-9.51027
-9.57611
-9.63866
-9.69797
-9.75408
-9.80711
-9.8572
-9.9045
-9.94916
-9.99135
-10.0312
-10.0688
-10.1043
-10.1377
-10.1691
-10.1986
-10.2261
-10.2516
-10.2753
-10.2969
-10.3168
-10.3346
-10.3508
-10.3649
-8.77592
-8.79134
-8.83037
-8.88236
-8.94305
-9.01031
-9.08146
-9.15442
-9.22769
-9.30017
-9.37105
-9.43975
-9.5059
-9.56928
-9.62975
-9.68729
-9.74192
-9.79371
-9.84276
-9.8892
-9.93314
-9.9747
-10.014
-10.0511
-10.0862
-10.1193
-10.1504
-10.1796
-10.2069
-10.2323
-10.256
-10.2777
-10.2978
-10.3161
-10.3329
-10.3478
-8.82529
-8.83891
-8.87333
-8.91994
-8.9749
-9.03632
-9.10187
-9.1696
-9.2381
-9.30629
-9.37335
-9.43871
-9.50194
-9.56279
-9.6211
-9.6768
-9.72987
-9.78034
-9.82829
-9.87378
-9.91693
-9.95781
-9.99653
-10.0332
-10.0678
-10.1005
-10.1313
-10.1603
-10.1874
-10.2128
-10.2365
-10.2584
-10.2788
-10.2975
-10.3149
-10.3306
-8.87216
-8.88422
-8.91463
-8.95636
-9.00604
-9.062
-9.12223
-9.18494
-9.2488
-9.31277
-9.37605
-9.43806
-9.49835
-9.55664
-9.61274
-9.66653
-9.71797
-9.76706
-9.81382
-9.85832
-9.90061
-9.94077
-9.97887
-10.015
-10.0492
-10.0815
-10.112
-10.1408
-10.1678
-10.1932
-10.2169
-10.2391
-10.2597
-10.2789
-10.2969
-10.3133
-8.91619
-8.92689
-8.95381
-8.99117
-9.03604
-9.08696
-9.14219
-9.20013
-9.25952
-9.3194
-9.37898
-9.43768
-9.49504
-9.55076
-9.60461
-9.65646
-9.70623
-9.75388
-9.79941
-9.84285
-9.88425
-9.92365
-9.9611
-9.99667
-10.0304
-10.0624
-10.0926
-10.1212
-10.1481
-10.1735
-10.1973
-10.2197
-10.2407
-10.2603
-10.2789
-10.296
-8.95702
-8.96653
-8.99045
-9.02392
-9.06445
-9.11076
-9.16136
-9.21482
-9.26998
-9.32594
-9.38195
-9.43742
-9.4919
-9.54507
-9.59668
-9.64658
-9.69464
-9.74082
-9.78509
-9.82745
-9.86792
-9.90652
-9.94331
-9.97832
-10.0116
-10.0432
-10.0732
-10.1015
-10.1284
-10.1538
-10.1777
-10.2003
-10.2217
-10.2418
-10.2608
-10.2786
-8.99421
-9.00269
-9.02403
-9.0541
-9.09075
-9.1329
-9.17928
-9.2286
-9.27982
-9.33208
-9.38468
-9.43705
-9.48875
-9.53944
-9.58885
-9.63681
-9.68319
-9.72789
-9.77089
-9.81214
-9.85166
-9.88946
-9.92557
-9.96001
-9.99283
-10.0241
-10.0538
-10.082
-10.1088
-10.1342
-10.1583
-10.1811
-10.2027
-10.2232
-10.2428
-10.2612
-9.02728
-9.03488
-9.05401
-9.08114
-9.11439
-9.15286
-9.19544
-9.241
-9.2886
-9.33745
-9.38687
-9.43633
-9.48539
-9.5337
-9.58099
-9.62707
-9.6718
-9.71506
-9.75679
-9.79695
-9.83553
-9.87253
-9.90796
-9.94184
-9.9742
-10.0051
-10.0345
-10.0626
-10.0893
-10.1147
-10.1389
-10.162
-10.1839
-10.2048
-10.2248
-10.2437
-9.05565
-9.06251
-9.0798
-9.10441
-9.13475
-9.17001
-9.20926
-9.2515
-9.29585
-9.34161
-9.38814
-9.43492
-9.48153
-9.52762
-9.57293
-9.61723
-9.66038
-9.70225
-9.74277
-9.78188
-9.81955
-9.85577
-9.89054
-9.92387
-9.95579
-9.98633
-10.0155
-10.0434
-10.0701
-10.0955
-10.1198
-10.143
-10.1652
-10.1864
-10.2067
-10.2262
-9.07865
-9.08489
-9.10067
-9.12322
-9.15111
-9.18367
-9.22009
-9.25946
-9.30101
-9.34406
-9.38803
-9.43243
-9.47685
-9.52094
-9.56444
-9.60712
-9.64882
-9.68941
-9.7288
-9.76692
-9.80373
-9.83921
-9.87336
-9.90617
-9.93767
-9.96788
-9.99683
-10.0246
-10.0511
-10.0766
-10.1009
-10.1243
-10.1466
-10.1681
-10.1887
-10.2085
-9.09545
-9.10122
-9.11581
-9.13672
-9.16267
-9.19306
-9.22717
-9.2642
-9.30342
-9.34422
-9.38604
-9.42842
-9.47097
-9.51334
-9.55526
-9.59652
-9.63695
-9.67641
-9.71479
-9.75203
-9.78807
-9.82289
-9.85647
-9.88881
-9.91992
-9.94982
-9.97855
-10.0061
-10.0326
-10.058
-10.0824
-10.1058
-10.1283
-10.15
-10.1708
-10.1909
-9.10503
-9.11046
-9.1242
-9.14392
-9.16845
-9.19724
-9.22964
-9.2649
-9.30236
-9.34142
-9.38158
-9.42238
-9.46344
-9.50444
-9.5451
-9.58521
-9.6246
-9.66312
-9.70067
-9.73716
-9.77256
-9.80681
-9.83991
-9.87184
-9.90262
-9.93225
-9.96076
-9.98819
-10.0146
-10.0399
-10.0643
-10.0878
-10.1103
-10.1321
-10.1531
-10.1733
-9.1061
-9.11134
-9.1246
-9.14365
-9.16736
-9.19522
-9.2266
-9.2608
-9.29717
-9.33515
-9.37425
-9.41403
-9.45412
-9.4942
-9.53401
-9.57334
-9.612
-9.64986
-9.68682
-9.72279
-9.75771
-9.79155
-9.82429
-9.85591
-9.88643
-9.91584
-9.94418
-9.97147
-9.99774
-10.023
-10.0474
-10.0708
-10.0934
-10.1152
-10.1362
-10.1565
-9.09868
-9.10387
-9.11705
-9.13596
-9.15949
-9.18712
-9.21822
-9.2521
-9.28812
-9.32572
-9.36442
-9.40379
-9.44347
-9.48315
-9.52257
-9.56152
-9.59983
-9.63737
-9.67401
-9.7097
-9.74437
-9.77798
-9.81051
-9.84195
-9.8723
-9.90157
-9.92979
-9.95698
-9.98316
-10.0084
-10.0327
-10.0561
-10.0786
-10.1003
-10.1213
-10.1415
-9.08409
-9.08939
-9.10283
-9.1221
-9.14601
-9.17404
-9.20552
-9.23973
-9.27603
-9.31387
-9.35275
-9.39226
-9.43203
-9.47177
-9.51121
-9.55015
-9.58844
-9.62593
-9.66252
-9.69815
-9.73275
-9.76629
-9.79875
-9.83012
-9.86041
-9.88961
-9.91777
-9.94489
-9.97101
-9.99615
-10.0204
-10.0437
-10.0661
-10.0878
-10.1086
-10.1288
-9.06337
-9.06893
-9.08297
-9.10303
-9.12784
-9.15682
-9.18925
-9.22438
-9.26152
-9.30012
-9.33968
-9.37977
-9.42005
-9.46021
-9.50001
-9.53926
-9.57779
-9.61548
-9.65223
-9.68798
-9.72268
-9.75629
-9.78879
-9.82019
-9.85048
-9.87968
-9.90782
-9.93491
-9.96098
-9.98607
-10.0102
-10.0335
-10.0558
-10.0774
-10.0981
-10.1181
-9.03732
-9.04325
-9.05822
-9.07951
-9.10573
-9.13618
-9.17009
-9.20663
-9.24511
-9.28492
-9.32557
-9.36664
-9.40777
-9.44868
-9.48912
-9.52891
-9.56791
-9.60599
-9.64308
-9.6791
-9.71402
-9.74781
-9.78045
-9.81195
-9.84232
-9.87157
-9.89972
-9.92681
-9.95286
-9.9779
-10.002
-10.0251
-10.0474
-10.0688
-10.0894
-10.1093
-9.0065
-9.01296
-9.0292
-9.05218
-9.08029
-9.11272
-9.1486
-9.18704
-9.22727
-9.2687
-9.3108
-9.35316
-9.39544
-9.43734
-9.47865
-9.5192
-9.55884
-9.59747
-9.63502
-9.67144
-9.70668
-9.74074
-9.7736
-9.80527
-9.83576
-9.8651
-9.8933
-9.92041
-9.94645
-9.97146
-9.99548
-10.0185
-10.0407
-10.062
-10.0824
-10.1021
-8.97135
-8.97848
-8.99639
-9.02156
-9.05206
-9.08697
-9.1253
-9.16606
-9.20844
-9.25183
-9.29569
-9.33961
-9.38326
-9.42638
-9.46874
-9.5102
-9.55062
-9.58993
-9.62805
-9.66495
-9.7006
-9.73499
-9.76812
-9.8
-9.83066
-9.86012
-9.8884
-9.91555
-9.9416
-9.96658
-9.99054
-10.0135
-10.0356
-10.0567
-10.077
-10.0965
-8.93217
-8.94016
-8.96021
-8.98809
-9.02152
-9.05941
-9.10065
-9.14413
-9.18901
-9.23465
-9.28053
-9.32624
-9.37145
-9.41593
-9.45949
-9.50198
-9.54329
-9.58336
-9.62214
-9.65958
-9.6957
-9.73047
-9.76391
-9.79605
-9.8269
-9.8565
-9.88489
-9.91209
-9.93815
-9.96312
-9.98702
-10.0099
-10.0318
-10.0529
-10.073
-10.0923
-8.88916
-8.89824
-8.92098
-8.9522
-8.98911
-9.03049
-9.07507
-9.12164
-9.16933
-9.21748
-9.26558
-9.31324
-9.36017
-9.40614
-9.45099
-9.4946
-9.53688
-9.57778
-9.61726
-9.6553
-9.69192
-9.72711
-9.7609
-9.79331
-9.82438
-9.85414
-9.88263
-9.9099
-9.93598
-9.96093
-9.98479
-10.0076
-10.0294
-10.0503
-10.0702
-10.0894
-8.84244
-8.85289
-8.879
-8.91425
-8.95523
-9.00062
-9.04896
-9.09897
-9.14971
-9.20057
-9.25106
-9.30081
-9.34955
-9.3971
-9.44332
-9.48811
-9.5314
-9.57317
-9.61338
-9.65206
-9.6892
-9.72483
-9.75898
-9.79168
-9.82298
-9.85291
-9.88151
-9.90885
-9.93496
-9.95991
-9.98371
-10.0065
-10.0282
-10.0489
-10.0687
-10.0877
-8.79202
-8.80421
-8.83457
-8.87462
-8.9203
-8.9702
-9.02271
-9.07643
-9.13045
-9.18418
-9.23717
-9.28909
-9.33972
-9.3889
-9.43652
-9.48252
-9.52685
-9.5695
-9.61048
-9.64979
-9.68747
-9.72355
-9.75807
-9.79107
-9.82259
-9.8527
-9.88143
-9.90884
-9.93498
-9.9599
-9.98366
-10.0063
-10.0279
-10.0485
-10.0681
-10.087
-8.73784
-8.75227
-8.78798
-8.83371
-8.8847
-8.93961
-8.99666
-9.05433
-9.11179
-9.1685
-9.22406
-9.2782
-9.33075
-9.38158
-9.43062
-9.47784
-9.52321
-9.56675
-9.60848
-9.64843
-9.68665
-9.72318
-9.75806
-9.79136
-9.82312
-9.85339
-9.88224
-9.90972
-9.93589
-9.9608
-9.98451
-10.0071
-10.0286
-10.049
-10.0685
-10.0871
-8.67971
-8.6971
-8.73955
-8.79189
-8.84882
-8.90924
-8.97113
-9.03295
-9.09395
-9.1537
-9.21186
-9.26823
-9.32269
-9.37516
-9.42561
-9.47403
-9.52044
-9.56485
-9.60732
-9.6479
-9.68665
-9.72361
-9.75886
-9.79244
-9.82443
-9.85488
-9.88384
-9.91139
-9.93758
-9.96248
-9.98613
-10.0086
-10.03
-10.0503
-10.0696
-10.088
-8.61737
-8.63872
-8.68965
-8.7496
-8.81307
-8.87943
-8.94643
-9.0125
-9.07709
-9.13988
-9.20062
-9.25919
-9.31554
-9.36962
-9.42145
-9.47105
-9.51845
-9.56372
-9.60691
-9.64809
-9.68734
-9.72473
-9.76032
-9.79419
-9.8264
-9.85701
-9.88608
-9.9137
-9.93991
-9.96479
-9.98838
-10.0108
-10.032
-10.0522
-10.0713
-10.0896
-8.5504
-8.57717
-8.63875
-8.70727
-8.77782
-8.85054
-8.92282
-8.99317
-9.06133
-9.12711
-9.19038
-9.25109
-9.30926
-9.3649
-9.41806
-9.46879
-9.51715
-9.56322
-9.6071
-9.64885
-9.68859
-9.72638
-9.76231
-9.79645
-9.82887
-9.85964
-9.88883
-9.91651
-9.94274
-9.9676
-9.99115
-10.0135
-10.0346
-10.0546
-10.0736
-10.0917
-8.4782
-8.51252
-8.58738
-8.66537
-8.74346
-8.82283
-8.90047
-8.97506
-9.0467
-9.11537
-9.18107
-9.24382
-9.30374
-9.36087
-9.4153
-9.4671
-9.51638
-9.56321
-9.60773
-9.65003
-9.69023
-9.72841
-9.76467
-9.79907
-9.83171
-9.86264
-9.89194
-9.91969
-9.94595
-9.9708
-9.9943
-10.0165
-10.0375
-10.0575
-10.0762
-10.0942
-8.40003
-8.44493
-8.5362
-8.62437
-8.71028
-8.79653
-8.87949
-8.95816
-9.03313
-9.10455
-9.17255
-9.23723
-9.2988
-9.35734
-9.41298
-9.4658
-9.51595
-9.5635
-9.60864
-9.65146
-9.69211
-9.73067
-9.76725
-9.80192
-9.83478
-9.86587
-9.89531
-9.92313
-9.94944
-9.97428
-9.99775
-10.0199
-10.0408
-10.0606
-10.0793
-10.097
-8.31486
-8.3747
-8.4859
-8.58465
-8.67847
-8.77167
-8.85982
-8.94234
-9.02043
-9.09443
-9.16457
-9.23107
-9.29421
-9.3541
-9.4109
-9.46471
-9.51569
-9.56394
-9.60968
-9.653
-9.69409
-9.73303
-9.76996
-9.8049
-9.838
-9.86928
-9.89886
-9.92678
-9.95314
-9.97801
-10.0015
-10.0236
-10.0444
-10.0641
-10.0826
-10.1002
-8.22142
-8.30224
-8.43719
-8.54643
-8.64799
-8.7481
-8.84122
-8.92731
-9.0083
-9.08471
-9.15689
-9.22512
-9.28977
-9.35097
-9.40893
-9.4637
-9.51552
-9.56446
-9.6108
-9.6546
-9.69616
-9.73549
-9.77277
-9.80801
-9.84137
-9.87285
-9.90261
-9.93064
-9.9571
-9.98199
-10.0054
-10.0275
-10.0483
-10.0679
-10.0863
-10.1038
-8.11807
-8.22788
-8.39052
-8.50959
-8.61846
-8.72544
-8.82334
-8.91275
-8.99648
-9.07519
-9.14935
-9.21926
-9.28543
-9.34794
-9.40707
-9.46283
-9.51549
-9.56512
-9.61207
-9.65637
-9.6984
-9.73814
-9.7758
-9.81135
-9.845
-9.8767
-9.90665
-9.93481
-9.96137
-9.98629
-10.0098
-10.0318
-10.0525
-10.072
-10.0903
-10.1076
-8.00224
-8.15118
-8.34587
-8.47386
-8.58949
-8.70338
-8.80599
-8.89858
-8.98499
-9.066
-9.14213
-9.21374
-9.28144
-9.3453
-9.40562
-9.46238
-9.51589
-9.56621
-9.61376
-9.65857
-9.70109
-9.74126
-9.77933
-9.8152
-9.84916
-9.88109
-9.91126
-9.93956
-9.96625
-9.99123
-10.0148
-10.0367
-10.0574
-10.0768
-10.095
-10.1123
-7.8684
-8.07019
-8.3027
-8.43931
-8.56147
-8.68245
-8.78972
-8.88536
-8.97441
-9.05773
-9.13586
-9.20919
-9.27847
-9.34368
-9.40521
-9.46295
-9.51728
-9.56822
-9.61626
-9.66146
-9.70443
-9.74499
-9.78342
-9.81958
-9.85381
-9.88593
-9.91628
-9.94467
-9.97145
-9.99644
-10.02
-10.0419
-10.0625
-10.0817
-10.0998
-10.1169
-7.70426
-7.98637
-8.26194
-8.40721
-8.53686
-8.66529
-8.7768
-8.87494
-8.96621
-9.05148
-9.13134
-9.20622
-9.27697
-9.34353
-9.4063
-9.4651
-9.52032
-9.57207
-9.6207
-9.6663
-9.7097
-9.75065
-9.78946
-9.82593
-9.86046
-9.8928
-9.92334
-9.95185
-9.97873
-10.0037
-10.0273
-10.0491
-10.0696
-10.0886
-10.1066
-10.1236
-7.49519
-7.9176
-8.22856
-8.37447
-8.51263
-8.65028
-8.76693
-8.86821
-8.96204
-9.04933
-9.13071
-9.20679
-9.27851
-9.34585
-9.40919
-9.46839
-9.52375
-9.57567
-9.62461
-9.67049
-9.71412
-9.75525
-9.79421
-9.8308
-9.86543
-9.89784
-9.92843
-9.95695
-9.98382
-10.0088
-10.0323
-10.054
-10.0743
-10.0931
-10.1108
-10.1274
-7.23679
-7.89168
-8.24047
-8.36833
-8.50333
-8.64302
-8.76038
-8.86238
-8.95763
-9.04667
-9.12983
-9.20767
-9.28111
-9.35005
-9.41481
-9.47509
-9.53117
-9.58302
-9.63163
-9.67779
-9.72185
-9.76333
-9.80258
-9.83943
-9.87427
-9.90685
-9.93757
-9.96618
-9.99312
-10.0181
-10.0416
-10.0632
-10.0835
-10.1021
-10.1195
-10.1357
-6.96497
-7.8015
-8.22716
-8.36236
-8.50253
-8.64625
-8.7646
-8.86652
-8.96163
-9.05066
-9.13395
-9.21212
-9.28609
-9.35566
-9.42116
-9.48203
-9.53856
-9.58989
-9.63733
-9.68324
-9.72741
-9.76905
-9.80845
-9.84545
-9.88042
-9.9131
-9.9439
-9.97256
-9.99954
-10.0245
-10.048
-10.0696
-10.0899
-10.1083
-10.1256
-10.1414
-10.7928
-10.7924
-10.7935
-10.7965
-10.8009
-10.8062
-10.8123
-10.8192
-10.8272
-10.8368
-10.8482
-10.8622
-10.8793
-10.9002
-10.9256
-10.9564
-10.9934
-11.0373
-11.0885
-11.1475
-11.2149
-11.2909
-11.3753
-11.4671
-11.5644
-11.6644
-11.7637
-11.8582
-11.9434
-12.0148
-12.0685
-12.1019
-12.1141
-12.106
-12.0809
-12.043
-11.9971
-11.9486
-11.9006
-11.8576
-11.8219
-11.7944
-11.7786
-11.7708
-11.77
-11.7684
-11.7641
-11.7796
-11.8225
-11.8564
-11.8417
-11.7619
-11.6399
-11.535
-11.5007
-11.5456
-11.6521
-11.8082
-12.0022
-12.2235
-12.4644
-12.7182
-12.9808
-13.248
-13.5172
-13.7861
-14.0529
-14.3163
-14.5753
-14.8289
-15.0763
-15.3167
-15.5494
-15.7737
-15.9888
-16.1939
-16.3882
-16.5708
-16.7407
-16.897
-17.0385
-17.1643
-17.273
-17.3632
-17.4334
-17.4822
-17.5086
-17.5111
-17.4885
-17.4396
-17.3633
-17.2584
-17.1239
-16.9588
-16.7622
-16.5336
-16.2724
-15.9782
-15.651
-15.2909
-14.8984
-14.4741
-14.0191
-13.5347
-13.0226
-12.4848
-11.9236
-11.3416
-10.7416
-10.1268
-9.50067
-8.86726
-8.23112
-7.59659
-6.96727
-6.34582
-5.73472
-5.13696
-4.55536
-3.99182
-3.44793
-2.92553
-2.42701
-1.95499
-1.51146
-1.09722
-0.712576
-0.358141
-0.0347202
0.257343
0.518342
0.748634
0.947578
1.11315
1.24339
1.33938
1.40737
1.45101
1.47322
1.47372
1.45187
1.4085
1.34545
1.26499
1.17002
1.06359
0.948458
0.8271
0.702011
0.575531
0.45016
0.32807
0.211673
0.102987
0.00371823
-0.0845659
-0.160685
-0.224867
-0.275461
-0.314639
-0.343056
-0.359874
-0.37147
-0.375669
-0.372841
-0.374855
-0.366464
-0.361068
-0.365364
-0.347444
-0.35521
-0.357791
-0.330031
-0.365339
-0.340725
-0.316137
-0.368479
-0.266434
-0.232532
-0.228488
0.1636
0.438366
-0.101286
-1.39209
-3.0004
-4.7271
-6.4589
-8.1403
-9.75016
-11.2779
-12.7211
-14.0793
-15.354
-16.5473
-17.6612
-18.6976
-19.6576
-20.5426
-21.3531
-22.0897
-22.7526
-23.3421
-23.8584
-24.3016
-24.6718
-24.9692
-25.194
-25.3466
-25.4274
-25.4368
-25.3754
-25.2438
-25.0427
-24.7729
-24.4353
-24.0309
-23.5609
-23.0264
-22.4288
-21.7696
-21.0502
-20.2724
-19.438
-18.549
-17.6075
-16.6159
-15.5766
-14.4926
-13.3666
-12.2018
-11.0015
-9.76952
-8.50987
-7.2272
-5.92626
-4.61174
-3.28824
-1.96061
-0.634477
0.683673
1.98709
3.26961
4.52607
5.75248
6.94485
8.09744
9.20222
10.2522
11.2443
12.177
13.0478
13.8519
14.5846
15.2441
15.8334
16.3551
16.8063
17.1805
17.4774
17.7147
17.9031
18.0416
18.1315
18.1762
18.1789
18.1431
18.0727
17.9711
17.8413
17.6867
17.511
17.3177
17.1101
16.8916
16.6647
16.4313
16.1937
15.954
15.7139
15.4749
15.2381
15.0047
14.7753
14.5509
14.3319
14.1187
13.912
13.7117
13.5182
13.3315
13.1519
12.9793
12.8138
12.6555
12.5042
12.36
12.2228
12.0925
11.969
11.8522
11.7421
11.6383
11.541
11.4498
11.3648
11.2856
11.2124
11.1447
11.0828
11.0262
10.9751
10.9293
10.8888
10.8534
10.8233
10.7982
10.7783
10.7634
10.7539
10.7492
10.7499
10.7555
10.7666
10.7825
10.804
10.8302
10.862
10.8985
10.9408
10.9875
11.0403
11.0972
11.1604
11.2274
11.3009
11.3775
11.4608
11.5466
11.6397
11.7344
11.8369
11.94
12.0519
12.1628
12.2837
12.4018
12.5317
12.6561
12.795
12.9257
13.0748
13.2127
13.3752
13.5243
13.7076
13.8786
14.1017
14.3277
14.646
15.0071
-10.7931
-10.7936
-10.7954
-10.7984
-10.8021
-10.8067
-10.8122
-10.8189
-10.827
-10.8371
-10.8495
-10.8648
-10.8836
-10.9068
-10.935
-10.9691
-11.0098
-11.0576
-11.1125
-11.1751
-11.2455
-11.3244
-11.4123
-11.5084
-11.6109
-11.7169
-11.8227
-11.9237
-12.0144
-12.0895
-12.1447
-12.177
-12.1855
-12.1713
-12.1377
-12.089
-12.031
-11.9703
-11.9125
-11.8625
-11.8229
-11.7938
-11.7818
-11.7803
-11.7656
-11.7219
-11.6515
-11.6051
-11.6666
-11.8164
-11.9334
-11.928
-11.8087
-11.6968
-11.674
-11.725
-11.8337
-11.9858
-12.1715
-12.3812
-12.6097
-12.8511
-13.1012
-13.3565
-13.6142
-13.8725
-14.1297
-14.3844
-14.6356
-14.8822
-15.1236
-15.3588
-15.5871
-15.8078
-16.02
-16.2229
-16.4157
-16.5974
-16.7671
-16.9238
-17.0663
-17.1935
-17.3041
-17.3968
-17.4702
-17.5231
-17.5541
-17.5621
-17.5456
-17.5035
-17.4345
-17.3374
-17.2114
-17.0552
-16.8682
-16.6494
-16.3984
-16.1148
-15.7983
-15.4492
-15.0677
-14.6543
-14.2098
-13.7358
-13.234
-12.7064
-12.1548
-11.5814
-10.9891
-10.3808
-9.7599
-9.1301
-8.49573
-7.86137
-7.23136
-6.60943
-5.99892
-5.4027
-4.82292
-4.26088
-3.71785
-3.19559
-2.6967
-2.22413
-1.77998
-1.3641
-0.97568
-0.615603
-0.285269
0.014576
0.283784
0.522648
0.7315
0.91021
1.05777
1.17225
1.25185
1.30034
1.32193
1.32261
1.30311
1.26396
1.20636
1.13216
1.04462
0.946716
0.840655
0.728526
0.612544
0.494933
0.377972
0.263848
0.154889
0.0530925
-0.0398453
-0.122541
-0.193839
-0.253586
-0.300726
-0.336534
-0.361763
-0.376282
-0.384313
-0.386138
-0.380585
-0.378343
-0.369515
-0.358607
-0.36207
-0.344155
-0.342414
-0.357302
-0.316171
-0.359267
-0.343486
-0.309441
-0.444816
-0.216151
-0.0496281
-0.298678
-0.230831
-0.143919
-0.845629
-2.10546
-3.62898
-5.24862
-6.88215
-8.48265
-10.028
-11.5044
-12.9067
-14.2326
-15.4819
-16.6554
-17.7539
-18.7783
-19.7293
-20.6073
-21.4127
-22.1457
-22.8062
-23.3943
-23.9101
-24.3535
-24.7247
-25.0236
-25.2505
-25.4055
-25.4892
-25.5018
-25.4439
-25.3162
-25.1192
-24.8539
-24.521
-24.1216
-23.6567
-23.1276
-22.5355
-21.8818
-21.1682
-20.3963
-19.568
-18.6852
-17.7499
-16.7647
-15.7318
-14.6541
-13.5345
-12.3762
-11.1825
-9.95686
-8.70338
-7.42647
-6.13089
-4.82147
-3.50297
-2.18015
-0.858436
0.455695
1.75571
3.03597
4.29143
5.51792
6.71099
7.86386
8.96836
10.0177
11.0089
11.9413
12.813
13.6193
14.355
15.0177
15.6108
16.1388
16.6007
16.9915
17.3066
17.549
17.7336
17.8707
17.9631
18.0129
18.022
17.9935
17.9311
17.8379
17.7168
17.5711
17.4042
17.2196
17.0203
16.8089
16.5885
16.3619
16.1312
15.8981
15.6643
15.4311
15.1997
14.9712
14.7463
14.5258
14.3104
14.1005
13.8966
13.6989
13.5077
13.3231
13.1453
12.9743
12.8103
12.6532
12.503
12.3598
12.2234
12.0938
11.9709
11.8546
11.7448
11.6415
11.5445
11.4535
11.3687
11.2898
11.2167
11.1492
11.0874
11.031
10.98
10.9342
10.8938
10.8585
10.8285
10.8034
10.7836
10.7687
10.7591
10.7544
10.7551
10.7605
10.7714
10.787
10.8082
10.8341
10.8657
10.9018
10.9437
10.99
11.0423
11.0987
11.1615
11.2278
11.3007
11.3766
11.4593
11.5442
11.6366
11.7302
11.832
11.9338
12.0449
12.1543
12.2744
12.3906
12.5195
12.6422
12.7803
12.9093
13.058
13.1942
13.3569
13.5036
13.6885
13.8546
14.0812
14.2914
14.6048
14.8884
-10.7883
-10.7898
-10.7929
-10.797
-10.8018
-10.8068
-10.8126
-10.8198
-10.8288
-10.8402
-10.8543
-10.8715
-10.8925
-10.918
-10.9486
-10.9852
-11.0284
-11.0788
-11.137
-11.2036
-11.2792
-11.3644
-11.4593
-11.5633
-11.6747
-11.7908
-11.9073
-12.0189
-12.1187
-12.2003
-12.2583
-12.2895
-12.2939
-12.2749
-12.2384
-12.1902
-12.1333
-12.0681
-11.9925
-11.9033
-11.8
-11.6901
-11.6056
-11.5971
-11.6638
-11.7554
-11.7816
-11.7266
-11.7171
-11.7999
-11.9042
-11.9726
-11.9909
-11.9989
-12.0304
-12.0973
-12.2003
-12.335
-12.4967
-12.6798
-12.8801
-13.0935
-13.3169
-13.5472
-13.7821
-14.0196
-14.258
-14.496
-14.7323
-14.9659
-15.1959
-15.4214
-15.6414
-15.8552
-16.0618
-16.2604
-16.4499
-16.6296
-16.7982
-16.9548
-17.0982
-17.2274
-17.3409
-17.4375
-17.5158
-17.5745
-17.6122
-17.6277
-17.6196
-17.5867
-17.5276
-17.4413
-17.3267
-17.1827
-17.0083
-16.8028
-16.5655
-16.296
-15.994
-15.6596
-15.2929
-14.8944
-14.4647
-14.0056
-13.5189
-13.0064
-12.469
-11.9083
-11.3271
-10.7287
-10.1162
-9.49317
-8.86409
-8.23458
-7.60969
-6.99231
-6.38442
-5.78894
-5.20871
-4.64531
-4.09994
-3.57449
-3.07126
-2.59283
-2.14137
-1.71795
-1.32284
-0.95655
-0.619991
-0.313928
-0.0388323
0.205185
0.418308
0.600907
0.753393
0.876187
0.969839
1.03593
1.07651
1.09425
1.09031
1.06568
1.02213
0.961804
0.887497
0.80212
0.707996
0.607278
0.502157
0.394855
0.287634
0.18291
0.083129
-0.00981564
-0.094441
-0.169526
-0.234172
-0.287953
-0.330285
-0.361716
-0.382795
-0.394073
-0.397935
-0.395578
-0.387113
-0.377877
-0.367134
-0.351455
-0.34718
-0.337502
-0.319833
-0.346361
-0.304131
-0.329868
-0.394304
-0.160525
-0.194622
-0.497521
-0.613046
-0.984561
-1.31394
-1.6973
-2.43282
-3.49774
-4.77964
-6.18007
-7.6321
-9.08779
-10.5175
-11.9026
-13.2331
-14.5026
-15.708
-16.8472
-17.919
-18.9227
-19.8577
-20.7236
-21.5198
-22.2461
-22.902
-23.4872
-24.0014
-24.4444
-24.8161
-25.1165
-25.3456
-25.5035
-25.5905
-25.607
-25.5535
-25.4305
-25.2387
-24.9789
-24.6518
-24.2585
-23.7999
-23.2774
-22.6921
-22.0455
-21.3391
-20.5746
-19.7539
-18.8787
-17.9513
-16.974
-15.949
-14.8793
-13.7676
-12.6171
-11.4312
-10.2133
-8.96708
-7.69706
-6.40812
-5.10528
-3.79371
-2.47806
-1.16317
0.144472
1.43816
2.71256
3.96227
5.18308
6.37198
7.52329
8.62823
9.67824
10.6693
11.6024
12.4757
13.2845
14.0243
14.6917
15.2877
15.8157
16.2773
16.6714
16.9962
17.2547
17.4559
17.6066
17.7115
17.7737
17.7948
17.7783
17.7287
17.6486
17.5404
17.4073
17.253
17.0807
16.8934
16.6938
16.4846
16.2685
16.0474
15.8234
15.5978
15.3723
15.1479
14.9258
14.7068
14.4917
14.2812
14.0758
13.8758
13.6815
13.4934
13.3117
13.1364
12.9677
12.8058
12.6505
12.5019
12.3601
12.2249
12.0963
11.9743
11.8588
11.7498
11.647
11.5505
11.46
11.3756
11.2969
11.2241
11.1569
11.0952
11.0389
10.9881
10.9424
10.9021
10.8668
10.8368
10.8117
10.7919
10.7769
10.7672
10.7623
10.7627
10.7679
10.7784
10.7936
10.8143
10.8396
10.8705
10.9059
10.947
10.9925
11.0439
11.0993
11.1609
11.2261
11.2977
11.3722
11.4535
11.537
11.6279
11.7199
11.82
11.9201
12.0294
12.137
12.2551
12.3696
12.4966
12.6176
12.7537
12.8813
13.028
13.1631
13.3238
13.4699
13.652
13.8165
14.0366
14.2342
14.5179
14.732
-10.7746
-10.777
-10.7816
-10.7879
-10.7946
-10.8012
-10.8081
-10.8162
-10.8259
-10.8377
-10.8519
-10.869
-10.8895
-10.9142
-10.9438
-10.979
-11.0208
-11.0703
-11.1285
-11.1962
-11.2739
-11.362
-11.4609
-11.5704
-11.689
-11.8138
-11.9405
-12.0633
-12.1755
-12.2691
-12.336
-12.3694
-12.3658
-12.3279
-12.2636
-12.1828
-12.0975
-12.02
-11.9588
-11.9157
-11.8812
-11.8331
-11.7661
-11.7301
-11.7636
-11.8343
-11.8875
-11.9047
-11.9213
-11.9628
-12.0225
-12.0867
-12.1491
-12.2141
-12.2893
-12.3813
-12.493
-12.6246
-12.775
-12.9422
-13.1238
-13.3172
-13.5202
-13.7308
-13.9471
-14.1673
-14.3899
-14.6138
-14.8377
-15.0606
-15.2815
-15.4993
-15.7132