/*--------------------------------*- C++ -*----------------------------------*\
| =========                 |                                                 |
| \\      /  F ield         | OpenFOAM: The Open Source CFD Toolbox           |
|  \\    /   O peration     | Version:  2.4.0                                 |
|   \\  /    A nd           | Web:      www.OpenFOAM.org                      |
|    \\/     M anipulation  |                                                 |
\*---------------------------------------------------------------------------*/
FoamFile
{
    version     2.0;
    format      ascii;
    class       volVectorField;
    location    "0.42";
    object      U;
}
// * * * * * * * * * * * * * * * * * * * * * * * * * * * * * * * * * * * * * //

dimensions      [0 1 -1 0 0 0 0];

internalField   nonuniform List<vector> 
6000
(
(0.519828 -0.0447084 -1.02747e-17)
(-0.274987 0.0580711 0)
(0.00279291 0.00100967 5.66203e-18)
(-0.19108 0.0407149 0)
(-0.17809 0.03449 0)
(-0.163965 0.0263393 0)
(-0.107877 0.0149441 4.20955e-18)
(-0.0659828 0.00664983 6.91218e-21)
(-0.020134 -0.00199469 0)
(0.0306125 -0.01081 0)
(0.0863344 -0.0192241 5.4152e-18)
(0.141696 -0.0261647 -1.11726e-17)
(0.189852 -0.0308461 0)
(0.225797 -0.0330644 0)
(0.249088 -0.0333255 -2.86687e-18)
(0.263231 -0.032437 0)
(0.272407 -0.0309968 0)
(0.279111 -0.0292601 -2.82108e-18)
(0.284202 -0.0273088 -2.80156e-18)
(0.28798 -0.0251989 0)
(0.290744 -0.022984 2.7626e-18)
(0.292768 -0.0207012 1.3727e-18)
(0.29429 -0.0183773 -1.3645e-18)
(0.295488 -0.0160295 0)
(0.296492 -0.013668 0)
(0.297401 -0.0112986 0)
(0.298292 -0.00892392 6.70211e-19)
(0.299227 -0.00654393 -6.68487e-19)
(0.300258 -0.0041567 0)
(0.301427 -0.00175877 0)
(0.302769 0.000654499 8.33195e-20)
(0.304315 0.0030888 0)
(0.306093 0.0055508 6.6804e-19)
(0.30813 0.0080482 -6.69628e-19)
(0.310451 0.01059 0)
(0.313082 0.0131849 0)
(0.316046 0.0158369 1.3559e-18)
(0.319364 0.0185435 0)
(0.323049 0.0213093 1.3725e-18)
(0.327134 0.0241531 0)
(0.33169 0.0270954 0)
(0.336771 0.0301525 2.81114e-18)
(0.342426 0.033348 -5.67345e-18)
(0.348716 0.0367019 0)
(0.355711 0.040236 0)
(0.363496 0.0439766 2.92409e-18)
(0.372171 0.0479545 0)
(0.381857 0.0522066 0)
(0.392701 0.0567768 -6.02071e-18)
(0.404883 0.0617191 -6.07246e-18)
(0.418613 0.0670968 -6.10817e-18)
(0.434201 0.0729988 -5.1792e-21)
(0.45182 0.0794967 6.10203e-18)
(0.472209 0.086768 0)
(0.494964 0.0947908 -8.60196e-21)
(0.523718 0.104299 -5.67245e-18)
(0.551573 0.114167 5.22931e-18)
(0.601411 0.128418 4.63147e-18)
(0.620557 0.138349 1.90228e-20)
(0.738782 0.16585 0)
(0.73106 -0.111538 8.36021e-18)
(-0.182352 0.0600621 4.19884e-18)
(-0.00518482 0.00121175 -2.7614e-18)
(-0.21839 0.0544226 -2.68741e-18)
(-0.17904 0.0382159 0)
(-0.161754 0.0288115 0)
(-0.0996596 0.0151072 -4.12775e-18)
(-0.0526121 0.00591102 9.06228e-18)
(-0.00165884 -0.00398501 0)
(0.0547922 -0.0144426 0)
(0.117433 -0.0246681 -5.30571e-18)
(0.181235 -0.033089 5.47414e-18)
(0.238707 -0.0385921 2.78807e-18)
(0.283163 -0.0408902 0)
(0.312327 -0.0406897 2.8194e-18)
(0.32909 -0.0391175 0)
(0.338546 -0.0369925 0)
(0.344581 -0.0346323 0)
(0.348905 -0.0320988 0)
(0.351963 -0.0294229 0)
(0.353925 -0.0266517 -9.52781e-22)
(0.355038 -0.0238307 0)
(0.355595 -0.0209923 -1.34692e-18)
(0.355836 -0.018154 0)
(0.355934 -0.0153243 0)
(0.356008 -0.0125064 6.64368e-19)
(0.356148 -0.00970061 -6.6245e-19)
(0.356422 -0.00690434 1.96049e-22)
(0.356888 -0.00411319 3.29762e-19)
(0.357588 -0.00132132 0)
(0.358562 0.00147814 -8.23841e-20)
(0.35984 0.00429286 -3.29675e-19)
(0.361452 0.00713116 -2.04747e-22)
(0.363426 0.0100019 6.62134e-19)
(0.365787 0.0129144 -6.64031e-19)
(0.368564 0.0158779 0)
(0.371783 0.0188957 0)
(0.375478 0.0220065 0)
(0.379704 0.0252364 0)
(0.384519 0.0285853 0)
(0.389945 0.0320645 -2.75205e-18)
(0.396026 0.0356968 0)
(0.402824 0.0394986 2.80151e-18)
(0.41041 0.0434949 2.82668e-18)
(0.418869 0.0477158 0)
(0.428301 0.0521957 0)
(0.438824 0.0569746 0)
(0.45058 0.0620994 0)
(0.463736 0.0676258 5.93594e-18)
(0.478501 0.0736207 0)
(0.495117 0.0801648 0)
(0.513923 0.0873622 -6.02419e-18)
(0.535234 0.0953343 -6.00455e-18)
(0.559767 0.104248 0)
(0.587494 0.114253 -1.15864e-17)
(0.621164 0.125792 0)
(0.65649 0.138633 -1.02429e-17)
(0.711421 0.155549 -4.49824e-18)
(0.744082 0.170434 3.21546e-18)
(0.879637 0.204694 2.12399e-18)
(0.800835 -0.0939029 -3.40666e-19)
(-0.0576555 0.0494571 -3.92997e-18)
(0.00457291 0.00507062 0)
(-0.20057 0.0542719 2.60505e-18)
(-0.164789 0.0320255 0)
(-0.14996 0.0203595 0)
(-0.0889459 0.00689694 0)
(-0.0424783 -0.00190499 -4.44946e-18)
(0.00765031 -0.0119753 0)
(0.0636396 -0.0229551 -4.97878e-18)
(0.126833 -0.033632 0)
(0.192996 -0.0421723 0)
(0.25497 -0.0473015 -2.74526e-18)
(0.305278 -0.0487648 0)
(0.339778 -0.0474904 0)
(0.359746 -0.044879 0)
(0.370088 -0.0419082 0)
(0.37563 -0.0388981 0)
(0.379054 -0.0358351 0)
(0.381237 -0.0326877 2.71931e-18)
(0.382376 -0.0294852 -2.7038e-18)
(0.382669 -0.026278 0)
(0.382402 -0.0231016 4.03587e-22)
(0.38185 -0.0199695 -1.32976e-18)
(0.38121 -0.016883 0)
(0.380617 -0.0138388 -1.31915e-18)
(0.380163 -0.010832 0)
(0.379917 -0.00785581 6.56084e-19)
(0.379932 -0.00490226 -3.27511e-19)
(0.380252 -0.00196225 0)
(0.380911 0.000973983 0)
(0.38194 0.00391673 3.27451e-19)
(0.383363 0.00687681 -1.92006e-22)
(0.385209 0.00986573 0)
(0.387501 0.0128958 1.31881e-18)
(0.390267 0.0159814 0)
(0.393538 0.0191418 1.33005e-18)
(0.397353 0.02238 0)
(0.401755 0.0256944 0)
(0.406786 0.0291132 0)
(0.41249 0.0326617 2.73171e-18)
(0.41892 0.0363707 0)
(0.426142 0.0402574 0)
(0.434235 0.0443467 -2.80433e-18)
(0.443293 0.0486691 0)
(0.453425 0.0532598 0)
(0.46476 0.0581602 2.88504e-18)
(0.477456 0.063419 -2.91182e-18)
(0.491696 0.0690942 -2.93647e-18)
(0.507713 0.0752557 0)
(0.525774 0.0819878 0)
(0.546249 0.0893982 0)
(0.569491 0.0976132 5.9278e-18)
(0.596282 0.10681 5.85833e-18)
(0.626645 0.117147 5.72603e-18)
(0.663507 0.1291 0)
(0.702436 0.14242 5.05774e-18)
(0.761967 0.159136 8.88105e-18)
(0.798325 0.175175 0)
(0.942418 0.207218 -2.0978e-18)
(0.837144 -0.0624095 -2.68575e-19)
(0.0588209 0.0432701 3.54487e-18)
(0.015776 0.00987029 -2.65173e-18)
(-0.175948 0.053578 0)
(-0.145807 0.0287197 0)
(-0.135047 0.014747 0)
(-0.0769832 0.00111926 0)
(-0.0326427 -0.00705244 0)
(0.0150641 -0.0171664 0)
(0.0688584 -0.0285853 4.91228e-18)
(0.130534 -0.039724 5.11356e-18)
(0.196422 -0.0484293 0)
(0.259807 -0.0532324 0)
(0.313092 -0.0538722 0)
(0.351084 -0.0514936 2.75405e-18)
(0.373657 -0.0478176 0)
(0.385046 -0.0440413 2.74497e-18)
(0.390431 -0.0405057 -2.73189e-18)
(0.393218 -0.0370926 0)
(0.394739 -0.0336702 -2.70225e-18)
(0.395303 -0.0302275 0)
(0.395073 -0.026814 -1.33546e-18)
(0.394305 -0.0234699 2.65747e-18)
(0.393277 -0.0202059 1.32262e-18)
(0.392201 -0.0170152 0)
(0.391217 -0.0138877 6.5611e-19)
(0.390419 -0.0108134 0)
(0.389873 -0.0077821 6.52449e-19)
(0.389631 -0.00478307 0)
(0.389731 -0.00180508 0)
(0.390207 0.00116338 0)
(0.391087 0.00413399 3.25666e-19)
(0.392394 0.0071186 -1.30484e-18)
(0.394155 0.0101294 0)
(0.396392 0.013179 -6.56037e-19)
(0.399133 0.0162797 0)
(0.402407 0.019442 -1.32322e-18)
(0.406244 0.0226829 0)
(0.410689 0.0260312 0)
(0.415786 0.0294913 0)
(0.421584 0.033077 2.71364e-18)
(0.428138 0.0368141 0)
(0.435514 0.0407304 2.75852e-18)
(0.443794 0.0448534 -2.7831e-18)
(0.453072 0.0492143 0)
(0.46346 0.0538496 -2.83482e-18)
(0.475092 0.0588018 -5.7236e-18)
(0.488129 0.0641212 2.88794e-18)
(0.502761 0.0698673 5.81923e-18)
(0.519225 0.0761123 -5.85376e-18)
(0.5378 0.0829429 -5.87722e-18)
(0.558864 0.0904697 0)
(0.582789 0.0988207 -5.85925e-18)
(0.610361 0.108181 -5.78527e-18)
(0.641665 0.11871 -5.62706e-18)
(0.679561 0.13084 0)
(0.719899 0.144448 0)
(0.780549 0.161325 -4.35455e-18)
(0.81937 0.177718 0)
(0.963445 0.207339 1.99746e-18)
(0.861147 -0.0370456 -2.51309e-19)
(0.164932 0.0406108 -9.73238e-20)
(0.0386767 0.0150955 2.57377e-18)
(-0.147353 0.0524224 2.44719e-18)
(-0.12286 0.0233804 0)
(-0.117035 0.00857332 -3.38939e-18)
(-0.0632474 -0.00499519 0)
(-0.0218395 -0.0124046 0)
(0.0227669 -0.0224297 0)
(0.0736637 -0.0342 4.8511e-18)
(0.132963 -0.045743 -5.06564e-18)
(0.197433 -0.0545634 0)
(0.260729 -0.0589778 0)
(0.315301 -0.0587093 0)
(0.35539 -0.0551281 -2.73391e-18)
(0.379873 -0.0503023 0)
(0.392281 -0.0456773 -2.73058e-18)
(0.397799 -0.0416279 2.71906e-18)
(0.400263 -0.0379211 0)
(0.401377 -0.0343003 0)
(0.401589 -0.0306951 1.33737e-18)
(0.401055 -0.0271475 1.33076e-18)
(0.400007 -0.023703 -2.64777e-18)
(0.398713 -0.020371 -1.3176e-18)
(0.397393 -0.0171383 0)
(0.396192 -0.0139876 6.53801e-19)
(0.395203 -0.0109042 0)
(0.394492 -0.00787488 -6.50675e-19)
(0.394109 -0.00488688 3.24748e-19)
(0.394091 -0.00192732 0)
(0.39447 0.00101653 0)
(0.395272 0.00395721 -6.49549e-19)
(0.396522 0.00690721 6.50624e-19)
(0.398241 0.00987905 0)
(0.400453 0.0128855 -6.53867e-19)
(0.403184 0.0159403 0)
(0.406465 0.0190587 1.31864e-18)
(0.410333 0.0222538 0)
(0.414822 0.0255427 0)
(0.419969 0.0289539 0)
(0.425827 0.0324992 -2.70477e-18)
(0.432456 0.0361978 -2.72467e-18)
(0.439924 0.040072 -2.74838e-18)
(0.448312 0.0441485 1.33805e-21)
(0.457715 0.0484584 -2.79535e-18)
(0.468247 0.053038 2.82183e-18)
(0.480042 0.057929 5.69135e-18)
(0.493262 0.063181 0)
(0.508099 0.0688524 -2.89089e-18)
(0.524793 0.0750136 5.81466e-18)
(0.543625 0.0817502 5.83345e-18)
(0.564976 0.0891687 0)
(0.589222 0.0974004 0)
(0.617156 0.106609 0)
(0.648869 0.116996 5.55844e-18)
(0.687224 0.12884 0)
(0.728142 0.142406 0)
(0.789184 0.158783 4.232e-18)
(0.829106 0.175309 -2.95742e-18)
(0.971761 0.203189 -1.94177e-18)
(0.879272 -0.0163752 -2.32222e-19)
(0.260596 0.0404508 -3.21107e-18)
(0.0745736 0.0197586 0)
(-0.114005 0.0507967 -2.40386e-18)
(-0.0956022 0.0182333 -2.61173e-18)
(-0.0954169 0.00222525 1.29469e-20)
(-0.0470428 -0.011193 0)
(-0.00914098 -0.017795 0)
(0.0318913 -0.0276275 0)
(0.079393 -0.0396946 -4.82242e-18)
(0.135737 -0.0516138 0)
(0.198093 -0.0605521 0)
(0.260444 -0.0645922 2.65444e-18)
(0.315329 -0.0634061 0)
(0.356626 -0.0585711 0)
(0.382487 -0.0525188 0)
(0.395802 -0.0469802 0)
(0.401597 -0.0423905 -2.70915e-18)
(0.403938 -0.0384008 0)
(0.40481 -0.034612 2.68226e-18)
(0.404799 -0.0308774 -1.33458e-18)
(0.40408 -0.0272253 -1.32736e-18)
(0.402868 -0.0237062 2.64235e-18)
(0.401421 -0.0203297 2.6306e-18)
(0.39996 -0.0170763 0)
(0.398633 -0.0139217 -6.52896e-19)
(0.397535 -0.0108461 0)
(0.396731 -0.0078331 0)
(0.396269 -0.00486781 -6.48615e-19)
(0.396187 -0.00193565 0)
(0.396515 0.00097752 0)
(0.397278 0.00388543 6.48612e-19)
(0.398499 0.00680159 0)
(0.4002 0.00973957 0)
(0.402407 0.0127134 6.5312e-19)
(0.405143 0.0157376 0)
(0.408438 0.018827 -1.31706e-18)
(0.41232 0.0219973 0)
(0.416832 0.0252402 0)
(0.422018 0.0285882 0)
(0.427925 0.0320676 0)
(0.434612 0.0356996 2.72037e-18)
(0.442149 0.0395076 2.7412e-18)
(0.450615 0.0435178 1.35476e-21)
(0.460109 0.0477604 2.78968e-18)
(0.470742 0.0522706 2.81232e-18)
(0.482651 0.0570898 -2.8377e-18)
(0.495996 0.0622664 0)
(0.510973 0.0678582 -2.87738e-18)
(0.527821 0.0739348 2.89192e-18)
(0.546821 0.0805801 -5.798e-18)
(0.568356 0.0878999 0)
(0.592806 0.0960203 0)
(0.620957 0.105111 -5.65779e-18)
(0.652921 0.115346 -5.49285e-18)
(0.691512 0.127081 5.2287e-18)
(0.732782 0.140374 4.77739e-18)
(0.794004 0.156372 -4.17067e-18)
(0.834617 0.172544 2.90338e-18)
(0.975987 0.198719 0)
(0.893911 0.00232797 -2.08847e-19)
(0.346348 0.0423331 0)
(0.119926 0.0242466 2.42575e-18)
(-0.0748616 0.0485985 2.34058e-18)
(-0.0645051 0.0128149 1.78156e-20)
(-0.0699407 -0.0042323 3.35834e-18)
(-0.0280899 -0.0174384 0)
(0.00579724 -0.0232167 0)
(0.0428456 -0.0327672 0)
(0.0865351 -0.0450829 2.39025e-18)
(0.139458 -0.0573561 2.48885e-18)
(0.199185 -0.0664272 0)
(0.260028 -0.0701342 -2.639e-18)
(0.314613 -0.0680651 2.67899e-18)
(0.356537 -0.0619756 0)
(0.383376 -0.0546611 0)
(0.397462 -0.0481635 0)
(0.403589 -0.0430045 9.58446e-22)
(0.405924 -0.0387279 0)
(0.406655 -0.034784 -5.35633e-18)
(0.406499 -0.0309392 1.33212e-18)
(0.405663 -0.0272009 1.32599e-18)
(0.404353 -0.0236235 -4.11969e-22)
(0.402818 -0.0202173 -1.31405e-18)
(0.401276 -0.0169573 0)
(0.399878 -0.0138121 0)
(0.398718 -0.0107572 0)
(0.397863 -0.00777315 3.24454e-19)
(0.397359 -0.00484311 6.48079e-19)
(0.397243 -0.00195119 0)
(0.397544 0.000917667 0)
(0.398288 0.00377776 -6.48109e-19)
(0.399498 0.00664276 -3.24492e-19)
(0.401194 0.009526 0)
(0.403402 0.0124405 0)
(0.406144 0.0153987 0)
(0.409452 0.0184116 0)
(0.41336 0.0214975 0)
(0.4179 0.024692 0)
(0.423116 0.0279933 0)
(0.429059 0.0314195 0)
(0.43579 0.0349922 0)
(0.443377 0.0387358 -1.22036e-21)
(0.451904 0.0426767 2.76213e-18)
(0.461466 0.0468454 0)
(0.472176 0.051277 -5.61753e-18)
(0.484172 0.0560122 -2.83107e-18)
(0.497615 0.0610991 0)
(0.512701 0.0665943 2.87316e-18)
(0.52967 0.0725663 -2.88697e-18)
(0.548805 0.0790976 5.78629e-18)
(0.570489 0.0862917 -5.76964e-18)
(0.595103 0.0942726 0)
(0.623433 0.103204 8.40203e-21)
(0.655598 0.113263 5.46861e-18)
(0.694398 0.124764 -1.03876e-17)
(0.735937 0.137824 -1.4612e-20)
(0.797301 0.153474 -4.09658e-18)
(0.838443 0.169223 2.82503e-18)
(0.97869 0.194028 1.80192e-18)
(0.905931 0.0195654 -3.60118e-18)
(0.422831 0.0458107 0)
(0.171812 0.0287502 -3.25589e-22)
(-0.0297131 0.0460264 -1.2753e-20)
(-0.0301271 0.00729114 2.57398e-18)
(-0.0406063 -0.010697 3.33128e-18)
(-0.00636865 -0.0236405 0)
(0.0230085 -0.0285956 4.28564e-18)
(0.0557081 -0.0378027 0)
(0.095234 -0.0503276 -2.38074e-18)
(0.144342 -0.0629421 -5.03794e-21)
(0.201019 -0.0721711 -2.55451e-18)
(0.259931 -0.0756006 0)
(0.313801 -0.0727056 -5.33042e-18)
(0.355969 -0.0653888 0)
(0.383502 -0.0568018 0)
(0.39823 -0.0493142 0)
(0.404692 -0.0435576 2.69939e-18)
(0.407081 -0.0389818 0)
(0.407734 -0.0348856 2.67525e-18)
(0.40748 -0.0309401 -2.66177e-18)
(0.406568 -0.0271256 0)
(0.405198 -0.0234984 -3.97482e-22)
(0.403611 -0.0200698 0)
(0.402023 -0.0168096 0)
(0.400584 -0.0136799 -6.51666e-19)
(0.39939 -0.010651 0)
(0.398506 -0.00770075 -6.48641e-19)
(0.397979 -0.00481026 -3.23913e-19)
(0.397846 -0.00196237 -8.08979e-20)
(0.398135 0.000858964 8.08997e-20)
(0.398871 0.00366874 3.2394e-19)
(0.400077 0.00648119 6.4876e-19)
(0.401774 0.00931019 0)
(0.403986 0.0121696 6.5207e-19)
(0.406738 0.0150743 0)
(0.410058 0.018043 0)
(0.413979 0.0210806 0)
(0.418539 0.0241981 1.32918e-18)
(0.42378 0.0274225 0)
(0.429753 0.0307743 0)
(0.436518 0.0342727 2.71436e-18)
(0.444145 0.03794 -2.73714e-18)
(0.452717 0.0418017 0)
(0.462331 0.0458876 0)
(0.4731 0.0502318 2.80678e-18)
(0.485163 0.0548745 2.82968e-18)
(0.498682 0.0598627 -2.8491e-18)
(0.513853 0.0652523 0)
(0.530918 0.0711102 0)
(0.55016 0.0775176 0)
(0.571966 0.0845757 6.03123e-21)
(0.596716 0.0924062 0)
(0.625197 0.101169 5.61945e-18)
(0.657535 0.111037 0)
(0.696515 0.122315 5.173e-18)
(0.738291 0.135108 -4.71134e-18)
(0.799788 0.150406 8.13561e-18)
(0.841383 0.165665 -2.80627e-18)
(0.980638 0.189288 -1.78498e-18)
(0.915767 0.0351221 1.74789e-19)
(0.490702 0.050396 -2.6601e-18)
(0.228105 0.0332275 -2.28828e-18)
(0.0212528 0.0432803 -1.28728e-20)
(0.0067275 0.00189831 -2.52916e-18)
(-0.00759764 -0.0170544 -3.32928e-18)
(0.0180035 -0.0296996 0)
(0.0423604 -0.0338516 -4.27217e-18)
(0.0704095 -0.0426894 0)
(0.10549 -0.0553945 -2.36167e-18)
(0.150451 -0.0683447 -2.4613e-18)
(0.203707 -0.0777635 2.54197e-18)
(0.260332 -0.0809806 -2.60247e-18)
(0.313175 -0.0773298 2.65205e-18)
(0.355323 -0.0688295 -2.68063e-18)
(0.383353 -0.0589755 2.69646e-18)
(0.398619 -0.050477 0)
(0.405396 -0.0440971 0)
(0.407864 -0.0392065 0)
(0.408472 -0.0349547 1.33583e-18)
(0.408147 -0.0309123 1.3299e-18)
(0.407178 -0.027027 0)
(0.405767 -0.0233545 -1.31777e-18)
(0.404148 -0.0199069 0)
(0.402531 -0.0166495 0)
(0.401067 -0.013538 6.51532e-19)
(0.399852 -0.0105377 -6.496e-19)
(0.398951 -0.00762336 3.24225e-19)
(0.398412 -0.0047744 0)
(0.398269 -0.00197228 1.61754e-19)
(0.398552 0.000799965 -1.61759e-19)
(0.399284 0.00355799 0)
(0.40049 0.0063165 -3.24301e-19)
(0.40219 0.00908964 6.4987e-19)
(0.404407 0.0118914 -6.52014e-19)
(0.407166 0.0147355 0)
(0.410498 0.0176321 0)
(0.414434 0.0206035 0)
(0.41901 0.0236624 -1.32904e-18)
(0.424271 0.026823 0)
(0.430267 0.0301053 0)
(0.437059 0.0335301 -2.71401e-18)
(0.444718 0.0371201 0)
(0.453325 0.0409006 2.75688e-18)
(0.462979 0.0449008 -2.78001e-18)
(0.473795 0.0491545 0)
(0.48591 0.0537008 2.82574e-18)
(0.499489 0.0585861 5.69491e-18)
(0.514728 0.063865 -2.86421e-18)
(0.53187 0.0696034 0)
(0.5512 0.0758808 0)
(0.573105 0.0827964 2.87997e-18)
(0.597968 0.090469 0)
(0.626578 0.0990554 5.59859e-18)
(0.659065 0.108723 0)
(0.698203 0.119771 5.14265e-18)
(0.740191 0.132283 4.67461e-18)
(0.801809 0.147228 -4.04884e-18)
(0.8438 0.161975 0)
(0.982149 0.184536 1.74018e-18)
(0.923796 0.0490082 2.80128e-18)
(0.550612 0.0556745 8.16261e-20)
(0.286796 0.0376823 2.22903e-18)
(0.0771502 0.0405392 -1.24332e-20)
(0.0467173 -0.00317806 1.23591e-20)
(0.0285505 -0.0233729 0)
(0.0449351 -0.0355146 0)
(0.0636826 -0.038918 0)
(0.0868258 -0.0473782 -2.24607e-18)
(0.117246 -0.0602442 4.70185e-18)
(0.157786 -0.0735296 0)
(0.207294 -0.0831747 2.52105e-18)
(0.261303 -0.0862515 3.40729e-21)
(0.312846 -0.0819252 -2.63595e-18)
(0.354771 -0.0722968 1.37603e-21)
(0.383158 -0.0611923 -2.68961e-18)
(0.39888 -0.0516697 0)
(0.405947 -0.0446437 0)
(0.4085 -0.0394217 0)
(0.409076 -0.0350083 -1.33498e-18)
(0.408692 -0.0308698 0)
(0.407674 -0.0269167 1.32241e-18)
(0.40623 -0.0232013 1.31662e-18)
(0.404586 -0.0197366 -1.31121e-18)
(0.402948 -0.0164834 0)
(0.401465 -0.0133912 0)
(0.400235 -0.0104205 6.49517e-19)
(0.399322 -0.00754321 0)
(0.398773 -0.00473669 3.23565e-19)
(0.398624 -0.00198119 -8.0859e-20)
(0.398903 0.000741165 8.08623e-20)
(0.399634 0.00344667 -3.23607e-19)
(0.400841 0.00615044 0)
(0.402544 0.00886682 -6.49837e-19)
(0.404766 0.0116097 0)
(0.407534 0.0143932 0)
(0.410876 0.0172329 1.31384e-18)
(0.414823 0.0201386 0)
(0.419415 0.0231281 0)
(0.424693 0.0262185 0)
(0.43071 0.0294286 0)
(0.437525 0.0327783 0)
(0.44521 0.0362896 0)
(0.453848 0.0399874 -5.51206e-18)
(0.463536 0.0439003 2.77975e-18)
(0.474391 0.0480614 2.80146e-18)
(0.48655 0.0525092 -5.64922e-18)
(0.500178 0.0572889 -2.84617e-18)
(0.515474 0.0624543 2.86377e-18)
(0.53268 0.0680698 -2.87399e-18)
(0.552084 0.0742134 0)
(0.574073 0.0809821 2.88744e-21)
(0.599034 0.0884922 -5.69001e-18)
(0.627753 0.096897 -5.59632e-18)
(0.660371 0.106358 -5.40947e-18)
(0.699648 0.11717 -1.0267e-17)
(0.741824 0.129393 -4.67032e-18)
(0.80355 0.143983 4.01057e-18)
(0.845888 0.158213 2.73439e-18)
(0.983388 0.179788 -1.73518e-18)
(0.930366 0.0614284 -1.53174e-19)
(0.603196 0.0613358 2.50837e-18)
(0.346087 0.0421193 -4.90033e-21)
(0.136464 0.0380598 -1.13035e-20)
(0.0906419 -0.00787319 2.46744e-18)
(0.0671995 -0.0295798 3.26395e-18)
(0.0742325 -0.0410104 -3.83649e-18)
(0.0867873 -0.0437234 2.11427e-18)
(0.104809 -0.0518202 4.04757e-21)
(0.130419 -0.0648379 -2.34067e-18)
(0.166326 -0.078462 -2.4259e-18)
(0.211796 -0.0883729 -2.50978e-18)
(0.262881 -0.0913868 5.14525e-18)
(0.312863 -0.0864737 2.24132e-21)
(0.354382 -0.0757819 2.66026e-18)
(0.383011 -0.0634514 0)
(0.399129 -0.0528973 2.68923e-18)
(0.406458 -0.0452053 0)
(0.409093 -0.0396355 -2.6782e-18)
(0.40964 -0.0350534 -1.33344e-18)
(0.409198 -0.0308184 -1.32747e-18)
(0.408133 -0.0267992 -3.52258e-22)
(0.406656 -0.0230427 -1.31625e-18)
(0.404989 -0.019562 1.31093e-18)
(0.403331 -0.0163136 0)
(0.401832 -0.0132414 -6.50805e-19)
(0.400588 -0.0103011 0)
(0.399664 -0.00746137 0)
(0.399107 -0.00469786 -3.23541e-19)
(0.398953 -0.00198952 0)
(0.399229 0.000682446 0)
(0.399959 0.00333494 3.23591e-19)
(0.401167 0.00598346 0)
(0.402873 0.00864259 0)
(0.405102 0.0113265 6.51375e-19)
(0.407877 0.0140489 0)
(0.411228 0.0168231 -1.3138e-18)
(0.415187 0.019665 0)
(0.419792 0.0225882 1.32755e-18)
(0.425087 0.0256092 0)
(0.431122 0.0287468 0)
(0.437959 0.0320206 0)
(0.445668 0.0354524 0)
(0.454334 0.0390666 2.75526e-18)
(0.464053 0.0428912 0)
(0.474943 0.0469585 -5.60113e-18)
(0.487141 0.0513064 2.8236e-18)
(0.500815 0.055979 -2.84244e-18)
(0.516161 0.0610291 2.85961e-18)
(0.533425 0.0665196 2.8737e-18)
(0.552894 0.0725269 0)
(0.574957 0.079146 2.87005e-18)
(0.600004 0.0864901 8.53034e-18)
(0.628821 0.0947095 -5.57969e-18)
(0.661555 0.10396 5.40807e-18)
(0.700956 0.11453 5.12618e-18)
(0.743301 0.12646 0)
(0.805119 0.14069 -4.00811e-18)
(0.847764 0.154409 -5.44522e-18)
(0.984454 0.175052 0)
(0.935778 0.0725865 -2.13647e-18)
(0.649077 0.0671456 0)
(0.404456 0.0465329 -5.28513e-21)
(0.19787 0.0359628 -9.47333e-21)
(0.138204 -0.0122154 -2.43141e-18)
(0.108053 -0.0354396 -6.49407e-18)
(0.105573 -0.046105 7.64366e-18)
(0.111462 -0.0481965 -2.10858e-18)
(0.124193 -0.0559698 2.22997e-18)
(0.144903 -0.06914 0)
(0.176024 -0.0831091 5.2027e-21)
(0.217214 -0.0933268 0)
(0.265088 -0.0963592 -5.11498e-18)
(0.313255 -0.0909548 2.61105e-18)
(0.354188 -0.0792726 0)
(0.382953 -0.0657477 0)
(0.399409 -0.0541593 -2.68469e-18)
(0.406977 -0.0457838 0)
(0.409684 -0.0398507 2.67612e-18)
(0.410199 -0.0350926 1.33265e-18)
(0.409698 -0.03076 3.32845e-22)
(0.408584 -0.0266762 -1.3211e-18)
(0.407073 -0.02288 -1.3152e-18)
(0.405381 -0.019384 0)
(0.403704 -0.0161411 0)
(0.402188 -0.0130893 6.50722e-19)
(0.40093 -0.0101798 0)
(0.399995 -0.00737814 3.23782e-19)
(0.39943 -0.00465809 -3.23347e-19)
(0.39927 -0.00199731 8.07836e-20)
(0.399543 0.00062387 -8.07876e-20)
(0.400273 0.00322297 3.23401e-19)
(0.401482 0.00581589 -3.23889e-19)
(0.403191 0.00841744 6.49232e-19)
(0.405425 0.0110418 -6.51354e-19)
(0.408207 0.0137029 0)
(0.411567 0.0164148 0)
(0.415538 0.0191906 0)
(0.420156 0.0220459 -4.32907e-22)
(0.425466 0.0249966 1.33546e-18)
(0.431519 0.0280611 0)
(0.438377 0.0312586 0)
(0.446109 0.0346103 0)
(0.454801 0.0381402 0)
(0.464549 0.0418757 0)
(0.475472 0.0458485 1.39402e-21)
(0.487708 0.0500955 0)
(0.501423 0.05466 5.68286e-18)
(0.516816 0.0595934 -5.71697e-18)
(0.534134 0.0649576 -2.86921e-18)
(0.553663 0.070827 0)
(0.575796 0.0772943 0)
(0.600922 0.0844703 -5.67879e-18)
(0.629829 0.0925015 7.48674e-21)
(0.662669 0.101539 -5.38943e-18)
(0.702184 0.111863 5.10381e-18)
(0.744684 0.123496 4.62819e-18)
(0.806581 0.137363 -3.97562e-18)
(0.849499 0.150576 5.40674e-18)
(0.985406 0.170333 1.68416e-18)
(0.940279 0.0826345 1.36422e-19)
(0.688862 0.0729251 -2.2498e-18)
(0.460661 0.0509036 -4.21626e-18)
(0.260155 0.0342985 -6.99093e-21)
(0.188717 -0.0161286 2.41367e-18)
(0.150771 -0.0407962 3.23421e-18)
(0.138598 -0.0507097 -1.90572e-18)
(0.137472 -0.0522713 0)
(0.1448 -0.0597854 0)
(0.160575 -0.0731188 2.31216e-18)
(0.186818 -0.0874409 2.40338e-18)
(0.223535 -0.0980068 0)
(0.267939 -0.101141 2.54462e-18)
(0.31404 -0.0953474 0)
(0.354207 -0.0827552 0)
(0.383 -0.068074 0)
(0.399741 -0.055453 0)
(0.407522 -0.0463788 2.67966e-18)
(0.410289 -0.0400677 1.33639e-18)
(0.410768 -0.0351262 -1.33124e-18)
(0.410204 -0.030695 3.12608e-22)
(0.409038 -0.0265479 0)
(0.40749 -0.0227133 1.31486e-18)
(0.40577 -0.0192028 0)
(0.404071 -0.0159659 0)
(0.402537 -0.012935 6.50311e-19)
(0.401265 -0.0100567 -6.48632e-19)
(0.400319 -0.00729356 -3.23756e-19)
(0.399746 -0.00461737 3.23326e-19)
(0.39958 -0.00200454 -1.61537e-19)
(0.39985 0.000565489 1.61547e-19)
(0.400579 0.00311085 -3.23387e-19)
(0.401789 0.00564782 3.23877e-19)
(0.403501 0.00819145 -1.76849e-22)
(0.405739 0.010756 -6.50967e-19)
(0.408529 0.0133554 0)
(0.411898 0.0160033 0)
(0.415879 0.0187136 0)
(0.42051 0.0215008 -2.65362e-18)
(0.425835 0.024381 -1.33542e-18)
(0.431906 0.027372 0)
(0.438783 0.0304927 0)
(0.446538 0.0337638 -2.72936e-18)
(0.455254 0.0372089 0)
(0.465031 0.0408548 0)
(0.475986 0.0447323 5.59502e-18)
(0.488258 0.0488777 -2.81873e-18)
(0.502013 0.0533332 -5.67924e-18)
(0.517452 0.0581491 1.84603e-21)
(0.53482 0.0633857 5.73604e-18)
(0.554408 0.0691159 2.87023e-18)
(0.576606 0.0754301 0)
(0.601807 0.0824361 2.83761e-18)
(0.630799 0.0902771 5.57118e-18)
(0.66374 0.0990984 5.38901e-18)
(0.703361 0.109175 -5.10333e-18)
(0.746006 0.120508 -4.62782e-18)
(0.807971 0.134008 3.97512e-18)
(0.851135 0.146727 -2.69368e-18)
(0.986284 0.165635 -1.68354e-18)
(0.944076 0.0916984 1.2947e-19)
(0.723155 0.0785438 2.23321e-18)
(0.51373 0.0552013 4.40924e-21)
(0.322135 0.0330883 -3.95943e-21)
(0.241265 -0.0195069 0)
(0.194881 -0.0455171 0)
(0.172908 -0.0547388 -3.37607e-22)
(0.164557 -0.055889 0)
(0.16644 -0.0632309 0)
(0.177299 -0.0767474 -4.39025e-21)
(0.198632 -0.0914315 0)
(0.230735 -0.102386 0)
(0.27144 -0.105707 2.52686e-18)
(0.315235 -0.0996299 0)
(0.35445 -0.0862153 0)
(0.383161 -0.0704223 0)
(0.40013 -0.0567744 0)
(0.408099 -0.0469886 -5.38727e-22)
(0.410916 -0.0402857 -1.33536e-18)
(0.411352 -0.0351539 2.66066e-18)
(0.41072 -0.0306231 2.92419e-22)
(0.409497 -0.0264139 1.31924e-18)
(0.407908 -0.0225423 0)
(0.406159 -0.0190182 1.30881e-18)
(0.404436 -0.0157878 0)
(0.402883 -0.0127784 -6.50232e-19)
(0.401596 -0.00993179 1.57249e-22)
(0.400638 -0.00720758 0)
(0.400056 -0.00457566 0)
(0.399884 -0.00201117 2.01195e-23)
(0.40015 0.000507345 -2.03628e-23)
(0.400877 0.00299862 1.61603e-19)
(0.402088 0.00547931 0)
(0.403803 0.00796469 -6.49013e-19)
(0.406046 0.0104691 6.50948e-19)
(0.408842 0.0130064 0)
(0.41222 0.0155903 -1.31211e-18)
(0.416211 0.0182345 0)
(0.420855 0.0209533 4.12184e-22)
(0.426195 0.0237626 0)
(0.432282 0.0266796 1.34366e-18)
(0.439178 0.029723 1.35357e-18)
(0.446955 0.0329131 1.0443e-21)
(0.455696 0.0362729 -2.75025e-18)
(0.465501 0.0398286 0)
(0.476487 0.0436103 -1.32914e-21)
(0.488794 0.0476534 2.81861e-18)
(0.502588 0.0519992 1.61589e-21)
(0.518071 0.0566967 2.85543e-18)
(0.535489 0.0618048 -2.02729e-21)
(0.555132 0.0673946 -2.3009e-21)
(0.577394 0.0735545 0)
(0.602667 0.0803891 0)
(0.631741 0.0880383 0)
(0.664778 0.0966417 0)
(0.704501 0.106467 0)
(0.747282 0.117501 4.60319e-18)
(0.809308 0.13063 0)
(0.852696 0.142865 0)
(0.98711 0.160959 -1.65508e-18)
(0.947343 0.0998962 7.13973e-19)
(0.752548 0.0839146 0)
(0.562951 0.0593915 3.30266e-21)
(0.382657 0.0323408 -5.1604e-22)
(0.294761 -0.0222467 0)
(0.239762 -0.0494832 1.61018e-18)
(0.208056 -0.0581149 -1.89708e-18)
(0.192442 -0.0590005 0)
(0.188916 -0.0662764 0)
(0.194932 -0.0800034 -2.29608e-18)
(0.211375 -0.095059 0)
(0.238774 -0.106439 0)
(0.275589 -0.110031 -2.51689e-18)
(0.316852 -0.103781 0)
(0.35493 -0.0896379 -2.61695e-18)
(0.383443 -0.0727838 0)
(0.40058 -0.0581192 0)
(0.408711 -0.0476112 -4.79119e-22)
(0.411566 -0.0405039 0)
(0.411952 -0.0351753 -1.32942e-18)
(0.411247 -0.0305438 1.32415e-18)
(0.409963 -0.0262739 -2.6373e-18)
(0.40833 -0.0223667 1.31326e-18)
(0.406548 -0.0188301 -1.30855e-18)
(0.4048 -0.0156069 0)
(0.403226 -0.0126194 -6.49847e-19)
(0.401922 -0.00980494 1.29655e-18)
(0.400952 -0.00712014 0)
(0.40036 -0.00453292 -1.61522e-19)
(0.400182 -0.00201716 8.07295e-20)
(0.400444 0.000449478 -8.0735e-20)
(0.40117 0.00288631 -1.61597e-19)
(0.402381 0.00531039 0)
(0.404098 0.00773718 -6.48653e-19)
(0.406346 0.0101811 6.5058e-19)
(0.409148 0.0126561 0)
(0.412534 0.0151756 1.31208e-18)
(0.416536 0.0177533 0)
(0.421191 0.0204034 1.32611e-18)
(0.426545 0.0231413 0)
(0.432649 0.0259841 -1.34362e-18)
(0.439564 0.0289498 -1.35353e-18)
(0.447362 0.0320584 1.01821e-21)
(0.456128 0.0353324 2.75015e-18)
(0.46596 0.0387973 0)
(0.476976 0.0424827 -2.79528e-18)
(0.489316 0.0464228 0)
(0.503149 0.0506581 2.83694e-18)
(0.518674 0.0552365 0)
(0.53614 0.0602153 -2.86471e-18)
(0.555838 0.0656638 -5.73312e-18)
(0.578162 0.0716681 0)
(0.603506 0.0783301 0)
(0.632659 0.0857859 0)
(0.665789 0.0941699 2.68161e-18)
(0.70561 0.103743 0)
(0.748521 0.114474 -1.17804e-20)
(0.8106 0.127232 0)
(0.854194 0.138995 2.6457e-18)
(0.987896 0.156306 1.65511e-18)
(0.950222 0.107338 0)
(0.777625 0.0889861 2.0481e-18)
(0.607855 0.0634425 2.04213e-18)
(0.440637 0.0320565 3.17648e-21)
(0.348026 -0.0242578 0)
(0.284681 -0.0525939 -1.61263e-18)
(0.243561 -0.0607759 0)
(0.220833 -0.0615689 2.08414e-18)
(0.212025 -0.068899 2.19594e-18)
(0.213323 -0.0828702 2.28336e-18)
(0.224947 -0.098306 2.36307e-18)
(0.247607 -0.110146 2.43542e-18)
(0.280378 -0.11409 0)
(0.318901 -0.107778 0)
(0.355658 -0.0930074 2.60811e-18)
(0.383853 -0.0751494 0)
(0.401096 -0.0594828 0)
(0.409359 -0.0482445 -2.66951e-18)
(0.412239 -0.0407211 0)
(0.412568 -0.0351894 -1.32817e-18)
(0.411786 -0.0304565 0)
(0.410435 -0.0261274 1.31807e-18)
(0.408754 -0.0221861 -1.31292e-18)
(0.406937 -0.018638 0)
(0.405161 -0.0154228 0)
(0.403566 -0.0124578 1.44684e-22)
(0.402244 -0.00967606 -6.48137e-19)
(0.401261 -0.00703116 0)
(0.400659 -0.00448909 1.61512e-19)
(0.400474 -0.00202246 8.06868e-20)
(0.400731 0.000391926 -8.06924e-20)
(0.401455 0.00277397 0)
(0.402666 0.0051411 0)
(0.404386 0.00750898 1.63116e-22)
(0.406638 0.00989214 -1.67636e-22)
(0.409446 0.0123044 0)
(0.41284 0.0147593 0)
(0.416852 0.0172702 1.31784e-18)
(0.421519 0.0198512 0)
(0.426887 0.0225174 0)
(0.433007 0.0252854 0)
(0.43994 0.0281731 0)
(0.447759 0.0311998 2.72701e-18)
(0.456548 0.0343875 2.74789e-18)
(0.466406 0.0377611 0)
(0.477452 0.0413495 0)
(0.489825 0.0451861 2.81413e-18)
(0.503695 0.0493104 0)
(0.519263 0.0537688 0)
(0.536776 0.0586174 -2.8607e-18)
(0.556527 0.0639236 2.86533e-18)
(0.57891 0.0697713 0)
(0.604323 0.0762595 0)
(0.633553 0.0835205 0)
(0.666774 0.0916835 -2.68153e-18)
(0.706689 0.101002 2.53139e-18)
(0.749726 0.111431 -9.17151e-18)
(0.811853 0.123815 0)
(0.855636 0.135118 -2.64522e-18)
(0.98865 0.151676 -1.62923e-18)
(0.952825 0.114121 0)
(0.798949 0.0937342 -2.04025e-18)
(0.648195 0.0673292 0)
(0.495124 0.0322301 -3.08215e-18)
(0.399877 -0.0254716 0)
(0.328851 -0.0547775 -1.62035e-18)
(0.278922 -0.0626816 0)
(0.249436 -0.0635714 -2.08235e-18)
(0.235565 -0.071084 -2.19273e-18)
(0.232317 -0.0853364 -2.27893e-18)
(0.239242 -0.10116 -2.35729e-18)
(0.257174 -0.113489 -2.42808e-18)
(0.285791 -0.117863 0)
(0.321386 -0.111602 0)
(0.356641 -0.0963082 0)
(0.384395 -0.0775095 0)
(0.401678 -0.0608601 0)
(0.410044 -0.0488862 1.33282e-18)
(0.412935 -0.0409362 0)
(0.413201 -0.0351957 1.32742e-18)
(0.412335 -0.0303606 0)
(0.410914 -0.0259738 1.31712e-18)
(0.409181 -0.0220002 1.31206e-18)
(0.407326 -0.0184418 0)
(0.405521 -0.0152353 6.5137e-19)
(0.403902 -0.0122935 6.4955e-19)
(0.402562 -0.00954506 6.4779e-19)
(0.401564 -0.00694057 0)
(0.400952 -0.00444411 -1.61429e-19)
(0.40076 -0.00202702 -1.61347e-19)