/*--------------------------------*- C++ -*----------------------------------*\
| =========                 |                                                 |
| \\      /  F ield         | OpenFOAM: The Open Source CFD Toolbox           |
|  \\    /   O peration     | Version:  2.4.0                                 |
|   \\  /    A nd           | Web:      www.OpenFOAM.org                      |
|    \\/     M anipulation  |                                                 |
\*---------------------------------------------------------------------------*/
FoamFile
{
    version     2.0;
    format      ascii;
    class       volScalarField;
    location    "2.16";
    object      k;
}
// * * * * * * * * * * * * * * * * * * * * * * * * * * * * * * * * * * * * * //

dimensions      [0 2 -2 0 0 0 0];

internalField   nonuniform List<scalar> 
6000
(
0.0117108
0.00657689
0.00176893
0.000419361
0.00018505
0.000305308
0.000268294
0.000407086
0.000569852
0.000956727
0.00187193
0.0027895
0.00316368
0.00304373
0.00242246
0.00199501
0.00209198
0.00213497
0.00306595
0.00455653
0.00554529
0.00583333
0.00556321
0.00495206
0.00419327
0.00346805
0.00280209
0.00221216
0.00170671
0.00124702
0.000813485
0.000484691
0.000509181
0.000669822
0.000839603
0.000988169
0.00110271
0.00118537
0.00124639
0.00129764
0.0013499
0.00141016
0.00148336
0.00157263
0.00168
0.00180707
0.00195549
0.00212737
0.00232558
0.00255408
0.00281821
0.00312532
0.00348468
0.00391068
0.00441722
0.00504186
0.00578276
0.00681336
0.00783915
0.00994907
0.0120368
0.0117472
0.0020802
0.00071863
0.000240086
0.000367683
0.00054589
0.0007672
0.00117186
0.00190836
0.00316481
0.00418301
0.00383246
0.00294549
0.00248086
0.00229635
0.00346632
0.0065497
0.00566967
0.00373648
0.00290557
0.00260336
0.00249569
0.00248022
0.00250789
0.0024975
0.00243442
0.00230132
0.00208056
0.00176096
0.00136325
0.000950487
0.000677506
0.00053016
0.000453095
0.00042664
0.000430932
0.000450639
0.000476314
0.000503899
0.000532086
0.000562018
0.000594898
0.000631876
0.000673908
0.000721781
0.000776213
0.000837958
0.000907921
0.000987253
0.00107749
0.00118062
0.00129945
0.00143723
0.00159984
0.00179048
0.0020279
0.0022958
0.00267974
0.00313105
0.0115677
0.0151878
0.00286686
0.000685366
0.000332621
0.000459209
0.000713134
0.000991302
0.00150467
0.00234127
0.00378605
0.00506692
0.00475492
0.00373529
0.00300985
0.00313335
0.00567521
0.00666267
0.00374275
0.00246157
0.00233717
0.00246741
0.00263976
0.00281689
0.00296537
0.00305441
0.00306005
0.00295691
0.00271967
0.00233638
0.00183636
0.00130345
0.000915746
0.000663131
0.000495546
0.000397323
0.000347
0.000325909
0.000321116
0.000324922
0.000333312
0.00034457
0.000358095
0.000373802
0.000391792
0.000412238
0.000435354
0.000461399
0.000490679
0.000523568
0.00056054
0.000602159
0.000649258
0.000702547
0.000764035
0.000832959
0.000917967
0.00100254
0.00112779
0.00119529
0.0114635
0.0160816
0.00397298
0.000592382
0.000410237
0.000532881
0.000826719
0.00114738
0.00171924
0.00256683
0.00402541
0.00547704
0.0053794
0.00437426
0.00369116
0.00425592
0.00692324
0.00528367
0.00276157
0.00235826
0.00256266
0.00280466
0.00304377
0.0032773
0.00347428
0.00359966
0.00362538
0.00352129
0.00325665
0.00281538
0.00222829
0.00159789
0.00113973
0.000819404
0.000591236
0.000445583
0.000361394
0.000316777
0.00029533
0.000286763
0.000285328
0.000288055
0.000293433
0.000300676
0.000309368
0.000319305
0.000330421
0.000342754
0.000356416
0.000371568
0.000388414
0.000407178
0.000428164
0.000451572
0.000478103
0.000507147
0.000542154
0.000574906
0.000625725
0.000642444
0.0113762
0.0157706
0.00528279
0.000578402
0.000471061
0.000592277
0.000904249
0.00125492
0.00184852
0.00266621
0.00400286
0.00550298
0.00576246
0.00486274
0.00434206
0.0053858
0.00705129
0.00408521
0.00248063
0.00257783
0.00289723
0.0031859
0.0034743
0.00375431
0.00398472
0.00412838
0.00415625
0.00403803
0.00374104
0.00324529
0.00257895
0.00185957
0.00135072
0.000981084
0.000702704
0.000513431
0.000398063
0.00033359
0.000299965
0.000283796
0.000277312
0.000276326
0.000278611
0.000282926
0.000288541
0.000295022
0.000302144
0.00030983
0.000318113
0.000327095
0.000336926
0.00034778
0.000359887
0.000373427
0.000388873
0.000406075
0.000427011
0.000448363
0.000481381
0.000509643
0.0113034
0.0149428
0.00667524
0.000733992
0.000520252
0.000640393
0.000953888
0.00132089
0.00190526
0.00266337
0.00381368
0.00521884
0.0059462
0.00522773
0.00495355
0.00636895
0.00646884
0.00333732
0.0025287
0.00288277
0.00325754
0.00359437
0.0039341
0.00425466
0.00450715
0.00465417
0.00466983
0.00452736
0.00419479
0.00364863
0.00291093
0.00210523
0.0015472
0.00114011
0.000824115
0.000594907
0.000446463
0.000359915
0.000313211
0.000289621
0.000278902
0.000275391
0.00027604
0.000279152
0.000283722
0.000289142
0.000295067
0.000301343
0.000307953
0.000314976
0.000322557
0.000330881
0.000340205
0.000350764
0.00036311
0.000377346
0.000395548
0.000415916
0.000450891
0.000493284
0.0112437
0.0139426
0.00771024
0.00126099
0.000569184
0.000680659
0.000983606
0.00135241
0.0019035
0.00258782
0.00354681
0.00473602
0.00597298
0.00549566
0.00552807
0.00704044
0.00562704
0.0029458
0.002718
0.00321898
0.00364278
0.00404076
0.0044347
0.00479056
0.00505425
0.00519062
0.00518029
0.00500322
0.00463051
0.00403613
0.00323444
0.00234775
0.00173354
0.00128953
0.000947359
0.000687033
0.000506101
0.000394423
0.000331809
0.000299104
0.000283338
0.000277033
0.00027612
0.00027835
0.000282411
0.000287509
0.00029318
0.000299192
0.000305486
0.000312121
0.000319251
0.000327086
0.000335947
0.000346139
0.000358415
0.000372934
0.000392723
0.000415036
0.00045911
0.000510553
0.011189
0.0129405
0.00841598
0.00215766
0.000642184
0.000717672
0.00100263
0.00136004
0.00186355
0.00247572
0.0032789
0.0041903
0.00586727
0.00568982
0.00606
0.00729563
0.00483754
0.00279117
0.00297135
0.0035749
0.00406267
0.00453517
0.00498576
0.00537147
0.00563487
0.00574584
0.00569463
0.00547111
0.00505189
0.00440962
0.00355055
0.00259291
0.00191721
0.00142834
0.00106394
0.000783351
0.000575365
0.000437638
0.000356236
0.000311986
0.000289598
0.000279569
0.000276577
0.000277682
0.000281189
0.000286083
0.000291757
0.000297888
0.000304352
0.000311177
0.000318514
0.000326591
0.000335788
0.000346475
0.000359598
0.000375336
0.000397659
0.000422559
0.000475547
0.00053283
0.0111363
0.012016
0.00883897
0.00323598
0.00078346
0.000757252
0.00102098
0.00135756
0.00181008
0.00236354
0.00305503
0.00370724
0.00562275
0.00582588
0.00653229
0.00717708
0.00420691
0.00278781
0.00325981
0.00395304
0.00452618
0.00508495
0.00559372
0.00600285
0.00625341
0.00632313
0.00621495
0.00593183
0.00545832
0.00476714
0.00385632
0.00284066
0.00210384
0.00156098
0.00116985
0.000876287
0.000649965
0.000488854
0.00038723
0.000329152
0.000298303
0.000283287
0.00027738
0.000276811
0.000279424
0.000283936
0.00028957
0.00029588
0.000302659
0.000309877
0.000317658
0.000326237
0.000336029
0.000347465
0.000361655
0.000378795
0.000403688
0.000431093
0.000492305
0.000553246
0.0110861
0.0112003
0.00902602
0.00433424
0.00107559
0.000806799
0.00104775
0.00135985
0.00176723
0.00228037
0.00289574
0.00335565
0.00521839
0.00591368
0.00691625
0.00678162
0.00374408
0.00288045
0.00357256
0.00435951
0.0050394
0.00569407
0.00626114
0.00668603
0.00691037
0.0069224
0.00674056
0.006384
0.00584762
0.0051054
0.00414743
0.00308766
0.00229501
0.00169289
0.00126634
0.000960553
0.000724213
0.000545505
0.000424551
0.000351276
0.00031031
0.000288976
0.000279174
0.000276219
0.000277425
0.000281198
0.000286566
0.00029294
0.000300003
0.000307644
0.000315931
0.000325078
0.000335519
0.000347722
0.000362931
0.000381372
0.000408506
0.000438144
0.000506075
0.0005694
0.0110397
0.0104999
0.00902625
0.00531091
0.00162427
0.000876908
0.00108948
0.00137971
0.00175369
0.00224425
0.00281091
0.0031405
0.00466291
0.00596272
0.0071667
0.00621461
0.00342592
0.0030347
0.00390608
0.0047998
0.00560528
0.00636304
0.00698688
0.00741886
0.00760336
0.0075414
0.00726937
0.00682556
0.00621736
0.00542124
0.00441963
0.00332955
0.00248884
0.00182741
0.00135739
0.00103458
0.000793008
0.000603733
0.000466678
0.000378252
0.000326096
0.000297301
0.000282655
0.000276561
0.000275763
0.000278337
0.000283099
0.000289307
0.000296516
0.000304509
0.000313276
0.000322978
0.000334039
0.000346948
0.000363038
0.000382582
0.000411516
0.000443032
0.000516034
0.000580958
0.0109974
0.00990883
0.00888777
0.00610988
0.00234844
0.000984673
0.00114948
0.00142523
0.00178008
0.0022623
0.00279913
0.00303073
0.00403962
0.00597623
0.00720705
0.00559499
0.00322441
0.00322996
0.00426014
0.00527751
0.0062239
0.00708932
0.00776675
0.0081966
0.00832804
0.00817657
0.00779862
0.00725429
0.00656551
0.00571218
0.00466946
0.0035622
0.00268152
0.001965
0.00144697
0.00109987
0.000853244
0.000659456
0.000511097
0.000409147
0.000345515
0.000308505
0.000288247
0.000278337
0.000274958
0.000275845
0.000279605
0.000285343
0.000292485
0.000300695
0.000309861
0.000320068
0.000331697
0.000345232
0.000362056
0.000382491
0.000412792
0.000445809
0.000522359
0.000588329
0.0109593
0.00941574
0.00865412
0.0067095
0.00315477
0.00116165
0.00122889
0.00149906
0.00184928
0.00233407
0.00285343
0.0029852
0.0034957
0.00592171
0.00700475
0.0050066
0.00311522
0.00345448
0.00463577
0.00579408
0.0068929
0.00786798
0.00859444
0.00901279
0.00907882
0.0088236
0.00832518
0.00766808
0.00689053
0.00597658
0.00489456
0.00378246
0.00286871
0.00210402
0.00153752
0.00115943
0.000904169
0.000709362
0.000554911
0.000442255
0.000367838
0.000322349
0.000295995
0.000281763
0.000275322
0.000274079
0.000276444
0.000281383
0.000288202
0.000296448
0.000305896
0.000316535
0.000328675
0.000342765
0.000360204
0.000381348
0.000412644
0.000446809
0.000525624
0.000592195
0.0109254
0.00900772
0.00836199
0.00711264
0.00395034
0.00147191
0.00132923
0.00159933
0.00195877
0.00245553
0.00296801
0.0029998
0.00312223
0.00569409
0.00658496
0.00449008
0.00307926
0.00370195
0.00503413
0.00634904
0.0076081
0.00869251
0.00946237
0.00986003
0.00984944
0.00947771
0.00884583
0.00806498
0.00719128
0.00621349
0.00509345
0.00398836
0.00304641
0.00224163
0.00162967
0.00121627
0.00094693
0.000751513
0.000595508
0.000475499
0.000391853
0.000338189
0.000305592
0.000286754
0.000276926
0.000273214
0.000273846
0.000277674
0.000283903
0.000291978
0.000301564
0.000312542
0.000325133
0.000339725
0.000357693
0.000379413
0.000411421
0.000446433
0.000526495
0.000593293
0.0108953
0.00867207
0.00804059
0.00733683
0.0046834
0.00195303
0.00145586
0.00172174
0.00210308
0.00262177
0.00313942
0.00308014
0.00289671
0.00524735
0.00600995
0.00406123
0.00310217
0.00396912
0.00545588
0.00694033
0.00836408
0.00955556
0.0103625
0.0107307
0.0106335
0.0101341
0.00935729
0.00844317
0.00746701
0.00642249
0.0052684
0.0041756
0.00321133
0.00237475
0.00172263
0.00127255
0.000983711
0.000785479
0.000630304
0.000506697
0.000416077
0.000355115
0.000316483
0.000292995
0.000279633
0.000273247
0.000271905
0.000274362
0.000279754
0.000287446
0.000297008
0.000308216
0.00032119
0.000336238
0.000354682
0.000376892
0.000409416
0.000445041
0.000525595
0.00059231
0.0108688
0.00839719
0.0077119
0.0074076
0.00532098
0.00258568
0.00162315
0.00186171
0.00227556
0.00282798
0.00336531
0.0032296
0.00276651
0.00463241
0.00537464
0.00372216
0.00317324
0.00425446
0.00590097
0.00756474
0.00915477
0.0104496
0.0112869
0.0116174
0.0114246
0.0107878
0.00985638
0.008801
0.00771721
0.00660353
0.00542195
0.00434109
0.00336108
0.00250051
0.00181475
0.00132928
0.00101689
0.0008121
0.000658218
0.000534016
0.000438987
0.000372088
0.00032797
0.000300024
0.000283159
0.000274039
0.000270593
0.000271501
0.000275854
0.000282965
0.000292336
0.000303652
0.00031693
0.000332388
0.000351271
0.000373923
0.00040684
0.000442915
0.000523431
0.000589821
0.0108455
0.00817287
0.00739157
0.00735397
0.00583926
0.00330545
0.00186506
0.00201673
0.00246929
0.00306966
0.00364333
0.00344973
0.00271339
0.00397605
0.00475841
0.0034684
0.00328447
0.00455721
0.00636855
0.00821826
0.00997383
0.0113673
0.0122283
0.0125132
0.012217
0.0114344
0.01034
0.00913693
0.00794162
0.00675687
0.00555535
0.00448399
0.00349399
0.00261653
0.00190407
0.00138648
0.00104845
0.000833004
0.000679174
0.000556225
0.000459235
0.000388079
0.000339314
0.000307315
0.000287142
0.000275361
0.000269796
0.000269068
0.000272241
0.000278609
0.00028763
0.000298923
0.000312415
0.000328229
0.000347521
0.000370586
0.000403828
0.00044025
0.000520386
0.000586276
0.0108252
0.00799036
0.00708999
0.00720532
0.00622523
0.00404087
0.00221842
0.00218865
0.00267758
0.00334263
0.00397061
0.00374131
0.00274122
0.00340001
0.00421429
0.00329284
0.00342978
0.00487695
0.00685708
0.00889634
0.010815
0.012302
0.0131799
0.013412
0.0130053
0.0120694
0.0108053
0.0094496
0.00814015
0.0068832
0.00566984
0.00460403
0.00360894
0.00272103
0.00198864
0.00144346
0.00107965
0.000850069
0.000693921
0.000572782
0.000475799
0.000402156
0.000349804
0.00031434
0.000291193
0.000276944
0.000269348
0.000266984
0.000268906
0.000274413
0.00028295
0.000294093
0.000307698
0.000323804
0.000343467
0.000366926
0.000400456
0.000437167
0.000516721
0.000582001
0.0108074
0.00784228
0.00681343
0.00698926
0.00647636
0.00473623
0.00269572
0.00238683
0.00289457
0.00364379
0.00434357
0.00410423
0.00285854
0.0029734
0.00377013
0.00318786
0.00360443
0.00521319
0.00736437
0.00959415
0.0116721
0.0132473
0.014136
0.0143084
0.0137843
0.0126888
0.0112495
0.00973772
0.0083128
0.00698364
0.00576665
0.00470123
0.00370528
0.00281273
0.00206677
0.00149912
0.00111107
0.000865027
0.000703781
0.00058385
0.000488105
0.000413568
0.000358821
0.00032062
0.000294946
0.000278511
0.000269056
0.000265135
0.000265806
0.000270386
0.000278332
0.00028921
0.000302826
0.000319148
0.000339138
0.00036297
0.000396766
0.000433737
0.000512603
0.000577218
0.010792
0.00772245
0.006565
0.00673025
0.006599
0.00534958
0.00327655
0.00263122
0.00311625
0.00396591
0.00475764
0.00453728
0.00306967
0.00271124
0.00343492
0.00314641
0.00380465
0.00556521
0.00788771
0.0103067
0.0125394
0.0141975
0.0150913
0.0151972
0.0145495
0.0132886
0.0116698
0.0100001
0.00845962
0.00705971
0.00584706
0.00477584
0.0037827
0.00289079
0.0021371
0.00155227
0.00114264
0.000879236
0.000710325
0.000590177
0.000496072
0.000421865
0.000365891
0.000325755
0.000298079
0.000279811
0.000268732
0.000263396
0.000262872
0.000266509
0.000273798
0.000284315
0.000297843
0.0003143
0.000334561
0.000358735
0.00039278
0.000429996
0.000508131
0.000572067
0.0107786
0.00762577
0.00634558
0.00644882
0.00660628
0.00585223
0.00392011
0.00294611
0.00334256
0.00429707
0.00520699
0.00503812
0.00337369
0.00259908
0.00320631
0.0031623
0.0040274
0.00593195
0.00842397
0.0110289
0.0134112
0.0151473
0.0160408
0.0160739
0.0152964
0.0138649
0.0120637
0.0102357
0.00858068
0.00712013
0.00590526
0.00482824
0.00384121
0.00295474
0.00219862
0.00160173
0.00117391
0.000893509
0.000715018
0.000592858
0.000500062
0.000426922
0.000370725
0.000329456
0.000300343
0.000280633
0.000268206
0.00026164
0.000260027
0.000262752
0.000269352
0.000279436
0.000292788
0.000309297
0.000329764
0.000354243
0.000388514
0.000425965
0.000503361
0.000566632
0.010767
0.007548
0.00615452
0.00616137
0.00651592
0.00622746
0.00457871
0.00334722
0.00358312
0.0046285
0.00568413
0.00560344
0.00376659
0.00261631
0.00307672
0.0032302
0.00427014
0.00631194
0.00896964
0.0117557
0.0142821
0.0160915
0.0169798
0.0169338
0.0160204
0.0144137
0.0124286
0.0104436
0.00867608
0.00716821
0.00594118
0.00485911
0.0038811
0.0030044
0.00225068
0.00164654
0.00120422
0.000908149
0.000719013
0.000593097
0.000500768
0.000428923
0.000373236
0.000331559
0.000301566
0.000280822
0.000267344
0.00025976
0.000257192
0.000259072
0.000264986
0.000274592
0.000287695
0.000304176
0.00032478
0.000349514
0.000383981
0.000421656
0.000498321
0.000560962
0.0107569
0.00748568
0.00599016
0.00588026
0.00634804
0.00646919
0.00520615
0.00383445
0.00385737
0.00495133
0.0061795
0.00622896
0.00424349
0.00274619
0.00303718
0.00334545
0.00453071
0.00670326
0.00952095
0.012482
0.0151465
0.017025
0.0179035
0.017772
0.0167169
0.014931
0.0127617
0.0106227
0.00874632
0.00720588
0.00595565
0.00486933
0.00390289
0.00303983
0.00229287
0.0016859
0.00123283
0.000923075
0.000723073
0.000592011
0.00049906
0.000428304
0.000373538
0.000332032
0.000301666
0.00028028
0.000266048
0.000257667
0.000254301
0.000255427
0.000260686
0.000269792
0.000282589
0.00029897
0.00031964
0.000344574
0.0003792
0.000417081
0.000493029
0.000555081
0.0107482
0.00743595
0.00585029
0.00561425
0.0061233
0.00658041
0.00576251
0.00439171
0.004181
0.00526626
0.00668105
0.00690916
0.00479996
0.00297668
0.0030792
0.00350378
0.00480718
0.00710364
0.0100739
0.0132024
0.0159991
0.0179422
0.0188067
0.0185836
0.0173809
0.0154126
0.0130605
0.0107722
0.00879756
0.00722953
0.00594946
0.00485989
0.0039073
0.00306134
0.00232508
0.00171927
0.00125904
0.00093796
0.000727586
0.000590492
0.000495836
0.000425662
0.000371908
0.000330968
0.000300647
0.000278971
0.000264263
0.000255302
0.0002513
0.000251777
0.000256433
0.00026504
0.000277493
0.00029371
0.000314378
0.000339452
0.000374192
0.000412256
0.000487498
0.000549006
0.0107406
0.00739649
0.00573243
0.00536899
0.00586134
0.00657151
0.00621692
0.00498889
0.00456236
0.00558388
0.00717402
0.00763649
0.00543284
0.00329853
0.00319535
0.00370121
0.00509771
0.00751043
0.0106243
0.0139118
0.016834
0.0188374
0.0196838
0.0193626
0.0180068
0.0158541
0.0133223
0.0108911
0.00883883
0.0072332
0.0059233
0.00483187
0.00389522
0.00306938
0.00234735
0.00174631
0.00128228
0.000952359
0.000732627
0.000589147
0.000491891
0.000421653
0.000368745
0.000328565
0.000298589
0.000276913
0.000261974
0.000252633
0.00024815
0.000248092
0.00025221
0.000260337
0.000272421
0.000288424
0.000309026
0.000334178
0.000368981
0.000407196
0.000481739
0.000542745
0.010734
0.00736539
0.00563403
0.00514764
0.00557967
0.00645838
0.00654871
0.00558733
0.00500271
0.00592238
0.00764074
0.00840041
0.00614065
0.00370353
0.00337907
0.00393388
0.00540048
0.00792068
0.0111678
0.0146048
0.0176454
0.0197045
0.0205285
0.020103
0.018589
0.016251
0.0135443
0.0109786
0.00887377
0.00721611
0.00587803
0.00478643
0.00386764
0.00306458
0.00235993
0.00176687
0.00130209
0.000965797
0.000738058
0.000588307
0.000487842
0.000416895
0.000364505
0.000325091
0.000295633
0.000274169
0.000259201
0.000249653
0.000244834
0.000244351
0.000248002
0.000255679
0.000267386
0.000283135
0.000303612
0.00032878
0.000363592
0.000401922
0.000475768
0.00053631
0.0107283
0.00734107
0.00555262
0.00495143
0.00529297
0.00626049
0.00674771
0.0061461
0.00549342
0.00628508
0.00807933
0.00918606
0.00692339
0.0041838
0.00362442
0.00419812
0.00571366
0.00833124
0.0117001
0.0152759
0.018427
0.0205367
0.0213338
0.0207977
0.019121
0.0165989
0.013724
0.0110479
0.0088914
0.00717823
0.00581454
0.00472476
0.00382567
0.0030477
0.00236318
0.00178095
0.00131816
0.000977845
0.000743614
0.000588075
0.000484105
0.000411905
0.000359634
0.000320848
0.000291962
0.000270842
0.000255994
0.00024638
0.000241349
0.000240542
0.0002438
0.000251064
0.000262397
0.000277862
0.000298164
0.00032329
0.000358054
0.000396458
0.0004696
0.000529712
0.0107234
0.00732227
0.00548587
0.00478018
0.00501283
0.0059989
0.00681359
0.00662742
0.00601532
0.0066732
0.00849136
0.00997273
0.0077817
0.0047321
0.00392593
0.00449045
0.00603536
0.00873889
0.0122165
0.0159196
0.0191723
0.0213268
0.0220919
0.0214392
0.0195962
0.0168931
0.0138593
0.0111085
0.00888543
0.00711973
0.0057338
0.00464812
0.00377051
0.00301961
0.0023576
0.00178871
0.00133034
0.000988143
0.000748983
0.000588385
0.000480897
0.000407061
0.00035452
0.000316137
0.000287776
0.000267056
0.000252422
0.000242848
0.000237707
0.000236667
0.000239599
0.000246492
0.00025746
0.000272622
0.000292706
0.000317734
0.000352396
0.000390827
0.000463254
0.000522963
0.0107191
0.00730794
0.00543167
0.00463274
0.00474774
0.00569458
0.00675469
0.00700057
0.00654032
0.00708386
0.00888736
0.0107322
0.00871519
0.00534226
0.00427873
0.00480776
0.00636386
0.00914052
0.0127128
0.0165299
0.0198744
0.0220667
0.0227945
0.0220193
0.0200077
0.0171295
0.0139642
0.0111493
0.0088541
0.007041
0.00563683
0.00455782
0.00370341
0.00298127
0.00234378
0.00179038
0.00133856
0.000996427
0.000753858
0.000589072
0.000478282
0.000402604
0.000349464
0.000311227
0.000283276
0.000262943
0.000248568
0.000239106
0.000233932
0.000232732
0.0002354
0.000241965
0.000252583
0.00026743
0.000287261
0.00031214
0.000346644
0.000385056
0.000456754
0.000516078
0.0107154
0.00729722
0.00538812
0.00450735
0.00450339
0.00536695
0.00658624
0.00724437
0.00703477
0.00750829
0.00927337
0.0114409
0.00971989
0.0060096
0.00467899
0.00514759
0.00669808
0.0095336
0.0131846
0.0171007
0.0205257
0.0227478
0.0234319
0.0225291
0.0203486
0.0173035
0.0140534
0.0111598
0.00879683
0.00694264
0.00552473
0.00445517
0.00362566
0.00293371
0.0023224
0.00178631
0.00134288
0.00100252
0.000757966
0.000589923
0.00047621
0.000398648
0.000344673
0.000306336
0.00027864
0.000258634
0.000244523
0.000235208
0.000230056
0.000228753
0.000231211
0.000237485
0.000247773
0.000262298
0.000281847
0.000306532
0.000340827
0.000379171
0.000450122
0.000509077
0.0107121
0.0072894
0.00535356
0.00440193
0.00428307
0.00503287
0.00632828
0.00734833
0.00746372
0.00793104
0.0096446
0.0120787
0.0107848
0.00673171
0.00512461
0.00550883
0.00703898
0.00991716
0.0136277
0.0176254
0.021118
0.0233603
0.0239936
0.0229592
0.0206118
0.0174391
0.0141081
0.0111362
0.00871356
0.00682538
0.00539866
0.00434156
0.00353859
0.00287802
0.00229418
0.00177692
0.00134344
0.00100633
0.000761092
0.000590718
0.000474563
0.00039521
0.000340265
0.000301617
0.000274019
0.000254251
0.000240371
0.000231213
0.000226114
0.000224751
0.000227042
0.00023306
0.000243036
0.000257237
0.000276482
0.000300934
0.000334971
0.0003732
0.000443382
0.000501977
0.0107093
0.00728391
0.00532653
0.00431425
0.00408812
0.00470601
0.00600347
0.00731261
0.00779516
0.00833043
0.00998816
0.012628
0.0118877
0.00750821
0.00561585
0.00589295
0.00739367
0.010294
0.0140389
0.0180958
0.0216415
0.023893
0.0244677
0.0232999
0.0208099
0.0175329
0.0141197
0.0110769
0.00860466
0.00669016
0.00525986
0.00421836
0.00344356
0.00281531
0.00225993
0.00176268
0.00134043
0.00100785
0.000763079
0.000591257
0.00047319
0.000392239
0.000336285
0.000297178
0.000269527
0.000249892
0.000236193
0.000227179
0.000222146
0.000220751
0.000222907
0.000228698
0.00023838
0.000252259
0.000271181
0.000295365
0.0003291
0.000367167
0.00043656
0.000494799
0.0107068
0.00728026
0.00530576
0.00424213
0.00391843
0.00439666
0.00563501
0.00714703
0.00800363
0.00868038
0.0102963
0.0130808
0.0129887
0.00834552
0.00615512
0.00630677
0.00776421
0.0106638
0.0144224
0.0185141
0.0220858
0.0243327
0.024842
0.0235566
0.0209457
0.0175741
0.0140841
0.0109819
0.00847084
0.00653804
0.00510965
0.004087
0.00334191
0.0027467
0.00222046
0.0017441
0.00133413
0.00100713
0.000763831
0.000591372
0.000471935
0.000389646
0.000332723
0.000293072
0.000265242
0.00024564
0.000232057
0.000223159
0.000218189
0.000216776
0.00021882
0.000224408
0.000233812
0.000247372
0.000265959
0.000289844
0.000323236
0.000361098
0.00042968
0.000487565
0.0107046
0.00727808
0.00529017
0.00418347
0.00377285
0.00411182
0.00524476
0.00686932
0.00807284
0.00895311
0.0105568
0.0134408
0.014031
0.00925532
0.00674508
0.00675029
0.00814585
0.0110241
0.0147757
0.0188779
0.0224525
0.0246786
0.0251193
0.0237301
0.0210142
0.017557
0.0140002
0.0108517
0.00831314
0.0063703
0.00494941
0.00394892
0.00323501
0.00267336
0.00217662
0.00172174
0.00132482
0.00100428
0.000763301
0.000590934
0.000470652
0.000387323
0.000329532
0.000289309
0.00026121
0.000241551
0.000228019
0.0002192
0.00021428
0.000212853
0.000214799
0.000220202
0.000229342
0.000242587
0.000260827
0.000284388
0.000317402
0.000355017
0.000422768
0.000480295
0.0107027
0.00727703
0.00527884
0.00413632
0.0036496
0.00385561
0.00485187
0.00650278
0.00799717
0.00912239
0.0107531
0.0137052
0.0149577
0.0102534
0.00738632
0.00721968
0.00853756
0.0113727
0.015097
0.0191857
0.0227416
0.0249323
0.0253025
0.0238207
0.021012
0.0174789
0.013868
0.0106874
0.0081329
0.00618831
0.0047806
0.00380555
0.00312419
0.0025964
0.00212926
0.00169616
0.00131284
0.000999438
0.000761493
0.000589854
0.000469217
0.000385161
0.000326645
0.000285872
0.00025745
0.000237663
0.000224121
0.000215339
0.000210449
0.000209004
0.00021086
0.00021609
0.000224978
0.00023791
0.000255797
0.000279012
0.000311617
0.000348945
0.000415846
0.000473011
0.010701
0.00727688
0.00527097
0.00409895
0.00354652
0.00362972
0.00447187
0.00607369
0.00778189
0.00916683
0.0108663
0.0138674
0.015728
0.0113245
0.00808548
0.0077135
0.00893796
0.011708
0.0153847
0.0194366
0.0229536
0.0250957
0.0253939
0.0238282
0.0209374
0.0173394
0.0136886
0.0104906
0.00793175
0.00599364
0.00460472
0.00365835
0.00301079
0.00251695
0.00207923
0.00166795
0.00129853
0.000992777
0.000758443
0.000588078
0.000467532
0.000383057
0.000323989
0.000282723
0.000253961
0.000233996
0.000220392
0.000211609
0.000206724
0.000205252
0.000207019
0.000212083
0.000220727
0.000233352
0.000250879
0.000273729
0.000305897
0.000342904
0.000408938
0.000465733
0.0106995
0.00727739
0.0052659
0.0040698
0.0034613
0.00343402
0.00411627
0.00560872
0.00744219
0.0090727
0.0108772
0.0139172
0.0163359
0.0124247
0.00883564
0.00823
0.00934529
0.0120288
0.0156378
0.0196305
0.0230897
0.0251711
0.0253955
0.023753
0.02079
0.0171392
0.0134642
0.0102635
0.00771152
0.00578792
0.00442331
0.00350875
0.00289608
0.0024361
0.00202738
0.00163769
0.00128228
0.000984498
0.000754223
0.000585587
0.000465524
0.000380925
0.000321487
0.000279816
0.000250726
0.000230555
0.000216852
0.000208031
0.000203127
0.000201615
0.00020329
0.000208193
0.000216598
0.000228918
0.000246081
0.000268552
0.000300259
0.000336912
0.000402064
0.000458483
0.0106982
0.00727841
0.00526306
0.0040475
0.00339166
0.00326706
0.00379267
0.00513268
0.00700124
0.00883596
0.0107686
0.0138396
0.0167688
0.0135177
0.00962313
0.00876634
0.00975736
0.0123341
0.0158557
0.019768
0.0231516
0.0251609
0.0253096
0.0235963
0.0205707
0.0168805
0.0131973
0.0100087
0.00747427
0.00557291
0.00423795
0.00335817
0.00278133
0.0023549
0.00197453
0.00160598
0.00126445
0.000974813
0.000748925
0.000582387
0.000463148
0.000378696
0.000319074
0.0002771
0.00024772
0.000227337
0.000213507
0.000204621
0.000199675
0.000198108
0.000199685
0.000204427
0.000212598
0.000224615
0.000241412
0.00026349
0.000294716
0.000330987
0.000395245
0.000451278
0.0106971
0.00727981
0.00526198
0.00403088
0.00333544
0.00312657
0.00350514
0.00466675
0.00648742
0.00846314
0.0105284
0.0136279
0.0170129
0.0145613
0.0104371
0.00931853
0.0101714
0.0126229
0.0160382
0.0198498
0.0231413
0.0250678
0.0251384
0.0233595
0.0202812
0.016566
0.0128913
0.0097288
0.00722219
0.00535041
0.00405019
0.00320799
0.00266775
0.00227439
0.00192149
0.00157338
0.00124541
0.000963947
0.00074266
0.00057851
0.00046038
0.000376316
0.000316692
0.000274529
0.000244912
0.000224329
0.000210361
0.000201387
0.00019638
0.000194743
0.000196215
0.000200794
0.000208733
0.000220449
0.000236877
0.000258552
0.00028928
0.000325144
0.000388498
0.000444136
0.0106961
0.00728146
0.00526227
0.00401891
0.00329064
0.00300982
0.00325489
0.0042274
0.00593125
0.00797103
0.0101517
0.0132776
0.0170544
0.0155103
0.0112679
0.00988195
0.0105841
0.0128943
0.0161853
0.0198774
0.0230609
0.0248947
0.0248847
0.0230452
0.0199246
0.0161997
0.01255
0.00942703
0.00695758
0.00512225
0.00386159
0.00305956
0.00255651
0.00219554
0.00186903
0.00154047
0.00122554
0.00095213
0.000735554
0.000574003
0.000457215
0.000373753
0.000314293
0.000272058
0.000242272
0.000221514
0.000207408
0.000198335
0.000193249
0.000191529
0.000192888
0.000197302
0.00020501
0.000216425
0.000232482
0.000253746
0.000283963
0.000319396
0.00038184
0.000437075
0.0106952
0.00728329
0.0052636
0.00401072
0.00325546
0.00291393
0.00304095
0.00382604
0.00536232
0.00738499
0.00964268
0.0127866
0.0168796
0.0163183
0.0121044
0.0104518
0.0109917
0.0131471
0.0162972
0.0198523
0.0229132
0.0246448
0.0245519
0.0226563
0.0195045
0.0157858
0.0121776
0.00910657
0.00668277
0.00489027
0.00367368
0.00291418
0.00244873
0.0021193
0.00181791
0.0015078
0.0012052
0.000939593
0.000727745
0.000568932
0.000453667
0.000370985
0.000311844
0.000269653
0.00023977
0.000218876
0.000204641
0.000195463
0.000190288
0.000188473
0.00018971
0.000193955
0.000201431
0.000212548
0.000228233
0.00024908
0.000278774
0.000313757
0.000375286
0.00043011
0.0106945
0.00728522
0.00526572
0.00400556
0.00322831
0.00283609
0.00286089
0.00346925
0.00480663
0.00673624
0.00901553
0.0121578
0.016485
0.0169422
0.0129315
0.0110237
0.0113901
0.0133798
0.0163741
0.0197762
0.0227009
0.0243214
0.0241436
0.0221967
0.0190255
0.0153294
0.0117785
0.00877074
0.00640011
0.00465626
0.00348793
0.0027731
0.00234549
0.00204658
0.00176885
0.00147591
0.0011847
0.000926578
0.000719384
0.000563375
0.000449764
0.000368009
0.000309322
0.000267284
0.00023738
0.000216394
0.000202049
0.000192769
0.000187496
0.000185578
0.000186686
0.000190757
0.000198001
0.000208819
0.000224132
0.000244556
0.00027372
0.000308237
0.000368848
0.000423253
0.0106938
0.00728722
0.0052684
0.00400281
0.00320781
0.00277363
0.00271145
0.00315947
0.00428479
0.00605843
0.00829361
0.0114007
0.0158856
0.0173447
0.0137284
0.0115929
0.0117757
0.0135907
0.0164162
0.0196511
0.022427
0.0239283
0.0236637
0.0216707
0.0184927
0.0148362
0.0113576
0.00842282
0.00611187
0.00442199
0.00330574
0.0026375
0.00224782
0.00197824
0.00172254
0.00144532
0.00116437
0.00091337
0.000710635
0.000557418
0.000445543
0.000364831
0.000306715
0.000264931
0.000235083
0.000214053
0.000199623
0.000190246
0.000184874
0.000182846
0.000183817
0.000187711
0.000194721
0.000205242
0.000220182
0.000240181
0.000268807
0.000302844
0.000362539
0.000416519
0.0106932
0.00728923
0.00527147
0.00400195
0.00319276
0.00272412
0.00258895
0.0028959
0.00381113
0.00538402
0.0075078
0.0105332
0.0150958
0.0174976
0.0144677
0.0121543
0.0121452
0.0137777
0.0164235
0.0194787
0.0220946
0.0234692
0.0231168
0.0210836
0.0179121
0.0143119
0.0109196
0.00806599
0.00582025
0.00418911
0.00312847
0.00250854
0.00215673
0.00191513
0.00167965
0.00141653
0.00114497
0.000900257
0.000701649
0.000551148