/*--------------------------------*- C++ -*----------------------------------*\
| =========                 |                                                 |
| \\      /  F ield         | OpenFOAM: The Open Source CFD Toolbox           |
|  \\    /   O peration     | Version:  2.4.0                                 |
|   \\  /    A nd           | Web:      www.OpenFOAM.org                      |
|    \\/     M anipulation  |                                                 |
\*---------------------------------------------------------------------------*/
FoamFile
{
    version     2.0;
    format      ascii;
    class       volScalarField;
    location    "3.67";
    object      p;
}
// * * * * * * * * * * * * * * * * * * * * * * * * * * * * * * * * * * * * * //

dimensions      [0 2 -2 0 0 0 0];

internalField   nonuniform List<scalar> 
6000
(
0.0512718
0.280434
0.277383
0.300718
0.306164
0.313851
0.316894
0.320516
0.322458
0.324544
0.325941
0.327342
0.328442
0.329521
0.330487
0.331473
0.332467
0.333528
0.334653
0.335856
0.337122
0.33845
0.339839
0.341308
0.342893
0.34465
0.346652
0.348978
0.351712
0.35494
0.358743
0.363201
0.368384
0.374351
0.381144
0.388787
0.397249
0.406457
0.416262
0.426431
0.436626
0.446462
0.455425
0.462785
0.468037
0.470799
0.470555
0.467152
0.460215
0.450213
0.436345
0.420339
0.398871
0.377898
0.34466
0.321474
0.261517
0.248337
0.113715
0.155758
0.0662911
0.278649
0.277426
0.30057
0.306081
0.313764
0.316838
0.320463
0.32242
0.32451
0.325915
0.32732
0.328425
0.329508
0.330477
0.331465
0.332458
0.333521
0.334646
0.33585
0.337119
0.338451
0.339845
0.341318
0.342907
0.344667
0.34667
0.348997
0.351732
0.35496
0.358764
0.363223
0.368407
0.374378
0.381177
0.388815
0.397275
0.406477
0.416273
0.426425
0.436594
0.446397
0.455329
0.462692
0.467934
0.470673
0.470397
0.466951
0.459967
0.449911
0.43599
0.41991
0.3984
0.377318
0.34409
0.32065
0.260853
0.247016
0.112957
0.15347
0.0801357
0.276573
0.277523
0.300452
0.306009
0.313697
0.316788
0.320421
0.322386
0.324481
0.325891
0.327301
0.32841
0.329496
0.330467
0.331456
0.33245
0.333512
0.334638
0.335844
0.337117
0.338453
0.339852
0.34133
0.342922
0.344685
0.346689
0.349016
0.35175
0.354976
0.358778
0.363235
0.368417
0.374385
0.381179
0.388814
0.397267
0.406458
0.416237
0.426363
0.436495
0.446252
0.45513
0.462495
0.467741
0.470474
0.47018
0.466707
0.45969
0.449595
0.435637
0.419511
0.397966
0.376804
0.343537
0.319927
0.260146
0.245856
0.112049
0.151449
0.0916042
0.274396
0.277662
0.300361
0.305955
0.313642
0.316746
0.320385
0.322357
0.324456
0.325871
0.327284
0.328395
0.329484
0.330457
0.331446
0.33244
0.333502
0.334629
0.335837
0.337113
0.338454
0.339858
0.34134
0.342935
0.344699
0.346704
0.349029
0.35176
0.354983
0.35878
0.363232
0.368407
0.374367
0.381151
0.388774
0.397211
0.406382
0.416131
0.426221
0.436309
0.446014
0.454821
0.462167
0.467423
0.470168
0.469879
0.4664
0.459367
0.449249
0.435263
0.419103
0.397522
0.376303
0.34299
0.31925
0.25945
0.244798
0.111143
0.149767
0.101591
0.272223
0.277824
0.300294
0.305918
0.313596
0.316711
0.320352
0.322331
0.324433
0.325851
0.327267
0.328382
0.329473
0.330447
0.331437
0.33243
0.333491
0.334619
0.335829
0.337108
0.338454
0.339863
0.34135
0.342948
0.344713
0.346716
0.349038
0.351764
0.354981
0.35877
0.363211
0.368375
0.37432
0.381086
0.388687
0.397098
0.406236
0.415947
0.425994
0.436038
0.445693
0.454424
0.461711
0.466961
0.469717
0.469442
0.465974
0.458945
0.448822
0.434825
0.418643
0.397036
0.375767
0.342421
0.31856
0.258747
0.243773
0.110246
0.148307
0.110661
0.270123
0.277994
0.30025
0.305896
0.313558
0.316682
0.320324
0.322307
0.324412
0.325834
0.327252
0.32837
0.329462
0.330437
0.331426
0.332418
0.333479
0.334607
0.335819
0.337103
0.338454
0.339869
0.34136
0.342961
0.344727
0.346728
0.349045
0.351764
0.354971
0.358749
0.363175
0.368321
0.374243
0.380983
0.388554
0.39693
0.406028
0.415697
0.425702
0.435707
0.445322
0.453981
0.46118
0.466391
0.469134
0.468863
0.465407
0.458391
0.44828
0.434287
0.418102
0.396483
0.375181
0.341809
0.317846
0.258019
0.242758
0.109344
0.147003
0.118985
0.268137
0.278166
0.300225
0.305888
0.313527
0.316659
0.320299
0.322287
0.324393
0.325817
0.327238
0.328358
0.329451
0.330426
0.331415
0.332405
0.333465
0.334593
0.335808
0.337097
0.338455
0.339876
0.341373
0.342976
0.344742
0.346739
0.34905
0.35176
0.354955
0.358717
0.363124
0.368246
0.374142
0.38085
0.388386
0.396722
0.40578
0.415409
0.425377
0.435353
0.444934
0.453525
0.460623
0.465771
0.468472
0.46818
0.464721
0.457713
0.447617
0.43364
0.417467
0.395849
0.374534
0.341141
0.3171
0.257251
0.241747
0.108425
0.145833
0.126649
0.266286
0.27834
0.300203
0.305904
0.313505
0.316642
0.320278
0.322269
0.324376
0.325803
0.327225
0.328347
0.329441
0.330416
0.331403
0.332391
0.333449
0.334578
0.335796
0.337091
0.338456
0.339885
0.341387
0.342993
0.344757
0.346749
0.349053
0.351751
0.354931
0.358675
0.36306
0.368156
0.374022
0.380698
0.388197
0.396496
0.405516
0.415109
0.425047
0.434998
0.444547
0.453073
0.460074
0.465145
0.467783
0.467446
0.463962
0.456947
0.446859
0.432895
0.416741
0.395133
0.373819
0.340413
0.316316
0.256439
0.240735
0.107485
0.144783
0.133753
0.264583
0.278513
0.300189
0.305932
0.31349
0.316631
0.320261
0.322254
0.324361
0.32579
0.327213
0.328336
0.329431
0.330405
0.33139
0.332376
0.333433
0.334562
0.335784
0.337086
0.338459
0.339895
0.341401
0.343009
0.34477
0.346757
0.349051
0.351737
0.3549
0.358624
0.362986
0.368056
0.373892
0.380535
0.388
0.396264
0.405249
0.414811
0.424722
0.434651
0.444167
0.452631
0.459545
0.464536
0.467101
0.466703
0.463175
0.456134
0.44604
0.432082
0.415945
0.394349
0.373044
0.339628
0.315493
0.255582
0.23972
0.10652
0.143838
0.140395
0.263034
0.278682
0.300179
0.30597
0.313484
0.316627
0.320249
0.322243
0.324348
0.325778
0.327203
0.328327
0.329422
0.330395
0.331377
0.332361
0.333416
0.334546
0.335773
0.337081
0.338462
0.339905
0.341416
0.343023
0.344781
0.346761
0.349044
0.351716
0.354863
0.358567
0.362906
0.367949
0.373756
0.380369
0.387802
0.396033
0.404987
0.414521
0.424407
0.434312
0.443793
0.452199
0.459037
0.46395
0.466439
0.465971
0.462387
0.455306
0.445191
0.431228
0.415102
0.393515
0.372223
0.338798
0.314639
0.254687
0.238703
0.10553
0.142984
0.146653
0.261644
0.278844
0.300167
0.30602
0.313486
0.316629
0.32024
0.322235
0.324338
0.325769
0.327194
0.328319
0.329414
0.330386
0.331365
0.332345
0.333398
0.33453
0.335761
0.337077
0.338466
0.339914
0.341429
0.343036
0.344789
0.346761
0.349033
0.351691
0.354821
0.358505
0.362821
0.367839
0.373619
0.380202
0.387605
0.395806
0.404732
0.414238
0.4241
0.433981
0.443425
0.451777
0.458547
0.463388
0.465799
0.465259
0.461611
0.454479
0.444334
0.430356
0.414233
0.392651
0.371372
0.337937
0.313762
0.253764
0.237691
0.10452
0.142211
0.152588
0.260413
0.278993
0.300151
0.306078
0.313494
0.316637
0.320236
0.32223
0.32433
0.325762
0.327186
0.328312
0.329407
0.330377
0.331353
0.33233
0.333382
0.334515
0.33575
0.337073
0.338469
0.339924
0.34144
0.343046
0.344795
0.346758
0.349019
0.351663
0.354776
0.35844
0.362734
0.367728
0.373481
0.380036
0.387411
0.395583
0.404481
0.413962
0.4238
0.433654
0.44306
0.451362
0.458072
0.462844
0.46518
0.464565
0.460849
0.453662
0.443479
0.429479
0.413353
0.391773
0.370504
0.337059
0.312875
0.252824
0.236689
0.103499
0.141512
0.158248
0.259343
0.279129
0.300129
0.306143
0.313508
0.316652
0.320235
0.322229
0.324325
0.325756
0.327181
0.328308
0.329402
0.33037
0.331343
0.332316
0.333365
0.334499
0.33574
0.337069
0.338473
0.339933
0.341451
0.343056
0.344799
0.346754
0.349003
0.351633
0.354729
0.358375
0.362647
0.367617
0.373344
0.379872
0.387219
0.395365
0.404236
0.413691
0.423504
0.43333
0.442698
0.450952
0.457607
0.462314
0.464576
0.463887
0.460101
0.452856
0.442631
0.428606
0.412472
0.390891
0.369631
0.336175
0.311986
0.25188
0.235705
0.102477
0.140883
0.163669
0.258433
0.27925
0.300097
0.306214
0.313527
0.316673
0.320239
0.322232
0.324323
0.325754
0.327177
0.328305
0.329399
0.330364
0.331334
0.332303
0.33335
0.334485
0.335729
0.337065
0.338476
0.339941
0.341462
0.343064
0.344803
0.346749
0.348987
0.351603
0.354683
0.358309
0.362561
0.367507
0.373209
0.379711
0.387031
0.39515
0.403994
0.413423
0.42321
0.433008
0.442337
0.450544
0.457149
0.461792
0.463983
0.46322
0.459364
0.45206
0.441791
0.42774
0.411596
0.390014
0.368761
0.335296
0.311103
0.250941
0.234745
0.101466
0.140319
0.168882
0.257683
0.279358
0.300055
0.306287
0.31355
0.3167
0.320247
0.322238
0.324323
0.325754
0.327176
0.328304
0.329397
0.33036
0.331326
0.332291
0.333336
0.334471
0.33572
0.337063
0.33848
0.33995
0.341473
0.343074
0.344806
0.346745
0.348972
0.351574
0.354638
0.358246
0.362476
0.367399
0.373076
0.379553
0.386847
0.394938
0.403756
0.413159
0.422919
0.432685
0.441975
0.450137
0.456693
0.461275
0.463395
0.462558
0.458633
0.45127
0.440957
0.42688
0.410727
0.389145
0.367901
0.334427
0.310235
0.250016
0.233815
0.100473
0.139817
0.173907
0.257089
0.279454
0.300001
0.306362
0.313576
0.316732
0.320259
0.322247
0.324326
0.325756
0.327178
0.328306
0.329398
0.330359
0.33132
0.332281
0.333323
0.334459
0.335712
0.337061
0.338485
0.33996
0.341485
0.343084
0.344812
0.346742
0.348958
0.351547
0.354594
0.358184
0.362394
0.367294
0.372947
0.379398
0.386665
0.39473
0.403521
0.412897
0.422628
0.432362
0.441611
0.449729
0.456237
0.460758
0.462807
0.461897
0.457903
0.450482
0.440127
0.426026
0.409866
0.388287
0.367052
0.333575
0.309384
0.249113
0.232918
0.0995081
0.139374
0.178762
0.256646
0.279544
0.299934
0.306435
0.313604
0.316769
0.320275
0.322261
0.324332
0.325761
0.327181
0.32831
0.329401
0.330359
0.331316
0.332273
0.333312
0.334448
0.335705
0.33706
0.338491
0.339971
0.341498
0.343096
0.344819
0.346741
0.348947
0.351522
0.354554
0.358126
0.362315
0.367192
0.372821
0.379247
0.386488
0.394525
0.403288
0.412636
0.422338
0.432037
0.441243
0.449317
0.455777
0.460237
0.462215
0.461233
0.45717
0.449692
0.439297
0.425176
0.409011
0.38744
0.366216
0.332742
0.308554
0.248235
0.232057
0.0985764
0.138987
0.18346
0.25635
0.279632
0.299854
0.306506
0.313633
0.316811
0.320294
0.322277
0.324341
0.325769
0.327188
0.328316
0.329406
0.330362
0.331315
0.332267
0.333303
0.334439
0.3357
0.337061
0.338499
0.339984
0.341513
0.34311
0.344829
0.346744
0.348939
0.351502
0.354518
0.358072
0.36224
0.367095
0.3727
0.3791
0.386314
0.394324
0.403059
0.412378
0.422047
0.431709
0.440872
0.4489
0.455311
0.459709
0.461615
0.460559
0.456428
0.448897
0.438464
0.424327
0.40816
0.386603
0.365395
0.33193
0.307749
0.247388
0.231235
0.0976835
0.138652
0.188012
0.256194
0.279723
0.299763
0.30657
0.313661
0.316858
0.320317
0.322298
0.324353
0.32578
0.327196
0.328325
0.329414
0.330368
0.331317
0.332264
0.333296
0.334433
0.335697
0.337064
0.338509
0.339999
0.341531
0.343127
0.344842
0.34675
0.348935
0.351485
0.354487
0.358022
0.36217
0.367003
0.372584
0.378958
0.386145
0.394127
0.402833
0.412121
0.421757
0.431379
0.440496
0.448476
0.454836
0.45917
0.461003
0.459874
0.455675
0.448092
0.437624
0.423477
0.407313
0.385777
0.364588
0.331139
0.306968
0.246573
0.230453
0.0968332
0.138367
0.192427
0.256171
0.279825
0.299662
0.306628
0.313689
0.316907
0.320343
0.322322
0.324368
0.325793
0.327208
0.328337
0.329425
0.330377
0.331321
0.332263
0.333292
0.334429
0.335696
0.33707
0.338521
0.340017
0.341552
0.343148
0.344859
0.346761
0.348936
0.351474
0.35446
0.357978
0.362106
0.366916
0.372473
0.378822
0.385982
0.393935
0.402611
0.411866
0.421466
0.431047
0.440115
0.448045
0.454351
0.458618
0.460376
0.459172
0.454906
0.447273
0.436775
0.422622
0.406467
0.384959
0.363795
0.330371
0.306213
0.245793
0.229711
0.096028
0.138127
0.196711
0.256274
0.279942
0.299554
0.306678
0.313713
0.31696
0.320372
0.322351
0.324386
0.325809
0.327221
0.328351
0.329439
0.330389
0.331329
0.332266
0.333292
0.334428
0.335698
0.337078
0.338536
0.340038
0.341576
0.343173
0.344881
0.346776
0.348943
0.351468
0.35444
0.35794
0.362048
0.366836
0.372369
0.378692
0.385824
0.393748
0.402392
0.411613
0.421175
0.430711
0.439728
0.447605
0.453853
0.45805
0.45973
0.458451
0.454119
0.446438
0.435913
0.42176
0.40562
0.384148
0.363014
0.329625
0.305483
0.245049
0.22901
0.0952696
0.137932
0.20087
0.256494
0.280078
0.299443
0.306719
0.313735
0.317016
0.320404
0.322383
0.324407
0.325828
0.327238
0.328368
0.329455
0.330404
0.33134
0.332273
0.333295
0.33443
0.335703
0.337089
0.338554
0.340062
0.341605
0.343202
0.344908
0.346797
0.348955
0.351469
0.354426
0.357909
0.361997
0.366764
0.372272
0.378569
0.385674
0.393567
0.402178
0.411363
0.420884
0.430373
0.439335
0.447155
0.453341
0.457463
0.459064
0.457707
0.453308
0.445583
0.435035
0.420889
0.404771
0.383343
0.362245
0.3289
0.30478
0.244341
0.22835
0.0945585
0.137777
0.204912
0.256824
0.280237
0.299332
0.306751
0.313752
0.317073
0.320438
0.322419
0.324431
0.325851
0.327257
0.328388
0.329475
0.330422
0.331355
0.332283
0.333302
0.334436
0.335712
0.337104
0.338576
0.340091
0.341637
0.343236
0.34494
0.346824
0.348974
0.351476
0.354419
0.357886
0.361954
0.366699
0.372184
0.378455
0.38553
0.393393
0.40197
0.411117
0.420593
0.430031
0.438935
0.446693
0.452813
0.456857
0.458373
0.456937
0.452473
0.444706
0.43414
0.420007
0.403917
0.382543
0.361487
0.328195
0.304101
0.243668
0.22773
0.0938948
0.137661
0.20884
0.257255
0.280424
0.299226
0.306775
0.313765
0.317131
0.320476
0.322459
0.324458
0.325877
0.327279
0.328411
0.329498
0.330444
0.331374
0.332298
0.333313
0.334446
0.335725
0.337123
0.338602
0.340123
0.341675
0.343275
0.344978
0.346858
0.349
0.351492
0.354421
0.35787
0.36192
0.366643
0.372104
0.378349
0.385395
0.393226
0.401767
0.410874
0.420304
0.429687
0.438528
0.44622
0.452267
0.456228
0.457656
0.456139
0.451609
0.443803
0.433224
0.419112
0.403058
0.381746
0.360739
0.327511
0.303448
0.243031
0.227149
0.0932779
0.137582
0.21266
0.257779
0.280639
0.299128
0.306792
0.313772
0.317189
0.320516
0.322503
0.32449
0.325907
0.327305
0.328437
0.329524
0.33047
0.331398
0.332318
0.333329
0.334461
0.335743
0.337146
0.338633
0.340161
0.341717
0.34332
0.345023
0.346898
0.349033
0.351515
0.354431
0.357864
0.361895
0.366598
0.372035
0.378252
0.38527
0.393067
0.401571
0.410635
0.420015
0.42934
0.438113
0.445733
0.451702
0.455574
0.456911
0.45531
0.450715
0.442873
0.432286
0.418202
0.402191
0.380951
0.360001
0.326846
0.30282
0.24243
0.226607
0.0927067
0.137537
0.216376
0.258389
0.280884
0.299041
0.306804
0.313775
0.317247
0.320558
0.322552
0.324525
0.32594
0.327333
0.328466
0.329553
0.3305
0.331426
0.332344
0.333351
0.334482
0.335765
0.337173
0.338668
0.340203
0.341766
0.343372
0.345074
0.346946
0.349074
0.351547
0.35445
0.357868
0.361881
0.366562
0.371976
0.378167
0.385154
0.392917
0.401383
0.410401
0.419728
0.42899
0.437691
0.445233
0.451117
0.454893
0.456133
0.454448
0.449787
0.441913
0.431324
0.417276
0.401317
0.380157
0.359272
0.3262
0.302215
0.241863
0.226104
0.0921798
0.137525
0.219993
0.259078
0.28116
0.298968
0.306812
0.313774
0.317304
0.320603
0.322605
0.324565
0.325979
0.327366
0.328499
0.329586
0.330534
0.331459
0.332374
0.333379
0.334507
0.335792
0.337206
0.338708
0.340251
0.34182
0.34343
0.345133
0.347002
0.349125
0.351588
0.35448
0.357883
0.361878
0.366539
0.371929
0.378093
0.385049
0.392777
0.401202
0.410173
0.419443
0.428637
0.437259
0.444717
0.450509
0.454184
0.455323
0.453549
0.448824
0.44092
0.430335
0.416332
0.400432
0.379364
0.358551
0.325573
0.301635
0.24133
0.225639
0.0916955
0.137545
0.223516
0.259838
0.281467
0.298913
0.306819
0.313769
0.31736
0.320651
0.322663
0.32461
0.326022
0.327403
0.328536
0.329623
0.330573
0.331498
0.332411
0.333413
0.33454
0.335826
0.337244
0.338753
0.340305
0.34188
0.343495
0.345199
0.347067
0.349185
0.35164
0.35452
0.357909
0.361887
0.366527
0.371894
0.378031
0.384956
0.392648
0.401031
0.409951
0.41916
0.428281
0.436819
0.444185
0.449877
0.453443
0.454476
0.452612
0.447823
0.439894
0.429319
0.415368
0.399538
0.378571
0.357837
0.324962
0.301079
0.24083
0.225211
0.0912519
0.137596
0.22695
0.260664
0.281805
0.298878
0.306826
0.313762
0.317416
0.3207
0.322725
0.324661
0.326071
0.327445
0.328578
0.329664
0.330616
0.331541
0.332454
0.333453
0.334579
0.335866
0.337288
0.338804
0.340364
0.341947
0.343567
0.345274
0.347141
0.349254
0.351702
0.354572
0.357948
0.361909
0.366529
0.371873
0.377983
0.384876
0.392531
0.400869
0.409736
0.41888
0.427923
0.43637
0.443636
0.44922
0.45267
0.45359
0.451633
0.446781
0.438831
0.428274
0.414384
0.398633
0.377776
0.357132
0.324369
0.300547
0.240362
0.22482
0.0908467
0.137678
0.230299
0.261548
0.282173
0.298863
0.306837
0.313754
0.31747
0.320752
0.322793
0.324717
0.326126
0.327493
0.328626
0.329711
0.330665
0.331591
0.332503
0.333501
0.334625
0.335913
0.337339
0.338862
0.34043
0.342021
0.343647
0.345357
0.347225
0.349335
0.351776
0.354636
0.357999
0.361944
0.366546
0.371866
0.377949
0.38481
0.392426
0.400717
0.409528
0.418602
0.427561
0.43591
0.443069
0.448535
0.451862
0.452664
0.450611
0.445697
0.437731
0.427198
0.41338
0.397716
0.37698
0.356434
0.323792
0.300038
0.239925
0.224466
0.0904777
0.137789
0.233567
0.262486
0.28257
0.29887
0.306853
0.313747
0.317525
0.320807
0.322866
0.32478
0.326189
0.327548
0.328679
0.329763
0.330719
0.331647
0.33256
0.333557
0.33468
0.335967
0.337397
0.338926
0.340502
0.342102
0.343735
0.34545
0.347318
0.349426
0.351862
0.354714
0.358065
0.361995
0.366577
0.371875
0.37793
0.384758
0.392335
0.400577
0.409328
0.418328
0.427197
0.43544
0.442481
0.447822
0.451017
0.451696
0.449544
0.444569
0.436592
0.426091
0.412353
0.396787
0.376183
0.355743
0.323231
0.299552
0.239517
0.224147
0.0901427
0.137928
0.236759
0.263472
0.282993
0.2989
0.306876
0.313742
0.31758
0.320865
0.322945
0.32485
0.326259
0.32761
0.328739
0.329821
0.33078
0.331709
0.332624
0.333621
0.334743
0.336031
0.337463
0.338998
0.340582
0.342191
0.343832
0.345552
0.347422
0.34953
0.351961
0.354805
0.358145
0.36206
0.366625
0.3719
0.377928
0.384723
0.392258
0.400449
0.409136
0.418057
0.426829
0.434959
0.441874
0.447078
0.450133
0.450682
0.448431
0.443396
0.435413
0.424952
0.411304
0.395846
0.375383
0.35506
0.322685
0.29909
0.239139
0.223865
0.0898389
0.138096
0.23988
0.264501
0.283442
0.298953
0.306908
0.313742
0.317637
0.320927
0.323029
0.324928
0.326337
0.32768
0.328808
0.329887
0.330848
0.331779
0.332697
0.333694
0.334816
0.336103
0.337537
0.339077
0.34067
0.342288
0.343937
0.345663
0.347538
0.349645
0.352074
0.354911
0.358241
0.362143
0.36669
0.371943
0.377943
0.384704
0.392196
0.400334
0.408953
0.41779
0.426458
0.434465
0.441244
0.446302
0.449209
0.449623
0.447269
0.442177
0.434194
0.423781
0.410232
0.394894
0.374581
0.354384
0.322154
0.298651
0.238787
0.223617
0.0895637
0.138292
0.242934
0.265568
0.283915
0.299028
0.306949
0.313746
0.317697
0.320994
0.323121
0.325015
0.326425
0.327759
0.328885
0.329961
0.330923
0.331857
0.332778
0.333776
0.334899
0.336185
0.337621
0.339166
0.340766
0.342393
0.344051
0.345785
0.347665
0.349774
0.352201
0.355032
0.358353
0.362242
0.366773
0.372004
0.377977
0.384703
0.392151
0.400232
0.40878
0.417526
0.426083
0.433959
0.440591
0.445493
0.448242
0.448516
0.446058
0.440912
0.432934
0.422579
0.409139
0.39393
0.373777
0.353716
0.321637
0.298235
0.238461
0.223405
0.089314
0.138516
0.245926
0.26667
0.28441
0.299126
0.307
0.313758
0.31776
0.321066
0.323219
0.32511
0.326524
0.32785
0.328972
0.330045
0.331008
0.331944
0.332868
0.333869
0.334992
0.336279
0.337716
0.339264
0.340871
0.342507
0.344175
0.345918
0.347803
0.349916
0.352342
0.35517
0.358483
0.362361
0.366875
0.372085
0.37803
0.38472
0.392123
0.400145
0.408617
0.417267
0.425705
0.433439
0.439914
0.444649
0.447233
0.447362
0.444799
0.439601
0.431635
0.421346
0.408025
0.392956
0.372971
0.353056
0.321134
0.297843
0.238159
0.223228
0.089087
0.138768
0.24886
0.267801
0.284925
0.299246
0.307062
0.313778
0.317829
0.321145
0.323326
0.325216
0.326633
0.327951
0.329071
0.330139
0.331103
0.332041
0.332969
0.333972
0.335097
0.336384
0.337821
0.339373
0.340986
0.342631
0.344309
0.346062
0.347955
0.350072
0.352499
0.355324
0.358631
0.362498
0.366997
0.372186
0.378104
0.384758
0.392113
0.400074
0.408465
0.417012
0.425322
0.432905
0.439212
0.44377
0.446181
0.446159
0.443491
0.438246
0.430298
0.420084
0.406892
0.391972
0.372164
0.352404
0.320643
0.297474
0.23788
0.223085
0.0888796
0.139049
0.25174
0.268959
0.285459
0.299386
0.307136
0.313806
0.317903
0.32123
0.32344
0.325333
0.326755
0.328066
0.329183
0.330246
0.33121
0.332149
0.333081
0.334087
0.335214
0.336501
0.337939
0.339494
0.341113
0.342767
0.344455
0.346218
0.34812
0.350242
0.352673
0.355497
0.358798
0.362656
0.367141
0.37231
0.3782
0.384817
0.392122
0.400018
0.408324
0.416761
0.424935
0.432357
0.438485
0.442855
0.445085
0.44491
0.442138
0.436849
0.428927
0.418797
0.405742
0.390981
0.371358
0.351762
0.320166
0.297128
0.237622
0.222976
0.0886885
0.139357
0.25457
0.270139
0.286009
0.299547
0.307222
0.313844
0.317984
0.321323
0.323565
0.325462
0.32689
0.328195
0.329308
0.330366
0.331329
0.332269
0.333205
0.334215
0.335344
0.336632
0.338071
0.339627
0.341252
0.342914
0.344613
0.346387
0.348299
0.350429
0.352863
0.355687
0.358985
0.362835
0.367307
0.372456
0.378319
0.384898
0.392152
0.399979
0.408195
0.416516
0.424544
0.431793
0.437731
0.441905
0.443947
0.443616
0.440741
0.435414
0.427526
0.417488
0.404578
0.389986
0.370552
0.35113
0.319701
0.296806
0.237383
0.222902
0.0885106
0.139695
0.257354
0.27134
0.286575
0.299726
0.307319
0.313892
0.318071
0.321425
0.323699
0.325603
0.32704
0.328339
0.329449
0.330501
0.331463
0.332404
0.333343
0.334357
0.335488
0.336778
0.338217
0.339775
0.341405
0.343074
0.344784
0.34657
0.348493
0.350632
0.353072
0.355898
0.359194
0.363037
0.367496
0.372627
0.378462
0.385002
0.392203
0.399958
0.408078
0.416275
0.424148
0.431214
0.436951
0.440919
0.442769
0.442281
0.439306
0.433947
0.426099
0.416162
0.403406
0.388989
0.369751
0.35051
0.319248
0.296507
0.237161
0.22286
0.0883429
0.14006
0.260097
0.272557
0.287154
0.299923
0.307428
0.31395
0.318167
0.321537
0.323844
0.325757
0.327204
0.3285
0.329607
0.330653
0.331614
0.332554
0.333497
0.334514
0.335648
0.336939
0.338379
0.339939
0.341572
0.34325
0.34497
0.346768
0.348703
0.350852
0.353299
0.35613
0.359425
0.363263
0.367711
0.372823
0.378631
0.385131
0.392277
0.399956
0.407975
0.416039
0.423747
0.430619
0.436145
0.4399
0.441553
0.440909
0.437837
0.432452
0.424652
0.414825
0.402228
0.387995
0.368955
0.349904
0.318808
0.296233
0.236955
0.222852
0.0881823
0.140454
0.262802
0.273787
0.287745
0.300137
0.307547
0.314018
0.318271
0.321657
0.323999
0.325926
0.327384
0.328678
0.329783
0.330824
0.331782
0.332722
0.333667
0.334688
0.335825
0.337117
0.338559
0.34012
0.341757
0.343441
0.345173
0.346983
0.348931
0.351091
0.353547
0.356383
0.35968
0.363514
0.367952
0.373047
0.378827
0.385287
0.392375
0.399974
0.407885
0.415808
0.423341
0.43001
0.435315
0.43885
0.440303
0.439504
0.436341
0.430937
0.423193
0.413482
0.401051
0.387008
0.368167
0.349313
0.318381
0.295982
0.236764
0.222877
0.0880261
0.140876
0.265473
0.275028
0.288346
0.300367
0.307677
0.314096
0.318384
0.321788
0.324166
0.326108
0.327581
0.328874
0.329979
0.331014
0.33197
0.332909
0.333856
0.33488
0.336021
0.337314
0.338757
0.34032
0.34196
0.343652
0.345393
0.347216
0.349178
0.351351
0.353818
0.356661
0.35996
0.363792
0.368222
0.3733
0.379052
0.38547
0.392498
0.400013
0.407809
0.415583
0.422932
0.429386
0.434463
0.437772
0.439025
0.438072
0.434823
0.429408
0.421727
0.412141
0.39988
0.386033
0.367392
0.34874
0.317968
0.295757
0.236586
0.222934
0.0878717
0.141326
0.268114
0.276278
0.288956
0.300611
0.307818
0.314185
0.318505
0.321929
0.324344
0.326305
0.327794
0.329091
0.330196
0.331226
0.332179
0.333117
0.334066
0.335092
0.336236
0.337532
0.338975
0.340539
0.342184
0.343882
0.345634
0.347471
0.349446
0.351633
0.354112
0.356963
0.360268
0.364099
0.368521
0.373583
0.379307
0.385682
0.392647
0.400073
0.407748
0.415364
0.422518
0.428749
0.43359
0.43667
0.437722
0.43662
0.433291
0.427872
0.420262
0.410808
0.398721
0.385073
0.366632
0.348188
0.31757
0.295556
0.236421
0.223022
0.0877169
0.141804
0.270728
0.277532
0.289573
0.300868
0.307968
0.314284
0.318634
0.322079
0.324534
0.326516
0.328026
0.329327
0.330434
0.331461
0.332412
0.333348
0.334298
0.335326
0.336473
0.337771
0.339215
0.340781
0.34243
0.344135
0.345897
0.347747
0.349738
0.35194
0.354432
0.357294
0.360604
0.364436
0.368852
0.373898
0.379595
0.385926
0.392824
0.400156
0.407703
0.415152
0.422102
0.428101
0.432699
0.435548
0.436401
0.435154
0.431752
0.426337
0.418805
0.409488
0.39758
0.384134
0.365891
0.347657
0.317188
0.295381
0.236267
0.223141
0.0875597
0.142307
0.273319
0.278791
0.290195
0.301138
0.308128
0.314393
0.318773
0.32224
0.324735
0.326742
0.328274
0.329584
0.330695
0.33172
0.33267
0.333604
0.334555
0.335585
0.336734
0.338033
0.339479
0.341047
0.342699
0.344412
0.346185
0.348049
0.350055
0.352273
0.35478
0.357654
0.360972
0.364806
0.369217
0.374248
0.379916
0.386201
0.39303
0.400263
0.407674
0.414947
0.421683
0.427443
0.431795
0.43441
0.435066
0.43368
0.430212
0.42481
0.417363
0.408189
0.39646
0.383219
0.365172
0.347152
0.316823
0.295232
0.236125
0.223291
0.0873986
0.142835
0.27589
0.280049
0.290823
0.301419
0.308296
0.314511
0.318919
0.32241
0.324947
0.326982
0.328539
0.329861
0.33098
0.332005
0.332954
0.333887
0.334839
0.335871
0.337021
0.338322
0.339769
0.341339
0.342996
0.344715
0.3465
0.348378
0.350401
0.352636
0.355158
0.358046
0.361374
0.365212
0.369619
0.374635
0.380274
0.386511
0.393267
0.400394
0.407661
0.41475
0.421265
0.426779
0.430881
0.433263
0.433724
0.432204
0.428678
0.423296
0.41594
0.406915
0.395367
0.382332
0.364476
0.346672
0.316477
0.295109
0.235994
0.223469
0.0872328
0.143388
0.278445
0.281307
0.291453
0.30171
0.308472
0.314638
0.319074
0.32259
0.32517
0.327236
0.328822
0.330159
0.331288
0.332315
0.333265
0.334198
0.335152
0.336184
0.337337
0.338639
0.340087
0.341659
0.34332
0.345047
0.346844
0.348737
0.350778
0.353031
0.35557
0.358473
0.361812
0.365655
0.370058
0.37506
0.38067
0.386857
0.393535
0.400551
0.407666
0.414561
0.420848
0.426111
0.42996
0.432109
0.43238
0.430733
0.427156
0.421802
0.414544
0.405671
0.394305
0.381477
0.363808
0.346221
0.31615
0.295014
0.235874
0.223676
0.0870618
0.143962
0.280987
0.28256
0.292084
0.302011
0.308656
0.314773
0.319237
0.32278
0.325403
0.327502
0.32912
0.330477
0.331619
0.332652
0.333605
0.334539
0.335494
0.336529
0.337683
0.338985
0.340435
0.342009
0.343675
0.345411
0.34722
0.349129
0.351188
0.35346
0.356018
0.358937
0.362288
0.366138
0.370539
0.375527
0.381106
0.38724
0.393836
0.400732
0.407688
0.414382
0.420433
0.425442
0.429036
0.430954
0.431039
0.429272
0.425652
0.420335
0.41318
0.404463
0.393278
0.380657
0.363169
0.345799
0.315845
0.294945
0.235766
0.223911
0.086886
0.144557
0.28352
0.283807
0.292716
0.302319
0.308846
0.314918
0.319408
0.322978
0.325646
0.327782
0.329434
0.330813
0.331973
0.333015
0.333974
0.334911
0.335869
0.336906
0.338061
0.339365
0.340815
0.342392
0.344063
0.345808
0.34763
0.349556
0.351634
0.353927
0.356505
0.359442
0.362807
0.366664
0.371064
0.376037
0.381584
0.387661
0.394169
0.40094
0.407728
0.414214
0.420024
0.424774
0.428113
0.429801
0.429705
0.427826
0.424173
0.418899
0.411852
0.403293
0.392288
0.379872
0.362561
0.345408
0.315561
0.294903
0.23567
0.224173
0.0867064
0.145171
0.286047
0.285046
0.293347
0.302635
0.309043
0.31507
0.319587
0.323185
0.325899
0.328073
0.329763
0.331168
0.332349
0.333403
0.334371
0.335314
0.336277
0.337316
0.338474
0.339779
0.34123
0.34281
0.344486
0.346241
0.348077
0.350021
0.352119
0.354434
0.357034
0.359989
0.36337
0.367236
0.371634
0.376592
0.382104
0.388121
0.394535
0.401174
0.407786
0.414057
0.419622
0.424111
0.427194
0.428656
0.428385
0.426401
0.422723
0.417501
0.410565
0.402167
0.391339
0.379126
0.361985
0.345049
0.3153
0.294888
0.235588
0.224461
0.0865243
0.145802
0.288571
0.286273
0.293976
0.302958
0.309246
0.315229
0.319773
0.3234
0.326161
0.328375
0.330105
0.331541
0.332745
0.333816
0.334797
0.335748
0.336717
0.337762
0.338923
0.340229
0.341682
0.343264
0.344947
0.346712
0.348563
0.350526
0.352646
0.354984
0.357607
0.360583
0.36398
0.367855
0.372252
0.377194
0.382668
0.38862
0.394934
0.401432
0.407862
0.413912
0.419227
0.423453
0.426282
0.427521
0.427082
0.425003
0.421307
0.416144
0.409324
0.401086
0.390432
0.37842
0.361442
0.34472
0.315062
0.2949
0.235521
0.224775
0.0863417
0.146449
0.291095
0.287488
0.294601
0.303285
0.309454
0.315397
0.319966
0.323623
0.326431
0.328688
0.33046
0.331929
0.333161
0.334253
0.335249
0.336213
0.337192
0.338243
0.339408
0.340717
0.342173
0.343758
0.345448
0.347224
0.349091
0.351074
0.353217
0.355579
0.358226
0.361225
0.364639
0.368524
0.372919
0.377842
0.383276
0.389157
0.395365
0.401716
0.407957
0.413781
0.418842
0.422803
0.425379
0.4264
0.425801
0.423636
0.419932
0.414833
0.408131
0.400053
0.38957
0.377755
0.360934
0.344424
0.314849
0.294939
0.235468
0.225114
0.0861609
0.14711
0.293624
0.288687
0.29522
0.303618
0.309667
0.315571
0.320167
0.323855
0.32671
0.329011
0.330827
0.332332
0.333596
0.334712
0.335728
0.336707
0.337698
0.338759
0.339931
0.341245
0.342703
0.344293
0.34599
0.347778
0.349662
0.351666
0.353834
0.356222
0.358895
0.361917
0.365349
0.369243
0.373636
0.378538
0.383927
0.389732
0.395827
0.402023
0.408069
0.413662
0.418467
0.422164
0.424489
0.425297
0.424546
0.422304
0.418601
0.413572
0.406989
0.399071
0.388754
0.377131
0.360459
0.344159
0.314659
0.295004
0.235433
0.225477
0.0859841
0.147783
0.296159
0.289868
0.295834
0.303953
0.309885
0.315752
0.320374
0.324094
0.326997
0.329344
0.331205
0.332749
0.334048
0.335191
0.336231
0.337229
0.338236
0.339309
0.340491
0.341811
0.343274
0.344869
0.346575
0.348377
0.350279
0.352305
0.354499
0.356915
0.359614
0.36266
0.36611
0.370014
0.374402
0.37928
0.384619
0.390342
0.396317
0.402353
0.408199
0.413557
0.418104
0.421536
0.423613
0.424216
0.423322
0.421013
0.417318
0.412364
0.405902
0.39814
0.387983
0.376549
0.36002
0.343926
0.314494
0.295095
0.235414
0.225864
0.085814
0.148468
0.298706
0.291029
0.29644
0.304292
0.310106
0.315939
0.320588
0.324341
0.327292
0.329685
0.331593
0.333179
0.334514
0.335689
0.336756
0.337777
0.338804
0.339892
0.341086
0.342415
0.343886
0.345488
0.347204
0.34902
0.350941
0.352992
0.355213
0.357657
0.360384
0.363454
0.366923
0.370835
0.375216
0.380067