/*--------------------------------*- C++ -*----------------------------------*\
| =========                 |                                                 |
| \\      /  F ield         | OpenFOAM: The Open Source CFD Toolbox           |
|  \\    /   O peration     | Version:  2.4.0                                 |
|   \\  /    A nd           | Web:      www.OpenFOAM.org                      |
|    \\/     M anipulation  |                                                 |
\*---------------------------------------------------------------------------*/
FoamFile
{
    version     2.0;
    format      ascii;
    class       volScalarField;
    location    "440";
    object      epsilon;
}
// * * * * * * * * * * * * * * * * * * * * * * * * * * * * * * * * * * * * * //

dimensions      [0 2 -3 0 0 0 0];

internalField   nonuniform List<scalar> 
6000
(
1.28837
0.343832
0.0455654
0.0271073
0.0222861
0.0201232
0.0185319
0.0174996
0.0167615
0.0162168
0.0157867
0.0154328
0.0151289
0.0148709
0.0146624
0.0145146
0.0144381
0.0144428
0.0145373
0.0147345
0.0150553
0.0155333
0.0162151
0.0171569
0.0184234
0.0200813
0.0221811
0.0247916
0.0280881
0.031867
0.03609
0.0406827
0.0455372
0.0505239
0.0554983
0.060321
0.0649327
0.0691619
0.0728684
0.0760048
0.0785396
0.0804903
0.0818566
0.0827391
0.0831225
0.0832024
0.0832112
0.0818135
0.0874615
0.0956149
0.105209
0.11996
0.136057
0.163406
0.191004
0.246133
0.292674
0.419902
0.502246
0.90677
0.483861
0.207656
0.0748466
0.0200322
0.00905434
0.00737533
0.00667993
0.00630296
0.00606443
0.00589737
0.00576795
0.00565815
0.00555873
0.00546767
0.00538826
0.00532713
0.00529269
0.00529398
0.00534082
0.00544455
0.00561917
0.00588202
0.00625367
0.00675692
0.00741672
0.00825533
0.00928746
0.0105268
0.0119912
0.0136252
0.0153953
0.0172598
0.0191717
0.0210837
0.022953
0.0247475
0.0264735
0.0280941
0.029556
0.0308512
0.0319778
0.0329442
0.0337595
0.0344518
0.0350336
0.0355533
0.0360992
0.0360025
0.0376244
0.0399329
0.0428771
0.0470198
0.0520652
0.0593362
0.0681387
0.081256
0.0973649
0.121774
0.158455
0.203532
0.351399
0.169544
0.0782408
0.0307272
0.0100254
0.00635847
0.00522296
0.00471436
0.00443503
0.00426002
0.00413684
0.00404009
0.003957
0.00388287
0.00381859
0.00376875
0.00374027
0.00374141
0.00378143
0.00387074
0.0040213
0.00424699
0.00456355
0.00498802
0.0055386
0.00623026
0.00707108
0.0080638
0.00920411
0.0104575
0.0117941
0.013181
0.0145849
0.0159761
0.0173304
0.0186329
0.0198877
0.0210682
0.022147
0.0231206
0.0239893
0.024759
0.0254378
0.026042
0.0265858
0.0270901
0.0276067
0.0276043
0.0284464
0.0296539
0.0313053
0.0335207
0.0364011
0.040191
0.0451663
0.051527
0.0603772
0.0706992
0.0900153
0.102749
0.320755
0.155186
0.0775145
0.0392563
0.0142736
0.00729893
0.00534459
0.00454546
0.00413339
0.00388915
0.00372747
0.00360913
0.00351442
0.00343448
0.00336728
0.00331528
0.00328396
0.0032807
0.00331424
0.00339461
0.0035333
0.00374345
0.00403981
0.00443823
0.00495507
0.00560328
0.00638798
0.00730719
0.00834964
0.00948619
0.0106884
0.0119268
0.0131735
0.0144051
0.0156037
0.0167589
0.0178712
0.0189155
0.0198733
0.0207414
0.0215199
0.0222135
0.0228289
0.0233785
0.0238757
0.0243284
0.0247601
0.024736
0.0252622
0.0260355
0.0271721
0.0286673
0.0307143
0.0332775
0.036813
0.0409589
0.0471131
0.0533204
0.0659478
0.0721579
0.310659
0.149283
0.0763091
0.0433383
0.020771
0.00928771
0.00608911
0.0048655
0.0042617
0.00391621
0.00369598
0.00354206
0.0034252
0.00333118
0.00325453
0.00319546
0.00315794
0.00314846
0.00317533
0.00324841
0.0033792
0.00358101
0.0038689
0.00425888
0.00476737
0.00540676
0.00618046
0.00708356
0.00810118
0.00920581
0.0103694
0.0115641
0.0127646
0.0139499
0.0151045
0.016219
0.0172903
0.0182925
0.0192104
0.0200404
0.0207818
0.0214381
0.0220154
0.0225233
0.0229746
0.0233664
0.0236954
0.0236268
0.0239662
0.0244908
0.0253326
0.0264399
0.0280341
0.0299775
0.0327638
0.035857
0.040653
0.0450506
0.0545042
0.0583381
0.306587
0.146935
0.0754007
0.0449366
0.0272458
0.0122866
0.00731125
0.00549365
0.0046302
0.00415014
0.00385252
0.00365116
0.00350401
0.00339001
0.00329957
0.00323026
0.00318437
0.00316743
0.0031872
0.00325341
0.00337777
0.00357412
0.00385846
0.0042477
0.00475933
0.00540604
0.00619012
0.00710453
0.00813189
0.00924487
0.0104153
0.0116158
0.0128221
0.0140139
0.0151763
0.0162992
0.0173755
0.0183774
0.0192911
0.0201119
0.0208382
0.0214729
0.022021
0.0224906
0.0228928
0.0232142
0.0234291
0.0233093
0.0235117
0.0238596
0.0244933
0.0253422
0.0266357
0.0281937
0.0305095
0.0329859
0.0369624
0.0403579
0.0480138
0.0506361
0.304709
0.146148
0.0748801
0.0452728
0.0319945
0.016331
0.00902679
0.00639741
0.00518903
0.00453412
0.00413734
0.00387544
0.00368955
0.00354979
0.0034415
0.00335912
0.00330296
0.00327734
0.00328935
0.00334849
0.00346669
0.00365852
0.00394128
0.00433334
0.0048539
0.00551668
0.00632334
0.00726508
0.00832246
0.00946757
0.0106716
0.0119073
0.0131499
0.0143789
0.0155787
0.0167379
0.0178442
0.0188682
0.0197959
0.0206215
0.0213426
0.0219613
0.022482
0.0229112
0.0232584
0.0234975
0.023592
0.0234181
0.0235057
0.0237103
0.0241765
0.0248276
0.0258937
0.0271769
0.029159
0.0312225
0.0346441
0.0374002
0.0438941
0.045781
0.303653
0.146043
0.0746851
0.0450515
0.0345902
0.0210295
0.0112962
0.00759175
0.00593168
0.00505227
0.00453005
0.00419221
0.00395786
0.00378593
0.00365545
0.00355703
0.00348861
0.00345299
0.00345639
0.00350787
0.00361952
0.00380671
0.00408829
0.00448449
0.0050168
0.00570067
0.00653751
0.00751707
0.00861801
0.00981132
0.0110673
0.0123576
0.0136569
0.0149435
0.0161999
0.017413
0.0185644
0.0196232
0.0205746
0.0214115
0.0221308
0.0227341
0.0232254
0.0236091
0.023893
0.0240363
0.0240108
0.0237797
0.0237632
0.0238415
0.0241614
0.0246465
0.0255246
0.0265921
0.028316
0.0300763
0.0330916
0.0354
0.0410745
0.0424657
0.302902
0.146234
0.0747331
0.0446489
0.0355787
0.0254433
0.0141707
0.00911206
0.00687006
0.00570547
0.00502601
0.00459382
0.00429959
0.00408807
0.00393044
0.00381265
0.00372975
0.00368266
0.00367639
0.00371938
0.00382368
0.00400547
0.0042853
0.00468557
0.00523058
0.00593821
0.00681008
0.00783471
0.0089889
0.0102422
0.0115633
0.0129228
0.0142935
0.0156517
0.0169779
0.0182567
0.0194623
0.0205631
0.0215427
0.022393
0.0231104
0.0236958
0.0241531
0.0244847
0.0246954
0.0247303
0.0245905
0.0242983
0.0241831
0.0241446
0.0243302
0.0246672
0.02538
0.026266
0.0277774
0.0292997
0.0320002
0.0339748
0.0390363
0.0400726
0.302277
0.146552
0.0749535
0.0442507
0.0355134
0.0287861
0.0176227
0.011001
0.00802584
0.00650321
0.00562838
0.00507987
0.00471226
0.00445244
0.00426189
0.0041209
0.00402096
0.00396067
0.00394351
0.00397699
0.00407291
0.00424811
0.00452496
0.00492825
0.00548556
0.00621792
0.0071277
0.00820242
0.00941699
0.0107391
0.0121356
0.013575
0.0150281
0.0164683
0.0178734
0.0192252
0.0204906
0.0216368
0.0226458
0.0235087
0.0242214
0.0247845
0.0252017
0.0254732
0.0255999
0.0255181
0.0252717
0.0249146
0.0247037
0.0245543
0.024613
0.0248128
0.0253742
0.0261
0.0274281
0.0287544
0.0312008
0.032916
0.0375002
0.0382738
0.301715
0.14692
0.0752923
0.0439394
0.034844
0.0309014
0.0212454
0.0132923
0.00942584
0.00746015
0.00634485
0.00565407
0.00519714
0.00487879
0.00464859
0.00447989
0.00435992
0.00428445
0.004255
0.00427779
0.00436411
0.00453127
0.00480345
0.00520798
0.00577612
0.00653283
0.00748181
0.00860983
0.00988992
0.0112875
0.0127671
0.0142948
0.0158384
0.0173679
0.018858
0.0202873
0.021615
0.0228071
0.0238443
0.024717
0.0254205
0.0259555
0.0263256
0.0265284
0.0265598
0.0263602
0.0260142
0.0255888
0.0252843
0.0250281
0.0249652
0.0250349
0.0254544
0.0260336
0.0271983
0.0283573
0.0305925
0.0321006
0.0363031
0.0368806
0.301195
0.147303
0.0757106
0.0437437
0.0338926
0.031876
0.0245443
0.015985
0.0110975
0.0085941
0.00718613
0.00632275
0.00575787
0.00536903
0.00509128
0.0048896
0.0047461
0.00465311
0.00460975
0.00462058
0.00469599
0.00485348
0.00511897
0.00552239
0.00609903
0.00687848
0.00786654
0.00904952
0.0103985
0.0118765
0.013445
0.0150671
0.0167069
0.0183307
0.0199095
0.0214182
0.0228083
0.0240449
0.0251072
0.025985
0.0266739
0.0271741
0.0274896
0.0276144
0.027541
0.0272285
0.0267883
0.0262922
0.025896
0.0255366
0.0253565
0.0253015
0.0255859
0.0260282
0.0270436
0.0280561
0.0301119
0.0314523
0.0353444
0.0357765
0.300709
0.147683
0.0761804
0.0436654
0.0328695
0.0319198
0.027196
0.018916
0.0130615
0.00992419
0.0081649
0.00709408
0.0063997
0.00592649
0.00559199
0.00535116
0.00518001
0.00506678
0.00500767
0.00500513
0.00506825
0.00521437
0.00547094
0.00587048
0.00645257
0.00725206
0.00827774
0.00951582
0.0109356
0.012497
0.0141584
0.015879
0.0176189
0.0193399
0.0210089
0.0225969
0.0240477
0.0253256
0.0264084
0.0272858
0.0279535
0.0284118
0.0286646
0.0287022
0.0285197
0.0281013
0.0275716
0.0270033
0.0265175
0.0260586
0.0257654
0.0255906
0.0257452
0.0260578
0.0269347
0.0278163
0.0297176
0.0309211
0.0345589
0.0348863
0.300255
0.148055
0.0766822
0.0436942
0.0319006
0.0312852
0.0290448
0.0218113
0.0153183
0.0114682
0.00929487
0.00797754
0.00712907
0.00655554
0.00615367
0.00586653
0.00566292
0.00552623
0.00544925
0.0054318
0.00548122
0.00561423
0.00585956
0.00625216
0.00683606
0.00765187
0.00871246
0.0100043
0.011495
0.0131414
0.0148979
0.0167194
0.0185613
0.0203805
0.0221395
0.0238048
0.025313
0.0266276
0.0277254
0.028596
0.0292354
0.0296442
0.0298262
0.0297685
0.0294786
0.0289612
0.0283462
0.0277053
0.0271324
0.0265779
0.0261763
0.0258863
0.0259161
0.0261048
0.0268516
0.027615
0.0293815
0.0304737
0.0339029
0.0341591
0.299832
0.148415
0.0772022
0.043815
0.0310524
0.030215
0.0300534
0.0244391
0.0177757
0.0132377
0.0105895
0.00898333
0.00795328
0.00726136
0.00677998
0.00643823
0.00619656
0.00603268
0.00593536
0.00590131
0.0059356
0.00605381
0.00628553
0.00666794
0.00724958
0.00807708
0.00916864
0.0105115
0.0120718
0.013803
0.015655
0.0175781
0.0195223
0.0214388
0.0232861
0.0250251
0.0265862
0.0279318
0.0290382
0.0298949
0.0304988
0.0308507
0.0309536
0.0307966
0.0304041
0.029794
0.0290977
0.0283848
0.027728
0.0270821
0.0265772
0.0261769
0.0260869
0.026157
0.0267806
0.027436
0.0290843
0.0300868
0.0333457
0.0335592
0.299439
0.148763
0.0777306
0.0440117
0.0303531
0.0289149
0.030279
0.0266167
0.0202794
0.0152279
0.01206
0.0101216
0.00888014
0.0080497
0.00747506
0.00706926
0.00678306
0.00658763
0.00646713
0.00641458
0.00643229
0.00653407
0.00674986
0.00711878
0.0076938
0.00852753
0.00964499
0.0110348
0.0126616
0.0144757
0.0164222
0.0184457
0.0204907
0.0225024
0.0244346
0.0262426
0.0278507
0.029221
0.030329
0.0311646
0.0317256
0.0320129
0.0320298
0.0317747
0.031285
0.0305882
0.0298146
0.029031
0.0282939
0.0275618
0.026959
0.0264539
0.0262491
0.0262057
0.0267123
0.0272683
0.0288123
0.0297437
0.0328654
0.0330604
0.299075
0.149099
0.0782602
0.0442693
0.0298075
0.0275432
0.0298425
0.0282143
0.0226917
0.0173694
0.013712
0.0114016
0.0099175
0.00892663
0.0082435
0.00776298
0.00742484
0.00719284
0.00704583
0.00697265
0.00697227
0.00705609
0.00725376
0.00760592
0.00816972
0.00900367
0.0101409
0.011572
0.0132609
0.0151543
0.0171923
0.0193136
0.0214564
0.0235596
0.0255722
0.0274429
0.0290917
0.0304795
0.0315819
0.032389
0.0328998
0.0331152
0.0330432
0.0326936
0.0321121
0.0313342
0.0304874
0.0296354
0.0288222
0.028009
0.0273145
0.0267106
0.0263967
0.0262448
0.02664
0.0271041
0.0285558
0.0294325
0.0324456
0.032643
0.298739
0.149423
0.0787862
0.0445746
0.0294074
0.0262112
0.0288975
0.0291659
0.0248697
0.0195798
0.0155247
0.0128296
0.0110726
0.00989828
0.00909008
0.00852297
0.00812456
0.0078502
0.00767285
0.00757661
0.00755654
0.00762098
0.00779848
0.00813079
0.0086786
0.00950643
0.0106564
0.0121219
0.0138667
0.0158342
0.0179592
0.0201739
0.0224099
0.0245995
0.026687
0.0286133
0.0302955
0.0316934
0.0327828
0.0335541
0.0340075
0.0341458
0.033986
0.0335459
0.0328781
0.0320246
0.0311088
0.0301912
0.0293065
0.0284179
0.0276382
0.0269419
0.026525
0.0262698
0.0265589
0.0269377
0.0283074
0.0291438
0.0320736
0.0322918
0.298429
0.149737
0.079305
0.0449161
0.029138
0.0249895
0.0276047
0.029468
0.0266836
0.0217678
0.0174536
0.0144013
0.0123511
0.0109704
0.0100196
0.00935297
0.008885
0.00856174
0.00834965
0.00822753
0.00818605
0.00822977
0.00838526
0.00869487
0.00922206
0.0100372
0.0111921
0.0126839
0.014477
0.0165117
0.0187173
0.0210195
0.0233426
0.0256122
0.0277679
0.0297419
0.0314499
0.0328502
0.0339191
0.0346475
0.0350371
0.035097
0.0348519
0.0343259
0.0335774
0.0326536
0.0316731
0.0306933
0.0297418
0.0287839
0.0279257
0.027144
0.0266305
0.0262778
0.0264659
0.0267652
0.0280618
0.0288705
0.0317392
0.0319943
0.298144
0.15004
0.0798139
0.0452842
0.028982
0.0239167
0.0261136
0.0291708
0.0280318
0.0238301
0.0194491
0.0160926
0.013753
0.0121476
0.0110365
0.0102567
0.00970901
0.00932954
0.00907768
0.00892644
0.00886164
0.00888337
0.00901524
0.00929963
0.00980181
0.0105976
0.011749
0.0132581
0.0150904
0.0171836
0.0194619
0.021844
0.0242468
0.026589
0.0288053
0.0308182
0.0325439
0.0339387
0.03498
0.0356583
0.0359814
0.0359638
0.0356364
0.0350294
0.0342057
0.0332169
0.0321762
0.0311378
0.0301246
0.0291034
0.0281738
0.0273139
0.0267109
0.0262663
0.0263585
0.0265836
0.0278146
0.0286068
0.0314341
0.03174
0.297882
0.150333
0.0803112
0.0456712
0.0289221
0.0230084
0.0245506
0.0283634
0.0288504
0.0256611
0.0214466
0.0178774
0.0152653
0.0134301
0.0121444
0.0112375
0.0105993
0.0101557
0.00985837
0.00967431
0.009584
0.00958249
0.00968934
0.00994639
0.0104196
0.0111897
0.0123288
0.0138451
0.0157062
0.0178479
0.0201893
0.0226421
0.0251158
0.0275219
0.0297901
0.0318326
0.0335679
0.0349494
0.035955
0.0365799
0.0368357
0.0367423
0.0363364
0.0356535
0.0347603
0.0337116
0.0326152
0.0315224
0.0304526
0.0293741
0.0283801
0.0274495
0.0267641
0.0262338
0.0262352
0.0263907
0.0275627
0.028348
0.0311509
0.0315201
0.297642
0.150616
0.0807956
0.0460704
0.028942
0.0222643
0.0230141
0.0271587
0.0291171
0.0271633
0.0233694
0.0197177
0.0168736
0.0148114
0.0133427
0.0122983
0.0115585
0.011042
0.010693
0.010472
0.0103536
0.0103276
0.0104083
0.0106363
0.0110771
0.0118156
0.0129334
0.0144462
0.0163247
0.0185033
0.0208965
0.0234094
0.0259437
0.0284041
0.0307148
0.032777
0.0345121
0.0358728
0.0368386
0.0374079
0.0375968
0.0374301
0.0369499
0.0361966
0.0352395
0.034136
0.0329885
0.0318456
0.0307243
0.0295945
0.0285431
0.0275491
0.0267887
0.0261793
0.0260949
0.026185
0.0273033
0.0280899
0.0308834
0.0313266
0.297422
0.150889
0.0812662
0.0464767
0.029027
0.0216748
0.0215739
0.025678
0.0288496
0.0282573
0.0251343
0.0215637
0.0185551
0.0162827
0.0146285
0.0134377
0.0125877
0.0119903
0.0115829
0.01132
0.0111708
0.0111188
0.0111723
0.0113701
0.0117757
0.0124774
0.0135651
0.0150634
0.0169467
0.0191494
0.0215818
0.0241425
0.0267256
0.0292286
0.0315708
0.0336429
0.0353701
0.0367043
0.0376269
0.0381396
0.0382628
0.0380262
0.0374763
0.0366581
0.0356429
0.0344898
0.0332957
0.032107
0.0309392
0.0297639
0.0286617
0.0276119
0.0267839
0.0261018
0.0259367
0.0259653
0.0270342
0.0278289
0.0306256
0.0311524
0.297221
0.151154
0.0817225
0.0468859
0.0291644
0.0212248
0.0202743
0.0240391
0.0281004
0.0288889
0.0266578
0.0233558
0.0202779
0.0178297
0.015996
0.0146543
0.0136864
0.0130003
0.0125281
0.0122189
0.0120356
0.011956
0.0119815
0.0121482
0.0125166
0.0131772
0.0142249
0.015697
0.017572
0.019785
0.0222428
0.024838
0.0274571
0.0299909
0.0323529
0.0344258
0.0361379
0.0374406
0.0383176
0.0387736
0.0388331
0.0385304
0.0379159
0.0370386
0.0359709
0.0347731
0.0335371
0.032307
0.0310977
0.0298824
0.0287359
0.0276372
0.026749
0.0260009
0.0257603
0.0257306
0.0267534
0.0275616
0.0303723
0.0309908
0.297037
0.15141
0.0821641
0.0472944
0.0293432
0.0208974
0.0191383
0.0223466
0.0269484
0.0290332
0.0278636
0.0250272
0.0220013
0.0194313
0.0174354
0.0159439
0.014853
0.0140718
0.0135286
0.0131679
0.0129472
0.0128383
0.0128352
0.0129702
0.0132996
0.0139149
0.0149139
0.0163481
0.0182014
0.0204101
0.0228786
0.0254938
0.0281354
0.0306877
0.0330576
0.0351226
0.036813
0.0380801
0.0389098
0.0393097
0.0393083
0.0389437
0.0382699
0.0373393
0.0362247
0.0349873
0.033714
0.032447
0.0312009
0.0299507
0.0287659
0.027625
0.0266837
0.0258762
0.0255652
0.0254804
0.0264593
0.0272851
0.0301184
0.0308357
0.296869
0.151656
0.0825909
0.0476997
0.0295543
0.020675
0.0181724
0.0206866
0.0254885
0.0286961
0.028689
0.0265079
0.0236761
0.0210592
0.0189321
0.0172993
0.0160841
0.0152029
0.0145832
0.0141662
0.0139045
0.0137645
0.013732
0.0138349
0.0141241
0.0146902
0.0156332
0.0170182
0.0188358
0.0210251
0.0234888
0.026109
0.028759
0.0313172
0.033683
0.0357319
0.0373944
0.0386223
0.0394036
0.0397487
0.0396896
0.0392679
0.0385404
0.0375622
0.0364064
0.0351343
0.0338282
0.0325286
0.0312503
0.0299701
0.0287525
0.0275757
0.0265881
0.0257277
0.0253512
0.025214
0.0261505
0.0269967
0.0298591
0.0306814
0.296716
0.151894
0.0830029
0.0480996
0.0297898
0.0205413
0.0173723
0.0191235
0.0238226
0.027912
0.0290901
0.0277299
0.0252468
0.0226778
0.0204656
0.0187093
0.0173739
0.0163905
0.01569
0.0152122
0.014906
0.0147327
0.0146701
0.0147408
0.014989
0.0155029
0.0163835
0.0177083
0.0194765
0.0216312
0.0240741
0.0266837
0.0293274
0.0318787
0.0342289
0.0362533
0.037882
0.0390679
0.0398004
0.0400926
0.0399794
0.0395056
0.03873
0.0377101
0.0365185
0.0352165
0.0338821
0.0325542
0.0312479
0.0299422
0.0286968
0.0274899
0.0264624
0.0255552
0.0251183
0.0249312
0.0258259
0.0266939
0.0295901
0.0305224
0.296577
0.152124
0.0834
0.0484925
0.0300434
0.0204811
0.0167261
0.0177011
0.0220499
0.0267398
0.0290459
0.0286317
0.0266538
0.0242447
0.0220096
0.0201587
0.0187135
0.0176294
0.0168456
0.0163032
0.0159493
0.0157405
0.0156473
0.0156857
0.0158928
0.0163524
0.0171655
0.0184198
0.0201252
0.0222297
0.0246357
0.0272187
0.0298414
0.0323728
0.0346959
0.0366877
0.0382774
0.0394187
0.0401025
0.0403441
0.0401808
0.0396599
0.038842
0.0377859
0.036564
0.0352368
0.0338785
0.0325263
0.0311962
0.029869
0.0286005
0.0273686
0.026307
0.025359
0.0248664
0.0246317
0.0254844
0.0263742
0.0293071
0.0303536
0.296449
0.152345
0.0837826
0.0488769
0.0303097
0.0204813
0.0162182
0.016444
0.02026
0.0252566
0.0285599
0.029164
0.0278372
0.0257118
0.0235316
0.0216271
0.0200906
0.0189119
0.0180449
0.0174358
0.0170313
0.016785
0.0166607
0.0166669
0.0168333
0.0172373
0.0179791
0.0191536
0.0207834
0.0228225
0.0251754
0.0277158
0.0303026
0.0328012
0.035086
0.0370374
0.0385831
0.0396776
0.0403131
0.0405067
0.0402973
0.0397345
0.0388798
0.0377933
0.0365462
0.0351984
0.0338204
0.0324479
0.0310978
0.0297529
0.0284653
0.027213
0.0261226
0.0251392
0.0245956
0.0243152
0.0251251
0.0260357
0.0290062
0.03017
0.296334
0.152559
0.0841507
0.049252
0.0305845
0.0205303
0.0158313
0.0153615
0.0185275
0.0235505
0.0276596
0.0292932
0.0287405
0.0270273
0.0249935
0.0230892
0.0214889
0.0202276
0.0192812
0.0186048
0.0181479
0.0178625
0.0177068
0.017681
0.0178076
0.0181558
0.0188239
0.0199105
0.0214527
0.0234119
0.0256958
0.0281775
0.0307137
0.0331664
0.0354022
0.0373054
0.0388024
0.0398484
0.0404363
0.0405844
0.0403333
0.0397336
0.0388477
0.0377361
0.0364688
0.0351048
0.033711
0.0323221
0.0309555
0.0295963
0.0282932
0.0270245
0.0259099
0.0248963
0.0243059
0.0239818
0.0247474
0.0256765
0.0286837
0.0299673
0.296228
0.152764
0.0845046
0.049617
0.030864
0.0206182
0.0155481
0.0144513
0.0169092
0.0217128
0.0263946
0.0290049
0.0293143
0.0281381
0.0263525
0.0245145
0.022888
0.021563
0.020545
0.0198036
0.0192938
0.0189682
0.0187813
0.018724
0.018812
0.0191052
0.0196986
0.0206909
0.0221347
0.0240001
0.0261995
0.0286071
0.0310781
0.0334721
0.0356483
0.0374959
0.0389397
0.0399355
0.0404765
0.040582
0.0402932
0.0396617
0.0387497
0.0376182
0.0363355
0.0349595
0.0335537
0.0321519
0.0307722
0.0294016
0.0280861
0.0268045
0.0256699
0.0246305
0.0239976
0.0236315
0.0243508
0.0252951
0.0283364
0.0297411
0.296133
0.152961
0.0848446
0.0499714
0.0311456
0.0207369
0.0153524
0.0137029
0.0154437
0.0198311
0.0248319
0.0283055
0.0295208
0.0289927
0.0275621
0.0258677
0.0242628
0.0229007
0.0218245
0.0210234
0.0204622
0.0200963
0.019879
0.0197908
0.0198421
0.0200818
0.0206001
0.0214943
0.0228305
0.0245894
0.0266897
0.0290081
0.0313998
0.0337222
0.0358288
0.0376137
0.039
0.0399441
0.0404391
0.0405046
0.0401821
0.0395234
0.0385904
0.0374437
0.0361501
0.034766
0.0333519
0.0319404
0.0305505
0.0291713
0.0278461
0.0265546
0.0254035
0.0243424
0.0236708
0.0232642
0.023935
0.0248899
0.0279611
0.0294875
0.296045
0.15315
0.085171
0.0503148
0.0314268
0.0208793
0.0152296
0.0131012
0.0141526
0.017983
0.0230507
0.0272224
0.0293367
0.0295443
0.0285747
0.0271094
0.025584
0.0242198
0.0231045
0.0222532
0.0216445
0.0212398
0.0209935
0.0208757
0.0208925
0.0210814
0.0215253
0.0223199
0.0235408
0.0251819
0.0271696
0.0293846
0.0316834
0.0339212
0.035949
0.0376642
0.038989
0.0398799
0.0403296
0.0403576
0.0400051
0.0393236
0.0383743
0.0372169
0.0359165
0.0345279
0.0331086
0.0316906
0.0302932
0.0289077
0.0275752
0.0262762
0.0251117
0.0240324
0.0233256
0.0228801
0.0234999
0.0244601
0.0275554
0.0292029
0.295966
0.153332
0.0854841
0.0506469
0.0317057
0.0210396
0.0151664
0.0126287
0.0130431
0.0162322
0.0211361
0.0258024
0.0287558
0.0297547
0.0293431
0.0281974
0.0268182
0.0254954
0.0243668
0.0234795
0.0228304
0.0223901
0.0221168
0.0219716
0.021957
0.0220985
0.0224703
0.0231658
0.0242659
0.0257795
0.0276423
0.0297406
0.0319337
0.0340743
0.0360147
0.0376535
0.0389127
0.0397489
0.0401539
0.0401467
0.0397675
0.0390672
0.0381058
0.0369419
0.0356383
0.0342485
0.0328271
0.0314052
0.0300028
0.0286131
0.0272753
0.0259708
0.0247954
0.023701
0.0229622
0.0224792
0.0230453
0.0240047
0.0271168
0.0288842
0.295894
0.153506
0.0857842
0.0509677
0.031981
0.0212131
0.0151517
0.0122677
0.0121112
0.0146257
0.0191729
0.024109
0.0277906
0.029597
0.0298242
0.0290881
0.0279285
0.0266987
0.0255899
0.024686
0.0240071
0.0235367
0.0232393
0.0230706
0.023028
0.0231267
0.0234302
0.024029
0.025005
0.0263834
0.0281108
0.0300805
0.0321557
0.0341875
0.0360318
0.0375878
0.0387776
0.0395574
0.0399181
0.0398776
0.0394747
0.0387592
0.0377894
0.0366225
0.0353192
0.033931
0.0325102
0.0310869
0.0296816
0.0282894
0.0269479
0.0256398
0.0244554
0.0233485
0.0225806
0.0220617
0.0225715
0.0235233
0.0266435
0.0285285
0.295829
0.153673
0.0860716
0.0512771
0.0322513
0.0213959
0.0151758
0.0120009
0.0113451
0.0131934
0.0172387
0.0222174
0.0264728
0.0290585
0.0299811
0.0297385
0.0288759
0.0277976
0.0267485
0.0258533
0.0251596
0.0246675
0.0243508
0.0241633
0.0240973
0.0241582
0.0243986
0.0249041
0.0257563
0.0269943
0.0285774
0.030408
0.0323542
0.0342664
0.0360065
0.0374737
0.0385903
0.0393119
0.0396284
0.0395561
0.0391321
0.0384044
0.0374294
0.0362626
0.0349624
0.0335784
0.0321605
0.0307379
0.0293316
0.0279384
0.0265945
0.0252841
0.0240926
0.0229754
0.0221811
0.0216276
0.0220786
0.0230157
0.026134
0.0281334
0.29577
0.153833
0.0863468
0.0515751
0.0325158
0.0215848
0.0152307
0.0118126
0.0107283
0.0119496
0.0153997
0.0202098
0.0248515
0.0281431
0.0297863
0.0301086
0.02962
0.0287573
0.0278143
0.0269589
0.02627
0.0257681
0.025439
0.0252389
0.0251549
0.0251844
0.0253682
0.0257853
0.0265171
0.0276117
0.029044
0.0307265
0.0325335
0.0343166
0.0359449
0.0373175
0.0383571
0.0390188
0.0392909
0.0391878
0.0387447
0.0380074
0.03703
0.0358659
0.0345711
0.0331935
0.0317803
0.0303602
0.0289544
0.0275615
0.0262164
0.0249047
0.0237075
0.0225819
0.0217634
0.021177
0.0215669
0.0224818
0.0255873
0.0276969
0.295716
0.153986
0.08661
0.0518618
0.0327737
0.0217772
0.0153096
0.0116888
0.0102424
0.0108952
0.0137068
0.0181684
0.0229911
0.026872
0.0292247
0.0301641
0.0301214
0.0295409
0.0287563
0.0279777
0.0273179
0.0268217
0.0264899
0.0262852
0.0261897
0.026195
0.0263302
0.0266657
0.0272827
0.0282341
0.0295113
0.0310386
0.0326968
0.0343433
0.035853
0.0371257
0.0380846
0.0386843
0.0389115
0.0387784
0.0383176
0.0375726
0.0365948
0.0354355
0.0341481
0.0327784
0.0313716
0.0299554
0.0285514
0.0271598
0.0258143
0.0245022
0.0233004
0.0221681
0.0213277
0.0207099
0.0210367
0.0219218
0.0250027
0.0272173
0.295668
0.154132
0.0868617
0.0521373
0.0330246
0.021971
0.0154069
0.0116174
0.00986829
0.0100212
0.0121941
0.0161702
0.0209672
0.0252842
0.0282955
0.0298788
0.0303437
0.0301114
0.0295411
0.0288815
0.0282805
0.0278095
0.0274876
0.0272883
0.0271892
0.0271785
0.0272743
0.0275371
0.0280458
0.0288583
0.0299787
0.0313457
0.0328476
0.0343511
0.0357361
0.036904
0.0377788
0.0383145
0.0384959
0.038333
0.0378554
0.037104
0.0361274
0.0349744
0.0336958
0.0323353
0.030936
0.0295248
0.0281236
0.0267341
0.025389
0.0240772
0.0228717
0.021734
0.0208736
0.0202261
0.0204886
0.0213365
0.0243801
0.0266936
0.295624
0.154271
0.087102
0.0524019
0.033268
0.0221645
0.015518
0.011588
0.00958805
0.0093119
0.010879
0.0142813
0.0188611
0.023435
0.0270143
0.0292374
0.0302553
0.0304324
0.0301342
0.02964
0.029132
0.0287101
0.028414
0.0282323
0.0281391
0.028122
0.0281889
0.0283896
0.0287988
0.0294787
0.0304441
0.0316474
0.0329883
0.0343438
0.0355991
0.0366579
0.0374453
0.0379147
0.0380493
0.0378563
0.0373624
0.0366054
0.0356309
0.0344852
0.0332162
0.0318657
0.0304747
0.0290693
0.0276717
0.0262848
0.0249406
0.0236297
0.0224214
0.0212794
0.0204009
0.0197256
0.0199227
0.0207263
0.0237196
0.026125
0.295584
0.154404
0.0873315
0.0526556
0.0335037
0.0223563
0.0156391
0.0115921
0.00938533
0.00874792
0.00976457
0.0125528
0.0167544
0.0213933
0.0254136
0.0282379
0.0298325
0.0304709
0.030501
0.0302216
0.0298448
0.0294997
0.0292489
0.0290995
0.0290235
0.0290111
0.0290609
0.0292118
0.0295325
0.0300879
0.0309025
0.0319422
0.0331202
0.0343242
0.035446
0.036392
0.037089
0.03749
0.0375763
0.0373526
0.0368422
0.0360798
0.0351079
0.0339698
0.0327109
0.0313708
0.0299885
0.0285895
0.0271958
0.025812
0.0244691
0.0231596
0.0219491
0.0208041
0.0199093
0.0192081
0.0193396
0.0200923
0.023022
0.0255112
0.295548
0.154531
0.0875503
0.0528988
0.0337314
0.0225454
0.0157673
0.0116223
0.00924575
0.00830873
0.00884234
0.0110186
0.0147225
0.0192376
0.0235425
0.0268934
0.0290617
0.030199
0.0306088
0.0305937
0.0303895
0.0301529
0.0299701
0.0298696
0.0298249
0.0298296
0.0298755
0.0299906
0.0302362
0.0306777
0.0313486
0.032228
0.0332433
0.0342942
0.0352796
0.0361101
0.036714
0.0370445
0.037081
0.0368255
0.036298
0.0355299
0.0345604
0.0334299
0.032181
0.0308513
0.0294778
0.0280852
0.0266959
0.0253154
0.0239743
0.0226665
0.0214546
0.0203076
0.0193982
0.0186733
0.0187394
0.0194355
0.0222881
0.0248525
0.295515
0.154651
0.0877589
0.0531316
0.0339511
0.0227309
0.0159
0.0116728
0.00915697
0.00797429
0.00809586
0.00969551
0.012829
0.0170505
0.0214653
0.0252335
0.027942
0.0295961
0.0304281
0.0307249
0.0307361
0.0306423
0.0305536
0.0305198
0.0305239
0.0305599
0.0306164
0.0307113
0.0308973
0.0312384
0.0317753
0.0325005
0.033356
0.034254
0.0351018
0.0358147
0.0363235
0.0365815
0.0365666
0.0362779
0.0357324
0.0349578
0.03399
0.0328665
0.0316271
0.0303074
0.0289424
0.0275564
0.0261714
0.0247945
0.0234554
0.0221498
0.0209372
0.0197893
0.018867
0.0181208
0.0181226
0.018757
0.0215195
0.0241493
0.295485
0.154766
0.0879577
0.0533542
0.0341627
0.0229122
0.0160353
0.0117386
0.00910862
0.00772614
0.00750417
0.00858484
0.0111218
0.0149129
0.0192578
0.0233044
0.0264868
0.028652
0.0299349
0.0305856
0.0308544
0.0309399
0.0309742
0.0310279
0.0310999
0.031183
0.0312657
0.0313574
0.0315011
0.0317579
0.032174
0.0327539
0.0334549
0.0342023
0.0349128
0.0355073
0.0359195
0.0361034
0.0360354
0.0357121
0.035147
0.0343647
0.0333976
0.0322801
0.0310494
0.0297389
0.028382
0.0270022
0.0256216
0.0242483
0.0229116
0.0216087
0.0203962
0.0192485
0.0183153
0.0175501
0.0174892
0.0180582
0.020718
0.0234028
0.295458
0.154875
0.0881468
0.0535671
0.0343662
0.0230887
0.0161715
0.0118159
0.00909206
0.00754797
0.00704469
0.00767556
0.00963049
0.0128971
0.0170029
0.021168
0.0247257
0.0273684
0.0291131
0.0301505
0.0307162
0.0310175
0.0312053
0.0313702
0.0315307
0.0316783
0.0318043
0.0319108
0.0320315
0.0322225
0.0325334
0.0329803
0.0335348
0.0341363
0.0347115
0.0351879
0.0355029
0.0356113
0.0354886
0.035129
0.0345429
0.0337514
0.0327834
0.0316706
0.0304473
0.0291451
0.0277955
0.0264215
0.0250452
0.0236758
0.0223417
0.0210421
0.0198306
0.0186845
0.0177422
0.0169609
0.0168396
0.0173403
0.0198855
0.0226143
0.295434
0.154978
0.0883267
0.0537703
0.0345616
0.0232601
0.0163073
0.0119016
0.00910023
0.0074258
0.00669529
0.00694828
0.00836642
0.0110613
0.0147847
0.0188991
0.022705
0.0257618
0.0279568
0.0294006
0.0302958
0.0308479
0.0312206
0.0315222
0.0317932
0.032024
0.0322114
0.032352
0.0324704
0.0326161
0.0328407
0.0331694
0.0335883
0.0340509
0.0344949
0.034855
0.0350729
0.0351051
0.0349265
0.034529
0.03392
0.0331174
0.0321469
0.0310372
0.02982
0.0285248
0.0271817
0.025813
0.0244409
0.0230753
0.0217444
0.0204489
0.0192394
0.0180963
0.0171471
0.0163526
0.0161739
0.0166048
0.0190244
0.0217858
0.295412
0.155076
0.0884976
0.0539642
0.0347491
0.0234261
0.0164419
0.0119929
0.00912739
0.00734788
0.00643567
0.00637909
0.00732493
0.00944574
0.0126815
0.0165815
0.0204869
0.0238644
0.0264727
0.0283251
0.029573
0.0304065
0.0309944
0.0314591
0.0318628
0.0321971
0.0324652
0.0326602
0.032798
0.0329211
0.0330803
0.0333088
0.0336059
0.0339393
0.034258
0.0345052
0.0346274
0.0345835
0.0343479
0.0339111
0.0332775
0.032462
0.031487
0.0303785
0.0291657
0.0278763
0.0265388
0.0251749
0.0238068
0.0224455
0.0211183
0.0198278
0.0186216
0.0174832
0.0165294
0.0157248
0.0154921
0.015853
0.0181374
0.0209192
0.295392
0.155169
0.08866
0.054149
0.0349288
0.0235865
0.0165744
0.012088
0.00916891
0.00730458
0.006248
0.00594281
0.00648914
0.00807024
0.0107591
0.0143019
0.0181474
0.0217252
0.0246821
0.0269241
0.0285344
0.0296726
0.0305032
0.0311567
0.0317138
0.0321742
0.0325432
0.0328134
0.0329934
0.0331177
0.033235
0.033384
0.0335759
0.0337922
0.0339941
0.0341334
0.0341626
0.0340434
0.0337506
0.0332732
0.0326134
0.031783
0.0308016
0.0296925
0.0284825
0.0271975
0.0258646
0.0245052
0.0231411
0.0217844
0.0204618
0.0191775
0.0179762
0.0168444
0.0158885
0.0150773
0.0147947
0.0150864
0.0172274
0.0200173
0.295374
0.155257
0.088814
0.054325
0.0351007
0.0237412
0.0167041
0.0121852
0.0092211
0.00728804
0.00611718
0.00561528
0.0058345
0.00693569
0.0090649
0.012143
0.0157725
0.0194096
0.0226224
0.0252108
0.027176
0.0286319
0.0297268
0.0305928
0.0313226
0.0319321
0.0324223
0.0327888
0.0330342
0.0331849
0.0332853
0.0333779
0.0334841
0.0335983
0.0336939
0.0337325
0.0336729