/*--------------------------------*- C++ -*----------------------------------*\
| =========                 |                                                 |
| \\      /  F ield         | OpenFOAM: The Open Source CFD Toolbox           |
|  \\    /   O peration     | Version:  2.4.0                                 |
|   \\  /    A nd           | Web:      www.OpenFOAM.org                      |
|    \\/     M anipulation  |                                                 |
\*---------------------------------------------------------------------------*/
FoamFile
{
    version     2.0;
    format      ascii;
    class       volScalarField;
    location    "275";
    object      epsilon;
}
// * * * * * * * * * * * * * * * * * * * * * * * * * * * * * * * * * * * * * //

dimensions      [0 2 -3 0 0 0 0];

internalField   nonuniform List<scalar> 
10000
(
0.000756807
0.000749373
0.000742874
0.000737184
0.000732199
0.000727828
0.000723994
0.000720633
0.000717688
0.000715114
0.00071287
0.000710927
0.000709267
0.000707911
0.000707076
0.000708052
0.000717848
0.00077443
0.0011337
0.00517007
0.000756807
0.000749373
0.000742874
0.000737184
0.000732199
0.000727828
0.000723994
0.000720633
0.000717688
0.000715113
0.000712869
0.000710926
0.000709264
0.000707902
0.000707026
0.000707699
0.00071515
0.000752822
0.000923084
0.00175601
0.000756807
0.000749373
0.000742874
0.000737184
0.000732199
0.000727828
0.000723994
0.000720632
0.000717687
0.000715111
0.000712866
0.00071092
0.000709255
0.00070788
0.000706937
0.000707171
0.000711839
0.000732985
0.000808279
0.00104252
0.000756807
0.000749373
0.000742874
0.000737184
0.000732199
0.000727827
0.000723993
0.00072063
0.000717684
0.000715107
0.00071286
0.000710912
0.000709241
0.000707849
0.000706829
0.000706646
0.000709098
0.000719821
0.000752661
0.000833417
0.000756807
0.000749373
0.000742874
0.000737184
0.000732198
0.000727826
0.000723991
0.000720628
0.000717681
0.000715102
0.000712853
0.000710901
0.000709222
0.000707811
0.000706721
0.00070621
0.000707191
0.000712155
0.000726258
0.000757071
0.000756807
0.000749373
0.000742874
0.000737184
0.000732198
0.000727825
0.00072399
0.000720626
0.000717677
0.000715097
0.000712844
0.000710887
0.0007092
0.00070777
0.00070662
0.000705881
0.000705979
0.000707972
0.0007138
0.000726001
0.000756807
0.000749373
0.000742874
0.000737184
0.000732197
0.000727825
0.000723989
0.000720623
0.000717673
0.000715091
0.000712835
0.000710872
0.000709176
0.000707728
0.000706531
0.000705639
0.000705239
0.000705758
0.000707928
0.000712672
0.000756807
0.000749373
0.000742873
0.000737183
0.000732197
0.000727824
0.000723987
0.000720621
0.000717669
0.000715084
0.000712824
0.000710856
0.00070915
0.000707685
0.000706451
0.000705462
0.000704788
0.00070459
0.000705139
0.00070678
0.000756807
0.000749373
0.000742873
0.000737183
0.000732196
0.000727823
0.000723985
0.000720618
0.000717665
0.000715077
0.000712814
0.000710839
0.000709124
0.000707644
0.000706381
0.000705328
0.000704504
0.000703958
0.000703785
0.000704106
0.000756807
0.000749373
0.000742873
0.000737183
0.000732196
0.000727822
0.000723984
0.000720615
0.00071766
0.00071507
0.000712803
0.000710823
0.000709099
0.000707605
0.000706318
0.000705223
0.000704313
0.000703596
0.000703095
0.000702848
0.000756807
0.000749373
0.000742873
0.000737183
0.000732196
0.000727821
0.000723982
0.000720613
0.000717656
0.000715063
0.000712792
0.000710806
0.000709074
0.000707567
0.000706261
0.000705136
0.000704176
0.000703371
0.000702718
0.000702218
0.000756807
0.000749373
0.000742873
0.000737183
0.000732195
0.00072782
0.000723981
0.00072061
0.000717652
0.000715057
0.000712782
0.00071079
0.00070905
0.000707532
0.000706211
0.000705064
0.000704071
0.000703217
0.000702489
0.000701874
0.000756807
0.000749373
0.000742873
0.000737183
0.000732195
0.00072782
0.000723979
0.000720608
0.000717648
0.00071505
0.000712771
0.000710775
0.000709027
0.0007075
0.000706166
0.000705002
0.000703987
0.000703104
0.000702335
0.000701665
0.000756807
0.000749373
0.000742873
0.000737183
0.000732195
0.000727819
0.000723978
0.000720605
0.000717644
0.000715044
0.000712762
0.00071076
0.000709006
0.00070747
0.000706125
0.000704948
0.000703917
0.000703015
0.000702223
0.000701522
0.000756807
0.000749373
0.000742873
0.000737182
0.000732194
0.000727818
0.000723977
0.000720603
0.00071764
0.000715037
0.000712752
0.000710747
0.000708987
0.000707443
0.000706089
0.000704901
0.000703858
0.000702942
0.000702135
0.000701417
0.000756808
0.000749373
0.000742873
0.000737182
0.000732194
0.000727818
0.000723975
0.000720601
0.000717636
0.000715032
0.000712743
0.000710734
0.000708968
0.000707418
0.000706056
0.00070486
0.000703807
0.000702881
0.000702063
0.000701333
0.000756808
0.000749374
0.000742874
0.000737182
0.000732194
0.000727817
0.000723974
0.000720599
0.000717632
0.000715026
0.000712735
0.000710721
0.000708952
0.000707396
0.000706027
0.000704824
0.000703764
0.00070283
0.000702004
0.000701265
0.000756808
0.000749374
0.000742874
0.000737182
0.000732193
0.000727816
0.000723973
0.000720596
0.000717629
0.00071502
0.000712727
0.00071071
0.000708936
0.000707375
0.000706002
0.000704792
0.000703726
0.000702785
0.000701953
0.000701209
0.000756808
0.000749374
0.000742874
0.000737182
0.000732193
0.000727816
0.000723972
0.000720594
0.000717626
0.000715015
0.000712719
0.000710699
0.000708922
0.000707357
0.000705979
0.000704764
0.000703693
0.000702747
0.00070191
0.000701161
0.000756808
0.000749374
0.000742874
0.000737182
0.000732193
0.000727815
0.000723971
0.000720592
0.000717622
0.00071501
0.000712712
0.00071069
0.000708909
0.00070734
0.000705958
0.000704739
0.000703664
0.000702715
0.000701873
0.00070112
0.000756808
0.000749374
0.000742874
0.000737182
0.000732193
0.000727814
0.000723969
0.00072059
0.000717619
0.000715006
0.000712706
0.000710681
0.000708897
0.000707325
0.00070594
0.000704717
0.000703639
0.000702686
0.000701842
0.000701085
0.000756808
0.000749374
0.000742874
0.000737182
0.000732193
0.000727814
0.000723968
0.000720588
0.000717616
0.000715001
0.000712699
0.000710672
0.000708886
0.000707312
0.000705923
0.000704698
0.000703617
0.000702661
0.000701814
0.000701055
0.000756808
0.000749374
0.000742874
0.000737182
0.000732192
0.000727813
0.000723967
0.000720587
0.000717613
0.000714997
0.000712693
0.000710664
0.000708876
0.000707299
0.000705908
0.000704681
0.000703597
0.000702639
0.00070179
0.000701028
0.000756808
0.000749374
0.000742874
0.000737182
0.000732192
0.000727813
0.000723966
0.000720585
0.000717611
0.000714993
0.000712688
0.000710657
0.000708867
0.000707288
0.000705895
0.000704666
0.00070358
0.00070262
0.000701768
0.000701005
0.000756809
0.000749375
0.000742874
0.000737182
0.000732192
0.000727812
0.000723965
0.000720583
0.000717608
0.000714989
0.000712683
0.00071065
0.000708859
0.000707278
0.000705883
0.000704652
0.000703564
0.000702603
0.00070175
0.000700985
0.000756809
0.000749375
0.000742874
0.000737182
0.000732192
0.000727812
0.000723964
0.000720582
0.000717606
0.000714986
0.000712678
0.000710644
0.000708851
0.000707269
0.000705873
0.00070464
0.000703551
0.000702588
0.000701734
0.000700968
0.000756809
0.000749375
0.000742875
0.000737182
0.000732192
0.000727812
0.000723963
0.00072058
0.000717603
0.000714983
0.000712674
0.000710639
0.000708844
0.000707261
0.000705863
0.000704629
0.000703538
0.000702574
0.000701719
0.000700952
0.000756809
0.000749375
0.000742875
0.000737183
0.000732192
0.000727811
0.000723963
0.000720579
0.000717601
0.00071498
0.00071267
0.000710634
0.000708838
0.000707253
0.000705855
0.000704619
0.000703528
0.000702563
0.000701706
0.000700938
0.000756809
0.000749375
0.000742875
0.000737183
0.000732192
0.000727811
0.000723962
0.000720578
0.000717599
0.000714977
0.000712666
0.000710629
0.000708832
0.000707247
0.000705847
0.000704611
0.000703518
0.000702552
0.000701695
0.000700926
0.000756809
0.000749376
0.000742875
0.000737183
0.000732192
0.00072781
0.000723961
0.000720576
0.000717598
0.000714974
0.000712663
0.000710625
0.000708827
0.000707241
0.00070584
0.000704603
0.00070351
0.000702543
0.000701685
0.000700916
0.00075681
0.000749376
0.000742875
0.000737183
0.000732191
0.00072781
0.000723961
0.000720575
0.000717596
0.000714972
0.00071266
0.000710621
0.000708823
0.000707235
0.000705834
0.000704596
0.000703502
0.000702535
0.000701677
0.000700906
0.00075681
0.000749376
0.000742875
0.000737183
0.000732191
0.00072781
0.00072396
0.000720574
0.000717594
0.00071497
0.000712657
0.000710618
0.000708819
0.000707231
0.000705829
0.00070459
0.000703496
0.000702528
0.000701669
0.000700898
0.00075681
0.000749376
0.000742876
0.000737183
0.000732191
0.00072781
0.000723959
0.000720573
0.000717593
0.000714968
0.000712655
0.000710615
0.000708815
0.000707227
0.000705824
0.000704585
0.00070349
0.000702521
0.000701662
0.000700891
0.00075681
0.000749376
0.000742876
0.000737183
0.000732191
0.000727809
0.000723959
0.000720573
0.000717592
0.000714966
0.000712653
0.000710612
0.000708812
0.000707223
0.00070582
0.00070458
0.000703485
0.000702516
0.000701656
0.000700885
0.00075681
0.000749376
0.000742876
0.000737183
0.000732191
0.000727809
0.000723959
0.000720572
0.000717591
0.000714965
0.000712651
0.00071061
0.000708809
0.000707219
0.000705816
0.000704576
0.00070348
0.000702511
0.000701651
0.000700879
0.00075681
0.000749377
0.000742876
0.000737183
0.000732191
0.000727809
0.000723958
0.000720571
0.00071759
0.000714964
0.000712649
0.000710608
0.000708806
0.000707217
0.000705813
0.000704572
0.000703476
0.000702507
0.000701646
0.000700874
0.00075681
0.000749377
0.000742876
0.000737183
0.000732191
0.000727809
0.000723958
0.000720571
0.000717589
0.000714962
0.000712647
0.000710606
0.000708804
0.000707214
0.00070581
0.000704569
0.000703473
0.000702503
0.000701642
0.00070087
0.000756811
0.000749377
0.000742876
0.000737184
0.000732191
0.000727809
0.000723958
0.00072057
0.000717588
0.000714961
0.000712646
0.000710604
0.000708802
0.000707212
0.000705807
0.000704566
0.00070347
0.000702499
0.000701639
0.000700866
0.000756811
0.000749377
0.000742877
0.000737184
0.000732192
0.000727809
0.000723957
0.00072057
0.000717588
0.00071496
0.000712645
0.000710603
0.000708801
0.00070721
0.000705805
0.000704564
0.000703467
0.000702497
0.000701635
0.000700863
0.000756811
0.000749377
0.000742877
0.000737184
0.000732192
0.000727809
0.000723957
0.000720569
0.000717587
0.00071496
0.000712644
0.000710601
0.000708799
0.000707208
0.000705803
0.000704562
0.000703464
0.000702494
0.000701633
0.00070086
0.000756811
0.000749377
0.000742877
0.000737184
0.000732192
0.000727809
0.000723957
0.000720569
0.000717586
0.000714959
0.000712643
0.0007106
0.000708798
0.000707206
0.000705801
0.00070456
0.000703462
0.000702492
0.00070163
0.000700857
0.000756811
0.000749377
0.000742877
0.000737184
0.000732192
0.000727809
0.000723957
0.000720569
0.000717586
0.000714958
0.000712642
0.000710599
0.000708797
0.000707205
0.0007058
0.000704558
0.000703461
0.00070249
0.000701628
0.000700855
0.000756811
0.000749378
0.000742877
0.000737184
0.000732192
0.000727809
0.000723957
0.000720568
0.000717586
0.000714958
0.000712641
0.000710598
0.000708796
0.000707204
0.000705798
0.000704557
0.000703459
0.000702488
0.000701626
0.000700853
0.000756811
0.000749378
0.000742877
0.000737184
0.000732192
0.000727809
0.000723956
0.000720568
0.000717585
0.000714957
0.000712641
0.000710598
0.000708795
0.000707203
0.000705797
0.000704555
0.000703458
0.000702487
0.000701625
0.000700852
0.000756811
0.000749378
0.000742877
0.000737184
0.000732192
0.000727808
0.000723956
0.000720568
0.000717585
0.000714957
0.00071264
0.000710597
0.000708794
0.000707202
0.000705796
0.000704554
0.000703456
0.000702485
0.000701623
0.00070085
0.000756811
0.000749378
0.000742877
0.000737184
0.000732192
0.000727808
0.000723956
0.000720568
0.000717584
0.000714956
0.00071264
0.000710596
0.000708793
0.000707201
0.000705795
0.000704553
0.000703455
0.000702484
0.000701622
0.000700849
0.000756811
0.000749378
0.000742877
0.000737184
0.000732192
0.000727808
0.000723956
0.000720567
0.000717584
0.000714956
0.000712639
0.000710596
0.000708792
0.0007072
0.000705794
0.000704552
0.000703454
0.000702483
0.000701621
0.000700847
0.000756811
0.000749378
0.000742877
0.000737184
0.000732191
0.000727808
0.000723956
0.000720567
0.000717584
0.000714956
0.000712639
0.000710595
0.000708792
0.0007072
0.000705793
0.000704551
0.000703453
0.000702482
0.00070162
0.000700846
0.000756811
0.000749378
0.000742877
0.000737184
0.000732191
0.000727808
0.000723956
0.000720567
0.000717583
0.000714955
0.000712638
0.000710594
0.000708791
0.000707199
0.000705793
0.00070455
0.000703452
0.000702481
0.000701619
0.000700845
0.000756811
0.000749378
0.000742877
0.000737184
0.000732191
0.000727808
0.000723955
0.000720567
0.000717583
0.000714955
0.000712638
0.000710594
0.00070879
0.000707198
0.000705792
0.00070455
0.000703451
0.00070248
0.000701618
0.000700844
0.000756811
0.000749378
0.000742877
0.000737184
0.000732191
0.000727808
0.000723955
0.000720566
0.000717583
0.000714954
0.000712637
0.000710593
0.00070879
0.000707198
0.000705791
0.000704549
0.000703451
0.000702479
0.000701617
0.000700843
0.000756811
0.000749378
0.000742877
0.000737184
0.000732191
0.000727808
0.000723955
0.000720566
0.000717582
0.000714954
0.000712637
0.000710593
0.000708789
0.000707197
0.000705791
0.000704548
0.00070345
0.000702478
0.000701616
0.000700842
0.000756811
0.000749378
0.000742877
0.000737184
0.000732191
0.000727807
0.000723955
0.000720566
0.000717582
0.000714954
0.000712636
0.000710592
0.000708789
0.000707196
0.00070579
0.000704547
0.000703449
0.000702478
0.000701615
0.000700841
0.000756811
0.000749377
0.000742877
0.000737183
0.000732191
0.000727807
0.000723954
0.000720565
0.000717582
0.000714953
0.000712636
0.000710592
0.000708788
0.000707196
0.000705789
0.000704547
0.000703448
0.000702477
0.000701614
0.000700841
0.000756811
0.000749377
0.000742877
0.000737183
0.00073219
0.000727807
0.000723954
0.000720565
0.000717581
0.000714953
0.000712635
0.000710591
0.000708788
0.000707195
0.000705789
0.000704546
0.000703448
0.000702476
0.000701614
0.00070084
0.000756811
0.000749377
0.000742876
0.000737183
0.00073219
0.000727807
0.000723954
0.000720565
0.000717581
0.000714952
0.000712635
0.000710591
0.000708787
0.000707194
0.000705788
0.000704545
0.000703447
0.000702475
0.000701613
0.000700839
0.000756811
0.000749377
0.000742876
0.000737183
0.00073219
0.000727806
0.000723953
0.000720564
0.00071758
0.000714952
0.000712634
0.00071059
0.000708786
0.000707194
0.000705787
0.000704545
0.000703446
0.000702474
0.000701612
0.000700838
0.000756811
0.000749377
0.000742876
0.000737183
0.00073219
0.000727806
0.000723953
0.000720564
0.00071758
0.000714951
0.000712634
0.00071059
0.000708786
0.000707193
0.000705787
0.000704544
0.000703445
0.000702474
0.000701611
0.000700837
0.000756811
0.000749377
0.000742876
0.000737182
0.000732189
0.000727806
0.000723953
0.000720563
0.00071758
0.000714951
0.000712633
0.000710589
0.000708785
0.000707192
0.000705786
0.000704543
0.000703445
0.000702473
0.00070161
0.000700836
0.00075681
0.000749377
0.000742876
0.000737182
0.000732189
0.000727805
0.000723952
0.000720563
0.000717579
0.00071495
0.000712633
0.000710588
0.000708784
0.000707192
0.000705785
0.000704542
0.000703444
0.000702472
0.00070161
0.000700835
0.00075681
0.000749376
0.000742875
0.000737182
0.000732189
0.000727805
0.000723952
0.000720563
0.000717579
0.00071495
0.000712632
0.000710588
0.000708784
0.000707191
0.000705784
0.000704542
0.000703443
0.000702471
0.000701609
0.000700835
0.00075681
0.000749376
0.000742875
0.000737182
0.000732188
0.000727804
0.000723951
0.000720562
0.000717578
0.000714949
0.000712631
0.000710587
0.000708783
0.00070719
0.000705784
0.000704541
0.000703442
0.00070247
0.000701608
0.000700834
0.00075681
0.000749376
0.000742875
0.000737181
0.000732188
0.000727804
0.000723951
0.000720562
0.000717577
0.000714948
0.000712631
0.000710586
0.000708782
0.00070719
0.000705783
0.00070454
0.000703441
0.000702469
0.000701607
0.000700833
0.00075681
0.000749376
0.000742875
0.000737181
0.000732188
0.000727804
0.000723951
0.000720561
0.000717577
0.000714948
0.00071263
0.000710586
0.000708782
0.000707189
0.000705782
0.000704539
0.000703441
0.000702469
0.000701606
0.000700832
0.00075681
0.000749376
0.000742874
0.000737181
0.000732187
0.000727803
0.00072395
0.000720561
0.000717576
0.000714947
0.00071263
0.000710585
0.000708781
0.000707188
0.000705781
0.000704538
0.00070344
0.000702468
0.000701605
0.000700831
0.00075681
0.000749375
0.000742874
0.00073718
0.000732187
0.000727803
0.00072395
0.00072056
0.000717576
0.000714947
0.000712629
0.000710584
0.00070878
0.000707187
0.00070578
0.000704538
0.000703439
0.000702467
0.000701604
0.00070083
0.00075681
0.000749375
0.000742874
0.00073718
0.000732187
0.000727802
0.000723949
0.00072056
0.000717575
0.000714946
0.000712628
0.000710584
0.000708779
0.000707187
0.00070578
0.000704537
0.000703438
0.000702466
0.000701603
0.000700829
0.000756809
0.000749375
0.000742874
0.00073718
0.000732186
0.000727802
0.000723949
0.000720559
0.000717575
0.000714945
0.000712628
0.000710583
0.000708779
0.000707186
0.000705779
0.000704536
0.000703437
0.000702465
0.000701602
0.000700828
0.000756809
0.000749375
0.000742873
0.000737179
0.000732186
0.000727802
0.000723948
0.000720559
0.000717574
0.000714945
0.000712627
0.000710582
0.000708778
0.000707185
0.000705778
0.000704535
0.000703436
0.000702464
0.000701602
0.000700827
0.000756809
0.000749375
0.000742873
0.000737179
0.000732186
0.000727801
0.000723948
0.000720558
0.000717574
0.000714944
0.000712626
0.000710582
0.000708777
0.000707184
0.000705777
0.000704534
0.000703435
0.000702463
0.000701601
0.000700826
0.000756809
0.000749374
0.000742873
0.000737179
0.000732185
0.000727801
0.000723947
0.000720558
0.000717573
0.000714944
0.000712626
0.000710581
0.000708777
0.000707184
0.000705777
0.000704533
0.000703435
0.000702463
0.0007016
0.000700826
0.000756809
0.000749374
0.000742873
0.000737178
0.000732185
0.0007278
0.000723947
0.000720557
0.000717573
0.000714943
0.000712625
0.00071058
0.000708776
0.000707183
0.000705776
0.000704533
0.000703434
0.000702462
0.000701599
0.000700825
0.000756809
0.000749374
0.000742872
0.000737178
0.000732184
0.0007278
0.000723946
0.000720557
0.000717572
0.000714943
0.000712624
0.00071058
0.000708775
0.000707182
0.000705775
0.000704532
0.000703433
0.000702461
0.000701598
0.000700824
0.000756809
0.000749374
0.000742872
0.000737178
0.000732184
0.0007278
0.000723946
0.000720556
0.000717571
0.000714942
0.000712624
0.000710579
0.000708775
0.000707181
0.000705774
0.000704531
0.000703432
0.00070246
0.000701597
0.000700823
0.000756808
0.000749374
0.000742872
0.000737178
0.000732184
0.000727799
0.000723946
0.000720556
0.000717571
0.000714941
0.000712623
0.000710578
0.000708774
0.000707181
0.000705774
0.00070453
0.000703431
0.000702459
0.000701596
0.000700822
0.000756808
0.000749374
0.000742872
0.000737177
0.000732183
0.000727799
0.000723945
0.000720555
0.00071757
0.000714941
0.000712623
0.000710578
0.000708773
0.00070718
0.000705773
0.00070453
0.000703431
0.000702458
0.000701596
0.000700821
0.000756808
0.000749373
0.000742872
0.000737177
0.000732183
0.000727798
0.000723945
0.000720555
0.00071757
0.00071494
0.000712622
0.000710577
0.000708773
0.000707179
0.000705772
0.000704529
0.00070343
0.000702458
0.000701595
0.00070082
0.000756808
0.000749373
0.000742871
0.000737177
0.000732183
0.000727798
0.000723944
0.000720554
0.000717569
0.00071494
0.000712622
0.000710577
0.000708772
0.000707179
0.000705771
0.000704528
0.000703429
0.000702457
0.000701594
0.00070082
0.000756808
0.000749373
0.000742871
0.000737177
0.000732183
0.000727798
0.000723944
0.000720554
0.000717569
0.000714939
0.000712621
0.000710576
0.000708771
0.000707178
0.000705771
0.000704527
0.000703428
0.000702456
0.000701593
0.000700819
0.000756808
0.000749373
0.000742871
0.000737176
0.000732182
0.000727797
0.000723944
0.000720553
0.000717569
0.000714939
0.00071262
0.000710575
0.000708771
0.000707177
0.00070577
0.000704527
0.000703428
0.000702455
0.000701592
0.000700818
0.000756808
0.000749373
0.000742871
0.000737176
0.000732182
0.000727797
0.000723943
0.000720553
0.000717568
0.000714938
0.00071262
0.000710575
0.00070877
0.000707177
0.00070577
0.000704526
0.000703427
0.000702455
0.000701592
0.000700817
0.000756808
0.000749373
0.00074287
0.000737176
0.000732182
0.000727797
0.000723943
0.000720553
0.000717568
0.000714938
0.000712619
0.000710574
0.00070877
0.000707176
0.000705769
0.000704526
0.000703426
0.000702454
0.000701591
0.000700816
0.000756808
0.000749372
0.00074287
0.000737176
0.000732181
0.000727797
0.000723943
0.000720552
0.000717567
0.000714937
0.000712619
0.000710574
0.000708769
0.000707176
0.000705768
0.000704525
0.000703426
0.000702453
0.00070159
0.000700816
0.000756807
0.000749372
0.00074287
0.000737175
0.000732181
0.000727796
0.000723942
0.000720552
0.000717567
0.000714937
0.000712619
0.000710573
0.000708769
0.000707175
0.000705768
0.000704524
0.000703425
0.000702453
0.00070159
0.000700815
0.000756807
0.000749372
0.00074287
0.000737175
0.000732181
0.000727796
0.000723942
0.000720551
0.000717566
0.000714937
0.000712618
0.000710573
0.000708768
0.000707175
0.000705767
0.000704524
0.000703425
0.000702452
0.000701589
0.000700814
0.000756807
0.000749372
0.00074287
0.000737175
0.000732181
0.000727796
0.000723942
0.000720551
0.000717566
0.000714936
0.000712618
0.000710573
0.000708768
0.000707174
0.000705767
0.000704523
0.000703424
0.000702452
0.000701588
0.000700814
0.000756807
0.000749372
0.00074287
0.000737175
0.00073218
0.000727795
0.000723941
0.000720551
0.000717566
0.000714936
0.000712617
0.000710572
0.000708767
0.000707174
0.000705766
0.000704523
0.000703424
0.000702451
0.000701588
0.000700813
0.000756807
0.000749372
0.000742869
0.000737175
0.00073218
0.000727795
0.000723941
0.000720551
0.000717565
0.000714936
0.000712617
0.000710572
0.000708767
0.000707173
0.000705766
0.000704522
0.000703423
0.000702451
0.000701587
0.000700813
0.000756807
0.000749372
0.000742869
0.000737174
0.00073218
0.000727795
0.000723941
0.00072055
0.000717565
0.000714935
0.000712617
0.000710571
0.000708766
0.000707173
0.000705765
0.000704522
0.000703423
0.00070245
0.000701587
0.000700812
0.000756807
0.000749372
0.000742869
0.000737174
0.00073218
0.000727795
0.000723941
0.00072055
0.000717565
0.000714935
0.000712616
0.000710571
0.000708766
0.000707173
0.000705765
0.000704521
0.000703422
0.00070245
0.000701586
0.000700812
0.000756807
0.000749371
0.000742869
0.000737174
0.00073218
0.000727795
0.00072394
0.00072055
0.000717565
0.000714935
0.000712616
0.000710571
0.000708766
0.000707172
0.000705765
0.000704521
0.000703422
0.000702449
0.000701586
0.000700811
0.000756807
0.000749371
0.000742869
0.000737174
0.00073218
0.000727794
0.00072394
0.00072055
0.000717564
0.000714934
0.000712616
0.000710571
0.000708766
0.000707172
0.000705764
0.000704521
0.000703422
0.000702449
0.000701586
0.000700811
0.000756807
0.000749371
0.000742869
0.000737174
0.000732179
0.000727794
0.00072394
0.000720549
0.000717564
0.000714934
0.000712616
0.00071057
0.000708765
0.000707172
0.000705764
0.000704521
0.000703421
0.000702449
0.000701585
0.000700811
0.000756807
0.000749371
0.000742869
0.000737174
0.000732179
0.000727794
0.00072394
0.000720549
0.000717564
0.000714934
0.000712615
0.00071057
0.000708765
0.000707172
0.000705764
0.000704521
0.000703421
0.000702449
0.000701585
0.000700811
0.000756807
0.000749371
0.000742869
0.000737174
0.000732179
0.000727794
0.00072394
0.000720549
0.000717564
0.000714934
0.000712615
0.00071057
0.000708765
0.000707172
0.000705764
0.00070452
0.000703421
0.000702449
0.000701585
0.000700811
0.000756807
0.000749371
0.000742869
0.000737174
0.000732179
0.000727794
0.00072394
0.000720549
0.000717564
0.000714934
0.000712616
0.00071057
0.000708765
0.000707172
0.000705764
0.000704521
0.000703421
0.000702449
0.000701586
0.000700811
0.000756807
0.000749371
0.000742868
0.000737173
0.000732179
0.000727794
0.00072394
0.000720549
0.000717564
0.000714934
0.000712616
0.00071057
0.000708766
0.000707172
0.000705764
0.000704521
0.000703422
0.000702449
0.000701586
0.000700811
0.000756806
0.000749371
0.000742868
0.000737173
0.000732179
0.000727794
0.00072394
0.00072055
0.000717565
0.000714935
0.000712616
0.000710571
0.000708766
0.000707173
0.000705765
0.000704522
0.000703423
0.00070245
0.000701587
0.000700812
0.000756806
0.000749371
0.000742868
0.000737174
0.000732179
0.000727794
0.00072394
0.00072055
0.000717565
0.000714935
0.000712617
0.000710572
0.000708767
0.000707174
0.000705766
0.000704523
0.000703424
0.000702451
0.000701588
0.000700813
0.000756806
0.000749371
0.000742869
0.000737174
0.00073218
0.000727795
0.000723941
0.000720551
0.000717566
0.000714937
0.000712619
0.000710574
0.000708769
0.000707176
0.000705768
0.000704525
0.000703426
0.000702454
0.00070159
0.000700816
0.158982
0.278652
0.426036
0.591886
0.765483
0.936437
1.09598
1.23767
1.35761
1.4542
1.52765
1.57952
1.61215
1.62826
1.63063
1.6219
1.60444
1.58032
1.55124
1.51861
1.48355
1.44695
1.40949
1.37169
1.33395
1.29658
1.2598
1.22379
1.18869
1.15461
1.12164
1.08986
1.05933
1.03011
1.00226
0.975818
0.950824
0.927306
0.905283
0.884767
0.865758
0.848253
0.832239
0.817703
0.80463
0.79301
0.782842
0.774136
0.766921
0.761243
0.757169
0.754763
0.754069
0.755085
0.757732
0.761725
0.766691
0.772185
0.777718
0.782808
0.787028
0.790023
0.791538
0.791446
0.789657
0.786185
0.781122
0.77462
0.76686
0.758029
0.748311
0.737881
0.726906
0.715509
0.703868
0.691943
0.680261
0.667592
0.657686
0.638455
0.00800722
0.0165353
0.0280137
0.0426306
0.0600466
0.0794816
0.0999122
0.120292
0.139716
0.157512
0.173263
0.186782
0.198066
0.207241
0.214515
0.220141
0.224383
0.227501
0.229736
0.231305
0.232396
0.233171
0.233767
0.234296
0.234849
0.2355
0.236306
0.237312
0.238548
0.240035
0.241783
0.243792
0.246049
0.248533
0.251213
0.254049
0.256989
0.259978
0.262956
0.265864
0.268646
0.271257
0.273661
0.275841
0.277794
0.279538
0.281108
0.282558
0.28396
0.285401
0.286976
0.288773
0.290847
0.293168
0.295588
0.297995
0.300131
0.301946
0.303334
0.30418
0.304401
0.303947
0.302758
0.300741
0.298056
0.294801
0.291109
0.287103
0.282882
0.278521
0.274074
0.269576
0.265055
0.260529
0.256011
0.251515
0.247036
0.242619
0.238159
0.234047
0.0017815
0.00285479
0.00425573
0.00601049
0.00814018
0.0106442
0.0134946
0.0166369
0.0199939
0.0234728
0.0269744
0.0304018
0.0336689
0.0367061
0.0394642
0.0419153
0.0440518
0.0458841
0.0474367
0.0487451
0.049852
0.0508038
0.0516489
0.0524351
0.0532086
0.0540138
0.0548923
0.0558836
0.0570248
0.0583515
0.0598977
0.0616959
0.0637775
0.0661721
0.0689068
0.0720049
0.0754845
0.0793557
0.0836182
0.0882585
0.0932471
0.0985368
0.104063
0.109744
0.115488
0.121202
0.126796
0.132202
0.137374
0.1423
0.146989
0.15147
0.155755
0.159822
0.163603
0.166967
0.16981
0.171963
0.173347
0.173986
0.173917
0.173172
0.171816
0.169974
0.167765
0.165287
0.162637
0.159898
0.157134
0.154387
0.151687
0.149046
0.146469
0.143954
0.141494
0.139093
0.136709
0.13445
0.132011
0.130583
0.00100914
0.00126715
0.00159901
0.00200228
0.00247744
0.00302529
0.00364537
0.00433527
0.00509025
0.00590303
0.00676398
0.00766144
0.00858225
0.00951241
0.0104378
0.0113449
0.0122216
0.0130575
0.0138446
0.0145776
0.0152538
0.0158733
0.0164388
0.0169553
0.0174302
0.0178726
0.0182934
0.0187048
0.0191203
0.0195544
0.0200227
0.020542
0.0211298
0.0218051
0.0225882
0.0235009
0.0245663
0.0258094
0.0272566
0.0289353
0.0308735
0.033098
0.0356335
0.0384999
0.0417104
0.0452683
0.0491659
0.0533827
0.0578859
0.0626308
0.067561
0.0726062
0.0776783
0.0826662
0.087438
0.0918568
0.0957834
0.0990888
0.101706
0.103592
0.104768
0.105312
0.105309
0.10486
0.104055
0.102981
0.101714
0.100319
0.0988518
0.0973526
0.0958516
0.0943677
0.0929114
0.0914878
0.090095
0.0887388
0.0873923
0.0861273
0.0847613
0.0841119
0.000815584
0.000903538
0.00101894
0.00115975
0.0013246
0.00151267
0.00172332
0.00195594
0.00220976
0.00248371
0.0027764
0.00308603
0.00341043
0.00374708
0.00409315
0.00444557
0.00480114
0.00515664
0.00550891
0.00585498
0.00619219
0.00651828
0.00683146
0.00713052
0.00741488
0.00768459
0.00794042
0.00818385
0.00841706
0.00864297
0.00886522
0.00908817
0.00931696
0.00955749
0.00981652
0.0101017
0.0104217
0.0107864
0.0112068
0.0116956
0.0122672
0.0129376
0.0137253
0.0146509
0.0157375
0.0170105
0.0184976
0.0202281
0.022232
0.0245373
0.0271661
0.0301278
0.0334103
0.0369723
0.0407386
0.0446033
0.0484369
0.0521017
0.0554691
0.0584324
0.060924
0.0629199
0.0644281
0.0654833
0.0661347
0.0664393
0.0664564
0.0662442
0.0658559
0.0653377
0.0647281
0.0640575
0.0633483
0.062617
0.0618736
0.0611295
0.0603766
0.0596605
0.0588926
0.0585606
0.00074829
0.000782983
0.000830492
0.000890365
0.000961914
0.00104447
0.00113748
0.00124044
0.00135292
0.0014745
0.00160471
0.00174306
0.00188897
0.00204176
0.00220069
0.0023649
0.00253348
0.00270543
0.0028797
0.00305521
0.00323087
0.00340562
0.00357845
0.00374842
0.00391472
0.00407666
0.00423376
0.00438571
0.00453245
0.00467415
0.00481127
0.00494457
0.00507512
0.00520434
0.005334
0.0054663
0.00560387
0.00574981
0.00590783
0.00608228
0.00627833
0.00650212
0.00676104
0.00706408
0.00742237
0.00784979
0.00836391
0.00898697
0.00974675
0.0106768
0.0118153
0.0132016
0.0148704
0.016844
0.0191236
0.0216828
0.0244642
0.0273821
0.030331
0.0331988
0.0358821
0.0382989
0.0403944
0.042142
0.0435394
0.0446033
0.0453637
0.0458587
0.0461295
0.0462168
0.0461586
0.045988
0.0457328
0.0454156
0.0450535
0.0446623
0.044246
0.0438363
0.0433959
0.0432096
0.000721463
0.000735751
0.000756373
0.000783642
0.000817524
0.000857804
0.000904194
0.00095639
0.0010141
0.00107706
0.00114499
0.00121765
0.00129476
0.00137606
0.00146123
0.00154997
0.00164191
0.00173669
0.00183389
0.00193308
0.0020338
0.00213558
0.00223795
0.00234042
0.00244253
0.00254383
0.0026439
0.0027424
0.002839
0.0029335
0.00302576
0.00311575
0.00320357
0.00328945
0.00337379
0.00345715
0.00354031
0.00362429
0.0037104
0.00380028
0.00389606
0.00400045
0.00411697
0.00425032
0.0044068
0.00459502
0.00482663
0.0051172
0.0054869
0.00596065
0.00656742
0.00733844
0.00830429
0.00949099
0.0109152
0.0125794
0.0144673
0.0165416
0.018745
0.0210051
0.0232425
0.0253805
0.0273535
0.0291128
0.0306283
0.0318879