/*--------------------------------*- C++ -*----------------------------------*\
| =========                 |                                                 |
| \\      /  F ield         | OpenFOAM: The Open Source CFD Toolbox           |
|  \\    /   O peration     | Version:  2.4.0                                 |
|   \\  /    A nd           | Web:      www.OpenFOAM.org                      |
|    \\/     M anipulation  |                                                 |
\*---------------------------------------------------------------------------*/
FoamFile
{
    version     2.0;
    format      ascii;
    class       volScalarField;
    location    "210";
    object      p;
}
// * * * * * * * * * * * * * * * * * * * * * * * * * * * * * * * * * * * * * //

dimensions      [0 2 -2 0 0 0 0];

internalField   nonuniform List<scalar> 
10000
(
0.0226971
0.022782
0.0230535
0.0233685
0.0237402
0.024145
0.024573
0.0250151
0.0254641
0.0259139
0.0263584
0.0267916
0.0272067
0.0275953
0.0279491
0.028267
0.0285608
0.0289487
0.0301137
0.0337257
0.0226951
0.0227796
0.0230496
0.0233633
0.0237329
0.0241352
0.0245603
0.0249986
0.0254432
0.0258878
0.0263263
0.0267528
0.0271611
0.0275431
0.0278907
0.0282006
0.0284825
0.0288609
0.0298702
0.0330109
0.0226922
0.0227763
0.0230447
0.0233567
0.0237241
0.0241237
0.0245453
0.0249795
0.025419
0.0258574
0.0262889
0.0267074
0.0271069
0.0274798
0.0278179
0.0281148
0.0283718
0.0286543
0.0291792
0.030519
0.0226882
0.0227719
0.0230387
0.023349
0.023714
0.0241106
0.0245284
0.0249579
0.0253917
0.0258232
0.0262463
0.0266551
0.0270435
0.027404
0.0277283
0.0280089
0.0282429
0.0284626
0.0287417
0.0292665
0.0226829
0.0227663
0.0230313
0.0233396
0.0237019
0.0240952
0.0245087
0.0249329
0.0253601
0.0257836
0.0261969
0.0265942
0.0269691
0.0273143
0.0276214
0.0278822
0.0280908
0.0282596
0.0284085
0.0285799
0.0226763
0.0227594
0.0230223
0.0233286
0.0236878
0.0240771
0.0244858
0.0249039
0.0253236
0.0257378
0.02614
0.0265241
0.0268834
0.0272108
0.027498
0.0277365
0.0279183
0.028044
0.0281125
0.0281213
0.0226683
0.022751
0.0230116
0.0233155
0.0236712
0.0240562
0.0244594
0.0248707
0.0252819
0.0256858
0.0260755
0.0264447
0.0267868
0.0270945
0.0273598
0.0275743
0.0277292
0.0278188
0.0278339
0.0277616
0.0226587
0.0227411
0.0229991
0.0233003
0.0236522
0.0240323
0.0244294
0.024833
0.0252348
0.0256273
0.0260033
0.0263564
0.0266797
0.0269663
0.0272085
0.0273985
0.0275276
0.0275883
0.0275698
0.0274607
0.0226475
0.0227294
0.0229846
0.0232828
0.0236304
0.0240051
0.0243954
0.0247906
0.0251822
0.0255622
0.0259235
0.0262593
0.026563
0.0268276
0.0270463
0.027212
0.0273174
0.0273552
0.0273167
0.0271944
0.0226345
0.022716
0.0229681
0.023263
0.0236057
0.0239746
0.0243573
0.0247434
0.0251238
0.0254905
0.0258362
0.0261539
0.0264372
0.0266796
0.026875
0.0270176
0.0271016
0.0271217
0.0270719
0.0269487
0.0226196
0.0227006
0.0229493
0.0232405
0.023578
0.0239403
0.024315
0.0246912
0.0250596
0.0254122
0.0257415
0.0260406
0.0263032
0.0265235
0.0266964
0.0268174
0.0268827
0.0268891
0.0268337
0.0267156
0.0226028
0.0226831
0.0229281
0.0232153
0.0235472
0.0239024
0.0242683
0.0246339
0.0249896
0.0253274
0.0256397
0.0259198
0.0261618
0.0263607
0.0265122
0.0266135
0.0266627
0.0266587
0.0266008
0.0264908
0.0225837
0.0226634
0.0229044
0.0231872
0.0235129
0.0238605
0.024217
0.0245712
0.0249137
0.0252361
0.025531
0.025792
0.0260138
0.026192
0.0263238
0.0264075
0.0264429
0.0264309
0.0263729
0.0262716
0.0225625
0.0226413
0.0228781
0.0231562
0.0234751
0.0238145
0.024161
0.0245034
0.024832
0.0251385
0.0254158
0.0256579
0.02586
0.0260187
0.0261322
0.0262004
0.0262244
0.0262065
0.0261494
0.0260569
0.0225389
0.0226167
0.0228489
0.0231219
0.0234337
0.0237643
0.0241003
0.0244301
0.0247443
0.0250347
0.0252943
0.0255178
0.025701
0.0258415
0.0259386
0.0259932
0.0260077
0.0259855
0.0259301
0.0258459
0.0225127
0.0225896
0.0228168
0.0230843
0.0233885
0.0237099
0.0240347
0.0243516
0.024651
0.024925
0.0251671
0.0253724
0.0255376
0.0256611
0.0257434
0.0257864
0.0257933
0.025768
0.0257149
0.0256383
0.0224839
0.0225596
0.0227816
0.0230432
0.0233393
0.023651
0.0239642
0.0242677
0.024552
0.0248096
0.0250344
0.0252221
0.0253702
0.0254783
0.0255475
0.0255805
0.0255811
0.025554
0.0255033
0.0254337
0.0224523
0.0225268
0.0227433
0.0229986
0.0232862
0.0235876
0.0238888
0.0241785
0.0244475
0.0246887
0.0248965
0.0250674
0.0251996
0.0252935
0.0253511
0.0253756
0.0253714
0.0253431
0.0252951
0.025232
0.0224178
0.0224908
0.0227015
0.0229501
0.0232288
0.0235196
0.0238083
0.0240839
0.0243376
0.0245626
0.0247539
0.0249087
0.0250261
0.0251071
0.0251545
0.0251719
0.0251639
0.0251351
0.02509
0.0250326
0.0223802
0.0224517
0.0226564
0.0228979
0.0231673
0.0234469
0.0237229
0.0239843
0.0242226
0.0244315
0.0246068
0.0247464
0.0248501
0.0249195
0.0249579
0.0249693
0.0249584
0.0249297
0.0248873
0.0248355
0.0223393
0.0224092
0.0226075
0.0228416
0.0231013
0.0233695
0.0236324
0.0238794
0.0241024
0.0242957
0.0244557
0.0245809
0.0246719
0.0247309
0.0247615
0.0247679
0.0247547
0.0247264
0.024687
0.0246401
0.0222951
0.0223633
0.022555
0.0227813
0.023031
0.0232875
0.0235371
0.0237696
0.0239775
0.0241555
0.0243007
0.0244124
0.0244918
0.0245414
0.0245652
0.0245675
0.0245527
0.024525
0.0244884
0.0244461
0.0222474
0.0223137
0.0224985
0.0227167
0.0229561
0.0232005
0.0234367
0.0236548
0.0238478
0.024011
0.0241422
0.0242413
0.02431
0.0243513
0.0243691
0.0243679
0.0243519
0.0243252
0.0242912
0.0242532
0.022196
0.0222603
0.022438
0.0226479
0.0228767
0.0231089
0.0233315
0.0235353
0.0237136
0.0238626
0.0239805
0.0240678
0.0241267
0.0241605
0.0241732
0.0241691
0.0241523
0.0241265
0.0240952
0.024061
0.0221408
0.022203
0.0223734
0.0225746
0.0227926
0.0230124
0.0232215
0.023411
0.0235751
0.0237103
0.0238157
0.0238921
0.0239421
0.0239691
0.0239773
0.0239708
0.0239534
0.0239288
0.0238999
0.0238694
0.0220817
0.0221417
0.0223046
0.022497
0.0227039
0.0229112
0.0231068
0.0232823
0.0234325
0.0235546
0.023648
0.0237143
0.0237562
0.0237772
0.0237815
0.023773
0.0237552
0.0237317
0.0237052
0.023678
0.0220184
0.0220761
0.0222314
0.0224146
0.0226104
0.0228051
0.0229873
0.0231491
0.0232858
0.0233954
0.0234777
0.0235346
0.0235691
0.0235848
0.0235856
0.0235753
0.0235575
0.0235351
0.0235107
0.0234866
0.021951
0.0220063
0.0221538
0.0223277
0.0225123
0.0226944
0.0228633
0.0230116
0.0231355
0.0232331
0.0233049
0.0233532
0.0233809
0.0233917
0.0233895
0.0233779
0.0233599
0.0233386
0.0233163
0.0232949
0.0218791
0.0219319
0.0220716
0.022236
0.0224093
0.0225789
0.0227346
0.02287
0.0229814
0.0230677
0.0231298
0.02317
0.0231915
0.0231981
0.0231932
0.0231803
0.0231624
0.0231421
0.0231217
0.0231029
0.0218029
0.0218531
0.0219848
0.0221397
0.0223016
0.0224588
0.0226017
0.0227244
0.0228238
0.0228994
0.0229524
0.0229852
0.0230012
0.0230038
0.0229966
0.0229827
0.0229648
0.0229456
0.0229268
0.0229104
0.0217219
0.0217695
0.0218932
0.0220384
0.022189
0.0223339
0.0224643
0.0225748
0.0226628
0.0227284
0.0227728
0.0227988
0.0228097
0.0228089
0.0227995
0.0227847
0.022767
0.0227486
0.0227315
0.0227171
0.0216363
0.0216812
0.0217968
0.0219324
0.0220718
0.0222046
0.0223228
0.0224214
0.0224987
0.0225547
0.0225912
0.022611
0.0226172
0.0226132
0.022602
0.0225864
0.0225688
0.0225512
0.0225355
0.022523
0.0215458
0.0215879
0.0216956
0.0218214
0.0219497
0.0220707
0.022177
0.0222644
0.0223313
0.0223784
0.0224076
0.0224216
0.0224236
0.0224167
0.0224038
0.0223875
0.0223701
0.0223533
0.0223389
0.022328
0.0214504
0.0214898
0.0215894
0.0217056
0.021823
0.0219324
0.0220273
0.0221038
0.022161
0.0221997
0.0222221
0.0222307
0.0222289
0.0222193
0.022205
0.022188
0.0221708
0.0221546
0.0221414
0.022132
0.0213499
0.0213865
0.0214782
0.0215848
0.0216914
0.0217897
0.0218734
0.0219397
0.0219877
0.0220186
0.0220346
0.0220384
0.022033
0.0220211
0.0220054
0.0219879
0.0219707
0.0219553
0.021943
0.021935
0.0212443
0.0212781
0.0213621
0.0214592
0.0215553
0.0216426
0.0217158
0.0217722
0.0218116
0.0218352
0.0218453
0.0218447
0.021836
0.021822
0.021805
0.021787
0.0217699
0.021755
0.0217436
0.0217367
0.0211335
0.0211645
0.0212408
0.0213286
0.0214145
0.0214913
0.0215543
0.0216014
0.0216327
0.0216495
0.0216542
0.0216494
0.0216378
0.0216218
0.0216037
0.0215853
0.0215682
0.0215538
0.0215431
0.0215372
0.0210175
0.0210458
0.0211145
0.0211932
0.0212691
0.0213358
0.0213891
0.0214275
0.0214511
0.0214616
0.0214613
0.0214527
0.0214383
0.0214206
0.0214014
0.0213826
0.0213655
0.0213515
0.0213415
0.0213364
0.0208961
0.0209216
0.020983
0.0210528
0.0211191
0.0211761
0.0212202
0.0212503
0.0212668
0.0212714
0.0212665
0.0212544
0.0212376
0.0212182
0.0211981
0.0211789
0.0211619
0.0211481
0.0211387
0.0211343
0.0207694
0.0207922
0.0208464
0.0209076
0.0209647
0.0210124
0.0210478
0.0210701
0.0210799
0.0210791
0.0210699
0.0210547
0.0210356
0.0210147
0.0209937
0.0209741
0.0209571
0.0209436
0.0209346
0.0209307
0.0206373
0.0206574
0.0207047
0.0207575
0.0208057
0.0208446
0.0208718
0.0208868
0.0208905
0.0208846
0.0208715
0.0208533
0.0208322
0.0208099
0.0207881
0.0207682
0.0207511
0.0207378
0.0207292
0.0207257
0.0204998
0.0205173
0.0205579
0.0206027
0.0206424
0.0206729
0.0206924
0.0207005
0.0206985
0.020688
0.0206713
0.0206504
0.0206274
0.0206039
0.0205814
0.020561
0.0205439
0.0205307
0.0205224
0.0205192
0.0203567
0.0203717
0.020406
0.0204431
0.0204747
0.0204973
0.0205095
0.0205113
0.020504
0.0204893
0.0204693
0.020446
0.0204212
0.0203965
0.0203733
0.0203527
0.0203354
0.0203223
0.0203141
0.0203113
0.0202084
0.0202209
0.0202491
0.0202788
0.0203027
0.0203179
0.0203233
0.0203193
0.020307
0.0202884
0.0202654
0.0202398
0.0202135
0.0201878
0.0201639
0.0201429
0.0201256
0.0201125
0.0201044
0.0201017
0.0200545
0.0200647
0.020087
0.0201098
0.0201265
0.0201347
0.0201338
0.0201243
0.0201075
0.0200853
0.0200596
0.020032
0.0200042
0.0199776
0.0199532
0.0199319
0.0199143
0.0199013
0.0198932
0.0198905
0.0198953
0.0199033
0.0199201
0.0199362
0.0199461
0.0199479
0.0199411
0.0199265
0.0199056
0.0198802
0.0198519
0.0198225
0.0197934
0.0197659
0.0197409
0.0197193
0.0197016
0.0196885
0.0196804
0.0196777
0.0197308
0.0197366
0.0197482
0.0197581
0.0197616
0.0197573
0.0197451
0.0197259
0.0197013
0.0196729
0.0196423
0.0196113
0.019581
0.0195527
0.0195273
0.0195053
0.0194875
0.0194742
0.019466
0.0194632
0.019561
0.0195647
0.0195715
0.0195755
0.0195731
0.0195632
0.019546
0.0195226
0.0194945
0.0194634
0.0194308
0.0193983
0.019367
0.0193379
0.019312
0.0192898
0.0192718
0.0192583
0.01925
0.019247
0.0193859
0.0193877
0.0193899
0.0193885
0.0193806
0.0193655
0.0193438
0.0193165
0.0192853
0.0192518
0.0192174
0.0191835
0.0191512
0.0191216
0.0190952
0.0190727
0.0190545
0.0190409
0.0190324
0.0190291
0.0192057
0.0192057
0.0192037
0.0191971
0.0191842
0.0191644
0.0191384
0.0191077
0.0190737
0.019038
0.0190019
0.0189668
0.0189338
0.0189035
0.0188767
0.0188539
0.0188355
0.0188217
0.018813
0.0188095
0.0190203
0.0190186
0.0190127
0.0190015
0.0189839
0.0189598
0.0189301
0.0188962
0.0188597
0.018822
0.0187845
0.0187483
0.0187145
0.0186838
0.0186566
0.0186336
0.0186149
0.0186009
0.018592
0.0185881
0.0188301
0.0188268
0.0188173
0.0188018
0.0187799
0.0187518
0.0187187
0.018682
0.0186432
0.0186038
0.018565
0.018528
0.0184935
0.0184623
0.0184348
0.0184115
0.0183927
0.0183784
0.0183692
0.018365
0.0186349
0.0186301
0.0186174
0.018598
0.0185722
0.0185406
0.0185044
0.0184652
0.0184244
0.0183835
0.0183436
0.0183057
0.0182706
0.018239
0.0182113
0.0181877
0.0181686
0.0181542
0.0181446
0.0181401
0.018435
0.0184289
0.0184132
0.0183902
0.0183609
0.0183261
0.0182872
0.0182457
0.0182032
0.018161
0.0181201
0.0180815
0.018046
0.018014
0.017986
0.0179622
0.0179429
0.0179282
0.0179183
0.0179134
0.0182303
0.018223
0.0182046
0.0181785
0.018146
0.0181084
0.0180671
0.0180237
0.0179796
0.0179362
0.0178945
0.0178554
0.0178194
0.0177872
0.0177589
0.017735
0.0177154
0.0177005
0.0176903
0.0176849
0.0180213
0.0180129
0.0179921
0.017963
0.0179278
0.0178877
0.0178442
0.0177991
0.0177537
0.0177094
0.0176669
0.0176273
0.017591
0.0175585
0.01753
0.0175059
0.0174862
0.017471
0.0174604
0.0174546
0.0178077
0.0177983
0.0177754
0.0177438
0.0177061
0.0176638
0.0176186
0.017572
0.0175255
0.0174803
0.0174373
0.0173973
0.0173607
0.017328
0.0172994
0.0172751
0.0172552
0.0172397
0.0172289
0.0172226
0.0175901
0.0175798
0.017555
0.0175212
0.0174813
0.0174371
0.0173902
0.0173424
0.017295
0.0172491
0.0172057
0.0171653
0.0171286
0.0170957
0.017067
0.0170425
0.0170224
0.0170067
0.0169955
0.0169888
0.0173682
0.0173572
0.0173308
0.017295
0.0172533
0.0172074
0.0171593
0.0171104
0.0170622
0.0170158
0.016972
0.0169315
0.0168945
0.0168616
0.0168328
0.0168082
0.0167879
0.016772
0.0167605
0.0167533
0.0171426
0.0171308
0.017103
0.0170655
0.0170222
0.016975
0.0169257
0.016876
0.0168273
0.0167804
0.0167364
0.0166957
0.0166587
0.0166256
0.0165968
0.0165721
0.0165517
0.0165355
0.0165237
0.0165161
0.0169131
0.0169008
0.0168718
0.0168329
0.0167882
0.0167399
0.0166897
0.0166393
0.0165901
0.016543
0.0164988
0.016458
0.016421
0.016388
0.016359
0.0163343
0.0163138
0.0162974
0.0162853
0.0162773
0.0166801
0.0166673
0.0166373
0.0165972
0.0165514
0.0165022
0.0164513
0.0164004
0.0163509
0.0163036
0.0162594
0.0162186
0.0161815
0.0161485
0.0161196
0.0160948
0.0160741
0.0160576
0.0160451
0.0160368
0.0164436
0.0164304
0.0163996
0.0163586
0.0163119
0.016262
0.0162106
0.0161594
0.0161096
0.0160623
0.016018
0.0159773
0.0159403
0.0159074
0.0158785
0.0158537
0.0158329
0.0158162
0.0158035
0.0157947
0.016204
0.0161905
0.016159
0.0161172
0.0160699
0.0160194
0.0159676
0.0159162
0.0158664
0.0158191
0.0157749
0.0157343
0.0156974
0.0156646
0.0156357
0.0156109
0.01559
0.0155732
0.0155602
0.0155511
0.0159614
0.0159476
0.0159156
0.0158733
0.0158254
0.0157746
0.0157226
0.0156711
0.0156213
0.0155741
0.0155301
0.0154896
0.015453
0.0154202
0.0153915
0.0153667
0.0153458
0.0153288
0.0153156
0.0153062
0.015716
0.0157019
0.0156697
0.0156269
0.0155787
0.0155276
0.0154756
0.0154242
0.0153745
0.0153275
0.0152837
0.0152434
0.0152069
0.0151744
0.0151457
0.0151209
0.0151001
0.0150829
0.0150695
0.0150598
0.0154679
0.0154537
0.0154212
0.0153782
0.0153298
0.0152787
0.0152267
0.0151754
0.015126
0.0150792
0.0150357
0.0149957
0.0149595
0.0149271
0.0148986
0.0148739
0.0148531
0.0148358
0.0148223
0.0148123
0.0152175
0.0152032
0.0151706
0.0151274
0.015079
0.015028
0.0149761
0.0149251
0.014876
0.0148295
0.0147863
0.0147466
0.0147107
0.0146785
0.0146502
0.0146256
0.0146047
0.0145874
0.0145737
0.0145634
0.0149649
0.0149506
0.014918
0.0148748
0.0148264
0.0147755
0.014724
0.0146733
0.0146245
0.0145784
0.0145356
0.0144963
0.0144606
0.0144288
0.0144006
0.0143762
0.0143554
0.0143381
0.0143242
0.0143137
0.0147104
0.0146961
0.0146635
0.0146204
0.0145722
0.0145217
0.0144704
0.0144201
0.0143718
0.0143261
0.0142837
0.0142448
0.0142095
0.0141779
0.01415
0.0141257
0.0141049
0.0140876
0.0140736
0.0140629
0.0144542
0.0144398
0.0144074
0.0143645
0.0143167
0.0142664
0.0142157
0.0141658
0.0141179
0.0140728
0.0140308
0.0139923
0.0139574
0.0139261
0.0138985
0.0138744
0.0138537
0.0138364
0.0138223
0.0138114
0.0141965
0.0141822
0.01415
0.0141074
0.0140599
0.0140101
0.0139598
0.0139105
0.0138631
0.0138185
0.0137771
0.013739
0.0137045
0.0136736
0.0136461
0.0136222
0.0136017
0.0135844
0.0135703
0.0135592
0.0139375
0.0139233
0.0138914
0.0138492
0.0138021
0.0137528
0.0137031
0.0136543
0.0136076
0.0135635
0.0135226
0.013485
0.0134509
0.0134203
0.0133932
0.0133695
0.0133491
0.0133318
0.0133177
0.0133066
0.0136776
0.0136635
0.0136319
0.0135901
0.0135435
0.0134948
0.0134457
0.0133976
0.0133514
0.013308
0.0132676
0.0132305
0.0131968
0.0131667
0.0131398
0.0131164
0.0130961
0.013079
0.0130648
0.0130536
0.0134169
0.013403
0.0133717
0.0133305
0.0132844
0.0132363
0.0131879
0.0131404
0.0130949
0.0130521
0.0130123
0.0129757
0.0129426
0.0129127
0.0128863
0.012863
0.012843
0.0128259
0.0128118
0.0128004
0.0131559
0.0131421
0.0131113
0.0130705
0.0130251
0.0129776
0.0129299
0.0128831
0.0128383
0.0127961
0.0127569
0.0127208
0.0126881
0.0126587
0.0126326
0.0126097
0.0125898
0.0125728
0.0125587
0.0125473
0.0128947
0.0128811
0.0128506
0.0128105
0.0127657
0.0127189
0.0126719
0.0126258
0.0125817
0.0125401
0.0125015
0.0124661
0.0124339
0.0124049
0.0123791
0.0123564
0.0123368
0.0123199
0.0123059
0.0122945
0.0126336
0.0126202
0.0125902
0.0125506
0.0125065
0.0124605
0.0124142
0.0123688
0.0123254
0.0122845
0.0122466
0.0122117
0.01218
0.0121514
0.012126
0.0121036
0.0120842
0.0120675
0.0120535
0.0120421
0.0123731
0.0123598
0.0123303
0.0122913
0.0122479
0.0122026
0.012157
0.0121125
0.0120698
0.0120296
0.0119922
0.0119579
0.0119267
0.0118986
0.0118736
0.0118515
0.0118323
0.0118158
0.0118019
0.0117905
0.0121133
0.0121003
0.0120713
0.0120329
0.0119902
0.0119456
0.0119008
0.0118569
0.011815
0.0117755
0.0117387
0.011705
0.0116743
0.0116466
0.011622
0.0116002
0.0115812
0.0115649
0.0115511
0.0115397
0.0118547
0.0118419
0.0118133
0.0117756
0.0117336
0.0116897
0.0116457
0.0116026
0.0115614
0.0115226
0.0114865
0.0114533
0.0114231
0.0113959
0.0113716
0.0113502
0.0113314
0.0113153
0.0113016
0.0112903
0.0115976
0.011585
0.0115569
0.0115198
0.0114785
0.0114354
0.0113921
0.0113498
0.0113092
0.0112711
0.0112356
0.011203
0.0111733
0.0111465
0.0111226
0.0111015
0.0110829
0.011067
0.0110534
0.0110421
0.0113424
0.01133
0.0113024
0.0112659
0.0112253
0.0111829
0.0111403
0.0110987
0.0110589
0.0110214
0.0109866
0.0109545
0.0109254
0.0108991
0.0108755
0.0108547
0.0108365
0.0108207
0.0108072
0.010796
0.0110896
0.0110773
0.0110502
0.0110143
0.0109743
0.0109326
0.0108908
0.0108498
0.0108107
0.0107738
0.0107395
0.010708
0.0106793
0.0106534
0.0106302
0.0106097
0.0105917
0.010576
0.0105627
0.0105515
0.0108395
0.0108274
0.0108007
0.0107654
0.010726
0.010685
0.0106438
0.0106036
0.0105651
0.0105288
0.0104952
0.0104642
0.010436
0.0104105
0.0103877
0.0103675
0.0103497
0.0103343
0.0103211
0.01031
0.0105926
0.0105807
0.0105544
0.0105196
0.0104808
0.0104404
0.0103998
0.0103602
0.0103222
0.0102865
0.0102533
0.0102228
0.0101949
0.0101698
0.0101473
0.0101273
0.0101097
0.0100945
0.0100814
0.0100703
0.0103495
0.0103377
0.0103118
0.0102774
0.0102391
0.0101993
0.0101593
0.0101203
0.010083
0.0100479
0.0100152
0.00998524
0.0099579
0.00993321
0.00991107
0.00989141
0.00987409
0.00985902
0.00984606
0.00983511
0.0101107
0.010099
0.0100734
0.0100394
0.0100015
0.00996214
0.00992263
0.00988404
0.00984712
0.00981236
0.00978003
0.0097503
0.00972318
0.00969869
0.00967672
0.00965722
0.00964003
0.00962506
0.00961217
0.00960126
0.00987676
0.00986521
0.00983978
0.00980608
0.00976859
0.00972963
0.00969059
0.00965254
0.00961618
0.00958201
0.00955027
0.0095211
0.00949452
0.00947049
0.00944894
0.00942976
0.00941284
0.00939806
0.00938531
0.00937447
0.00964845
0.00963694
0.00961162
0.00957809
0.00954078
0.009502
0.00946314
0.0094252
0.00938891
0.00935475
0.00932298
0.00929376
0.00926711
0.00924304
0.00922145
0.00920227
0.00918534
0.00917057
0.00915782
0.00914698
0.0094265
0.00941499
0.0093897
0.00935622
0.00931904
0.00928049
0.00924197
0.0092045
0.00916879
0.00913529
0.00910422
0.00907569
0.00904969
0.00902619
0.00900508
0.00898628
0.00896965
0.00895508
0.00894246
0.00893168
0.00921183
0.00920022
0.00917475
0.00914105
0.00910359
0.00906473
0.00902581
0.00898786
0.00895155
0.0089174
0.00888565
0.00885646
0.00882987
0.00880588
0.00878437
0.00876526
0.0087484
0.00873369
0.00872096
0.0087101
0.00900546
0.00899369
0.0089679
0.00893386
0.0088962
0.00885734
0.00881871
0.00878132
0.00874584
0.00871267
0.00868199
0.00865385
0.00862824
0.00860506
0.00858423
0.00856562
0.00854914
0.00853465
0.00852205
0.00851122
0.00880864
0.00879651
0.00876998
0.00873494
0.0086961
0.00865587
0.00861567
0.00857648
0.00853906
0.00850388
0.00847125
0.00844131
0.00841413
0.00838965
0.00836778
0.00834839
0.00833134
0.00831645
0.0083036
0.00829261
0.00862296
0.00861039
0.00858297
0.00854699
0.00850753
0.00846722
0.00842756
0.00838951
0.0083537
0.0083204
0.00828974
0.00826166
0.00823612
0.00821298
0.00819215
0.00817349
0.00815692
0.00814229
0.00812952
0.00811848
0.00845022
0.0084367
0.00840724
0.00836848
0.00832573
0.00828162
0.0082377
0.00819503
0.00815445
0.00811648
0.00808147
0.00804955
0.00802077
0.00799502
0.00797218
0.00795204
0.00793442
0.00791911
0.00790594
0.00789473
0.00829338
0.00827893
0.00824765
0.00820727
0.00816383
0.00812029
0.00807814
0.00803826
0.00800111
0.00796686
0.00793544
0.00790675
0.00788063
0.00785695
0.00783558
0.0078164
0.0077993
0.00778417
0.0077709
0.00775938
0.00815498
0.00813766
0.00810044
0.00805225
0.0079999
0.00794665
0.00789425
0.00784403
0.00779689
0.00775343
0.00771389
0.00767837
0.00764674
0.00761881
0.00759431
0.00757295
0.00755444
0.00753851
0.00752491
0.00751343
0.00804273
0.00802415
0.00798505
0.00793622
0.00788499
0.00783451
0.00778628
0.00774116
0.00769955
0.00766151
0.00762686
0.00759544
0.00756699
0.00754133
0.00751826
0.00749763
0.00747928
0.00746309
0.0074489
0.0074366
0.00795731
0.0079219
0.0078612
0.00779097
0.00771877
0.00764773
0.00757975
0.00751634
0.00745836
0.00740624
0.00735994
0.00731923
0.00728369
0.00725288
0.00722627
0.00720343
0.00718392
0.00716735
0.00715341
0.00714182
0.033719
0.0313279
0.0291635
0.0278123
0.0268472
0.0260032
0.0252362
0.0245434
0.0239092
0.0233164
0.0227534
0.0222131
0.0216904
0.0211808
0.020681
0.0201881
0.0197
0.0192149
0.0187322
0.0182516
0.0177743
0.0173021
0.0168383
0.016387
0.0159532
0.015542
0.0151584
0.014806
0.0144869
0.0142011
0.0139462
0.0137176
0.0135097
0.0133158
0.0131295
0.0129447
0.0127571
0.0125628
0.0123596
0.012146
0.0119216
0.011686
0.0114397
0.0111828
0.0109166
0.0106412
0.0103571
0.0100646
0.00976493
0.00945794
0.00914401
0.00882343
0.0084965
0.00816334
0.00782413
0.00747922
0.00712859
0.00677239
0.00641079
0.00604409
0.00567243
0.00529602
0.00491548
0.0045307
0.00414252
0.00375142
0.00335804
0.00296322
0.00256749
0.00217398
0.00177945
0.00138798
0.0010012
0.000617356
0.000251168
-0.000154092
-0.000403766
-0.00101903
-0.000587689
-0.00287986
0.0342621
0.0323673
0.0304459
0.029101
0.0280429
0.0270834
0.0261939
0.0253766
0.0246225
0.023919
0.0232569
0.02263
0.022033
0.0214611
0.0209098
0.0203753
0.0198545
0.0193446
0.0188439
0.0183516
0.0178679
0.0173943
0.0169332
0.016488
0.0160627
0.0156613
0.0152875
0.0149438
0.0146312
0.0143489
0.0140942
0.0138627
0.0136492
0.0134478
0.0132529
0.0130592
0.0128628
0.0126604
0.01245
0.01223
0.0120002
0.01176
0.0115098
0.0112496
0.0109805
0.0107025
0.0104161
0.0101215
0.00981977
0.00951086
0.00919508
0.00887271
0.00854402
0.00820914
0.00786823
0.00752167
0.0071694
0.00681159
0.00644843
0.0060802
0.00570704
0.00532917
0.00494721
0.00456105
0.00417154
0.00377915
0.00338453
0.00298852
0.00259164
0.00219701
0.00180144
0.00140895
0.00102124
0.000636355
0.000269514
-0.000137065
-0.000386337
-0.00100541
-0.000566812
-0.00287806
0.0311563
0.030233
0.0289639
0.0278919
0.0269793
0.0261434
0.025368
0.0246542
0.0239956
0.0233818
0.0228045
0.022257
0.0217339
0.0212308
0.0207437
0.0202693
0.0198049
0.0193485
0.0188989
0.0184553
0.0180179
0.0175876
0.0171661
0.0167557
0.0163594
0.0159802
0.015621
0.0152839
0.0149701
0.0146796
0.0144107
0.0141607
0.013926
0.013702
0.0134846
0.0132695
0.0130535
0.0128335
0.0126077
0.0123745
0.0121334
0.0118835
0.0116252
0.0113579
0.0110827
0.0107994
0.0105083
0.0102096
0.00990403
0.00959164
0.00927263
0.00894724
0.00861571
0.00827814
0.00793467
0.00758565
0.00723103
0.00687097
0.00650563
0.0061353
0.00576011
0.00538028
0.00499642
0.00460843
0.00421713
0.00382301
0.0034267
0.00302906
0.0026306
0.00223435
0.00183732
0.00144336
0.00105431
0.000667761
0.000300096
-0.000108911
-0.00035662
-0.000984457
-0.000529028
-0.00289059
0.0295243
0.0291446
0.0284084
0.0276319
0.0268902
0.0261731
0.0254808
0.0248204
0.0241936
0.0235976
0.0230291
0.0224851
0.021963
0.0214603
0.0209745
0.0205033
0.0200449
0.0195973
0.0191592
0.0187295
0.0183076
0.0178935
0.0174878
0.0170917
0.0167071
0.0163361
0.0159809
0.0156434
0.0153248
0.0150253
0.0147441
0.014479
0.0142272
0.0139852
0.0137496
0.0135166
0.0132834
0.0130474
0.012807
0.0125603
0.0123071
0.0120464
0.0117782
0.0115022
0.0112191
0.0109285
0.0106309
0.0103262
0.0100152
0.00969766
0.00937391
0.0090441
0.00870841
0.00836694
0.0080198
0.0076673
0.00730939
0.00694622
0.00657792
0.00620478
0.00582691
0.00544454
0.00505822
0.0046679
0.00427436
0.00387807
0.00347968
0.00308003
0.00267961
0.00228138
0.00188255
0.00148676
0.00109604
0.00070739
0.000338722
-7.34284e-05
-0.000319226
-0.000958578
-0.000482834
-0.00291111
0.0285779
0.0282718
0.0277444
0.0271357
0.0265098
0.0258813
0.0252596
0.0246549
0.0240731
0.0235154
0.0229813
0.0224694
0.021978
0.0215053
0.021049
0.0206071
0.0201776
0.0197586
0.0193484
0.0189457
0.0185494
0.0181593
0.0177752
0.0173978
0.0170285
0.0166688
0.0163206
0.0159857
0.0156653
0.0153601
0.0150696
0.0147926
0.0145269
0.0142699
0.0140186
0.01377
0.0135217
0.0132714
0.0130175
0.0127584
0.0124937
0.0122225
0.0119448
0.01166
0.0113689
0.0110709
0.0107666
0.0104556
0.0101387
0.00981577
0.00948695
0.00915237
0.0088122
0.0084665
0.00811536
0.00775905
0.00739754
0.00703094
0.00665939
0.00628314
0.00590232
0.00551711
0.00512807
0.00473516
0.00433911
0.0039404
0.00353966
0.00313774
0.00273513
0.00233462
0.00193375
0.00153585
0.0011432
0.000752115
0.000382266
-3.35389e-05
-0.000277221
-0.000929913
-0.000432615
-0.00293521
0.0279899
0.0276796
0.0272413
0.0267358
0.0262001
0.0256503
0.0250971
0.0245503
0.0240165
0.023499
0.022999
0.0225167
0.0220514
0.0216022
0.0211676
0.0207461
0.0203361
0.019936
0.0195441
0.019159
0.0187798
0.0184057
0.0180364
0.0176721
0.0173138
0.0169626
0.01662
0.0162876
0.0159666
0.0156577
0.0153609
0.0150752
0.0147992
0.0145306
0.0142671
0.0140063
0.0137459
0.0134839
0.0132188
0.0129494
0.012675
0.0123948
0.0121087
0.0118163
0.011518
0.0112134
0.0109029
0.0105862
0.010264
0.00993603
0.00960247
0.00926344
0.00891903
0.00856932
0.00821438
0.00785444
0.00748946
0.00711956
0.00674485
0.00636555
0.00598181
0.0055938
0.00520203
0.00480651
0.00440791
0.00400673
0.00360357
0.00319928
0.00279436
0.00239145
0.00198839
0.00158823
0.00119352
0.000799793
0.000428658
8.872e-06
-0.00023277
-0.000899879
-0.000380781
-0.00296029
0.0275713
0.0272613
0.026871
0.0264287
0.0259555
0.025465
0.0249668
0.0244691
0.023978
0.0234974
0.0230293
0.0225747
0.0221339
0.0217065
0.0212915
0.0208878
0.0204943
0.0201093
0.0197316
0.0193599
0.0189932
0.0186305
0.0182717
0.0179168
0.0175662
0.0172211
0.0168826
0.0165521
0.0162307
0.0159191
0.0156175
0.0153252
0.0150412
0.0147637
0.0144907
0.01422
0.0139499
0.0136784
0.0134044
0.0131264
0.0128439
0.0125562
0.0122632
0.0119642
0.0116598
0.0113496
0.0110337
0.010712
0.0103851
0.0100526
0.00971488
0.00937186
0.00902366
0.00867034
0.00831195
0.0079487
0.00758056
0.00720762
0.00683
0.00644788
0.00606142
0.00567078
0.00527644
0.00487842
0.00447739
0.0040738
0.00366829
0.00326168
0.00285446
0.00244914
0.0020439
0.00164145
0.00124464
0.000848195
0.00047574
5.18372e-05
-0.000187673
-0.000869786
-0.0003293
-0.00298501
0.0272509
0.0269519
0.0265963
0.0261983
0.025771
0.0253258
0.0248712
0.0244139
0.0239592
0.023511
0.0230716
0.0226423
0.0222238
0.0218161
0.0214187
0.0210308
0.0206512
0.0202789
0.0199127
0.0195514
0.0191941
0.01884
0.0184888
0.0181404
0.0177954
0.0174544
0.0171186
0.0167891
0.016467
0.016153
0.0158473
0.0155496
0.0152589
0.0149739
0.0146929
0.0144141
0.0141358
0.0138564
0.0135747
0.0132895
0.0130002
0.012706
0.012407
0.0121024
0.0117927
0.0114775
0.0111569
0.0108309
0.0104997
0.0101633
0.00982181
0.00947523
0.00912362
0.00876704
0.00840554
0.00803929
0.00766827
0.00729256
0.00691226
0.00652756
0.00613859
0.0057455
0.00534876
0.00494841
0.00454508
0.00413922
0.00373145
0.00332261
0.00291319
0.00250554
0.00209817
0.00169348
0.00129462
0.000895521
0.000521792
9.38077e-05
-0.000143807
-0.000840831
-0.000280114
-0.0030089
0.026986
0.0267058
0.0263809
0.0260193
0.0256295
0.0252214
0.0248026
0.0243791
0.0239558
0.0235361
0.0231223
0.022716
0.022318
0.0219285
0.0215471
0.0211733
0.0208063
0.0204451
0.0200887
0.019736
0.0193862
0.0190388
0.0186933
0.0183498
0.0180087
0.0176705
0.0173364
0.0170072
0.016684
0.0163675
0.016058
0.0157553
0.0154586
0.015167
0.0148789
0.0145929
0.0143074
0.0140209
0.0137324
0.0134408
0.0131454
0.0128456
0.0125411
0.0122315
0.011917
0.0115974
0.0112726
0.0109426
0.0106077
0.0102677
0.00992272
0.00957288
0.00921813
0.00885857
0.0084942
0.00812517
0.00775149
0.00737321
0.00699043
0.00660331
0.00621199
0.00581662
0.00541762
0.00501507
0.00460956
0.00420154
0.00379164
0.00338066
0.00296913
0.00255924
0.00214983
0.00174299
0.00134216
0.000940485
0.000565525
0.000133601
-0.000102139
-0.000813645
-0.000234427
-0.00303122
0.0267526
0.0264962
0.0262019
0.0258739
0.0255182
0.025143
0.0247557
0.0243618
0.023966
0.0235716
0.0231809
0.0227955
0.0224162
0.0220434
0.0216768
0.021316
0.0209603
0.020609
0.0202611
0.0199157
0.0195723
0.0192303
0.0188893
0.0185494
0.018211
0.0178747
0.0175414
0.017212
0.0168874
0.0165682
0.016255
0.0159475
0.0156453
0.0153475
0.0150529
0.0147602
0.014468
0.014175
0.0138803
0.0135827
0.0132816
0.0129765
0.0126671
0.0123529
0.0120339
0.0117101
0.0113814
0.0110477
0.0107093
0.0103659
0.0100178
0.00966487
0.00930719
0.00894481
0.00857774
0.00820611
0.00782991
0.0074492
0.00706406
0.00667465
0.0062811
0.00588354
0.00548239
0.00507774
0.00467014
0.00426005
0.0038481
0.00343507
0.0030215
0.00260948
0.00219811
0.0017892
0.00138651
0.000982415
0.000606294
0.000170671
-6.36556e-05
-0.000788683
-0.000193283
-0.00305166
0.0265369
0.026307
0.0260433
0.0257482
0.0254253
0.0250816
0.0247236
0.0243571
0.0239865
0.0236152
0.0232457
0.0228795
0.0225175
0.0221602
0.0218073
0.0214586
0.0211134
0.0207711
0.0204309
0.0200922
0.0197542
0.0194166
0.0190793
0.0187423
0.0184058
0.0180707
0.0177376
0.0174074
0.017081
0.0167592
0.0164422
0.0161301
0.0158225
0.0155188
0.015218
0.014919
0.0146204
0.0143213
0.0140205
0.0137173
0.0134108
0.0131007
0.0127864
0.0124678
0.0121446
0.0118169
0.0114844
0.0111472
0.0108053
0.0104587
0.0101075
0.00975168
0.00939118
0.0090261
0.00865643
0.00828228
0.00790366
0.00752061
0.00713319
0.00674156
0.00634584
0.00594618
0.00554294
0.00513625
0.00472662
0.00431453
0.00390058
0.00348558
0.00307005
0.00265596
0.00224271
0.00183184
0.00142736
0.00102097
0.000643709
0.000204662
-2.84335e-05