/*--------------------------------*- C++ -*----------------------------------*\
| =========                 |                                                 |
| \\      /  F ield         | OpenFOAM: The Open Source CFD Toolbox           |
|  \\    /   O peration     | Version:  2.4.0                                 |
|   \\  /    A nd           | Web:      www.OpenFOAM.org                      |
|    \\/     M anipulation  |                                                 |
\*---------------------------------------------------------------------------*/
FoamFile
{
    version     2.0;
    format      ascii;
    class       volScalarField;
    location    "0.77";
    object      epsilon;
}
// * * * * * * * * * * * * * * * * * * * * * * * * * * * * * * * * * * * * * //

dimensions      [0 2 -3 0 0 0 0];

internalField   nonuniform List<scalar> 
6000
(
0.0973386
0.138493
0.180973
0.220958
0.255594
0.283296
0.303639
0.317075
0.324589
0.327385
0.326657
0.323467
0.318688
0.312997
0.306896
0.300741
0.294772
0.289142
0.283937
0.279196
0.274926
0.271111
0.267718
0.264706
0.262027
0.259633
0.257472
0.255498
0.253667
0.251939
0.250282
0.248672
0.247087
0.245515
0.243948
0.242379
0.240804
0.23922
0.237622
0.236003
0.234351
0.232652
0.230885
0.229025
0.227037
0.224874
0.222478
0.219775
0.216668
0.213038
0.20873
0.20355
0.197256
0.189545
0.180075
0.168387
0.154305
0.137002
0.119178
0.0959889
0.0250664
0.0270522
0.0301034
0.0338734
0.0379301
0.0418889
0.045528
0.0487671
0.0516127
0.0541205
0.0563695
0.0584417
0.0604105
0.0623342
0.0642542
0.0661955
0.0681681
0.0701696
0.0721876
0.0742021
0.0761877
0.0781166
0.0799605
0.0816925
0.0832892
0.0847318
0.0860072
0.0871085
0.0880346
0.0887901
0.089384
0.0898289
0.0901392
0.0903311
0.0904208
0.0904242
0.0903568
0.0902333
0.0900675
0.0898726
0.0896615
0.0894469
0.0892416
0.0890596
0.0889166
0.0888308
0.0888251
0.0889282
0.0891781
0.0896259
0.0903418
0.0914242
0.0930144
0.0953207
0.0986543
0.103514
0.110659
0.121433
0.137243
0.174497
0.0219104
0.0195999
0.0179097
0.0167133
0.0158962
0.0153459
0.0149704
0.0147045
0.0145063
0.0143523
0.0142331
0.0141486
0.0141042
0.0141078
0.014168
0.0142925
0.0144878
0.0147591
0.0151096
0.0155413
0.0160542
0.0166471
0.017317
0.0180596
0.0188692
0.0197389
0.0206603
0.0216244
0.0226212
0.0236402
0.0246708
0.0257026
0.0267254
0.0277301
0.0287083
0.029653
0.0305583
0.0314198
0.0322344
0.0330003
0.0337175
0.0343871
0.035012
0.0355967
0.0361475
0.0366731
0.0371846
0.037697
0.0382301
0.0388109
0.0394778
0.0402874
0.0413255
0.0427282
0.0447174
0.0476757
0.0522667
0.0597776
0.0724176
0.100624
0.0217582
0.0190981
0.0169124
0.0151094
0.0136187
0.0123813
0.011348
0.0104783
0.00973956
0.00910584
0.00855706
0.00807802
0.00765749
0.00728733
0.00696179
0.00667682
0.00642968
0.00621856
0.00604228
0.00590014
0.00579175
0.00571691
0.00567558
0.00566778
0.00569353
0.00575285
0.00584567
0.00597182
0.00613097
0.00632257
0.00654586
0.00679981
0.00708309
0.00739413
0.00773108
0.00809185
0.00847418
0.00887564
0.00929374
0.009726
0.0101701
0.010624
0.0110863
0.0115562
0.0120343
0.0125225
0.0130248
0.0135479
0.0141021
0.0147028
0.0153722
0.0161435
0.0170667
0.0182194
0.0197278
0.0218049
0.0248391
0.0295745
0.0376323
0.0541468
0.0217509
0.019066
0.0168344
0.0149634
0.0133833
0.0120402
0.0108917
0.00990394
0.00904968
0.00830685
0.00765745
0.00708677
0.0065828
0.00613571
0.00573746
0.00538148
0.00506238
0.00477576
0.00451797
0.00428605
0.00407755
0.00389044
0.00372307
0.00357407
0.00344232
0.00332691
0.0032271
0.00314228
0.00307198
0.00301579
0.00297339
0.00294451
0.00292889
0.00292632
0.00293657
0.00295943
0.00299469
0.00304215
0.00310165
0.00317304
0.00325629
0.00335152
0.00345906
0.00357964
0.00371452
0.00386572
0.00403638
0.00423114
0.00445679
0.0047232
0.00504473
0.00544259
0.00594878
0.00661277
0.00751482
0.0087876
0.0106766
0.013616
0.0186674
0.0282332
0.0217506
0.0190635
0.0168276
0.0149497
0.0133592
0.0120023
0.0108367
0.00982909
0.0089531
0.00818746
0.00751493
0.00692144
0.0063954
0.00592722
0.00550894
0.00513387
0.00479644
0.00449191
0.00421629
0.0039662
0.00373876
0.00353148
0.00334227
0.00316931
0.00301104
0.00286613
0.0027334
0.00261186
0.00250063
0.00239898
0.00230622
0.00222181
0.00214522
0.00207603
0.00201384
0.00195832
0.00190917
0.00186613
0.00182901
0.00179765
0.00177199
0.00175204
0.00173793
0.00173
0.00172879
0.00173521
0.00175065
0.0017772
0.00181794
0.00187748
0.00196271
0.00208416
0.00225836
0.00251193
0.00288996
0.00347
0.00440133
0.00594957
0.00879569
0.0141738
0.0217505
0.019063
0.0168264
0.0149476
0.0133559
0.0119972
0.0108293
0.00981882
0.00893941
0.00816985
0.00749299
0.00689486
0.00636398
0.00589085
0.00546756
0.00508752
0.00474514
0.00443571
0.00415524
0.0039003
0.00366796
0.0034557
0.00326133
0.00308297
0.00291897
0.0027679
0.00262851
0.00249969
0.00238048
0.00227004
0.0021676
0.00207251
0.00198417
0.00190206
0.00182571
0.00175471
0.00168867
0.00162727
0.00157022
0.00151727
0.00146821
0.00142289
0.0013812
0.00134312
0.0013087
0.00127813
0.00125179
0.0012303
0.00121465
0.00120644
0.00120818
0.00122396
0.00126053
0.00132952
0.00145183
0.00166602
0.00205095
0.00275793
0.00418648
0.00703782
0.0217505
0.0190628
0.0168258
0.0149465
0.0133545
0.0119955
0.0108272
0.00981625
0.00893631
0.00816614
0.00748859
0.00688968
0.00635793
0.00588386
0.00545958
0.00507848
0.00473501
0.00442446
0.00414284
0.00388672
0.00365317
0.00343967
0.00324403
0.00306434
0.00289896
0.00274643
0.00260549
0.00247503
0.00235404
0.00224167
0.00213714
0.00203977
0.00194893
0.00186409
0.00178476
0.00171049
0.00164089
0.00157561
0.00151434
0.00145679
0.00140271
0.0013519
0.00130416
0.00125936
0.00121739
0.00117822
0.00114184
0.00110839
0.00107812
0.00105148
0.0010293
0.001013
0.00100505
0.00100998
0.00103643
0.00110142
0.00124201
0.00153679
0.00219984
0.00364394
0.0217505
0.0190626
0.0168253
0.0149458
0.0133535
0.0119943
0.0108258
0.00981472
0.00893466
0.00816437
0.0074867
0.00688766
0.00635578
0.00588157
0.00545713
0.00507586
0.00473221
0.00442146
0.00413963
0.00388329
0.0036495
0.00343575
0.00323985
0.00305988
0.00289421
0.00274137
0.0026001
0.00246928
0.00234792
0.00223514
0.00213016
0.0020323
0.00194094
0.00185552
0.00177555
0.00170058
0.00163023
0.00156412
0.00150194
0.00144339
0.00138823
0.0013362
0.00128713
0.00124082
0.00119713
0.00115594
0.00111718
0.0010808
0.00104682
0.00101537
0.000986679
0.000961245
0.000939985
0.000924649
0.000918704
0.000929356
0.000972907
0.00108758
0.00137982
0.00209016
0.0217505
0.0190624
0.0168249
0.0149451
0.0133527
0.0119933
0.0108246
0.00981349
0.00893335
0.008163
0.00748529
0.00688623
0.00635432
0.0058801
0.00545565
0.00507437
0.00473071
0.00441996
0.00413811
0.00388175
0.00364795
0.00343418
0.00323824
0.00305825
0.00289254
0.00273967
0.00259835
0.00246748
0.00234606
0.00223321
0.00212817
0.00203022
0.00193877
0.00185325
0.00177316
0.00169807
0.00162757
0.00156131
0.00149895
0.00144021
0.00138483
0.00133256
0.00128321
0.00123659
0.00119253
0.0011509
0.0011116
0.00107454
0.00103968
0.00100702
0.000976646
0.000948735
0.00092368
0.000902234
0.000885892
0.000877803
0.000885057
0.000925748
0.00105003
0.00139304
0.0217504
0.0190623
0.0168246
0.0149446
0.013352
0.0119925
0.0108237
0.00981245
0.00893224
0.00816185
0.0074841
0.00688502
0.00635311
0.00587889
0.00545445
0.00507319
0.00472954
0.0044188
0.00413698
0.00388064
0.00364686
0.0034331
0.00323719
0.00305721
0.00289152
0.00273866
0.00259736
0.0024665
0.00234508
0.00223225
0.00212721
0.00202927
0.00193781
0.00185229
0.0017722
0.0016971
0.00162659
0.00156032
0.00149794
0.00143918
0.00138377
0.00133147
0.00128208
0.00123541
0.00119129
0.00114959
0.0011102
0.00107301
0.00103797
0.00100505
0.000974282
0.000945759
0.000919697
0.000896512
0.000876985
0.000862683
0.000856874
0.000868247
0.00091971
0.00108436
0.0217504
0.0190622
0.0168243
0.0149442
0.0133514
0.0119917
0.0108229
0.00981155
0.00893128
0.00816085
0.00748307
0.00688398
0.00635207
0.00587784
0.00545341
0.00507217
0.00472854
0.00441782
0.00413601
0.0038797
0.00364594
0.00343221
0.00323632
0.00305636
0.00289069
0.00273785
0.00259657
0.00246573
0.00234434
0.00223152
0.0021265
0.00202858
0.00193714
0.00185163
0.00177156
0.00169647
0.00162598
0.00155971
0.00149735
0.0014386
0.0013832
0.00133091
0.00128153
0.00123486
0.00119076
0.00114906
0.00110967
0.00107248
0.00103742
0.00100448
0.00097365
0.00094501
0.000918722
0.000895089
0.00087464
0.000858344
0.000847948
0.00084792
0.00086865
0.00094873
0.0217504
0.0190622
0.0168241
0.0149439
0.0133509
0.0119911
0.0108222
0.00981078
0.00893045
0.00815998
0.00748218
0.00688307
0.00635115
0.00587693
0.00545251
0.00507127
0.00472766
0.00441696
0.00413517
0.00387888
0.00364514
0.00343143
0.00323556
0.00305563
0.00288998
0.00273716
0.0025959
0.00246508
0.00234371
0.00223091
0.0021259
0.002028
0.00193657
0.00185108
0.00177102
0.00169596
0.00162548
0.00155922
0.00149688
0.00143814
0.00138275
0.00133048
0.00128112
0.00123447
0.00119038
0.00114871
0.00110933
0.00107216
0.00103713
0.00100421
0.000973398
0.000944765
0.000918455
0.000894733
0.000874039
0.000857112
0.000845104
0.000840617
0.000848485
0.000888998
0.0217504
0.0190621
0.0168239
0.0149436
0.0133505
0.0119906
0.0108216
0.00981011
0.00892974
0.00815922
0.0074814
0.00688228
0.00635035
0.00587614
0.00545172
0.00507049
0.00472689
0.00441621
0.00413444
0.00387816
0.00364444
0.00343075
0.0032349
0.00305499
0.00288936
0.00273656
0.00259531
0.00246451
0.00234315
0.00223037
0.00212538
0.00202749
0.00193608
0.0018506
0.00177056
0.00169551
0.00162504
0.0015588
0.00149647
0.00143775
0.00138237
0.00133012
0.00128077
0.00123414
0.00119007
0.00114841
0.00110906
0.00107192
0.00103692
0.00100402
0.000973245
0.000944645
0.000918361
0.000894643
0.000873896
0.000856762
0.000844151
0.000837826
0.000840205
0.000862157
0.0217504
0.0190621
0.0168238
0.0149433
0.0133502
0.0119902
0.0108211
0.00980954
0.00892911
0.00815857
0.00748073
0.00688159
0.00634966
0.00587544
0.00545103
0.00506981
0.00472622
0.00441555
0.00413379
0.00387753
0.00364383
0.00343015
0.00323432
0.00305442
0.00288881
0.00273602
0.0025948
0.00246401
0.00234267
0.0022299
0.00212492
0.00202705
0.00193565
0.00185019
0.00177016
0.00169511
0.00162466
0.00155843
0.00149611
0.0014374
0.00138205
0.0013298
0.00128047
0.00123385
0.0011898
0.00114817
0.00110884
0.00107172
0.00103674
0.00100388
0.000973139
0.000944575
0.000918327
0.000894636
0.000873887
0.000856674
0.000843796
0.000836609
0.000836488
0.000849488
0.0217504
0.019062
0.0168237
0.0149431
0.0133499
0.0119898
0.0108206
0.00980904
0.00892858
0.008158
0.00748014
0.00688098
0.00634905
0.00587483
0.00545042
0.00506921
0.00472563
0.00441497
0.00413323
0.00387698
0.00364329
0.00342963
0.00323381
0.00305393
0.00288833
0.00273556
0.00259435
0.00246357
0.00234224
0.00222949
0.00212452
0.00202666
0.00193528
0.00184982
0.0017698
0.00169477
0.00162433
0.00155812
0.00149581
0.00143711
0.00138176
0.00132953
0.00128021
0.00123361
0.00118958
0.00114796
0.00110865
0.00107156
0.00103661
0.00100378
0.000973069
0.000944542
0.000918331
0.000894672
0.000873935
0.000856683
0.000843654
0.000835974
0.00083456
0.00084297
0.0217504
0.019062
0.0168236
0.0149429
0.0133496
0.0119895
0.0108203
0.00980861
0.00892811
0.00815751
0.00747963
0.00688046
0.00634852
0.0058743
0.0054499
0.00506869
0.00472512
0.00441447
0.00413274
0.0038765
0.00364283
0.00342918
0.00323337
0.0030535
0.00288791
0.00273516
0.00259395
0.00246319
0.00234187
0.00222913
0.00212418
0.00202632
0.00193495
0.00184951
0.0017695
0.00169448
0.00162405
0.00155784
0.00149554
0.00143685
0.00138152
0.0013293
0.00127999
0.00123341
0.00118939
0.00114779
0.0011085
0.00107143
0.00103651
0.00100371
0.000973034
0.000944544
0.00091837
0.000894743
0.000874024
0.00085675
0.000843613
0.000835595
0.000833389
0.000839207
0.0217504
0.019062
0.0168235
0.0149428
0.0133494
0.0119892
0.0108199
0.00980825
0.00892772
0.00815709
0.00747919
0.00688002
0.00634807
0.00587385
0.00544945
0.00506825
0.00472468
0.00441404
0.00413232
0.00387609
0.00364242
0.00342879
0.00323299
0.00305313
0.00288755
0.00273481
0.00259362
0.00246286
0.00234156
0.00222882
0.00212388
0.00202603
0.00193467
0.00184924
0.00176924
0.00169422
0.0016238
0.00155761
0.00149532
0.00143664
0.00138131
0.00132911
0.00127981
0.00123324
0.00118924
0.00114766
0.00110839
0.00107134
0.00103644
0.00100367
0.000973031
0.000944576
0.00091844
0.000894847
0.00087415
0.000856864
0.000843645
0.000835367
0.000832597
0.000836774
0.0217504
0.019062
0.0168235
0.0149427
0.0133492
0.011989
0.0108197
0.00980794
0.00892738
0.00815673
0.00747882
0.00687964
0.00634769
0.00587346
0.00544906
0.00506787
0.00472431
0.00441367
0.00413196
0.00387574
0.00364208
0.00342845
0.00323267
0.00305282
0.00288725
0.00273451
0.00259333
0.00246258
0.00234129
0.00222856
0.00212362
0.00202579
0.00193443
0.00184901
0.00176901
0.00169401
0.00162359
0.00155741
0.00149513
0.00143646
0.00138114
0.00132895
0.00127966
0.00123311
0.00118912
0.00114755
0.0011083
0.00107128
0.00103641
0.00100367
0.000973056
0.000944638
0.000918539
0.000894982
0.00087431
0.000857021
0.000843739
0.000835254
0.000832046
0.000835074
0.0217504
0.019062
0.0168234
0.0149426
0.0133491
0.0119888
0.0108194
0.00980769
0.0089271
0.00815644
0.00747851
0.00687932
0.00634736
0.00587314
0.00544874
0.00506755
0.00472399
0.00441336
0.00413165
0.00387544
0.00364179
0.00342817
0.00323239
0.00305255
0.00288699
0.00273426
0.00259309
0.00246235
0.00234106
0.00222834
0.00212341
0.00202558
0.00193423
0.00184882
0.00176883
0.00169383
0.00162342
0.00155724
0.00149497
0.00143631
0.00138101
0.00132882
0.00127955
0.001233
0.00118902
0.00114748
0.00110825
0.00107124
0.0010364
0.00100369
0.000973108
0.000944726
0.000918665
0.000895145
0.000874503
0.000857218
0.000843892
0.000835245
0.000831686
0.000833853
0.0217504
0.019062
0.0168234
0.0149425
0.013349
0.0119887
0.0108193
0.00980748
0.00892687
0.00815619
0.00747826
0.00687906
0.0063471
0.00587288
0.00544848
0.00506729
0.00472373
0.00441311
0.00413141
0.0038752
0.00364156
0.00342794
0.00323217
0.00305234
0.00288678
0.00273406
0.00259289
0.00246216
0.00234087
0.00222816
0.00212324
0.00202541
0.00193407
0.00184866
0.00176868
0.00169369
0.00162329
0.00155711
0.00149485
0.00143619
0.0013809
0.00132872
0.00127946
0.00123293
0.00118896
0.00114743
0.00110822
0.00107123
0.00103642
0.00100373
0.000973185
0.000944839
0.000918817
0.000895335
0.000874726
0.000857456
0.000844104
0.000835333
0.000831497
0.000832999
0.0217504
0.0190619
0.0168234
0.0149424
0.0133489
0.0119885
0.0108191
0.00980732
0.00892669
0.008156
0.00747806
0.00687885
0.00634689
0.00587267
0.00544827
0.00506708
0.00472353
0.00441291
0.00413121
0.00387501
0.00364137
0.00342776
0.00323199
0.00305216
0.00288662
0.0027339
0.00259273
0.00246201
0.00234073
0.00222802
0.0021231
0.00202528
0.00193395
0.00184854
0.00176856
0.00169358
0.00162318
0.00155701
0.00149475
0.00143611
0.00138082
0.00132865
0.0012794
0.00123288
0.00118893
0.00114741
0.00110821
0.00107125
0.00103646
0.0010038
0.000973286
0.000944975
0.000918992
0.00089555
0.000874977
0.000857731
0.000844371
0.000835516
0.000831469
0.00083246
0.0217504
0.0190619
0.0168233
0.0149424
0.0133488
0.0119885
0.010819
0.0098072
0.00892656
0.00815586
0.00747791
0.0068787
0.00634674
0.00587251
0.00544812
0.00506693
0.00472338
0.00441276
0.00413107
0.00387487
0.00364123
0.00342763
0.00323186
0.00305204
0.00288649
0.00273378
0.00259262
0.0024619
0.00234062
0.00222791
0.002123
0.00202519
0.00193385
0.00184845
0.00176848
0.0016935
0.00162311
0.00155694
0.00149469
0.00143605
0.00138077
0.00132861
0.00127936
0.00123285
0.00118891
0.00114741
0.00110824
0.00107129
0.00103652
0.00100389
0.000973408
0.000945133
0.000919188
0.000895788
0.000875256
0.000858043
0.000844693
0.000835791
0.000831598
0.00083221
0.0217504
0.0190619
0.0168233
0.0149424
0.0133488
0.0119884
0.0108189
0.00980712
0.00892648
0.00815577
0.00747781
0.0068786
0.00634664
0.00587241
0.00544801
0.00506683
0.00472328
0.00441266
0.00413097
0.00387477
0.00364114
0.00342754
0.00323178
0.00305195
0.00288641
0.0027337
0.00259254
0.00246182
0.00234055
0.00222785
0.00212294
0.00202513
0.0019338
0.00184839
0.00176843
0.00169345
0.00162306
0.0015569
0.00149465
0.00143602
0.00138074
0.00132859
0.00127935
0.00123285
0.00118893
0.00114744
0.00110828
0.00107135
0.00103661
0.001004
0.000973551
0.000945311
0.000919406
0.000896049
0.000875562
0.00085839
0.000845069
0.000836158
0.000831883
0.000832233
0.0217504
0.0190619
0.0168233
0.0149423
0.0133488
0.0119884
0.0108189
0.00980708
0.00892643
0.00815572
0.00747777
0.00687855
0.00634659
0.00587236
0.00544796
0.00506678
0.00472323
0.00441262
0.00413092
0.00387473
0.0036411
0.0034275
0.00323174
0.00305191
0.00288637
0.00273366
0.00259251
0.00246179
0.00234052
0.00222782
0.00212291
0.0020251
0.00193377
0.00184837
0.00176841
0.00169343
0.00162304
0.00155689
0.00149464
0.00143602
0.00138074
0.0013286
0.00127937
0.00123288
0.00118896
0.00114749
0.00110834
0.00107144
0.00103671
0.00100413
0.000973714
0.000945508
0.000919643
0.00089633
0.000875892
0.000858771
0.000845499
0.000836616
0.000832323
0.000832524
0.0217504
0.0190619
0.0168233
0.0149423
0.0133488
0.0119884
0.0108189
0.00980708
0.00892643
0.00815572
0.00747777
0.00687855
0.00634659
0.00587236
0.00544796
0.00506678
0.00472323
0.00441262
0.00413092
0.00387473
0.0036411
0.0034275
0.00323174
0.00305192
0.00288637
0.00273366
0.00259251
0.00246179
0.00234052
0.00222782
0.00212291
0.0020251
0.00193378
0.00184838
0.00176841
0.00169344
0.00162306
0.00155691
0.00149466
0.00143604
0.00138077
0.00132863
0.00127941
0.00123293
0.00118902
0.00114756
0.00110843
0.00107155
0.00103684
0.00100429
0.000973896
0.000945724
0.000919898
0.000896631
0.000876245
0.000859185
0.000845981
0.000837166
0.000832917
0.00083308
0.0217504
0.0190619
0.0168233
0.0149424
0.0133488
0.0119884
0.0108189
0.00980712
0.00892648
0.00815577
0.00747781
0.0068786
0.00634664
0.00587241
0.00544801
0.00506683
0.00472328
0.00441267
0.00413097
0.00387478
0.00364114
0.00342754
0.00323178
0.00305196
0.00288642
0.0027337
0.00259255
0.00246183
0.00234056
0.00222786
0.00212295
0.00202514
0.00193381
0.00184842
0.00176845
0.00169348
0.0016231
0.00155695
0.00149471
0.00143609
0.00138083
0.00132869
0.00127948
0.001233
0.00118911
0.00114766
0.00110854
0.00107167
0.00103699
0.00100446
0.000974096
0.000945958
0.000920172
0.000896951
0.000876622
0.000859631
0.000846515
0.000837806
0.00083367
0.000833906
0.0217504
0.0190619
0.0168233
0.0149424
0.0133488
0.0119885
0.010819
0.0098072
0.00892656
0.00815586
0.00747791
0.0068787
0.00634674
0.00587251
0.00544812
0.00506693
0.00472338
0.00441276
0.00413107
0.00387487
0.00364124
0.00342763
0.00323187
0.00305204
0.0028865
0.00273379
0.00259263
0.00246191
0.00234064
0.00222793
0.00212302
0.00202521
0.00193389
0.00184849
0.00176853
0.00169355
0.00162317
0.00155702
0.00149478
0.00143617
0.00138091
0.00132878
0.00127957
0.0012331
0.00118921
0.00114778
0.00110867
0.00107182
0.00103715
0.00100465
0.000974314
0.000946209
0.000920462
0.00089729
0.00087702
0.000860109
0.0008471
0.00083854
0.000834583
0.000835009
0.0217504
0.0190619
0.0168234
0.0149424
0.0133489
0.0119885
0.0108191
0.00980732
0.0089267
0.008156
0.00747806
0.00687886
0.00634689
0.00587267
0.00544827
0.00506708
0.00472353
0.00441291
0.00413121
0.00387501
0.00364138
0.00342777
0.003232
0.00305217
0.00288663
0.00273391
0.00259275
0.00246203
0.00234075
0.00222804
0.00212313
0.00202532
0.00193399
0.00184859
0.00176863
0.00169365
0.00162327
0.00155712
0.00149489
0.00143627
0.00138101
0.00132889
0.00127968
0.00123322
0.00118934
0.00114792
0.00110883
0.00107199
0.00103734
0.00100486
0.00097455
0.000946478
0.000920769
0.000897645
0.000877439
0.000860617
0.000847738
0.000839368
0.000835664
0.000836403
0.0217504
0.019062
0.0168234
0.0149425
0.013349
0.0119887
0.0108193
0.00980748
0.00892687
0.00815619
0.00747826
0.00687906
0.0063471
0.00587288
0.00544848
0.00506729
0.00472374
0.00441311
0.00413141
0.00387521
0.00364156
0.00342795
0.00323218
0.00305235
0.00288679
0.00273407
0.00259291
0.00246218
0.0023409
0.00222819
0.00212328
0.00202546
0.00193413
0.00184873
0.00176876
0.00169379
0.0016234
0.00155726
0.00149502
0.0014364
0.00138115
0.00132903
0.00127983
0.00123337
0.0011895
0.00114808
0.001109
0.00107218
0.00103755
0.00100509
0.000974804
0.000946762
0.000921093
0.000898018
0.000877879
0.000861156
0.000848427
0.000840294
0.000836918
0.000838107
0.0217504
0.019062
0.0168234
0.0149426
0.0133491
0.0119888
0.0108194
0.00980769
0.0089271
0.00815644
0.00747851
0.00687932
0.00634737
0.00587314
0.00544874
0.00506755
0.004724
0.00441337
0.00413166
0.00387545
0.0036418
0.00342818
0.0032324
0.00305257
0.00288701
0.00273428
0.00259311
0.00246238
0.00234109
0.00222838
0.00212346
0.00202564
0.0019343
0.0018489
0.00176893
0.00169395
0.00162357
0.00155742
0.00149518
0.00143656
0.00138131
0.00132919
0.00127999
0.00123354
0.00118968
0.00114827
0.0011092
0.00107239
0.00103777
0.00100533
0.000975075
0.000947064
0.000921432
0.000898407
0.000878338
0.000861723
0.000849167
0.000841321
0.000838356
0.000840148
0.0217504
0.019062
0.0168235
0.0149427
0.0133492
0.011989
0.0108197
0.00980794
0.00892738
0.00815673
0.00747882
0.00687964
0.00634769
0.00587347
0.00544907
0.00506787
0.00472431
0.00441368
0.00413196
0.00387575
0.00364209
0.00342846
0.00323268
0.00305283
0.00288727
0.00273453
0.00259336
0.00246262
0.00234132
0.0022286
0.00212368
0.00202585
0.00193451
0.0018491
0.00176913
0.00169415
0.00162376
0.00155761
0.00149537
0.00143676
0.0013815
0.00132938
0.00128019
0.00123374
0.00118988
0.00114848
0.00110942
0.00107262
0.00103802
0.0010056
0.000975365
0.000947382
0.000921787
0.000898812
0.000878817
0.00086232
0.00084996
0.000842453
0.000839988
0.000842562
0.0217504
0.019062
0.0168235
0.0149428
0.0133494
0.0119892
0.0108199
0.00980825
0.00892772
0.00815709
0.00747919
0.00688002
0.00634807
0.00587385
0.00544945
0.00506825
0.00472469
0.00441405
0.00413232
0.0038761
0.00364243
0.0034288
0.00323301
0.00305315
0.00288758
0.00273483
0.00259365
0.0024629
0.0023416
0.00222887
0.00212394
0.00202611
0.00193476
0.00184935
0.00176937
0.00169439
0.00162399
0.00155784
0.0014956
0.00143698
0.00138173
0.0013296
0.00128041
0.00123397
0.00119011
0.00114872
0.00110966
0.00107288
0.00103829
0.00100589
0.000975674
0.000947719
0.000922159
0.000899234
0.000879314
0.000862945
0.000850804
0.000843695
0.000841828
0.000845394
0.0217504
0.019062
0.0168236
0.0149429
0.0133496
0.0119895
0.0108203
0.00980861
0.00892811
0.00815751
0.00747963
0.00688047
0.00634853
0.00587431
0.0054499
0.0050687
0.00472513
0.00441448
0.00413275
0.00387651
0.00364284
0.00342919
0.00323339
0.00305352
0.00288794
0.00273518
0.00259399
0.00246323
0.00234192
0.00222919
0.00212425
0.00202641
0.00193505
0.00184963
0.00176965
0.00169466
0.00162426
0.0015581
0.00149586
0.00143724
0.00138198
0.00132986
0.00128067
0.00123422
0.00119037
0.00114898
0.00110994
0.00107316
0.00103859
0.0010062
0.000976003
0.000948073
0.000922548
0.000899672
0.00087983
0.000863598
0.000851702
0.000845054
0.000843893
0.000848705
0.0217504
0.019062
0.0168237
0.0149431
0.0133499
0.0119898
0.0108206
0.00980904
0.00892858
0.008158
0.00748014
0.00688099
0.00634905
0.00587484
0.00545043
0.00506922
0.00472564
0.00441498
0.00413324
0.00387699
0.00364331
0.00342965
0.00323383
0.00305395
0.00288836
0.00273559
0.00259439
0.00246362
0.0023423
0.00222955
0.0021246
0.00202675
0.00193539
0.00184996
0.00176997
0.00169497
0.00162457
0.00155841
0.00149616
0.00143753
0.00138227
0.00133015
0.00128096
0.00123451
0.00119066
0.00114928
0.00111024
0.00107347
0.00103891
0.00100653
0.000976354
0.000948448
0.000922955
0.000900127
0.000880364
0.000864279
0.000852652
0.000846537
0.0008462
0.000852574
0.0217504
0.0190621
0.0168238
0.0149433
0.0133502
0.0119902
0.0108211
0.00980954
0.00892912
0.00815857
0.00748073
0.00688159
0.00634966
0.00587544
0.00545103
0.00506982
0.00472623
0.00441556
0.0041338
0.00387754
0.00364384
0.00343017
0.00323434
0.00305445
0.00288884
0.00273606
0.00259484
0.00246406
0.00234273
0.00222997
0.00212501
0.00202715
0.00193578
0.00185034
0.00177034
0.00169533
0.00162492
0.00155875
0.0014965
0.00143787
0.0013826
0.00133048
0.00128128
0.00123484
0.00119099
0.0011496
0.00111057
0.00107381
0.00103925
0.00100689
0.000976729
0.000948844
0.000923381
0.0009006
0.000880918
0.000864987
0.000853656
0.000848152
0.000848774
0.000857104
0.0217504
0.0190621
0.0168239
0.0149436
0.0133505
0.0119906
0.0108216
0.00981011
0.00892974
0.00815923
0.00748141
0.00688228
0.00635036
0.00587614
0.00545173
0.0050705
0.0047269
0.00441622
0.00413445
0.00387817
0.00364446
0.00343077
0.00323492
0.00305501
0.00288939
0.00273659
0.00259536
0.00246456
0.00234322
0.00223045
0.00212547
0.0020276
0.00193622
0.00185077
0.00177076
0.00169574
0.00162532
0.00155914
0.00149688
0.00143825
0.00138298
0.00133085
0.00128165
0.0012352
0.00119135
0.00114997
0.00111094
0.00107418
0.00103963
0.00100728
0.000977131
0.000949265
0.000923829
0.000901093
0.000881492
0.000865723
0.000854714
0.00084991
0.000851638
0.000862435
0.0217504
0.0190622
0.0168241
0.0149439
0.0133509
0.0119911
0.0108222
0.00981078
0.00893046
0.00815998
0.00748218
0.00688307
0.00635116
0.00587694
0.00545252
0.00507128
0.00472767
0.00441697
0.00413519
0.00387889
0.00364516
0.00343145
0.00323559
0.00305566
0.00289001
0.0027372
0.00259595
0.00246514
0.00234378
0.00223099
0.002126
0.00202812
0.00193672
0.00185126
0.00177123
0.00169621
0.00162578
0.00155959
0.00149732
0.00143868
0.0013834
0.00133127
0.00128206
0.00123561
0.00119176
0.00115037
0.00111134
0.00107458
0.00104004
0.0010077
0.000977562
0.000949712
0.000924301
0.000901607
0.000882085
0.000866486
0.000855824
0.000851819
0.000854822
0.000868752
0.0217504
0.0190622
0.0168243
0.0149442
0.0133514
0.0119917
0.0108229
0.00981155
0.00893128
0.00816085
0.00748308
0.00688398
0.00635207
0.00587785
0.00545342
0.00507217
0.00472855
0.00441783
0.00413603
0.00387971
0.00364596
0.00343223
0.00323634
0.0030564
0.00289073
0.0027379
0.00259663
0.0024658
0.00234442
0.00223161
0.00212661
0.00202871
0.00193729
0.00185182
0.00177178
0.00169674
0.0016263
0.0015601
0.00149782
0.00143917
0.00138388
0.00133174
0.00128253
0.00123608
0.00119222
0.00115083
0.0011118
0.00107504
0.0010405
0.00100816
0.000978033
0.000950195
0.000924806
0.000902149
0.000882704
0.000867277
0.000856987
0.00085389
0.000858356
0.000876313
0.0217504
0.0190623
0.0168246
0.0149446
0.013352
0.0119925
0.0108237
0.00981245
0.00893224
0.00816185
0.00748411
0.00688502
0.00635312
0.00587889
0.00545446
0.0050732
0.00472955
0.00441882
0.00413699
0.00388065
0.00364687
0.00343312
0.00323721
0.00305724
0.00289156
0.0027387
0.00259741
0.00246656
0.00234516
0.00223234
0.00212732
0.0020294
0.00193797
0.00185248
0.00177243
0.00169738
0.00162693
0.00156072
0.00149843
0.00143977
0.00138448
0.00133233
0.00128312
0.00123666
0.00119279
0.0011514
0.00111237
0.00107561
0.00104107
0.00100873
0.000978605
0.000950774
0.000925397
0.000902768
0.000883388
0.000868125
0.00085822
0.00085614
0.000862278
0.000885476
0.0217505
0.0190624
0.0168249
0.0149451
0.0133527
0.0119933
0.0108247
0.0098135
0.00893335
0.00816301
0.00748529
0.00688623
0.00635433
0.0058801
0.00545566
0.00507438
0.00473072
0.00441997
0.00413812
0.00388177
0.00364797
0.0034342
0.00323827
0.00305828
0.00289258
0.00273971
0.00259841
0.00246755
0.00234614
0.00223331
0.00212828
0.00203036
0.00193893
0.00185344
0.0017734
0.00169835
0.00162791
0.00156171
0.00149943
0.00144078
0.0013855
0.00133336
0.00128416
0.0012377
0.00119385
0.00115246
0.00111343
0.00107667
0.00104213
0.00100979
0.000979656
0.000951814
0.000926422
0.000903784
0.000884422
0.00086927
0.000859713
0.000858713
0.000866714
0.000896795
0.0217505
0.0190626
0.0168253
0.0149458
0.0133535
0.0119943
0.0108258
0.00981472
0.00893466
0.00816437
0.0074867
0.00688766
0.00635578
0.00588157
0.00545714
0.00507587
0.00473222
0.00442148
0.00413964
0.0038833
0.00364952
0.00343578
0.00323987
0.00305992
0.00289425
0.00274142
0.00260016
0.00246935
0.002348
0.00223523
0.00213027
0.00203243
0.00194108
0.00185569
0.00177574
0.00170081
0.00163048
0.0015644
0.00150225
0.00144373
0.00138858
0.00133656
0.00128745
0.00124108
0.00119729
0.00115597
0.00111699
0.00108026
0.00104574
0.00101339
0.000983218
0.000955303
0.000929802
0.000907016
0.000887487
0.000872211
0.000862739
0.00086262
0.000872441
0.000911477
0.0217505
0.0190628
0.0168258
0.0149465
0.0133545
0.0119955
0.0108272
0.00981625
0.00893631
0.00816614
0.00748859
0.00688968
0.00635793
0.00588386
0.00545958
0.00507849
0.00473502
0.00442447
0.00414285
0.00388673
0.00365319
0.00343969
0.00324405
0.00306437
0.00289899
0.00274647
0.00260554
0.00247507
0.00235409
0.00224173
0.0021372
0.00203982
0.00194897
0.00186411
0.00178474
0.00171042
0.00164073
0.00157532
0.00151386
0.00145603
0.00140157
0.0013502
0.00130169
0.00125582
0.00121244
0.00117147
0.0011328
0.00109632
0.00106196
0.00102966
0.00099942
0.000971268
0.000945334
0.00092189
0.000901466
0.000885089
0.000874493
0.000873867
0.000884177
0.000933895
0.0217505
0.019063
0.0168264
0.0149476
0.0133559
0.0119972
0.0108293
0.00981883
0.00893942
0.00816985
0.007493
0.00689487
0.00636398
0.00589085
0.00546757
0.00508752
0.00474514
0.00443572
0.00415525
0.00390031
0.00366797
0.00345571
0.00326134
0.00308298
0.00291897
0.00276789
0.00262848
0.00249964
0.00238041
0.00226991
0.00216741
0.00207222
0.00198374
0.00190143
0.00182479
0.00175338
0.00168677
0.00162459
0.00156646
0.00151202
0.00146093
0.00141284
0.0013674
0.00132426
0.00128301
0.00124403
0.00120717
0.00117227
0.00113915
0.00110766
0.00107761
0.0010489
0.00102145
0.000995376
0.000971049
0.000949398
0.000932269
0.000924445
0.000927664
0.00098451
0.0217506
0.0190635
0.0168276
0.0149497
0.0133592
0.0120023
0.0108367
0.00982909
0.0089531
0.00818746
0.00751494
0.00692144
0.0063954
0.00592722
0.00550894
0.00513387
0.00479643
0.0044919
0.00421628
0.00396618
0.00373872
0.00353143
0.0033422
0.00316921
0.0030109
0.00286592
0.0027331
0.00261143
0.00250003
0.00239813
0.00230503
0.00222013
0.00214287
0.00207275
0.00200927
0.00195197
0.00190037
0.00185399
0.0018123
0.00177476
0.00174073
0.0017095
0.00168031
0.00165224
0.00162425
0.00159648
0.00157053
0.00154571
0.00152118
0.00149599
0.00146907
0.00143935
0.00140583
0.00136775