/*--------------------------------*- C++ -*----------------------------------*\
| =========                 |                                                 |
| \\      /  F ield         | OpenFOAM: The Open Source CFD Toolbox           |
|  \\    /   O peration     | Version:  2.4.0                                 |
|   \\  /    A nd           | Web:      www.OpenFOAM.org                      |
|    \\/     M anipulation  |                                                 |
\*---------------------------------------------------------------------------*/
FoamFile
{
    version     2.0;
    format      ascii;
    class       surfaceScalarField;
    location    "1.06";
    object      phi;
}
// * * * * * * * * * * * * * * * * * * * * * * * * * * * * * * * * * * * * * //

dimensions      [0 3 -1 0 0 0 0];

internalField   nonuniform List<scalar> 
4456
(
2.24428e-06
2.55718e-07
2.48055e-06
-2.36271e-07
2.58348e-06
-1.02926e-07
2.39462e-06
1.88855e-07
2.60658e-06
-2.11952e-07
2.26624e-06
3.40339e-07
2.62678e-06
-3.60549e-07
2.24599e-06
3.80793e-07
2.45085e-06
-2.04855e-07
2.52933e-06
-7.84848e-08
2.47511e-06
5.42258e-08
2.44952e-06
2.55838e-08
2.51402e-06
-6.44951e-08
2.48952e-06
2.44936e-08
2.5114e-06
-2.18739e-08
2.07699e-06
4.34406e-07
2.29268e-06
-2.15689e-07
2.03429e-06
2.58388e-07
2.0252e-06
9.08956e-09
1.15845e-07
1.90936e-06
2.57676e-06
1.78956e-07
2.51218e-06
-1.71685e-07
2.44762e-06
-3.8366e-08
2.52955e-06
1.06923e-07
2.429e-06
-1.11406e-07
2.45796e-06
3.11383e-07
2.62673e-06
-5.29323e-07
2.3001e-06
7.07426e-07
2.26138e-06
-1.66136e-07
2.57416e-06
-3.91265e-07
2.38516e-06
2.43232e-07
2.48929e-06
-7.85458e-08
2.673e-06
-2.48212e-07
2.3479e-06
3.49601e-07
2.47549e-06
-1.49468e-07
2.58713e-06
3.22765e-07
2.35013e-06
2.13176e-08
2.79825e-06
-1.89738e-07
2.75811e-06
4.92273e-08
3.60961e-07
2.513e-06
2.55313e-06
1.25824e-07
2.46919e-06
-8.77458e-08
2.4934e-06
-6.25767e-08
2.43487e-06
1.65454e-07
2.4486e-06
-1.25137e-07
2.35456e-06
4.0543e-07
2.51971e-06
-6.9448e-07
2.50422e-06
7.22913e-07
2.41756e-06
-7.94719e-08
2.46261e-06
-4.36315e-07
2.3816e-06
3.24244e-07
2.48088e-06
-1.77824e-07
2.46438e-06
-2.31713e-07
2.62001e-06
1.93967e-07
2.43614e-06
3.43988e-08
2.63549e-06
1.23422e-07
2.59692e-06
5.98876e-08
2.56668e-06
-1.595e-07
2.83113e-06
-2.15221e-07
5.7705e-07
2.61504e-06
2.51045e-06
1.15377e-07
2.43487e-06
-1.21658e-08
2.57031e-06
-1.98018e-07
2.50935e-06
2.26411e-07
2.48359e-06
-9.93745e-08
2.57672e-06
3.12303e-07
2.49622e-06
-6.1398e-07
2.63078e-06
5.88347e-07
2.63517e-06
-8.38567e-08
2.55653e-06
-3.57678e-07
2.53316e-06
3.47612e-07
2.54824e-06
-1.92899e-07
2.46368e-06
-1.4716e-07
2.6027e-06
5.49556e-08
2.63687e-06
2.21872e-10
2.62029e-06
1.40007e-07
2.58127e-06
9.89084e-08
2.55718e-06
-1.35417e-07
2.68037e-06
-3.38406e-07
4.82226e-07
2.77519e-06
2.5497e-06
6.56795e-08
2.44742e-06
9.01128e-08
2.47842e-06
-2.29022e-07
2.52382e-06
1.81018e-07
2.53836e-06
-1.13921e-07
2.56128e-06
2.89383e-07
2.43864e-06
-4.91342e-07
2.66064e-06
3.66346e-07
2.5329e-06
4.38895e-08
2.50214e-06
-3.26922e-07
2.61282e-06
2.36935e-07
2.5032e-06
-8.32761e-08
2.41476e-06
-5.87202e-08
2.54808e-06
-7.83688e-08
2.58705e-06
-3.87496e-08
2.58897e-06
1.38094e-07
2.45633e-06
2.31544e-07
2.42009e-06
-9.91762e-08
2.54046e-06
-4.58777e-07
2.79925e-07
2.74276e-06
2.51819e-06
4.74937e-08
2.51183e-06
9.64649e-08
2.47569e-06
-1.92879e-07
2.54693e-06
1.09775e-07
2.52022e-06
-8.72055e-08
2.557e-06
2.52606e-07
2.46713e-06
-4.01472e-07
2.59239e-06
2.41081e-07
2.56814e-06
6.81431e-08
2.50609e-06
-2.64876e-07
2.59119e-06
1.51833e-07
2.47115e-06
3.67679e-08
2.45341e-06
-4.09815e-08
2.52259e-06
-1.47545e-07
2.58641e-06
-1.0257e-07
2.56659e-06
1.57913e-07
2.53221e-06
2.65926e-07
2.52877e-06
-9.57408e-08
2.54994e-06
-4.79946e-07
1.84442e-07
2.64542e-06
2.51998e-06
2.75144e-08
2.54227e-06
7.4172e-08
2.51999e-06
-1.70602e-07
2.49239e-06
1.37378e-07
2.47085e-06
-6.5663e-08
2.57621e-06
1.47241e-07
2.47335e-06
-2.9861e-07
2.50524e-06
2.09191e-07
2.52895e-06
4.44333e-08
2.49338e-06
-2.29306e-07
2.52711e-06
1.18101e-07
2.51357e-06
5.03144e-08
2.4681e-06
4.48902e-09
2.51269e-06
-1.92134e-07
2.55968e-06
-1.49567e-07
2.53885e-06
1.78746e-07
2.50152e-06
3.03259e-07
2.53372e-06
-1.27948e-07
2.47349e-06
-4.19715e-07
7.75546e-08
2.58038e-06
2.50331e-06
2.42003e-08
2.52746e-06
5.00268e-08
2.49414e-06
-1.37283e-07
2.46957e-06
1.61948e-07
2.4803e-06
-7.63938e-08
2.58637e-06
4.11708e-08
2.50056e-06
-2.128e-07
2.49197e-06
2.17781e-07
2.51081e-06
2.55966e-08
2.49825e-06
-2.16746e-07
2.55672e-06
5.9631e-08
2.49657e-06
1.10463e-07
2.47458e-06
2.64785e-08
2.51281e-06
-2.30359e-07
2.48993e-06
-1.26693e-07
2.5041e-06
1.64579e-07
2.52656e-06
2.80799e-07
2.49996e-06
-1.01344e-07
2.49327e-06
-4.13024e-07
-5.2482e-09
2.57607e-06
2.51243e-06
1.17655e-08
2.53454e-06
2.79231e-08
2.48852e-06
-9.12692e-08
2.47141e-06
1.79059e-07
2.48459e-06
-8.95746e-08
2.58924e-06
-6.3474e-08
2.49183e-06
-1.15392e-07
2.45961e-06
2.50005e-07
2.4901e-06
-4.89355e-09
2.53102e-06
-2.57668e-07
2.51793e-06
7.27211e-08
2.48008e-06
1.48307e-07
2.53008e-06
-2.35193e-08
2.47801e-06
-1.78285e-07
2.48219e-06
-1.30873e-07
2.50395e-06
1.42816e-07
2.51911e-06
2.65637e-07
2.5683e-06
-1.50537e-07
2.51941e-06
-3.64133e-07
7.68477e-09
2.50648e-06
2.49193e-06
1.98327e-08
2.5399e-06
-2.00434e-08
2.47875e-06
-3.01155e-08
2.47419e-06
1.83614e-07
2.52129e-06
-1.36677e-07
2.53353e-06
-7.57129e-08
2.49738e-06
-7.92399e-08
2.4855e-06
2.61888e-07
2.52602e-06
-4.54199e-08
2.53224e-06
-2.63883e-07
2.48816e-06
1.16795e-07
2.49196e-06
1.44506e-07
2.5235e-06
-5.50546e-08
2.49849e-06
-1.53276e-07
2.48721e-06
-1.1959e-07
2.4968e-06
1.33221e-07
2.53433e-06
2.28114e-07
2.55631e-06
-1.72519e-07
2.52439e-06
-3.32218e-07
2.74656e-08
2.50461e-06
2.50081e-06
1.90274e-08
2.55118e-06
-7.042e-08
2.45595e-06
6.51161e-08
2.53919e-06
1.00376e-07
2.52692e-06
-1.24412e-07
2.5092e-06
-5.79867e-08
2.46439e-06
-3.44368e-08
2.51223e-06
2.14055e-07
2.53307e-06
-6.62588e-08
2.47839e-06
-2.09208e-07
2.46764e-06
1.27548e-07
2.46511e-06
1.47035e-07
2.52253e-06
-1.12477e-07
2.48681e-06
-1.17558e-07
2.46568e-06
-9.84611e-08
2.48472e-06
1.14181e-07
2.50257e-06
2.10262e-07
2.571e-06
-2.40948e-07
2.52757e-06
-2.88781e-07
1.11959e-07
2.44307e-06
2.53608e-06
-1.70515e-08
2.52263e-06
-5.69728e-08
2.47896e-06
1.08791e-07
2.5323e-06
4.70373e-08
2.51358e-06
-1.05692e-07
2.47521e-06
-1.96177e-08
2.43903e-06
1.73683e-09
2.53975e-06
1.13339e-07
2.51865e-06
-4.5157e-08
2.44873e-06
-1.39294e-07
2.45416e-06
1.22122e-07
2.49736e-06
1.03835e-07
2.52863e-06
-1.43747e-07
2.48535e-06
-7.42754e-08
2.45297e-06
-6.60812e-08
2.46919e-06
9.79591e-08
2.55795e-06
1.21505e-07
2.56614e-06
-2.49143e-07
2.44309e-06
-1.65731e-07
1.04056e-07
2.45099e-06
2.52759e-06
-4.46433e-08
2.48501e-06
-1.43868e-08
2.48791e-06
1.05891e-07
2.51758e-06
1.73606e-08
2.49302e-06
-8.1127e-08
2.49006e-06
-1.66582e-08
2.44285e-06
4.89417e-08
2.53405e-06
2.21425e-08
2.51415e-06
-2.52565e-08
2.4607e-06
-8.58479e-08
2.47969e-06
1.03136e-07
2.53333e-06
5.01907e-08
2.51966e-06
-1.30069e-07
2.47654e-06
-3.11629e-08
2.46943e-06
-5.89681e-08
2.47889e-06
8.85014e-08
2.56846e-06
3.19299e-08
2.50362e-06
-1.84298e-07
2.38331e-06
-4.54214e-08
1.0016e-08
2.47735e-06
2.51433e-06
-5.89706e-08
2.47706e-06
2.28799e-08
2.49619e-06
8.67578e-08
2.50845e-06
5.09913e-09
2.49752e-06
-7.01938e-08
2.51894e-06
-3.8074e-08
2.45561e-06
1.12269e-07
2.52e-06
-4.22516e-08
2.50597e-06
-1.12272e-08
2.47306e-06
-5.29372e-08
2.49542e-06
8.07762e-08
2.55165e-06
-6.04012e-09
2.48773e-06
-6.61488e-08
2.45379e-06
2.78386e-09
2.51554e-06
-1.20721e-07
2.48489e-06
1.19154e-07
2.54291e-06
-2.60907e-08
2.43149e-06
-7.28803e-08
2.37612e-06
9.95374e-09
-1.59722e-07
2.54585e-06
2.48176e-06
-4.07344e-08
2.47308e-06
3.15687e-08
2.50138e-06
5.84567e-08
2.50727e-06
-7.92351e-10
2.52066e-06
-8.3584e-08
2.51614e-06
-3.35609e-08
2.48717e-06
1.41249e-07
2.51364e-06
-6.8724e-08
2.49879e-06
3.62465e-09
2.48176e-06
-3.59153e-08
2.50232e-06
6.02234e-08
2.54348e-06
-4.72077e-08
2.47622e-06
1.11605e-09
2.47435e-06
4.6579e-09
2.49885e-06
-1.45221e-07
2.49596e-06
1.22035e-07
2.50232e-06
-3.24432e-08
2.41505e-06
1.43856e-08
2.44192e-06
-1.69113e-08
-2.87667e-07
2.56986e-06
2.45624e-06
3.0265e-09
2.48288e-06
4.93218e-09
2.52516e-06
1.61766e-08
2.52721e-06
-2.84156e-09
2.52175e-06
-7.81269e-08
2.4903e-06
-2.11165e-09
2.49608e-06
1.35467e-07
2.53105e-06
-1.03694e-07
2.49361e-06
4.10629e-08
2.48769e-06
-2.99952e-08
2.51113e-06
3.6788e-08
2.51309e-06
-4.91752e-08
2.47847e-06
3.5737e-08
2.50607e-06
-2.29422e-08
2.48388e-06
-1.23031e-07
2.49742e-06
1.085e-07
2.49264e-06
-2.76601e-08
2.42215e-06
8.48697e-08
2.52151e-06
-1.16273e-07
-3.10529e-07
2.54438e-06
2.46258e-06
4.045e-08
2.49568e-06
-2.8176e-08
2.53142e-06
-1.95629e-08
2.53517e-06
-6.58631e-09
2.51519e-06
-5.815e-08
2.44544e-06
6.76446e-08
2.51224e-06
6.86631e-08
2.52806e-06
-1.19518e-07
2.49568e-06
7.34449e-08
2.51176e-06
-4.60692e-08
2.52224e-06
2.63001e-08
2.48072e-06
-7.65504e-09
2.48447e-06
3.19874e-08
2.52276e-06
-6.12311e-08
2.45753e-06
-5.77932e-08
2.50748e-06
5.85406e-08
2.48049e-06
-6.66816e-10
2.46852e-06
9.68449e-08
2.53235e-06
-1.80103e-07
-2.63358e-07
2.48517e-06
2.47596e-06
6.44937e-08
2.52593e-06
-7.81502e-08
2.52312e-06
-1.67518e-08
2.52604e-06
-9.51143e-09
2.50627e-06
-3.83785e-08
2.44475e-06
1.29172e-07
2.51192e-06
1.48651e-09
2.51544e-06
-1.23034e-07
2.48e-06
1.08887e-07
2.51592e-06
-8.19892e-08
2.50716e-06
3.50607e-08
2.47114e-06
2.8364e-08
2.50092e-06
2.20708e-09
2.50314e-06
-6.34538e-08
2.44871e-06
-3.36029e-09
2.50638e-06
8.72025e-10
2.48386e-06
2.18528e-08
2.50345e-06
7.7252e-08
2.52854e-06
-2.0519e-07
-1.37064e-07
2.40224e-06
2.51529e-06
4.9199e-08
2.50447e-06
-6.73229e-08
2.49568e-06
-7.96394e-09
2.49164e-06
-5.46936e-09
2.47967e-06
-2.64135e-08
2.49707e-06
1.11778e-07
2.53499e-06
-3.64327e-08
2.47002e-06
-5.80694e-08
2.51198e-06
6.6925e-08
2.49387e-06
-6.38736e-08
2.48665e-06
4.228e-08
2.49757e-06
1.74403e-08
2.50803e-06
-8.25504e-09
2.4751e-06
-3.05215e-08
2.46435e-06
7.39344e-09
2.4808e-06
-1.55774e-08
2.4841e-06
1.85555e-08
2.52031e-06
4.10326e-08
2.45361e-06
-1.38483e-07
-8.11065e-08
2.39765e-06
2.5492e-06
2.48188e-06
2.47391e-06
2.46844e-06
2.44203e-06
2.55381e-06
2.51737e-06
2.45931e-06
2.52623e-06
2.46236e-06
2.50464e-06
2.52208e-06
2.51382e-06
2.4833e-06
2.49069e-06
2.47512e-06
2.49367e-06
2.5347e-06
2.39622e-06
2.31511e-06
1.82895e-06
8.0402e-08
2.15947e-06
-3.30516e-07
1.83044e-06
3.29029e-07
2.2813e-06
-4.50858e-07
2.6689e-06
-3.87604e-07
1.95023e-06
7.18675e-07
2.33727e-06
-3.87038e-07
-1.02811e-07
2.44008e-06
2.53865e-06
5.47467e-08
2.73423e-06
-5.26089e-07
2.74466e-06
3.18595e-07
2.2286e-06
6.5198e-08
2.34461e-06
-5.03613e-07
2.88595e-06
1.77339e-07
2.62115e-06
-1.22235e-07
-4.51261e-07
2.9696e-06
2.72163e-06
-5.18495e-08
2.37653e-06
-1.80988e-07
2.64795e-06
4.71827e-08
2.94099e-06
-2.27847e-07
2.45864e-06
-2.12599e-08
2.98432e-06
-3.48341e-07
2.83632e-06
2.57594e-08
-3.93817e-07
2.77888e-06
2.80962e-06
-8.62761e-08
2.51553e-06
1.13103e-07
2.73444e-06
-1.71728e-07
2.72042e-06
-2.13832e-07
2.68132e-06
1.78486e-08
2.74181e-06
-4.08839e-07
2.66942e-06
9.81576e-08
-3.65473e-07
2.64107e-06
2.48871e-06
1.67773e-07
2.53638e-06
6.54342e-08
2.64114e-06
-2.76491e-07
2.68171e-06
-2.54402e-07
2.63787e-06
6.16962e-08
2.36118e-06
-1.32149e-07
2.59019e-06
-1.30854e-07
-3.28613e-07
2.55333e-06
2.59819e-06
2.15007e-07
2.6125e-06
5.11254e-08
2.58298e-06
-2.46968e-07
2.66911e-06
-3.40538e-07
2.63907e-06
9.17342e-08
2.67335e-06
-1.66428e-07
2.55342e-06
-1.09227e-08
-3.50557e-07
2.57537e-06
2.62822e-06
1.67168e-07
2.53503e-06
1.44314e-07
2.61316e-06
-3.25095e-07
2.56415e-06
-2.91533e-07
2.62771e-06
2.81776e-08
2.57548e-06
-1.14201e-07
2.60627e-06
-4.17116e-08
-3.89402e-07
2.64512e-06
2.56634e-06
1.76898e-07
2.61796e-06
9.26874e-08
2.56278e-06
-2.69909e-07
2.60256e-06
-3.3131e-07
2.59595e-06
3.47817e-08
2.48028e-06
1.4741e-09
2.59919e-06
-1.60621e-07
-3.65882e-07
2.57567e-06
2.59698e-06
8.63964e-08
2.59549e-06
9.41812e-08
2.62438e-06
-2.98796e-07
2.5715e-06
-2.78434e-07
2.51077e-06
9.5514e-08
2.55513e-06
-4.28858e-08
2.5448e-06
-1.5029e-07
-4.58954e-07
2.63787e-06
2.52838e-06
6.26323e-08
2.57986e-06
4.26984e-08
2.61886e-06
-3.37795e-07
2.54001e-06
-1.99584e-07
2.55186e-06
8.36645e-08
2.49204e-06
1.69299e-08
2.57644e-06
-2.3469e-07
-4.16974e-07
2.53446e-06
2.501e-06
4.70189e-09
2.58451e-06
-4.08088e-08
2.59978e-06
-3.53061e-07
2.53981e-06
-1.39621e-07
2.48778e-06
1.35696e-07
2.54373e-06
-3.90199e-08
2.52009e-06
-2.11043e-07
-3.80962e-07
2.48407e-06
2.51765e-06
-6.1951e-08
2.58067e-06
-1.03827e-07
2.63297e-06
-4.05363e-07
2.48712e-06
6.22734e-09
2.5224e-06
1.00411e-07
2.48381e-06
-4.23698e-10
2.50058e-06
-2.27817e-07
-3.70662e-07
2.49028e-06
2.56989e-06
-1.54486e-07
2.62634e-06
-1.60284e-07
2.53615e-06
-3.15171e-07
2.46138e-06
8.09985e-08
2.49785e-06
6.39424e-08
2.50987e-06
-1.24478e-08
2.50514e-06
-2.23087e-07
-2.65555e-07
2.40004e-06
2.61667e-06
-2.25305e-07
2.60617e-06
-1.49781e-07
2.47203e-06
-1.81037e-07
2.44896e-06
1.0407e-07
2.51838e-06
-5.47938e-09
2.51884e-06
-1.29034e-08
2.46675e-06
-1.70997e-07
-1.89359e-07
2.39055e-06
2.60075e-06
-2.56195e-07
2.57802e-06
-1.27052e-07
2.44662e-06
-4.96344e-08
2.48171e-06
6.89805e-08
2.52533e-06
-4.90999e-08
2.52105e-06
-8.62049e-09
2.45857e-06
-1.08522e-07
-6.38334e-08
2.33305e-06
2.55954e-06
-2.71362e-07
2.53776e-06
-1.05266e-07
2.47572e-06
1.24056e-08
2.52031e-06
2.43912e-08
2.50499e-06
-3.37873e-08
2.52625e-06
-2.98731e-08
2.408e-06
9.7279e-09
5.57727e-10
2.3436e-06
2.50667e-06
-2.92858e-07
2.50714e-06
-1.0574e-07
2.51122e-06
8.32967e-09
2.5139e-06
2.17094e-08
2.50721e-06
-2.70926e-08
2.50412e-06
-2.67833e-08
2.38328e-06
1.30567e-07
3.45552e-08
2.34928e-06
2.43922e-06
-3.29834e-07
2.52299e-06
-1.89511e-07
2.57168e-06
-4.03594e-08
2.54052e-06
5.28664e-08
2.50591e-06
7.5206e-09
2.48479e-06
-5.66715e-09
2.35582e-06
2.59532e-07
5.95364e-08
2.33084e-06
2.40902e-06
-3.41203e-07
2.48178e-06
-2.62266e-07
2.54551e-06
-1.04092e-07
2.54173e-06
5.66442e-08
2.49652e-06
5.27343e-08
2.42366e-06
6.71906e-08
2.37181e-06
3.11379e-07
1.16022e-07
2.31533e-06
2.30542e-06
-3.31511e-07
2.33272e-06
-2.89569e-07
2.30469e-06
-7.60583e-08
2.3587e-06
2.63695e-09
2.30831e-06
1.03123e-07
2.30687e-06
6.86329e-08
2.33256e-06
2.85683e-07
2.21153e-06
2.37059e-07
1.81129e-06
6.28793e-07
2.05435e-06
-2.43067e-07
2.60615e-06
-5.51801e-07
3.06334e-06
-4.57187e-07
2.83414e-06
2.29198e-07
3.676e-06
-8.41862e-07
2.96084e-06
7.15161e-07
3.78225e-06
-8.2141e-07
4.565e-06
-7.82749e-07
4.49004e-06
7.49604e-08
5.41866e-06
-9.28618e-07
6.01737e-06
-5.98706e-07
6.34385e-06
-3.26487e-07
7.04768e-06
-7.0383e-07
7.61332e-06
-5.65641e-07
8.18132e-06
-5.67991e-07
8.72016e-06
-5.38849e-07
9.13382e-06
-4.13653e-07
9.40707e-06
-2.73249e-07
9.68057e-06
-2.735e-07
9.63022e-06
5.03474e-08
9.75726e-06
-1.27039e-07
9.44995e-06
3.07309e-07
9.36825e-06
8.1697e-08
8.78037e-06
5.87879e-07
8.45744e-06
3.22936e-07
7.42643e-06
1.031e-06
8.83311e-07
6.54312e-06
3.12672e-06
4.71667e-07
2.74743e-06
1.3622e-07
2.54456e-06
-3.4893e-07
2.76241e-06
-6.75037e-07
2.82035e-06
1.71262e-07
3.15344e-06
-1.17495e-06
3.23346e-06
6.35141e-07
3.67335e-06
-1.2613e-06
4.23143e-06
-1.34082e-06
4.35828e-06
-5.18953e-08
5.22161e-06
-1.79195e-06
5.34618e-06
-7.23279e-07
5.94247e-06
-9.22775e-07
6.861e-06
-1.62236e-06
7.52231e-06
-1.22695e-06
8.01879e-06
-1.06447e-06
8.63346e-06
-1.15352e-06
8.946e-06
-7.26187e-07
9.3068e-06
-6.34052e-07
9.4947e-06
-4.614e-07
9.5894e-06
-4.43528e-08
9.58753e-06
-1.2517e-07
9.31673e-06
5.78113e-07
9.03013e-06
3.68299e-07
8.41283e-06
1.20518e-06
7.82818e-06
9.07579e-07
6.95242e-06
1.90677e-06
1.53023e-06
6.3055e-06
2.91843e-06
3.32116e-07
3.23947e-06
-1.84814e-07
3.11892e-06
-2.28382e-07
3.20094e-06
-7.5706e-07
3.4033e-06
-3.11014e-08
3.64011e-06
-1.41176e-06
4.15898e-06
1.16269e-07
4.20952e-06
-1.31184e-06
4.63064e-06
-1.76194e-06
5.01644e-06
-4.37701e-07
5.51653e-06
-2.29203e-06
5.91486e-06
-1.12162e-06
6.56908e-06
-1.57699e-06
7.38268e-06
-2.43597e-06
7.58897e-06
-1.43323e-06
8.3055e-06
-1.781e-06
8.7935e-06
-1.64153e-06
9.29002e-06
-1.2227e-06
9.59487e-06
-9.38905e-07
9.90242e-06
-7.68945e-07
9.92976e-06
-7.16918e-08
9.93844e-06
-1.33852e-07
9.66563e-06
8.50922e-07
9.33037e-06
7.03565e-07
8.83026e-06
1.70528e-06
8.26355e-06
1.47429e-06
7.59559e-06
2.57472e-06
2.28695e-06
6.83888e-06
2.88604e-06
8.71524e-08
2.87048e-06
-1.69257e-07
2.99538e-06
-3.5328e-07
2.84441e-06
-6.0609e-07
3.15675e-06
-3.43441e-07
3.20519e-06
-1.4602e-06
3.62962e-06
-3.08168e-07
3.88812e-06
-1.57034e-06
3.82155e-06
-1.69536e-06
4.8199e-06
-1.43606e-06
4.90344e-06
-2.37557e-06
5.5211e-06
-1.73927e-06
6.39737e-06
-2.45326e-06
6.69336e-06
-2.73195e-06
7.2741e-06
-2.01397e-06
8.21903e-06
-2.72593e-06
8.59772e-06
-2.02022e-06
9.14399e-06
-1.76898e-06
9.44976e-06
-1.24467e-06
9.70829e-06
-1.02747e-06
9.72874e-06
-9.21476e-08
9.7208e-06
-1.25907e-07
9.46012e-06
1.1116e-06
9.23483e-06
9.28852e-07
8.7503e-06
2.18981e-06
8.2608e-06
1.9638e-06
7.67104e-06
3.16448e-06
2.8449e-06
7.11309e-06
2.74347e-06
-1.02985e-07
2.86745e-06
-2.93237e-07
2.76349e-06
-2.49319e-07
2.77323e-06
-6.15832e-07
3.22889e-06
-7.99106e-07
2.76996e-06
-1.00127e-06
3.50987e-06
-1.04808e-06
3.24521e-06
-1.30567e-06
3.68684e-06
-2.13699e-06
4.73033e-06
-2.47954e-06
4.58625e-06
-2.23149e-06
5.82694e-06
-2.97997e-06
6.30665e-06
-2.93298e-06
6.78363e-06
-3.20893e-06
7.79404e-06
-3.02438e-06
8.44307e-06
-3.37496e-06
8.72605e-06
-2.3032e-06
9.25917e-06
-2.30209e-06
9.53316e-06
-1.51866e-06
9.68395e-06
-1.17827e-06
9.84721e-06
-2.55404e-07
9.70289e-06
1.8413e-08
9.57354e-06
1.24096e-06
9.26716e-06
1.23523e-06
8.79837e-06
2.65859e-06
8.3799e-06
2.38227e-06
7.67887e-06
3.86551e-06
3.32709e-06
7.19667e-06
2.77359e-06
-3.01209e-07
2.75476e-06
-2.74406e-07
2.85341e-06
-3.47975e-07
2.94228e-06
-7.04702e-07
2.99182e-06
-8.48645e-07
3.20982e-06
-1.21926e-06
3.55488e-06
-1.39314e-06
3.67828e-06
-1.42908e-06
4.39172e-06
-2.85043e-06
4.33978e-06
-2.4276e-06
5.05382e-06
-2.94553e-06
5.99828e-06
-3.92443e-06
6.15253e-06
-3.08722e-06
7.07709e-06
-4.13349e-06
7.89602e-06
-3.84331e-06
8.16983e-06
-3.64878e-06
8.69113e-06
-2.82451e-06
9.20443e-06
-2.81539e-06
9.38317e-06
-1.6974e-06
9.58116e-06
-1.37626e-06
9.68269e-06
-3.56934e-07
9.56138e-06
1.39724e-07
9.52383e-06
1.2785e-06
9.1549e-06
1.60417e-06
8.81913e-06
2.99436e-06
8.27153e-06
2.92987e-06
7.80981e-06
4.32723e-06
3.85256e-06
7.28434e-06
2.6324e-06
-2.88495e-07
2.70061e-06
-3.4261e-07
2.75742e-06
-4.04788e-07
2.73682e-06
-6.84104e-07
3.00239e-06
-1.11421e-06
3.0733e-06
-1.29017e-06
3.13559e-06
-1.45543e-06
3.66963e-06
-1.96312e-06
3.62946e-06
-2.81026e-06
4.18571e-06
-2.98385e-06
5.12924e-06
-3.88906e-06
5.22333e-06
-4.01852e-06
6.0515e-06
-3.91539e-06
7.06767e-06
-5.14967e-06
7.31366e-06
-4.08931e-06
7.69451e-06
-4.02962e-06
8.327e-06
-3.45699e-06
8.47777e-06
-2.96616e-06
8.64178e-06
-1.86142e-06
8.78214e-06
-1.51662e-06
8.86767e-06
-4.42461e-07
8.8122e-06
1.95196e-07
8.92403e-06
1.16667e-06
8.52898e-06
1.99922e-06
8.57371e-06
2.94964e-06
8.00679e-06
3.49679e-06
7.85009e-06
4.48393e-06
4.45301e-06
7.24964e-06
2.7258e-06
-4.38633e-07
2.6593e-06
-2.7611e-07
2.67224e-06
-4.17729e-07
2.78646e-06
-7.98323e-07
2.86794e-06
-1.19569e-06
2.94383e-06
-1.36606e-06
3.25621e-06
-1.76781e-06
3.42198e-06
-2.12889e-06
3.60917e-06
-2.99744e-06
4.38351e-06
-3.75819e-06
4.72887e-06
-4.23441e-06
5.2909e-06
-4.58056e-06
6.38974e-06
-5.01422e-06
6.42476e-06
-5.18469e-06
6.67409e-06
-4.33864e-06
7.27556e-06
-4.6311e-06
7.45559e-06
-3.63702e-06
7.43242e-06
-2.94299e-06
7.76999e-06
-2.19898e-06
7.81126e-06
-1.55789e-06
7.89228e-06
-5.23482e-07
7.84187e-06
2.45608e-07
7.90422e-06
1.10431e-06
7.55635e-06
2.34709e-06
7.72237e-06
2.78362e-06
7.18488e-06
4.03428e-06
7.20505e-06
4.46376e-06
4.9797e-06
6.67837e-06
2.58326e-06
-3.84026e-07
2.617e-06
-3.09851e-07
2.70024e-06
-5.00964e-07
2.69745e-06
-7.9554e-07
2.76597e-06
-1.26421e-06
2.91825e-06
-1.51834e-06
3.00621e-06
-1.85577e-06
3.23745e-06
-2.36014e-06
3.6084e-06
-3.36839e-06
4.06428e-06
-4.21407e-06
4.60424e-06
-4.77438e-06
5.27905e-06
-5.25537e-06
5.48495e-06
-5.22012e-06
5.50236e-06
-5.20211e-06
6.20534e-06
-5.04161e-06
6.29418e-06
-4.71994e-06
6.21116e-06
-3.55401e-06
6.45774e-06
-3.18956e-06
6.70524e-06
-2.44648e-06
6.54261e-06
-1.39526e-06
6.62827e-06
-6.09141e-07
6.64848e-06
2.25397e-07
6.66725e-06
1.08554e-06
6.44334e-06
2.571e-06
6.6431e-06
2.58386e-06
6.1695e-06
4.50788e-06
6.42569e-06
4.20757e-06
5.45707e-06
5.94832e-06
2.52412e-06
-3.73678e-07
2.57505e-06
-3.60787e-07
2.57638e-06
-5.02298e-07
2.65587e-06
-8.75023e-07
2.68244e-06
-1.29079e-06
2.74516e-06
-1.58106e-06
2.91437e-06
-2.02498e-06
3.10147e-06
-2.54724e-06
3.34958e-06
-3.6165e-06
3.9185e-06
-4.78299e-06
4.37426e-06
-5.23014e-06
4.47066e-06
-5.35176e-06
4.67207e-06
-5.42154e-06
5.08934e-06
-5.61938e-06
5.16797e-06
-5.12023e-06
4.91314e-06
-4.4651e-06
5.23518e-06
-3.87605e-06
5.41637e-06
-3.37076e-06
5.24223e-06
-2.27234e-06
5.13245e-06
-1.28549e-06
5.32398e-06
-8.00665e-07
5.36767e-06
1.81705e-07
5.31814e-06
1.13506e-06
5.25939e-06
2.62975e-06
5.39566e-06
2.44759e-06
4.93436e-06
4.96918e-06
5.25491e-06
3.88702e-06
5.73306e-06
4.97892e-06
2.45249e-06
-3.42099e-07
2.46913e-06
-3.77422e-07
2.56119e-06
-5.94356e-07
2.54544e-06
-8.59279e-07
2.54709e-06
-1.29243e-06
2.63637e-06
-1.67033e-06
2.72373e-06
-2.11234e-06
2.88105e-06
-2.70455e-06
3.25734e-06
-3.99279e-06
3.56962e-06
-5.09526e-06
3.63707e-06
-5.29759e-06
3.85372e-06
-5.56842e-06
4.04007e-06
-5.60788e-06
3.88036e-06
-5.45966e-06
3.77364e-06
-5.01351e-06
3.88314e-06
-4.5746e-06
3.99696e-06
-3.98987e-06
3.62682e-06
-3.00062e-06
3.62878e-06
-2.2743e-06
3.86905e-06
-1.52576e-06
3.75683e-06
-6.88443e-07
3.65697e-06
2.81571e-07
3.68695e-06
1.10508e-06
3.91421e-06
2.40249e-06
3.99183e-06
2.36998e-06
3.88273e-06
5.07828e-06
4.2675e-06
3.50224e-06
5.93065e-06
4.06991e-06
2.38337e-06
-2.35193e-07
2.47566e-06
-4.69711e-07
2.42524e-06
-5.43934e-07
2.46567e-06
-8.99709e-07
2.46718e-06
-1.29394e-06
2.39292e-06
-1.59607e-06
2.52483e-06
-2.24425e-06
2.69545e-06
-2.87518e-06
2.84716e-06
-4.14449e-06
2.96478e-06
-5.21289e-06
3.15117e-06
-5.48398e-06
3.12057e-06
-5.53782e-06
2.84952e-06
-5.33683e-06
2.74026e-06
-5.35041e-06
2.69115e-06
-4.9644e-06
2.41924e-06
-4.30269e-06
2.23972e-06
-3.81035e-06
2.23465e-06
-2.99555e-06
2.29873e-06
-2.33837e-06
2.02997e-06
-1.257e-06
1.93032e-06
-5.88794e-07
2.22077e-06
-8.88232e-09
2.27158e-06
1.05427e-06
2.32978e-06
2.34429e-06
2.3047e-06
2.39506e-06
2.43158e-06
4.9514e-06
2.85957e-06
3.07425e-06
5.83224e-06
2.95798e-06
2.4189e-06
-2.54061e-07
2.38159e-06
-4.32398e-07
2.39021e-06
-5.52555e-07
2.40822e-06
-9.17721e-07
2.27216e-06
-1.15788e-06
2.32127e-06
-1.64518e-06
2.36847e-06
-2.29146e-06
2.34191e-06
-2.84861e-06
2.43555e-06
-4.23814e-06
2.47311e-06
-5.25044e-06
2.27964e-06
-5.29052e-06
2.05865e-06
-5.31682e-06
1.8979e-06
-5.17608e-06
1.5011e-06
-4.95361e-06
1.1345e-06
-4.5978e-06
9.71598e-07
-4.13979e-06
8.55782e-07
-3.69454e-06
5.92139e-07
-2.73191e-06
4.26436e-07
-2.17267e-06
3.19074e-07
-1.14963e-06
3.93375e-07
-6.63095e-07
2.46945e-07
1.37548e-07
2.61185e-07
1.04003e-06
2.04812e-07
2.40066e-06
6.03597e-07
1.99627e-06
1.32884e-06
4.22616e-06
1.46526e-06
2.93784e-06
5.70772e-06
1.58977e-06
2.35642e-06
-2.19929e-07
2.33402e-06
-4.09993e-07
2.34055e-06
-5.59089e-07
2.33151e-06
-9.08675e-07
2.19939e-06
-1.02576e-06
2.14656e-06
-1.59235e-06
2.1296e-06
-2.2745e-06
2.03039e-06
-2.7494e-06
1.89186e-06
-4.09961e-06
1.68263e-06
-5.0412e-06
1.53305e-06
-5.14094e-06
1.1713e-06
-4.95508e-06
6.11983e-07
-4.61676e-06
1.82831e-07
-4.52445e-06
-9.3963e-08
-4.321e-06
-5.36917e-07
-3.69684e-06
-8.82036e-07
-3.34942e-06
-1.00129e-06
-2.61266e-06
-1.20438e-06
-1.96958e-06
-1.35901e-06
-9.95002e-07
-1.47024e-06
-5.51867e-07
-1.70006e-06
3.67372e-07
-1.37731e-06
7.1727e-07
-1.19699e-06
2.22035e-06
-1.15292e-06
1.95219e-06
-4.66381e-07
3.53962e-06
-4.22373e-07
2.89383e-06
4.90668e-06
3.78675e-07
2.37384e-06
-2.60722e-07
2.28668e-06
-3.22834e-07
2.30039e-06
-5.728e-07
2.22244e-06
-8.30724e-07
2.04635e-06
-8.49667e-07
2.07455e-06
-1.62056e-06
1.85644e-06
-2.05638e-06
1.53441e-06
-2.42738e-06
1.31054e-06
-3.87574e-06
9.63412e-07
-4.69408e-06
5.07893e-07
-4.68542e-06
3.94968e-08
-4.48669e-06
-3.70793e-07
-4.20647e-06
-1.01303e-06
-3.88221e-06
-1.63754e-06
-3.69649e-06
-2.03475e-06
-3.29963e-06
-2.48061e-06
-2.90356e-06
-2.77179e-06
-2.32147e-06
-3.02358e-06
-1.71779e-06
-3.09641e-06
-9.2218e-07
-3.26698e-06
-3.81292e-07
-3.30789e-06
4.08276e-07
-3.2399e-06
6.49284e-07
-3.11833e-06
2.09878e-06
-2.72526e-06
1.55913e-06
-2.07215e-06
2.88651e-06
-2.01568e-06
2.83736e-06
4.02934e-06
-1.13835e-06
2.31127e-06
-2.28387e-07
2.26829e-06
-2.79854e-07
2.27794e-06
-5.82454e-07
2.0869e-06
-6.39678e-07
2.00064e-06
-7.6341e-07
1.87928e-06
-1.49919e-06
1.55305e-06
-1.73016e-06
1.12339e-06
-1.99772e-06
6.44747e-07
-3.39709e-06
1.74258e-07
-4.22359e-06
-3.71726e-07
-4.13944e-06
-1.05791e-06
-3.8005e-06
-1.71262e-06
-3.55177e-06
-2.32463e-06
-3.27021e-06
-2.98499e-06
-3.03613e-06
-3.55246e-06
-2.73217e-06
-4.03745e-06
-2.41857e-06
-4.38344e-06
-1.97548e-06
-4.68972e-06
-1.41152e-06
-4.82604e-06
-7.85858e-07
-4.98285e-06
-2.24485e-07
-4.89265e-06
3.18081e-07
-4.86798e-06
6.2461e-07
-4.53111e-06
1.76192e-06
-4.15891e-06
1.18692e-06
-3.85041e-06
2.57801e-06
-3.28176e-06
2.26871e-06
2.89171e-06
-2.14413e-06
2.29957e-06
-1.78671e-07
2.26844e-06
-2.48726e-07
2.21527e-06
-5.29286e-07
2.00177e-06
-4.26181e-07
1.93481e-06
-6.96442e-07
1.74171e-06
-1.30609e-06
1.20697e-06
-1.19542e-06
6.1837e-07
-1.40912e-06
4.94096e-08
-2.82813e-06
-6.17944e-07
-3.55623e-06
-1.36271e-06
-3.39467e-06
-2.0438e-06
-3.11941e-06
-2.84316e-06
-2.7524e-06
-3.62826e-06
-2.48511e-06
-4.33776e-06
-2.32663e-06
-4.97732e-06
-2.09261e-06
-5.54324e-06
-1.85265e-06
-5.9945e-06
-1.52421e-06
-6.31071e-06
-1.0953e-06
-6.50032e-06
-5.96249e-07
-6.56571e-06
-1.59103e-07
-6.44875e-06
2.01124e-07
-6.38562e-06
5.6148e-07
-5.88087e-06
1.25717e-06
-5.63439e-06
9.40436e-07
-5.14181e-06
2.08544e-06
-4.18885e-06
1.31575e-06
2.26755e-06
-3.56469e-06
2.26893e-06
-1.16761e-07
2.26152e-06
-2.41308e-07
2.14171e-06
-4.09485e-07
1.92217e-06
-2.06639e-07
1.86559e-06
-6.39864e-07
1.51289e-06
-9.53386e-07
9.37834e-07
-6.20366e-07
2.76178e-07
-7.47462e-07
-5.45235e-07
-2.00672e-06
-1.37121e-06
-2.73026e-06
-2.21646e-06
-2.54942e-06
-3.08485e-06
-2.25102e-06
-3.94018e-06
-1.89707e-06
-4.75993e-06
-1.66536e-06
-5.51825e-06
-1.56831e-06
-6.21106e-06
-1.39979e-06
-6.81963e-06
-1.24408e-06
-7.32252e-06
-1.02132e-06
-7.69332e-06
-7.24509e-07
-7.89772e-06
-3.9185e-07
-7.93931e-06
-1.17514e-07
-7.84211e-06
1.03925e-07
-7.70669e-06
4.2606e-07
-7.19366e-06
7.44146e-07
-6.98481e-06
7.31586e-07
-6.33602e-06
1.43665e-06
-5.8193e-06
7.99024e-07
1.808e-06
-5.35975e-06
2.26359e-06
-6.50288e-08
2.21549e-06
-1.93205e-07
1.99523e-06
-1.89223e-07
1.85852e-06
-6.99294e-08
1.65561e-06
-4.36958e-07
1.24025e-06
-5.38024e-07
7.57786e-07
-1.379e-07
1.84876e-07
-1.74552e-07
-7.61786e-07
-1.06006e-06
-1.84917e-06
-1.64288e-06
-2.90961e-06
-1.48899e-06
-3.98117e-06
-1.17945e-06
-4.98221e-06
-8.96028e-07
-5.83133e-06
-8.16244e-07
-6.60406e-06
-7.95575e-07
-7.29695e-06
-7.06903e-07
-7.90639e-06
-6.34643e-07
-8.40925e-06
-5.18461e-07
-8.7641e-06
-3.69658e-07
-8.95555e-06
-2.004e-07
-9.00077e-06
-7.23032e-08
-8.94345e-06
4.66137e-08
-8.73646e-06
2.19062e-07
-8.35141e-06
3.59095e-07
-8.05198e-06
4.32155e-07
-7.3515e-06
7.36175e-07
-6.97072e-06
4.1824e-07
1.01329e-06
-6.176e-06
2.1465e-06
1.95329e-06
1.76407e-06
1.69414e-06
1.25718e-06
7.19158e-07
5.81259e-07
4.06707e-07
-6.53351e-07
-2.29623e-06
-3.78521e-06
-4.96467e-06
-5.86069e-06
-6.67694e-06
-7.47251e-06
-8.17941e-06
-8.81406e-06
-9.33252e-06
-9.70218e-06
-9.90258e-06
-9.97488e-06
-9.92827e-06
-9.7092e-06
-9.35011e-06
-8.91795e-06
-8.18178e-06
-7.76354e-06
-6.75025e-06
5.27844e-06
3.08224e-06
-1.81756e-06
4.44261e-06
3.87543e-06
-3.03961e-06
3.30733e-06
2.0455e-06
-9.10218e-07
2.53193e-06
7.08266e-07
6.71293e-08
1.61288e-06
-7.91374e-08
9.98192e-07
2.31841e-06
-2.56644e-07
-4.48889e-07
1.57332e-06
-2.70116e-06
3.44626e-06
-2.43854e-06
-1.87306e-06
5.88492e-06
6.08893e-06
3.29881e-06
5.87685e-06
4.08752e-06
5.18133e-06
2.74102e-06
4.67574e-06
1.21385e-06
3.16329e-06
1.43332e-06
2.6678e-06
2.38837e-07
4.02088e-06
-4.05424e-06
-3.52276e-07
1.93461e-06
6.47338e-06
3.66431e-06
6.55928e-06
4.00161e-06
5.56515e-06
3.73515e-06
5.14023e-06
1.63876e-06
3.77799e-06
2.79556e-06
2.36175e-06
1.65508e-06
4.80242e-07
-2.17273e-06
1.59489e-06
-1.46692e-06
6.51542e-06
4.26198e-06
6.47831e-06
4.03873e-06
5.72721e-06
4.48625e-06
4.87367e-06
2.49231e-06
4.44586e-06
3.22338e-06
1.68842e-06
4.41252e-06
-3.02388e-06
2.53957e-06
-4.4912e-07
-9.79866e-07
6.64548e-06
4.81318e-06
6.39928e-06
4.28492e-06
5.95625e-06
4.92928e-06
4.97646e-06
3.4721e-06
4.94802e-06
3.25181e-06
4.73845e-06
4.62209e-06
3.46979e-06
3.80822e-06
4.01366e-07
2.61931e-06
6.84836e-06
5.24916e-06
6.44561e-06
4.68768e-06
6.22149e-06
5.1534e-06
5.22322e-06
4.47037e-06
5.00403e-06
3.471e-06
5.18813e-06
4.438e-06
4.58768e-06
4.40867e-06
1.8845e-06
3.10454e-06
6.91204e-06
5.58676e-06
6.61495e-06
4.98477e-06
6.16538e-06
5.60297e-06
5.33324e-06
5.30251e-06
4.7529e-06
4.05134e-06
5.2816e-06
3.9093e-06
4.83893e-06
4.85134e-06
3.20681e-06
3.51662e-06
6.39868e-06
5.86644e-06
6.39437e-06
4.98908e-06
6.04202e-06
5.95532e-06
5.52481e-06
5.81972e-06
4.60362e-06
4.97253e-06
4.96605e-06
3.54687e-06
4.82903e-06
4.98836e-06
4.15322e-06
3.88262e-06
5.81184e-06
6.00292e-06
5.93567e-06
4.86525e-06
5.46616e-06
6.42483e-06
5.35355e-06
5.93233e-06
4.65659e-06
5.66949e-06
4.81239e-06
3.39106e-06
4.80222e-06
4.99853e-06
4.76197e-06
4.19348e-06
4.82242e-06
6.15942e-06
5.23867e-06
4.449e-06
4.97077e-06
6.69273e-06
4.67962e-06
6.22348e-06
4.20424e-06
6.14487e-06
4.21683e-06
3.37848e-06
4.40677e-06
4.80858e-06
4.96444e-06
4.2043e-06
3.98217e-06
6.24717e-06
4.16927e-06
4.26189e-06
4.43988e-06
6.42212e-06
4.64301e-06
6.02035e-06
4.17282e-06
6.61505e-06
3.96005e-06
3.59125e-06
4.14806e-06
4.62058e-06
4.94574e-06
4.16676e-06
3.35732e-06
5.84783e-06
3.45027e-06
4.16894e-06