/*--------------------------------*- C++ -*----------------------------------*\
| =========                 |                                                 |
| \\      /  F ield         | OpenFOAM: The Open Source CFD Toolbox           |
|  \\    /   O peration     | Version:  2.4.0                                 |
|   \\  /    A nd           | Web:      www.OpenFOAM.org                      |
|    \\/     M anipulation  |                                                 |
\*---------------------------------------------------------------------------*/
FoamFile
{
    version     2.0;
    format      ascii;
    class       volScalarField;
    location    "1.78";
    object      nut;
}
// * * * * * * * * * * * * * * * * * * * * * * * * * * * * * * * * * * * * * //

dimensions      [0 2 -1 0 0 0 0];

internalField   nonuniform List<scalar> 
6000
(
1.24046e-05
1.01537e-05
5.69137e-06
2.9912e-06
2.53135e-06
2.94513e-06
3.73056e-06
5.48011e-06
7.88011e-06
9.65027e-06
1.04976e-05
1.04911e-05
1.02081e-05
1.02655e-05
1.0214e-05
1.36681e-05
1.64083e-05
1.77159e-05
1.77432e-05
1.68213e-05
1.5291e-05
1.36663e-05
1.2064e-05
1.05965e-05
8.96129e-06
7.22377e-06
5.62366e-06
4.78119e-06
5.52901e-06
6.33286e-06
6.97554e-06
7.47978e-06
7.88418e-06
8.22405e-06
8.52542e-06
8.8045e-06
9.06964e-06
9.32389e-06
9.5672e-06
9.79805e-06
1.00144e-05
1.02141e-05
1.03954e-05
1.05568e-05
1.06975e-05
1.08173e-05
1.09166e-05
1.09966e-05
1.1059e-05
1.11063e-05
1.1141e-05
1.1166e-05
1.11833e-05
1.1197e-05
1.12041e-05
1.12204e-05
1.12092e-05
1.12784e-05
1.11346e-05
1.14359e-05
2.3357e-05
3.47118e-05
1.70212e-05
9.40082e-06
8.93583e-06
1.34856e-05
2.09185e-05
2.85682e-05
3.7686e-05
4.13696e-05
3.35702e-05
2.65899e-05
2.67595e-05
3.03615e-05
2.73588e-05
1.92537e-05
1.43887e-05
1.3543e-05
1.57134e-05
2.10796e-05
2.6553e-05
3.15857e-05
3.55066e-05
3.74926e-05
3.72822e-05
3.44597e-05
2.85616e-05
2.06932e-05
1.54651e-05
1.27183e-05
1.1268e-05
1.05407e-05
1.02118e-05
1.01059e-05
1.01297e-05
1.02325e-05
1.03858e-05
1.05715e-05
1.07756e-05
1.0986e-05
1.11907e-05
1.13786e-05
1.15395e-05
1.16645e-05
1.17466e-05
1.17805e-05
1.17633e-05
1.16936e-05
1.15725e-05
1.14027e-05
1.11884e-05
1.0935e-05
1.06498e-05
1.03372e-05
1.00099e-05
9.6559e-06
9.32651e-06
8.89159e-06
8.55386e-06
8.12687e-06
2.88997e-05
5.02222e-05
2.4232e-05
1.26721e-05
1.80081e-05
2.32803e-05
3.42421e-05
4.55612e-05
6.00948e-05
7.01986e-05
6.34797e-05
5.23663e-05
4.52272e-05
3.92081e-05
2.43188e-05
1.60257e-05
1.77655e-05
2.74727e-05
4.303e-05
5.7614e-05
6.5225e-05
6.99121e-05
7.13652e-05
6.9523e-05
6.46449e-05
5.72084e-05
4.76383e-05
3.74312e-05
3.0226e-05
2.53607e-05
2.2099e-05
1.99691e-05
1.85691e-05
1.76171e-05
1.69351e-05
1.64182e-05
1.60097e-05
1.56811e-05
1.54187e-05
1.52137e-05
1.50568e-05
1.49359e-05
1.48363e-05
1.47417e-05
1.46358e-05
1.45032e-05
1.4331e-05
1.4109e-05
1.38301e-05
1.34905e-05
1.30896e-05
1.26294e-05
1.21144e-05
1.1549e-05
1.09437e-05
1.02939e-05
9.63471e-06
8.89199e-06
8.05036e-06
7.14502e-06
3.21958e-05
5.71235e-05
2.74392e-05
1.50372e-05
2.46992e-05
2.97738e-05
4.19779e-05
5.3924e-05
6.90674e-05
8.3247e-05
7.99166e-05
6.85458e-05
5.64646e-05
3.85941e-05
2.06684e-05
1.96539e-05
3.36473e-05
5.47876e-05
7.20508e-05
8.15135e-05
8.58646e-05
8.75244e-05
8.62323e-05
8.19175e-05
7.49867e-05
6.63004e-05
5.66101e-05
4.72025e-05
4.05737e-05
3.58207e-05
3.24051e-05
3.0023e-05
2.83613e-05
2.71516e-05
2.61945e-05
2.53579e-05
2.45647e-05
2.378e-05
2.29982e-05
2.22304e-05
2.14932e-05
2.08007e-05
2.01605e-05
1.9572e-05
1.90272e-05
1.85131e-05
1.80138e-05
1.75127e-05
1.69944e-05
1.64461e-05
1.58577e-05
1.52229e-05
1.45384e-05
1.38031e-05
1.30188e-05
1.21868e-05
1.13123e-05
1.04022e-05
9.29521e-06
8.44398e-06
3.39582e-05
5.93647e-05
3.38139e-05
1.64713e-05
2.91689e-05
3.41136e-05
4.61264e-05
5.70933e-05
7.04335e-05
8.75604e-05
8.86867e-05
7.86374e-05
6.17177e-05
3.4134e-05
2.02188e-05
3.00883e-05
5.52198e-05
7.62879e-05
8.74675e-05
9.31075e-05
9.59378e-05
9.63075e-05
9.37554e-05
8.81585e-05
8.00698e-05
7.06914e-05
6.08822e-05
5.16799e-05
4.54996e-05
4.13132e-05
3.84353e-05
3.64786e-05
3.51628e-05
3.42566e-05
3.35718e-05
3.29673e-05
3.23468e-05
3.16537e-05
3.08646e-05
2.99816e-05
2.90244e-05
2.80223e-05
2.70062e-05
2.60038e-05
2.5035e-05
2.41107e-05
2.32328e-05
2.2396e-05
2.15898e-05
2.0801e-05
2.00164e-05
1.92235e-05
1.8412e-05
1.75753e-05
1.67055e-05
1.58118e-05
1.48644e-05
1.39777e-05
1.28044e-05
1.25539e-05
3.49066e-05
5.89814e-05
4.11147e-05
1.61226e-05
3.17576e-05
3.72064e-05
4.80465e-05
5.71041e-05
6.74762e-05
8.62481e-05
9.29654e-05
8.49676e-05
6.17231e-05
2.99609e-05
2.32943e-05
4.51729e-05
7.36981e-05
8.91015e-05
9.63566e-05
0.000100702
0.000103063
0.00010283
9.94643e-05
9.28317e-05
8.35984e-05
7.33852e-05
6.34197e-05
5.40882e-05
4.76422e-05
4.34755e-05
4.09432e-05
3.94095e-05
3.84863e-05
3.79456e-05
3.76205e-05
3.73799e-05
3.7125e-05
3.67875e-05
3.63268e-05
3.57261e-05
3.49878e-05
3.41286e-05
3.31745e-05
3.21564e-05
3.11058e-05
3.0051e-05
2.90143e-05
2.80102e-05
2.70451e-05
2.61187e-05
2.52257e-05
2.43581e-05
2.35069e-05
2.26657e-05
2.18248e-05
2.09999e-05
2.01566e-05
1.94756e-05
1.85621e-05
1.92431e-05
3.5418e-05
5.716e-05
4.66404e-05
1.71329e-05
3.24104e-05
3.9692e-05
4.87553e-05
5.54687e-05
6.25711e-05
8.07643e-05
9.40523e-05
8.80672e-05
5.7867e-05
2.73916e-05
2.97414e-05
6.1283e-05
8.68295e-05
9.76068e-05
0.000103387
0.000107538
0.000109779
0.000109115
0.000105022
9.73751e-05
8.68529e-05
7.54047e-05
6.51242e-05
5.60022e-05
4.91005e-05
4.43422e-05
4.16182e-05
4.02e-05
3.94942e-05
3.91911e-05
3.91197e-05
3.91577e-05
3.92089e-05
3.92007e-05
3.90837e-05
3.88302e-05
3.84317e-05
3.78937e-05
3.72323e-05
3.64698e-05
3.56322e-05
3.4747e-05
3.38402e-05
3.2935e-05
3.2049e-05
3.11944e-05
3.03773e-05
2.95999e-05
2.88614e-05
2.81612e-05
2.74989e-05
2.68909e-05
2.63352e-05
2.59957e-05
2.56794e-05
2.72007e-05
3.56778e-05
5.46281e-05
5.03722e-05
2.28459e-05
3.10351e-05
4.20276e-05
4.92006e-05
5.35939e-05
5.75329e-05
7.23616e-05
9.25357e-05
8.77261e-05
5.18468e-05
2.66851e-05
3.90267e-05
7.56312e-05
9.63334e-05
0.000104703
0.00011032
0.000114686
0.000116867
0.00011573
0.000110863
0.000102195
9.03397e-05
7.73105e-05
6.61941e-05
5.76e-05
5.06053e-05
4.51225e-05
4.17572e-05
4.00617e-05
3.93237e-05
3.90923e-05
3.9144e-05
3.93477e-05
3.96046e-05
3.98356e-05
3.99818e-05
4.00063e-05
3.98931e-05
3.96432e-05
3.92695e-05
3.87917e-05
3.82326e-05
3.76159e-05
3.6965e-05
3.63017e-05
3.56455e-05
3.50124e-05
3.4415e-05
3.38622e-05
3.33617e-05
3.29198e-05
3.25489e-05
3.22661e-05
3.21151e-05
3.21913e-05
3.26505e-05
3.47386e-05
3.57879e-05
5.1833e-05
5.25515e-05
3.03028e-05
2.84621e-05
4.44097e-05
5.01972e-05
5.25791e-05
5.35873e-05
6.28115e-05
8.85505e-05
8.32583e-05
4.59008e-05
2.78057e-05
5.01331e-05
8.74392e-05
0.000104086
0.000111716
0.000117811
0.000122523
0.000124563
0.000122801
0.000117034
0.000107314
9.41883e-05
7.95013e-05
6.69237e-05
5.86918e-05
5.20263e-05
4.61495e-05
4.20307e-05
3.9762e-05
3.87433e-05
3.84157e-05
3.84693e-05
3.87407e-05
3.91188e-05
3.95138e-05
3.98536e-05
4.00877e-05
4.01897e-05
4.01548e-05
3.99953e-05
3.97327e-05
3.93927e-05
3.90009e-05
3.85809e-05
3.81544e-05
3.77403e-05
3.73552e-05
3.70135e-05
3.67276e-05
3.65108e-05
3.63746e-05
3.63444e-05
3.64325e-05
3.67428e-05
3.7252e-05
3.85143e-05
4.09567e-05
3.58102e-05
4.90442e-05
5.34408e-05
3.77238e-05
2.63806e-05
4.66392e-05
5.22496e-05
5.31694e-05
5.16003e-05
5.43187e-05
8.17442e-05
7.58866e-05
4.1006e-05
3.06889e-05
6.18696e-05
9.717e-05
0.000111277
0.000119238
0.000126142
0.000131208
0.000132946
0.000130336
0.000123475
0.000112625
9.83166e-05
8.21298e-05
6.7753e-05
5.9271e-05
5.30531e-05
4.72544e-05
4.25923e-05
3.9658e-05
3.81794e-05
3.76078e-05
3.75557e-05
3.78105e-05
3.82403e-05
3.87413e-05
3.92259e-05
3.96266e-05
3.9901e-05
4.00339e-05
4.00331e-05
3.99219e-05
3.97303e-05
3.94893e-05
3.92274e-05
3.89694e-05
3.87364e-05
3.85466e-05
3.84163e-05
3.83603e-05
3.83962e-05
3.85397e-05
3.88273e-05
3.92677e-05
4.00158e-05
4.09394e-05
4.29466e-05
4.56429e-05
3.57825e-05
4.64157e-05
5.33072e-05
4.40389e-05
2.67366e-05
4.80911e-05
5.54306e-05
5.55767e-05
5.18122e-05
4.83154e-05
7.18423e-05
6.72071e-05
3.74966e-05
3.52575e-05
7.32908e-05
0.000105581
0.00011858
0.000127565
0.000135471
0.000140837
0.000142064
0.000138329
0.000130128
0.000118017
0.000102568
8.51179e-05
6.89794e-05
5.96102e-05
5.35583e-05
4.81478e-05
4.33075e-05
3.98142e-05
3.78078e-05
3.68884e-05
3.66418e-05
3.68082e-05
3.72294e-05
3.77866e-05
3.83773e-05
3.89158e-05
3.93404e-05
3.96201e-05
3.97531e-05
3.97602e-05
3.96744e-05
3.95326e-05
3.93693e-05
3.92148e-05
3.90948e-05
3.90311e-05
3.90431e-05
3.91491e-05
3.93707e-05
3.97282e-05
4.02679e-05
4.09981e-05
4.21149e-05
4.34013e-05
4.60302e-05
4.8947e-05
3.57273e-05
4.40269e-05
5.2406e-05
4.89587e-05
3.12806e-05
4.81842e-05
5.93811e-05
5.95687e-05
5.4177e-05
4.51694e-05
6.07959e-05
5.85719e-05
3.54705e-05
4.13622e-05
8.38996e-05
0.000113326
0.000126377
0.00013687
0.000145908
0.000151487
0.000151962
0.000146791
0.000136964
0.000123409
0.000106796
8.82799e-05
7.06803e-05
6.00401e-05
5.36496e-05
4.86394e-05
4.39565e-05
4.01356e-05
3.76455e-05
3.63335e-05
3.58317e-05
3.5853e-05
3.62142e-05
3.67824e-05
3.7443e-05
3.80939e-05
3.86538e-05
3.90719e-05
3.9332e-05
3.94476e-05
3.94517e-05
3.9385e-05
3.92881e-05
3.9197e-05
3.9143e-05
3.91524e-05
3.92486e-05
3.94538e-05
3.9794e-05
4.02945e-05
4.10102e-05
4.19523e-05
4.33481e-05
4.49255e-05
4.80402e-05
5.11498e-05
3.56586e-05
4.19096e-05
5.09659e-05
5.24415e-05
3.72232e-05
4.67565e-05
6.34477e-05
6.47081e-05
5.83916e-05
4.46745e-05
5.0793e-05
5.10844e-05
3.49164e-05
4.8742e-05
9.35975e-05
0.000120879
0.000134892
0.000147267
0.000157537
0.000163226
0.000162689
0.000155747
0.000143982
0.000128764
0.000110907
9.14349e-05
7.27584e-05
6.07789e-05
5.35655e-05
4.87045e-05
4.43588e-05
4.04732e-05
3.76267e-05
3.59378e-05
3.51532e-05
3.49914e-05
3.52523e-05
3.57921e-05
3.64877e-05
3.7225e-05
3.79046e-05
3.84551e-05
3.88421e-05
3.90675e-05
3.91603e-05
3.9163e-05
3.91207e-05
3.90752e-05
3.90628e-05
3.91145e-05
3.9258e-05
3.95191e-05
3.99282e-05
4.05149e-05
4.13412e-05
4.24236e-05
4.40117e-05
4.58033e-05
4.92708e-05
5.25399e-05
3.55844e-05
4.00667e-05
4.91807e-05
5.45831e-05
4.3182e-05
4.42063e-05
6.70247e-05
7.05567e-05
6.40275e-05
4.6524e-05
4.3587e-05
4.54223e-05
3.57894e-05
5.70417e-05
0.000102522
0.000128569
0.000144265
0.000158832
0.000170418
0.000176104
0.000174283
0.000165223
0.000151194
0.000134076
0.000114855
9.4458e-05
7.50446e-05
6.18812e-05
5.35434e-05
4.84546e-05
4.44287e-05
4.06889e-05
3.76557e-05
3.56551e-05
3.45933e-05
3.42311e-05
3.43653e-05
3.48455e-05
3.55443e-05
3.63407e-05
3.71217e-05
3.77963e-05
3.83099e-05
3.86491e-05
3.88353e-05
3.89101e-05
3.89219e-05
3.89174e-05
3.89375e-05
3.90178e-05
3.91897e-05
3.94824e-05
3.99298e-05
4.05651e-05
4.14561e-05
4.2624e-05
4.43342e-05
4.62717e-05
4.99755e-05
5.33648e-05
3.55101e-05
3.84841e-05
4.72076e-05
5.55484e-05
4.85024e-05
4.35241e-05
6.95708e-05
7.67459e-05
7.06998e-05
5.04046e-05
3.98764e-05
4.1837e-05
3.80358e-05
6.58806e-05
0.000110902
0.000136613
0.000154576
0.000171607
0.000184581
0.000190144
0.000186761
0.000175233
0.000158611
0.000139351
0.000118629
9.72845e-05
7.73815e-05
6.32775e-05
5.37352e-05
4.80642e-05
4.41812e-05
4.06916e-05
3.76388e-05
3.54249e-05
3.41201e-05
3.35601e-05
3.35553e-05
3.39544e-05
3.46303e-05
3.54598e-05
3.63216e-05
3.71083e-05
3.77453e-05
3.82013e-05
3.84865e-05
3.86391e-05
3.8709e-05
3.8747e-05
3.87986e-05
3.89033e-05
3.90961e-05
3.94092e-05
3.98791e-05
4.05419e-05
4.14692e-05
4.26866e-05
4.44691e-05
4.64991e-05
5.03474e-05
5.38174e-05
3.54386e-05
3.7139e-05
4.51685e-05
5.55308e-05
5.29032e-05
4.56137e-05
7.0663e-05
8.29499e-05
7.81032e-05
5.6006e-05
3.93883e-05
4.03028e-05
4.15882e-05
7.49262e-05
0.000118969
0.000145151
0.000165866
0.000185603
0.000200022
0.000205337
0.000200113
0.000185771
0.000166236
0.000144598
0.000122234
9.9893e-05
7.96611e-05
6.48434e-05
5.4187e-05
4.76987e-05
4.37051e-05
4.0451e-05
3.75047e-05
3.51875e-05
3.36951e-05
3.29568e-05
3.28138e-05
3.3121e-05
3.37548e-05
3.45946e-05
3.55161e-05
3.64003e-05
3.71541e-05
3.77272e-05
3.81159e-05
3.83518e-05
3.8485e-05
3.85694e-05
3.86546e-05
3.87842e-05
3.89963e-05
3.93259e-05
3.98115e-05
4.04917e-05
4.14402e-05
4.26858e-05
4.45092e-05
4.65946e-05
5.05212e-05
5.40368e-05
3.53716e-05
3.60047e-05
4.31539e-05
5.47292e-05
5.62559e-05
4.95992e-05
7.00491e-05
8.88378e-05
8.59659e-05
6.30331e-05
4.15059e-05
4.06678e-05
4.63489e-05
8.3941e-05
0.000126918
0.000154267
0.00017814
0.000200795
0.000216701
0.000221637
0.0002143
0.000196811
0.000174054
0.000149819
0.00012568
0.000102285
8.18271e-05
6.64545e-05
5.48629e-05
4.74696e-05
4.31212e-05
3.99935e-05
3.72149e-05
3.48948e-05
3.32813e-05
3.23969e-05
3.21273e-05
3.2341e-05
3.29211e-05
3.37532e-05
3.47146e-05
3.568e-05
3.65412e-05
3.72291e-05
3.77236e-05
3.80476e-05
3.8249e-05
3.83839e-05
3.8506e-05
3.86625e-05
3.88948e-05
3.92404e-05
3.974e-05
4.04334e-05
4.13961e-05
4.2659e-05
4.45052e-05
4.66225e-05
5.05836e-05
5.41174e-05
3.53099e-05
3.50542e-05
4.12275e-05
5.33337e-05
5.85282e-05
5.43593e-05
6.89306e-05
9.40353e-05
9.40168e-05
7.12144e-05
4.5682e-05
4.27416e-05
5.21801e-05
9.27915e-05
0.000134897
0.000164
0.00019137
0.000217127
0.000234546
0.000238971
0.000229258
0.000208302
0.000182039
0.000155004
0.000128973
0.000104473
8.38607e-05
6.80137e-05
5.56854e-05
4.74219e-05
4.25429e-05
3.93842e-05
3.67657e-05
3.45153e-05
3.28481e-05
3.18573e-05
3.14805e-05
3.16069e-05
3.21288e-05
3.29403e-05
3.39246e-05
3.4955e-05
3.59122e-05
3.67097e-05
3.73105e-05
3.7726e-05
3.79998e-05
3.81893e-05
3.83514e-05
3.85371e-05
3.87913e-05
3.9154e-05
3.96676e-05
4.03733e-05
4.13476e-05
4.26228e-05
4.44826e-05
4.6618e-05
5.05869e-05
5.41196e-05
3.52539e-05
3.42618e-05
3.94309e-05
5.15176e-05
5.97579e-05
5.90485e-05
6.89242e-05
9.80607e-05
0.000101981
8.03029e-05
5.14981e-05
4.63248e-05
5.89076e-05
0.00010143
0.00014301
0.000174351
0.000205503
0.000234513
0.000253453
0.000257234
0.000244895
0.000220179
0.000190148
0.000160137
0.000132115
0.000106486
8.57441e-05
6.94566e-05
5.65686e-05
4.75461e-05
4.2051e-05
3.87039e-05
3.61838e-05
3.40378e-05
3.2374e-05
3.13189e-05
3.08591e-05
3.09095e-05
3.13745e-05
3.21578e-05
3.31515e-05
3.42315e-05
3.52723e-05
3.61727e-05
3.68783e-05
3.73871e-05
3.77368e-05
3.79843e-05
3.81893e-05
3.84067e-05
3.86846e-05
3.90656e-05
3.95939e-05
4.03122e-05
4.12977e-05
4.25834e-05
4.44524e-05
4.65987e-05
5.05606e-05
5.40797e-05
3.52036e-05
3.36039e-05
3.77887e-05
4.9432e-05
6.0033e-05
6.31507e-05
7.05213e-05
0.000100429
0.000109589
9.00637e-05
5.86177e-05
5.12121e-05
6.63385e-05
0.000109866
0.000151318
0.000185293
0.000220458
0.000252841
0.000273295
0.000276298
0.0002611
0.000232358
0.000198332
0.000165194
0.0001351
0.000108387
8.74359e-05
7.07463e-05
5.74382e-05
4.77996e-05
4.16852e-05
3.80275e-05
3.55145e-05
3.34695e-05
3.18488e-05
3.07679e-05
3.0251e-05
3.02401e-05
3.06536e-05
3.14058e-05
3.23988e-05
3.35151e-05
3.46269e-05
3.56217e-05
3.64288e-05
3.70318e-05
3.746e-05
3.77684e-05
3.80191e-05
3.82703e-05
3.85734e-05
3.8974e-05
3.95181e-05
4.02497e-05
4.12465e-05
4.25424e-05
4.44191e-05
4.65728e-05
5.052e-05
5.40185e-05
3.51586e-05
3.30598e-05
3.63119e-05
4.72043e-05
5.9475e-05
6.63691e-05
7.32454e-05
0.000101815
0.00011659
0.000100254
6.67641e-05
5.71955e-05
7.42828e-05
0.000118137
0.00015985
0.000196774
0.000236129
0.000271976
0.000293924
0.000296014
0.000277742
0.000244739
0.000206527
0.000170145
0.000137921
0.000110196
8.8937e-05
7.18652e-05
5.82387e-05
4.81271e-05
4.14495e-05
3.74103e-05
3.48098e-05
3.28323e-05
3.12726e-05
3.01968e-05
2.96474e-05
2.95911e-05
2.99612e-05
3.06827e-05
3.16685e-05
3.28097e-05
3.39806e-05
3.50606e-05
3.59647e-05
3.66613e-05
3.71697e-05
3.75417e-05
3.78404e-05
3.81273e-05
3.84572e-05
3.88784e-05
3.94392e-05
4.01847e-05
4.11935e-05
4.24998e-05
4.43838e-05
4.65434e-05
5.04728e-05
5.39472e-05
3.51188e-05
3.26111e-05
3.50019e-05
4.49377e-05
5.82243e-05
6.8558e-05
7.64448e-05
0.000103001
0.00012276
0.000110599
7.57129e-05
6.40723e-05
8.25717e-05
0.000126288
0.000168606
0.000208718
0.000252395
0.000291766
0.000315176
0.000316217
0.000294671
0.000257212
0.000214668
0.000174955
0.000140565
0.000111929
9.02499e-05
7.28065e-05
5.89332e-05
4.84753e-05
4.13232e-05
3.68826e-05
3.41164e-05
3.2156e-05
3.0655e-05
2.9604e-05
2.90429e-05
2.89566e-05
2.92926e-05
2.99863e-05
3.09612e-05
3.21186e-05
3.33375e-05
3.44933e-05
3.54886e-05
3.6277e-05
3.68667e-05
3.73043e-05
3.76532e-05
3.79775e-05
3.83356e-05
3.87785e-05
3.93567e-05
4.01168e-05
4.11381e-05
4.24551e-05
4.43465e-05
4.65116e-05
5.04222e-05
5.38715e-05
3.50836e-05
3.22423e-05
3.38534e-05
4.27121e-05
5.64289e-05
6.96786e-05
7.95715e-05
0.000104499
0.000127879
0.000120773
8.5286e-05
7.16573e-05
9.10664e-05
0.000134357
0.000177559
0.00022103
0.000269114
0.000312041
0.000336867
0.000336722
0.000311725
0.000269657
0.000222681
0.000179588
0.000143017
0.000113599
9.13744e-05
7.35687e-05
5.94997e-05
4.87998e-05
4.12731e-05
3.64518e-05
3.34687e-05
3.14718e-05
3.00114e-05
2.89933e-05
2.84357e-05
2.83327e-05
2.8644e-05
2.93143e-05
3.0277e-05
3.14439e-05
3.2701e-05
3.39231e-05
3.5003e-05
3.58806e-05
3.65517e-05
3.70566e-05
3.74576e-05
3.78211e-05
3.82086e-05
3.86741e-05
3.92704e-05
4.00456e-05
4.10798e-05
4.2408e-05
4.43071e-05
4.64776e-05
5.03699e-05
5.37943e-05
3.50526e-05
3.19401e-05
3.28566e-05
4.05867e-05
5.42344e-05
6.97689e-05
8.22141e-05
0.000106276
0.000132116
0.000130416
9.5332e-05
7.97918e-05
9.96601e-05
0.000142369
0.000186664
0.0002336
0.00028613
0.000332616
0.000358803
0.000357329
0.000328726
0.000281941
0.000230487
0.000184006
0.000145261
0.000115224
9.23073e-05
7.41522e-05
5.99267e-05
4.90676e-05
4.12636e-05
3.61089e-05
3.28867e-05
3.08067e-05
2.93597e-05
2.83721e-05
2.78269e-05
2.77178e-05
2.80127e-05
2.86644e-05
2.96151e-05
3.07867e-05
3.20739e-05
3.33531e-05
3.45108e-05
3.54739e-05
3.62259e-05
3.67991e-05
3.72539e-05
3.76582e-05
3.80763e-05
3.85653e-05
3.91803e-05
3.99711e-05
4.10185e-05
4.23582e-05
4.42652e-05
4.64413e-05
5.03161e-05
5.37166e-05
3.50255e-05
3.16931e-05
3.19993e-05
3.86022e-05
5.1777e-05
6.89214e-05
8.40901e-05
0.000108075
0.000135696
0.000139183
0.0001057
8.83487e-05
0.000108274
0.00015033
0.000195856
0.000246302
0.000303274
0.000353293
0.000380768
0.000377823
0.000345481
0.000293925
0.000238005
0.000188166
0.000147419
0.000116681
9.3041e-05
7.45581e-05
6.02096e-05
4.92563e-05
4.12621e-05
3.5835e-05
3.23766e-05
3.01803e-05
2.87174e-05
2.77499e-05
2.72198e-05
2.71116e-05
2.73969e-05
2.80349e-05
2.89748e-05
3.01479e-05
3.14582e-05
3.27862e-05
3.40144e-05
3.50587e-05
3.58902e-05
3.65325e-05
3.70425e-05
3.7489e-05
3.79388e-05
3.84522e-05
3.90864e-05
3.98932e-05
4.09543e-05
4.23057e-05
4.42208e-05
4.64026e-05
5.02611e-05
5.36391e-05
3.50017e-05
3.1492e-05
3.12678e-05
3.67839e-05
4.91783e-05
6.72648e-05
8.50296e-05
0.000109616
0.000138719
0.000146806
0.000116313
9.72345e-05
0.000116853
0.00015823
0.000205059
0.000259001
0.000320365
0.000373858
0.000402533
0.000397971
0.000361787
0.000305463
0.000245149
0.000192028
0.000149558
0.000117907
9.35688e-05
7.47877e-05
6.03478e-05
4.93521e-05
4.12422e-05
3.56075e-05
3.19344e-05
2.96039e-05
2.80987e-05
2.71367e-05
2.66193e-05
2.65153e-05
2.6796e-05
2.74243e-05
2.83551e-05
2.95278e-05
3.08555e-05
3.22248e-05
3.35162e-05
3.46369e-05
3.55459e-05
3.62573e-05
3.68237e-05
3.73137e-05
3.77965e-05
3.8335e-05
3.89891e-05
3.98122e-05
4.0887e-05
4.22503e-05
4.41738e-05
4.63615e-05
5.02048e-05
5.35617e-05
3.49809e-05
3.13287e-05
3.06482e-05
3.51445e-05
4.6542e-05
6.49489e-05
8.49574e-05
0.000110639
0.000141123
0.000153317
0.000126995
0.000106392
0.000125359
0.000166042
0.00021418
0.000271549
0.000337212
0.00039408
0.000423845
0.000417522
0.000377431
0.000316406
0.000251832
0.000195552
0.000151692
0.000118885
9.38853e-05
7.48423e-05
6.03434e-05
4.93477e-05
4.11841e-05
3.54045e-05
3.15494e-05
2.90812e-05
2.75137e-05
2.65414e-05
2.60306e-05
2.59311e-05
2.62101e-05
2.68319e-05
2.77552e-05
2.89264e-05
3.02671e-05
3.16707e-05
3.30185e-05
3.42103e-05
3.51942e-05
3.59744e-05
3.65979e-05
3.71326e-05
3.76494e-05
3.82138e-05
3.88883e-05
3.97281e-05
4.08169e-05
4.21923e-05
4.41243e-05
4.63181e-05
5.01473e-05
5.34848e-05
3.49627e-05
3.11967e-05
3.0127e-05
3.36869e-05
4.39526e-05
6.21326e-05
8.3878e-05
0.000110932
0.00014284
0.00015901
0.000137401
0.0001158
0.000133779
0.000173728
0.000223117
0.000283786
0.00035361
0.000413709
0.000444431
0.000436208
0.00039219
0.000326603
0.00025797
0.000198896
0.000153653
0.000119597
9.39849e-05
7.47231e-05
6.01995e-05
4.92406e-05
4.10744e-05
3.52065e-05
3.1208e-05
2.86101e-05
2.69682e-05
2.5971e-05
2.54587e-05
2.53617e-05
2.564e-05
2.62572e-05
2.71746e-05
2.83436e-05
2.96937e-05
3.11257e-05
3.2523e-05
3.37807e-05
3.48364e-05
3.56845e-05
3.63656e-05
3.6946e-05
3.74978e-05
3.8089e-05
3.87843e-05
3.96411e-05
4.07441e-05
4.21317e-05
4.40724e-05
4.62723e-05
5.00885e-05
5.34081e-05
3.49468e-05
3.10904e-05
2.96915e-05
3.24069e-05
4.14754e-05
5.89726e-05
8.18595e-05
0.000110342
0.000143762
0.00016394
0.000146896
0.000125478
0.000142141
0.000181243
0.00023175
0.00029554
0.000369338
0.000432474
0.000463993
0.000453741
0.000405832
0.000335904
0.000263479
0.000202231
0.000155266
0.000120023
9.38632e-05
7.44318e-05
5.99202e-05
4.90313e-05
4.09048e-05
3.49982e-05
3.08962e-05
2.81844e-05
2.64637e-05
2.54305e-05
2.4908e-05
2.48096e-05
2.50867e-05
2.57004e-05
2.66128e-05
2.77792e-05
2.91359e-05
3.05911e-05
3.20317e-05
3.33497e-05
3.44738e-05
3.53883e-05
3.61273e-05
3.67542e-05
3.73419e-05
3.79606e-05
3.86774e-05
3.95514e-05
4.06689e-05
4.20687e-05
4.40181e-05
4.62244e-05
5.00287e-05
5.33319e-05
3.4933e-05
3.10052e-05
2.93298e-05
3.1295e-05
3.91575e-05
5.56158e-05
7.90182e-05
0.000108779
0.000143744
0.000168037
0.000154942
0.000135459
0.00015058
0.000188536
0.000239926
0.000306612
0.000384152
0.00045007
0.000482203
0.000469816
0.000418126
0.000344165
0.000268583
0.000205321
0.000156481
0.000120151
9.35171e-05
7.39708e-05
5.95103e-05
4.87225e-05
4.0671e-05
3.47681e-05
3.06008e-05
2.77961e-05
2.59989e-05
2.49221e-05
2.43817e-05
2.42773e-05
2.45514e-05
2.51616e-05
2.60696e-05
2.7233e-05
2.85941e-05
3.00679e-05
3.15461e-05
3.29188e-05
3.41076e-05
3.50869e-05
3.58835e-05
3.65575e-05
3.7182e-05
3.78289e-05
3.85676e-05
3.94593e-05
4.05912e-05
4.20035e-05
4.39617e-05
4.61743e-05
4.99677e-05
5.3256e-05
3.49209e-05
3.09372e-05
2.90314e-05
3.03388e-05
3.70296e-05
5.21926e-05
7.55038e-05
0.000106221
0.000142678
0.000171149
0.000161629
0.000145472
0.000159014
0.00019578
0.000247755
0.00031676
0.000397772
0.000466153
0.000498699
0.000484109
0.000428837
0.000351361
0.000273488
0.000207862
0.000157264
0.000119967
9.2945e-05
7.33431e-05
5.89747e-05
4.83183e-05
4.0372e-05
3.45085e-05
3.03109e-05
2.74366e-05
2.55701e-05
2.44465e-05
2.3882e-05
2.37668e-05
2.40354e-05
2.46414e-05
2.55448e-05
2.6705e-05
2.80684e-05
2.9557e-05
3.10674e-05
3.24896e-05
3.37389e-05
3.4781e-05
3.56347e-05
3.63563e-05
3.70183e-05
3.76941e-05
3.84552e-05
3.93648e-05
4.05115e-05
4.19361e-05
4.39032e-05
4.61224e-05
4.99059e-05
5.31806e-05
3.49103e-05
3.08835e-05
2.87869e-05
2.95238e-05
3.51084e-05
4.88134e-05
7.14846e-05
0.000102708
0.000140497
0.000173121
0.000167368
0.00015497
0.000167371
0.000202964
0.000255359
0.000326287
0.000409867
0.000480327
0.000513082
0.000496277
0.000437872
0.000357937
0.000277655
0.000209757
0.00015759
0.000119464
9.2147e-05
7.25528e-05
5.83192e-05
4.78236e-05
4.00088e-05
3.42146e-05
3.00178e-05
2.70976e-05
2.51727e-05
2.40026e-05
2.34097e-05
2.32795e-05
2.35399e-05
2.41401e-05
2.50385e-05
2.61948e-05
2.75591e-05
2.90591e-05
3.05968e-05
3.20633e-05
3.33692e-05
3.44715e-05
3.53815e-05
3.61509e-05
3.6851e-05
3.75564e-05
3.83404e-05
3.92683e-05
4.04297e-05
4.18668e-05
4.38428e-05
4.60686e-05
4.98431e-05
5.31057e-05
3.4901e-05
3.08412e-05
2.85879e-05
2.8835e-05
3.33995e-05
4.55664e-05
6.71339e-05
9.83348e-05
0.000137178
0.000173793
0.000172487
0.000163476
0.000175529
0.000210062
0.000262689
0.000335125
0.000420606
0.000492434
0.000524985
0.00050625
0.000445509
0.000363443
0.000280872
0.000210953
0.000157438
0.000118637
9.11252e-05
7.16049e-05
5.75499e-05
4.72441e-05
3.9584e-05
3.38843e-05
2.97152e-05
2.67718e-05
2.48014e-05
2.35883e-05
2.2965e-05
2.28162e-05
2.30656e-05
2.36584e-05
2.45509e-05
2.57025e-05
2.70661e-05
2.85746e-05
3.01353e-05
3.16412e-05
3.29993e-05
3.41593e-05
3.51245e-05
3.59416e-05
3.66804e-05
3.74159e-05
3.82234e-05
3.91698e-05
4.03462e-05
4.17958e-05
4.37807e-05
4.60132e-05
4.97796e-05
5.30314e-05
3.4893e-05
3.08082e-05
2.84272e-05
2.82576e-05
3.18993e-05
4.25179e-05
6.26189e-05
9.32416e-05
0.000132745
0.000172997
0.000177082
0.000170692
0.000183308
0.000217023
0.000269699
0.000343195
0.000429906
0.000502447
0.00053448
0.00051411
0.000451573
0.00036763
0.000283041
0.000211416
0.000156797
0.000117483
8.98838e-05
7.05057e-05
5.66734e-05
4.65858e-05
3.91014e-05
3.35172e-05
2.93988e-05
2.64531e-05
2.44513e-05
2.32008e-05
2.2547e-05
2.23774e-05
2.2613e-05
2.31965e-05
2.40818e-05
2.5228e-05
2.65895e-05
2.81038e-05
2.96835e-05
3.12243e-05
3.26305e-05
3.38453e-05
3.48644e-05
3.5729e-05
3.65067e-05
3.72729e-05
3.81043e-05
3.90695e-05
4.02611e-05
4.17232e-05
4.37171e-05
4.59564e-05
4.97155e-05
5.29578e-05
3.48859e-05
3.07828e-05
2.82985e-05
2.77772e-05
3.05978e-05
3.97129e-05
5.80911e-05
8.76001e-05
0.000127273
0.000170667
0.000181039
0.000176546
0.000190489
0.000223769
0.000276336
0.000350432
0.000437715
0.000510366
0.000541631
0.000519891
0.000455921
0.000370364
0.000284111
0.000211125
0.000155658
0.000116006
8.8429e-05
6.92626e-05
5.56971e-05
4.58552e-05
3.85656e-05
3.31145e-05
2.90661e-05
2.6137e-05
2.41178e-05
2.2837e-05
2.21545e-05
2.19627e-05
2.21826e-05
2.27548e-05
2.36316e-05
2.47712e-05
2.61293e-05
2.76471e-05
2.92423e-05
3.08134e-05
3.22638e-05
3.35303e-05
3.46017e-05
3.55133e-05
3.63302e-05
3.71276e-05
3.79833e-05
3.89676e-05
4.01745e-05
4.16492e-05
4.36521e-05
4.58982e-05
4.96509e-05
5.28849e-05
3.48797e-05
3.07635e-05
2.81964e-05
2.73806e-05
2.94809e-05
3.71777e-05
5.368e-05
8.15996e-05
0.000120883
0.000166801
0.000184105
0.000181177
0.000196844
0.000230184
0.000282544
0.000356785
0.000444007
0.000516218
0.000546504
0.000523596
0.000458452
0.00037158
0.000284055
0.000210068
0.000154022
0.000114211
8.67694e-05
6.78843e-05
5.46286e-05
4.50591e-05
3.79817e-05
3.26786e-05
2.87162e-05
2.582e-05
2.37969e-05
2.24941e-05
2.17859e-05
2.15718e-05
2.17744e-05
2.23335e-05
2.32002e-05
2.4332e-05
2.56853e-05
2.72046e-05
2.8812e-05
3.04096e-05
3.18999e-05
3.32152e-05
3.4337e-05
3.52951e-05
3.61513e-05
3.69802e-05
3.78606e-05
3.88643e-05
4.00866e-05
4.15739e-05
4.35859e-05
4.58389e-05
4.9586e-05
5.28129e-05
3.48743e-05
3.07491e-05
2.81162e-05
2.70558e-05
2.85319e-05
3.49228e-05
4.94889e-05
7.54326e-05
0.00011374
0.000161455
0.000185972
0.000184841
0.000202176
0.000236124
0.000288254
0.000362213
0.00044878
0.000520045
0.000549164
0.000525223
0.000459111
0.000371248
0.000282864
0.000208248
0.000151896
0.000112107
8.49153e-05
6.63804e-05
5.34763e-05
4.42044e-05
3.73549e-05
3.22124e-05
2.83493e-05
2.55001e-05
2.34855e-05
2.21692e-05
2.14393e-05
2.12037e-05
2.1388e-05
2.19325e-05
2.27877e-05
2.39103e-05
2.52576e-05
2.67764e-05
2.83931e-05
3.00134e-05
3.15399e-05
3.29007e-05
3.4071e-05
3.50747e-05
3.59701e-05
3.68309e-05
3.77363e-05
3.87598e-05
3.99977e-05
4.14976e-05
4.35186e-05
4.57786e-05
4.95208e-05
5.27418e-05
3.48695e-05
3.07386e-05
2.80541e-05
2.6792e-05
2.7733e-05
3.2946e-05
4.55941e-05
6.92816e-05
0.000106038
0.000154742
0.000186347
0.000187789
0.000206362
0.000241419
0.000293383
0.000366681
0.000452045
0.000521903
0.000549677
0.000524775
0.00045788
0.000369369
0.000280548
0.000205675
0.000149293
0.00010971
8.28795e-05
6.47618e-05
5.22491e-05
4.32984e-05
3.66909e-05
3.17195e-05
2.79665e-05
2.51762e-05
2.31813e-05
2.18599e-05
2.11131e-05
2.08575e-05
2.10232e-05
2.15518e-05
2.23939e-05
2.35061e-05
2.48459e-05
2.63626e-05
2.7986e-05
2.96255e-05
3.11844e-05
3.25876e-05
3.38043e-05
3.48527e-05
3.5787e-05
3.66798e-05
3.76107e-05
3.86541e-05
3.99077e-05
4.14204e-05
4.34504e-05
4.57175e-05
4.94555e-05
5.26717e-05
3.48653e-05
3.07312e-05
2.80067e-05
2.65796e-05
2.70663e-05
3.12352e-05
4.20458e-05
6.33079e-05
9.79968e-05
0.00014683
0.000185007
0.000190165
0.000209372
0.000245891
0.000297833
0.000370157
0.000453826
0.000521857
0.000548111
0.000522274
0.000454771
0.000365968
0.000277132
0.000202372
0.000146232
0.000107035
8.06764e-05
6.30401e-05
5.09563e-05
4.23484e-05
3.59956e-05
3.12039e-05
2.75696e-05
2.48479e-05
2.28827e-05
2.15643e-05
2.08056e-05
2.05322e-05
2.06794e-05
2.11911e-05
2.20187e-05
2.31191e-05
2.44503e-05
2.59631e-05
2.75909e-05
2.92463e-05
3.08341e-05
3.22766e-05
3.35376e-05
3.46293e-05
3.56024e-05
3.65274e-05
3.74839e-05
3.85476e-05
3.9817e-05
4.13423e-05
4.33815e-05
4.56556e-05
4.93902e-05
5.26028e-05
3.48617e-05
3.07263e-05
2.79713e-05
2.64102e-05
2.65147e-05
2.97721e-05
3.88703e-05
5.76443e-05
8.9837e-05
0.000137938
0.000181824
0.000191962
0.000211276
0.000249373
0.000301487
0.000372604
0.000454153
0.000519976
0.000544534
0.000517755
0.000449823
0.00036109
0.000272659
0.000198372
0.00014274
0.000104103
7.8322e-05
6.1228e-05
4.96075e-05
4.1362e-05
3.52747e-05
3.06699e-05
2.71609e-05
2.45158e-05
2.25887e-05
2.12806e-05
2.05153e-05
2.02267e-05
2.03558e-05
2.08499e-05
2.16619e-05
2.27492e-05
2.40704e-05
2.55779e-05
2.72078e-05
2.88764e-05
3.04897e-05
3.19683e-05
3.32712e-05
3.44052e-05
3.54165e-05
3.63736e-05
3.73561e-05
3.84402e-05
3.97257e-05
4.12637e-05
4.33121e-05
4.55933e-05
4.93252e-05
5.25351e-05
3.48585e-05
3.07233e-05
2.79455e-05
2.62765e-05
2.60621e-05
2.85343e-05
3.60741e-05
5.23907e-05
8.17724e-05
0.000128318
0.000176783
0.000193026
0.000212217
0.000251732
0.000304223
0.000373981
0.000453055
0.000516335
0.000539021
0.000511276
0.0004431
0.000354803
0.000267183
0.000193717
0.000138846
0.000100937
7.58339e-05
5.93387e-05
4.82129e-05
4.03468e-05
3.45341e-05
3.01216e-05
2.67432e-05
2.41808e-05
2.22989e-05
2.10079e-05
2.02408e-05
1.99398e-05
2.00518e-05
2.0528e-05
2.13232e-05
2.23962e-05
2.37062e-05
2.52068e-05
2.6837e-05
2.85159e-05
3.01517e-05
3.16635e-05
3.3006e-05
3.41807e-05