/*--------------------------------*- C++ -*----------------------------------*\
| =========                 |                                                 |
| \\      /  F ield         | OpenFOAM: The Open Source CFD Toolbox           |
|  \\    /   O peration     | Version:  2.4.0                                 |
|   \\  /    A nd           | Web:      www.OpenFOAM.org                      |
|    \\/     M anipulation  |                                                 |
\*---------------------------------------------------------------------------*/
FoamFile
{
    version     2.0;
    format      ascii;
    class       volVectorField;
    location    "3";
    object      U;
}
// * * * * * * * * * * * * * * * * * * * * * * * * * * * * * * * * * * * * * //

dimensions      [0 1 -1 0 0 0 0];

internalField   nonuniform List<vector> 
1800
(
(0.933744 -2.83817 0)
(1.06569 -2.17038 0)
(1.0937 -1.89177 0)
(1.04953 -1.74161 0)
(0.997465 -1.67195 0)
(0.952288 -1.6413 0)
(0.912848 -1.63208 0)
(0.877143 -1.63484 0)
(0.843804 -1.64389 0)
(0.811892 -1.65574 0)
(0.780826 -1.66831 0)
(0.750304 -1.68052 0)
(0.720211 -1.69188 0)
(0.690534 -1.70225 0)
(0.661308 -1.71167 0)
(0.632574 -1.72028 0)
(0.604356 -1.72827 0)
(0.57664 -1.73588 0)
(0.549368 -1.74338 0)
(0.522447 -1.75104 0)
(1.05514 -1.08354 0)
(1.01758 -0.99835 0)
(0.984198 -0.910662 0)
(0.972848 -0.835084 0)
(0.959368 -0.790395 0)
(0.937259 -0.769097 0)
(0.909881 -0.762702 0)
(0.880428 -0.764884 0)
(0.850257 -0.771374 0)
(0.819797 -0.779514 0)
(0.789239 -0.787783 0)
(0.758729 -0.795337 0)
(0.728403 -0.801664 0)
(0.698389 -0.806389 0)
(0.668812 -0.809248 0)
(0.639776 -0.810145 0)
(0.611342 -0.809236 0)
(0.583515 -0.806936 0)
(0.556245 -0.803809 0)
(0.52944 -0.80039 0)
(0.997478 -0.70303 0)
(0.972275 -0.703961 0)
(0.947701 -0.694522 0)
(0.930446 -0.682776 0)
(0.917682 -0.672579 0)
(0.904853 -0.667496 0)
(0.889687 -0.668239 0)
(0.871634 -0.673282 0)
(0.850728 -0.680622 0)
(0.827255 -0.688672 0)
(0.801696 -0.6963 0)
(0.774621 -0.702535 0)
(0.746576 -0.706325 0)
(0.718037 -0.706585 0)
(0.689396 -0.70248 0)
(0.660955 -0.693786 0)
(0.632899 -0.681131 0)
(0.605298 -0.665893 0)
(0.57812 -0.649753 0)
(0.551277 -0.634184 0)
(0.9949 -0.490929 0)
(0.975333 -0.49404 0)
(0.955234 -0.4993 0)
(0.937945 -0.505898 0)
(0.921366 -0.512568 0)
(0.903831 -0.519449 0)
(0.885392 -0.526977 0)
(0.866501 -0.53514 0)
(0.847225 -0.54363 0)
(0.827351 -0.552075 0)
(0.806666 -0.560136 0)
(0.785053 -0.567486 0)
(0.762484 -0.573728 0)
(0.738987 -0.578424 0)
(0.714637 -0.581236 0)
(0.689549 -0.582083 0)
(0.663868 -0.581195 0)
(0.637741 -0.579072 0)
(0.611289 -0.576381 0)
(0.58459 -0.573854 0)
(0.996414 -0.367842 0)
(0.980805 -0.370207 0)
(0.963601 -0.373769 0)
(0.948025 -0.378543 0)
(0.932707 -0.383791 0)
(0.916171 -0.389331 0)
(0.898309 -0.395309 0)
(0.879538 -0.401811 0)
(0.860081 -0.408819 0)
(0.839943 -0.416285 0)
(0.819091 -0.424166 0)
(0.797532 -0.432445 0)
(0.775305 -0.441119 0)
(0.752459 -0.450176 0)
(0.729057 -0.459582 0)
(0.705174 -0.469285 0)
(0.680898 -0.479212 0)
(0.656311 -0.489267 0)
(0.631458 -0.499342 0)
(0.606332 -0.509338 0)
(0.997224 -0.289643 0)
(0.984294 -0.290964 0)
(0.969433 -0.29286 0)
(0.95553 -0.295582 0)
(0.941704 -0.29871 0)
(0.926744 -0.302083 0)
(0.910439 -0.305806 0)
(0.893034 -0.309993 0)
(0.874658 -0.314697 0)
(0.855289 -0.319955 0)
(0.834895 -0.32581 0)
(0.813496 -0.332311 0)
(0.791158 -0.339508 0)
(0.767977 -0.347437 0)
(0.744071 -0.356104 0)
(0.719593 -0.365473 0)
(0.694718 -0.375455 0)
(0.669628 -0.385907 0)
(0.644467 -0.396651 0)
(0.619298 -0.407503 0)
(0.99779 -0.235556 0)
(0.987086 -0.235878 0)
(0.974456 -0.236418 0)
(0.962349 -0.237591 0)
(0.950157 -0.239113 0)
(0.936886 -0.240805 0)
(0.922302 -0.242734 0)
(0.906546 -0.245012 0)
(0.88968 -0.247711 0)
(0.871643 -0.250883 0)
(0.852361 -0.254588 0)
(0.831807 -0.258896 0)
(0.810003 -0.263879 0)
(0.787006 -0.2696 0)
(0.762923 -0.276103 0)
(0.737922 -0.283398 0)
(0.712236 -0.291441 0)
(0.686153 -0.300112 0)
(0.659967 -0.30921 0)
(0.6339 -0.318485 0)
(0.998278 -0.196136 0)
(0.989697 -0.195575 0)
(0.979376 -0.194986 0)
(0.969282 -0.194931 0)
(0.958972 -0.195172 0)
(0.947646 -0.195501 0)
(0.935068 -0.195949 0)
(0.921295 -0.196628 0)
(0.906328 -0.197614 0)
(0.890069 -0.198963 0)
(0.872397 -0.200739 0)
(0.853229 -0.203025 0)
(0.832511 -0.205916 0)
(0.81023 -0.209515 0)
(0.786423 -0.213921 0)
(0.761211 -0.219214 0)
(0.734828 -0.225433 0)
(0.707632 -0.232528 0)
(0.680083 -0.240312 0)
(0.652648 -0.248445 0)
(0.998742 -0.166498 0)
(0.992306 -0.165194 0)
(0.984431 -0.163676 0)
(0.976573 -0.162629 0)
(0.968411 -0.161828 0)
(0.95933 -0.161022 0)
(0.949107 -0.160219 0)
(0.93773 -0.159521 0)
(0.92514 -0.159005 0)
(0.911196 -0.15872 0)
(0.89573 -0.158727 0)
(0.878587 -0.15911 0)
(0.859622 -0.159979 0)
(0.838714 -0.161465 0)
(0.815779 -0.163718 0)
(0.790819 -0.166906 0)
(0.763974 -0.171188 0)
(0.735595 -0.176663 0)
(0.706285 -0.18327 0)
(0.67684 -0.190659 0)
(0.999201 -0.14386 0)
(0.994959 -0.141964 0)
(0.989658 -0.13971 0)
(0.984234 -0.137878 0)
(0.978463 -0.136236 0)
(0.971918 -0.134499 0)
(0.964405 -0.132647 0)
(0.955855 -0.130773 0)
(0.946159 -0.128942 0)
(0.93514 -0.12719 0)
(0.922585 -0.125562 0)
(0.908265 -0.12413 0)
(0.891934 -0.123 0)
(0.873331 -0.12231 0)
(0.852199 -0.122241 0)
(0.828325 -0.123032 0)
(0.80162 -0.124981 0)
(0.77225 -0.128416 0)
(0.74082 -0.133576 0)
(0.708487 -0.140317 0)
(0.999656 -0.126509 0)
(0.997632 -0.124184 0)
(0.994986 -0.121389 0)
(0.992132 -0.118969 0)
(0.988941 -0.116682 0)
(0.985172 -0.114215 0)
(0.980678 -0.111526 0)
(0.975352 -0.108687 0)
(0.969052 -0.105749 0)
(0.961582 -0.102723 0)
(0.9527 -0.0996281 0)
(0.94212 -0.0965075 0)
(0.929501 -0.0934361 0)
(0.914442 -0.0905261 0)
(0.896477 -0.0879468 0)
(0.875095 -0.0859555 0)
(0.8498 -0.0849473 0)
(0.820274 -0.0855014 0)
(0.786751 -0.0883741 0)
(0.750561 -0.0940529 0)
(1.0001 -0.113315 0)
(1.00026 -0.110725 0)
(1.00026 -0.107593 0)
(1.00003 -0.104783 0)
(0.999516 -0.102053 0)
(0.998671 -0.0990716 0)
(0.997408 -0.0957745 0)
(0.995607 -0.0922156 0)
(0.993116 -0.0884206 0)
(0.989747 -0.084374 0)
(0.985262 -0.0800569 0)
(0.979356 -0.0754676 0)
(0.971637 -0.0706255 0)
(0.961598 -0.0655774 0)
(0.94859 -0.0604184 0)
(0.931782 -0.0553295 0)
(0.910145 -0.0506679 0)
(0.88249 -0.0471093 0)
(0.847928 -0.0460576 0)
(0.807253 -0.049336 0)
(1.00051 -0.103469 0)
(1.00274 -0.100782 0)
(1.00529 -0.0975168 0)
(1.00762 -0.0945198 0)
(1.00975 -0.0915542 0)
(1.01184 -0.0882876 0)
(1.01387 -0.0846384 0)
(1.01574 -0.0806388 0)
(1.01729 -0.0762905 0)
(1.0184 -0.0715482 0)
(1.01886 -0.066353 0)
(1.01842 -0.0606488 0)
(1.0167 -0.054382 0)
(1.01319 -0.0474999 0)
(1.00717 -0.0399658 0)
(0.997597 -0.03177 0)
(0.98299 -0.0230274 0)
(0.961075 -0.0140077 0)
(0.92875 -0.00783313 0)
(0.884556 -0.00672239 0)
(1.00088 -0.0963487 0)
(1.00498 -0.0937254 0)
(1.00986 -0.0905271 0)
(1.01454 -0.0875424 0)
(1.01916 -0.0845506 0)
(1.02404 -0.0812345 0)
(1.02923 -0.0775034 0)
(1.03466 -0.0733695 0)
(1.04024 -0.0688137 0)
(1.0459 -0.0637661 0)
(1.05155 -0.0581332 0)
(1.05701 -0.0518079 0)
(1.06204 -0.044662 0)
(1.06624 -0.0365337 0)
(1.06904 -0.0272209 0)
(1.06939 -0.0164842 0)
(1.06618 -0.00411409 0)
(1.05527 0.00943358 0)
(1.03026 0.0225387 0)
(0.986714 0.0317497 0)
(1.00119 -0.0914388 0)
(1.00688 -0.0890222 0)
(1.01374 -0.0860758 0)
(1.02047 -0.0832906 0)
(1.02726 -0.0804715 0)
(1.03458 -0.0773344 0)
(1.04259 -0.0737887 0)
(1.05124 -0.0698317 0)
(1.06051 -0.0654306 0)
(1.07043 -0.0605024 0)
(1.08101 -0.0549334 0)
(1.09227 -0.0485836 0)
(1.10413 -0.0412712 0)
(1.11649 -0.0327491 0)
(1.12908 -0.0226741 0)
(1.14135 -0.0106153 0)
(1.15204 0.00394471 0)
(1.15721 0.0215576 0)
(1.14874 0.0446303 0)
(1.11527 0.0686353 0)
(1.00143 -0.0882826 0)
(1.00836 -0.0861881 0)
(1.01677 -0.0836504 0)
(1.02511 -0.0812264 0)
(1.03362 -0.0787536 0)
(1.04289 -0.0759968 0)
(1.05317 -0.0728758 0)
(1.06445 -0.06938 0)
(1.07676 -0.0654725 0)
(1.09023 -0.061072 0)
(1.10502 -0.0560656 0)
(1.12129 -0.0503093 0)
(1.13925 -0.0436085 0)
(1.15909 -0.0356882 0)
(1.18104 -0.0261344 0)
(1.20518 -0.0143333 0)
(1.23121 0.000867078 0)
(1.25814 0.0216821 0)
(1.27878 0.0543738 0)
(1.27492 0.100242 0)
(1.0014 -0.0860998 0)
(1.00909 -0.0844679 0)
(1.01852 -0.0824802 0)
(1.02792 -0.0805522 0)
(1.03758 -0.078571 0)
(1.04817 -0.0763656 0)
(1.05998 -0.073875 0)
(1.07305 -0.0710877 0)
(1.08748 -0.0679727 0)
(1.10346 -0.0644652 0)
(1.12126 -0.0604756 0)
(1.14122 -0.0558876 0)
(1.16372 -0.0505423 0)
(1.18933 -0.0442106 0)
(1.2187 -0.0365222 0)
(1.25302 -0.0268429 0)
(1.29317 -0.0136792 0)
(1.34358 0.00574398 0)
(1.40271 0.0397115 0)
(1.46935 0.10525 0)
(1.00025 -0.0841269 0)
(1.00557 -0.0829549 0)
(1.01271 -0.0817252 0)
(1.01987 -0.0805089 0)
(1.02738 -0.0792415 0)
(1.03597 -0.0778198 0)
(1.04597 -0.0762059 0)
(1.05744 -0.0743922 0)
(1.07051 -0.0723599 0)
(1.08544 -0.0700707 0)
(1.10256 -0.0674723 0)
(1.1223 -0.0644988 0)
(1.14519 -0.0610614 0)
(1.172 -0.0570344 0)
(1.2037 -0.0522166 0)
(1.24223 -0.0462567 0)
(1.28983 -0.0383229 0)
(1.35563 -0.0265293 0)
(1.44513 -0.00609628 0)
(1.61611 0.0375878 0)
(0.495755 -1.7591 0)
(0.469159 -1.76789 0)
(0.442525 -1.7778 0)
(0.41574 -1.78942 0)
(0.388736 -1.80344 0)
(0.502992 -0.797072 0)
(0.476791 -0.79411 0)
(0.450736 -0.791706 0)
(0.424744 -0.790112 0)
(0.398758 -0.789703 0)
(0.524661 -0.620165 0)
(0.498177 -0.608186 0)
(0.471757 -0.598406 0)
(0.445366 -0.590843 0)
(0.419004 -0.58551 0)
(0.557681 -0.572173 0)
(0.530576 -0.571817 0)
(0.503305 -0.572894 0)
(0.475931 -0.574938 0)
(0.448561 -0.576783 0)
(0.580863 -0.519133 0)
(0.55495 -0.528404 0)
(0.528507 -0.536217 0)
(0.5015 -0.540445 0)
(0.473975 -0.537637 0)
(0.594072 -0.418326 0)
(0.568641 -0.429031 0)
(0.542844 -0.439467 0)
(0.516589 -0.449173 0)
(0.489869 -0.457163 0)
(0.608014 -0.327733 0)
(0.582175 -0.336915 0)
(0.556135 -0.346193 0)
(0.529692 -0.355825 0)
(0.502786 -0.365977 0)
(0.625619 -0.256524 0)
(0.598962 -0.264302 0)
(0.572337 -0.271876 0)
(0.545349 -0.279622 0)
(0.51781 -0.287863 0)
(0.647984 -0.198189 0)
(0.619992 -0.205237 0)
(0.592496 -0.211639 0)
(0.564805 -0.217866 0)
(0.536471 -0.224482 0)
(0.676685 -0.147824 0)
(0.646413 -0.154891 0)
(0.617519 -0.160717 0)
(0.588904 -0.165777 0)
(0.55962 -0.171038 0)
(0.71412 -0.10186 0)
(0.679897 -0.109887 0)
(0.648565 -0.115941 0)
(0.618596 -0.12023 0)
(0.588142 -0.124327 0)
(0.76385 -0.0572054 0)
(0.722861 -0.067424 0)
(0.68714 -0.0749337 0)
(0.654962 -0.0790789 0)
(0.623001 -0.0822256 0)
(0.83154 -0.0124444 0)
(0.779152 -0.0245316 0)
(0.735265 -0.0353441 0)
(0.698916 -0.0404875 0)
(0.664639 -0.04313 0)
(0.924924 0.0314344 0)
(0.857153 0.0166759 0)
(0.799253 0.0019442 0)
(0.754555 -0.00451 0)
(0.715445 -0.00698312 0)
(1.04637 0.0822922 0)
(0.95889 0.0617171 0)
(0.883021 0.0391073 0)
(0.827167 0.0292614 0)
(0.780976 0.0256349 0)
(1.20565 0.150891 0)
(1.08938 0.121849 0)
(0.985463 0.0847668 0)
(0.914056 0.0668491 0)
(0.860344 0.0589834 0)
(1.41875 0.239921 0)
(1.25324 0.203232 0)
(1.09124 0.153531 0)
(0.981965 0.122204 0)
(0.909999 0.102797 0)
(1.73913 0.267142 0)
(1.5936 0.262204 0)
(1.37771 0.2343 0)
(1.1909 0.198308 0)
(1.04658 0.165185 0)
(0.361511 -1.82064 0)
(0.334144 -1.84166 0)
(0.306773 -1.86684 0)
(0.279562 -1.89594 0)
(0.252625 -1.92805 0)
(0.225975 -1.96161 0)
(0.199557 -1.99466 0)
(0.173121 -2.02519 0)
(0.146623 -2.05333 0)
(0.121169 -2.08052 0)
(0.0997963 -2.09453 0)
(0.0648763 -2.07506 0)
(0.00990512 -2.06007 0)
(-0.206872 -2.22246 0)
(0.363549 -3.89884 0)
(0.372761 -0.790976 0)
(0.34677 -0.794477 0)
(0.320806 -0.800651 0)
(0.294851 -0.809736 0)
(0.268796 -0.82177 0)
(0.242453 -0.83662 0)
(0.215728 -0.853594 0)
(0.188658 -0.871455 0)
(0.161374 -0.89062 0)
(0.133601 -0.90998 0)
(0.106575 -0.921322 0)
(0.0776785 -0.904523 0)
(0.0503894 -0.927487 0)
(0.0569887 -1.15467 0)
(-0.011728 -1.66425 0)
(0.392712 -0.582493 0)
(0.366552 -0.581904 0)
(0.340569 -0.583784 0)
(0.314717 -0.588127 0)
(0.2888 -0.595093 0)
(0.262486 -0.604879 0)
(0.23555 -0.616413 0)
(0.20796 -0.626947 0)
(0.180056 -0.635137 0)
(0.151668 -0.636088 0)
(0.124282 -0.632787 0)
(0.0972057 -0.638719 0)
(0.0710171 -0.726315 0)
(0.0774396 -0.957488 0)
(-0.0902086 -1.23096 0)
(0.421339 -0.576954 0)
(0.394405 -0.574967 0)
(0.367826 -0.572536 0)
(0.341526 -0.573459 0)
(0.315223 -0.582868 0)
(0.288419 -0.60356 0)
(0.260715 -0.62789 0)
(0.232025 -0.641143 0)
(0.202637 -0.637423 0)
(0.172402 -0.614478 0)
(0.142911 -0.594972 0)
(0.116884 -0.64441 0)
(0.080111 -0.808629 0)
(0.0879951 -1.03177 0)
(-0.124607 -1.06803 0)
(0.4461 -0.524991 0)
(0.418168 -0.504516 0)
(0.390466 -0.484354 0)
(0.363115 -0.475342 0)
(0.335955 -0.488548 0)
(0.308403 -0.531291 0)
(0.279673 -0.594148 0)
(0.249418 -0.649765 0)
(0.218148 -0.680274 0)
(0.186207 -0.680588 0)
(0.153734 -0.663578 0)
(0.125948 -0.724887 0)
(0.067451 -0.834657 0)
(0.11662 -0.932228 0)
(-0.105503 -0.892533 0)
(0.462694 -0.462296 0)
(0.43503 -0.464604 0)
(0.406833 -0.466423 0)
(0.378103 -0.472001 0)
(0.348873 -0.486536 0)
(0.319135 -0.513188 0)
(0.288864 -0.546792 0)
(0.258069 -0.577311 0)
(0.226602 -0.600404 0)
(0.19445 -0.615066 0)
(0.159585 -0.618324 0)
(0.130349 -0.650387 0)
(0.0704096 -0.692188 0)
(0.111447 -0.717481 0)
(-0.0563947 -0.722428 0)
(0.475432 -0.376661 0)
(0.447582 -0.387851 0)
(0.419093 -0.399577 0)
(0.389823 -0.411907 0)
(0.359769 -0.42486 0)
(0.329119 -0.438409 0)
(0.2981 -0.452561 0)
(0.266745 -0.46735 0)
(0.234745 -0.482648 0)
(0.202119 -0.498143 0)
(0.166781 -0.512997 0)
(0.135761 -0.531605 0)
(0.0851545 -0.555674 0)
(0.0945827 -0.570042 0)
(-0.0183778 -0.578674 0)
(0.489749 -0.296652 0)
(0.461205 -0.305888 0)
(0.432104 -0.315504 0)
(0.402316 -0.325499 0)
(0.371798 -0.335867 0)
(0.340645 -0.346601 0)
(0.30897 -0.3578 0)
(0.276776 -0.369626 0)
(0.24386 -0.382183 0)
(0.210275 -0.395547 0)
(0.174817 -0.409909 0)
(0.14134 -0.424773 0)
(0.0978184 -0.442424 0)
(0.0799296 -0.45562 0)
(0.00407016 -0.462421 0)
(0.507494 -0.231632 0)
(0.478032 -0.239148 0)
(0.448096 -0.246899 0)
(0.417556 -0.254899 0)
(0.38632 -0.263199 0)
(0.354398 -0.271833 0)
(0.321832 -0.280861 0)
(0.288595 -0.290379 0)
(0.254543 -0.300482 0)
(0.219654 -0.311253 0)
(0.183294 -0.32287 0)
(0.14698 -0.335031 0)
(0.105661 -0.348961 0)
(0.0722877 -0.360611 0)
(0.0154126 -0.366751 0)
(0.529517 -0.176875 0)
(0.498885 -0.183057 0)
(0.467865 -0.18935 0)
(0.436324 -0.195756 0)
(0.404097 -0.202372 0)
(0.371126 -0.209257 0)
(0.337403 -0.216452 0)
(0.30287 -0.22402 0)
(0.267385 -0.232038 0)
(0.230826 -0.240578 0)
(0.192818 -0.249736 0)
(0.153727 -0.259343 0)
(0.111816 -0.269878 0)
(0.0709182 -0.279425 0)
(0.0205074 -0.285202 0)
(0.556643 -0.12907 0)
(0.524524 -0.134211 0)
(0.492118 -0.13936 0)
(0.459308 -0.144474 0)
(0.425834 -0.149687 0)
(0.391558 -0.15508 0)
(0.356425 -0.160682 0)
(0.320345 -0.166527 0)
(0.28315 -0.17267 0)
(0.244645 -0.179153 0)
(0.204558 -0.186014 0)
(0.162814 -0.193169 0)
(0.118946 -0.200805 0)
(0.0737886 -0.208196 0)
(0.0232975 -0.213244 0)
(0.589794 -0.0860491 0)
(0.555797 -0.0903721 0)
(0.521622 -0.0946238 0)
(0.48721 -0.0986742 0)
(0.452203 -0.102694 0)
(0.416371 -0.106782 0)
(0.379613 -0.11095 0)
(0.341797 -0.11521 0)
(0.302716 -0.119587 0)
(0.26211 -0.124098 0)
(0.219718 -0.128755 0)
(0.17528 -0.13354 0)
(0.128632 -0.13857 0)
(0.0797056 -0.143655 0)
(0.0260299 -0.147475 0)
(0.629267 -0.0463215 0)
(0.593022 -0.0500741 0)
(0.556797 -0.0536607 0)
(0.52058 -0.0568294 0)
(0.48386 -0.0598137 0)
(0.4463 -0.0627263 0)
(0.407755 -0.065569 0)
(0.368074 -0.0683307 0)
(0.327013 -0.0710032 0)
(0.284245 -0.0735736 0)
(0.239427 -0.0760345 0)
(0.192127 -0.0783956 0)
(0.142067 -0.0807543 0)
(0.0886852 -0.0831327 0)
(0.0297536 -0.084956 0)
(0.676183 -0.00965108 0)
(0.636412 -0.0126753 0)
(0.597327 -0.0154263 0)
(0.558975 -0.0179113 0)
(0.520555 -0.0201005 0)
(0.481457 -0.0219823 0)
(0.441357 -0.0235687 0)
(0.399991 -0.0248599 0)
(0.357059 -0.0258254 0)
(0.312173 -0.0264089 0)
(0.26488 -0.0265537 0)
(0.214512 -0.0262252 0)
(0.160429 -0.0254611 0)
(0.101492 -0.0243486 0)
(0.0349282 -0.0233982 0)
(0.735927 0.0223904 0)
(0.690902 0.0192604 0)
(0.646955 0.0166174 0)
(0.604298 0.0143104 0)
(0.562574 0.012479 0)
(0.52123 0.0112247 0)
(0.479652 0.0105407 0)
(0.437191 0.0103982 0)
(0.393211 0.0108041 0)
(0.347083 0.0118163 0)
(0.298131 0.0135307 0)
(0.245349 0.0160643 0)
(0.187542 0.0195298 0)
(0.121845 0.0239966 0)
(0.0441912 0.0290288 0)
(0.810463 0.0531087 0)
(0.761029 0.0489133 0)
(0.71226 0.045785 0)
(0.664308 0.0432328 0)
(0.61729 0.0412012 0)
(0.57131 0.0398454 0)
(0.526207 0.0392857 0)
(0.481423 0.039591 0)
(0.436095 0.0408273 0)
(0.389167 0.0430986 0)
(0.339437 0.0465894 0)
(0.285272 0.0516289 0)
(0.224339 0.0587904 0)
(0.152183 0.0692178 0)
(0.0550663 0.0841745 0)
(0.854821 0.0884491 0)
(0.80743 0.0808621 0)
(0.763096 0.0765469 0)
(0.718881 0.0735536 0)
(0.673674 0.0713782 0)
(0.627581 0.0699803 0)
(0.581119 0.0694575 0)
(0.534661 0.0700031 0)
(0.488146 0.0718877 0)
(0.440933 0.0754608 0)
(0.391784 0.0812336 0)
(0.338519 0.0900196 0)
(0.278345 0.103659 0)
(0.202456 0.124072 0)
(0.0931137 0.17043 0)
(0.938069 0.13706 0)
(0.859278 0.121105 0)
(0.800415 0.111236 0)
(0.752769 0.105059 0)
(0.71042 0.101417 0)
(0.669793 0.0995804 0)
(0.62902 0.099162 0)
(0.587413 0.10012 0)
(0.54494 0.102723 0)
(0.501661 0.107514 0)
(0.457247 0.115474 0)
(0.410541 0.128022 0)
(0.357376 0.14991 0)
(0.301265 0.187164 0)
(0.0910404 0.296796 0)
(0.959649 0.215139 0)
(1.40772 0.228198 0)
(1.44434 0.251005 0)
(1.35192 0.242209 0)
(1.21836 0.220717 0)
(0.0393164 -0.00726873 0)
(0.496213 0.142023 0)
(0.815305 0.217522 0)
(0.968678 0.23633 0)
(0.987597 0.236455 0)
(0.0162383 -0.0583587 0)
(-0.0267412 -0.00303641 0)
(0.17748 0.0998642 0)
(0.371822 0.155058 0)
(0.454107 0.185971 0)
(0.0205052 -0.0533784 0)
(-0.0688464 -0.0364848 0)
(-0.0363199 -0.0048376 0)
(0.0311555 0.0509482 0)
(0.0335198 0.0962524 0)
(0.0104833 -0.0433792 1.82102e-18)
(-0.0744772 -0.0334013 1.48957e-18)
(-0.0942623 -0.0234276 0)
(-0.106937 -0.00205756 1.04377e-18)
(-0.105613 0.0189373 9.6034e-19)
(-0.00498189 -0.0323029 -1.88982e-18)
(-0.0799958 -0.0240495 -1.5182e-18)
(-0.10221 -0.0155632 0)
(-0.118013 -0.00773931 -9.96624e-19)
(-0.127431 0.000995932 -9.06903e-19)
(-0.0187825 -0.0211158 0)
(-0.0758797 -0.0109998 0)
(-0.0927627 -0.000894241 0)
(-0.0973745 0.00271342 0)
(-0.110677 0.00971341 0)
(-0.0297586 -0.00924623 0)
(-0.0627523 0.00225229 0)
(-0.073126 0.0131208 0)
(-0.0539354 0.0155098 0)
(-0.0710146 0.0243333 0)
(-0.0411393 0.00216556 2.26941e-18)
(-0.0406596 0.0127493 0)
(-0.0540868 0.0235665 0)
(0.00393568 0.0288464 2.46654e-18)
(-0.0522087 0.0337664 0)
(-0.0516841 0.00999236 1.41191e-19)
(-0.0138722 0.0221107 2.49255e-18)
(-0.0444299 0.0281609 -2.7603e-18)
(0.0459012 0.0384995 5.69589e-19)
(-0.0315303 0.0351873 0)
(-0.0606275 0.013953 -4.42113e-18)
(0.0134196 0.0305978 -2.51815e-18)
(-0.0296507 0.0297574 -4.28429e-19)
(0.0604952 0.0407639 -6.52149e-18)
(-0.00683353 0.035915 0)
(-0.0653633 0.0154519 -2.31619e-19)
(0.0323557 0.0365969 0)
(-0.00839645 0.0326996 -4.5499e-19)
(0.0661761 0.039896 3.34292e-18)
(0.0102323 0.0350063 -3.86857e-18)
(-0.064361 0.0163378 -2.39216e-19)
(0.0473444 0.0398203 0)
(0.00614191 0.036815 -4.98937e-19)
(0.0610802 0.0377232 0)
(0.0158377 0.0316633 -3.46612e-19)
(-0.0580737 0.0178887 2.51159e-18)
(0.0539928 0.0404458 0)
(0.0190195 0.0373258 -4.83197e-19)
(0.0512512 0.0345354 0)
(0.0131941 0.0267694 4.16263e-18)
(-0.0478794 0.0202433 -5.96311e-18)
(0.0538848 0.0397314 0)
(0.0040089 0.0361543 4.32904e-18)
(0.0424047 0.0292046 -9.29383e-18)
(0.00722537 0.0213404 0)
(-0.0327892 0.0218842 5.86318e-18)
(0.0478482 0.0338215 0)
(0.0194132 0.030127 0)
(0.0248746 0.0254356 9.0753e-18)
(0.00810172 0.017382 0)
(-0.0311194 0.0255933 0)
(0.0102951 0.0425389 0)
(-0.0433854 0.0332437 0)
(0.0332035 0.0280453 0)
(0.0112144 0.0124264 0)
(0.026484 0.0177444 8.21978e-18)
(0.112346 0.0312449 1.12465e-17)
(0.111461 0.0248212 0)
(0.0552842 0.0200545 9.6941e-18)
(-0.0122907 0.00908758 8.57467e-18)
(1.09567 0.189251 0)
(0.984421 0.168854 0)
(0.89198 0.152523 0)
(0.817507 0.140761 0)
(0.758096 0.133075 0)
(0.709941 0.128675 0)
(0.669154 0.126911 0)
(0.632534 0.1274 0)
(0.597982 0.130118 0)
(0.564682 0.13544 0)
(0.532202 0.144449 0)
(0.503715 0.158779 0)
(0.471516 0.183236 0)
(0.500904 0.221859 0)
(0.463395 0.262296 0)
(0.993975 0.216893 0)
(0.962288 0.20367 0)
(0.91064 0.188238 0)
(0.852763 0.174624 0)
(0.796892 0.163935 0)
(0.747321 0.156378 0)
(0.705632 0.151902 0)
(0.671666 0.150324 0)
(0.644425 0.1515 0)
(0.623552 0.155469 0)
(0.608641 0.162666 0)
(0.607145 0.173692 0)
(0.615364 0.188012 0)
(0.691264 0.201468 0)
(0.798017 0.173352 0)
(0.606364 0.195478 0)
(0.701181 0.20025 0)
(0.744187 0.196905 0)
(0.754283 0.190062 0)
(0.745304 0.182243 0)
(0.726888 0.175024 0)
(0.705892 0.169362 0)
(0.687124 0.16572 0)
(0.673751 0.164227 0)
(0.668675 0.164772 0)
(0.673967 0.166862 0)
(0.697462 0.16939 0)
(0.742059 0.167537 0)
(0.825642 0.153263 0)
(0.93952 0.101589 0)
(0.214256 0.135743 0)
(0.360503 0.158768 0)
(0.467074 0.171748 0)
(0.540069 0.177316 0)
(0.587411 0.177817 0)
(0.616778 0.175505 0)
(0.634956 0.17202 0)
(0.647911 0.168325 0)
(0.660835 0.164853 0)
(0.678774 0.161495 0)
(0.706041 0.157268 0)
(0.748171 0.150145 0)
(0.808201 0.135317 0)
(0.882623 0.106982 0)
(0.954374 0.060978 0)
(-0.0257942 0.0628512 0)
(0.0834571 0.106445 0)
(0.198156 0.129838 0)
(0.298278 0.144049 0)
(0.379937 0.152455 0)
(0.445813 0.156412 0)
(0.499913 0.157066 0)
(0.546292 0.155264 0)
(0.589029 0.151477 0)
(0.6323 0.145617 0)
(0.679766 0.1368 0)
(0.733742 0.123382 0)
(0.793384 0.102955 0)
(0.85026 0.0743489 0)
(0.888724 0.0417217 0)
(-0.119357 0.0184146 0)
(-0.0735049 0.0504474 0)
(0.00654898 0.0842463 0)
(0.0963471 0.106539 0)
(0.183531 0.118381 0)
(0.26361 0.126072 0)
(0.33636 0.129809 0)
(0.403102 0.130041 0)
(0.465699 0.127038 0)
(0.525922 0.120664 0)
(0.584874 0.110448 0)
(0.641863 0.0957878 0)
(0.693324 0.0765547 0)
(0.731982 0.0544915 0)
(0.749741 0.0348277 0)
(-0.11723 0.0147293 0)
(-0.126199 0.0228745 0)
(-0.0902722 0.0409368 0)
(-0.0371716 0.0645607 0)
(0.0325483 0.0844666 0)
(0.105491 0.0944735 0)
(0.177423 0.0994575 0)
(0.247041 0.100896 0)
(0.313845 0.0988475 0)
(0.377021 0.0933158 0)
(0.435213 0.0843181 0)
(0.485928 0.0721565 0)
(0.525329 0.0579199 0)
(0.549314 0.0440527 0)
(0.556314 0.0342824 0)
(-0.0512989 0.0261167 0)
(-0.0990865 0.0199149 0)
(-0.0890299 0.0256764 0)
(-0.0804926 0.0346009 0)
(-0.0439294 0.048412 0)
(0.00230987 0.0617708 0)
(0.0564148 0.0697907 0)
(0.113088 0.072498 0)
(0.169452 0.07182 0)
(0.222685 0.0681456 0)
(0.27002 0.0619784 0)
(0.308657 0.0541271 0)
(0.33611 0.0459513 0)
(0.351345 0.0393365 0)
(0.356204 0.0360787 0)
(0.0472668 0.0371561 0)
(-0.0517113 0.0286785 0)
(-0.0122232 0.0281506 0)
(-0.0410803 0.0284886 0)
(-0.0290284 0.0317911 0)
(-0.0148724 0.0376144 0)
(0.0119438 0.0431139 0)
(0.044572 0.0460806 0)
(0.0796496 0.0469706 0)
(0.113991 0.0459429 0)
(0.144628 0.0435199 0)
(0.169302 0.0404962 0)
(0.186829 0.0378483 0)
(0.197568 0.0365072 0)
(0.203681 0.0370063 0)
(0.0785717 0.0369731 0)
(0.00707733 0.0343354 0)
(0.0301768 0.030629 0)
(0.0231363 0.0299114 0)
(0.021956 0.0284051 0)
(0.0235875 0.0278579 0)
(0.0309365 0.0282702 0)
(0.0423546 0.029047 0)
(0.0561027 0.0297911 0)
(0.0706122 0.0302647 0)
(0.0842671 0.0305595 0)
(0.0958564 0.0309578 0)
(0.104934 0.0317836 0)
(0.111971 0.0332502 0)
(0.118246 0.0353539 0)
(0.0784034 0.0338714 0)
(0.0417053 0.0332349 0)
(0.043743 0.0297302 0)
(0.0525177 0.0288766 0)
(0.0542273 0.0271812 0)
(0.0534795 0.0253379 0)
(0.0542417 0.0240189 0)
(0.0563811 0.0233424 0)
(0.0590948 0.0232327 0)
(0.0622398 0.0236458 0)
(0.0657187 0.0245527 0)
(0.0693682 0.0259083 0)
(0.0732168 0.027648 0)
(0.0775818 0.0296676 0)
(0.0829429 0.0318182 0)
(0.0736839 0.0301581 0)
(0.0497828 0.0294634 0)
(0.046407 0.0278045 0)
(0.0569396 0.0268827 0)
(0.0615441 0.0257039 0)
(0.0612945 0.0243312 0)
(0.061106 0.0231591 0)
(0.0614839 0.0223881 0)
(0.0615753 0.0220404 0)
(0.0615662 0.0221481 0)
(0.061971 0.0227192 0)
(0.0630599 0.0236963 0)
(0.0650155 0.0249782 0)
(0.0680352 0.0264431 0)
(0.0722477 0.027973 0)
(0.0689113 0.0258919 0)
(0.0441897 0.0253327 0)
(0.0420948 0.0252067 0)
(0.0525942 0.0244301 0)
(0.0577839 0.0236451 0)
(0.0582491 0.0229442 0)
(0.0587982 0.0223274 0)
(0.0599549 0.0218561 0)
(0.0606964 0.021582 0)
(0.0611158 0.0215453 0)
(0.0617509 0.0217689 0)
(0.0628857 0.0222297 0)
(0.0646712 0.0228865 0)
(0.0672353 0.0236867 0)
(0.070635 0.0245823 0)
(0.0600088 0.020943 0)
(0.0329791 0.0214315 0)
(0.0343231 0.0221083 0)
(0.0452706 0.0215302 0)
(0.0504429 0.0210896 0)
(0.0516738 0.0208767 0)
(0.0533971 0.0206963 0)
(0.0557939 0.0205073 0)
(0.0578137 0.0203726 0)
(0.0595065 0.0203089 0)
(0.0612835 0.0203489 0)
(0.0633142 0.0204924 0)
(0.0656806 0.0207419 0)
(0.068472 0.0210931 0)
(0.0717464 0.0215401 0)
(0.0491888 0.0166803 0)
(0.022488 0.018028 0)
(0.0271502 0.018745 0)
(0.0374721 0.0182988 0)
(0.042256 0.0181293 0)
(0.0442482 0.0181794 0)
(0.0470808 0.0181875 0)
(0.0505096 0.0181244 0)
(0.0536228 0.0180654 0)
(0.0565216 0.0180367 0)
(0.0594884 0.0180071 0)
(0.0625817 0.0180071 0)
(0.0658308 0.0180556 0)
(0.0692937 0.0181659 0)
(0.0730197 0.0183474 0)
(0.0399618 0.0137568 0)
(0.0144144 0.0156727 0)
(0.0211606 0.0159491 0)
(0.0299236 0.0155019 0)
(0.0340285 0.0154429 0)
(0.036727 0.0155423 0)
(0.0405305 0.0155502 0)
(0.0447739 0.015478 0)
(0.0488188 0.0153956 0)
(0.0528049 0.0153324 0)
(0.0568633 0.0152419 0)
(0.0609867 0.0151475 0)
(0.0651795 0.0150677 0)
(0.0694779 0.0150169 0)
(0.0739092 0.0150052 0)
(0.0259787 0.0120825 0)
(0.00818269 0.0138238 0)
(0.0158473 0.0137239 0)
(0.0220903 0.0131338 0)
(0.0256788 0.0130481 0)
(0.0292763 0.0130692 0)
(0.0339019 0.0130026 0)
(0.0387516 0.0128708 0)
(0.0435712 0.0127302 0)
(0.0485046 0.0125794 0)
(0.0535338 0.0124243 0)
(0.0585898 0.012261 0)
(0.0636636 0.0121014 0)
(0.0687693 0.0119536 0)
(0.0739146 0.0118224 0)
(-0.000783591 0.0103137 0)
(-0.00707288 0.0109926 0)
(0.00546969 0.0109148 0)
(0.0097901 0.0104677 0)
(0.0146196 0.0103165 0)
(0.020316 0.0102102 0)
(0.0261313 0.0100676 0)
(0.0316091 0.00990469 0)
(0.0369627 0.00974606 0)
(0.0423397 0.00958853 0)
(0.0476825 0.00943131 0)
(0.0529521 0.00927351 0)
(0.0581721 0.00911845 0)
(0.0633719 0.00896778 0)
(0.0685666 0.0088222 0)
(0.754783 0.00544297 5.77718e-21)
(0.824807 -0.0126262 -5.79055e-21)
(0.754552 -0.0074186 0)
(0.683941 -0.00507413 0)
(0.647313 -0.00568714 0)
(0.62285 -0.00705858 0)
(0.595676 -0.00852151 0)
(0.567156 -0.00965673 0)
(0.541517 -0.0104255 0)
(0.520757 -0.0110734 0)
(0.490854 -0.0148293 1.29213e-19)
(0.460891 -0.0159536 -1.53197e-19)
(0.439888 -0.0167723 1.84213e-19)
(0.421942 -0.0180318 -1.9102e-19)
(0.41093 -0.0203308 3.67027e-20)
(0.382303 -0.0226437 -5.30794e-20)
(0.313719 -0.0240995 0)
(0.231957 -0.0266148 1.67294e-18)
(0.179331 -0.0309229 -4.69653e-19)
(0.188281 -0.0305072 0)
(0.229116 -0.0212324 2.51791e-18)
(0.265377 -0.0168917 0)
(0.301711 -0.0118635 -2.46072e-19)
(0.336226 -0.00684272 -3.3681e-18)
(0.369017 -0.00189261 -6.44048e-18)
(0.399224 0.00293923 -6.0663e-18)
(0.425805 0.0075354 0)
(0.448506 0.0118045 0)
(0.468025 0.0157105 4.293e-18)
(0.485732 0.0192903 0)
(0.503116 0.0225593 4.10074e-18)
(0.522053 0.0255023 -2.34481e-19)
(0.543094 0.0274578 0)
(0.57353 0.0277286 5.68042e-19)
(0.602568 0.0219127 0)
(0.749996 0.0177556 0)
(0.701675 -0.0288058 -2.24435e-20)
(0.568013 -0.00647396 1.93956e-20)
(0.479451 0.00778334 -7.92227e-22)
(0.491584 0.00222667 0)
(0.960333 0.0164543 -4.49845e-21)
(0.986968 -0.0152196 1.5754e-20)
(0.939999 0.000910209 -1.12264e-20)
(0.903586 0.00936855 0)
(0.889048 0.00885694 0)
(0.879022 0.00661994 -8.22483e-20)
(0.864402 0.00511334 8.45429e-20)
(0.846903 0.0042302 9.62259e-20)
(0.829685 0.00349226 -2.04743e-19)
(0.814336 0.00292005 1.0787e-19)
(0.792366 0.00236266 -9.67018e-20)
(0.766175 0.000588391 3.41776e-19)
(0.743524 -0.000611401 -1.21439e-19)
(0.722059 -0.00163143 -1.35202e-19)
(0.699358 -0.0027419 1.88443e-22)
(0.670592 -0.00568944 0)
(0.626389 -0.00645767 -3.47499e-19)
(0.570323 -0.00497209 -3.68737e-19)
(0.521347 -0.00206086 3.40088e-19)
(0.489237 0.00295277 -4.78375e-18)
(0.482536 0.00740291 -1.69082e-18)
(0.485379 0.0134885 -1.01906e-19)
(0.486965 0.0205928 -3.02051e-18)
(0.485475 0.0276706 -2.28931e-18)
(0.481713 0.0343313 -8.8423e-20)
(0.476417 0.0404462 -7.87958e-20)
(0.470268 0.0458618 -4.22084e-18)
(0.464483 0.0504657 0)
(0.460988 0.0541679 -7.72365e-18)
(0.461819 0.057061 -2.04822e-19)
(0.468685 0.0591425 -1.20557e-18)
(0.482059 0.0598797 0)
(0.503315 0.0582471 0)
(0.529369 0.0532008 -9.35129e-19)
(0.566905 0.0398545 -9.51574e-22)
(0.587916 0.01628 5.02402e-22)
(0.680652 -0.0403668 -1.39888e-21)
(0.653281 -0.00697974 4.04534e-20)
(0.63748 0.0157323 4.31587e-21)
(0.657085 0.00445604 -5.16276e-21)
(1.01627 0.0142423 0)
(1.01446 -0.00634428 1.03086e-20)
(0.974374 0.008602 -1.02258e-20)
(0.943701 0.0174303 0)
(0.929396 0.0169381 0)
(0.918817 0.0144875 -6.93526e-20)
(0.90536 0.0132119 7.11451e-20)
(0.890309 0.0126728 0)
(0.876 0.0121082 -8.82596e-20)
(0.862912 0.0116587 9.08888e-20)
(0.846036 0.0133557 0)
(0.824847 0.0118315 0)
(0.805116 0.0110917 0)
(0.785914 0.0110566 0)
(0.762709 0.01199 3.14078e-22)
(0.73874 0.0106961 0)
(0.71621 0.0100781 0)
(0.689053 0.0128362 0)
(0.653823 0.0206467 5.09167e-19)
(0.609652 0.031025 4.08977e-18)
(0.583383 0.0278215 0)
(0.569063 0.0328721 0)
(0.552975 0.038278 2.47793e-18)
(0.535024 0.0435078 2.6364e-18)
(0.517174 0.0479572 6.59493e-20)
(0.501488 0.0514715 -6.58706e-20)
(0.489456 0.0540738 4.11556e-18)
(0.481999 0.0558527 3.07204e-18)
(0.479811 0.0565844 2.00265e-18)
(0.483881 0.0563869 0)
(0.494426 0.0551074 1.34062e-18)
(0.510574 0.0515864 -8.73821e-19)
(0.532682 0.0458774 8.39097e-20)
(0.556743 0.0370772 2.67941e-19)
(0.584529 0.0246457 0)
(0.586498 0.00112077 0)
(0.606326 -0.0140363 1.99056e-22)
(0.597622 -0.00217847 -3.96529e-20)
(0.595572 0.0130558 0)
(0.613181 0.0040247 0)
(0.986211 0.0145681 0)
(0.97057 0.00590017 0)
(0.937062 0.0180522 0)
(0.912701 0.0253521 0)
(0.899137 0.0246277 5.45713e-20)
(0.887103 0.0221949 -1.14293e-19)
(0.872329 0.0209871 6.00927e-20)
(0.856079 0.0205315 6.97669e-20)
(0.840348 0.0199791 -1.48567e-19)