/*--------------------------------*- C++ -*----------------------------------*\
| =========                 |                                                 |
| \\      /  F ield         | OpenFOAM: The Open Source CFD Toolbox           |
|  \\    /   O peration     | Version:  2.4.0                                 |
|   \\  /    A nd           | Web:      www.OpenFOAM.org                      |
|    \\/     M anipulation  |                                                 |
\*---------------------------------------------------------------------------*/
FoamFile
{
    version     2.0;
    format      ascii;
    class       volScalarField;
    location    "0.95";
    object      epsilon;
}
// * * * * * * * * * * * * * * * * * * * * * * * * * * * * * * * * * * * * * //

dimensions      [0 2 -3 0 0 0 0];

internalField   nonuniform List<scalar> 
6000
(
0.99519
0.363669
0.0423546
0.0102043
0.0179081
0.0223177
0.0177138
0.0430537
0.0786784
0.0896364
0.0744713
0.0485494
0.0286143
0.0157815
0.00846286
0.00469396
0.00295526
0.00257183
0.00376254
0.00542462
0.00725579
0.00916397
0.0110451
0.0127967
0.014342
0.0156481
0.0167285
0.0176275
0.018399
0.0190918
0.0197456
0.0203924
0.0210601
0.0217744
0.0225599
0.0234411
0.024443
0.0255925
0.0269198
0.0284598
0.0302544
0.0323547
0.0348239
0.0377414
0.0412083
0.0453545
0.0503499
0.0564193
0.0638638
0.0730938
0.0846768
0.0994207
0.118466
0.143573
0.177122
0.223837
0.287476
0.388207
0.512269
0.789476
0.558158
0.3314
0.0208834
0.00815476
0.00704592
0.0171862
0.0351714
0.0380178
0.0265144
0.0168766
0.00892322
0.00553065
0.00380775
0.00256896
0.00180277
0.00142613
0.0013232
0.00144417
0.00170728
0.00201688
0.00237671
0.00279201
0.00325825
0.00375272
0.00423526
0.00466254
0.00500758
0.00526893
0.00546363
0.00561327
0.00573491
0.00583974
0.00593583
0.00603066
0.00613194
0.00624727
0.00638372
0.00654781
0.00674588
0.00698457
0.00727132
0.00761491
0.00802599
0.00851773
0.00910679
0.00981453
0.0106687
0.0117054
0.0129725
0.0145344
0.0164795
0.0189303
0.0220625
0.0261263
0.0315111
0.0387547
0.0490081
0.0631143
0.0858178
0.119987
0.41704
0.389562
0.0277077
0.00586838
0.00775107
0.0204303
0.025497
0.0167175
0.00953799
0.00529453
0.00312133
0.00277785
0.00239407
0.00182841
0.00138809
0.00116689
0.00109444
0.0011063
0.00114958
0.00120581
0.00127684
0.00136899
0.00148853
0.00163561
0.00179948
0.00196
0.00209688
0.00219955
0.00226949
0.00231494
0.00234439
0.00236368
0.00237647
0.00238568
0.00239428
0.00240533
0.00242164
0.00244558
0.00247917
0.00252423
0.00258258
0.00265625
0.00274763
0.00285965
0.00299594
0.00316109
0.00336097
0.00360306
0.00389717
0.00425632
0.00469804
0.00524598
0.0059342
0.0068079
0.00794368
0.00941768
0.0114933
0.0140573
0.0185335
0.0226533
0.36786
0.38928
0.0474109
0.0041813
0.00726237
0.0151328
0.0143697
0.00860224
0.00512015
0.0031956
0.00269037
0.00278663
0.0025356
0.00192213
0.00139741
0.00112222
0.00100789
0.000968869
0.000958278
0.000955647
0.000955576
0.000958821
0.000969729
0.000993065
0.00102984
0.00107495
0.00111929
0.00115491
0.00117884
0.00119254
0.00119915
0.00120129
0.00120059
0.0011982
0.00119523
0.00119287
0.00119227
0.00119438
0.00119997
0.00120966
0.00122402
0.00124362
0.00126914
0.00130136
0.00134126
0.00139009
0.00144936
0.00152103
0.00160759
0.00171224
0.00183928
0.00199442
0.00218589
0.0024238
0.00272715
0.00310695
0.00363702
0.00423062
0.00534922
0.00593713
0.343557
0.364562
0.0699127
0.00359028
0.00502101
0.00916844
0.00848064
0.00564971
0.00377476
0.00297263
0.00307184
0.00331778
0.00303548
0.00224399
0.0015352
0.00115325
0.000985079
0.000915622
0.000886407
0.000868119
0.00085011
0.000828769
0.000805492
0.000784902
0.000771617
0.00076714
0.0007691
0.000773312
0.000776571
0.000777775
0.00077724
0.000775611
0.000773338
0.000770717
0.000768059
0.000765761
0.000764256
0.000763938
0.000765125
0.000768071
0.000772997
0.000780122
0.000789694
0.000802006
0.000817422
0.000836388
0.000859462
0.000887335
0.000920902
0.000961331
0.00101017
0.00106947
0.00114205
0.00123099
0.00134334
0.00148169
0.00167304
0.00188265
0.00227945
0.00248091
0.32997
0.332732
0.0936251
0.00459551
0.00345016
0.00579724
0.0058741
0.00453075
0.00347477
0.00328751
0.00367919
0.00401745
0.00368471
0.00269707
0.0017624
0.00123888
0.00100129
0.000899192
0.000855213
0.000829847
0.000807865
0.000781772
0.000749859
0.000715217
0.000683162
0.000657933
0.000640679
0.000629837
0.000622966
0.000618212
0.000614615
0.000611747
0.000609376
0.000607358
0.000605643
0.000604288
0.000603415
0.000603166
0.000603672
0.000605045
0.000607388
0.00061081
0.000615434
0.000621408
0.000628921
0.000638203
0.000649546
0.000663319
0.000679967
0.000700096
0.000724543
0.000754302
0.000790836
0.000835797
0.000892695
0.000962922
0.00106038
0.00116941
0.001378
0.00152044
0.321754
0.301348
0.111204
0.00916039
0.00309514
0.00441814
0.00483008
0.00416306
0.00362127
0.00380202
0.00437332
0.00478178
0.00441027
0.00324831
0.00207401
0.00137928
0.00105265
0.000907776
0.000843594
0.000809283
0.000785114
0.000759779
0.00072821
0.000691193
0.00065342
0.000620131
0.000594348
0.000576219
0.000564147
0.000556224
0.000550972
0.000547425
0.000544972
0.00054323
0.000541978
0.000541119
0.000540637
0.000540557
0.000540923
0.000541784
0.000543195
0.000545218
0.000547931
0.000551432
0.000555841
0.00056131
0.000568029
0.000576243
0.000586307
0.000598638
0.000613758
0.000632374
0.000655525
0.000684416
0.000721558
0.000768075
0.000833924
0.000908948
0.00105817
0.00118299
0.316275
0.27338
0.123454
0.017426
0.00347727
0.00409713
0.00451376
0.0041699
0.00398418
0.00439338
0.00508064
0.00554435
0.00514404
0.00384802
0.00245297
0.00157093
0.00113806
0.000939715
0.000847395
0.000798893
0.000769871
0.000745254
0.00071647
0.000681464
0.000643496
0.00060789
0.000578674
0.000557138
0.000542409
0.000532761
0.000526557
0.000522579
0.000520009
0.000518335
0.000517249
0.000516584
0.000516258
0.000516245
0.000516545
0.000517176
0.000518167
0.000519561
0.000521412
0.000523789
0.000526783
0.000530507
0.000535114
0.000540788
0.000547802
0.000556501
0.000567319
0.000580831
0.0005979
0.000619537
0.000647874
0.000684046
0.000736548
0.000797691
0.000924493
0.00104118
0.312292
0.249666
0.131211
0.0281585
0.00428044
0.00429938
0.00456255
0.00439749
0.00446232
0.00501095
0.00577148
0.00627597
0.00583951
0.00444094
0.00287013
0.00180398
0.00125415
0.000994876
0.000866296
0.000797849
0.000759888
0.000733745
0.000707414
0.000675654
0.000639685
0.000604308
0.000574063
0.000551048
0.000534985
0.000524398
0.000517643
0.000513393
0.000510723
0.000509044
0.000508004
0.000507401
0.000507127
0.000507128
0.000507388
0.000507907
0.000508704
0.000509809
0.000511267
0.000513133
0.000515485
0.00051842
0.00052207
0.00052661
0.000532238
0.000539244
0.000548024
0.000559104
0.000573258
0.000591434
0.000615537
0.0006467
0.00069282
0.000747155
0.000863846
0.000975458
0.309245
0.230114
0.135184
0.0402663
0.00560435
0.00477316
0.00482499
0.00477337
0.00501091
0.00564342
0.00645376
0.00698678
0.00648522
0.00498442
0.00329039
0.0020636
0.00139617
0.00107078
0.000899585
0.0008063
0.000755337
0.000724711
0.000699328
0.000670664
0.000637423
0.000603367
0.000573197
0.000549618
0.000532873
0.000521746
0.00051465
0.000510218
0.000507467
0.000505764
0.000504727
0.000504138
0.000503875
0.000503875
0.00050411
0.000504577
0.000505288
0.000506267
0.000507553
0.000509197
0.000511266
0.000513849
0.000517057
0.000521048
0.000526022
0.000532241
0.000540066
0.000549984
0.000562724
0.000579181
0.000601187
0.000629816
0.000672764
0.000723637
0.000835168
0.000943267
0.30685
0.214258
0.136129
0.0523128
0.00826886
0.00541162
0.00523911
0.00526131
0.00561499
0.00630432
0.00716169
0.00771218
0.00710059
0.00546163
0.00368086
0.00233218
0.00155877
0.00116302
0.000945332
0.000823809
0.000756541
0.000718527
0.000692138
0.000665782
0.00063534
0.000603059
0.00057348
0.00054977
0.000532648
0.000521165
0.000513823
0.000509248
0.000506424
0.000504688
0.000503637
0.000503043
0.000502775
0.000502768
0.00050299
0.000503433
0.000504107
0.000505034
0.000506251
0.000507804
0.000509758
0.000512196
0.000515226
0.000518991
0.000523682
0.00052955
0.000536942
0.000546325
0.000558404
0.000574043
0.000595028
0.000622437
0.000663799
0.000712883
0.000821568
0.00092696
0.304931
0.20153
0.134804
0.0631161
0.0124781
0.00617782
0.00578061
0.0058445
0.00627691
0.00702051
0.0079387
0.00849216
0.00771834
0.00588283
0.00401924
0.00259115
0.00173725
0.00126619
0.00100057
0.000849123
0.000763381
0.00071556
0.000686159
0.000661008
0.000633099
0.000602763
0.00057404
0.00055042
0.000533066
0.00052131
0.000513758
0.000509052
0.000506155
0.000504379
0.000503306
0.000502696
0.000502418
0.000502402
0.000502613
0.000503044
0.000503702
0.000504609
0.000505799
0.000507319
0.00050923
0.000511614
0.000514575
0.000518254
0.000522833
0.000528561
0.000535776
0.000544936
0.000556731
0.00057201
0.000592536
0.000619382
0.000659987
0.000708192
0.000815116
0.000918314
0.30337
0.191377
0.131916
0.0720276
0.0179271
0.00708202
0.00644151
0.00651789
0.00700867
0.00782284
0.00882351
0.00935592
0.00836622
0.00627451
0.0042998
0.00283293
0.00191653
0.00137415
0.00106173
0.00088037
0.000775232
0.000715922
0.000681708
0.000656531
0.000630684
0.000602306
0.000574596
0.000551198
0.000533694
0.000521703
0.000513956
0.00050912
0.000506146
0.000504324
0.000503222
0.000502594
0.000502301
0.000502274
0.000502476
0.000502899
0.00050355
0.000504449
0.000505629
0.000507138
0.000509035
0.000511401
0.000514341
0.000517991
0.000522534
0.000528215
0.000535369
0.000544449
0.00055614
0.000571282
0.000591628
0.000618248
0.000658523
0.000706332
0.000811979
0.000913313
0.302086
0.183312
0.128065
0.0787647
0.0242099
0.00824125
0.00722085
0.00728375
0.00782673
0.00873973
0.00984273
0.010316
0.00905728
0.00666374
0.00453302
0.00305411
0.00208483
0.00148096
0.00112518
0.000915363
0.000791081
0.000719437
0.000678992
0.000652563
0.000628176
0.000601658
0.000575055
0.00055198
0.000534382
0.000522179
0.000514243
0.000509276
0.00050622
0.000504349
0.000503216
0.000502565
0.000502257
0.000502217
0.000502411
0.000502828
0.000503473
0.000504368
0.000505546
0.000507051
0.000508945
0.000511308
0.000514243
0.000517888
0.000522425
0.000528096
0.000535237
0.0005443
0.000555966
0.000571075
0.000591374
0.000617931
0.000658084
0.00070574
0.000810341
0.000910008
0.301023
0.176926
0.123729
0.0833274
0.0308798
0.00984193
0.00811959
0.0081487
0.00874848
0.00979374
0.0110092
0.0113697
0.00978938
0.00706687
0.00474293
0.00324904
0.00223458
0.00158143
0.00118759
0.000951906
0.000809696
0.000725683
0.00067807
0.000649286
0.000625682
0.000600837
0.000575393
0.000552722
0.000535077
0.000522683
0.000514561
0.00050946
0.000506319
0.000504397
0.00050323
0.000502557
0.000502232
0.00050218
0.000502365
0.000502776
0.000503417
0.00050431
0.000505486
0.000506992
0.000508887
0.000511251
0.000514188
0.000517836
0.000522376
0.000528052
0.0005352
0.00054427
0.000555945
0.000571064
0.000591372
0.000617939
0.000658066
0.000705681
0.000809346
0.00090747
0.300138
0.171881
0.119262
0.0859011
0.0375911
0.0119942
0.00913707
0.00912125
0.00978987
0.0110004
0.0123238
0.012503
0.01055
0.00748656
0.00495892
0.00341386
0.00236231
0.00167174
0.0012462
0.000988032
0.000829806
0.000734076
0.000678867
0.00064683
0.000623311
0.000599879
0.000575603
0.000553405
0.000535761
0.000523192
0.000514889
0.000509653
0.000506425
0.000504449
0.000503249
0.000502553
0.000502211
0.000502147
0.000502324
0.000502728
0.000503367
0.000504258
0.000505434
0.00050694
0.000508836
0.000511203
0.000514145
0.000517798
0.000522346
0.000528032
0.000535192
0.000544278
0.000555973
0.000571118
0.000591459
0.000618067
0.000658206
0.000705823
0.000808609
0.000905277
0.299398
0.167905
0.114915
0.086778
0.0439756
0.0147444
0.0102927
0.0102098
0.0109641
0.0123682
0.0137779
0.0136955
0.0113215
0.00791549
0.0051943
0.00355889
0.00246863
0.00174975
0.00129908
0.00102216
0.000850235
0.000743955
0.000681197
0.000645262
0.000621165
0.000598831
0.000575691
0.000554023
0.000536423
0.0005237
0.00051522
0.000509849
0.000506533
0.000504502
0.000503268
0.000502548
0.000502189
0.000502113
0.000502282
0.000502682
0.000503317
0.000504206
0.000505382
0.000506889
0.000508788
0.000511158
0.000514105
0.000517765
0.000522321
0.000528017
0.000535191
0.000544296
0.000556015
0.000571192
0.000591573
0.000618232
0.000658395
0.000706028
0.000807969
0.000903248
0.298777
0.164778
0.110847
0.0862969
0.049694
0.0180752
0.0116121
0.0114213
0.0122808
0.0138998
0.0153562
0.0149233
0.0120856
0.00834153
0.00545506
0.00369341
0.00255693
0.00181501
0.00134509
0.00105318
0.00087001
0.000754659
0.000684795
0.000644593
0.000619327
0.000597743
0.000575669
0.000554572
0.000537058
0.000524201
0.000515552
0.000510045
0.000506639
0.000504553
0.000503284
0.000502541
0.000502166
0.000502079
0.00050224
0.000502634
0.000503267
0.000504155
0.000505331
0.000506839
0.00050874
0.000511114
0.000514065
0.000517732
0.000522296
0.000528004
0.000535192
0.000544316
0.00055606
0.00057127
0.000591691
0.000618403
0.000658591
0.000706238
0.000807362
0.000901315
0.298255
0.162326
0.107152
0.0848002
0.0544811
0.0219143
0.0131174
0.0127601
0.0137453
0.0155919
0.017038
0.0161604
0.0128249
0.0087661
0.00572562
0.00382279
0.00263156
0.00186847
0.00138389
0.00108044
0.000888405
0.000765597
0.000689355
0.00064478
0.000617863
0.000596667
0.000575551
0.000555051
0.000537664
0.000524694
0.000515881
0.000510239
0.000506743
0.000504601
0.000503297
0.000502531
0.000502141
0.000502043
0.000502196
0.000502586
0.000503216
0.000504103
0.00050528
0.000506789
0.000508693
0.00051107
0.000514026
0.000517699
0.000522272
0.00052799
0.000535193
0.000544335
0.000556103
0.000571345
0.000591807
0.00061857
0.000658781
0.000706436
0.000806769
0.000899457
0.297815
0.16041
0.103873
0.0826048
0.0581704
0.026132
0.0148338
0.014224
0.0153571
0.0174362
0.0187968
0.0173804
0.0135241
0.0091893
0.00599201
0.00394876
0.00269646
0.00191185
0.00141578
0.0011037
0.000904955
0.000776282
0.000694566
0.000645738
0.000616812
0.00059565
0.000575358
0.000555461
0.000538236
0.000525176
0.000516207
0.000510433
0.000506845
0.000504646
0.000503308
0.00050252
0.000502114
0.000502005
0.000502151
0.000502537
0.000503165
0.000504051
0.000505228
0.000506739
0.000508646
0.000511027
0.000513987
0.000517666
0.000522247
0.000527976
0.000535193
0.000544353
0.000556145
0.000571418
0.000591919
0.000618731
0.000658961
0.000706617
0.000806186
0.000897669
0.297443
0.158919
0.101019
0.0799849
0.0606993
0.0305535
0.0167899
0.0157991
0.0171084
0.019419
0.0206003
0.0185564
0.0141711
0.00960659
0.00624565
0.00407015
0.00275433
0.0019471
0.00144147
0.00112306
0.000919432
0.000786353
0.000700139
0.000647357
0.000616194
0.000594737
0.000575111
0.000555806
0.000538775
0.000525644
0.000516529
0.000510624
0.000506944
0.000504689
0.000503316
0.000502506
0.000502085
0.000501966
0.000502106
0.000502487
0.000503113
0.000503999
0.000505177
0.00050669
0.000508598
0.000510983
0.000513949
0.000517634
0.000522222
0.000527962
0.000535192
0.000544369
0.000556185
0.000571488
0.000592026
0.000618884
0.00065913
0.00070678
0.000805616
0.000895951
0.297128
0.157766
0.0985745
0.0771642
0.0620983
0.0349743
0.0190057
0.0174768
0.0189668
0.0215159
0.0224077
0.0196626
0.0147542
0.0100159
0.0064784
0.00418404
0.00280652
0.00197598
0.00146189
0.00113883
0.000931802
0.000795575
0.000705822
0.00064951
0.000616005
0.000593965
0.000574832
0.000556093
0.000539279
0.000526099
0.000516846
0.000510812
0.000507041
0.000504728
0.000503321
0.000502489
0.000502054
0.000501926
0.000502059
0.000502437
0.000503061
0.000503947
0.000505125
0.00050664
0.000508552
0.00051094
0.00051391
0.000517601
0.000522198
0.000527947
0.00053519
0.000544385
0.000556222
0.000571555
0.000592129
0.000619031
0.000659289
0.000706927
0.000805059
0.000894306
0.296861
0.15688
0.0965115
0.0743156
0.0624714
0.0391783
0.0214837
0.019239
0.0209016
0.0236751
0.0241612
0.0206739
0.0153126
0.0103781
0.00668279
0.00428691
0.00285323
0.00199985
0.00147798
0.00115148
0.000942176
0.00080383
0.000711418
0.000652068
0.000616227
0.000593363
0.000574545
0.000556328
0.000539747
0.000526539
0.000517157
0.000510997
0.000507135
0.000504765
0.000503323
0.00050247
0.000502022
0.000501884
0.000502011
0.000502386
0.000503009
0.000503895
0.000505074
0.000506591
0.000508505
0.000510897
0.000513872
0.000517569
0.000522173
0.000527933
0.000535188
0.0005444
0.000556258
0.000571619
0.000592227
0.00061917
0.000659438
0.000707059
0.000804517
0.000892733
0.296634
0.156207
0.0947935
0.0715647
0.0619725
0.0429572
0.0242023
0.0210689
0.0228862
0.0258032
0.0257753
0.0215592
0.0158566
0.010683
0.00685343
0.00437541
0.00289396
0.0020196
0.00149062
0.00116152
0.000950763
0.000811092
0.000716785
0.00065491
0.000616825
0.000592954
0.000574272
0.000556519
0.000540182
0.000526962
0.000517462
0.000511179
0.000507227
0.000504798
0.000503322
0.000502448
0.000501987
0.000501841
0.000501963
0.000502334
0.000502956
0.000503842
0.000505023
0.000506542
0.000508459
0.000510854
0.000513834
0.000517537
0.000522149
0.000527918
0.000535186
0.000544413
0.000556293
0.00057168
0.000592321
0.000619304
0.000659578
0.000707178
0.000803992
0.000891231
0.296441
0.155703
0.0933813
0.0689964
0.0607814
0.0461305
0.0271122
0.022954
0.0248617
0.0278232
0.0271764
0.0223949
0.0163238
0.0109257
0.00698672
0.00444684
0.0029279
0.00203571
0.00150052
0.00116944
0.000957821
0.000817407
0.000721829
0.000657929
0.000617759
0.000592749
0.000574035
0.000556676
0.000540585
0.000527369
0.000517759
0.000511358
0.000507315
0.000504829
0.000503318
0.000502424
0.00050195
0.000501796
0.000501913
0.000502282
0.000502903
0.00050379
0.000504972
0.000506493
0.000508413
0.000510812
0.000513796
0.000517505
0.000522124
0.000527902
0.000535182
0.000544425
0.000556325
0.000571738
0.00059241
0.000619431
0.00065971
0.000707285
0.000803485
0.000889801
0.296275
0.155333
0.0922355
0.0666622
0.0590839
0.0485638
0.0301358
0.0248867
0.02677
0.0296648
0.0284018
0.0231235
0.0166973
0.011103
0.00708065
0.00449927
0.0029542
0.0020484
0.00150822
0.00117572
0.000963629
0.000822872
0.000726505
0.000661034
0.00061898
0.000592754
0.000573852
0.000556809
0.000540957
0.000527759
0.000518049
0.000511532
0.000507401
0.000504857
0.000503312
0.000502398
0.000501912
0.00050175
0.000501863
0.00050223
0.00050285
0.000503737
0.000504921
0.000506444
0.000508367
0.00051077
0.000513759
0.000517474
0.0005221
0.000527887
0.000535179
0.000544436
0.000556355
0.000571794
0.000592496
0.000619551
0.000659833
0.00070738
0.000802995
0.00088844
0.296134
0.155069
0.091319
0.0645877
0.0570553
0.0501803
0.0331694
0.0268625
0.0285623
0.0312719
0.0294452
0.0237208
0.0169724
0.0112137
0.00713451
0.00453164
0.00297222
0.00205776
0.00151414
0.00118074
0.000968459
0.000827612
0.000730807
0.000664155
0.000620442
0.000592967
0.000573738
0.000556928
0.000541302
0.000528133
0.000518331
0.000511703
0.000507483
0.000504882
0.000503303
0.00050237
0.000501872
0.000501703
0.000501812
0.000502176
0.000502796
0.000503685
0.00050487
0.000506396
0.000508322
0.000510729
0.000513722
0.000517442
0.000522076
0.000527872
0.000535174
0.000544447
0.000556384
0.000571847
0.000592577
0.000619666
0.000659948
0.000707466
0.000802523
0.000887147
0.296012
0.15489
0.0905974
0.0627793
0.0548505
0.050965
0.0360899
0.0288749
0.0302064
0.0326074
0.0302855
0.0241764
0.0171466
0.011258
0.00714874
0.00454368
0.00298158
0.00206378
0.00151857
0.00118482
0.000972562
0.000831764
0.000734754
0.000667243
0.000622098
0.00059338
0.000573707
0.000557044
0.000541624
0.00052849
0.000518605
0.000511869
0.000507562
0.000504904
0.000503292
0.000502339
0.00050183
0.000501655
0.00050176
0.000502123
0.000502743
0.000503632
0.00050482
0.000506348
0.000508278
0.000510688
0.000513686
0.000517411
0.000522052
0.000527856
0.00053517
0.000544456
0.000556411
0.000571897
0.000592654
0.000619775
0.000660056
0.000707542
0.000802069
0.000885921
0.295907
0.154779
0.0900402
0.0612299
0.0525973
0.0509612
0.0387637
0.0309107
0.0316907
0.0336578
0.0309094
0.0244867
0.0172201
0.0112373
0.00712468
0.0045358
0.00298222
0.00206653
0.00152174
0.00118825
0.000976159
0.000835468
0.000738387
0.000670264
0.000623905
0.000593982
0.000573768
0.000557166
0.000541927
0.000528832
0.000518871
0.000512031
0.000507639
0.000504924
0.000503278
0.000502306
0.000501787
0.000501605
0.000501707
0.000502069
0.000502689
0.00050358
0.00050477
0.000506301
0.000508233
0.000510648
0.00051365
0.000517381
0.000522028
0.000527841
0.000535165
0.000544464
0.000556437
0.000571944
0.000592727
0.000619877
0.000660157
0.00070761
0.000801634
0.00088476
0.295816
0.154719
0.0896204
0.0599236
0.0503954
0.0502598
0.0410578
0.0329438
0.0330228
0.0344354
0.0313214
0.0246552
0.017195
0.011154
0.00706445
0.00450902
0.00297441
0.00206612
0.00152383
0.00119124
0.000979441
0.000838856
0.000741757
0.000673201
0.000625825
0.000594758
0.000573929
0.000557303
0.000542213
0.00052916
0.000519129
0.000512188
0.000507712
0.000504941
0.000503261
0.000502271
0.000501742
0.000501555
0.000501654
0.000502015
0.000502636
0.000503528
0.00050472
0.000506254
0.00050819
0.000510608
0.000513615
0.000517351
0.000522004
0.000527825
0.000535159
0.000544472
0.00055646
0.000571989
0.000592797
0.000619974
0.000660251
0.00070767
0.000801217
0.000883662
0.295737
0.154702
0.0893146
0.0588392
0.0483167
0.0489849
0.0428535
0.0349319
0.0342238
0.0349763
0.0315451
0.0246912
0.017075
0.0110116
0.00697075
0.00446479
0.00295869
0.00206273
0.00152501
0.00119395
0.000982564
0.000842046
0.000744923
0.000676049
0.000627827
0.00059569
0.000574193
0.000557464
0.000542489
0.000529474
0.000519379
0.000512341
0.000507783
0.000504955
0.000503243
0.000502235
0.000501695
0.000501503
0.0005016
0.000501961
0.000502582
0.000503476
0.000504671
0.000506207
0.000508147
0.000510569
0.00051358
0.000517321
0.000521981
0.000527809
0.000535153
0.000544478
0.000556483
0.000572031
0.000592862
0.000620066
0.000660338
0.000707723
0.000800818
0.000882627
0.295668
0.154716
0.089103
0.0579534
0.046409
0.0472779
0.0440584
0.0368147
0.0353198
0.0353345
0.0316187
0.0246074
0.016865
0.0108141
0.00684676
0.00440495
0.00293583
0.00205667
0.00152543
0.00119653
0.000985655
0.000845143
0.000747944
0.000678812
0.000629885
0.000596761
0.00057456
0.000557657
0.000542758
0.000529777
0.000519622
0.00051249
0.000507851
0.000504968
0.000503222
0.000502196
0.000501648
0.000501451
0.000501545
0.000501906
0.000502529
0.000503425
0.000504622
0.000506162
0.000508104
0.00051053
0.000513546
0.000517292
0.000521958
0.000527794
0.000535147
0.000544483
0.000556503
0.00057207
0.000592923
0.000620152
0.000660418
0.00070777
0.000800438
0.000881653
0.295608
0.154755
0.0889684
0.0572419
0.0446994
0.0452826
0.0446181
0.0385145
0.0363317
0.0355721
0.0315873
0.0244169
0.0165698
0.0105659
0.00669599
0.00433159
0.00290681
0.0020483
0.00152525
0.00119908
0.000988815
0.000848231
0.000750875
0.000681502
0.00063198
0.000597953
0.000575031
0.000557887
0.000543024
0.000530069
0.000519857
0.000512635
0.000507916
0.000504978
0.0005032
0.000502156
0.000501599
0.000501398
0.000501491
0.000501852
0.000502475
0.000503374
0.000504573
0.000506116
0.000508063
0.000510492
0.000513512
0.000517264
0.000521935
0.000527778
0.00053514
0.000544488
0.000556522
0.000572107
0.000592981
0.000620232
0.000660493
0.000707811
0.000800077
0.000880738
0.295556
0.154812
0.0888963
0.0566814
0.0431989
0.0431332
0.0445223
0.0399414
0.037266
0.0357473
0.0314915
0.024129
0.0161936
0.0102719
0.00652222
0.00424699
0.00287271
0.00203806
0.00152465
0.00120171
0.00099212
0.000851381
0.000753767
0.000684133
0.000634095
0.000599249
0.000575601
0.000558159
0.000543293
0.000530353
0.000520085
0.000512775
0.000507978
0.000504986
0.000503175
0.000502115
0.000501549
0.000501344
0.000501436
0.000501797
0.000502422
0.000503323
0.000504526
0.000506072
0.000508022
0.000510455
0.000513479
0.000517235
0.000521912
0.000527762
0.000535133
0.000544492
0.000556539
0.000572142
0.000593034
0.000620307
0.000660561
0.000707847
0.000799734
0.000879883
0.29551
0.154883
0.0888747
0.05625
0.0419066
0.040946
0.0438065
0.0410008
0.0381077
0.0359014
0.0313568
0.0237455
0.0157399
0.00993709
0.00632946
0.00415358
0.00283471
0.00202642
0.0015238
0.00120449
0.000995627
0.000854647
0.000756663
0.000686722
0.000636223
0.000600632
0.000576267
0.000558478
0.000543567
0.00053063
0.000520307
0.000512912
0.000508038
0.000504992
0.000503149
0.000502072
0.000501498
0.000501289
0.00050138
0.000501743
0.00050237
0.000503273
0.000504479
0.000506028
0.000507981
0.000510419
0.000513447
0.000517208
0.00052189
0.000527747
0.000535126
0.000544494
0.000556555
0.000572173
0.000593084
0.000620376
0.000660624
0.000707878
0.000799409
0.000879086
0.295469
0.154963
0.0888931
0.0559278
0.0408128
0.0388145
0.0425471
0.0416048
0.0388166
0.0360483
0.0311844
0.0232593
0.0152108
0.0095669
0.00612193
0.00405385
0.00279406
0.00201388
0.00152287
0.00120748
0.000999374
0.000858066
0.000759598
0.000689287
0.000638355
0.000602088
0.000577022
0.000558847
0.000543851
0.000530902
0.000520523
0.000513045
0.000508095
0.000504997
0.000503122
0.000502028
0.000501446
0.000501234
0.000501325
0.000501688
0.000502318
0.000503224
0.000504432
0.000505985
0.000507942
0.000510383
0.000513415
0.000517181
0.000521869
0.000527732
0.000535118
0.000544496
0.000556569
0.000572203
0.00059313
0.000620441
0.000660681
0.000707904
0.000799104
0.000878346
0.295433
0.15505
0.0889429
0.0556972
0.0399026
0.0368083
0.0408513
0.0416848
0.0393276
0.036167
0.0309467
0.0226546
0.0146089
0.00916735
0.00590404
0.00395033
0.00275195
0.00200093
0.00152203
0.00121074
0.00100339
0.000861664
0.0007626
0.000691845
0.000640488
0.000603605
0.00057786
0.000559266
0.000544148
0.000531171
0.000520735
0.000513174
0.000508151
0.000505
0.000503094
0.000501983
0.000501393
0.000501179
0.00050127
0.000501634
0.000502266
0.000503175
0.000504386
0.000505943
0.000507903
0.000510348
0.000513385
0.000517155
0.000521848
0.000527716
0.00053511
0.000544498
0.000556581
0.000572229
0.000593173
0.0006205
0.000660733
0.000707927
0.000798817
0.000877662
0.295402
0.155139
0.0890167
0.0555425
0.039158
0.0349741
0.0388441
0.041204
0.0395572
0.0361999
0.0305873
0.0219108
0.0139378
0.00874532
0.00568039
0.00384552
0.00270959
0.00198804
0.00152142
0.0012143
0.00100767
0.000865456
0.000765691
0.000694409
0.000642622
0.000605169
0.000578774
0.000559738
0.000544462
0.000531439
0.000520942
0.0005133
0.000508204
0.000505001
0.000503064
0.000501937
0.00050134
0.000501124
0.000501214
0.000501581
0.000502215
0.000503126
0.000504342
0.000505901
0.000507866
0.000510314
0.000513355
0.000517129
0.000521827
0.000527701
0.000535102
0.000544498
0.000556592
0.000572253
0.000593212
0.000620555
0.00066078
0.000707947
0.000798549
0.000877034
0.295374
0.155231
0.0891083
0.0554501
0.0385599
0.0333383
0.0366548
0.0401668
0.0394154
0.0360573
0.0300292
0.0210083
0.0132045
0.00830874
0.0054557
0.0037418
0.00266803
0.00197564
0.00152118
0.00121818
0.00101224
0.000869447
0.000768882
0.000696993
0.000644755
0.000606772
0.000579756
0.000560261
0.000544794
0.000531707
0.000521145
0.000513423
0.000508256
0.000505002
0.000503034
0.000501891
0.000501287
0.000501068
0.000501159
0.000501527
0.000502164
0.000503079
0.000504298
0.000505861
0.000507829
0.000510281
0.000513326
0.000517104
0.000521807
0.000527687
0.000535094
0.000544498
0.000556601
0.000572275
0.000593247
0.000620604
0.000660823
0.000707964
0.000798299
0.000876461
0.29535
0.155322
0.0892127
0.0554084
0.0380889
0.0319112
0.0344044
0.0386217
0.0388222
0.0356296
0.0291887
0.0199363
0.0124206
0.00786667
0.00523472
0.00364139
0.00262824
0.00196408
0.00152141
0.00122241
0.00101707
0.000873633
0.000772183
0.000699606
0.000646889
0.000608406
0.000580799
0.000560835
0.000545148
0.000531979
0.000521346
0.000513544
0.000508305
0.000505001
0.000503003
0.000501844
0.000501233
0.000501013
0.000501105
0.000501475
0.000502114
0.000503032
0.000504255
0.000505822
0.000507793
0.000510249
0.000513297
0.00051708
0.000521787
0.000527672
0.000535085
0.000544496
0.000556609
0.000572294
0.000593278
0.000620649
0.00066086
0.000707978
0.000798069
0.000875942
0.295328
0.155411
0.0893256
0.0554072
0.0377269
0.0306906
0.0321965
0.0366579
0.0377266
0.0348078
0.0279975
0.0187006
0.0116034
0.00742913
0.00502199
0.00354623
0.002591
0.00195364
0.00152219
0.00122697
0.00102215
0.000878005
0.000775595
0.000702256
0.000649026
0.000610062
0.000581896
0.000561459
0.000545525
0.000532254
0.000521545
0.000513662
0.000508354
0.000505
0.000502972
0.000501797
0.00050118
0.000500958
0.00050105
0.000501423
0.000502065
0.000502987
0.000504212
0.000505783
0.000507758
0.000510218
0.00051327
0.000517057
0.000521768
0.000527658
0.000535076
0.000544495
0.000556616
0.000572311
0.000593306
0.000620689
0.000660893
0.000707989
0.000797857
0.000875477
0.295309
0.155499
0.0894436
0.0554378
0.0374571
0.0296656
0.0301118
0.0343944
0.0361232
0.0335103
0.0264253
0.0173288
0.0107756
0.00700649
0.00482163
0.00345787
0.00255688
0.00194452
0.00152354
0.00123185
0.00102746
0.000882548
0.000779115
0.000704947
0.000651166
0.000611736
0.000583039
0.00056213
0.000545927
0.000532536
0.000521744
0.000513779
0.000508401
0.000504999
0.00050294
0.00050175
0.000501126
0.000500903
0.000500996
0.000501371
0.000502017
0.000502942
0.000504171
0.000505746
0.000507725
0.000510188
0.000513244
0.000517034
0.000521749
0.000527644
0.000535068
0.000544492
0.000556621
0.000572325
0.000593331
0.000620724
0.000660922
0.000707999
0.000797664
0.000875066
0.295293
0.155584
0.089564
0.055493
0.0372641
0.0288196
0.0282065
0.0319652
0.0340615
0.0317089
0.024499
0.0158712
0.00996348
0.00660869
0.00463704
0.00337744
0.00252626
0.00193682
0.0015255
0.00123703
0.00103297
0.000887246
0.000782739
0.000707683
0.000653313
0.000613423
0.000584223
0.000562846
0.000546354
0.000532825
0.000521942
0.000513895
0.000508448
0.000504996
0.000502908
0.000501703
0.000501073
0.000500848
0.000500943
0.000501321
0.00050197
0.000502898
0.000504131
0.00050571
0.000507692
0.000510159
0.000513218
0.000517012
0.000521731
0.00052763
0.000535059
0.000544489
0.000556625
0.000572338
0.000593352
0.000620754
0.000660947
0.000708007
0.00079749
0.000874709
0.295278
0.155665
0.0896846
0.0555666
0.0371347
0.0281333
0.0265133