/*--------------------------------*- C++ -*----------------------------------*\
| =========                 |                                                 |
| \\      /  F ield         | OpenFOAM: The Open Source CFD Toolbox           |
|  \\    /   O peration     | Version:  2.4.0                                 |
|   \\  /    A nd           | Web:      www.OpenFOAM.org                      |
|    \\/     M anipulation  |                                                 |
\*---------------------------------------------------------------------------*/
FoamFile
{
    version     2.0;
    format      ascii;
    class       volScalarField;
    location    "1.27";
    object      k;
}
// * * * * * * * * * * * * * * * * * * * * * * * * * * * * * * * * * * * * * //

dimensions      [0 2 -2 0 0 0 0];

internalField   nonuniform List<scalar> 
6000
(
0.0117064
0.00654241
0.00175073
0.000452886
0.00047428
0.000893126
0.00152235
0.00194999
0.00190424
0.00146262
0.00243611
0.00356459
0.00407173
0.00379073
0.00306336
0.00232821
0.00172543
0.00120514
0.000796096
0.000512174
0.000346004
0.000292315
0.000375291
0.000482144
0.000589087
0.000695629
0.000801451
0.000905617
0.0010067
0.00110311
0.0011935
0.0012771
0.00135383
0.00142437
0.00148989
0.00155192
0.00161205
0.00167191
0.00173304
0.00179696
0.00186517
0.00193918
0.00202055
0.00211097
0.00221233
0.00232679
0.00245689
0.00260573
0.00277708
0.00297568
0.00320751
0.00348043
0.0038042
0.00419354
0.00466311
0.00525015
0.0059544
0.0069461
0.00793381
0.00999139
0.0120354
0.0115791
0.00198369
0.000792154
0.000622724
0.00117973
0.00167331
0.00206097
0.00291616
0.00402122
0.00309196
0.002004
0.00151476
0.00125108
0.00113044
0.00107159
0.000966714
0.000810082
0.000642836
0.000517309
0.000448503
0.000427794
0.000436874
0.00045609
0.000481942
0.000513555
0.000550856
0.000593784
0.000641651
0.000692835
0.000744918
0.000795259
0.0008417
0.000883062
0.000919177
0.000950581
0.000978113
0.00100265
0.00102505
0.00104613
0.00106678
0.00108786
0.00111028
0.0011349
0.00116255
0.00119409
0.0012304
0.00127249
0.0013215
0.00137884
0.00144624
0.00152582
0.00162048
0.00173359
0.00187096
0.00203644
0.00224781
0.0024923
0.00284874
0.00328813
0.0115701
0.0149985
0.00270743
0.000748286
0.000797563
0.00143745
0.00223371
0.00312004
0.00429134
0.00340733
0.00180099
0.00124114
0.00116208
0.00118789
0.00124463
0.00126222
0.00118668
0.00101275
0.000800579
0.000631626
0.00053327
0.000488241
0.000472126
0.000467697
0.00046922
0.000474643
0.000483442
0.000495958
0.000512708
0.000533732
0.000558193
0.000584417
0.000610392
0.000634411
0.0006555
0.000673421
0.000688406
0.000700865
0.000711234
0.000719956
0.00072751
0.000734422
0.000741234
0.000748471
0.000756613
0.000766094
0.000777313
0.000790664
0.000806558
0.000825449
0.000847883
0.000874486
0.00090613
0.000943593
0.000988859
0.00104149
0.00110959
0.0011784
0.00128403
0.00133864
0.011468
0.0159094
0.00374719
0.000697397
0.00088984
0.00146782
0.00258039
0.0039091
0.00433028
0.00238998
0.00130869
0.00118288
0.00124415
0.00132631
0.00140954
0.00144041
0.00136188
0.00116435
0.000912615
0.00070405
0.000578709
0.000517453
0.000491573
0.0004796
0.000473658
0.0004703
0.000467971
0.000466464
0.000466405
0.00046867
0.000473776
0.000481506
0.000490946
0.000500882
0.000510279
0.00051854
0.000525475
0.000531123
0.000535609
0.00053909
0.000541765
0.000543885
0.000545742
0.000547637
0.000549846
0.000552614
0.000556146
0.000560627
0.00056623
0.000573132
0.00058153
0.000591631
0.000603744
0.000618052
0.000635344
0.000654913
0.000680493
0.000703499
0.000745333
0.000749239
0.0113817
0.0156307
0.00502368
0.000722957
0.000910768
0.00135474
0.00263436
0.00413634
0.00358313
0.00173765
0.00121084
0.00126884
0.00136719
0.00146973
0.00156902
0.00160609
0.00152339
0.00130672
0.00101905
0.000768091
0.000611756
0.00053378
0.000500308
0.000484419
0.000476122
0.00047057
0.000465134
0.000458788
0.000451716
0.000444848
0.000439291
0.000435786
0.000434427
0.000434753
0.000436077
0.000437805
0.000439561
0.00044116
0.000442516
0.000443597
0.000444419
0.000445052
0.000445618
0.000446263
0.00044714
0.000448388
0.00045013
0.000452475
0.000455528
0.000459395
0.000464203
0.000470086
0.000477242
0.000485835
0.000496328
0.000508629
0.000524728
0.000540963
0.000570652
0.000588719
0.0113093
0.0148381
0.00639372
0.000876604
0.000894009
0.00122194
0.00236326
0.00370127
0.00272976
0.0014157
0.00125354
0.00137753
0.00148384
0.00159488
0.00170244
0.00174562
0.00166382
0.0014397
0.00112947
0.000838571
0.000646383
0.000547313
0.000503693
0.00048291
0.00047278
0.000466908
0.000461512
0.000454636
0.000445775
0.000435544
0.000425168
0.000415884
0.000408465
0.000403081
0.000399456
0.000397149
0.000395755
0.000394972
0.000394586
0.00039445
0.000394472
0.000394617
0.000394901
0.000395379
0.000396125
0.000397222
0.00039875
0.000400791
0.000403436
0.000406783
0.000410957
0.000416108
0.000422451
0.000430206
0.000439887
0.00045159
0.000467447
0.000485042
0.000517678
0.000551041
0.0112497
0.0138703
0.00744722
0.00130602
0.000896238
0.00110578
0.00190341
0.0028917
0.00207451
0.00129441
0.00133771
0.00148354
0.00158551
0.00169911
0.0018133
0.00186288
0.0017823
0.0015565
0.00124024
0.000920374
0.00069086
0.000566211
0.000508265
0.000479612
0.000466009
0.000459386
0.000454731
0.000449038
0.00044093
0.000430443
0.00041862
0.000406891
0.00039646
0.00038797
0.000381511
0.000376836
0.00037358
0.000371399
0.000370008
0.000369191
0.000368795
0.000368728
0.000368951
0.000369467
0.000370308
0.000371526
0.000373181
0.000375349
0.000378118
0.0003816
0.000385938
0.000391313
0.00039799
0.000406255
0.000416756
0.000429675
0.000447727
0.000468079
0.000507723
0.000550699
0.0111949
0.0128955
0.00818031
0.00205295
0.00095672
0.00103743
0.00144473
0.00212706
0.00165794
0.00128371
0.0014321
0.00158089
0.00167471
0.00179159
0.00191525
0.00197022
0.00188438
0.00165065
0.00133782
0.00100749
0.000746257
0.000594678
0.000518682
0.000478879
0.000459359
0.000450419
0.000445847
0.00044157
0.000435213
0.000426021
0.000414608
0.00040237
0.000390756
0.000380762
0.000372786
0.000366774
0.000362439
0.000359436
0.000357448
0.000356218
0.000355559
0.000355349
0.000355519
0.000356047
0.000356941
0.000358233
0.000359975
0.000362237
0.000365112
0.000368722
0.00037323
0.000378845
0.000385879
0.00039469
0.000406021
0.000420227
0.000440311
0.000463381
0.000509969
0.000558964
0.0111419
0.0119929
0.00863688
0.00298655
0.0010982
0.00104592
0.00115835
0.00160586
0.00142973
0.00133079
0.00152835
0.00167126
0.00176038
0.00188715
0.0020255
0.00208398
0.00198397
0.00172748
0.00141144
0.00108838
0.000808014
0.000633031
0.000536556
0.000483165
0.000455465
0.000442333
0.000436539
0.000433066
0.000428539
0.000421267
0.000411224
0.000399567
0.000387845
0.000377309
0.000368618
0.000361903
0.00035697
0.000353497
0.000351158
0.000349676
0.000348845
0.000348525
0.000348635
0.000349137
0.000350029
0.000351334
0.000353098
0.000355392
0.000358314
0.000361994
0.000366613
0.000372407
0.000379725
0.000388969
0.000400992
0.000416182
0.000438049
0.000463189
0.000515223
0.000567874
0.0110914
0.011194
0.00886101
0.00397758
0.00134842
0.00113297
0.00107289
0.00132733
0.00133217
0.00140678
0.0016251
0.00175981
0.00185294
0.00199907
0.00215664
0.00221571
0.00209426
0.00180098
0.00146123
0.00115207
0.00086965
0.000677758
0.000560896
0.000492851
0.000455476
0.000436557
0.000428112
0.000424434
0.000421285
0.000416006
0.000407761
0.000397282
0.000386074
0.000375566
0.000366643
0.000359609
0.00035437
0.000350644
0.000348111
0.000346484
0.000345547
0.000345151
0.000345207
0.000345672
0.000346538
0.000347824
0.000349573
0.000351858
0.000354778
0.000358471
0.00036313
0.000369007
0.000376476
0.000385981
0.000398438
0.000414325
0.000437451
0.000464134
0.000520087
0.000574997
0.0110445
0.0105059
0.00889912
0.00490381
0.00178513
0.00128107
0.00113303
0.0012246
0.00132168
0.0014975
0.00172337
0.00185275
0.0019612
0.00213602
0.00231466
0.0023696
0.00222135
0.00188399
0.00149806
0.00119326
0.000924595
0.000723816
0.000589246
0.000506874
0.000459296
0.000433601
0.000421318
0.000416352
0.000413863
0.000410317
0.000403982
0.000394991
0.000384662
0.000374524
0.000365657
0.000358533
0.000353162
0.000349314
0.000346683
0.000344981
0.000343987
0.000343545
0.000343564
0.000343998
0.000344836
0.000346097
0.000347822
0.000350084
0.000352984
0.000356665
0.000361325
0.000367228
0.000374767
0.000384415
0.000397145
0.000413474
0.000437426
0.000465179
0.000523703
0.000579938
0.0110018
0.00992341
0.00879691
0.00569205
0.00241191
0.00147481
0.00128201
0.00123693
0.00136855
0.00159694
0.00182519
0.00195587
0.00209149
0.00230257
0.00250093
0.0025447
0.00236451
0.00198178
0.00153655
0.0012148
0.000967766
0.000766179
0.00061863
0.000523484
0.000466061
0.000433293
0.000416426
0.000409243
0.000406619
0.000404356
0.000399841
0.000392477
0.000383248
0.000373695
0.000365064
0.000357988
0.000352589
0.000348694
0.000346021
0.000344288
0.000343268
0.000342804
0.000342803
0.000343217
0.000344036
0.000345277
0.000346982
0.000349223
0.000352104
0.000355768
0.000360418
0.000366325
0.000373894
0.000383615
0.000396498
0.000413092
0.000437557
0.000466019
0.000526069
0.000582965
0.0109633
0.00943595
0.00859616
0.00631151
0.00311936
0.00171151
0.00148162
0.00132296
0.00145327
0.00170329
0.00193305
0.00207401
0.00224803
0.0025007
0.00271453
0.00273788
0.00251955
0.00209247
0.0015869
0.00122694
0.000996281
0.000800649
0.000646158
0.000540793
0.000474576
0.000435052
0.000413347
0.000403308
0.000399818
0.000398302
0.000395382
0.000389669
0.000381676
0.000372857
0.00036458
0.000357641
0.000352278
0.000348382
0.0003457
0.000343959
0.000342933
0.000342463
0.000342453
0.000342858
0.000343666
0.000344895
0.000346588
0.000348817
0.000351684
0.000355337
0.000359979
0.000365885
0.000373469
0.00038323
0.000396197
0.000412948
0.000437717
0.000466627
0.00052744
0.000584527
0.0109289
0.00903124
0.00833256
0.00675499
0.00384624
0.00200887
0.00170726
0.0014566
0.00156347
0.00181659
0.00204954
0.00221096
0.00243359
0.00273106
0.00295379
0.00294564
0.00268159
0.00221072
0.00165147
0.00124165
0.00101184
0.000824964
0.000669437
0.000557097
0.000483629
0.00043811
0.000411758
0.000398561
0.000393634
0.000392323
0.00039069
0.000386567
0.000379887
0.00037191
0.000364079
0.000357341
0.000352055
0.000348186
0.000345515
0.00034378
0.00034276
0.000342293
0.000342283
0.000342685
0.000343489
0.000344712
0.0003464
0.000348623
0.000351485
0.000355134
0.000359774
0.000365682
0.000373276
0.000383061
0.00039608
0.000412926
0.000437871
0.000467055
0.000528119
0.000585064
0.0108984
0.00869716
0.00803485
0.00703163
0.00452161
0.00241268
0.00194303
0.00162208
0.0016918
0.00193772
0.00217712
0.00236957
0.00265006
0.00299389
0.00321723
0.00316502
0.00284652
0.00233093
0.00172676
0.0012662
0.00102086
0.000839377
0.000686915
0.000571043
0.000492172
0.000441696
0.00041121
0.000394875
0.00038815
0.000386562
0.000385866
0.000383204
0.000377866
0.000370813
0.000363504
0.000357019
0.000351845
0.000348023
0.000345374
0.000343656
0.000342648
0.00034219
0.000342186
0.000342589
0.000343392
0.000344615
0.000346301
0.000348523
0.000351385
0.000355035
0.000359677
0.000365592
0.000373197
0.000383003
0.000396058
0.000412967
0.000438012
0.000467358
0.000528356
0.000584936
0.0108715
0.00842257
0.00772501
0.00716051
0.00512025
0.00290563
0.00217606
0.00181022
0.00183428
0.00206775
0.00231789
0.00255196
0.00289884
0.00328957
0.00350382
0.00339377
0.0030114
0.00244874
0.00180703
0.00130289
0.00102988
0.000846323
0.000698147
0.000581732
0.000499408
0.000445145
0.000411233
0.000392029
0.000383362
0.000381121
0.000381008
0.00037963
0.000375621
0.000369554
0.000362831
0.000356647
0.000351612
0.000347854
0.000345239
0.000343543
0.000342552
0.000342108
0.000342112
0.000342521
0.000343326
0.00034455
0.000346237
0.000348461
0.000351326
0.00035498
0.000359629
0.000365552
0.000373171
0.000382996
0.000396082
0.000413037
0.000438142
0.000467582
0.000528326
0.000584401
0.0108479
0.00819763
0.00741898
0.00716572
0.00562044
0.00347564
0.00240961
0.00201558
0.00198907
0.00220777
0.00247356
0.00275959
0.00318098
0.00361856
0.00381271
0.00363016
0.00317432
0.00256131
0.00188701
0.00135019
0.00104329
0.000849329
0.000703808
0.000588782
0.000504817
0.00044795
0.000411403
0.000389765
0.000379202
0.000376057
0.000376204
0.000375902
0.000373173
0.000368131
0.000362052
0.000356211
0.000351343
0.000347665
0.000345092
0.000343424
0.000342455
0.000342027
0.000342043
0.000342459
0.000343269
0.000344495
0.000346185
0.000348413
0.000351282
0.000354942
0.000359599
0.000365533
0.000373166
0.000383012
0.000396126
0.00041312
0.000438261
0.000467754
0.000528143
0.000583637
0.0108272
0.0080139
0.00712762
0.00707306
0.006008
0.00408414
0.00266485
0.00223444
0.00215565
0.0023587
0.00264531
0.00299332
0.00349721
0.00398123
0.00414284
0.00387255
0.00333396
0.00266708
0.00196285
0.0014048
0.00106266
0.000851741
0.000705395
0.000592338
0.000508163
0.000449783
0.000411383
0.000387828
0.000375558
0.000371387
0.000371521
0.000372078
0.000370546
0.000366549
0.000361163
0.000355707
0.000351033
0.00034745
0.000344928
0.000343294
0.00034235
0.000341941
0.000341971
0.000342396
0.000343212
0.000344442
0.000346136
0.000348368
0.000351243
0.00035491
0.000359576
0.000365522
0.00037317
0.000383036
0.000396176
0.000413206
0.00043837
0.000467892
0.000527876
0.000582753
0.0108092
0.00786421
0.00685774
0.00690769
0.0062774
0.00468122
0.00296787
0.00246336
0.00233412
0.00252121
0.00283376
0.00325339
0.00384779
0.00437744
0.00449253
0.00411908
0.00348929
0.00276529
0.00203365
0.00146171
0.00108734
0.000855864
0.000704727
0.000592982
0.000509469
0.000450482
0.000410938
0.000385996
0.000372301
0.000367093
0.000367011
0.00036821
0.000367772
0.000364817
0.000360164
0.000355133
0.000350678
0.000347205
0.000344744
0.000343148
0.000342233
0.000341847
0.000341893
0.000342329
0.000343152
0.000344388
0.000346086
0.000348323
0.000351204
0.000354878
0.000359553
0.000365511
0.000373175
0.000383061
0.000396226
0.000413288
0.000438469
0.000468005
0.000527566
0.000581819
0.0107935
0.00774257
0.00661308
0.00669257
0.00643121
0.00522988
0.00332932
0.00269912
0.00252469
0.00269567
0.00303889
0.0035393
0.00423229
0.00480623
0.00485926
0.00436757
0.00363929
0.00285559
0.00209937
0.00151708
0.00111553
0.000862711
0.000703454
0.000591557
0.000508971
0.000450032
0.000409935
0.000384097
0.000369303
0.000363136
0.000362703
0.000364348
0.000364881
0.000362946
0.000359057
0.000354486
0.000350277
0.000346931
0.000344538
0.000342986
0.000342104
0.000341743
0.000341808
0.000342257
0.000343088
0.000344331
0.000346034
0.000348276
0.000351164
0.000354845
0.00035953
0.0003655
0.000373179
0.000383085
0.000396274
0.000413366
0.000438559
0.000468099
0.000527237
0.000580875
0.0107798
0.00764397
0.00639511
0.00644754
0.00647848
0.00570085
0.0037454
0.0029431
0.00272711
0.00288208
0.00325999
0.00384975
0.00464935
0.00526546
0.00523952
0.00461547
0.00378293
0.00293776
0.0021601
0.00156859
0.00114506
0.000872222
0.000702742
0.000588965
0.000507055
0.000448533
0.00040833
0.000382016
0.000366449
0.000359463
0.000358608
0.000360531
0.000361906
0.000360953
0.000357845
0.000353768
0.000349831
0.000346626
0.000344312
0.000342809
0.000341962
0.000341629
0.000341715
0.000342179
0.000343021
0.00034427
0.00034598
0.000348228
0.000351122
0.000354811
0.000359506
0.000365487
0.000373182
0.000383106
0.000396319
0.000413439
0.000438641
0.000468179
0.000526902
0.000579942
0.010768
0.0075643
0.00620369
0.00618895
0.0064329
0.006074
0.00420451
0.00319769
0.00294046
0.00307993
0.00349562
0.00418247
0.00509642
0.00575151
0.00562874
0.00485991
0.00391907
0.00301172
0.00221623
0.0016148
0.00117397
0.000883667
0.000703182
0.000585988
0.000504167
0.000446164
0.000406151
0.000379688
0.000363649
0.000356014
0.000354724
0.00035679
0.000358876
0.000358852
0.000356535
0.00035298
0.000349337
0.000346291
0.000344063
0.000342615
0.000341808
0.000341506
0.000341615
0.000342096
0.000342949
0.000344207
0.000345923
0.000348177
0.000351078
0.000354776
0.00035948
0.000365473
0.000373182
0.000383126
0.00039636
0.000413507
0.000438716
0.000468247
0.000526568
0.000579035
0.0107577
0.00750013
0.00603765
0.00592955
0.00631093
0.00633831
0.00468687
0.00346527
0.00316409
0.0032881
0.00374352
0.00453411
0.00556942
0.00625892
0.00602119
0.00509774
0.00404654
0.00307757
0.00226817
0.00165487
0.00120067
0.000896021
0.000704867
0.000583187
0.000500742
0.000443147
0.000403472
0.000377095
0.000360836
0.000352735
0.00035104
0.000353147
0.000355821
0.00035666
0.000355132
0.000352121
0.000348797
0.000345925
0.000343794
0.000342406
0.000341642
0.000341373
0.000341508
0.000342007
0.000342873
0.00034414
0.000345864
0.000348125
0.000351033
0.000354739
0.000359452
0.000365458
0.000373181
0.000383142
0.000396398
0.00041357
0.000438784
0.000468305
0.000526239
0.000578159
0.0107488
0.00744866
0.00589518
0.0056788
0.00613011
0.00649105
0.00516573
0.00375115
0.00339615
0.00350465
0.00400055
0.0049001
0.00606252
0.00678012
0.00641001
0.00532568
0.00416406
0.00313593
0.00231605
0.00168834
0.00122402
0.000908242
0.000707549
0.000580873
0.000497143
0.000439711
0.000400401
0.000374254
0.000357971
0.000349577
0.000347537
0.000349617
0.000352764
0.000354395
0.000353643
0.000351195
0.000348212
0.000345528
0.000343504
0.000342181
0.000341464
0.000341231
0.000341393
0.000341912
0.000342793
0.000344071
0.000345803
0.000348071
0.000350987
0.000354701
0.000359424
0.000365441
0.000373178
0.000383157
0.000396434
0.000413629
0.000438846
0.000468355
0.000525917
0.000577317
0.0107411
0.00740758
0.00577412
0.00544325
0.00590767
0.00653662
0.00561207
0.00405983
0.0036334
0.0037297
0.00426195
0.00527445
0.00656772
0.00730506
0.00678729
0.00554037
0.00427046
0.00319153
0.00235588
0.00171497
0.00124327
0.000919421
0.000710794
0.000579139
0.000493632
0.000436064
0.000397057
0.000371203
0.000355037
0.000346502
0.000344194
0.000346207
0.000349728
0.000352075
0.000352078
0.000350205
0.00034758
0.000345101
0.000343192
0.000341942
0.000341275
0.00034108
0.000341271
0.000341813
0.000342709
0.000343998
0.000345739
0.000348015
0.000350939
0.000354661
0.000359394
0.000365422
0.000373173
0.000383169
0.000396466
0.000413684
0.000438903
0.000468396
0.000525605
0.000576511
0.0107345
0.00737499
0.00567219
0.005227
0.00565947
0.00648507
0.00599879
0.00439272
0.00387352
0.00396434
0.00452247
0.00564941
0.00707434
0.00782081
0.00714419
0.00573834
0.00436508
0.00324514
0.00238743
0.00173476
0.00125802
0.00092885
0.000714115
0.000577918
0.000490365
0.000432377
0.000393553
0.000367998
0.000352034
0.000343482
0.000340988
0.00034292
0.00034673
0.000349716
0.000350444
0.000349153
0.000346905
0.000344643
0.00034286
0.000341687
0.000341073
0.000340919
0.000341143
0.000341708
0.000342622
0.000343923
0.000345674
0.000347958
0.000350889
0.00035462
0.000359362
0.000365402
0.000373167
0.00038318
0.000396495
0.000413735
0.000438955
0.000468431
0.000525302
0.000575742
0.0107287
0.00734934
0.0055871
0.00503222
0.00539931
0.00635047
0.00630385
0.00474652
0.00411556
0.00420552
0.00478633
0.00601292
0.0075678
0.00831077
0.0074714
0.00591582
0.00445041
0.00329513
0.00241062
0.00174783
0.00126809
0.00093603
0.000717052
0.000577045
0.000487403
0.000428776
0.000389995
0.000364697
0.000348976
0.0003405
0.0003379
0.000339753
0.000343785
0.000347334
0.000348753
0.000348044
0.000346186
0.000344156
0.000342508
0.000341417
0.000340861
0.00034075
0.000341007
0.000341597
0.00034253
0.000343845
0.000345606
0.000347899
0.000350839
0.000354578
0.00035933
0.000365381
0.000373159
0.000383188
0.000396521
0.000413782
0.000439002
0.00046846
0.000525009
0.000575009
0.0107237
0.00732934
0.00551669
0.0048596
0.00513853
0.00614921
0.00651236
0.0051125
0.00436
0.00444942
0.00505591
0.00636404
0.0080263
0.00875277
0.00775955
0.00606864
0.0045353
0.00333441
0.00242529
0.00175434
0.00127347
0.000940653
0.000719222
0.000576314
0.000484739
0.000425337
0.000386467
0.000361359
0.000345884
0.000337547
0.000334913
0.000336703
0.000340902
0.000344944
0.000347012
0.000346882
0.000345426
0.00034364
0.000342135
0.000341134
0.000340638
0.000340573
0.000340865
0.000341482
0.000342434
0.000343764
0.000345536
0.000347838
0.000350787
0.000354535
0.000359296
0.000365358
0.000373149
0.000383194
0.000396545
0.000413825
0.000439044
0.000468483
0.000524727
0.000574312
0.0107193
0.00731395
0.00545895
0.00470875
0.00488591
0.00589851
0.00661732
0.00547675
0.00460816
0.00469195
0.00532792
0.00670641
0.00843796
0.00911549
0.00799884
0.00621245
0.00460831
0.00336178
0.00243137
0.00175451
0.0012743
0.00094257
0.000720338
0.000575517
0.000482316
0.000422102
0.000383032
0.000358037
0.000342787
0.000334623
0.000332013
0.000333764
0.00033809
0.000342558
0.000345233
0.000345671
0.000344626
0.000343096
0.000341744
0.000340836
0.000340405
0.000340387
0.000340716
0.000341362
0.000342335
0.00034368
0.000345464
0.000347776
0.000350733
0.000354491
0.000359262
0.000365334
0.000373138
0.000383198
0.000396566
0.000413864
0.000439082
0.000468501
0.000524455
0.000573649
0.0107155
0.00730229
0.00541206
0.00457857
0.00464785
0.00561513
0.00661945
0.00582141
0.00486135
0.00492928
0.00559806
0.00703367
0.00879668
0.00940255
0.00819569
0.00633074
0.00466287
0.00337667
0.00242891
0.00174857
0.00127077
0.000941758
0.000720208
0.000574469
0.000480055
0.000419077
0.000379735
0.000354776
0.000339711
0.000331734
0.000329193
0.000330929
0.000335354
0.000340189
0.000343425
0.000344418
0.000343788
0.000342525
0.000341333
0.000340526
0.000340162
0.000340194
0.000340562
0.000341237
0.000342233
0.000343594
0.00034539
0.000347713
0.000350679
0.000354445
0.000359226
0.000365309
0.000373125
0.0003832
0.000396584
0.0004139
0.000439115
0.000468515
0.000524194
0.000573022
0.0107122
0.00729366
0.0053744
0.00446751
0.00442854
0.00531435
0.00652612
0.00612663
0.00511983
0.0051584
0.00586114
0.00733956
0.00909871
0.00962154
0.00834539
0.00641729
0.00469722
0.00337876
0.00241801
0.00173683
0.00126315
0.000938289
0.00071873
0.000573025
0.000477871
0.000416249
0.000376601
0.000351612
0.000336684
0.000328886
0.000326445
0.000328192
0.000332697
0.000337845
0.000341597
0.000343126
0.000342916
0.000341927
0.000340904
0.000340202
0.000339909
0.000339994
0.000340402
0.000341108
0.000342127
0.000343505
0.000345315
0.000347648
0.000350623
0.000354399
0.000359189
0.000365283
0.000373111
0.0003832
0.0003966
0.000413932
0.000439145
0.000468525
0.000523944
0.000572428
0.0107093
0.00728747
0.00534452
0.00437376
0.00423035
0.00500933
0.00634982
0.00637302
0.00538177
0.00537741
0.00611142
0.00761801
0.00934254
0.00977663
0.00844469
0.00646958
0.00471064
0.00336797
0.00239887
0.0017196
0.00125172
0.000932304
0.000715877
0.000571081
0.000475683
0.000413591
0.000373643
0.000348572
0.000333731
0.000326093
0.000323767
0.000325547
0.000330121
0.000335536
0.000339758
0.000341803
0.000342011
0.000341305
0.000340458
0.000339866
0.000339647
0.000339786
0.000340236
0.000340974
0.000342018
0.000343414
0.000345237
0.000347581
0.000350567
0.000354352
0.000359152
0.000365256
0.000373096
0.000383198
0.000396613
0.000413961
0.00043917
0.000468531
0.000523704
0.000571869
0.0107068
0.00728323
0.00532119
0.00429545
0.0040542
0.00471075
0.00610642
0.00654411
0.00564255
0.0055855
0.00634323
0.00786314
0.00952777
0.00986993
0.00849198
0.0064867
0.00470295
0.00334442
0.00237178
0.00169723
0.00123682
0.000923993
0.000711678
0.000568579
0.000473425
0.000411072
0.000370861
0.000345676
0.000330872
0.000323364
0.00032116
0.000322989
0.000327625
0.000333268
0.000337916
0.000340454
0.000341076
0.000340658
0.000339994
0.000339518
0.000339377
0.000339572
0.000340065
0.000340837
0.000341905
0.000343321
0.000345159
0.000347514
0.00035051
0.000354304
0.000359113
0.000365228
0.000373079
0.000383195
0.000396624
0.000413986
0.000439191
0.000468532
0.000523475
0.000571342
0.0107046
0.00728054
0.00530332
0.00423071
0.00389991
0.0044267
0.00581335
0.0066284
0.00589446
0.00578269
0.00655162
0.00806949
0.0096543
0.00990246
0.00848704
0.00646891
0.00467445
0.00330843
0.0023371
0.0016701
0.00121876
0.000913577
0.000706212
0.000565495
0.000471046
0.00040866
0.000368252
0.000342935
0.000328125
0.000320713
0.000318623
0.000320515
0.000325209
0.000331047
0.000336079
0.000339083
0.000340115
0.00033999
0.000339514
0.000339159
0.000339099
0.000339352
0.000339889
0.000340696
0.000341791
0.000343226
0.000345078
0.000347446
0.000350451
0.000354255
0.000359074
0.000365198
0.000373061
0.000383189
0.000396632
0.000414008
0.000439209
0.000468532
0.000523256
0.000570847
0.0107027
0.00727907
0.00528998
0.00417777
0.00376651
0.00416286
0.0054881
0.00662065
0.00612687
0.00596923
0.00673296
0.00823232
0.00972199
0.00987489
0.0084309
0.0064174
0.00462592
0.00326049
0.00229528
0.0016386
0.0011979
0.000901296
0.000699591
0.000561841
0.000468518
0.000406328
0.000365806
0.000340357
0.000325503
0.000318151
0.000316162
0.000318121
0.000322873
0.000328878
0.000334253
0.000337698
0.000339131
0.0003393
0.000339019
0.000338789
0.000338813
0.000339126
0.000339709
0.000340551
0.000341673
0.000343129
0.000344997
0.000347376
0.000350392
0.000354205
0.000359034
0.000365168
0.000373042
0.000383182
0.000396637
0.000414027
0.000439224
0.000468528
0.000523049
0.000570385
0.010701
0.00727856
0.00528036
0.00413499
0.00365254
0.00392272
0.00514688
0.00652232
0.00632694
0.00614499
0.00688531
0.00834813
0.00973073
0.00978822
0.00832585
0.00633429
0.00455853
0.0032013
0.00224683
0.00160318
0.0011746
0.000887404
0.000691948
0.000557655
0.000465826
0.000404056
0.000363514
0.000337944
0.000323018
0.000315688
0.000313779
0.000315807
0.000320615
0.000326763
0.000332446
0.000336302
0.000338127
0.000338592
0.00033851
0.000338409
0.00033852
0.000338895
0.000339525
0.000340403
0.000341553
0.00034303
0.000344914
0.000347306
0.000350333
0.000354155
0.000358993
0.000365137
0.000373021
0.000383173
0.000396641
0.000414043
0.000439237
0.000468523
0.000522853
0.000569954
0.0106995
0.00727879
0.00527377
0.00410088
0.00355625
0.00370796
0.00480381
0.00634097
0.00648088
0.0063087
0.00700851
0.00841517
0.009681
0.00964429
0.0081755
0.00622252
0.0044738
0.00313166
0.00219232
0.00156428
0.0011492
0.000872156
0.000683434
0.000552992
0.000462975
0.00040183
0.000361366
0.000335696
0.000320676
0.000313331
0.000311478
0.000313571
0.000318433
0.000324705
0.000330662
0.000334903
0.000337106
0.000337867
0.000337987
0.00033802
0.00033822
0.000338659
0.000339338
0.000340253
0.000341431
0.00034293
0.00034483
0.000347235
0.000350272
0.000354105
0.000358952
0.000365105
0.000372999
0.000383163
0.000396642
0.000414056
0.000439246
0.000468515
0.000522667
0.000569555
0.0106982
0.00727957
0.00526965
0.00407411
0.00347576
0.00351884
0.00447035
0.00608909
0.00657551
0.00645741
0.00710384
0.00843394
0.00957452
0.00944653
0.00798493
0.00608581
0.0043735
0.00305248
0.00213238
0.00152236
0.00112205
0.000855808
0.000674206
0.000547926
0.000459981
0.000399644
0.000359354
0.000333613
0.000318482
0.000311089
0.000309265
0.000311413
0.000316326
0.000322707
0.000328906
0.000333503
0.000336072
0.000337126
0.000337452
0.000337622
0.000337914
0.000338419
0.000339147
0.0003401
0.000341307
0.000342828
0.000344745
0.000347164
0.000350212
0.000354054
0.00035891
0.000365073
0.000372977
0.000383151
0.000396641
0.000414066
0.000439252
0.000468506
0.000522493
0.000569187
0.010697
0.00728076
0.00526748
0.00405351
0.00340919
0.00335454
0.00415514
0.00578246
0.00660002
0.00658615
0.0071735
0.00840736
0.00941502
0.00920047
0.00776075
0.00592843
0.00425953
0.00296472
0.00206763
0.0014779
0.00109351
0.000838611
0.000664423
0.000542537
0.000456871
0.000397499
0.000357474
0.000331691
0.000316439
0.000308967
0.000307143
0.000309333
0.000314294
0.000320768
0.000327183
0.000332109
0.000335028
0.000336373
0.000336906
0.000337216
0.000337603
0.000338176
0.000338953
0.000339944
0.000341181
0.000342725
0.00034466
0.000347091
0.000350151
0.000354002
0.000358868
0.000365039
0.000372953
0.000383137
0.000396638
0.000414073
0.000439255
0.000468495
0.00052233
0.00056885
0.010696
0.00728226
0.00526687
0.00403805
0.00335474
0.00321356
0.00386413
0.0054383
0.00654761
0.00668787
0.00721986
0.00834059
0.00920877
0.00891421
0.00751099
0.00575495
0.00413378
0.00286936
0.00199875
0.00143136
0.00106392
0.00082081
0.000654246
0.000536913
0.00045368
0.000395402
0.000355721
0.000329927
0.000314547
0.000306969
0.000305115
0.00030733
0.000312334
0.000318891
0.000325495
0.000330724
0.000333978
0.000335608
0.00033635
0.000336802
0.000337287
0.000337928
0.000338757
0.000339787
0.000341054
0.000342621
0.000344573
0.000347019
0.000350089
0.000353951
0.000358825
0.000365006
0.000372928
0.000383122
0.000396633
0.000414077
0.000439256
0.000468483
0.000522179
0.000568543
0.0106951
0.00728396
0.00526746
0.00402683
0.00331073
0.00309394
0.00360084
0.00507371
0.00641659
0.00675376
0.00724463
0.00824042
0.00896459
0.00859836
0.0072447
0.00556991
0.00399799
0.00276733
0.00192639
0.00138324
0.00103363
0.000802643
0.00064383
0.000531143
0.000450449
0.000393364
0.000354096
0.00032832
0.000312806
0.000305097
0.000303184
0.000305407
0.000310446
0.000317074
0.000323847
0.000329353
0.000332925
0.000334835
0.000335785
0.000336383
0.000336967
0.000337678
0.000338558
0.000339629
0.000340926
0.000342516
0.000344486
0.000346946
0.000350028
0.000353899
0.000358782
0.000364971
0.000372902
0.000383106
0.000396625
0.000414078
0.000439255
0.00046847
0.000522038
0.000568267
0.0106944
0.00728579
0.00526896
0.00401908
0.00327563
0.00299351
0.00336678
0.00470424
0.00621082
0.00677407
0.00724819
0.00811441
0.00869338
0.00826538
0.00697121
0.00537727
0.0038536
0.00265953
0.00185123
0.001334
0.00100296
0.000784336
0.000633322
0.000525315
0.000447221
0.000391401
0.000352599
0.000326864
0.000311215
0.000303352
0.000301352
0.000303563
0.000308628
0.00031532
0.00032224
0.000327999
0.000331872
0.000334054
0.000335213
0.000335957
0.000336643
0.000337426
0.000338359
0.000339469
0.000340797
0.000342411
0.000344399
0.000346873
0.000349966
0.000353847
0.000358739
0.000364936
0.000372876
0.000383088
0.000396616
0.000414077
0.000439251
0.000468456
0.000521908
0.000568021
0.0106937
0.0072877
0.00527115
0.00401414
0.00324807
0.00291005
0.00316188
0.00434304
0.00593935
0.00673928