/*--------------------------------*- C++ -*----------------------------------*\
| =========                 |                                                 |
| \\      /  F ield         | OpenFOAM: The Open Source CFD Toolbox           |
|  \\    /   O peration     | Version:  2.4.0                                 |
|   \\  /    A nd           | Web:      www.OpenFOAM.org                      |
|    \\/     M anipulation  |                                                 |
\*---------------------------------------------------------------------------*/
FoamFile
{
    version     2.0;
    format      ascii;
    class       volVectorField;
    location    "2250";
    object      U;
}
// * * * * * * * * * * * * * * * * * * * * * * * * * * * * * * * * * * * * * //

dimensions      [0 1 -1 0 0 0 0];

internalField   nonuniform List<vector> 
48900
(
(9.66926 0.0481519 0)
(9.10227 0.0904758 0)
(8.5216 0.0939848 0)
(7.94167 0.0887408 0)
(7.40854 0.08028 0)
(6.91299 0.0703512 0)
(6.46275 0.0603373 0)
(6.04815 0.0509965 0)
(5.68246 0.0425544 0)
(5.35049 0.0351039 0)
(5.06545 0.0286127 0)
(4.80772 0.0231507 0)
(4.58905 0.0186757 0)
(4.38849 0.0150624 0)
(4.22461 0.0121643 0)
(4.07117 0.00959399 0)
(3.95279 0.00761287 0)
(3.83632 0.00572248 0)
(3.75472 0.00446668 0)
(3.6654 0.00304427 0)
(3.61294 0.00241664 0)
(3.54206 0.00120022 0)
(3.51345 0.000977 0)
(3.45363 -0.000208039 0)
(3.44505 4.29206e-05 0)
(3.38975 -0.00124065 0)
(3.39946 -0.000482799 0)
(3.34324 -0.00209601 0)
(3.37155 -0.000768427 0)
(3.30971 -0.00301014 0)
(3.35883 -0.000988712 0)
(3.28735 -0.00427945 0)
(3.36149 -0.00143668 0)
(3.27769 -0.00653118 0)
(3.38378 -0.00363615 0)
(3.28882 -0.0169342 0)
(10.0365 0.0950191 0)
(10.122 0.143398 0)
(10.1206 0.141594 0)
(10.037 0.140859 0)
(9.92816 0.140371 0)
(9.78057 0.13763 0)
(9.62178 0.133285 0)
(9.43615 0.127487 0)
(9.25456 0.120625 0)
(9.05701 0.112624 0)
(8.87378 0.104267 0)
(8.681 0.0955509 0)
(8.51104 0.0876643 0)
(8.33474 0.0794684 0)
(8.18514 0.0720651 0)
(8.0286 0.0642742 0)
(7.90133 0.0577312 0)
(7.76496 0.0507395 0)
(7.65983 0.0453814 0)
(7.54216 0.0393516 0)
(7.45757 0.0352839 0)
(7.35594 0.0302716 0)
(7.28826 0.027496 0)
(7.19917 0.023249 0)
(7.14627 0.0214548 0)
(7.06751 0.017738 0)
(7.02761 0.0166545 0)
(6.9575 0.0132905 0)
(6.92914 0.0125694 0)
(6.86671 0.00945883 0)
(6.84878 0.00857454 0)
(6.79405 0.00571485 0)
(6.78587 0.00365914 0)
(6.74058 0.000964753 0)
(6.74232 -0.00499597 0)
(6.71079 -0.0093815 0)
(10.0214 0.0823238 0)
(10.0941 0.119421 0)
(10.1443 0.123627 0)
(10.1578 0.131872 0)
(10.1727 0.138869 0)
(10.1679 0.141566 0)
(10.1611 0.141566 0)
(10.1324 0.139417 0)
(10.1042 0.135828 0)
(10.0557 0.1306 0)
(10.0099 0.124796 0)
(9.94624 0.118193 0)
(9.88885 0.111802 0)
(9.81646 0.104573 0)
(9.75301 0.0978923 0)
(9.67656 0.0905008 0)
(9.61102 0.0841808 0)
(9.53396 0.0771588 0)
(9.46932 0.0716228 0)
(9.39406 0.0652602 0)
(9.33225 0.0606904 0)
(9.26032 0.0549729 0)
(9.20319 0.0515115 0)
(9.1357 0.0465061 0)
(9.08383 0.0439692 0)
(9.02106 0.0394133 0)
(8.97475 0.0375322 0)
(8.91683 0.0332127 0)
(8.87631 0.0316563 0)
(8.82339 0.0273876 0)
(8.78894 0.025653 0)
(8.74137 0.0212322 0)
(8.71349 0.0183241 0)
(8.67198 0.0132205 0)
(8.6512 0.00640182 0)
(8.61503 -0.00208487 0)
(10.0185 0.0681752 0)
(10.0735 0.108567 0)
(10.1165 0.11903 0)
(10.1363 0.128553 0)
(10.1597 0.135829 0)
(10.1751 0.139032 0)
(10.1923 0.140005 0)
(10.1991 0.139223 0)
(10.2088 0.137246 0)
(10.2079 0.133765 0)
(10.2098 0.129715 0)
(10.201 0.124656 0)
(10.1955 0.119649 0)
(10.1799 0.113786 0)
(10.1684 0.108335 0)
(10.1471 0.102085 0)
(10.1306 0.096704 0)
(10.1049 0.0905299 0)
(10.0847 0.0856359 0)
(10.0559 0.079848 0)
(10.0332 0.0756959 0)
(10.0023 0.0704775 0)
(9.97862 0.0671263 0)
(9.94682 0.0624036 0)
(9.92308 0.0596744 0)
(9.89111 0.0553311 0)
(9.86801 0.0529877 0)
(9.83644 0.0488794 0)
(9.8146 0.0465767 0)
(9.78393 0.042522 0)
(9.76393 0.0397593 0)
(9.73468 0.0354339 0)
(9.71711 0.0313613 0)
(9.68965 0.0258662 0)
(9.67446 0.0186618 0)
(9.64695 0.00964152 0)
(10.0148 0.0576686 0)
(10.06 0.0994326 0)
(10.0974 0.112581 0)
(10.118 0.12259 0)
(10.1401 0.130308 0)
(10.158 0.134145 0)
(10.1762 0.135749 0)
(10.189 0.135533 0)
(10.2032 0.134102 0)
(10.212 0.13119 0)
(10.2222 0.127684 0)
(10.2268 0.123208 0)
(10.2332 0.11878 0)
(10.2342 0.113554 0)
(10.2371 0.108684 0)
(10.2348 0.103069 0)
(10.2347 0.0982318 0)
(10.2295 0.092681 0)
(10.2268 0.0882778 0)
(10.2192 0.0830782 0)
(10.2147 0.0793312 0)
(10.2053 0.0745476 0)
(10.1994 0.0714304 0)
(10.1889 0.0670896 0)
(10.1823 0.064523 0)
(10.171 0.0605271 0)
(10.164 0.0582582 0)
(10.1524 0.054456 0)
(10.1454 0.052121 0)
(10.1338 0.0483216 0)
(10.1271 0.0454038 0)
(10.1157 0.0412703 0)
(10.1095 0.0369611 0)
(10.0981 0.0316824 0)
(10.0918 0.0247393 0)
(10.0787 0.0170577 0)
(10.011 0.0489566 0)
(10.0494 0.0904896 0)
(10.0832 0.105975 0)
(10.1041 0.116951 0)
(10.1252 0.125136 0)
(10.1434 0.129463 0)
(10.1608 0.131486 0)
(10.1748 0.131653 0)
(10.1889 0.130588 0)
(10.1999 0.128095 0)
(10.211 0.124991 0)
(10.219 0.120964 0)
(10.2274 0.116901 0)
(10.2329 0.1121 0)
(10.2388 0.10757 0)
(10.242 0.10239 0)
(10.2459 0.0978548 0)
(10.2471 0.0927228 0)
(10.2491 0.0885426 0)
(10.2487 0.0837256 0)
(10.2494 0.0800811 0)
(10.2479 0.0756652 0)
(10.2477 0.0725738 0)
(10.2454 0.0685913 0)
(10.2446 0.0659446 0)
(10.2419 0.0622824 0)
(10.2408 0.0598427 0)
(10.238 0.0563421 0)
(10.2367 0.0537881 0)
(10.2339 0.0502236 0)
(10.2328 0.0471167 0)
(10.23 0.0431051 0)
(10.2289 0.0388097 0)
(10.2257 0.03365 0)
(10.2238 0.0274205 0)
(10.2185 0.0205699 0)
(10.0079 0.041641 0)
(10.0406 0.0819289 0)
(10.0716 0.099282 0)
(10.0926 0.111215 0)
(10.113 0.119817 0)
(10.1311 0.124602 0)
(10.1479 0.127028 0)
(10.1623 0.127563 0)
(10.176 0.126823 0)
(10.1876 0.124698 0)
(10.1986 0.121918 0)
(10.2077 0.118244 0)
(10.2163 0.114448 0)
(10.2232 0.109981 0)
(10.2299 0.105694 0)
(10.2349 0.100851 0)
(10.2397 0.0965147 0)
(10.2431 0.0917009 0)
(10.2466 0.0876537 0)
(10.2487 0.0831234 0)
(10.2511 0.0795364 0)
(10.2524 0.0753895 0)
(10.254 0.0722743 0)
(10.2548 0.0685227 0)
(10.256 0.0657761 0)
(10.2565 0.0623209 0)
(10.2574 0.0597289 0)
(10.2578 0.0564127 0)
(10.2588 0.0536826 0)
(10.2592 0.050272 0)
(10.2601 0.0470219 0)
(10.2605 0.0431427 0)
(10.2612 0.0388848 0)
(10.2611 0.0339729 0)
(10.2609 0.028329 0)
(10.2588 0.0221904 0)
(10.0057 0.0355645 0)
(10.0331 0.0739134 0)
(10.0615 0.0925427 0)
(10.0824 0.105309 0)
(10.1023 0.114324 0)
(10.1203 0.119569 0)
(10.1367 0.122403 0)
(10.1512 0.123308 0)
(10.1646 0.122889 0)
(10.1764 0.121117 0)
(10.1873 0.11864 0)
(10.1967 0.115298 0)
(10.2054 0.111754 0)
(10.2128 0.107594 0)
(10.2197 0.103526 0)
(10.2254 0.0989854 0)
(10.2307 0.0948234 0)
(10.235 0.0902896 0)
(10.2389 0.0863535 0)
(10.2421 0.0820727 0)
(10.2452 0.0785247 0)
(10.2477 0.0745978 0)
(10.2501 0.0714508 0)
(10.2521 0.0678851 0)
(10.2541 0.065049 0)
(10.2559 0.061749 0)
(10.2577 0.0590323 0)
(10.2594 0.0558373 0)
(10.2612 0.0529819 0)
(10.2629 0.0496586 0)
(10.2647 0.046341 0)
(10.2662 0.0425509 0)
(10.2677 0.0384012 0)
(10.2686 0.0337384 0)
(10.2691 0.0285894 0)
(10.2684 0.0231077 0)
(10.0041 0.0305432 0)
(10.0268 0.0665329 0)
(10.0526 0.0858494 0)
(10.073 0.0992516 0)
(10.0925 0.108655 0)
(10.1103 0.114349 0)
(10.1264 0.117591 0)
(10.1409 0.118871 0)
(10.1542 0.11878 0)
(10.1661 0.117358 0)
(10.1769 0.115184 0)
(10.1865 0.112166 0)
(10.1952 0.108873 0)
(10.2029 0.105008 0)
(10.2099 0.101155 0)
(10.2159 0.0968945 0)
(10.2214 0.0929025 0)
(10.2261 0.0886213 0)
(10.2304 0.0847953 0)
(10.2341 0.0807316 0)
(10.2375 0.0772281 0)
(10.2406 0.073483 0)
(10.2434 0.0703206 0)
(10.246 0.0668988 0)
(10.2485 0.0639986 0)
(10.2508 0.0608086 0)
(10.2531 0.0580021 0)
(10.2554 0.0548867 0)
(10.2576 0.0519487 0)
(10.2598 0.0486863 0)
(10.2619 0.0453467 0)
(10.2639 0.0416465 0)
(10.2656 0.037635 0)
(10.267 0.0332244 0)
(10.2677 0.0285073 0)
(10.2677 0.0235775 0)
(10.003 0.0263909 0)
(10.0216 0.0598181 0)
(10.0448 0.0793107 0)
(10.0644 0.0931105 0)
(10.0832 0.10284 0)
(10.1007 0.108949 0)
(10.1166 0.112588 0)
(10.131 0.114243 0)
(10.1443 0.114486 0)
(10.1562 0.113414 0)
(10.167 0.111547 0)
(10.1767 0.108852 0)
(10.1855 0.105817 0)
(10.1933 0.102242 0)
(10.2004 0.0986089 0)
(10.2067 0.0946166 0)
(10.2123 0.0907993 0)
(10.2173 0.0867542 0)
(10.2218 0.0830464 0)
(10.2259 0.0791792 0)
(10.2295 0.0757339 0)
(10.2329 0.0721458 0)
(10.236 0.0689883 0)
(10.2389 0.0656831 0)
(10.2417 0.0627466 0)
(10.2443 0.0596385 0)
(10.2469 0.0567768 0)
(10.2494 0.0537173 0)
(10.2519 0.0507358 0)
(10.2543 0.0475231 0)
(10.2566 0.0441992 0)
(10.2587 0.040596 0)
(10.2605 0.0367378 0)
(10.262 0.0325785 0)
(10.2629 0.0282322 0)
(10.2632 0.0237663 0)
(10.0023 0.0229462 0)
(10.0174 0.0537626 0)
(10.0379 0.0730248 0)
(10.0564 0.0869714 0)
(10.0745 0.0969282 0)
(10.0915 0.103394 0)
(10.1072 0.1074 0)
(10.1215 0.10942 0)
(10.1346 0.109998 0)
(10.1466 0.109276 0)
(10.1574 0.107721 0)
(10.1672 0.105349 0)
(10.1761 0.10258 0)
(10.184 0.0992938 0)
(10.1912 0.095888 0)
(10.1977 0.0921579 0)
(10.2035 0.0885234 0)
(10.2086 0.0847044 0)
(10.2133 0.0811259 0)
(10.2176 0.0774422 0)
(10.2215 0.0740704 0)
(10.225 0.0706234 0)
(10.2284 0.067491 0)
(10.2315 0.0642854 0)
(10.2345 0.0613381 0)
(10.2373 0.0582961 0)
(10.2401 0.0554085 0)
(10.2427 0.0523943 0)
(10.2453 0.0494003 0)
(10.2478 0.0462373 0)
(10.2501 0.0429567 0)
(10.2523 0.0394597 0)
(10.2542 0.0357624 0)
(10.2557 0.031846 0)
(10.2568 0.0278217 0)
(10.2573 0.0237482 0)
(10.0018 0.0200762 0)
(10.0141 0.0483334 0)
(10.0321 0.0670652 0)
(10.0492 0.0809252 0)
(10.0663 0.0909863 0)
(10.0827 0.097728 0)
(10.098 0.102054 0)
(10.1121 0.104415 0)
(10.1251 0.10532 0)
(10.137 0.104941 0)
(10.1479 0.103698 0)
(10.1578 0.101648 0)
(10.1667 0.099153 0)
(10.1748 0.0961554 0)
(10.1821 0.0929849 0)
(10.1887 0.0895139 0)
(10.1946 0.0860712 0)
(10.2 0.0824726 0)
(10.2049 0.0790349 0)
(10.2093 0.0755272 0)
(10.2134 0.0722443 0)
(10.2171 0.068929 0)
(10.2206 0.0658408 0)
(10.2239 0.0627259 0)
(10.227 0.05979 0)
(10.23 0.0568074 0)
(10.2329 0.0539187 0)
(10.2357 0.0509482 0)
(10.2383 0.0479671 0)
(10.2409 0.0448598 0)
(10.2432 0.0416435 0)
(10.2454 0.0382613 0)
(10.2473 0.0347278 0)
(10.2489 0.031042 0)
(10.25 0.0273013 0)
(10.2507 0.0235613 0)
(10.0014 0.0176758 0)
(10.0114 0.0434816 0)
(10.0271 0.0614759 0)
(10.0428 0.0750522 0)
(10.0588 0.0850893 0)
(10.0744 0.0920109 0)
(10.0892 0.0965929 0)
(10.103 0.0992568 0)
(10.1158 0.100466 0)
(10.1276 0.100416 0)
(10.1384 0.0994802 0)
(10.1483 0.0977464 0)
(10.1573 0.0955288 0)
(10.1655 0.0928192 0)
(10.1729 0.0898905 0)
(10.1796 0.0866764 0)
(10.1857 0.0834341 0)
(10.1913 0.0800527 0)
(10.1963 0.0767669 0)
(10.2009 0.0734315 0)
(10.2052 0.0702517 0)
(10.2091 0.0670641 0)
(10.2127 0.064037 0)
(10.2162 0.06101 0)
(10.2194 0.0581054 0)
(10.2225 0.0551819 0)
(10.2255 0.0523132 0)
(10.2284 0.0493908 0)
(10.2311 0.0464434 0)
(10.2336 0.0434009 0)
(10.236 0.0402651 0)
(10.2382 0.0370047 0)
(10.2401 0.0336348 0)
(10.2417 0.0301657 0)
(10.2429 0.0266775 0)
(10.2437 0.023224 0)
(10.0011 0.015662 0)
(10.0094 0.0391572 0)
(10.023 0.0562733 0)
(10.0372 0.0694141 0)
(10.052 0.0793069 0)
(10.0667 0.0863076 0)
(10.0808 0.0910716 0)
(10.0942 0.0939856 0)
(10.1067 0.0954671 0)
(10.1183 0.09572 0)
(10.129 0.0950775 0)
(10.1389 0.0936494 0)
(10.1479 0.0917074 0)
(10.1561 0.0892815 0)
(10.1636 0.0865983 0)
(10.1705 0.0836384 0)
(10.1767 0.0806032 0)
(10.1824 0.0774369 0)
(10.1876 0.074313 0)
(10.1924 0.0711484 0)
(10.1968 0.0680846 0)
(10.2008 0.0650242 0)
(10.2047 0.0620737 0)
(10.2082 0.0591359 0)
(10.2116 0.0562801 0)
(10.2148 0.05342 0)
(10.2179 0.0505899 0)
(10.2208 0.0477233 0)
(10.2235 0.0448274 0)
(10.2261 0.0418596 0)
(10.2285 0.0388168 0)
(10.2307 0.0356834 0)
(10.2326 0.0324752 0)
(10.2343 0.0292085 0)
(10.2355 0.0259473 0)
(10.2365 0.0227425 0)
(10.0009 0.0141322 0)
(10.0079 0.035769 0)
(10.02 0.0520328 0)
(10.033 0.0647186 0)
(10.0467 0.0744038 0)
(10.0605 0.0813939 0)
(10.074 0.086254 0)
(10.0869 0.0893361 0)
(10.099 0.0910191 0)
(10.1104 0.0915073 0)
(10.1209 0.0911023 0)
(10.1307 0.0899247 0)
(10.1397 0.0882164 0)
(10.1479 0.0860295 0)
(10.1555 0.0835603 0)
(10.1624 0.0808168 0)
(10.1687 0.077966 0)
(10.1745 0.0749843 0)
(10.1799 0.0720086 0)
(10.1847 0.0689917 0)
(10.1893 0.066039 0)
(10.1935 0.0630901 0)
(10.1974 0.0602185 0)
(10.2011 0.0573616 0)
(10.2046 0.054562 0)
(10.2079 0.051763 0)
(10.211 0.0489809 0)
(10.2139 0.0461717 0)
(10.2167 0.0433342 0)
(10.2194 0.0404411 0)
(10.2218 0.0374888 0)
(10.224 0.0344706 0)
(10.2259 0.0314018 0)
(10.2276 0.0283023 0)
(10.2289 0.0252217 0)
(10.23 0.0222103 0)
(10.0008 0.012918 0)
(10.0069 0.0330129 0)
(10.0177 0.0484794 0)
(10.0296 0.060729 0)
(10.0424 0.0701863 0)
(10.0555 0.0771202 0)
(10.0683 0.0820259 0)
(10.0807 0.0852226 0)
(10.0925 0.0870575 0)
(10.1036 0.087731 0)
(10.114 0.0875197 0)
(10.1236 0.0865493 0)
(10.1325 0.0850396 0)
(10.1407 0.0830554 0)
(10.1483 0.0807721 0)
(10.1553 0.0782146 0)
(10.1616 0.0755269 0)
(10.1675 0.0727053 0)
(10.1729 0.0698634 0)
(10.1779 0.066976 0)
(10.1825 0.0641265 0)
(10.1868 0.0612771 0)
(10.1909 0.0584819 0)
(10.1946 0.0556993 0)
(10.1982 0.0529572 0)
(10.2016 0.0502168 0)
(10.2047 0.0474856 0)
(10.2078 0.0447329 0)
(10.2106 0.0419547 0)
(10.2132 0.039133 0)
(10.2157 0.0362649 0)
(10.2179 0.0333499 0)
(10.2199 0.0304016 0)
(10.2216 0.0274431 0)
(10.223 0.0245107 0)
(10.2242 0.0216573 0)
(10.0007 0.0118065 0)
(10.006 0.0303907 0)
(10.0156 0.0450135 0)
(10.0266 0.0567655 0)
(10.0385 0.0659429 0)
(10.0507 0.072773 0)
(10.0629 0.0776842 0)
(10.0747 0.0809637 0)
(10.0861 0.0829265 0)
(10.0968 0.0837668 0)
(10.1069 0.0837368 0)
(10.1164 0.0829646 0)
(10.1252 0.0816492 0)
(10.1333 0.0798651 0)
(10.1409 0.0777687 0)
(10.1478 0.075398 0)
(10.1543 0.0728776 0)
(10.1602 0.0702191 0)
(10.1657 0.0675172 0)
(10.1707 0.0647639 0)
(10.1755 0.0620253 0)
(10.1799 0.059281 0)
(10.184 0.056571 0)
(10.1878 0.0538695 0)
(10.1915 0.0511947 0)
(10.1949 0.0485209 0)
(10.1981 0.0458505 0)
(10.2012 0.0431631 0)
(10.204 0.0404538 0)
(10.2067 0.0377117 0)
(10.2092 0.0349352 0)
(10.2114 0.0321283 0)
(10.2134 0.0293027 0)
(10.2152 0.0264835 0)
(10.2167 0.0236952 0)
(10.218 0.0209934 0)
(10.0006 0.0107788 0)
(10.0052 0.0278923 0)
(10.0138 0.0416445 0)
(10.0238 0.0528447 0)
(10.0348 0.0616948 0)
(10.0462 0.0683764 0)
(10.0577 0.0732533 0)
(10.0689 0.0765826 0)
(10.0798 0.0786469 0)
(10.0901 0.0796326 0)
(10.0999 0.0797678 0)
(10.1092 0.0791813 0)
(10.1178 0.0780522 0)
(10.1258 0.0764625 0)
(10.1333 0.0745506 0)
(10.1402 0.0723651 0)
(10.1467 0.0700133 0)
(10.1526 0.0675192 0)
(10.1581 0.0649616 0)
(10.1633 0.0623459 0)
(10.168 0.0597247 0)
(10.1725 0.0570909 0)
(10.1767 0.0544742 0)
(10.1806 0.0518607 0)
(10.1843 0.0492624 0)
(10.1878 0.0466634 0)
(10.1911 0.0440638 0)
(10.1942 0.0414506 0)
(10.1971 0.0388196 0)
(10.1998 0.0361654 0)
(10.2023 0.0334875 0)
(10.2046 0.0307933 0)
(10.2066 0.0280925 0)
(10.2085 0.0254113 0)
(10.21 0.0227638 0)
(10.2114 0.0202081 0)
(10.0005 0.00982249 0)
(10.0045 0.0255144 0)
(10.0121 0.0383769 0)
(10.0212 0.0489814 0)
(10.0313 0.057461 0)
(10.042 0.0639517 0)
(10.0527 0.068756 0)
(10.0633 0.0721021 0)
(10.0737 0.0742406 0)
(10.0836 0.0753482 0)
(10.0931 0.07563 0)
(10.102 0.0752138 0)
(10.1104 0.0742603 0)
(10.1183 0.0728558 0)
(10.1256 0.0711232 0)
(10.1325 0.0691184 0)
(10.1389 0.0669342 0)
(10.1448 0.0646036 0)
(10.1504 0.0621926 0)
(10.1555 0.0597165 0)
(10.1604 0.0572177 0)
(10.1649 0.0546987 0)
(10.1691 0.0521824 0)
(10.1731 0.0496636 0)
(10.1769 0.0471504 0)
(10.1804 0.0446344 0)
(10.1837 0.0421149 0)
(10.1869 0.0395848 0)
(10.1898 0.037041 0)
(10.1925 0.0344823 0)
(10.1951 0.0319094 0)
(10.1974 0.029332 0)
(10.1995 0.0267577 0)
(10.2013 0.0242132 0)
(10.2029 0.0217035 0)
(10.2044 0.019289 0)
(10.0005 0.00893018 0)
(10.0039 0.0232552 0)
(10.0107 0.0352153 0)
(10.0189 0.0451892 0)
(10.0282 0.0532588 0)
(10.038 0.0595183 0)
(10.0481 0.0642132 0)
(10.0581 0.0675435 0)
(10.0679 0.0697284 0)
(10.0773 0.0709334 0)
(10.0864 0.0713419 0)
(10.095 0.0710787 0)
(10.1031 0.0702875 0)
(10.1108 0.0690568 0)
(10.118 0.0674957 0)
(10.1247 0.0656647 0)
(10.1311 0.0636447 0)
(10.137 0.0614745 0)
(10.1425 0.0592105 0)
(10.1476 0.0568743 0)
(10.1525 0.0545013 0)
(10.157 0.0521005 0)
(10.1613 0.0496905 0)
(10.1653 0.0472721 0)
(10.1691 0.0448517 0)
(10.1727 0.0424263 0)
(10.176 0.0399956 0)
(10.1792 0.0375567 0)
(10.1822 0.0351084 0)
(10.1849 0.032652 0)
(10.1875 0.0301898 0)
(10.1898 0.0277325 0)
(10.1919 0.0252859 0)
(10.1939 0.0228766 0)
(10.1955 0.020502 0)
(10.1971 0.0182245 0)
(10.0004 0.00809533 0)
(10.0034 0.0211118 0)
(10.0094 0.0321633 0)
(10.0169 0.0414793 0)
(10.0253 0.0491032 0)
(10.0344 0.0550935 0)
(10.0437 0.0596435 0)
(10.0531 0.0629256 0)
(10.0623 0.0651293 0)
(10.0713 0.0664069 0)
(10.0799 0.0669215 0)
(10.0882 0.0667927 0)
(10.096 0.0661493 0)
(10.1035 0.0650792 0)
(10.1105 0.0636801 0)
(10.1171 0.0620142 0)
(10.1233 0.060153 0)
(10.1291 0.0581385 0)
(10.1346 0.0560197 0)
(10.1397 0.0538223 0)
(10.1445 0.0515768 0)
(10.149 0.0492965 0)
(10.1533 0.0469973 0)
(10.1573 0.0446841 0)
(10.1611 0.0423632 0)
(10.1647 0.0400351 0)
(10.1681 0.0377008 0)
(10.1713 0.0353604 0)
(10.1742 0.0330144 0)
(10.177 0.0306664 0)
(10.1796 0.0283192 0)
(10.182 0.0259845 0)
(10.1841 0.0236663 0)
(10.1861 0.0213904 0)
(10.1879 0.0191482 0)
(10.1895 0.0170041 0)
(10.0004 0.00731161 0)
(10.003 0.0190801 0)
(10.0083 0.0292233 0)
(10.015 0.0378613 0)
(10.0227 0.0450077 0)
(10.031 0.0506929 0)
(10.0397 0.0550635 0)
(10.0484 0.0582655 0)
(10.0571 0.0604601 0)
(10.0656 0.0617853 0)
(10.0738 0.0623848 0)
(10.0817 0.0623714 0)
(10.0892 0.0618602 0)
(10.0964 0.0609369 0)
(10.1032 0.0596888 0)
(10.1096 0.0581783 0)
(10.1156 0.0564691 0)
(10.1213 0.0546043 0)
(10.1267 0.0526278 0)
(10.1318 0.050567 0)
(10.1365 0.0484493 0)
(10.141 0.0462904 0)
(10.1453 0.0441053 0)
(10.1493 0.0419013 0)
(10.1531 0.0396852 0)
(10.1567 0.0374601 0)
(10.16 0.0352284 0)
(10.1632 0.0329926 0)
(10.1662 0.0307546 0)
(10.169 0.0285196 0)
(10.1715 0.0262909 0)
(10.1739 0.0240804 0)
(10.1761 0.0218904 0)
(10.1782 0.0197461 0)
(10.1799 0.0176337 0)
(10.1817 0.0156193 0)
(10.0003 0.00657334 0)
(10.0026 0.0171551 0)
(10.0073 0.0263963 0)
(10.0133 0.0343424 0)
(10.0203 0.0409843 0)
(10.028 0.0463307 0)
(10.036 0.0504886 0)
(10.0441 0.0535786 0)
(10.0522 0.055736 0)
(10.0602 0.0570831 0)
(10.068 0.0577457 0)
(10.0755 0.0578282 0)
(10.0827 0.0574331 0)
(10.0896 0.0566419 0)
(10.0961 0.0555333 0)
(10.1023 0.0541678 0)
(10.1082 0.0526029 0)
(10.1138 0.0508815 0)
(10.119 0.0490431 0)
(10.124 0.0471161 0)
(10.1287 0.0451255 0)
(10.1331 0.0430885 0)
(10.1373 0.0410195 0)
(10.1413 0.0389278 0)
(10.1451 0.0368207 0)
(10.1486 0.0347032 0)
(10.1519 0.0325793 0)
(10.1551 0.030453 0)
(10.1581 0.0283275 0)
(10.1608 0.0262089 0)
(10.1634 0.0241009 0)
(10.1658 0.0220153 0)
(10.168 0.0199527 0)
(10.1701 0.017938 0)
(10.1719 0.0159526 0)
(10.1737 0.0140645 0)
(10.0003 0.00587564 0)
(10.0023 0.0153308 0)
(10.0064 0.0236818 0)
(10.0119 0.030928 0)
(10.0182 0.0370427 0)
(10.0252 0.0420195 0)
(10.0325 0.0459326 0)
(10.0401 0.048879 0)
(10.0477 0.0509703 0)
(10.0552 0.0523131 0)
(10.0625 0.0530162 0)
(10.0696 0.0531742 0)
(10.0765 0.0528782 0)
(10.0831 0.0522041 0)
(10.0894 0.0512228 0)
(10.0954 0.0499916 0)
(10.101 0.0485629 0)
(10.1065 0.046978 0)
(10.1116 0.0452733 0)
(10.1164 0.0434768 0)
(10.121 0.0416121 0)
(10.1254 0.0396969 0)
(10.1295 0.0377456 0)
(10.1334 0.0357684 0)
(10.1371 0.0337737 0)
(10.1406 0.0317678 0)
(10.144 0.0297557 0)
(10.1471 0.0277427 0)
(10.15 0.025733 0)
(10.1528 0.0237333 0)
(10.1553 0.0217473 0)
(10.1577 0.0197864 0)
(10.1599 0.0178502 0)
(10.162 0.0159625 0)
(10.1639 0.0141016 0)
(10.1657 0.0123363 0)
(10.0003 0.00521442 0)
(10.002 0.0136008 0)
(10.0057 0.0210782 0)
(10.0105 0.0276211 0)
(10.0163 0.0331908 0)
(10.0226 0.0377704 0)
(10.0294 0.0414081 0)
(10.0364 0.0441796 0)
(10.0434 0.0461756 0)
(10.0505 0.0474869 0)
(10.0574 0.0482065 0)
(10.0641 0.0484187 0)
(10.0706 0.0482038 0)
(10.0769 0.047631 0)
(10.083 0.0467638 0)
(10.0887 0.0456559 0)
(10.0942 0.0443547 0)
(10.0995 0.0428993 0)
(10.1044 0.0413234 0)
(10.1092 0.0396541 0)
(10.1137 0.0379138 0)
(10.1179 0.0361201 0)
(10.122 0.0342875 0)
(10.1258 0.032427 0)
(10.1295 0.0305474 0)
(10.1329 0.0286562 0)
(10.1362 0.0267592 0)
(10.1392 0.0248626 0)
(10.1421 0.0229712 0)
(10.1448 0.021092 0)
(10.1474 0.0192286 0)
(10.1498 0.0173921 0)
(10.152 0.0155808 0)
(10.1541 0.0138176 0)
(10.156 0.0120786 0)
(10.1578 0.0104331 0)
(10.0002 0.00458621 0)
(10.0018 0.011958 0)
(10.005 0.0185821 0)
(10.0094 0.0244228 0)
(10.0145 0.0294339 0)
(10.0203 0.033592 0)
(10.0265 0.0369256 0)
(10.033 0.0394919 0)
(10.0395 0.0413631 0)
(10.0461 0.0426149 0)
(10.0526 0.043326 0)
(10.059 0.0435699 0)
(10.0652 0.0434165 0)
(10.0712 0.042928 0)
(10.0769 0.0421611 0)
(10.0825 0.0411645 0)
(10.0878 0.0399815 0)
(10.0928 0.0386482 0)
(10.0977 0.0371959 0)
(10.1023 0.0356501 0)
(10.1067 0.0340322 0)
(10.1108 0.0323597 0)
(10.1148 0.0306465 0)
(10.1185 0.0289042 0)
(10.1221 0.0271422 0)
(10.1255 0.0253683 0)
(10.1287 0.0235892 0)
(10.1317 0.0218115 0)
(10.1345 0.0200403 0)
(10.1372 0.0182828 0)
(10.1397 0.0165423 0)
(10.1421 0.0148294 0)
(10.1443 0.0131416 0)
(10.1464 0.0115009 0)
(10.1483 0.00988157 0)
(10.1501 0.0083528 0)
(10.0002 0.00398792 0)
(10.0016 0.0103951 0)
(10.0045 0.0161884 0)
(10.0083 0.0213313 0)
(10.013 0.0257741 0)
(10.0182 0.02949 0)
(10.0239 0.0324932 0)
(10.0299 0.0348251 0)
(10.036 0.0365422 0)
(10.0421 0.0377063 0)
(10.0482 0.0383827 0)
(10.0542 0.0386345 0)
(10.0601 0.0385219 0)
(10.0658 0.0380996 0)
(10.0713 0.0374174 0)
(10.0766 0.0365193 0)
(10.0817 0.0354441 0)
(10.0866 0.0342248 0)
(10.0913 0.03289 0)
(10.0958 0.0314637 0)
(10.1 0.0299659 0)
(10.1041 0.0284135 0)
(10.1079 0.0268201 0)
(10.1116 0.0251974 0)
(10.1151 0.0235547 0)
(10.1184 0.0219005 0)
(10.1215 0.0202415 0)
(10.1245 0.0185847 0)
(10.1273 0.0169353 0)
(10.1299 0.0153004 0)
(10.1324 0.0136831 0)
(10.1348 0.0120932 0)
(10.137 0.0105277 0)
(10.139 0.00900746 0)
(10.1409 0.0075061 0)
(10.1428 0.00609184 0)
(10.0002 0.00341664 0)
(10.0014 0.00890433 0)
(10.004 0.0138905 0)
(10.0074 0.0183422 0)
(10.0116 0.0222103 0)
(10.0164 0.0254665 0)
(10.0216 0.0281153 0)
(10.0271 0.0301854 0)
(10.0327 0.0317197 0)
(10.0385 0.0327677 0)
(10.0442 0.0333828 0)
(10.0498 0.0336179 0)
(10.0554 0.0335239 0)
(10.0608 0.0331483 0)
(10.0661 0.0325342 0)
(10.0712 0.0317205 0)
(10.0761 0.0307415 0)
(10.0808 0.029627 0)
(10.0853 0.0284029 0)
(10.0897 0.0270911 0)
(10.0938 0.0257104 0)
(10.0977 0.0242764 0)
(10.1015 0.0228025 0)
(10.1051 0.0212999 0)
(10.1085 0.0197779 0)
(10.1117 0.0182449 0)
(10.1148 0.0167078 0)
(10.1177 0.0151735 0)
(10.1205 0.0136472 0)
(10.1231 0.0121356 0)
(10.1256 0.0106416 0)
(10.1279 0.00917427 0)
(10.1301 0.0077302 0)
(10.1321 0.00632925 0)
(10.134 0.00494453 0)
(10.1359 0.00364316 0)
(10.0002 0.00286938 0)
(10.0013 0.00747736 0)
(10.0035 0.0116795 0)
(10.0067 0.0154481 0)
(10.0105 0.0187374 0)
(10.0148 0.0215194 0)
(10.0196 0.0237922 0)
(10.0246 0.0255747 0)
(10.0298 0.0268986 0)
(10.0352 0.0278026 0)
(10.0405 0.0283295 0)
(10.0459 0.0285226 0)
(10.0511 0.0284244 0)
(10.0563 0.0280749 0)
(10.0613 0.0275111 0)
(10.0662 0.0267665 0)
(10.0709 0.0258711 0)
(10.0755 0.0248511 0)
(10.0798 0.0237296 0)
(10.084 0.0225264 0)
(10.088 0.0212585 0)
(10.0919 0.0199405 0)
(10.0956 0.0185848 0)
(10.0991 0.017202 0)
(10.1024 0.0158011 0)
(10.1056 0.0143903 0)
(10.1086 0.0129762 0)
(10.1115 0.0115655 0)
(10.1142 0.0101631 0)
(10.1167 0.0087753 0)
(10.1192 0.0074047 0)
(10.1215 0.00605974 0)
(10.1236 0.00473656 0)
(10.1257 0.00345401 0)
(10.1276 0.00218519 0)
(10.1295 0.000995714 0)
(10.0001 0.00234281 0)
(10.0011 0.00610498 0)
(10.0032 0.00954416 0)
(10.006 0.0126379 0)
(10.0094 0.0153455 0)
(10.0134 0.0176408 0)
(10.0178 0.0195182 0)
(10.0224 0.0209892 0)
(10.0273 0.0220764 0)
(10.0322 0.0228094 0)
(10.0373 0.0232214 0)
(10.0423 0.0233472 0)
(10.0473 0.0232213 0)
(10.0522 0.0228769 0)
(10.057 0.0223446 0)
(10.0617 0.021653 0)
(10.0662 0.0208274 0)
(10.0706 0.0198907 0)
(10.0748 0.0188627 0)
(10.0789 0.017761 0)
(10.0828 0.0166008 0)
(10.0865 0.0153951 0)
(10.0901 0.0141552 0)
(10.0935 0.012891 0)
(10.0968 0.0116108 0)
(10.0999 0.0103222 0)
(10.1029 0.00903148 0)
(10.1057 0.00774477 0)
(10.1084 0.00646667 0)
(10.1109 0.00520298 0)
(10.1133 0.00395586 0)
(10.1156 0.00273304 0)
(10.1178 0.00153044 0)
(10.1198 0.000365828 0)
(10.1217 -0.000787424 0)
(10.1236 -0.00186549 0)
(10.0001 0.00183303 0)
(10.001 0.00477663 0)
(10.0029 0.00747046 0)
(10.0054 0.00989623 0)
(10.0086 0.0120193 0)
(10.0122 0.0138166 0)
(10.0162 0.0152807 0)
(10.0205 0.0164178 0)
(10.025 0.0172435 0)
(10.0297 0.0177794 0)
(10.0344 0.0180506 0)
(10.0392 0.0180842 0)
(10.0439 0.0179074 0)
(10.0486 0.0175465 0)
(10.0532 0.0170268 0)
(10.0577 0.0163713 0)
(10.062 0.0156013 0)
(10.0663 0.0147356 0)
(10.0704 0.0137913 0)
(10.0743 0.0127832 0)
(10.0781 0.0117245 0)
(10.0818 0.0106265 0)
(10.0853 0.00949921 0)
(10.0886 0.00835138 0)
(10.0918 0.00719049 0)
(10.0949 0.00602332 0)
(10.0978 0.00485556 0)
(10.1006 0.00369273 0)
(10.1032 0.00253889 0)
(10.1057 0.00139923 0)
(10.1081 0.00027549 0)
(10.1104 -0.000825341 0)
(10.1125 -0.00190754 0)
(10.1146 -0.00295441 0)
(10.1165 -0.00399209 0)
(10.1184 -0.00495885 0)
(10.0001 0.00133521 0)
(10.0009 0.00347961 0)
(10.0026 0.00544042 0)
(10.005 0.007202 0)
(10.0078 0.00873644 0)
(10.0112 0.0100244 0)
(10.0149 0.0110582 0)
(10.0189 0.0118403 0)
(10.0232 0.0123808 0)
(10.0276 0.0126947 0)
(10.032 0.0128003 0)
(10.0365 0.0127175 0)
(10.041 0.0124669 0)
(10.0455 0.0120688 0)
(10.0499 0.0115426 0)
(10.0542 0.0109065 0)
(10.0584 0.0101774 0)
(10.0625 0.00937042 0)
(10.0665 0.00849935 0)
(10.0703 0.00757639 0)
(10.074 0.00661238 0)
(10.0776 0.00561687 0)
(10.081 0.00459822 0)
(10.0843 0.00356386 0)
(10.0875 0.0025202 0)
(10.0905 0.00147306 0)
(10.0934 0.000427327 0)
(10.0961 -0.000612249 0)
(10.0987 -0.00164223 0)
(10.1012 -0.00265813 0)
(10.1036 -0.00365868 0)
(10.1058 -0.00463765 0)
(10.108 -0.00559948 0)
(10.11 -0.00652859 0)
(10.112 -0.00745042 0)
(10.1138 -0.00830566 0)
(10.0001 0.000843407 0)
(10.0009 0.00219824 0)
(10.0024 0.0034308 0)
(10.0046 0.00452679 0)
(10.0073 0.00546517 0)
(10.0104 0.0062309 0)
(10.0139 0.00681685 0)
(10.0177 0.0072233 0)
(10.0217 0.00745598 0)
(10.0258 0.00752445 0)
(10.0301 0.00744086 0)
(10.0344 0.00721892 0)
(10.0387 0.00687303 0)
(10.043 0.00641767 0)
(10.0472 0.00586692 0)
(10.0514 0.00523414 0)
(10.0555 0.00453183 0)
(10.0594 0.00377146 0)
(10.0633 0.00296344 0)
(10.0671 0.00211717 0)
(10.0707 0.00124105 0)
(10.0742 0.000342558 0)
(10.0775 -0.000571682 0)
(10.0808 -0.00149577 0)
(10.0839 -0.00242456 0)
(10.0868 -0.00335335 0)
(10.0897 -0.00427824 0)
(10.0924 -0.00519534 0)
(10.095 -0.00610195 0)
(10.0975 -0.00699438 0)
(10.0998 -0.00787184 0)
(10.1021 -0.00872891 0)
(10.1042 -0.00957016 0)
(10.1063 -0.0103812 0)
(10.1082 -0.0111865 0)
(10.1101 -0.0119298 0)
(10.0001 0.000350858 0)
(10.0008 0.000913871 0)
(10.0023 0.00141291 0)
(10.0043 0.00183418 0)
(10.0069 0.00216351 0)
(10.0098 0.00239053 0)
(10.0132 0.00250949 0)
(10.0168 0.00251916 0)
(10.0206 0.00242182 0)
(10.0245 0.00222234 0)
(10.0286 0.00192746 0)
(10.0328 0.00154514 0)
(10.0369 0.00108405 0)
(10.0411 0.000553132 0)
(10.0452 -3.87224e-05 0)
(10.0492 -0.000682893 0)
(10.0532 -0.0013712 0)
(10.0571 -0.00209601 0)
(10.0609 -0.00285028 0)
(10.0646 -0.00362757 0)
(10.0681 -0.00442206 0)
(10.0715 -0.0052285 0)
(10.0749 -0.00604219 0)
(10.078 -0.0068589 0)
(10.0811 -0.00767492 0)
(10.0841 -0.00848683 0)
(10.0869 -0.00929181 0)
(10.0896 -0.010087 0)
(10.0922 -0.0108704 0)
(10.0946 -0.0116393 0)
(10.097 -0.0123934 0)
(10.0992 -0.0131282 0)
(10.1014 -0.0138482 0)
(10.1034 -0.0145404 0)
(10.1054 -0.0152282 0)
(10.1073 -0.0158584 0)
(10.0001 -0.000137435 0)
(10.0008 -0.000359918 0)
(10.0022 -0.000590122 0)
(10.0042 -0.000841969 0)
(10.0066 -0.00112297 0)
(10.0095 -0.0014388 0)
(10.0127 -0.00179355 0)
(10.0162 -0.00218956 0)
(10.0199 -0.0026275 0)
(10.0238 -0.00310671 0)
(10.0278 -0.00362539 0)
(10.0318 -0.0041809 0)
(10.0359 -0.00476996 0)
(10.04 -0.00538887 0)
(10.044 -0.00603372 0)
(10.048 -0.00670047 0)
(10.0519 -0.00738516 0)
(10.0557 -0.00808393 0)
(10.0594 -0.0087931 0)
(10.063 -0.00950923 0)
(10.0666 -0.0102291 0)
(10.07 -0.0109498 0)
(10.0732 -0.0116686 0)
(10.0764 -0.012383 0)
(10.0794 -0.0130908 0)
(10.0824 -0.0137901 0)
(10.0852 -0.014479 0)
(10.0878 -0.0151557 0)
(10.0904 -0.0158193 0)
(10.0929 -0.0164678 0)
(10.0953 -0.0171014 0)
(10.0975 -0.0177165 0)
(10.0997 -0.0183178 0)
(10.1017 -0.0188934 0)
(10.1037 -0.0194657 0)
(10.1056 -0.019985 0)
(10.0001 -0.000606194 0)
(10.0008 -0.00158196 0)
(10.0022 -0.00251131 0)
(10.0042 -0.00340854 0)
(10.0066 -0.00427492 0)
(10.0095 -0.00511186 0)
(10.0126 -0.00592205 0)
(10.0161 -0.00670891 0)
(10.0198 -0.00747601 0)
(10.0236 -0.00822665 0)
(10.0276 -0.00896375 0)
(10.0316 -0.00968964 0)
(10.0356 -0.0104061 0)
(10.0396 -0.0111143 0)
(10.0436 -0.0118151 0)
(10.0476 -0.0125087 0)
(10.0515 -0.013195 0)
(10.0553 -0.0138738 0)
(10.059 -0.0145446 0)
(10.0626 -0.0152069 0)
(10.0661 -0.0158598 0)
(10.0695 -0.0165026 0)
(10.0727 -0.0171346 0)
(10.0759 -0.017755 0)
(10.0789 -0.0183631 0)
(10.0818 -0.018958 0)
(10.0846 -0.0195394 0)
(10.0873 -0.0201063 0)
(10.0899 -0.0206585 0)
(10.0924 -0.0211949 0)
(10.0947 -0.0217164 0)
(10.097 -0.02222 0)
(10.0992 -0.0227107 0)
(10.1013 -0.0231776 0)
(10.1032 -0.023642 0)
(10.1051 -0.0240576 0)
(10.0001 -0.00105406 0)
(10.0008 -0.00274895 0)
(10.0022 -0.0043443 0)
(10.0042 -0.00585434 0)
(10.0067 -0.00727451 0)
(10.0096 -0.00860267 0)
(10.0129 -0.00984068 0)
(10.0164 -0.0109935 0)
(10.0201 -0.012068 0)
(10.024 -0.0130715 0)
(10.0279 -0.0140117 0)
(10.032 -0.0148958 0)
(10.036 -0.0157305 0)
(10.04 -0.0165217 0)
(10.0441 -0.0172743 0)
(10.048 -0.0179929 0)
(10.0519 -0.0186811 0)
(10.0557 -0.0193417 0)
(10.0594 -0.0199774 0)
(10.063 -0.0205902 0)
(10.0665 -0.0211816 0)
(10.0699 -0.0217529 0)
(10.0732 -0.0223051 0)
(10.0764 -0.0228392 0)
(10.0794 -0.0233556 0)
(10.0823 -0.0238548 0)
(10.0851 -0.0243374 0)
(10.0878 -0.0248035 0)
(10.0904 -0.0252536 0)