/*--------------------------------*- C++ -*----------------------------------*\
| =========                 |                                                 |
| \\      /  F ield         | OpenFOAM: The Open Source CFD Toolbox           |
|  \\    /   O peration     | Version:  2.4.0                                 |
|   \\  /    A nd           | Web:      www.OpenFOAM.org                      |
|    \\/     M anipulation  |                                                 |
\*---------------------------------------------------------------------------*/
FoamFile
{
    version     2.0;
    format      ascii;
    class       volScalarField;
    location    "1.29";
    object      epsilon;
}
// * * * * * * * * * * * * * * * * * * * * * * * * * * * * * * * * * * * * * //

dimensions      [0 2 -3 0 0 0 0];

internalField   nonuniform List<scalar> 
6000
(
54.1886
1.08873
0.0214427
0.133552
0.0735815
0.0910943
0.0744374
0.0748459
0.0442814
0.0117506
0.00424254
0.0153872
0.0163691
0.036682
0.203663
0.590445
1.13769
1.62861
1.82451
1.63604
1.18744
0.696141
0.318824
0.103451
0.0211198
0.00531328
0.0144835
0.0301358
0.045503
0.0603114
0.0759202
0.0940257
0.116196
0.143667
0.177151
0.216637
0.26134
0.309928
0.361056
0.413986
0.468989
0.527419
0.591508
0.664176
0.748805
0.849565
0.97107
1.12026
1.30366
1.53642
1.82455
2.21252
2.67941
3.39706
4.14746
5.7263
6.74984
11.2119
11.6173
26.557
17.7272
0.97227
0.0261098
0.0737783
0.0423855
0.0498766
0.0409341
0.0398959
0.0237518
0.00670146
0.00342499
0.00929399
0.0102709
0.0265405
0.104144
0.247239
0.417354
0.546432
0.57949
0.507687
0.371815
0.226135
0.109922
0.0385878
0.00906125
0.00368124
0.00892205
0.0159405
0.0225369
0.0288163
0.0353791
0.0428623
0.0517909
0.0625224
0.075202
0.0897323
0.105797
0.122969
0.140889
0.159433
0.178812
0.199572
0.222522
0.248683
0.279235
0.315633
0.35952
0.41332
0.479453
0.563089
0.666918
0.805449
0.974352
1.22736
1.50404
2.04677
2.45611
3.93184
4.28409
9.01157
7.13722
0.709929
0.0308453
0.043344
0.0256308
0.0287187
0.0236359
0.0223254
0.0133078
0.00403126
0.00275144
0.0060284
0.00740121
0.0199959
0.0593758
0.11803
0.175295
0.208422
0.206416
0.174457
0.127587
0.0797307
0.0407907
0.0154768
0.0043725
0.00279078
0.00568456
0.0090015
0.0120445
0.0149328
0.0179345
0.0213005
0.0252164
0.0297895
0.035042
0.0409137
0.0472827
0.0540117
0.0610065
0.0682676
0.0759136
0.0841759
0.0933758
0.103911
0.116241
0.130934
0.148646
0.170325
0.196975
0.230562
0.272382
0.327691
0.395978
0.495769
0.609588
0.818397
0.998273
1.54399
1.76276
3.42268
3.42036
0.517759
0.034968
0.0273899
0.0162965
0.0173477
0.0142773
0.0130718
0.00779681
0.00259308
0.00224084
0.00424066
0.00596808
0.0154331
0.0366311
0.0621764
0.0816089
0.0877966
0.0806137
0.0656017
0.0477962
0.0306256
0.0164955
0.00684923
0.00247215
0.00219886
0.00377007
0.00541716
0.00691505
0.00833995
0.00981273
0.0114359
0.0132783
0.0153733
0.0177207
0.0202923
0.0230434
0.0259309
0.0289333
0.0320673
0.035394
0.039017
0.0430745
0.0477357
0.0531982
0.0597063
0.0675486
0.0771323
0.0889131
0.103713
0.122189
0.146427
0.176695
0.219928
0.271143
0.359468
0.444802
0.666503
0.793233
1.42795
1.89782
0.395353
0.0390236
0.0190599
0.0109707
0.0110015
0.00901442
0.00800565
0.00479524
0.00180494
0.00187415
0.003249
0.00514866
0.0120938
0.0238975
0.0352332
0.0411684
0.0402068
0.034315
0.0271667
0.0198249
0.0130763
0.00745999
0.0034652
0.00166802
0.00177173
0.0026228
0.00347769
0.00425754
0.00500314
0.00576914
0.00659876
0.00751877
0.00854034
0.00966162
0.0108713
0.0121542
0.0134974
0.0148984
0.0163701
0.0179434
0.0196671
0.021605
0.0238351
0.0264499
0.0295631
0.0333123
0.0378868
0.043509
0.0505514
0.0593613
0.0708354
0.0853025
0.105555
0.130336
0.170801
0.213835
0.311401
0.38379
0.64451
1.19125
0.318372
0.043317
0.0150449
0.00792843
0.00735639
0.0059608
0.00514129
0.00311604
0.00136975
0.00162202
0.00269098
0.00457926
0.00958102
0.0162565
0.021183
0.022322
0.0200578
0.0161987
0.0126959
0.00937929
0.00641054
0.00390634
0.00208381
0.00131499
0.00146573
0.00192537
0.0023839
0.00280819
0.00321721
0.00363536
0.00408126
0.00456588
0.00509353
0.00566351
0.00627196
0.00691405
0.00758655
0.00829059
0.009034
0.00983269
0.0107107
0.0116997
0.0128383
0.0141728
0.0157603
0.0176704
0.0199975
0.0228564
0.026428
0.0309021
0.0366933
0.04405
0.0541763
0.0668936
0.0867233
0.109507
0.15551
0.197109
0.31099
0.82904
0.268835
0.0478904
0.0136692
0.00628029
0.00523208
0.00414899
0.0034802
0.0021574
0.0011323
0.0014559
0.00236605
0.00411483
0.00767226
0.0114708
0.013474
0.0130621
0.0110587
0.00872528
0.00690046
0.00523679
0.0037435
0.00246024
0.00152228
0.00115862
0.00125494
0.00149487
0.00174268
0.00197925
0.00221111
0.00244837
0.00269895
0.00296754
0.00325607
0.00356452
0.00389173
0.00423621
0.00459717
0.00497576
0.00537634
0.00580727
0.00628122
0.00681487
0.00742881
0.00814772
0.00900195
0.0100288
0.011278
0.0128116
0.0147229
0.0171187
0.0202034
0.024143
0.0294914
0.0363428
0.0466336
0.0591837
0.0822219
0.106398
0.158994
0.628271
0.235897
0.0526438
0.0140241
0.0055716
0.00401189
0.00306532
0.00250199
0.00160638
0.00100973
0.00135211
0.00216502
0.00370929
0.00622882
0.00840345
0.00910183
0.00832662
0.00685204
0.00548514
0.00449198
0.00356754
0.00268849
0.0019011
0.00132251
0.00109551
0.00111722
0.00122552
0.00135262
0.00148288
0.00161557
0.00175358
0.0018998
0.00205611
0.00222338
0.00240167
0.00259047
0.00278901
0.00299674
0.00321408
0.00344326
0.00368888
0.00395808
0.00426037
0.00460746
0.00501335
0.00549506
0.00607355
0.00677631
0.00763824
0.00870995
0.0100532
0.0117747
0.0139805
0.0169421
0.0207896
0.026401
0.0335522
0.0457205
0.0599686
0.0855762
0.510079
0.213261
0.0574156
0.0155875
0.00555243
0.00337107
0.00243099
0.00192873
0.00129714
0.000957325
0.00129305
0.00203125
0.00335583
0.00515206
0.00641768
0.00656819
0.00583811
0.00484859
0.00409878
0.00355741
0.00297993
0.00235083
0.00174686
0.00129346
0.00108472
0.00103462
0.00105617
0.00110741
0.00117231
0.0012455
0.00132574
0.00141317
0.00150817
0.0016109
0.00172121
0.00183851
0.00196188
0.00209041
0.00222377
0.00236291
0.00251046
0.00267078
0.00284977
0.00305459
0.00329368
0.00357712
0.0039172
0.00432978
0.00483524
0.00546226
0.00624743
0.00724954
0.00853522
0.0102459
0.0124885
0.0156854
0.0198875
0.0266279
0.0351625
0.0482873
0.437243
0.197246
0.0620311
0.0180161
0.00608714
0.0031435
0.00209416
0.00161013
0.00114033
0.000951369
0.00126716
0.00193824
0.00305928
0.00436575
0.005134
0.00509284
0.00454206
0.00395752
0.00361571
0.00332764
0.00290435
0.00235451
0.00178884
0.00135216
0.00111007
0.000994033
0.000951559
0.000949643
0.000970395
0.0010049
0.00104911
0.00110131
0.00116081
0.00122719
0.00129998
0.0013783
0.00146095
0.00154656
0.0016342
0.001724
0.00181748
0.0019175
0.00202806
0.00215391
0.00230048
0.00247406
0.00268219
0.00293441
0.00324302
0.00362498
0.00410254
0.00470956
0.00548813
0.00651594
0.00787022
0.00976623
0.0123102
0.0162093
0.0214191
0.0284962
0.39079
0.185647
0.0663339
0.0210532
0.00709577
0.00324804
0.00197423
0.00146479
0.00108745
0.000980317
0.0012682
0.00187612
0.00282527
0.00381037
0.00432143
0.00426246
0.00393341
0.00367988
0.00360721
0.00345479
0.0030826
0.0025278
0.00193112
0.00146271
0.00116427
0.000986508
0.000891313
0.000847824
0.00083558
0.000842612
0.000862517
0.000892036
0.00092951
0.000973966
0.00102455
0.00108017
0.00113934
0.00120039
0.00126198
0.00132363
0.00138616
0.00145158
0.00152279
0.0016032
0.00169655
0.001807
0.0019394
0.00209973
0.00229568
0.00253767
0.00283962
0.00322189
0.0037114
0.00435305
0.00520005
0.00636853
0.00795615
0.0103053
0.0135563
0.0175692
0.360398
0.177099
0.0702053
0.0244835
0.00852619
0.00364227
0.00203244
0.00144952
0.00111282
0.00104004
0.00129425
0.00184353
0.00265737
0.00344103
0.00383936
0.00385295
0.00375202
0.00376214
0.00386153
0.00377007
0.00339028
0.00278767
0.00212934
0.00160734
0.00124316
0.001006
0.000863509
0.000784263
0.000744928
0.000730629
0.000732738
0.000746485
0.000769224
0.000799361
0.000835676
0.000876875
0.000921366
0.00096733
0.00101315
0.00105797
0.0011021
0.00114696
0.00119478
0.00124815
0.00130985
0.00138277
0.00147019
0.00157602
0.00170525
0.00186452
0.00206283
0.00231291
0.00263236
0.00304832
0.00359715
0.00434483
0.00536758
0.0068392
0.0089203
0.011311
0.340143
0.17073
0.0735742
0.0281139
0.0103294
0.00430363
0.00225676
0.00154335
0.00120444
0.00113121
0.00134655
0.00184308
0.00255737
0.00322546
0.00360177
0.00373641
0.00385202
0.00406668
0.00426877
0.00418737
0.00376391
0.0030912
0.00236172
0.00177617
0.00134338
0.00104815
0.000860852
0.000748658
0.000685301
0.000653048
0.000641049
0.000642964
0.000655084
0.000675115
0.00070143
0.000732565
0.000766918
0.000802688
0.00083817
0.000872268
0.000904909
0.00093708
0.000970515
0.00100729
0.00104953
0.00109941
0.00115922
0.00123163
0.00132001
0.00142874
0.00156383
0.00173357
0.00194976
0.00222952
0.00259795
0.00309432
0.00377524
0.00473281
0.00610367
0.00759784
0.326464
0.165963
0.0764166
0.0317707
0.012448
0.00522377
0.00264274
0.00173933
0.00135923
0.00125786
0.00142853
0.00187899
0.00252606
0.00314109
0.00355455
0.00383494
0.00414693
0.0045163
0.00476925
0.00466
0.00416847
0.00341398
0.00261588
0.00196255
0.00146144
0.00110934
0.000878465
0.000734607
0.000648742
0.000600348
0.000576333
0.000568723
0.000572661
0.000585072
0.00060385
0.000627345
0.000653992
0.000682133
0.000710137
0.000736806
0.0007618
0.000785745
0.00080999
0.000836213
0.000866129
0.000901399
0.000943716
0.000994972
0.00105751
0.00113434
0.00122961
0.00134889
0.00150038
0.00169525
0.00195124
0.00229269
0.00276134
0.00340771
0.00433901
0.00531624
0.317146
0.162401
0.0787488
0.0353029
0.0148106
0.00639448
0.00319111
0.0020406
0.00158057
0.00142657
0.00154479
0.00195579
0.0025638
0.00317215
0.00366198
0.00409841
0.00458386
0.00506621
0.00532831
0.00516026
0.00458247
0.00374017
0.00288387
0.00216037
0.00159336
0.00118612
0.000912636
0.000737749
0.000630059
0.000566426
0.00053154
0.000515755
0.000513009
0.000519373
0.000532186
0.000549544
0.000569914
0.000591843
0.000613899
0.000634917
0.000654396
0.000672672
0.000690766
0.000710032
0.000731866
0.000757582
0.000788467
0.000825906
0.000871585
0.000927638
0.000997017
0.0010836
0.00119325
0.00133354
0.00151731
0.00176021
0.00209341
0.00254518
0.00319829
0.00386501
0.310767
0.15976
0.0806166
0.0385897
0.0173322
0.00780035
0.00390759
0.00245232
0.00187561
0.00164618
0.00170136
0.00207775
0.00267058
0.00330709
0.00389911
0.00449327
0.00512935
0.00568875
0.00592357
0.00566944
0.00499084
0.0040641
0.00315369
0.00236332
0.00173465
0.00127496
0.000960143
0.00075476
0.000625562
0.000547079
0.000501883
0.000478678
0.000470174
0.000471542
0.000479497
0.000491793
0.00050687
0.000523484
0.000540476
0.000556831
0.000571989
0.00058607
0.000599813
0.000614291
0.000630634
0.000649897
0.000673078
0.000701219
0.000735565
0.000777674
0.000829713
0.000894473
0.000976258
0.00108038
0.0012164
0.00139468
0.00163905
0.00196527
0.00243803
0.002911
0.306392
0.15783
0.0820836
0.0415447
0.0199177
0.00941397
0.00479702
0.00298003
0.00225369
0.0019275
0.00190523
0.00224852
0.00284581
0.0035367
0.0042473
0.00499593
0.00576081
0.00636467
0.00653806
0.00617298
0.00538167
0.00438056
0.003416
0.00256496
0.00188039
0.00137208
0.00101792
0.00078284
0.0006324
0.00053921
0.000483925
0.000453669
0.000439952
0.000437037
0.000440962
0.000449058
0.00045964
0.00047163
0.000484166
0.000496463
0.000508
0.000518755
0.000529232
0.000540253
0.000552722
0.000567479
0.000585307
0.000607004
0.000633512
0.000665999
0.000706099
0.000755878
0.0008186
0.000898089
0.00100169
0.0011364
0.001321
0.00156385
0.00191686
0.00226477
0.303395
0.156454
0.0832209
0.0441176
0.0224703
0.0111936
0.00585845
0.00363167
0.00272315
0.00228333
0.00216463
0.00247114
0.00308799
0.00385275
0.00469156
0.00558843
0.00646097
0.00707788
0.0071566
0.00665809
0.00574489
0.00468471
0.00366315
0.002759
0.00202558
0.00147361
0.00108294
0.000819447
0.000648207
0.000540414
0.000475085
0.000437907
0.00041926
0.000412527
0.000413052
0.00041767
0.000424473
0.000432461
0.00044105
0.000449734
0.000458106
0.000466077
0.000473961
0.000482366
0.000491991
0.000503496
0.000517493
0.000534598
0.000555538
0.000581209
0.000612878
0.000652115
0.000701469
0.000763764
0.000844823
0.000949442
0.00109288
0.00127893
0.00155071
0.00181556
0.301351
0.155508
0.0840991
0.0462918
0.0248993
0.0130833
0.00708164
0.00441317
0.00329073
0.00272778
0.00248943
0.0027483
0.00339446
0.00424696
0.00521856
0.00625534
0.00721428
0.00781235
0.00776399
0.00711268
0.00608216
0.00496312
0.00388828
0.00293961
0.00216538
0.00157572
0.00115221
0.000862183
0.000670912
0.000548728
0.000473364
0.000429267
0.000405798
0.000395522
0.000393108
0.000394851
0.000398526
0.00040311
0.000408242
0.000413703
0.00041926
0.000424816
0.000430553
0.000436892
0.000444351
0.000453433
0.00046461
0.000478356
0.000495242
0.000515968
0.000541544
0.000573195
0.000612969
0.000663004
0.00072806
0.000811449
0.000925982
0.00107253
0.0012882
0.00149663
0.299968
0.154895
0.0847828
0.0480788
0.0271289
0.0150169
0.00844454
0.00532548
0.00396297
0.00326657
0.00289153
0.00308308
0.00376133
0.00471036
0.00581515
0.00698141
0.0080043
0.0085496
0.00834427
0.00752459
0.00639313
0.00520729
0.00408547
0.00310161
0.00229537
0.00167476
0.00122283
0.000908771
0.000698642
0.000562491
0.000477168
0.00042612
0.000397833
0.000384149
0.000379109
0.00037846
0.000379584
0.000381336
0.000383499
0.000386119
0.00038917
0.000392603
0.00039651
0.000401161
0.000406918
0.000414144
0.000423191
0.000434424
0.000448292
0.000465355
0.000486436
0.000512518
0.000545295
0.000586424
0.000639917
0.000708067
0.000801981
0.000920562
0.00109694
0.00126638
0.299042
0.154537
0.0853274
0.0495114
0.029104
0.0169227
0.00991233
0.00636201
0.00474275
0.00390567
0.00338322
0.00348028
0.00418383
0.00523281
0.00646719
0.00774993
0.00881194
0.009268
0.0088808
0.00789663
0.00666507
0.00541115
0.00424989
0.00324069
0.00241172
0.00176747
0.00129215
0.000957077
0.00072968
0.000580259
0.000485193
0.0004272
0.000394059
0.000377007
0.000369531
0.000366852
0.000365917
0.000365364
0.000365033
0.000365196
0.000366039
0.0003676
0.000369927
0.00037317
0.000377555
0.000383326
0.000390732
0.000400046
0.000411624
0.000425923
0.000443631
0.000465555
0.000493136
0.000527692
0.000572707
0.000629757
0.000708771
0.000807292
0.000955879
0.00109804
0.298432
0.154371
0.0857775
0.0506351
0.0307925
0.0187311
0.0114385
0.00750651
0.00562738
0.00464835
0.00397414
0.00394846
0.00465747
0.00580314
0.00715894
0.00854153
0.00961418
0.00994492
0.00936263
0.00822651
0.00688876
0.00557023
0.00437793
0.00335348
0.00251133
0.00185108
0.00135779
0.00100516
0.000762465
0.000600753
0.000496342
0.0004315
0.000393485
0.000373054
0.000363237
0.000358778
0.000356176
0.000353783
0.000351407
0.000349487
0.000348415
0.000348339
0.000349297
0.000351352
0.000354615
0.000359227
0.000365347
0.000373172
0.000382988
0.000395171
0.000410309
0.000429082
0.000452751
0.000482391
0.000521109
0.000569978
0.000638114
0.000722097
0.00085089
0.000973799
0.29804
0.154347
0.0861673
0.0515023
0.0321854
0.0203812
0.0129681
0.00873209
0.00660684
0.0054923
0.00467065
0.00449515
0.00518481
0.00640974
0.00787295
0.00933353
0.0103831
0.010558
0.00978869
0.00850202
0.00705851
0.00568157
0.00446727
0.00343768
0.00259188
0.0019234
0.00141776
0.00105133
0.000795599
0.00062284
0.000509677
0.000438205
0.000395348
0.000371517
0.000359389
0.000353305
0.000349331
0.000345485
0.000341467
0.000337821
0.000335117
0.000333628
0.000333406
0.000334454
0.000336792
0.00034047
0.000345572
0.000352231
0.000360674
0.000371217
0.000384374
0.000400734
0.000421423
0.000447345
0.000481337
0.000524116
0.000584247
0.000657609
0.000772252
0.000881494
0.297796
0.154426
0.0865215
0.0521655
0.0332938
0.0218264
0.0144425
0.0100015
0.00766255
0.0064281
0.0054749
0.00512577
0.0057613
0.0070445
0.00859411
0.0101015
0.011092
0.0110983
0.010149
0.00871488
0.00717088
0.00574374
0.00451687
0.003492
0.00265184
0.0019828
0.00147052
0.00109416
0.000827874
0.000645522
0.000524385
0.000446638
0.00039905
0.000371819
0.000357378
0.000349749
0.000344605
0.000339613
0.0003343
0.000329251
0.000325183
0.000322491
0.000321263
0.000321462
0.000323036
0.000325958
0.000330249
0.000335988
0.000343354
0.000352616
0.000364234
0.000378727
0.000397126
0.000420209
0.000450625
0.000488833
0.000543037
0.000608592
0.000713103
0.000812606
0.297652
0.154575
0.0868567
0.0526739
0.034144
0.0230382
0.0158057
0.0112695
0.00876686
0.00743807
0.00638251
0.00584533
0.00638363
0.00769385
0.0093032
0.0108244
0.0117256
0.0115574
0.0104347
0.00885993
0.00722431
0.00575677
0.00452697
0.00351624
0.0026905
0.00202828
0.00151494
0.00113256
0.000858288
0.000667947
0.000539764
0.000456226
0.00040411
0.000373523
0.000356761
0.000347616
0.00034143
0.000335519
0.000329194
0.000323024
0.000317836
0.000314136
0.00031206
0.000311547
0.000312492
0.000314804
0.000318447
0.000323458
0.000329976
0.000338234
0.000348649
0.000361689
0.000378316
0.000399217
0.000426909
0.000461665
0.000511457
0.000571247
0.000668505
0.000761053
0.297575
0.154771
0.0871827
0.0530704
0.0347724
0.0240068
0.01701
0.0124861
0.00988384
0.0084958
0.00738043
0.00665662
0.00705085
0.00834619
0.00998243
0.0114835
0.012271
0.011927
0.0106396
0.0089346
0.00721899
0.00572207
0.004499
0.00351116
0.00270789
0.00205938
0.0015503
0.00116572
0.000886057
0.000689407
0.000555217
0.000466481
0.00041013
0.000376291
0.000357213
0.000346553
0.000339391
0.000332718
0.000325604
0.00031855
0.000312456
0.000307924
0.000305141
0.000304039
0.000304468
0.000306289
0.000309418
0.000313854
0.000319705
0.000327174
0.000336645
0.000348552
0.000363802
0.000383019
0.000408624
0.000440759
0.000487258
0.000542776
0.000634847
0.000722422
0.297541
0.154995
0.0875049
0.0533903
0.0352202
0.0247397
0.0180207
0.0136022
0.0109714
0.00956665
0.00844536
0.00755768
0.00776421
0.00899344
0.010617
0.012064
0.0127184
0.0122013
0.0107605
0.00893869
0.00715671
0.00564227
0.00443543
0.00347841
0.00270474
0.00207617
0.00157631
0.00119315
0.000910612
0.000709346
0.000570246
0.000476988
0.000416777
0.00037985
0.000358492
0.00034631
0.000338196
0.00033086
0.000323119
0.000315372
0.000308553
0.000303344
0.00029998
0.000298394
0.000298406
0.000299834
0.000302557
0.000306541
0.000311868
0.000318719
0.000327452
0.000338473
0.000352651
0.000370563
0.000394565
0.000424705
0.000468739
0.000521083
0.000609457
0.000693474
0.297534
0.155232
0.087825
0.0536612
0.0355288
0.0252584
0.0188193
0.0145744
0.0119846
0.0106096
0.00954321
0.00853875
0.00852594
0.00963201
0.0111969
0.0125554
0.013062
0.0123777
0.0107972
0.00887409
0.0070407
0.00552111
0.00433964
0.00342043
0.0026824
0.00207919
0.00159301
0.00121462
0.000931591
0.000727355
0.000584458
0.000487403
0.00042377
0.000383977
0.000360413
0.000346706
0.00033764
0.00032969
0.000321435
0.000313143
0.000305748
0.000299993
0.000296157
0.000294179
0.000293856
0.000294974
0.000297379
0.000301011
0.00030593
0.000312297
0.000320455
0.000330784
0.000344128
0.000361029
0.000383798
0.000412417
0.000454604
0.000504588
0.000590334
0.000671806
0.297544
0.155474
0.0881425
0.0539035
0.0357368
0.0255941
0.0194036
0.0153698
0.0128804
0.01158
0.0106302
0.00957943
0.0093368
0.0102628
0.0117179
0.0129536
0.0133009
0.0124578
0.0107525
0.00874447
0.00687536
0.00536315
0.00421566
0.00334022
0.00264276
0.00206938
0.00160074
0.00123014
0.00094882
0.000743166
0.000597556
0.000497444
0.000430869
0.000388482
0.000362827
0.00034761
0.000337577
0.000329033
0.000320334
0.000311604
0.000303751
0.000297558
0.000293341
0.000291049
0.000290461
0.000291337
0.000293496
0.000296856
0.00030146
0.000307453
0.000315163
0.000324956
0.000337653
0.000353772
0.000375594
0.000403051
0.000443856
0.000492084
0.000575971
0.000655623
0.297563
0.155712
0.0884557
0.0541313
0.0358776
0.0257829
0.0197865
0.0159695
0.0136221
0.012434
0.011656
0.0106468
0.0101927
0.0108899
0.0121818
0.0132606
0.0134395
0.0124468
0.0106313
0.00855497
0.00666602
0.00517356
0.00406801
0.00324124
0.00258807
0.00204801
0.00160013
0.00123994
0.000962288
0.000756639
0.000609337
0.000506897
0.000437878
0.000393206
0.000365609
0.00034892
0.000337908
0.000328764
0.000319657
0.000310563
0.000302343
0.000295799
0.000291278
0.000288736
0.00028794
0.000288629
0.000290601
0.000293754
0.000298117
0.000303824
0.000311189
0.000320567
0.000332765
0.000348281
0.000369378
0.000395952
0.000435724
0.000482645
0.000565223
0.000643574
0.297585
0.155943
0.0887626
0.0543535
0.0359784
0.0258619
0.0199922
0.0163699
0.0141834
0.0131327
0.0125677
0.0116954
0.0110809
0.0115179
0.0125962
0.0134849
0.013487
0.0123529
0.0104405
0.00831169
0.00641865
0.00495792
0.00390146
0.0031272
0.00252088
0.00201662
0.00159197
0.00124439
0.000972121
0.000767746
0.000619686
0.000515606
0.000444637
0.000398011
0.000368655
0.000350556
0.000338558
0.000328797
0.000319293
0.000309882
0.00030136
0.000294534
0.00028977
0.00028703
0.000286073
0.00028662
0.000288452
0.000291451
0.000295633
0.000301123
0.000308225
0.000317286
0.000329101
0.000344156
0.000364699
0.000390603
0.000429606
0.000475558
0.000557219
0.000634639
0.297609
0.156162
0.0890608
0.054575
0.0360602
0.0258659
0.0200529
0.0165819
0.0145515
0.0136464
0.0133161
0.0126701
0.0119768
0.0121479
0.012971
0.0136393
0.0134562
0.0121865
0.0101877
0.00802124
0.00613956
0.00472197
0.00372087
0.00300187
0.00244387
0.00197691
0.00157726
0.001244
0.000978554
0.000776553
0.000628562
0.00052347
0.000451028
0.000402783
0.000371872
0.000352451
0.000339472
0.000329073
0.000319167
0.000309462
0.000300684
0.000293627
0.000288667
0.000285772
0.000284692
0.000285133
0.000286862
0.000289747
0.000293796
0.000299124
0.000306029
0.000314851
0.000326375
0.000341079
0.000361203
0.000386602
0.000425036
0.000470271
0.000551291
0.000628045
0.297632
0.156369
0.0893486
0.0547979
0.0361376
0.0258252
0.0200038
0.0166282
0.0147283
0.0139585
0.0138613
0.0135107
0.0128424
0.0127736
0.0133158
0.0137386
0.0133613
0.0119579
0.00988025
0.00769033
0.00583515
0.00447142
0.00353099
0.00286899
0.00235975
0.00193065
0.00155706
0.00123938
0.000981905
0.0007832
0.000635991
0.000530442
0.000456963
0.000407429
0.000375181
0.000354545
0.000340607
0.000329548
0.000319223
0.000309232
0.000300226
0.000292976
0.000287859
0.000284841
0.000283667
0.000284031
0.000285686
0.000288491
0.000292443
0.000297653
0.000304412
0.000313055
0.000324361
0.000338803
0.000358612
0.000383634
0.00042165
0.000466356
0.000546929
0.000623206
0.297653
0.156563
0.0896244
0.0550223
0.0362205
0.0257643
0.0198796
0.0165396
0.0147289
0.0140671
0.0141776
0.0141602
0.0136273
0.0133773
0.0136347
0.0137954
0.0132151
0.0116758
0.00952472
0.00732543
0.00551177
0.00421182
0.00333633
0.0027321
0.00227114
0.00187966
0.0015325
0.0012312
0.000982552
0.000787883
0.000642047
0.000536518
0.00046239
0.000411876
0.000378511
0.000356785
0.000341924
0.000330192
0.000319425
0.000309144
0.000299925
0.000292507
0.000287261
0.000284148
0.000282903
0.000283211
0.000284814
0.000287563
0.000291448
0.000296574
0.000303228
0.00031174
0.000322885
0.000337131
0.000356708
0.00038145
0.000419163
0.000463483
0.000543743
0.000619675
0.297672
0.156744
0.0898873
0.0552474
0.0363143
0.0257019
0.0197121
0.0163507
0.0145795
0.0139848
0.0142566
0.0145722
0.0142734
0.013928
0.0139221
0.0138161
0.0130249
0.0113451
0.00912609
0.00693259
0.00517554
0.00394839
0.00314107
0.00259447
0.00218053
0.00182567
0.00150472
0.00122015
0.00098091
0.000790838
0.000646847
0.000541731
0.000467287
0.000416071
0.000381804
0.000359121
0.00034339
0.000330979
0.000319746
0.000309161
0.000299736
0.000292168
0.000286813
0.000283624
0.000282326
0.000282595
0.000284164
0.000286877
0.000290717
0.000295784
0.000302364
0.000310782
0.00032181
0.000335915
0.000355321
0.000379861
0.000417356
0.000461394
0.000541434
0.000617115
0.297689
0.156912
0.0901368
0.0554715
0.0364213
0.0256508
0.0195276
0.0160966
0.0143134
0.0137368
0.0141086
0.0147185
0.0147222
0.0143819
0.01416
0.0137973
0.0127906
0.0109665
0.00868775
0.00651758
0.00483239
0.00368603
0.00294898
0.00245901
0.00209014
0.00177032
0.00147483
0.00120694
0.000977413
0.000792324
0.000650536
0.000546142
0.000471656
0.000419982
0.000385013
0.00036151
0.000344973
0.000331887
0.000320167
0.000309261
0.000299627
0.00029192
0.000286471
0.00028322
0.000281884
0.000282126
0.000283674
0.000286364
0.000290176
0.000295206
0.000301735
0.000310087
0.000321034
0.000335036
0.000354322
0.000378716
0.000416058
0.000459893
0.000539774
0.00061527
0.297702
0.157068
0.090373
0.0556931
0.0365414
0.025619
0.0193466
0.0158089
0.0139665
0.0133575
0.0137602
0.0145939
0.0149253
0.0146875
0.0143172
0.0137232
0.012502
0.0105361
0.00821205
0.00608607
0.00448804
0.00342922
0.00276338
0.00232825
0.00200195
0.0017151
0.00144387
0.00119226
0.000972495
0.000792614
0.000653276
0.000549833
0.00047552
0.00042359
0.0003881
0.000363912
0.000346641
0.000332895
0.000320671
0.000309426
0.000299577
0.000291735
0.000286203
0.000282903
0.000281537
0.000281762
0.000283298
0.000285976
0.000289772
0.000294779
0.000301276
0.000309585
0.000320475
0.000334408
0.000353609
0.000377901
0.000415138
0.000458828
0.000538591
0.000613947
0.297714
0.157214
0.090596
0.0559104
0.0366733
0.0256104
0.0191838
0.0155143
0.0135742
0.012886
0.0132508
0.0142166
0.014853
0.0147931
0.0143525
0.0135669
0.0121436
0.0100476
0.00770139
0.00564409
0.00414807
0.00318198
0.0025871
0.0022043
0.00191763
0.00166131
0.0014128
0.00117676
0.000966578
0.000791979
0.000655237
0.000552903
0.000478921
0.000426896
0.000391038
0.000366293
0.000348367
0.000333985
0.000321246
0.000309643
0.000299569
0.000291594
0.000285986
0.000282644
0.000281258
0.000281473
0.000283004
0.000285678
0.000289466
0.000294461
0.000300939
0.000309221
0.000320075
0.000333961
0.000353105
0.000377329
0.000414496
0.000458084
0.000537755
0.000613003
0.297723
0.157349
0.0908063
0.0561224
0.0368149
0.0256259
0.0190483
0.0152336
0.0131677
0.0123618
0.0126272
0.0136259
0.0145017
0.0146578
0.0142214
0.0132943
0.011695
0.00949433
0.00715969
0.00519839
0.00381792
0.00294792
0.00242247
0.00208887
0.00183854
0.00161004
0.00138244
0.00116101
0.000960062
0.000790682
0.000656592
0.000555456
0.00048191
0.000429909
0.00039381
0.000368623
0.000350122
0.000335137
0.000321879
0.000309901
0.000299592
0.000291483
0.000285804
0.000282428
0.000281026
0.000281237
0.000282767
0.000285442
0.00028923
0.00029422
0.000300689
0.000308956
0.000319788
0.000333645
0.000352753
0.000376932
0.000414055
0.000457572
0.000537169
0.000612331
0.297731
0.157475
0.0910048
0.0563279
0.0369636
0.0256644
0.0189449
0.0149811
0.0127724
0.011821
0.011938
0.0128758
0.0138957
0.0142617
0.0138865
0.0128718
0.011136
0.00887396
0.00659384
0.00475668
0.00350288
0.0027301
0.00227136
0.00198325
0.00176573
0.00156219
0.00135351
0.00114556
0.000953309
0.00078897
0.000657506
0.000557601
0.000484548
0.00043265
0.000396406
0.000370878
0.00035188
0.000336332
0.000322558
0.000310193
0.000299638
0.000291393
0.000285646
0.00028224
0.000280828
0.000281037
0.000282571
0.00028525
0.000289041
0.000294034
0.000300501
0.000308761
0.000319582
0.000333423
0.00035251
0.000376662
0.000413758
0.000457227
0.000536759
0.000611852
0.297737
0.157592
0.0911921
0.0565264
0.0371169
0.0257233
0.0188746
0.0147656
0.0124072
0.0112939
0.0112284
0.012027
0.0130836
0.0136128
0.0133281
0.0122763
0.010457
0.00819168
0.00601453
0.00432753
0.0032079
0.00253105
0.00213508
0.00188832
0.00169996
0.00151844
0.00132661
0.00113086
0.000946638
0.000787068
0.000658137
0.000559442
0.0004869
0.000435148
0.000398828
0.000373038
0.000353617
0.000337549
0.00032327
0.00031051
0.0002997
0.000291315
0.000285503
0.000282072
0.000280653
0.000280864
0.000282403
0.000285089
0.000288887
0.000293885
0.000300355
0.000308615
0.000319432
0.000333266
0.000352343
0.000376481
0.000413564
0.000456999
0.000536474
0.000611509
0.297741
0.157703
0.0913691
0.0567175
0.0372727
0.0257994
0.0188363
0.0145911
0.0120843
0.0108033
0.0105367
0.0111393
0.0121308
0.0127482
0.0125529
0.0115047
0.00966426
0.00746255
0.00543619
0.00391994
0.00293738
0.00235267
0.0020145
0.00180462
0.00164171
0.0014793
0.00130218
0.00111726
0.000940304
0.000785172
0.000658626
0.000561081
0.00048903
0.000437436
0.000401079
0.000375091
0.000355312
0.000338771
0.000324003
0.000310845
0.000299773
0.000291245
0.00028537
0.000281917
0.000280495
0.000280711
0.000282256
0.00028495
0.000288756
0.000293762
0.000300238
0.000308503
0.000319321
0.000333155
0.000352229
0.000376362
0.000413439
0.000456853
0.000536276
0.000611262
0.297745
0.157807
0.0915366
0.0569011
0.0374291
0.0258894
0.0188269
0.0144581
0.0118104
0.0103645
0.00989199
0.010265
0.0111087
0.011729
0.0115964
0.0105795
0.00878303
0.00671099
0.0048757
0.00354257
0.00269485
0.00219613
0.00190997
0.00173231
0.0015912
0.00144505
0.00128057
0.00110505
0.000934602
0.000783464
0.000659101
0.000562609
0.000491001
0.00043955
0.000403171
0.000377026
0.000356946
0.000339978
0.000324746
0.000311191
0.000299852
0.00029118
0.000285242
0.000281771
0.000280349
0.00028057
0.000282124
0.000284826
0.000288642
0.000293657
0.000300141
0.000308414
0.000319237
0.000333074
0.00035215
0.000376285
0.000413361
0.000456762
0.000536136
0.000611081
0.297747
0.157904
0.0916956
0.0570773
0.0375844
0.02599
0.0188426
0.0143644
0.0115872
0.00998589
0.00931375
0.00944498
0.0100846
0.0106294
0.0105187
0.0095481
0.00785469
0.00596764
0.00435025
0.00320276
0.00248268
0.00206189
0.00182138
0.00167128
0.00154846
0.00141586
0.00126198
0.00109447
0.000929728
0.00078211
0.000659679
0.000564111
0.000492873
0.000441526
0.000405118
0.00037884
0.000358502
0.000341154
0.000325484
0.000311542
0.000299934
0.000291116
0.000285118
0.000281632
0.000280212
0.000280441
0.000282002
0.000284713
0.000288539
0.000293564
0.000300059
0.000308339
0.00031917
0.000333014
0.000352096
0.000376234
0.000413314
0.000456707
0.000536035
0.000610946
0.297749
0.157997
0.0918469
0.0572464
0.0377377
0.0260984
0.0188792
0.0143062
0.0114134
0.00967019
0.0088126
0.00870711
0.00911399
0.00952394
0.00939315
0.00847456
0.00692971
0.00526417
0.00387483
0.00290575
0.00230193
0.00194966
0.00174824
0.00162116
0.00151331
0.00139173
0.00124654
0.0010858
0.000925844
0.000781236
0.000660455
0.000565656
0.000494699
0.000443399
0.000406936
0.000380531