/*--------------------------------*- C++ -*----------------------------------*\
| =========                 |                                                 |
| \\      /  F ield         | OpenFOAM: The Open Source CFD Toolbox           |
|  \\    /   O peration     | Version:  2.4.0                                 |
|   \\  /    A nd           | Web:      www.OpenFOAM.org                      |
|    \\/     M anipulation  |                                                 |
\*---------------------------------------------------------------------------*/
FoamFile
{
    version     2.0;
    format      ascii;
    class       surfaceScalarField;
    location    "2500";
    object      phi;
}
// * * * * * * * * * * * * * * * * * * * * * * * * * * * * * * * * * * * * * //

dimensions      [0 3 -1 0 0 0 0];

internalField   nonuniform List<scalar> 
97240
(
1.48181e-06
8.91619e-08
1.38289e-06
9.89174e-08
1.29152e-06
9.13697e-08
1.20544e-06
8.60822e-08
1.12471e-06
8.07296e-08
1.05026e-06
7.44478e-08
9.82404e-07
6.78549e-08
9.21189e-07
6.12155e-08
8.66445e-07
5.47443e-08
8.18008e-07
4.84368e-08
7.754e-07
4.26075e-08
7.3804e-07
3.73608e-08
7.05178e-07
3.28616e-08
6.76592e-07
2.85859e-08
6.51709e-07
2.4883e-08
6.30402e-07
2.13074e-08
6.12004e-07
1.83976e-08
5.96488e-07
1.5516e-08
5.83119e-07
1.33694e-08
5.72017e-07
1.11023e-08
5.62394e-07
9.62268e-09
5.54608e-07
7.78588e-09
5.47753e-07
6.85499e-09
5.42386e-07
5.3671e-09
5.37496e-07
4.89034e-09
5.33889e-07
3.60653e-09
5.3042e-07
3.46915e-09
5.28154e-07
2.26639e-09
5.25788e-07
2.36604e-09
5.24641e-07
1.14662e-09
5.23272e-07
1.36882e-09
5.23223e-07
4.88268e-11
5.23034e-07
1.89047e-10
5.24422e-07
-1.38778e-09
5.26467e-07
-2.04455e-09
-5.2668e-09
5.31734e-07
1.66177e-06
7.10252e-08
1.66295e-06
9.77366e-08
1.65573e-06
9.85902e-08
1.64076e-06
1.01043e-07
1.61968e-06
1.01813e-07
1.59436e-06
9.97666e-08
1.56607e-06
9.61473e-08
1.53592e-06
9.13652e-08
1.50477e-06
8.58959e-08
1.47349e-06
7.97187e-08
1.4426e-06
7.34976e-08
1.41283e-06
6.71312e-08
1.3844e-06
6.12865e-08
1.35766e-06
5.53288e-08
1.33253e-06
5.00119e-08
1.30925e-06
4.45835e-08
1.28763e-06
4.00246e-08
1.26783e-06
3.53112e-08
1.24957e-06
3.16296e-08
1.233e-06
2.76711e-08
1.21776e-06
2.48675e-08
1.2039e-06
2.16459e-08
1.19109e-06
1.96602e-08
1.17947e-06
1.699e-08
1.16875e-06
1.56059e-08
1.15904e-06
1.33245e-08
1.15014e-06
1.23682e-08
1.14206e-06
1.03457e-08
1.13479e-06
9.6325e-09
1.12817e-06
7.77048e-09
1.12246e-06
7.07042e-09
1.11723e-06
5.28462e-09
1.11321e-06
4.20772e-09
1.10953e-06
2.2954e-09
1.10773e-06
-2.49579e-10
-3.71607e-09
1.10618e-06
1.73182e-06
5.88552e-08
1.7401e-06
8.94559e-08
1.74509e-06
9.35981e-08
1.74813e-06
9.80051e-08
1.74902e-06
1.00928e-07
1.74791e-06
1.00872e-07
1.74487e-06
9.91849e-08
1.74e-06
9.62425e-08
1.7334e-06
9.24961e-08
1.72529e-06
8.78251e-08
1.71588e-06
8.29034e-08
1.70549e-06
7.75297e-08
1.69434e-06
7.2427e-08
1.68268e-06
6.69909e-08
1.67067e-06
6.20203e-08
1.65849e-06
5.67706e-08
1.64626e-06
5.22534e-08
1.6341e-06
4.74692e-08
1.62212e-06
4.36141e-08
1.61036e-06
3.94282e-08
1.59892e-06
3.63058e-08
1.58785e-06
3.27151e-08
1.57722e-06
3.0294e-08
1.56698e-06
2.72282e-08
1.55723e-06
2.53583e-08
1.54787e-06
2.26859e-08
1.53904e-06
2.11961e-08
1.53058e-06
1.8801e-08
1.52272e-06
1.74985e-08
1.51521e-06
1.52793e-08
1.50836e-06
1.3921e-08
1.50188e-06
1.17584e-08
1.49614e-06
9.94654e-09
1.49089e-06
7.54648e-09
1.48628e-06
4.36582e-09
8.86754e-10
1.48168e-06
1.80842e-06
4.96237e-08
1.81645e-06
8.14194e-08
1.82161e-06
8.84424e-08
1.82586e-06
9.3756e-08
1.82939e-06
9.7397e-08
1.83224e-06
9.8022e-08
1.83442e-06
9.70078e-08
1.83592e-06
9.47403e-08
1.83672e-06
9.17e-08
1.8368e-06
8.77418e-08
1.83618e-06
8.35223e-08
1.8349e-06
7.88137e-08
1.83302e-06
7.43017e-08
1.83058e-06
6.9428e-08
1.82766e-06
6.49473e-08
1.82427e-06
6.01624e-08
1.8205e-06
5.6018e-08
1.81638e-06
5.15909e-08
1.812e-06
4.79894e-08
1.80738e-06
4.40561e-08
1.80261e-06
4.10687e-08
1.79771e-06
3.76231e-08
1.79279e-06
3.52104e-08
1.78779e-06
3.22243e-08
1.78288e-06
3.02752e-08
1.77792e-06
2.76435e-08
1.77312e-06
2.59955e-08
1.76831e-06
2.36146e-08
1.76372e-06
2.2079e-08
1.75916e-06
1.98445e-08
1.75489e-06
1.81878e-08
1.7507e-06
1.59529e-08
1.74682e-06
1.38289e-08
1.74309e-06
1.12676e-08
1.73936e-06
8.09582e-09
4.69135e-09
1.73556e-06
1.88995e-06
4.20809e-08
1.8974e-06
7.39666e-08
1.90249e-06
8.33515e-08
1.90673e-06
8.95182e-08
1.91053e-06
9.35967e-08
1.91387e-06
9.46782e-08
1.9168e-06
9.40761e-08
1.91935e-06
9.21925e-08
1.92153e-06
8.95243e-08
1.92331e-06
8.59591e-08
1.92472e-06
8.21126e-08
1.92575e-06
7.77792e-08
1.92647e-06
7.35877e-08
1.92684e-06
6.90555e-08
1.92692e-06
6.4863e-08
1.92669e-06
6.03952e-08
1.92622e-06
5.64894e-08
1.92547e-06
5.2339e-08
1.92455e-06
4.89121e-08
1.9234e-06
4.52051e-08
1.92215e-06
4.23224e-08
1.9207e-06
3.90667e-08
1.91923e-06
3.66869e-08
1.9176e-06
3.38537e-08
1.916e-06
3.18763e-08
1.91427e-06
2.93743e-08
1.91261e-06
2.76472e-08
1.91085e-06
2.53767e-08
1.90921e-06
2.37224e-08
1.90748e-06
2.15726e-08
1.90589e-06
1.97779e-08
1.90426e-06
1.7588e-08
1.90272e-06
1.5368e-08
1.90114e-06
1.2842e-08
1.89938e-06
9.85855e-09
6.68856e-09
1.89738e-06
1.97575e-06
3.57985e-08
1.98269e-06
6.70301e-08
1.9878e-06
7.82356e-08
1.99208e-06
8.52414e-08
1.99597e-06
8.97083e-08
1.99944e-06
9.12074e-08
2.00254e-06
9.09704e-08
2.00532e-06
8.94144e-08
2.00781e-06
8.70382e-08
2.00998e-06
8.37852e-08
2.01188e-06
8.02149e-08
2.01349e-06
7.61692e-08
2.01488e-06
7.22035e-08
2.016e-06
6.79298e-08
2.01693e-06
6.39334e-08
2.01762e-06
5.97091e-08
2.01815e-06
5.59594e-08
2.01846e-06
5.20259e-08
2.01867e-06
4.87038e-08
2.01869e-06
4.51824e-08
2.01866e-06
4.23483e-08
2.01848e-06
3.92537e-08
2.0183e-06
3.68695e-08
2.01798e-06
3.41725e-08
2.01771e-06
3.21459e-08
2.01732e-06
2.9762e-08
2.01701e-06
2.79537e-08
2.01661e-06
2.57834e-08
2.0163e-06
2.40332e-08
2.01591e-06
2.19594e-08
2.0156e-06
2.00827e-08
2.01525e-06
1.79419e-08
2.0149e-06
1.57175e-08
2.01448e-06
1.32667e-08
2.01382e-06
1.05135e-08
7.63034e-09
2.01288e-06
2.0658e-06
3.05546e-08
2.07226e-06
6.05702e-08
2.07741e-06
7.30936e-08
2.08178e-06
8.08693e-08
2.08576e-06
8.57224e-08
2.08934e-06
8.76319e-08
2.09256e-06
8.77534e-08
2.09545e-06
8.65166e-08
2.09808e-06
8.44161e-08
2.10041e-06
8.14538e-08
2.10249e-06
7.81329e-08
2.10431e-06
7.43481e-08
2.10593e-06
7.05811e-08
2.10733e-06
6.65367e-08
2.10855e-06
6.27064e-08
2.10957e-06
5.86947e-08
2.11045e-06
5.50725e-08
2.11115e-06
5.13263e-08
2.11177e-06
4.80848e-08
2.11223e-06
4.47224e-08
2.11266e-06
4.19202e-08
2.11295e-06
3.89612e-08
2.11326e-06
3.65656e-08
2.11345e-06
3.39802e-08
2.11369e-06
3.19075e-08
2.11383e-06
2.96159e-08
2.11405e-06
2.77407e-08
2.11419e-06
2.56443e-08
2.1144e-06
2.38243e-08
2.11455e-06
2.18049e-08
2.11475e-06
1.98832e-08
2.1149e-06
1.7787e-08
2.11502e-06
1.55977e-08
2.11505e-06
1.32412e-08
2.11486e-06
1.0707e-08
8.09049e-09
2.1144e-06
2.16023e-06
2.61884e-08
2.16621e-06
5.45939e-08
2.17133e-06
6.79688e-08
2.17581e-06
7.63916e-08
2.17991e-06
8.1624e-08
2.1836e-06
8.39387e-08
2.18694e-06
8.44191e-08
2.18995e-06
8.35042e-08
2.19268e-06
8.16813e-08
2.19513e-06
7.90052e-08
2.19734e-06
7.59289e-08
2.19929e-06
7.23963e-08
2.20105e-06
6.88238e-08
2.20258e-06
6.49977e-08
2.20396e-06
6.13267e-08
2.20515e-06
5.75125e-08
2.20621e-06
5.40114e-08
2.2071e-06
5.04356e-08
2.20791e-06
4.72711e-08
2.20858e-06
4.40499e-08
2.20922e-06
4.12808e-08
2.20975e-06
3.84379e-08
2.21027e-06
3.60382e-08
2.21071e-06
3.35441e-08
2.21118e-06
3.14393e-08
2.21158e-06
2.92186e-08
2.21202e-06
2.72972e-08
2.21241e-06
2.52537e-08
2.21284e-06
2.33907e-08
2.21324e-06
2.14103e-08
2.21365e-06
1.94737e-08
2.21401e-06
1.74209e-08
2.21432e-06
1.52886e-08
2.21453e-06
1.30369e-08
2.21454e-06
1.06946e-08
8.31327e-09
2.21432e-06
2.25921e-06
2.25621e-08
2.26468e-06
4.91202e-08
2.26972e-06
6.29275e-08
2.27428e-06
7.1834e-08
2.27849e-06
7.74156e-08
2.2823e-06
8.01206e-08
2.28577e-06
8.0957e-08
2.2889e-06
8.03675e-08
2.29176e-06
7.88284e-08
2.29432e-06
7.64396e-08
2.29664e-06
7.36109e-08
2.29871e-06
7.0329e-08
2.30058e-06
6.6955e-08
2.30223e-06
6.33435e-08
2.30372e-06
5.9834e-08
2.30503e-06
5.62096e-08
2.30621e-06
5.28319e-08
2.30722e-06
4.94162e-08
2.30816e-06
4.63332e-08
2.30897e-06
4.32414e-08
2.30974e-06
4.05135e-08
2.3104e-06
3.77726e-08
2.31106e-06
3.53809e-08
2.31164e-06
3.29632e-08
2.31224e-06
3.08425e-08
2.31278e-06
2.86777e-08
2.31335e-06
2.67301e-08
2.31387e-06
2.47265e-08
2.31442e-06
2.28428e-08
2.31494e-06
2.08948e-08
2.31545e-06
1.89649e-08
2.31591e-06
1.6959e-08
2.3163e-06
1.48956e-08
2.31659e-06
1.27526e-08
2.3167e-06
1.05773e-08
8.39976e-09
2.31662e-06
2.36291e-06
1.9552e-08
2.36788e-06
4.41566e-08
2.37276e-06
5.80419e-08
2.37735e-06
6.72475e-08
2.38165e-06
7.31202e-08
2.38558e-06
7.61846e-08
2.38917e-06
7.7365e-08
2.39244e-06
7.70999e-08
2.39542e-06
7.58496e-08
2.39811e-06
7.37501e-08
2.40055e-06
7.1174e-08
2.40273e-06
6.81443e-08
2.40471e-06
6.49756e-08
2.40647e-06
6.1579e-08
2.40807e-06
5.82366e-08
2.40948e-06
5.47985e-08
2.41077e-06
5.15499e-08
2.41189e-06
4.82887e-08
2.41293e-06
4.52945e-08
2.41385e-06
4.23249e-08
2.41471e-06
3.96479e-08
2.41549e-06
3.7e-08
2.41624e-06
3.46289e-08
2.41692e-06
3.22782e-08
2.41761e-06
3.0157e-08
2.41825e-06
2.8039e-08
2.4189e-06
2.60823e-08
2.41951e-06
2.41124e-08
2.42013e-06
2.22257e-08
2.42071e-06
2.03093e-08
2.42128e-06
1.84018e-08
2.42179e-06
1.64481e-08
2.42222e-06
1.44595e-08
2.42255e-06
1.24254e-08
2.42273e-06
1.03968e-08
8.39404e-09
2.42274e-06
2.47156e-06
1.70478e-08
2.47603e-06
3.969e-08
2.48069e-06
5.33752e-08
2.48524e-06
6.26958e-08
2.48959e-06
6.87785e-08
2.49362e-06
7.21537e-08
2.49733e-06
7.36536e-08
2.50072e-06
7.37034e-08
2.50383e-06
7.27419e-08
2.50665e-06
7.09317e-08
2.50921e-06
6.86122e-08
2.51152e-06
6.58368e-08
2.51362e-06
6.28805e-08
2.51549e-06
5.97005e-08
2.5172e-06
5.65323e-08
2.51872e-06
5.32795e-08
2.5201e-06
5.0167e-08
2.52133e-06
4.70577e-08
2.52246e-06
4.41606e-08
2.52348e-06
4.13092e-08
2.52443e-06
3.86934e-08
2.5253e-06
3.61336e-08
2.52614e-06
3.3795e-08
2.52691e-06
3.15063e-08
2.52767e-06
2.93981e-08
2.52838e-06
2.7323e-08
2.52909e-06
2.53717e-08
2.52977e-06
2.3434e-08
2.53044e-06
2.15586e-08
2.53107e-06
1.96765e-08
2.53167e-06
1.78033e-08
2.53221e-06
1.59068e-08
2.53267e-06
1.39962e-08
2.53303e-06
1.20681e-08
2.53326e-06
1.01697e-08
8.3174e-09
2.53334e-06
2.58535e-06
1.49545e-08
2.58935e-06
3.56891e-08
2.59375e-06
4.89713e-08
2.59821e-06
5.82419e-08
2.60254e-06
6.44414e-08
2.60663e-06
6.80644e-08
2.61044e-06
6.98462e-08
2.61395e-06
7.01914e-08
2.61718e-06
6.95109e-08
2.62013e-06
6.79853e-08
2.62282e-06
6.59234e-08
2.62525e-06
6.34027e-08
2.62747e-06
6.06647e-08
2.62947e-06
5.77033e-08
2.63128e-06
5.47158e-08
2.63291e-06
5.16489e-08
2.6344e-06
4.86798e-08
2.63574e-06
4.57217e-08
2.63697e-06
4.29301e-08
2.63808e-06
4.01956e-08
2.63912e-06
3.76507e-08
2.64008e-06
3.51771e-08
2.64099e-06
3.28822e-08
2.64184e-06
3.06541e-08
2.64267e-06
2.8571e-08
2.64346e-06
2.65384e-08
2.64422e-06
2.46049e-08
2.64496e-06
2.27013e-08
2.64566e-06
2.08489e-08
2.64634e-06
1.90056e-08
2.64696e-06
1.71758e-08
2.64753e-06
1.53411e-08
2.64802e-06
1.35099e-08
2.6484e-06
1.16836e-08
2.64867e-06
9.90226e-09
8.18054e-09
2.6488e-06
2.7045e-06
1.31929e-08
2.70807e-06
3.21115e-08
2.71219e-06
4.48522e-08
2.7165e-06
5.39371e-08
2.72078e-06
6.01608e-08
2.72488e-06
6.3961e-08
2.72875e-06
6.59769e-08
2.73235e-06
6.65877e-08
2.73569e-06
6.61719e-08
2.73876e-06
6.49199e-08
2.74157e-06
6.31117e-08
2.74413e-06
6.08432e-08
2.74647e-06
5.83264e-08
2.74859e-06
5.55844e-08
2.75052e-06
5.2783e-08
2.75227e-06
4.99027e-08
2.75386e-06
4.70835e-08
2.75531e-06
4.42773e-08
2.75664e-06
4.1599e-08
2.75785e-06
3.89819e-08
2.75899e-06
3.65172e-08
2.76003e-06
3.41303e-08
2.76103e-06
3.18891e-08
2.76196e-06
2.97228e-08
2.76285e-06
2.76755e-08
2.7637e-06
2.56879e-08
2.76452e-06
2.3783e-08
2.76531e-06
2.19176e-08
2.76606e-06
2.00983e-08
2.76677e-06
1.82992e-08
2.76742e-06
1.65201e-08
2.76801e-06
1.47508e-08
2.76852e-06
1.29995e-08
2.76894e-06
1.12702e-08
2.76924e-06
9.59552e-09
7.9886e-09
2.76943e-06
2.82923e-06
1.17004e-08
2.83243e-06
2.89131e-08
2.83627e-06
4.10174e-08
2.84039e-06
4.98162e-08
2.84457e-06
5.59813e-08
2.84864e-06
5.98876e-08
2.85253e-06
6.20851e-08
2.8562e-06
6.29242e-08
2.85962e-06
6.2749e-08
2.86279e-06
6.17531e-08
2.86571e-06
6.01892e-08
2.86839e-06
5.81657e-08
2.87084e-06
5.58694e-08
2.87308e-06
5.33449e-08
2.87513e-06
5.07329e-08
2.877e-06
4.80391e-08
2.8787e-06
4.53752e-08
2.88026e-06
4.27214e-08
2.8817e-06
4.01635e-08
2.88301e-06
3.76653e-08
2.88424e-06
3.5289e-08
2.88538e-06
3.2991e-08
2.88646e-06
3.08127e-08
2.88747e-06
2.87112e-08
2.88843e-06
2.67096e-08
2.88935e-06
2.47712e-08
2.89023e-06
2.29045e-08
2.89106e-06
2.10827e-08
2.89186e-06
1.93053e-08
2.8926e-06
1.75561e-08
2.89329e-06
1.58337e-08
2.8939e-06
1.41328e-08
2.89444e-06
1.24612e-08
2.89489e-06
1.08244e-08
2.89524e-06
9.24795e-09
7.74349e-09
2.89548e-06
2.22397e-06
1.07152e-08
2.22615e-06
2.67291e-08
2.22888e-06
3.82854e-08
2.23187e-06
4.68356e-08
2.23494e-06
5.29101e-08
2.23797e-06
5.68523e-08
2.2409e-06
5.91541e-08
2.24369e-06
6.01386e-08
2.24631e-06
6.01265e-08
2.24876e-06
5.93086e-08
2.25102e-06
5.79203e-08
2.25312e-06
5.60737e-08
2.25504e-06
5.39414e-08
2.25681e-06
5.15775e-08
2.25844e-06
4.91094e-08
2.25992e-06
4.65547e-08
2.26128e-06
4.4011e-08
2.26253e-06
4.14719e-08
2.26369e-06
3.90093e-08
2.26475e-06
3.66013e-08
2.26574e-06
3.42973e-08
2.26667e-06
3.20677e-08
2.26754e-06
2.9943e-08
2.26836e-06
2.78928e-08
2.26913e-06
2.59318e-08
2.26987e-06
2.40338e-08
2.27057e-06
2.22019e-08
2.27124e-06
2.0417e-08
2.27187e-06
1.86762e-08
2.27246e-06
1.69685e-08
2.273e-06
1.52921e-08
2.27349e-06
1.36446e-08
2.27391e-06
1.20328e-08
2.27427e-06
1.04635e-08
2.27457e-06
8.95629e-09
7.52367e-09
2.27479e-06
2.39216e-06
9.80126e-09
2.39424e-06
2.46415e-08
2.39692e-06
3.56112e-08
2.39989e-06
4.3864e-08
2.40299e-06
4.98099e-08
2.40609e-06
5.37545e-08
2.40911e-06
5.61342e-08
2.412e-06
5.72451e-08
2.41474e-06
5.73834e-08
2.41732e-06
5.67351e-08
2.41972e-06
5.5518e-08
2.42195e-06
5.38466e-08
2.42401e-06
5.18795e-08
2.42591e-06
4.96781e-08
2.42766e-06
4.73578e-08
2.42927e-06
4.49459e-08
2.43075e-06
4.25276e-08
2.43212e-06
4.01076e-08
2.43338e-06
3.77462e-08
2.43455e-06
3.54331e-08
2.43564e-06
3.32076e-08
2.43665e-06
3.10513e-08
2.43761e-06
2.89864e-08
2.43851e-06
2.69925e-08
2.43936e-06
2.50784e-08
2.44017e-06
2.32259e-08
2.44094e-06
2.1435e-08
2.44166e-06
1.96921e-08
2.44235e-06
1.79938e-08
2.44298e-06
1.63324e-08
2.44357e-06
1.47064e-08
2.4441e-06
1.31156e-08
2.44456e-06
1.15657e-08
2.44496e-06
1.00643e-08
2.44529e-06
8.62553e-09
7.26299e-09
2.44556e-06
2.57309e-06
8.9528e-09
2.57508e-06
2.26485e-08
2.57768e-06
3.30053e-08
2.58063e-06
4.09163e-08
2.58374e-06
4.66973e-08
2.58689e-06
5.0612e-08
2.58998e-06
5.30424e-08
2.59297e-06
5.4259e-08
2.59582e-06
5.45325e-08
2.59851e-06
5.40426e-08
2.60104e-06
5.29898e-08
2.60339e-06
5.14892e-08
2.60559e-06
4.9686e-08
2.60762e-06
4.76472e-08
2.6095e-06
4.54768e-08
2.61124e-06
4.32099e-08
2.61284e-06
4.0921e-08
2.61433e-06
3.86237e-08
2.6157e-06
3.63687e-08
2.61698e-06
3.4155e-08
2.61818e-06
3.20138e-08
2.61929e-06
2.99357e-08
2.62034e-06
2.79367e-08
2.62133e-06
2.60044e-08
2.62226e-06
2.41436e-08
2.62315e-06
2.23421e-08
2.62398e-06
2.05985e-08
2.62477e-06
1.89033e-08
2.62551e-06
1.7253e-08
2.6262e-06
1.56429e-08
2.62684e-06
1.40717e-08
2.62741e-06
1.25409e-08
2.62792e-06
1.10548e-08
2.62837e-06
9.62179e-09
2.62874e-06
8.25097e-09
6.95702e-09
2.62905e-06
2.76772e-06
8.1641e-09
2.76962e-06
2.075e-08
2.77215e-06
3.04735e-08
2.77506e-06
3.80053e-08
2.77817e-06
4.35877e-08
2.78134e-06
4.7441e-08
2.78449e-06
4.98953e-08
2.78755e-06
5.11959e-08
2.7905e-06
5.15879e-08
2.7933e-06
5.12434e-08
2.79594e-06
5.03457e-08
2.79842e-06
4.90092e-08
2.80074e-06
4.73665e-08
2.8029e-06
4.54881e-08
2.80491e-06
4.34679e-08
2.80677e-06
4.13466e-08
2.8085e-06
3.91898e-08
2.81011e-06
3.70177e-08
2.8116e-06
3.48733e-08
2.813e-06
3.27627e-08
2.8143e-06
3.07111e-08
2.81552e-06
2.87159e-08
2.81667e-06
2.67889e-08
2.81775e-06
2.49234e-08
2.81877e-06
2.31222e-08
2.81973e-06
2.13775e-08
2.82064e-06
1.96874e-08
2.8215e-06
1.80455e-08
2.82231e-06
1.6449e-08
2.82305e-06
1.4895e-08
2.82374e-06
1.3383e-08
2.82437e-06
1.19151e-08
2.82493e-06
1.0495e-08
2.82542e-06
9.13075e-09
2.82584e-06
7.82762e-09
6.60116e-09
2.8262e-06
2.9771e-06
7.42946e-09
2.9789e-06
1.89446e-08
2.98136e-06
2.80203e-08
2.98422e-06
3.5142e-08
2.98731e-06
4.04944e-08
2.9905e-06
4.42563e-08
2.99368e-06
4.67083e-08
2.99681e-06
4.80709e-08
2.99983e-06
4.8564e-08
3.00273e-06
4.83505e-08
3.00547e-06
4.75973e-08
3.00807e-06
4.64166e-08
3.0105e-06
4.49289e-08
3.01279e-06
4.3207e-08
3.01492e-06
4.13355e-08
3.01691e-06
3.93589e-08
3.01876e-06
3.73354e-08
3.02049e-06
3.52897e-08
3.0221e-06
3.32591e-08
3.02361e-06
3.12545e-08
3.02502e-06
2.92971e-08
3.02635e-06
2.7389e-08
3.0276e-06
2.55395e-08
3.02878e-06
2.3746e-08
3.02989e-06
2.20104e-08
3.03094e-06
2.03282e-08
3.03193e-06
1.86975e-08
3.03286e-06
1.71146e-08
3.03373e-06
1.55773e-08
3.03454e-06
1.40843e-08
3.03529e-06
1.26353e-08
3.03597e-06
1.12334e-08
3.03659e-06
9.88086e-09
3.03713e-06
8.58607e-09
3.03761e-06
7.35058e-09
6.19087e-09
3.03802e-06
3.20233e-06
6.74323e-09
3.20405e-06
1.72302e-08
3.20642e-06
2.56491e-08
3.20922e-06
3.23355e-08
3.21229e-06
3.74292e-08
3.21547e-06
4.1071e-08
3.21869e-06
4.34953e-08
3.22186e-06
4.48979e-08
3.22495e-06
4.54744e-08
3.22792e-06
4.53768e-08
3.23076e-06
4.47565e-08
3.23346e-06
4.37218e-08
3.236e-06
4.23826e-08
3.2384e-06
4.08117e-08
3.24065e-06
3.90859e-08
3.24276e-06
3.72518e-08
3.24473e-06
3.53613e-08
3.24658e-06
3.34423e-08
3.24831e-06
3.15274e-08
3.24993e-06
2.96311e-08
3.25146e-06
2.77715e-08
3.25289e-06
2.59541e-08
3.25425e-06
2.4187e-08
3.25552e-06
2.24703e-08
3.25673e-06
2.08058e-08
3.25786e-06
1.91915e-08
3.25893e-06
1.7626e-08
3.25994e-06
1.61075e-08
3.26088e-06
1.46344e-08
3.26176e-06
1.32067e-08
3.26257e-06
1.18245e-08
3.26332e-06
1.04911e-08
3.26399e-06
9.20793e-09
3.26459e-06
7.98315e-09
3.26513e-06
6.81538e-09
5.72195e-09
3.2656e-06
3.44462e-06
6.10008e-09
3.44625e-06
1.56043e-08
3.44854e-06
2.3362e-08
3.45128e-06
2.95937e-08
3.4543e-06
3.44026e-08
3.45748e-06
3.78971e-08
3.4607e-06
4.02687e-08
3.46391e-06
4.16895e-08
3.46706e-06
4.23313e-08
3.4701e-06
4.23341e-08
3.47302e-06
4.18344e-08
3.47581e-06
4.09354e-08
3.47845e-06
3.97371e-08
3.48095e-06
3.83109e-08
3.48331e-06
3.67267e-08
3.48553e-06
3.50317e-08
3.48762e-06
3.3273e-08
3.48958e-06
3.14799e-08
3.49143e-06
2.96818e-08
3.49316e-06
2.7895e-08
3.4948e-06
2.61361e-08
3.49634e-06
2.44126e-08
3.4978e-06
2.2732e-08
3.49917e-06
2.10964e-08
3.50047e-06
1.95081e-08
3.50169e-06
1.79666e-08
3.50285e-06
1.64714e-08
3.50393e-06
1.50221e-08
3.50495e-06
1.36179e-08
3.5059e-06
1.22595e-08
3.50677e-06
1.09473e-08
3.50758e-06
9.68471e-09
3.50832e-06
8.4724e-09
3.50898e-06
7.31818e-09
3.50958e-06
6.21831e-09
5.19087e-09
3.51011e-06
3.70526e-06
5.49522e-09
3.7068e-06
1.40631e-08
3.709e-06
2.11603e-08
3.71167e-06
2.69229e-08
3.71465e-06
3.1424e-08
3.7178e-06
3.47451e-08
3.72103e-06
3.70399e-08
3.72427e-06
3.84569e-08
3.72745e-06
3.91454e-08
3.73055e-06
3.92327e-08
3.73355e-06
3.88408e-08
3.73642e-06
3.80667e-08
3.73915e-06
3.70009e-08
3.74175e-06
3.57125e-08
3.74421e-06
3.42651e-08
3.74654e-06
3.27055e-08
3.74873e-06
3.10765e-08
3.75081e-06
2.94079e-08
3.75276e-06
2.77268e-08
3.75461e-06
2.60505e-08
3.75635e-06
2.43943e-08
3.75799e-06
2.27673e-08
3.75955e-06
2.11767e-08
3.76102e-06
1.96261e-08
3.76241e-06
1.81183e-08
3.76372e-06
1.6654e-08
3.76496e-06
1.52339e-08
3.76612e-06
1.38581e-08
3.76721e-06
1.25267e-08
3.76823e-06
1.12411e-08
3.76918e-06
1.00017e-08
3.77005e-06
8.81188e-09
3.77085e-06
7.67165e-09
3.77158e-06
6.58848e-09
3.77224e-06
5.55671e-09
4.59509e-09
3.77284e-06
3.98563e-06
4.92447e-09
3.98709e-06
1.26025e-08
3.98921e-06
1.90444e-08
3.99181e-06
2.43278e-08
3.99473e-06
2.85014e-08
3.99785e-06
3.16249e-08
4.00107e-06
3.38192e-08
4.00432e-06
3.52103e-08
4.00753e-06
3.59266e-08
4.01069e-06
3.60819e-08
4.01374e-06
3.57843e-08
4.01668e-06
3.51236e-08
4.0195e-06
3.41816e-08
4.02219e-06
3.30235e-08
4.02475e-06
3.17076e-08
4.02718e-06
3.0279e-08
4.02948e-06
2.87772e-08
4.03165e-06
2.72316e-08
4.03371e-06
2.56671e-08
4.03566e-06
2.41018e-08
4.03751e-06
2.255e-08
4.03925e-06
2.10217e-08
4.0409e-06
1.95241e-08
4.04247e-06
1.8062e-08
4.04395e-06
1.66385e-08
4.04535e-06
1.52555e-08
4.04667e-06
1.39143e-08
4.04791e-06
1.26159e-08
4.04907e-06
1.13609e-08
4.05016e-06
1.0151e-08
4.05118e-06
8.98664e-09
4.05212e-06
7.87128e-09
4.05299e-06
6.80414e-09
4.05378e-06
5.79242e-09
4.05451e-06
4.82899e-09
3.93306e-09
4.05517e-06
4.28724e-06
4.38428e-09
4.28862e-06
1.12178e-08
4.29065e-06
1.70135e-08
4.29317e-06
2.18118e-08
4.29603e-06
2.56414e-08
4.29911e-06
2.8545e-08
4.30231e-06
3.06159e-08
4.30556e-06
3.19592e-08
4.3088e-06
3.26838e-08
4.312e-06
3.28898e-08
4.31511e-06
3.26723e-08
4.31812e-06
3.21128e-08
4.32102e-06
3.12849e-08
4.32379e-06
3.02493e-08
4.32644e-06
2.90591e-08
4.32896e-06
2.7757e-08
4.33136e-06
2.63795e-08
4.33363e-06
2.49549e-08
4.3358e-06
2.35067e-08
4.33784e-06
2.20526e-08
4.33979e-06
2.06066e-08
4.34163e-06
1.91789e-08
4.34338e-06
1.77771e-08
4.34503e-06
1.64065e-08
4.3466e-06
1.50708e-08
4.34808e-06
1.37728e-08
4.34948e-06
1.25141e-08
4.3508e-06
1.12965e-08
4.35204e-06
1.01208e-08
4.35321e-06
8.98914e-09
4.35429e-06
7.90187e-09
4.3553e-06
6.86227e-09
4.35623e-06
5.8691e-09
4.3571e-06
4.92919e-09
4.35789e-06
4.03437e-09
3.20408e-09
4.35862e-06
4.61167e-06
3.87167e-09
4.61298e-06
9.90373e-09
4.61493e-06
1.50658e-08
4.61737e-06
1.93764e-08
4.62016e-06
2.28488e-08
4.62319e-06
2.55126e-08
4.62637e-06
2.74382e-08
4.62962e-06
2.8712e-08
4.63288e-06
2.9425e-08
4.6361e-06
2.96638e-08
4.63926e-06
2.95112e-08
4.64234e-06
2.90401e-08
4.6453e-06
2.83159e-08
4.64816e-06
2.73942e-08
4.6509e-06
2.63233e-08
4.65351e-06
2.51427e-08
4.656e-06
2.38862e-08
4.65838e-06
2.25805e-08
4.66064e-06
2.12478e-08
4.66278e-06
1.99051e-08
4.66482e-06
1.85661e-08
4.66676e-06
1.72409e-08
4.6686e-06
1.59374e-08
4.67035e-06
1.46613e-08
4.672e-06
1.34167e-08
4.67357e-06
1.22068e-08
4.67505e-06
1.1034e-08
4.67644e-06
9.90011e-09
4.67776e-06
8.80655e-09
4.67899e-06
7.75532e-09
4.68015e-06
6.74687e-09
4.68123e-06
5.78427e-09
4.68223e-06
4.86587e-09
4.68316e-06
3.9982e-09
4.68402e-06
3.17233e-09
2.40776e-09
4.68482e-06
4.96067e-06
3.38407e-09
4.96192e-06
8.65483e-09
4.96378e-06
1.31983e-08
4.96614e-06
1.70215e-08
4.96886e-06
2.01266e-08
4.97184e-06
2.25329e-08
4.97498e-06
2.4293e-08
4.97822e-06
2.54761e-08
4.98149e-06
2.61574e-08
4.98474e-06
2.64107e-08
4.98795e-06
2.6307e-08
4.99108e-06
2.59103e-08
4.99411e-06
2.52785e-08
4.99705e-06
2.44615e-08
4.99987e-06
2.35026e-08
5.00257e-06
2.24381e-08
5.00516e-06
2.12988e-08
5.00763e-06
2.01097e-08
5.00999e-06
1.88913e-08
5.01223e-06
1.76601e-08
5.01437e-06
1.64289e-08
5.0164e-06
1.5208e-08
5.01833e-06
1.40051e-08
5.02017e-06
1.28262e-08
5.02191e-06
1.16757e-08
5.02356e-06
1.05572e-08
5.02512e-06
9.47316e-09
5.02659e-06
8.42592e-09
5.02798e-06
7.41693e-09
5.02929e-06
6.44825e-09
5.03052e-06
5.52031e-09
5.03167e-06
4.63592e-09
5.03274e-06
3.79321e-09
5.03374e-06
2.99832e-09
5.03467e-06
2.24193e-09
1.54338e-09
5.03553e-06
5.33608e-06
2.91915e-09
5.33727e-06
7.46526e-09
5.33906e-06
1.14065e-08
5.34134e-06
1.4745e-08
5.34399e-06
1.74753e-08
5.34692e-06
1.96091e-08
5.35002e-06
2.11848e-08
5.35324e-06
2.2257e-08
5.35651e-06
2.28867e-08
5.35979e-06
2.31359e-08
5.36303e-06
2.30644e-08
5.36621e-06
2.27277e-08
5.36932e-06
2.21761e-08
5.37232e-06
2.14535e-08
5.37523e-06
2.05986e-08
5.37802e-06
1.96441e-08
5.3807e-06
1.86176e-08
5.38327e-06
1.75422e-08
5.38573e-06
1.64367e-08
5.38807e-06
1.53166e-08
5.3903e-06
1.41941e-08
5.39243e-06
1.30789e-08
5.39446e-06
1.19787e-08
5.39639e-06
1.08995e-08
5.39822e-06
9.84595e-09
5.39995e-06
8.82161e-09
5.4016e-06
7.82925e-09
5.40315e-06
6.87129e-09
5.40462e-06
5.94926e-09
5.406e-06
5.0652e-09
5.4073e-06
4.21945e-09
5.40852e-06
3.41461e-09
5.40967e-06
2.64865e-09
5.41074e-06
1.92733e-09
5.41174e-06
1.24121e-09
6.0926e-10
5.41267e-06
5.73992e-06
2.47463e-09
5.74105e-06
6.32884e-09
5.74278e-06
9.68472e-09
5.74498e-06
1.25426e-08
5.74756e-06
1.48927e-08
5.75043e-06
1.67412e-08
5.7535e-06
1.81155e-08
5.7567e-06
1.90576e-08
5.75997e-06
1.96166e-08
5.76326e-06
1.9843e-08
5.76654e-06
1.97868e-08
5.76977e-06
1.9495e-08
5.77294e-06
1.90106e-08
5.77602e-06
1.83718e-08
5.779e-06
1.76122e-08
5.78189e-06
1.67607e-08
5.78466e-06
1.58421e-08
5.78733e-06
1.48769e-08
5.78988e-06
1.38823e-08
5.79233e-06
1.28725e-08
5.79466e-06
1.18588e-08
5.79689e-06
1.08505e-08
5.79902e-06
9.85484e-09
5.80104e-06
8.87765e-09
5.80296e-06
7.92348e-09
5.80479e-06
6.996e-09
5.80652e-06
6.09797e-09
5.80816e-06
5.23183e-09
5.80971e-06
4.39909e-09
5.81117e-06
3.60169e-09
5.81255e-06
2.83991e-09
5.81385e-06
2.11612e-09
5.81507e-06
1.4282e-09
5.81621e-06
7.81543e-10
5.81729e-06
1.66749e-10
-3.97669e-10
5.8183e-06
6.17432e-06
2.04808e-09
6.17541e-06
5.23885e-09
6.17707e-06
8.02542e-09
6.17921e-06
1.04076e-08
6.18173e-06
1.23738e-08
6.18454e-06
1.39261e-08
6.18757e-06
1.50835e-08
6.19075e-06
1.58779e-08
6.19402e-06
1.63475e-08
6.19733e-06
1.6533e-08
6.20065e-06
1.64752e-08
6.20393e-06
1.62131e-08
6.20716e-06
1.57825e-08
6.21031e-06
1.52161e-08
6.21338e-06
1.45425e-08
6.21635e-06
1.37867e-08
6.21923e-06
1.29702e-08
6.22199e-06
1.21113e-08
6.22465e-06
1.12252e-08
6.2272e-06
1.03244e-08
6.22964e-06
9.41943e-09
6.23197e-06
8.51863e-09
6.23419e-06
7.62883e-09
6.23632e-06
6.75551e-09
6.23834e-06
5.90297e-09
6.24026e-06
5.07475e-09
6.24208e-06
4.27351e-09
6.24381e-06
3.50157e-09
6.24545e-06
2.76037e-09
6.247e-06
2.0517e-09
6.24847e-06
1.37577e-09
6.24985e-06
7.34691e-10
6.25115e-06
1.26328e-10
6.25238e-06
-4.44275e-10
6.25353e-06
-9.86369e-10
-1.48198e-09
6.25461e-06
6.64161e-06
1.63676e-09
6.64267e-06
4.18771e-09
6.64427e-06
6.41916e-09
6.64635e-06
8.33042e-09
6.64881e-06
9.90959e-09
6.65158e-06
1.11561e-08
6.65458e-06
1.20828e-08
6.65775e-06
1.27129e-08
6.66102e-06
1.30757e-08
6.66435e-06
1.3203e-08
6.6677e-06
1.31271e-08
6.67103e-06
1.28795e-08
6.67433e-06
1.24895e-08
6.67756e-06
1.19839e-08
6.68071e-06
1.13866e-08
6.68378e-06
1.07188e-08
6.68675e-06
9.99854e-09
6.68962e-06
9.24149e-09
6.69239e-06
8.46078e-09
6.69505e-06
7.66741e-09
6.69759e-06
6.87049e-09
6.70004e-06
6.07753e-09
6.70237e-06
5.2946e-09
6.7046e-06
4.52667e-09
6.70672e-06
3.77768e-09
6.70875e-06
3.05085e-09
6.71067e-06
2.34864e-09
6.7125e-06
1.67315e-09
6.71424e-06
1.0257e-09
6.71588e-06
4.07865e-10
6.71744e-06
-1.80254e-10
6.71891e-06
-7.36766e-10
6.7203e-06
-1.26382e-09
6.72161e-06
-1.7567e-09
6.72285e-06
-2.22442e-09
-2.64962e-09
6.72402e-06
7.14428e-06
1.23734e-09
7.1453e-06
3.16657e-09
7.14687e-06
4.85396e-09
7.1489e-06
6.29763e-09
7.15132e-06
7.48656e-09
7.15406e-06
8.41854e-09
7.15704e-06
9.10165e-09
7.1602e-06
9.55233e-09
7.16348e-06
9.792e-09
7.16684e-06
9.8446e-09
7.17024e-06
9.73489e-09
7.17363e-06
9.48724e-09
7.17699e-06
9.12475e-09
7.18031e-06
8.66872e-09
7.18356e-06
8.13834e-09
7.18672e-06
7.55066e-09
7.1898e-06
6.92054e-09
7.19278e-06
6.26081e-09
7.19566e-06
5.58239e-09
7.19843e-06
4.89449e-09
7.2011e-06
4.20479e-09
7.20366e-06
3.51967e-09
7.20611e-06
2.84435e-09
7.20845e-06
2.1831e-09
7.21069e-06
1.53934e-09
7.21282e-06
9.15872e-10
7.21486e-06
3.14804e-10
7.21679e-06
-2.6203e-10
7.21863e-06
-8.1354e-10
7.22038e-06
-1.33839e-09
7.22204e-06
-1.83658e-09
7.22361e-06
-2.30649e-09
7.22509e-06
-2.75022e-09
7.2265e-06
-3.16344e-09
7.22783e-06
-3.55481e-09
-3.90768e-09
7.22909e-06
7.685e-06
8.45632e-10
7.686e-06
2.16462e-09
7.68754e-06
3.31445e-09
7.68954e-06
4.29123e-09
7.69195e-06
5.0854e-09
7.69467e-06
5.69393e-09
7.69765e-06
6.12132e-09
7.70082e-06
6.37832e-09
7.70414e-06
6.4797e-09
7.70754e-06
6.44238e-09
7.71099e-06
6.28419e-09
7.71445e-06
6.02297e-09
7.7179e-06
5.67585e-09
7.72131e-06
5.25878e-09
7.72466e-06
4.78632e-09
7.72794e-06
4.27147e-09
7.73114e-06
3.7257e-09
7.73424e-06
3.15898e-09
7.73724e-06
2.57986e-09
7.74014e-06
1.99559e-09
7.74293e-06
1.41229e-09
7.74562e-06
8.3504e-10
7.7482e-06
2.68032e-10
7.75066e-06
-2.85288e-10
7.75303e-06
-8.22164e-10
7.75528e-06
-1.34034e-09
7.75743e-06
-1.83812e-09
7.75949e-06
-2.31405e-09
7.76144e-06
-2.76731e-09
7.7633e-06
-3.19684e-09
7.76507e-06
-3.6028e-09
7.76674e-06
-3.98379e-09
7.76833e-06
-4.34194e-09
7.76984e-06
-4.67322e-09
7.77128e-06
-4.98594e-09
-5.26426e-09
7.77263e-06
8.26665e-06
4.55908e-10
8.26764e-06
1.16815e-09
8.26918e-06
1.78057e-09
8.27118e-06
2.28679e-09
8.27359e-06
2.67905e-09
8.27633e-06
2.95402e-09
8.27934e-06
3.11341e-09
8.28255e-06
3.1632e-09
8.28592e-06
3.11226e-09
8.28939e-06
2.97115e-09
8.29292e-06
2.75133e-09
8.29648e-06
2.46448e-09
8.30003e-06
2.12197e-09
8.30356e-06
1.73457e-09
8.30703e-06
1.31222e-09
8.31044e-06
8.63908e-10
8.31377e-06
3.97618e-10
8.31701e-06
-7.96448e-11
8.32015e-06
-5.61825e-10
8.32319e-06
-1.04374e-09
8.32612e-06
-1.52103e-09
8.32895e-06
-1.99001e-09
8.33166e-06
-2.44767e-09
8.33427e-06
-2.89152e-09
8.33677e-06
-3.31959e-09
8.33916e-06
-3.73026e-09
8.34144e-06
-4.12234e-09
8.34362e-06
-4.49483e-09
8.3457e-06
-4.84723e-09
8.34768e-06
-5.17879e-09
8.34957e-06
-5.48985e-09
8.35137e-06
-5.77928e-09
8.35307e-06
-6.04917e-09
8.3547e-06
-6.29586e-09
8.35624e-06
-6.52726e-09
-6.72841e-09
8.3577e-06
8.89233e-06
6.08194e-11
8.89334e-06
1.5913e-10
8.89489e-06
2.25343e-10
8.89693e-06
2.50791e-10
8.89938e-06
2.29566e-10
8.90218e-06
1.58412e-10
8.90525e-06
3.66444e-11
8.90855e-06
-1.34058e-10
8.91201e-06
-3.50258e-10
8.91559e-06
-6.07345e-10
8.91924e-06
-8.99976e-10
8.92293e-06
-1.22244e-09
8.92662e-06
-1.56897e-09
8.93029e-06
-1.93392e-09
8.93391e-06
-2.31198e-09
8.93747e-06
-2.69825e-09
8.94096e-06
-3.0883e-09
8.94436e-06
-3.47817e-09
8.94766e-06
-3.86443e-09
8.95086e-06
-4.24412e-09
8.95396e-06
-4.61471e-09
8.95694e-06
-4.9741e-09
8.95981e-06
-5.32055e-09
8.96257e-06
-5.65265e-09
8.96522e-06
-5.9693e-09
8.96776e-06
-6.2696e-09
8.97019e-06
-6.55298e-09
8.97252e-06
-6.8189e-09
8.97474e-06
-7.06726e-09
8.97686e-06
-7.29763e-09
8.97888e-06
-7.51057e-09
8.9808e-06
-7.70522e-09
8.98264e-06
-7.88365e-09
8.98438e-06
-8.04259e-09
8.98605e-06
-8.18947e-09