/*--------------------------------*- C++ -*----------------------------------*\
| =========                 |                                                 |
| \\      /  F ield         | OpenFOAM: The Open Source CFD Toolbox           |
|  \\    /   O peration     | Version:  2.4.0                                 |
|   \\  /    A nd           | Web:      www.OpenFOAM.org                      |
|    \\/     M anipulation  |                                                 |
\*---------------------------------------------------------------------------*/
FoamFile
{
    version     2.0;
    format      ascii;
    class       volScalarField;
    location    "0.17";
    object      epsilon;
}
// * * * * * * * * * * * * * * * * * * * * * * * * * * * * * * * * * * * * * //

dimensions      [0 2 -3 0 0 0 0];

internalField   nonuniform List<scalar> 
6000
(
1.01256
0.342666
0.0735701
0.0633172
0.0762226
0.0950228
0.111377
0.120424
0.122758
0.119165
0.113206
0.106985
0.101073
0.0956091
0.0906564
0.086241
0.0823541
0.078961
0.0760158
0.0734718
0.0712852
0.0694169
0.0678333
0.0665054
0.0654094
0.0645257
0.0638388
0.0633365
0.0630101
0.062854
0.0628655
0.0630448
0.0633934
0.0639137
0.0646155
0.0655151
0.0666309
0.0679849
0.0696053
0.0715272
0.0737947
0.0764632
0.0796023
0.0833
0.0876683
0.0928516
0.0990368
0.10647
0.115477
0.126501
0.140145
0.157263
0.179027
0.207313
0.244339
0.295621
0.362797
0.473152
0.595102
0.893331
0.545144
0.548932
0.0848627
0.038464
0.0306602
0.0300015
0.0313188
0.0330588
0.0339021
0.0330893
0.0312732
0.0293407
0.0276536
0.0262339
0.0250336
0.0240165
0.0231562
0.0224299
0.021817
0.0212999
0.0208638
0.0204968
0.0201891
0.0199329
0.0197216
0.0195503
0.0194149
0.0193123
0.0192401
0.0191966
0.019181
0.0191928
0.0192323
0.0193016
0.0194028
0.0195355
0.0197022
0.0199062
0.0201523
0.0204459
0.0207943
0.0212064
0.0216932
0.0222689
0.0229514
0.0237635
0.0247347
0.0259035
0.0273206
0.0290539
0.0311958
0.0338731
0.0372674
0.0416285
0.047364
0.0549371
0.0656303
0.0796727
0.103075
0.138657
0.39656
0.471608
0.111912
0.0384803
0.0235451
0.0196612
0.0183865
0.0179902
0.0178495
0.0175282
0.0169887
0.0164181
0.0159311
0.01554
0.0152253
0.0149699
0.014762
0.0145923
0.0144537
0.01434
0.0142467
0.0141701
0.0141072
0.0140558
0.0140142
0.0139808
0.0139548
0.0139351
0.0139213
0.013913
0.0139097
0.0139115
0.0139182
0.0139304
0.0139484
0.0139724
0.0140028
0.0140403
0.014086
0.0141412
0.0142075
0.0142869
0.014382
0.0144961
0.0146335
0.0147995
0.0150011
0.0152473
0.01555
0.0159251
0.0163939
0.0169852
0.0177398
0.0187109
0.0199903
0.0216532
0.0240267
0.0269099
0.032108
0.0378098
0.34748
0.346965
0.112273
0.0391686
0.0220885
0.0174455
0.0156685
0.0147829
0.0143533
0.0141206
0.0139315
0.0137639
0.0136296
0.0135277
0.0134504
0.0133908
0.0133446
0.0133086
0.0132805
0.0132584
0.013241
0.0132273
0.0132164
0.0132078
0.013201
0.0131958
0.0131918
0.0131889
0.013187
0.0131859
0.0131856
0.0131861
0.0131875
0.0131897
0.0131928
0.013197
0.0132022
0.0132088
0.013217
0.0132269
0.0132392
0.0132543
0.0132728
0.0132958
0.0133243
0.01336
0.0134049
0.0134619
0.0135345
0.013628
0.0137492
0.0139076
0.0141167
0.014394
0.0147705
0.0152675
0.015998
0.0168638
0.0185284
0.0199851
0.325884
0.256498
0.0998327
0.0386366
0.0219103
0.0170353
0.0151146
0.0141116
0.0136028
0.0133827
0.0132848
0.0132298
0.0131944
0.0131706
0.0131539
0.0131417
0.0131325
0.0131254
0.0131201
0.0131159
0.0131127
0.0131102
0.0131083
0.0131067
0.0131056
0.0131047
0.013104
0.0131035
0.0131032
0.0131031
0.0131031
0.0131033
0.0131037
0.0131042
0.0131049
0.0131058
0.013107
0.0131084
0.0131102
0.0131125
0.0131153
0.0131187
0.0131231
0.0131286
0.0131356
0.0131446
0.0131563
0.0131716
0.0131919
0.013219
0.0132556
0.0133055
0.0133745
0.0134702
0.0136065
0.013794
0.014085
0.0144376
0.0151757
0.0158105
0.315423
0.203434
0.0880647
0.0379607
0.0221128
0.0170607
0.0150398
0.0140009
0.013474
0.0132557
0.013179
0.0131509
0.013138
0.0131305
0.0131251
0.0131207
0.0131168
0.0131134
0.0131106
0.0131082
0.0131061
0.0131045
0.0131031
0.0131019
0.013101
0.0131002
0.0130997
0.0130992
0.0130989
0.0130987
0.0130986
0.0130987
0.0130988
0.0130991
0.0130995
0.0131
0.0131007
0.0131016
0.0131027
0.0131041
0.0131058
0.0131078
0.0131104
0.0131135
0.0131174
0.0131224
0.0131286
0.0131366
0.0131469
0.0131604
0.0131785
0.0132029
0.0132366
0.0132833
0.0133513
0.0134449
0.0135995
0.0137821
0.0142248
0.0146233
0.310026
0.175298
0.0809867
0.037818
0.0225059
0.0172106
0.0150718
0.0140048
0.0134708
0.0132506
0.0131761
0.0131516
0.0131414
0.0131352
0.0131301
0.0131255
0.0131212
0.0131174
0.013114
0.0131111
0.0131087
0.0131067
0.013105
0.0131036
0.0131024
0.0131015
0.0131008
0.0131002
0.0130998
0.0130995
0.0130994
0.0130994
0.0130995
0.0130998
0.0131002
0.0131008
0.0131016
0.0131025
0.0131037
0.0131051
0.0131069
0.0131091
0.0131117
0.0131149
0.0131188
0.0131237
0.0131297
0.0131372
0.0131467
0.0131587
0.0131743
0.0131946
0.0132218
0.0132581
0.0133098
0.0133788
0.0134934
0.0136238
0.0139667
0.014279
0.306942
0.161196
0.0774748
0.0381783
0.0230021
0.0174056
0.0151302
0.0140284
0.0134856
0.0132608
0.0131838
0.0131581
0.013147
0.0131399
0.0131339
0.0131285
0.0131235
0.0131192
0.0131155
0.0131123
0.0131096
0.0131074
0.0131056
0.0131041
0.0131029
0.0131019
0.0131011
0.0131005
0.0131001
0.0130998
0.0130996
0.0130996
0.0130997
0.0131
0.0131004
0.013101
0.0131018
0.0131028
0.013104
0.0131055
0.0131073
0.0131095
0.0131122
0.0131156
0.0131197
0.0131247
0.0131309
0.0131387
0.0131485
0.0131608
0.0131766
0.0131971
0.013224
0.0132594
0.0133089
0.0133734
0.013479
0.0135958
0.0139074
0.0141866
0.304957
0.154395
0.0760891
0.0388441
0.023548
0.0176243
0.0152007
0.0140568
0.0135016
0.0132702
0.0131894
0.0131619
0.0131497
0.0131419
0.0131354
0.0131295
0.0131243
0.0131198
0.0131159
0.0131126
0.0131099
0.0131076
0.0131057
0.0131042
0.0131029
0.0131019
0.0131011
0.0131005
0.0131001
0.0130998
0.0130996
0.0130996
0.0130998
0.0131
0.0131005
0.013101
0.0131018
0.0131028
0.013104
0.0131056
0.0131074
0.0131097
0.0131124
0.0131158
0.01312
0.0131251
0.0131314
0.0131393
0.0131493
0.0131619
0.013178
0.0131988
0.0132262
0.0132621
0.013312
0.0133767
0.0134816
0.0135963
0.0138988
0.0141644
0.303554
0.151255
0.0758343
0.0396511
0.0241125
0.0178598
0.0152815
0.0140891
0.0135183
0.0132786
0.0131934
0.0131639
0.013151
0.0131427
0.0131359
0.0131299
0.0131246
0.0131199
0.013116
0.0131127
0.0131099
0.0131076
0.0131057
0.0131042
0.0131029
0.0131019
0.0131011
0.0131005
0.0131
0.0130997
0.0130996
0.0130996
0.0130997
0.0131
0.0131004
0.013101
0.0131018
0.0131028
0.013104
0.0131055
0.0131074
0.0131096
0.0131124
0.0131158
0.01312
0.0131251
0.0131315
0.0131395
0.0131495
0.0131622
0.0131785
0.0131995
0.0132272
0.0132636
0.013314
0.0133794
0.0134849
0.0136001
0.0138992
0.0141575
0.302491
0.149918
0.0761348
0.0404998
0.0246786
0.0181085
0.0153722
0.014126
0.0135364
0.0132873
0.0131971
0.0131656
0.0131518
0.0131432
0.0131363
0.0131301
0.0131247
0.01312
0.013116
0.0131127
0.0131099
0.0131076
0.0131057
0.0131041
0.0131028
0.0131018
0.013101
0.0131004
0.0130999
0.0130996
0.0130995
0.0130995
0.0130996
0.0130999
0.0131003
0.0131009
0.0131017
0.0131027
0.0131039
0.0131054
0.0131073
0.0131096
0.0131124
0.0131158
0.01312
0.0131251
0.0131315
0.0131395
0.0131496
0.0131624
0.0131787
0.0131999
0.0132277
0.0132643
0.0133151
0.0133809
0.013487
0.0136029
0.0138994
0.0141518
0.30164
0.149456
0.0766836
0.0413447
0.0252381
0.018368
0.0154723
0.0141674
0.0135565
0.0132967
0.0132011
0.0131672
0.0131526
0.0131437
0.0131365
0.0131303
0.0131248
0.01312
0.013116
0.0131127
0.0131099
0.0131075
0.0131056
0.0131041
0.0131028
0.0131018
0.0131009
0.0131003
0.0130999
0.0130996
0.0130994
0.0130994
0.0130996
0.0130998
0.0131003
0.0131009
0.0131016
0.0131026
0.0131039
0.0131054
0.0131073
0.0131095
0.0131123
0.0131157
0.0131199
0.0131251
0.0131315
0.0131396
0.0131497
0.0131625
0.0131789
0.0132001
0.0132281
0.0132648
0.0133158
0.013382
0.0134884
0.0136047
0.0138984
0.0141452
0.300928
0.149412
0.0773259
0.0421548
0.0257868
0.0186359
0.0155809
0.0142131
0.0135785
0.013307
0.0132054
0.0131689
0.0131534
0.0131441
0.0131368
0.0131304
0.0131248
0.0131201
0.013116
0.0131126
0.0131098
0.0131075
0.0131056
0.013104
0.0131027
0.0131017
0.0131009
0.0131003
0.0130998
0.0130995
0.0130994
0.0130994
0.0130995
0.0130998
0.0131002
0.0131008
0.0131016
0.0131026
0.0131038
0.0131053
0.0131072
0.0131095
0.0131123
0.0131157
0.0131199
0.0131251
0.0131315
0.0131396
0.0131497
0.0131626
0.013179
0.0132003
0.0132284
0.0132652
0.0133163
0.0133828
0.0134894
0.0136059
0.0138968
0.0141379
0.300314
0.149564
0.0779884
0.0429214
0.0263221
0.0189102
0.0156972
0.0142629
0.0136023
0.0133181
0.01321
0.0131709
0.0131543
0.0131446
0.013137
0.0131306
0.0131249
0.0131201
0.013116
0.0131126
0.0131098
0.0131075
0.0131055
0.013104
0.0131027
0.0131016
0.0131008
0.0131002
0.0130998
0.0130995
0.0130993
0.0130993
0.0130994
0.0130997
0.0131001
0.0131007
0.0131015
0.0131025
0.0131038
0.0131053
0.0131072
0.0131094
0.0131122
0.0131157
0.0131199
0.0131251
0.0131315
0.0131396
0.0131498
0.0131626
0.0131792
0.0132005
0.0132286
0.0132656
0.0133169
0.0133835
0.0134902
0.0136069
0.0138949
0.0141305
0.299776
0.149802
0.0786394
0.0436456
0.0268431
0.019189
0.0158202
0.0143164
0.0136277
0.01333
0.0132151
0.013173
0.0131553
0.0131451
0.0131373
0.0131307
0.013125
0.0131202
0.0131161
0.0131126
0.0131098
0.0131074
0.0131055
0.0131039
0.0131026
0.0131016
0.0131008
0.0131001
0.0130997
0.0130994
0.0130992
0.0130992
0.0130994
0.0130996
0.0131001
0.0131007
0.0131015
0.0131025
0.0131037
0.0131052
0.0131071
0.0131094
0.0131122
0.0131156
0.0131199
0.0131251
0.0131316
0.0131396
0.0131498
0.0131627
0.0131793
0.0132007
0.0132289
0.013266
0.0133174
0.0133843
0.013491
0.0136078
0.0138929
0.0141231
0.299299
0.150078
0.079267
0.0443309
0.0273495
0.0194707
0.015949
0.0143733
0.0136547
0.0133426
0.0132205
0.0131752
0.0131563
0.0131456
0.0131376
0.0131309
0.0131251
0.0131202
0.0131161
0.0131126
0.0131098
0.0131074
0.0131055
0.0131039
0.0131026
0.0131015
0.0131007
0.0131001
0.0130996
0.0130993
0.0130992
0.0130992
0.0130993
0.0130996
0.0131
0.0131006
0.0131014
0.0131024
0.0131036
0.0131052
0.0131071
0.0131094
0.0131122
0.0131156
0.0131198
0.0131251
0.0131316
0.0131397
0.0131499
0.0131628
0.0131794
0.0132009
0.0132292
0.0132664
0.0133179
0.0133849
0.0134917
0.0136085
0.0138909
0.014116
0.298874
0.150366
0.0798683
0.0449811
0.027841
0.0197537
0.0160828
0.0144332
0.0136831
0.0133559
0.0132263
0.0131776
0.0131574
0.0131462
0.0131379
0.0131311
0.0131252
0.0131203
0.0131161
0.0131126
0.0131097
0.0131074
0.0131054
0.0131038
0.0131025
0.0131015
0.0131007
0.0131
0.0130996
0.0130993
0.0130991
0.0130991
0.0130992
0.0130995
0.0131
0.0131006
0.0131013
0.0131023
0.0131036
0.0131051
0.013107
0.0131093
0.0131121
0.0131156
0.0131198
0.0131251
0.0131316
0.0131397
0.0131499
0.0131629
0.0131795
0.0132011
0.0132294
0.0132667
0.0133184
0.0133856
0.0134924
0.0136092
0.0138889
0.0141092
0.298494
0.150655
0.0804437
0.0455995
0.0283177
0.0200366
0.0162207
0.0144959
0.0137127
0.0133697
0.0132323
0.0131802
0.0131586
0.0131468
0.0131383
0.0131313
0.0131253
0.0131203
0.0131161
0.0131126
0.0131097
0.0131073
0.0131054
0.0131038
0.0131025
0.0131014
0.0131006
0.0131
0.0130995
0.0130992
0.0130991
0.0130991
0.0130992
0.0130995
0.0130999
0.0131005
0.0131013
0.0131023
0.0131035
0.0131051
0.013107
0.0131093
0.0131121
0.0131155
0.0131198
0.013125
0.0131316
0.0131397
0.01315
0.013163
0.0131797
0.0132012
0.0132297
0.0132671
0.0133188
0.0133862
0.0134931
0.0136098
0.0138869
0.0141027
0.298153
0.150941
0.0809947
0.046189
0.0287795
0.0203182
0.0163618
0.014561
0.0137434
0.0133841
0.0132386
0.0131829
0.0131598
0.0131474
0.0131386
0.0131314
0.0131254
0.0131204
0.0131161
0.0131126
0.0131097
0.0131073
0.0131053
0.0131037
0.0131024
0.0131014
0.0131006
0.0130999
0.0130995
0.0130992
0.013099
0.013099
0.0130991
0.0130994
0.0130998
0.0131004
0.0131012
0.0131022
0.0131035
0.013105
0.0131069
0.0131092
0.013112
0.0131155
0.0131198
0.013125
0.0131316
0.0131397
0.01315
0.013163
0.0131798
0.0132014
0.0132299
0.0132674
0.0133193
0.0133868
0.0134937
0.0136104
0.013885
0.0140964
0.297849
0.151221
0.0815229
0.0467518
0.0292264
0.0205975
0.0165055
0.0146281
0.0137752
0.013399
0.0132451
0.0131857
0.0131611
0.013148
0.0131389
0.0131316
0.0131255
0.0131204
0.0131161
0.0131126
0.0131097
0.0131073
0.0131053
0.0131037
0.0131024
0.0131013
0.0131005
0.0130999
0.0130994
0.0130991
0.013099
0.0130989
0.0130991
0.0130994
0.0130998
0.0131004
0.0131012
0.0131022
0.0131034
0.013105
0.0131069
0.0131092
0.013112
0.0131155
0.0131198
0.013125
0.0131316
0.0131397
0.01315
0.0131631
0.0131799
0.0132016
0.0132302
0.0132678
0.0133197
0.0133874
0.0134943
0.0136109
0.0138831
0.0140905
0.297576
0.151495
0.0820295
0.0472897
0.0296585
0.0208735
0.016651
0.0146971
0.0138079
0.0134143
0.0132519
0.0131886
0.0131624
0.0131487
0.0131393
0.0131318
0.0131256
0.0131205
0.0131162
0.0131126
0.0131097
0.0131072
0.0131053
0.0131036
0.0131023
0.0131013
0.0131005
0.0130998
0.0130994
0.0130991
0.0130989
0.0130989
0.013099
0.0130993
0.0130997
0.0131003
0.0131011
0.0131021
0.0131034
0.0131049
0.0131068
0.0131091
0.013112
0.0131155
0.0131197
0.013125
0.0131316
0.0131398
0.0131501
0.0131632
0.01318
0.0132017
0.0132304
0.0132681
0.0133201
0.013388
0.0134949
0.0136113
0.0138813
0.0140847
0.297331
0.151761
0.0825156
0.0478042
0.030076
0.0211455
0.0167976
0.0147676
0.0138414
0.01343
0.0132589
0.0131917
0.0131638
0.0131494
0.0131397
0.0131321
0.0131258
0.0131205
0.0131162
0.0131126
0.0131096
0.0131072
0.0131052
0.0131036
0.0131023
0.0131012
0.0131004
0.0130998
0.0130993
0.013099
0.0130989
0.0130988
0.013099
0.0130993
0.0130997
0.0131003
0.0131011
0.0131021
0.0131033
0.0131049
0.0131068
0.0131091
0.0131119
0.0131154
0.0131197
0.013125
0.0131316
0.0131398
0.0131501
0.0131633
0.0131801
0.0132019
0.0132306
0.0132684
0.0133205
0.0133885
0.0134954
0.0136117
0.0138795
0.0140793
0.297112
0.152019
0.082982
0.0482965
0.0304788
0.0214126
0.0169448
0.0148394
0.0138756
0.0134461
0.0132661
0.0131948
0.0131652
0.0131501
0.0131401
0.0131323
0.0131259
0.0131206
0.0131162
0.0131126
0.0131096
0.0131072
0.0131052
0.0131036
0.0131022
0.0131012
0.0131004
0.0130997
0.0130993
0.013099
0.0130988
0.0130988
0.0130989
0.0130992
0.0130996
0.0131002
0.013101
0.013102
0.0131033
0.0131048
0.0131067
0.0131091
0.0131119
0.0131154
0.0131197
0.013125
0.0131316
0.0131398
0.0131502
0.0131633
0.0131802
0.0132021
0.0132308
0.0132687
0.0133209
0.013389
0.0134959
0.0136121
0.0138778
0.0140741
0.296916
0.152269
0.0834292
0.0487675
0.0308671
0.0216743
0.0170919
0.0149122
0.0139103
0.0134625
0.0132735
0.013198
0.0131667
0.0131508
0.0131405
0.0131325
0.013126
0.0131207
0.0131162
0.0131126
0.0131096
0.0131072
0.0131052
0.0131035
0.0131022
0.0131011
0.0131003
0.0130997
0.0130992
0.0130989
0.0130988
0.0130987
0.0130989
0.0130992
0.0130996
0.0131002
0.013101
0.013102
0.0131032
0.0131048
0.0131067
0.013109
0.0131119
0.0131154
0.0131197
0.013125
0.0131316
0.0131398
0.0131502
0.0131634
0.0131803
0.0132022
0.013231
0.013269
0.0133213
0.0133895
0.0134964
0.0136124
0.0138761
0.0140691
0.296741
0.15251
0.0838577
0.0492181
0.031241
0.0219302
0.0172385
0.0149858
0.0139456
0.0134791
0.013281
0.0132013
0.0131682
0.0131516
0.0131409
0.0131327
0.0131261
0.0131207
0.0131163
0.0131126
0.0131096
0.0131071
0.0131051
0.0131035
0.0131022
0.0131011
0.0131003
0.0130996
0.0130992
0.0130989
0.0130987
0.0130987
0.0130988
0.0130991
0.0130995
0.0131001
0.0131009
0.0131019
0.0131032
0.0131048
0.0131067
0.013109
0.0131118
0.0131153
0.0131197
0.013125
0.0131316
0.0131398
0.0131502
0.0131634
0.0131804
0.0132023
0.0132312
0.0132692
0.0133217
0.01339
0.0134968
0.0136127
0.0138745
0.0140644
0.296584
0.152743
0.084268
0.049649
0.0316008
0.0221797
0.0173841
0.0150598
0.0139813
0.013496
0.0132887
0.0132047
0.0131698
0.0131524
0.0131413
0.013133
0.0131263
0.0131208
0.0131163
0.0131126
0.0131096
0.0131071
0.0131051
0.0131035
0.0131021
0.0131011
0.0131002
0.0130996
0.0130991
0.0130988
0.0130987
0.0130986
0.0130988
0.0130991
0.0130995
0.0131001
0.0131009
0.0131019
0.0131032
0.0131047
0.0131066
0.013109
0.0131118
0.0131153
0.0131196
0.013125
0.0131316
0.0131398
0.0131503
0.0131635
0.0131805
0.0132025
0.0132314
0.0132695
0.013322
0.0133905
0.0134972
0.013613
0.013873
0.0140599
0.296445
0.152967
0.0846603
0.0500608
0.0319466
0.0224226
0.0175282
0.0151341
0.0140173
0.013513
0.0132964
0.0132082
0.0131714
0.0131532
0.0131417
0.0131332
0.0131264
0.0131209
0.0131163
0.0131126
0.0131096
0.0131071
0.0131051
0.0131034
0.0131021
0.013101
0.0131002
0.0130995
0.0130991
0.0130988
0.0130986
0.0130986
0.0130987
0.013099
0.0130995
0.0131001
0.0131009
0.0131019
0.0131031
0.0131047
0.0131066
0.0131089
0.0131118
0.0131153
0.0131196
0.0131249
0.0131316
0.0131399
0.0131503
0.0131636
0.0131806
0.0132026
0.0132316
0.0132698
0.0133224
0.0133909
0.0134976
0.0136132
0.0138714
0.0140556
0.29632
0.153182
0.0850352
0.0504542
0.0322786
0.0226586
0.0176706
0.0152086
0.0140536
0.0135302
0.0133043
0.0132117
0.013173
0.013154
0.0131421
0.0131334
0.0131265
0.0131209
0.0131164
0.0131126
0.0131096
0.0131071
0.013105
0.0131034
0.0131021
0.013101
0.0131001
0.0130995
0.013099
0.0130987
0.0130986
0.0130986
0.0130987
0.013099
0.0130994
0.0131
0.0131008
0.0131018
0.0131031
0.0131046
0.0131066
0.0131089
0.0131118
0.0131153
0.0131196
0.0131249
0.0131316
0.0131399
0.0131503
0.0131636
0.0131807
0.0132027
0.0132318
0.01327
0.0133227
0.0133913
0.013498
0.0136134
0.01387
0.0140515
0.296208
0.153388
0.085393
0.0508298
0.0325971
0.0228875
0.0178107
0.0152829
0.0140901
0.0135476
0.0133123
0.0132153
0.0131747
0.0131548
0.0131426
0.0131337
0.0131267
0.013121
0.0131164
0.0131126
0.0131096
0.0131071
0.013105
0.0131034
0.013102
0.013101
0.0131001
0.0130995
0.013099
0.0130987
0.0130985
0.0130985
0.0130987
0.0130989
0.0130994
0.0131
0.0131008
0.0131018
0.013103
0.0131046
0.0131065
0.0131089
0.0131117
0.0131153
0.0131196
0.0131249
0.0131316
0.0131399
0.0131504
0.0131637
0.0131807
0.0132028
0.0132319
0.0132702
0.013323
0.0133917
0.0134984
0.0136136
0.0138686
0.0140477
0.296108
0.153585
0.0857341
0.0511881
0.0329023
0.0231091
0.0179485
0.0153569
0.0141266
0.013565
0.0133203
0.013219
0.0131764
0.0131557
0.013143
0.0131339
0.0131268
0.0131211
0.0131164
0.0131126
0.0131096
0.013107
0.013105
0.0131033
0.013102
0.0131009
0.0131001
0.0130994
0.013099
0.0130987
0.0130985
0.0130985
0.0130986
0.0130989
0.0130993
0.0130999
0.0131007
0.0131017
0.013103
0.0131046
0.0131065
0.0131088
0.0131117
0.0131152
0.0131196
0.0131249
0.0131316
0.0131399
0.0131504
0.0131637
0.0131808
0.013203
0.0132321
0.0132705
0.0133233
0.0133921
0.0134987
0.0136138
0.0138672
0.014044
0.296019
0.153774
0.086059
0.0515296
0.0331944
0.0233232
0.0180836
0.0154306
0.0141632
0.0135825
0.0133284
0.0132227
0.0131781
0.0131565
0.0131435
0.0131342
0.0131269
0.0131211
0.0131165
0.0131127
0.0131096
0.013107
0.013105
0.0131033
0.013102
0.0131009
0.0131
0.0130994
0.0130989
0.0130986
0.0130985
0.0130984
0.0130986
0.0130989
0.0130993
0.0130999
0.0131007
0.0131017
0.013103
0.0131045
0.0131065
0.0131088
0.0131117
0.0131152
0.0131195
0.0131249
0.0131316
0.0131399
0.0131504
0.0131638
0.0131809
0.0132031
0.0132323
0.0132707
0.0133235
0.0133924
0.013499
0.0136139
0.0138659
0.0140406
0.29594
0.153953
0.0863681
0.0518548
0.0334739
0.0235299
0.0182157
0.0155036
0.0141998
0.0136
0.0133365
0.0132264
0.0131799
0.0131574
0.013144
0.0131344
0.0131271
0.0131212
0.0131165
0.0131127
0.0131096
0.013107
0.013105
0.0131033
0.0131019
0.0131009
0.0131
0.0130994
0.0130989
0.0130986
0.0130984
0.0130984
0.0130985
0.0130988
0.0130993
0.0130999
0.0131007
0.0131017
0.0131029
0.0131045
0.0131064
0.0131088
0.0131117
0.0131152
0.0131195
0.0131249
0.0131316
0.0131399
0.0131504
0.0131638
0.013181
0.0132032
0.0132324
0.0132709
0.0133238
0.0133927
0.0134993
0.013614
0.0138647
0.0140373
0.295869
0.154125
0.0866618
0.0521643
0.0337409
0.0237292
0.0183448
0.0155758
0.0142363
0.0136176
0.0133447
0.0132301
0.0131816
0.0131583
0.0131444
0.0131347
0.0131272
0.0131213
0.0131165
0.0131127
0.0131095
0.013107
0.0131049
0.0131033
0.0131019
0.0131008
0.0131
0.0130993
0.0130989
0.0130985
0.0130984
0.0130984
0.0130985
0.0130988
0.0130992
0.0130998
0.0131006
0.0131016
0.0131029
0.0131045
0.0131064
0.0131088
0.0131116
0.0131152
0.0131195
0.0131249
0.0131316
0.0131399
0.0131505
0.0131639
0.013181
0.0132033
0.0132325
0.0132711
0.0133241
0.013393
0.0134995
0.0136141
0.0138635
0.0140343
0.295805
0.154287
0.0869407
0.0524587
0.0339958
0.0239209
0.0184706
0.0156472
0.0142727
0.0136351
0.0133529
0.0132339
0.0131834
0.0131592
0.0131449
0.013135
0.0131274
0.0131214
0.0131166
0.0131127
0.0131095
0.013107
0.0131049
0.0131032
0.0131019
0.0131008
0.0130999
0.0130993
0.0130988
0.0130985
0.0130984
0.0130983
0.0130985
0.0130988
0.0130992
0.0130998
0.0131006
0.0131016
0.0131029
0.0131045
0.0131064
0.0131087
0.0131116
0.0131151
0.0131195
0.0131249
0.0131316
0.0131399
0.0131505
0.0131639
0.0131811
0.0132034
0.0132327
0.0132713
0.0133243
0.0133933
0.0134997
0.0136142
0.0138624
0.0140314
0.295748
0.154442
0.0872052
0.0527383
0.0342393
0.0241052
0.0185929
0.0157176
0.0143089
0.0136527
0.0133611
0.0132377
0.0131852
0.0131601
0.0131454
0.0131352
0.0131275
0.0131215
0.0131166
0.0131127
0.0131095
0.013107
0.0131049
0.0131032
0.0131019
0.0131008
0.0130999
0.0130993
0.0130988
0.0130985
0.0130983
0.0130983
0.0130984
0.0130987
0.0130992
0.0130998
0.0131006
0.0131016
0.0131029
0.0131044
0.0131063
0.0131087
0.0131116
0.0131151
0.0131195
0.0131249
0.0131316
0.01314
0.0131505
0.0131639
0.0131812
0.0132035
0.0132328
0.0132714
0.0133245
0.0133936
0.0135
0.0136143
0.0138614
0.0140287
0.295697
0.154588
0.0874558
0.0530038
0.0344711
0.0242821
0.0187117
0.0157868
0.0143448
0.0136702
0.0133693
0.0132415
0.0131871
0.013161
0.0131459
0.0131355
0.0131277
0.0131215
0.0131167
0.0131127
0.0131095
0.013107
0.0131049
0.0131032
0.0131018
0.0131007
0.0130999
0.0130992
0.0130988
0.0130985
0.0130983
0.0130983
0.0130984
0.0130987
0.0130991
0.0130997
0.0131005
0.0131016
0.0131028
0.0131044
0.0131063
0.0131087
0.0131116
0.0131151
0.0131195
0.0131249
0.0131316
0.01314
0.0131505
0.013164
0.0131812
0.0132035
0.0132329
0.0132716
0.0133247
0.0133939
0.0135002
0.0136143
0.0138604
0.0140263
0.295652
0.154727
0.087693
0.0532556
0.0346917
0.0244516
0.0188268
0.0158547
0.0143804
0.0136876
0.0133775
0.0132454
0.0131889
0.0131619
0.0131464
0.0131358
0.0131278
0.0131216
0.0131167
0.0131127
0.0131095
0.013107
0.0131049
0.0131032
0.0131018
0.0131007
0.0130999
0.0130992
0.0130987
0.0130984
0.0130983
0.0130983
0.0130984
0.0130987
0.0130991
0.0130997
0.0131005
0.0131015
0.0131028
0.0131044
0.0131063
0.0131087
0.0131116
0.0131151
0.0131195
0.0131249
0.0131316
0.01314
0.0131506
0.013164
0.0131813
0.0132036
0.013233
0.0132717
0.0133249
0.0133941
0.0135004
0.0136144
0.0138594
0.0140239
0.295611
0.154858
0.0879173
0.0534942
0.0349013
0.024614
0.0189382
0.0159213
0.0144156
0.0137049
0.0133857
0.0132492
0.0131907
0.0131629
0.0131469
0.013136
0.013128
0.0131217
0.0131167
0.0131128
0.0131096
0.013107
0.0131049
0.0131032
0.0131018
0.0131007
0.0130998
0.0130992
0.0130987
0.0130984
0.0130982
0.0130982
0.0130984
0.0130986
0.0130991
0.0130997
0.0131005
0.0131015
0.0131028
0.0131044
0.0131063
0.0131086
0.0131115
0.0131151
0.0131195
0.0131249
0.0131316
0.01314
0.0131506
0.013164
0.0131813
0.0132037
0.0132331
0.0132719
0.0133251
0.0133943
0.0135005
0.0136144
0.0138586
0.0140218
0.295574
0.154981
0.0881293
0.0537202
0.0351006
0.0247692
0.0190458
0.0159864
0.0144503
0.0137221
0.0133939
0.013253
0.0131926
0.0131638
0.0131474
0.0131363
0.0131281
0.0131218
0.0131168
0.0131128
0.0131096
0.0131069
0.0131048
0.0131031
0.0131018
0.0131007
0.0130998
0.0130992
0.0130987
0.0130984
0.0130982
0.0130982
0.0130983
0.0130986
0.0130991
0.0130997
0.0131005
0.0131015
0.0131028
0.0131043
0.0131063
0.0131086
0.0131115
0.0131151
0.0131194
0.0131249
0.0131316
0.01314
0.0131506
0.0131641
0.0131814
0.0132037
0.0132332
0.013272
0.0133252
0.0133945
0.0135007
0.0136145
0.0138577
0.0140199
0.295542
0.155098
0.0883294
0.053934
0.0352896
0.0249175
0.0191496
0.0160499
0.0144845
0.0137391
0.013402
0.0132568
0.0131944
0.0131647
0.0131479
0.0131366
0.0131283
0.0131219
0.0131168
0.0131128
0.0131096
0.0131069
0.0131048
0.0131031
0.0131018
0.0131007
0.0130998
0.0130991
0.0130987
0.0130984
0.0130982
0.0130982
0.0130983
0.0130986
0.013099
0.0130997
0.0131005
0.0131015
0.0131027
0.0131043
0.0131062
0.0131086
0.0131115
0.0131151
0.0131194
0.0131248
0.0131316
0.01314
0.0131506
0.0131641
0.0131814
0.0132038
0.0132333
0.0132721
0.0133254
0.0133947
0.0135008
0.0136145
0.013857
0.0140181
0.295512
0.155208
0.0885181
0.0541361
0.0354688
0.0250589
0.0192496
0.0161117
0.0145182
0.0137559
0.01341
0.0132606
0.0131963
0.0131657
0.0131484
0.0131369
0.0131284
0.013122
0.0131169
0.0131128
0.0131096
0.0131069
0.0131048
0.0131031
0.0131017
0.0131006
0.0130998
0.0130991
0.0130987
0.0130983
0.0130982
0.0130982
0.0130983
0.0130986
0.013099
0.0130996
0.0131004
0.0131015
0.0131027
0.0131043
0.0131062
0.0131086
0.0131115
0.013115
0.0131194
0.0131248
0.0131316
0.01314
0.0131506
0.0131641
0.0131814
0.0132039
0.0132334
0.0132722
0.0133255
0.0133949
0.0135009
0.0136145
0.0138563
0.0140165
0.295485
0.155311
0.088696
0.0543271
0.0356387
0.0251938
0.0193458
0.0161719
0.0145512
0.0137725
0.013418
0.0132644
0.0131981
0.0131666
0.0131489
0.0131371
0.0131286
0.0131221
0.0131169
0.0131128
0.0131096
0.0131069
0.0131048
0.0131031
0.0131017
0.0131006
0.0130998
0.0130991
0.0130986
0.0130983
0.0130982
0.0130982
0.0130983
0.0130986
0.013099
0.0130996
0.0131004
0.0131014
0.0131027
0.0131043
0.0131062
0.0131086
0.0131115
0.013115
0.0131194
0.0131248
0.0131316
0.01314
0.0131506
0.0131641
0.0131815
0.0132039
0.0132334
0.0132723
0.0133256
0.013395
0.013501
0.0136146
0.0138556
0.0140151
0.295461
0.155408
0.0888635
0.0545073
0.0357996
0.0253222
0.0194382
0.0162304
0.0145835
0.0137889
0.0134259
0.0132682
0.0131999
0.0131675
0.0131494
0.0131374
0.0131288
0.0131221
0.013117
0.0131129
0.0131096
0.0131069
0.0131048
0.0131031
0.0131017
0.0131006
0.0130997
0.0130991
0.0130986
0.0130983
0.0130982
0.0130981
0.0130983
0.0130986
0.013099
0.0130996
0.0131004
0.0131014
0.0131027
0.0131043
0.0131062
0.0131086
0.0131115
0.013115
0.0131194
0.0131248
0.0131316
0.01314
0.0131506
0.0131641
0.0131815
0.0132039
0.0132335
0.0132724
0.0133257
0.0133951
0.0135011
0.0136146
0.0138551
0.0140139
0.29544
0.155499
0.089021
0.0546774
0.0359518
0.0254444
0.019527
0.0162871
0.0146151
0.0138049
0.0134337
0.0132719
0.0132017
0.0131685
0.0131499
0.0131377
0.0131289
0.0131222
0.013117
0.0131129
0.0131096
0.0131069
0.0131048
0.0131031
0.0131017
0.0131006
0.0130997
0.0130991
0.0130986
0.0130983
0.0130981
0.0130981
0.0130983
0.0130985
0.013099
0.0130996
0.0131004
0.0131014
0.0131027
0.0131043
0.0131062
0.0131086
0.0131115
0.013115
0.0131194
0.0131248
0.0131316
0.01314
0.0131506
0.0131642
0.0131815
0.013204
0.0132335
0.0132725
0.0133258
0.0133953
0.0135012
0.0136146
0.0138546
0.0140128
0.29542
0.155584
0.0891692
0.0548376
0.0360957
0.0255605
0.019612
0.016342
0.0146461
0.0138207
0.0134414
0.0132756
0.0132035
0.0131694
0.0131504
0.013138
0.0131291
0.0131223
0.0131171
0.0131129
0.0131096
0.0131069
0.0131048
0.0131031
0.0131017
0.0131006
0.0130997
0.0130991
0.0130986
0.0130983
0.0130981
0.0130981
0.0130982
0.0130985
0.013099
0.0130996
0.0131004
0.0131014
0.0131027
0.0131042
0.0131062
0.0131086
0.0131115
0.013115
0.0131194
0.0131248
0.0131316
0.01314
0.0131506
0.0131642
0.0131815
0.013204
0.0132336
0.0132725
0.0133259
0.0133953
0.0135013
0.0136146
0.0138541
0.0140119
0.295402
0.155664
0.0893083
0.0549886
0.0362316
0.0256709
0.0196936
0.0163952
0.0146763
0.0138362
0.0134489
0.0132792
0.0132053
0.0131703
0.0131509
0.0131382
0.0131292
0.0131224
0.0131171
0.0131129
0.0131096
0.0131069
0.0131048
0.0131031
0.0131017
0.0131006
0.0130997
0.0130991
0.0130986
0.0130983
0.0130981
0.0130981
0.0130982
0.0130985
0.013099
0.0130996
0.0131004
0.0131014
0.0131027
0.0131042
0.0131062
0.0131085
0.0131114
0.013115
0.0131194
0.0131248
0.0131316
0.01314
0.0131507
0.0131642
0.0131816
0.013204
0.0132336
0.0132726
0.013326
0.0133954
0.0135013
0.0136146
0.0138537
0.0140112
0.295386
0.155739
0.089439
0.0551306
0.0363599
0.0257756
0.0197716
0.0164467
0.0147058
0.0138514
0.0134563
0.0132828
0.0132071
0.0131712
0.0131513
0.0131385
0.0131294
0.0131225
0.0131172
0.013113
0.0131096
0.013107
0.0131048
0.0131031
0.0131017
0.0131006
0.0130997
0.0130991
0.0130986
0.0130983
0.0130981
0.0130981
0.0130982
0.0130985
0.0130989
0.0130996
0.0131004
0.0131014
0.0131027
0.0131042
0.0131062
0.0131085
0.0131114
0.013115
0.0131194
0.0131248
0.0131316
0.01314
0.0131507
0.0131642
0.0131816
0.0132041
0.0132337
0.0132726
0.013326
0.0133955
0.0135014
0.0136146
0.0138534
0.0140106
0.295371
0.155809
0.0895615
0.0552642
0.036481
0.0258749
0.0198462
0.0164965
0.0147346
0.0138663
0.0134637
0.0132863
0.0132088
0.0131721
0.0131518
0.0131388
0.0131295
0.0131226
0.0131172
0.013113
0.0131096
0.013107
0.0131048
0.0131031
0.0131017
0.0131006
0.0130997
0.013099
0.0130986
0.0130983
0.0130981
0.0130981
0.0130982
0.0130985
0.0130989
0.0130996
0.0131004
0.0131014
0.0131027
0.0131042
0.0131062
0.0131085
0.0131114
0.013115
0.0131194
0.0131248
0.0131316
0.01314
0.0131507
0.0131642
0.0131816
0.0132041
0.0132337
0.0132727
0.0133261
0.0133955
0.0135014
0.0136147
0.0138531
0.0140103
0.295358
0.155874
0.0896763
0.0553898
0.0365951
0.0259689
0.0199174
0.0165444
0.0147626
0.0138809
0.0134708
0.0132898
0.0132106
0.013173
0.0131523
0.0131391
0.0131297
0.0131227
0.0131173
0.013113
0.0131097
0.013107
0.0131048
0.0131031
0.0131017
0.0131006
0.0130997
0.013099
0.0130986
0.0130983
0.0130981
0.0130981
0.0130982
0.0130985
0.0130989
0.0130995
0.0131004
0.0131014
0.0131026
0.0131042
0.0131062
0.0131085
0.0131114
0.013115
0.0131194
0.0131248
0.0131316
0.01314
0.0131507
0.0131642
0.0131816
0.0132041
0.0132337
0.0132727
0.0133261
0.0133956
0.0135014
0.0136147
0.0138529
0.0140101
0.295346
0.155935
0.0897838
0.0555077
0.0367026
0.026058
0.0199854
0.0165907
0.0147898
0.0138952
0.0134779
0.0132932
0.0132123
0.0131739
0.0131528
0.0131393
0.0131298
0.0131228
0.0131173
0.0131131
0.0131097
0.013107