/*--------------------------------*- C++ -*----------------------------------*\
| =========                 |                                                 |
| \\      /  F ield         | OpenFOAM: The Open Source CFD Toolbox           |
|  \\    /   O peration     | Version:  2.4.0                                 |
|   \\  /    A nd           | Web:      www.OpenFOAM.org                      |
|    \\/     M anipulation  |                                                 |
\*---------------------------------------------------------------------------*/
FoamFile
{
    version     2.0;
    format      ascii;
    class       volScalarField;
    location    "1";
    object      p;
}
// * * * * * * * * * * * * * * * * * * * * * * * * * * * * * * * * * * * * * //

dimensions      [0 2 -2 0 0 0 0];

internalField   nonuniform List<scalar> 
400
(
0.491452
0.467222
0.45289
0.447909
0.447393
0.446908
0.445365
0.442768
0.439639
0.435952
0.431684
0.42617
0.420173
0.409624
0.397493
0.375858
0.353153
0.304503
0.230254
0.114298
0.394133
0.397034
0.400176
0.40153
0.402755
0.403271
0.403132
0.401701
0.399914
0.397004
0.393906
0.389037
0.381806
0.37398
0.359335
0.343383
0.31202
0.26993
0.194419
0.0936015
0.379908
0.388513
0.389361
0.387679
0.386501
0.386198
0.384892
0.383244
0.380343
0.377379
0.373055
0.367803
0.360057
0.350581
0.335601
0.316053
0.285584
0.241881
0.17325
0.0811284
0.354129
0.357373
0.356532
0.354985
0.353962
0.353553
0.352032
0.35037
0.347311
0.344405
0.339769
0.335108
0.327115
0.3182
0.303102
0.28435
0.254323
0.212445
0.149935
0.0664462
0.327145
0.328691
0.327943
0.326752
0.325564
0.32488
0.323021
0.32116
0.317695
0.314675
0.309322
0.304459
0.295881
0.286785
0.271495
0.252965
0.223723
0.184474
0.127475
0.0543536
0.299497
0.300159
0.299153
0.297802
0.296276
0.295144
0.292967
0.290787
0.287163
0.283806
0.27836
0.273189
0.264529
0.255252
0.240212
0.222106
0.194284
0.158333
0.106886
0.044292
0.271174
0.271316
0.270044
0.268431
0.266555
0.264966
0.262478
0.259957
0.256164
0.25249
0.247011
0.241571
0.233067
0.223773
0.20938
0.192081
0.166303
0.133984
0.0884738
0.035918
0.242012
0.241805
0.240361
0.23855
0.236385
0.234387
0.231613
0.228761
0.224806
0.22087
0.215383
0.209788
0.201585
0.192505
0.179069
0.162971
0.139736
0.111256
0.0721047
0.0285704
0.21194
0.211499
0.209955
0.208016
0.205629
0.20329
0.200268
0.197127
0.193043
0.188914
0.183484
0.177876
0.170114
0.161496
0.149286
0.134753
0.114456
0.0900056
0.0574074
0.0219805
0.180922
0.180331
0.178719
0.176685
0.174121
0.171508
0.168281
0.164913
0.160749
0.156517
0.151233
0.145772
0.138603
0.1307
0.119966
0.107339
0.0903055
0.0700672
0.0440564
0.0160292
0.148921
0.148247
0.146576
0.144448
0.14172
0.138888
0.1355
0.131978
0.127794
0.123568
0.118529
0.11339
0.106969
0.100039
0.0910164
0.0806223
0.067115
0.0512662
0.031794
0.0106491
0.115883
0.115193
0.113458
0.111217
0.108307
0.105301
0.101792
0.0982
0.0940647
0.0899661
0.0852781
0.0806411
0.0751259
0.0694256
0.0623346
0.0544832
0.0447143
0.0334385
0.0204205
0.00580857
0.0817388
0.0811103
0.0792962
0.0769
0.0737703
0.0706343
0.0670455
0.0634789
0.059466
0.0556262
0.0513975
0.0474457
0.042986
0.0387665
0.0338028
0.0287839
0.0229255
0.0164206
0.00974212
0.00148218
0.0464025
0.0459265
0.0439923
0.0413779
0.037978
0.0347779
0.0311662
0.0277409
0.0239302
0.020489
0.0168229
0.0137327
0.0104628
0.00795154
0.00527691
0.00334578
0.00153146
1.10365e-05
-0.000500288
-0.00240341
0.00979324
0.0095611
0.00741093
0.00445682
0.000714308
-0.00243448
-0.00597055
-0.0090991
-0.0126162
-0.0155118
-0.0185231
-0.0206019
-0.0225712
-0.0231971
-0.0234662
-0.0221067
-0.0197807
-0.016101
-0.0106602
-0.00610769
-0.0281166
-0.0280292
-0.0305189
-0.034055
-0.0383298
-0.0413183
-0.0446517
-0.0473115
-0.0504422
-0.0526627
-0.0549395
-0.0559115
-0.0564838
-0.0550983
-0.0528645
-0.0480392
-0.0414427
-0.0323645
-0.021138
-0.0100338
-0.0676405
-0.0669557
-0.0696125
-0.0739728
-0.0791264
-0.0820228
-0.0851531
-0.0872884
-0.0900366
-0.0915402
-0.0930436
-0.0928295
-0.0919403
-0.0883172
-0.0834393
-0.0748567
-0.0636773
-0.0488554
-0.0317852
-0.014219
-0.112528
-0.107018
-0.109076
-0.114168
-0.120194
-0.123511
-0.127193
-0.129058
-0.13195
-0.132726
-0.133674
-0.131748
-0.129494
-0.122807
-0.115052
-0.102044
-0.0857794
-0.0643823
-0.0404264
-0.0170271
-0.178027
-0.164857
-0.157976
-0.156644
-0.157571
-0.157094
-0.157961
-0.158118
-0.159507
-0.159591
-0.159798
-0.157909
-0.154397
-0.148075
-0.138704
-0.12433
-0.104519
-0.0780692
-0.0465366
-0.016304
-0.150099
-0.187414
-0.211825
-0.223816
-0.22973
-0.233657
-0.235628
-0.237708
-0.238274
-0.238533
-0.236435
-0.232948
-0.225868
-0.216065
-0.200112
-0.179382
-0.151129
-0.116647
-0.0745821
-0.0296103
)
;

boundaryField
{
    inlet
    {
        type            zeroGradient;
    }
    outlet
    {
        type            fixedValue;
        value           uniform 0;
    }
    fixedWalls
    {
        type            zeroGradient;
    }
    frontAndBack
    {
        type            empty;
    }
}


// ************************************************************************* //
