/*--------------------------------*- C++ -*----------------------------------*\
| =========                 |                                                 |
| \\      /  F ield         | OpenFOAM: The Open Source CFD Toolbox           |
|  \\    /   O peration     | Version:  2.4.0                                 |
|   \\  /    A nd           | Web:      www.OpenFOAM.org                      |
|    \\/     M anipulation  |                                                 |
\*---------------------------------------------------------------------------*/
FoamFile
{
    version     2.0;
    format      ascii;
    class       volScalarField;
    location    "3.54";
    object      p;
}
// * * * * * * * * * * * * * * * * * * * * * * * * * * * * * * * * * * * * * //

dimensions      [0 2 -2 0 0 0 0];

internalField   nonuniform List<scalar> 
6000
(
-0.150395
0.206457
0.163709
0.183563
0.176185
0.180998
0.178083
0.180194
0.179024
0.179772
0.178659
0.177764
0.175769
0.174115
0.173232
0.174554
0.17792
0.180907
0.179148
0.173866
0.175936
0.182959
0.181925
0.170169
0.15242
0.137658
0.126698
0.119296
0.11479
0.113109
0.114256
0.118454
0.125883
0.136815
0.151441
0.169896
0.192192
0.218176
0.247466
0.279352
0.312643
0.345492
0.37534
0.399121
0.413545
0.416014
0.4054
0.382966
0.351906
0.316811
0.281575
0.250046
0.222166
0.200909
0.179508
0.166464
0.138597
0.131456
0.0678585
0.0798407
-0.124056
0.203042
0.163784
0.183411
0.176205
0.180981
0.178089
0.180186
0.17904
0.179809
0.178733
0.177862
0.175863
0.174152
0.173137
0.174245
0.177346
0.180132
0.178472
0.173628
0.175999
0.183256
0.182772
0.171139
0.15306
0.138011
0.126897
0.119382
0.114762
0.112969
0.114013
0.118061
0.125451
0.13632
0.150882
0.169273
0.191501
0.217408
0.246601
0.278362
0.31149
0.344134
0.373742
0.397314
0.411538
0.413834
0.403104
0.380637
0.349632
0.314667
0.279595
0.248177
0.220793
0.199767
0.178582
0.165611
0.137806
0.130405
0.0668956
0.0784392
-0.107168
0.199588
0.163813
0.183319
0.176213
0.180972
0.178089
0.180186
0.179055
0.179853
0.178804
0.177961
0.175957
0.174196
0.173052
0.173927
0.176729
0.179299
0.177744
0.173368
0.176058
0.183516
0.183439
0.171839
0.153609
0.138473
0.127261
0.119624
0.114874
0.112951
0.113868
0.117835
0.125045
0.135772
0.150195
0.168446
0.190528
0.21628
0.245302
0.276871
0.309781
0.342183
0.371535
0.39488
0.408923
0.41111
0.400375
0.378021
0.347237
0.312574
0.277861
0.24694
0.219615
0.198836
0.177779
0.164976
0.137087
0.129855
0.065966
0.0779268
-0.0949444
0.195735
0.164024
0.183236
0.176212
0.180963
0.178088
0.180188
0.17907
0.179897
0.178871
0.178055
0.176041
0.17423
0.172957
0.173618
0.176156
0.178569
0.177121
0.173118
0.176064
0.183678
0.183844
0.172187
0.153935
0.138855
0.127599
0.119861
0.114982
0.112926
0.113704
0.117533
0.124603
0.13518
0.149455
0.167557
0.18949
0.215087
0.243945
0.275336
0.308055
0.340255
0.369401
0.392525
0.406379
0.408434
0.397655
0.375368
0.34476
0.310369
0.275969
0.245313
0.218303
0.197821
0.176912
0.164332
0.136335
0.129348
0.0649646
0.0775444
-0.0831365
0.191609
0.164406
0.183155
0.176209
0.18095
0.178087
0.18019
0.179083
0.179938
0.178931
0.178137
0.176112
0.174253
0.172859
0.173328
0.175649
0.177963
0.176632
0.172903
0.176024
0.183732
0.184008
0.172231
0.154043
0.139104
0.127845
0.120028
0.115036
0.112857
0.113503
0.117195
0.124134
0.134574
0.148714
0.166685
0.188487
0.213952
0.242675
0.273925
0.306497
0.338544
0.36753
0.39046
0.404131
0.406032
0.395159
0.372869
0.342361
0.308171
0.274027
0.243654
0.21693
0.196745
0.175988
0.163663
0.135542
0.128864
0.0639042
0.0772905
-0.0715512
0.187372
0.164913
0.18306
0.176215
0.180934
0.178087
0.18019
0.179096
0.179975
0.178984
0.17821
0.176175
0.174268
0.172758
0.173051
0.175187
0.17744
0.176244
0.17273
0.175961
0.183705
0.183979
0.172042
0.153994
0.139244
0.128003
0.120126
0.115035
0.112743
0.113266
0.116831
0.123644
0.133959
0.147977
0.165831
0.187519
0.212872
0.241483
0.272618
0.305074
0.337
0.365854
0.388619
0.402121
0.403861
0.392864
0.370522
0.340059
0.306017
0.272093
0.241997
0.215536
0.195645
0.175038
0.162987
0.134732
0.128414
0.0628219
0.0771542
-0.0608099
0.183124
0.165451
0.182936
0.176233
0.180914
0.178087
0.18019
0.179108
0.180009
0.179034
0.178278
0.176231
0.174277
0.172655
0.17278
0.174751
0.17697
0.175928
0.172601
0.1759
0.183624
0.183798
0.171678
0.153836
0.1393
0.128093
0.12017
0.11499
0.112592
0.112999
0.116444
0.123137
0.133334
0.147238
0.164982
0.186566
0.211819
0.24033
0.271368
0.303725
0.335553
0.364292
0.386915
0.400262
0.401841
0.390703
0.368281
0.337827
0.303902
0.270172
0.240341
0.214132
0.194535
0.174079
0.162316
0.133923
0.128005
0.0617428
0.0771221
-0.0509696
0.178939
0.165948
0.182795
0.176258
0.180892
0.178088
0.180189
0.179121
0.180043
0.179082
0.178342
0.176283
0.174282
0.172549
0.172512
0.174329
0.176533
0.175666
0.172522
0.17587
0.183504
0.1835
0.171192
0.153605
0.139293
0.128131
0.12017
0.114908
0.11241
0.112707
0.116036
0.122612
0.132695
0.14649
0.16413
0.185615
0.210774
0.239194
0.270143
0.302415
0.334158
0.362796
0.385297
0.3985
0.399918
0.388627
0.366103
0.335635
0.301803
0.268252
0.238675
0.212716
0.193419
0.173119
0.161656
0.133125
0.127634
0.0606803
0.0771791
-0.0418004
0.174878
0.166354
0.182649
0.176277
0.18087
0.17809
0.180188
0.179134
0.180075
0.179129
0.178405
0.176333
0.174285
0.172441
0.172244
0.173917
0.176119
0.175452
0.172497
0.175888
0.183376
0.183122
0.170626
0.153324
0.139238
0.128126
0.120136
0.114797
0.112204
0.112392
0.115609
0.122071
0.132043
0.14573
0.163269
0.184659
0.209727
0.23806
0.268927
0.301122
0.332792
0.361341
0.383733
0.3968
0.398056
0.386601
0.363958
0.333456
0.299702
0.266319
0.236991
0.211286
0.192293
0.172157
0.161006
0.132343
0.127302
0.0596423
0.0773144
-0.0331476
0.170982
0.166648
0.182501
0.176293
0.18085
0.178093
0.180186
0.179148
0.180107
0.179175
0.178465
0.176382
0.174285
0.172332
0.171977
0.173508
0.175721
0.17528
0.172533
0.175968
0.183264
0.182698
0.170017
0.153017
0.139147
0.128089
0.120073
0.114662
0.111976
0.112059
0.115165
0.121514
0.131376
0.144958
0.162397
0.183692
0.208671
0.23692
0.267709
0.299833
0.331435
0.359906
0.382199
0.395135
0.396228
0.384598
0.36182
0.331269
0.297581
0.264362
0.235282
0.209837
0.191157
0.171194
0.160368
0.13158
0.127009
0.0586337
0.0775202
-0.0249586
0.167272
0.166823
0.182331
0.17633
0.180832
0.178099
0.180184
0.179162
0.180139
0.179222
0.178526
0.17643
0.174286
0.172222
0.171708
0.173101
0.175332
0.175142
0.172638
0.176127
0.183188
0.182258
0.169397
0.1527
0.139033
0.128028
0.119989
0.114509
0.111732
0.111711
0.114707
0.120944
0.130696
0.144172
0.16151
0.182711
0.2076
0.235766
0.266478
0.298536
0.330074
0.358473
0.380674
0.393484
0.394409
0.382595
0.359669
0.329056
0.295427
0.26237
0.233543
0.208366
0.19001
0.170232
0.159742
0.130838
0.126752
0.057658
0.0777908
-0.0172048
0.163764
0.166883
0.182138
0.176397
0.180814
0.178108
0.180183
0.179178
0.180172
0.17927
0.178587
0.176479
0.174286
0.172113
0.17144
0.172694
0.174947
0.175032
0.172813
0.176375
0.183166
0.181828
0.168791
0.152388
0.138907
0.127953
0.11989
0.114343
0.111476
0.111351
0.114237
0.120363
0.130005
0.143373
0.16061
0.181714
0.206513
0.234594
0.265229
0.297223
0.328698
0.357031
0.379143
0.391827
0.39258
0.380572
0.357486
0.326803
0.293229
0.260335
0.231769
0.206871
0.188849
0.16927
0.159129
0.130119
0.126534
0.0567172
0.0781215
-0.00985074
0.160466
0.166835
0.181911
0.176496
0.18079
0.178122
0.180182
0.179195
0.180204
0.17932
0.17865
0.17653
0.174289
0.172006
0.171173
0.172286
0.174563
0.174946
0.173058
0.176721
0.183215
0.181433
0.16822
0.152095
0.138778
0.127869
0.119783
0.114168
0.111212
0.110983
0.11376
0.119773
0.129302
0.142562
0.159695
0.180701
0.205407
0.233401
0.263957
0.295886
0.327297
0.355567
0.377593
0.390148
0.390723
0.378511
0.355255
0.324495
0.290975
0.258251
0.229953
0.205347
0.187673
0.168308
0.158529
0.129425
0.126353
0.0558126
0.0785086
-0.00286166
0.157385
0.166689
0.181644
0.176627
0.180753
0.178143
0.180182
0.179214
0.180238
0.179371
0.178714
0.176583
0.174293
0.171901
0.170908
0.171878
0.174178
0.174878
0.173371
0.177169
0.183348
0.181092
0.167703
0.151831
0.138655
0.127786
0.119673
0.11399
0.110945
0.110612
0.113277
0.119176
0.128592
0.141741
0.158767
0.179671
0.204281
0.232184
0.262659
0.294522
0.325868
0.354075
0.376012
0.388436
0.388825
0.376397
0.352961
0.32212
0.288656
0.25611
0.228093
0.203793
0.186482
0.167346
0.157942
0.128756
0.126209
0.0549448
0.0789487
0.00379032
0.154523
0.166456
0.181333
0.176773
0.180714
0.178168
0.180186
0.179235
0.180273
0.179424
0.178779
0.176639
0.174301
0.171802
0.170647
0.17147
0.173791
0.174824
0.173745
0.177717
0.183573
0.180821
0.167252
0.151605
0.138547
0.127708
0.119566
0.113813
0.110677
0.110239
0.112792
0.118575
0.127876
0.140911
0.157828
0.178627
0.203136
0.230945
0.261335
0.293126
0.324406
0.352547
0.374392
0.386678
0.386872
0.374217
0.350593
0.319668
0.286264
0.253905
0.226183
0.202207
0.185274
0.166383
0.157368
0.128114
0.126103
0.0541143
0.0794394
0.0101269
0.151877
0.166147
0.180979
0.176921
0.180682
0.178193
0.180193
0.179259
0.180309
0.179479
0.178847
0.176698
0.174313
0.171708
0.170393
0.171067
0.173404
0.174782
0.174176
0.178356
0.183894
0.180631
0.166879
0.151425
0.138459
0.127642
0.119465
0.113642
0.110413
0.109869
0.112308
0.117974
0.127157
0.140076
0.156879
0.177569
0.201974
0.229683
0.259984
0.291697
0.322909
0.350978
0.372725
0.384865
0.384851
0.371958
0.348137
0.317127
0.283791
0.251632
0.224221
0.200586
0.184049
0.165421
0.156808
0.127499
0.126033
0.0533211
0.0799782
0.0161667
0.149445
0.165775
0.180584
0.177061
0.180658
0.178221
0.180204
0.179288
0.180347
0.179537
0.178917
0.17676
0.17433
0.171621
0.170148
0.170669
0.173017
0.174749
0.174655
0.179076
0.18431
0.18053
0.166592
0.151297
0.1384
0.127593
0.119376
0.113479
0.110156
0.109504
0.111829
0.117375
0.126437
0.139237
0.155924
0.1765
0.200795
0.2284
0.258608
0.290236
0.321375
0.349364
0.371005
0.382988
0.382752
0.369607
0.345582
0.314489
0.281228
0.249286
0.222203
0.198929
0.182805
0.164458
0.156262
0.126911
0.126001
0.0525649
0.0805636
0.0219261
0.147221
0.165355
0.18015
0.177188
0.180641
0.178253
0.18022
0.179321
0.180389
0.179598
0.17899
0.176827
0.174352
0.171543
0.169914
0.170282
0.172635
0.174723
0.175175
0.179863
0.184817
0.180524
0.166396
0.151225
0.138373
0.127566
0.119302
0.113329
0.10991
0.109149
0.111357
0.116781
0.125721
0.138398
0.154964
0.175423
0.199604
0.227099
0.257206
0.288744
0.319802
0.347704
0.369227
0.381038
0.380565
0.367154
0.342918
0.311744
0.278571
0.246862
0.220126
0.197234
0.181542
0.163496
0.15573
0.126352
0.126006
0.0518456
0.0811939
0.0274202
0.145198
0.164896
0.179684
0.177298
0.180631
0.178297
0.180239
0.17936
0.180434
0.179662
0.179065
0.176898
0.174381
0.171475
0.169694
0.169909
0.17226
0.174703
0.175728
0.180701
0.185403
0.180613
0.166293
0.151214
0.138383
0.127564
0.119248
0.113194
0.109678
0.108806
0.110895
0.116196
0.12501
0.137561
0.154004
0.174341
0.198402
0.225782
0.255782
0.287223
0.318192
0.345994
0.367386
0.379009
0.37828
0.364587
0.340134
0.308883
0.275812
0.244355
0.217989
0.1955
0.18026
0.162533
0.155213
0.125822
0.126048
0.0511627
0.081868
0.0326625
0.143369
0.164412
0.179192
0.177385
0.180623
0.17836
0.180253
0.179405
0.180485
0.179732
0.179144
0.176974
0.174417
0.171419
0.16949
0.169554
0.171897
0.17469
0.176304
0.181572
0.186058
0.180797
0.166286
0.151266
0.138434
0.127592
0.119216
0.113079
0.109463
0.108479
0.110447
0.115622
0.124308
0.136731
0.153046
0.173257
0.197193
0.224453
0.254337
0.285675
0.316546
0.344235
0.365479
0.376894
0.375887
0.361896
0.337219
0.305899
0.272945
0.241763
0.215789
0.193727
0.178959
0.16157
0.154711
0.12532
0.126129
0.0505158
0.082585
0.0376656
0.141724
0.163912
0.17868
0.177447
0.180613
0.178441
0.180267
0.179453
0.180542
0.179807
0.179227
0.177054
0.17446
0.171376
0.169306
0.169221
0.17155
0.174682
0.176894
0.182462
0.186765
0.181072
0.166373
0.151382
0.13853
0.127652
0.11921
0.112987
0.109268
0.108169
0.110015
0.115062
0.123618
0.13591
0.152094
0.172174
0.195981
0.223114
0.252877
0.284103
0.314863
0.342425
0.363503
0.374686
0.373377
0.35907
0.334165
0.302783
0.269966
0.239081
0.213523
0.191913
0.177638
0.160608
0.154225
0.124849
0.126247
0.0499045
0.0833442
0.042441
0.140255
0.163406
0.178154
0.177484
0.1806
0.178537
0.180284
0.179507
0.180606
0.179889
0.179315
0.17714
0.174511
0.171346
0.169143
0.168914
0.171223
0.17468
0.177492
0.183356
0.18751
0.181431
0.166552
0.151562
0.138671
0.127748
0.119233
0.112919
0.109095
0.107881
0.109603
0.114521
0.122944
0.135102
0.151151
0.171097
0.19477
0.22177
0.251404
0.282511
0.313147
0.340565
0.361455
0.372381
0.370744
0.3561
0.330961
0.299529
0.266869
0.236308
0.211192
0.190057
0.176297
0.159646
0.153756
0.124408
0.126405
0.0493282
0.0841451
0.0469998
0.138953
0.162901
0.177621
0.177494
0.180581
0.178644
0.180309
0.179562
0.180675
0.179979
0.17941
0.177232
0.17457
0.17133
0.169002
0.168634
0.170918
0.174682
0.178089
0.184241
0.188276
0.181865
0.166818
0.151807
0.13886
0.127881
0.119287
0.112879
0.108948
0.107616
0.109212
0.114
0.122289
0.13431
0.150222
0.170029
0.193564
0.220424
0.249924
0.280901
0.311401
0.338657
0.359335
0.369975
0.367979
0.352977
0.327599
0.296129
0.263651
0.23344
0.208795
0.18816
0.174938
0.158685
0.153304
0.123997
0.126601
0.0487864
0.0849875
0.0513525
0.137808
0.162405
0.177087
0.177479
0.180554
0.178762
0.180343
0.17962
0.180745
0.180081
0.17951
0.17733
0.174637
0.17133
0.168886
0.168386
0.170639
0.174689
0.178677
0.185106
0.189047
0.182364
0.167167
0.152114
0.139098
0.128053
0.119374
0.112869
0.108829
0.107378
0.108848
0.113502
0.121655
0.133538
0.149309
0.168975
0.192366
0.219082
0.24844
0.279278
0.309627
0.336701
0.357142
0.367463
0.365076
0.349693
0.324072
0.292579
0.260307
0.230478
0.20633
0.186222
0.173561
0.157725
0.15287
0.123618
0.126837
0.0482785
0.0858712
0.0555091
0.136811
0.161924
0.176558
0.177442
0.180519
0.178886
0.180387
0.179686
0.180815
0.180192
0.179619
0.177436
0.174714
0.171345
0.168794
0.16817
0.170388
0.1747
0.17925
0.185944
0.18981
0.182918
0.167591
0.15248
0.139385
0.128265
0.119496
0.112891
0.108739
0.107168
0.10851
0.113032
0.121047
0.132789
0.148417
0.167937
0.191181
0.217749
0.246958
0.277645
0.307829
0.3347
0.354877
0.364845
0.362031
0.346243
0.320376
0.288875
0.256838
0.227419
0.203799
0.184243
0.172165
0.156767
0.152454
0.123269
0.127113
0.0478041
0.0867963
0.0594793
0.135951
0.161462
0.176037
0.177385
0.180475
0.179015
0.180439
0.179762
0.180884
0.18031
0.179739
0.177552
0.1748
0.171376
0.168728
0.167989
0.170166
0.174715
0.179802
0.186747
0.190554
0.183515
0.16808
0.152902
0.13972
0.128519
0.119654
0.112946
0.108682
0.10699
0.108204
0.112591
0.120467
0.132066
0.147549
0.166922
0.190015
0.216428
0.245481
0.276008
0.306011
0.332657
0.35254
0.362119
0.358841
0.342624
0.316506
0.285014
0.253241
0.224266
0.201203
0.182224
0.170754
0.155811
0.152059
0.122953
0.12743
0.0473625
0.0877629
0.0632722
0.135221
0.161022
0.17553
0.177312
0.180425
0.179147
0.1805
0.17985
0.180952
0.18043
0.179869
0.177677
0.174897
0.171422
0.168688
0.167841
0.169975
0.174733
0.180327
0.18751
0.191269
0.184143
0.168624
0.153378
0.140103
0.128814
0.119851
0.113037
0.108659
0.106845
0.10793
0.112182
0.119919
0.131374
0.14671
0.165932
0.18887
0.215124
0.244015
0.274372
0.304178
0.330576
0.350134
0.359286
0.355507
0.338835
0.312464
0.280999
0.249521
0.221021
0.198544
0.180167
0.169327
0.154859
0.151685
0.122668
0.127789
0.046953
0.0887714
0.0668969
0.134611
0.160607
0.17504
0.177225
0.180368
0.179278
0.180569
0.179951
0.181021
0.18055
0.180008
0.177814
0.175006
0.171485
0.168674
0.16773
0.169816
0.174753
0.18082
0.188227
0.191948
0.184777
0.169223
0.153907
0.140532
0.129152
0.120086
0.113165
0.108672
0.106736
0.107691
0.111808
0.119405
0.130716
0.145903
0.164972
0.187753
0.213843
0.242565
0.272741
0.302333
0.328461
0.347662
0.356349
0.352031
0.334881
0.308256
0.276836
0.245681
0.217687
0.195826
0.178074
0.167887
0.15391
0.151333
0.122416
0.12819
0.0465752
0.0898221
0.0703618
0.134112
0.16022
0.174569
0.17713
0.180308
0.179408
0.180646
0.180065
0.181094
0.180666
0.180155
0.177964
0.175127
0.171565
0.168684
0.167654
0.169688
0.174777
0.181277
0.188895
0.192586
0.185413
0.169862
0.154484
0.141008
0.129532
0.12036
0.113332
0.108723
0.106665
0.107491
0.111472
0.118929
0.130095
0.145133
0.164047
0.186668
0.21259
0.241135
0.27112
0.300483
0.326317
0.345129
0.353312
0.348417
0.330768
0.30389
0.272535
0.24173
0.214272
0.193053
0.175948
0.166436
0.152965
0.151003
0.122197
0.128634
0.0462283
0.0909157
0.073675
0.133716
0.159862
0.174122
0.177028
0.180245
0.179537
0.180729
0.180192
0.181174
0.180779
0.180303
0.178127
0.175262
0.171663
0.168719
0.167613
0.169594
0.174804
0.181696
0.18951
0.19318
0.186041
0.17053
0.155105
0.141527
0.129953
0.120675
0.113537
0.108813
0.106633
0.10733
0.111177
0.118493
0.129514
0.144402
0.163161
0.185618
0.211368
0.239731
0.269515
0.298633
0.324148
0.34254
0.35018
0.344675
0.326508
0.299382
0.26811
0.237683
0.210785
0.190233
0.173794
0.164977
0.152026
0.150699
0.12201
0.129121
0.0459118
0.0920526
0.0768444
0.133416
0.159533
0.173698
0.176924
0.180183
0.179663
0.180818
0.18033
0.181262
0.180892
0.180449
0.1783
0.175413
0.171779
0.168779
0.167604
0.169535
0.174834
0.182074
0.19007
0.193729
0.186656
0.171222
0.155764
0.142087
0.130416
0.12103
0.113783
0.108944
0.106642
0.107212
0.110925
0.118102
0.128978
0.143715
0.162318
0.18461
0.210184
0.238359
0.267931
0.296787
0.321962
0.339902
0.346962
0.340814
0.322116
0.29475
0.263581
0.233554
0.207237
0.187374
0.171614
0.163513
0.151094
0.15042
0.121856
0.129654
0.0456249
0.0932337
0.0798773
0.133203
0.159235
0.1733
0.176819
0.180123
0.179788
0.180912
0.180479
0.181359
0.181006
0.18059
0.178481
0.175578
0.171914
0.168864
0.167627
0.169512
0.17487
0.18241
0.190574
0.194234
0.18725
0.171928
0.156455
0.142686
0.130919
0.121425
0.11407
0.109116
0.106695
0.107137
0.110718
0.117757
0.128489
0.143077
0.161522
0.183647
0.209042
0.237023
0.266375
0.294953
0.319763
0.337221
0.343666
0.336846
0.317609
0.290016
0.258971
0.229365
0.203645
0.184486
0.169417
0.162047
0.15017
0.150168
0.121734
0.130232
0.0453669
0.0944597
0.0827807
0.133072
0.158966
0.172928
0.176718
0.180067
0.179912
0.181012
0.180638
0.181467
0.181126
0.180725
0.178665
0.175758
0.172068
0.168973
0.167679
0.169522
0.174915
0.182704
0.191019
0.194697
0.187818
0.172643
0.157174
0.143321
0.13146
0.12186
0.114398
0.109331
0.106791
0.107109
0.110559
0.117461
0.128051
0.142489
0.160777
0.182733
0.207947
0.235729
0.264851
0.293136
0.317559
0.334505
0.340303
0.332787
0.313008
0.285203
0.254305
0.225138
0.200024
0.181581
0.167208
0.160585
0.149256
0.149945
0.121646
0.130857
0.0451372
0.0957314
0.0855614
0.133015
0.158728
0.172584
0.176621
0.180018
0.180036
0.181117
0.180805
0.181584
0.181253
0.180855
0.178847
0.17595
0.172243
0.169108
0.167763
0.169561
0.174976
0.182955
0.191405
0.19512
0.188357
0.173359
0.157914
0.143988
0.132038
0.122335
0.114768
0.10959
0.106934
0.107129
0.11045
0.117218
0.127667
0.141957
0.160087
0.181874
0.206903
0.234483
0.263365
0.291343
0.315357
0.331763
0.336884
0.328653
0.308332
0.280337
0.249609
0.220896
0.196395
0.178671
0.164996
0.15913
0.148353
0.149752
0.12159
0.131529
0.0449349
0.0970497
0.0882255
0.133026
0.158519
0.172266
0.176532
0.179977
0.180163
0.181228
0.18098
0.181713
0.181388
0.180983
0.179026
0.176152
0.172437
0.169269
0.167877
0.169628
0.175052
0.183168
0.191733
0.195501
0.188864
0.174071
0.158672
0.144685
0.132652
0.122849
0.11518
0.109893
0.107124
0.107198
0.110394
0.117029
0.127339
0.141483
0.159457
0.181074
0.205916
0.233288
0.261924
0.289579
0.313164
0.329004
0.33342
0.324459
0.303605
0.275442
0.244906
0.216663
0.192775
0.175771
0.162789
0.157689
0.147464
0.14959
0.121566
0.132249
0.0447592
0.0984156
0.090779
0.133099
0.158338
0.171975
0.176451
0.179945
0.180292
0.181347
0.181162
0.181851
0.181533
0.181112
0.1792
0.176359
0.17265
0.169456
0.168023
0.169725
0.175141
0.183351
0.19201
0.195836
0.189339
0.174775
0.159442
0.145408
0.133301
0.123402
0.115635
0.110241
0.107362
0.107319
0.110392
0.116898
0.127072
0.141071
0.158889
0.180337
0.204991
0.232152
0.260533
0.28785
0.310986
0.326236
0.329924
0.320223
0.298848
0.270543
0.240223
0.212459
0.189182
0.172894
0.160596
0.156267
0.146591
0.149462
0.121575
0.133017
0.0446095
0.0998299
0.0932274
0.133229
0.158187
0.171712
0.17638
0.179923
0.180426
0.181474
0.181352
0.181999
0.181689
0.181246
0.17937
0.176568
0.172879
0.16967
0.168201
0.169852
0.175244
0.183513
0.192238
0.196119
0.189778
0.175465
0.160222
0.146156
0.133981
0.123993
0.116131
0.110636
0.107649
0.107492
0.110446
0.116827
0.126868
0.140725
0.158389
0.179667
0.204132
0.231079
0.259197
0.286164
0.308832
0.32347
0.32641
0.315963
0.294083
0.265665
0.23558
0.208305
0.185634
0.170054
0.158426
0.154869
0.145735
0.149368
0.121616
0.133835
0.0444849
0.101294
0.095576
0.133411
0.158062
0.171474
0.176319
0.179912
0.180564
0.18161
0.181548
0.182158
0.181855
0.181386
0.179538
0.176777
0.173122
0.169908
0.16841
0.17001
0.175361
0.183656
0.192419
0.19635
0.190181
0.176138
0.161006
0.146925
0.134693
0.124621
0.116669
0.111076
0.107987
0.10772
0.110559
0.116817
0.126729
0.140447
0.157959
0.179068
0.203344
0.230074
0.257922
0.284526
0.306709
0.320715
0.322891
0.311698
0.289333
0.26083
0.231
0.204217
0.182145
0.167262
0.156289
0.153502
0.144901
0.14931
0.121689
0.134703
0.0443844
0.102808
0.0978296
0.133641
0.157965
0.171262
0.17627
0.179913
0.180708
0.181757
0.181752
0.182325
0.182031
0.181534
0.179707
0.176984
0.173376
0.170172
0.168652
0.170202
0.175497
0.183786
0.192556
0.196529
0.190546
0.176791
0.161792
0.147713
0.135433
0.125285
0.11725
0.111564
0.108376
0.108004
0.110732
0.116873
0.126659
0.140241
0.157604
0.178545
0.202632
0.229143
0.256714
0.282943
0.304625
0.317981
0.319381
0.307447
0.284621
0.256061
0.226501
0.200212
0.178726
0.16453
0.154192
0.152171
0.144091
0.14929
0.121793
0.135622
0.0443074
0.104373
0.099993
0.133913
0.157894
0.171076
0.176233
0.179926
0.180859
0.181915
0.181964
0.182503
0.182218
0.181692
0.179882
0.177192
0.173639
0.170458
0.168926
0.170427
0.175654
0.183904
0.192652
0.196656
0.190871
0.177419
0.162575
0.148517
0.136201
0.125985
0.117872
0.112098
0.108817
0.108345
0.110967
0.116994
0.12666
0.14011
0.157326
0.178102
0.202
0.22829
0.255579
0.281419
0.302586
0.315279
0.315893
0.303227
0.279967
0.251379
0.222101
0.196303
0.175389
0.161865
0.152142
0.150881
0.143306
0.149309
0.121928
0.13659
0.0442529
0.10599
0.10207
0.134224
0.157849
0.170914
0.176208
0.179952
0.181017
0.182085
0.182186
0.182692
0.182415
0.181861
0.180064
0.177402
0.173908
0.170764
0.169231
0.170687
0.175836
0.184018
0.192711
0.196733
0.191155
0.17802
0.163352
0.149333
0.136995
0.12672
0.118535
0.11268
0.10931
0.108743
0.111265
0.117185
0.126734
0.140057
0.157131
0.177743
0.201453
0.227521
0.25452
0.279962
0.3006
0.312618
0.312443
0.299058
0.275393
0.246803
0.217815
0.1925
0.172141
0.159276
0.150146
0.149637
0.142551
0.149367
0.122093
0.137609
0.0442202
0.107659
0.104066
0.13457
0.157828
0.170776
0.176196
0.179989
0.181183
0.182266
0.182418
0.182892
0.182623
0.182042
0.180257
0.177619
0.174185
0.171088
0.169567
0.170982
0.176043
0.18413
0.192738
0.196762
0.191396
0.17859
0.164119
0.150161
0.137812
0.127487
0.119239
0.113309
0.109857
0.109201
0.111628
0.117446
0.126885
0.140086
0.15702
0.177472
0.200995
0.22684
0.253544
0.278576
0.298675
0.310008
0.309044
0.294958
0.270919
0.242351
0.213656
0.188812
0.16899
0.156767
0.14821
0.148443
0.141826
0.149466
0.122288
0.138679
0.0442083
0.109382
0.105983
0.134947
0.157831
0.170662
0.176197
0.180039
0.181356
0.182458
0.18266
0.183104
0.18284
0.182235
0.180461
0.177844
0.17447
0.171429
0.169931
0.171312
0.176279
0.184246
0.192738
0.196746
0.191593
0.179127
0.164873
0.150996
0.138652
0.128288
0.119984
0.113985
0.110458
0.109719
0.112058
0.11778
0.127115
0.140198
0.156998
0.177292
0.200631
0.226252
0.252655
0.277267
0.296817
0.30746
0.30571
0.290944
0.266562
0.238038
0.209634
0.185247
0.165939
0.154343
0.146337
0.147301
0.141134
0.149606
0.122511
0.139798
0.0442164
0.111158
0.107826
0.135353
0.157858
0.170571
0.17621
0.180102
0.181537
0.182663
0.182912
0.18333
0.18307
0.18244
0.180679
0.178082
0.174765
0.171785
0.170322
0.171676
0.176546
0.18437
0.192718
0.196689
0.191747
0.179627
0.165611
0.151836
0.139512
0.12912
0.12077
0.114709
0.111113
0.110298
0.112555
0.118189
0.127425
0.140397
0.157067
0.177208
0.200365
0.225762
0.251857
0.276039
0.295033
0.304983
0.302454
0.287034
0.26234
0.233877
0.205759
0.181809
0.162993
0.152006
0.14453
0.146216
0.140477
0.149787
0.122763
0.140966
0.0442439
0.112987
0.109597
0.135783
0.157907
0.170502
0.176236
0.180176
0.181726
0.182878
0.183175
0.18357
0.183311
0.182659
0.180912
0.178335
0.175074
0.172157
0.170736
0.172072
0.176843
0.184507
0.192682
0.196596
0.191857
0.180089
0.166327
0.152677
0.14039
0.129983
0.121594
0.11548
0.111823
0.110939
0.113122
0.118673
0.127819
0.140686
0.157232
0.177223
0.200201
0.225374
0.251154
0.274897
0.29333
0.302586
0.29929
0.283243
0.258268
0.22988
0.202035
0.178501
0.160153
0.149758
0.142793
0.14519
0.139857
0.150009
0.123042
0.142182
0.04429
0.11487
0.111301
0.136236
0.157977
0.170455
0.176275
0.180263
0.181922
0.183105
0.183448
0.183824
0.183566
0.182892
0.18116
0.178606
0.1754
0.172547
0.171174
0.172497
0.17717
0.18466
0.192637
0.196472
0.191925
0.180511
0.16702
0.153517
0.141284
0.130874
0.122458
0.116299
0.112588
0.111643
0.113758
0.119236
0.128298
0.141067
0.157494
0.177341
0.200143
0.225091
0.250551
0.273845
0.291713
0.300278
0.296231
0.279586
0.254361
0.226054
0.198467
0.175325
0.157419
0.147601
0.141126
0.144224
0.139275
0.150273
0.123348
0.143445
0.0443538
0.116807
0.11294
0.136708
0.158069
0.17043
0.176328
0.180362
0.182127
0.183342
0.183731
0.184092
0.183836
0.18314
0.181425
0.178896
0.175746
0.172956
0.171633
0.17295
0.177528
0.184832
0.192589
0.196323
0.191955
0.180892
0.167686
0.154351
0.142191
0.131794
0.12336
0.117165
0.113408
0.11241
0.114467
0.119878
0.128864
0.141543
0.157858
0.177565
0.200195
0.224917
0.250049
0.272887
0.290188
0.298067
0.293288
0.276079
0.250628
0.222408
0.195057
0.172281
0.154793
0.145534
0.139532
0.14332
0.138733
0.150577
0.123679
0.144752
0.0444348
0.118795
0.114517
0.137197
0.15818
0.170425
0.176393
0.180472
0.182339
0.183589
0.184024
0.184374
0.18412
0.183405
0.181708
0.179207
0.176114
0.173386
0.172115
0.173429
0.177912
0.185023
0.192542
0.196156
0.19195
0.181233
0.168323
0.155177
0.143109
0.132739
0.1243
0.118078
0.114284
0.113241
0.115247
0.120602
0.12952
0.142117
0.158326
0.177899
0.20036
0.224856
0.249651
0.272026
0.28876
0.295962
0.290474
0.272732
0.247081
0.218943
0.191805
0.169367
0.152272
0.143558
0.13801
0.142478
0.138231
0.150921
0.124035
0.146102
0.0445324
0.120835
0.116034
0.137701
0.158311
0.170441
0.176472
0.180595
0.182559
0.183846
0.184327
0.184669
0.184419
0.183687
0.182008
0.17954
0.176507
0.173841
0.172619
0.17393
0.178321
0.185234
0.192501
0.195977
0.191915
0.181535
0.168928
0.155991
0.144034
0.133707
0.125276
0.119037
0.115215
0.114136
0.116101
0.121407
0.130268
0.14279
0.158901
0.178346
0.200643
0.22491
0.24936
0.271263
0.287433
0.29397
0.287797
0.269557
0.243726
0.215663
0.18871
0.166582
0.149857
0.141671
0.136561
0.141699
0.13777
0.151305
0.124414
0.147493
0.0446458
0.122924
0.117494
0.138218
0.158461
0.170476
0.176563
0.180729
0.182787
0.184112
0.184638
0.184977
0.184732
0.183989
0.182329
0.179895
0.176926
0.174323
0.173147
0.174454
0.178751
0.185465
0.19247
0.195791
0.191856
0.181801
0.1695
0.156789
0.144964
0.134698
0.126286
0.120042
0.116202
0.115097
0.11703
0.122297
0.131108
0.143565
0.159586
0.17891
0.201046
0.225082
0.249176
0.270603
0.286212
0.292096
0.285268
0.266563
0.240567
0.212567
0.185769
0.163923
0.147546
0.139875
0.135185
0.140984
0.137352
0.151727
0.124816
0.148922
0.0447745
0.125061
0.118899
0.138746
0.158628
0.170531
0.176668
0.180874
0.183023
0.184388
0.184958
0.185298
0.185059
0.184308
0.18267
0.180275
0.177372
0.174833
0.173702
0.175
0.179202
0.185714
0.192451
0.195605
0.191779
0.182034
0.17004
0.15757
0.145896
0.135707
0.12733
0.121092
0.117244
0.116122
0.118033
0.123271
0.132044
0.144445
0.160383
0.179593
0.201573
0.225373
0.2491
0.270045
0.285098
0.290348
0.282895
0.263759
0.237609
0.209653
0.182979
0.161389
0.145338
0.138168
0.133883
0.140332
0.136976
0.152187
0.125239
0.150385
0.0449179
0.127244
0.120252
0.139283
0.158813
0.170604
0.176786
0.181032
0.183267
0.184673
0.185287
0.18563
0.1854
0.184646
0.183033
0.18068
0.177846
0.175373
0.174283
0.175568
0.17967
0.185979
0.192445
0.195422
0.19169
0.18224
0.17055
0.158331
0.146826
0.136733
0.128405
0.122185
0.118341
0.117213
0.119113
0.124332
0.133077
0.145431
0.161297
0.1804
0.202226
0.225785
0.249133
0.269591
0.284096
0.288731
0.280685
0.261149
0.234851
0.206918
0.180335
0.158976
0.143232
0.13655
0.132654
0.139743
0.136643
0.152683
0.125683
0.151882
0.0450755
0.129469
0.121555
0.139828
0.159014
0.170695
0.176916
0.181201
0.183519
0.184966
0.185623
0.185973
0.185754
0.185001
0.183417
0.181111
0.178349
0.175944
0.174894
0.176159
0.180154
0.186257
0.192452
0.195247
0.191595
0.182425
0.171032
0.159072
0.147752
0.137772
0.12951
0.123322
0.119492
0.118369
0.120268
0.125481
0.134208
0.146526
0.162328
0.181332
0.203008
0.226318
0.249274
0.269241
0.283206
0.287247
0.278643
0.258737
0.232291
0.204357
0.177834
0.156682
0.141226
0.13502
0.131498
0.139216
0.136353
0.153216
0.126147
0.153407
0.0452468
0.131733
0.122809
0.140378
0.159231
0.170805
0.17706
0.181381
0.183778
0.185268
0.185968
0.186327
0.186121
0.185373
0.183821
0.181566
0.178881
0.176547
0.175535
0.176774
0.180655
0.186548
0.192472
0.195083
0.191501
0.182594
0.17149
0.159794
0.148672
0.138823
0.130642
0.124499
0.120697
0.119591
0.121501
0.126718
0.135439
0.147732
0.16348
0.182392
0.20392
0.22697
0.249521
0.268994
0.282429
0.2859
0.276775
0.256526
0.229928
0.201964
0.175471
0.154504
0.139321
0.133578
0.130415
0.138752
0.136106
0.153783
0.126629
0.154958
0.0454314
0.134032
0.124017
0.140934
0.159463
0.170931
0.177216
0.181573
0.184046
0.185578
0.186321
0.186691
0.186499
0.18576
0.184245
0.182047
0.179442
0.177181
0.176207
0.177414
0.181172
0.18685
0.192505
0.194933
0.191412