/*--------------------------------*- C++ -*----------------------------------*\
| =========                 |                                                 |
| \\      /  F ield         | OpenFOAM: The Open Source CFD Toolbox           |
|  \\    /   O peration     | Version:  2.4.0                                 |
|   \\  /    A nd           | Web:      www.OpenFOAM.org                      |
|    \\/     M anipulation  |                                                 |
\*---------------------------------------------------------------------------*/
FoamFile
{
    version     2.0;
    format      ascii;
    class       volVectorField;
    location    "4";
    object      U;
}
// * * * * * * * * * * * * * * * * * * * * * * * * * * * * * * * * * * * * * //

dimensions      [0 1 -1 0 0 0 0];

internalField   nonuniform List<vector> 
6000
(
(0.513516 -0.0430714 -5.59546e-18)
(-0.31776 0.0668476 0)
(0.111693 -0.0273574 1.05906e-17)
(0.0091715 -0.00182102 0)
(0.00574651 8.41043e-05 0)
(-0.0294237 0.00570146 0)
(-0.013333 0.00283664 4.51563e-18)
(-0.0295105 0.00535377 2.9147e-23)
(-0.0273975 0.00520864 0)
(-0.0419238 0.00735135 0)
(-0.0531183 0.00924879 3.78594e-18)
(-0.0713237 0.0114242 -7.28773e-18)
(-0.0864222 0.0130331 0)
(-0.099828 0.0136497 0)
(-0.105179 0.0129873 -1.65233e-18)
(-0.0998529 0.0106685 0)
(-0.0816687 0.00700855 0)
(-0.0521935 0.00272148 -1.58671e-18)
(-0.0174139 -0.000675821 -1.57283e-18)
(0.00727809 -0.00136283 0)
(0.00285863 0.00109366 1.55368e-18)
(-0.0373166 0.00587638 7.66999e-19)
(-0.10035 0.0104209 -7.42932e-19)
(-0.157215 0.0119577 0)
(-0.195167 0.010996 0)
(-0.220407 0.00944797 0)
(-0.238989 0.00774651 3.28533e-19)
(-0.253895 0.00586281 -3.23238e-19)
(-0.266353 0.00378528 0)
(-0.276855 0.00154544 0)
(-0.285522 -0.000832789 3.95703e-20)
(-0.292287 -0.00331619 0)
(-0.296939 -0.00585962 3.20723e-19)
(-0.299126 -0.00841993 -3.25987e-19)
(-0.298558 -0.0110125 0)
(-0.295344 -0.0134294 0)
(-0.289169 -0.0156433 7.15758e-19)
(-0.279723 -0.0175676 0)
(-0.266669 -0.0191043 7.91103e-19)
(-0.249634 -0.0201444 0)
(-0.228221 -0.0205633 0)
(-0.201992 -0.0202269 1.93115e-18)
(-0.170504 -0.0189765 -4.16481e-18)
(-0.133271 -0.0166536 0)
(-0.0899315 -0.0130623 0)
(-0.0400545 -0.00803018 2.63724e-18)
(0.0159472 -0.0012939 0)
(0.0784231 0.00720495 0)
(0.145744 0.0175655 -6.33453e-18)
(0.2181 0.029703 -6.61529e-18)
(0.292264 0.0436294 -6.80689e-18)
(0.369398 0.0589722 -1.24562e-20)
(0.443149 0.0757274 6.9061e-18)
(0.518967 0.0931247 0)
(0.582592 0.111319 -1.66134e-20)
(0.65529 0.129617 -6.39941e-18)
(0.692625 0.145741 5.49814e-18)
(0.777129 0.16619 5.51817e-18)
(0.76556 0.174961 2.19526e-20)
(0.91102 0.205013 0)
(0.726767 -0.108554 4.15828e-18)
(-0.20936 0.0626759 6.1116e-18)
(0.0918 -0.0316428 -5.13771e-18)
(-0.0220173 0.00865176 -5.44211e-18)
(0.00479905 0.00146474 0)
(-0.0420395 0.00887852 0)
(-0.0216352 0.00453228 -4.43885e-18)
(-0.0394662 0.0075643 8.50634e-18)
(-0.0376263 0.00767992 0)
(-0.0535114 0.0102178 0)
(-0.0658634 0.0125596 -3.666e-18)
(-0.0837529 0.0145516 3.51304e-18)
(-0.0978232 0.0158202 1.68453e-18)
(-0.108781 0.0155979 0)
(-0.111953 0.0139082 1.57367e-18)
(-0.106207 0.0105224 0)
(-0.0887996 0.00579524 0)
(-0.0607954 0.000699405 0)
(-0.0279294 -0.00247856 0)
(-0.00473998 -0.00115645 0)
(-0.00923086 0.00488914 8.58194e-22)
(-0.0587118 0.0130133 0)
(-0.126747 0.0180903 -7.04951e-19)
(-0.177676 0.0175607 0)
(-0.208659 0.0146538 0)
(-0.230027 0.012108 3.09534e-19)
(-0.246469 0.0098699 -3.01122e-19)
(-0.259928 0.00765274 -2.00479e-22)
(-0.271199 0.00532475 1.45397e-19)
(-0.280589 0.00285669 0)
(-0.288137 0.000247432 -3.58185e-20)
(-0.293755 -0.00248355 -1.43474e-19)
(-0.297292 -0.00530113 -8.36786e-23)
(-0.298634 -0.00814825 2.93466e-19)
(-0.297653 -0.010997 -2.9963e-19)
(-0.293914 -0.0137354 0)
(-0.287126 -0.0163036 0)
(-0.276959 -0.0186111 0)
(-0.263061 -0.0205537 0)
(-0.245048 -0.022015 0)
(-0.222514 -0.0228586 -1.58933e-18)
(-0.195014 -0.0229381 0)
(-0.162104 -0.0220746 1.83251e-18)
(-0.123296 -0.0200894 1.96894e-18)
(-0.0782435 -0.0167524 0)
(-0.0265245 -0.0118602 0)
(0.0315854 -0.00512964 0)
(0.0964772 0.00355142 0)
(0.166644 0.0143938 5.46701e-18)
(0.242226 0.0273061 0)
(0.320172 0.0424114 0)
(0.401633 0.0592196 -6.00181e-18)
(0.480594 0.0779962 -6.01448e-18)
(0.56239 0.0975344 0)
(0.633714 0.118789 -1.14951e-17)
(0.713819 0.139386 0)
(0.77037 0.162143 -9.77098e-18)
(0.859458 0.183283 -4.85916e-18)
(0.891365 0.206772 2.50404e-18)
(1.04288 0.235656 3.6217e-18)
(0.798656 -0.0913502 -3.36062e-19)
(-0.0779803 0.0480885 -5.71186e-18)
(0.0670241 -0.0277066 0)
(-0.0539221 0.0168644 5.39762e-18)
(0.00169383 0.00275225 0)
(-0.0464209 0.0101967 0)
(-0.0254848 0.0055086 0)
(-0.043033 0.00853259 -4.13994e-18)
(-0.041366 0.00909721 0)
(-0.0567341 0.0117763 -3.71357e-18)
(-0.0684463 0.0143453 0)
(-0.0851938 0.0160998 0)
(-0.0983319 0.0170286 -1.5998e-18)
(-0.108808 0.016223 0)
(-0.112329 0.0138138 0)
(-0.10756 0.00951705 0)
(-0.0917634 0.00384846 0)
(-0.0659323 -0.00187528 0)
(-0.0354541 -0.00468839 0)
(-0.0140769 -0.00124413 1.40569e-18)
(-0.0195815 0.00870759 -1.43408e-18)
(-0.0691702 0.0200041 0)
(-0.131848 0.0246668 -1.05441e-21)
(-0.176347 0.0217848 -6.2115e-19)
(-0.204503 0.0172445 0)
(-0.224712 0.0139538 -5.60626e-19)
(-0.240463 0.0113257 0)
(-0.253392 0.00886977 2.63788e-19)
(-0.264219 0.00636789 -1.2932e-19)
(-0.273222 0.00374539 0)
(-0.28044 0.000979459 0)
(-0.285791 -0.00191993 1.26392e-19)
(-0.289135 -0.00492341 -5.02142e-23)
(-0.290321 -0.00798002 0)
(-0.289128 -0.0110227 5.24227e-19)
(-0.285193 -0.0139982 0)
(-0.278218 -0.0168316 5.56872e-19)
(-0.267869 -0.0194321 0)
(-0.253789 -0.0216951 0)
(-0.23559 -0.0235038 0)
(-0.212861 -0.0247203 1.37332e-18)
(-0.185154 -0.0251962 0)
(-0.152023 -0.0247475 0)
(-0.112976 -0.0231888 -1.686e-18)
(-0.0676647 -0.0202745 0)
(-0.0156649 -0.0157806 0)
(0.0428555 -0.00939606 2.05767e-18)
(0.108224 -0.000994657 -2.18143e-18)
(0.178976 0.00970516 -2.29437e-18)
(0.255177 0.0225938 0)
(0.333905 0.0378748 0)
(0.41621 0.0549557 0)
(0.496335 0.0743015 5.05207e-18)
(0.579384 0.094339 5.04267e-18)
(0.65271 0.11664 4.88719e-18)
(0.734727 0.137557 0)
(0.793931 0.16229 4.19593e-18)
(0.886885 0.182482 8.34241e-18)
(0.921412 0.210053 0)
(1.0809 0.234954 -3.13533e-18)
(0.836485 -0.0599366 -2.63429e-19)
(0.0437804 0.0395515 5.2624e-18)
(0.0472927 -0.0205193 -4.99042e-18)
(-0.0750335 0.0221348 0)
(-0.000964752 0.00317716 0)
(-0.0481776 0.0110682 0)
(-0.0277698 0.0061144 0)
(-0.0447751 0.00921457 0)
(-0.0432058 0.0101107 0)
(-0.057779 0.0129537 3.58716e-18)
(-0.0686943 0.015661 3.38503e-18)
(-0.0844388 0.0172767 0)
(-0.096939 0.0179505 0)
(-0.107283 0.0167039 0)
(-0.111347 0.0136867 1.39717e-18)
(-0.107709 0.00856467 0)
(-0.093678 0.00199856 1.31417e-18)
(-0.0701233 -0.00433596 -1.2958e-18)
(-0.0420718 -0.00681054 0)
(-0.0225014 -0.00129548 -1.34108e-18)
(-0.0287498 0.0124391 0)
(-0.0759751 0.0264434 -6.70227e-19)
(-0.132453 0.0304464 1.25311e-18)
(-0.172104 0.0255448 5.78435e-19)
(-0.198397 0.0196865 0)
(-0.217751 0.0157451 2.55982e-19)
(-0.232951 0.0127543 0)
(-0.245449 0.0100723 2.38357e-19)
(-0.255912 0.00740448 0)
(-0.264603 0.00463754 0)
(-0.271557 0.00172768 0)
(-0.276696 -0.0013255 1.12571e-19)
(-0.279876 -0.0044976 -4.5159e-19)
(-0.280919 -0.00774483 0)
(-0.279577 -0.0110083 -2.32074e-19)
(-0.275521 -0.0142321 0)
(-0.268449 -0.0173439 -4.91824e-19)
(-0.258023 -0.020254 0)
(-0.243884 -0.0228582 0)
(-0.22564 -0.0250398 0)
(-0.202877 -0.0266604 1.20131e-18)
(-0.175144 -0.0275702 0)
(-0.141993 -0.0275813 1.36964e-18)
(-0.102929 -0.0265011 -1.46705e-18)
(-0.0575983 -0.0240704 0)
(-0.00556981 -0.0200432 -1.67853e-18)
(0.0530462 -0.0140795 -3.57706e-18)
(0.118489 -0.0060126 1.89631e-18)
(0.189344 0.00448121 3.97545e-18)
(0.265611 0.0172973 -4.13144e-18)
(0.344465 0.0326779 -4.25039e-18)
(0.426848 0.0499905 0)
(0.507202 0.0697798 -4.36123e-18)
(0.590415 0.0902891 -4.34816e-18)
(0.664297 0.11337 -4.16367e-18)
(0.746714 0.134701 0)
(0.80681 0.160579 0)
(0.90067 0.180451 -3.56364e-18)
(0.936479 0.209605 0)
(1.09627 0.231796 2.62372e-18)
(0.861504 -0.0344757 -2.46487e-19)
(0.153252 0.0356249 -8.98771e-20)
(0.0542482 -0.0147337 4.94589e-18)
(-0.0862642 0.0250017 5.33987e-18)
(-0.00334089 0.00308937 0)
(-0.0489702 0.0117616 -4.53731e-18)
(-0.0292817 0.00654799 0)
(-0.0457338 0.00977798 0)
(-0.0441514 0.0109198 0)
(-0.0578523 0.013946 3.48055e-18)
(-0.0679359 0.0167534 -3.26882e-18)
(-0.0827694 0.0182895 0)
(-0.09475 0.0187556 0)
(-0.105063 0.0171413 0)
(-0.109721 0.0135724 -1.33104e-18)
(-0.10728 0.00768826 0)
(-0.0950876 0.000276208 -1.24787e-18)
(-0.0738675 -0.00663558 1.23085e-18)
(-0.0482603 -0.00878577 0)
(-0.0304649 -0.00129534 0)
(-0.0370382 0.0159794 6.69726e-19)
(-0.0807159 0.0322866 6.44728e-19)
(-0.131116 0.0355769 -1.19282e-18)
(-0.166776 0.0289607 -5.45039e-19)
(-0.191519 0.0220024 0)
(-0.210101 0.0174776 2.37394e-19)
(-0.224793 0.0141463 0)
(-0.236894 0.0112484 -2.18495e-19)
(-0.247024 0.00842061 1.06339e-19)
(-0.255429 0.00551403 0)
(-0.262143 0.00246454 0)
(-0.267084 -0.000738953 -2.04283e-19)
(-0.270105 -0.00407823 2.0455e-19)
(-0.271011 -0.00751549 0)
(-0.269544 -0.0109999 -2.09379e-19)
(-0.265394 -0.0144753 0)
(-0.258254 -0.0178698 4.42395e-19)
(-0.247787 -0.0210952 0)
(-0.233628 -0.0240482 0)
(-0.215385 -0.0266122 0)
(-0.19264 -0.0286486 -1.08088e-18)
(-0.16494 -0.0300061 -1.14909e-18)
(-0.131837 -0.0304935 -1.23111e-18)
(-0.0928302 -0.0299103 3.4407e-21)
(-0.0475613 -0.0279855 -1.40722e-18)
(0.00440902 -0.0244496 1.50636e-18)
(0.0629951 -0.0189338 3.19646e-18)
(0.128357 -0.0112276 0)
(0.199133 -0.000972943 -1.77428e-18)
(0.275261 0.0117419 3.68973e-18)
(0.353998 0.0271775 3.79009e-18)
(0.436188 0.044692 0)
(0.516434 0.06485 0)
(0.599441 0.0858081 0)
(0.673373 0.10951 3.68085e-18)
(0.755685 0.131279 0)
(0.816084 0.157902 0)
(0.909979 0.177683 3.07357e-18)
(0.94666 0.207634 -1.50652e-18)
(1.1049 0.227875 -2.26042e-18)
(0.880286 -0.0137391 -2.28029e-19)
(0.251004 0.034848 -4.85211e-18)
(0.0816116 -0.00987479 0)
(-0.0884312 0.0268204 -5.31591e-18)
(-0.00568439 0.00279375 -4.79486e-18)
(-0.0492893 0.0123495 3.22026e-22)
(-0.030286 0.00687015 0)
(-0.0462285 0.0102644 0)
(-0.0445351 0.0115809 0)
(-0.0573411 0.0147944 -3.38956e-18)
(-0.0665767 0.0176824 0)
(-0.0805535 0.0191807 0)
(-0.0920643 0.0194815 1.40525e-18)
(-0.102379 0.0175624 0)
(-0.107643 0.0135017 0)
(-0.10643 0.00692499 0)
(-0.0961223 -0.00126837 0)
(-0.0772777 -0.00871792 -1.17777e-18)
(-0.0541229 -0.010569 0)
(-0.0380428 -0.00124573 1.24879e-18)
(-0.0444903 0.0192289 -6.5035e-19)
(-0.0839622 0.0374845 -6.23454e-19)
(-0.128589 0.0400995 1.14194e-18)
(-0.1608 0.0320544 1.03402e-18)
(-0.184144 0.0241802 0)
(-0.201989 0.0191336 -2.22297e-19)
(-0.216192 0.0154856 0)
(-0.227911 0.0123835 0)
(-0.237721 0.00940366 -1.97152e-19)
(-0.245852 0.00636378 0)
(-0.252333 0.00318031 0)
(-0.257081 -0.000168601 1.88298e-19)
(-0.259942 -0.00367159 0)
(-0.260711 -0.00729656 0)
(-0.259129 -0.0109985 1.92442e-19)
(-0.254895 -0.0147228 0)
(-0.247699 -0.0183981 -4.0611e-19)
(-0.237203 -0.0219375 0)
(-0.223042 -0.0252387 0)
(-0.204819 -0.0281856 0)
(-0.182115 -0.030639 0)
(-0.154477 -0.0324463 1.05369e-18)
(-0.121451 -0.0334132 1.12348e-18)
(-0.0825383 -0.0333314 2.92647e-21)
(-0.0373713 -0.0319181 1.29064e-18)
(0.0144954 -0.0288805 1.3737e-18)
(0.0729795 -0.023821 -1.46232e-18)
(0.138178 -0.0164848 0)
(0.208776 -0.00648357 -1.61276e-18)
(0.284659 0.00611668 1.67454e-18)
(0.36315 0.0215838 -3.43391e-18)
(0.445011 0.0392831 0)
(0.524978 0.0597658 0)
(0.6076 0.0811562 -3.44997e-18)
(0.681337 0.105384 -3.29579e-18)
(0.763307 0.127605 3.20871e-18)
(0.823732 0.154766 2.75729e-18)
(0.917311 0.174608 -2.74933e-18)
(0.954632 0.204894 1.33496e-18)
(1.11082 0.223764 0)
(0.895353 0.00500383 -2.04991e-19)
(0.337898 0.0365151 0)
(0.120465 -0.00461898 4.71776e-18)
(-0.0788192 0.027616 5.2483e-18)
(-0.00793009 0.00257202 -4.89693e-22)
(-0.0493054 0.0128413 4.434e-18)
(-0.0308891 0.00710851 0)
(-0.0463863 0.0106869 0)
(-0.0445041 0.0121206 0)
(-0.0564162 0.0155173 1.65648e-18)
(-0.0647935 0.0184764 1.54455e-18)
(-0.0779465 0.0199706 0)
(-0.0890041 0.0201457 -1.36055e-18)
(-0.0993254 0.0179783 1.28972e-18)
(-0.105185 0.0134861 0)
(-0.105209 0.00628682 0)
(-0.0968104 -0.00262202 0)
(-0.080368 -0.0105725 9.30238e-22)
(-0.0596611 -0.0121591 0)
(-0.0452061 -0.00117159 -2.42781e-18)
(-0.0510978 0.0221333 6.3359e-19)
(-0.0860081 0.042041 6.04163e-19)
(-0.125212 0.0440712 1.60573e-22)
(-0.154355 0.0348609 -4.93821e-19)
(-0.176386 0.0262258 0)
(-0.193509 0.0207117 0)
(-0.20723 0.0167693 0)
(-0.218573 0.0134743 9.55671e-20)
(-0.228068 0.0103501 1.84904e-19)
(-0.235928 0.00718296 0)
(-0.242177 0.00387104 0)
(-0.246729 0.000381684 -1.75749e-19)
(-0.249426 -0.00328086 -8.77435e-20)
(-0.250057 -0.00709006 0)
(-0.248362 -0.0110054 0)
(-0.244047 -0.0149742 0)
(-0.2368 -0.0189262 0)
(-0.226281 -0.022776 0)
(-0.212123 -0.0264222 0)
(-0.193929 -0.0297491 0)
(-0.171279 -0.0326173 0)
(-0.143715 -0.0348726 0)
(-0.110785 -0.036318 -2.32409e-21)
(-0.0719853 -0.0367372 1.12009e-18)
(-0.0269433 -0.0358365 0)
(0.0247901 -0.0332985 -2.55698e-18)
(0.0831235 -0.0286976 -1.35479e-18)
(0.148106 -0.0217341 0)
(0.218463 -0.0119926 1.50131e-18)
(0.294033 0.00048646 -1.55794e-18)
(0.372199 0.0159719 3.19209e-18)
(0.453643 0.0338452 -3.22638e-18)
(0.533224 0.0546259 0)
(0.615353 0.0764355 1.43434e-20)
(0.688744 0.10113 3.04118e-18)
(0.770235 0.123808 -5.89008e-18)
(0.830518 0.151386 -1.90434e-20)
(0.923607 0.171373 -2.47649e-18)
(0.961398 0.201735 1.15683e-18)
(1.11541 0.219612 1.7608e-18)
(0.907659 0.0222935 -3.33946e-19)
(0.414833 0.0400765 0)
(0.166669 0.0013284 9.93366e-21)
(-0.0572247 0.0277852 -3.27945e-21)
(-0.00949756 0.0026446 4.82408e-18)
(-0.0490699 0.0132418 4.40868e-18)
(-0.0311335 0.00727662 0)
(-0.0462641 0.0110516 3.74763e-18)
(-0.0441356 0.0125545 0)
(-0.0551691 0.0161273 -1.62342e-18)
(-0.0626808 0.0191528 1.65282e-22)
(-0.0750291 0.0206718 -1.41099e-18)
(-0.085632 0.0207581 0)
(-0.095945 0.0183946 -2.50455e-18)
(-0.102376 0.0135306 0)
(-0.103628 0.00577795 0)
(-0.0971445 -0.0037819 0)
(-0.0831154 -0.0122005 1.10378e-18)
(-0.0648378 -0.0135662 0)
(-0.0518923 -0.00110302 1.18348e-18)
(-0.0568508 0.0246608 -1.23542e-18)
(-0.0870414 0.0459776 0)
(-0.121177 0.0475452 1.0567e-22)
(-0.147534 0.0374108 0)
(-0.168306 0.0281474 0)
(-0.184712 0.0222148 -2.00679e-19)
(-0.197951 0.0179993 0)
(-0.208918 0.014522 -1.81202e-19)
(-0.218097 0.0112602 -8.74855e-20)
(-0.225685 0.0079715 -2.13113e-20)
(-0.2317 0.00453616 2.09241e-20)
(-0.236053 0.000910962 8.2848e-20)
(-0.23858 -0.00290701 1.65321e-19)
(-0.239069 -0.00689659 0)
(-0.23726 -0.0110212 1.68274e-19)
(-0.232862 -0.0152301 0)
(-0.225563 -0.0194545 0)
(-0.215022 -0.0236109 0)
(-0.200871 -0.0275984 3.851e-19)
(-0.182709 -0.0313019 0)
(-0.160117 -0.0345818 0)
(-0.132636 -0.0372824 9.17615e-19)
(-0.0998109 -0.0392041 -9.83231e-19)
(-0.0611365 -0.0401229 0)
(-0.0162339 -0.0397344 0)
(0.0353439 -0.0376958 1.20403e-18)
(0.0934912 -0.0335529 1.27787e-18)
(0.158221 -0.0269616 -1.3454e-18)
(0.228293 -0.0174817 0)
(0.303503 -0.00512588 0)
(0.381282 0.0103714 0)
(0.462249 0.0284133 1.1084e-20)
(0.541364 0.0494761 0)
(0.622922 0.0716968 2.98459e-18)
(0.69586 0.0968202 0)
(0.77678 0.119956 2.74493e-18)
(0.836799 0.147872 -2.33034e-18)
(0.929297 0.168056 4.57929e-18)
(0.967416 0.198336 -1.06409e-18)
(1.11925 0.215483 -1.6145e-18)
(0.917694 0.037925 1.71e-19)
(0.482686 0.0449959 -4.25411e-18)
(0.217458 0.0079346 -4.45517e-18)
(-0.0266493 0.0281039 -3.27267e-21)
(-0.00920408 0.00316185 -4.83944e-18)
(-0.048549 0.0135766 -4.40274e-18)
(-0.0310282 0.00738233 0)
(-0.0458863 0.0113628 -3.70648e-18)
(-0.0434738 0.0128925 0)
(-0.0536547 0.0166333 -1.5954e-18)
(-0.060296 0.0197227 -1.47882e-18)
(-0.0718503 0.0212923 1.37931e-18)
(-0.081985 0.0213241 -1.29114e-18)
(-0.092263 0.0188133 1.2206e-18)
(-0.0992291 0.0136358 -1.16538e-18)
(-0.101684 0.00539844 1.12162e-18)
(-0.0971019 -0.00474909 0)
(-0.0854811 -0.0136062 0)
(-0.0695996 -0.014803 0)
(-0.0580317 -0.00106884 5.78435e-19)
(-0.061749 0.0267918 6.02876e-19)
(-0.0871977 0.0493205 0)
(-0.116603 0.0505647 -5.1423e-19)
(-0.140394 0.0397259 0)
(-0.15994 0.029951 0)
(-0.17563 0.0236451 1.92382e-19)
(-0.188384 0.0191767 -1.81397e-19)
(-0.198971 0.0155274 8.65087e-20)
(-0.207831 0.0121346 0)
(-0.215144 0.00872942 4.05812e-20)
(-0.22092 0.00517527 -3.98036e-20)
(-0.225067 0.00141846 0)
(-0.227419 -0.00255101 -7.85126e-20)
(-0.227761 -0.0067171 1.57652e-19)
(-0.225834 -0.0110468 -1.59744e-19)
(-0.221351 -0.0154917 0)
(-0.213998 -0.0199845 0)
(-0.203433 -0.0244433 0)
(-0.189287 -0.0287685 -3.65553e-19)
(-0.171159 -0.0328451 0)
(-0.148627 -0.0365335 0)
(-0.121231 -0.0396765 -8.71988e-19)
(-0.0885168 -0.0420721 0)
(-0.0499747 -0.0434886 9.9785e-19)
(-0.00522092 -0.0436109 -1.06905e-18)
(0.046183 -0.0420702 0)
(0.104118 -0.038383 1.21123e-18)
(0.168568 -0.0321617 2.56062e-18)
(0.238321 -0.0229428 -1.33809e-18)
(0.313132 -0.0107099 0)
(0.390478 0.00479657 0)
(0.470919 0.0230048 1.44679e-18)
(0.549505 0.0443396 0)
(0.630431 0.0669661 2.81164e-18)
(0.702832 0.0924925 0)
(0.783108 0.116084 2.57066e-18)
(0.842768 0.144283 2.16385e-18)
(0.934605 0.164696 -2.14488e-18)
(0.972932 0.194793 0)
(1.12262 0.211398 1.48894e-18)
(0.925866 0.0519045 -3.52694e-19)
(0.542304 0.0508233 7.39914e-20)
(0.270665 0.0150867 4.35467e-18)
(0.0109395 0.029055 -3.44221e-21)
(-0.00591421 0.00421258 -5.87365e-22)
(-0.0476022 0.013895 0)
(-0.0305576 0.00743237 0)
(-0.0452578 0.0116235 0)
(-0.0425436 0.0131421 -1.69042e-18)
(-0.0519078 0.017042 3.14253e-18)
(-0.0576768 0.0201935 0)
(-0.0684421 0.0218369 1.35246e-18)
(-0.0780876 0.0218459 -9.6016e-23)
(-0.088295 0.0192338 -1.19358e-18)
(-0.0957484 0.0138001 2.41755e-22)
(-0.0993632 0.00514601 -1.09763e-18)
(-0.0966536 -0.00552657 0)
(-0.0874193 -0.0147955 0)
(-0.0738874 -0.0158827 0)
(-0.0635604 -0.00109374 -5.65855e-19)
(-0.0658048 0.0285174 0)
(-0.0865831 0.0520979 5.58436e-19)
(-0.111573 0.0531653 5.00069e-19)
(-0.132971 0.041822 -4.44167e-19)
(-0.151316 0.0316398 0)
(-0.166287 0.0250037 0)
(-0.17855 0.0203021 1.74462e-19)
(-0.188751 0.0164907 0)
(-0.197288 0.0129732 8.00562e-20)
(-0.20432 0.00945637 -1.9441e-20)
(-0.209852 0.00578767 1.9052e-20)
(-0.213786 0.00190321 -7.52877e-20)
(-0.215956 -0.00221397 0)
(-0.216146 -0.00655277 -1.50725e-19)
(-0.214097 -0.0110836 0)
(-0.209524 -0.0157603 0)
(-0.202113 -0.0205176 3.20339e-19)
(-0.191522 -0.025275 0)
(-0.177379 -0.0299341 0)
(-0.159283 -0.0343803 0)
(-0.136811 -0.038474 0)
(-0.109501 -0.0420562 0)
(-0.0768993 -0.0449229 0)
(-0.0384932 -0.0468349 -1.91112e-18)
(0.00610532 -0.0474659 1.02526e-18)
(0.0573203 -0.0464207 1.0921e-18)
(0.115023 -0.0431859 -2.32283e-18)
(0.179173 -0.0373312 -1.2282e-18)
(0.248579 -0.0283709 1.28583e-18)
(0.322962 -0.0162589 -1.32982e-18)
(0.399835 -0.000743727 0)
(0.479708 0.0176302 4.74505e-21)
(0.55771 0.0392307 -2.72565e-18)
(0.637953 0.0622588 -2.69717e-18)
(0.709745 0.0881685 -2.53434e-18)
(0.789317 0.112212 -4.90125e-18)
(0.848535 0.140652 -2.06045e-18)
(0.939661 0.161312 2.01349e-18)
(0.978086 0.19116 8.82087e-19)
(1.12568 0.207364 -1.4022e-18)
(0.932545 0.0644345 -1.49151e-19)
(0.59449 0.0572147 4.0679e-18)
(0.324598 0.0226597 2.3936e-21)
(0.0546874 0.0307079 -3.82347e-21)
(0.00141951 0.00612942 4.76861e-18)
(-0.0459236 0.0142643 4.44405e-18)
(-0.029679 0.00743675 -3.97787e-18)
(-0.044368 0.0118367 1.82651e-18)
(-0.0413564 0.0133094 -8.25001e-23)
(-0.0499506 0.017359 -1.55084e-18)
(-0.0548493 0.0205704 -1.43068e-18)
(-0.0648272 0.0223083 -1.32908e-18)
(-0.0739575 0.022324 2.48046e-18)
(-0.0840519 0.0196544 2.11253e-23)
(-0.0919354 0.0140204 1.11706e-18)
(-0.0966541 0.00501664 0)
(-0.0957687 -0.00611891 1.04459e-18)
(-0.0888823 -0.0157748 0)
(-0.0776418 -0.0168184 -1.04962e-18)
(-0.0684254 -0.00119707 -5.54677e-19)
(-0.0690415 0.0298375 -5.76376e-19)
(-0.0852855 0.0543394 2.28572e-22)
(-0.106149 0.055377 -4.8744e-19)
(-0.125293 0.0437111 4.31825e-19)
(-0.142453 0.033216 0)
(-0.156701 0.0262907 -1.79853e-19)
(-0.168465 0.0213754 0)
(-0.178276 0.0174118 0)
(-0.186483 0.0137757 -7.71674e-20)
(-0.193227 0.0101517 0)
(-0.198508 0.00637252 0)
(-0.202223 0.00236416 7.2427e-20)
(-0.204205 -0.00189709 0)
(-0.204236 -0.00640487 0)
(-0.20206 -0.0111329 1.46335e-19)
(-0.197392 -0.0160375 0)
(-0.189919 -0.0210552 -3.07913e-19)
(-0.179297 -0.0261075 0)
(-0.165155 -0.0310968 3.34313e-19)
(-0.147088 -0.0359091 0)
(-0.124674 -0.0404047 0)
(-0.0974499 -0.044423 0)
(-0.0649606 -0.0477578 0)
(-0.0266917 -0.0501628 9.20679e-19)
(0.0177469 -0.0512998 0)
(0.0687608 -0.0507466 -2.10623e-18)
(0.126215 -0.0479602 1.12078e-18)
(0.19005 -0.042468 -1.18178e-18)
(0.259087 -0.0337628 1.23757e-18)
(0.333016 -0.0217685 1.28721e-18)
(0.409382 -0.00624341 0)
(0.488649 0.012297 1.33204e-18)
(0.566021 0.0341589 3.95121e-18)
(0.645532 0.0575852 -2.58622e-18)
(0.716652 0.0838628 2.44637e-18)
(0.795469 0.108353 2.35563e-18)
(0.854171 0.137002 0)
(0.944544 0.157918 -1.92944e-18)
(0.982968 0.187472 -1.66526e-18)
(1.12851 0.20338 0)
(0.938043 0.0757176 9.37035e-19)
(0.639998 0.0639046 0)
(0.377929 0.0305304 1.24986e-22)
(0.102774 0.0332265 -4.32134e-21)
(0.015566 0.00850446 -4.68563e-18)
(-0.0429314 0.0147858 -8.95963e-18)
(-0.0283098 0.00741507 7.98189e-18)
(-0.04319 0.0120062 -1.82025e-18)
(-0.039912 0.0133999 1.66093e-18)
(-0.0477953 0.0175891 0)
(-0.0518309 0.0208576 -1.27839e-22)
(-0.0610222 0.0227082 0)
(-0.0696082 0.0227577 -2.44005e-18)
(-0.0795421 0.0200719 1.15051e-18)
(-0.0877904 0.0142919 0)
(-0.093543 0.00500475 0)
(-0.0944166 -0.00653223 -1.02835e-18)
(-0.089823 -0.0165521 0)
(-0.0808071 -0.0176227 1.03194e-18)
(-0.0725869 -0.00139235 5.43642e-19)
(-0.0714919 0.0307593 -4.75873e-22)
(-0.0833809 0.0560749 -5.33992e-19)
(-0.100378 0.0572259 -4.76458e-19)
(-0.117382 0.0454028 0)
(-0.133369 0.0346813 0)
(-0.146889 0.0275062 1.7476e-19)
(-0.158146 0.0223963 0)
(-0.167558 0.0182902 7.78374e-20)
(-0.175429 0.0145414 -7.47563e-20)
(-0.18188 0.0108148 1.81204e-20)
(-0.186903 0.00692892 -1.77247e-20)
(-0.190392 0.00280025 6.99519e-20)
(-0.192178 -0.00160154 -6.96237e-20)
(-0.192045 -0.00627468 1.39643e-19)
(-0.189736 -0.0111962 -1.41325e-19)
(-0.184969 -0.0163247 0)
(-0.177429 -0.0215992 0)
(-0.166771 -0.0269425 0)
(-0.152625 -0.0322585 -5.63372e-22)
(-0.134584 -0.0374334 3.40244e-19)
(-0.112226 -0.0423275 0)
(-0.0850847 -0.0467787 0)
(-0.0527064 -0.0505787 0)
(-0.0145743 -0.0534739 0)
(0.029701 -0.0551135 0)
(0.0805047 -0.0550484 2.19013e-21)
(0.1377 -0.0527056 0)
(0.201206 -0.047571 2.29505e-18)
(0.269857 -0.0391165 -2.40516e-18)
(0.343308 -0.0272358 -1.24638e-18)
(0.419137 -0.0116984 0)
(0.497765 0.00700996 0)
(0.574461 0.0291309 -2.55401e-18)
(0.653196 0.0529527 1.02167e-20)
(0.723588 0.0795855 -2.35477e-18)
(0.8016 0.104516 2.26376e-18)
(0.85972 0.133346 1.87534e-18)
(0.949303 0.154523 -1.84222e-18)
(0.987635 0.183751 1.56992e-18)
(1.13119 0.199447 1.26633e-18)
(0.942612 0.0859034 1.31911e-19)
(0.679537 0.0706837 -3.79127e-18)
(0.429643 0.038584 -8.18999e-18)
(0.153749 0.036665 -4.95039e-21)
(0.0366252 0.0113028 4.58752e-18)
(-0.0376031 0.0155937 4.50803e-18)
(-0.026302 0.00740623 -2.00731e-18)
(-0.0416771 0.0121376 0)
(-0.0381985 0.0134192 0)
(-0.0454458 0.0177368 1.52044e-18)
(-0.0486326 0.0210581 1.39568e-18)
(-0.0570389 0.0230377 0)
(-0.0650505 0.0231458 1.20265e-18)
(-0.074773 0.0204828 0)
(-0.0833137 0.0146092 0)
(-0.0900181 0.0051035 0)
(-0.0925692 -0.006774 0)
(-0.0901974 -0.0171358 1.0015e-18)
(-0.0833332 -0.0183063 5.07997e-19)
(-0.0760179 -0.00168717 -5.3384e-19)
(-0.0731955 0.0312965 -4.86521e-22)
(-0.0809361 0.0573342 0)
(-0.0943001 0.0587344 4.66453e-19)
(-0.109255 0.046905 0)
(-0.124077 0.0360369 0)
(-0.136863 0.0286502 1.70622e-19)
(-0.147606 0.0233645 -1.59667e-19)
(-0.156611 0.0191254 -7.57009e-20)
(-0.164139 0.0152698 7.26407e-20)
(-0.17029 0.0114449 -3.51936e-20)
(-0.175048 0.007456 3.44036e-20)
(-0.178305 0.00321045 -6.7866e-20)
(-0.179889 -0.00132848 6.75315e-20)
(-0.179585 -0.00616346 -1.09002e-22)
(-0.177139 -0.0112748 -1.36748e-19)
(-0.172266 -0.0166236 0)
(-0.164654 -0.0221511 0)
(-0.153957 -0.0277819 0)
(-0.139802 -0.033421 -6.25164e-19)
(-0.121783 -0.0389552 -3.30244e-19)
(-0.0994761 -0.0442446 0)
(-0.0724152 -0.0491254 0)
(-0.040145 -0.0533875 -8.02906e-19)
(-0.00214756 -0.05677 0)
(0.0419614 -0.0589083 0)
(0.0925487 -0.059327 1.98336e-18)
(0.149477 -0.0574227 -1.05499e-18)
(0.212645 -0.0526404 -2.23628e-18)
(0.280893 -0.0444311 2.90661e-21)
(0.353848 -0.0326591 2.43579e-18)
(0.429111 -0.0171059 1.24407e-18)
(0.507067 0.00177279 0)
(0.583047 0.0241515 1.24814e-18)
(0.660965 0.0483664 2.45349e-18)
(0.730574 0.075344 2.30193e-18)
(0.807735 0.100707 -2.20983e-18)
(0.865211 0.129697 -1.82587e-18)
(0.95397 0.151132 1.78985e-18)
(0.992127 0.180014 -7.52162e-19)
(1.13375 0.19556 -1.22275e-18)
(0.946457 0.0951137 1.24672e-19)
(0.71377 0.0773924 3.75872e-18)
(0.478982 0.04671 3.65173e-21)
(0.206439 0.0409749 -5.6574e-21)
(0.0636996 0.014798 0)
(-0.0283841 0.0166268 0)
(-0.0234009 0.00747727 2.40984e-22)
(-0.0397543 0.0122406 0)
(-0.0361904 0.0133738 0)
(-0.0428971 0.017807 1.18454e-22)
(-0.0452594 0.0211748 0)
(-0.0528852 0.0232971 0)
(-0.0602929 0.0234864 1.18793e-18)
(-0.0697511 0.0208827 0)
(-0.0785067 0.0149658 0)
(-0.0860701 0.00530487 0)
(-0.0902017 -0.00685288 0)
(-0.0899657 -0.0175348 -5.08371e-22)
(-0.0851767 -0.0188785 -5.00849e-19)
(-0.0787021 -0.00208345 1.04825e-18)
(-0.0741954 0.0314672 -4.90493e-22)
(-0.0780118 0.0581461 5.1348e-19)
(-0.0879504 0.0599219 0)
(-0.100929 0.0482239 4.044e-19)
(-0.114593 0.0372835 0)
(-0.126637 0.0297224 -1.66818e-19)
(-0.136856 0.0242794 -1.06555e-22)
(-0.145447 0.019917 0)
(-0.152625 0.0159604 0)
(-0.158469 0.0120413 -2.43526e-24)
(-0.162956 0.00795289 -1.41538e-24)
(-0.165974 0.00359375 3.30102e-20)
(-0.167351 -0.00107902 0)
(-0.166871 -0.00607246 -1.31654e-19)
(-0.164281 -0.0113701 1.33045e-19)
(-0.159298 -0.0169356 0)
(-0.151609 -0.0227126 -2.78977e-19)
(-0.140867 -0.0286275 0)
(-0.126699 -0.0345863 5.37641e-22)
(-0.108698 -0.0404765 0)
(-0.0864377 -0.046158 3.40678e-19)
(-0.0594527 -0.0514655 3.6424e-19)
(-0.0272865 -0.0561867 1.59519e-21)
(0.0105794 -0.0600531 -8.41024e-19)
(0.0545198 -0.0626862 0)
(0.104887 -0.0635838 -2.05756e-21)
(0.161544 -0.0621126 1.03325e-18)
(0.224366 -0.0576765 2.50867e-21)
(0.292199 -0.0497066 1.1498e-18)
(0.364639 -0.0380375 -3.20171e-21)
(0.43931 -0.022464 -3.64277e-21)
(0.516565 -0.00341201 0)
(0.591788 0.0192245 0)
(0.668848 0.0438304 0)
(0.737623 0.0711438 0)
(0.813889 0.0969317 0)
(0.870662 0.126061 1.76367e-18)
(0.958566 0.147749 0)
(0.996469 0.176273 0)
(1.1362 0.191718 -1.182e-18)
(0.94975 0.103461 -7.82835e-19)
(0.743317 0.0839155 0)
(0.525405 0.0548014 5.14118e-21)
(0.259851 0.0460507 -6.38475e-21)
(0.0961821 0.0190435 0)
(-0.0139912 0.017938 2.23412e-18)
(-0.0191977 0.00771404 -2.04203e-18)
(-0.0373051 0.012332 0)
(-0.0338458 0.0132716 0)
(-0.0401347 0.0178046 -1.50304e-18)
(-0.0417102 0.0212106 0)
(-0.0485652 0.0234869 0)
(-0.0553418 0.0237774 -1.17536e-18)
(-0.0644827 0.0212669 0)
(-0.0733717 0.0153546 -1.05424e-18)
(-0.0816924 0.00559989 0)
(-0.0872936 -0.00677862 0)
(-0.0890933 -0.0177583 -4.875e-22)
(-0.0863013 -0.019346 0)
(-0.0806319 -0.00257789 -5.14946e-19)
(-0.0745357 0.0312932 5.28754e-19)
(-0.0746626 0.0585386 -1.0078e-18)
(-0.0813598 0.0608052 4.49958e-19)
(-0.0924203 0.0493648 -3.97137e-19)
(-0.104927 0.0384219 0)
(-0.116223 0.0307224 -1.63775e-19)
(-0.125909 0.0251406 3.05681e-19)
(-0.134078 0.0206645 0)
(-0.140899 0.0166125 -3.46494e-20)
(-0.14643 0.0126032 1.67527e-20)
(-0.15064 0.00841877 -1.63561e-20)
(-0.153412 0.00394921 -3.2227e-20)
(-0.154576 -0.000854226 0)
(-0.153914 -0.00600285 -1.28267e-19)
(-0.151176 -0.0114834 1.2955e-19)
(-0.146077 -0.0172623 0)
(-0.138306 -0.0232854 2.7226e-19)
(-0.127514 -0.029481 0)
(-0.113329 -0.0357564 2.96374e-19)
(-0.0953405 -0.0419995 0)
(-0.073123 -0.0480701 -3.3302e-19)
(-0.046209 -0.0538012 -3.5632e-19)
(-0.0141418 -0.0589785 1.56664e-21)
(0.0235957 -0.0633254 8.23789e-19)
(0.0673668 -0.066449 0)
(0.117514 -0.0678206 -9.49069e-19)
(0.173896 -0.0667768 0)
(0.236367 -0.0626805 1.07508e-18)
(0.303774 -0.0549431 0)
(0.375683 -0.0433705 -1.1757e-18)
(0.449738 -0.0277716 -2.40501e-18)
(0.526261 -0.00854255 0)
(0.60069 0.0143526 0)
(0.676852 0.0393478 0)
(0.744742 0.0669895 1.10038e-18)
(0.820072 0.0931936 0)
(0.876084 0.122447 -1.12363e-20)
(0.963104 0.144379 0)
(1.00068 0.172537 6.79117e-19)
(1.13857 0.187917 1.15397e-18)
(0.952629 0.111052 0)
(0.768755 0.090174 3.55495e-18)
(0.568552 0.0627588 3.91102e-18)
(0.313119 0.051757 -7.08017e-21)
(0.133321 0.0239902 0)
(0.00593983 0.0196515 -2.20267e-18)
(-0.0131292 0.00820903 0)
(-0.0341489 0.0124393 1.84371e-18)
(-0.0311009 0.0131234 1.65087e-18)
(-0.037132 0.0177358 1.49968e-18)
(-0.0379771 0.0211682 1.36516e-18)
(-0.0440789 0.0236074 1.25675e-18)
(-0.0502015 0.0240165 0)
(-0.058973 0.0216307 0)
(-0.0679122 0.0157681 1.04376e-18)
(-0.0768814 0.0059788 0)
(-0.0838292 -0.00656182 0)
(-0.0875517 -0.0178159 -9.68443e-19)
(-0.0866779 -0.0197135 0)
(-0.0818054 -0.00316262 -5.06833e-19)
(-0.0742581 0.0307992 0)
(-0.0709384 0.0585381 4.94846e-19)
(-0.074557 0.0613987 -4.42593e-19)
(-0.0837435 0.0503316 0)
(-0.0950929 0.0394523 0)
(-0.105632 0.0316497 -1.38353e-22)
(-0.114776 0.0259475 -1.5007e-19)
(-0.122515 0.0213672 0)
(-0.128972 0.0172255 3.39575e-20)
(-0.134184 0.0131301 1.64144e-20)
(-0.13811 0.00885288 -1.60115e-20)
(-0.140633 0.00427595 0)
(-0.141577 -0.000655108 0)
(-0.140729 -0.00595579 1.02935e-22)
(-0.137837 -0.0116161 -1.34531e-22)
(-0.132618 -0.017605 0)
(-0.124759 -0.0238711 0)
(-0.113914 -0.0303442 2.75888e-19)
(-0.0997055 -0.0369332 0)
(-0.0817252 -0.0435262 0)
(-0.0595452 -0.0499831 0)
(-0.0326968 -0.056135 0)
(-0.000722903 -0.0617656 7.49891e-19)
(0.0368895 -0.0665894 8.05514e-19)
(0.080492 -0.070199 0)
(0.130419 -0.0720396 0)
(0.186526 -0.0714171 9.94141e-19)
(0.248644 -0.0676538 0)
(0.315616 -0.0601414 0)
(0.386978 -0.0486582 -1.1573e-18)
(0.460393 -0.0330277 1.18959e-18)
(0.536157 -0.0136174 0)
(0.609755 0.00953801 0)
(0.684978 0.0349212 0)
(0.751936 0.0628844 -1.09034e-18)
(0.826285 0.0894958 1.03787e-18)