/*--------------------------------*- C++ -*----------------------------------*\
| =========                 |                                                 |
| \\      /  F ield         | OpenFOAM: The Open Source CFD Toolbox           |
|  \\    /   O peration     | Version:  2.4.0                                 |
|   \\  /    A nd           | Web:      www.OpenFOAM.org                      |
|    \\/     M anipulation  |                                                 |
\*---------------------------------------------------------------------------*/
FoamFile
{
    version     2.0;
    format      ascii;
    class       volScalarField;
    location    "3.51";
    object      nut;
}
// * * * * * * * * * * * * * * * * * * * * * * * * * * * * * * * * * * * * * //

dimensions      [0 2 -1 0 0 0 0];

internalField   nonuniform List<scalar> 
6000
(
1.24054e-05
1.01571e-05
5.69077e-06
3.06914e-06
1.73196e-06
2.93222e-06
2.58883e-06
3.45067e-06
3.90768e-06
4.98292e-06
6.14299e-06
7.50452e-06
8.83303e-06
1.01667e-05
1.14661e-05
1.28647e-05
1.41496e-05
1.50504e-05
1.52154e-05
1.33869e-05
1.10542e-05
9.75628e-06
1.38815e-05
1.77805e-05
2.11993e-05
2.38463e-05
2.56635e-05
2.69181e-05
2.77987e-05
2.84168e-05
2.8831e-05
2.9082e-05
2.92093e-05
2.92139e-05
2.91124e-05
2.8915e-05
2.86297e-05
2.82621e-05
2.7814e-05
2.72814e-05
2.66535e-05
2.59143e-05
2.50451e-05
2.51601e-05
2.5127e-05
2.49115e-05
2.45215e-05
2.39859e-05
2.33371e-05
2.26049e-05
2.17907e-05
2.08648e-05
1.9787e-05
1.86089e-05
1.73227e-05
1.61059e-05
1.48059e-05
1.38429e-05
1.26105e-05
1.21049e-05
2.33582e-05
3.47841e-05
1.71996e-05
7.97332e-06
4.67162e-06
7.3474e-06
1.45671e-05
1.73588e-05
2.35209e-05
2.91421e-05
3.58084e-05
4.44382e-05
5.45039e-05
6.75438e-05
8.35577e-05
0.00010095
0.000120076
0.000136342
0.000129514
9.56676e-05
6.28995e-05
6.5625e-05
9.64067e-05
0.000107537
0.000130668
0.000157005
0.000176347
0.000189433
0.0001985
0.000205218
0.000210457
0.00021471
0.000217366
0.000219813
0.000222297
0.000224984
0.000227999
0.000231422
0.000235266
0.000239425
0.000243621
0.000247317
0.000247266
0.000235179
0.00022053
0.000203163
0.000183531
0.00016254
0.000141296
0.000120886
0.000102041
8.41967e-05
6.95112e-05
5.88004e-05
5.0833e-05
4.53993e-05
4.03011e-05
3.65458e-05
3.1014e-05
2.76024e-05
2.89001e-05
5.03173e-05
2.44199e-05
1.00676e-05
1.06325e-05
1.73286e-05
2.9786e-05
3.63346e-05
4.64633e-05
5.76463e-05
7.15031e-05
8.99589e-05
0.000111259
0.000137358
0.000167683
0.000200468
0.000235278
0.000261761
0.000250716
0.000183403
0.000120416
0.000119827
0.000169242
0.000206496
0.000274721
0.000342282
0.000389857
0.000422216
0.000444613
0.000460541
0.000471855
0.000479634
0.000483937
0.000486869
0.000489014
0.000490794
0.000492538
0.000494482
0.000496714
0.00049906
0.000500963
0.00050132
0.000494773
0.000475348
0.000451029
0.000421229
0.000386432
0.000348031
0.000307889
0.00026798
0.000229744
0.000192012
0.000156659
0.000127167
0.000102745
8.61514e-05
7.18222e-05
6.48914e-05
5.37754e-05
5.04801e-05
3.21951e-05
5.72188e-05
2.78033e-05
1.10163e-05
1.70496e-05
2.79549e-05
4.31885e-05
5.33869e-05
6.6874e-05
8.35494e-05
0.000104719
0.000132415
0.000163748
0.000200376
0.00024144
0.000285502
0.000330863
0.000362929
0.000348257
0.000255267
0.000168949
0.000165517
0.000234398
0.000306252
0.000420974
0.000526041
0.000599906
0.000650756
0.000685946
0.000710306
0.000726571
0.000736521
0.00074111
0.000742729
0.000742313
0.000740569
0.000738071
0.000735258
0.000732354
0.000729204
0.000725093
0.000718541
0.000704104
0.000679327
0.000648286
0.000610151
0.000565329
0.000515391
0.000462545
0.000409174
0.000357035
0.000305486
0.000255425
0.000210799
0.000171293
0.000141863
0.000116198
0.0001027
8.51002e-05
8.07865e-05
3.39566e-05
5.94473e-05
3.42188e-05
1.18299e-05
2.22957e-05
3.69577e-05
5.43263e-05
6.79569e-05
8.47933e-05
0.000106656
0.000134701
0.000170605
0.000210515
0.000255495
0.000304512
0.000356405
0.000408469
0.000443298
0.000425
0.000313346
0.000208862
0.000206205
0.000294821
0.000403
0.000559679
0.000696939
0.000793989
0.000861385
0.000907933
0.000939491
0.00095959
0.000970709
0.000974571
0.000973748
0.000969504
0.000962827
0.000954535
0.00094528
0.000935456
0.000924992
0.000913123
0.000898141
0.000875954
0.000845959
0.000809165
0.000764603
0.000712606
0.000654782
0.00059345
0.000531114
0.000469637
0.00040888
0.000349119
0.000294012
0.000243452
0.000203197
0.00016729
0.00014625
0.000121902
0.000115569
3.49041e-05
5.90451e-05
4.15804e-05
1.22054e-05
2.51925e-05
4.39295e-05
6.34358e-05
8.04728e-05
0.000100709
0.000127411
0.000161765
0.000204901
0.000252114
0.000303723
0.000358529
0.00041557
0.000471508
0.00050718
0.000485269
0.000360656
0.000241665
0.000243667
0.000351695
0.000495294
0.000688692
0.000853508
0.000970855
0.00105285
0.00110932
0.00114697
0.00117002
0.00118159
0.00118401
0.00118003
0.0011712
0.00115877
0.00114379
0.00112713
0.00110935
0.00109052
0.00106991
0.00104575
0.00101607
0.000980537
0.000938299
0.000888323
0.000830888
0.000767559
0.000700624
0.000632528
0.000565092
0.000498468
0.000432547
0.000370525
0.000312403
0.00026397
0.000219951
0.000191846
0.000161355
0.000152398
3.54149e-05
5.72024e-05
4.71009e-05
1.46896e-05
2.47192e-05
4.88584e-05
7.07368e-05
9.13053e-05
0.000114986
0.000146197
0.00018629
0.000235804
0.000289255
0.000346131
0.000405032
0.000465148
0.000522843
0.00055797
0.00053252
0.000399627
0.000268757
0.000278733
0.000405586
0.000582599
0.00080786
0.000996405
0.00113158
0.00122646
0.00129164
0.00133448
0.00135983
0.00137135
0.00137186
0.00136426
0.00135039
0.00133173
0.00130952
0.00128484
0.00125845
0.00123057
0.00120056
0.00116684
0.00112973
0.00108826
0.00104064
0.000985841
0.000924125
0.000856958
0.000786495
0.000714999
0.000644141
0.000574156
0.000504662
0.000438383
0.000375376
0.000321116
0.000271088
0.000236968
0.000201336
0.000189375
3.56742e-05
5.46498e-05
5.07881e-05
2.16518e-05
2.19477e-05
5.16977e-05
7.6336e-05
0.000100667
0.000127851
0.000163282
0.000208585
0.000263744
0.000322552
0.000383613
0.000445278
0.000506869
0.000564718
0.000598281
0.000569382
0.000432107
0.000291295
0.000311792
0.000456802
0.000664761
0.000917616
0.00112676
0.00127769
0.00138405
0.00145695
0.0015043
0.00153149
0.00154263
0.00154092
0.00152944
0.00151026
0.00148506
0.0014553
0.00142219
0.00138672
0.00134928
0.00130937
0.00126587
0.00122125
0.00117342
0.00112034
0.0010611
0.000995923
0.000926154
0.000853733
0.000780645
0.000708322
0.000636917
0.000565821
0.000497313
0.000431471
0.000373319
0.000319076
0.000280126
0.000240424
0.000225328
3.57841e-05
5.1836e-05
5.29068e-05
3.00265e-05
1.982e-05
5.22953e-05
8.02358e-05
0.000108636
0.00013942
0.000178846
0.000228888
0.000289063
0.0003525
0.000416889
0.000480275
0.00054211
0.000598901
0.000630185
0.000597969
0.000459389
0.00031019
0.000343071
0.00050554
0.000741809
0.00101856
0.00124573
0.00141073
0.00152741
0.00160726
0.00165863
0.00168735
0.0016979
0.00169378
0.00167826
0.00165362
0.00162173
0.00158417
0.00154236
0.00149745
0.00145003
0.00139977
0.00134641
0.00129402
0.00123941
0.00118075
0.0011173
0.00104928
0.000977866
0.000904723
0.000831482
0.000759251
0.000687976
0.000616832
0.000547687
0.000480613
0.00042014
0.000363159
0.000320512
0.000277738
0.000259662
3.58063e-05
4.90313e-05
5.37296e-05
3.80465e-05
2.01308e-05
5.0445e-05
8.23684e-05
0.000115187
0.000149725
0.000192999
0.000247376
0.00031203
0.000379496
0.000446533
0.000510836
0.000571982
0.000626821
0.000655378
0.000620289
0.000482102
0.000327216
0.000372832
0.000551942
0.000813857
0.00111132
0.00135439
0.00153206
0.00165814
0.00174434
0.00179937
0.00182941
0.00183925
0.00183265
0.00181303
0.00178286
0.00174415
0.00169865
0.00164791
0.00159326
0.0015355
0.00147448
0.00141128
0.00135074
0.00128894
0.00122455
0.00115702
0.00108662
0.00101433
0.000941479
0.000869264
0.000798401
0.000728529
0.000658602
0.000590106
0.000523081
0.000461569
0.000403059
0.000357738
0.000312772
0.000292027
3.57785e-05
4.63903e-05
5.35297e-05
4.47101e-05
2.37139e-05
4.62482e-05
8.26421e-05
0.000120215
0.000158723
0.000205799
0.000264178
0.000332855
0.000403855
0.000473013
0.000537623
0.000597397
0.000649664
0.000675296
0.000637993
0.000501162
0.000344018
0.00040132
0.000596126
0.000881071
0.0011965
0.00145369
0.00164286
0.00177758
0.00186969
0.00192813
0.00195938
0.00196847
0.00195935
0.00193561
0.00189988
0.00185431
0.00180075
0.0017409
0.00167626
0.00160784
0.00153567
0.00146278
0.00139359
0.00132422
0.00125388
0.00118235
0.00110993
0.00103739
0.00096567
0.000895472
0.000827053
0.000759655
0.000692002
0.000625219
0.000559293
0.000497802
0.000438761
0.000391665
0.000345269
0.000322237
3.57235e-05
4.39921e-05
5.25659e-05
4.98058e-05
3.01057e-05
4.09703e-05
8.10125e-05
0.000123562
0.000166308
0.000217249
0.000279384
0.000351704
0.000425834
0.000496709
0.000561185
0.000619121
0.000668443
0.000691187
0.000652503
0.000518142
0.000361388
0.000428775
0.0006382
0.000943639
0.00127464
0.00154445
0.00174414
0.0018869
0.00198456
0.00204624
0.00207865
0.00208698
0.00207536
0.00204753
0.00200626
0.00195379
0.0018921
0.001823
0.00174814
0.00166875
0.00158515
0.00150266
0.00142433
0.00134701
0.00127053
0.00119501
0.00112084
0.00104857
0.000978682
0.00091135
0.000846298
0.000782296
0.000717822
0.000653655
0.000589706
0.000529125
0.000470385
0.000422298
0.000375126
0.000350215
3.56549e-05
4.18685e-05
5.1069e-05
5.33464e-05
3.71307e-05
3.6445e-05
7.75726e-05
0.00012505
0.000172314
0.000227303
0.000293045
0.000368703
0.00044564
0.000517936
0.000581984
0.000637806
0.000684038
0.000704152
0.000665069
0.000534503
0.000380062
0.000455445
0.000678265
0.00100176
0.00134625
0.00162737
0.00183674
0.00198703
0.00208998
0.0021548
0.00218835
0.00219596
0.0021819
0.00215002
0.00210323
0.00204387
0.00197399
0.00189552
0.00181025
0.00171962
0.00162452
0.00153232
0.00144442
0.00135881
0.00127597
0.00119645
0.00112072
0.00104913
0.000981685
0.00091795
0.000857067
0.000797267
0.000736764
0.00067599
0.000614771
0.000555854
0.000498119
0.000449726
0.000402341
0.000375954
3.55811e-05
4.00219e-05
4.92341e-05
5.54673e-05
4.36675e-05
3.41803e-05
7.26441e-05
0.000124533
0.000176527
0.000235862
0.000305174
0.000383947
0.000463439
0.000536954
0.00060041
0.000654014
0.000697222
0.000715167
0.00067678
0.000551506
0.000400701
0.000481595
0.000716425
0.00105566
0.00141178
0.00170307
0.00192139
0.00207878
0.00218681
0.00225469
0.0022894
0.00229635
0.00227991
0.00224406
0.0021918
0.00212556
0.00204745
0.00195951
0.00186366
0.00176155
0.00165508
0.00155295
0.0014551
0.00136088
0.00127148
0.0011879
0.00111077
0.00104019
0.000975681
0.000916171
0.000860159
0.000805271
0.00074944
0.000692745
0.000634908
0.00057831
0.000522182
0.000474078
0.000426968
0.000399495
3.5507e-05
3.84379e-05
4.72189e-05
5.63614e-05
4.93154e-05
3.65944e-05
6.69804e-05
0.000121961
0.000178708
0.00024277
0.000315744
0.000397498
0.000479363
0.000553978
0.000616792
0.00066823
0.000708668
0.000725075
0.000688541
0.000570111
0.000423886
0.000507504
0.000752791
0.00110553
0.00147164
0.00177206
0.00199868
0.00216281
0.00227573
0.00234665
0.00238255
0.00238891
0.00237018
0.00233044
0.00227276
0.00219966
0.00211331
0.00201582
0.00190925
0.00179545
0.00167796
0.00156553
0.00145744
0.00135434
0.00125818
0.00117048
0.00109202
0.00102271
0.000961555
0.000906802
0.000856269
0.000806924
0.000756389
0.000704384
0.000650505
0.000596795
0.000542799
0.000495508
0.000449098
0.000420905
3.54358e-05
3.70929e-05
4.51452e-05
5.6242e-05
5.38866e-05
4.18864e-05
6.16405e-05
0.000117471
0.000178632
0.000247813
0.000324681
0.000409383
0.00049351
0.000569184
0.000631409
0.000680864
0.000718942
0.000734567
0.000701045
0.000590926
0.000450099
0.000533474
0.000787481
0.0011516
0.0015262
0.00183481
0.00206912
0.00223966
0.00235733
0.00243125
0.00246839
0.00247425
0.00245332
0.00240977
0.00234675
0.00226683
0.00217222
0.00206513
0.00194774
0.00182211
0.00169406
0.00157092
0.00145235
0.00134016
0.00123708
0.00114519
0.00106546
0.000997605
0.000940112
0.000890551
0.000846016
0.000802767
0.000758089
0.000711321
0.000661915
0.000611598
0.000560191
0.000514177
0.000468841
0.000440268
3.53691e-05
3.59601e-05
4.31035e-05
5.53227e-05
5.7299e-05
4.82575e-05
5.76265e-05
0.000111455
0.00017615
0.00025073
0.000331858
0.000419593
0.000505944
0.000582706
0.000644486
0.000692252
0.000728501
0.000744167
0.00071474
0.000614203
0.000479677
0.000559828
0.000820626
0.00119408
0.00157578
0.0018917
0.00213315
0.00230978
0.00243208
0.00250898
0.00254742
0.00255286
0.00252983
0.00248256
0.00241427
0.00232758
0.00222473
0.00210801
0.00197971
0.00184241
0.00170401
0.00156989
0.00144066
0.00131922
0.00120911
0.00111298
0.00103201
0.000965715
0.000912111
0.000868077
0.000829969
0.000793292
0.000754967
0.000713927
0.000669456
0.000622982
0.000574573
0.000530245
0.000486314
0.000457677
3.53077e-05
3.50119e-05
4.11568e-05
5.38045e-05
5.95502e-05
5.45383e-05
5.70962e-05
0.000104626
0.00017127
0.000251235
0.00033709
0.000428077
0.000516697
0.000594643
0.000656197
0.000702657
0.000737679
0.000754217
0.000729836
0.000639883
0.000512755
0.000586904
0.000852376
0.00123319
0.0016207
0.00194306
0.00219112
0.00237355
0.00250035
0.00258022
0.00262001
0.00262512
0.00260009
0.0025492
0.00247573
0.00238232
0.00227126
0.00214489
0.00200564
0.00185712
0.00170834
0.00156307
0.00142311
0.00129236
0.00117517
0.00107477
0.000992557
0.00092788
0.000878292
0.000840016
0.00080866
0.000778953
0.000747416
0.000712541
0.000673419
0.000631192
0.000586143
0.000543869
0.000501638
0.000473228
3.52519e-05
3.42224e-05
3.93461e-05
5.18683e-05
6.07e-05
6.01028e-05
5.98371e-05
9.79081e-05
0.000164246
0.000249066
0.000340136
0.000434733
0.000525759
0.00060505
0.000666668
0.000712264
0.000746689
0.000764883
0.000746324
0.000667667
0.000549213
0.000615052
0.000882901
0.00126916
0.00166121
0.00198919
0.00224334
0.00243128
0.00256246
0.0026453
0.00268649
0.00269136
0.00266443
0.00261003
0.00253146
0.0024314
0.00231216
0.00217615
0.00202591
0.0018669
0.00170754
0.00155107
0.00140038
0.00126033
0.0011361
0.00103146
0.000948015
0.00088495
0.000839406
0.000806999
0.000782613
0.000760185
0.0007358
0.000707474
0.000674072
0.000636454
0.000595091
0.000555199
0.000514932
0.000487019
3.52018e-05
3.35677e-05
3.76949e-05
4.96712e-05
6.08538e-05
6.46267e-05
6.45155e-05
9.24156e-05
0.000155642
0.000244057
0.000340706
0.000439405
0.000533081
0.000613944
0.00067597
0.00072118
0.000755626
0.000776171
0.000764029
0.000697101
0.000588669
0.000644609
0.000912394
0.0013022
0.00169757
0.00203036
0.00229007
0.00248323
0.00261867
0.00270446
0.00274711
0.00275181
0.0027231
0.00266528
0.00258171
0.00247508
0.00234771
0.00220208
0.00204115
0.00187208
0.00170204
0.00153441
0.0013731
0.00122388
0.00109273
0.000983969
0.000899316
0.000837811
0.000796234
0.00076968
0.000752356
0.000737415
0.000720472
0.000699021
0.000671665
0.000638978
0.000601593
0.000564378
0.000526313
0.000499145
3.51571e-05
3.30269e-05
3.62136e-05
4.7344e-05
6.01476e-05
6.79585e-05
6.97959e-05
8.99508e-05
0.000146329
0.000236238
0.000338496
0.000441877
0.00053856
0.000621295
0.000684124
0.000729439
0.000764488
0.000787962
0.000782651
0.000727645
0.00063051
0.000675872
0.000941077
0.00133256
0.00173001
0.00206677
0.00233153
0.00252963
0.00266919
0.00275791
0.00280207
0.0028067
0.00277629
0.00271517
0.0026267
0.00251357
0.00237814
0.00222295
0.00205191
0.00187296
0.00169223
0.00151358
0.00134184
0.00118369
0.0010459
0.000933212
0.00084743
0.000787402
0.000749613
0.000728751
0.000718438
0.000711079
0.00070178
0.000687466
0.000666433
0.000638961
0.000605814
0.000571542
0.000535893
0.000509697
3.51175e-05
3.25816e-05
3.49028e-05
4.49921e-05
5.87345e-05
7.00576e-05
7.48684e-05
9.0699e-05
0.000137332
0.000225941
0.000333239
0.00044188
0.00054204
0.000627021
0.0006911
0.000737021
0.00077319
0.000800045
0.000801823
0.000758735
0.000673969
0.000709053
0.000969194
0.00136047
0.00175874
0.00209862
0.00236791
0.00257065
0.00271421
0.00280583
0.00285153
0.00285617
0.00282418
0.00275986
0.00266658
0.00254706
0.00240363
0.00223906
0.00205857
0.00186977
0.00167846
0.00148902
0.00130716
0.00114046
0.000996405
0.00088013
0.000793374
0.000734731
0.00070045
0.000684963
0.000681447
0.000681632
0.000680078
0.000673087
0.000658605
0.000636591
0.000607912
0.000576819
0.000543779
0.000518767
3.50825e-05
3.22161e-05
3.37562e-05
4.26964e-05
5.67733e-05
7.09603e-05
7.92365e-05
9.35258e-05
0.000130696
0.000213874
0.000324787
0.000439104
0.000543305
0.00063099
0.000696811
0.000743856
0.00078159
0.000812149
0.000821147
0.000789823
0.000718208
0.000744238
0.000997011
0.00138617
0.00178394
0.00212608
0.00239937
0.00260645
0.00275386
0.00284834
0.00289563
0.00290035
0.00286688
0.00279947
0.00270149
0.00257567
0.00242434
0.00225089
0.00206132
0.00186276
0.00166106
0.00146113
0.00126957
0.00109481
0.000945054
0.000825673
0.000738205
0.000680878
0.000649737
0.000639144
0.000642024
0.000649561
0.000655735
0.000656169
0.000648403
0.000632049
0.000608037
0.000580333
0.000550076
0.000526438
3.50517e-05
3.1917e-05
3.27635e-05
4.05158e-05
5.44189e-05
7.07584e-05
8.26e-05
9.73107e-05
0.000127341
0.000201455
0.00031322
0.000433248
0.000542081
0.000633009
0.000701119
0.000749821
0.000789505
0.000823976
0.00084022
0.000820396
0.000762407
0.00078134
0.0010248
0.00140992
0.00180579
0.0021493
0.00242605
0.00263716
0.00278827
0.00288558
0.00293447
0.00293935
0.00290449
0.0028341
0.00273153
0.00259951
0.0024405
0.00225875
0.00206028
0.00185215
0.00164031
0.0014303
0.00122955
0.00104738
0.000892618
0.000770783
0.000683008
0.000626986
0.000598556
0.000592207
0.00060088
0.000615401
0.000629146
0.000637007
0.000636054
0.000625513
0.000606334
0.000582202
0.000554881
0.000532795
3.50247e-05
3.16729e-05
3.19117e-05
3.84901e-05
5.18145e-05
6.95835e-05
8.47934e-05
0.000101199
0.000126852
0.000190351
0.000299025
0.000424104
0.000538175
0.000632887
0.000703827
0.000754747
0.000796729
0.00083522
0.000858658
0.000849997
0.000805812
0.000820086
0.00105285
0.00143195
0.00182443
0.00216841
0.00244807
0.00266288
0.00281753
0.00291761
0.00296815
0.00297324
0.0029371
0.00286383
0.00275679
0.00261869
0.00245248
0.00226276
0.00205561
0.00183813
0.00161649
0.00139686
0.00118754
0.000998727
0.000839832
0.000716371
0.000628856
0.000574236
0.000548068
0.00054516
0.000558801
0.00057974
0.000600741
0.000615912
0.00062179
0.000617161
0.000602943
0.000582539
0.00055829
0.000537915
3.5001e-05
3.14744e-05
3.11866e-05
3.66432e-05
4.90869e-05
6.75931e-05
8.57519e-05
0.000104593
0.000128328
0.000181772
0.000283243
0.000411629
0.000531309
0.000630459
0.000704721
0.000758422
0.000803038
0.000845584
0.0008761
0.00087822
0.000847769
0.000860021
0.00108139
0.00145249
0.00183998
0.0021835
0.00246551
0.0026837
0.00284172
0.00294453
0.00299671
0.00300209
0.00296476
0.00288873
0.00277733
0.00263346
0.00246044
0.00226301
0.00204744
0.00182088
0.00158985
0.00136115
0.00114398
0.000949395
0.000787376
0.000663278
0.000576765
0.000523789
0.000499482
0.000499095
0.000516659
0.000543231
0.000570988
0.000593219
0.000605852
0.000607174
0.000598007
0.000581457
0.000560395
0.000541877
3.49803e-05
3.13135e-05
3.0574e-05
3.49859e-05
4.63431e-05
6.49582e-05
8.54907e-05
0.000107091
0.000130805
0.000176188
0.000267295
0.000396071
0.000521253
0.000625473
0.000703628
0.000760585
0.000808198
0.000854785
0.000892216
0.000904715
0.00088773
0.000900555
0.00111065
0.00147173
0.00185252
0.00219466
0.00247847
0.0026997
0.00286092
0.00296639
0.00302023
0.00302595
0.00298753
0.00290884
0.00279332
0.002644
0.00246445
0.00225961
0.00203588
0.00180059
0.0015606
0.00132345
0.00109922
0.000899865
0.000735855
0.000612248
0.000527633
0.000476715
0.000453987
0.000455162
0.000475405
0.000506593
0.000540407
0.000569291
0.000588497
0.000595737
0.000591666
0.000579066
0.000561288
0.000544754
3.49623e-05
3.11837e-05
3.006e-05
3.35196e-05
4.3669e-05
6.18528e-05
8.40891e-05
0.000108443
0.000133459
0.00017333
0.000252678
0.000378061
0.000507889
0.000617672
0.000700321
0.000760994
0.000811957
0.000862563
0.000906707
0.000929179
0.000925246
0.000941014
0.00114078
0.00148935
0.00186224
0.00220213
0.00248701
0.00271094
0.00287519
0.00298323
0.00303874
0.00304486
0.00300543
0.00292429
0.00280488
0.0026504
0.00246461
0.00225263
0.00202105
0.00177739
0.00152897
0.00128403
0.00105361
0.000850564
0.000685784
0.000563884
0.000482176
0.000433901
0.000412664
0.000414511
0.000436051
0.000470611
0.000509561
0.000544521
0.000569997
0.000583043
0.000584063
0.000575477
0.000561055
0.000546618
3.49465e-05
3.10792e-05
2.96315e-05
3.22379e-05
4.11299e-05
5.84439e-05
8.1676e-05
0.000108518
0.00013566
0.000172469
0.000240548
0.000358634
0.000491302
0.000606832
0.00069456
0.000759399
0.000814044
0.000868675
0.000919302
0.000951351
0.000959951
0.000980716
0.00117113
0.00150527
0.00186922
0.00220601
0.00249136
0.00271757
0.0028846
0.00299512
0.00305228
0.00305886
0.00301857
0.00293516
0.0028121
0.00265271
0.00246097
0.00224216
0.00200306
0.00175145
0.00149513
0.00124314
0.00100746
0.000801859
0.00063758
0.000518636
0.000440888
0.000395962
0.000376362
0.000378197
0.000399634
0.000436118
0.000479062
0.000519335
0.000550646
0.000569298
0.000575347
0.0005708
0.000559786
0.000547542
3.49327e-05
3.09957e-05
2.92767e-05
3.11299e-05
3.87713e-05
5.48843e-05
7.84165e-05
0.00010728
0.000136955
0.000172723
0.000231422
0.000339117
0.000471866
0.000592808
0.000686106
0.000755582
0.000814177
0.000872891
0.000929758
0.000971005
0.000991557
0.00101903
0.00120088
0.00151939
0.0018735
0.0022064
0.00249162
0.00271969
0.00288925
0.00300213
0.00306093
0.00306804
0.00302701
0.00294152
0.00281503
0.00265101
0.0024536
0.00222827
0.00198202
0.0017229
0.00145928
0.00120099
0.000961042
0.000754057
0.000591559
0.000476792
0.000404026
0.000363205
0.000345603
0.000347059
0.000367135
0.000403966
0.000449552
0.00049419
0.000530756
0.000554716
0.000565671
0.000565148
0.000557569
0.000547595
3.49207e-05
3.09293e-05
2.89848e-05
3.01815e-05
3.66218e-05
5.1307e-05
7.44978e-05
0.000104772
0.000137044
0.000173266
0.000225138
0.000320864
0.0004503
0.000575606
0.000674748
0.000749321
0.000812086
0.000874987
0.000937856
0.000987946
0.00101983
0.00105544
0.00122914
0.00153156
0.0018751
0.00220338
0.00248787
0.0027174
0.00288923
0.00300435
0.00306476
0.00307245
0.00303081
0.00294342
0.00281374
0.00264535
0.00244257
0.00221104
0.00195801
0.00169187
0.00142156
0.00115779
0.000914583
0.00070741
0.000547945
0.000438495
0.000371633
0.000335633
0.000320531
0.000321601
0.000339388
0.000374977
0.000421682
0.000469558
0.000510656
0.000539523
0.000555194
0.000558638
0.000554492
0.000546849
3.49101e-05
3.08767e-05
2.87463e-05
2.93771e-05
3.46953e-05
4.78217e-05
7.0116e-05
0.000101105
0.000135751
0.000173418
0.000221053
0.000304934
0.000427642
0.000555451
0.000660347
0.000740405
0.00080762
0.000874781
0.000943396
0.001002
0.00104459
0.00108924
0.00125525
0.00154156
0.00187398
0.00219699
0.00248019
0.00271076
0.00288462
0.00300184
0.00306383
0.00307216
0.00303004
0.00294093
0.00280828
0.00263579
0.00242793
0.00219055
0.00193113
0.00165847
0.00138214
0.00111372
0.000868293
0.00066212
0.000506879
0.000403769
0.00034359
0.000313019
0.000300954
0.000301936
0.000316958
0.000349871
0.000396083
0.000445921
0.00049069
0.000523957
0.00054408
0.000551388
0.000550646
0.000545372
3.49009e-05
3.08355e-05
2.85528e-05
2.87004e-05
3.2994e-05
4.45137e-05
6.54633e-05
9.64451e-05
0.000133009
0.000172665
0.000218305
0.00029185
0.000405117
0.000532847
0.000642884
0.000728659
0.000800609
0.000872109
0.000946194
0.00101301
0.00106571
0.00111974
0.00127863
0.00154914
0.00187006
0.00218723
0.00246864
0.00269985
0.00287548
0.00299467
0.00305821
0.00306723
0.00302474
0.00293409
0.0027987
0.00262237
0.00240974
0.00216685
0.00190147
0.00162283
0.00134114
0.00106895
0.000822355
0.000618345
0.000468439
0.000372557
0.000319676
0.000294999
0.000286446
0.000287815
0.000300061
0.000329191
0.000373324
0.000423745
0.000471205
0.000508262
0.000532503
0.000543522
0.000546121
0.000543237
3.48929e-05
3.08035e-05
2.83971e-05
2.81359e-05
3.15114e-05
4.14441e-05
6.07179e-05
9.09949e-05
0.000128846
0.000170652
0.000216024
0.000281542
0.000383911
0.000508578
0.000622518
0.000713971
0.000790902
0.000866828
0.000946134
0.00102084
0.00108312
0.0011464
0.00129879
0.00155406
0.00186324
0.00217409
0.00245324
0.00268472
0.00286186
0.0029829
0.00304794
0.0030577
0.00301497
0.00292295
0.00278505
0.00260515
0.00238806
0.00214001
0.00186911
0.00158504
0.00129871
0.00102363
0.00077693
0.000576209
0.000432657
0.000344748
0.000299622
0.000281154
0.00027648
0.000278743
0.000288551
0.000313236
0.000353872
0.000403464
0.000452543
0.00049269
0.00052064
0.000535166
0.000541013
0.000540516
3.48858e-05
3.07789e-05
2.82728e-05
2.76686e-05
3.02346e-05
3.8652e-05
5.60354e-05
8.49811e-05
0.00012337
0.000167163
0.000213456
0.000273474
0.000364912
0.000483656
0.000599628
0.000696336
0.00077838
0.000858822
0.000943177
0.00102535
0.00109677
0.0011687
0.0013153
0.00155605
0.00185339
0.00215754
0.002434
0.0026654
0.00284382
0.00296656
0.00303308
0.00304362
0.00300076
0.00290755
0.00276737
0.00258418
0.00236293
0.00211011
0.00183414
0.00154521
0.00125496
0.000977899
0.000732163
0.000535811
0.00039953
0.000320207
0.00028315
0.000271077
0.000270524
0.000274119
0.00028201
0.000302036
0.000338056
0.000385456
0.000435029
0.000477489
0.000508672
0.00052645
0.000535418
0.000537282
3.48797e-05
3.07603e-05
2.81745e-05
2.72849e-05
2.91468e-05
3.61568e-05
5.15437e-05
7.86374e-05
0.000116761
0.000162108
0.000210007
0.000266849
0.000348537
0.000459166
0.000574833
0.000675893
0.000762983
0.000847979
0.000937294
0.00102646
0.00110667
0.00118621
0.00132785
0.00155488
0.00184038
0.00213752
0.00241093
0.00264191
0.00282138
0.00294569
0.00301365
0.00302503
0.00298217
0.00288794
0.0027457
0.00255949
0.00233442
0.0020772
0.00179664
0.00150344
0.00121002
0.000931909
0.000688184
0.000497226
0.000369037
0.000298785
0.000269993
0.000264398
0.000268096
0.000273349
0.000279864
0.000295383
0.000326049
0.000370026
0.000418961
0.000462902
0.000496781
0.000517509
0.000529433
0.000533611
3.48743e-05
3.07464e-05
2.80978e-05
2.69722e-05
2.82294e-05
3.39621e-05
4.734e-05
7.21891e-05
0.000109251
0.000155504
0.000205258
0.000260811
0.000334694
0.000436069
0.000548949
0.000652962
0.000744736
0.000834204
0.000928398
0.00102426
0.00111259
0.00119883
0.00133622
0.00155039
0.00182409
0.00211395
0.00238399
0.00261428
0.00279457
0.00292034
0.0029897
0.00300196
0.00295921
0.00286416
0.00272009
0.00253114
0.00230257
0.00204135
0.00175668
0.00145983
0.00116401
0.000885793
0.000645118
0.000460517
0.000341144
0.000280335
0.000259905
0.000260793
0.000268785
0.000275901
0.000281503
0.000292895
0.000317861
0.000357396
0.000404597
0.000449158
0.000485149
0.000508477
0.000523162
0.000529578
3.48695e-05
3.07364e-05
2.80386e-05
2.67197e-05
2.74628e-05
3.20592e-05
4.34917e-05
6.58399e-05
0.000101109
0.000147472
0.000198948
0.000254575
0.000322883
0.000415019
0.0005229
0.000628052
0.000723781
0.000817431
0.000916418
0.00101865
0.00111447
0.00120661
0.00134029
0.00154244
0.00180442
0.00208677
0.00235316
0.00258248
0.00276341
0.00289053
0.00296124
0.00297445
0.00293194
0.00283623
0.00269058
0.00249916
0.00226743
0.00200262
0.00171435
0.00141448
0.00111705
0.000839685
0.000603077
0.000425735
0.00031581
0.000264712
0.000252661
0.000259983
0.000272246
0.000281326
0.000286361
0.000294109
0.000313357
0.000347697
0.000392153
0.000436469
0.000473953
0.000499491
0.000516706
0.000525263
3.48654e-05
3.07294e-05
2.79938e-05
2.65175e-05
2.68279e-05
3.04304e-05
4.00376e-05
5.97615e-05
9.26227e-05
0.000138217
0.000190965
0.000247502
0.000312363
0.000396248
0.000497564
0.000601831
0.000700398
0.000797762
0.000901315
0.00100951
0.00111232
0.00120963
0.00134004
0.00153097
0.00178131
0.0020559
0.0023184
0.00254652
0.00272791
0.00285627
0.00292832
0.00294252
0.00290037
0.00280419
0.00265719
0.0024636
0.00222905
0.00196108
0.00166973
0.00136749
0.00106926
0.000793721
0.00056217
0.000392921
0.000292989
0.000251773
0.000248057
0.000261723
0.000278188
0.000289256
0.00029396
0.000298541
0.000312297
0.000340971
0.000381796
0.000425026
0.00046336
0.000490686
0.00051017
0.000520745
3.48617e-05
3.07248e-05
2.79605e-05
2.63574e-05
2.63066e-05
2.90525e-05
3.69923e-05
5.40873e-05
8.40744e-05
0.000128013
0.00018133
0.000239126
0.00030232
0.000379565
0.000473621
0.000575063
0.000675013
0.000775424
0.000883086
0.000996771
0.00110613
0.00120802
0.00133549
0.00151599
0.00175475
0.00202132
0.00227966
0.00250638
0.00268806
0.00281757
0.00289093
0.0029062
0.00286454
0.00276809
0.00261997
0.00242451
0.0021875
0.00191679
0.00162291
0.00131896
0.00102078
0.000748039
0.000522499
0.000362114
0.00027263
0.00024138
0.000245906
0.0002658
0.000286363
0.000299385
0.000303903
0.000305741
0.000314369
0.000337173
0.000373646
0.000414991
0.00045353
0.000482195
0.00050366
0.000516108
3.48586e-05
3.07221e-05
2.79365e-05
2.62319e-05
2.58823e-05
2.78993e-05
3.43506e-05
4.89103e-05
7.57239e-05
0.000117186
0.000170188
0.000229157
0.000291996
0.000364459
0.000451435
0.000548493
0.000648176
0.000750653
0.000861772
0.0009804
0.00109587
0.00120194
0.00132674
0.00149753
0.00172479
0.00198302
0.00223692
0.00246203
0.00264387
0.00277445
0.00284909
0.00286551
0.00282448
0.00272793
0.00257896
0.00238193
0.00214282
0.00186983
0.00157397
0.00126902
0.000971733
0.000702775
0.000484161
0.000333345
0.00025468
0.000233397
0.000246037
0.000272024
0.000296557
0.000311459
0.00031587
0.000315315
0.00031924
0.00033619
0.00036777
0.000406503
0.000444608
0.000474147
0.000497282
0.000511434
3.48558e-05
3.07209e-05
2.792e-05
2.61349e-05
2.55401e-05
2.69437e-05
3.20925e-05
4.42847e-05
6.7792e-05
0.000106087
0.000157786
0.000217474
0.000280764
0.000350229
0.000431009
0.000522729
0.000620503
0.000723793
0.000837469
0.000960402
0.00108154
0.00119151
0.00131393
0.0014757
0.00169153
0.00194106
0.00219019
0.00241346
0.00259532
0.00272691
0.00280283
0.00282047
0.0027802
0.00268376
0.00253419
0.0023359
0.00209508
0.00182027
0.001523
0.00121776
0.000922267
0.00065807
0.000447249
0.000306643
0.000239077
0.000227693
0.000248295
0.000280225
0.000308582
0.000325269
0.000329603
0.00032693
0.000326579
0.000337852
0.00036419
0.000399672
0.000436728
0.000466666
0.000491142