/*--------------------------------*- C++ -*----------------------------------*\
| =========                 |                                                 |
| \\      /  F ield         | OpenFOAM: The Open Source CFD Toolbox           |
|  \\    /   O peration     | Version:  2.4.0                                 |
|   \\  /    A nd           | Web:      www.OpenFOAM.org                      |
|    \\/     M anipulation  |                                                 |
\*---------------------------------------------------------------------------*/
FoamFile
{
    version     2.0;
    format      ascii;
    class       volScalarField;
    location    "0.66";
    object      pMean;
}
// * * * * * * * * * * * * * * * * * * * * * * * * * * * * * * * * * * * * * //

dimensions      [0 2 -2 0 0 0 0];

internalField   nonuniform List<scalar> 
2320
(
4.08048
4.07869
4.06558
4.06642
4.04975
4.05155
4.03266
4.03633
4.0131
4.01925
3.98999
4.00109
3.96332
3.98128
3.92641
3.95118
3.87684
3.9073
3.79904
3.82866
4.07872
4.07542
4.06259
4.06327
4.04617
4.04897
4.02956
4.03245
4.00873
4.01477
3.98527
3.99609
3.95787
3.97366
3.9195
3.94177
3.86814
3.89401
3.78296
3.80682
4.07768
4.07246
4.06011
4.05983
4.0449
4.04502
4.0282
4.02949
4.0068
4.01109
3.98507
3.9926
3.9569
3.97102
3.92252
3.94241
3.87494
3.89927
3.8008
3.81788
4.07639
4.07283
4.06019
4.06011
4.04498
4.04486
4.02717
4.02697
4.00486
4.00826
3.98275
3.98874
3.95583
3.96709
3.92169
3.93676
3.87355
3.89347
3.79873
3.81475
4.07652
4.07111
4.05933
4.05702
4.04498
4.04241
4.02651
4.02338
4.00589
4.00432
3.983
3.98351
3.95815
3.95997
3.92456
3.9327
3.88196
3.89081
3.81589
3.82089
4.07403
4.06629
4.05344
4.05067
4.0405
4.03697
4.0204
4.01618
3.99944
3.99695
3.97719
3.97545
3.95124
3.95093
3.91993
3.92074
3.87768
3.87847
3.81578
3.8125
4.07458
4.06285
4.05281
4.0481
4.04149
4.03328
4.02082
4.01193
3.99967
3.99102
3.97797
3.96919
3.95418
3.94463
3.92499
3.91392
3.8859
3.87331
3.82764
3.81537
4.07404
4.06323
4.05486
4.05001
4.04268
4.03481
4.02307
4.01253
4.00227
3.9915
3.98038
3.96767
3.95796
3.94268
3.93176
3.91146
3.89859
3.87204
3.8495
3.81723
4.07776
4.06309
4.05956
4.05175
4.04701
4.03436
4.02626
4.01021
4.00624
3.98982
3.98658
3.96711
3.96662
3.94179
3.94296
3.90877
3.91534
3.87068
3.87213
3.81831
4.07914
4.06634
4.06316
4.05558
4.04935
4.03817
4.02902
4.01512
4.00943
3.99538
3.99138
3.97436
3.97343
3.95196
3.95482
3.92415
3.93649
3.8919
3.91353
3.84136
4.08399
4.06583
4.0664
4.0555
4.05226
4.03584
4.03131
4.01036
4.01157
3.98988
3.99597
3.97071
3.98263
3.94908
3.96988
3.92003
3.96148
3.89021
3.94962
3.8572
4.08435
4.06996
4.06918
4.06214
4.05458
4.04065
4.03304
4.01603
4.01042
3.99444
3.99459
3.97865
3.9834
3.96348
3.97488
3.9461
3.97396
3.93415
3.97662
3.9042
4.08914
4.07142
4.07393
4.0632
4.05835
4.0417
4.03579
4.0138
4.01247
3.9894
3.99751
3.97368
3.98832
3.95555
3.98079
3.92944
3.99235
3.90711
4.03277
3.88617
4.08966
4.07583
4.07469
4.06712
4.05876
4.04514
4.03156
4.01564
4.00615
3.99149
3.99007
3.98176
3.9841
3.97317
3.97365
3.95899
3.98268
3.95886
4.03782
4.00119
4.09389
4.0767
4.07965
4.06944
4.06378
4.04448
4.03135
4.00954
4.0041
3.98125
3.98816
3.97109
3.98415
3.96188
3.97459
3.9429
3.98619
3.91885
4.05523
3.91445
4.09423
4.0818
4.08321
4.07692
4.06606
4.04789
4.02617
4.00988
3.99367
3.98
3.98323
3.9806
3.98371
3.98394
3.96461
3.97201
3.9492
3.96198
4.016
4.03897
4.09911
4.08328
4.08963
4.08063
4.07275
4.04749
4.02441
4.00307
3.98751
3.96674
3.98154
3.97355
3.98813
3.98073
3.97403
3.97639
3.96956
3.94755
3.96462
3.90617
4.10068
4.08801
4.09581
4.08854
4.08003
4.05303
4.02504
4.00227
3.9853
3.96729
3.98839
3.97751
3.99998
3.99704
3.9761
3.98111
3.95034
4.02624
3.98782
4.00292
4.10416
4.09145
4.10285
4.09507
4.0857
4.05816
4.02629
4.00772
3.98318
3.96718
3.98786
3.97919
4.00291
4.00948
3.97088
3.99064
3.92791
3.98354
3.87068
4.07559
4.10626
4.09584
4.10973
4.10657
4.09779
4.07346
4.04831
4.02931
4.00906
3.99414
4.01276
4.00517
4.03527
4.03183
4.01378
4.01613
3.98168
4.09689
4.00391
4.35024
3.6759
3.67423
3.48884
3.39921
3.20588
2.99909
2.72939
2.45198
3.6516
3.65059
3.46585
3.37756
3.17342
2.95057
2.6809
2.39354
3.67394
3.6665
3.48059
3.39926
3.19512
2.98739
2.72159
2.43081
3.67517
3.66743
3.47932
3.40289
3.19057
2.98128
2.71349
2.41278
3.69917
3.68232
3.49348
3.41818
3.1961
2.99377
2.73368
2.41609
3.71035
3.68677
3.50586
3.43263
3.19405
3.00589
2.72504
2.4006
3.72754
3.70146
3.52464
3.44945
3.19054
3.01236
2.71409
2.38357
3.75761
3.71022
3.54964
3.4781
3.19065
3.01555
2.69293
2.35064
3.78168
3.71001
3.56495
3.50121
3.20482
3.01575
2.65517
2.30945
3.84125
3.71712
3.57026
3.45846
3.19082
3.00257
2.60797
2.2657
3.88952
3.74239
3.63966
3.401
3.15712
2.97879
2.55843
2.2268
3.95571
3.76241
3.7261
3.35918
3.11933
2.93634
2.50438
2.1984
4.00226
3.71484
3.77031
3.32053
3.08548
2.87218
2.44887
2.18551
4.11278
3.6779
3.77708
3.29682
3.07478
2.80363
2.39619
2.17685
4.25192
3.65044
3.75444
3.27964
3.07877
2.74753
2.35908
2.14763
4.40797
3.67843
3.71584
3.26753
3.08823
2.71035
2.35258
2.08074
4.4678
3.71358
3.66159
3.24741
3.09065
2.67872
2.37602
1.97263
4.43026
3.74866
3.60397
3.22758
3.08615
2.66225
2.42701
1.83864
4.20298
3.70111
3.53605
3.20142
3.07505
2.66341
2.49826
1.71945
3.9817
3.63709
3.48386
3.1934
3.07587
2.70357
2.59695
1.71305
2.08215
1.68733
1.2117
0.711256
0.13117
-0.491315
-1.16743
-1.86237
-2.55998
-3.23468
-3.84165
-4.35582
-4.73661
-4.96381
-5.02349
-4.9152
-4.64806
-4.24494
-3.73396
-3.15348
-2.54304
-1.93963
-1.37947
-0.884968
-0.477705
-0.184911
-0.0271947
-0.108764
2.02947
1.62916
1.15363
0.653358
0.0759124
-0.540963
-1.21448
-1.90704
-2.61082
-3.28318
-3.89721
-4.40986
-4.79362
-5.01856
-5.07854
-4.96403
-4.69573
-4.28413
-3.77231
-3.18178
-2.57263
-1.95863
-1.4037
-0.894829
-0.503116
-0.165097
-0.0091042
0.129798
2.07269
1.66304
1.18305
0.661464
0.0723292
-0.559073
-1.2449
-1.9542
-2.67144
-3.35662
-3.97908
-4.49914
-4.88554
-5.11074
-5.16654
-5.04814
-4.76973
-4.34948
-3.82193
-3.22118
-2.59326
-1.97181
-1.39417
-0.883238
-0.456611
-0.120672
0.103042
0.241983
2.04711
1.63413
1.15857
0.630957
0.0319508
-0.611553
-1.31679
-2.04156
-2.78145
-3.48314
-4.12412
-4.65173
-5.04372
-5.2684
-5.31855
-5.18892
-4.89713
-4.46003
-3.91482
-3.29328
-2.64805
-2.00881
-1.41646
-0.886993
-0.444936
-0.0911135
0.17519
0.36217
2.05
1.62617
1.14655
0.597482
-0.0109443
-0.677246
-1.40218
-2.15439
-2.92094
-3.64757
-4.30925
-4.85002
-5.24942
-5.4714
-5.51229
-5.36909
-5.05959
-4.60114
-4.02969
-3.38352
-2.70967
-2.04586
-1.42665
-0.874112
-0.406751
-0.022385
0.273789
0.50647
2.02758
1.59215
1.10296
0.537093
-0.0826139
-0.774677
-1.52492
-2.31198
-3.11169
-3.87104
-4.55858
-5.11332
-5.52052
-5.73783
-5.76945
-5.60591
-5.27127
-4.78183
-4.17946
-3.50123
-2.79616
-2.10151
-1.45524
-0.875105
-0.382286
0.0255302
0.350606
0.613649
1.99965
1.55292
1.04755
0.467549
-0.16909
-0.88983
-1.6703
-2.49794
-3.33439
-4.13117
-4.84111
-5.40958
-5.82114
-6.03191
-6.04776
-5.86304
-5.49947
-4.97774
-4.33918
-3.62704
-2.88481
-2.15688
-1.47609
-0.866156
-0.343842
0.0905542
0.441782
0.729908
1.95489
1.49705
0.976496
0.38766
-0.268559
-1.01828
-1.83495
-2.70728
-3.58439
-4.42136
-5.15143
-5.73545
-6.14848
-6.35243
-6.34978
-6.13916
-5.74133
-5.1818
-4.50676
-3.75663
-2.97729
-2.21163
-1.49717
-0.856866
-0.306995
0.151077
0.530672
0.8322
1.90104
1.43577
0.906537
0.308971
-0.370196
-1.15197
-2.01019
-2.92917
-3.85333
-4.72794
-5.47582
-6.07278
-6.47839
-6.66939
-6.64455
-6.40625
-5.97326
-5.37584
-4.66492
-3.87212
-3.05802
-2.25324
-1.50537
-0.833807
-0.261594
0.217414
0.617402
0.937106
1.84465
1.37369
0.837065
0.230775
-0.475533
-1.29282
-2.19566
-3.16199
-4.132
-5.03325
-5.79416
-6.39537
-6.78772
-6.96291
-6.91429
-6.64351
-6.17536
-5.54725
-4.80482
-3.97016
-3.12298
-2.28236
-1.50204
-0.803364
-0.206183
0.29168
0.705466
1.03828
1.79039
1.31148
0.768676
0.153871
-0.579216
-1.43004
-2.37353
-3.38346
-4.39344
-5.31103
-6.07766
-6.6733
-7.04637
-7.20475
-7.13362
-6.83101
-6.32604
-5.66987
-4.9013
-4.03954
-3.16054
-2.2834
-1.47806
-0.762363
-0.143038
0.37007
0.795714
1.13381
1.73739
1.24658
0.697597
0.0793542
-0.675712
-1.555
-2.52935
-3.58121
-4.61931
-5.54459
-6.31003
-6.89285
-7.24775
-7.38066
-7.28457
-6.95522
-6.42458
-5.74128
-4.94055
-4.06357
-3.16838
-2.25688
-1.42858
-0.699513
-0.0663427
0.453653
0.887521
1.2273
1.68119
1.17342
0.624513
0.0142732
-0.759812
-1.65587
-2.65526
-3.73716
-4.79062
-5.71063
-6.46591
-7.03108
-7.36071
-7.47427
-7.36516
-7.00206
-6.44254
-5.75711
-4.93432
-4.04034
-3.13043
-2.20423
-1.36527
-0.624418
0.0208389
0.542212
0.978035
1.31507
1.60255
1.08855
0.558078
-0.0400346
-0.828028
-1.73001
-2.73951
-3.83678
-4.89339
-5.8046
-6.54283
-7.08342
-7.39253
-7.47456
-7.35959
-6.98259
-6.39873
-5.69849
-4.87504
-3.9817
-3.05524
-2.1194
-1.28046
-0.537517
0.111035
0.631669
1.06806
1.39887
1.49009
0.996544
0.507347
-0.0584994
-0.850939
-1.74587
-2.7541
-3.8545
-4.90484
-5.81178
-6.53375
-7.04659
-7.33878
-7.40167
-7.26733
-6.8771
-6.30138
-5.5916
-4.76416
-3.88332
-2.94928
-2.01705
-1.18193
-0.441911
0.204791
0.715643
1.14848
1.46818
1.34514
0.905443
0.484503
-0.0307942
-0.834504
-1.72251
-2.70205
-3.79263
-4.83651
-5.73305
-6.43463
-6.93741
-7.20941
-7.25861
-7.11752
-6.72326
-6.15524
-5.4425
-4.62755
-3.75703
-2.824
-1.90428
-1.07994
-0.345382
0.291249
0.794957
1.22169
1.52759
1.18332
0.843225
0.482478
0.0206943
-0.769769
-1.63838
-2.62351
-3.67474
-4.69392
-5.59292
-6.28335
-6.7777
-7.0374
-7.08239
-6.92626
-6.54521
-5.9888
-5.27946
-4.47597
-3.62077
-2.69445
-1.79337
-0.978067
-0.260215
0.370417
0.858384
1.28324
1.57372
1.02351
0.805508
0.53196
0.12588
-0.67444
-1.52572
-2.49085
-3.52278
-4.52499
-5.39958
-6.10048
-6.58754
-6.85173
-6.90174
-6.73729
-6.36782
-5.82733
-5.12876
-4.33833
-3.48712
-2.57191
-1.69763
-0.895155
-0.188502
0.431162
0.907361
1.32918
1.60355
0.995306
0.839669
0.530924
0.198061
-0.551713
-1.41552
-2.37617
-3.38922
-4.37313
-5.24234
-5.94232
-6.43119
-6.69742
-6.75385
-6.5887
-6.23358
-5.69743
-5.01643
-4.23403
-3.38978
-2.48328
-1.63155
-0.836589
-0.144135
0.469907
0.932079
1.35763
1.61746
0.60389
0.913459
0.586163
0.275115
-0.45292
-1.30588
-2.27945
-3.28733
-4.26638
-5.13452
-5.83786
-6.33248
-6.60051
-6.66346
-6.49826
-6.14985
-5.62365
-4.95404
-4.17203
-3.33182
-2.43334
-1.59535
-0.804172
-0.117929
0.487218
0.94902
1.37421
1.62724
-0.509164
-0.469738
0.050489
0.472965
1.12735
1.75753
2.47295
2.8152
0.0155045
-0.0178115
0.330834
0.793717
1.38579
1.99038
2.58047
2.97052
0.27402
0.358017
0.702722
1.1352
1.68074
2.16822
2.7279
3.06299
0.536376
0.704274
1.01042
1.39266
1.93288
2.37394
2.51497
2.99137
0.706181
0.889138
1.14988
1.52836
1.97505
2.47163
2.77623
2.92174
0.846675
1.0787
1.3846
1.74295
2.10309
2.50757
2.71257
2.87419
0.979119
1.22451
1.48048
1.7847
2.10887
2.45462
2.72937
2.90904
1.10112
1.34713
1.60924
1.91798
2.22349
2.49384
2.67609
2.73141
1.21537
1.46332
1.70647
1.94926
2.18243
2.41026
2.61771
2.71799
1.3161
1.56266
1.78713
2.01538
2.24392
2.44559
2.5927
2.65449
1.41023
1.64952
1.85812
2.0539
2.23135
2.38417
2.52043
2.60505
1.49895
1.73162
1.92214
2.09392
2.25123
2.39103
2.50269
2.5638
1.57884
1.80443
1.97757
2.1275
2.25672
2.36384
2.44645
2.50206
1.65481
1.87235
2.02518
2.15813
2.26317
2.35601
2.4221
2.47428
1.72058
1.9287
2.06756
2.1783
2.26912
2.34249
2.3894
2.43436
1.77855
1.97176
2.10388
2.19909
2.27484
2.32904
2.36747
2.41207
1.82766
2.006
2.12845
2.20734
2.28577
2.32135
2.35205
2.3882
1.86228
2.02283
2.15555
2.21946
2.2859
2.31222
2.34654
2.3865
1.88476
2.03373
2.15592
2.21828
2.29998
2.31201
2.34057
2.37425
1.90067
2.03738
2.1691
2.21883
2.29801
2.31498
2.35005
2.38764
3.58426
3.73943
3.60553
3.17224
2.64374
1.96665
1.67064
1.67985
1.69887
1.66959
1.5717
1.45569
1.29963
1.15078
0.943866
0.768105
0.506287
0.301205
-0.0748834
-0.345536
3.78057
3.6307
3.41905
2.9643
2.49646
1.99204
1.75665
1.76272
1.74269
1.68772
1.57689
1.45553
1.2978
1.14662
0.94441
0.761428
0.515247
0.292231
0.0365011
-0.181038
3.51692
3.49972
3.32266
2.88506
2.48991
2.05236
1.79772
1.77727
1.74131
1.68014
1.57086
1.45073
1.29475
1.14378
0.943733
0.759675
0.522728
0.301404
0.0847931
-0.138975
3.6584
3.3605
3.16401
2.76052
2.40394
2.04274
1.82782
1.81037
1.76904
1.69586
1.58086
1.45395
1.29854
1.14058
0.949541
0.754652
0.534986
0.314479
0.119363
-0.072935
3.29781
3.15881
2.99983
2.66936
2.37769
2.08741
1.88225
1.83822
1.77913
1.69483
1.57741
1.44832
1.29607
1.13522
0.952064
0.752985
0.546757
0.32847
0.151409
-0.0295521
3.23921
3.07799
2.92179
2.61527
2.35022
2.09514
1.90407
1.85066
1.79005
1.70184
1.58518
1.45165
1.30063
1.13568
0.957179
0.757423
0.556827
0.346294
0.175508
0.00322603
3.12091
2.91367
2.73388
2.50606
2.29831
2.09787
1.93377
1.86763
1.79817
1.7035
1.58431
1.44683
1.29876
1.13195
0.958866
0.758947
0.565101
0.360665
0.193699
0.0267822
2.93068
2.84456
2.69426
2.49152
2.30922
2.12816
1.96844
1.88446
1.80989
1.7119
1.59163
1.45151
1.30314
1.13545
0.963247
0.766485
0.574628
0.377249
0.211168
0.0447617
2.80558
2.73143
2.59305
2.42121
2.26288
2.1078
1.96774
1.88403
1.80985
1.70956
1.58925
1.44726
1.30133
1.13352
0.964066
0.770111
0.581068
0.389311
0.22346
0.0572638
2.66923
2.60744
2.52789
2.39995
2.2743
2.14099
2.00876
1.9095
1.82386
1.7173
1.59465
1.45225
1.30497
1.13797
0.968092
0.777933
0.590224
0.402396
0.235575
0.0671488
2.66205
2.58
2.49069
2.37098
2.25277
2.12789
2.00247
1.90334
1.81916
1.71362
1.59224
1.44925
1.30271
1.13727
0.968618
0.782394
0.596524
0.411962
0.244102
0.0740816
2.5799
2.51596
2.41831
2.32135
2.23056
2.13414
2.02748
1.92538
1.83192
1.72091
1.59722
1.45419
1.30605
1.14162
0.97279
0.790027
0.605679
0.422451
0.252854
0.0799733
2.52795
2.49756
2.42453
2.33647
2.24794
2.14629
2.03287
1.92436
1.82931
1.71817
1.59513
1.45273
1.30445
1.14189
0.973929
0.794538
0.612038
0.430225
0.258978
0.0840372
2.48122
2.45254
2.38068
2.30112
2.22327
2.13484
2.03466
1.93241
1.8345
1.72058
1.59551
1.45418
1.30597
1.1449
0.977601
0.800661
0.619872
0.438744
0.265424
0.0875779
2.43564
2.42392
2.36935
2.31258
2.24495
2.15767
2.05263
1.94134
1.83788
1.72163
1.59593
1.45521
1.30665
1.14693
0.980494
0.805462
0.626001
0.445299
0.269958
0.0900493
2.40786
2.40748
2.35095
2.30097
2.23148
2.14504
2.0469
1.94035
1.836
1.7188
1.59242
1.45279
1.30537
1.14762
0.982904
0.809916
0.631865
0.451653
0.274519
0.0920541
2.38242
2.38899
2.33769
2.30546
2.24018
2.15897
2.06159
1.94958
1.84107
1.72165
1.59429
1.45523
1.30775
1.15085
0.987009
0.815138
0.637756
0.457196
0.277807
0.0935474
2.37631
2.39044
2.33505
2.30591
2.23428
2.15072
2.05467
1.94412
1.83509
1.71504
1.58786
1.44997
1.30436
1.14977
0.988266
0.818551
0.642692
0.462484
0.28134
0.0947217
2.37303
2.38458
2.33337
2.30859
2.23696
2.15614
2.06102
1.94852
1.83767
1.7164
1.58909
1.45177
1.30649
1.15243
0.991653
0.822603
0.646819
0.465863
0.282837
0.095215
2.37577
2.39043
2.33587
2.3061
2.23026
2.14632
2.05161
1.93991
1.828
1.70625
1.57985
1.44426
1.30166
1.15064
0.992882
0.826683
0.652695
0.471682
0.285865
0.0956062
-0.779793
-0.481145
-0.766658
-0.591108
-0.162964
-0.122463
-0.0749352
-0.106364
-0.701116
-0.897876
-1.09091
-1.00532
-0.58274
-0.437686
-0.350908
-0.35599
-1.01924
-1.03168
-1.27315
-1.26702
-0.965377
-0.807009
-0.647466
-0.629491
-1.06239
-1.35068
-1.66873
-1.70358
-1.41098
-1.18456
-0.981991
-0.923953
-1.39634
-1.70668
-1.954
-2.07748
-1.80958
-1.5751
-1.32036
-1.23227
-1.68643
-2.02171
-2.32854
-2.47768
-2.2019
-1.95424
-1.66711
-1.54783
-2.02221
-2.39618
-2.67101
-2.80993
-2.56497
-2.32114
-2.00502
-1.8632
-2.35212
-2.71346
-2.98741
-3.16418
-2.90657
-2.6646
-2.33428
-2.17049
-2.68115
-3.04025
-3.29128
-3.45088
-3.2284
-2.98314
-2.6414
-2.46342
-2.98143
-3.32237
-3.55554
-3.73902
-3.51932
-3.27363
-2.92709
-2.73552
-3.26279
-3.60121
-3.8088
-3.99162
-3.78329
-3.53169
-3.18201
-2.98239
-3.50456
-3.82932
-4.01693
-4.1929
-4.01091
-3.75781
-3.40754
-3.19943
-3.71164
-4.03571
-4.21238
-4.40548
-4.201
-3.94662
-3.597
-3.38425
-3.87722
-4.1917
-4.35469
-4.5197
-4.3518
-4.09841
-3.75169
-3.53432
-4.00363
-4.31875
-4.48525
-4.68031
-4.46666
-4.20909
-3.86614
-3.64859
-4.08872
-4.40326
-4.5562
-4.71446
-4.54237
-4.2806
-3.94403
-3.72591
-4.13529
-4.45372
-4.61373
-4.80212
-4.58635
-4.31268
-3.98277
-3.76656
-4.14202
-4.4659
-4.6155
-4.77071
-4.58907
-4.31037
-3.9862
-3.77094
-4.11404
-4.44366
-4.59998
-4.76297
-4.56761
-4.27278
-3.9534
-3.74091
-4.05281
-4.39119
-4.54391
-4.68975
-4.50379
-4.20592
-3.88875
-3.67783
-3.96646
-4.31088
-4.47771
-4.60113
-4.42166
-4.10598
-3.79095
-3.58344
-3.85723
-4.21321
-4.37078
-4.49713
-4.29683
-3.98054
-3.6662
-3.45914
-3.73197
-4.0939
-4.25837
-4.34955
-4.16197
-3.82397
-3.51299
-3.30731
-3.59644
-3.96269
-4.10366
-4.19562
-3.97591
-3.64733
-3.33757
-3.12893
-3.44462
-3.80761
-3.94229
-4.01636
-3.8149
-3.45108
-3.13618
-2.92712
-3.28496
-3.62356
-3.75631
-3.81031
-3.59154
-3.22214
-2.91616
-2.70365
-3.10305
-3.41816
-3.56514
-3.60906
-3.39626
-3.00066
-2.67385
-2.4586
-2.92324
-3.2017
-3.3731
-3.37713
-3.17104
-2.75894
-2.41276
-2.19321
-2.72373
-2.98445
-3.1784
-3.14126
-2.94623
-2.52222
-2.13703
-1.90707
-2.53128
-2.76077
-2.97236
-2.92151
-2.69047
-2.26144
-1.84431
-1.59956
-2.32519
-2.55077
-2.7914
-2.70432
-2.44953
-1.99065
-1.5336
-1.26775
-2.11417
-2.33731
-2.56857
-2.5196
-2.15833
-1.69294
-1.19331
-0.910589
-1.89957
-2.1363
-2.38875
-2.30979
-1.87945
-1.37199
-0.829355
-0.528855
-1.67236
-1.97039
-2.17523
-2.11846
-1.56745
-1.03147
-0.443322
-0.124593
-1.47591
-1.82898
-1.948
-1.89868
-1.26572
-0.667023
-0.0346843
0.297592
-1.31102
-1.72942
-1.70911
-1.63677
-0.891574
-0.260647
0.391277
0.726512
-1.14916
-1.61737
-1.39446
-1.21278
-0.510422
0.126012
0.829191
1.14585
-1.19288
-1.51496
-1.13297
-0.83742
-0.0965445
0.554102
1.27941
1.5205
-1.04211
-1.3112
-0.828442
-0.400704
0.32666
0.960827
1.72273
1.84315
-1.08193
-1.26058
-0.43502
0.0149192
0.732649
1.36126
2.15862
2.12704
3.80907
3.58437
3.44869
3.1992
3.09884
2.77728
2.71993
2.05553
3.64282
3.52225
3.41435
3.20386
3.11776
2.84603
2.80191
2.36016
3.52387
3.4607
3.37887
3.2036
3.13061
2.90575
2.87644
2.5561
3.42281
3.39928
3.34188
3.1994
3.13637
2.95301
2.91638
2.70754
3.35449
3.3454
3.30576
3.19103
3.139
2.98955
2.96179
2.79991
3.29383
3.29731
3.27198
3.18049
3.13654
3.01613
2.98211
2.87696
3.25486
3.25717
3.24173
3.1687
3.13325
3.03598
3.01144
2.92284
3.217
3.22341
3.21502
3.15649
3.12756
3.04855
3.02125
2.96472
3.19451
3.19547
3.19235
3.14448
3.12248
3.057
3.03802
2.98466
3.17012
3.17275
3.17278
3.13326
3.11644
3.06207
3.04235
3.01005
3.15724
3.15398
3.15669
3.12242
3.11125
3.06405
3.05224
3.01635
3.14127
3.13914
3.14368
3.11328
3.10549
3.0662
3.05384
3.03535
3.13442
3.12695
3.13327
3.1049
3.10127
3.06505
3.05752
3.03359
3.1242
3.11758
3.12452
3.09755
3.09718
3.06506
3.05721
3.04605
3.12209
3.11018
3.11903
3.09106
3.09451
3.06248
3.05998
3.0416
3.11651
3.10494
3.11467
3.08611
3.09191
3.0634
3.05995
3.05285
3.11836
3.10108
3.11259
3.08127
3.09058
3.0596
3.06092
3.04794
3.11707
3.09926
3.11171
3.07787
3.08956
3.05959
3.06007
3.05474
3.12274
3.09855
3.11335
3.07457
3.08993
3.05549
3.06127
3.05004
3.12591
3.10001
3.11626
3.07313
3.09108
3.0563
3.05989
3.05525
3.13582
3.10241
3.1212
3.07104
3.09334
3.05231
3.06202
3.05196
3.14417
3.10725
3.12819
3.07107
3.09624
3.05219
3.0592
3.05339
3.15926
3.11321
3.13759
3.0706
3.10059
3.04941
3.06229
3.05194
3.17384
3.12177
3.14934
3.07251
3.10544
3.04965
3.05935
3.05257
3.19572
3.13193
3.16378
3.07407
3.11184
3.04763
3.06184
3.05187
3.2184
3.14514
3.18108
3.07855
3.11869
3.04875
3.05941
3.05198
3.24981
3.16084
3.20166
3.08326
3.12669
3.04709
3.06125
3.05111
3.28428
3.18072
3.2261
3.09206
3.13595
3.04913
3.05839
3.05117
3.3297
3.20496
3.2547
3.10213
3.14613
3.04935
3.05856
3.04883
3.38134
3.23554
3.28846
3.11779
3.15718
3.05339
3.05451
3.04781
3.44707
3.27337
3.32738
3.13633
3.16874
3.05646
3.05166
3.04357
3.52232
3.31973
3.37226
3.1621
3.18118
3.06335
3.04524
3.03967
3.61481
3.37496
3.42259
3.19163
3.19383
3.06944
3.03906
3.03074
3.7188
3.43812
3.47847
3.23064
3.20761
3.07763
3.0308
3.01952
3.84351
3.50873
3.53759
3.27521
3.22328
3.08523
3.02286
3.00062
3.98521
3.58737
3.60196
3.33355
3.24293
3.09516
3.01324
2.97857
4.16967
3.68368
3.6715
3.40205
3.27197
3.10875
3.00566
2.95107
4.41884
3.82144
3.75363
3.48593
3.31172
3.13261
3.00051
2.91347
4.79783
4.02933
3.8466
3.574
3.36449
3.16879
3.00579
2.78231
5.29408
4.29789
3.94317
3.65089
3.41227
3.21267
3.0183
2.52595
)
;

boundaryField
{
    wall
    {
        type            calculated;
        value           nonuniform List<scalar> 
312
(
4.10626
4.09584
4.10973
4.10657
4.09779
4.07346
4.04831
4.02931
4.00906
3.99414
4.01276
4.00517
4.03527
4.03183
4.01378
4.01613
3.98168
4.09689
4.00391
4.35024
3.80907
3.64282
3.52387
3.42281
3.35449
3.29383
3.25486
3.217
3.19451
3.17012
3.15724
3.14127
3.13442
3.1242
3.12209
3.11651
3.11836
3.11707
3.12274
3.12591
3.13582
3.14417
3.15926
3.17384
3.19572
3.2184
3.24981
3.28428
3.3297
3.38134
3.44707
3.52232
3.61481
3.7188
3.84351
3.98521
4.16967
4.41884
4.79783
5.29408
2.05553
2.36016
2.5561
2.70754
2.79991
2.87696
2.92284
2.96472
2.98466
3.01005
3.01635
3.03535
3.03359
3.04605
3.0416
3.05285
3.04794
3.05474
3.05004
3.05525
3.05196
3.05339
3.05194
3.05257
3.05187
3.05198
3.05111
3.05117
3.04883
3.04781
3.04357
3.03967
3.03074
3.01952
3.00062
2.97857
2.95107
2.91347
2.78231
2.52595
0.60389
0.913459
0.586163
0.275115
-0.45292
-1.30588
-2.27945
-3.28733
-4.26638
-5.13452
-5.83786
-6.33248
-6.60051
-6.66346
-6.49826
-6.14985
-5.62365
-4.95404
-4.17203
-3.33182
-2.43334
-1.59535
-0.804172
-0.117929
0.487218
0.94902
1.37421
1.62724
1.90067
2.03738
2.1691
2.21883
2.29801
2.31498
2.35005
2.38764
2.37577
2.39043
2.33587
2.3061
2.23026
2.14632
2.05161
1.93991
1.828
1.70625
1.57985
1.44426
1.30166
1.15064
0.992882
0.826683
0.652695
0.471682
0.285865
0.0956062
3.58426
3.73943
3.60553
3.17224
2.64374
1.96665
1.67064
1.67985
1.69887
1.66959
1.5717
1.45569
1.29963
1.15078
0.943866
0.768105
0.506287
0.301205
-0.0748834
-0.345536
-0.106364
-0.35599
-0.629491
-0.923953
-1.23227
-1.54783
-1.8632
-2.17049
-2.46342
-2.73552
-2.98239
-3.19943
-3.38425
-3.53432
-3.64859
-3.72591
-3.76656
-3.77094
-3.74091
-3.67783
-3.58344
-3.45914
-3.30731
-3.12893
-2.92712
-2.70365
-2.4586
-2.19321
-1.90707
-1.59956
-1.26775
-0.910589
-0.528855
-0.124593
0.297592
0.726512
1.14585
1.5205
1.84315
2.12704
-0.779793
-0.701116
-1.01924
-1.06239
-1.39634
-1.68643
-2.02221
-2.35212
-2.68115
-2.98143
-3.26279
-3.50456
-3.71164
-3.87722
-4.00363
-4.08872
-4.13529
-4.14202
-4.11404
-4.05281
-3.96646
-3.85723
-3.73197
-3.59644
-3.44462
-3.28496
-3.10305
-2.92324
-2.72373
-2.53128
-2.32519
-2.11417
-1.89957
-1.67236
-1.47591
-1.31102
-1.14916
-1.19288
-1.04211
-1.08193
2.08215
1.68733
1.2117
0.711256
0.13117
-0.491315
-1.16743
-1.86237
-2.55998
-3.23468
-3.84165
-4.35582
-4.73661
-4.96381
-5.02349
-4.9152
-4.64806
-4.24494
-3.73396
-3.15348
-2.54304
-1.93963
-1.37947
-0.884968
-0.477705
-0.184911
-0.0271947
-0.108764
3.6759
3.67423
3.48884
3.39921
3.20588
2.99909
2.72939
2.45198
4.08048
4.07869
4.06558
4.06642
4.04975
4.05155
4.03266
4.03633
4.0131
4.01925
3.98999
4.00109
3.96332
3.98128
3.92641
3.95118
3.87684
3.9073
3.79904
3.82866
)
;
    }
    inlet1
    {
        type            calculated;
        value           nonuniform List<scalar> 
20
(
4.08048
4.07872
4.07768
4.07639
4.07652
4.07403
4.07458
4.07404
4.07776
4.07914
4.08399
4.08435
4.08914
4.08966
4.09389
4.09423
4.09911
4.10068
4.10416
4.10626
)
;
    }
    inlet2
    {
        type            calculated;
        value           nonuniform List<scalar> 8(5.29408 4.29789 3.94317 3.65089 3.41227 3.21267 3.0183 2.52595);
    }
    outlet1
    {
        type            calculated;
        value           uniform 0;
    }
    outlet2
    {
        type            calculated;
        value           nonuniform List<scalar> 8(-0.793137 0 -0.749801 -0.363039 0.00678846 0.0645385 0 0);
    }
    defaultFaces
    {
        type            empty;
    }
}


// ************************************************************************* //
