/*--------------------------------*- C++ -*----------------------------------*\
| =========                 |                                                 |
| \\      /  F ield         | OpenFOAM: The Open Source CFD Toolbox           |
|  \\    /   O peration     | Version:  2.4.0                                 |
|   \\  /    A nd           | Web:      www.OpenFOAM.org                      |
|    \\/     M anipulation  |                                                 |
\*---------------------------------------------------------------------------*/
FoamFile
{
    version     2.0;
    format      ascii;
    class       volVectorField;
    location    "0.66";
    object      UMean;
}
// * * * * * * * * * * * * * * * * * * * * * * * * * * * * * * * * * * * * * //

dimensions      [0 1 -1 0 0 0 0];

internalField   nonuniform List<vector> 
2320
(
(0.869224 -0.000450786 0)
(0.977261 0.00134379 0)
(0.857222 0.00269002 0)
(0.983928 -0.00293371 0)
(0.857835 0.00344348 0)
(0.99191 -0.00172127 0)
(0.860243 0.0019181 0)
(0.998779 -0.000300996 0)
(0.857792 0.0015576 0)
(1.00196 -0.00246734 0)
(0.866052 0.00298427 0)
(1.00256 -0.000415301 0)
(0.876746 -0.00134962 0)
(1.01097 0.000595567 0)
(0.873836 -0.00912648 0)
(1.04261 -0.00509336 0)
(0.886061 -0.010943 0)
(1.07793 -0.0193682 0)
(0.935755 -0.0160405 0)
(1.12853 -0.0339127 0)
(0.923388 0.00594369 0)
(0.91229 -0.00687305 0)
(0.928934 0.00542821 0)
(0.926492 -0.0118743 0)
(0.923566 0.00582674 0)
(0.945743 -0.0144889 0)
(0.913824 0.00912183 0)
(0.961561 -0.0161498 0)
(0.920624 0.0128715 0)
(0.971246 -0.0215112 0)
(0.924579 0.0152501 0)
(0.984552 -0.0285364 0)
(0.934641 0.0208726 0)
(0.983797 -0.0308025 0)
(0.956813 0.0224429 0)
(0.989837 -0.0386832 0)
(0.994804 0.0264509 0)
(0.99771 -0.051414 0)
(1.04617 0.0279261 0)
(1.05659 -0.0586013 0)
(0.977838 0.0105303 0)
(0.856361 -0.0106752 0)
(0.985569 0.00720654 0)
(0.864431 -0.0137459 0)
(0.988734 0.0100165 0)
(0.870207 -0.0134696 0)
(0.998942 0.0111555 0)
(0.876133 -0.0194837 0)
(1.01228 0.0159047 0)
(0.883444 -0.023523 0)
(1.02731 0.0205553 0)
(0.8801 -0.0278975 0)
(1.03612 0.0267131 0)
(0.885403 -0.0357884 0)
(1.05208 0.0242853 0)
(0.883053 -0.0523904 0)
(1.07669 0.0290083 0)
(0.888529 -0.0768253 0)
(1.11802 0.0129339 0)
(0.939112 -0.104922 0)
(0.985539 0.0169468 0)
(0.848453 -0.0173946 0)
(0.992023 0.0139256 0)
(0.85063 -0.023178 0)
(1.0007 0.0157619 0)
(0.855117 -0.0300769 0)
(1.01643 0.0201573 0)
(0.85306 -0.0379619 0)
(1.02837 0.0258651 0)
(0.859409 -0.0459364 0)
(1.04329 0.0342941 0)
(0.865782 -0.054311 0)
(1.05898 0.0409384 0)
(0.883969 -0.0659083 0)
(1.07876 0.048683 0)
(0.905617 -0.0862432 0)
(1.11046 0.0518688 0)
(0.953486 -0.116552 0)
(1.15309 0.0333342 0)
(1.02316 -0.149775 0)
(0.96668 0.0231413 0)
(0.868056 -0.0246946 0)
(0.971858 0.0188219 0)
(0.868278 -0.0331965 0)
(0.982035 0.0225044 0)
(0.869128 -0.0357424 0)
(0.986978 0.0280188 0)
(0.864805 -0.0413359 0)
(0.993748 0.0326912 0)
(0.866697 -0.0483276 0)
(1.0047 0.0392279 0)
(0.869084 -0.0563439 0)
(1.01566 0.0444468 0)
(0.870932 -0.0709211 0)
(1.0328 0.0453862 0)
(0.888265 -0.0944524 0)
(1.04885 0.0457907 0)
(0.921646 -0.129701 0)
(1.06924 0.0292905 0)
(0.98741 -0.184531 0)
(0.980829 0.0252448 0)
(0.858716 -0.029772 0)
(0.988381 0.0185205 0)
(0.8526 -0.039452 0)
(0.992234 0.0208431 0)
(0.852707 -0.0443368 0)
(1.0046 0.0276926 0)
(0.864643 -0.0540337 0)
(1.02044 0.0299631 0)
(0.869194 -0.0668726 0)
(1.0366 0.0407545 0)
(0.872342 -0.075067 0)
(1.05678 0.0463969 0)
(0.877413 -0.0917368 0)
(1.08512 0.0515679 0)
(0.877908 -0.120832 0)
(1.13138 0.0505492 0)
(0.889751 -0.162018 0)
(1.19153 0.0229901 0)
(0.927221 -0.215892 0)
(0.938618 0.0333427 0)
(0.904861 -0.0346994 0)
(0.950305 0.0342488 0)
(0.899475 -0.0416185 0)
(0.953648 0.0348712 0)
(0.894989 -0.0515496 0)
(0.972348 0.0370885 0)
(0.916232 -0.0588788 0)
(0.99 0.0465416 0)
(0.919782 -0.0669409 0)
(1.00321 0.0549461 0)
(0.934872 -0.0787556 0)
(1.02236 0.0625197 0)
(0.946756 -0.0987978 0)
(1.04777 0.0667624 0)
(0.963021 -0.132321 0)
(1.08391 0.0649515 0)
(0.985629 -0.177056 0)
(1.14373 0.0385905 0)
(1.01767 -0.248964 0)
(0.923501 0.0263466 0)
(0.924632 -0.0359666 0)
(0.94083 0.0240718 0)
(0.93038 -0.0429542 0)
(0.960845 0.0215491 0)
(0.933695 -0.0537534 0)
(0.97865 0.0187061 0)
(0.9341 -0.0636537 0)
(0.995283 0.0283657 0)
(0.938389 -0.0742181 0)
(1.01795 0.0334615 0)
(0.942809 -0.086411 0)
(1.04216 0.0395547 0)
(0.954102 -0.108629 0)
(1.06766 0.0453852 0)
(0.966988 -0.145834 0)
(1.09441 0.044191 0)
(0.988761 -0.202462 0)
(1.13954 0.0223135 0)
(1.01729 -0.290636 0)
(0.90051 0.0368367 0)
(0.951527 -0.0472356 0)
(0.916681 0.0368429 0)
(0.961556 -0.0556192 0)
(0.938019 0.0378249 0)
(0.966838 -0.0652023 0)
(0.956206 0.0394929 0)
(0.971005 -0.0700019 0)
(0.976013 0.0463846 0)
(0.981646 -0.0802926 0)
(0.993577 0.0533561 0)
(0.992485 -0.0878552 0)
(1.00966 0.055025 0)
(1.00716 -0.106497 0)
(1.02614 0.0562445 0)
(1.02902 -0.140036 0)
(1.04625 0.0471066 0)
(1.05206 -0.198799 0)
(1.08928 0.0164351 0)
(1.0781 -0.302005 0)
(0.884029 0.0198112 0)
(0.965071 -0.0351403 0)
(0.89473 0.0124691 0)
(0.968185 -0.0454944 0)
(0.910746 0.0100216 0)
(0.973817 -0.051139 0)
(0.930017 0.0078791 0)
(0.98552 -0.0571997 0)
(0.954258 0.0101536 0)
(0.996727 -0.064597 0)
(0.968633 0.0136834 0)
(1.00433 -0.0734457 0)
(0.989224 0.0136784 0)
(1.00867 -0.0920034 0)
(1.00372 0.0140029 0)
(1.02952 -0.124764 0)
(1.01171 0.0126842 0)
(1.05094 -0.188908 0)
(1.00711 0.000313288 0)
(1.07836 -0.311852 0)
(0.889646 0.0375296 0)
(0.967627 -0.053107 0)
(0.889943 0.0313275 0)
(0.968772 -0.0654587 0)
(0.89643 0.0311091 0)
(0.972662 -0.0758006 0)
(0.922665 0.0273993 0)
(0.986216 -0.0805463 0)
(0.94626 0.0326368 0)
(0.990535 -0.084628 0)
(0.955568 0.0390949 0)
(0.995442 -0.0919099 0)
(0.957408 0.0411565 0)
(0.99606 -0.105994 0)
(0.968145 0.0293991 0)
(1.0034 -0.131834 0)
(0.981791 0.0140699 0)
(0.999016 -0.182705 0)
(1.00746 -0.0288652 0)
(0.975919 -0.279562 0)
(0.92475 0.00785055 0)
(0.931099 -0.0195097 0)
(0.921378 -0.00085233 0)
(0.946014 -0.0317828 0)
(0.915271 -0.00551739 0)
(0.971036 -0.044362 0)
(0.929057 -0.0150141 0)
(0.993532 -0.043698 0)
(0.935699 -0.0131829 0)
(1.01135 -0.0427821 0)
(0.937986 -0.0144577 0)
(1.02816 -0.0443741 0)
(0.923604 -0.0175232 0)
(1.05422 -0.0591176 0)
(0.906663 -0.0282142 0)
(1.07952 -0.0792814 0)
(0.873403 -0.0329438 0)
(1.09875 -0.137555 0)
(0.824806 -0.0362424 0)
(1.0981 -0.287202 0)
(0.985483 0.0344297 0)
(0.86666 -0.048706 0)
(0.99549 0.0210061 0)
(0.867856 -0.0650939 0)
(0.997362 0.0162855 0)
(0.892418 -0.0804726 0)
(1.00753 0.0099726 0)
(0.916207 -0.0813355 0)
(1.01679 0.0162293 0)
(0.940035 -0.0807469 0)
(1.01794 0.0236487 0)
(0.951516 -0.0812571 0)
(1.00654 0.0188967 0)
(0.967277 -0.0950041 0)
(0.985524 0.00102979 0)
(0.999785 -0.110165 0)
(0.941307 -0.0173396 0)
(1.03873 -0.154674 0)
(0.818136 -0.0478735 0)
(1.08527 -0.308605 0)
(0.973559 -0.00158166 0)
(0.874711 -0.0100269 0)
(0.980832 -0.0165047 0)
(0.866409 -0.020576 0)
(0.986644 -0.0314678 0)
(0.887704 -0.0345661 0)
(1.00538 -0.0444406 0)
(0.912889 -0.0274885 0)
(1.02704 -0.0468254 0)
(0.928534 -0.0171547 0)
(1.03132 -0.0468908 0)
(0.925309 -0.00678809 0)
(1.02375 -0.0561642 0)
(0.922866 -0.00613034 0)
(1.02563 -0.0840488 0)
(0.944584 0.0026189 0)
(1.01595 -0.113031 0)
(0.963567 0.00676455 0)
(0.945562 -0.139852 0)
(0.968591 -0.0420499 0)
(0.997396 0.0354095 0)
(0.854745 -0.0495931 0)
(1.00605 0.0248302 0)
(0.848978 -0.067058 0)
(1.01783 0.00764483 0)
(0.87625 -0.0909995 0)
(1.041 -0.000286765 0)
(0.909767 -0.0931284 0)
(1.06488 0.00804998 0)
(0.921954 -0.0837167 0)
(1.07045 0.0239812 0)
(0.914158 -0.0847194 0)
(1.07477 0.0188442 0)
(0.912394 -0.106913 0)
(1.08096 -0.0103611 0)
(0.939144 -0.112178 0)
(1.06517 -0.0347187 0)
(0.985311 -0.111238 0)
(0.995822 -0.0698556 0)
(1.04125 -0.178911 0)
(0.97804 -0.0106175 0)
(0.873651 -0.000280505 0)
(0.985318 -0.0272386 0)
(0.867825 -0.0147968 0)
(1.00333 -0.0588429 0)
(0.890404 -0.0340204 0)
(1.03331 -0.0756458 0)
(0.923146 -0.0223641 0)
(1.04548 -0.0733261 0)
(0.933399 0.00519856 0)
(1.04471 -0.0626703 0)
(0.914701 0.0198403 0)
(1.05283 -0.0763698 0)
(0.864333 0.0241504 0)
(1.07551 -0.127727 0)
(0.834346 0.0584716 0)
(1.09455 -0.198866 0)
(0.823825 0.122125 0)
(1.06845 -0.259274 0)
(0.83754 0.266393 0)
(0.956774 0.0349575 0)
(0.900623 -0.0519594 0)
(0.958717 0.0263916 0)
(0.8995 -0.0795121 0)
(0.976438 -0.00256826 0)
(0.91572 -0.109888 0)
(0.996965 -0.0129845 0)
(0.92203 -0.104493 0)
(1.00663 0.00241808 0)
(0.927211 -0.087846 0)
(1.01986 0.0291538 0)
(0.908535 -0.0976767 0)
(1.02891 0.0475247 0)
(0.855112 -0.135824 0)
(1.07303 0.0262122 0)
(0.813016 -0.145332 0)
(1.10449 -0.0009686 0)
(0.71519 -0.11539 0)
(1.11597 -0.112187 0)
(0.688564 -0.0614371 0)
(0.93394 -0.0214241 0)
(0.9223 0.013383 0)
(0.930382 -0.0379252 0)
(0.926497 -0.011679 0)
(0.934685 -0.0749897 0)
(0.922408 -0.0316445 0)
(0.906774 -0.0841557 0)
(0.907601 -0.015436 0)
(0.901617 -0.0846346 0)
(0.901389 0.0225831 0)
(0.907352 -0.0628934 0)
(0.898046 0.0359541 0)
(0.900762 -0.0548322 0)
(0.922387 0.0137937 0)
(0.904732 -0.112396 0)
(0.923912 0.0454721 0)
(0.922601 -0.16635 0)
(0.834936 0.160701 0)
(0.899743 -0.248314 0)
(0.56552 0.5948 0)
(0.950888 0.0299134 0)
(0.900667 -0.0440314 0)
(0.94786 0.017067 0)
(0.88773 -0.0799879 0)
(0.905987 -0.00904826 0)
(0.798856 -0.0960726 0)
(0.813476 -0.0120171 0)
(0.733336 -0.103003 0)
(0.737463 -0.00404172 0)
(0.675875 -0.0909075 0)
(0.715708 0.0155606 0)
(0.63115 -0.0939045 0)
(0.714251 0.0231018 0)
(0.655887 -0.145457 0)
(0.607841 0.0293938 0)
(0.661615 -0.174203 0)
(0.515308 0.061525 0)
(0.682682 -0.170386 0)
(0.682687 -0.0424629 0)
(0.258987 -0.0327849 0)
(0.916243 -0.0268185 0)
(0.931265 0.026133 0)
(0.894633 -0.0388501 0)
(0.867694 0.0215906 0)
(0.77987 -0.0316244 0)
(0.770314 0.0251693 0)
(0.638954 -0.0465908 0)
(0.636239 0.0359623 0)
(0.497327 -0.0515629 0)
(0.502431 0.0533586 0)
(0.420666 -0.0416681 0)
(0.424357 0.0554492 0)
(0.347355 -0.059337 0)
(0.32444 0.0747359 0)
(0.194301 -0.0975531 0)
(0.177112 0.0952948 0)
(-0.00113891 -0.145652 0)
(0.0229913 0.0955127 0)
(-0.259319 0.0467858 0)
(0.0802312 0.663188 0)
(1.01149 -0.037935 0)
(1.24813 -0.052546 0)
(1.1169 -0.0638175 0)
(1.45216 -0.0556506 0)
(1.28571 -0.0679603 0)
(1.67703 -0.0825269 0)
(1.56572 -0.0954999 0)
(1.96383 -0.105202 0)
(1.11588 0.019032 0)
(1.19173 -0.0592627 0)
(1.22178 -0.000451998 0)
(1.38953 -0.069761 0)
(1.39906 -0.0397114 0)
(1.6254 -0.0824964 0)
(1.6589 -0.0491843 0)
(1.91366 -0.0895139 0)
(1.1964 -0.036943 0)
(1.07063 -0.14144 0)
(1.31564 -0.100045 0)
(1.31041 -0.160908 0)
(1.45921 -0.148798 0)
(1.58421 -0.189337 0)
(1.66937 -0.200061 0)
(1.89292 -0.242186 0)
(1.23956 -0.0127907 0)
(1.114 -0.179234 0)
(1.36893 -0.0818523 0)
(1.26418 -0.194186 0)
(1.56117 -0.169388 0)
(1.49877 -0.218791 0)
(1.8287 -0.22487 0)
(1.83029 -0.265751 0)
(1.10626 -0.0236817 0)
(1.11899 -0.249812 0)
(1.2057 -0.11679 0)
(1.35141 -0.291927 0)
(1.41349 -0.230117 0)
(1.61504 -0.323196 0)
(1.74484 -0.336238 0)
(1.86699 -0.383809 0)
(1.27878 -0.0426002 0)
(1.03359 -0.282878 0)
(1.385 -0.155505 0)
(1.27969 -0.34371 0)
(1.51631 -0.279729 0)
(1.61565 -0.396873 0)
(1.69425 -0.373295 0)
(1.94764 -0.455728 0)
(1.24786 -0.0419548 0)
(1.0854 -0.335411 0)
(1.38976 -0.190054 0)
(1.26199 -0.407588 0)
(1.56792 -0.360612 0)
(1.49072 -0.440165 0)
(1.80103 -0.484039 0)
(1.93963 -0.552706 0)
(1.22805 -0.0470693 0)
(1.06516 -0.392849 0)
(1.37959 -0.19747 0)
(1.25551 -0.469261 0)
(1.45213 -0.349172 0)
(1.56996 -0.54471 0)
(1.87669 -0.585478 0)
(1.9876 -0.64627 0)
(1.18878 -0.062052 0)
(1.09776 -0.446776 0)
(1.41032 -0.245026 0)
(1.0917 -0.485067 0)
(1.57323 -0.450041 0)
(1.67478 -0.687089 0)
(1.91965 -0.677521 0)
(2.08787 -0.767946 0)
(0.994479 -0.0504321 0)
(1.16218 -0.518867 0)
(1.09493 -0.165942 0)
(1.18895 -0.638895 0)
(1.74906 -0.598458 0)
(1.6682 -0.777142 0)
(1.98643 -0.760573 0)
(2.07891 -0.845383 0)
(1.08547 -0.141454 0)
(1.00979 -0.480974 0)
(1.0852 -0.217983 0)
(1.43905 -0.843377 0)
(1.78325 -0.643311 0)
(1.66542 -0.857771 0)
(2.00969 -0.827583 0)
(2.03149 -0.912926 0)
(0.881526 -0.0910361 0)
(0.965983 -0.478617 0)
(1.31154 -0.397143 0)
(1.49432 -0.95501 0)
(1.77285 -0.67424 0)
(1.64068 -0.963863 0)
(2.03101 -0.888271 0)
(1.88854 -0.937225 0)
(0.552219 -0.143555 0)
(1.14154 -0.682987 0)
(1.34843 -0.564575 0)
(1.53574 -1.04411 0)
(1.72361 -0.703379 0)
(1.65174 -1.0705 0)
(1.9605 -0.878604 0)
(1.69193 -0.936212 0)
(0.703024 -0.163707 0)
(1.2359 -0.782431 0)
(1.41368 -0.683621 0)
(1.51454 -1.06583 0)
(1.64748 -0.716054 0)
(1.61087 -1.14262 0)
(1.80591 -0.828472 0)
(1.58644 -1.01064 0)
(0.676499 -0.36339 0)
(1.29166 -0.954066 0)
(1.39368 -0.818045 0)
(1.42515 -1.08313 0)
(1.57438 -0.777945 0)
(1.53032 -1.18988 0)
(1.65909 -0.780323 0)
(1.51248 -1.12303 0)
(0.821947 -0.373574 0)
(1.28808 -0.965615 0)
(1.36177 -0.858766 0)
(1.33968 -1.05456 0)
(1.50423 -0.814684 0)
(1.40455 -1.17766 0)
(1.49094 -0.735086 0)
(1.51158 -1.28143 0)
(0.785767 -0.743408 0)
(1.23976 -1.10645 0)
(1.22847 -0.969986 0)
(1.23072 -1.07614 0)
(1.36655 -0.885632 0)
(1.24636 -1.17587 0)
(1.41552 -0.793136 0)
(1.47075 -1.43617 0)
(0.85502 -0.753323 0)
(1.16959 -1.01272 0)
(1.121 -0.9435 0)
(1.15677 -1.02839 0)
(1.24433 -0.900757 0)
(1.1452 -1.14034 0)
(1.33004 -0.854413 0)
(1.36434 -1.50952 0)
(0.756453 -1.25643 0)
(1.05313 -1.20037 0)
(0.967296 -1.0755 0)
(1.04525 -1.08106 0)
(1.09482 -0.970166 0)
(1.02428 -1.15171 0)
(1.24411 -0.975273 0)
(1.19183 -1.55806 0)
(0.787133 -1.18828 0)
(0.998222 -1.01273 0)
(0.895081 -0.982729 0)
(1.01562 -1.00218 0)
(0.989804 -0.958681 0)
(0.996722 -1.09976 0)
(1.08386 -1.02499 0)
(0.928767 -1.38441 0)
(1.88374 -0.119149 0)
(2.29757 -0.126229 0)
(2.26017 -0.129921 0)
(2.67421 -0.131023 0)
(2.67706 -0.122004 0)
(3.06758 -0.11147 0)
(3.08473 -0.109424 0)
(3.44652 -0.0958066 0)
(3.47192 -0.0942977 0)
(3.76897 -0.0760662 0)
(3.77915 -0.0769529 0)
(3.99901 -0.0543541 0)
(3.96315 -0.0574481 0)
(4.10246 -0.0330451 0)
(4.00479 -0.0385415 0)
(4.06634 -0.0139364 0)
(3.90599 -0.024473 0)
(3.90435 8.30949e-05 0)
(3.68984 -0.017574 0)
(3.64944 0.00701654 0)
(3.39418 -0.0205302 0)
(3.3571 0.00745589 0)
(3.075 -0.0330921 0)
(3.07969 -0.000219631 0)
(2.79516 -0.0572709 0)
(2.8775 -0.014137 0)
(2.63936 -0.104953 0)
(2.86885 -0.074027 0)
(1.97453 -0.051366 0)
(2.24629 -0.0931362 0)
(2.33814 -0.0620027 0)
(2.62354 -0.104077 0)
(2.71588 -0.0801646 0)
(3.01367 -0.110385 0)
(3.11229 -0.086982 0)
(3.40051 -0.106019 0)
(3.48584 -0.0775537 0)
(3.73906 -0.0787925 0)
(3.78324 -0.0455365 0)
(3.98097 -0.0355068 0)
(3.96326 0.00263066 0)
(4.09121 0.0158808 0)
(3.99786 0.0557774 0)
(4.05864 0.0671457 0)
(3.89126 0.10425 0)
(3.89594 0.109235 0)
(3.66578 0.140896 0)
(3.63512 0.136082 0)
(3.36493 0.159715 0)
(3.32429 0.14455 0)
(3.04788 0.161109 0)
(3.02006 0.135783 0)
(2.77071 0.141383 0)
(2.7786 0.100097 0)
(2.58728 0.080605 0)
(2.62106 -0.0176609 0)
(1.96048 -0.239843 0)
(2.25298 -0.286455 0)
(2.30163 -0.270776 0)
(2.65134 -0.303878 0)
(2.69668 -0.281063 0)
(3.06274 -0.297338 0)
(3.11216 -0.277034 0)
(3.46658 -0.275281 0)
(3.49532 -0.246202 0)
(3.81887 -0.221111 0)
(3.79825 -0.183006 0)
(4.06836 -0.139163 0)
(3.97558 -0.0964627 0)
(4.18102 -0.0459545 0)
(4.00373 -0.00455748 0)
(4.14554 0.0426614 0)
(3.88829 0.0764384 0)
(3.97685 0.112027 0)
(3.65183 0.134068 0)
(3.70773 0.151308 0)
(3.34184 0.160707 0)
(3.38996 0.154058 0)
(3.01264 0.154496 0)
(3.08087 0.120631 0)
(2.72674 0.121494 0)
(2.82951 0.0414981 0)
(2.52758 0.0517897 0)
(2.66566 -0.128415 0)
(2.12814 -0.263166 0)
(2.22014 -0.298983 0)
(2.45176 -0.284506 0)
(2.63951 -0.328412 0)
(2.81668 -0.303457 0)
(3.08258 -0.340376 0)
(3.21354 -0.304855 0)
(3.50536 -0.313657 0)
(3.59756 -0.263964 0)
(3.86485 -0.243663 0)
(3.90396 -0.176901 0)
(4.11164 -0.132745 0)
(4.08304 -0.056282 0)
(4.21212 -0.00399463 0)
(4.11389 0.0733343 0)
(4.16191 0.119149 0)
(3.99923 0.187611 0)
(3.97964 0.217555 0)
(3.76394 0.270864 0)
(3.69855 0.275689 0)
(3.44993 0.310807 0)
(3.36906 0.289003 0)
(3.11758 0.304374 0)
(3.04332 0.25572 0)
(2.82326 0.252827 0)
(2.77498 0.171795 0)
(2.60028 0.145812 0)
(2.59924 0.0107307 0)
(2.1175 -0.400181 0)
(2.19516 -0.430072 0)
(2.51268 -0.450031 0)
(2.61299 -0.479225 0)
(2.9229 -0.4743 0)
(3.07526 -0.497474 0)
(3.33126 -0.466782 0)
(3.51695 -0.467275 0)
(3.70986 -0.408985 0)
(3.87858 -0.373248 0)
(4.00155 -0.290997 0)
(4.11614 -0.225963 0)
(4.1628 -0.13253 0)
(4.20664 -0.0551015 0)
(4.1762 0.035331 0)
(4.15169 0.107487 0)
(4.0518 0.182755 0)
(3.9706 0.234238 0)
(3.81303 0.288133 0)
(3.69288 0.308687 0)
(3.50099 0.337428 0)
(3.35724 0.324801 0)
(3.17292 0.330837 0)
(3.01455 0.279177 0)
(2.87041 0.269449 0)
(2.72398 0.173754 0)
(2.62577 0.143111 0)
(2.51142 0.00413913 0)
(2.06039 -0.449517 0)
(2.30596 -0.508481 0)
(2.53419 -0.519624 0)
(2.71576 -0.549493 0)
(2.99788 -0.551462 0)
(3.13869 -0.56558 0)
(3.40461 -0.537516 0)
(3.54694 -0.526554 0)
(3.7501 -0.456387 0)
(3.88626 -0.410563 0)
(4.00064 -0.3045 0)
(4.10806 -0.229333 0)
(4.12309 -0.108797 0)
(4.19442 -0.022736 0)
(4.11016 0.0948508 0)
(4.14632 0.172287 0)
(3.97837 0.273642 0)
(3.97936 0.325209 0)
(3.75171 0.399999 0)
(3.71805 0.415246 0)
(3.46662 0.463089 0)
(3.4007 0.434664 0)
(3.16166 0.455967 0)
(3.0814 0.386115 0)
(2.86398 0.378986 0)
(2.80227 0.271317 0)
(2.60281 0.232844 0)
(2.56963 0.0966713 0)
(2.15251 -0.574178 0)
(2.4167 -0.649716 0)
(2.57579 -0.653085 0)
(2.81195 -0.693515 0)
(2.97652 -0.684932 0)
(3.15104 -0.69628 0)
(3.35191 -0.668221 0)
(3.49475 -0.640734 0)
(3.66945 -0.569296 0)
(3.79687 -0.500476 0)
(3.88413 -0.385054 0)
(3.98886 -0.288028 0)
(3.97703 -0.155648 0)
(4.05301 -0.0488314 0)
(3.95437 0.0804667 0)
(3.99421 0.174521 0)
(3.83644 0.285313 0)
(3.83224 0.348726 0)
(3.64188 0.431091 0)
(3.59077 0.450832 0)
(3.39369 0.50603 0)
(3.31465 0.478046 0)
(3.11117 0.49954 0)
(3.05108 0.430175 0)
(2.82681 0.42035 0)
(2.81951 0.31234 0)
(2.5637 0.268319 0)
(2.61928 0.123972 0)
(2.29794 -0.701493 0)
(2.41841 -0.734144 0)
(2.60858 -0.733679 0)
(2.75168 -0.750543 0)
(2.90005 -0.738347 0)
(3.08351 -0.757436 0)
(3.25101 -0.720622 0)
(3.39289 -0.691727 0)
(3.56149 -0.611692 0)
(3.63571 -0.527421 0)
(3.74752 -0.397245 0)
(3.77233 -0.28765 0)
(3.81302 -0.135886 0)
(3.79471 -0.0205892 0)
(3.7824 0.127946 0)
(3.71964 0.22735 0)
(3.67469 0.354606 0)
(3.56771 0.420195 0)
(3.50234 0.513218 0)
(3.36451 0.536805 0)
(3.27881 0.588843 0)
(3.14446 0.569523 0)
(3.02268 0.575789 0)
(2.93117 0.515989 0)
(2.77751 0.47945 0)
(2.73829 0.392549 0)
(2.55179 0.325632 0)
(2.54709 0.201454 0)
(2.29229 -0.790262 0)
(2.36621 -0.802213 0)
(2.534 -0.804892 0)
(2.64122 -0.826689 0)
(2.84364 -0.849942 0)
(2.98803 -0.864715 0)
(3.14255 -0.826811 0)
(3.26719 -0.791732 0)
(3.38057 -0.696565 0)
(3.42369 -0.589907 0)
(3.50844 -0.450348 0)
(3.48757 -0.321949 0)
(3.52412 -0.158302 0)
(3.47327 -0.0328923 0)
(3.47087 0.12472 0)
(3.3991 0.231476 0)
(3.37055 0.365242 0)
(3.27904 0.435803 0)
(3.22312 0.535628 0)
(3.12344 0.570664 0)
(3.03451 0.617981 0)
(2.95124 0.609202 0)
(2.82995 0.608095 0)
(2.76975 0.562339 0)
(2.63867 0.511641 0)
(2.5918 0.430666 0)
(2.48664 0.348777 0)
(2.39886 0.24094 0)
(2.23023 -0.840257 0)
(2.28174 -0.85307 0)
(2.45751 -0.867959 0)
(2.59469 -0.90925 0)
(2.76763 -0.927271 0)
(2.85605 -0.916643 0)
(2.98577 -0.874355 0)
(3.04365 -0.820974 0)
(3.10529 -0.701116 0)
(3.12127 -0.583691 0)
(3.16866 -0.433761 0)
(3.103 -0.291835 0)
(3.14473 -0.12296 0)
(3.05579 0.00589006 0)
(3.07375 0.16959 0)
(2.98377 0.279311 0)
(2.97911 0.415957 0)
(2.90491 0.484755 0)
(2.87001 0.585732 0)
(2.82078 0.620058 0)
(2.73473 0.678295 0)
(2.70532 0.658936 0)
(2.6003 0.658656 0)
(2.57682 0.602117 0)
(2.47394 0.572487 0)
(2.42677 0.472189 0)
(2.36756 0.417392 0)
(2.28157 0.283986 0)
(2.12973 -0.881117 0)
(2.19539 -0.913567 0)
(2.41303 -0.951732 0)
(2.49926 -0.984542 0)
(2.61821 -0.98805 0)
(2.65848 -0.969578 0)
(2.72816 -0.924701 0)
(2.72577 -0.848999 0)
(2.74204 -0.726748 0)
(2.74724 -0.603762 0)
(2.70064 -0.441468 0)
(2.66719 -0.294973 0)
(2.64776 -0.128065 0)
(2.59081 0.00503083 0)
(2.57135 0.169796 0)
(2.52324 0.28288 0)
(2.4871 0.41344 0)
(2.4723 0.498991 0)
(2.41591 0.592762 0)
(2.4485 0.625169 0)
(2.36672 0.685037 0)
(2.39533 0.681755 0)
(2.29323 0.676437 0)
(2.33784 0.616632 0)
(2.24386 0.578576 0)
(2.26306 0.483187 0)
(2.1664 0.427502 0)
(2.17378 0.302102 0)
(2.00744 -0.90463 0)
(2.1628 -0.996107 0)
(2.3335 -1.01608 0)
(2.36715 -1.02649 0)
(2.41788 -1.01344 0)
(2.37592 -0.969667 0)
(2.39752 -0.912003 0)
(2.32159 -0.830956 0)
(2.34409 -0.70339 0)
(2.22979 -0.558319 0)
(2.21529 -0.396135 0)
(2.11081 -0.255137 0)
(2.12336 -0.0924569 0)
(2.00723 0.0469725 0)
(2.04468 0.204397 0)
(1.9801 0.321331 0)
(1.9837 0.429939 0)
(1.96836 0.514264 0)
(1.96257 0.616083 0)
(1.97117 0.6511 0)
(1.98264 0.700912 0)
(2.01994 0.688496 0)
(1.98662 0.692618 0)
(2.02415 0.645104 0)
(1.99934 0.608733 0)
(2.03139 0.510712 0)
(1.99217 0.459709 0)
(2.00087 0.327807 0)
(1.9903 -0.990064 0)
(2.11708 -1.08272 0)
(2.23313 -1.04979 0)
(2.1585 -1.03475 0)
(2.09183 -0.989555 0)
(2.02235 -0.946233 0)
(1.96402 -0.906134 0)
(1.8824 -0.81676 0)
(1.78456 -0.670529 0)
(1.72159 -0.527967 0)
(1.5949 -0.376124 0)
(1.55333 -0.234251 0)
(1.43381 -0.067319 0)
(1.43591 0.0476466 0)
(1.37946 0.189396 0)
(1.41621 0.317049 0)
(1.36353 0.43269 0)
(1.4165 0.50312 0)
(1.45014 0.578826 0)
(1.49123 0.6206 0)
(1.5195 0.684111 0)
(1.58626 0.669934 0)
(1.62653 0.659684 0)
(1.68322 0.610561 0)
(1.72533 0.576471 0)
(1.73944 0.493536 0)
(1.78754 0.441488 0)
(1.77442 0.325888 0)
(1.98075 -1.09501 0)
(2.03658 -1.12277 0)
(2.02896 -1.02425 0)
(1.80305 -0.982641 0)
(1.73419 -0.944363 0)
(1.58041 -0.910342 0)
(1.48277 -0.845949 0)
(1.26974 -0.738166 0)
(1.24499 -0.617562 0)
(1.04643 -0.463566 0)
(0.999378 -0.31484 0)
(0.852959 -0.171316 0)
(0.844637 -0.0378141 0)
(0.738488 0.080336 0)
(0.759961 0.219169 0)
(0.745457 0.330364 0)
(0.812266 0.416924 0)
(0.814752 0.496491 0)
(0.915555 0.582171 0)
(0.963017 0.608372 0)
(1.07759 0.656124 0)
(1.15203 0.642848 0)
(1.22835 0.6514 0)
(1.32426 0.60098 0)
(1.40927 0.570534 0)
(1.48163 0.478973 0)
(1.53689 0.446068 0)
(1.57615 0.322908 0)
(1.97754 -1.17555 0)
(1.86452 -1.10491 0)
(1.70267 -0.9274 0)
(1.42087 -0.902626 0)
(1.25786 -0.858834 0)
(1.06019 -0.80909 0)
(0.843672 -0.75653 0)
(0.712564 -0.693368 0)
(0.495039 -0.545853 0)
(0.394884 -0.402033 0)
(0.243523 -0.27544 0)
(0.1808 -0.148379 0)
(0.0794997 -0.00372823 0)
(0.0844572 0.0784965 0)
(0.0453426 0.201351 0)
(0.140769 0.301558 0)
(0.136132 0.395598 0)
(0.262079 0.443811 0)
(0.335533 0.513616 0)
(0.465147 0.55181 0)
(0.573526 0.596969 0)
(0.704705 0.579006 0)
(0.813259 0.575632 0)
(0.967799 0.523284 0)
(1.06157 0.506133 0)
(1.17381 0.424332 0)
(1.27288 0.393713 0)
(1.33899 0.280359 0)
(1.90291 -1.20865 0)
(1.54771 -0.995571 0)
(1.30386 -0.782788 0)
(0.882473 -0.77142 0)
(0.771148 -0.759827 0)
(0.460105 -0.723851 0)
(0.317201 -0.659921 0)
(-0.0589693 -0.556875 0)
(-0.108593 -0.4582 0)
(-0.383416 -0.331 0)
(-0.386432 -0.207051 0)
(-0.607425 -0.088059 0)
(-0.534164 0.0178135 0)
(-0.661999 0.107423 0)
(-0.571125 0.19986 0)
(-0.551108 0.285633 0)
(-0.420146 0.365725 0)
(-0.352396 0.413242 0)
(-0.177566 0.467458 0)
(-0.0707242 0.497616 0)
(0.139973 0.542038 0)
(0.247528 0.517832 0)
(0.447049 0.522654 0)
(0.570589 0.480312 0)
(0.765006 0.459418 0)
(0.860227 0.38049 0)
(1.0248 0.366639 0)
(1.08197 0.266699 0)
(1.69819 -1.12154 0)
(1.13351 -0.808246 0)
(0.827786 -0.605393 0)
(0.435589 -0.669429 0)
(0.197813 -0.635027 0)
(-0.0758239 -0.575283 0)
(-0.439328 -0.525426 0)
(-0.633039 -0.480508 0)
(-0.941868 -0.362633 0)
(-1.0383 -0.27365 0)
(-1.21141 -0.153034 0)
(-1.25383 -0.0773927 0)
(-1.29979 0.0276204 0)
(-1.29477 0.0950968 0)
(-1.2628 0.163975 0)
(-1.1443 0.221478 0)
(-1.06764 0.298993 0)
(-0.881974 0.325767 0)
(-0.760924 0.371779 0)
(-0.557183 0.391895 0)
(-0.354838 0.437206 0)
(-0.17313 0.415533 0)
(0.0125109 0.41757 0)
(0.202856 0.360906 0)
(0.401978 0.36404 0)
(0.522017 0.291802 0)
(0.734373 0.281084 0)
(0.790006 0.192152 0)
(1.43057 -0.960884 0)
(0.624676 -0.601838 0)
(0.366862 -0.389961 0)
(-0.214962 -0.456829 0)
(-0.351948 -0.490131 0)
(-0.800407 -0.410696 0)
(-0.971503 -0.36563 0)
(-1.42786 -0.316433 0)
(-1.50559 -0.256778 0)
(-1.84958 -0.182849 0)
(-1.80726 -0.103553 0)
(-2.04151 -0.0323838 0)
(-1.91051 0.0379348 0)
(-2.0204 0.0893082 0)
(-1.80657 0.135497 0)
(-1.84151 0.191661 0)
(-1.579 0.238959 0)
(-1.48865 0.260505 0)
(-1.23853 0.295041 0)
(-1.09651 0.30721 0)
(-0.794098 0.348822 0)
(-0.647014 0.331569 0)
(-0.337744 0.325019 0)
(-0.20858 0.291399 0)
(0.0777353 0.286784 0)
(0.163635 0.225975 0)
(0.450252 0.224066 0)
(0.427635 0.168417 0)
(1.00325 -0.56951 0)
(0.0636933 -0.297857 0)
(-0.129029 -0.218497 0)
(-0.60631 -0.346053 0)
(-0.978511 -0.3166 0)
(-1.38712 -0.292732 0)
(-1.65129 -0.230873 0)
(-1.99398 -0.220125 0)
(-2.18371 -0.150943 0)
(-2.41368 -0.134896 0)
(-2.48959 -0.058873 0)
(-2.59306 -0.0367423 0)
(-2.55784 0.0179826 0)
(-2.54821 0.042708 0)
(-2.43095 0.0839017 0)
(-2.35124 0.09557 0)
(-2.13105 0.128126 0)
(-1.99216 0.148265 0)
(-1.75637 0.169598 0)
(-1.55729 0.169965 0)
(-1.27526 0.199518 0)
(-1.05618 0.177253 0)
(-0.773562 0.188576 0)
(-0.587558 0.156912 0)
(-0.310497 0.162601 0)
(-0.19037 0.114828 0)
(0.0983831 0.129246 0)
(0.0976554 0.0877552 0)
(0.578768 -0.445978 0)
(-0.788668 -0.0782473 0)
(-0.295274 -0.00565617 0)
(-1.20266 -0.0452101 0)
(-1.1729 -0.0872986 0)
(-1.99217 -0.0655088 0)
(-1.95575 -0.0651017 0)
(-2.60836 -0.0496197 0)
(-2.52545 -0.0371066 0)
(-2.99918 -0.0288227 0)
(-2.86266 -0.0133265 0)
(-3.16645 0.00498992 0)
(-2.92916 0.016169 0)
(-3.11204 0.0358317 0)
(-2.75703 0.0433827 0)
(-2.86244 0.0478934 0)
(-2.46826 0.0602023 0)
(-2.49228 0.0731466 0)
(-2.02564 0.0738004 0)
(-2.01906 0.074648 0)
(-1.52703 0.0835276 0)
(-1.49299 0.0798728 0)
(-1.00626 0.0827658 0)
(-0.976135 0.0706632 0)
(-0.533874 0.0695038 0)
(-0.554563 0.0489137 0)
(-0.157972 0.0589257 0)
(-0.243668 0.0430646 0)
(2.742 -0.265443 0)
(2.79751 -0.724466 0)
(2.26995 -0.755174 0)
(2.0688 -0.990724 0)
(1.59936 -1.06572 0)
(1.3493 -1.36069 0)
(0.727824 -1.07426 0)
(-0.148334 -0.817926 0)
(2.53543 -0.201966 0)
(2.21138 -0.472969 0)
(1.85978 -0.597382 0)
(1.80347 -0.882574 0)
(1.49908 -0.947358 0)
(1.27003 -1.06335 0)
(0.865283 -0.786013 0)
(0.722501 -0.894655 0)
(2.43975 -0.122567 0)
(2.49918 -0.404391 0)
(2.34907 -0.52017 0)
(2.1929 -0.741269 0)
(1.78066 -0.7307 0)
(1.5093 -0.996097 0)
(1.08786 -0.715939 0)
(0.215703 -0.243552 0)
(2.39577 -0.0716083 0)
(2.42082 -0.325895 0)
(1.94907 -0.42834 0)
(1.78284 -0.600684 0)
(1.36636 -0.650851 0)
(1.21164 -0.699887 0)
(0.254027 -0.310438 0)
(0.738864 -0.429919 0)
(2.42301 -0.0777793 0)
(2.32804 -0.220371 0)
(2.13088 -0.29274 0)
(2.18163 -0.468485 0)
(1.85395 -0.464801 0)
(1.766 -0.441396 0)
(1.27669 -0.35287 0)
(1.22339 -0.395805 0)
(2.38774 0.0141516 0)
(2.30704 -0.125914 0)
(2.16624 -0.265829 0)
(1.89835 -0.38757 0)
(1.54719 -0.38926 0)
(1.42123 -0.452107 0)
(1.15583 -0.141501 0)
(1.04463 -0.149113 0)
(2.33704 0.055689 0)
(2.39141 -0.110427 0)
(2.15261 -0.153143 0)
(2.06627 -0.241935 0)
(1.98705 -0.265215 0)
(1.83542 -0.294416 0)
(1.68724 -0.131558 0)
(1.54819 -0.220491 0)
(2.34389 0.133792 0)
(2.34395 -0.0372889 0)
(2.08184 -0.0517388 0)
(2.09669 -0.24647 0)
(1.76336 -0.192736 0)
(1.5611 -0.256473 0)
(1.34668 -0.0393809 0)
(1.26932 -0.00839416 0)
(2.32663 0.150677 0)
(2.21503 0.0302953 0)
(2.08293 -0.0307522 0)
(2.04934 -0.138347 0)
(1.77289 -0.0614014 0)
(1.87997 -0.147142 0)
(1.64105 0.0007001 0)
(1.72641 -0.0661342 0)
(2.24118 0.220214 0)
(2.11155 0.0878987 0)
(2.07085 0.0377864 0)
(1.91631 -0.0554231 0)
(1.80897 -0.0556745 0)
(1.7258 -0.125364 0)
(1.44898 0.0163731 0)
(1.54306 0.00993594 0)
(2.07786 0.249053 0)
(2.04403 0.109003 0)
(1.95099 0.0729331 0)
(1.86334 -0.0226602 0)
(1.81027 -0.00665355 0)
(1.6834 -0.0135625 0)
(1.66535 0.0646369 0)
(1.57704 0.0848455 0)
(1.94535 0.287473 0)
(1.95402 0.156773 0)
(1.82469 0.13491 0)
(1.84666 0.0239383 0)
(1.69126 0.0572515 0)
(1.69783 -0.00582344 0)
(1.57472 0.0735707 0)
(1.59162 0.0757021 0)
(1.79303 0.274516 0)
(1.77576 0.162217 0)
(1.74914 0.127426 0)
(1.73036 0.0461367 0)
(1.65458 0.0541552 0)
(1.66123 0.0241597 0)
(1.56888 0.0935157 0)
(1.61878 0.108116 0)
(1.60833 0.301789 0)
(1.61534 0.177062 0)
(1.60867 0.158081 0)
(1.62074 0.0766862 0)
(1.57277 0.0954549 0)
(1.5892 0.0546008 0)
(1.52312 0.106349 0)
(1.57182 0.107748 0)
(1.39002 0.259969 0)
(1.44731 0.150662 0)
(1.43556 0.135418 0)
(1.49227 0.0520321 0)
(1.43978 0.0740288 0)
(1.49492 0.0352814 0)
(1.4299 0.100422 0)
(1.50071 0.0912953 0)
(1.19277 0.257859 0)
(1.20807 0.146626 0)
(1.27126 0.14008 0)
(1.30564 0.0861179 0)
(1.29465 0.0944743 0)
(1.35113 0.053873 0)
(1.32442 0.11702 0)
(1.38994 0.0942974 0)
(0.941648 0.197909 0)
(0.971677 0.111132 0)
(1.01812 0.0811663 0)
(1.08828 0.0320685 0)
(1.07534 0.0571321 0)
(1.10249 0.0154865 0)
(1.11134 0.0919788 0)
(1.16915 0.051726 0)
(0.671663 0.166848 0)
(0.648348 0.10514 0)
(0.794938 0.0907193 0)
(0.735763 0.0669807 0)
(0.891433 0.0765388 0)
(0.839478 0.0324364 0)
(0.900137 0.0972939 0)
(0.886528 0.0553708 0)
(0.403352 0.0806418 0)
(0.327626 0.0545676 0)
(0.546228 0.0250402 0)
(0.467953 -0.0184757 0)
(0.547295 0.0136035 0)
(0.537324 0.0112027 0)
(0.647904 0.0690622 0)
(0.62362 0.00464729 0)
(0.155091 0.0443997 0)
(-0.0345694 0.0390882 0)
(0.366904 0.0224107 0)
(0.0412073 0.0707309 0)
(0.486887 0.0298822 0)
(0.123935 -0.0171985 0)
(0.478664 0.0699487 0)
(0.397559 0.0314681 0)
(-0.74232 -0.547951 0)
(0.386695 0.147082 0)
(0.742457 0.50907 0)
(0.887538 0.553835 7.54705e-18)
(1.39128 0.747439 5.75328e-19)
(1.59676 0.625059 0)
(2.09915 0.575094 4.52976e-18)
(1.84112 0.41925 2.60487e-19)
(2.06336 0.415312 3.39483e-18)
(1.82255 0.335388 3.27696e-18)
(2.15668 0.369642 0)
(1.89383 0.298396 2.74643e-18)
(2.28242 0.350148 -1.15396e-19)
(2.01275 0.286441 2.25667e-18)
(2.41476 0.349669 2.7485e-20)
(2.1734 0.288832 -3.03194e-20)
(2.54889 0.365058 -6.67775e-19)
(2.37337 0.293847 4.72426e-19)
(2.70395 0.37467 4.6831e-21)
(2.593 0.125196 9.29771e-22)
(0.151426 -0.531831 0)
(0.647996 0.00274008 0)
(0.849396 0.402851 -3.35858e-19)