/*--------------------------------*- C++ -*----------------------------------*\
| =========                 |                                                 |
| \\      /  F ield         | OpenFOAM: The Open Source CFD Toolbox           |
|  \\    /   O peration     | Version:  2.4.0                                 |
|   \\  /    A nd           | Web:      www.OpenFOAM.org                      |
|    \\/     M anipulation  |                                                 |
\*---------------------------------------------------------------------------*/
FoamFile
{
    version     2.0;
    format      ascii;
    class       volScalarField;
    location    "4.2";
    object      epsilon;
}
// * * * * * * * * * * * * * * * * * * * * * * * * * * * * * * * * * * * * * //

dimensions      [0 2 -3 0 0 0 0];

internalField   nonuniform List<scalar> 
6000
(
0.995192
0.381704
0.0487481
0.00578194
0.000783233
0.00309577
0.00199243
0.00386291
0.00471886
0.00742761
0.0103426
0.0143237
0.018202
0.0221491
0.0254839
0.0282353
0.0296235
0.0284548
0.0232729
0.015779
0.016106
0.0310715
0.0559345
0.084982
0.112791
0.137268
0.15874
0.177766
0.194747
0.209931
0.223492
0.235556
0.24623
0.255626
0.264026
0.27136
0.277804
0.283486
0.288525
0.293039
0.297115
0.300845
0.30422
0.307281
0.309783
0.311628
0.312226
0.316627
0.341724
0.370361
0.399374
0.434549
0.468464
0.517521
0.561667
0.646155
0.712286
0.892603
0.994098
1.49394
0.558281
0.355062
0.0228231
0.00518821
0.000375715
0.00095214
0.000921078
0.00154108
0.00215707
0.00328932
0.0046512
0.00622958
0.00779679
0.00926418
0.0105486
0.0116839
0.0124273
0.01228
0.0106654
0.00825772
0.0100414
0.01846
0.0292028
0.0404533
0.0510717
0.0605145
0.0688334
0.0761778
0.0826708
0.0884001
0.0934339
0.0978307
0.101649
0.10496
0.107955
0.110584
0.112919
0.115031
0.116989
0.118861
0.120705
0.122575
0.124499
0.126503
0.128542
0.130571
0.132483
0.13575
0.143323
0.151315
0.159155
0.167651
0.175894
0.186169
0.196586
0.212377
0.229774
0.258919
0.306367
0.370209
0.416729
0.411489
0.0306002
0.00378413
0.000307392
0.0005733
0.000705319
0.0011217
0.00166536
0.00251782
0.0035612
0.00472167
0.00586206
0.0069102
0.00783986
0.00867779
0.00928021
0.00931252
0.00839154
0.0071301
0.00926456
0.0161333
0.0241241
0.0322002
0.0397713
0.0465101
0.0524355
0.0576421
0.0622124
0.0662092
0.0696843
0.0726856
0.0752644
0.0774876
0.0794726
0.0812046
0.0827408
0.0841396
0.0854585
0.0867529
0.0880735
0.0894659
0.0909627
0.0925877
0.0943323
0.0961676
0.0980873
0.100788
0.105154
0.109468
0.113519
0.117411
0.121049
0.124921
0.12907
0.134344
0.141445
0.150601
0.170165
0.186741
0.367363
0.406311
0.0520381
0.00234754
0.000300728
0.000468791
0.00063878
0.000998107
0.00150961
0.00227335
0.00320467
0.00422444
0.0052103
0.00610393
0.00689518
0.00761292
0.00815714
0.00825979
0.00762856
0.00689745
0.00920546
0.015409
0.0223549
0.02925
0.0356939
0.0414331
0.0464733
0.0508887
0.0547476
0.0581039
0.0610038
0.0634912
0.0656146
0.0674358
0.0690388
0.0704271
0.0716512
0.0727642
0.0738183
0.0748644
0.0759498
0.0771178
0.0784021
0.0798281
0.0814007
0.083101
0.0849582
0.0873243
0.0904968
0.0934698
0.0961416
0.0984123
0.100408
0.102147
0.104118
0.10619
0.10981
0.11355
0.124159
0.130387
0.343014
0.376369
0.0745301
0.00181135
0.000321861
0.000437498
0.000620697
0.000959044
0.00145522
0.00218318
0.00306607
0.00402533
0.00494045
0.00576079
0.00648322
0.00714025
0.00765784
0.00780414
0.00734321
0.00693157
0.00932433
0.0151424
0.0215683
0.0278931
0.0338009
0.0390684
0.0436924
0.0477361
0.0512609
0.0543167
0.0569468
0.0591934
0.0611031
0.0627333
0.0641506
0.0653683
0.0664339
0.0673973
0.0683082
0.0692152
0.0701644
0.0711982
0.0723518
0.073652
0.0751116
0.0767189
0.0785129
0.080646
0.0831995
0.085484
0.0874427
0.0888945
0.090048
0.0907512
0.0916379
0.0922662
0.0942407
0.0957618
0.102521
0.105209
0.32944
0.340303
0.0979135
0.00278687
0.000376825
0.000436637
0.000625949
0.000955182
0.00144389
0.00215655
0.00301826
0.00395117
0.00483333
0.00561777
0.0063046
0.00692981
0.00743729
0.0076186
0.0072768
0.00707836
0.00949747
0.0150504
0.0211833
0.0272065
0.0328404
0.0378722
0.0422906
0.0461515
0.0495122
0.0524204
0.0549182
0.0570466
0.0588507
0.0603843
0.0617036
0.0628283
0.0638038
0.0646784
0.0655003
0.0663172
0.0671746
0.0681151
0.0691749
0.070383
0.0717575
0.0732923
0.0750204
0.076971
0.0791351
0.0809891
0.0824959
0.0834378
0.0840583
0.0841343
0.0843539
0.0841614
0.0851799
0.0855341
0.0902523
0.0913117
0.32126
0.305834
0.11509
0.00807337
0.000511672
0.000455551
0.000646695
0.000970533
0.00145544
0.00216203
0.00301643
0.00394092
0.00481118
0.00558117
0.00625227
0.00686325
0.00737169
0.00758586
0.00733657
0.00728635
0.00969041
0.015037
0.0209921
0.0268545
0.0323545
0.0372784
0.0416063
0.0453881
0.0486781
0.051523
0.053964
0.0560414
0.057799
0.0592876
0.0605567
0.0616303
0.0625526
0.0633708
0.0641323
0.0648844
0.0656726
0.0665401
0.0675244
0.0686562
0.0699582
0.0714288
0.073083
0.0748784
0.0767627
0.0783086
0.0794875
0.080065
0.0802992
0.0799373
0.0796878
0.0789533
0.0793375
0.0789725
0.0824655
0.0825891
0.315827
0.275744
0.126886
0.0180053
0.000843525
0.000494815
0.000681212
0.00099934
0.00148171
0.00218646
0.00304123
0.0039679
0.00483961
0.0056094
0.00627861
0.0068881
0.00740644
0.00765466
0.00748276
0.00753703
0.00989506
0.0150642
0.0209031
0.0266857
0.0321349
0.0370285
0.0413367
0.0451034
0.0483809
0.0512149
0.0536462
0.0557144
0.0574622
0.0589378
0.0601861
0.0612342
0.0621254
0.0629063
0.0636238
0.0643253
0.0650564
0.0658612
0.0667786
0.067841
0.0690748
0.0704822
0.0720517
0.0737069
0.0753687
0.0766709
0.0775874
0.0778775
0.0778047
0.0771062
0.0764958
0.0753656
0.0752893
0.074431
0.077106
0.0766148
0.311894
0.250626
0.134086
0.0307786
0.00166079
0.000563841
0.000731186
0.00104014
0.0015195
0.00222388
0.0030833
0.00401882
0.00490118
0.00568119
0.00635931
0.00697777
0.0075143
0.00779995
0.00769683
0.0078248
0.0101126
0.0151157
0.0208709
0.0266218
0.0320725
0.0369863
0.0413216
0.0451165
0.0484207
0.0512793
0.0537327
0.0558201
0.0575828
0.0590671
0.0603142
0.0613535
0.062228
0.0629836
0.0636671
0.064326
0.0650065
0.0657534
0.066607
0.0676017
0.068767
0.0701058
0.0715816
0.0731029
0.0745734
0.0756672
0.0763582
0.0764049
0.0760719
0.0750965
0.0741912
0.0727514
0.0723192
0.0710966
0.0731788
0.0722473
0.308898
0.230177
0.137434
0.0445673
0.003747
0.000687233
0.000801449
0.00109394
0.00156815
0.00227182
0.00313797
0.00408662
0.00498625
0.00578461
0.00648069
0.00711756
0.00768055
0.00800869
0.00797001
0.00814968
0.0103474
0.0151849
0.0208712
0.0266187
0.0321045
0.0370726
0.0414678
0.0453213
0.0486803
0.0515891
0.0540876
0.0562144
0.0580099
0.0595182
0.0607778
0.0618202
0.0626877
0.0634259
0.0640815
0.0647023
0.065335
0.0660255
0.0668155
0.067741
0.0688347
0.0700959
0.0714697
0.0728585
0.0741541
0.0750591
0.0755457
0.0753753
0.0748114
0.0735973
0.0724405
0.0707469
0.070027
0.0685218
0.0701476
0.0688817
0.30655
0.213776
0.137735
0.0574908
0.00844098
0.00092275
0.000901141
0.00116386
0.00162878
0.00232983
0.00320317
0.00416749
0.00508924
0.00591253
0.00663451
0.00729877
0.00789672
0.00827388
0.00829842
0.00851411
0.0106054
0.0152703
0.0208905
0.02665
0.0321923
0.037238
0.0417166
0.045651
0.0490856
0.0520636
0.0546244
0.056806
0.0586474
0.0601911
0.0614736
0.0625275
0.0633948
0.0641208
0.0647523
0.0653372
0.065923
0.0665566
0.067281
0.0681339
0.069151
0.0703231
0.0715877
0.0728419
0.0739708
0.0746972
0.0749913
0.0746199
0.0738445
0.0724175
0.0710398
0.0691313
0.0681715
0.0664396
0.0676978
0.0661688
0.304674
0.200737
0.135798
0.0685581
0.014987
0.00139303
0.00104662
0.00125536
0.00170398
0.00239891
0.00327846
0.00425965
0.00520695
0.00606054
0.00681555
0.00751595
0.00815773
0.00859165
0.00868067
0.00892149
0.0108924
0.015373
0.0209216
0.0266992
0.0323108
0.03745
0.0420287
0.0460608
0.0495869
0.0526487
0.0552851
0.0575331
0.0594307
0.0610188
0.0623318
0.0634034
0.0642754
0.0649928
0.0656022
0.066152
0.0666904
0.0672651
0.0679208
0.0686965
0.0696305
0.0707017
0.0718498
0.0729656
0.0739305
0.0744827
0.0745906
0.0740279
0.0730541
0.0714327
0.0698568
0.0677627
0.0665981
0.0646807
0.065633
0.0638932
0.303152
0.190431
0.132361
0.0772517
0.0228015
0.00238675
0.00126775
0.00137731
0.00179805
0.00248139
0.00336472
0.00436267
0.00533773
0.00622594
0.00702037
0.00776559
0.00846031
0.00895988
0.00911667
0.00937551
0.0112145
0.0154959
0.0209613
0.0267561
0.0324432
0.0376861
0.0423771
0.0465194
0.0501491
0.0533062
0.0560285
0.0583523
0.0603142
0.0619534
0.0633029
0.0643971
0.0652773
0.0659883
0.0665767
0.0670912
0.0675806
0.0680937
0.0686766
0.0693699
0.0702122
0.0711725
0.0721964
0.0731685
0.0739686
0.0743474
0.0742718
0.0735236
0.0723605
0.0705586
0.0688025
0.0665455
0.0652036
0.0631328
0.0638245
0.061915
0.301904
0.182314
0.128042
0.0834418
0.0310038
0.00463834
0.00162166
0.00154379
0.00191741
0.00258092
0.00346394
0.00447731
0.00548112
0.00640725
0.00724671
0.00804529
0.00880222
0.00937729
0.00960694
0.00987977
0.0115773
0.0156429
0.021009
0.0268147
0.0325784
0.0379308
0.0427422
0.0470039
0.0507466
0.0540079
0.0568244
0.0592313
0.0612639
0.0629598
0.0643505
0.0654708
0.0663618
0.0670678
0.0676354
0.0681137
0.068552
0.0690002
0.0695059
0.0701111
0.0708521
0.0716929
0.0725845
0.0734067
0.0740392
0.0742429
0.0739839
0.0730535
0.0717076
0.0697362
0.0678142
0.0654134
0.0639165
0.0617188
0.0621847
0.0601399
0.300871
0.175939
0.123326
0.0872551
0.0391029
0.00843901
0.00221522
0.00177759
0.0020715
0.0027029
0.00357934
0.00460535
0.00563765
0.00660392
0.00749316
0.00835276
0.00918179
0.00984301
0.0101522
0.0104377
0.0119864
0.0158189
0.0210661
0.026872
0.032709
0.0381728
0.0431097
0.0474974
0.0513602
0.0547327
0.0576499
0.0601457
0.0622542
0.0640111
0.0654466
0.0665959
0.0674995
0.0682012
0.0687479
0.0691885
0.0695734
0.0699531
0.0703767
0.0708876
0.0715174
0.0722312
0.0729823
0.073648
0.0741084
0.0741339
0.0736901
0.0725788
0.071055
0.068923
0.0668475
0.0643191
0.0626859
0.0603839
0.0606523
0.0585022
0.300012
0.170943
0.118566
0.0889753
0.0466126
0.0136893
0.00325289
0.00211655
0.00227424
0.00285486
0.00371554
0.0047497
0.00580882
0.0068163
0.00775902
0.00868642
0.00959761
0.0103563
0.0107533
0.0110525
0.0124471
0.0160297
0.0211356
0.0269271
0.0328305
0.0384043
0.043469
0.047987
0.051975
0.055464
0.058487
0.0610764
0.0632648
0.0650861
0.0665693
0.0677497
0.0686672
0.0693651
0.0698901
0.0702915
0.0706202
0.0709276
0.0712643
0.0716738
0.0721842
0.0727633
0.0733659
0.0738681
0.0741513
0.0739941
0.0733631
0.0720712
0.0703731
0.0680879
0.0658696
0.0632282
0.0614752
0.0590888
0.0591834
0.0569551
0.299294
0.167037
0.114007
0.0889706
0.0531178
0.0199309
0.00514739
0.00262508
0.00254645
0.00304746
0.00387893
0.00491455
0.00599717
0.00704557
0.00804431
0.00904542
0.0100485
0.0109165
0.0114109
0.0117272
0.0129647
0.0162814
0.021222
0.026981
0.0329406
0.0386202
0.0438125
0.0484629
0.0525795
0.0561888
0.0593214
0.0620081
0.0642796
0.0661681
0.0677013
0.0689143
0.0698465
0.0705406
0.0710431
0.0714034
0.0716731
0.0719043
0.0721492
0.07245
0.0728338
0.0732708
0.073717
0.0740487
0.0741488
0.0738039
0.0729825
0.0715095
0.0696399
0.0672081
0.0648567
0.0621154
0.0602572
0.0578045
0.0577462
0.0554645
0.298693
0.16399
0.109799
0.0876381
0.058327
0.0266613
0.00815414
0.00341277
0.00291985
0.00329569
0.0040782
0.00510564
0.00620641
0.00729392
0.00834981
0.00942937
0.0105335
0.0115226
0.0121255
0.0124645
0.013544
0.0165807
0.0213308
0.0270367
0.0330389
0.0388172
0.0441344
0.0489177
0.0531647
0.0568969
0.0601419
0.0629285
0.0652856
0.0672432
0.0688281
0.0700749
0.0710223
0.0717124
0.0721913
0.0725087
0.0727165
0.0728678
0.0730157
0.0732012
0.0734517
0.0737394
0.0740216
0.0741757
0.0740865
0.0735485
0.072533
0.0708779
0.068839
0.0662667
0.0637911
0.0609622
0.0590122
0.0565099
0.0563172
0.0540054
0.298187
0.161621
0.106026
0.0853634
0.0620897
0.0333986
0.0122548
0.00466603
0.00344361
0.00362101
0.00432515
0.00533067
0.00644166
0.00756461
0.00867715
0.00983847
0.0110518
0.0121739
0.0128975
0.013267
0.0141901
0.0169346
0.0214686
0.0270981
0.0331266
0.0389938
0.0444313
0.0493457
0.0537235
0.0575799
0.0609391
0.0638274
0.0662719
0.0683001
0.0699379
0.0712194
0.0721822
0.0728679
0.0733222
0.0735946
0.0737378
0.0738054
0.0738511
0.0739156
0.0740263
0.0741579
0.074269
0.0742384
0.0739534
0.0732167
0.0720032
0.0701647
0.0679585
0.0652513
0.0626598
0.0597548
0.0577256
0.0551894
0.0548795
0.0525594
0.29776
0.159785
0.10272
0.0824923
0.0643888
0.0397015
0.017204
0.00665603
0.00419489
0.00405447
0.00463593
0.00559983
0.00670975
0.00786223
0.00902901
0.0102736
0.0116031
0.0128692
0.013727
0.0141372
0.0149078
0.0173504
0.0216431
0.0271708
0.0332064
0.0391502
0.0447009
0.0497432
0.0542507
0.0582314
0.0617055
0.0646967
0.0672297
0.0693294
0.071021
0.0723377
0.0733159
0.0739966
0.0744251
0.0746507
0.0747265
0.0747067
0.0746457
0.0745838
0.0745487
0.0745177
0.0744506
0.0742286
0.0737414
0.0728002
0.0713847
0.0693614
0.0669897
0.0641528
0.0614535
0.0584835
0.0563869
0.0538317
0.0534205
0.0511127
0.2974
0.158371
0.0998774
0.0793153
0.0653192
0.045204
0.0227313
0.00956035
0.00529471
0.00464153
0.00503278
0.0059267
0.00701968
0.00819295
0.00940929
0.0107367
0.0121875
0.0136079
0.0146139
0.0150775
0.0157017
0.0178356
0.0218628
0.0272618
0.0332826
0.0392879
0.0449426
0.0501076
0.0547422
0.0588463
0.0624352
0.0655295
0.0681516
0.0703232
0.0720691
0.0734212
0.0744148
0.0750899
0.0754913
0.0756682
0.075674
0.0755636
0.0753916
0.0751982
0.0750117
0.074812
0.0745601
0.07414
0.0734443
0.0722929
0.0706714
0.0684619
0.0659265
0.0629651
0.0601659
0.0571415
0.0549889
0.0524286
0.0519313
0.0496553
0.297095
0.157287
0.0974748
0.0760615
0.0650586
0.0496361
0.0285057
0.0133844
0.00692685
0.00544905
0.00554672
0.00632928
0.00738319
0.00856492
0.00982344
0.0112307
0.012806
0.0143891
0.0155582
0.0160898
0.0165767
0.0183976
0.0221369
0.027379
0.0333605
0.0394098
0.045157
0.0504377
0.0551955
0.0594207
0.0631234
0.0663203
0.0690314
0.0712751
0.0730754
0.0744629
0.0754716
0.0761404
0.0765135
0.07664
0.0765734
0.0763694
0.0760824
0.0757529
0.0754099
0.0750357
0.0745927
0.0739681
0.0730576
0.0716904
0.0698591
0.0674621
0.0647648
0.0616842
0.0587927
0.0557243
0.0535266
0.0509749
0.050406
0.0481802
0.296836
0.156466
0.0954745
0.0729001
0.0638353
0.0528358
0.0341699
0.0180097
0.00924885
0.00657479
0.00622127
0.00683168
0.0078156
0.00898869
0.0102787
0.0117599
0.0134608
0.0152125
0.0165595
0.0171761
0.0175373
0.0190442
0.0224753
0.0275318
0.0334471
0.03952
0.045346
0.0507336
0.055609
0.0599521
0.0637665
0.067065
0.0698642
0.0721797
0.0740341
0.0754569
0.0764801
0.077142
0.0774856
0.07756
0.0774193
0.0771187
0.0767132
0.0762432
0.0757389
0.0751848
0.0745449
0.0737096
0.0725783
0.0709899
0.068945
0.0663595
0.0635024
0.060308
0.0573318
0.0542296
0.0519974
0.0494671
0.0488406
0.0466824
0.296615
0.15585
0.0938326
0.0699466
0.0618976
0.0547501
0.0393757
0.0232069
0.0123607
0.00814243
0.00711781
0.00746623
0.00833688
0.00947784
0.0107847
0.0123306
0.0141536
0.0160784
0.0176175
0.0183372
0.0185881
0.0197831
0.0228886
0.0277305
0.0335505
0.0396242
0.0455127
0.0509964
0.0559823
0.0604387
0.0643619
0.06776
0.070646
0.0730325
0.0749406
0.0763981
0.0774354
0.0780892
0.0784025
0.0784238
0.0782069
0.0778073
0.0772799
0.0766657
0.0759955
0.0752565
0.0744141
0.0733622
0.0720043
0.0701896
0.0679278
0.065153
0.0621385
0.0588357
0.0557828
0.0526567
0.0504004
0.047904
0.0472333
0.0451589
0.296427
0.155398
0.092504
0.0672714
0.0594881
0.0554266
0.0438173
0.0286793
0.0162692
0.0102792
0.0083178
0.00827655
0.00897316
0.0100498
0.0113536
0.012951
0.0148879
0.016988
0.0187322
0.0195749
0.0197335
0.0206219
0.0233878
0.0279866
0.0336799
0.0397289
0.0456614
0.0512284
0.0563162
0.0608799
0.064908
0.068403
0.0713739
0.0738301
0.075791
0.0772822
0.0783328
0.0789783
0.0792606
0.0792275
0.0789329
0.0784318
0.0777795
0.0770174
0.0761773
0.0752488
0.0741987
0.0729246
0.0713345
0.0692888
0.0668071
0.0638428
0.0606735
0.0572682
0.0541463
0.0510062
0.0487361
0.0462854
0.0455836
0.0436082
0.296266
0.155073
0.0914447
0.0649094
0.056825
0.0549955
0.0472591
0.0340974
0.0208711
0.0130931
0.00991747
0.00931855
0.00975957
0.0107271
0.0120011
0.0136319
0.0156703
0.0179436
0.0199036
0.0208903
0.0209776
0.0215682
0.0239846
0.0283125
0.033846
0.0398421
0.0457976
0.0514329
0.0566122
0.0612761
0.0654038
0.0689918
0.072045
0.0745692
0.0765819
0.0781061
0.0791696
0.0798062
0.0800567
0.0799683
0.0795943
0.0789897
0.0782097
0.0772965
0.0762827
0.0751603
0.0738975
0.0723961
0.0705686
0.0682874
0.0655834
0.0624297
0.059109
0.0556074
0.0524246
0.0492803
0.0470063
0.0446127
0.0438923
0.0420302
0.296128
0.154849
0.0906139
0.0628693
0.0540902
0.0536457
0.0495545
0.0391292
0.0259675
0.0166367
0.0120226
0.0106608
0.0107378
0.0115392
0.0127486
0.0143875
0.0165097
0.0189493
0.0211321
0.0222846
0.0223241
0.0226295
0.0246905
0.0287154
0.0340574
0.039972
0.0459276
0.0516143
0.056873
0.0616285
0.0658496
0.0695263
0.0726586
0.0752488
0.0773117
0.078868
0.0799436
0.0805707
0.0807887
0.0806439
0.0801891
0.079479
0.0785689
0.0775016
0.0763106
0.0749902
0.0735102
0.0717765
0.0697068
0.0671862
0.0642578
0.0609157
0.0574474
0.053856
0.0506207
0.0474819
0.0452139
0.0428883
0.0421616
0.0404257
0.296009
0.154705
0.0899748
0.0611412
0.0514247
0.0515986
0.0506548
0.0434688
0.0312907
0.020878
0.0147299
0.0123844
0.0119597
0.0125198
0.0136218
0.0152382
0.0174177
0.020011
0.0224188
0.023758
0.0237762
0.0238132
0.0255098
0.0292054
0.0343246
0.0401278
0.0460589
0.0517784
0.0571026
0.0619397
0.0662471
0.0700072
0.0732146
0.0758681
0.0779794
0.0795665
0.0806533
0.0812701
0.0814548
0.0812527
0.0807157
0.0798984
0.0788558
0.0776317
0.0762604
0.0747383
0.0730368
0.0710661
0.0687499
0.0659865
0.0628325
0.0593034
0.055692
0.052018
0.0487389
0.0456153
0.0433631
0.0411157
0.0403945
0.0387967
0.295906
0.154624
0.0894951
0.0597034
0.0489285
0.0490824
0.0506056
0.0468628
0.0365321
0.0256927
0.0181012
0.014577
0.0134872
0.0137097
0.0146487
0.0162076
0.0184128
0.0211373
0.0237658
0.0253106
0.0253362
0.0251241
0.0264498
0.0297934
0.0346586
0.0403196
0.0462001
0.0519317
0.057306
0.0622133
0.0665985
0.0704357
0.0737138
0.0764273
0.0785846
0.080201
0.0812978
0.0819033
0.0820539
0.0817934
0.0811731
0.0802468
0.0790699
0.0776865
0.0761319
0.0744044
0.0724776
0.0702657
0.0676989
0.0646899
0.0613097
0.0575962
0.0538471
0.0500983
0.0467842
0.0436857
0.0414587
0.0392994
0.038595
0.0371461
0.295817
0.154591
0.0891469
0.0585278
0.0466652
0.0463111
0.0495344
0.0491336
0.0413708
0.0308741
0.0221358
0.0173193
0.0153905
0.0151576
0.0158631
0.0173198
0.0195185
0.0223428
0.0251761
0.0269419
0.0270053
0.0265668
0.0275197
0.0304903
0.0350708
0.040558
0.0463601
0.0520816
0.057489
0.0624534
0.0669069
0.0708141
0.0741573
0.076927
0.0791276
0.0807712
0.0818766
0.0824698
0.0825853
0.0822655
0.0815606
0.0805239
0.0792106
0.0776656
0.0759249
0.0739891
0.0718331
0.0693761
0.0665553
0.0632986
0.0596927
0.055798
0.0519175
0.0481022
0.0447628
0.0416989
0.0395068
0.0374447
0.0367681
0.0354777
0.295739
0.154595
0.0889061
0.0575832
0.0446681
0.0434691
0.0476282
0.0501943
0.0455026
0.0361537
0.0267547
0.0206656
0.0177421
0.0169192
0.0173045
0.0186029
0.0207552
0.0236464
0.0266564
0.0286508
0.0287841
0.0281465
0.0287283
0.0313072
0.0355731
0.0408544
0.046549
0.0522362
0.0576578
0.0626651
0.0671759
0.0711449
0.0745472
0.0773685
0.0796091
0.0812775
0.0823898
0.0829694
0.0830487
0.0826685
0.0818778
0.0807293
0.0792779
0.0775692
0.0756399
0.0734926
0.0711042
0.0683986
0.0653209
0.0618152
0.0579848
0.0539135
0.0499088
0.0460364
0.0426815
0.0396621
0.0375141
0.0355578
0.0349196
0.033796
0.295671
0.154629
0.0887527
0.0568385
0.0429468
0.0407032
0.0451082
0.0500547
0.048667
0.0412268
0.0317974
0.0246225
0.020606
0.0190539
0.0190173
0.0200892
0.0221463
0.0250642
0.0282213
0.0304385
0.0306737
0.0298678
0.0300844
0.0322554
0.0361778
0.0412205
0.0467771
0.0524045
0.0578198
0.062854
0.0674099
0.0714315
0.0748858
0.0777534
0.0800302
0.0817207
0.0828377
0.0834022
0.0834442
0.0830025
0.0821248
0.0808631
0.0792719
0.0773974
0.0752773
0.0729156
0.0702916
0.0673344
0.0639975
0.0602424
0.05619
0.0519479
0.0478276
0.043908
0.0405482
0.0375829
0.0354883
0.0336456
0.0330559
0.0321064
0.295612
0.154683
0.0886697
0.0562638
0.0414938
0.0381191
0.0422038
0.0488155
0.0506737
0.0457786
0.0370338
0.0291306
0.0240225
0.0216194
0.0210494
0.0218148
0.0237183
0.0266152
0.0298841
0.0323104
0.032675
0.0317345
0.0315964
0.0333463
0.0368973
0.0416686
0.0470556
0.0525959
0.0579827
0.0630264
0.0676138
0.0716776
0.075176
0.0780841
0.0803925
0.0821018
0.0832213
0.0837688
0.083772
0.0832676
0.0823018
0.0809254
0.0791929
0.0771507
0.0748373
0.0722588
0.0693965
0.066185
0.0625872
0.0585833
0.0543127
0.0499069
0.0456808
0.0417251
0.0383714
0.0354701
0.0334379
0.0317161
0.0311844
0.030415
0.29556
0.154754
0.0886427
0.0558319
0.0402909
0.0357846
0.0391293
0.0466524
0.0514215
0.0495124
0.0421831
0.0340574
0.0279903
0.0246615
0.0234486
0.0238178
0.0255
0.0283208
0.0316596
0.0342734
0.0347889
0.0337496
0.0332719
0.0345909
0.0377441
0.0422111
0.047396
0.0528204
0.0581549
0.063189
0.0677931
0.0718875
0.0754212
0.078363
0.080698
0.0824223
0.0835414
0.08407
0.0840328
0.0834643
0.082409
0.0809166
0.0790411
0.0768294
0.0743207
0.0715229
0.0684197
0.0649519
0.0610924
0.0568414
0.0523578
0.047797
0.0434763
0.0394965
0.0361606
0.0333331
0.0313722
0.0297778
0.0293134
0.0287289
0.295514
0.154835
0.08866
0.0555186
0.0393132
0.0337344
0.0360672
0.0437919
0.0509091
0.0521768
0.0469377
0.0392009
0.032452
0.0282021
0.0262558
0.0261361
0.0275215
0.0302032
0.0335648
0.0363351
0.0370161
0.0359148
0.0351177
0.0359995
0.0387307
0.0428607
0.0478101
0.0530885
0.0583453
0.0633494
0.0679538
0.072066
0.0756252
0.0785931
0.080949
0.082684
0.0837995
0.0843066
0.0842272
0.0835931
0.0824468
0.080837
0.078817
0.0764339
0.0737278
0.0707085
0.0673623
0.0636365
0.0595154
0.0550203
0.0503305
0.0456251
0.0412227
0.0372321
0.0339263
0.0311825
0.0293016
0.0278403
0.0274519
0.0270559
0.295474
0.154924
0.0887116
0.0553026
0.0385332
0.0319775
0.0331588
0.0404829
0.0492341
0.0535921
0.0509889
0.0443033
0.0372852
0.0322246
0.0294969
0.0288028
0.0298117
0.0322852
0.0356118
0.0385036
0.0393567
0.03823
0.0371384
0.0375817
0.0398689
0.0436301
0.0483099
0.0534109
0.0585631
0.063515
0.0681023
0.0722183
0.0757921
0.0787778
0.081148
0.0828888
0.083997
0.08448
0.0843561
0.0836546
0.0824159
0.080687
0.0785208
0.0759646
0.0730592
0.0698163
0.0662252
0.0622404
0.0578588
0.053124
0.0482366
0.043399
0.0389294
0.0349424
0.0316798
0.0290295
0.027237
0.0259139
0.0256097
0.0254047
0.295439
0.155018
0.0887892
0.055166
0.0379233
0.0305042
0.030501
0.0369686
0.0465797
0.0536713
0.0540543
0.0490707
0.042303
0.0366622
0.0331719
0.0318402
0.0323954
0.0345878
0.0378149
0.0407875
0.0418098
0.0406929
0.0393367
0.0393454
0.0411699
0.0445314
0.0489074
0.0537985
0.0588179
0.0636941
0.0682451
0.0723498
0.0759263
0.0789204
0.0812979
0.0830389
0.0841356
0.0845912
0.0844204
0.0836496
0.0823165
0.0804669
0.0781528
0.0754216
0.0723149
0.0688467
0.0650093
0.0607651
0.0561251
0.0511566
0.0460824
0.041127
0.0366066
0.0326389
0.0294332
0.0268864
0.0251907
0.0240097
0.0237976
0.0237848
0.295408
0.155113
0.0888861
0.0550931
0.0374571
0.0292927
0.02815
0.0334636
0.0431914
0.0524318
0.0559058
0.0531967
0.0472641
0.0413904
0.0372441
0.0352519
0.0352886
0.0371277
0.0401869
0.0431925
0.044373
0.0432986
0.0417123
0.0412962
0.0426435
0.0455762
0.0496144
0.0542624
0.0591193
0.0638948
0.0683891
0.0724661
0.0760324
0.0790247
0.0814014
0.0831365
0.084217
0.0846416
0.084421
0.0835785
0.0821492
0.080177
0.0777131
0.074805
0.0714954
0.0678001
0.0637153
0.0592123
0.0543173
0.0491229
0.0438747
0.0388183
0.0342655
0.030334
0.0271998
0.0247662
0.0231753
0.02214
0.0220273
0.0222066
0.29538
0.155208
0.0889965
0.0550709
0.0371106
0.0283147
0.0261275
0.0301376
0.0393453
0.0499965
0.0563953
0.0563884
0.0518883
0.0462273
0.0416305
0.039014
0.0384925
0.039914
0.0427367
0.04572
0.0470415
0.0460384
0.0442608
0.0434368
0.0442975
0.0467751
0.0504419
0.0548129
0.0594767
0.0641254
0.0685414
0.072573
0.0761149
0.0790942
0.0814614
0.0831839
0.0842429
0.0846323
0.0843588
0.0834419
0.0819141
0.0798173
0.0772016
0.0741149
0.0706004
0.0666767
0.0623439
0.0575834
0.0524382
0.0470279
0.041621
0.0364826
0.031918
0.0280412
0.0249936
0.0226831
0.0212048
0.0203177
0.0203113
0.0206817
0.295356
0.155303
0.089116
0.0550884
0.0368627
0.0275392
0.0244289
0.0271094
0.0353156
0.0465802
0.0554753
0.0583942
0.0558783
0.0509408
0.046197
0.043067
0.0419871
0.0429434
0.0454657
0.0483689
0.049807
0.0488997
0.0469732
0.0457655
0.0461369
0.0481365
0.0513999
0.0554601
0.0598993
0.0643938
0.0687086
0.072676
0.0761785
0.0791328
0.0814809
0.0831832
0.0842148
0.0845645
0.0842344
0.0832402
0.0816114
0.0793877
0.0766182
0.0733509
0.0696299
0.0654766
0.0608957
0.05588
0.0504911
0.044877
0.0393293
0.0341309
0.029577
0.0257746
0.0228297
0.0206521
0.0192938
0.0185567
0.0186633
0.0192253
0.295335
0.155395
0.0892409
0.0551365
0.0366949
0.0269356
0.0230326
0.024447
0.0313456
0.0424639
0.0532104
0.059031
0.0589435
0.0552627
0.0507594
0.0473087
0.045724
0.0461952
0.0483649
0.0511315
0.0526564
0.0518645
0.0498344
0.0482755
0.0481625
0.0496666
0.0524968
0.0562129
0.0603957
0.0647077
0.0688972
0.0727807
0.0762276
0.079144
0.0814627
0.0831365
0.0841343
0.0844392
0.0840484
0.0829736
0.0812409
0.0788879
0.0759624
0.0725124
0.0685834
0.0641996
0.0593713
0.0541038
0.0484795
0.0426761
0.0370086
0.0317746
0.0272564
0.0235496
0.0207238
0.0186888
0.017458
0.016872
0.0170979
0.0178521
0.295316
0.155485
0.0893681
0.0552076
0.0365917
0.0264754
0.0219064
0.0221756
0.0276267
0.0379598
0.0497754
0.0582095
0.0608268
0.0589076
0.0550904
0.0515927
0.0496205
0.0496256
0.0514107
0.0539907
0.0555701
0.0549088
0.0528227
0.0509533
0.0503702
0.0513678
0.0537387
0.0570788
0.0609732
0.0650741
0.0691134
0.0728921
0.0762664
0.0791309
0.0814091
0.0830457
0.0840026
0.084257
0.083801
0.0826418
0.0808022
0.0783172
0.0752332
0.0715986
0.0674601
0.0628454
0.0577711
0.0522566
0.0464071
0.040432
0.0346686
0.0294265
0.0249709
0.0213821
0.0186927
0.0168098
0.0157135
0.0152792
0.0156304
0.0165762
0.2953
0.155571
0.0894955
0.0552954
0.0365398
0.0261331
0.0210141
0.0202876
0.0242889
0.0333729
0.0454383
0.0559521
0.0613326
0.0615957
0.058932
0.0557296
0.053556
0.0531631
0.0545601
0.0569169
0.0585201
0.0580011
0.0559082
0.0537776
0.0527492
0.0532377
0.0551282
0.0580628
0.061638
0.0654988
0.0693622
0.0730146
0.0762984
0.0790964
0.0813223
0.0829121
0.0838205
0.0840183
0.0834921
0.0822446
0.0802945
0.0776746
0.0744297
0.0706085
0.0662592
0.0614135
0.0560954
0.0503402
0.0442783
0.0381518
0.0323199
0.0270999
0.0227362
0.0192888
0.0167535
0.0150323
0.0140774
0.0137949
0.0142775
0.0154132
0.295285
0.155653
0.0896213
0.0553947
0.036528
0.0258866
0.0203191
0.018753
0.021401
0.0289669
0.0405287
0.0524001
0.0603527
0.0630783
0.0620136
0.0594952
0.0573715
0.0567042
0.0577473
0.0598649
0.0614674
0.0611007
0.0590519
0.056718
0.0552806
0.0552677
0.0566638
0.0591672
0.0623938
0.0659861
0.0696478
0.0731517
0.0763264
0.0790428
0.0812038
0.0827367
0.0835884
0.083723
0.0831213
0.0817809
0.0797167
0.0769586
0.0735503
0.0695405
0.0649795
0.0599033
0.0543446
0.0483568
0.0420979
0.0358438
0.029974
0.0248094
0.0205685
0.017287
0.0149238
0.0133736
0.0125671
0.0124365
0.0130563
0.0143792
0.295272
0.155732
0.0897442
0.0555015
0.0365472
0.0257168
0.0197873
0.0175302
0.0189803
0.0249402
0.0353969
0.0478053
0.0578892
0.0631649
0.0640729
0.0626427
0.0608741
0.0601126
0.0608803
0.0627703
0.0643594
0.0641568
0.0622047
0.0597335
0.0579361
0.0574419
0.0583383
0.0603903
0.0632421
0.066538
0.0699726
0.0733058
0.0763526
0.0789714
0.0810546
0.0825199
0.0833062
0.0833705
0.0826875
0.0812494
0.0790671
0.0761676
0.0725932
0.068393
0.0636195
0.0583141
0.0525193
0.046309
0.0398712
0.0335169
0.0276436
0.0225702
0.0184848
0.0153941
0.0132209
0.0118511
0.0111999
0.0112217
0.0119849
0.0134914
0.295261
0.155807
0.0898633
0.0556125
0.0365898
0.0256081
0.0193883
0.0165729
0.0170058
0.0214158
0.0303689
0.0425047
0.054066
0.0617505
0.0648812
0.06492
0.0638448
0.0632211
0.0638391
0.0655471
0.0671285
0.0671065
0.0653061
0.0627719
0.0606766
0.0597347
0.0601375
0.0617254
0.0641803
0.0671541
0.0703371
0.0734776
0.0763774
0.0788827
0.0808746
0.0822613
0.0829731
0.0829596
0.082189
0.0806482
0.0783436
0.0752993
0.071556
0.0671637
0.0621776
0.0566449
0.05062
0.0441995
0.0376045
0.0311813
0.0253423
0.0203985
0.0165022
0.0136274
0.0116618
0.0104817
0.00999316
0.0101685
0.0110814
0.0127669
0.295251
0.155877
0.0899779
0.0557252
0.0366494
0.0255472
0.0190961
0.0158355
0.0154322
0.0184448
0.0257094
0.0368797
0.0491279
0.0588387
0.0642692
0.06609
0.0660517
0.065837
0.066477
0.0680866
0.069689
0.0698735
0.0682838
0.0657684
0.0634506
0.0621102
0.0620386
0.0631593
0.0652006
0.0678304
0.0707394
0.073666
0.0764001
0.0787756
0.0806626
0.0819594
0.0825873
0.0824882
0.0816237
0.0799748
0.0775435
0.0743507
0.070436
0.0658503
0.0606518
0.0548949
0.0486476
0.042032
0.035305
0.0288481
0.0230849
0.0183109
0.0146378
0.012003
0.010262
0.00928078
0.00896292
0.00929441
0.010364
0.0122223
0.295242
0.155944
0.0900877
0.0558376
0.0367212
0.0255233
0.0188886
0.0152767
0.0142029
0.0160202
0.0215977
0.0313058
0.0434198
0.0545574
0.0621541
0.0659548
0.0672674
0.0677523
0.0686247
0.0702579
0.0719375
0.0723673
0.0710525
0.0686456
0.066194
0.0645203
0.064009
0.0646715
0.0662898
0.0685589
0.071174
0.0738672
0.0764176
0.0786477
0.0804164
0.0816117
0.0821461
0.0819535
0.0809883
0.0792259
0.0766632
0.0733185
0.06923
0.0644498
0.05904
0.0530633
0.0466031
0.0398106
0.032981
0.02653
0.0208869
0.0163243
0.0129078
0.0105359
0.00903505
0.00826182
0.00812342
0.00861573
0.00984962
0.0118726
0.295234
0.156007
0.0901924
0.0559482
0.0368011
0.0255277
0.0187476
0.0148605
0.0132591
0.0140954
0.0181231
0.0261034
0.0373475
0.04916
0.0585632
0.0643814
0.0672889
0.0687573
0.0700974
0.0719106
0.0737526
0.0744827
0.0735146
0.0713131
0.0688289
0.0669039
0.0660046
0.0662309
0.0674279
0.0693261
0.0716318
0.0740745
0.0764248
0.0784945
0.0801316
0.0812143
0.0816457
0.0813515
0.0802789
0.0783973
0.0756989
0.0721987
0.0679343
0.0629591
0.05734
0.0511492
0.0444881
0.0375404
0.0306418