/*--------------------------------*- C++ -*----------------------------------*\
| =========                 |                                                 |
| \\      /  F ield         | OpenFOAM: The Open Source CFD Toolbox           |
|  \\    /   O peration     | Version:  2.4.0                                 |
|   \\  /    A nd           | Web:      www.OpenFOAM.org                      |
|    \\/     M anipulation  |                                                 |
\*---------------------------------------------------------------------------*/
FoamFile
{
    version     2.0;
    format      ascii;
    class       surfaceScalarField;
    location    "0.1";
    object      phi;
}
// * * * * * * * * * * * * * * * * * * * * * * * * * * * * * * * * * * * * * //

dimensions      [0 3 -1 0 0 0 0];

internalField   nonuniform List<scalar> 
4456
(
2.5002e-06
-2.03725e-10
2.49936e-06
8.41244e-10
2.50167e-06
-2.30751e-09
2.4978e-06
3.86536e-09
2.5056e-06
-7.79983e-09
2.49486e-06
1.0742e-08
2.51157e-06
-1.67048e-08
2.49384e-06
1.77284e-08
2.51837e-06
-2.45269e-08
2.5038e-06
1.45689e-08
2.52371e-06
-1.99151e-08
2.53618e-06
-1.247e-08
2.52935e-06
6.8347e-09
2.59398e-06
-6.46371e-08
2.55247e-06
4.15122e-08
2.67646e-06
-1.23986e-07
2.61027e-06
6.61847e-08
2.80226e-06
-1.91986e-07
2.70266e-06
9.95946e-08
-2.93968e-07
2.99663e-06
2.50046e-06
-6.65945e-10
2.49934e-06
1.95978e-09
2.50185e-06
-4.81592e-09
2.49773e-06
7.98623e-09
2.50573e-06
-1.58032e-08
2.49463e-06
2.18463e-08
2.51171e-06
-3.3782e-08
2.49315e-06
3.629e-08
2.51852e-06
-4.99001e-08
2.50248e-06
3.06092e-08
2.52346e-06
-4.08939e-08
2.53462e-06
-2.36341e-08
2.52825e-06
1.32103e-08
2.5922e-06
-1.28586e-07
2.5515e-06
8.22127e-08
2.6738e-06
-2.46286e-07
2.61039e-06
1.2959e-07
2.79996e-06
-3.8156e-07
2.70125e-06
1.98307e-07
-5.86998e-07
2.99428e-06
2.5e-06
-6.66393e-10
2.49932e-06
2.63542e-09
2.50168e-06
-7.16744e-09
2.49763e-06
1.20338e-08
2.50586e-06
-2.40391e-08
2.49408e-06
3.36335e-08
2.51214e-06
-5.18467e-08
2.49168e-06
5.67517e-08
2.5188e-06
-7.70234e-08
2.49993e-06
4.94861e-08
2.52299e-06
-6.39569e-08
2.53136e-06
-3.20068e-08
2.52626e-06
1.83123e-08
2.58838e-06
-1.90709e-07
2.5495e-06
1.21097e-07
2.66814e-06
-3.64929e-07
2.61072e-06
1.8701e-07
2.79691e-06
-5.67744e-07
2.69593e-06
2.99281e-07
-8.88041e-07
2.99697e-06
2.50094e-06
-1.60243e-09
2.49906e-06
4.51267e-09
2.50269e-06
-1.07992e-08
2.4971e-06
1.76255e-08
2.50647e-06
-3.3409e-08
2.49321e-06
4.68883e-08
2.51289e-06
-7.1523e-08
2.48947e-06
8.01671e-08
2.51951e-06
-1.07063e-07
2.49591e-06
7.30936e-08
2.52253e-06
-9.05821e-08
2.52635e-06
-3.58257e-08
2.52314e-06
2.15205e-08
2.58231e-06
-2.49872e-07
2.54701e-06
1.56397e-07
2.65834e-06
-4.76265e-07
2.61132e-06
2.34036e-07
2.79136e-06
-7.47786e-07
2.68868e-06
4.01962e-07
-1.19256e-06
2.9932e-06
2.49976e-06
-1.36726e-09
2.49924e-06
5.03716e-09
2.5021e-06
-1.36611e-08
2.49666e-06
2.30665e-08
2.50747e-06
-4.42194e-08
2.49111e-06
6.32456e-08
2.51552e-06
-9.59249e-08
2.4846e-06
1.11086e-07
2.52167e-06
-1.4414e-07
2.48973e-06
1.05042e-07
2.52224e-06
-1.23095e-07
2.51942e-06
-3.30045e-08
2.5193e-06
2.16394e-08
2.57291e-06
-3.03483e-07
2.54284e-06
1.8647e-07
2.64454e-06
-5.77972e-07
2.6083e-06
2.70281e-07
2.78719e-06
-9.26675e-07
2.66259e-06
5.26556e-07
-1.51412e-06
2.98415e-06
2.50197e-06
-3.33388e-09
2.49774e-06
9.26299e-09
2.50503e-06
-2.09467e-08
2.49414e-06
3.39574e-08
2.51099e-06
-6.10748e-08
2.4874e-06
8.6841e-08
2.51993e-06
-1.28464e-07
2.47803e-06
1.52994e-07
2.52785e-06
-1.93966e-07
2.47699e-06
1.55902e-07
2.52564e-06
-1.71744e-07
2.50806e-06
-1.54184e-08
2.51389e-06
1.58024e-08
2.56075e-06
-3.50335e-07
2.53506e-06
2.12153e-07
2.62671e-06
-6.69617e-07
2.59341e-06
3.03581e-07
2.78081e-06
-1.11408e-06
2.61538e-06
6.91986e-07
-1.84148e-06
2.94274e-06
2.49946e-06
-2.79809e-09
2.49886e-06
9.87094e-09
2.50345e-06
-2.55404e-08
2.49448e-06
4.29321e-08
2.51158e-06
-7.81833e-08
2.4864e-06
1.12025e-07
2.52235e-06
-1.64413e-07
2.47449e-06
2.00851e-07
2.53165e-06
-2.51123e-07
2.46826e-06
2.19288e-07
2.52954e-06
-2.33023e-07
2.48964e-06
2.4483e-08
2.51251e-06
-7.07233e-09
2.54098e-06
-3.78797e-07
2.51814e-06
2.34992e-07
2.60938e-06
-7.60863e-07
2.56044e-06
3.52526e-07
2.76135e-06
-1.31499e-06
2.56563e-06
8.87705e-07
-2.14905e-06
2.8732e-06
2.50286e-06
-5.65398e-09
2.49732e-06
1.54027e-08
2.50592e-06
-3.41352e-08
2.49402e-06
5.48289e-08
2.51265e-06
-9.68066e-08
2.48708e-06
1.37593e-07
2.52395e-06
-2.01284e-07
2.4736e-06
2.51205e-07
2.53564e-06
-3.13168e-07
2.46156e-06
2.93371e-07
2.53211e-06
-3.03575e-07
2.47813e-06
7.8462e-08
2.50472e-06
-3.36633e-08
2.52578e-06
-3.99856e-07
2.49882e-06
2.61949e-07
2.58766e-06
-8.49695e-07
2.52198e-06
4.18203e-07
2.70303e-06
-1.49604e-06
2.56888e-06
1.02186e-06
-2.37005e-06
2.78988e-06
2.49894e-06
-4.59848e-09
2.49884e-06
1.55063e-08
2.50316e-06
-3.84509e-08
2.49563e-06
6.23527e-08
2.51197e-06
-1.13143e-07
2.48785e-06
1.6171e-07
2.52642e-06
-2.39852e-07
2.47236e-06
3.05268e-07
2.54113e-06
-3.81937e-07
2.45599e-06
3.78508e-07
2.53471e-06
-3.823e-07
2.47196e-06
1.41216e-07
2.4893e-06
-5.09985e-08
2.52777e-06
-4.38331e-07
2.45719e-06
3.32527e-07
2.56927e-06
-9.6177e-07
2.50605e-06
4.81418e-07
2.59699e-06
-1.58698e-06
2.6366e-06
9.82251e-07
-2.43876e-06
2.7053e-06
2.50292e-06
-7.51541e-09
2.49788e-06
2.05389e-08
2.50555e-06
-4.61161e-08
2.49584e-06
7.20582e-08
2.51239e-06
-1.29688e-07
2.49067e-06
1.8343e-07
2.5277e-06
-2.76884e-07
2.4753e-06
3.57668e-07
2.54822e-06
-4.54852e-07
2.45375e-06
4.72976e-07
2.54071e-06
-4.69264e-07
2.47179e-06
2.10137e-07
2.47066e-06
-4.98659e-08
2.54406e-06
-5.11738e-07
2.40768e-06
4.68913e-07
2.54337e-06
-1.09746e-06
2.49342e-06
5.31362e-07
2.43385e-06
-1.52741e-06
2.69966e-06
7.16444e-07
-2.30994e-06
2.57084e-06
2.49811e-06
-5.62316e-09
2.50003e-06
1.86156e-08
2.5013e-06
-4.73836e-08
2.49874e-06
7.46207e-08
2.51019e-06
-1.41139e-07
2.49303e-06
2.00586e-07
2.52977e-06
-3.13626e-07
2.47855e-06
4.08892e-07
2.55698e-06
-5.33281e-07
2.45874e-06
5.71215e-07
2.55092e-06
-5.61451e-07
2.48439e-06
2.76672e-07
2.4575e-06
-2.29813e-08
2.56814e-06
-6.22375e-07
2.37165e-06
6.65402e-07
2.51339e-06
-1.23919e-06
2.48403e-06
5.60714e-07
2.30291e-06
-1.34628e-06
2.68744e-06
3.31914e-07
-2.05688e-06
2.43438e-06
2.50226e-06
-7.88453e-09
2.49882e-06
2.20602e-08
2.50383e-06
-5.23956e-08
2.49889e-06
7.95567e-08
2.50908e-06
-1.51325e-07
2.49883e-06
2.10835e-07
2.5272e-06
-3.41999e-07
2.49151e-06
4.44588e-07
2.56363e-06
-6.05407e-07
2.47932e-06
6.55532e-07
2.56976e-06
-6.519e-07
2.51424e-06
3.322e-07
2.46943e-06
2.18204e-08
2.59155e-06
-7.44489e-07
2.36443e-06
8.92516e-07
2.47345e-06
-1.34821e-06
2.47224e-06
5.61925e-07
2.2207e-06
-1.09475e-06
2.58392e-06
-3.13107e-08
-1.79727e-06
2.32431e-06
2.49696e-06
-4.84383e-09
2.50221e-06
1.68074e-08
2.49764e-06
-4.78187e-08
2.5036e-06
7.35888e-08
2.50343e-06
-1.51154e-07
2.50357e-06
2.10699e-07
2.52279e-06
-3.6122e-07
2.50626e-06
4.61112e-07
2.56317e-06
-6.62308e-07
2.52008e-06
6.9862e-07
2.59049e-06
-7.22315e-07
2.5662e-06
3.56489e-07
2.50841e-06
7.96146e-08
2.6022e-06
-8.38277e-07
2.39161e-06
1.10311e-06
2.44039e-06
-1.39699e-06
2.45193e-06
5.50382e-07
2.20023e-06
-8.43045e-07
2.47391e-06
-3.0499e-07
-1.61985e-06
2.29649e-06
2.50122e-06
-6.06697e-09
2.49974e-06
1.82923e-08
2.50036e-06
-4.84369e-08
2.50301e-06
7.09367e-08
2.49837e-06
-1.46518e-07
2.51342e-06
1.95651e-07
2.50428e-06
-3.52082e-07
2.5324e-06
4.33e-07
2.5381e-06
-6.68013e-07
2.56567e-06
6.71055e-07
2.58649e-06
-7.43138e-07
2.60243e-06
3.40544e-07
2.55506e-06
1.26985e-07
2.57825e-06
-8.61466e-07
2.43604e-06
1.24532e-06
2.4015e-06
-1.36245e-06
2.42279e-06
5.29098e-07
2.20161e-06
-6.21869e-07
2.34557e-06
-4.48951e-07
-1.4952e-06
2.22093e-06
2.49608e-06
-2.14728e-09
2.50532e-06
9.04776e-09
2.49162e-06
-3.47342e-08
2.51066e-06
5.18966e-08
2.48668e-06
-1.22536e-07
2.51862e-06
1.6371e-07
2.48362e-06
-3.17081e-07
2.54359e-06
3.73032e-07
2.48761e-06
-6.12038e-07
2.58388e-06
5.74787e-07
2.51847e-06
-6.77725e-07
2.57607e-06
2.82943e-07
2.54656e-06
1.56497e-07
2.49086e-06
-8.0577e-07
2.4727e-06
1.26348e-06
2.36578e-06
-1.25553e-06
2.39071e-06
5.04164e-07
2.2599e-06
-4.91056e-07
2.27067e-06
-4.59724e-07
-1.51756e-06
2.29304e-06
2.50094e-06
-3.08373e-09
2.5001e-06
9.88293e-09
2.49585e-06
-3.04787e-08
2.50754e-06
4.0201e-08
2.47831e-06
-9.33003e-08
2.52754e-06
1.14475e-07
2.44848e-06
-2.38015e-07
2.54804e-06
2.73471e-07
2.42265e-06
-4.86653e-07
2.54553e-06
4.51909e-07
2.41853e-06
-5.50727e-07
2.49047e-06
2.11008e-07
2.46152e-06
1.85441e-07
2.38676e-06
-7.31007e-07
2.50578e-06
1.14445e-06
2.32891e-06
-1.07866e-06
2.46654e-06
3.66534e-07
2.34237e-06
-3.6689e-07
2.2983e-06
-4.15647e-07
-1.52594e-06
2.30667e-06
2.49737e-06
-4.5782e-10
2.50898e-06
-1.72591e-09
2.48523e-06
-6.72356e-09
2.51841e-06
7.02139e-09
2.46693e-06
-4.18273e-08
2.52356e-06
5.78464e-08
2.44207e-06
-1.56518e-07
2.52694e-06
1.886e-07
2.39956e-06
-3.59281e-07
2.51597e-06
3.35499e-07
2.36382e-06
-3.98571e-07
2.43865e-06
1.36177e-07
2.42366e-06
2.00429e-07
2.33157e-06
-6.38921e-07
2.59946e-06
8.76564e-07
2.32898e-06
-8.08174e-07
2.55752e-06
1.37999e-07
2.46231e-06
-2.71683e-07
2.35069e-06
-3.04025e-07
-1.44626e-06
2.27101e-06
2.50483e-06
-5.28889e-09
2.49767e-06
5.43924e-09
2.49599e-06
-5.05239e-09
2.50827e-06
-5.25881e-09
2.46469e-06
1.75912e-09
2.53122e-06
-8.6868e-09
2.41498e-06
-4.02771e-08
2.52721e-06
7.63675e-08
2.38303e-06
-2.15099e-07
2.47374e-06
2.44788e-07
2.38877e-06
-3.13596e-07
2.40444e-06
1.20506e-07
2.4609e-06
1.4397e-07
2.33366e-06
-5.11679e-07
2.59113e-06
6.19089e-07
2.33481e-06
-5.51856e-07
2.45243e-06
2.03821e-08
2.39442e-06
-2.13674e-07
2.24398e-06
-1.53586e-07
-1.14171e-06
1.93943e-06
2.52006e-06
-2.53469e-08
2.50602e-06
1.94766e-08
2.4912e-06
9.76667e-09
2.52987e-06
-4.39256e-08
2.44568e-06
8.59487e-08
2.5414e-06
-1.0441e-07
2.4289e-06
7.22278e-08
2.49793e-06
7.33926e-09
2.43376e-06
-1.50936e-07
2.4625e-06
2.16046e-07
2.4108e-06
-2.61891e-07
2.43381e-06
9.74997e-08
2.47374e-06
1.04035e-07
2.28688e-06
-3.24817e-07
2.56996e-06
3.36008e-07
2.28848e-06
-2.7038e-07
2.34277e-06
-3.39074e-08
2.24395e-06
-1.14848e-07
2.22449e-06
-1.34136e-07
-7.12654e-07
1.79544e-06
2.47465e-06
2.49413e-06
2.5039e-06
2.45997e-06
2.54592e-06
2.44151e-06
2.51374e-06
2.52108e-06
2.37014e-06
2.58619e-06
2.3243e-06
2.4218e-06
2.52583e-06
2.20101e-06
2.53702e-06
2.26664e-06
2.23273e-06
2.11789e-06
1.98375e-06
1.2711e-06
2.9275e-06
6.91361e-08
3.24015e-06
-3.12658e-07
3.25558e-06
-1.54251e-08
3.6275e-06
-3.71926e-07
3.83821e-06
-2.10709e-07
4.08737e-06
-2.49158e-07
4.32253e-06
-2.35158e-07
-1.07166e-07
4.4297e-06
2.92876e-06
1.34657e-07
3.23329e-06
-6.17184e-07
3.24827e-06
-3.04115e-08
3.61404e-06
-7.37695e-07
3.84244e-06
-4.39104e-07
4.09063e-06
-4.97348e-07
4.3352e-06
-4.79732e-07
-2.10552e-07
4.43859e-06
2.91862e-06
2.13015e-07
3.23925e-06
-9.37813e-07
3.19332e-06
1.55135e-08
3.64593e-06
-1.1903e-06
3.76294e-06
-5.56112e-07
4.17595e-06
-9.10359e-07
4.25563e-06
-5.59416e-07
-4.5397e-07
4.49905e-06
2.91681e-06
2.89404e-07
3.21718e-06
-1.23819e-06
3.17493e-06
5.77695e-08
3.59911e-06
-1.61449e-06
3.79099e-06
-7.47992e-07
4.17027e-06
-1.28964e-06
4.296e-06
-6.85142e-07
-6.73546e-07
4.51557e-06
2.88555e-06
3.8801e-07
3.171e-06
-1.52364e-06
3.09261e-06
1.36167e-07
3.55079e-06
-2.07267e-06
3.73476e-06
-9.31961e-07
4.15804e-06
-1.71292e-06
4.29609e-06
-8.23192e-07
-8.68144e-07
4.49069e-06
2.84797e-06
4.82776e-07
3.0792e-06
-1.75487e-06
3.02391e-06
1.91453e-07
3.47637e-06
-2.52513e-06
3.69404e-06
-1.14963e-06
4.12666e-06
-2.14555e-06
4.25604e-06
-9.52575e-07
-1.14155e-06
4.52945e-06
2.82837e-06
5.27607e-07
2.99972e-06
-1.92622e-06
2.98074e-06
2.10433e-07
3.47702e-06
-3.02141e-06
3.66067e-06
-1.33327e-06
4.0919e-06
-2.57678e-06
4.25403e-06
-1.1147e-06
-1.40761e-06
4.52008e-06
2.87182e-06
4.4567e-07
3.02333e-06
-2.07773e-06
3.00971e-06
2.24054e-07
3.54148e-06
-3.55318e-06
3.6797e-06
-1.47148e-06
4.16852e-06
-3.0656e-06
4.28484e-06
-1.23102e-06
-1.72733e-06
4.60457e-06
2.88685e-06
2.64124e-07
3.15197e-06
-2.34285e-06
2.99623e-06
3.79796e-07
3.50534e-06
-4.0623e-06
3.63153e-06
-1.59768e-06
4.18789e-06
-3.62195e-06
4.3585e-06
-1.40164e-06
-2.04317e-06
4.67434e-06
2.74232e-06
9.26442e-08
3.23293e-06
-2.83346e-06
2.94836e-06
6.64362e-07
3.37697e-06
-4.49091e-06
3.47066e-06
-1.69137e-06
3.98986e-06
-4.14115e-06
4.27693e-06
-1.68871e-06
-2.49812e-06
4.73187e-06
2.50347e-06
2.35598e-08
3.08237e-06
-3.41236e-06
2.94458e-06
8.02156e-07
3.40405e-06
-4.95038e-06
3.32126e-06
-1.60857e-06
3.63731e-06
-4.45721e-06
4.0941e-06
-2.1455e-06
-3.27854e-06
4.87452e-06
2.36458e-06
-1.67071e-08
2.72151e-06
-3.7693e-06
2.93278e-06
5.90889e-07
3.49252e-06
-5.51013e-06
3.19902e-06
-1.31506e-06
3.56567e-06
-4.82386e-06
4.18702e-06
-2.76684e-06
-4.2857e-06
5.19418e-06
2.25559e-06
2.41909e-08
2.26337e-06
-3.77708e-06
2.68755e-06
1.66706e-07
3.17579e-06
-5.99837e-06
2.94374e-06
-1.08301e-06
3.86774e-06
-5.74787e-06
4.68149e-06
-3.58059e-06
-5.04528e-06
5.44107e-06
2.11199e-06
1.33131e-07
2.06588e-06
-3.73097e-06
2.64407e-06
-4.11486e-07
2.87514e-06
-6.22944e-06
3.11024e-06
-1.31811e-06
4.5004e-06
-7.13803e-06
4.9918e-06
-4.07198e-06
-5.48579e-06
5.4323e-06
2.20026e-06
2.25903e-07
2.36745e-06
-3.89815e-06
3.18285e-06
-1.22689e-06
3.22635e-06
-6.27293e-06
4.00773e-06
-2.09949e-06
5.20198e-06
-8.33227e-06
4.96621e-06
-3.83622e-06
-6.22851e-06
5.70894e-06
2.50067e-06
3.19009e-08
2.76665e-06
-4.16412e-06
3.41574e-06
-1.87598e-06
3.4544e-06
-6.31159e-06
4.47624e-06
-3.12134e-06
4.98465e-06
-8.84068e-06
4.80932e-06
-3.66089e-06
-8.17024e-06
6.75105e-06
2.32916e-06
-2.62484e-08
2.46212e-06
-4.29708e-06
2.93713e-06
-2.351e-06
3.2419e-06
-6.61636e-06
4.2732e-06
-4.15264e-06
3.93781e-06
-8.5053e-06
4.71778e-06
-4.44086e-06
-1.12039e-05
7.75146e-06
1.89857e-06
1.46133e-08
2.22286e-06
-4.62137e-06
2.98863e-06
-3.11677e-06
3.20003e-06
-6.82776e-06
3.90272e-06
-4.85533e-06
3.44601e-06
-8.04858e-06
5.06041e-06
-6.05525e-06
-1.35115e-05
7.36803e-06
1.72479e-06
8.52635e-08
2.45253e-06
-5.34911e-06
3.21358e-06
-3.87782e-06
3.11648e-06
-6.73066e-06
3.36781e-06
-5.10665e-06
3.52984e-06
-8.21061e-06
5.03822e-06
-7.56364e-06
-1.36782e-05
5.20488e-06
1.80287e-06
-4.46511e-07
2.50931e-06
-6.05554e-06
2.77326e-06
-4.14178e-06
2.83855e-06
-6.79595e-06
3.12132e-06
-5.38943e-06
3.18023e-06
-8.26952e-06
3.38304e-06
-7.76645e-06
8.39666e-07
-1.11348e-05
4.60552e-06
-1.75827e-07
4.80112e-06
-1.95597e-07
4.86376e-06
-6.26446e-08
5.18968e-06
-3.25911e-07
5.13967e-06
5.00039e-08
5.38752e-06
-2.47852e-07
5.4039e-06
-1.63767e-08
5.4427e-06
-3.87993e-08
5.58168e-06
-1.3898e-07
5.50589e-06
7.5792e-08
5.68528e-06
-1.79388e-07
5.38194e-06
3.03335e-07
5.83588e-06
-4.5394e-07
5.18032e-06
6.55564e-07
5.55163e-06
-3.71314e-07
5.67535e-06
-1.2372e-07
4.73962e-06
9.35729e-07
6.0795e-06
-1.33988e-06
4.95751e-06
1.12199e-06
5.22893e-06
-2.71411e-07
5.64977e-06
-4.20847e-07
5.25642e-06
3.93353e-07
5.30418e-06
-4.7764e-08
5.51861e-06
-2.14431e-07
5.97496e-06
-4.56345e-07
5.56493e-06
4.10032e-07
6.57545e-06
-1.01052e-06
-7.44804e-07
7.32025e-06
4.62512e-06
-3.6236e-07
4.77771e-06
-3.48184e-07
4.90733e-06
-1.92266e-07
5.12287e-06
-5.41457e-07
5.18409e-06
-1.12101e-08
5.36758e-06
-4.31343e-07
5.33942e-06
1.17803e-08
5.55724e-06
-2.56621e-07
5.40519e-06
1.3076e-08
5.68266e-06
-2.01686e-07
5.45958e-06
4.36911e-08
5.65189e-06
1.11032e-07
5.47955e-06
-2.81598e-07
5.59671e-06
5.38395e-07
5.55141e-06
-3.26013e-07
5.34981e-06
7.78859e-08
5.66426e-06
6.21272e-07
5.12322e-06
-7.98834e-07
5.41651e-06
8.287e-07
5.40455e-06
-2.59454e-07
5.19618e-06
-2.12475e-07
5.26532e-06
3.24207e-07
5.31845e-06
-1.00886e-07
5.46606e-06
-3.62046e-07
5.25534e-06
-2.45623e-07
5.72987e-06
-6.45029e-08
5.6603e-06
-9.40947e-07
-1.28468e-06
6.20018e-06
4.59909e-06
-4.62399e-07
4.75343e-06
-5.02526e-07
4.95291e-06
-3.91748e-07
5.05654e-06
-6.45085e-07
5.24009e-06
-1.94756e-07
5.29951e-06
-4.90765e-07
5.39296e-06
-8.16658e-08
5.44693e-06
-3.1059e-07
5.50622e-06
-4.62228e-08
5.5586e-06
-2.54056e-07
5.51562e-06
8.6667e-08
5.61745e-06
9.20456e-09
5.37116e-06
-3.53096e-08
5.55318e-06
3.56369e-07
5.25221e-06
-2.50382e-08
5.34178e-06
-1.16828e-08
5.35308e-06
6.09968e-07
5.05552e-06
-5.01276e-07
5.41725e-06
4.6697e-07
5.07479e-06
8.30076e-08
5.12614e-06
-2.63819e-07
5.40443e-06
4.59115e-08
5.17412e-06
1.29422e-07
5.11887e-06
-3.06791e-07
5.60769e-06
-7.34444e-07
5.49637e-06
4.6819e-08
5.75623e-06
-1.20081e-06
-1.70746e-06
6.179e-06
4.57825e-06
-5.25079e-07
4.79518e-06
-7.19454e-07
4.89173e-06
-4.88297e-07
5.11164e-06
-8.65e-07
5.21278e-06
-2.95895e-07
5.34823e-06
-6.26214e-07
5.38224e-06
-1.15679e-07
5.49325e-06
-4.21594e-07
5.52253e-06
-7.55059e-08
5.60031e-06
-3.31833e-07
5.60893e-06
7.80407e-08
5.6016e-06
1.65414e-08
5.53697e-06
2.93206e-08
5.51755e-06
3.75785e-07
5.46436e-06
2.81537e-08
5.34237e-06
1.1031e-07
5.52358e-06
4.28751e-07
5.29062e-06
-2.68313e-07
5.42316e-06
3.3443e-07
5.46603e-06
4.01398e-08
5.28323e-06
-8.10213e-08
5.31885e-06
1.02964e-08
5.56875e-06
-1.20477e-07
5.40826e-06
-1.46309e-07
5.35258e-06
-6.78758e-07
5.73868e-06
-3.39282e-07
5.77836e-06
-1.24049e-06
-1.68832e-06
5.75922e-06
4.64158e-06
-6.75972e-07
4.72104e-06
-7.98908e-07
4.93197e-06
-6.99229e-07
5.01472e-06
-9.47755e-07
5.21985e-06
-5.01024e-07
5.29032e-06
-6.96678e-07
5.38651e-06
-2.11869e-07
5.46758e-06
-5.02666e-07
5.53228e-06
-1.40212e-07
5.61041e-06
-4.09956e-07
5.59694e-06
9.15113e-08
5.65191e-06
-3.84353e-08
5.50225e-06
1.78988e-07
5.57538e-06
3.02652e-07
5.42244e-06
1.81089e-07
5.38325e-06
1.49502e-07
5.45838e-06
3.53617e-07
5.27276e-06
-8.26894e-08
5.31662e-06
2.90569e-07
5.37476e-06
-1.79965e-08
5.25414e-06
3.95946e-08
5.32496e-06
-6.05182e-08
5.31361e-06
-1.09135e-07
5.43623e-06
-2.68925e-07
5.34979e-06
-5.9232e-07
5.48671e-06
-4.76196e-07
5.34528e-06
-1.09906e-06
-1.91045e-06
5.56741e-06
4.62008e-06
-7.66605e-07
4.75701e-06
-9.35839e-07
4.83486e-06
-7.7708e-07
4.9211e-06
-1.03399e-06
5.11516e-06
-6.95088e-07
5.16853e-06
-7.50049e-07
5.31909e-06
-3.62432e-07
5.37211e-06
-5.55682e-07
5.53145e-06
-2.99555e-07
5.5668e-06
-4.45303e-07
5.6381e-06
2.0209e-08
5.5877e-06
1.19687e-08
5.51636e-06
2.50323e-07
5.4915e-06
3.27514e-07
5.4024e-06
2.70189e-07
5.34564e-06
2.06261e-07
5.36292e-06
3.36342e-07
5.24845e-06
3.17747e-08
5.32994e-06
2.09078e-07
5.19321e-06
1.18741e-07
5.23073e-06
2.06507e-09
5.24714e-06
-7.69228e-08
5.18803e-06
-5.00292e-08
5.17935e-06
-2.60245e-07
5.20866e-06
-6.21631e-07
5.44661e-06
-7.14142e-07
5.06866e-06
-7.21102e-07
-2.04292e-06
5.20112e-06
4.71419e-06
-9.60716e-07
4.7947e-06
-1.01635e-06
4.79321e-06
-7.75591e-07
4.8392e-06
-1.07997e-06
4.92034e-06
-7.76232e-07
5.06211e-06
-8.91823e-07
5.16581e-06
-4.66124e-07
5.31544e-06
-7.05314e-07
5.47556e-06
-4.59672e-07
5.56597e-06
-5.35711e-07
5.63545e-06
-4.92782e-08
5.59816e-06
4.92587e-08
5.53524e-06
3.13244e-07
5.47477e-06
3.87991e-07
5.40341e-06
3.4154e-07
5.33736e-06
2.72313e-07
5.34546e-06
3.28246e-07
5.25016e-06
1.27074e-07
5.21049e-06
2.48743e-07
5.31926e-06
9.97922e-09
5.11258e-06
2.08743e-07
5.1862e-06
-1.50545e-07
5.27242e-06
-1.36251e-07
5.20593e-06
-1.93752e-07
5.10537e-06
-5.21075e-07
5.18398e-06
-7.92745e-07
5.34453e-06
-8.81659e-07
-1.68987e-06
4.99148e-06
4.84566e-06
-1.20181e-06
4.97665e-06
-1.14733e-06
4.96981e-06
-7.68752e-07
4.8632e-06
-9.73368e-07
4.91843e-06
-8.31455e-07
4.94216e-06
-9.15558e-07
5.05128e-06
-5.75239e-07
5.22681e-06
-8.80843e-07
5.38526e-06
-6.18126e-07
5.62864e-06
-7.79095e-07
5.62847e-06
-4.91058e-08
5.68256e-06
-4.83417e-09
5.52344e-06
4.72364e-07
5.50048e-06
4.10951e-07
5.40367e-06
4.38355e-07
5.33105e-06
3.44932e-07
5.34178e-06
3.17514e-07
5.29111e-06
1.77746e-07
5.26212e-06
2.77734e-07
5.19699e-06
7.51032e-08
5.28668e-06
1.19054e-07
5.1539e-06
-1.77635e-08
5.13791e-06
-1.20257e-07
5.20866e-06
-2.64506e-07
5.20698e-06
-5.19398e-07
5.13948e-06
-7.25245e-07
5.05021e-06
-7.92386e-07
-1.49807e-06
4.85841e-06
5.01447e-06
-1.54194e-06
5.32446e-06
-1.45732e-06
5.37458e-06
-8.18867e-07
5.29028e-06
-8.89074e-07
5.16523e-06
-7.06408e-07
5.09533e-06
-8.45649e-07
5.11662e-06
-5.96535e-07
5.14655e-06
-9.10773e-07
5.38006e-06
-8.51636e-07
5.49083e-06
-8.89861e-07
5.63498e-06
-1.93256e-07
5.59484e-06
3.53086e-08
5.51716e-06
5.50037e-07
5.46214e-06
4.65971e-07
5.31936e-06
5.8114e-07
5.38614e-06
2.78148e-07
5.22263e-06
4.81025e-07
5.31602e-06
8.43576e-08
5.19875e-06
3.95006e-07
5.25327e-06
2.05793e-08
5.1241e-06
2.4823e-07
5.18525e-06
-7.89152e-08
5.19882e-06
-1.3383e-07
5.0822e-06
-1.47882e-07
5.03471e-06
-4.7191e-07
5.08761e-06
-7.78145e-07
5.16179e-06
-8.66569e-07
-1.14831e-06
4.81203e-06
5.16579e-06
-1.97586e-06
5.61192e-06
-1.90346e-06
5.85925e-06
-1.0662e-06
5.82524e-06
-8.55062e-07
5.63982e-06
-5.20992e-07
5.48502e-06
-6.90851e-07
5.33457e-06
-4.46086e-07
5.27928e-06
-8.55478e-07
5.34638e-06
-9.18741e-07
5.50601e-06
-1.04948e-06
5.6022e-06
-2.89446e-07
5.56929e-06
6.82153e-08
5.50859e-06
6.10733e-07
5.37759e-06
5.9698e-07
5.35642e-06
6.02304e-07
5.24921e-06
3.85362e-07
5.30919e-06
4.21045e-07
5.2175e-06
1.76042e-07
5.2177e-06
3.9481e-07
5.16019e-06
7.80916e-08
5.17748e-06
2.3094e-07
5.07408e-06
2.44825e-08
5.01615e-06
-7.59052e-08
5.1797e-06
-3.1143e-07
4.99445e-06
-2.86658e-07
4.85868e-06
-6.42372e-07
4.83587e-06
-8.43761e-07
-1.3332e-06
5.02077e-06
5.45712e-06
-2.55845e-06
5.84899e-06
-2.29532e-06
6.07807e-06
-1.29528e-06
6.1032e-06
-8.80197e-07
5.90161e-06
-3.19398e-07
5.7263e-06
-5.15539e-07
5.53027e-06
-2.50057e-07
5.32508e-06
-6.50292e-07
5.30661e-06
-9.00273e-07
5.35948e-06
-1.10235e-06
5.45748e-06
-3.87449e-07
5.46481e-06
6.08859e-08
5.37412e-06
7.01426e-07
5.31865e-06
6.52445e-07
5.24718e-06
6.73777e-07
5.25333e-06
3.79214e-07
5.24374e-06
4.30634e-07
5.21082e-06
2.0896e-07
5.23376e-06
3.71874e-07
5.11301e-06
1.98839e-07
5.11657e-06
2.27375e-07
5.10528e-06
3.5776e-08
5.02701e-06
2.36483e-09
4.9432e-06
-2.27619e-07
5.01432e-06
-3.57781e-07
5.01316e-06
-6.41213e-07
4.66258e-06
-4.93183e-07
-1.2193e-06
4.54868e-06
5.87188e-06
-3.23615e-06
6.10353e-06
-2.52698e-06
6.13617e-06
-1.32791e-06
6.06153e-06
-8.05559e-07
5.81362e-06
-7.14879e-08
5.72082e-06
-4.22737e-07
5.52078e-06
-5.00211e-08
5.32559e-06
-4.55101e-07
5.1941e-06
-7.68784e-07
5.18491e-06
-1.09316e-06
5.25104e-06
-4.53577e-07
5.23987e-06
7.20509e-08
5.20392e-06
7.37378e-07
5.16019e-06
6.96172e-07
5.13602e-06
6.97947e-07
5.17818e-06
3.37058e-07
5.17853e-06
4.30282e-07
5.18804e-06
1.9945e-07
5.14352e-06
4.16398e-07
5.11725e-06
2.25111e-07
5.0666e-06
2.78024e-07
4.98199e-06
1.20381e-07
5.03221e-06
-4.78552e-08
4.95605e-06
-1.51459e-07
4.83715e-06
-2.38881e-07
4.8402e-06
-6.44259e-07
4.89394e-06
-5.46923e-07
-8.21808e-07
4.49644e-06
6.07884e-06
-3.87391e-06
6.26683e-06
-2.71497e-06
6.1387e-06
-1.19979e-06
5.96628e-06
-6.33139e-07
5.66047e-06
2.34322e-07
5.58381e-06
-3.46074e-07
5.41122e-06
1.22573e-07
5.23269e-06
-2.7658e-07
5.04451e-06
-5.80597e-07
4.94829e-06
-9.96941e-07
4.99525e-06
-5.00537e-07
5.0089e-06
5.84046e-08
4.99944e-06
7.46835e-07
4.98329e-06
7.12323e-07
5.03257e-06
6.48663e-07
5.06295e-06
3.06682e-07
5.14193e-06
3.51302e-07
5.14154e-06
1.99835e-07
5.12909e-06
4.28847e-07
5.098e-06
2.56203e-07
5.02509e-06
3.50938e-07
5.03808e-06
1.07388e-07
4.90515e-06
8.50738e-08
4.96989e-06
-2.16193e-07
4.91872e-06
-1.87714e-07
4.75031e-06
-4.7585e-07
4.73478e-06
-5.31388e-07
-7.96888e-07
4.70986e-06
6.25865e-06
-4.70027e-06
6.53575e-06
-2.99206e-06
6.46365e-06
-1.12769e-06
6.28071e-06
-4.50206e-07
5.8795e-06
6.35536e-07
5.78487e-06
-2.51441e-07
5.59776e-06
3.0968e-07
5.44168e-06
-1.205e-07
5.10804e-06
-2.46961e-07
4.82368e-06
-7.12578e-07
4.71623e-06
-3.93087e-07
4.69782e-06
7.6821e-08
4.75934e-06
6.85307e-07
4.82815e-06
6.43513e-07
4.90452e-06
5.72302e-07
4.95871e-06
2.52485e-07
4.99713e-06
3.12881e-07
4.97272e-06
2.24244e-07
4.99797e-06
4.03602e-07
4.92969e-06
3.2448e-07
4.95324e-06
3.27385e-07
4.90565e-06
1.54987e-07
4.91685e-06
7.38691e-08
4.836e-06
-1.35346e-07
4.82984e-06
-1.81554e-07
4.74529e-06
-3.91295e-07
4.61944e-06
-4.05538e-07
-6.4266e-07
4.46521e-06
7.19814e-06
-6.18947e-06
7.35421e-06
-3.14813e-06
7.25624e-06
-1.02972e-06
6.99443e-06
-1.88398e-07
6.51278e-06
1.11718e-06
6.29873e-06
-3.73922e-08
5.86741e-06
7.41001e-07
5.59089e-06
1.56016e-07
5.16483e-06
1.79107e-07
4.81072e-06
-3.58467e-07
4.64515e-06
-2.27524e-07
4.61937e-06
1.02599e-07
4.71443e-06
5.9025e-07
4.80307e-06
5.54872e-07
4.88327e-06
4.92101e-07
4.89537e-06
2.40385e-07
4.9014e-06
3.06858e-07
4.88137e-06
2.44272e-07
4.86165e-06
4.23325e-07
4.88213e-06
3.03994e-07
4.88352e-06
3.25997e-07
4.90076e-06
1.37747e-07
4.92104e-06
5.35846e-08
4.8882e-06
-1.02504e-07
4.85001e-06
-1.43366e-07
4.78066e-06
-3.21944e-07
4.67867e-06
-3.03543e-07
-4.93441e-07
4.52945e-06
8.46891e-06
-7.90733e-06
8.36276e-06
-3.04198e-06
8.12995e-06
-7.96914e-07
7.61118e-06
3.30381e-07
7.00809e-06
1.72027e-06
6.69799e-06
2.72713e-07
6.10704e-06
1.33195e-06
5.78446e-06
4.78595e-07
5.2922e-06
6.71363e-07
4.86091e-06
7.28282e-08
4.56474e-06
6.86425e-08
4.48214e-06
1.85203e-07
4.57099e-06
5.0139e-07
4.64712e-06
4.78746e-07
4.67049e-06
4.68735e-07
4.62311e-06
2.87765e-07
4.60263e-06
3.27337e-07
4.59727e-06
2.49633e-07
4.69229e-06
3.28299e-07
4.76526e-06
2.31026e-07
4.87266e-06
2.18597e-07
4.90811e-06
1.02301e-07
4.88353e-06
7.81634e-08
4.83911e-06
-5.80832e-08
4.74915e-06
-5.34121e-08
4.62655e-06
-1.99345e-07
4.54018e-06
-2.1717e-07
-3.47897e-07
4.39464e-06
8.60192e-06
-8.75779e-06
7.82625e-06
-2.26631e-06
7.54427e-06
-5.14934e-07
6.99384e-06
8.80813e-07
6.5114e-06
2.20271e-06
6.22393e-06
5.60179e-07
5.71158e-06
1.8443e-06
5.47906e-06
7.1112e-07
5.15218e-06
9.98244e-07
4.86048e-06
3.64528e-07
4.5979e-06
3.31221e-07
4.48581e-06
2.97297e-07
4.55096e-06
4.3624e-07
4.62212e-06
4.07581e-07
4.65285e-06
4.38004e-07
4.60248e-06
3.38133e-07
4.57726e-06
3.5256e-07
4.59026e-06
2.36639e-07
4.68278e-06
2.35774e-07
4.80983e-06
1.03977e-07
4.93474e-06
9.36891e-08
5.01223e-06
2.48091e-08
5.05332e-06
3.70684e-08
4.99458e-06
6.59085e-10
4.92427e-06
1.69021e-08
4.79478e-06
-6.98582e-08
4.64352e-06
-6.59062e-08
-1.9316e-07
4.48878e-06
6.49802e-06
-7.88777e-06
5.54659e-06
-1.31488e-06
5.13766e-06
-1.06009e-07
4.76329e-06
1.25519e-06
4.51088e-06
2.45511e-06
4.35803e-06
7.13034e-07
4.22776e-06
1.97457e-06
4.18883e-06
7.50046e-07
4.19704e-06
9.90036e-07
4.18743e-06
3.74136e-07
4.1392e-06
3.79451e-07
4.13968e-06
2.96816e-07
4.22165e-06
3.54275e-07
4.30987e-06
3.19353e-07
4.40763e-06
3.40253e-07
4.47909e-06
2.66666e-07
4.57732e-06
2.54334e-07
4.65531e-06
1.58649e-07
4.75044e-06
1.40646e-07
4.78283e-06
7.15805e-08
4.8017e-06
7.48209e-08
4.77152e-06
5.4987e-08
4.72352e-06
8.50748e-08
4.65985e-06
6.43249e-08
4.58545e-06
9.13062e-08
4.48641e-06
2.91808e-08
4.40125e-06
1.92542e-08
-6.56271e-08
4.27372e-06
2.63314e-06
-5.31603e-06
1.43462e-07
1.17479e-06
-7.39102e-07
7.76555e-07
2.29079e-07
2.8701e-07
3.81705e-07
2.30248e-06
1.17756e-06
-8.28258e-08
2.08182e-06
1.07032e-06
2.49978e-06
3.32085e-07
3.03004e-06
4.59777e-07
3.31406e-06
9.0113e-08
3.53853e-06
1.54978e-07
3.70689e-06
1.28457e-07
3.87545e-06
1.85715e-07
4.00657e-06
1.88235e-07
4.14354e-06
2.03285e-07
4.23981e-06
1.70399e-07
4.32703e-06
1.67106e-07
4.35638e-06
1.29301e-07
4.36504e-06
1.31989e-07
4.33505e-06
1.01571e-07
4.30438e-06
1.05489e-07
4.26927e-06
9.00939e-08
4.25866e-06
9.56863e-08
4.24091e-06
8.20756e-08
4.24845e-06
8.37689e-08
4.2301e-06
4.75263e-08
4.21071e-06
3.86433e-08
-1.39224e-08
4.15901e-06
-4.47636e-06
-3.30157e-06
-2.52501e-06
-2.238e-06
6.44761e-08
-1.83497e-08
1.05197e-06
1.38405e-06
1.84383e-06
1.93394e-06
2.08892e-06
2.21738e-06
2.40309e-06
2.59133e-06
2.79461e-06
2.96501e-06
3.13212e-06
3.26142e-06
3.39341e-06
3.49498e-06
3.60047e-06
3.69056e-06
3.78625e-06
3.86832e-06
3.95209e-06
3.99962e-06
4.03826e-06
4.02434e-06
7.77856e-06
-5.28377e-06
4.82546e-06
6.65963e-06
-5.76372e-06
6.88265e-06
4.43361e-06
-4.85057e-06
7.0766e-06
3.39527e-06
-6.52366e-06
7.56199e-06
3.05618e-06
-7.08438e-06
7.42347e-06
2.06852e-06
-6.88697e-06
7.87463e-06
5.05404e-07
-5.11796e-06
6.68108e-06
-6.50025e-06
-1.51994e-06
8.5256e-06
4.79668e-06
-3.88027e-06
2.81266e-06
-3.77971e-06
3.67825e-06
-5.71616e-06
4.14773e-06
-6.99313e-06
3.26263e-06
-6.19928e-06
2.3333e-06
-5.95764e-06
1.85232e-06
-4.63698e-06
-5.12903e-06
4.81101e-07
5.16307e-06
-2.86434e-06
5.78782e-06
-4.40446e-06
6.24724e-06
-6.17558e-06
4.11821e-06
-4.8641e-06
2.57831e-06
-4.65938e-06
1.89187e-06
-5.2712e-06
1.25599e-06
-4.0011e-06
-4.17042e-06
2.97378e-07
5.52401e-06
-2.62913e-06
4.8235e-06
-3.70395e-06
2.18745e-06
-3.53954e-06
9.50022e-07
-3.62667e-06
2.13645e-06
-5.84581e-06
2.58773e-06
-5.72248e-06
2.26479e-06
-3.67816e-06
-3.47836e-06
1.57273e-06
5.35567e-06
-2.41739e-06
4.49347e-06
-2.84175e-06
5.1095e-06
-4.15557e-06
5.65976e-06
-4.17693e-06
4.63559e-06
-4.82164e-06
3.47409e-06
-4.56098e-06
2.22296e-06
-2.42703e-06
-2.53449e-06
1.27909e-06
4.73817e-06
-1.95443e-06
4.47762e-06
-2.5812e-06
4.11822e-06
-3.79616e-06
3.17675e-06
-3.23546e-06
1.70107e-06
-3.34596e-06
4.9599e-07
-3.3559e-06
4.02812e-07
-2.33385e-06
-3.18408e-06
1.0524e-06
5.02665e-06
-1.9896e-06
4.97528e-06
-2.52983e-06
3.6656e-06
-2.48649e-06
3.93589e-06
-3.50574e-06
4.34469e-06
-3.75475e-06
3.3366e-06
-2.34782e-06
3.07037e-06
-2.06762e-06
-2.66961e-06
2.5559e-06
4.79378e-06
-1.92496e-06
4.54302e-06
-2.27908e-06
3.93492e-06
-1.87839e-06
3.42423e-06
-2.99505e-06
2.98142e-06
-3.31194e-06
2.39645e-06
-1.76285e-06
2.56135e-06
-2.23252e-06
-2.58265e-06
2.47439e-06
4.31505e-06
-1.42799e-06
4.59275e-06
-2.55678e-06
4.55994e-06
-1.84557e-06
3.71657e-06
-2.15168e-06
2.97599e-06
-2.57136e-06
3.07667e-06
-1.86353e-06
3.13643e-06
-2.29227e-06
-1.69462e-06
2.2484e-06
4.62952e-06
-1.03674e-06
3.85964e-06
-1.7869e-06
3.97991e-06
-1.96584e-06
4.25549e-06
-2.42725e-06
3.09731e-06
-1.41318e-06
3.16644e-06
-1.93266e-06
2.90646e-06
-2.0323e-06
-3.46735e-07
1.55858e-06
4.81208e-06
-1.30015e-06
4.29766e-06
-1.27247e-06
3.89193e-06
-1.56012e-06
3.64572e-06
-2.18104e-06
3.41134e-06
-1.17881e-06
3.48588e-06
-2.0072e-06
2.70137e-06
-1.24779e-06
-3.22086e-07
2.67672e-06
4.33863e-06
-1.14233e-06
4.32237e-06
-1.25621e-06
4.16247e-06
-1.40022e-06
3.37872e-06
-1.39728e-06
3.46639e-06
-1.26648e-06
3.27709e-06
-1.8179e-06
2.46034e-06