/*--------------------------------*- C++ -*----------------------------------*\
| =========                 |                                                 |
| \\      /  F ield         | OpenFOAM: The Open Source CFD Toolbox           |
|  \\    /   O peration     | Version:  2.4.0                                 |
|   \\  /    A nd           | Web:      www.OpenFOAM.org                      |
|    \\/     M anipulation  |                                                 |
\*---------------------------------------------------------------------------*/
FoamFile
{
    version     2.0;
    format      ascii;
    class       volScalarField;
    location    "4.3";
    object      k;
}
// * * * * * * * * * * * * * * * * * * * * * * * * * * * * * * * * * * * * * //

dimensions      [0 2 -2 0 0 0 0];

internalField   nonuniform List<scalar> 
5625
(
0.0107771
0.00650387
0.00358813
0.00258941
0.00238468
0.00215911
0.00205656
0.00196415
0.00192265
0.0018918
0.00188687
0.00189201
0.00190965
0.00194427
0.00198747
0.00203722
0.00209603
0.00216206
0.00223486
0.00231443
0.0024006
0.00249276
0.00259026
0.00269247
0.00279877
0.00290857
0.00302145
0.0031372
0.00325551
0.00337424
0.00349385
0.00361387
0.00373409
0.00385404
0.00397333
0.00409156
0.00420838
0.00432342
0.00443633
0.00454681
0.00465459
0.00475945
0.00486095
0.00495865
0.00505253
0.00514238
0.00522806
0.0053094
0.00538617
0.00545854
0.00552943
0.00567988
0.00583871
0.00600081
0.00616699
0.00633732
0.00651404
0.00669566
0.00688785
0.00708463
0.00730046
0.00751673
0.00777067
0.00800688
0.00833204
0.00857002
0.00904732
0.00922518
0.00998452
0.010112
0.0111848
0.0113908
0.0127282
0.0135408
0.0174329
0.0102419
0.0126485
0.00962983
0.00679172
0.0054831
0.0046662
0.00426063
0.00397779
0.00382826
0.0037305
0.00369381
0.00369073
0.00371728
0.00376965
0.00384254
0.00393304
0.00404241
0.00416791
0.00430865
0.00446429
0.00463459
0.00481847
0.0050147
0.00522209
0.00543954
0.00566593
0.00590023
0.0061415
0.00639099
0.00664389
0.00690053
0.0071593
0.00742107
0.00768502
0.00795053
0.00821697
0.00848375
0.00875028
0.00901603
0.00928046
0.00954313
0.00980385
0.0100618
0.0103161
0.0105669
0.0108139
0.0110566
0.0112947
0.0115282
0.0117575
0.011983
0.0122221
0.0124587
0.0126926
0.0129235
0.0131532
0.0133802
0.0136096
0.013834
0.0140703
0.0142921
0.0145479
0.0147666
0.0150585
0.0152868
0.0156073
0.0159233
0.0161776
0.0167555
0.016886
0.0177611
0.0179316
0.0187978
0.0203857
0.020199
0.00987553
0.0140329
0.0126103
0.00978025
0.00778503
0.00649858
0.00581794
0.00536672
0.00511228
0.00494779
0.00486942
0.00484198
0.00486164
0.00491415
0.00499513
0.00510104
0.0052321
0.00538486
0.00555784
0.00575028
0.0059615
0.00619002
0.00643425
0.00669262
0.00696365
0.00724591
0.00753807
0.00783898
0.0081488
0.00846382
0.00878373
0.0091074
0.00943456
0.00976428
0.0100958
0.0104283
0.010761
0.0110933
0.0114245
0.0117538
0.0120807
0.0124049
0.0127254
0.0130417
0.0133534
0.0136603
0.0139619
0.0142579
0.0145482
0.0148328
0.0151123
0.0153976
0.0156791
0.0159563
0.0162287
0.0164986
0.0167636
0.0170307
0.0172897
0.0175626
0.0178152
0.0181094
0.0183538
0.0186909
0.0189357
0.0193194
0.0196317
0.0199911
0.0205307
0.0207977
0.0216392
0.0220327
0.0228389
0.0247735
0.0223628
0.009555
0.0140168
0.0141548
0.0121815
0.00986125
0.00817047
0.00720249
0.00656885
0.00619721
0.00595613
0.00582703
0.00576676
0.00576851
0.00581234
0.00589235
0.00600355
0.00614506
0.00631307
0.0065054
0.00672082
0.0069582
0.00721577
0.0074916
0.00778379
0.00809058
0.00841027
0.00874129
0.00908224
0.0094327
0.00978954
0.010152
0.0105189
0.0108896
0.011263
0.0116382
0.0120144
0.0123905
0.0127659
0.0131398
0.0135113
0.0138799
0.0142449
0.0146057
0.0149614
0.0153118
0.0156563
0.0159947
0.0163265
0.0166515
0.0169698
0.0172822
0.0175962
0.0179057
0.0182097
0.0185078
0.0188025
0.0190909
0.019381
0.0196616
0.0199564
0.0202295
0.0205458
0.0208098
0.0211722
0.0214339
0.0218558
0.0221705
0.0226073
0.0231135
0.0235103
0.0243002
0.0248918
0.0256863
0.0277488
0.0244335
0.00927129
0.0136069
0.0150603
0.013988
0.0118243
0.00983816
0.00858123
0.0077481
0.00724194
0.00691068
0.00671977
0.00661759
0.00659288
0.00662071
0.00669276
0.00680261
0.0069478
0.00712397
0.00732836
0.00755917
0.00781487
0.00809337
0.00839239
0.00870975
0.00904342
0.00939146
0.00975207
0.0101236
0.0105052
0.0108942
0.0112894
0.0116895
0.0120937
0.0125006
0.0129094
0.013319
0.0137284
0.0141368
0.0145432
0.0149469
0.015347
0.015743
0.016134
0.0165193
0.0168985
0.0172711
0.0176365
0.0179946
0.0183449
0.0186877
0.0190235
0.019358
0.0196869
0.0200096
0.0203253
0.0206366
0.0209409
0.0212459
0.021541
0.0218493
0.0221365
0.0224656
0.0227444
0.0231208
0.0233969
0.0238419
0.0241604
0.0246532
0.0251321
0.0256385
0.0263769
0.0271306
0.0279207
0.0300151
0.0262537
0.00901649
0.0128223
0.0154028
0.0152352
0.0136235
0.0115135
0.010001
0.00896039
0.008304
0.00786868
0.00760448
0.0074516
0.0073914
0.00739694
0.00745486
0.00755753
0.0077011
0.00788012
0.00809121
0.00833201
0.00860056
0.00889444
0.00921103
0.00954786
0.00990262
0.0102731
0.0106574
0.0110535
0.0114604
0.0118755
0.0122973
0.0127245
0.0131559
0.0135902
0.0140264
0.0144633
0.0148999
0.0153351
0.0157681
0.0161979
0.0166236
0.0170446
0.01746
0.0178691
0.0182713
0.0186661
0.019053
0.0194316
0.0198017
0.0201632
0.0205169
0.0208669
0.0212102
0.0215464
0.0218747
0.0221977
0.0225129
0.0228278
0.0231326
0.0234493
0.0237462
0.0240824
0.0243722
0.0247555
0.025044
0.0255022
0.0258259
0.0263587
0.026817
0.0274126
0.0281073
0.0289926
0.0297786
0.0318613
0.0278183
0.00878533
0.0119578
0.0152891
0.0160868
0.0151119
0.0131554
0.0114611
0.0102236
0.00940816
0.00885716
0.00850887
0.00829623
0.00819232
0.00816899
0.00820695
0.00829702
0.00843403
0.00861139
0.00882466
0.00907099
0.00934797
0.00965284
0.00998261
0.0103345
0.0107059
0.0110945
0.011498
0.0119143
0.012342
0.0127788
0.0132228
0.0136726
0.0141269
0.0145843
0.0150435
0.0155034
0.0159628
0.0164206
0.0168758
0.0173275
0.0177747
0.0182165
0.0186522
0.019081
0.0195022
0.0199152
0.0203196
0.0207148
0.0211007
0.0214772
0.0218448
0.0222066
0.0225607
0.0229068
0.0232441
0.0235751
0.0238977
0.0242189
0.0245301
0.0248515
0.0251547
0.0254941
0.0257919
0.0261774
0.0264761
0.0269406
0.0272702
0.0278311
0.0282747
0.0289415
0.0296016
0.0305935
0.031374
0.0334205
0.0291604
0.00857331
0.0110971
0.0148771
0.0165351
0.0162407
0.0147022
0.0129364
0.011536
0.0105632
0.00988909
0.00944759
0.00916656
0.00901199
0.00895239
0.00896515
0.00903755
0.00916326
0.00933472
0.00954612
0.00979396
0.0100755
0.0103875
0.0107267
0.0110899
0.0114744
0.0118774
0.0122964
0.0127293
0.0131744
0.0136292
0.0140919
0.0145608
0.0150344
0.0155113
0.0159901
0.0164695
0.0169483
0.0174253
0.0178995
0.0183697
0.0188351
0.0192946
0.0197474
0.0201927
0.0206297
0.0210579
0.0214766
0.0218854
0.022284
0.0226724
0.0230509
0.0234219
0.0237839
0.024137
0.0244805
0.0248168
0.025144
0.0254687
0.0257835
0.0261068
0.0264136
0.0267532
0.0270562
0.0274407
0.0277474
0.0282135
0.0285489
0.0291288
0.0295623
0.0302853
0.030919
0.0319966
0.03277
0.0347652
0.030317
0.00837725
0.0102994
0.0141531
0.0165468
0.0170555
0.0160419
0.0143856
0.0128819
0.0117674
0.0109691
0.0104282
0.0100716
0.00985991
0.00975708
0.00973955
0.00978937
0.0098993
0.0100607
0.0102664
0.0105121
0.0107945
0.0111102
0.0114554
0.0118267
0.0122208
0.012635
0.0130665
0.0135128
0.0139721
0.0144419
0.0149202
0.0154052
0.0158952
0.0163886
0.016884
0.0173801
0.0178754
0.0183688
0.0188591
0.0193451
0.0198258
0.0203003
0.0207675
0.0212266
0.0216768
0.0221174
0.0225479
0.0229677
0.0233765
0.0237742
0.0241611
0.0245388
0.0249066
0.0252645
0.0256119
0.0259511
0.0262805
0.0266065
0.0269224
0.0272454
0.0275533
0.0278908
0.0281967
0.0285776
0.0288901
0.0293543
0.0296949
0.0302866
0.0307137
0.0314802
0.0320946
0.0332401
0.0340049
0.0359392
0.03132
0.00819423
0.00966392
0.0132074
0.016286
0.0175675
0.0171038
0.0157603
0.0142345
0.0130101
0.0120954
0.0114533
0.0110159
0.0107415
0.0105899
0.0105365
0.0105593
0.0106492
0.0107964
0.0109928
0.0112328
0.0115128
0.0118289
0.0121769
0.0125531
0.012954
0.0133763
0.0138173
0.0142742
0.0147449
0.015227
0.0157181
0.0162164
0.0167201
0.0172274
0.0177368
0.0182469
0.0187562
0.0192635
0.0197673
0.0202666
0.0207603
0.0212472
0.0217264
0.0221969
0.022658
0.0231088
0.0235487
0.0239772
0.0243939
0.0247987
0.0251917
0.0255742
0.0259456
0.0263062
0.0266555
0.0269956
0.0273254
0.0276506
0.0279658
0.0282864
0.0285933
0.0289269
0.0292333
0.0296087
0.0299247
0.0303843
0.0307292
0.0313272
0.0317503
0.0325499
0.0331506
0.0343486
0.0351041
0.0369712
0.0321942
0.00802171
0.00914702
0.0121944
0.0156838
0.01772
0.0178867
0.0169857
0.0155579
0.0142728
0.0132602
0.0125207
0.0120006
0.0116593
0.0114549
0.0113602
0.0113519
0.0114176
0.011547
0.0117303
0.0119613
0.0122356
0.012549
0.0128969
0.0132751
0.0136798
0.0141076
0.0145553
0.0150201
0.0154996
0.0159913
0.0164927
0.0170017
0.0175166
0.0180353
0.0185564
0.0190781
0.0195989
0.0201176
0.0206327
0.021143
0.0216473
0.0221445
0.0226334
0.0231132
0.0235829
0.0240417
0.024489
0.0249241
0.0253466
0.0257564
0.0261535
0.0265389
0.0269121
0.0272736
0.0276229
0.0279622
0.0282905
0.0286133
0.0289257
0.0292424
0.0295464
0.0298744
0.0301793
0.0305476
0.030865
0.0313179
0.0316657
0.0322656
0.0326864
0.0335103
0.034102
0.0353387
0.0360849
0.037881
0.0329585
0.0078578
0.00872048
0.0112116
0.0148303
0.0175564
0.0184206
0.0179776
0.0168107
0.0155296
0.0144496
0.0136243
0.0130236
0.0126137
0.0123532
0.0122133
0.01217
0.0122079
0.0123159
0.0124828
0.0127015
0.012967
0.0132747
0.0136195
0.0139968
0.0144026
0.0148331
0.015285
0.0157551
0.0162409
0.0167397
0.0172489
0.0177664
0.01829
0.0188178
0.0193481
0.0198791
0.0204093
0.0209372
0.0214613
0.0219804
0.0224932
0.0229984
0.023495
0.0239819
0.0244581
0.0249229
0.0253755
0.0258153
0.0262417
0.0266546
0.027054
0.0274404
0.0278137
0.0281744
0.028522
0.0288589
0.029184
0.0295027
0.0298109
0.030122
0.0304215
0.0307425
0.0310438
0.0314038
0.0317203
0.0321649
0.0325143
0.0331125
0.0335319
0.0343729
0.0349592
0.0362223
0.0369601
0.0386829
0.0336273
0.00770106
0.00836362
0.0103081
0.0138321
0.0170891
0.0186538
0.0187237
0.0179339
0.0167484
0.0156444
0.014753
0.0140794
0.0136023
0.0132843
0.0130967
0.0130149
0.0130218
0.0131051
0.0132525
0.0134558
0.0137095
0.0140087
0.0143477
0.0147214
0.0151257
0.0155563
0.0160098
0.0164827
0.0169723
0.0174758
0.0179905
0.018514
0.0190441
0.0195787
0.0201159
0.020654
0.0211913
0.0217262
0.0222573
0.022783
0.0233021
0.0238133
0.0243155
0.0248075
0.0252884
0.0257572
0.0262131
0.0266556
0.0270841
0.0274983
0.027898
0.0282839
0.0286556
0.0290139
0.0293583
0.0296911
0.0300115
0.0303247
0.0306271
0.0309313
0.0312246
0.0315374
0.0318334
0.0321838
0.0324977
0.0329325
0.0332818
0.0338756
0.0342939
0.0351458
0.0357287
0.0370094
0.0377393
0.0393874
0.0342113
0.00755038
0.00806054
0.00954244
0.0127397
0.0163168
0.0185621
0.01925
0.0188519
0.0178926
0.0168196
0.0158917
0.0151588
0.0146199
0.0142454
0.0140091
0.0138866
0.0138599
0.0139158
0.0140408
0.0142259
0.014465
0.014753
0.0150835
0.0154511
0.0158512
0.0162794
0.016732
0.0172053
0.0176964
0.0182024
0.0187202
0.0192474
0.0197816
0.0203208
0.0208628
0.0214058
0.021948
0.0224878
0.0230235
0.0235538
0.0240772
0.0245924
0.0250981
0.0255932
0.0260767
0.0265476
0.0270051
0.0274484
0.0278771
0.0282908
0.0286892
0.0290728
0.0294415
0.0297958
0.0301355
0.0304629
0.0307772
0.0310835
0.0313787
0.0316746
0.0319603
0.0322637
0.0325528
0.0328926
0.0332018
0.0336259
0.0339734
0.0345604
0.0349777
0.0358352
0.0364155
0.037707
0.0384302
0.0400025
0.0347187
0.0074049
0.00779884
0.00892275
0.0116277
0.0153351
0.0181925
0.0195058
0.0195466
0.0189142
0.0179457
0.0170204
0.0162492
0.0156586
0.0152317
0.0149475
0.0147835
0.0147215
0.0147478
0.0148481
0.0150125
0.0152345
0.0155088
0.0158282
0.0161872
0.0165807
0.0170042
0.0174535
0.0179249
0.0184151
0.0189211
0.0194398
0.0199684
0.0205046
0.0210461
0.0215907
0.0221364
0.0226814
0.0232239
0.0237623
0.024295
0.0248206
0.0253377
0.025845
0.0263412
0.0268254
0.0272965
0.0277536
0.028196
0.0286231
0.0290345
0.02943
0.0298098
0.0301738
0.0305227
0.0308563
0.0311768
0.0314837
0.0317818
0.0320685
0.0323551
0.0326317
0.0329246
0.0332053
0.0335337
0.0338366
0.0342489
0.034593
0.0351712
0.0355872
0.0364458
0.0370236
0.0383208
0.0390386
0.0405344
0.0351558
0.00726391
0.007569
0.00841738
0.0105808
0.014214
0.0174958
0.0194518
0.0200354
0.0197462
0.0189893
0.0181147
0.017334
0.0167073
0.0162358
0.0159072
0.0157025
0.0156045
0.0156
0.0156737
0.0158154
0.0160181
0.0162764
0.0165825
0.0169305
0.0173151
0.0177315
0.0181753
0.0186424
0.0191295
0.0196333
0.0201506
0.0206785
0.0212145
0.0217561
0.022301
0.0228473
0.0233929
0.0239361
0.024475
0.0250081
0.0255338
0.0260508
0.0265576
0.027053
0.0275359
0.0280053
0.0284602
0.0288998
0.0293236
0.0297311
0.030122
0.0304964
0.0308543
0.0311963
0.0315225
0.0318348
0.032133
0.0324217
0.0326987
0.0329748
0.0332412
0.0335226
0.0337936
0.0341097
0.0344046
0.0348043
0.0351434
0.0357114
0.0361254
0.0369814
0.0375565
0.0388548
0.0395699
0.0409878
0.0355277
0.00712675
0.00736379
0.00800159
0.00965271
0.0130167
0.0165579
0.0191333
0.0202708
0.0203742
0.0199051
0.0191466
0.0183928
0.0177517
0.0172477
0.0168809
0.0166386
0.0165054
0.0164697
0.0165162
0.0166335
0.016815
0.0170554
0.0173462
0.0176812
0.0180547
0.0184618
0.0188978
0.0193585
0.0198402
0.0203396
0.0208534
0.0213784
0.0219119
0.0224515
0.0229947
0.0235394
0.0240835
0.0246251
0.0251625
0.0256939
0.0262177
0.0267325
0.0272369
0.0277295
0.0282092
0.028675
0.0291258
0.0295609
0.0299797
0.0303815
0.0307662
0.0311337
0.031484
0.0318179
0.0321353
0.0324382
0.0327264
0.0330046
0.0332708
0.0335353
0.0337905
0.0340595
0.0343196
0.0346225
0.034908
0.0352944
0.035627
0.0361833
0.0365947
0.0374449
0.038017
0.0393127
0.0400279
0.0413664
0.0358384
0.0069928
0.00717769
0.00765556
0.00890169
0.0117828
0.0154334
0.0184853
0.0202179
0.0208004
0.0206393
0.0200851
0.0194016
0.0187741
0.0182544
0.0178594
0.0175848
0.0174193
0.0173531
0.0173727
0.0174645
0.0176237
0.0178446
0.0181184
0.0184385
0.018799
0.0191948
0.0196209
0.0200731
0.0205474
0.0210404
0.0215484
0.0220683
0.0225973
0.0231327
0.0236721
0.024213
0.0247535
0.0252916
0.0258253
0.0263529
0.0268727
0.0273834
0.0278833
0.0283712
0.0288458
0.029306
0.029751
0.0301798
0.0305917
0.0309863
0.0313632
0.0317223
0.0320637
0.032388
0.0326953
0.0329877
0.0332648
0.0335315
0.0337857
0.0340378
0.0342807
0.0345365
0.0347845
0.0350736
0.0353485
0.0357209
0.0360456
0.0365892
0.0369968
0.0378389
0.0384072
0.0396973
0.0404151
0.0416745
0.0360915
0.00686176
0.00700634
0.00736338
0.00829322
0.0106121
0.0141834
0.0175771
0.0199045
0.0209788
0.0211849
0.020884
0.0203332
0.0197535
0.0192403
0.0188308
0.0185323
0.0183391
0.0182447
0.0182389
0.0183054
0.0184414
0.018642
0.0188975
0.0192011
0.0195469
0.0199296
0.0203441
0.0207857
0.0212507
0.0217351
0.0222354
0.0227482
0.0232705
0.0237997
0.0243331
0.0248682
0.025403
0.0259354
0.0264633
0.0269851
0.027499
0.0280034
0.0284969
0.028978
0.0294456
0.0298985
0.0303358
0.0307565
0.03116
0.0315457
0.0319132
0.0322625
0.0325935
0.032907
0.033203
0.0334837
0.0337487
0.0340028
0.0342442
0.034483
0.0347126
0.0349545
0.0351895
0.0354641
0.0357273
0.0360851
0.0364005
0.0369305
0.0373333
0.0381652
0.0387293
0.0400111
0.0407333
0.0419157
0.0362902
0.00673337
0.00684648
0.00711257
0.00779882
0.00956409
0.0128754
0.0164567
0.0192673
0.02089
0.0215257
0.0215035
0.0211586
0.0206662
0.0201865
0.0197806
0.0194699
0.0192561
0.019138
0.0191086
0.0191518
0.0192645
0.0194445
0.0196809
0.0199669
0.0202967
0.0206647
0.0210658
0.0214953
0.0219489
0.0224229
0.0229135
0.0234172
0.023931
0.0244519
0.0249772
0.0255046
0.0260316
0.0265562
0.0270763
0.0275902
0.0280961
0.0285923
0.0290773
0.0295498
0.0300085
0.0304523
0.03088
0.0312909
0.0316842
0.0320595
0.0324161
0.0327541
0.0330735
0.033375
0.0336585
0.0339264
0.0341782
0.0344188
0.0346465
0.0348712
0.0350868
0.0353141
0.0355353
0.0357949
0.0360453
0.0363881
0.0366932
0.0372087
0.0376057
0.0384256
0.0389848
0.0402562
0.0409844
0.0420929
0.0364371
0.00660739
0.00669571
0.00689347
0.00739459
0.0087025
0.0115516
0.0151737
0.0183635
0.0205361
0.0216153
0.021946
0.0218289
0.0214854
0.0210716
0.0206918
0.0203838
0.0201595
0.0200241
0.0199747
0.0199981
0.020088
0.0202479
0.020465
0.0207328
0.0210456
0.0213978
0.0217841
0.0221998
0.0226406
0.0231025
0.0235816
0.0240744
0.0245776
0.0250882
0.0256036
0.0261211
0.0266384
0.0271532
0.0276636
0.0281676
0.0286634
0.0291494
0.0296241
0.0300861
0.030534
0.0309667
0.0313832
0.0317826
0.0321641
0.0325273
0.0328715
0.033197
0.0335033
0.0337916
0.0340616
0.0343156
0.0345534
0.0347797
0.0349929
0.0352028
0.0354037
0.0356157
0.0358224
0.0360666
0.0363034
0.0366306
0.0369244
0.0374248
0.0378151
0.0386214
0.0391753
0.0404344
0.04117
0.0422086
0.0365339
0.00648363
0.00655236
0.00669874
0.00706077
0.00801682
0.0102967
0.0137886
0.017231
0.0198684
0.0214586
0.0221722
0.0223299
0.022176
0.0218714
0.0215446
0.0212583
0.0210363
0.0208926
0.0208286
0.0208365
0.0209059
0.0210471
0.0212454
0.0214949
0.0217903
0.0221258
0.0224964
0.0228971
0.0233236
0.0237718
0.0242377
0.0247178
0.0252087
0.0257074
0.0262109
0.0267166
0.0272222
0.0277254
0.028224
0.0287161
0.0292
0.0296739
0.0301363
0.0305858
0.0310211
0.031441
0.0318445
0.0322307
0.0325989
0.0329485
0.033279
0.0335904
0.0338826
0.0341565
0.0344119
0.0346512
0.0348741
0.0350853
0.0352833
0.0354778
0.0356633
0.0358597
0.0360513
0.0362796
0.0365021
0.0368135
0.0370951
0.0375797
0.0379625
0.038754
0.0393021
0.0405472
0.0412913
0.0422641
0.0365797
0.0063619
0.00641502
0.00652265
0.00678128
0.00747003
0.0091827
0.0123709
0.0159145
0.0189351
0.0210224
0.0221503
0.0226409
0.0227071
0.022559
0.022317
0.022075
0.0218714
0.0217307
0.0216602
0.0216577
0.0217108
0.0218354
0.0220163
0.0222483
0.0225262
0.0228448
0.0231989
0.0235837
0.0239948
0.024428
0.0248795
0.0253454
0.0258223
0.0263072
0.0267972
0.0272894
0.0277814
0.028271
0.028756
0.0292344
0.0297044
0.0301644
0.0306127
0.0310479
0.0314688
0.0318742
0.032263
0.0326344
0.0329877
0.0333223
0.0336376
0.0339339
0.0342107
0.0344691
0.034709
0.0349327
0.0351398
0.0353352
0.0355174
0.035696
0.0358657
0.0360461
0.0362222
0.0364343
0.036642
0.0369372
0.0372058
0.037674
0.0380483
0.0388236
0.0393655
0.0405958
0.0413492
0.042263
0.0365826
0.00624204
0.00628239
0.00636088
0.0065434
0.00703178
0.00827534
0.0109691
0.0144682
0.0177652
0.0202877
0.0218932
0.0227241
0.0230669
0.0230993
0.0229849
0.0228133
0.0226475
0.0225241
0.0224571
0.0224509
0.0224939
0.0226052
0.022771
0.0229868
0.0232481
0.02355
0.0238874
0.0242558
0.0246507
0.025068
0.0255037
0.0259541
0.0264157
0.0268853
0.0273601
0.0278371
0.0283139
0.0287882
0.0292578
0.0297207
0.0301751
0.0306193
0.0310517
0.0314709
0.0318757
0.0322649
0.0326374
0.0329925
0.0333294
0.0336476
0.0339465
0.0342263
0.0344867
0.0347287
0.0349521
0.0351594
0.0353502
0.0355292
0.0356951
0.0358574
0.0360109
0.0361749
0.036335
0.0365304
0.0367227
0.0370012
0.0372565
0.0377085
0.038074
0.0388328
0.0393684
0.0405828
0.0413463
0.042206
0.0365403
0.00612392
0.00615359
0.00620995
0.00633702
0.00667737
0.00756463
0.00966879
0.0129584
0.0163984
0.0192898
0.0213382
0.0225767
0.0232176
0.02348
0.0235163
0.0234509
0.0233451
0.0232562
0.0232054
0.0232037
0.0232446
0.0233472
0.0235012
0.0237033
0.0239495
0.0242355
0.0245567
0.0249085
0.0252868
0.0256875
0.0261067
0.0265405
0.0269855
0.0274386
0.0278967
0.0283571
0.0288171
0.0292745
0.029727
0.0301728
0.0306098
0.0310366
0.0314514
0.031853
0.03224
0.0326114
0.0329662
0.0333035
0.0336226
0.0339231
0.0342044
0.0344667
0.0347096
0.0349343
0.0351405
0.0353307
0.0355045
0.0356668
0.0358159
0.0359612
0.0360979
0.036245
0.0363889
0.0365682
0.0367455
0.0370079
0.0372498
0.0376849
0.0380408
0.0387821
0.0393111
0.0405087
0.0412829
0.0420948
0.036454
0.0060074
0.00602808
0.00606724
0.00615419
0.00638693
0.00700771
0.00854037
0.0114606
0.0148882
0.0180532
0.0205033
0.0221657
0.0231426
0.0236666
0.0238953
0.02396
0.0239429
0.0239085
0.0238888
0.0239023
0.0239506
0.0240507
0.0241976
0.0243892
0.0246228
0.0248944
0.0252003
0.0255361
0.0258979
0.0262818
0.0266838
0.0271003
0.0275279
0.0279633
0.0284037
0.028846
0.0292879
0.029727
0.030161
0.030588
0.0310062
0.0314139
0.0318097
0.0321921
0.0325599
0.032912
0.0332476
0.0335657
0.0338658
0.0341474
0.03441
0.0346537
0.0348783
0.0350849
0.0352732
0.0354457
0.0356016
0.0357462
0.0358779
0.0360066
0.0361272
0.0362581
0.0363864
0.0365492
0.036711
0.0369569
0.037185
0.037603
0.037949
0.0386722
0.0391945
0.0403749
0.0411602
0.0419305
0.0363248
0.00589238
0.00590549
0.00593079
0.00598879
0.00614461
0.00656954
0.00764987
0.0100238
0.0132978
0.0166156
0.0194082
0.0214673
0.0228297
0.0236362
0.0240914
0.0243205
0.0244183
0.02446
0.0244892
0.0245322
0.0245978
0.0247034
0.0248492
0.0250349
0.0252591
0.0255189
0.0258111
0.0261319
0.0264778
0.026845
0.0272298
0.0276287
0.0280382
0.0284552
0.0288768
0.0293001
0.0297227
0.0301422
0.0305564
0.0309633
0.0313613
0.0317486
0.0321239
0.0324857
0.0328329
0.0331645
0.0334795
0.0337773
0.0340572
0.0343188
0.0345617
0.034786
0.0349914
0.0351786
0.035348
0.0355019
0.0356405
0.0357682
0.0358832
0.0359952
0.0360992
0.0362137
0.0363261
0.0364724
0.0366189
0.0368484
0.0370629
0.0374636
0.0377993
0.038504
0.0390196
0.0401824
0.0409792
0.0417145
0.0361537
0.00577874
0.00578557
0.00579934
0.0058361
0.00593781
0.0062216
0.00696672
0.00874236
0.0117016
0.0150293
0.0180768
0.0205009
0.0222337
0.0233837
0.0240804
0.0245061
0.0247478
0.0248899
0.0249876
0.0250758
0.0251706
0.0252916
0.0254438
0.0256294
0.0258485
0.0260997
0.0263807
0.0266883
0.0270195
0.0273708
0.0277387
0.0281198
0.028511
0.0289092
0.0293114
0.0297149
0.0301173
0.0305162
0.0309095
0.0312952
0.0316718
0.0320375
0.032391
0.032731
0.0330564
0.0333663
0.0336597
0.0339361
0.0341947
0.0344355
0.0346572
0.0348607
0.0350459
0.0352144
0.0353655
0.0355015
0.0356221
0.0357323
0.0358301
0.0359253
0.036013
0.0361111
0.0362079
0.036338
0.0364695
0.0366827
0.0368838
0.037267
0.0375924
0.0382785
0.0387873
0.0399324
0.0407409
0.0414477
0.0359416
0.00566635
0.00566797
0.00567216
0.00569277
0.00575676
0.00594102
0.0064423
0.00767681
0.010179
0.0133607
0.0165474
0.0192793
0.0213691
0.0228596
0.023857
0.0244933
0.0249072
0.0251757
0.0253634
0.0255144
0.0256523
0.0258001
0.0259677
0.0261602
0.0263798
0.0266267
0.0268998
0.0271967
0.0275149
0.0278515
0.0282034
0.0285674
0.0289404
0.0293196
0.0297021
0.0300854
0.0304669
0.0308445
0.031216
0.0315797
0.0319339
0.032277
0.0326078
0.032925
0.0332275
0.0335146
0.0337855
0.0340391
0.034275
0.0344935
0.0346945
0.034878
0.0350435
0.0351924
0.0353243
0.0354418
0.0355443
0.0356369
0.0357177
0.0357963
0.0358679
0.0359501
0.0360317
0.0361459
0.0362629
0.03646
0.0366483
0.037014
0.0373291
0.0379965
0.0384987
0.039626
0.0404462
0.0411314
0.0356893
0.00555593
0.00555173
0.00554714
0.00555697
0.0055949
0.00571018
0.00603754
0.00687487
0.00878333
0.0116836
0.0148739
0.0178286
0.0202417
0.0220687
0.0233739
0.0242738
0.0248754
0.0252943
0.025595
0.025828
0.0260248
0.0262126
0.0264059
0.0266137
0.0268406
0.0270885
0.0273578
0.0276473
0.0279551
0.028279
0.0286162
0.0289639
0.0293195
0.02968
0.030043
0.0304058
0.0307662
0.0311221
0.0314713
0.0318123
0.0321434
0.0324631
0.0327704
0.0330639
0.0333427
0.0336056
0.0338524
0.0340832
0.0342972
0.0344941
0.0346735
0.0348358
0.0349808
0.0351097
0.0352224
0.0353213
0.0354059
0.0354812
0.0355453
0.0356077
0.0356637
0.0357304
0.0357975
0.0358962
0.0359994
0.0361807
0.0363569
0.036705
0.0370101
0.037659
0.0381547
0.0392642
0.0400961
0.0407665
0.0353976
0.00544659
0.00543879
0.00542322
0.00542606
0.00544654
0.0055152
0.00572145
0.00627331
0.0076045
0.0100842
0.0131256
0.0161907
0.0188678
0.0210131
0.0226284
0.0238031
0.0246388
0.0252274
0.0256605
0.025996
0.026269
0.0265112
0.0267424
0.0269753
0.0272173
0.0274726
0.0277434
0.0280295
0.0283302
0.028644
0.0289685
0.0293015
0.0296407
0.0299834
0.0303273
0.03067
0.0310093
0.0313433
0.0316701
0.031988
0.0322956
0.0325915
0.032874
0.0331427
0.033397
0.0336366
0.0338603
0.0340679
0.0342587
0.0344331
0.0345904
0.0347314
0.0348557
0.0349647
0.0350582
0.0351388
0.0352057
0.0352641
0.0353119
0.0353587
0.0353997
0.0354515
0.0355049
0.0355888
0.035679
0.035845
0.0360098
0.0363408
0.036636
0.0372667
0.0377561
0.0388483
0.0396916
0.0403539
0.035067
0.00533824
0.00532831
0.00530261
0.00529693
0.00530703
0.00534563
0.00546995
0.0058213
0.00670361
0.00862324
0.0113809
0.0144235
0.0172787
0.0197023
0.0216198
0.0230768
0.0241572
0.0249547
0.0255445
0.0259974
0.026365
0.0266775
0.0269599
0.0272289
0.0274952
0.0277655
0.0280439
0.0283317
0.0286294
0.0289363
0.0292509
0.0295713
0.0298957
0.0302218
0.0305476
0.0308708
0.0311896
0.0315021
0.0318063
0.0321007
0.0323841
0.0326554
0.0329143
0.0331593
0.0333897
0.0336049
0.0338045
0.0339883
0.0341559
0.0343075
0.0344428
0.0345625
0.0346662
0.0347556
0.0348302
0.0348927
0.0349425
0.0349846
0.0350168
0.0350486
0.0350755
0.0351132
0.035154
0.0352236
0.0353021
0.0354531
0.0356075
0.0359221
0.0362078
0.0368207
0.037304
0.0383791
0.0392335
0.0398946
0.0346981
0.00523083
0.00521933
0.00518697
0.0051693
0.00517286
0.00519276
0.00526375
0.00547841
0.00604468
0.0073835
0.00972804
0.0126011
0.0155221
0.018159
0.0203527
0.0220905
0.0234276
0.0244442
0.0252197
0.02582
0.0262956
0.0266923
0.0270403
0.0273577
0.0276587
0.0279526
0.0282458
0.0285413
0.028841
0.0291451
0.029453
0.0297637
0.0300756
0.0303869
0.0306958
0.0310004
0.0312991
0.0315902
0.0318724
0.0321446
0.0324052
0.0326533
0.032888
0.0331086
0.0333146
0.0335055
0.0336811
0.0338412
0.0339856
0.0341146
0.034228
0.0343266
0.0344102
0.0344802
0.0345365
0.0345817
0.034615
0.0346414
0.034659
0.0346767
0.0346906
0.0347151
0.0347446
0.0348005
0.0348686
0.0350055
0.0351502
0.0354495
0.035726
0.0363218
0.0367993
0.0378579
0.0387229
0.0393894
0.0342917
0.00512427
0.00511167
0.00507586
0.00504497
0.00504131
0.00505022
0.00508813
0.00521296
0.00556268
0.00642654
0.00824188
0.0108087
0.013663
0.0164221
0.0188439
0.0208457
0.0224415
0.0236906
0.0246639
0.0254295
0.0260403
0.0265416
0.0269674
0.0273448
0.0276914
0.0280186
0.0283349
0.0286451
0.0289525
0.0292584
0.0295635
0.0298675
0.0301694
0.0304683
0.0307625
0.0310507
0.0313313
0.0316031
0.0318647
0.0321149
0.0323528
0.0325776
0.0327886
0.0329852
0.0331671
0.0333341
0.0334859
0.0336226
0.0337442
0.0338511
0.0339431
0.0340212
0.0340852
0.0341367
0.0341753
0.0342039
0.0342218
0.0342335
0.0342374
0.0342422
0.0342442
0.0342568
0.0342763
0.0343197
0.0343785
0.0345026
0.0346386
0.0349237
0.0351916
0.035771
0.0362431
0.0372857
0.0381606
0.0388393
0.0338483
0.00501852
0.0050052
0.00496831
0.0049261
0.00491124
0.00491381
0.00493207
0.00500029
0.00520656
0.00574369
0.00698959
0.00913627
0.0117822
0.0145479
0.0171248
0.0193547
0.0211984
0.0226842
0.0238683
0.0248133
0.0255739
0.0261978
0.0267216
0.0271751
0.0275787
0.0279487
0.0282966
0.0286289
0.0289506
0.0292644
0.0295717
0.0298734
0.0301693
0.0304587
0.0307408
0.0310144
0.0312786
0.0315322
0.0317742
0.0320037
0.03222
0.0324224
0.0326104
0.0327838
0.0329424
0.0330861
0.0332148
0.0333289
0.0334283
0.0335138
0.0335851
0.0336435
0.0336888
0.0337226
0.0337447
0.0337578
0.0337613
0.0337596
0.0337512
0.0337444
0.0337355
0.0337383
0.0337488
0.0337813
0.033832
0.0339447
0.0340729
0.0343453
0.0346053
0.0351692
0.0356363
0.0366637
0.0375478
0.038245
0.0333684
0.00491351
0.00489975
0.00486325
0.00481297
0.0047851
0.00478015
0.00478763
0.00482208
0.00493714
0.00525685
0.00603589
0.00766321
0.00997133
0.012611
0.0152446
0.0176439
0.0197078
0.0214235
0.0228235
0.0239601
0.0248846
0.0256457
0.0262814
0.0268251
0.0273006
0.027726
0.0281158
0.0284788
0.028822
0.0291498
0.029465
0.0297692
0.0300631
0.0303467
0.0306197
0.0308816
0.0311316
0.0313691
0.0315934
0.0318038
0.0319999
0.0321812
0.0323476
0.0324989
0.0326352
0.0327566
0.0328633
0.0329558
0.0330341
0.0330991
0.0331509
0.0331908
0.0332185
0.0332359
0.0332428
0.0332415
0.0332323
0.0332185
0.0331991
0.0331823
0.0331641
0.0331585
0.0331619
0.0331854
0.0332291
0.0333323
0.0334539
0.0337152
0.0339679
0.0345174
0.03498
0.0359931
0.0368853
0.0376075
0.0328526
0.00480919
0.00479521
0.0047598
0.00470485
0.0046652
0.00464858
0.00464992
0.00466506
0.00472472
0.00490534
0.00537172
0.00645016
0.00832383
0.0107012
0.0132712
0.0157567
0.0179928
0.0199162
0.0215275
0.0228609
0.0239603
0.0248714
0.0256333
0.0262809
0.0268405
0.027333
0.0277755
0.0281789
0.0285522
0.0289015
0.0292308
0.0295431
0.0298397
0.0301217
0.0303894
0.0306427
0.0308815
0.0311055
0.0313144
0.0315078
0.0316856
0.0318477
0.031994
0.0321249
0.0322404
0.032341
0.032427
0.0324992
0.0325577
0.0326037
0.0326373
0.03266
0.0326716
0.0326741
0.0326674
0.0326536
0.0326328
0.032609
0.0325804
0.0325554
0.0325297
0.0325172
0.0325153
0.0325323
0.0325701
0.0326658
0.0327819
0.0330339
0.0332804
0.0338168
0.0342752
0.035275
0.0361743
0.0369277
0.0323015
0.0047055
0.00469149
0.00465733
0.00460061
0.00455182
0.00452236
0.00451494
0.0045202
0.0045482
0.0046438
0.00490916
0.00555554
0.00691588
0.00891614
0.0112906
0.0137556
0.0160926
0.0181834
0.0199876
0.0215141
0.022793
0.0238638
0.0247637
0.0255276
0.026184
0.0267555
0.0272616
0.0277153
0.0281275
0.0285061
0.0288565
0.0291829
0.0294878
0.029773
0.0300396
0.0302882
0.0305193
0.0307329
0.0309292
0.0311082
0.0312701
0.0314151
0.0315435
0.0316558
0.0317524
0.031834
0.0319011
0.0319547
0.0319951
0.0320237
0.032041
0.0320483
0.0320457
0.0320352
0.0320163
0.031992
0.0319617
0.0319296
0.031894
0.0318627
0.0318317
0.0318144
0.0318087
0.0318215
0.0318553
0.0319457
0.0320576
0.0323024
0.0325435
0.0330683
0.0335233
0.0345106
0.0354158
0.0362064
0.0317156
0.00460238
0.00458847
0.00455549
0.00449907
0.00444421
0.00440341
0.00438335
0.00438221
0.00439283
0.00443894
0.00458091
0.00494927
0.00580075
0.00735032
0.00940284
0.0117227
0.0140656
0.0162616
0.0182236
0.0199271
0.021382
0.0226164
0.0236624
0.0245535
0.0253174
0.0259792
0.0265598
0.0270738
0.0275342
0.0279504
0.0283294
0.0286768
0.0289959
0.0292898
0.0295602
0.0298085
0.0300358
0.0302426
0.0304297
0.0305973
0.0307462
0.0308767
0.0309897
0.0310858
0.0311658
0.0312306
0.0312809
0.0313181
0.0313425
0.0313558