/*--------------------------------*- C++ -*----------------------------------*\
| =========                 |                                                 |
| \\      /  F ield         | OpenFOAM: The Open Source CFD Toolbox           |
|  \\    /   O peration     | Version:  2.4.0                                 |
|   \\  /    A nd           | Web:      www.OpenFOAM.org                      |
|    \\/     M anipulation  |                                                 |
\*---------------------------------------------------------------------------*/
FoamFile
{
    version     2.0;
    format      ascii;
    class       volScalarField;
    location    "53";
    object      epsilon;
}
// * * * * * * * * * * * * * * * * * * * * * * * * * * * * * * * * * * * * * //

dimensions      [0 2 -3 0 0 0 0];

internalField   nonuniform List<scalar> 
1800
(
81.8324
100.297
99.8568
96.2629
93.4698
91.9887
91.4893
91.6383
92.2403
93.1802
94.3713
95.7437
97.2444
98.8345
100.485
102.176
103.891
105.623
107.366
109.121
7.24413
13.822
17.3326
19
19.6979
20.0385
20.2657
20.4579
20.6448
20.8404
21.0504
21.2759
21.5158
21.7685
22.032
22.3046
22.5848
22.8719
23.1653
23.4649
0.237282
1.09388
2.25613
3.26716
3.9815
4.44487
4.73905
4.92787
5.05269
5.13889
5.20201
5.25175
5.29423
5.33333
5.37152
5.41038
5.45092
5.49382
5.53947
5.5881
0.0263052
0.0414791
0.152963
0.357247
0.609016
0.853079
1.05465
1.20535
1.3118
1.38454
1.4331
1.46483
1.48512
1.49784
1.50576
1.51085
1.51455
1.51791
1.52165
1.52624
0.0253702
0.00794122
0.00810689
0.0203738
0.0505063
0.101712
0.168737
0.240701
0.307468
0.363168
0.406191
0.437567
0.459373
0.473788
0.48271
0.487687
0.48995
0.49047
0.490002
0.489107
0.02536
0.00699171
0.00268716
0.00195443
0.00321284
0.00735152
0.0160284
0.0304194
0.0502551
0.0736675
0.0979198
0.120466
0.139657
0.154852
0.166156
0.174064
0.179215
0.182247
0.183736
0.184174
0.0253597
0.00697545
0.00247164
0.00109892
0.000680472
0.000742684
0.00134097
0.00280742
0.0056191
0.0102342
0.0168611
0.0252749
0.0348153
0.0445796
0.0537005
0.0615593
0.0678608
0.0725895
0.0759133
0.0780896
0.0253597
0.00698241
0.00247002
0.0010608
0.000534875
0.000323707
0.000267993
0.000346602
0.000618734
0.00120858
0.00229037
0.00405541
0.00665166
0.0101094
0.0142888
0.0188855
0.0235051
0.0277729
0.0314283
0.0343628
0.0253597
0.00699019
0.00247682
0.00106394
0.000529842
0.000297027
0.000186596
0.000137885
0.000134647
0.00018592
0.000324037
0.000605577
0.00110999
0.00193096
0.00315572
0.00483251
0.00693592
0.00934952
0.0118857
0.0143428
0.0253597
0.00699835
0.00248446
0.00106958
0.000533489
0.000298076
0.000182278
0.000120699
8.765e-05
7.39385e-05
7.98101e-05
0.000114143
0.000196286
0.000358175
0.000644974
0.00111152
0.00181131
0.00277693
0.00399794
0.00541326
0.0253597
0.00700675
0.00249249
0.00107572
0.000537986
0.000301304
0.000184326
0.000121026
8.43974e-05
6.25335e-05
5.03577e-05
4.68281e-05
5.45341e-05
8.07535e-05
0.00013937
0.00025277
0.000452261
0.000774242
0.00124925
0.00188734
0.0253596
0.00701511
0.00250057
0.001082
0.000542671
0.000304823
0.000187
0.000123022
8.5662e-05
6.25894e-05
4.78411e-05
3.85508e-05
3.37492e-05
3.41989e-05
4.29973e-05
6.69295e-05
0.000118316
0.000216235
0.000384093
0.00064111
0.0253596
0.00702309
0.00250834
0.00108808
0.000547261
0.00030831
0.000189701
0.000125158
8.73662e-05
6.39037e-05
4.86538e-05
3.84275e-05
3.15523e-05
2.73203e-05
2.59347e-05
2.89191e-05
4.01477e-05
6.74526e-05
0.000123491
0.000222995
0.0253595
0.00703031
0.0025154
0.00109364
0.000551483
0.000311537
0.000192216
0.000127161
8.89937e-05
6.52458e-05
4.97576e-05
3.92791e-05
3.20101e-05
2.69448e-05
2.36044e-05
2.20344e-05
2.31373e-05
2.9541e-05
4.70215e-05
8.49288e-05
0.0253595
0.00703643
0.0025214
0.00109838
0.000555086
0.000314295
0.000194367
0.000128871
9.03788e-05
6.6384e-05
5.07022e-05
4.00626e-05
3.26389e-05
2.73715e-05
2.36448e-05
2.11551e-05
1.99296e-05
2.06951e-05
2.57692e-05
4.0423e-05
0.0253594
0.00704118
0.00252604
0.00110204
0.000557874
0.000316432
0.000196033
0.000130198
9.14534e-05
6.72673e-05
5.14355e-05
4.06733e-05
3.31429e-05
2.77716e-05
2.39173e-05
2.12094e-05
1.94818e-05
1.89135e-05
2.04426e-05
2.73929e-05
0.0254334
0.00716039
0.0026601
0.00123839
0.000691884
0.000446854
0.000323111
0.000254807
0.000214657
0.000190087
0.000174749
0.000165177
0.000159353
0.000156041
0.000154476
0.000154245
0.000155273
0.000158004
0.000164681
0.000195798
0.00346361
0.00356528
0.00365972
0.00374893
0.00383371
0.00391437
0.00399101
0.00406367
0.00413225
0.00419651
0.00425605
0.00431019
0.0043578
0.00439715
0.00442529
0.0044371
0.00442004
0.00434708
0.00412524
0.00360951
110.887
112.666
114.457
116.26
118.074
23.7707
24.0826
24.4007
24.7248
25.0549
5.63976
5.69444
5.75208
5.81267
5.87625
1.53197
1.53894
1.54722
1.55683
1.56784
0.48817
0.487431
0.487029
0.487063
0.487628
0.183948
0.183335
0.18252
0.181628
0.180766
0.079391
0.0800541
0.0802561
0.0801218
0.0797522
0.0365984
0.038228
0.0393553
0.040064
0.0404253
0.0165688
0.0184877
0.0200773
0.0213324
0.0222576
0.0069322
0.00847072
0.00996317
0.0113421
0.0125376
0.0026739
0.00358766
0.00461606
0.00572884
0.00685631
0.000993512
0.0014422
0.00200496
0.00270378
0.00352783
0.000374443
0.000577987
0.000848336
0.00121826
0.00171191
0.000150651
0.000242364
0.000366943
0.000547103
0.000809316
7.05272e-05
0.000113179
0.000170141
0.000254933
0.000386523
4.37719e-05
6.47459e-05
9.00897e-05
0.000126656
0.000185675
0.000248062
0.000270342
0.000269256
0.000252519
0.00023879
0.00276912
0.00224846
0.00211461
0.00195145
0.00166245
119.9
121.739
123.592
125.462
127.351
129.266
131.212
133.204
135.268
137.492
140.229
144.689
148.337
163.508
13.739
25.3911
25.7337
26.0834
26.4407
26.8069
27.1837
27.5745
27.9855
28.4302
28.9416
29.6057
30.6043
31.2324
29.0671
4.32939
5.94289
6.01271
6.08587
6.16265
6.2435
6.3292
6.42114
6.52201
6.63718
6.77761
6.9622
7.18268
7.10176
5.6432
1.33924
1.58034
1.59439
1.61007
1.62748
1.64681
1.66836
1.69264
1.7206
1.7539
1.7951
1.8448
1.88091
1.78408
1.32899
0.458179
0.488818
0.490711
0.493371
0.496861
0.501258
0.506677
0.513286
0.521347
0.531234
0.543171
0.555393
0.557089
0.512982
0.385633
0.183073
0.180037
0.179531
0.179318
0.179454
0.17999
0.180981
0.182489
0.18458
0.187306
0.19055
0.193276
0.191553
0.175046
0.137698
0.08526
0.0792439
0.0786867
0.078154
0.0777024
0.0773791
0.0772268
0.0772833
0.0775802
0.0781309
0.0788731
0.0793961
0.0783733
0.0723631
0.0600343
0.045671
0.040514
0.0404084
0.0401787
0.0398811
0.0395618
0.0392621
0.0390188
0.0388644
0.0388234
0.0388935
0.0389373
0.0384851
0.0361603
0.0314425
0.0277099
0.0228797
0.0232477
0.023417
0.0234369
0.0233502
0.0231969
0.0230149
0.0228407
0.0227075
0.0226388
0.0225971
0.0223979
0.0213952
0.0192982
0.0187543
0.0135042
0.014237
0.0147574
0.0150954
0.0152822
0.015351
0.0153373
0.0152777
0.015208
0.0151594
0.0151312
0.0150457
0.0145624
0.0134965
0.0139519
0.00791373
0.00884017
0.00960802
0.0102112
0.0106558
0.0109586
0.0111452
0.0112463
0.0112952
0.0113239
0.0113464
0.011333
0.0110882
0.0104854
0.0112543
0.00442623
0.00533469
0.00619707
0.0069703
0.00762478
0.00814819
0.0085448
0.00883129
0.00903195
0.00917454
0.00927841
0.00933833
0.0092339
0.00887277
0.00973118
0.00232785
0.00304414
0.00382614
0.00462812
0.0053995
0.00609703
0.00669363
0.0071804
0.00756336
0.00785882
0.00808343
0.00824366
0.00825785
0.00805816
0.00894199
0.00117218
0.00164572
0.00222992
0.00291022
0.00365564
0.00442146
0.00515974
0.00583126
0.00641268
0.0068978
0.00729023
0.00759801
0.00775701
0.00772234
0.00869588
0.000583765
0.000865708
0.00124916
0.00174558
0.00235397
0.00305733
0.00382184
0.00460322
0.00535755
0.00605275
0.00667102
0.00721507
0.00762291
0.00790072
0.00906143
0.000280892
0.000430635
0.000656834
0.000982927
0.00142854
0.00200362
0.00270275
0.00350364
0.00437194
0.00527277
0.00618032
0.00710882
0.00801274
0.00913579
0.0103571
0.000245458
0.00028787
0.000382248
0.000550143
0.000818956
0.00121892
0.00177617
0.00250475
0.00340341
0.00446458
0.00569053
0.00716971
0.00899995
0.0124639
0.0135947
0.00133339
0.00104021
0.000827157
0.000718562
0.000728563
0.000875278
0.00118767
0.00170469
0.00247031
0.00353574
0.00497841
0.00705203
0.0103449
0.0191286
0.0211103
0.0014041
0.0101085
0.00797229
0.00582013
0.00434394
0.0022806
0.115184
0.0842135
0.0523189
0.0325816
0.00258378
0.0643323
0.10171
0.0861889
0.0676386
0.00241834
0.0158142
0.0309732
0.0442712
0.0458
0.00160308
0.00568674
0.00951632
0.0150008
0.0177209
0.00110481
0.00276112
0.00398663
0.00579202
0.00668023
0.000824696
0.00166264
0.00217796
0.00281386
0.00294121
0.000649724
0.00112397
0.00133191
0.00157876
0.00151878
0.000523242
0.000796831
0.000860607
0.000943286
0.000840205
0.000419966
0.000582389
0.000573002
0.000557609
0.000446291
0.000345294
0.000435652
0.000381903
0.000293511
0.000199396
0.000285509
0.000330071
0.000235666
0.000127767
8.25666e-05
0.000235653
0.000246477
0.000129504
6.39991e-05
3.96111e-05
0.000193207
0.00017502
7.69691e-05
3.72665e-05
1.99168e-05
0.000156925
0.000114245
5.07066e-05
2.23767e-05
8.98095e-06
0.000124985
8.40853e-05
3.75561e-05
1.22814e-05
3.54402e-06
9.55563e-05
9.80812e-05
3.13357e-05
7.19656e-06
1.67868e-06
0.000234966
0.000129866
4.57288e-05
7.15513e-06
1.26632e-06
0.0033358
0.00256496
0.00195845
0.00149918
0.00118897
0.00103552
0.00105402
0.00127595
0.00175862
0.0025993
0.00396852
0.00629583
0.0107387
0.0210958
0.0296636
0.0194404
0.011839
0.00741111
0.00477008
0.00316316
0.00218936
0.001639
0.00141229
0.00148701
0.00191914
0.00287915
0.00480265
0.00888401
0.0169102
0.025264
0.0421631
0.0263263
0.0165306
0.0104738
0.00672976
0.00441499
0.00299529
0.00216059
0.00174717
0.00170169
0.00208934
0.00316314
0.0055654
0.00975589
0.0132435
0.0382822
0.0295294
0.0214462
0.0150101
0.0102954
0.00701203
0.00480325
0.00336307
0.0024696
0.00198683
0.00186481
0.00215212
0.00301028
0.00440924
0.00541761
0.0201131
0.020904
0.018569
0.0151743
0.01177
0.00883663
0.00652039
0.00479913
0.00358332
0.0027747
0.00229611
0.00210412
0.00217912
0.00243728
0.0026548
0.00737167
0.00999735
0.0114046
0.0111198
0.0100156
0.00858175
0.00712644
0.00582603
0.00476077
0.00395141
0.00338972
0.00305925
0.00294289
0.00300636
0.00318261
0.00279234
0.00393425
0.00521664
0.00609815
0.00639286
0.00628352
0.00594537
0.0055125
0.00508861
0.00474906
0.00454919
0.00453225
0.00472874
0.00512777
0.0056296
0.00133115
0.00163625
0.00216044
0.00269964
0.00319056
0.00349281
0.00369246
0.00382938
0.00395208
0.00411286
0.00436328
0.00474491
0.00526891
0.00588319
0.0064658
0.000715131
0.000796735
0.000954964
0.00115265
0.00136226
0.0015487
0.00173426
0.00192943
0.00215026
0.0024184
0.00275564
0.00317504
0.00366751
0.00419418
0.00469818
0.000386086
0.000415656
0.000438335
0.000493797
0.000549885
0.000601911
0.000662331
0.000741481
0.000849534
0.000998339
0.00119929
0.00146057
0.00178097
0.00214789
0.0025398
0.000191996
0.000198688
0.000199432
0.000207416
0.000216152
0.000223618
0.000233363
0.000250371
0.000280228
0.000330155
0.000408303
0.000523476
0.000682203
0.000886227
0.00113048
8.93841e-05
9.28222e-05
9.25682e-05
9.24654e-05
9.20339e-05
9.1287e-05
9.11037e-05
9.29698e-05
9.86433e-05
0.000110998
0.000133987
0.000173012
0.000234697
0.000324918
0.000446394
4.68785e-05
4.87952e-05
4.82656e-05
4.77106e-05
4.67033e-05
4.52055e-05
4.35378e-05
4.22346e-05
4.18588e-05
4.34562e-05
4.84915e-05
5.94221e-05
7.9813e-05
0.000113955
0.000165675
2.6667e-05
2.47145e-05
2.37091e-05
2.32394e-05
2.23897e-05
2.10687e-05
1.95192e-05
1.80299e-05
1.68003e-05
1.62166e-05
1.67293e-05
1.92466e-05
2.52462e-05
3.69399e-05
5.69328e-05
9.58906e-06
8.31528e-06
7.89664e-06
7.6403e-06
7.23256e-06
6.65203e-06
5.98605e-06
5.34698e-06
4.79044e-06
4.42267e-06
4.32791e-06
4.73331e-06
6.06861e-06
9.16863e-06
1.53961e-05
2.53852e-06
2.2178e-06
1.94849e-06
1.85075e-06
1.73521e-06
1.61802e-06
1.49082e-06
1.37501e-06
1.27693e-06
1.20981e-06
1.18064e-06
1.21645e-06
1.37852e-06
1.82213e-06
2.91335e-06
1.58634e-06
1.37297e-06
1.2393e-06
1.18172e-06
1.13853e-06
1.11731e-06
1.10367e-06
1.09566e-06
1.09128e-06
1.09022e-06
1.09243e-06
1.09913e-06
1.1141e-06
1.14832e-06
1.23449e-06
1.30914e-06
1.30953e-06
1.22911e-06
1.20831e-06
1.21328e-06
1.22352e-06
1.25296e-06
1.28861e-06
1.33148e-06
1.37958e-06
1.43226e-06
1.48971e-06
1.5525e-06
1.62259e-06
1.70653e-06
0.0636098
0.0513679
0.042124
0.0349981
0.0294648
0.0251731
0.0218246
0.0192009
0.0171468
0.0154934
0.0135341
0.0121313
0.0111041
0.0102689
0.00950961
0.00880079
0.00804938
0.00719796
0.00687813
0.00842939
0.00985325
0.0108696
0.0113763
0.0115051
0.0113947
0.0111558
0.0108698
0.010595
0.0103691
0.0102213
0.0101793
0.0102625
0.0104957
0.0108859
0.0114175
0.01328
0.0146554
0.012348
0.0112387
0.0105974
0.0256688
0.0236343
0.0222738
0.0211
0.0198104
0.0185526
0.0174513
0.0165291
0.0157686
0.015122
0.0143947
0.0139048
0.0135258
0.0131932
0.0127651
0.0123186
0.0122536
0.0130717
0.0151626
0.0164604
0.0158886
0.0149981
0.0138962
0.0126946
0.0114845
0.0103334
0.00928508
0.00836052
0.00756748
0.00690607
0.0063697
0.00593968
0.0055934
0.00527764
0.00498836
0.00512965
0.00659885
0.00661997
0.00698479
0.00689916
0.0128826
0.0121579
0.01183
0.0115672
0.0111794
0.0107238
0.0102755
0.00986362
0.00949421
0.00916754
0.00882809
0.00855723
0.00834367
0.00817113
0.00801406
0.00809581
0.00839976
0.00886032
0.00949231
0.00991869
0.00985569
0.00966987
0.00933195
0.00886911
0.00831713
0.00771592
0.00710374
0.00651052
0.00595757
0.005459
0.00501962
0.00463472
0.00428751
0.00397528
0.00368097
0.00338663
0.00413292
0.00413254
0.00408372
0.00398749
0.00548198
0.00541937
0.00553185
0.0056743
0.00573915
0.00573395
0.00569001
0.00562217
0.00553707
0.00544675
0.0053752
0.00528695
0.00520438
0.00513694
0.00509187
0.00522059
0.00549178
0.00576519
0.0059581
0.00596224
0.00586475
0.00576194
0.00561767
0.00542905
0.00519687
0.00492657
0.00462907
0.00431861
0.00400973
0.00371463
0.0034429
0.00320382
0.00300571
0.00286912
0.00279574
0.00288513
0.00320763
0.00327189
0.00330778
0.00336636
0.00274724
0.00282114
0.00293879
0.00307482
0.00319113
0.00327877
0.00334224
0.00338406
0.003405
0.00341063
0.00344118
0.00343825
0.00342091
0.00340259
0.00339454
0.00348124
0.00364995
0.00380091
0.00385293
0.00373156
0.00360282
0.00348124
0.00335431
0.00322325
0.0030893
0.0029533
0.00281655
0.00268263
0.00255781
0.00245066
0.0023723
0.00233747
0.00236175
0.00245693
0.00261165
0.00302303
0.00314493
0.00323028
0.00335006
0.0034916
0.00338775
0.00353932
0.00362563
0.00368454
0.00372786
0.00374738
0.00373959
0.00370922
0.00366173
0.00359463
0.00348925
0.00339232
0.0032941
0.00319268
0.00309034
0.00302724
0.00300959
0.00299057
0.00291771
0.00275446
0.00262974
0.00251281
0.0024047
0.0023078
0.00222415
0.00215536
0.00210315
0.00207028
0.00206164
0.00208525
0.00215282
0.00227856
0.00247252
0.00272664
0.00301189
0.00351898
0.00355534
0.00365205
0.00382503
0.00399894
0.006065
0.00630298
0.00636896
0.00635935
0.00631212
0.00621975
0.00607997
0.00590643
0.00571228
0.0054852
0.00513887
0.00485422
0.00458713
0.00431779
0.0040396
0.00377086
0.00352686
0.00330048
0.00307394
0.00285678
0.00273812
0.00261884
0.00251091
0.00241899
0.00234808
0.00229923
0.00227436
0.00227745
0.002315
0.0023968
0.002535
0.00273968
0.00300956
0.00331815
0.00362801
0.00407205
0.00409424
0.00420436
0.00440389
0.00458292
0.00690106
0.00715565
0.00728944
0.00736755
0.00740171
0.00737815
0.00729399
0.00716074
0.0069884
0.00675938
0.00641568
0.00611385
0.00580967
0.00548845
0.00514907
0.00480674
0.00446478
0.00412799
0.00380624
0.00355004
0.00341383
0.00326895
0.00313817
0.00302288
0.00292583
0.00285427
0.00281173
0.00280409
0.00283998
0.00293022
0.00308455
0.00330513
0.00357848
0.00386829
0.00414048
0.00446963
0.00451949
0.00464757
0.00485593
0.00502813
0.00513753
0.00549947
0.00580082
0.00605724
0.00626423
0.00641119
0.00649614
0.00652459
0.00650019
0.00640903
0.00626517
0.00611
0.00592033
0.00569796
0.0054526
0.00520526
0.00494097
0.00465138
0.00435295
0.0041125
0.00396603
0.00380013
0.00364316
0.00350323
0.00338594
0.00329531
0.0032374
0.00321897
0.00324946
0.00333808
0.00348917
0.00369622
0.00393829
0.00417973
0.00439701
0.00462505
0.00471809
0.0048653
0.00507185
0.00523274
0.00293729
0.00332265
0.00368593
0.00402153
0.00432063
0.00457433
0.0047788
0.00493367
0.00503783
0.005084
0.00512934
0.00513211
0.00508581
0.00500297
0.00489918
0.00479911
0.00467944
0.00451634
0.00431776
0.00414067
0.0040146
0.00386611
0.00372251
0.00359206
0.00348362
0.00340427
0.00335836
0.00335201
0.00339317
0.00348713
0.00363237
0.00381698
0.00401945
0.00421174
0.00438206
0.00454341
0.00467618
0.00483867
0.00503695
0.00518504
0.00140705
0.00170334
0.00200595
0.00230442
0.00258923
0.00285155
0.00308499
0.00328511
0.00344805
0.00357092
0.00371661
0.00381618
0.00386994
0.00389272
0.00390015
0.00391517
0.00391566
0.00387246
0.00378385
0.00368686
0.0036075
0.00350777
0.00341062
0.0033242
0.00325498
0.00321153
0.00319815
0.00322018
0.00328224
0.00338538
0.00352442
0.00368654
0.00385446
0.00400948
0.00414875
0.00427497
0.00443452
0.00460502
0.004791
0.00492597
0.000599024
0.00077828
0.000976436
0.00118569
0.00139848
0.00160739
0.0018059
0.00198844
0.00215044
0.00229075
0.0024579
0.00259043
0.00268961
0.00276735
0.00283599
0.00291362
0.0029832
0.00301873
0.00301346
0.00298687
0.00296066
0.00291855
0.00287792
0.00284613
0.00282809
0.00282885
0.00285222
0.00290403
0.002986
0.00309639
0.00322899
0.00337301
0.00351666
0.00364877
0.0037717
0.00388427
0.00405561
0.00422608
0.00439743
0.00451952
0.000237651
0.000330027
0.000440314
0.000564824
0.000699278
0.00083902
0.00097941
0.00111607
0.00124525
0.00136636
0.00150987
0.00163334
0.00173743
0.00182972
0.0019183
0.00201576
0.00211091
0.00218424
0.00222814
0.00225024
0.00226723
0.00227381
0.00228187
0.00229722
0.00232288
0.00236042
0.00241372
0.0024878
0.00258348
0.00269782
0.00282504
0.00295713
0.00308681
0.0032077
0.00332427
0.00343486
0.00360537
0.00376912
0.00392492
0.00403481
8.76945e-05
0.000130648
0.000185752
0.000251936
0.000327451
0.000410079
0.000497342
0.000586675
0.00067575
0.000764319
0.00086905
0.000965066
0.00105259
0.00113573
0.00121905
0.00131038
0.00140346
0.00148561
0.00155052
0.00159906
0.00164265
0.00168132
0.00172219
0.00176892
0.00182273
0.00188456
0.00195831
0.00204639
0.0021499
0.00226583
0.00238937
0.00251493
0.00263805
0.0027549
0.00287017
0.00298341
0.00314492
0.00329773
0.00343831
0.00353717
2.64985e-05
4.39872e-05
6.86196e-05
0.000100445
0.000138989
0.000183408
0.000232625
0.00028544
0.000340733
0.000398542
0.000467163
0.000533826
0.000598618
0.000663552
0.000731001
0.000805219
0.00088324
0.000958027
0.00102546
0.0010837
0.00113917
0.00119415
0.00125217
0.0013152
0.00138433
0.00146055
0.00154709
0.00164364
0.00175101
0.00186707
0.00198823
0.0021106
0.00223124
0.00234744
0.0024631
0.00258004
0.00272955
0.00286995
0.00299696
0.00308685
5.38281e-06
1.02847e-05
1.8635e-05
3.10719e-05
4.78138e-05
6.87707e-05
9.36672e-05
0.000122129
0.000153798
0.000188881
0.000231238
0.00027507
0.000320383
0.000368096
0.00041936
0.0004761
0.000537096
0.000599187
0.000660361
0.000719055
0.000777747
0.000838714
0.000903937
0.000974544
0.00105169
0.00113666
0.001231
0.00133314
0.00144268
0.00155863
0.00167882
0.00180049
0.00192138
0.00203929
0.00215672
0.00227878
0.00241938
0.00254888
0.00266597
0.00275072
1.46657e-06
2.07761e-06
3.52966e-06
6.48853e-06
1.16509e-05
1.96022e-05
3.0756e-05
4.53423e-05
6.34666e-05
8.5403e-05
0.000112948
0.000143671
0.000177455
0.000214713
0.000256003
0.000301864
0.000351618
0.000404282
0.000459737
0.00051744
0.000578472
0.000643002
0.000713101
0.000789887
0.000874473
0.000968152
0.00107088
0.00118099
0.00129711
0.00141867
0.00154469
0.00167332
0.00180269
0.0019307
0.00205856
0.0021954
0.0023427
0.00246739
0.00258512
0.00267361
1.82717e-06
2.07173e-06
2.73405e-06
4.51468e-06
8.57374e-06
1.63196e-05
2.8993e-05
4.73367e-05
7.15738e-05
0.000101745
0.000139062
0.000181107
0.000227342
0.000278013
0.000333297
0.000393307
0.000456195
0.000521221
0.000590281
0.000664176
0.000749763
0.000836328
0.00093149
0.00103657
0.00115348
0.0012832
0.00142612
0.00158135
0.00174854
0.00192802
0.00211974
0.00232178
0.00253137
0.00274318
0.00295843
0.00318383
0.00346789
0.00361687
0.00379762
0.00394567
)
;

boundaryField
{
    inlet
    {
        type            fixedValue;
        value           uniform 0.127;
    }
    outlet
    {
        type            zeroGradient;
    }
    centerline
    {
        type            symmetry;
    }
    fixedWalls
    {
        Cmu             0.09;
        kappa           0.41;
        E               9.8;
        type            epsilonWallFunction;
        value           nonuniform List<scalar> 
156
(
0.00346361
0.00356528
0.00365972
0.00374893
0.00383371
0.00391437
0.00399101
0.00406367
0.00413225
0.00419651
0.00425605
0.00431019
0.0043578
0.00439715
0.00442529
0.0044371
0.00442004
0.00434708
0.00412524
0.00360951
0.0014041
0.0022806
0.00258378
0.00241834
0.00160308
0.00110481
0.000824696
0.000649724
0.000523242
0.000419966
0.000345294
0.000285509
0.000235653
0.000193207
0.000156925
0.000124985
9.55563e-05
0.000234966
0.000234966
0.000129866
4.57288e-05
7.15513e-06
1.26632e-06
1.30914e-06
1.30953e-06
1.22911e-06
1.20831e-06
1.21328e-06
1.22352e-06
1.25296e-06
1.28861e-06
1.33148e-06
1.37958e-06
1.43226e-06
1.48971e-06
1.5525e-06
1.62259e-06
1.70653e-06
1.82717e-06
2.07173e-06
2.73405e-06
4.51468e-06
8.57374e-06
1.63196e-05
2.8993e-05
4.73367e-05
7.15738e-05
0.000101745
0.000139062
0.000181107
0.000227342
0.000278013
0.000333297
0.000393307
0.000456195
0.000521221
0.000590281
0.000664176
0.000749763
0.000836328
0.00093149
0.00103657
0.00115348
0.0012832
0.00142612
0.00158135
0.00174854
0.00192802
0.00211974
0.00232178
0.00253137
0.00274318
0.00295843
0.00318383
0.00346789
0.00361687
0.00379762
0.00394567
0.0636098
0.0513679
0.042124
0.0349981
0.0294648
0.0251731
0.0218246
0.0192009
0.0171468
0.0154934
0.0135341
0.0121313
0.0111041
0.0102689
0.00950961
0.00880079
0.00804938
0.00719796
0.00687813
0.00842939
0.00985325
0.0108696
0.0113763
0.0115051
0.0113947
0.0111558
0.0108698
0.010595
0.0103691
0.0102213
0.0101793
0.0102625
0.0104957
0.0108859
0.0114175
0.01328
0.0146554
0.012348
0.0112387
0.0105974
13.739
4.32939
1.33924
0.458179
0.183073
0.08526
0.045671
0.0277099
0.0187543
0.0139519
0.0112543
0.00973118
0.00894199
0.00869588
0.00906143
0.0103571
0.0135947
0.0211103
)
;
    }
    frontAndBack
    {
        type            empty;
    }
}


// ************************************************************************* //
