/*--------------------------------*- C++ -*----------------------------------*\
| =========                 |                                                 |
| \\      /  F ield         | OpenFOAM: The Open Source CFD Toolbox           |
|  \\    /   O peration     | Version:  2.4.0                                 |
|   \\  /    A nd           | Web:      www.OpenFOAM.org                      |
|    \\/     M anipulation  |                                                 |
\*---------------------------------------------------------------------------*/
FoamFile
{
    version     2.0;
    format      ascii;
    class       volScalarField;
    location    "1.4";
    object      k;
}
// * * * * * * * * * * * * * * * * * * * * * * * * * * * * * * * * * * * * * //

dimensions      [0 2 -2 0 0 0 0];

internalField   nonuniform List<scalar> 
5625
(
0.0107454
0.0100577
0.00836664
0.00651482
0.00505198
0.00399742
0.00329768
0.00283834
0.00253771
0.00233561
0.00219175
0.00207519
0.00197451
0.0018857
0.00181138
0.00175243
0.00170488
0.00166435
0.00163025
0.00160078
0.0015731
0.00154176
0.00149977
0.00144621
0.00139367
0.00134743
0.00131116
0.00128798
0.00128025
0.00128999
0.00131805
0.00136428
0.00142733
0.00150462
0.00159252
0.00168521
0.00177952
0.00186531
0.00194716
0.00201241
0.00207272
0.00210642
0.00212143
0.00211298
0.00209485
0.00206925
0.00205979
0.00205497
0.0020602
0.00206932
0.002095
0.0021204
0.00216926
0.00220684
0.00227468
0.00232517
0.00241283
0.00247778
0.00258847
0.00267208
0.00281153
0.00291985
0.0030952
0.00323817
0.00346181
0.00365385
0.00394396
0.00420782
0.00459332
0.0049679
0.00549726
0.00605352
0.00679363
0.00800433
0.00719732
0.00950325
0.00913849
0.00801798
0.00663092
0.00580711
0.00541399
0.00524295
0.00510193
0.00498249
0.00485687
0.00470629
0.00453583
0.00435563
0.00417748
0.00401797
0.0038838
0.00376522
0.00366301
0.00357659
0.0035025
0.00343208
0.00334996
0.00324058
0.00309731
0.00294037
0.00278688
0.00264521
0.00252299
0.00242531
0.00235626
0.00231749
0.00230929
0.0023274
0.00237054
0.00242873
0.00249941
0.00256583
0.00262476
0.00265966
0.00267987
0.00268327
0.00267686
0.00264409
0.00256393
0.00241243
0.00231779
0.00217304
0.00209746
0.0019736
0.00192711
0.00183659
0.0018125
0.00175835
0.00175235
0.00172854
0.00173274
0.00172705
0.00174124
0.00175063
0.00177666
0.00179329
0.00183267
0.00185722
0.00191034
0.00194517
0.00201524
0.0020642
0.00216207
0.00223058
0.00237228
0.00246737
0.00268369
0.00281113
0.0030521
0.00433441
0.00879475
0.00884259
0.00830423
0.00718826
0.00640476
0.00597821
0.00580267
0.00574365
0.00572198
0.0056991
0.00564775
0.00555854
0.0054307
0.00528267
0.00513267
0.00499612
0.00486863
0.00475292
0.00465155
0.004561
0.00447058
0.00436175
0.00421737
0.00403668
0.00383089
0.00362021
0.00341949
0.00323912
0.00308599
0.0029656
0.00288098
0.0028342
0.00282173
0.00283953
0.00288238
0.00294604
0.00301392
0.00307902
0.00311713
0.00313094
0.00312572
0.00310986
0.00305656
0.00293762
0.00275208
0.00261141
0.00242613
0.00230134
0.00214226
0.00205263
0.00193503
0.00188005
0.00180227
0.00177405
0.00172982
0.00171587
0.00169296
0.00169226
0.00169117
0.00169909
0.00170425
0.00172025
0.00173917
0.00175881
0.00179517
0.00182122
0.00187744
0.00191506
0.00199747
0.00205913
0.00217095
0.00230316
0.00244851
0.00281408
0.0037637
0.00819896
0.00846412
0.00820359
0.0074933
0.00676695
0.00629361
0.00604684
0.0059683
0.00598702
0.00604692
0.00610326
0.00611083
0.00607815
0.00601091
0.00590933
0.00580258
0.0056918
0.00558245
0.0054821
0.00538765
0.00528814
0.00516516
0.00500086
0.00479498
0.00455666
0.00430226
0.00405316
0.00382217
0.00361797
0.00344695
0.00331318
0.00322078
0.00317016
0.00315983
0.00317767
0.00322665
0.00329123
0.00336321
0.00341379
0.00343526
0.0034309
0.00341328
0.00335416
0.0032221
0.00302636
0.00285843
0.0026558
0.00249967
0.00232379
0.00220585
0.00207534
0.00199955
0.00191235
0.00187153
0.00182017
0.00179844
0.00176955
0.00176438
0.001761
0.00176638
0.00176977
0.00178351
0.00180433
0.00182126
0.00186371
0.00188909
0.00195523
0.00199451
0.00209459
0.00216207
0.00231014
0.00246279
0.00267416
0.00347654
0.00381215
0.00768637
0.00804564
0.00794135
0.00752895
0.00694057
0.00647925
0.00618187
0.00603595
0.00604631
0.00611226
0.0062364
0.00634322
0.0064163
0.0064394
0.00641887
0.00637765
0.00631033
0.00622922
0.00614844
0.00606542
0.00597037
0.00584654
0.00567561
0.00545573
0.0051964
0.00491121
0.0046221
0.00434646
0.00409444
0.00387342
0.00368838
0.00354548
0.00344838
0.00339935
0.00339222
0.00341568
0.00346948
0.00354475
0.00361107
0.00364882
0.00365071
0.00363515
0.00357887
0.00344747
0.00325001
0.00306564
0.00285354
0.00267623
0.00248944
0.00235145
0.00221208
0.00212101
0.00202792
0.00197765
0.00192318
0.00189643
0.00186564
0.00185932
0.00185548
0.00186138
0.00186566
0.00188374
0.0019037
0.0019314
0.00197451
0.0020129
0.00208586
0.00214411
0.00225598
0.0023604
0.00252706
0.0027418
0.00301673
0.00411653
0.0041298
0.00723707
0.00760653
0.00760146
0.00740358
0.00696806
0.00656149
0.00625423
0.00605119
0.00601797
0.0060652
0.00618594
0.00634228
0.00649835
0.00661867
0.00669176
0.00672895
0.00672383
0.00669732
0.00665505
0.00659959
0.0065243
0.00641383
0.00624951
0.00602841
0.00575886
0.00545567
0.00513764
0.00482559
0.00453183
0.00426444
0.0040288
0.00383289
0.00368396
0.00358858
0.00354576
0.00354689
0.00357839
0.0036482
0.00373206
0.00379295
0.00380914
0.00379845
0.00375037
0.00362933
0.00343538
0.00324175
0.00302412
0.00283188
0.0026368
0.00248359
0.00233693
0.00223374
0.00213596
0.00207778
0.00202124
0.00199037
0.00195933
0.00195239
0.00194907
0.00195573
0.00196192
0.00198527
0.00200497
0.00204528
0.00208714
0.00214435
0.00221819
0.00230364
0.00242056
0.00256795
0.00274828
0.0030327
0.00336413
0.00465533
0.004544
0.00683713
0.00715864
0.00724361
0.00715171
0.00688528
0.00655097
0.00626555
0.00604336
0.00594964
0.00596974
0.00605153
0.00621567
0.00641122
0.00659408
0.00674895
0.00687157
0.00694501
0.00698176
0.00699121
0.00697985
0.00694038
0.00685786
0.00671326
0.00650359
0.00623661
0.00592676
0.00559283
0.00525504
0.00492835
0.0046215
0.00433965
0.00409187
0.00388862
0.00374146
0.00365489
0.00362676
0.00363745
0.00368863
0.00378544
0.00387642
0.00391766
0.00391571
0.00387938
0.00377566
0.00359025
0.00339291
0.00317254
0.00296967
0.00276798
0.00260278
0.0024497
0.00233655
0.00223457
0.00216969
0.00211125
0.00207697
0.00204623
0.00203907
0.00203658
0.00204429
0.00205266
0.00208088
0.00210236
0.00215323
0.0021953
0.00227116
0.00234543
0.00245862
0.00258017
0.00276882
0.00296366
0.00331672
0.00369905
0.00513249
0.00495936
0.00647661
0.00672779
0.00687873
0.00684299
0.0066983
0.00646084
0.00622037
0.0060074
0.0058689
0.00585307
0.00589764
0.00601509
0.00621072
0.00643297
0.00664483
0.00683269
0.00698026
0.00708722
0.00715966
0.00720565
0.00720604
0.00716243
0.00705474
0.00686871
0.00661668
0.00631262
0.00597485
0.00562391
0.00527492
0.00493799
0.00461759
0.00432281
0.00406643
0.00386493
0.0037294
0.00366221
0.0036553
0.00368788
0.00378479
0.00390548
0.00398017
0.00399615
0.00397232
0.00389024
0.00371979
0.00352323
0.00330248
0.00309229
0.00288531
0.00271048
0.00255163
0.0024301
0.00232422
0.00225357
0.00219325
0.00215606
0.00212583
0.00211869
0.00211717
0.00212608
0.00213675
0.00216946
0.00219415
0.00225357
0.00229808
0.0023903
0.00246675
0.00260583
0.00273331
0.00296021
0.00317209
0.00358997
0.00401914
0.0055648
0.00534998
0.00614818
0.00633031
0.00651211
0.00650854
0.00644379
0.00629171
0.00611007
0.00592758
0.00577874
0.0057209
0.0057408
0.00581168
0.00596257
0.0061797
0.00641568
0.00665519
0.00686416
0.00703145
0.00716405
0.00727142
0.00732919
0.00732201
0.00725871
0.00711324
0.00688723
0.00660129
0.00627162
0.00591933
0.00556019
0.0052038
0.00485466
0.00452091
0.00421635
0.00396137
0.00377322
0.00366594
0.0036338
0.00365085
0.00373441
0.00388748
0.00399978
0.0040447
0.00403456
0.00397478
0.00382792
0.00363555
0.00341662
0.00320181
0.00299073
0.0028081
0.00264405
0.00251536
0.00240581
0.00233015
0.00226796
0.00222825
0.0021986
0.00219174
0.00219117
0.00220136
0.00221439
0.00225138
0.00227974
0.00234689
0.00239565
0.00250147
0.00258247
0.00274477
0.00288013
0.00314225
0.003374
0.00385171
0.00432475
0.00596173
0.005712
0.0058462
0.00597285
0.00615062
0.00616771
0.00614885
0.00606915
0.00594226
0.00579983
0.00566589
0.00558025
0.0055795
0.0056167
0.00571332
0.00589457
0.00612056
0.00637425
0.00662051
0.00684061
0.00702874
0.00718991
0.00730629
0.00734731
0.00732157
0.00722711
0.00703883
0.00678208
0.00647319
0.00613082
0.0057728
0.00540843
0.00504123
0.00467846
0.00433374
0.00402942
0.00379059
0.00363946
0.00357661
0.00357972
0.00364551
0.00382092
0.00398078
0.00406243
0.00407133
0.004033
0.00391516
0.00373179
0.00351693
0.00329981
0.00308573
0.0028968
0.0027281
0.00259323
0.00248024
0.00240018
0.00233616
0.00229427
0.00226519
0.00225885
0.00225913
0.00227069
0.0022861
0.00232727
0.00235942
0.00243385
0.00248777
0.00260555
0.00269308
0.00287573
0.00302107
0.00331562
0.00356923
0.00410242
0.0046167
0.00632928
0.00604725
0.0055663
0.0056548
0.00580412
0.00583384
0.00583599
0.00580509
0.00572826
0.00562731
0.00552048
0.00543115
0.00540659
0.00542588
0.00548373
0.00560869
0.00580285
0.0060425
0.00629775
0.00654413
0.00677001
0.00697782
0.00714918
0.00724629
0.00725481
0.00720652
0.00707119
0.0068506
0.00657024
0.00624858
0.00590239
0.00554142
0.00516763
0.00478638
0.0044104
0.00406435
0.00378094
0.00358527
0.00348892
0.00347654
0.00352649
0.003709
0.00392332
0.00405083
0.00408787
0.00406785
0.00398122
0.00381343
0.00360492
0.00338753
0.0031715
0.00297754
0.0028047
0.00266448
0.00254826
0.00246434
0.00239854
0.00235476
0.00232627
0.00232058
0.00232166
0.00233463
0.00235243
0.00239771
0.00243368
0.00251509
0.00257446
0.00270339
0.00279859
0.00299949
0.00315661
0.00348089
0.00375695
0.00434321
0.00489578
0.00667151
0.00635855
0.00530496
0.00536971
0.00548117
0.00551057
0.00552273
0.00551752
0.00547999
0.00541627
0.00533971
0.00526409
0.00522361
0.00523219
0.00526501
0.00534287
0.00548931
0.00569587
0.00593583
0.00618458
0.0064269
0.00666239
0.00687456
0.00702293
0.00707707
0.00706115
0.00698082
0.00680806
0.00656665
0.00627374
0.00594711
0.00559705
0.00522557
0.00483616
0.00444144
0.00406612
0.00374174
0.00350437
0.00337464
0.00334412
0.00338079
0.00355837
0.00382968
0.00401003
0.00408566
0.00408366
0.00402585
0.00388232
0.00368179
0.00346597
0.003249
0.0030511
0.00287464
0.00272976
0.00261054
0.0025232
0.0024557
0.00241029
0.00238239
0.00237741
0.00237927
0.00239372
0.00241389
0.00246321
0.00250296
0.00259113
0.00265601
0.0027956
0.00289885
0.00311694
0.00328652
0.00363893
0.00393716
0.00457451
0.00516253
0.00699133
0.00664846
0.00505939
0.00510797
0.00518596
0.00520548
0.00521809
0.00522234
0.0052092
0.00517562
0.0051265
0.00507319
0.00502824
0.00502972
0.005049
0.00509708
0.00519408
0.00535716
0.00556561
0.00579659
0.00603416
0.00627719
0.00651285
0.00670034
0.00679933
0.00681169
0.00677454
0.00665876
0.0064612
0.00620529
0.00590736
0.00557808
0.00521857
0.00483051
0.00442527
0.00402737
0.00367077
0.00339698
0.00323597
0.00318677
0.00321172
0.00337529
0.00370194
0.00394148
0.00406325
0.00408592
0.00405105
0.00393771
0.0037485
0.00353596
0.00331901
0.00311813
0.00293853
0.00278962
0.00266761
0.00257725
0.00250814
0.00246133
0.00243403
0.00242978
0.00243242
0.0024484
0.00247089
0.00252419
0.00256768
0.00266241
0.00273277
0.0028826
0.00299398
0.00322856
0.00341076
0.00379027
0.00411005
0.0047965
0.00541732
0.00729093
0.00691912
0.00482735
0.00486421
0.00491574
0.00492264
0.00492681
0.00493141
0.00492945
0.00491603
0.00488792
0.00485749
0.00481858
0.00481584
0.00482868
0.00485957
0.00492183
0.00503745
0.0052067
0.00540695
0.00562279
0.00585402
0.00609386
0.00630505
0.00643931
0.00648326
0.00647264
0.00640827
0.00626112
0.00604711
0.00578379
0.0054824
0.00514299
0.00476477
0.0043575
0.00394615
0.00356684
0.00326377
0.00307495
0.00300822
0.00302315
0.00316901
0.00354015
0.00384672
0.00402078
0.00407684
0.00406056
0.00397818
0.00380597
0.00359826
0.00338222
0.0031792
0.00299693
0.00284451
0.00271995
0.00262691
0.00255628
0.00250828
0.0024816
0.00247807
0.00248149
0.00249902
0.00252381
0.00258102
0.00262819
0.00272927
0.00280502
0.00296475
0.0030842
0.00333471
0.00352941
0.00393519
0.00427578
0.00500926
0.00566043
0.00757195
0.00717221
0.004607
0.00463612
0.00466525
0.00466126
0.00465371
0.00465332
0.00465158
0.0046482
0.00463332
0.00462087
0.00459348
0.00459051
0.00460039
0.00462198
0.00466378
0.00474034
0.00486844
0.00503251
0.00521641
0.00542092
0.00564673
0.00586424
0.00602144
0.00609313
0.00610103
0.0060724
0.00597881
0.0058084
0.00558315
0.00531494
0.00500276
0.00464251
0.00424124
0.0038243
0.00343088
0.00310678
0.00289469
0.00281198
0.00281913
0.0029476
0.00334694
0.00372749
0.00395933
0.00405604
0.00405844
0.00400311
0.00385565
0.00365351
0.0034392
0.00323479
0.00305029
0.00289483
0.00276796
0.00267253
0.0026005
0.00255149
0.00252545
0.0025226
0.00252681
0.00254592
0.00257296
0.00263401
0.00268478
0.00279202
0.00287303
0.00304231
0.00316971
0.00343561
0.00364261
0.00407387
0.00443448
0.00521288
0.00589208
0.00783573
0.00740913
0.00439681
0.00442064
0.00443171
0.00442073
0.00440057
0.00439128
0.00438354
0.00438167
0.00437258
0.00437058
0.00435491
0.00435467
0.00436334
0.00438016
0.00441035
0.004462
0.00455282
0.00468034
0.00482938
0.00499896
0.00519668
0.00540393
0.00557039
0.00566061
0.00568522
0.00567692
0.00562609
0.00550207
0.00531556
0.00508351
0.00480415
0.00446947
0.0040823
0.00366719
0.00326681
0.00292976
0.00270047
0.0026026
0.00260377
0.00271643
0.00312831
0.00358599
0.00388039
0.00402245
0.00404912
0.00401446
0.00389594
0.0037022
0.00349047
0.00328533
0.00309901
0.00294095
0.00281197
0.00271442
0.0026411
0.00259125
0.00256588
0.00256367
0.00256868
0.00258935
0.00261862
0.00268342
0.00273771
0.00285089
0.00293702
0.00311553
0.0032507
0.00353146
0.00375047
0.00420642
0.00458624
0.00540739
0.00611245
0.00808334
0.00763098
0.0041955
0.0042146
0.00421596
0.00419599
0.00416631
0.00414737
0.00413058
0.00412401
0.00411473
0.00411523
0.00410841
0.0041106
0.00411891
0.00413324
0.00415683
0.00419418
0.00425711
0.00435163
0.00446717
0.00460066
0.00476256
0.00494624
0.00510847
0.00520732
0.00524443
0.00524705
0.00522276
0.00514377
0.00499399
0.00479842
0.0045554
0.00425288
0.00388808
0.00348265
0.00308164
0.00273821
0.00249887
0.00238798
0.00238255
0.00248123
0.0028904
0.00342459
0.00378563
0.00397688
0.00403341
0.00401561
0.00392591
0.00374495
0.00353652
0.00333122
0.00314346
0.00298317
0.0028523
0.00275288
0.00267838
0.00262783
0.00260313
0.00260152
0.00260733
0.00262957
0.00266103
0.00272946
0.00278721
0.0029061
0.00299719
0.0031846
0.00332733
0.00362242
0.00385309
0.0043329
0.00473112
0.00559285
0.00632173
0.00831569
0.0078387
0.00400196
0.00401603
0.00401298
0.00398666
0.00394937
0.00392157
0.0038952
0.00388047
0.00386647
0.00386373
0.00386006
0.00386301
0.00387073
0.00388308
0.00390224
0.00393091
0.00397549
0.00404396
0.00413021
0.0042304
0.00435562
0.00450759
0.00465419
0.00475222
0.00479516
0.00480424
0.00479491
0.00474846
0.0046335
0.004472
0.00426627
0.00400073
0.00366616
0.00327903
0.0028842
0.00253965
0.00229608
0.00217748
0.00216483
0.00224828
0.00263918
0.00324595
0.00367677
0.00392038
0.0040114
0.00400918
0.00394484
0.00378304
0.00357781
0.00337281
0.00318395
0.00302177
0.00288922
0.00278814
0.00271258
0.00266146
0.00263744
0.00263638
0.00264301
0.00266677
0.00270041
0.00277234
0.00283349
0.00295779
0.00305369
0.00324967
0.00339973
0.0037086
0.00395058
0.00445336
0.00486917
0.00576931
0.00652008
0.00853353
0.00803308
0.00381527
0.00382477
0.00381953
0.00378991
0.00374734
0.00371234
0.0036776
0.00365362
0.00363259
0.00362291
0.00361645
0.00361756
0.00362365
0.00363333
0.00364843
0.00367059
0.00370313
0.00375258
0.00381602
0.00388826
0.00397966
0.00409792
0.00422113
0.00431026
0.00435311
0.00436516
0.00436248
0.00433466
0.00425049
0.00411812
0.00394781
0.00372151
0.00342362
0.00306358
0.0026829
0.00234265
0.00209857
0.00197681
0.00195843
0.00202601
0.00238241
0.00305329
0.00355565
0.00385424
0.00398272
0.00399812
0.003954
0.00381573
0.00361467
0.00341044
0.00322078
0.00305701
0.00292298
0.00282043
0.00274391
0.00269234
0.00266902
0.00266844
0.00267591
0.00270115
0.00273697
0.00281221
0.00287676
0.00300609
0.00310666
0.00331091
0.00346803
0.0037901
0.00404299
0.00456783
0.00500042
0.0059368
0.00670767
0.00873754
0.00821482
0.00363458
0.00364075
0.00363389
0.00360282
0.00355751
0.00351739
0.00347633
0.00344381
0.00341522
0.00339698
0.00338438
0.00337954
0.00338195
0.0033885
0.00339908
0.00341513
0.00343848
0.00347386
0.00352021
0.00357155
0.00363481
0.00372097
0.00381747
0.00389204
0.00393015
0.00394178
0.00394124
0.00392255
0.00385919
0.00375102
0.00361197
0.00342424
0.00316703
0.00284176
0.00248392
0.00215434
0.00191301
0.00178974
0.00176742
0.00182129
0.00213231
0.00284878
0.00342418
0.00377982
0.00394765
0.00398416
0.00395555
0.00384212
0.0036474
0.00344439
0.00325422
0.00308912
0.00295378
0.00284995
0.00277259
0.00272065
0.00269804
0.0026979
0.0027062
0.00273287
0.0027709
0.0028492
0.00291721
0.00305109
0.00315626
0.00336842
0.00353232
0.00386703
0.0041304
0.00467635
0.00512488
0.00609537
0.00688464
0.00892831
0.00838449
0.00345916
0.00346329
0.00345504
0.00342349
0.00337751
0.00333424
0.00328908
0.00324977
0.00321444
0.00318766
0.00316776
0.00315485
0.00315008
0.00315202
0.00315808
0.00316808
0.00318342
0.00320678
0.00323981
0.00327608
0.00331836
0.00337697
0.00344683
0.00350419
0.0035342
0.00354271
0.00354178
0.00352625
0.00347435
0.00338468
0.00327106
0.00311837
0.00290272
0.00261763
0.00229062
0.00197884
0.00174406
0.00162062
0.00159529
0.00163781
0.00190428
0.00263246
0.00328433
0.00369854
0.00390709
0.00396741
0.00395165
0.00386198
0.00367647
0.00347497
0.00328451
0.00311832
0.00298185
0.0028769
0.00279878
0.00274658
0.00272468
0.00272493
0.00273405
0.00276209
0.00280238
0.0028834
0.0029549
0.00309294
0.00320263
0.00342231
0.00359269
0.00393944
0.00421285
0.00477892
0.00524257
0.00624506
0.00705114
0.00910634
0.00854262
0.00328832
0.00329113
0.00328215
0.00325086
0.0032055
0.00316072
0.00311338
0.00306938
0.00302878
0.00299476
0.00296755
0.00294681
0.00293357
0.00292708
0.00292784
0.0029326
0.00294068
0.00295384
0.00297433
0.00299924
0.00302658
0.00306352
0.00310982
0.0031497
0.00316974
0.00317366
0.00317013
0.0031547
0.00310824
0.00303156
0.00293683
0.00281353
0.00263717
0.00239455
0.00210431
0.0018171
0.00159355
0.00147205
0.00144456
0.00147771
0.00170274
0.00241259
0.00313848
0.00361184
0.00386199
0.00394812
0.00394378
0.00387478
0.003703
0.00350248
0.00331189
0.00314481
0.00300737
0.00290144
0.00282266
0.00277027
0.00274905
0.00274969
0.00275959
0.00278895
0.00283157
0.00291494
0.00298991
0.0031318
0.00324593
0.00347264
0.0036492
0.00400742
0.00429039
0.00487556
0.0053535
0.00638592
0.00720732
0.0092721
0.00868967
0.00312143
0.00312345
0.00311431
0.00308395
0.00304001
0.00299498
0.00294694
0.00290021
0.00285606
0.00281666
0.00278317
0.00275543
0.00273444
0.00271947
0.00271128
0.00270946
0.00271186
0.00271731
0.00272667
0.00274054
0.0027571
0.00277779
0.00280478
0.00282869
0.00283853
0.00283718
0.00282968
0.00281279
0.00276937
0.0027013
0.00261943
0.00251887
0.00237699
0.00217587
0.00192543
0.00166809
0.00146074
0.00134409
0.00131546
0.0013411
0.00152916
0.00219703
0.00298945
0.00352128
0.00381332
0.00392637
0.00393346
0.00388159
0.00372659
0.00352717
0.00333657
0.00316878
0.0030305
0.00292372
0.00284438
0.00279186
0.00277131
0.00277231
0.00278297
0.00281359
0.0028585
0.00294398
0.00302234
0.00316777
0.0032863
0.00351945
0.00370194
0.00407102
0.00436306
0.00496627
0.00545766
0.00651798
0.00735331
0.00942602
0.00882606
0.00295791
0.00295937
0.00295051
0.0029217
0.00287972
0.00283543
0.0027878
0.00273999
0.00269387
0.00265102
0.00261285
0.00257951
0.00255196
0.00252961
0.00251324
0.00250298
0.00249739
0.00249601
0.00249818
0.00250285
0.00250939
0.00251772
0.00252899
0.00253982
0.00254175
0.00253356
0.0025213
0.00250241
0.00246219
0.0023999
0.00232646
0.00224225
0.00212861
0.00196526
0.00175458
0.00153017
0.00134331
0.00123468
0.00120622
0.00122602
0.00138248
0.00199253
0.00284026
0.00342846
0.00376211
0.00390224
0.00392227
0.00388354
0.00374673
0.00354919
0.00335873
0.00319039
0.00305141
0.00294391
0.00286407
0.00281149
0.00279157
0.00279292
0.00280431
0.00283613
0.00288324
0.00297065
0.00305226
0.00320096
0.00332378
0.00356286
0.00375097
0.0041303
0.0044309
0.00505108
0.00555507
0.00664128
0.00748924
0.00956845
0.00895215
0.00279717
0.00279822
0.0027899
0.0027631
0.00272353
0.00268074
0.00263435
0.00258671
0.00253997
0.00249538
0.00245423
0.00241695
0.00238441
0.00235619
0.00233298
0.00231523
0.00230205
0.00229249
0.00228667
0.00228429
0.00228311
0.00228177
0.00228233
0.00228308
0.0022774
0.00226211
0.00224519
0.00222445
0.00218723
0.00212992
0.00206244
0.00198952
0.00189758
0.00176649
0.00159294
0.00140217
0.00123864
0.00114085
0.00111402
0.0011295
0.00125998
0.00180413
0.00269393
0.00333505
0.00370939
0.00387644
0.00391034
0.00388214
0.00376335
0.00356868
0.00337857
0.00320982
0.00307024
0.00296213
0.00288186
0.00282926
0.00280996
0.00281164
0.0028237
0.00285669
0.00290587
0.00299507
0.00307974
0.00323148
0.00335841
0.00360297
0.00379636
0.00418529
0.00449393
0.00512998
0.00564573
0.00675587
0.00761525
0.00969974
0.00906827
0.00263868
0.00263951
0.00263191
0.00260742
0.00257053
0.00252982
0.00248529
0.00243878
0.00239246
0.00234749
0.00230492
0.00226531
0.00222942
0.00219703
0.00216863
0.00214487
0.00212528
0.00210864
0.00209542
0.00208612
0.00207802
0.00206897
0.00206139
0.00205489
0.00204263
0.00202239
0.00200085
0.00197816
0.00194362
0.00189131
0.00182899
0.00176402
0.00168801
0.00158297
0.0014422
0.00128368
0.00114465
0.00105976
0.00103584
0.00104831
0.00115818
0.00163498
0.00255308
0.00324269
0.00365617
0.00384956
0.00389788
0.00387839
0.00377663
0.00358584
0.00339624
0.00322719
0.00308713
0.0029785
0.00289788
0.00284529
0.00282656
0.00282856
0.00284127
0.00287535
0.00292648
0.00301734
0.00310488
0.00325941
0.00339024
0.00363986
0.00383817
0.00423605
0.00455219
0.00520299
0.00572965
0.00686178
0.00773143
0.00982019
0.00917472
0.00248188
0.00248268
0.00247598
0.00245404
0.00242001
0.00238178
0.00233959
0.0022949
0.00224983
0.00220551
0.00216279
0.00212222
0.00208452
0.00204961
0.00201769
0.00198958
0.00196515
0.00194302
0.00192363
0.00190816
0.00189415
0.00187898
0.00186485
0.00185237
0.00183569
0.00181198
0.00178668
0.00176199
0.00172958
0.00168233
0.0016253
0.00156657
0.00150206
0.0014172
0.00130405
0.00117494
0.00106003
0.000989114
0.000969053
0.00097957
0.0010735
0.0014878
0.00241857
0.00315286
0.00360343
0.00382222
0.00388515
0.00387306
0.00378675
0.00360098
0.0034119
0.00324267
0.00310221
0.00299315
0.00291223
0.00285968
0.00284149
0.00284378
0.0028571
0.00289221
0.00294514
0.00303753
0.00312773
0.00328483
0.00341932
0.00367357
0.00387645
0.00428261
0.00460569
0.00527012
0.00580682
0.00695906
0.00783791
0.00993007
0.00927176
0.00232625
0.00232717
0.00232154
0.00230237
0.00227139
0.00223593
0.00219645
0.00215411
0.00211089
0.00206798
0.00202611
0.00198569
0.00194744
0.00191144
0.00187757
0.00184666
0.00181902
0.00179314
0.00176915
0.00174873
0.00173005
0.00171027
0.00169099
0.00167368
0.00165388
0.0016281
0.0016003
0.00157381
0.00154286
0.00150041
0.00144904
0.00139596
0.00134002
0.00127041
0.00117977
0.00107646
0.000984132
0.000927266
0.000911588
0.000920944
0.00100276
0.00136647
0.00228886
0.0030668
0.0035521
0.00379501
0.00387241
0.00386673
0.00379354
0.0036148
0.00342574
0.00325636
0.0031156
0.00300617
0.002925
0.00287252
0.00285483
0.00285739
0.00287127
0.00290734
0.00296192
0.00305572
0.00314837
0.00330781
0.00344569
0.00370418
0.00391125
0.00432501
0.00465447
0.00533137
0.00587725
0.00704774
0.00793477
0.0100296
0.00935962
0.00217129
0.00217245
0.00216805
0.00215188
0.00212413
0.0020917
0.00205522
0.00201568
0.00197478
0.00193386
0.00189359
0.00185417
0.00181636
0.00178043
0.00174592
0.0017136
0.00168416
0.00165614
0.00162923
0.00160526
0.00158326
0.00156034
0.00153742
0.00151643
0.00149437
0.00146765
0.00143869
0.00141094
0.00138092
0.00134269
0.00129712
0.00124966
0.00120056
0.00114252
0.00106991
0.000988622
0.00091667
0.000873089
0.00086186
0.000870633
0.000943413
0.0012673
0.00216794
0.00298571
0.00350305
0.00376851
0.00385988
0.00385988
0.00379777
0.00362712
0.00343789
0.00326841
0.00312739
0.00301767
0.00293629
0.00288389
0.00286666
0.00286947
0.00288386
0.00292082
0.0029769
0.00307197
0.00316685
0.00332841
0.00346941
0.00373174
0.00394262
0.00436327
0.00469854
0.00538675
0.00594094
0.00712785
0.00802213
0.0101191
0.00943852
0.00201662
0.00201815
0.00201512
0.00200216
0.00197786
0.00194869
0.00191549
0.00187911
0.00184096
0.00180247
0.00176438
0.00172664
0.00169002
0.001655
0.00162093
0.00158833
0.00155825
0.00152941
0.0015011
0.00147502
0.00145092
0.00142625
0.00140122
0.00137776
0.00135417
0.00132734
0.00129842
0.00127023
0.00124094
0.00120632
0.00116636
0.00112454
0.00108138
0.00103243
0.000974296
0.000911538
0.00085743
0.000825832
0.00081866
0.000827266
0.000893506
0.00118621
0.00205879
0.00291079
0.00345709
0.00374326
0.00384769
0.0038531
0.00380003
0.00363781
0.00344845
0.0032789
0.00313769
0.00302773
0.00294618
0.00289386
0.00287705
0.00288009
0.00289494
0.00293271
0.00299013
0.00308636
0.00318324
0.0033467
0.0034905
0.00375627
0.00397058
0.00439743
0.00473792
0.00543627
0.00599791
0.00719943
0.00810005
0.0101986
0.00950863
0.00186218
0.00186425
0.00186275
0.00185311
0.00183252
0.00180692
0.00177724
0.00174436
0.00170934
0.00167364
0.00163814
0.00160263
0.00156779
0.0015343
0.00150146
0.00146953
0.00143969
0.00141101
0.00138255
0.00135564
0.00133052
0.00130523
0.00127949
0.0012548
0.00123041
0.00120408
0.00117617
0.00114845
0.00112008
0.00108861
0.00105389
0.00101761
0.000979884
0.000938459
0.00089221
0.000845005
0.00080616
0.000784863
0.000781081
0.000789847
0.000851556
0.00112032
0.00196293
0.00284302
0.00341494
0.00371975
0.0038361
0.00384677
0.00380079
0.00364687
0.00345754
0.00328794
0.00314658
0.00303642
0.00295474
0.00290251
0.00288606
0.0028893
0.00290458
0.00294307
0.00300167
0.00309892
0.00319757
0.00336272
0.00350901
0.00377783
0.00399518
0.00442751
0.00477263
0.00547994
0.00604816
0.0072625
0.00816862
0.0102684
0.00957013
0.00170858
0.0017116
0.00171152
0.00170517
0.00168878
0.00166707
0.00164119
0.00161206
0.0015805
0.00154791
0.00151533
0.00148247
0.00144987
0.00141834
0.00138729
0.00135676
0.00132784
0.00130001
0.00127233
0.00124563
0.00122039
0.00119533
0.00116997
0.00114518
0.00112075
0.00109544
0.0010692
0.00104276
0.00101576
0.000987306
0.000957396
0.000926344
0.000893718
0.000858913
0.000822738
0.000788618
0.000762525
0.000749649
0.000748394
0.000757667
0.000816525
0.00106717
0.00188105
0.00278323
0.00337721
0.00369843
0.00382539
0.003841
0.00380059
0.00365434
0.00346522
0.0032956
0.00315413
0.00304381
0.00296202
0.00290988
0.00289376
0.00289718
0.00291282
0.00295195
0.00301157
0.00310972
0.0032099
0.00337651
0.00352498
0.00379644
0.00401644
0.00445353
0.00480267
0.00551777
0.00609169
0.0073171
0.0082279
0.0103286
0.00962314
0.00155762
0.00156142
0.00156367
0.00156023
0.00154879
0.00153109
0.00150918
0.00148401
0.00145617
0.00142695
0.00139749
0.00136758
0.00133756
0.00130829
0.0012794
0.00125076
0.00122326
0.00119675
0.00117044
0.00114473
0.00112009
0.00109587
0.00107161
0.00104761
0.00102388
0.001
0.000975827
0.000951263
0.000926173
0.000900802
0.000875318
0.00084902
0.000821147
0.000792413
0.00076505
0.000741913
0.000726135
0.000719705
0.000720003
0.000730354
0.000787763
0.00102509
0.00181324
0.00273203
0.00334444
0.0036797
0.00381581
0.00383589
0.00379984
0.00366034
0.00347158
0.00330197
0.00316042
0.00304997
0.00296809
0.00291603
0.00290019
0.00290376
0.00291971
0.00295939
0.00301987
0.00311878
0.00322026
0.00338812
0.00353843
0.00381214
0.00403438
0.00447551
0.00482807
0.00554976
0.00612851
0.00736325
0.00827795
0.0103793
0.00966779
0.00141315
0.00141755
0.00142387
0.00142242
0.00141553
0.00140242
0.00138476
0.00136368
0.00133972
0.00131401
0.00128777
0.00126093
0.00123368
0.00120682
0.00118024
0.00115377
0.00112803
0.00110309
0.00107847
0.00105421
0.00103067
0.00100767
0.000984918
0.000962269
0.000939807
0.000917689
0.000895721
0.000873322
0.000850573
0.00082841
0.000806934
0.000784755
0.000761203
0.000738135
0.000718569
0.000704459
0.000696559
0.000694434
0.000695847
0.000707745
0.000764934
0.0009928
0.00175913
0.0026898
0.00331705
0.00366386
0.0038076
0.0038315
0.00379882
0.003665
0.00347669
0.0033071
0.00316548
0.00305494
0.002973
0.002921
0.0029054
0.00290909
0.00292529
0.00296542
0.00302662
0.00312615
0.0032287
0.00339757
0.0035494
0.00382495
0.00404903
0.00449348
0.00484883
0.00557592
0.00615862
0.00740097
0.00831882
0.0104206
0.00970418
0.00128191
0.00128728
0.00129722
0.00129836
0.00129577
0.00128747
0.00127391
0.00125678
0.0012366
0.00121435
0.00119121
0.00116732
0.0011428
0.0011183
0.00109397
0.00106969
0.00104578
0.00102248
0.000999575
0.000976942
0.000954741
0.000933133
0.000911957
0.00089087
0.000869986
0.000849745
0.00082988
0.000809628
0.000789379
0.000770374
0.000752335
0.000733469
0.000713663
0.000695797
0.00068298
0.000675875
0.000673331
0.000673388
0.000676136
0.000690112
0.000748025
0.000969331
0.00171802
0.00265675
0.00329535
0.00365121
0.00380095
0.00382792
0.00379776
0.00366845
0.0034806
0.00331104
0.00316937
0.00305876
0.00297677
0.00292483
0.0029094
0.0029132
0.0029296
0.00297008
0.00303183
0.00313184
0.00323523
0.00340489
0.00355791
0.00383489
0.0040604
0.00450743
0.00486496
0.00559626
0.00618202
0.00743028
0.00835055
0.0104526
0.00973238
0.00117399
0.00118042
0.00119251
0.00119883
0.00119845
0.00119435
0.00118468
0.00117105
0.00115419
0.00113495
0.00111449
0.00109313
0.00107096
0.00104851
0.0010261
0.0010037
0.000981442
0.000959596
0.000938185
0.000917009
0.000896104
0.000875779
0.000855982
0.000836322
0.000816971
0.000798432
0.000780303
0.000761858
0.000743878
0.000727619
0.000712211
0.0006957
0.000678877
0.000665484
0.000658099
0.000655776
0.00065577
0.000656949
0.000661652
0.000677903