/*--------------------------------*- C++ -*----------------------------------*\
| =========                 |                                                 |
| \\      /  F ield         | OpenFOAM: The Open Source CFD Toolbox           |
|  \\    /   O peration     | Version:  2.4.0                                 |
|   \\  /    A nd           | Web:      www.OpenFOAM.org                      |
|    \\/     M anipulation  |                                                 |
\*---------------------------------------------------------------------------*/
FoamFile
{
    version     2.0;
    format      ascii;
    class       volScalarField;
    location    "130";
    object      nut;
}
// * * * * * * * * * * * * * * * * * * * * * * * * * * * * * * * * * * * * * //

dimensions      [0 2 -1 0 0 0 0];

internalField   nonuniform List<scalar> 
10000
(
0.00240058
0.00238817
0.0023765
0.00236504
0.00235373
0.00234327
0.00233434
0.00232692
0.00232079
0.00231583
0.00231191
0.00230892
0.00230676
0.00230526
0.0023037
0.00229869
0.00227465
0.00216546
0.00173737
0.000687293
0.00240059
0.00238817
0.0023765
0.00236505
0.00235375
0.00234329
0.00233437
0.00232695
0.00232084
0.00231589
0.00231197
0.00230899
0.00230686
0.00230538
0.00230394
0.00229964
0.00228026
0.00220069
0.00193285
0.00130345
0.00240059
0.00238817
0.00237651
0.00236506
0.00235376
0.00234329
0.00233436
0.00232693
0.0023208
0.00231583
0.0023119
0.00230889
0.00230673
0.00230525
0.00230394
0.00230064
0.00228725
0.00223803
0.00209275
0.00177639
0.00240059
0.00238817
0.00237651
0.00236506
0.00235376
0.00234328
0.00233432
0.00232686
0.0023207
0.00231569
0.0023117
0.00230864
0.00230642
0.0023049
0.00230369
0.00230135
0.00229305
0.00226552
0.00219234
0.0020442
0.00240059
0.00238818
0.00237651
0.00236507
0.00235376
0.00234326
0.00233427
0.00232676
0.00232055
0.00231547
0.00231141
0.00230827
0.00230596
0.00230436
0.0023032
0.00230158
0.00229683
0.0022825
0.00224731
0.00217965
0.00240059
0.00238818
0.00237652
0.00236507
0.00235376
0.00234323
0.0023342
0.00232664
0.00232035
0.0023152
0.00231105
0.0023078
0.00230538
0.00230367
0.0023025
0.00230132
0.00229874
0.00229173
0.00227546
0.00224505
0.00240059
0.00238818
0.00237652
0.00236508
0.00235376
0.00234321
0.00233413
0.0023265
0.00232014
0.00231489
0.00231064
0.00230727
0.00230471
0.00230287
0.00230162
0.00230065
0.00229925
0.00229602
0.00228885
0.00227554
0.00240059
0.00238819
0.00237653
0.0023651
0.00235378
0.0023432
0.00233406
0.00232637
0.00231992
0.00231457
0.0023102
0.0023067
0.002304
0.00230201
0.00230063
0.0022997
0.00229885
0.00229743
0.0022945
0.00228898
0.0024006
0.0023882
0.00237655
0.00236512
0.0023538
0.0023432
0.002334
0.00232624
0.00231971
0.00231425
0.00230976
0.00230613
0.00230327
0.00230111
0.00229958
0.00229858
0.00229791
0.00229726
0.00229619
0.00229415
0.0024006
0.00238821
0.00237657
0.00236516
0.00235385
0.00234322
0.00233397
0.00232613
0.00231951
0.00231395
0.00230934
0.00230557
0.00230255
0.00230022
0.00229852
0.00229738
0.00229668
0.00229628
0.00229594
0.00229536
0.00240061
0.00238822
0.0023766
0.0023652
0.00235391
0.00234327
0.00233396
0.00232605
0.00231934
0.00231369
0.00230895
0.00230504
0.00230188
0.00229938
0.00229749
0.00229617
0.00229535
0.00229493
0.00229478
0.00229471
0.00240061
0.00238824
0.00237663
0.00236527
0.002354
0.00234334
0.00233398
0.00232601
0.00231922
0.00231346
0.00230862
0.00230458
0.00230126
0.0022986
0.00229653
0.00229502
0.00229402
0.00229346
0.00229325
0.00229326
0.00240062
0.00238826
0.00237667
0.00236534
0.0023541
0.00234344
0.00233404
0.002326
0.00231914
0.00231329
0.00230834
0.00230418
0.00230072
0.0022979
0.00229567
0.00229397
0.00229277
0.00229201
0.00229164
0.00229153
0.00240063
0.00238828
0.00237672
0.00236543
0.00235424
0.00234358
0.00233414
0.00232605
0.00231911
0.00231318
0.00230813
0.00230385
0.00230027
0.00229731
0.00229491
0.00229303
0.00229164
0.00229068
0.00229009
0.0022898
0.00240064
0.00238831
0.00237678
0.00236554
0.0023544
0.00234376
0.00233429
0.00232614
0.00231914
0.00231313
0.002308
0.00230362
0.00229992
0.00229683
0.00229428
0.00229224
0.00229066
0.0022895
0.0022887
0.00228819
0.00240065
0.00238834
0.00237684
0.00236566
0.00235458
0.00234398
0.00233448
0.00232628
0.00231923
0.00231316
0.00230794
0.00230348
0.00229967
0.00229647
0.00229379
0.0022916
0.00228985
0.0022885
0.0022875
0.00228677
0.00240066
0.00238837
0.00237692
0.0023658
0.0023548
0.00234423
0.00233472
0.00232649
0.00231938
0.00231325
0.00230797
0.00230343
0.00229953
0.00229622
0.00229343
0.00229111
0.00228921
0.0022877
0.00228651
0.00228559
0.00240067
0.00238841
0.002377
0.00236595
0.00235504
0.00234453
0.00233502
0.00232675
0.0023196
0.00231342
0.00230808
0.00230347
0.0022995
0.0022961
0.00229321
0.00229078
0.00228875
0.00228709
0.00228574
0.00228464
0.00240069
0.00238845
0.00237709
0.00236612
0.0023553
0.00234487
0.00233536
0.00232706
0.00231989
0.00231366
0.00230827
0.00230361
0.00229957
0.0022961
0.00229313
0.00229059
0.00228846
0.00228667
0.00228518
0.00228392
0.0024007
0.0023885
0.00237719
0.00236631
0.0023556
0.00234525
0.00233576
0.00232745
0.00232024
0.00231398
0.00230855
0.00230384
0.00229975
0.00229622
0.00229317
0.00229056
0.00228833
0.00228643
0.00228482
0.00228344
0.00240072
0.00238855
0.0023773
0.0023665
0.00235592
0.00234567
0.00233622
0.00232789
0.00232066
0.00231438
0.00230891
0.00230416
0.00230003
0.00229644
0.00229334
0.00229066
0.00228835
0.00228637
0.00228466
0.00228317
0.00240074
0.0023886
0.00237741
0.00236671
0.00235626
0.00234613
0.00233673
0.0023284
0.00232115
0.00231485
0.00230936
0.00230457
0.00230041
0.00229678
0.00229363
0.0022909
0.00228853
0.00228647
0.00228468
0.0022831
0.00240076
0.00238865
0.00237753
0.00236694
0.00235662
0.00234662
0.0023373
0.00232898
0.00232172
0.0023154
0.00230989
0.00230508
0.00230089
0.00229723
0.00229404
0.00229126
0.00228884
0.00228673
0.00228487
0.00228322
0.00240078
0.00238871
0.00237765
0.00236717
0.002357
0.00234715
0.00233792
0.00232963
0.00232236
0.00231603
0.0023105
0.00230568
0.00230146
0.00229778
0.00229456
0.00229175
0.00228929
0.00228714
0.00228522
0.00228352
0.0024008
0.00238877
0.00237779
0.00236742
0.00235739
0.00234771
0.0023386
0.00233036
0.00232309
0.00231675
0.00231121
0.00230637
0.00230214
0.00229844
0.0022952
0.00229236
0.00228987
0.00228768
0.00228573
0.00228398
0.00240082
0.00238884
0.00237792
0.00236767
0.00235781
0.0023483
0.00233932
0.00233115
0.0023239
0.00231756
0.00231201
0.00230716
0.00230292
0.0022992
0.00229595
0.00229309
0.00229058
0.00228836
0.00228638
0.00228459
0.00240085
0.0023889
0.00237806
0.00236792
0.00235823
0.0023489
0.00234009
0.00233201
0.0023248
0.00231846
0.00231292
0.00230806
0.00230381
0.00230009
0.00229682
0.00229395
0.00229142
0.00228918
0.00228718
0.00228536
0.00240087
0.00238897
0.00237821
0.00236819
0.00235866
0.00234953
0.00234089
0.00233294
0.00232579
0.00231947
0.00231393
0.00230908
0.00230482
0.00230109
0.00229781
0.00229494
0.0022924
0.00229015
0.00228812
0.00228629
0.0024009
0.00238904
0.00237835
0.00236846
0.00235909
0.00235017
0.00234173
0.00233391
0.00232686
0.00232058
0.00231506
0.00231021
0.00230596
0.00230223
0.00229895
0.00229606
0.00229352
0.00229126
0.00228923
0.00228738
0.00240093
0.00238912
0.0023785
0.00236872
0.00235953
0.00235081
0.00234257
0.00233494
0.002328
0.00232179
0.00231631
0.00231148
0.00230724
0.00230351
0.00230023
0.00229735
0.00229481
0.00229254
0.0022905
0.00228865
0.00240095
0.00238919
0.00237865
0.00236899
0.00235997
0.00235145
0.00234343
0.00233599
0.00232919
0.00232309
0.00231767
0.00231288
0.00230866
0.00230495
0.00230169
0.00229881
0.00229627
0.00229401
0.00229197
0.00229012
0.00240098
0.00238926
0.0023788
0.00236926
0.0023604
0.00235208
0.00234429
0.00233705
0.00233043
0.00232446
0.00231913
0.0023144
0.00231023
0.00230655
0.00230331
0.00230045
0.00229792
0.00229567
0.00229364
0.0022918
0.00240101
0.00238934
0.00237895
0.00236953
0.00236082
0.00235271
0.00234514
0.00233812
0.00233169
0.00232587
0.00232066
0.00231602
0.00231192
0.00230829
0.00230509
0.00230227
0.00229977
0.00229754
0.00229553
0.0022937
0.00240104
0.00238941
0.0023791
0.00236979
0.00236124
0.00235332
0.00234596
0.00233917
0.00233294
0.0023273
0.00232224
0.00231772
0.0023137
0.00231015
0.00230701
0.00230424
0.00230178
0.00229958
0.00229761
0.00229581
0.00240107
0.00238949
0.00237925
0.00237004
0.00236164
0.00235391
0.00234676
0.00234019
0.00233417
0.00232872
0.00232382
0.00231944
0.00231554
0.00231208
0.00230902
0.00230632
0.00230391
0.00230177
0.00229983
0.00229807
0.00240109
0.00238956
0.0023794
0.00237029
0.00236204
0.00235447
0.00234753
0.00234117
0.00233537
0.00233011
0.00232538
0.00232115
0.00231738
0.00231404
0.00231107
0.00230845
0.00230611
0.00230403
0.00230215
0.00230044
0.00240112
0.00238964
0.00237954
0.00237054
0.00236241
0.00235502
0.00234826
0.0023421
0.0023365
0.00233144
0.00232689
0.00232282
0.00231919
0.00231597
0.00231311
0.00231057
0.00230832
0.0023063
0.00230448
0.00230283
0.00240115
0.00238971
0.00237968
0.00237077
0.00236277
0.00235553
0.00234896
0.00234299
0.00233758
0.0023327
0.00232833
0.00232441
0.00232093
0.00231783
0.00231508
0.00231264
0.00231047
0.00230853
0.00230678
0.00230518
0.00240118
0.00238978
0.00237981
0.002371
0.00236311
0.00235602
0.00234961
0.00234381
0.00233859
0.00233389
0.00232968
0.00232592
0.00232257
0.00231959
0.00231695
0.00231461
0.00231252
0.00231066
0.00230898
0.00230744
0.00240121
0.00238985
0.00237995
0.00237121
0.00236344
0.00235647
0.00235021
0.00234458
0.00233952
0.00233498
0.00233093
0.00232731
0.00232409
0.00232123
0.0023187
0.00231645
0.00231445
0.00231266
0.00231104
0.00230957
0.00240123
0.00238992
0.00238007
0.00237142
0.00236374
0.0023569
0.00235078
0.00234529
0.00234038
0.00233599
0.00233208
0.00232859
0.0023255
0.00232275
0.00232031
0.00231815
0.00231623
0.00231451
0.00231295
0.00231154
0.00240126
0.00238998
0.00238019
0.00237161
0.00236403
0.0023573
0.0023513
0.00234595
0.00234117
0.00233691
0.00233313
0.00232976
0.00232677
0.00232413
0.00232178
0.0023197
0.00231785
0.00231619
0.0023147
0.00231334
0.00240129
0.00239005
0.00238031
0.0023718
0.0023643
0.00235767
0.00235178
0.00234655
0.00234189
0.00233775
0.00233408
0.00233082
0.00232793
0.00232537
0.00232311
0.0023211
0.00231931
0.00231772
0.00231627
0.00231496
0.00240131
0.00239011
0.00238042
0.00237197
0.00236455
0.00235801
0.00235222
0.00234709
0.00234255
0.00233851
0.00233494
0.00233177
0.00232897
0.00232649
0.0023243
0.00232236
0.00232063
0.00231909
0.00231769
0.00231642
0.00240134
0.00239017
0.00238052
0.00237213
0.00236479
0.00235833
0.00235263
0.00234759
0.00234314
0.0023392
0.00233571
0.00233263
0.00232991
0.0023275
0.00232537
0.00232348
0.0023218
0.00232031
0.00231895
0.00231773
0.00240136
0.00239022
0.00238062
0.00237229
0.002365
0.00235862
0.002353
0.00234804
0.00234367
0.00233981
0.0023364
0.0023334
0.00233074
0.00232839
0.00232632
0.00232448
0.00232285
0.00232139
0.00232007
0.00231888
0.00240138
0.00239027
0.00238071
0.00237243
0.00236521
0.00235888
0.00235334
0.00234845
0.00234415
0.00234037
0.00233702
0.00233408
0.00233148
0.00232918
0.00232716
0.00232537
0.00232377
0.00232235
0.00232107
0.0023199
0.0024014
0.00239032
0.0023808
0.00237256
0.00236539
0.00235913
0.00235364
0.00234882
0.00234459
0.00234086
0.00233758
0.00233469
0.00233214
0.00232989
0.00232791
0.00232615
0.00232459
0.0023232
0.00232194
0.0023208
0.00240143
0.00239037
0.00238088
0.00237268
0.00236556
0.00235935
0.00235392
0.00234916
0.00234498
0.0023413
0.00233807
0.00233523
0.00233272
0.00233051
0.00232857
0.00232684
0.00232531
0.00232395
0.00232272
0.0023216
0.00240144
0.00239042
0.00238096
0.0023728
0.00236572
0.00235955
0.00235417
0.00234946
0.00234533
0.0023417
0.00233851
0.00233571
0.00233324
0.00233107
0.00232915
0.00232745
0.00232595
0.00232461
0.0023234
0.0023223
0.00240146
0.00239046
0.00238103
0.0023729
0.00236586
0.00235974
0.0023544
0.00234973
0.00234564
0.00234205
0.0023389
0.00233613
0.0023337
0.00233156
0.00232966
0.00232799
0.00232651
0.00232519
0.002324
0.00232291
0.00240148
0.0023905
0.0023811
0.002373
0.00236599
0.00235991
0.0023546
0.00234997
0.00234592
0.00234237
0.00233925
0.00233651
0.00233411
0.00233199
0.00233012
0.00232847
0.00232701
0.0023257
0.00232452
0.00232346
0.0024015
0.00239053
0.00238116
0.00237309
0.00236611
0.00236006
0.00235479
0.00235019
0.00234617
0.00234265
0.00233956
0.00233685
0.00233447
0.00233237
0.00233052
0.00232889
0.00232744
0.00232615
0.00232499
0.00232393
0.00240151
0.00239057
0.00238121
0.00237317
0.00236622
0.0023602
0.00235496
0.00235039
0.00234639
0.0023429
0.00233983
0.00233715
0.00233478
0.00233271
0.00233087
0.00232926
0.00232783
0.00232655
0.00232539
0.00232435
0.00240153
0.0023906
0.00238126
0.00237324
0.00236632
0.00236032
0.00235511
0.00235056
0.00234659
0.00234312
0.00234008
0.00233741
0.00233506
0.002333
0.00233119
0.00232958
0.00232816
0.00232689
0.00232575
0.00232472
0.00240154
0.00239063
0.00238131
0.00237331
0.00236641
0.00236043
0.00235524
0.00235072
0.00234677
0.00234332
0.00234029
0.00233764
0.00233531
0.00233327
0.00233146
0.00232987
0.00232846
0.0023272
0.00232607
0.00232504
0.00240155
0.00239066
0.00238136
0.00237337
0.00236649
0.00236053
0.00235536
0.00235086
0.00234693
0.00234349
0.00234049
0.00233785
0.00233553
0.0023335
0.00233171
0.00233012
0.00232872
0.00232747
0.00232634
0.00232532
0.00240156
0.00239068
0.0023814
0.00237343
0.00236657
0.00236063
0.00235547
0.00235098
0.00234707
0.00234365
0.00234066
0.00233803
0.00233573
0.0023337
0.00233192
0.00233035
0.00232895
0.00232771
0.00232659
0.00232557
0.00240157
0.0023907
0.00238143
0.00237348
0.00236663
0.00236071
0.00235557
0.0023511
0.0023472
0.00234379
0.00234081
0.00233819
0.0023359
0.00233388
0.00233211
0.00233054
0.00232916
0.00232792
0.0023268
0.00232579
0.00240158
0.00239072
0.00238146
0.00237353
0.00236669
0.00236078
0.00235565
0.0023512
0.00234731
0.00234391
0.00234094
0.00233834
0.00233605
0.00233405
0.00233228
0.00233072
0.00232934
0.0023281
0.00232699
0.00232599
0.00240159
0.00239074
0.00238149
0.00237357
0.00236675
0.00236085
0.00235573
0.00235129
0.00234741
0.00234402
0.00234106
0.00233847
0.00233619
0.00233419
0.00233243
0.00233087
0.00232949
0.00232826
0.00232716
0.00232616
0.0024016
0.00239076
0.00238152
0.00237361
0.00236679
0.00236091
0.0023558
0.00235136
0.0023475
0.00234412
0.00234117
0.00233858
0.00233631
0.00233431
0.00233256
0.00233101
0.00232963
0.00232841
0.0023273
0.00232631
0.00240161
0.00239078
0.00238155
0.00237364
0.00236684
0.00236096
0.00235586
0.00235144
0.00234758
0.00234421
0.00234126
0.00233868
0.00233641
0.00233442
0.00233267
0.00233113
0.00232976
0.00232853
0.00232743
0.00232644
0.00240162
0.00239079
0.00238157
0.00237367
0.00236688
0.00236101
0.00235592
0.0023515
0.00234765
0.00234428
0.00234134
0.00233877
0.00233651
0.00233452
0.00233277
0.00233123
0.00232986
0.00232865
0.00232755
0.00232655
0.00240162
0.0023908
0.00238159
0.0023737
0.00236691
0.00236105
0.00235597
0.00235156
0.00234771
0.00234435
0.00234142
0.00233884
0.00233659
0.00233461
0.00233286
0.00233132
0.00232996
0.00232874
0.00232765
0.00232666
0.00240163
0.00239082
0.00238161
0.00237373
0.00236694
0.00236109
0.00235601
0.00235161
0.00234776
0.00234441
0.00234148
0.00233891
0.00233666
0.00233468
0.00233294
0.00233141
0.00233004
0.00232883
0.00232774
0.00232675
0.00240163
0.00239083
0.00238163
0.00237375
0.00236697
0.00236112
0.00235605
0.00235165
0.00234781
0.00234447
0.00234154
0.00233897
0.00233673
0.00233475
0.00233301
0.00233148
0.00233012
0.00232891
0.00232782
0.00232683
0.00240164
0.00239084
0.00238164
0.00237377
0.002367
0.00236115
0.00235609
0.00235169
0.00234786
0.00234451
0.00234159
0.00233903
0.00233678
0.00233481
0.00233307
0.00233154
0.00233019
0.00232897
0.00232788
0.0023269
0.00240164
0.00239084
0.00238165
0.00237379
0.00236702
0.00236118
0.00235612
0.00235173
0.0023479
0.00234456
0.00234164
0.00233908
0.00233683
0.00233486
0.00233313
0.0023316
0.00233024
0.00232903
0.00232795
0.00232696
0.00240165
0.00239085
0.00238167
0.0023738
0.00236704
0.0023612
0.00235615
0.00235176
0.00234793
0.00234459
0.00234168
0.00233912
0.00233688
0.00233491
0.00233318
0.00233165
0.00233029
0.00232909
0.002328
0.00232701
0.00240165
0.00239086
0.00238168
0.00237382
0.00236706
0.00236123
0.00235617
0.00235178
0.00234796
0.00234463
0.00234171
0.00233916
0.00233692
0.00233495
0.00233322
0.00233169
0.00233034
0.00232913
0.00232805
0.00232706
0.00240165
0.00239087
0.00238169
0.00237383
0.00236708
0.00236125
0.0023562
0.00235181
0.00234799
0.00234466
0.00234174
0.00233919
0.00233695
0.00233499
0.00233326
0.00233173
0.00233038
0.00232917
0.00232809
0.00232711
0.00240166
0.00239087
0.0023817
0.00237384
0.00236709
0.00236126
0.00235622
0.00235183
0.00234801
0.00234468
0.00234177
0.00233922
0.00233698
0.00233502
0.00233329
0.00233177
0.00233042
0.00232921
0.00232813
0.00232714
0.00240166
0.00239088
0.0023817
0.00237385
0.0023671
0.00236128
0.00235623
0.00235185
0.00234804
0.00234471
0.0023418
0.00233925
0.00233701
0.00233505
0.00233332
0.0023318
0.00233045
0.00232924
0.00232816
0.00232718
0.00240166
0.00239088
0.00238171
0.00237386
0.00236712
0.00236129
0.00235625
0.00235187
0.00234805
0.00234473
0.00234182
0.00233927
0.00233704
0.00233507
0.00233335
0.00233182
0.00233047
0.00232927
0.00232819
0.00232721
0.00240166
0.00239089
0.00238172
0.00237387
0.00236713
0.0023613
0.00235626
0.00235188
0.00234807
0.00234474
0.00234184
0.00233929
0.00233706
0.0023351
0.00233337
0.00233185
0.0023305
0.0023293
0.00232821
0.00232723
0.00240167
0.00239089
0.00238172
0.00237388
0.00236713
0.00236131
0.00235627
0.0023519
0.00234809
0.00234476
0.00234185
0.00233931
0.00233708
0.00233511
0.00233339
0.00233187
0.00233052
0.00232932
0.00232824
0.00232726
0.00240167
0.00239089
0.00238173
0.00237388
0.00236714
0.00236132
0.00235629
0.00235191
0.0023481
0.00234478
0.00234187
0.00233932
0.00233709
0.00233513
0.00233341
0.00233189
0.00233054
0.00232934
0.00232826
0.00232728
0.00240167
0.0023909
0.00238173
0.00237389
0.00236715
0.00236133
0.0023563
0.00235192
0.00234811
0.00234479
0.00234188
0.00233934
0.00233711
0.00233515
0.00233342
0.0023319
0.00233056
0.00232935
0.00232827
0.00232729
0.00240167
0.0023909
0.00238174
0.0023739
0.00236716
0.00236134
0.0023563
0.00235193
0.00234812
0.0023448
0.00234189
0.00233935
0.00233712
0.00233516
0.00233344
0.00233192
0.00233057
0.00232937
0.00232829
0.00232731
0.00240167
0.0023909
0.00238174
0.0023739
0.00236716
0.00236135
0.00235631
0.00235194
0.00234813
0.00234481
0.00234191
0.00233936
0.00233713
0.00233517
0.00233345
0.00233193
0.00233059
0.00232938
0.0023283
0.00232732
0.00240167
0.0023909
0.00238174
0.0023739
0.00236717
0.00236135
0.00235632
0.00235195
0.00234814
0.00234482
0.00234191
0.00233937
0.00233714
0.00233518
0.00233346
0.00233194
0.0023306
0.0023294
0.00232831
0.00232734
0.00240167
0.00239091
0.00238175
0.00237391
0.00236717
0.00236136
0.00235633
0.00235195
0.00234815
0.00234483
0.00234192
0.00233938
0.00233715
0.00233519
0.00233347
0.00233195
0.00233061
0.00232941
0.00232833
0.00232735
0.00240168
0.00239091
0.00238175
0.00237391
0.00236718
0.00236136
0.00235633
0.00235196
0.00234815
0.00234483
0.00234193
0.00233939
0.00233716
0.0023352
0.00233348
0.00233196
0.00233062
0.00232942
0.00232834
0.00232736
0.00240168
0.00239091
0.00238175
0.00237392
0.00236718
0.00236137
0.00235634
0.00235196
0.00234816
0.00234484
0.00234194
0.0023394
0.00233717
0.00233521
0.00233349
0.00233197
0.00233062
0.00232942
0.00232834
0.00232737
0.00240168
0.00239091
0.00238175
0.00237392
0.00236718
0.00236137
0.00235634
0.00235197
0.00234816
0.00234485
0.00234194
0.0023394
0.00233717
0.00233522
0.0023335
0.00233198
0.00233063
0.00232943
0.00232835
0.00232737
0.00240168
0.00239091
0.00238175
0.00237392
0.00236719
0.00236138
0.00235634
0.00235197
0.00234817
0.00234485
0.00234195
0.00233941
0.00233718
0.00233522
0.0023335
0.00233198
0.00233064
0.00232944
0.00232836
0.00232738
0.00240168
0.00239091
0.00238176
0.00237392
0.00236719
0.00236138
0.00235635
0.00235198
0.00234817
0.00234485
0.00234195
0.00233941
0.00233718
0.00233523
0.00233351
0.00233199
0.00233064
0.00232944
0.00232836
0.00232739
0.00240168
0.00239091
0.00238176
0.00237392
0.00236719
0.00236138
0.00235635
0.00235198
0.00234818
0.00234486
0.00234196
0.00233942
0.00233719
0.00233523
0.00233351
0.00233199
0.00233065
0.00232945
0.00232837
0.00232739
0.00240168
0.00239092
0.00238176
0.00237393
0.00236719
0.00236138
0.00235635
0.00235198
0.00234818
0.00234486
0.00234196
0.00233942
0.00233719
0.00233524
0.00233352
0.002332
0.00233065
0.00232945
0.00232837
0.0023274
0.00240168
0.00239092
0.00238176
0.00237393
0.0023672
0.00236139
0.00235636
0.00235199
0.00234818
0.00234486
0.00234196
0.00233942
0.0023372
0.00233524
0.00233352
0.002332
0.00233066
0.00232946
0.00232838
0.0023274
0.00240168
0.00239092
0.00238176
0.00237393
0.0023672
0.00236139
0.00235636
0.00235199
0.00234819
0.00234487
0.00234197
0.00233943
0.0023372
0.00233524
0.00233352
0.00233201
0.00233066
0.00232946
0.00232838
0.0023274
0.00240168
0.00239092
0.00238176
0.00237393
0.0023672
0.00236139
0.00235636
0.00235199
0.00234819
0.00234487
0.00234197
0.00233943
0.0023372
0.00233525
0.00233353
0.00233201
0.00233066
0.00232946
0.00232838
0.00232741
0.00240168
0.00239092
0.00238176
0.00237393
0.0023672
0.00236139
0.00235636
0.00235199
0.00234819
0.00234487
0.00234197
0.00233943
0.00233721
0.00233525
0.00233353
0.00233201
0.00233067
0.00232947
0.00232839
0.00232741
0.00240168
0.00239092
0.00238176
0.00237393
0.0023672
0.00236139
0.00235636
0.00235199
0.00234819
0.00234487
0.00234197
0.00233943
0.00233721
0.00233525
0.00233353
0.00233201
0.00233067
0.00232947
0.00232839
0.00232741
0.00240168
0.00239092
0.00238176
0.00237393
0.0023672
0.00236139
0.00235636
0.002352
0.00234819
0.00234488
0.00234198
0.00233944
0.00233721
0.00233525
0.00233353
0.00233202
0.00233067
0.00232947
0.00232839
0.00232742
0.00240168
0.00239092
0.00238176
0.00237393
0.0023672
0.00236139
0.00235636
0.002352
0.00234819
0.00234488
0.00234198
0.00233944
0.00233721
0.00233526
0.00233354
0.00233202
0.00233067
0.00232947
0.00232839
0.00232742
0.00240168
0.00239092
0.00238177
0.00237393
0.0023672
0.0023614
0.00235637
0.002352
0.0023482
0.00234488
0.00234198
0.00233944
0.00233721
0.00233526
0.00233354
0.00233202
0.00233068
0.00232948
0.0023284
0.00232742
0.00240168
0.00239092
0.00238177
0.00237393
0.0023672
0.0023614
0.00235637
0.002352
0.0023482
0.00234488
0.00234198
0.00233944
0.00233721
0.00233526
0.00233354
0.00233202
0.00233068
0.00232948
0.0023284
0.00232742
0.00240168
0.00239092
0.00238177
0.00237394
0.0023672
0.0023614
0.00235637
0.002352
0.0023482
0.00234488
0.00234198
0.00233944
0.00233722
0.00233526
0.00233354
0.00233202
0.00233068
0.00232948
0.0023284
0.00232742
2.50275e-05
2.20599e-05
1.96342e-05
1.76944e-05
1.6116e-05
1.48136e-05
1.37262e-05
1.28087e-05
1.2027e-05
1.13551e-05
1.07728e-05
1.02643e-05
9.817e-06
9.421e-06
9.06818e-06
8.75201e-06
8.46711e-06
8.20909e-06
7.9743e-06
7.75972e-06
7.56279e-06
7.3814e-06
7.21374e-06
7.05829e-06
6.91373e-06
6.77897e-06
6.65303e-06
6.5351e-06
6.42445e-06
6.32046e-06
6.22257e-06
6.13031e-06
6.04322e-06
5.96095e-06
5.88312e-06
5.80944e-06
5.7396e-06
5.67336e-06
5.61044e-06
5.55064e-06
5.4937e-06
5.43946e-06
5.38765e-06
5.33816e-06
5.29071e-06
5.24521e-06
5.20139e-06
5.15919e-06
5.11835e-06
5.07885e-06
5.04042e-06
5.00314e-06
4.96672e-06
4.93134e-06
4.89669e-06
4.86309e-06
4.83021e-06
4.79851e-06
4.76763e-06
4.73819e-06
4.70979e-06
4.68322e-06
4.65796e-06
4.63505e-06
4.61379e-06
4.59546e-06
4.57911e-06
4.56632e-06
4.55573e-06
4.54926e-06
4.545e-06
4.54527e-06
4.54737e-06
4.55419e-06
4.56197e-06
4.5744e-06
4.58644e-06
4.60295e-06
4.61727e-06
4.63544e-06
0.00051649
0.000372737
0.00030954
0.000272765
0.000248092
0.000230072
0.000216159
0.000204985
0.000195744
0.000187922
0.000181179
0.000175277
0.000170044
0.000165354
0.000161111
0.000157241
0.000153686
0.0001504
0.000147347
0.000144495
0.000141822
0.000139306
0.00013693
0.000134682
0.000132548
0.000130519
0.000128586
0.000126741
0.000124979
0.000123294
0.00012168
0.000120134
0.000118652
0.000117229
0.000115863
0.00011455
0.000113288
0.000112072
0.0001109
0.00010977
0.000108677
0.000107619
0.000106592
0.000105594
0.00010462
0.000103668
0.000102734
0.000101816
0.000100911
0.000100017
9.91312e-05
9.82538e-05
9.73835e-05
9.65219e-05
9.56692e-05
9.4829e-05
9.40033e-05
9.31982e-05
9.2417e-05
9.16685e-05
9.09574e-05
9.02948e-05
8.96861e-05
8.91446e-05
8.86752e-05
8.82927e-05
8.79995e-05
8.78105e-05
8.77231e-05
8.77505e-05
8.78818e-05
8.81272e-05
8.84644e-05
8.89008e-05
8.9402e-05
8.99762e-05
9.05778e-05
9.12195e-05
9.18449e-05
9.24094e-05
0.00130101
0.00102149
0.000851812
0.000739864
0.000660665
0.00060158
0.000555694
0.000518935
0.000488755
0.00046348
0.000441964
0.000423396
0.000407183
0.000392883
0.00038016
0.000368751
0.000358451
0.000349094
0.000340548
0.000332703
0.00032547
0.000318774
0.000312552
0.000306752
0.000301329
0.000296245
0.000291467
0.000286966
0.000282719
0.000278704
0.000274901
0.000271295
0.000267869
0.000264611
0.000261507
0.000258546
0.000255718
0.00025301
0.000250414
0.000247919
0.000245515
0.000243192
0.00024094
0.00023875
0.000236611
0.000234516
0.000232454
0.000230418
0.000228402
0.000226399
0.000224406
0.00022242
0.000220442
0.000218475
0.000216522
0.000214592
0.000212694
0.000210843
0.000209053
0.000207343
0.000205732
0.000204245
0.000202903
0.000201735
0.000200761
0.000200011
0.0001995
0.000199255
0.000199279
0.000199589
0.000200171
0.000201026
0.000202117
0.000203432
0.000204911
0.000206534
0.000208229
0.000209972
0.000211691
0.000213223
0.00181372
0.0015928
0.00140968
0.00126349
0.00114684
0.00105264
0.000975413
0.000911136
0.000856889
0.000810536
0.000770491
0.000735559
0.000704827
0.000677584
0.000653272
0.000631443
0.000611739
0.000593865
0.000577581
0.000562685
0.000549011
0.000536416
0.000524781
0.000514003
0.000503996
0.000494681
0.000485995
0.00047788
0.000470284
0.000463164
0.00045648
0.000450197
0.000444282
0.000438707
0.000433445
0.000428471
0.00042376
0.000419292
0.000415043
0.000410993
0.000407121
0.000403406
0.00039983
0.000396372
0.000393012
0.000389735
0.000386521
0.000383358
0.00038023
0.000377129
0.000374047
0.000370981
0.000367929
0.000364899
0.000361898
0.000358942
0.000356047
0.000353241
0.000350548
0.000348005
0.000345644
0.00034351
0.000341639
0.00034008
0.000338871
0.000338055
0.000337664
0.000337731
0.000338264
0.00033928
0.000340755
0.000342677
0.000344984
0.000347638
0.000350546
0.000353654
0.000356856
0.000360092
0.000363265
0.000366099
0.00207207
0.00194214
0.0018088
0.001683
0.00156914
0.00146806
0.001379
0.00130064
0.00123156
0.00117044
0.00111614
0.00106768
0.00102424
0.000985137
0.00094979
0.000917717
0.000888514
0.000861836
0.000837392
0.000814933
0.000794246
0.000775147
0.000757477
0.000741097
0.000725887
0.000711741
0.000698566
0.00068628
0.000674809
0.000664087
0.000654057
0.000644664
0.00063586
0.000627599
0.000619842
0.000612547
0.000605679
0.000599201
0.00059308
0.000587281
0.000581773
0.000576522
0.000571497
0.000566668
0.000562004
0.000557479
0.000553066
0.000548742
0.000544487
0.000540286
0.000536127
0.000532006
0.000527922
0.000523884
0.000519906
0.000516009
0.000512221
0.00050858
0.000505125
0.000501909
0.000498981
0.000496404
0.000494235
0.000492539
0.000491373
0.000490797
0.000490851
0.000491579
0.00049299
0.000495094
0.000497855
0.000501242
0.000505165
0.000509555
0.000514282
0.000519256
0.000524334
0.000529421
0.000534385
0.000538835
0.0021955
0.00212765
0.00204727
0.00196081
0.00187332
0.00178815
0.00170721
0.00163145
0.00156117
0.00149629
0.00143658
0.00138167
0.00133119
0.00128475
0.00124198
0.00120254
0.00116613
0.00113246
0.00110129
0.00107239
0.00104556
0.00102062
0.000997416
0.000975798
0.000955642
0.000936832
0.000919267
0.000902853
0.000887505
0.000873147
0.00085971
0.000847128
0.000835342
0.000824296
0.000813937
0.000804215
0.000795082
0.000786492
0.000778399
0.000770759
0.000763528
0.000756662
0.00075012
0.000743859
0.000737841
0.000732027
0.000726383
0.000720878
0.000715486
0.000710186
0.000704964
0.000699814
0.000694736
0.000689743
0.000684852
0.000680096
0.00067551
0.000671145
0.000667057
0.000663312
0.00065998
0.000657141
0.000654872
0.000653257
0.000652369
0.000652284
0.000653051
0.000654721
0.000657301
0.000660796
0.000665152
0.000670318
0.000676175
0.000682621
0.000689486
0.000696647
0.00070392
0.000711177
0.000718249
0.00072461
0.00225322
0.00222004
0.00217656
0.00212475
0.00206712
0.0020061
0.00194375
0.0018816
0.00182076
0.00176196
0.00170564
0.00165205
0.00160129
0.00155336
0.00150821
0.00146574
0.00142583
0.00138835
0.00135316
0.00132014
0.00128914
0.00126005
0.00123274
0.00120711
0.00118304
0.00116045
0.00113924
0.00111933
0.00110064
0.0010831
0.00106663
0.00105117
0.00103667
0.00102306
0.00101028
0.000998279
0.000987006
0.000976407
0.000966427
0.000957016
0.000948121
0.00093969
0.000931673
0.000924019
0.000916682
0.000909614
0.000902775
0.000896126
0.000889637
0.000883283
0.000877048
0.000870925
0.000864918
0.000859041
0.00085332
0.000847794
0.000842512
0.000837536
0.000832937
0.000828799
0.000825209
0.000822267
0.000820068
0.000818716
0.000818297
0.000818903
0.000820594
0.000823422
0.000827395
0.000832509
0.000838693
0.000845876
0.000853908
0.000862657
0.000871916
0.000881526
0.000891265
0.000900972
0.000910441
0.000918984
0.00227935
0.00226404
0.00224229
0.00221412
0.00218016
0.0021414
0.00209899
0.00205406
0.00200764
0.00196058
0.00191357
0.00186714
0.0018217
0.00177754
0.00173484
0.00169375
0.00165433
0.00161663
0.00158065
0.00154637
0.00151377
0.00148279
0.00145341
0.00142555
0.00139916
0.0013742
0.00135059
0.00132828
0.00130722
0.00128734
0.00126861
0.00125095
0.00123431
0.00121866
0.00120392
0.00119006
0.001177
0.00116472
0.00115313
0.00114221
0.00113187
0.00112208
0.00111277
0.00110389
0.00109539
0.0010872
0.0010793
0.00107163
0.00106416
0.00105687
0.00104973
0.00104275
0.00103592
0.00102927
0.00102283
0.00101666
0.0010108
0.00100534
0.00100036
0.000995966
0.00099226
0.00098936
0.000987381
0.000986444
0.000986652
0.00098811
0.000990885
0.000995036
0.00100057
0.00100747
0.00101565
0.00102502
0.00103541
0.00104665