/*--------------------------------*- C++ -*----------------------------------*\
| =========                 |                                                 |
| \\      /  F ield         | OpenFOAM: The Open Source CFD Toolbox           |
|  \\    /   O peration     | Version:  2.4.0                                 |
|   \\  /    A nd           | Web:      www.OpenFOAM.org                      |
|    \\/     M anipulation  |                                                 |
\*---------------------------------------------------------------------------*/
FoamFile
{
    version     2.0;
    format      ascii;
    class       volScalarField;
    location    "130";
    object      omega;
}
// * * * * * * * * * * * * * * * * * * * * * * * * * * * * * * * * * * * * * //

dimensions      [0 0 -1 0 0 0 0];

internalField   nonuniform List<scalar> 
10000
(
29.173
27.798
26.6899
25.7922
25.0592
24.4492
23.9314
23.4888
23.1093
22.7825
22.5
22.2552
22.0427
21.8588
21.7055
21.6096
21.7114
22.6769
28.0577
69.6575
29.173
27.798
26.6899
25.7921
25.0591
24.4491
23.9313
23.4887
23.1092
22.7824
22.4999
22.2551
22.0426
21.8586
21.7044
21.6022
21.6603
22.3201
25.2494
37.052
29.173
27.7979
26.6898
25.792
25.0589
24.4489
23.9311
23.4886
23.109
22.7822
22.4998
22.255
22.0424
21.8582
21.7025
21.5908
21.5932
21.9513
23.3435
27.3052
29.173
27.7979
26.6896
25.7917
25.0585
24.4485
23.9308
23.4883
23.1087
22.7819
22.4995
22.2547
22.0421
21.8576
21.7004
21.5794
21.5345
21.6848
22.2965
23.7809
29.1729
27.7978
26.6895
25.7914
25.0581
24.4481
23.9303
23.4878
23.1083
22.7815
22.4991
22.2543
22.0417
21.857
21.6983
21.5698
21.4918
21.519
21.7553
22.3273
29.1729
27.7977
26.6892
25.791
25.0575
24.4475
23.9298
23.4873
23.1078
22.781
22.4986
22.2538
22.0412
21.8563
21.6965
21.5628
21.464
21.424
21.4828
21.6844
29.1728
27.7975
26.689
25.7905
25.0568
24.4467
23.9291
23.4866
23.1072
22.7804
22.498
22.2532
22.0406
21.8555
21.695
21.5579
21.4472
21.3721
21.3478
21.3901
29.1728
27.7974
26.6886
25.7899
25.056
24.4458
23.9282
23.4858
23.1064
22.7796
22.4972
22.2525
22.0398
21.8547
21.6936
21.5545
21.4373
21.3447
21.2816
21.2534
29.1727
27.7972
26.6882
25.7892
25.0549
24.4447
23.9272
23.4848
23.1054
22.7787
22.4963
22.2516
22.0389
21.8538
21.6924
21.5522
21.4316
21.3304
21.2494
21.1894
29.1726
27.797
26.6877
25.7883
25.0537
24.4434
23.9259
23.4837
23.1043
22.7776
22.4953
22.2506
22.0379
21.8527
21.6912
21.5504
21.4281
21.3228
21.2336
21.1594
29.1725
27.7967
26.6872
25.7874
25.0524
24.4419
23.9245
23.4823
23.103
22.7763
22.4941
22.2494
22.0367
21.8515
21.6899
21.5488
21.4257
21.3185
21.2256
21.145
29.1724
27.7964
26.6866
25.7863
25.0508
24.4401
23.9229
23.4808
23.1015
22.7749
22.4926
22.248
22.0354
21.8502
21.6886
21.5473
21.4238
21.3158
21.2211
21.1377
29.1723
27.7961
26.6859
25.7851
25.049
24.4382
23.921
23.479
23.0998
22.7732
22.491
22.2464
22.0338
21.8486
21.687
21.5457
21.422
21.3136
21.2183
21.1336
29.1722
27.7957
26.6851
25.7837
25.047
24.436
23.9189
23.477
23.0978
22.7713
22.4892
22.2446
22.0321
21.8469
21.6853
21.544
21.4203
21.3117
21.2161
21.1309
29.172
27.7953
26.6843
25.7822
25.0449
24.4335
23.9165
23.4747
23.0956
22.7692
22.4871
22.2426
22.0301
21.8449
21.6834
21.5421
21.4183
21.3097
21.214
21.1286
29.1719
27.7949
26.6834
25.7806
25.0424
24.4307
23.9138
23.4721
23.0931
22.7667
22.4847
22.2403
22.0278
21.8427
21.6812
21.5399
21.4162
21.3076
21.2118
21.1263
29.1717
27.7944
26.6824
25.7788
25.0398
24.4276
23.9108
23.4692
23.0903
22.764
22.4821
22.2377
22.0253
21.8402
21.6787
21.5375
21.4138
21.3052
21.2094
21.1239
29.1715
27.7939
26.6813
25.7768
25.0369
24.4241
23.9074
23.466
23.0872
22.761
22.4791
22.2348
22.0224
21.8374
21.676
21.5348
21.4111
21.3025
21.2068
21.1213
29.1713
27.7934
26.6802
25.7748
25.0338
24.4204
23.9036
23.4624
23.0837
22.7576
22.4758
22.2315
22.0193
21.8343
21.6729
21.5318
21.4081
21.2996
21.2038
21.1184
29.171
27.7928
26.679
25.7726
25.0305
24.4162
23.8993
23.4584
23.0798
22.7538
22.4721
22.2279
22.0157
21.8309
21.6695
21.5284
21.4048
21.2963
21.2006
21.1152
29.1708
27.7921
26.6776
25.7702
25.0269
24.4118
23.8947
23.4539
23.0755
22.7496
22.468
22.2239
22.0118
21.827
21.6657
21.5246
21.4011
21.2926
21.1969
21.1115
29.1705
27.7915
26.6763
25.7678
25.0231
24.4069
23.8895
23.4489
23.0707
22.745
22.4635
22.2195
22.0074
21.8227
21.6614
21.5204
21.3969
21.2885
21.1929
21.1075
29.1702
27.7908
26.6748
25.7652
25.0191
24.4017
23.8839
23.4433
23.0654
22.7398
22.4584
22.2145
22.0025
21.8179
21.6567
21.5158
21.3923
21.2839
21.1883
21.103
29.17
27.79
26.6733
25.7625
25.0149
24.3962
23.8777
23.4372
23.0594
22.734
22.4528
22.209
21.9971
21.8125
21.6514
21.5106
21.3871
21.2788
21.1833
21.098
29.1696
27.7893
26.6718
25.7598
25.0106
24.3904
23.8711
23.4304
23.0528
22.7276
22.4465
22.2028
21.9911
21.8066
21.6456
21.5048
21.3814
21.2731
21.1776
21.0924
29.1693
27.7884
26.6702
25.7569
25.0061
24.3843
23.8639
23.4229
23.0455
22.7205
22.4395
22.196
21.9843
21.8
21.639
21.4983
21.375
21.2668
21.1713
21.0861
29.169
27.7876
26.6685
25.754
25.0016
24.378
23.8563
23.4148
23.0373
22.7125
22.4317
22.1883
21.9768
21.7925
21.6317
21.491
21.3678
21.2597
21.1643
21.0791
29.1687
27.7868
26.6668
25.751
24.9969
24.3715
23.8484
23.406
23.0284
22.7036
22.423
22.1798
21.9684
21.7842
21.6235
21.4829
21.3598
21.2517
21.1563
21.0712
29.1683
27.7859
26.6651
25.748
24.9922
24.3649
23.8401
23.3967
23.0186
22.6938
22.4133
22.1702
21.9589
21.7749
21.6142
21.4737
21.3507
21.2426
21.1473
21.0623
29.1679
27.785
26.6634
25.745
24.9875
24.3583
23.8316
23.3869
23.0081
22.683
22.4025
22.1594
21.9483
21.7643
21.6037
21.4633
21.3403
21.2323
21.1371
21.0521
29.1676
27.7841
26.6616
25.742
24.9828
24.3516
23.823
23.3768
22.9969
22.6713
22.3905
22.1475
21.9363
21.7524
21.5919
21.4515
21.3286
21.2206
21.1254
21.0404
29.1672
27.7832
26.6599
25.739
24.9781
24.345
23.8144
23.3664
22.9853
22.6589
22.3776
22.1343
21.923
21.739
21.5785
21.4381
21.3152
21.2072
21.112
21.0269
29.1668
27.7823
26.6581
25.7361
24.9736
24.3385
23.8059
23.3561
22.9735
22.6459
22.364
22.1201
21.9085
21.7243
21.5636
21.4231
21.3001
21.192
21.0967
21.0117
29.1664
27.7813
26.6564
25.7332
24.9691
24.3322
23.7976
23.3459
22.9616
22.6327
22.3498
22.1052
21.8931
21.7085
21.5475
21.4067
21.2835
21.1753
21.0798
20.9946
29.166
27.7804
26.6547
25.7304
24.9648
24.3261
23.7896
23.3359
22.9499
22.6196
22.3354
22.0899
21.877
21.6918
21.5304
21.3893
21.2657
21.1572
21.0615
20.976
29.1656
27.7795
26.653
25.7276
24.9607
24.3203
23.7819
23.3263
22.9385
22.6066
22.3212
22.0746
21.8608
21.6749
21.5128
21.3712
21.2472
21.1384
21.0423
20.9565
29.1652
27.7786
26.6514
25.725
24.9567
24.3147
23.7745
23.3172
22.9277
22.5942
22.3074
22.0596
21.8448
21.6581
21.4953
21.3531
21.2286
21.1193
21.0228
20.9367
29.1648
27.7777
26.6498
25.7224
24.9529
24.3094
23.7676
23.3086
22.9175
22.5825
22.2942
22.0453
21.8295
21.6418
21.4783
21.3354
21.2104
21.1006
21.0037
20.9171
29.1644
27.7769
26.6482
25.72
24.9493
24.3045
23.7612
23.3006
22.9079
22.5714
22.2819
22.0318
21.8149
21.6264
21.4621
21.3186
21.1929
21.0826
20.9853
20.8983
29.1641
27.776
26.6468
25.7176
24.9459
24.2998
23.7552
23.2931
22.899
22.5613
22.2705
22.0192
21.8014
21.612
21.447
21.3028
21.1766
21.0658
20.968
20.8805
29.1637
27.7752
26.6453
25.7154
24.9427
24.2955
23.7496
23.2863
22.8909
22.5519
22.26
22.0077
21.789
21.5988
21.4331
21.2883
21.1615
21.0502
20.952
20.8641
29.1633
27.7744
26.644
25.7133
24.9397
24.2915
23.7445
23.28
22.8835
22.5434
22.2505
21.9973
21.7777
21.5868
21.4204
21.2751
21.1478
21.0361
20.9374
20.8492
29.163
27.7737
26.6427
25.7113
24.9369
24.2878
23.7398
23.2743
22.8768
22.5357
22.2419
21.9879
21.7676
21.576
21.409
21.2632
21.1355
21.0233
20.9243
20.8357
29.1626
27.7729
26.6414
25.7095
24.9343
24.2844
23.7355
23.2691
22.8707
22.5288
22.2342
21.9794
21.7585
21.5663
21.3988
21.2525
21.1244
21.0119
20.9125
20.8237
29.1623
27.7722
26.6403
25.7077
24.9319
24.2812
23.7315
23.2643
22.8652
22.5225
22.2272
21.9719
21.7504
21.5577
21.3898
21.243
21.1146
21.0017
20.9021
20.813
29.162
27.7716
26.6392
25.7061
24.9297
24.2783
23.728
23.2601
22.8602
22.517
22.2211
21.9652
21.7431
21.5501
21.3817
21.2347
21.1059
20.9928
20.8929
20.8035
29.1617
27.7709
26.6381
25.7046
24.9277
24.2757
23.7247
23.2562
22.8558
22.512
22.2156
21.9592
21.7368
21.5433
21.3746
21.2272
21.0982
20.9849
20.8847
20.7952
29.1614
27.7703
26.6371
25.7032
24.9258
24.2733
23.7218
23.2528
22.8518
22.5075
22.2107
21.9539
21.7311
21.5373
21.3683
21.2207
21.0915
20.9779
20.8776
20.7879
29.1611
27.7698
26.6362
25.7019
24.924
24.2711
23.7191
23.2497
22.8483
22.5036
22.2063
21.9492
21.7261
21.532
21.3628
21.215
21.0855
20.9718
20.8713
20.7815
29.1609
27.7692
26.6354
25.7007
24.9225
24.2691
23.7168
23.2469
22.8451
22.5
22.2025
21.9451
21.7217
21.5274
21.358
21.2099
21.0803
20.9664
20.8658
20.7758
29.1606
27.7687
26.6346
25.6996
24.921
24.2673
23.7146
23.2444
22.8423
22.4969
22.1991
21.9414
21.7178
21.5233
21.3537
21.2055
21.0757
20.9617
20.861
20.7709
29.1604
27.7683
26.6339
25.6986
24.9197
24.2657
23.7127
23.2422
22.8398
22.4941
22.1961
21.9382
21.7144
21.5197
21.3499
21.2016
21.0717
20.9576
20.8568
20.7666
29.1602
27.7678
26.6332
25.6976
24.9185
24.2642
23.7109
23.2402
22.8375
22.4917
22.1934
21.9353
21.7114
21.5165
21.3466
21.1982
21.0682
20.954
20.8531
20.7628
29.1599
27.7674
26.6326
25.6968
24.9174
24.2629
23.7094
23.2384
22.8355
22.4895
22.191
21.9328
21.7087
21.5137
21.3437
21.1952
21.0651
20.9508
20.8498
20.7595
29.1598
27.7671
26.632
25.696
24.9164
24.2617
23.708
23.2368
22.8338
22.4875
22.1889
21.9306
21.7064
21.5113
21.3412
21.1926
21.0624
20.948
20.847
20.7566
29.1596
27.7667
26.6315
25.6953
24.9155
24.2606
23.7067
23.2354
22.8322
22.4858
22.1871
21.9286
21.7043
21.5091
21.339
21.1903
21.06
20.9456
20.8445
20.7541
29.1594
27.7664
26.631
25.6947
24.9147
24.2597
23.7056
23.2341
22.8308
22.4843
22.1855
21.9269
21.7025
21.5072
21.337
21.1882
21.0579
20.9435
20.8423
20.7518
29.1593
27.7661
26.6306
25.6941
24.914
24.2588
23.7046
23.233
22.8295
22.4829
22.184
21.9253
21.7009
21.5055
21.3352
21.1864
21.0561
20.9416
20.8404
20.7499
29.1591
27.7658
26.6302
25.6935
24.9133
24.258
23.7037
23.2319
22.8284
22.4817
22.1827
21.924
21.6994
21.5041
21.3337
21.1849
21.0545
20.9399
20.8387
20.7482
29.159
27.7656
26.6298
25.6931
24.9127
24.2573
23.7029
23.231
22.8274
22.4807
22.1816
21.9228
21.6982
21.5028
21.3324
21.1835
21.0531
20.9385
20.8372
20.7467
29.1589
27.7654
26.6295
25.6926
24.9122
24.2567
23.7022
23.2302
22.8266
22.4797
22.1806
21.9217
21.6971
21.5016
21.3312
21.1823
21.0518
20.9372
20.8359
20.7453
29.1587
27.7652
26.6292
25.6922
24.9117
24.2561
23.7015
23.2295
22.8258
22.4789
22.1797
21.9208
21.6961
21.5006
21.3301
21.1812
21.0507
20.9361
20.8348
20.7442
29.1586
27.765
26.6289
25.6919
24.9113
24.2556
23.7009
23.2289
22.8251
22.4782
22.1789
21.92
21.6952
21.4997
21.3292
21.1802
21.0498
20.9351
20.8338
20.7431
29.1586
27.7648
26.6287
25.6916
24.9109
24.2552
23.7004
23.2283
22.8245
22.4775
22.1782
21.9192
21.6945
21.4989
21.3284
21.1794
21.0489
20.9342
20.8329
20.7422
29.1585
27.7647
26.6285
25.6913
24.9106
24.2548
23.7
23.2278
22.8239
22.4769
22.1776
21.9186
21.6938
21.4982
21.3277
21.1787
21.0482
20.9335
20.8321
20.7415
29.1584
27.7645
26.6283
25.691
24.9103
24.2544
23.6996
23.2274
22.8235
22.4764
22.1771
21.918
21.6932
21.4976
21.3271
21.178
21.0475
20.9328
20.8314
20.7408
29.1583
27.7644
26.6281
25.6908
24.91
24.2541
23.6992
23.227
22.823
22.4759
22.1766
21.9175
21.6927
21.4971
21.3265
21.1775
21.0469
20.9322
20.8308
20.7401
29.1583
27.7643
26.6279
25.6906
24.9097
24.2538
23.6989
23.2266
22.8227
22.4755
22.1761
21.9171
21.6922
21.4966
21.326
21.1769
21.0464
20.9317
20.8303
20.7396
29.1582
27.7642
26.6278
25.6904
24.9095
24.2535
23.6986
23.2263
22.8223
22.4752
22.1758
21.9167
21.6918
21.4962
21.3256
21.1765
21.0459
20.9312
20.8298
20.7391
29.1581
27.7641
26.6277
25.6902
24.9093
24.2533
23.6983
23.226
22.822
22.4749
22.1754
21.9163
21.6914
21.4958
21.3252
21.1761
21.0455
20.9308
20.8294
20.7387
29.1581
27.764
26.6275
25.6901
24.9091
24.2531
23.6981
23.2258
22.8218
22.4746
22.1751
21.916
21.6911
21.4955
21.3248
21.1758
21.0452
20.9304
20.829
20.7383
29.1581
27.7639
26.6274
25.69
24.909
24.2529
23.6979
23.2256
22.8215
22.4743
22.1749
21.9157
21.6908
21.4952
21.3245
21.1754
21.0449
20.9301
20.8287
20.738
29.158
27.7639
26.6273
25.6898
24.9088
24.2528
23.6977
23.2254
22.8213
22.4741
22.1746
21.9155
21.6906
21.4949
21.3243
21.1752
21.0446
20.9298
20.8284
20.7377
29.158
27.7638
26.6273
25.6897
24.9087
24.2526
23.6976
23.2252
22.8211
22.4739
22.1744
21.9153
21.6904
21.4947
21.324
21.1749
21.0443
20.9296
20.8281
20.7374
29.1579
27.7637
26.6272
25.6896
24.9086
24.2525
23.6974
23.2251
22.8209
22.4737
22.1742
21.9151
21.6902
21.4945
21.3238
21.1747
21.0441
20.9294
20.8279
20.7372
29.1579
27.7637
26.6271
25.6896
24.9085
24.2524
23.6973
23.2249
22.8208
22.4736
22.1741
21.9149
21.69
21.4943
21.3236
21.1745
21.0439
20.9292
20.8277
20.737
29.1579
27.7636
26.6271
25.6895
24.9084
24.2523
23.6972
23.2248
22.8207
22.4734
22.1739
21.9148
21.6898
21.4941
21.3235
21.1744
21.0437
20.929
20.8275
20.7368
29.1579
27.7636
26.627
25.6894
24.9083
24.2522
23.6971
23.2247
22.8206
22.4733
22.1738
21.9146
21.6897
21.494
21.3233
21.1742
21.0436
20.9288
20.8274
20.7367
29.1579
27.7636
26.6269
25.6894
24.9083
24.2521
23.697
23.2246
22.8204
22.4732
22.1737
21.9145
21.6896
21.4939
21.3232
21.1741
21.0435
20.9287
20.8272
20.7365
29.1578
27.7635
26.6269
25.6893
24.9082
24.252
23.6969
23.2245
22.8204
22.4731
22.1736
21.9144
21.6895
21.4937
21.3231
21.174
21.0433
20.9286
20.8271
20.7364
29.1578
27.7635
26.6269
25.6892
24.9081
24.252
23.6969
23.2244
22.8203
22.473
22.1735
21.9143
21.6894
21.4936
21.323
21.1738
21.0432
20.9285
20.827
20.7363
29.1578
27.7635
26.6268
25.6892
24.9081
24.2519
23.6968
23.2244
22.8202
22.4729
22.1734
21.9142
21.6893
21.4935
21.3229
21.1738
21.0431
20.9284
20.8269
20.7362
29.1578
27.7635
26.6268
25.6892
24.908
24.2519
23.6967
23.2243
22.8201
22.4729
22.1733
21.9141
21.6892
21.4935
21.3228
21.1737
21.0431
20.9283
20.8268
20.7361
29.1578
27.7634
26.6268
25.6891
24.908
24.2518
23.6967
23.2242
22.8201
22.4728
22.1733
21.9141
21.6891
21.4934
21.3227
21.1736
21.043
20.9282
20.8267
20.736
29.1578
27.7634
26.6267
25.6891
24.908
24.2518
23.6966
23.2242
22.82
22.4728
22.1732
21.914
21.6891
21.4933
21.3227
21.1735
21.0429
20.9281
20.8267
20.7359
29.1578
27.7634
26.6267
25.6891
24.9079
24.2517
23.6966
23.2241
22.82
22.4727
22.1732
21.914
21.689
21.4933
21.3226
21.1735
21.0428
20.9281
20.8266
20.7359
29.1577
27.7634
26.6267
25.689
24.9079
24.2517
23.6966
23.2241
22.8199
22.4727
22.1731
21.9139
21.689
21.4932
21.3226
21.1734
21.0428
20.928
20.8266
20.7358
29.1577
27.7634
26.6267
25.689
24.9079
24.2517
23.6965
23.2241
22.8199
22.4726
22.1731
21.9139
21.6889
21.4932
21.3225
21.1734
21.0427
20.928
20.8265
20.7358
29.1577
27.7634
26.6267
25.689
24.9079
24.2516
23.6965
23.224
22.8199
22.4726
22.1731
21.9138
21.6889
21.4931
21.3225
21.1733
21.0427
20.9279
20.8265
20.7357
29.1577
27.7634
26.6267
25.689
24.9078
24.2516
23.6965
23.224
22.8198
22.4726
22.173
21.9138
21.6888
21.4931
21.3224
21.1733
21.0427
20.9279
20.8264
20.7357
29.1577
27.7633
26.6266
25.689
24.9078
24.2516
23.6965
23.224
22.8198
22.4725
22.173
21.9138
21.6888
21.4931
21.3224
21.1733
21.0426
20.9279
20.8264
20.7357
29.1577
27.7633
26.6266
25.689
24.9078
24.2516
23.6964
23.224
22.8198
22.4725
22.173
21.9137
21.6888
21.4931
21.3224
21.1732
21.0426
20.9278
20.8264
20.7356
29.1577
27.7633
26.6266
25.6889
24.9078
24.2516
23.6964
23.224
22.8198
22.4725
22.1729
21.9137
21.6888
21.493
21.3224
21.1732
21.0426
20.9278
20.8263
20.7356
29.1577
27.7633
26.6266
25.6889
24.9078
24.2516
23.6964
23.2239
22.8198
22.4725
22.1729
21.9137
21.6887
21.493
21.3223
21.1732
21.0426
20.9278
20.8263
20.7356
29.1577
27.7633
26.6266
25.6889
24.9078
24.2515
23.6964
23.2239
22.8197
22.4725
22.1729
21.9137
21.6887
21.493
21.3223
21.1732
21.0425
20.9278
20.8263
20.7356
29.1577
27.7633
26.6266
25.6889
24.9078
24.2515
23.6964
23.2239
22.8197
22.4724
22.1729
21.9137
21.6887
21.493
21.3223
21.1732
21.0425
20.9277
20.8263
20.7355
29.1577
27.7633
26.6266
25.6889
24.9077
24.2515
23.6964
23.2239
22.8197
22.4724
22.1729
21.9137
21.6887
21.493
21.3223
21.1732
21.0425
20.9277
20.8263
20.7355
29.1577
27.7633
26.6266
25.6889
24.9077
24.2515
23.6964
23.2239
22.8197
22.4724
22.1729
21.9137
21.6887
21.493
21.3223
21.1731
21.0425
20.9277
20.8263
20.7355
29.1577
27.7633
26.6266
25.6889
24.9077
24.2515
23.6964
23.2239
22.8197
22.4724
22.1729
21.9137
21.6887
21.493
21.3223
21.1731
21.0425
20.9277
20.8263
20.7355
29.1577
27.7633
26.6266
25.6889
24.9077
24.2515
23.6964
23.2239
22.8197
22.4724
22.1729
21.9137
21.6887
21.493
21.3223
21.1732
21.0425
20.9278
20.8263
20.7356
948.09
888.215
837.873
795.083
758.387
726.668
699.052
674.847
653.496
634.552
617.646
602.477
588.796
576.395
565.102
554.771
545.28
536.524
528.418
520.885
513.862
507.295
501.137
495.347
489.891
484.739
479.864
475.243
470.856
466.687
462.718
458.935
455.328
451.883
448.591
445.442
442.427
439.538
436.768
434.107
431.55
429.088
426.716
424.425
422.21
420.063
417.979
415.951
413.974
412.042
410.153
408.3
406.485
404.702
402.955
401.241
399.567
397.931
396.346
394.808
393.338
391.93
390.611
389.372
388.248
387.225
386.344
385.581
384.987
384.52
384.245
384.09
384.136
384.275
384.612
384.992
385.558
386.092
386.801
387.36
91.2187
122.189
141.685
154.53
163.137
168.865
172.553
174.76
175.874
176.175
175.87
175.112
174.018
172.677
171.158
169.514
167.785
166.004
164.195
162.376
160.564
158.768
156.998
155.259
153.558
151.897
150.279
148.706
147.179
145.698
144.265
142.879
141.539
140.245
138.998
137.795
136.637
135.522
134.449
133.418
132.427
131.475
130.56
129.681
128.837
128.025
127.245
126.494
125.771
125.075
124.402
123.752
123.124
122.516
121.926
121.356
120.803
120.268
119.75
119.253
118.773
118.317
117.88
117.471
117.084
116.73
116.404
116.115
115.857
115.644
115.464
115.334
115.237
115.196
115.181
115.224
115.282
115.404
115.519
115.757
36.8795
46.2809
54.52
61.5209
67.4078
72.3313
76.4289
79.8189
82.6018
84.8631
86.6759
88.1027
89.1973
90.0062
90.5694
90.9218
91.0935
91.1108
90.9964
90.77
90.449
90.0482
89.5807
89.0579
88.4895
87.8842
87.2495
86.5918
85.9169
85.2297
84.5345
83.8351
83.1347
82.4363
81.7422
81.0546
80.3754
79.706
79.0479
78.4022
77.7696
77.151
76.5469
75.9575
75.383
74.8235
74.2789
73.7488
73.2329
72.7309
72.242
71.7658
71.3015
70.8489
70.4072
69.9764
69.5557
69.1455
68.7455
68.3567
67.9786
67.6133
67.2605
66.9229
66.6004
66.2968
66.0115
65.7496
65.5096
65.2979
65.1113
64.9576
64.8308
64.7404
64.6756
64.6487
64.6422
64.6749
64.7186
64.8242
26.6161
30.0389
33.5789
37.0044
40.2116
43.1587
45.8345
48.2423
50.3929
52.3002
53.9798
55.4479
56.7203
57.8125
58.7394
59.5149
60.1523
60.6642
61.0622
61.357
61.5588
61.6768
61.7196
61.6952
61.6109
61.4733
61.2886
61.0625
60.8
60.5059
60.1845
59.8398
59.4753
59.0942
58.6996
58.2942
57.8804
57.4604
57.0362
56.6096
56.1822
55.7554
55.3303
54.9081
54.4896
54.0755
53.6665
53.2629
52.8651
52.4732
52.0873
51.7075
51.3337
50.9659
50.6039
50.2478
49.8975
49.5532
49.215
48.8835
48.5589
48.2423
47.9341
47.6359
47.3485
47.0739
46.8129
46.5684
46.3409
46.1338
45.947
45.7844
45.6444
45.5312
45.4411
45.3789
45.3372
45.3235
45.3254
45.3652
23.362
24.7663
26.3928
28.1223
29.873
31.5923
33.2473
34.8181
36.2931
37.6659
38.9339
40.0968
41.156
42.114
42.9742
43.7404
44.4169
45.008
45.5185
45.9529
46.316
46.6123
46.8462
47.0223
47.1448
47.2177
47.245
47.2304
47.1777
47.0901
46.971
46.8234
46.6501
46.454
46.2376
46.0033
45.7534
45.4898
45.2147
44.9298
44.6367
44.3371
44.0321
43.7232
43.4115
43.0978
42.7831
42.4682
42.1536
41.8398
41.5273
41.2165
40.9075
40.6007
40.2962
39.9942
39.695
39.3989
39.1061
38.8171
38.5325
38.2529
37.9789
37.7119
37.4525
37.2024
36.9626
36.735
36.5207
36.3219
36.1393
35.9754
35.8301
35.7058
35.601
35.5183
35.454
35.4117
35.3851
35.3854
22.0754
22.6642
23.4177
24.2904
25.2395
26.2294
27.2329
28.2294
29.204
30.1458
31.0469
31.9018
32.7068
33.4594
34.1583
34.8027
35.3928
35.9291
36.4125
36.8442
37.2259
37.559
37.8457
38.0877
38.2872
38.4463
38.5672
38.652
38.7028
38.7219
38.7113
38.6732
38.6096
38.5224
38.4136
38.285
38.1385
37.9756
37.7982
37.6076
37.4054
37.193
36.9717
36.7426
36.5069
36.2656
36.0196
35.7697
35.5167
35.2612
35.0039
34.7452
34.4855
34.2253
33.9649
33.7047
33.4451
33.1864
32.929
32.6735
32.4204
32.1703
31.924
31.6823
31.4461
31.2168
30.9952
30.7829
30.5811
30.3913
30.2146
30.0526
29.906
29.7762
29.6629
29.5674
29.4881
29.4267
29.3799
29.3543
21.5165
21.7433
22.0712
22.4893
22.9808
23.5278
24.1134
24.7227
25.3433
25.9651
26.5798
27.1808
27.763
28.3222
28.8553
29.3598
29.8338
30.2762
30.6861
31.0629
31.4064
31.7168
31.9944
32.2396
32.4532
32.6359
32.7886
32.9125
33.0085
33.0779
33.1218
33.1415
33.1383
33.1135
33.0684
33.0042
32.9223
32.8239
32.7103
32.5827
32.4422
32.2901
32.1273
31.955
31.774
31.5855
31.3901
31.1887
30.9821
30.771
30.5558
30.3373
30.1159
29.8921
29.6665
29.4393
29.211
28.9822
28.7532
28.5246
28.297
28.0709
27.8471
27.6264
27.4095
27.1976
26.9917
26.7928
26.6022
26.4211
26.2505
26.0919
25.9458
25.8135
25.6951
25.5914
25.5018
25.4271
25.3656
25.3217
21.2637
21.3232
21.4389
21.6123
21.8403
22.1164
22.4328
22.7811
23.153
23.5412
23.9391
24.3407
24.7411
25.1361
25.5221
25.8962
26.2557
26.5987
26.9234
27.2287
27.5133
27.7766
28.0179
28.237
28.4336
28.6078
28.7597
28.8895
28.9976
29.0844
29.1506
29.1967
29.2234
29.2315
29.2217
29.1949
29.1518
29.0934
29.0204
28.9339
28.8347
28.7236
28.6015
28.4692
28.3276
28.1774
28.0193
27.8541
27.6825
27.5051
27.3225
27.1352
26.9438
26.7487
26.5505
26.3497
26.1467
25.9419
25.736
25.5293
25.3225
25.1162
24.911
24.7076
24.5069
24.3097
24.117
23.9298
23.7491
23.5759
23.4113
23.2563
23.1118
22.9786
22.8571
22.7479
22.6509
22.5667
22.4941
22.4368
21.1476
21.1287
21.1388
21.1821
21.2604
21.3734
21.5188
21.6934
21.893
22.1132
22.3495
22.5979
22.8543
23.1152
23.3773
23.6377
23.894
24.144
24.3856
24.6173
24.8376
25.0454
25.2396
25.4195
25.5843
25.7337
25.8672
25.9846
26.0859
26.1709
26.2398
26.2928
26.33
26.3519
26.3588
26.351
26.3292
26.2938
26.2453
26.1844
26.1116
26.0276
25.933
25.8284
25.7144
25.5916
25.4607
25.3222
25.1768
25.0249
24.8671
24.704
24.536
24.3636
24.1873
24.0075
23.8248
23.6395
23.4523
23.2636
23.0739
22.8838
22.6941
22.5052
22.318
22.1333
21.9519
21.7747
21.6025
21.4364
21.2772
21.1259
20.9833
20.8501
20.7267
20.6139
20.5115
20.42
20.339
20.2716
21.0939
21.0384
20.9967
20.9724
20.9682
20.9858
21.026
21.0883
21.1715
21.2738
21.3928
21.5261
21.6711
21.8252
21.986
22.1512
22.3185
22.4859
22.6517
22.8141
22.9717
23.1232
23.2674
23.4032
23.5299
23.6467
23.7529
23.848
23.9316
24.0034
24.0632
24.1108
24.1461
24.1693
24.1803
24.1794
24.1666
24.1423
24.1067
24.0602
24.0031
23.9358
23.8587
23.7723
23.677
23.5733
23.4616
23.3423
23.2161
23.0832
22.9442
22.7995
22.6496
22.4949
22.3358
22.1728
22.0063
21.8368
21.6648
21.4907
21.3151
21.1385
20.9615
20.7848
20.6089
20.4347
20.2628
20.0941
19.9293
19.7694
19.6151
19.4673
19.3266
19.1938
19.0694
18.9539
18.8474
18.7504
18.6627
18.5874
21.0688
20.9964
20.9298
20.8713
20.8232
20.7874
20.7653
20.7579
20.7655
20.7879
20.8244
20.8741
20.9355
21.0072
21.0876
21.1751
21.2681
21.365
21.4643
21.5646
21.6644
21.7626
21.858
21.9496
22.0364
22.1175
22.1923
22.2601
22.3202
22.3723
22.4158
22.4505
22.4761
22.4923
22.4992
22.4965
22.4843
22.4626
22.4316
22.3912
22.3418
22.2835
22.2165
22.1411
22.0576
21.9663
21.8675
21.7616
21.6488
21.5297
21.4045
21.2736
21.1374
20.9962
20.8505
20.7006
20.547
20.3901
20.2303
20.0681
19.904
19.7384
19.572
19.4053
19.2388
19.0733
18.9095
18.748
18.5896
18.435
18.285
18.1402
18.0014
17.8693
17.7442
17.6268
17.5172
17.4158
17.3227
17.2411
21.0568
20.9767
20.8984
20.8232
20.7525
20.6878
20.6305
20.5818
20.5425
20.5132
20.4942
20.4854
20.4865
20.4968
20.5156
20.5421
20.5751
20.6137
20.6568
20.7032
20.7519
20.8018
20.852
20.9015
20.9494
20.995
21.0373
21.0757
21.1097
21.1386
21.1618
21.1791
21.1899
21.194
21.1912
21.181
21.1635
21.1385
21.106
21.0658
21.0181
20.9629
20.9002
20.8302
20.7531
20.669
20.5782
20.4807
20.377
20.2673
20.1517
20.0307
19.9045
19.7735
19.6379
19.4981
19.3545
19.2075
19.0574
18.9047
18.7498
18.5932
18.4353
18.2768
18.1182
17.9599
17.8028
17.6473
17.4942
17.3441
17.1978
17.0557
16.9187
16.7871
16.6617
16.5428
16.4307
16.3257
16.2282
16.1414
21.0507
20.9671
20.8834
20.8002
20.7184
20.6388
20.5624
20.4903
20.4233
20.3622
20.3076
20.2598
20.2192
20.1858
20.1593
20.1395
20.126
20.1181
20.1153
20.1168
20.1218
20.1297
20.1397
20.1509
20.1627
20.1744
20.1851
20.1943
20.2014
20.2058
20.207
20.2044
20.1977
20.1864
20.1702
20.1488
20.122
20.0895
20.0511
20.0068
19.9563
19.8998
19.8371
19.7682
19.6933
19.6122
19.5253
19.4325
19.3341
19.2301
19.1208
19.0064
18.8872
18.7633
18.6351
18.5027
18.3667
18.2272
18.0846
17.9393
17.7917
17.6422
17.4913
17.3394
17.187
17.0347
16.8831
16.7326
16.5839
16.4376
16.2942
16.1545
16.0189
15.8879
15.7622
15.642
15.5278
15.4199
15.3186
15.2275
21.047
20.962
20.8759
20.789
20.7018
20.6148
20.5286
20.4439
20.3613
20.2815
20.2051
20.1327
20.0648
20.0016
19.9433
19.8901
19.8419
19.7985
19.7596
19.725
19.6943
19.6668
19.6423
19.6201
19.5996
19.5803
19.5617
19.5432
19.5242
19.5043
19.483
19.4597
19.4341
19.4057
19.3741
19.3391
19.3003
19.2574
19.2103
19.1586
19.1023
19.0411
18.9751
18.904
18.8279
18.7467
18.6604
18.5691
18.4729
18.3718
18.2659
18.1555
18.0405
17.9213
17.798
17.6709
17.5402
17.4062
17.2692
17.1295
16.9875
16.8435
16.698
16.5513
16.404
16.2564
16.1091
15.9626
15.8175
15.6742
15.5333
15.3954
15.2609
15.1304
15.0044
14.8831
14.7671
14.6566
14.552
14.4573
21.0443
20.9587
20.8715
20.783
20.6933
20.6028
20.5117
20.4205
20.3295
20.2393
20.1504
20.0632
19.9781
19.8957
19.8162
19.74
19.6671
19.5977
19.5319
19.4695
19.4105
19.3546
19.3016
19.2512
19.203
19.1567
19.1118
19.068
19.0249
18.9819
18.9388
18.8951
18.8504
18.8043
18.7565
18.7066
18.6543
18.5993
18.5414
18.4803
18.4157
18.3476
18.2757
18.1999
18.12
18.0361
17.948
17.8557
17.7592
17.6585
17.5537
17.4449
17.332
17.2154
17.095
16.9711
16.8439
16.7136
16.5805
16.4448
16.3068
16.1669
16.0254
15.8827
15.7391
15.5952
15.4513
15.3079
15.1655
15.0246
14.8856
14.7491
14.6155
14.4852
14.3588
14.2365
14.1188
14.006
13.8986
13.8007
21.0419
20.956
20.8684
20.7792
20.6884
20.5963
20.5029
20.4084
20.3132
20.2175
20.1216
20.0259
19.9308
19.8366
19.7436
19.6523
19.5627
19.4753
19.3901
19.3074
19.227
19.1491
19.0736
19.0004
18.9294
18.8603
18.7929
18.7269
18.6622
18.5983
18.535
18.472
18.4089
18.3455
18.2813
18.2162
18.1498
18.0818
18.0119
17.94
17.8658
17.789
17.7095
17.6271
17.5417
17.453
17.3611
17.2658
17.167
17.0648
16.9591
16.8499
16.7373
16.6214
16.5022
16.3799
16.2545
16.1264
15.9956
15.8625
15.7272
15.5901
15.4514
15.3115
15.1707
15.0294
14.888
14.7469
14.6066
14.4673
14.3297
14.1941
14.061
13.9308
13.8038
13.6805
13.5613
13.4464
13.3362
13.2356
21.0395
20.9535
20.8657
20.7762
20.685
20.5921
20.4977
20.4017
20.3044
20.2059
20.1064
20.0061
19.9053
19.8042
19.7032
19.6024
19.5022
19.4028
19.3045
19.2074
19.1118
19.0176
18.9251
18.8343
18.7451
18.6576
18.5716
18.487
18.4037
18.3215
18.2403
18.1598
18.0797
18
17.9202
17.8402
17.7597
17.6785
17.5964
17.513
17.4282
17.3418
17.2536
17.1633
17.0709
16.9761
16.8788
16.7789
16.6763
16.5709
16.4628
16.3517
16.2378
16.1211
16.0015
15.8793
15.7544
15.6271
15.4974
15.3656
15.2318
15.0963
14.9593
14.8212
14.6822
14.5427
14.4029
14.2634
14.1243
13.9862
13.8494
13.7144
13.5814
13.4509
13.3233
13.199
13.0781
12.9612
12.8486
12.7454
21.0369
20.9508
20.863
20.7734
20.682
20.5888
20.4939
20.3973
20.299
20.1992
20.0978
19.9952
19.8913
19.7865
19.6808
19.5745
19.4678
19.3609
19.2541
19.1475
19.0414
18.9358
18.8311
18.7272
18.6243
18.5225
18.4218
18.3222
18.2236
18.1261
18.0295
17.9337
17.8386
17.7441
17.6499
17.556
17.4621
17.3681
17.2738
17.1789
17.0833
16.9868
16.8892
16.7903
16.69
16.588
16.4843
16.3787
16.2711
16.1614
16.0494
15.9353
15.8188
15.7
15.5788
15.4554
15.3298
15.2021
15.0723
14.9407
14.8073
14.6725
14.5363
14.399
14.2609
14.1223
13.9835
13.8447
13.7064
13.5689
13.4324
13.2974
13.1643
13.0333
12.9049
12.7793
12.6569
12.538
12.4231
12.3175
21.034
20.948
20.8601
20.7705
20.6791
20.5858
20.4907
20.3938
20.2951
20.1946
20.0924
19.9886
19.8832
19.7764
19.6682
19.5588
19.4483
19.337
19.2249
19.1123
18.9994
18.8862
18.773
18.66
18.5472
18.4349
18.3231
18.2118
18.1012
17.9913
17.882
17.7734
17.6655
17.5581
17.4513
17.3449
17.2387
17.1328
17.0269
16.9209
16.8147
16.7081
16.601
16.4932
16.3845
16.2748
16.164
16.0519
15.9384
15.8234
15.7068
15.5885
15.4684
15.3465
15.2227
15.0971
14.9698
14.8406
14.7098
14.5774
14.4436
14.3084
14.1721
14.0349
13.8969
13.7585
13.6199
13.4813
13.3431
13.2056
13.069
12.9338
12.8001
12.6684
12.5389
12.412
12.288
12.1671
12.0499
11.942
21.0308
20.9448
20.857
20.7673
20.6759
20.5826
20.4874
20.3904
20.2915
20.1908
20.0883
19.9839
19.8778
19.77
19.6605
19.5495
19.437
19.3231
19.208
19.0918
18.9746
18.8566
18.738
18.6188
18.4992
18.3795
18.2596
18.1397
18.02
17.9005
17.7813
17.6625
17.544
17.426
17.3083
17.1911
17.0741
16.9575
16.8411
16.7249
16.6086
16.4924
16.376
16.2593
16.1422
16.0246
15.9064
15.7873
15.6674
15.5465
15.4245
15.3013
15.1769
15.0511
14.9239
14.7953
14.6653
14.5339
14.4012
14.2672
14.1321
13.9958
13.8587
13.7208
13.5823
13.4434
13.3043
13.1654
13.0268
12.8888
12.7517
12.6157
12.4812
12.3485
12.2178
12.0894
11.9636
11.8407
11.7213
11.6112
21.0272
20.9412
20.8534
20.7638
20.6724
20.5791
20.4839
20.3869
20.288
20.1872
20.0845
19.9799
19.8735
19.7652
19.6551
19.5433
19.4297
19.3145
19.1977
19.0794
18.9598
18.8389
18.7168
18.5937
18.4698
18.345
18.2196
18.0938
17.9675
17.841
17.7143
17.5875
17.4608
17.3342
17.2077
17.0814
16.9554
16.8295
16.7039
16.5785
16.4532
16.328
16.2029
16.0778
15.9526
15.8272
15.7015
15.5754
15.4489
15.3217
15.1939
15.0654
14.936
14.8057
14.6745
14.5423
14.409
14.2747
14.1394
14.0032
13.866
13.728
13.5894
13.4501
13.3104
13.1705
13.0305
12.8906
12.7511
12.6122
12.4741
12.3371
12.2015
12.0675
11.9353
11.8053
11.6777
11.5527
11.431
11.3188
21.0232
20.9372
20.8495
20.7599
20.6685
20.5753
20.4801
20.3831
20.2842
20.1834
20.0806
19.976