/*--------------------------------*- C++ -*----------------------------------*\
| =========                 |                                                 |
| \\      /  F ield         | OpenFOAM: The Open Source CFD Toolbox           |
|  \\    /   O peration     | Version:  2.4.0                                 |
|   \\  /    A nd           | Web:      www.OpenFOAM.org                      |
|    \\/     M anipulation  |                                                 |
\*---------------------------------------------------------------------------*/
FoamFile
{
    version     2.0;
    format      ascii;
    class       surfaceScalarField;
    location    "6.16";
    object      phi;
}
// * * * * * * * * * * * * * * * * * * * * * * * * * * * * * * * * * * * * * //

dimensions      [0 3 -1 0 0 0 0];

internalField   nonuniform List<scalar> 
11840
(
7.83456e-07
9.21654e-06
-9.36133e-07
1.71959e-06
6.58853e-07
-1.59499e-06
1.47105e-07
5.11748e-07
-2.03495e-07
3.506e-07
-3.03752e-07
1.00257e-07
-4.0924e-07
1.05488e-07
-5.00981e-07
9.17408e-08
-6.71786e-07
1.70805e-07
-7.9975e-07
1.27964e-07
-9.91886e-07
1.92135e-07
-1.14164e-06
1.4975e-07
-1.33604e-06
1.94408e-07
-1.52463e-06
1.8859e-07
-1.75028e-06
2.25642e-07
-1.9812e-06
2.30926e-07
-2.22273e-06
2.4153e-07
-2.45688e-06
2.34146e-07
-2.68335e-06
2.26468e-07
-2.89447e-06
2.11124e-07
-3.08806e-06
1.93593e-07
-3.26453e-06
1.76469e-07
-3.42707e-06
1.62539e-07
-3.57386e-06
1.46789e-07
-3.70316e-06
1.293e-07
-3.81292e-06
1.09764e-07
-3.90124e-06
8.8321e-08
-3.96602e-06
6.47756e-08
-4.00481e-06
3.8786e-08
-4.01402e-06
9.21113e-09
-3.99229e-06
-2.17258e-08
-3.9398e-06
-5.24887e-08
-3.85551e-06
-8.42927e-08
-3.73806e-06
-1.17446e-07
-3.58647e-06
-1.51592e-07
-3.39982e-06
-1.86649e-07
-3.17783e-06
-2.21995e-07
-2.91993e-06
-2.57896e-07
-2.62702e-06
-2.92913e-07
-2.2984e-06
-3.28622e-07
-1.93727e-06
-3.61121e-07
-1.54123e-06
-3.96046e-07
-1.11843e-06
-4.22799e-07
-6.61868e-07
-4.56562e-07
-1.87575e-07
-4.74293e-07
3.16868e-07
-5.04443e-07
8.20402e-07
-5.03535e-07
1.36514e-06
-5.44736e-07
1.87695e-06
-5.11809e-07
2.45787e-06
-5.8092e-07
2.94173e-06
-4.83867e-07
3.56573e-06
-6.23999e-07
3.96238e-06
-3.9665e-07
4.6645e-06
-7.02114e-07
4.87683e-06
-2.12337e-07
5.73839e-06
-8.61557e-07
5.61485e-06
1.23543e-07
6.8069e-06
-1.19206e-06
6.23836e-06
5.68541e-07
-2.30105e-06
2.45135e-06
1.67652e-05
-5.06759e-07
4.67769e-06
3.68498e-07
-2.47024e-06
-8.58473e-08
9.66093e-07
-3.10833e-07
5.75585e-07
-4.69366e-07
2.5879e-07
-5.7325e-07
2.09373e-07
-6.86585e-07
2.05076e-07
-8.58457e-07
3.42677e-07
-1.00617e-06
2.75678e-07
-1.19197e-06
3.77935e-07
-1.35876e-06
3.16538e-07
-1.55172e-06
3.87365e-07
-1.75297e-06
3.89843e-07
-1.97655e-06
4.49223e-07
-2.20564e-06
4.60018e-07
-2.43593e-06
4.71816e-07
-2.65782e-06
4.56039e-07
-2.86939e-06
4.3804e-07
-3.06739e-06
4.0912e-07
-3.25141e-06
3.77609e-07
-3.42101e-06
3.46071e-07
-3.57537e-06
3.16902e-07
-3.71244e-06
2.8386e-07
-3.8304e-06
2.47255e-07
-3.92728e-06
2.06648e-07
-4.00122e-06
1.62257e-07
-4.05032e-06
1.13879e-07
-4.07275e-06
6.12148e-08
-4.06779e-06
4.25643e-09
-4.03372e-06
-5.57985e-08
-3.96851e-06
-1.17695e-07
-3.87049e-06
-1.82318e-07
-3.73838e-06
-2.4955e-07
-3.57122e-06
-3.18761e-07
-3.36822e-06
-3.89641e-07
-3.12905e-06
-4.61171e-07
-2.85351e-06
-5.33436e-07
-2.54206e-06
-6.04362e-07
-2.1951e-06
-6.75581e-07
-1.81418e-06
-7.42039e-07
-1.40018e-06
-8.1005e-07
-9.56041e-07
-8.66936e-07
-4.83415e-07
-9.29188e-07
1.37457e-08
-9.71454e-07
5.32657e-07
-1.02335e-06
1.0665e-06
-1.03737e-06
1.62014e-06
-1.09838e-06
2.17564e-06
-1.06731e-06
2.75063e-06
-1.1559e-06
3.30391e-06
-1.03715e-06
3.88956e-06
-1.20965e-06
4.40635e-06
-9.13439e-07
5.00465e-06
-1.30041e-06
5.43045e-06
-6.38146e-07
6.07944e-06
-1.51054e-06
6.32646e-06
-1.23474e-07
7.13964e-06
-2.00524e-06
7.1943e-06
5.13883e-07
-3.78111e-06
3.60687e-06
2.31583e-05
1.73014e-08
8.26727e-06
5.85364e-08
-2.51148e-06
-3.04219e-07
1.32885e-06
-3.679e-07
6.39266e-07
-5.35389e-07
4.2628e-07
-6.26805e-07
3.00788e-07
-7.48175e-07
3.26446e-07
-9.05193e-07
4.99694e-07
-1.05955e-06
4.30039e-07
-1.23329e-06
5.51675e-07
-1.40354e-06
4.86784e-07
-1.58946e-06
5.73289e-07
-1.788e-06
5.88378e-07
-2.0024e-06
6.63624e-07
-2.22274e-06
6.80361e-07
-2.44245e-06
6.91527e-07
-2.65494e-06
6.68523e-07
-2.85759e-06
6.40688e-07
-3.04828e-06
5.99813e-07
-3.22626e-06
5.55595e-07
-3.39044e-06
5.10251e-07
-3.53921e-06
4.65665e-07
-3.67063e-06
4.15286e-07
-3.78288e-06
3.59505e-07
-3.87405e-06
2.9781e-07
-3.94227e-06
2.30484e-07
-3.98576e-06
1.57367e-07
-4.0029e-06
7.83581e-08
-3.99233e-06
-6.317e-09
-3.95256e-06
-9.55725e-08
-3.88149e-06
-1.88763e-07
-3.77764e-06
-2.86164e-07
-3.63981e-06
-3.87386e-07
-3.46701e-06
-4.91553e-07
-3.25856e-06
-5.98097e-07
-3.01407e-06
-7.05662e-07
-2.73346e-06
-8.14043e-07
-2.41709e-06
-9.20727e-07
-2.06562e-06
-1.02705e-06
-1.68022e-06
-1.12744e-06
-1.26247e-06
-1.2278e-06
-8.14243e-07
-1.31517e-06
-3.38776e-07
-1.40465e-06
1.6191e-07
-1.47214e-06
6.83681e-07
-1.54513e-06
1.22372e-06
-1.57742e-06
1.77852e-06
-1.65318e-06
2.34302e-06
-1.63181e-06
2.9148e-06
-1.72768e-06
3.48409e-06
-1.60643e-06
4.05592e-06
-1.78149e-06
4.60585e-06
-1.46337e-06
5.16474e-06
-1.8593e-06
5.66386e-06
-1.13726e-06
6.21297e-06
-2.05966e-06
6.62162e-06
-5.32123e-07
7.20645e-06
-2.59007e-06
7.57933e-06
1.41007e-07
-4.77936e-06
4.52839e-06
2.86299e-05
7.56479e-07
1.20392e-05
-2.33867e-07
-1.52113e-06
-4.60166e-07
1.55515e-06
-3.98832e-07
5.77932e-07
-5.66784e-07
5.94231e-07
-6.47736e-07
3.8174e-07
-7.73283e-07
4.51993e-07
-9.18199e-07
6.44611e-07
-1.07411e-06
5.85952e-07
-1.24018e-06
7.17747e-07
-1.41004e-06
6.56637e-07
-1.5907e-06
7.5395e-07
-1.78463e-06
7.82307e-07
-1.99113e-06
8.70129e-07
-2.20348e-06
8.92714e-07
-2.41477e-06
9.0281e-07
-2.61966e-06
8.73419e-07
-2.8153e-06
8.3632e-07
-2.99988e-06
7.84392e-07
-3.17235e-06
7.28067e-07
-3.33128e-06
6.69185e-07
-3.47482e-06
6.09206e-07
-3.60112e-06
5.41585e-07
-3.70834e-06
4.66724e-07
-3.79459e-06
3.84063e-07
-3.85806e-06
2.93954e-07
-3.897e-06
1.96304e-07
-3.90979e-06
9.11528e-08
-3.89498e-06
-2.11307e-08
-3.85091e-06
-1.39647e-07
-3.77572e-06
-2.63945e-07
-3.66799e-06
-3.93903e-07
-3.52651e-06
-5.28866e-07
-3.35033e-06
-6.67725e-07
-3.13879e-06
-8.09641e-07
-2.89151e-06
-9.52944e-07
-2.60845e-06
-1.0971e-06
-2.28994e-06
-1.23924e-06
-1.93672e-06
-1.38027e-06
-1.54984e-06
-1.51431e-06
-1.13112e-06
-1.64652e-06
-6.82078e-07
-1.76421e-06
-2.06318e-07
-1.88041e-06
2.94742e-07
-1.9732e-06
8.16486e-07
-2.06687e-06
1.35747e-06
-2.1184e-06
1.91152e-06
-2.20723e-06
2.47747e-06
-2.19776e-06
3.04669e-06
-2.29691e-06
3.61942e-06
-2.17917e-06
4.18469e-06
-2.34676e-06
4.74392e-06
-2.0226e-06
5.28651e-06
-2.40189e-06
5.81014e-06
-1.66088e-06
6.31851e-06
-2.56803e-06
6.78836e-06
-1.00197e-06
7.27578e-06
-3.07748e-06
7.77619e-06
-3.59406e-07
-5.54109e-06
5.3045e-06
3.33254e-05
1.49043e-06
1.58533e-05
-2.60189e-07
2.29484e-07
-5.51613e-07
1.84657e-06
-4.19475e-07
4.45794e-07
-5.83044e-07
7.57801e-07
-6.55748e-07
4.54444e-07
-7.82324e-07
5.78569e-07
-9.18055e-07
7.80341e-07
-1.07271e-06
7.40603e-07
-1.23319e-06
8.78235e-07
-1.4011e-06
8.2454e-07
-1.57709e-06
9.29945e-07
-1.76583e-06
9.71047e-07
-1.96499e-06
1.06929e-06
-2.16975e-06
1.09747e-06
-2.37339e-06
1.10645e-06
-2.57132e-06
1.07134e-06
-2.76052e-06
1.02552e-06
-2.93928e-06
9.6316e-07
-3.10634e-06
8.95118e-07
-3.26005e-06
8.22896e-07
-3.39847e-06
7.47626e-07
-3.51979e-06
6.62909e-07
-3.62219e-06
5.6912e-07
-3.70379e-06
4.65671e-07
-3.76282e-06
3.5298e-07
-3.79755e-06
2.31032e-07
-3.80636e-06
9.99673e-08
-3.78773e-06
-3.97658e-08
-3.73995e-06
-1.87423e-07
-3.66132e-06
-3.42577e-07
-3.55042e-06
-5.04799e-07
-3.40609e-06
-6.73195e-07
-3.2274e-06
-8.46419e-07
-3.01368e-06
-1.02336e-06
-2.76457e-06
-1.20205e-06
-2.48007e-06
-1.38161e-06
-2.16048e-06
-1.55883e-06
-1.80659e-06
-1.73416e-06
-1.4194e-06
-1.9015e-06
-1.00079e-06
-2.06513e-06
-5.52196e-07
-2.2128e-06
-7.72075e-08
-2.3554e-06
4.22882e-07
-2.47329e-06
9.43441e-07
-2.58743e-06
1.48339e-06
-2.65835e-06
2.03561e-06
-2.75945e-06
2.60037e-06
-2.76251e-06
3.16668e-06
-2.86322e-06
3.73877e-06
-2.75126e-06
4.29914e-06
-2.90712e-06
4.86009e-06
-2.58356e-06
5.39328e-06
-2.93508e-06
5.92544e-06
-2.19304e-06
6.41305e-06
-3.05564e-06
6.90833e-06
-1.49725e-06
7.3485e-06
-3.51766e-06
7.90067e-06
-9.11572e-07
-6.17125e-06
5.9754e-06
3.735e-05
2.23992e-06
1.95887e-05
-6.37078e-08
2.53311e-06
-5.83321e-07
2.36618e-06
-4.36562e-07
2.99036e-07
-5.90694e-07
9.11932e-07
-6.5671e-07
5.2046e-07
-7.8229e-07
7.04149e-07
-9.10483e-07
9.08535e-07
-1.06248e-06
8.92602e-07
-1.21821e-06
1.03396e-06
-1.38342e-06
9.89746e-07
-1.55489e-06
1.10142e-06
-1.73818e-06
1.15434e-06
-1.93023e-06
1.26134e-06
-2.12757e-06
1.29481e-06
-2.32389e-06
1.30278e-06
-2.51508e-06
1.26253e-06
-2.69804e-06
1.20848e-06
-2.87105e-06
1.13617e-06
-3.03265e-06
1.05672e-06
-3.18109e-06
9.71336e-07
-3.31438e-06
8.80918e-07
-3.43075e-06
7.79278e-07
-3.52837e-06
6.66743e-07
-3.60541e-06
5.42713e-07
-3.6601e-06
4.07669e-07
-3.69075e-06
2.61674e-07
-3.69572e-06
1.04945e-07
-3.67345e-06
-6.2035e-08
-3.62226e-06
-2.3862e-07
-3.5405e-06
-4.24336e-07
-3.42681e-06
-6.18493e-07
-3.28003e-06
-8.19974e-07
-3.09925e-06
-1.0272e-06
-2.88382e-06
-1.23879e-06
-2.6334e-06
-1.45247e-06
-2.34799e-06
-1.66702e-06
-2.02789e-06
-1.87892e-06
-1.67392e-06
-2.08813e-06
-1.28705e-06
-2.28837e-06
-8.69201e-07
-2.48298e-06
-4.21732e-07
-2.66027e-06
5.18433e-08
-2.82898e-06
5.50209e-07
-2.97165e-06
1.06883e-06
-3.10605e-06
1.6067e-06
-3.19621e-06
2.15632e-06
-3.30907e-06
2.71856e-06
-3.32475e-06
3.28146e-06
-3.42612e-06
3.85105e-06
-3.32084e-06
4.40681e-06
-3.46288e-06
4.9663e-06
-3.14305e-06
5.49243e-06
-3.46121e-06
6.02665e-06
-2.72726e-06
6.50118e-06
-3.53017e-06
7.0074e-06
-2.00346e-06
7.42068e-06
-3.93094e-06
7.99345e-06
-1.48434e-06
-6.71526e-06
6.56066e-06
4.07894e-05
2.97381e-06
2.31756e-05
2.29669e-07
5.27725e-06
-5.36707e-07
3.13256e-06
-4.51447e-07
2.13776e-07
-5.9243e-07
1.05292e-06
-6.52794e-07
5.80824e-07
-7.76189e-07
8.27544e-07
-8.97734e-07
1.03008e-06
-1.04634e-06
1.0412e-06
-1.19762e-06
1.18525e-06
-1.35968e-06
1.15181e-06
-1.52663e-06
1.26836e-06
-1.70431e-06
1.33202e-06
-1.88936e-06
1.44639e-06
-2.07936e-06
1.48481e-06
-2.2685e-06
1.49191e-06
-2.45301e-06
1.44704e-06
-2.62975e-06
1.38522e-06
-2.79696e-06
1.30338e-06
-2.95302e-06
1.21277e-06
-3.0961e-06
1.11442e-06
-3.2242e-06
1.00902e-06
-3.33556e-06
8.90645e-07
-3.42839e-06
7.59568e-07
-3.50086e-06
6.15183e-07
-3.55122e-06
4.58033e-07
-3.5778e-06
2.88256e-07
-3.57898e-06
1.06129e-07
-3.55316e-06
-8.78567e-08
-3.49868e-06
-2.93103e-07
-3.41396e-06
-5.09053e-07
-3.29767e-06
-7.34786e-07
-3.14867e-06
-9.68975e-07
-2.96606e-06
-1.20981e-06
-2.74921e-06
-1.45563e-06
-2.49779e-06
-1.70389e-06
-2.21181e-06
-1.953e-06
-1.89158e-06
-2.19915e-06
-1.53793e-06
-2.44179e-06
-1.15181e-06
-2.6745e-06
-7.35135e-07
-2.89965e-06
-2.89261e-07
-3.10615e-06
1.82433e-07
-3.30067e-06
6.78546e-07
-3.46777e-06
1.19467e-06
-3.62218e-06
1.72973e-06
-3.73127e-06
2.27616e-06
-3.85551e-06
2.83505e-06
-3.88364e-06
3.39407e-06
-3.98514e-06
3.96005e-06
-3.88682e-06
4.51109e-06
-4.01393e-06
5.06742e-06
-3.69937e-06
5.58739e-06
-3.98119e-06
6.12044e-06
-3.26031e-06
6.58534e-06
-3.99508e-06
7.09548e-06
-2.5136e-06
7.4913e-06
-4.32676e-06
8.07001e-06
-2.06305e-06
-7.19591e-06
7.07171e-06
4.37177e-05
3.68638e-06
2.65609e-05
6.53174e-07
8.31046e-06
-4.0696e-07
4.19269e-06
-4.60273e-07
2.67089e-07
-5.89377e-07
1.18202e-06
-6.4491e-07
6.36356e-07
-7.65475e-07
9.48109e-07
-8.80874e-07
1.14548e-06
-1.02564e-06
1.18597e-06
-1.17257e-06
1.33218e-06
-1.33117e-06
1.31041e-06
-1.49353e-06
1.43071e-06
-1.6655e-06
1.504e-06
-1.8436e-06
1.62448e-06
-2.02629e-06
1.66751e-06
-2.20827e-06
1.67388e-06
-2.38609e-06
1.62486e-06
-2.55657e-06
1.5557e-06
-2.71787e-06
1.46469e-06
-2.86827e-06
1.36317e-06
-3.00587e-06
1.25202e-06
-3.12868e-06
1.13183e-06
-3.23496e-06
9.96923e-07
-3.32291e-06
8.47523e-07
-3.39075e-06
6.83024e-07
-3.43675e-06
5.04028e-07
-3.45924e-06
3.10749e-07
-3.45662e-06
1.03506e-07
-3.42727e-06
-1.17209e-07
-3.36956e-06
-3.50812e-07
-3.28197e-06
-5.96643e-07
-3.16318e-06
-8.5357e-07
-3.01209e-06
-1.12006e-06
-2.82782e-06
-1.39409e-06
-2.60974e-06
-1.67371e-06
-2.35753e-06
-1.95609e-06
-2.07123e-06
-2.23931e-06
-1.75114e-06
-2.51924e-06
-1.39809e-06
-2.79484e-06
-1.01303e-06
-3.05955e-06
-5.97872e-07
-3.31481e-06
-1.53955e-07
-3.55006e-06
3.15476e-07
-3.7701e-06
8.08911e-07
-3.9612e-06
1.32207e-06
-4.13534e-06
1.85377e-06
-4.26296e-06
2.39652e-06
-4.39826e-06
2.95142e-06
-4.43854e-06
3.50611e-06
-4.53982e-06
4.06772e-06
-4.44844e-06
4.61381e-06
-4.56002e-06
5.16589e-06
-4.25145e-06
5.68001e-06
-4.49531e-06
6.20999e-06
-3.79029e-06
6.66699e-06
-4.45208e-06
7.17715e-06
-3.02376e-06
7.56033e-06
-4.70994e-06
8.13724e-06
-2.63996e-06
-7.62622e-06
7.51715e-06
4.62005e-05
4.37134e-06
2.97067e-05
1.17986e-06
1.15019e-05
-2.08056e-07
5.58061e-06
-4.53568e-07
5.12602e-07
-5.81624e-07
1.31008e-06
-6.33388e-07
6.88121e-07
-7.50862e-07
1.06558e-06
-8.60438e-07
1.25506e-06
-1.0011e-06
1.32663e-06
-1.14366e-06
1.47475e-06
-1.29856e-06
1.46531e-06
-1.45624e-06
1.58839e-06
-1.62244e-06
1.6702e-06
-1.79359e-06
1.79564e-06
-1.96899e-06
1.8429e-06
-2.14378e-06
1.84868e-06
-2.31484e-06
1.79592e-06
-2.47896e-06
1.71982e-06
-2.63424e-06
1.61997e-06
-2.77883e-06
1.50776e-06
-2.91083e-06
1.38401e-06
-3.02822e-06
1.24922e-06
-3.1293e-06
1.098e-06
-3.21229e-06
9.3051e-07
-3.27541e-06
7.46149e-07
-3.31697e-06
5.45582e-07
-3.33531e-06
3.29092e-07
-3.32884e-06
9.70329e-08
-3.29594e-06
-1.50109e-07
-3.23501e-06
-4.11736e-07
-3.14459e-06
-6.87069e-07
-3.02337e-06
-9.74785e-07
-2.87028e-06
-1.27316e-06
-2.68444e-06
-1.57992e-06
-2.46527e-06
-1.89288e-06
-2.21244e-06
-2.20892e-06
-1.92599e-06
-2.52576e-06
-1.60624e-06
-2.83899e-06
-1.25403e-06
-3.14705e-06
-8.703e-07
-3.44329e-06
-4.56937e-07
-3.72817e-06
-1.52777e-08
-3.99172e-06
4.51551e-07
-4.23693e-06
9.41938e-07
-4.45159e-06
1.45172e-06
-4.64513e-06
1.9796e-06
-4.79084e-06
2.51822e-06
-4.93689e-06
3.06862e-06
-4.98893e-06
3.61856e-06
-5.08976e-06
4.17522e-06
-5.00511e-06
4.71605e-06
-5.10085e-06
5.26312e-06
-4.79852e-06
5.77141e-06
-5.00359e-06
6.29709e-06
-4.31597e-06
6.74703e-06
-4.90201e-06
7.2548e-06
-3.53153e-06
7.62797e-06
-5.08311e-06
8.19859e-06
-3.21058e-06
-8.01445e-06
7.90468e-06
4.82958e-05
5.0228e-06
3.25886e-05
1.77272e-06
1.4752e-05
5.69929e-08
7.29634e-06
-4.21257e-07
9.90851e-07
-5.68226e-07
1.45704e-06
-6.18199e-07
7.38093e-07
-7.32654e-07
1.18004e-06
-8.3667e-07
1.35907e-06
-9.73061e-07
1.46302e-06
-1.11121e-06
1.6129e-06
-1.2622e-06
1.6163e-06
-1.41512e-06
1.7413e-06
-1.57548e-06
1.83055e-06
-1.73971e-06
1.95987e-06
-1.90778e-06
2.01098e-06
-2.07535e-06
2.01625e-06
-2.23956e-06
1.96012e-06
-2.39719e-06
1.87746e-06
-2.5463e-06
1.76908e-06
-2.68495e-06
1.64641e-06
-2.81119e-06
1.51025e-06
-2.92303e-06
1.36107e-06
-3.01879e-06
1.19376e-06
-3.09669e-06
1.00841e-06
-3.155e-06
8.04455e-07
-3.19202e-06
5.82601e-07
-3.20613e-06
3.43203e-07
-3.19574e-06
8.66427e-08
-3.15925e-06
-1.86598e-07
-3.0951e-06
-4.7589e-07
-3.00184e-06
-7.80325e-07
-2.87822e-06
-1.09841e-06
-2.72317e-06
-1.42821e-06
-2.53584e-06
-1.76725e-06
-2.31567e-06
-2.11306e-06
-2.06233e-06
-2.46226e-06
-1.77589e-06
-2.8122e-06
-1.45667e-06
-3.15822e-06
-1.1055e-06
-3.49822e-06
-7.23317e-07
-3.82547e-06
-3.11991e-07
-4.1395e-06
1.27136e-07
-4.43085e-06
5.91055e-07
-4.70085e-06
1.07806e-06
-4.93859e-06
1.58409e-06
-5.15116e-06
2.10774e-06
-5.31449e-06
2.64182e-06
-5.47097e-06
3.18727e-06
-5.53438e-06
3.73206e-06
-5.63455e-06
4.28327e-06
-5.55632e-06
4.8185e-06
-5.63608e-06
5.35996e-06
-5.33998e-06
5.86228e-06
-5.50592e-06
6.38279e-06
-4.83648e-06
6.82608e-06
-5.3453e-06
7.32985e-06
-4.03531e-06
7.69446e-06
-5.44772e-06
8.25604e-06
-3.77216e-06
-8.3662e-06
8.24126e-06
5.00546e-05
5.63617e-06
3.51937e-05
2.4101e-06
1.79781e-05
4.33971e-07
9.27248e-06
-3.52796e-07
1.77762e-06
-5.46844e-07
1.65109e-06
-5.98971e-07
7.9022e-07
-7.10863e-07
1.29193e-06
-8.09615e-07
1.45782e-06
-9.41677e-07
1.59508e-06
-1.07533e-06
1.74655e-06
-1.22226e-06
1.76323e-06
-1.37033e-06
1.88937e-06
-1.52481e-06
1.98504e-06
-1.68213e-06
2.11719e-06
-1.84286e-06
2.17171e-06
-2.00314e-06
2.17653e-06
-2.16038e-06
2.11737e-06
-2.31141e-06
2.02848e-06
-2.45419e-06
1.91186e-06
-2.58673e-06
1.77894e-06
-2.70707e-06
1.63058e-06
-2.81322e-06
1.46722e-06
-2.90351e-06
1.28405e-06
-2.97621e-06
1.0811e-06
-3.02957e-06
8.57822e-07
-3.06195e-06
6.14977e-07
-3.07173e-06
3.52986e-07
-3.05735e-06
7.22565e-08
-3.01721e-06
-2.26734e-07
-2.94979e-06
-5.43309e-07
-2.85369e-06
-8.76429e-07
-2.72767e-06
-1.22443e-06
-2.57069e-06
-1.58519e-06
-2.38193e-06
-1.95601e-06
-2.16082e-06
-2.33417e-06
-1.90709e-06
-2.71599e-06
-1.62078e-06
-3.0985e-06
-1.30223e-06
-3.47677e-06
-9.52275e-07
-3.84817e-06
-5.71848e-07
-4.2059e-06
-1.62783e-07
-4.54856e-06
2.7356e-07
-4.86719e-06
7.34276e-07
-5.16157e-06
1.21758e-06
-5.42189e-06
1.7195e-06
-5.65308e-06
2.23854e-06
-5.83353e-06
2.7677e-06
-6.00013e-06
3.30779e-06
-6.07447e-06
3.84703e-06
-6.17379e-06
4.39235e-06
-6.10163e-06
4.92164e-06
-6.16538e-06
5.45697e-06
-5.87531e-06
5.95313e-06
-6.00208e-06
6.46777e-06
-5.35112e-06
6.90456e-06
-5.78209e-06
7.40319e-06
-4.53393e-06
7.76002e-06
-5.80455e-06
8.31078e-06
-4.32293e-06
-8.68555e-06
8.5331e-06
5.15215e-05
6.20814e-06
3.75186e-05
3.06979e-06
2.11164e-05
8.67299e-07
1.1475e-05
-2.22034e-07
2.86695e-06
-5.12779e-07
1.94184e-06
-5.7489e-07
8.52331e-07
-6.85258e-07
1.4023e-06
-7.79159e-07
1.55173e-06
-9.06935e-07
1.72285e-06
-1.03603e-06
1.87564e-06
-1.17877e-06
1.90597e-06
-1.32192e-06
2.03253e-06
-1.47051e-06
2.13362e-06
-1.62091e-06
2.26759e-06
-1.77428e-06
2.32508e-06
-1.92721e-06
2.32946e-06
-2.07738e-06
2.26754e-06
-2.22165e-06
2.17275e-06
-2.35796e-06
2.04817e-06
-2.48423e-06
1.90522e-06
-2.5985e-06
1.74485e-06
-2.69881e-06
1.56754e-06
-2.7835e-06
1.36874e-06
-2.85085e-06
1.14845e-06
-2.89915e-06
9.06125e-07
-2.92677e-06
6.42595e-07
-2.93212e-06
3.58339e-07
-2.91365e-06
5.37853e-08
-2.86979e-06
-2.70586e-07
-2.79906e-06
-6.14043e-07
-2.70008e-06
-9.75408e-07
-2.57165e-06
-1.35285e-06
-2.41276e-06
-1.74408e-06
-2.22259e-06
-2.14617e-06
-2.00062e-06
-2.55614e-06
-1.74657e-06
-2.97005e-06
-1.46051e-06
-3.38457e-06
-1.14276e-06
-3.79451e-06
-7.9419e-07
-4.19674e-06
-4.15707e-07
-4.58438e-06
-9.11643e-09
-4.95515e-06
4.24202e-07
-5.30051e-06
8.81432e-07
-5.6188e-06
1.36073e-06
-5.90118e-06
1.85821e-06
-6.15057e-06
2.37229e-06
-6.34761e-06
2.89615e-06
-6.52399e-06
3.43049e-06
-6.6088e-06
3.96381e-06
-6.70712e-06
4.50281e-06
-6.64063e-06
5.02581e-06
-6.68838e-06
5.55456e-06
-6.40407e-06
6.0443e-06
-6.49182e-06
6.55252e-06
-5.85934e-06
6.9828e-06
-6.21238e-06
7.47539e-06
-5.02652e-06
7.82483e-06
-6.154e-06
8.3636e-06
-4.86169e-06
-8.97558e-06
8.78576e-06
5.27357e-05
6.73677e-06
3.95676e-05
3.73575e-06
2.41175e-05
1.36133e-06
1.38494e-05
-8.91797e-09
4.2372e-06
-4.57378e-07
2.3903e-06
-5.44441e-07
9.39394e-07
-6.55334e-07
1.51319e-06
-7.45037e-07
1.64143e-06
-8.68693e-07
1.84651e-06
-9.93214e-07
2.00016e-06
-1.13167e-06
2.04442e-06
-1.26986e-06
2.17072e-06
-1.41254e-06
2.27631e-06
-1.55605e-06
2.4111e-06
-1.70205e-06
2.47107e-06
-1.84755e-06
2.47496e-06
-1.99054e-06
2.41053e-06
-2.12791e-06
2.31012e-06
-2.25758e-06
2.17784e-06
-2.37743e-06
2.02507e-06
-2.48548e-06
1.8529e-06
-2.5798e-06
1.66186e-06
-2.65874e-06
1.44768e-06
-2.72059e-06
1.2103e-06
-2.7637e-06
9.49232e-07
-2.78644e-06
6.65333e-07
-2.78725e-06
3.59151e-07
-2.7646e-06
3.1135e-08
-2.71696e-06
-3.18231e-07
-2.64285e-06
-6.88148e-07
-2.54096e-06
-1.0773e-06
-2.4101e-06
-1.48371e-06
-2.24929e-06
-1.90489e-06
-2.05775e-06
-2.33771e-06
-1.83497e-06
-2.77892e-06
-1.58067e-06
-3.22435e-06
-1.29495e-06
-3.67028e-06
-9.78145e-07
-4.11131e-06
-6.31104e-07
-4.54379e-06
-2.54744e-07
-4.96074e-06
1.49167e-07
-5.35906e-06
5.79226e-07
-5.73057e-06
1.0327e-06
-6.07227e-06
1.50769e-06
-6.37617e-06
2.0004e-06
-6.64328e-06
2.50918e-06
-6.85639e-06
3.02739e-06
-7.0422e-06
3.55559e-06
-7.13701e-06
4.08262e-06
-7.23414e-06
4.61491e-06
-7.17292e-06
5.13126e-06
-7.20472e-06
5.65302e-06
-6.92583e-06
6.13605e-06
-6.97485e-06
6.63735e-06
-6.36064e-06
7.06101e-06
-6.63603e-06
7.54686e-06
-5.51238e-06
7.88907e-06
-6.4962e-06
8.41502e-06
-5.38765e-06
-9.23872e-06
9.00423e-06
5.37315e-05
7.22132e-06
4.13505e-05
4.39584e-06
2.69429e-05
1.9057e-06
1.63395e-05
2.36427e-07
5.90647e-06
-3.6689e-07
2.99362e-06
-5.04961e-07
1.07746e-06
-6.20248e-07
1.62848e-06
-7.06808e-07
1.72799e-06
-8.26687e-07
1.96639e-06
-9.46684e-07
2.12016e-06
-1.08081e-06
2.17855e-06
-1.21401e-06
2.30392e-06
-1.3508e-06
2.41311e-06
-1.48746e-06
2.54775e-06
-1.62607e-06
2.60969e-06
-1.7641e-06
2.61299e-06
-1.89979e-06
2.54623e-06
-2.03013e-06
2.44045e-06
-2.15301e-06
2.30073e-06
-2.26628e-06
2.13833e-06
-2.36796e-06
1.95458e-06
-2.45613e-06
1.75003e-06
-2.52916e-06
1.52071e-06
-2.58539e-06
1.26653e-06
-2.62317e-06
9.87011e-07
-2.64091e-06
6.8307e-07
-2.63707e-06
3.55313e-07
-2.61014e-06
4.20866e-09
-2.55863e-06
-3.69749e-07
-2.48109e-06
-7.65687e-07
-2.37624e-06
-1.18215e-06
-2.24293e-06
-1.61702e-06
-2.08021e-06
-2.06761e-06
-1.88731e-06
-2.53061e-06
-1.66375e-06
-3.00248e-06
-1.40928e-06
-3.47882e-06
-1.124e-06
-3.95556e-06
-8.08255e-07
-4.42706e-06
-4.62892e-07
-4.88915e-06
-8.88303e-08
-5.3348e-06
3.122e-07
-5.76009e-06
7.38768e-07
-6.15714e-06
1.18821e-06
-6.52172e-06
1.65861e-06
-6.84657e-06
2.14624e-06
-7.13091e-06
2.64938e-06
-7.35952e-06
3.16158e-06
-7.5544e-06
3.6833e-06
-7.65873e-06
4.20365e-06
-7.75449e-06
4.72885e-06
-7.69813e-06
5.23819e-06
-7.71406e-06
5.75256e-06
-7.4402e-06
6.22857e-06
-7.45086e-06
6.72252e-06
-6.85458e-06
7.13937e-06
-7.05289e-06
7.61791e-06
-5.99092e-06
7.95286e-06
-6.83115e-06
8.46543e-06
-5.90022e-06
-9.47695e-06
9.19304e-06
5.45385e-05
7.66206e-06
4.28815e-05
5.04053e-06
2.95645e-05
2.49146e-06
1.88886e-05
5.74342e-07
7.82358e-06
-2.28596e-07
3.79655e-06
-4.52105e-07
1.30097e-06
-5.78667e-07
1.75504e-06
-6.63825e-07
1.81315e-06
-7.8051e-07
2.08307e-06
-8.9614e-07
2.23579e-06
-1.02597e-06
2.30837e-06
-1.15418e-06
2.43212e-06
-1.28514e-06
2.54407e-06
-1.41498e-06
2.6776e-06
-1.54623e-06
2.74094e-06
-1.67673e-06
2.74348e-06
-1.80503e-06
2.67453e-06
-1.92821e-06
2.56363e-06
-2.04416e-06
2.41668e-06
-2.15069e-06
2.24486e-06
-2.24584e-06
2.04973e-06
-2.32771e-06
1.8319e-06
-2.3947e-06
1.5877e-06
-2.44516e-06
1.31699e-06
-2.47748e-06
1.01933e-06
-2.4901e-06
6.95683e-07
-2.4815e-06
3.46714e-07
-2.4502e-06
-2.7091e-08
-2.39473e-06
-4.25221e-07
-2.31369e-06
-8.46722e-07
-2.20584e-06
-1.29001e-06
-2.07005e-06
-1.7528e-06
-1.90541e-06
-2.23226e-06
-1.71118e-06
-2.72484e-06
-1.48688e-06
-3.22678e-06
-1.2323e-06
-3.7334e-06
-9.47557e-07
-4.24031e-06
-6.32988e-07
-4.74163e-06
-2.89448e-07
-5.23269e-06
8.21456e-08
-5.70639e-06
4.80093e-07
-6.15804e-06
9.02942e-07
-6.57999e-06
1.3481e-06
-6.96687e-06
1.81362e-06
-7.31209e-06
2.29585e-06
-7.61313e-06
2.79302e-06
-7.85669e-06
3.29886e-06
-8.06025e-06
3.81373e-06
-8.1736e-06
4.32705e-06
-8.26781e-06
4.8448e-06
-8.21587e-06
5.34675e-06
-8.21601e-06
5.85335e-06
-7.9468e-06
6.32202e-06
-7.91952e-06
6.80821e-06
-7.34077e-06
7.21803e-06
-7.46271e-06
7.68875e-06
-6.46163e-06
8.01632e-06
-7.15872e-06
8.51512e-06
-6.39902e-06
-9.69188e-06
9.35623e-06
5.51822e-05
8.06012e-06
4.41776e-05
5.66221e-06
3.19624e-05
3.10825e-06
2.14425e-05
9.92246e-07
9.93959e-06
-3.97621e-08
4.82856e-06
-3.79495e-07
1.64071e-06
-5.28539e-07
1.90408e-06
-6.15163e-07
1.89977e-06
-7.29593e-07
2.19751e-06
-8.41174e-07
2.34737e-06
-9.66811e-07
2.43401e-06
-1.09009e-06
2.55541e-06
-1.2153e-06
2.66927e-06
-1.3384e-06
2.80071e-06
-1.46232e-06
2.86486e-06
-1.58527e-06
2.86643e-06
-1.70611e-06
2.79537e-06
-1.822e-06
2.67952e-06
-1.93088e-06
2.52555e-06
-2.03053e-06
2.34451e-06
-2.11901e-06
2.13821e-06
-2.19444e-06
1.90734e-06
-2.25525e-06
1.6485e-06
-2.2998e-06
1.36155e-06
-2.32653e-06
1.04606e-06
-2.3339e-06
7.03053e-07
-2.32044e-06
3.33246e-07
-2.28467e-06
-6.28591e-08
-2.22516e-06
-4.84727e-07
-2.14057e-06
-9.31316e-07
-2.02966e-06
-1.40091e-06
-1.89138e-06
-1.89109e-06
-1.72481e-06
-2.39883e-06
-1.52926e-06
-2.92039e-06
-1.30427e-06
-3.45176e-06
-1.04965e-06
-3.98802e-06
-7.65525e-07
-4.52444e-06
-4.5225e-07
-5.0549e-06
-1.10674e-07
-5.57427e-06
2.58281e-07
-6.07535e-06
6.52945e-07
-6.55271e-06
1.07185e-06
-6.99889e-06
1.51246e-06
-7.40749e-06
1.97282e-06
-7.77245e-06
2.44933e-06
-8.08965e-06
2.94021e-06
-8.34756e-06
3.43935e-06
-8.55939e-06
3.94703e-06
-8.68128e-06
4.45295e-06
-8.77373e-06
4.96286e-06
-8.72578e-06
5.45708e-06
-8.71023e-06
5.95554e-06
-8.44526e-06
6.41653e-06
-8.38051e-06
6.89457e-06
-7.81881e-06
7.2971e-06
-7.86524e-06
7.75954e-06
-6.92407e-06
8.07955e-06
-7.47873e-06
8.56429e-06
-6.88377e-06
-9.8849e-06
9.49747e-06
5.56848e-05
8.41727e-06
4.52578e-05
6.25486e-06
3.41248e-05
3.74534e-06
2.39521e-05
1.48098e-06
1.22039e-05
2.30674e-07
6.07887e-06
-2.78819e-07
2.1502e-06
-4.66727e-07
2.09199e-06
-5.59523e-07
1.99257e-06
-6.7316e-07
2.31114e-06
-7.81242e-07
2.45545e-06
-9.02922e-07
2.55569e-06
-1.02141e-06
2.67389e-06
-1.14098e-06
2.78884e-06
-1.25746e-06
2.91719e-06
-1.37412e-06
2.98151e-06
-1.48951e-06
2.98182e-06
-1.60282e-06
2.90868e-06
-1.71133e-06
2.78803e-06
-1.81301e-06
2.62723e-06
-1.90565e-06
2.43716e-06
-1.98732e-06
2.21988e-06
-2.05618e-06
1.97619e-06
-2.11066e-06
1.70299e-06
-2.14918e-06
1.40007e-06
-2.1702e-06
1.06708e-06
-2.17221e-06
7.05065e-07
-2.15377e-06
3.14805e-07
-2.11345e-06
-1.03187e-07
-2.04983e-06
-5.48342e-07
-1.96162e-06
-1.01953e-06
-1.84762e-06
-1.5149e-06
-1.70681e-06
-2.0319e-06
-1.53831e-06
-2.56732e-06
-1.34146e-06
-3.11724e-06
-1.11583e-06
-3.67739e-06
-8.61229e-07
-4.24262e-06
-5.77815e-07
-4.80785e-06
-2.65951e-07
-5.36677e-06
7.35183e-08
-5.91374e-06
4.39663e-07
-6.44149e-06
8.30841e-07
-6.94388e-06
1.24557e-06
-7.41362e-06
1.68137e-06
-7.84329e-06
2.13629e-06
-8.22737e-06
2.60679e-06
-8.56014e-06
3.09105e-06
-8.83182e-06
3.58315e-06
-9.0515e-06
4.08328e-06
-9.1814e-06
4.58144e-06
-9.27189e-06
5.08316e-06
-9.2275e-06
5.56927e-06
-9.19634e-06
6.05921e-06
-8.93521e-06
6.51219e-06
-8.83349e-06
6.98171e-06
-8.28833e-06
7.37666e-06
-8.2602e-06
7.83042e-06
-7.37783e-06
8.14263e-06
-7.79094e-06
8.61312e-06
-7.35425e-06
-1.00572e-05
9.61999e-06
5.60648e-05
8.73581e-06
4.6142e-05
6.81391e-06
3.60467e-05
4.39221e-06
2.63738e-05
2.02789e-06
1.45683e-05
5.62285e-07
7.54447e-06
-1.35808e-07
2.84829e-06
-3.88519e-07
2.3447e-06
-4.95083e-07
2.09913e-06
-6.10164e-07
2.42622e-06
-7.15638e-07
2.56093e-06
-8.33758e-07
2.67381e-06
-9.47673e-07
2.78781e-06
-1.0618e-06
2.90297e-06
-1.17182e-06
3.02721e-06
-1.28131e-06
3.091e-06
-1.38918e-06
3.08969e-06
-1.49492e-06
3.01443e-06
-1.59597e-06
2.88907e-06
-1.69035e-06
2.72162e-06
-1.77586e-06
2.52267e-06
-1.8506e-06
2.29462e-06
-1.91275e-06
2.03834e-06
-1.96079e-06
1.75102e-06
-1.99315e-06
1.43244e-06
-2.00835e-06
1.08227e-06
-2.00489e-06
7.01613e-07
-1.98138e-06
2.91294e-07
-1.93641e-06
-1.48159e-07
-1.86861e-06
-6.16139e-07
-1.77672e-06
-1.11142e-06
-1.6596e-06
-1.63203e-06
-1.51625e-06
-2.17526e-06
-1.34582e-06
-2.73775e-06
-1.14769e-06
-3.31538e-06
-9.21452e-07
-3.90363e-06
-6.66947e-07
-4.49713e-06
-3.84339e-07
-5.09046e-06
-7.40059e-08
-5.6771e-06
2.6321e-07
-6.25095e-06
6.26371e-07
-6.80465e-06
1.01386e-06
-7.33137e-06
1.42418e-06
-7.82394e-06
1.85493e-06
-8.27404e-06
2.30412e-06
-8.67656e-06
2.76829e-06
-9.02432e-06
3.24561e-06
-9.30914e-06
3.73034e-06
-9.53622e-06
4.22257e-06
-9.67363e-06
4.7126e-06
-9.76192e-06
5.20577e-06
-9.72067e-06
5.6834e-06
-9.67398e-06
6.16448e-06
-9.41628e-06
6.60908e-06
-9.2781e-06
7.06973e-06
-8.74897e-06
7.45681e-06
-8.64728e-06
7.90149e-06
-7.82252e-06
8.20566e-06
-8.0951e-06
8.66174e-06
-7.81034e-06
-1.02098e-05
9.72667e-06
5.63381e-05
9.0184e-06
4.68503e-05
7.33603e-06
3.77291e-05
5.03904e-06
2.86708e-05
2.62101e-06
1.69863e-05
9.57659e-07
9.20783e-06
5.93833e-08
3.74657e-06
-2.87213e-07
2.6913e-06
-4.19292e-07
2.23121e-06
-5.39206e-07
2.54614e-06
-6.43453e-07
2.66517e-06
-7.5864e-07
2.789e-06
-8.6834e-07
2.89751e-06
-9.77295e-07
3.01192e-06
-1.08107e-06
3.13099e-06
-1.18354e-06
3.19348e-06
-1.28395e-06
3.19009e-06
-1.38212e-06
3.1126e-06
-1.47565e-06
2.9826e-06
-1.56265e-06
2.80861e-06
-1.64093e-06
2.60095e-06
-1.70863e-06
2.36232e-06
-1.76397e-06
2.09368e-06
-1.80544e-06
1.7925e-06
-1.83154e-06
1.45854e-06
-1.8408e-06
1.09153e-06
-1.83179e-06
6.92598e-07
-1.80312e-06
2.62625e-07
-1.75342e-06
-1.97854e-07
-1.68138e-06
-6.88181e-07
-1.58577e-06
-1.20703e-06
-1.46549e-06
-1.75231e-06
-1.31957e-06
-2.32117e-06
-1.14723e-06
-2.91009e-06
-9.47844e-07
-3.51476e-06
-7.21055e-07
-4.13042e-06
-4.66717e-07
-4.75146e-06
-1.85013e-07
-5.37216e-06
1.23666e-07
-5.98578e-06
4.5848e-07
-6.58577e-06
8.1848e-07
-7.16465e-06
1.20208e-06
-7.71497e-06
1.60777e-06
-8.22963e-06
2.03319e-06
-8.69946e-06
2.47637e-06
-9.11974e-06
2.93391e-06
-9.48186e-06
3.40398e-06
-9.77921e-06
3.88099e-06
-1.00132e-05
4.36497e-06
-1.01576e-05
4.84652e-06
-1.02435e-05
5.33076e-06
-1.02049e-05
5.79956e-06
-1.01428e-05
6.2714e-06
-9.88812e-06
6.70729e-06
-9.71399e-06
7.1587e-06
-9.20038e-06
7.53759e-06
-9.02617e-06
7.97285e-06
-8.25777e-06
8.26868e-06
-8.39093e-06
8.71027e-06
-8.25192e-06
-1.03436e-05
9.82005e-06
5.6518e-05
9.26798e-06
4.74023e-05
7.8191e-06
3.91779e-05
5.67684e-06
3.0813e-05
3.24942e-06
1.94137e-05
1.41532e-06
1.10419e-05
3.05944e-07
4.85594e-06
-1.5432e-07
3.15156e-06
-3.28614e-07
2.4055e-06
-4.58417e-07
2.67594e-06
-5.63522e-07
2.77028e-06
-6.76714e-07
2.90219e-06
-7.82734e-07
3.00353e-06
-8.86894e-07
3.11608e-06
-9.84707e-07
3.2288e-06
-1.08038e-06
3.28915e-06
-1.17344e-06
3.28315e-06
-1.26408e-06
3.20325e-06
-1.35008e-06
3.0686e-06
-1.42964e-06
2.88817e-06
-1.50061e-06
2.67193e-06
-1.56118e-06
2.42289e-06
-1.6096e-06
2.1421e-06
-1.64442e-06
1.82731e-06
-1.66415e-06
1.47828e-06
-1.66739e-06
1.09476e-06
-1.65272e-06
6.77933e-07
-1.61882e-06
2.28718e-07
-1.56433e-06
-2.52338e-07
-1.48799e-06
-7.6452e-07
-1.38862e-06
-1.3064e-06
-1.26516e-06
-1.87577e-06
-1.11668e-06
-2.46965e-06
-9.42424e-07
-3.08435e-06
-7.41824e-07
-3.71536e-06
-5.14539e-07
-4.3577e-06
-2.60448e-07
-5.00556e-06
2.02477e-08