/*--------------------------------*- C++ -*----------------------------------*\
| =========                 |                                                 |
| \\      /  F ield         | OpenFOAM: The Open Source CFD Toolbox           |
|  \\    /   O peration     | Version:  2.4.0                                 |
|   \\  /    A nd           | Web:      www.OpenFOAM.org                      |
|    \\/     M anipulation  |                                                 |
\*---------------------------------------------------------------------------*/
FoamFile
{
    version     2.0;
    format      ascii;
    class       volScalarField;
    location    "250";
    object      k;
}
// * * * * * * * * * * * * * * * * * * * * * * * * * * * * * * * * * * * * * //

dimensions      [0 2 -2 0 0 0 0];

internalField   nonuniform List<scalar> 
48900
(
0.986789
1.36582
1.5402
1.57493
1.52878
1.44131
1.33587
1.22617
1.12005
1.02145
0.932041
0.852173
0.781938
0.72052
0.66704
0.620577
0.580478
0.545957
0.516484
0.491366
0.470148
0.452242
0.4373
0.424814
0.414519
0.405997
0.399076
0.393435
0.388979
0.385484
0.382912
0.381141
0.380188
0.380367
0.381915
0.383882
0.39638
0.420436
0.440329
0.454404
0.463671
0.470063
0.475807
0.48262
0.491525
0.502622
0.515285
0.52922
0.544202
0.558312
0.570829
0.582236
0.592864
0.602987
0.612763
0.622321
0.631726
0.641024
0.650208
0.659222
0.668044
0.676616
0.684937
0.692951
0.70069
0.708111
0.715283
0.72217
0.728902
0.735189
0.740734
0.745784
0.374694
0.371399
0.365595
0.358008
0.349532
0.341031
0.333333
0.327136
0.322902
0.3209
0.321178
0.323675
0.328242
0.334584
0.342365
0.351405
0.361498
0.372554
0.384396
0.396971
0.4101
0.423145
0.435911
0.44845
0.460728
0.472777
0.484539
0.496044
0.507229
0.518123
0.528654
0.538849
0.548613
0.557937
0.566631
0.574804
0.374252
0.371705
0.367675
0.362295
0.355793
0.348456
0.340618
0.332635
0.324832
0.317497
0.310853
0.305065
0.300242
0.296439
0.293663
0.291903
0.291125
0.291294
0.292362
0.29429
0.297019
0.300436
0.304404
0.308853
0.313685
0.318869
0.324321
0.33003
0.335915
0.341969
0.348099
0.354296
0.36044
0.366491
0.372266
0.377646
0.374493
0.372875
0.370469
0.367311
0.363488
0.359078
0.35418
0.34891
0.343392
0.337752
0.332105
0.326558
0.321201
0.316109
0.311341
0.306942
0.302943
0.299367
0.296229
0.293532
0.291274
0.289439
0.288007
0.286956
0.286259
0.285896
0.285842
0.286076
0.286572
0.28731
0.288258
0.289394
0.290672
0.292063
0.293503
0.294976
0.374607
0.373486
0.371883
0.369826
0.367383
0.364587
0.361475
0.358092
0.354488
0.350718
0.346832
0.342882
0.338914
0.334973
0.331095
0.327313
0.323655
0.320144
0.316799
0.313633
0.310657
0.307877
0.305293
0.302905
0.30071
0.298703
0.296879
0.29523
0.293751
0.292432
0.291266
0.290241
0.289346
0.288569
0.287893
0.287327
0.374614
0.373768
0.372599
0.371125
0.369406
0.367462
0.365313
0.362983
0.360497
0.357881
0.355163
0.352368
0.349521
0.346647
0.343767
0.340902
0.338068
0.335281
0.332555
0.329901
0.327327
0.324842
0.322451
0.320156
0.317961
0.315866
0.313872
0.311977
0.310181
0.308482
0.306878
0.305367
0.303944
0.302609
0.301357
0.300203
0.374564
0.373865
0.372953
0.371825
0.370526
0.369075
0.367482
0.365762
0.363933
0.362009
0.360006
0.35794
0.355824
0.353674
0.351503
0.349322
0.347145
0.344979
0.342835
0.340721
0.338642
0.336606
0.334616
0.332677
0.330791
0.328961
0.327189
0.325476
0.323823
0.322229
0.320696
0.319223
0.31781
0.316457
0.315164
0.313946
0.374492
0.37386
0.3731
0.37219
0.371158
0.370017
0.368772
0.367436
0.366019
0.364532
0.362984
0.361386
0.359747
0.358077
0.356384
0.354676
0.352962
0.351248
0.349539
0.347842
0.346162
0.344503
0.342869
0.341263
0.339688
0.338147
0.33664
0.33517
0.333739
0.332347
0.330995
0.329684
0.328414
0.327186
0.326001
0.324873
0.374416
0.373802
0.373124
0.372352
0.371496
0.37056
0.369549
0.368469
0.367329
0.366134
0.364892
0.36361
0.362295
0.360953
0.35959
0.358213
0.356826
0.355434
0.354041
0.352653
0.351272
0.349903
0.348547
0.347208
0.345887
0.344588
0.343312
0.342061
0.340835
0.339637
0.338466
0.337325
0.336213
0.335131
0.33408
0.333075
0.374348
0.373723
0.37308
0.372388
0.371645
0.370848
0.369998
0.369097
0.36815
0.36716
0.366134
0.365076
0.363991
0.362883
0.361756
0.360616
0.359466
0.35831
0.35715
0.355991
0.354835
0.353684
0.352542
0.35141
0.35029
0.349185
0.348095
0.347023
0.345969
0.344935
0.343922
0.342929
0.341959
0.34101
0.340085
0.339197
0.374289
0.373642
0.373004
0.37235
0.371674
0.370968
0.370227
0.369451
0.368642
0.367801
0.366932
0.366037
0.36512
0.364185
0.363233
0.36227
0.361297
0.360317
0.359333
0.358347
0.357363
0.356381
0.355404
0.354433
0.353471
0.352519
0.351578
0.35065
0.349736
0.348837
0.347953
0.347085
0.346234
0.345399
0.344583
0.343798
0.374242
0.373569
0.372918
0.372276
0.371632
0.370978
0.370308
0.369617
0.368905
0.368171
0.367417
0.366643
0.365852
0.365046
0.364228
0.363398
0.36256
0.361716
0.360868
0.360017
0.359165
0.358315
0.357468
0.356625
0.355788
0.354959
0.354138
0.353326
0.352526
0.351736
0.350959
0.350194
0.349442
0.348702
0.347977
0.34728
0.374205
0.373506
0.372837
0.372188
0.371553
0.370925
0.370294
0.369657
0.369009
0.36835
0.367677
0.366992
0.366295
0.365587
0.364869
0.364143
0.36341
0.362671
0.361928
0.361183
0.360437
0.359692
0.358948
0.358207
0.357471
0.35674
0.356016
0.3553
0.354591
0.353892
0.353202
0.352523
0.351853
0.351193
0.350545
0.349921
0.374179
0.373461
0.372774
0.372113
0.371474
0.37085
0.370235
0.369622
0.369008
0.36839
0.367766
0.367136
0.366498
0.365852
0.3652
0.364542
0.363879
0.363212
0.362542
0.36187
0.361197
0.360524
0.359853
0.359184
0.358519
0.357858
0.357203
0.356554
0.355913
0.355278
0.354652
0.354033
0.353423
0.352822
0.35223
0.351661
0.37416
0.373427
0.372725
0.372052
0.371404
0.370777
0.370166
0.369564
0.368967
0.368373
0.367779
0.367183
0.366584
0.365982
0.365375
0.364766
0.364153
0.363537
0.36292
0.362301
0.361682
0.361063
0.360446
0.359831
0.35922
0.358612
0.35801
0.357412
0.356821
0.356236
0.355658
0.355087
0.354523
0.353966
0.353419
0.352891
0.374144
0.373397
0.372682
0.371995
0.371336
0.370701
0.370086
0.369486
0.368898
0.368317
0.367742
0.36717
0.366599
0.366029
0.365458
0.364886
0.364314
0.36374
0.363167
0.362593
0.36202
0.361447
0.360877
0.360309
0.359744
0.359183
0.358626
0.358075
0.357528
0.356987
0.356452
0.355924
0.355401
0.354885
0.354377
0.353887
0.37413
0.373372
0.372644
0.371944
0.371273
0.370627
0.370004
0.3694
0.368812
0.368236
0.36767
0.367112
0.366559
0.36601
0.365464
0.364921
0.364379
0.363839
0.3633
0.362762
0.362226
0.361693
0.361161
0.360633
0.360108
0.359587
0.359069
0.358557
0.35805
0.357548
0.357051
0.356559
0.356074
0.355593
0.355121
0.354665
0.374118
0.37335
0.372611
0.371899
0.371216
0.370558
0.369925
0.369312
0.368719
0.368141
0.367577
0.367023
0.366479
0.365943
0.365413
0.364888
0.364367
0.36385
0.363337
0.362827
0.362321
0.361817
0.361317
0.360821
0.360328
0.35984
0.359356
0.358877
0.358403
0.357933
0.357469
0.35701
0.356556
0.356107
0.355666
0.35524
0.374108
0.373331
0.372582
0.37186
0.371165
0.370496
0.369851
0.369229
0.368626
0.368042
0.367473
0.366919
0.366376
0.365844
0.365321
0.364806
0.364298
0.363797
0.3633
0.36281
0.362323
0.361842
0.361366
0.360894
0.360426
0.359964
0.359506
0.359054
0.358607
0.358164
0.357727
0.357295
0.356868
0.356445
0.35603
0.355629
0.374099
0.373316
0.372558
0.371827
0.371122
0.370442
0.369786
0.369152
0.36854
0.367946
0.36737
0.366809
0.366263
0.365729
0.365207
0.364695
0.364192
0.363698
0.363211
0.362731
0.362258
0.361791
0.36133
0.360875
0.360426
0.359982
0.359544
0.359112
0.358685
0.358263
0.357847
0.357436
0.35703
0.356629
0.356236
0.355856
0.374092
0.373302
0.372538
0.371799
0.371085
0.370395
0.369729
0.369085
0.368461
0.367858
0.367272
0.366704
0.36615
0.365611
0.365085
0.36457
0.364067
0.363573
0.363089
0.362614
0.362147
0.361687
0.361235
0.36079
0.360352
0.35992
0.359495
0.359076
0.358663
0.358256
0.357855
0.35746
0.35707
0.356685
0.356308
0.355944
0.374086
0.373291
0.372521
0.371775
0.371053
0.370355
0.36968
0.369026
0.368393
0.36778
0.367185
0.366607
0.366045
0.365498
0.364965
0.364444
0.363936
0.36344
0.362954
0.362478
0.362011
0.361553
0.361104
0.360663
0.36023
0.359804
0.359386
0.358975
0.35857
0.358172
0.35778
0.357395
0.357016
0.356642
0.356276
0.355924
0.374081
0.373282
0.372506
0.371755
0.371026
0.370321
0.369638
0.368976
0.368334
0.367712
0.367108
0.366521
0.36595
0.365395
0.364853
0.364326
0.363811
0.363309
0.362818
0.362338
0.361868
0.361408
0.360957
0.360516
0.360083
0.359659
0.359242
0.358834
0.358433
0.358039
0.357652
0.357271
0.356898
0.35653
0.356171
0.355825
0.374076
0.373274
0.372494
0.371738
0.371004
0.370292
0.369603
0.368934
0.368284
0.367654
0.367042
0.366447
0.365868
0.365304
0.364755
0.36422
0.363698
0.363188
0.362691
0.362205
0.36173
0.361265
0.360811
0.360366
0.35993
0.359504
0.359086
0.358676
0.358275
0.357881
0.357494
0.357115
0.356743
0.356379
0.356022
0.355679
0.374073
0.373267
0.372484
0.371723
0.370985
0.370268
0.369573
0.368898
0.368242
0.367605
0.366986
0.366383
0.365797
0.365226
0.36467
0.364127
0.363598
0.363082
0.362578
0.362085
0.361604
0.361134
0.360674
0.360224
0.359784
0.359353
0.358932
0.358519
0.358115
0.357718
0.35733
0.35695
0.356577
0.356211
0.355854
0.355512
0.37407
0.373262
0.372476
0.371712
0.370969
0.370248
0.369548
0.368868
0.368207
0.367564
0.366939
0.36633
0.365738
0.36516
0.364597
0.364048
0.363513
0.36299
0.362479
0.361981
0.361494
0.361018
0.360552
0.360097
0.359652
0.359216
0.35879
0.358373
0.357965
0.357565
0.357173
0.35679
0.356414
0.356046
0.355687
0.355343
0.374067
0.373257
0.372469
0.371702
0.370956
0.370232
0.369528
0.368843
0.368177
0.36753
0.366899
0.366285
0.365687
0.365105
0.364536
0.363982
0.363441
0.362912
0.362396
0.361892
0.3614
0.360918
0.360448
0.359987
0.359537
0.359097
0.358666
0.358244
0.357832
0.357428
0.357032
0.356645
0.356266
0.355895
0.355533
0.355186
0.374065
0.373253
0.372463
0.371694
0.370946
0.370218
0.369511
0.368822
0.368153
0.367501
0.366867
0.366248
0.365646
0.365058
0.364485
0.363926
0.36338
0.362847
0.362327
0.361818
0.361321
0.360834
0.360359
0.359894
0.35944
0.358995
0.35856
0.358134
0.357718
0.35731
0.35691
0.35652
0.356137
0.355763
0.355398
0.355048
0.374064
0.37325
0.372458
0.371687
0.370937
0.370207
0.369497
0.368806
0.368133
0.367478
0.36684
0.366218
0.365611
0.36502
0.364443
0.36388
0.36333
0.362793
0.362269
0.361756
0.361255
0.360765
0.360286
0.359817
0.359359
0.35891
0.358472
0.358042
0.357622
0.357211
0.356808
0.356414
0.356028
0.355651
0.355283
0.354931
0.374062
0.373248
0.372455
0.371682
0.37093
0.370198
0.369486
0.368792
0.368117
0.367459
0.366818
0.366193
0.365584
0.364989
0.364409
0.363843
0.36329
0.362749
0.362221
0.361705
0.361201
0.360708
0.360226
0.359754
0.359292
0.358841
0.358399
0.357967
0.357544
0.35713
0.356724
0.356327
0.355939
0.355559
0.355189
0.354835
0.374061
0.373246
0.372452
0.371679
0.370925
0.370191
0.369477
0.368782
0.368104
0.367444
0.366801
0.366173
0.365561
0.364964
0.364382
0.363813
0.363257
0.362714
0.362183
0.361665
0.361158
0.360662
0.360177
0.359703
0.359239
0.358785
0.358341
0.357906
0.357481
0.357064
0.356657
0.356258
0.355867
0.355485
0.355113
0.354757
0.374061
0.373245
0.37245
0.371676
0.370921
0.370187
0.369471
0.368774
0.368095
0.367433
0.366787
0.366158
0.365544
0.364945
0.36436
0.363789
0.363232
0.362686
0.362154
0.361633
0.361124
0.360626
0.360139
0.359663
0.359197
0.358741
0.358295
0.357858
0.357431
0.357013
0.356604
0.356203
0.355811
0.355428
0.355054
0.354697
0.37406
0.373244
0.372449
0.371674
0.370919
0.370183
0.369467
0.368769
0.368088
0.367425
0.366778
0.366148
0.365532
0.364932
0.364345
0.363773
0.363213
0.362667
0.362132
0.36161
0.361099
0.3606
0.360111
0.359634
0.359166
0.358709
0.358261
0.357823
0.357395
0.356975
0.356565
0.356163
0.35577
0.355385
0.355011
0.354652
0.37406
0.373244
0.372449
0.371673
0.370918
0.370182
0.369465
0.368766
0.368085
0.367421
0.366773
0.366142
0.365525
0.364924
0.364336
0.363763
0.363202
0.362654
0.362119
0.361596
0.361084
0.360583
0.360094
0.359615
0.359147
0.358688
0.35824
0.357801
0.357372
0.356951
0.35654
0.356138
0.355744
0.355358
0.354983
0.354624
0.37406
0.373244
0.372449
0.371674
0.370918
0.370182
0.369465
0.368766
0.368085
0.36742
0.366772
0.36614
0.365524
0.364921
0.364333
0.363759
0.363198
0.36265
0.362114
0.36159
0.361078
0.360577
0.360087
0.359607
0.359138
0.35868
0.358231
0.357791
0.357362
0.356941
0.356529
0.356126
0.355732
0.355347
0.354971
0.354612
0.374061
0.373245
0.37245
0.371675
0.37092
0.370184
0.369467
0.368768
0.368087
0.367423
0.366775
0.366143
0.365526
0.364924
0.364336
0.363761
0.3632
0.362652
0.362116
0.361592
0.361079
0.360578
0.360088
0.359609
0.35914
0.358681
0.358232
0.357793
0.357363
0.356942
0.356531
0.356128
0.355733
0.355348
0.354972
0.354613
0.374061
0.373246
0.372451
0.371677
0.370922
0.370187
0.36947
0.368772
0.368091
0.367427
0.36678
0.366148
0.365532
0.36493
0.364342
0.363768
0.363207
0.362659
0.362124
0.3616
0.361088
0.360587
0.360097
0.359618
0.359149
0.358691
0.358242
0.357803
0.357374
0.356953
0.356542
0.35614
0.355746
0.355361
0.354985
0.354627
0.374062
0.373248
0.372454
0.37168
0.370926
0.370191
0.369475
0.368778
0.368098
0.367435
0.366788
0.366157
0.365542
0.364941
0.364354
0.36378
0.36322
0.362672
0.362137
0.361614
0.361103
0.360603
0.360113
0.359635
0.359167
0.358709
0.358261
0.357823
0.357394
0.356974
0.356564
0.356162
0.355768
0.355384
0.355009
0.354651
0.374063
0.373249
0.372456
0.371683
0.370931
0.370197
0.369482
0.368786
0.368107
0.367445
0.3668
0.36617
0.365555
0.364955
0.364369
0.363797
0.363238
0.362691
0.362157
0.361635
0.361125
0.360625
0.360137
0.35966
0.359193
0.358736
0.358289
0.357851
0.357423
0.357005
0.356595
0.356194
0.355801
0.355417
0.355043
0.354686
0.374064
0.373252
0.37246
0.371688
0.370937
0.370204
0.369491
0.368796
0.368119
0.367459
0.366815
0.366186
0.365573
0.364975
0.36439
0.363819
0.363261
0.362716
0.362184
0.361663
0.361154
0.360656
0.360169
0.359693
0.359227
0.358771
0.358325
0.357889
0.357462
0.357044
0.356635
0.356234
0.355842
0.355459
0.355085
0.354728
0.374066
0.373255
0.372464
0.371694
0.370944
0.370214
0.369503
0.36881
0.368134
0.367476
0.366834
0.366207
0.365596
0.364999
0.364417
0.363848
0.363292
0.362748
0.362217
0.361698
0.361191
0.360694
0.360209
0.359734
0.359269
0.358814
0.358369
0.357933
0.357506
0.357089
0.35668
0.356279
0.355887
0.355503
0.355129
0.354772
0.374068
0.373259
0.37247
0.371702
0.370954
0.370226
0.369517
0.368826
0.368153
0.367497
0.366858
0.366234
0.365625
0.36503
0.36445
0.363883
0.363329
0.362788
0.362258
0.36174
0.361234
0.360739
0.360254
0.359779
0.359314
0.358859
0.358414
0.357977
0.357549
0.357131
0.35672
0.356318
0.355924
0.355537
0.355161
0.3548
0.374071
0.373263
0.372477
0.371711
0.370966
0.370241
0.369535
0.368847
0.368177
0.367524
0.366887
0.366266
0.36566
0.365068
0.36449
0.363925
0.363372
0.362832
0.362303
0.361785
0.361279
0.360783
0.360296
0.35982
0.359353
0.358895
0.358447
0.358006
0.357575
0.357151
0.356735
0.356328
0.355928
0.355535
0.355152
0.354785
0.374074
0.373269
0.372486
0.371723
0.370982
0.37026
0.369557
0.368873
0.368207
0.367557
0.366923
0.366305
0.365701
0.36511
0.364533
0.363968
0.363415
0.362874
0.362343
0.361823
0.361312
0.360811
0.36032
0.359837
0.359364
0.358898
0.358441
0.357992
0.35755
0.357116
0.35669
0.356271
0.355859
0.355455
0.355059
0.354679
0.374079
0.373277
0.372497
0.371739
0.371001
0.370284
0.369585
0.368905
0.368242
0.367596
0.366964
0.366347
0.365743
0.365151
0.364572
0.364003
0.363445
0.362897
0.362359
0.36183
0.361309
0.360797
0.360292
0.359796
0.359308
0.358827
0.358353
0.357886
0.357427
0.356974
0.356529
0.35609
0.355658
0.355233
0.354817
0.354416
0.374084
0.373287
0.372512
0.371759
0.371026
0.370314
0.36962
0.368943
0.368282
0.367636
0.367003
0.366383
0.365774
0.365175
0.364586
0.364006
0.363435
0.362871
0.362315
0.361767
0.361225
0.360691
0.360163
0.359642
0.359127
0.358619
0.358117
0.357622
0.357134
0.356652
0.356176
0.355706
0.355244
0.354788
0.35434
0.353909
0.374092
0.3733
0.372532
0.371784
0.371057
0.370349
0.369658
0.368982
0.368318
0.367667
0.367026
0.366393
0.365769
0.365151
0.364541
0.363936
0.363337
0.362744
0.362156
0.361574
0.360997
0.360425
0.359859
0.359298
0.358743
0.358193
0.357649
0.357111
0.35658
0.356054
0.355535
0.355022
0.354516
0.354016
0.353525
0.353052
0.374101
0.373318
0.372557
0.371816
0.371093
0.370386
0.369692
0.369009
0.368333
0.367664
0.367
0.36634
0.365683
0.36503
0.364379
0.363731
0.363086
0.362444
0.361805
0.361169
0.360537
0.359909
0.359285
0.358666
0.358052
0.357443
0.35684
0.356242
0.355651
0.355066
0.354487
0.353915
0.353351
0.352793
0.352245
0.351715
0.374115
0.373341
0.372588
0.371851
0.371128
0.370413
0.369704
0.368997
0.368291
0.367584
0.366875
0.366164
0.365451
0.364737
0.364021
0.363304
0.362587
0.361871
0.361156
0.360442
0.359731
0.359023
0.358319
0.357619
0.356924
0.356234
0.35555
0.354872
0.354201
0.353536
0.352879
0.35223
0.351588
0.350955
0.350332
0.34973
0.374133
0.37337
0.372623
0.371883
0.371145
0.370405
0.369658
0.368902
0.368136
0.36736
0.366575
0.365781
0.364979
0.36417
0.363356
0.362538
0.361717
0.360894
0.360071
0.359248
0.358427
0.357609
0.356794
0.355983
0.355178
0.354379
0.353587
0.352801
0.352024
0.351255
0.350495
0.349743
0.349002
0.34827
0.347551
0.346854
0.374157
0.373404
0.372654
0.371892
0.371114
0.370315
0.369494
0.36865
0.367783
0.366896
0.365991
0.365069
0.364133
0.363186
0.362229
0.361264
0.360294
0.35932
0.358344
0.357369
0.356394
0.355423
0.354456
0.353494
0.352539
0.351591
0.350653
0.349723
0.348804
0.347896
0.346998
0.346113
0.34524
0.34438
0.343535
0.342716
0.374187
0.373436
0.372659
0.37184
0.370977
0.370071
0.369122
0.368132
0.367105
0.366046
0.364957
0.363843
0.362708
0.361555
0.360387
0.359208
0.358021
0.356829
0.355635
0.35444
0.353248
0.35206
0.350878
0.349705
0.348541
0.347389
0.346249
0.345123
0.344012
0.342915
0.341835
0.340772
0.339726
0.338697
0.337688
0.336711
0.374221
0.373446
0.372598
0.371662
0.370645
0.369555
0.368395
0.367171
0.36589
0.364559
0.363185
0.361772
0.360329
0.35886
0.35737
0.355866
0.354352
0.352832
0.351311
0.349793
0.348281
0.346778
0.345288
0.343813
0.342355
0.340916
0.339499
0.338104
0.336732
0.335385
0.334064
0.332769
0.331501
0.33026
0.329047
0.327874
0.374249
0.373399
0.3724
0.371248
0.369963
0.368557
0.367041
0.365424
0.363718
0.361935
0.360085
0.358181
0.356233
0.35425
0.352243
0.35022
0.34819
0.346161
0.344141
0.342134
0.340149
0.338189
0.336259
0.334362
0.332503
0.330683
0.328904
0.327169
0.325478
0.323833
0.322233
0.32068
0.319174
0.317714
0.316302
0.314946
0.374253
0.373231
0.371942
0.37039
0.368612
0.366627
0.364455
0.362118
0.359639
0.357042
0.354349
0.351584
0.348768
0.345921
0.343064
0.340214
0.337388
0.3346
0.331862
0.329188
0.326585
0.324061
0.321623
0.319274
0.317018
0.314855
0.312789
0.310818
0.308942
0.307162
0.305476
0.303882
0.30238
0.300968
0.299643
0.298409
0.374228
0.372869
0.371001
0.368655
0.36589
0.362751
0.359291
0.355571
0.351651
0.347593
0.343455
0.339293
0.335158
0.331099
0.327155
0.323364
0.319756
0.316356
0.313183
0.310253
0.307574
0.305151
0.30298
0.301057
0.299373
0.297921
0.296692
0.295676
0.294865
0.294248
0.293816
0.293562
0.293476
0.29355
0.293776
0.294145
0.374473
0.372779
0.370054
0.366487
0.362242
0.357474
0.35236
0.347089
0.341832
0.336748
0.331972
0.327616
0.323774
0.320518
0.317904
0.315975
0.314754
0.314253
0.314463
0.315365
0.316927
0.319056
0.321663
0.324673
0.328032
0.331687
0.335603
0.339738
0.344071
0.348569
0.353217
0.357988
0.362874
0.36785
0.372915
0.378033
0.382388
0.390182
0.397694
0.404743
0.410931
0.416041
0.420257
0.423925
0.427382
0.430944
0.434889
0.439441
0.444781
0.451042
0.458332
0.466713
0.476224
0.486842
0.498509
0.511092
0.524442
0.537558
0.550074
0.562019
0.573443
0.584362
0.594825
0.604838
0.614449
0.623658
0.632511
0.641003
0.649182
0.657034
0.664608
0.671878
0.69074
0.950953
1.14315
1.27229
1.35023
1.38972
1.40141
1.39375
1.37311
1.34411
1.31003
1.27317
1.23513
1.19701
1.15954
1.12324
1.0884
1.05525
1.02386
0.994269
0.966423
0.940333
0.915842
0.892897
0.871337
0.851133
0.832133
0.814334
0.797584
0.7819
0.767133
0.753314
0.74029
0.728112
0.716623
0.705895
1.25025e-07
1.45245e-06
5.02106e-06
1.27409e-05
2.61914e-05
4.63809e-05
7.33482e-05
0.000106401
0.000145161
0.000192103
0.000261355
0.000347049
0.000440304
0.000533024
0.000644987
0.000827039
0.00104545
0.00127803
0.00151539
0.00175215
0.00198358
0.00220678
0.00241981
0.00262126
0.00280998
0.00298493
0.00314503
0.00328913
0.00341593
0.00352407
0.00361205
0.00367837
0.00372141
0.00373988
0.00373667
0.00371572
0.00367057
0.0035975
0.00349447
0.00336051
0.00319557
0.00300059
0.00277763
0.00252986
0.00226169
0.00197883
0.00168835
0.00139865
0.00111933
0.000860115
0.000633053
0.000444031
0.000295898
0.000187302
0.000113138
6.60863e-05
3.8311e-05
2.29706e-05
1.57391e-05
1.45143e-05
1.53025e-05
1.6421e-05
1.75043e-05
1.84677e-05
1.9317e-05
2.01203e-05
2.09941e-05
2.20558e-05
2.33474e-05
2.48421e-05
2.64632e-05
2.80985e-05
2.94197e-05
3.017e-05
3.07674e-05
3.25429e-05
3.82609e-05
5.60938e-05
0.000111665
0.000209296
0.00035092
0.000530764
0.000736428
0.000951496
0.00115996
0.0013493
0.00150964
0.00163594
0.00172802
0.00178894
0.00182411
0.00184082
0.0018473
0.00185217
0.00186087
0.00187906
0.00190637
0.00194512
0.00199262
0.0020454
0.00210254
0.00216454
0.00222908
0.00228821
0.00234592
0.00239401
0.00242162
0.00243459
0.00245209
0.00249964
0.00259653
0.00274478
0.00288132
0.00296394
0.00299452
0.0029707
0.00286956
0.00267586
0.00247714
0.00335558
0.00596786
0.00985857
0.0147247
0.0202141
0.0259625
0.0317184
0.0373799
0.0428881
0.0482196
0.053369
0.0583412
0.0631461
0.0677961
0.0723043
0.0766837
0.0809466
0.0851044
0.0891674
0.0931449
0.0970452
0.100876
0.104643
0.108352
0.112008
0.115615
0.119176
0.122696
0.126175
0.129617
0.133022
0.136393
0.139729
0.143033
0.146303
0.149541
0.152746
0.155918
0.159057
0.162161
0.165229
0.168261
0.171256
0.174216
0.17714
0.180027
0.182877
0.185688
0.18846
0.191191
0.193882
0.19653
0.199136
0.201697
0.204214
0.206685
0.209109
0.211487
0.213816
0.216097
0.21833
0.220512
0.222645
0.224728
0.22676
0.228743
0.230675
0.232558
0.234391
0.236176
0.237913
0.239602
0.241246
0.242845
0.244401
0.245917
0.247393
0.248832
0.250239
0.251615
0.252966
0.254302
0.255611
0.256887
0.258131
0.259339
0.260509
0.261644
0.262746
0.263817
0.264859
0.265872
0.266858
0.267819
0.268756
0.269668
0.270559
0.271428
0.272276
0.273105
0.273914
0.274706
0.27548
0.276237
0.276977
0.277701
0.278408
0.2791
0.279776
0.280435
0.281078
0.281704
0.282312
0.2829
0.283468
0.284011
0.284531
0.28503
0.285505
0.285957
0.286385
0.286787
0.287164
0.287513
0.287834
0.288126
0.288387
0.288616
0.288812
0.288975
0.289103
0.289194
0.289248
0.289265
0.289241
0.289178
0.289074
0.288927
0.288738
0.288504
0.288227
0.287903
0.287534
0.287118
0.286655
0.286145
0.285587
0.284981
0.284327
0.283624
0.282872
0.282071
0.281221
0.280323
0.279376
0.278379
0.277335
0.276242
0.275102
0.273914
0.272679
0.271398
0.270071
0.268698
0.267282
0.265821
0.264318
0.262772
0.261186
0.259559
0.257894
0.256192
0.254452
0.252675
0.250863
0.249015
0.247134
0.245219
0.243273
0.241295
0.239287
0.237251
0.235187
0.233096
0.23098
0.22884
0.226677
0.224493
0.222288
0.220064
0.217822
0.215563
0.213288
0.211
0.208698
0.206385
0.204061
0.201727
0.199386
0.197038
0.194685
0.192327
0.189967
0.187605
0.185244
0.182883
0.180525
0.17817
0.17582
0.173477
0.171141
0.168812
0.166492
0.164181
0.161881
0.159593
0.157319
0.155058
0.152812
0.150581
0.148366
0.146166
0.143983
0.141814
0.139661
0.137522
0.135393
0.133276
0.131167
0.12906
0.126942
0.124819
0.122675
0.120494
0.118249
0.115927
0.113448
0.110987
0.108753
0.107048
0.0995627
1.58524e-06
1.59178e-06
7.86667e-06
2.32502e-05
5.37292e-05
0.000111629
0.000219529
0.00041629
0.000763987
0.0013313
0.00204457
0.00290287
0.00382365
0.00469567
0.00551675
0.00626909
0.00694218
0.00752923
0.00802689
0.00843367
0.00874881
0.00897747
0.00912641
0.00920317
0.00921543
0.00917056
0.00907534
0.00893583
0.00875738
0.00854467
0.00830175
0.00803201
0.00773825
0.0074221
0.00707823
0.00669744
0.00629744
0.00589879
0.0055017
0.00510711
0.00471652
0.00433187
0.00395522
0.00358857
0.00323381
0.0028927
0.00256697
0.00225842
0.00196909
0.00170128
0.00145711
0.00123796
0.00104439
0.000876142
0.00073213
0.000610486
0.000508736
0.000423988
0.000353415
0.000294898
0.000246717
0.000207362
0.0001755
0.000149887
0.000129318
0.00011267
9.91005e-05
8.81928e-05
7.99261e-05
7.47254e-05
7.43393e-05
8.58296e-05
0.000108928
0.000144652
0.000200215
0.000291916
0.000450987
0.000724738
0.00116221
0.00178903
0.0025957
0.00353503
0.0045394
0.00553878
0.00647304
0.00729834
0.0079922
0.00854763
0.00896972
0.00927492
0.00949
0.0096605
0.00981952
0.0100441
0.010344
0.0107019
0.0111205
0.0115989
0.0121357
0.0127238
0.0133585
0.0140564
0.0148368
0.0157008
0.0165722
0.0173467
0.0179618
0.0185891
0.0195024
0.0209679
0.0231664
0.0262352
0.0289421
0.0309121
0.0327428
0.0348821
0.0375272
0.0408444
0.045036
0.0502124
0.0563336
0.0632506
0.0708172
0.0788573
0.0871893
0.0956118
0.103969
0.1122
0.12028
0.128198
0.135958
0.143564
0.151026
0.158356
0.165563
0.172661
0.179659
0.18657
0.193403
0.200169
0.206875
0.21353
0.220141
0.226714
0.233254
0.239767
0.246256
0.252725
0.259177
0.265615
0.27204
0.278453
0.284857
0.291252
0.297638
0.304015
0.310384
0.316743
0.323093
0.329433
0.335762
0.342078
0.348374
0.354651
0.360906
0.367138
0.373344
0.379523
0.385672
0.391789
0.397871
0.403917
0.409922
0.415886
0.421806
0.427678
0.433501
0.439272
0.444988
0.450648
0.456249
0.461788
0.467265
0.472677
0.478023
0.483301
0.488511
0.493651
0.498721
0.503722
0.508652
0.513514
0.518308
0.523034
0.527696
0.532297
0.536839
0.541327
0.545761
0.5501
0.554345
0.558518
0.562637
0.566705
0.57072
0.574683
0.578594
0.582456
0.586269
0.590037
0.593759
0.597438
0.601075
0.604672
0.60823
0.61175
0.615234
0.618683
0.622099
0.625482
0.628833
0.632153
0.635444
0.638705
0.641939
0.645144
0.648322
0.651472
0.654596
0.657694
0.660766
0.663812
0.666832
0.669828
0.672799
0.675741
0.678648
0.681519
0.684353
0.687148
0.689902
0.692615
0.695285
0.697909
0.700486
0.703015
0.705493
0.707919
0.71029
0.712605
0.714862
0.717059
0.719194
0.721266
0.723272
0.725211
0.727081
0.72888
0.730607
0.73226
0.733837
0.735338
0.736761
0.738105
0.739368
0.74055
0.741648
0.742663
0.743592
0.744437
0.745195
0.745866
0.74645
0.746946
0.747354
0.747674
0.747904
0.748046
0.748099
0.748063
0.74794
0.747728
0.747429
0.747042
0.74657
0.746013
0.74537
0.744645
0.743836
0.742947
0.741976
0.740925
0.739795
0.738587
0.737301
0.73594
0.734502
0.732991
0.731407
0.72975
0.728023
0.726227
0.724363
0.722433
0.720438
0.718381
0.716262
0.714084
0.711848
0.709556
0.70721
0.704812
0.702363
0.699866
0.697321
0.694732
0.692099
0.689426
0.686714
0.683965
0.681182
0.678368
0.675524
0.672653
0.669756
0.666838
0.663899
0.660943
0.657972
0.654987
0.651992
0.648987
0.645976
0.64296
0.639943
0.636927
0.633912
0.630901
0.627897
0.624898
0.621906
0.618923
0.615942
0.612971
0.610004
0.607025
0.604047
0.601062
0.598049
0.594961
0.591836
0.588628
0.585292
0.581772
0.578005
0.573874
0.569271
0.56393
0.557231
0.545102
4.49669e-06
3.47564e-06
1.8523e-05
6.03116e-05
0.000147361
0.000315431
0.000634216
0.00123696
0.00226412
0.00343759
0.00470732
0.00601238
0.00729342
0.00850779
0.00963258
0.0106505
0.0115661
0.0123787
0.0130867
0.0136861
0.0141741
0.0145595
0.0148502
0.0150546
0.0151809
0.015237
0.0152302
0.0151673
0.0150541
0.0148958
0.0146971
0.014462
0.014194
0.0138959
0.0135693
0.0132134
0.0128137
0.0123647
0.0118838
0.0113716
0.010829
0.0102581
0.00966185
0.00904427
0.00841078
0.00776798
0.00712345
0.00648545
0.00586241
0.00526257
0.00469361
0.0041619
0.00367194
0.00322637
0.00282609
0.00247053
0.00215792
0.00188583
0.00165083
0.00144883
0.00127563
0.00112722
0.00099989
0.000890188
0.000795108
0.00071216
0.000639683
0.00057731
0.000525652
0.000486102
0.000461342
0.000460304
0.000492575
0.000557502
0.000668979
0.000870463
0.00125007
0.00193512
0.00303777
0.00459873
0.00657371
0.00884056
0.0112552
0.0136898
0.0160467
0.0182629
0.020312
0.0221954
0.0239363
0.0255783
0.0271647
0.0288534
0.0305698
0.0322309
0.0338515
0.0355039
0.0372641
0.0391806
0.0412692
0.0435145
0.0458905
0.0485503
0.0515768
0.0549773
0.0586277
0.0620419
0.0647881
0.0671737
0.0692561
0.0709181
0.0721481
0.0732284
0.0745929
0.0764947
0.0790725
0.0827754
0.0878992
0.0945145
0.102574
0.111968
0.12255
0.134119
0.146428
0.159202
0.172167
0.185104
0.197887
0.210443
0.222735
0.234747
0.24648
0.257942
0.269146
0.280112
0.290858
0.301405
0.311771
0.321974
0.332033
0.341963
0.351778
0.361492
0.371115
0.380659
0.390132
0.399541
0.408895
0.418197
0.427455
0.436672
0.445851
0.454995
0.464107
0.473187
0.482237
0.491257
0.500248
0.509209
0.518139
0.527039
0.535906
0.54474
0.553538
0.562299
0.571022
0.579704
0.588345
0.596941
0.60549
0.61399
0.622439
0.630835
0.639174
0.647454
0.655673
0.663828
0.671917
0.679937
0.687885
0.69576
0.703559
0.711279
0.71892
0.726479
0.733954
0.741345
0.748651
0.75587
0.763002
0.770049
0.777009
0.783884
0.790676
0.797386
0.804016
0.81057
0.817052
0.823438
0.829703
0.835883
0.841987
0.848019
0.85398
0.859873
0.865697
0.871455
0.877147
0.882773
0.888337
0.893839
0.89928
0.904664
0.909991
0.915262
0.92048
0.925645
0.93076
0.935824
0.940841
0.945809
0.950731
0.955607
0.960438
0.965225
0.969967
0.974664
0.979318
0.983928
0.988493
0.993014
0.997488
1.00192
1.0063
1.01063
1.01491
1.01914
1.02331
1.02743
1.03149
1.03549
1.03943
1.0433
1.04711
1.05084
1.05451
1.0581
1.06162
1.06505
1.06841
1.07169
1.07488
1.07798
1.08099
1.08391
1.08674
1.08947
1.0921
1.09463
1.09706
1.09938
1.1016
1.10371
1.10571
1.1076
1.10938
1.11104
1.11259
1.11403
1.11534
1.11654
1.11762
1.11858
1.11942
1.12014
1.12074
1.12122
1.12157
1.12181
1.12192
1.12192
1.12179
1.12154
1.12118
1.12069
1.12009
1.11937
1.11854
1.11759
1.11653
1.11535
1.11407
1.11268
1.11118
1.10957
1.10785
1.10604
1.10411
1.10209
1.09997
1.09775
1.09544
1.09302
1.09052
1.08793
1.08524
1.08247
1.07962
1.07668
1.07366
1.07057
1.0674
1.06416
1.06085
1.05747
1.05402
1.05052
1.04695
1.04332
1.03964
1.03591
1.03212
1.0283
1.02442
1.02051