/*--------------------------------*- C++ -*----------------------------------*\
| =========                 |                                                 |
| \\      /  F ield         | OpenFOAM: The Open Source CFD Toolbox           |
|  \\    /   O peration     | Version:  2.4.0                                 |
|   \\  /    A nd           | Web:      www.OpenFOAM.org                      |
|    \\/     M anipulation  |                                                 |
\*---------------------------------------------------------------------------*/
FoamFile
{
    version     2.0;
    format      ascii;
    class       volScalarField;
    location    "0.05";
    object      epsilon;
}
// * * * * * * * * * * * * * * * * * * * * * * * * * * * * * * * * * * * * * //

dimensions      [0 2 -3 0 0 0 0];

internalField   nonuniform List<scalar> 
6000
(
0.0957015
0.130067
0.160353
0.183827
0.198353
0.205891
0.21
0.212205
0.213049
0.213285
0.213398
0.213458
0.213467
0.213463
0.213464
0.213464
0.213463
0.213462
0.213462
0.213462
0.213461
0.21346
0.213459
0.213458
0.213457
0.213455
0.213452
0.213449
0.213444
0.213439
0.213431
0.213422
0.21341
0.213394
0.213373
0.213346
0.213312
0.213267
0.213209
0.213133
0.213035
0.212908
0.212744
0.212531
0.212255
0.211897
0.211435
0.210836
0.21006
0.209057
0.20776
0.206082
0.20391
0.201094
0.197433
0.192631
0.18626
0.177482
0.165024
0.143299
0.0247744
0.0256389
0.0264641
0.0269447
0.0271023
0.0271323
0.0271499
0.02717
0.0271779
0.0271774
0.0271739
0.0271703
0.0271674
0.0271657
0.0271648
0.0271644
0.0271642
0.027164
0.027164
0.027164
0.0271641
0.0271641
0.0271643
0.0271644
0.0271647
0.027165
0.0271653
0.0271658
0.0271665
0.0271673
0.0271684
0.0271698
0.0271717
0.0271741
0.0271771
0.0271811
0.0271863
0.027193
0.0272017
0.027213
0.0272276
0.0272464
0.0272709
0.0273025
0.0273435
0.0273964
0.0274648
0.0275532
0.0276674
0.027815
0.028006
0.0282538
0.0285772
0.0290044
0.0295814
0.0303942
0.0316311
0.0337026
0.0382631
0.0464036
0.0219224
0.0196488
0.0180296
0.0169173
0.016187
0.0157337
0.0154697
0.0153255
0.0152518
0.0152163
0.0151998
0.0151924
0.0151891
0.0151877
0.0151872
0.015187
0.0151869
0.0151868
0.0151868
0.0151868
0.0151868
0.0151868
0.0151868
0.0151869
0.0151869
0.015187
0.015187
0.0151871
0.0151872
0.0151873
0.0151875
0.0151878
0.0151881
0.0151885
0.015189
0.0151896
0.0151905
0.0151916
0.0151931
0.0151949
0.0151974
0.0152006
0.0152047
0.0152101
0.0152171
0.0152263
0.0152383
0.0152541
0.0152749
0.0153025
0.0153393
0.015389
0.015457
0.0155518
0.0156879
0.0158912
0.0162229
0.0167952
0.0182417
0.0212223
0.0217976
0.0193044
0.0174832
0.0162384
0.0154425
0.0149625
0.0146886
0.0145403
0.0144643
0.0144274
0.0144104
0.014403
0.0143999
0.0143987
0.0143982
0.0143981
0.014398
0.014398
0.014398
0.014398
0.014398
0.014398
0.014398
0.014398
0.014398
0.014398
0.014398
0.014398
0.014398
0.014398
0.0143981
0.0143981
0.0143981
0.0143982
0.0143982
0.0143983
0.0143984
0.0143985
0.0143987
0.0143989
0.0143992
0.0143996
0.0144001
0.0144008
0.0144016
0.0144028
0.0144044
0.0144066
0.0144096
0.0144138
0.0144198
0.0144285
0.0144414
0.0144612
0.0144926
0.0145444
0.0146378
0.0148159
0.0152528
0.016369
0.0217925
0.0192867
0.017451
0.0161958
0.0153947
0.014913
0.014639
0.0144909
0.0144151
0.0143782
0.0143613
0.0143539
0.0143508
0.0143496
0.0143492
0.014349
0.014349
0.014349
0.014349
0.014349
0.0143489
0.0143489
0.0143489
0.0143489
0.014349
0.014349
0.014349
0.014349
0.014349
0.014349
0.014349
0.014349
0.014349
0.014349
0.014349
0.014349
0.014349
0.014349
0.014349
0.014349
0.0143491
0.0143491
0.0143492
0.0143493
0.0143494
0.0143496
0.01435
0.0143505
0.0143512
0.0143525
0.0143545
0.0143578
0.0143633
0.0143726
0.0143886
0.0144171
0.0144709
0.0145783
0.014814
0.0154371
0.0217924
0.0192855
0.0174487
0.0161928
0.0153916
0.01491
0.0146361
0.0144882
0.0144124
0.0143756
0.0143586
0.0143513
0.0143482
0.014347
0.0143466
0.0143464
0.0143464
0.0143464
0.0143463
0.0143463
0.0143463
0.0143463
0.0143463
0.0143463
0.0143463
0.0143463
0.0143463
0.0143463
0.0143463
0.0143463
0.0143463
0.0143463
0.0143463
0.0143463
0.0143463
0.0143463
0.0143463
0.0143464
0.0143464
0.0143464
0.0143464
0.0143464
0.0143464
0.0143465
0.0143465
0.0143467
0.0143469
0.0143472
0.0143478
0.0143488
0.0143504
0.0143531
0.0143578
0.0143658
0.0143798
0.0144048
0.0144513
0.0145421
0.0147237
0.0151913
0.0217924
0.0192852
0.0174481
0.0161922
0.015391
0.0149096
0.0146358
0.014488
0.0144122
0.0143754
0.0143585
0.0143511
0.0143481
0.0143469
0.0143465
0.0143463
0.0143463
0.0143462
0.0143462
0.0143462
0.0143462
0.0143462
0.0143462
0.0143462
0.0143462
0.0143462
0.0143462
0.0143462
0.0143462
0.0143462
0.0143462
0.0143462
0.0143462
0.0143462
0.0143462
0.0143462
0.0143462
0.0143462
0.0143462
0.0143462
0.0143462
0.0143463
0.0143463
0.0143463
0.0143464
0.0143465
0.0143467
0.014347
0.0143476
0.0143486
0.0143501
0.0143528
0.0143574
0.0143652
0.0143788
0.0144029
0.0144467
0.0145296
0.0146834
0.015054
0.0217924
0.0192851
0.0174477
0.0161918
0.0153907
0.0149093
0.0146357
0.0144879
0.0144122
0.0143754
0.0143585
0.0143511
0.0143481
0.0143469
0.0143465
0.0143463
0.0143462
0.0143462
0.0143462
0.0143462
0.0143462
0.0143462
0.0143462
0.0143462
0.0143462
0.0143462
0.0143462
0.0143462
0.0143462
0.0143462
0.0143462
0.0143462
0.0143462
0.0143462
0.0143462
0.0143462
0.0143462
0.0143462
0.0143462
0.0143462
0.0143462
0.0143463
0.0143463
0.0143463
0.0143464
0.0143465
0.0143467
0.014347
0.0143476
0.0143485
0.0143501
0.0143528
0.0143573
0.0143651
0.0143785
0.0144019
0.0144437
0.0145205
0.0146551
0.0149524
0.0217924
0.0192849
0.0174474
0.0161915
0.0153904
0.0149091
0.0146356
0.0144878
0.0144122
0.0143754
0.0143585
0.0143511
0.0143481
0.0143469
0.0143465
0.0143463
0.0143462
0.0143462
0.0143462
0.0143462
0.0143462
0.0143462
0.0143462
0.0143462
0.0143462
0.0143462
0.0143462
0.0143462
0.0143462
0.0143462
0.0143462
0.0143462
0.0143462
0.0143462
0.0143462
0.0143462
0.0143462
0.0143462
0.0143462
0.0143462
0.0143462
0.0143463
0.0143463
0.0143463
0.0143464
0.0143465
0.0143467
0.014347
0.0143476
0.0143485
0.0143501
0.0143528
0.0143573
0.014365
0.0143782
0.014401
0.0144409
0.0145123
0.0146319
0.0148745
0.0217924
0.0192848
0.0174472
0.0161912
0.0153901
0.0149089
0.0146355
0.0144878
0.0144121
0.0143754
0.0143585
0.0143511
0.0143481
0.0143469
0.0143465
0.0143463
0.0143462
0.0143462
0.0143462
0.0143462
0.0143462
0.0143462
0.0143462
0.0143462
0.0143462
0.0143462
0.0143462
0.0143462
0.0143462
0.0143462
0.0143462
0.0143462
0.0143462
0.0143462
0.0143462
0.0143462
0.0143462
0.0143462
0.0143462
0.0143462
0.0143462
0.0143463
0.0143463
0.0143463
0.0143464
0.0143465
0.0143467
0.014347
0.0143476
0.0143485
0.0143501
0.0143528
0.0143573
0.0143649
0.0143778
0.0144001
0.0144382
0.0145046
0.014612
0.0148133
0.0217924
0.0192848
0.017447
0.0161909
0.0153899
0.0149088
0.0146354
0.0144878
0.0144121
0.0143754
0.0143585
0.0143511
0.0143481
0.0143469
0.0143465
0.0143463
0.0143462
0.0143462
0.0143462
0.0143462
0.0143462
0.0143462
0.0143462
0.0143462
0.0143462
0.0143462
0.0143462
0.0143462
0.0143462
0.0143462
0.0143462
0.0143462
0.0143462
0.0143462
0.0143462
0.0143462
0.0143462
0.0143462
0.0143462
0.0143462
0.0143462
0.0143463
0.0143463
0.0143463
0.0143464
0.0143465
0.0143467
0.014347
0.0143476
0.0143485
0.0143501
0.0143528
0.0143572
0.0143648
0.0143775
0.0143991
0.0144356
0.0144976
0.0145945
0.0147641
0.0217924
0.0192847
0.0174468
0.0161907
0.0153897
0.0149086
0.0146353
0.0144877
0.0144121
0.0143754
0.0143585
0.0143511
0.0143481
0.0143469
0.0143465
0.0143463
0.0143462
0.0143462
0.0143462
0.0143462
0.0143462
0.0143462
0.0143462
0.0143462
0.0143462
0.0143462
0.0143462
0.0143462
0.0143462
0.0143462
0.0143462
0.0143462
0.0143462
0.0143462
0.0143462
0.0143462
0.0143462
0.0143462
0.0143462
0.0143462
0.0143462
0.0143463
0.0143463
0.0143463
0.0143464
0.0143465
0.0143467
0.014347
0.0143476
0.0143485
0.0143501
0.0143527
0.0143572
0.0143646
0.0143772
0.0143982
0.0144331
0.0144911
0.0145792
0.014724
0.0217924
0.0192847
0.0174467
0.0161905
0.0153895
0.0149085
0.0146352
0.0144877
0.0144121
0.0143754
0.0143585
0.0143511
0.0143481
0.0143469
0.0143465
0.0143463
0.0143462
0.0143462
0.0143462
0.0143462
0.0143462
0.0143462
0.0143462
0.0143462
0.0143462
0.0143462
0.0143462
0.0143462
0.0143462
0.0143462
0.0143462
0.0143462
0.0143462
0.0143462
0.0143462
0.0143462
0.0143462
0.0143462
0.0143462
0.0143462
0.0143462
0.0143463
0.0143463
0.0143463
0.0143464
0.0143465
0.0143467
0.014347
0.0143476
0.0143485
0.0143501
0.0143527
0.0143571
0.0143645
0.0143768
0.0143974
0.0144308
0.0144852
0.0145658
0.0146909
0.0217925
0.0192847
0.0174466
0.0161904
0.0153894
0.0149084
0.0146352
0.0144877
0.0144121
0.0143754
0.0143585
0.0143511
0.0143481
0.0143469
0.0143465
0.0143463
0.0143462
0.0143462
0.0143462
0.0143462
0.0143462
0.0143462
0.0143462
0.0143462
0.0143462
0.0143462
0.0143462
0.0143462
0.0143462
0.0143462
0.0143462
0.0143462
0.0143462
0.0143462
0.0143462
0.0143462
0.0143462
0.0143462
0.0143462
0.0143462
0.0143462
0.0143463
0.0143463
0.0143463
0.0143464
0.0143465
0.0143467
0.014347
0.0143476
0.0143485
0.0143501
0.0143527
0.0143571
0.0143644
0.0143765
0.0143965
0.0144287
0.0144799
0.014554
0.0146634
0.0217925
0.0192846
0.0174465
0.0161903
0.0153893
0.0149083
0.0146351
0.0144876
0.0144121
0.0143754
0.0143585
0.0143511
0.0143481
0.0143469
0.0143465
0.0143463
0.0143462
0.0143462
0.0143462
0.0143462
0.0143462
0.0143462
0.0143462
0.0143462
0.0143462
0.0143462
0.0143462
0.0143462
0.0143462
0.0143462
0.0143462
0.0143462
0.0143462
0.0143462
0.0143462
0.0143462
0.0143462
0.0143462
0.0143462
0.0143462
0.0143462
0.0143463
0.0143463
0.0143463
0.0143464
0.0143465
0.0143467
0.014347
0.0143476
0.0143485
0.0143501
0.0143527
0.0143571
0.0143643
0.0143762
0.0143957
0.0144268
0.0144751
0.0145437
0.0146405
0.0217925
0.0192846
0.0174464
0.0161902
0.0153892
0.0149083
0.0146351
0.0144876
0.0144121
0.0143754
0.0143585
0.0143511
0.0143481
0.0143469
0.0143465
0.0143463
0.0143462
0.0143462
0.0143462
0.0143462
0.0143462
0.0143462
0.0143462
0.0143462
0.0143462
0.0143462
0.0143462
0.0143462
0.0143462
0.0143462
0.0143462
0.0143462
0.0143462
0.0143462
0.0143462
0.0143462
0.0143462
0.0143462
0.0143462
0.0143462
0.0143462
0.0143463
0.0143463
0.0143463
0.0143464
0.0143465
0.0143467
0.014347
0.0143476
0.0143485
0.0143501
0.0143527
0.014357
0.0143642
0.014376
0.014395
0.014425
0.0144708
0.0145347
0.0146213
0.0217925
0.0192846
0.0174463
0.0161901
0.0153891
0.0149082
0.0146351
0.0144876
0.014412
0.0143754
0.0143585
0.0143511
0.0143481
0.0143469
0.0143465
0.0143463
0.0143462
0.0143462
0.0143462
0.0143462
0.0143462
0.0143462
0.0143462
0.0143462
0.0143462
0.0143462
0.0143462
0.0143462
0.0143462
0.0143462
0.0143462
0.0143462
0.0143462
0.0143462
0.0143462
0.0143462
0.0143462
0.0143462
0.0143462
0.0143462
0.0143462
0.0143463
0.0143463
0.0143463
0.0143464
0.0143465
0.0143467
0.014347
0.0143476
0.0143485
0.0143501
0.0143527
0.014357
0.0143641
0.0143757
0.0143944
0.0144234
0.0144671
0.0145269
0.0146052
0.0217925
0.0192846
0.0174463
0.01619
0.015389
0.0149082
0.014635
0.0144876
0.014412
0.0143754
0.0143585
0.0143511
0.0143481
0.0143469
0.0143465
0.0143463
0.0143462
0.0143462
0.0143462
0.0143462
0.0143462
0.0143462
0.0143462
0.0143462
0.0143462
0.0143462
0.0143462
0.0143462
0.0143462
0.0143462
0.0143462
0.0143462
0.0143462
0.0143462
0.0143462
0.0143462
0.0143462
0.0143462
0.0143462
0.0143462
0.0143462
0.0143463
0.0143463
0.0143463
0.0143464
0.0143465
0.0143467
0.014347
0.0143476
0.0143485
0.0143501
0.0143527
0.014357
0.014364
0.0143755
0.0143938
0.014422
0.0144638
0.0145202
0.0145918
0.0217925
0.0192846
0.0174462
0.0161899
0.015389
0.0149081
0.014635
0.0144876
0.014412
0.0143754
0.0143585
0.0143511
0.0143481
0.0143469
0.0143465
0.0143463
0.0143462
0.0143462
0.0143462
0.0143462
0.0143462
0.0143462
0.0143462
0.0143462
0.0143462
0.0143462
0.0143462
0.0143462
0.0143462
0.0143462
0.0143462
0.0143462
0.0143462
0.0143462
0.0143462
0.0143462
0.0143462
0.0143462
0.0143462
0.0143462
0.0143462
0.0143463
0.0143463
0.0143463
0.0143464
0.0143465
0.0143467
0.014347
0.0143476
0.0143485
0.0143501
0.0143527
0.0143569
0.0143639
0.0143753
0.0143933
0.0144208
0.014461
0.0145145
0.0145806
0.0217925
0.0192846
0.0174462
0.0161899
0.0153889
0.0149081
0.014635
0.0144876
0.014412
0.0143753
0.0143585
0.0143511
0.0143481
0.0143469
0.0143465
0.0143463
0.0143462
0.0143462
0.0143462
0.0143462
0.0143462
0.0143462
0.0143462
0.0143462
0.0143462
0.0143462
0.0143462
0.0143462
0.0143462
0.0143462
0.0143462
0.0143462
0.0143462
0.0143462
0.0143462
0.0143462
0.0143462
0.0143462
0.0143462
0.0143462
0.0143462
0.0143463
0.0143463
0.0143463
0.0143464
0.0143465
0.0143467
0.014347
0.0143476
0.0143485
0.0143501
0.0143526
0.0143569
0.0143639
0.0143751
0.0143928
0.0144197
0.0144586
0.0145097
0.0145714
0.0217925
0.0192846
0.0174462
0.0161899
0.0153889
0.0149081
0.014635
0.0144875
0.014412
0.0143753
0.0143585
0.0143511
0.0143481
0.0143469
0.0143465
0.0143463
0.0143462
0.0143462
0.0143462
0.0143462
0.0143462
0.0143462
0.0143462
0.0143462
0.0143462
0.0143462
0.0143462
0.0143462
0.0143462
0.0143462
0.0143462
0.0143462
0.0143462
0.0143462
0.0143462
0.0143462
0.0143462
0.0143462
0.0143462
0.0143462
0.0143462
0.0143463
0.0143463
0.0143463
0.0143464
0.0143465
0.0143467
0.014347
0.0143476
0.0143485
0.0143501
0.0143526
0.0143569
0.0143638
0.014375
0.0143925
0.0144188
0.0144567
0.0145058
0.014564
0.0217925
0.0192846
0.0174462
0.0161898
0.0153889
0.014908
0.014635
0.0144875
0.014412
0.0143753
0.0143585
0.0143511
0.0143481
0.0143469
0.0143465
0.0143463
0.0143462
0.0143462
0.0143462
0.0143462
0.0143462
0.0143462
0.0143462
0.0143462
0.0143462
0.0143462
0.0143462
0.0143462
0.0143462
0.0143462
0.0143462
0.0143462
0.0143462
0.0143462
0.0143462
0.0143462
0.0143462
0.0143462
0.0143462
0.0143462
0.0143462
0.0143463
0.0143463
0.0143463
0.0143464
0.0143465
0.0143467
0.014347
0.0143476
0.0143485
0.0143501
0.0143526
0.0143569
0.0143638
0.0143748
0.0143922
0.0144181
0.0144551
0.0145026
0.0145581
0.0217925
0.0192846
0.0174461
0.0161898
0.0153888
0.014908
0.014635
0.0144875
0.014412
0.0143753
0.0143585
0.0143511
0.0143481
0.0143469
0.0143465
0.0143463
0.0143462
0.0143462
0.0143462
0.0143462
0.0143462
0.0143462
0.0143462
0.0143462
0.0143462
0.0143462
0.0143462
0.0143462
0.0143462
0.0143462
0.0143462
0.0143462
0.0143462
0.0143462
0.0143462
0.0143462
0.0143462
0.0143462
0.0143462
0.0143462
0.0143462
0.0143463
0.0143463
0.0143463
0.0143464
0.0143465
0.0143467
0.014347
0.0143476
0.0143485
0.0143501
0.0143526
0.0143569
0.0143637
0.0143748
0.014392
0.0144176
0.0144539
0.0145003
0.0145536
0.0217925
0.0192846
0.0174461
0.0161898
0.0153888
0.014908
0.0146349
0.0144875
0.014412
0.0143753
0.0143585
0.0143511
0.0143481
0.0143469
0.0143465
0.0143463
0.0143462
0.0143462
0.0143462
0.0143462
0.0143462
0.0143462
0.0143462
0.0143462
0.0143462
0.0143462
0.0143462
0.0143462
0.0143462
0.0143462
0.0143462
0.0143462
0.0143462
0.0143462
0.0143462
0.0143462
0.0143462
0.0143462
0.0143462
0.0143462
0.0143462
0.0143463
0.0143463
0.0143463
0.0143464
0.0143465
0.0143467
0.014347
0.0143476
0.0143485
0.0143501
0.0143526
0.0143569
0.0143637
0.0143747
0.0143918
0.0144173
0.0144531
0.0144986
0.0145505
0.0217925
0.0192846
0.0174461
0.0161898
0.0153888
0.014908
0.0146349
0.0144875
0.014412
0.0143753
0.0143585
0.0143511
0.0143481
0.0143469
0.0143465
0.0143463
0.0143462
0.0143462
0.0143462
0.0143462
0.0143462
0.0143462
0.0143462
0.0143462
0.0143462
0.0143462
0.0143462
0.0143462
0.0143462
0.0143462
0.0143462
0.0143462
0.0143462
0.0143462
0.0143462
0.0143462
0.0143462
0.0143462
0.0143462
0.0143462
0.0143462
0.0143463
0.0143463
0.0143463
0.0143464
0.0143465
0.0143467
0.014347
0.0143476
0.0143485
0.0143501
0.0143526
0.0143569
0.0143637
0.0143747
0.0143918
0.0144171
0.0144527
0.0144977
0.0145486
0.0217925
0.0192846
0.0174461
0.0161898
0.0153888
0.014908
0.0146349
0.0144875
0.014412
0.0143753
0.0143585
0.0143511
0.0143481
0.0143469
0.0143465
0.0143463
0.0143462
0.0143462
0.0143462
0.0143462
0.0143462
0.0143462
0.0143462
0.0143462
0.0143462
0.0143462
0.0143462
0.0143462
0.0143462
0.0143462
0.0143462
0.0143462
0.0143462
0.0143462
0.0143462
0.0143462
0.0143462
0.0143462
0.0143462
0.0143462
0.0143462
0.0143463
0.0143463
0.0143463
0.0143464
0.0143465
0.0143467
0.014347
0.0143476
0.0143485
0.0143501
0.0143526
0.0143569
0.0143637
0.0143747
0.0143918
0.0144171
0.0144527
0.0144975
0.0145479
0.0217925
0.0192846
0.0174461
0.0161898
0.0153888
0.014908
0.0146349
0.0144875
0.014412
0.0143753
0.0143585
0.0143511
0.0143481
0.0143469
0.0143465
0.0143463
0.0143462
0.0143462
0.0143462
0.0143462
0.0143462
0.0143462
0.0143462
0.0143462
0.0143462
0.0143462
0.0143462
0.0143462
0.0143462
0.0143462
0.0143462
0.0143462
0.0143462
0.0143462
0.0143462
0.0143462
0.0143462
0.0143462
0.0143462
0.0143462
0.0143462
0.0143463
0.0143463
0.0143463
0.0143464
0.0143465
0.0143467
0.014347
0.0143476
0.0143485
0.0143501
0.0143526
0.0143569
0.0143638
0.0143748
0.0143919
0.0144173
0.014453
0.0144979
0.0145485
0.0217925
0.0192846
0.0174461
0.0161898
0.0153888
0.014908
0.014635
0.0144875
0.014412
0.0143753
0.0143585
0.0143511
0.0143481
0.0143469
0.0143465
0.0143463
0.0143462
0.0143462
0.0143462
0.0143462
0.0143462
0.0143462
0.0143462
0.0143462
0.0143462
0.0143462
0.0143462
0.0143462
0.0143462
0.0143462
0.0143462
0.0143462
0.0143462
0.0143462
0.0143462
0.0143462
0.0143462
0.0143462
0.0143462
0.0143462
0.0143462
0.0143463
0.0143463
0.0143463
0.0143464
0.0143465
0.0143467
0.014347
0.0143476
0.0143485
0.0143501
0.0143526
0.0143569
0.0143638
0.0143749
0.0143921
0.0144177
0.0144537
0.0144991
0.0145503
0.0217925
0.0192846
0.0174462
0.0161898
0.0153889
0.014908
0.014635
0.0144875
0.014412
0.0143753
0.0143585
0.0143511
0.0143481
0.0143469
0.0143465
0.0143463
0.0143462
0.0143462
0.0143462
0.0143462
0.0143462
0.0143462
0.0143462
0.0143462
0.0143462
0.0143462
0.0143462
0.0143462
0.0143462
0.0143462
0.0143462
0.0143462
0.0143462
0.0143462
0.0143462
0.0143462
0.0143462
0.0143462
0.0143462
0.0143462
0.0143462
0.0143463
0.0143463
0.0143463
0.0143464
0.0143465
0.0143467
0.014347
0.0143476
0.0143485
0.0143501
0.0143527
0.0143569
0.0143639
0.014375
0.0143923
0.0144183
0.0144548
0.014501
0.0145534
0.0217925
0.0192846
0.0174462
0.0161899
0.0153889
0.0149081
0.014635
0.0144875
0.014412
0.0143753
0.0143585
0.0143511
0.0143481
0.0143469
0.0143465
0.0143463
0.0143462
0.0143462
0.0143462
0.0143462
0.0143462
0.0143462
0.0143462
0.0143462
0.0143462
0.0143462
0.0143462
0.0143462
0.0143462
0.0143462
0.0143462
0.0143462
0.0143462
0.0143462
0.0143462
0.0143462
0.0143462
0.0143462
0.0143462
0.0143462
0.0143462
0.0143463
0.0143463
0.0143463
0.0143464
0.0143465
0.0143467
0.014347
0.0143476
0.0143485
0.0143501
0.0143527
0.0143569
0.0143639
0.0143751
0.0143927
0.014419
0.0144563
0.0145037
0.0145579
0.0217925
0.0192846
0.0174462
0.0161899
0.0153889
0.0149081
0.014635
0.0144876
0.014412
0.0143753
0.0143585
0.0143511
0.0143481
0.0143469
0.0143465
0.0143463
0.0143462
0.0143462
0.0143462
0.0143462
0.0143462
0.0143462
0.0143462
0.0143462
0.0143462
0.0143462
0.0143462
0.0143462
0.0143462
0.0143462
0.0143462
0.0143462
0.0143462
0.0143462
0.0143462
0.0143462
0.0143462
0.0143462
0.0143462
0.0143462
0.0143462
0.0143463
0.0143463
0.0143463
0.0143464
0.0143465
0.0143467
0.014347
0.0143476
0.0143485
0.0143501
0.0143527
0.014357
0.014364
0.0143753
0.0143931
0.01442
0.0144582
0.0145071
0.0145639
0.0217925
0.0192846
0.0174462
0.0161899
0.015389
0.0149081
0.014635
0.0144876
0.014412
0.0143754
0.0143585
0.0143511
0.0143481
0.0143469
0.0143465
0.0143463
0.0143462
0.0143462
0.0143462
0.0143462
0.0143462
0.0143462
0.0143462
0.0143462
0.0143462
0.0143462
0.0143462
0.0143462
0.0143462
0.0143462
0.0143462
0.0143462
0.0143462
0.0143462
0.0143462
0.0143462
0.0143462
0.0143462
0.0143462
0.0143462
0.0143462
0.0143463
0.0143463
0.0143463
0.0143464
0.0143465
0.0143467
0.014347
0.0143476
0.0143485
0.0143501
0.0143527
0.014357
0.0143641
0.0143755
0.0143936
0.0144211
0.0144606
0.0145115
0.0145715
0.0217925
0.0192846
0.0174463
0.01619
0.015389
0.0149082
0.014635
0.0144876
0.014412
0.0143754
0.0143585
0.0143511
0.0143481
0.0143469
0.0143465
0.0143463
0.0143462
0.0143462
0.0143462
0.0143462
0.0143462
0.0143462
0.0143462
0.0143462
0.0143462
0.0143462
0.0143462
0.0143462
0.0143462
0.0143462
0.0143462
0.0143462
0.0143462
0.0143462
0.0143462
0.0143462
0.0143462
0.0143462
0.0143462
0.0143462
0.0143462
0.0143463
0.0143463
0.0143463
0.0143464
0.0143465
0.0143467
0.014347
0.0143476
0.0143485
0.0143501
0.0143527
0.014357
0.0143642
0.0143758
0.0143942
0.0144224
0.0144635
0.0145167
0.0145811
0.0217925
0.0192846
0.0174463
0.0161901
0.0153891
0.0149082
0.0146351
0.0144876
0.0144121
0.0143754
0.0143585
0.0143511
0.0143481
0.0143469
0.0143465
0.0143463
0.0143462
0.0143462
0.0143462
0.0143462
0.0143462
0.0143462
0.0143462
0.0143462
0.0143462
0.0143462
0.0143462
0.0143462
0.0143462
0.0143462
0.0143462
0.0143462
0.0143462
0.0143462
0.0143462
0.0143462
0.0143462
0.0143462
0.0143462
0.0143462
0.0143462
0.0143463
0.0143463
0.0143463
0.0143464
0.0143465
0.0143467
0.014347
0.0143476
0.0143485
0.0143501
0.0143527
0.0143571
0.0143643
0.0143761
0.0143949
0.014424
0.0144669
0.014523
0.0145928
0.0217925
0.0192846
0.0174464
0.0161902
0.0153892
0.0149083
0.0146351
0.0144876
0.0144121
0.0143754
0.0143585
0.0143511
0.0143481
0.0143469
0.0143465
0.0143463
0.0143462
0.0143462
0.0143462
0.0143462
0.0143462
0.0143462
0.0143462
0.0143462
0.0143462
0.0143462
0.0143462
0.0143462
0.0143462
0.0143462
0.0143462
0.0143462
0.0143462
0.0143462
0.0143462
0.0143462
0.0143462
0.0143462
0.0143462
0.0143462
0.0143462
0.0143463
0.0143463
0.0143463
0.0143464
0.0143465
0.0143467
0.014347
0.0143476
0.0143485
0.0143501
0.0143527
0.0143571
0.0143644
0.0143764
0.0143957
0.0144257
0.0144708
0.0145303
0.014607
0.0217925
0.0192846
0.0174465
0.0161903
0.0153893
0.0149083
0.0146351
0.0144876
0.0144121
0.0143754
0.0143585
0.0143511
0.0143481
0.0143469
0.0143465
0.0143463
0.0143462
0.0143462
0.0143462
0.0143462
0.0143462
0.0143462
0.0143462
0.0143462
0.0143462
0.0143462
0.0143462
0.0143462
0.0143462
0.0143462
0.0143462
0.0143462
0.0143462
0.0143462
0.0143462
0.0143462
0.0143462
0.0143462
0.0143462
0.0143462
0.0143462
0.0143463
0.0143463
0.0143463
0.0143464
0.0143465
0.0143467
0.014347
0.0143476
0.0143485
0.0143501
0.0143528
0.0143572
0.0143646
0.0143767
0.0143965
0.0144277
0.0144753
0.0145389
0.0146243
0.0217925
0.0192847
0.0174466
0.0161904
0.0153894
0.0149084
0.0146352
0.0144877
0.0144121
0.0143754
0.0143585
0.0143511
0.0143481
0.0143469
0.0143465
0.0143463
0.0143462
0.0143462
0.0143462
0.0143462
0.0143462
0.0143462
0.0143462
0.0143462
0.0143462
0.0143462
0.0143462
0.0143462
0.0143462
0.0143462
0.0143462
0.0143462
0.0143462
0.0143462
0.0143462
0.0143462
0.0143462
0.0143462
0.0143462
0.0143462
0.0143462
0.0143463
0.0143463
0.0143463
0.0143464
0.0143465
0.0143467
0.014347
0.0143476
0.0143485
0.0143501
0.0143528
0.0143572
0.0143647
0.0143771
0.0143974
0.0144299
0.0144805
0.0145489
0.0146454
0.0217924
0.0192847
0.0174467
0.0161905
0.0153895
0.0149085
0.0146352
0.0144877
0.0144121
0.0143754
0.0143585
0.0143511
0.0143481
0.0143469
0.0143465
0.0143463
0.0143462
0.0143462
0.0143462
0.0143462
0.0143462
0.0143462
0.0143462
0.0143462
0.0143462
0.0143462
0.0143462
0.0143462
0.0143462
0.0143462
0.0143462
0.0143462
0.0143462
0.0143462
0.0143462
0.0143462
0.0143462
0.0143462
0.0143462
0.0143462
0.0143462
0.0143463
0.0143463
0.0143463
0.0143464
0.0143465
0.0143467
0.014347
0.0143476
0.0143485
0.0143501
0.0143528
0.0143573
0.0143648
0.0143774
0.0143984
0.0144323
0.0144864
0.0145604
0.0146711
0.0217924
0.0192847
0.0174468
0.0161907
0.0153897
0.0149086
0.0146353
0.0144877
0.0144121
0.0143754
0.0143585
0.0143511
0.0143481
0.0143469
0.0143465
0.0143463
0.0143462
0.0143462
0.0143462
0.0143462
0.0143462
0.0143462
0.0143462
0.0143462
0.0143462
0.0143462
0.0143462
0.0143462
0.0143462
0.0143462
0.0143462
0.0143462
0.0143462
0.0143462
0.0143462
0.0143462
0.0143462
0.0143462
0.0143462
0.0143462
0.0143462
0.0143463
0.0143463
0.0143463
0.0143464
0.0143465
0.0143467
0.014347
0.0143476
0.0143486
0.0143501
0.0143528
0.0143573
0.014365
0.0143778
0.0143994
0.0144349
0.0144931
0.0145736
0.0147026
0.0217924
0.0192848
0.017447
0.0161909
0.0153899
0.0149088
0.0146354
0.0144878
0.0144121
0.0143754
0.0143585
0.0143511
0.0143481
0.0143469
0.0143465
0.0143463
0.0143462
0.0143462
0.0143462
0.0143462
0.0143462
0.0143462
0.0143462
0.0143462
0.0143462
0.0143462
0.0143462
0.0143462
0.0143462
0.0143462
0.0143462
0.0143462
0.0143462
0.0143462
0.0143462
0.0143462
0.0143462
0.0143462
0.0143462
0.0143462
0.0143462
0.0143463
0.0143463
0.0143463
0.0143464
0.0143465
0.0143467
0.014347
0.0143476
0.0143486
0.0143502
0.0143528
0.0143574
0.0143651
0.0143782
0.0144005
0.0144377
0.0145006
0.0145889
0.0147418
0.0217924
0.0192848
0.0174472
0.0161912
0.0153901
0.0149089
0.0146355
0.0144878
0.0144121
0.0143754
0.0143585
0.0143511
0.0143481
0.0143469
0.0143465
0.0143463
0.0143462
0.0143462
0.0143462
0.0143462
0.0143462
0.0143462
0.0143462
0.0143462
0.0143462
0.0143462
0.0143462
0.0143462
0.0143462
0.0143462
0.0143462
0.0143462
0.0143462
0.0143462
0.0143462
0.0143462
0.0143462
0.0143462
0.0143462
0.0143462
0.0143462
0.0143463
0.0143463
0.0143463
0.0143464
0.0143465
0.0143467
0.014347
0.0143476
0.0143486
0.0143502
0.0143529
0.0143575
0.0143653
0.0143786
0.0144017
0.0144408
0.014509
0.0146065
0.0147911
0.0217924
0.0192849
0.0174474
0.0161915
0.0153904
0.0149091
0.0146356
0.0144878
0.0144122
0.0143754
0.0143585
0.0143511
0.0143481
0.0143469
0.0143465
0.0143463
0.0143462
0.0143462
0.0143462
0.0143462
0.0143462
0.0143462
0.0143462
0.0143462
0.0143462
0.0143462
0.0143462
0.0143462
0.0143462
0.0143462
0.0143462
0.0143462
0.0143462
0.0143462
0.0143462
0.0143462
0.0143462
0.0143462
0.0143462
0.0143462
0.0143462
0.0143463
0.0143463
0.0143463
0.0143464
0.0143465
0.0143467
0.014347
0.0143476
0.0143486
0.0143502
0.0143529
0.0143575
0.0143654
0.014379
0.0144028
0.014444
0.0145184
0.0146269
0.0148541
0.0217924
0.0192851
0.0174477
0.0161918
0.0153907
0.0149093
0.0146357
0.0144879
0.0144122
0.0143754
0.0143585
0.0143511
0.0143481
0.0143469
0.0143465
0.0143463
0.0143462
0.0143462
0.0143462
0.0143462
0.0143462
0.0143462
0.0143462
0.0143462
0.0143462
0.0143462
0.0143462
0.0143462
0.0143462
0.0143462
0.0143462
0.0143462
0.0143462
0.0143462
0.0143462
0.0143462
0.0143462
0.0143462
0.0143462
0.0143462
0.0143462
0.0143463
0.0143463
0.0143463
0.0143464
0.0143465
0.0143467
0.014347
0.0143476
0.0143486
0.0143502
0.0143529
0.0143576
0.0143655
0.0143794
0.014404
0.0144474
0.0145288
0.0146508
0.0149361
0.0217924
0.0192852
0.0174481
0.0161922
0.015391
0.0149096
0.0146358
0.014488
0.0144122
0.0143754
0.0143585
0.0143511
0.0143481
0.0143469
0.0143465
0.0143463
0.0143463
0.0143462
0.0143462
0.0143462
0.0143462
0.0143462
0.0143462
0.0143462
0.0143462
0.0143462
0.0143462
0.0143462
0.0143462
0.0143462
0.0143462
0.0143462
0.0143462
0.0143462
0.0143462
0.0143462
0.0143462
0.0143462
0.0143462
0.0143462
0.0143462
0.0143463
0.0143463
0.0143463
0.0143464
0.0143465
0.0143467
0.0143471
0.0143476
0.0143486
0.0143502
0.0143529
0.0143576
0.0143657
0.0143798
0.0144051
0.014451
0.0145401
0.0146794
0.0150462
0.0217924
0.0192855
0.0174487
0.0161928
0.0153916
0.01491
0.0146361
0.0144882
0.0144124
0.0143756
0.0143586
0.0143513
0.0143482
0.014347
0.0143466
0.0143464
0.0143464
0.0143464
0.0143463
0.0143463
0.0143463
0.0143463
0.0143463
0.0143463
0.0143463
0.0143463
0.0143463
0.0143463
0.0143463
0.0143463
0.0143463
0.0143463
0.0143463
0.0143463
0.0143463
0.0143463
0.0143463
0.0143463
0.0143464
0.0143464
0.0143464
0.0143464
0.0143464
0.0143464
0.0143465
0.0143466
0.0143468
0.0143472
0.0143477
0.0143487
0.0143503
0.014353
0.0143578
0.0143659
0.0143803
0.0144062
0.0144549
0.0145522
0.0147147
0.015197
0.0217925
0.0192867
0.017451
0.0161958
0.0153947
0.014913
0.014639
0.0144909
0.0144151
0.0143782
0.0143613
0.0143539
0.0143508
0.0143496
0.0143492
0.014349
0.014349
0.014349
0.0143489
0.0143489
0.0143489
0.0143489
0.0143489
0.0143489
0.0143489
0.0143489
0.0143489
0.0143489
0.0143489
0.0143489
0.0143489
0.0143489
0.0143489
0.0143489
0.0143489
0.0143489
0.0143489
0.0143489
0.014349
0.014349
0.014349
0.014349
0.014349
0.014349
0.0143491
0.0143492
0.0143494
0.0143497
0.0143503
0.0143512
0.0143528
0.0143556
0.0143603
0.0143684
0.014383
0.0144094
0.0144609
0.0145667
0.0147621
0.0153984
0.0217976
0.0193044
0.0174832
0.0162384
0.0154425
0.0149625
0.0146886
0.0145403
0.0144643
0.0144274
0.0144104
0.014403
0.0143999
0.0143987
0.0143982
0.014398
0.014398
0.014398
0.0143979
0.0143979
0.0143979
0.0143979
0.0143979
0.0143979
0.0143979
0.0143979
0.0143979
0.0143979
0.0143979
0.0143979
0.0143979
0.0143979
0.0143979
0.0143979
0.0143979
0.0143979
0.0143979
0.0143979
0.0143979
0.0143979
0.0143979
0.0143979
0.0143979
0.0143979
0.0143979
0.014398
0.0143981
0.0143983
0.0143988
0.0143996
0.014401
0.0144035
0.0144078
0.0144156
0.0144297
0.0144557
0.0145089
0.0146202
0.0148634
0.0157113
0.0219224
0.0196488
0.0180296
0.0169173
0.016187
0.0157336
0.0154696
0.0153255
0.0152518
0.0152162
0.0151997
0.0151923
0.015189
0.0151877
0.0151871
0.0151869
0.0151868
0.0151867
0.0151867
0.0151867
0.0151867
0.0151867
0.0151867
0.0151867
0.0151867
0.0151867
0.0151867
0.0151867
0.0151867
0.0151866
0.0151866
0.0151866
0.0151866
0.0151866
0.0151866
0.0151866
0.0151865
0.0151865
0.0151864
0.0151864
0.0151863
0.0151862
0.015186
0.0151859
0.0151857
0.0151854
0.0151852
0.0151849
0.0151847
0.0151846
0.0151849
0.0151859
0.0151883
0.0151934
0.0152037
0.015224
0.0152694
0.0153698
0.0156262
0.0169521
0.0247744
0.0256389
0.0264641
0.0269447
0.0271023
0.0271323
0.0271498
0.02717
0.0271779
0.0271774
0.0271738
0.0271702
0.0271673
0.0271655
0.0271646
0.0271642
0.0271639
0.0271638
0.0271637
0.0271637
0.0271637
0.0271637
0.0271637
0.0271637
0.0271637
0.0271637
0.0271638
0.0271638
0.0271639
0.0271639
0.027164
0.0271642
0.0271643
0.0271645
0.0271648
0.0271651
0.0271656
0.0271662
0.027167
0.027168
0.0271693
0.0271709
0.0271731
0.027176
0.0271797
0.0271845
0.0271908
0.027199
0.0272098
0.0272238
0.0272422
0.0272662
0.0272977
0.027339
0.0273927
0.0274635
0.027549
0.027676
0.0276379
0.0295583
0.0957015
0.130067
0.160353