/*--------------------------------*- C++ -*----------------------------------*\
| =========                 |                                                 |
| \\      /  F ield         | OpenFOAM: The Open Source CFD Toolbox           |
|  \\    /   O peration     | Version:  2.4.0                                 |
|   \\  /    A nd           | Web:      www.OpenFOAM.org                      |
|    \\/     M anipulation  |                                                 |
\*---------------------------------------------------------------------------*/
FoamFile
{
    version     2.0;
    format      ascii;
    class       volScalarField;
    location    "1450";
    object      omega;
}
// * * * * * * * * * * * * * * * * * * * * * * * * * * * * * * * * * * * * * //

dimensions      [0 0 -1 0 0 0 0];

internalField   nonuniform List<scalar> 
48900
(
141364
145609
147521
147899
147397
146440
145279
144061
142872
141759
140742
139827
139018
138307
137684
137141
136671
136265
135917
135621
135370
135157
134980
134832
134710
134609
134527
134460
134408
134367
134338
134318
134308
134313
134334
134361
16811.3
28137.4
35482.3
40049.4
42808.7
44437.6
45395.9
45975.8
46387.4
46839
47452.9
48125.7
48779.1
49385.8
49926.5
50390.6
50771.2
51069.6
51287.3
51431.6
51508.7
51527.5
51496.7
51421.9
51311.6
51170
51004.4
50816.4
50611.7
50390.8
50159
49911.3
49647.3
49392.1
49139.3
48836.7
2463
4868.28
7243.6
9446.09
11403.4
13077.7
14484.1
15660.8
16650.5
17499.6
18264.7
18984
19663.5
20299
20886.3
21425.4
21916.4
22362.3
22764.3
23123.8
23436.9
23708.5
23945
24154.8
24340.4
24505.9
24650.5
24775.9
24879.6
24963.9
25027
25069.7
25087.6
25078.1
25031.6
24972.5
804.069
1396.46
2050.14
2738.23
3440.34
4132.29
4797.1
5425.15
6011.82
6556.87
7063.13
7534.35
7973.66
8382.75
8762.91
9115.48
9441.98
9744.04
10023.7
10286.3
10541.6
10792.4
11036.8
11272.6
11497.7
11711.6
11913.5
12103.9
12282.2
12448.2
12600.6
12738.7
12859.7
12959.5
13032.6
13074.4
474.984
679.277
911.334
1162.05
1426.47
1698.73
1973.55
2246.78
2514.91
2775.13
3025.61
3265.18
3493.19
3709.28
3913.24
4105.03
4284.8
4452.89
4609.96
4758.24
4901.66
5041.79
5178.22
5310.17
5437.15
5558.89
5675.3
5786.32
5891.91
5991.89
6085.95
6173.5
6254.44
6328.93
6396.91
6455.87
376.004
462.28
564.113
675.798
794.603
918.282
1044.91
1172.94
1300.96
1427.69
1552.08
1673.29
1790.66
1903.67
2011.96
2115.22
2213.3
2306.1
2393.7
2476.32
2554.46
2628.63
2699.21
2766.46
2830.57
2891.7
2949.94
3005.38
3058.03
3107.87
3154.79
3198.57
3239.23
3276.92
3311.75
3342.97
339.247
378.835
428.756
485.249
546.25
610.342
676.458
743.784
811.631
879.38
946.502
1012.55
1077.14
1139.96
1200.78
1259.38
1315.61
1369.39
1420.64
1469.39
1515.7
1559.67
1601.44
1641.11
1678.81
1714.64
1748.68
1780.99
1811.62
1840.57
1867.84
1893.34
1917.01
1938.72
1958.42
1975.85
324.36
342.716
368.048
398.249
431.858
467.826
505.39
543.984
583.162
622.548
661.824
700.725
739.026
776.539
813.11
848.611
882.942
916.027
947.818
978.288
1007.44
1035.28
1061.85
1087.2
1111.35
1134.37
1156.28
1177.13
1196.93
1215.69
1233.43
1250.13
1265.74
1280.24
1293.59
1305.65
318.171
326.392
339.047
355.243
374.119
394.958
417.192
440.39
464.214
488.389
512.69
536.93
560.955
584.637
607.868
630.562
652.647
674.069
694.788
714.776
734.019
752.513
770.263
787.28
803.58
819.178
834.092
848.336
861.923
874.861
887.153
898.794
909.777
920.087
929.716
938.551
315.6
319.002
324.996
333.38
343.775
355.769
368.984
383.106
397.875
413.079
428.542
444.119
459.691
475.159
490.441
505.468
520.187
534.553
548.533
562.101
575.24
587.939
600.195
612.006
623.375
634.308
644.809
654.884
664.539
673.776
682.598
691.004
698.99
706.554
713.692
720.306
314.544
315.718
318.287
322.329
327.759
334.4
342.045
350.492
359.562
369.095
378.956
389.031
399.224
409.454
419.654
429.767
439.748
449.559
459.169
468.556
477.701
486.591
495.218
503.576
511.662
519.475
527.015
534.283
541.279
548.005
554.461
560.645
566.557
572.195
577.556
582.556
314.114
314.296
315.176
316.886
319.469
322.89
327.065
331.892
337.261
343.069
349.22
355.628
362.218
368.927
375.699
382.486
389.251
395.958
402.582
409.099
415.493
421.749
427.857
433.809
439.598
445.222
450.676
455.958
461.068
466.003
470.762
475.345
479.75
483.976
488.018
491.807
313.939
313.696
313.781
314.3
315.322
316.871
318.935
321.478
324.451
327.794
331.45
335.362
339.476
343.745
348.126
352.582
357.079
361.59
366.09
370.56
374.983
379.345
383.634
387.842
391.961
395.986
399.912
403.735
407.452
411.061
414.559
417.944
421.214
424.369
427.403
430.258
313.866
313.444
313.173
313.115
313.325
313.84
314.675
315.831
317.294
319.04
321.04
323.261
325.673
328.242
330.939
333.736
336.609
339.534
342.492
345.467
348.442
351.406
354.348
357.258
360.129
362.955
365.73
368.45
371.11
373.708
376.24
378.704
381.098
383.419
385.663
387.785
313.836
313.349
312.942
312.649
312.509
312.55
312.794
313.25
313.92
314.797
315.87
317.123
318.536
320.09
321.765
323.542
325.402
327.33
329.309
331.325
333.367
335.422
337.483
339.54
341.586
343.615
345.621
347.601
349.549
351.463
353.338
355.173
356.965
358.711
360.406
362.011
313.821
313.304
312.834
312.431
312.118
311.915
311.839
311.904
312.116
312.477
312.984
313.63
314.406
315.3
316.302
317.397
318.574
319.82
321.123
322.474
323.862
325.278
326.713
328.162
329.617
331.074
332.525
333.969
335.399
336.813
338.208
339.58
340.928
342.248
343.537
344.76
313.811
313.278
312.775
312.314
311.905
311.562
311.298
311.122
311.042
311.062
311.185
311.409
311.732
312.147
312.649
313.231
313.885
314.603
315.377
316.2
317.064
317.963
318.891
319.84
320.808
321.787
322.775
323.767
324.759
325.749
326.733
327.708
328.673
329.625
330.558
331.449
313.804
313.261
312.741
312.249
311.79
311.372
311.002
310.686
310.431
310.24
310.118
310.066
310.083
310.168
310.32
310.534
310.806
311.132
311.508
311.929
312.389
312.885
313.412
313.965
314.54
315.134
315.744
316.366
316.996
317.633
318.273
318.915
319.556
320.194
320.824
321.43
313.798
313.249
312.72
312.211
311.727
311.269
310.843
310.45
310.096
309.784
309.515
309.292
309.117
308.989
308.907
308.872
308.882
308.933
309.025
309.154
309.317
309.512
309.736
309.987
310.26
310.554
310.867
311.195
311.537
311.89
312.252
312.621
312.996
313.374
313.753
314.12
313.794
313.241
312.705
312.188
311.689
311.211
310.756
310.323
309.916
309.537
309.186
308.865
308.576
308.318
308.093
307.9
307.739
307.61
307.51
307.44
307.397
307.381
307.389
307.42
307.472
307.544
307.634
307.74
307.861
307.996
308.141
308.297
308.462
308.634
308.811
308.986
313.79
313.234
312.694
312.171
311.664
311.176
310.705
310.252
309.817
309.403
309.008
308.634
308.281
307.951
307.642
307.356
307.093
306.852
306.633
306.435
306.259
306.102
305.966
305.848
305.748
305.665
305.598
305.545
305.507
305.481
305.467
305.464
305.471
305.487
305.511
305.538
313.787
313.228
312.684
312.157
311.646
311.151
310.671
310.207
309.759
309.326
308.908
308.507
308.121
307.751
307.397
307.06
306.739
306.433
306.144
305.871
305.614
305.372
305.145
304.933
304.735
304.551
304.38
304.222
304.075
303.94
303.816
303.703
303.598
303.503
303.416
303.336
313.784
313.223
312.677
312.146
311.632
311.132
310.647
310.176
309.72
309.277
308.848
308.432
308.029
307.638
307.261
306.896
306.544
306.205
305.877
305.562
305.259
304.968
304.689
304.421
304.165
303.92
303.685
303.461
303.247
303.043
302.848
302.662
302.485
302.315
302.154
302.002
313.782
313.218
312.67
312.137
311.62
311.116
310.628
310.153
309.691
309.242
308.806
308.382
307.97
307.569
307.179
306.8
306.432
306.074
305.727
305.39
305.063
304.745
304.438
304.14
303.851
303.571
303.3
303.038
302.785
302.539
302.302
302.073
301.851
301.636
301.429
301.232
313.78
313.215
312.665
312.13
311.61
311.104
310.612
310.133
309.668
309.215
308.774
308.345
307.927
307.52
307.123
306.737
306.36
305.993
305.635
305.287
304.947
304.616
304.293
303.979
303.673
303.375
303.085
302.802
302.527
302.259
301.998
301.745
301.498
301.257
301.024
300.8
313.778
313.212
312.66
312.124
311.601
311.093
310.598
310.117
309.649
309.193
308.749
308.316
307.894
307.483
307.082
306.69
306.309
305.936
305.572
305.217
304.87
304.532
304.202
303.879
303.564
303.256
302.956
302.663
302.376
302.096
301.823
301.557
301.296
301.042
300.794
300.556
313.777
313.21
312.657
312.118
311.594
311.084
310.587
310.104
309.633
309.174
308.727
308.292
307.867
307.452
307.048
306.653
306.268
305.892
305.524
305.165
304.814
304.472
304.137
303.809
303.489
303.176
302.87
302.571
302.279
301.993
301.713
301.44
301.172
300.91
300.655
300.41
313.776
313.208
312.654
312.114
311.588
311.076
310.578
310.092
309.62
309.159
308.709
308.271
307.844
307.427
307.02
306.623
306.235
305.856
305.486
305.124
304.77
304.424
304.086
303.756
303.432
303.116
302.807
302.504
302.208
301.919
301.635
301.358
301.087
300.821
300.562
300.313
313.775
313.206
312.651
312.11
311.583
311.07
310.57
310.083
309.608
309.146
308.695
308.254
307.825
307.406
306.997
306.598
306.207
305.826
305.454
305.089
304.734
304.385
304.045
303.712
303.387
303.068
302.757
302.452
302.153
301.861
301.576
301.296
301.022
300.754
300.493
300.241
313.774
313.205
312.649
312.107
311.58
311.065
310.564
310.075
309.599
309.135
308.682
308.24
307.809
307.389
306.978
306.576
306.184
305.801
305.427
305.061
304.703
304.353
304.011
303.676
303.349
303.029
302.715
302.409
302.109
301.815
301.527
301.246
300.971
300.701
300.438
300.185
313.774
313.204
312.647
312.105
311.577
311.061
310.559
310.069
309.592
309.126
308.672
308.229
307.796
307.374
306.962
306.559
306.165
305.781
305.405
305.037
304.678
304.327
303.983
303.647
303.318
302.996
302.681
302.373
302.072
301.777
301.488
301.205
300.929
300.658
300.393
300.139
313.773
313.203
312.646
312.103
311.574
311.058
310.555
310.064
309.586
309.119
308.664
308.22
307.786
307.363
306.949
306.545
306.15
305.764
305.387
305.018
304.658
304.305
303.96
303.623
303.293
302.97
302.654
302.345
302.042
301.746
301.456
301.172
300.895
300.623
300.357
300.102
313.773
313.202
312.645
312.102
311.572
311.056
310.552
310.061
309.582
309.114
308.658
308.213
307.778
307.354
306.939
306.534
306.138
305.751
305.373
305.003
304.642
304.288
303.942
303.604
303.273
302.949
302.632
302.322
302.018
301.721
301.431
301.146
300.868
300.595
300.329
300.073
313.773
313.202
312.645
312.101
311.571
311.054
310.55
310.058
309.579
309.111
308.654
308.208
307.772
307.347
306.932
306.526
306.129
305.742
305.363
304.992
304.63
304.275
303.929
303.59
303.258
302.933
302.616
302.305
302.001
301.703
301.412
301.126
300.847
300.574
300.308
300.051
313.773
313.202
312.645
312.101
311.571
311.054
310.549
310.057
309.577
309.109
308.651
308.205
307.769
307.343
306.928
306.521
306.124
305.736
305.356
304.985
304.622
304.267
303.92
303.58
303.248
302.923
302.605
302.294
301.989
301.691
301.399
301.114
300.834
300.561
300.294
300.037
313.773
313.202
312.645
312.101
311.571
311.054
310.549
310.057
309.577
309.108
308.651
308.204
307.768
307.342
306.926
306.519
306.122
305.733
305.354
304.982
304.619
304.264
303.916
303.576
303.244
302.918
302.6
302.289
301.984
301.685
301.393
301.108
300.828
300.554
300.287
300.03
313.773
313.202
312.645
312.102
311.572
311.055
310.55
310.058
309.578
309.109
308.652
308.205
307.769
307.343
306.927
306.52
306.123
305.734
305.354
304.983
304.619
304.264
303.917
303.577
303.244
302.918
302.6
302.288
301.984
301.685
301.393
301.107
300.828
300.554
300.287
300.03
313.773
313.203
312.646
312.103
311.573
311.056
310.552
310.06
309.58
309.112
308.654
308.208
307.772
307.346
306.93
306.523
306.126
305.737
305.358
304.986
304.623
304.268
303.92
303.58
303.248
302.923
302.604
302.293
301.988
301.69
301.398
301.112
300.833
300.559
300.292
300.035
313.774
313.203
312.647
312.104
311.575
311.058
310.554
310.063
309.583
309.115
308.658
308.212
307.776
307.351
306.935
306.529
306.132
305.743
305.364
304.993
304.63
304.275
303.928
303.588
303.256
302.931
302.613
302.302
301.997
301.699
301.408
301.123
300.843
300.57
300.303
300.047
313.774
313.204
312.648
312.106
311.577
311.061
310.557
310.066
309.587
309.12
308.663
308.218
307.783
307.357
306.942
306.536
306.14
305.752
305.373
305.002
304.64
304.285
303.939
303.6
303.268
302.944
302.626
302.316
302.012
301.715
301.424
301.14
300.862
300.589
300.323
300.068
313.775
313.205
312.65
312.108
311.58
311.064
310.561
310.071
309.593
309.126
308.67
308.225
307.791
307.366
306.952
306.547
306.151
305.764
305.386
305.016
304.655
304.301
303.956
303.618
303.287
302.964
302.648
302.34
302.038
301.742
301.453
301.171
300.895
300.625
300.362
300.109
313.776
313.207
312.652
312.111
311.583
311.068
310.567
310.077
309.6
309.134
308.679
308.235
307.802
307.378
306.965
306.561
306.167
305.781
305.405
305.037
304.678
304.327
303.984
303.649
303.322
303.002
302.69
302.385
302.088
301.797
301.514
301.237
300.966
300.703
300.446
300.2
313.777
313.208
312.654
312.114
311.587
311.074
310.573
310.085
309.609
309.144
308.691
308.248
307.817
307.396
306.985
306.584
306.193
305.812
305.44
305.077
304.723
304.379
304.043
303.716
303.397
303.087
302.786
302.492
302.206
301.929
301.659
301.396
301.142
300.894
300.654
300.425
313.778
313.21
312.657
312.118
311.593
311.081
310.582
310.095
309.621
309.159
308.709
308.27
307.844
307.428
307.024
306.631
306.249
305.878
305.519
305.17
304.832
304.505
304.189
303.883
303.587
303.302
303.027
302.762
302.507
302.262
302.025
301.798
301.58
301.37
301.169
300.98
313.779
313.213
312.662
312.124
311.6
311.091
310.594
310.112
309.643
309.187
308.745
308.317
307.903
307.504
307.118
306.748
306.392
306.051
305.725
305.413
305.117
304.835
304.568
304.315
304.076
303.851
303.639
303.441
303.254
303.08
302.918
302.768
302.628
302.498
302.379
302.273
313.781
313.217
312.667
312.132
311.612
311.108
310.619
310.147
309.692
309.255
308.838
308.44
308.064
307.709
307.376
307.065
306.778
306.513
306.27
306.051
305.853
305.677
305.522
305.387
305.272
305.175
305.097
305.035
304.99
304.96
304.944
304.942
304.953
304.975
305.009
305.053
313.784
313.222
312.676
312.147
311.637
311.148
310.681
310.241
309.829
309.448
309.1
308.787
308.511
308.272
308.071
307.908
307.782
307.693
307.639
307.619
307.632
307.677
307.75
307.851
307.978
308.128
308.301
308.494
308.706
308.934
309.178
309.436
309.706
309.987
310.278
310.574
313.788
313.231
312.695
312.184
311.705
311.263
310.866
310.519
310.23
310.001
309.836
309.737
309.705
309.737
309.834
309.992
310.209
310.482
310.805
311.177
311.592
312.047
312.538
313.062
313.614
314.192
314.793
315.413
316.049
316.699
317.362
318.034
318.713
319.398
320.086
320.768
313.795
313.254
312.749
312.298
311.915
311.617
311.419
311.331
311.358
311.506
311.773
312.156
312.651
313.251
313.949
314.735
315.603
316.543
317.546
318.606
319.715
320.865
322.051
323.265
324.503
325.76
327.03
328.311
329.599
330.889
332.18
333.468
334.751
336.028
337.294
338.536
313.815
313.323
312.925
312.661
312.568
312.674
312.996
313.541
314.308
315.286
316.461
317.819
319.339
321.004
322.794
324.692
326.682
328.747
330.875
333.051
335.266
337.509
339.771
342.043
344.32
346.594
348.861
351.116
353.356
355.575
357.773
359.945
362.091
364.208
366.292
368.322
313.881
313.556
313.499
313.791
314.488
315.611
317.156
319.099
321.404
324.031
326.935
330.075
333.412
336.91
340.536
344.262
348.062
351.914
355.799
359.701
363.605
367.5
371.376
375.223
379.034
382.803
386.526
390.197
393.813
397.373
400.873
404.311
407.687
411
414.246
417.396
314.107
314.341
315.303
317.096
319.735
323.166
327.299
332.032
337.262
342.894
348.844
355.039
361.415
367.919
374.508
381.142
387.79
394.426
401.028
407.577
414.059
420.461
426.773
432.988
439.1
445.104
450.996
456.774
462.435
467.979
473.405
478.714
483.905
488.98
493.936
498.737
314.897
316.874
320.631
326.108
333.088
341.306
350.498
360.434
370.925
381.814
392.977
404.312
415.737
427.187
438.608
449.955
461.194
472.297
483.24
494.007
504.583
514.958
525.126
535.082
544.822
554.345
563.65
572.738
581.61
590.269
598.717
606.956
614.992
622.826
630.461
637.853
317.591
324.648
335.487
349.326
365.403
383.089
401.891
421.441
441.465
461.756
482.153
502.533
522.799
542.872
562.692
582.208
601.382
620.185
638.597
656.603
674.194
691.368
708.124
724.463
740.391
755.911
771.03
785.755
800.093
814.052
827.641
840.867
853.741
866.272
878.465
890.276
326.572
347.703
375.663
408.035
443.252
480.264
518.336
556.964
595.79
634.544
673.017
711.046
748.504
785.286
821.314
856.525
890.88
924.355
956.942
988.644
1019.48
1049.46
1078.61
1106.95
1134.5
1161.29
1187.33
1212.64
1237.25
1261.18
1284.44
1307.05
1329.04
1350.42
1371.22
1391.39
356.744
417.131
488.262
565.217
645.572
727.757
810.61
893.354
975.409
1056.32
1135.72
1213.34
1288.96
1362.41
1433.59
1502.46
1569.03
1633.38
1695.61
1755.85
1814.22
1870.83
1925.77
1979.12
2030.93
2081.25
2130.15
2177.66
2223.83
2268.7
2312.32
2354.72
2395.97
2436.08
2475.12
2513.06
468.785
656.196
859.579
1070.37
1284.69
1499.03
1710.35
1916.8
2116.98
2309.83
2494.68
2671.12
2838.99
2998.3
3149.37
3292.82
3429.61
3560.83
3687.49
3810.37
3929.96
4046.41
4159.74
4269.98
4377.16
4481.34
4582.56
4680.88
4776.37
4869.1
4959.12
5046.53
5131.38
5213.77
5293.77
5371.41
1044.61
1817.32
2591.04
3347.88
4075.1
4758.2
5388.53
5964.52
6486.63
6957.38
7380.52
7760.36
8101.27
8407.55
8683.63
8934.57
9166.13
9384.46
9595.39
9803.91
10013.4
10223.3
10431.9
10637.5
10838.9
11035.1
11225.4
11409.4
11586.8
11757.3
11920.9
12077.6
12227.4
12370.4
12506.8
12636.4
6296.65
10901.5
14553.7
17433.2
19657.4
21341.6
22600.8
23536.1
24228.1
24739.4
25117.9
25398.8
25608.4
25765.5
25884.3
25976.3
26051.8
26122.7
26202.8
26303.9
26431.1
26580.3
26745.9
26920.9
27101.2
27281.9
27460.7
27634.6
27802.6
27962.4
28114.5
28256.9
28390.8
28514.6
28630.2
28736
71643.3
74450.8
76458.3
77778
78563.8
78958.9
79075.5
78999.1
78792.8
78502.1
78159.1
77786.5
77400
77010.7
76626.1
76251.6
75890.6
75545.3
75217
74906
74612.3
74335.9
74075.6
73830.8
73600
73383.1
73178.5
72986.2
72804.8
72634.5
72473.8
72323
72180.7
72047.2
71921.1
71803.1
45809.9
9972.04
9976.58
9981.25
9986.1
9991.16
9996.48
10002.1
10008.5
10015.5
10023
10030.5
10038.1
10046.6
10055.8
10065.1
10074.5
10083.6
10092.5
10101.2
10109.5
10117.5
10125.2
10132.5
10139.4
10146
10152.2
10158
10163.5
10168.6
10173.3
10177.6
10181.6
10185.1
10188.3
10191.6
10195
10198.2
10201.2
10204
10206.5
10208.8
10210.9
10212.7
10214.4
10216
10217.6
10219.3
10221.2
10223.3
10225.7
10228.6
10232
10235.8
10240.1
10244.8
10249.8
10255
10260.3
10265.8
10271.4
10277.1
10282.8
10288.6
10294.4
10300.3
10306.3
10312.3
10318.3
10324.5
10330.7
10337
10343.5
10350
10356.8
10363.6
10370.7
10377.9
10385.2
10392.6
10400
10407.4
10414.7
10422
10429.2
10436.3
10443.3
10450.2
10457.1
10463.9
10470.8
10477.7
10484.6
10491.7
10498.8
10506
10513.2
10520.5
10527.9
10535.4
10543
10550.7
10558.4
10566.3
10574.3
10582.8
10591.8
10601
10609.8
10618.4
10626.5
10634
10643.6
10680.8
10746.2
10834.6
10936.9
11044
11150.8
11255.2
11356
11452.9
11545.8
11634.9
11720.4
11802.6
11881.8
11958.2
12032
12103.5
12172.9
12240.3
12305.9
12369.9
12432.4
12493.5
12553.2
12611.7
12669
12725.2
12780.3
12834.5
12887.7
12939.9
12991.2
13041.7
13091.3
13140
13187.9
13235
13281.3
13326.8
13371.5
13415.4
13458.6
13500.9
13542.5
13583.4
13623.4
13662.7
13701.2
13739
13776
13812.2
13847.7
13882.4
13916.4
13949.6
13982.1
14013.8
14044.8
14075.1
14104.7
14133.6
14161.8
14189.4
14216.4
14242.9
14268.9
14294.4
14319.5
14344
14367.8
14391.1
14413.8
14435.8
14457.2
14478.1
14498.4
14518.1
14537.3
14556
14574.3
14592
14609.3
14626.2
14642.7
14658.7
14674.4
14689.8
14704.8
14719.5
14734
14748.2
14762.1
14775.9
14789.5
14803
14816.3
14829.6
14842.9
14856.2
14869.5
14883
14896.7
14910.8
14925.2
14940
14955.1
14970.5
14986.3
15002.4
15018.9
15035.9
15053.4
15071.4
15090
15109.2
15129
15149.6
15170.8
15192.8
15215.5
15239
15263.3
15288.5
15314.6
15341.4
15369.2
15397.8
15427.3
15457.6
15488.8
15520.8
15553.8
15587.6
15622.3
15657.8
15694.1
15731.3
15769.1
15807.7
15846.9
15886.8
15927.3
15968.4
16009.9
16051.9
16094.2
16136.9
16179.9
16223.1
16266.4
16309.8
16353.2
16396.6
16439.8
16482.9
16525.6
16568.1
16610.2
16651.8
16692.8
16733.3
16773.2
16812.4
16850.9
16888.6
16925.6
16961.9
16997.5
17032.6
17067.4
17101.9
17135.6
17168.1
17199.4
17229.5
17258.4
17286.1
17312.6
17337.8
17361.6
17384.2
17405.4
17425.3
17443.9
17461
17476.9
17491.3
17504.2
17515.7
17525.4
17533.6
17540.3
17545.5
17549.2
17551.5
17552.3
17551.7
17549.7
17546.2
17541.4
17535.2
17527.6
17518.7
17508.5
17497
17484.2
17470.2
17455
17438.5
17420.9
17402.2
17382.3
17361.3
17339.3
17316.2
17292.1
17266.9
17240.8
17213.8
17185.9
17157.1
17127.4
17096.9
17065.6
17033.6
17000.8
16967.3
16933.2
16898.4
16863
16826.9
16790.4
16753.1
16714.9
16676.5
16638.2
16601.2
16585.1
16609.3
16634.3
16656
16674.5
16685
16689.8
16671.6
16639.9
16502.4
45810
7910.36
3375.31
2583.67
2391.83
2254.81
2069.38
1829.2
1666.02
1602.63
1571.36
1554.26
1544.7
1540.21
1539.39
1541.29
1545.31
1550.99
1558.02
1566.16
1575.22
1585.08
1595.63
1606.79
1618.49
1630.69
1643.35
1656.46
1670
1683.96
1698.36
1713.2
1728.52
1744.45
1762.18
1794.21
1843.58
1902.32
1968.41
2040.33
2116.54
2195.58
2276.01
2356.39
2435.22
2510.94
2581.81
2645.81
2700.63
2743.53
2771.15
2780.35
2769.91
2740.51
2693.68
2631.53
2556.77
2472.91
2384.14
2294.5
2207.61
2126.24
2051.22
1981.51
1917.57
1877.58
1852.8
1830.86
1804.76
1777.89
1751.84
1727.44
1705.17
1685.43
1668.6
1655.08
1645.08
1638.78
1636.22
1637.28
1641.78
1649.32
1659.36
1671.44
1685.08
1699.83
1715.23
1730.84
1746.3
1761.27
1775.6
1789.33
1801.9
1813.22
1824.64
1837.17
1851.69
1869.23
1893.74
1930.13
1978.59
2040.43
2117.64
2216.66
2339.88
2488.74
2718.9
3112.22
3573.28
4031.72
4435.16
4762.22
4999.98
5141.17
5193.89
5175.31
5099.86
4988.06
4862.39
4737.03
4618.6
4510.13
4412.64
4326.17
4250.2
4183.91
4126.38
4076.66
4033.86
3997.11
3965.67
3938.82
3915.96
3896.56
3880.13
3866.29
3854.68
3845.01
3837.04
3830.54
3825.31
3821.2
3818.06
3815.77
3814.23
3813.33
3813.01
3813.19
3813.82
3814.83
3816.19
3817.86
3819.81
3822
3824.4
3827.01
3829.8
3832.74
3835.84
3839.07
3842.43
3845.91
3849.5
3853.19
3856.99
3860.89
3864.89
3868.99
3873.19
3877.51
3881.95
3886.52
3891.24
3896.13
3901.22
3906.54
3912.12
3918.04
3924.36
3931.49
3938.87
3946.14
3953.27
3960.26
3967.14
3973.9
3980.55
3987.09
3993.53
3999.87
4006.11
4012.26
4018.32
4024.31
4030.22
4036.06
4041.84
4047.57
4053.24
4058.89
4064.5
4070.09
4075.67
4081.26
4086.86
4092.5
4098.19
4103.95
4109.8
4115.77
4121.88
4128.18
4134.71
4141.54
4148.64
4156.12
4164.22
4173.18
4182.36
4191.77
4201.39
4211.25
4221.34
4231.67
4242.23
4253.04
4264.08
4275.36
4286.87
4298.61
4310.57
4322.74
4335.1
4347.65
4360.37
4373.24
4386.22
4399.31
4412.46
4425.66
4438.85
4451.96
4465.02
4478.05
4491.04
4503.95
4516.76
4529.44
4541.96
4554.29
4566.4
4578.27
4589.87
4601.18
4612.15
4622.78
4633.05
4642.92
4652.38
4661.41
4670
4678.13
4685.78
4692.94
4699.62
4705.79
4711.46
4716.62
4721.28
4725.44
4729.12
4732.32
4735.08
4737.41
4739.36
4740.99
4742.35
4743.51
4744.59
4745.73
4746.97
4748.58
4751.84
4757.24
4762.41
4767.29
4771.91
4776.25
4780.33
4784.14
4787.69
4790.98
4794.02
4796.79
4799.32
4801.6
4803.62
4805.37
4806.83
4807.96
4808.67
4808.83
4808.18
4807.12
4805.79
4804.18
4802.32
4800.21
4797.85
4795.25
4792.41
4789.34
4786.06
4782.56
4778.85
4774.93
4770.83
4766.53
4762.06
4757.4
4752.58
4747.6
4742.46
4737.17
4731.73
4726.16
4720.45
4714.62
4708.66
4702.6
4696.42
4690.15
4683.79
4677.34
4670.81
4664.21
4657.54
4650.81
4644.03
4637.19
4630.31
4623.38
4616.4
4609.35
4602.35
4595.16
4587.59
4580.41
4573.38
4566.94
4564
4567.28
4572.16
4577.88
4583.92
4591.63
4600.13
4614.57
4634.53
4727.09
45810
7848.6
2770.02
1585.54
1214.62
1025.65
875.984
800.527
765.368
746.622
733.889
723.321
713.675
704.677
696.368
688.862
682.262
676.633
672.006
668.38
665.735
664.032
663.227
663.267
664.104
665.688
667.972
670.915
674.48
678.635
683.354
688.618
694.421
700.797
707.939
716.592
728.002
745.614
768.075
795.22
826.858
862.761
902.63
946.068
992.552
1041.45
1091.89
1142.75
1192.66
1240.02
1283.02
1319.73
1348.41
1367.77
1377.07
1376.09
1365.07
1344.67
1315.9
1279.92
1237.93
1191.03
1140.21
1086.26
1029.97
972.967
916.057
863.491
819.544
779.419
742.615
709.263
679.495
653.464
631.354
613.331
599.489
589.824
584.259
582.618
584.631
589.957
598.236
609.127
622.337
637.625
654.806
673.765
694.42
716.32
739.95
766.285
797.342
834.606
878.309
929.982
992.184
1066.2
1155.73
1266.68
1407.96
1606.71
1822.38
2051.58
2277.91
2488.21
2681.93
2860.28
3017.55
3147.52
3243.89
3303.94
3328.35
3318.95
3274.67
3200.7
3104.46
2996.32
2887.44
2785.49
2693.81
2613.16
2543.14
2482.87
2431.27
2387.25
2349.78
2317.92
2290.86
2267.88
2248.39
2231.86
2217.85
2205.99
2195.97
2187.53
2180.44
2174.52
2169.61
2165.58
2162.31
2159.71
2157.69
2156.18
2155.12
2154.46
2154.14
2154.13
2154.4
2154.91
2155.65
2156.58
2157.7
2158.98
2160.41
2161.98
2163.68
2165.5
2167.42
2169.45
2171.59
2173.81
2176.13
2178.53
2181.03
2183.61
2186.27
2189.03
2191.88
2194.82
2197.87
2201.02
2204.3
2207.7
2211.24
2214.94
2218.8
2222.85
2227.21
2231.67
2236.12
2240.54
2244.92
2249.25
2253.55
2257.81
2262.03
2266.23
2270.39
2274.53
2278.65
2282.75
2286.83
2290.89
2294.95
2298.99
2303.04
2307.09
2311.15
2315.22
2319.31
2323.43
2327.58
2331.77
2336.02
2340.32
2344.69
2349.15
2353.7
2358.37
2363.16
2368.09
2373.19
2378.47
2383.96
2389.68
2395.7
2401.9
2408.23
2414.67
2421.24
2427.93
2434.74
2441.67
2448.72
2455.89
2463.17
2470.55
2478.03
2485.61
2493.28
2501.01
2508.82
2516.68
2524.58
2532.5
2540.44
2548.38
2556.3
2564.19
2572.02
2579.78
2587.47
2595.06
2602.54
2609.9
2617.12
2624.18
2631.06
2637.74
2644.22
2650.48
2656.5
2662.27
2667.77
2673.01
2677.95
2682.61
2686.96
2691.01
2694.75
2698.17
2701.28
2704.07
2706.55
2708.72
2710.59
2712.17
2713.46
2714.49
2715.26
2715.79
2716.12
2716.27
2716.27
2716.16
2715.99
2715.81
2715.67
2715.64
2715.92
2717.07
2718.42
2719.85
2721.13
2722.26
2723.24
2724.08
2724.78
2725.33
2725.75
2726.04
2726.19
2726.22
2726.12
2725.89
2725.53
2725.04
2724.41
2723.62
2722.67
2721.53
2720.22
2718.79
2717.25
2715.62
2713.89
2712.07
2710.16
2708.16
2706.08
2703.93
2701.69
2699.39
2697.01
2694.56
2692.05
2689.47
2686.84
2684.15
2681.4
2678.59
2675.74
2672.83
2669.88
2666.88
2663.84
2660.77
2657.65
2654.5
2651.31
2648.09
2644.84
2641.55
2638.24
2634.9
2631.53
2628.12
2624.69
2621.22
2617.72
2614.16
2610.56
2606.81
2603.12
2599.34
2595.45
2591.62
2587.87
2584.42
2582.04
2581.41
2581.73
2582.86
2584.69
2588.07
2593.03
2602.83
2618.54
2662.03
45810
7909.34
2747.31
1433.84
994.192
825.31
758.203
724.344
699.012
675.127
651.545
628.4
606.102
585.051
565.541
547.739
531.706
517.428
504.844
493.861
484.371
476.263
469.423
463.745
459.128
455.483
452.727
450.788
449.601
449.11
449.27
450.041
451.397
453.332
455.885
459.19
463.558
469.693
478.026
488.624
501.567
516.923
534.744
555.045
577.796
602.9
630.17
659.298
689.828
721.136
752.426
782.736
810.995
836.109
857.052
872.938
883.082
887.106
884.918
876.604
862.436
842.819
818.253
789.317
756.666
721.083
683.408
644.73
606.384
571.288
538.675
508.366
480.776
456.306
435.327
418.142
404.948
395.793
390.584
389.138
391.232
396.644
405.185
416.723
431.222
448.725
469.377
493.525
521.73
555.044
594.053
639.695
693.344
756.518
831.539
923.357
1041.86
1174.96
1324.44
1486.69
1655.56
1821.98
1972.42
2102.04
2209.52
2297.14
2368.19
2424.19
2465.05
2489.01
2494.44
2480.36
2446.64
2394.03
2325.26
2246.09
2163.53
2083.58
2010.03
1944.51
1887.32
1838.01
1795.84
1759.96
1729.53
1703.77
1681.98
1663.56
1647.99
1634.84
1623.75
1614.39
1606.52
1599.92
1594.41
1589.83
1586.06
1583
1580.54
1578.61
1577.14
1576.08
1575.37
1574.98
1574.87
1575.01
1575.37
1575.93
1576.67
1577.56
1578.61
1579.79
1581.09
1582.5
1584.02
1585.63
1587.34
1589.13
1591
1592.94
1594.96
1597.05
1599.2
1601.42
1603.71
1606.06
1608.48
1610.96
1613.52
1616.14
1618.84
1621.61
1624.47
1627.41
1630.45
1633.58
1636.82
1640.17
1643.63
1647.11
1650.6
1654.07
1657.53
1660.98
1664.42
1667.85
1671.28
1674.69
1678.11
1681.52
1684.93
1688.34
1691.76
1695.18
1698.61
1702.06
1705.52
1709
1712.5
1716.03
1719.59
1723.19
1726.82
1730.51
1734.24
1738.03
1741.88
1745.8
1749.81
1753.89
1758.07
1762.35
1766.75
1771.25
1775.88
1780.66
1785.55
1790.53
1795.58
1800.71
1805.91
1811.19
1816.54
1821.95
1827.43
1832.98
1838.57
1844.23
1849.92
1855.66
1861.43
1867.22
1873.03
1878.85
1884.66
1890.46
1896.24
1901.98
1907.68
1913.32
1918.89
1924.38
1929.78
1935.07
1940.26
1945.32
1950.24
1955.02
1959.63
1964.08
1968.35
1972.44
1976.33
1980.02
1983.49
1986.76
1989.81
1992.63
1995.23
1997.61
1999.76
2001.68
2003.39
2004.87
2006.15
2007.22
2008.08
2008.76
2009.27
2009.61
2009.79
2009.85
2009.79
2009.64
2009.42
2009.15
2008.88
2008.62
2008.4
2008.34
2008.61
2008.99
2009.35
2009.65
2009.84
2009.94
2009.94
2009.85
2009.66
2009.38
2009.02
2008.58
2008.05
2007.44
2006.75
2005.99
2005.14
2004.22
2003.22
2002.13
2000.96
1999.7
1998.37
1996.98
1995.54
1994.04
1992.49
1990.89
1989.24
1987.55
1985.82
1984.04
1982.22
1980.36
1978.46
1976.53
1974.55
1972.55
1970.51
1968.43
1966.32
1964.19
1962.02
1959.82
1957.59
1955.34
1953.05
1950.75
1948.41
1946.05
1943.67
1941.26
1938.82
1936.35
1933.85
1931.33
1928.77
1926.17
1923.53
1920.84
1918.11
1915.27
1912.41
1909.47
1906.49
1903.46
1900.38
1897.32
1894.31
1891.5
1889.17
1887.57
1886.58
1886.19
1886.47
1887.95
1890.94
1897.33
1908.24
1931.52
45810
7949.45
2813.54
1502.46
1082.4
929.861
855.607
801.676
752.677
706.583
665.08
627.093
592.488
561.283
533.413
508.685
486.853
467.653
450.82
436.105
423.281
412.14
402.499
394.197
387.091
381.059
375.994
371.804
368.41
365.744
363.749
362.378
361.595
361.38
361.732
362.685
364.332
366.857
370.568
375.519
381.786
389.447
398.572
409.226
421.458
435.291
450.715
467.675
486.047
505.623
526.1
547.063
567.994
588.278
607.232
624.122
638.195
648.859
655.733
658.49
656.942
651.051
640.923
626.8
609.057
588.2
564.872
539.751
513.595
487.38
462.42
438.938
417.066
397.411
380.555
366.971
356.97
350.702
348.18
349.345
354.132
362.521
374.533
390.269
410.13
434.544
464.105
499.469
541.149
589.874
647.208
716.372
799.073
894.827
1004.77
1128.5
1261.96
1396.88
1525.77
1642.59
1743.88