/*--------------------------------*- C++ -*----------------------------------*\
| =========                 |                                                 |
| \\      /  F ield         | OpenFOAM: The Open Source CFD Toolbox           |
|  \\    /   O peration     | Version:  2.4.0                                 |
|   \\  /    A nd           | Web:      www.OpenFOAM.org                      |
|    \\/     M anipulation  |                                                 |
\*---------------------------------------------------------------------------*/
FoamFile
{
    version     2.0;
    format      ascii;
    class       volVectorField;
    location    "1450";
    object      U;
}
// * * * * * * * * * * * * * * * * * * * * * * * * * * * * * * * * * * * * * //

dimensions      [0 1 -1 0 0 0 0];

internalField   nonuniform List<vector> 
48900
(
(9.69282 0.0496205 0)
(9.20218 0.0842928 0)
(8.68941 0.0898935 0)
(8.17356 0.0859138 0)
(7.6877 0.0785806 0)
(7.23509 0.0701994 0)
(6.81079 0.0621104 0)
(6.41626 0.0546769 0)
(6.05315 0.0479347 0)
(5.72063 0.0418692 0)
(5.41831 0.036446 0)
(5.14459 0.0313905 0)
(4.89937 0.026745 0)
(4.67839 0.022918 0)
(4.48042 0.0197823 0)
(4.30324 0.0170626 0)
(4.14663 0.0146128 0)
(4.00791 0.0124052 0)
(3.88699 0.0103957 0)
(3.78106 0.00862097 0)
(3.68992 0.00702993 0)
(3.61086 0.0056055 0)
(3.54396 0.00431279 0)
(3.48637 0.00317828 0)
(3.4384 0.00218488 0)
(3.39728 0.00133458 0)
(3.36381 0.000587594 0)
(3.33538 -6.13601e-05 0)
(3.31324 -0.000659932 0)
(3.29492 -0.00122415 0)
(3.28219 -0.00180099 0)
(3.27277 -0.00246968 0)
(3.26918 -0.00348029 0)
(3.27021 -0.00486236 0)
(3.2823 -0.00361904 0)
(3.27513 -0.0247265 0)
(10.0234 0.1074 0)
(10.0407 0.123469 0)
(10.0034 0.123476 0)
(9.9165 0.12401 0)
(9.80163 0.124607 0)
(9.66632 0.123599 0)
(9.5146 0.12145 0)
(9.35156 0.118285 0)
(9.18174 0.114128 0)
(9.00852 0.109141 0)
(8.83495 0.103469 0)
(8.66317 0.0973287 0)
(8.49585 0.0910463 0)
(8.33412 0.084768 0)
(8.18114 0.078558 0)
(8.03546 0.0723336 0)
(7.89978 0.0662253 0)
(7.77169 0.0602258 0)
(7.65408 0.0544896 0)
(7.54372 0.0489987 0)
(7.44372 0.0438936 0)
(7.35004 0.039158 0)
(7.26534 0.03486 0)
(7.18582 0.0308767 0)
(7.11472 0.02729 0)
(7.04777 0.0239552 0)
(6.98874 0.0209553 0)
(6.93291 0.0181161 0)
(6.88469 0.0155273 0)
(6.83887 0.0129545 0)
(6.80069 0.0105158 0)
(6.76438 0.00780775 0)
(6.73637 0.00500352 0)
(6.71011 0.00095536 0)
(6.6936 -0.00363146 0)
(6.68065 -0.0132073 0)
(10.0331 0.0845898 0)
(10.0834 0.112015 0)
(10.1148 0.119433 0)
(10.1178 0.125258 0)
(10.1146 0.131353 0)
(10.1031 0.134311 0)
(10.0819 0.135034 0)
(10.0518 0.134227 0)
(10.0137 0.132111 0)
(9.96847 0.12898 0)
(9.91688 0.124991 0)
(9.85996 0.120288 0)
(9.79865 0.115138 0)
(9.73407 0.109691 0)
(9.66737 0.103993 0)
(9.59939 0.0980598 0)
(9.5309 0.0920059 0)
(9.46247 0.0859187 0)
(9.39476 0.0799056 0)
(9.32791 0.0740373 0)
(9.26294 0.0683852 0)
(9.19908 0.0629611 0)
(9.1385 0.0579558 0)
(9.07906 0.0532158 0)
(9.02339 0.0488752 0)
(8.9688 0.0447288 0)
(8.91833 0.0409076 0)
(8.86884 0.0371813 0)
(8.8238 0.0336789 0)
(8.77961 0.0300971 0)
(8.74035 0.0265847 0)
(8.70185 0.0226366 0)
(8.66898 0.0184035 0)
(8.63676 0.0128124 0)
(8.61128 0.00626947 0)
(8.58341 -0.00674891 0)
(10.0287 0.0716435 0)
(10.0725 0.103069 0)
(10.1077 0.114548 0)
(10.1243 0.122631 0)
(10.1384 0.129088 0)
(10.1504 0.132615 0)
(10.1579 0.134175 0)
(10.1626 0.134615 0)
(10.1629 0.134064 0)
(10.1607 0.132463 0)
(10.1554 0.129964 0)
(10.1471 0.126709 0)
(10.1359 0.122891 0)
(10.122 0.118623 0)
(10.1056 0.114001 0)
(10.0871 0.109053 0)
(10.0667 0.103885 0)
(10.0445 0.0985634 0)
(10.021 0.0932174 0)
(9.99616 0.0878881 0)
(9.97038 0.0827078 0)
(9.94393 0.07769 0)
(9.91711 0.0729023 0)
(9.8901 0.0683138 0)
(9.86316 0.0639556 0)
(9.83637 0.0597755 0)
(9.81002 0.0557774 0)
(9.78398 0.0518576 0)
(9.75888 0.0480355 0)
(9.73416 0.0441001 0)
(9.7109 0.0400941 0)
(9.6881 0.0356125 0)
(9.66719 0.0306624 0)
(9.64669 0.0244555 0)
(9.62821 0.016915 0)
(9.60639 0.00554253 0)
(10.0227 0.0607327 0)
(10.0604 0.0949688 0)
(10.0935 0.108955 0)
(10.1127 0.117825 0)
(10.1298 0.12477 0)
(10.1456 0.129049 0)
(10.1586 0.131336 0)
(10.1698 0.132393 0)
(10.1792 0.132284 0)
(10.1872 0.131062 0)
(10.1935 0.128983 0)
(10.1981 0.126208 0)
(10.2012 0.122908 0)
(10.2029 0.119165 0)
(10.2031 0.115023 0)
(10.2021 0.110571 0)
(10.1998 0.105895 0)
(10.1963 0.101065 0)
(10.1916 0.0961874 0)
(10.1859 0.0913175 0)
(10.1793 0.0865464 0)
(10.1719 0.0818698 0)
(10.1639 0.0773717 0)
(10.1554 0.0730384 0)
(10.1464 0.0689068 0)
(10.1373 0.0649167 0)
(10.1279 0.0610779 0)
(10.1185 0.0572798 0)
(10.1092 0.053513 0)
(10.1 0.0496208 0)
(10.091 0.0455474 0)
(10.0822 0.0410367 0)
(10.0738 0.0359431 0)
(10.0653 0.0297656 0)
(10.0569 0.0225537 0)
(10.0459 0.0132308 0)
(10.017 0.0513391 0)
(10.0501 0.0869834 0)
(10.0809 0.10299 0)
(10.1009 0.112866 0)
(10.1187 0.120282 0)
(10.1351 0.125041 0)
(10.1495 0.127737 0)
(10.1623 0.129074 0)
(10.1738 0.129286 0)
(10.1842 0.128402 0)
(10.1934 0.126659 0)
(10.2015 0.124215 0)
(10.2085 0.121192 0)
(10.2145 0.117722 0)
(10.2195 0.113905 0)
(10.2237 0.109782 0)
(10.2269 0.105438 0)
(10.2293 0.100933 0)
(10.2309 0.0963736 0)
(10.2317 0.0917995 0)
(10.2319 0.0872933 0)
(10.2314 0.0828678 0)
(10.2305 0.0785897 0)
(10.2291 0.0744577 0)
(10.2274 0.0704836 0)
(10.2254 0.0666267 0)
(10.2233 0.0628733 0)
(10.2211 0.0591405 0)
(10.2188 0.0553961 0)
(10.2166 0.0515117 0)
(10.2144 0.0474167 0)
(10.2123 0.0429003 0)
(10.2102 0.0378408 0)
(10.2077 0.031895 0)
(10.2047 0.0251893 0)
(10.1997 0.0172549 0)
(10.0124 0.0433916 0)
(10.0412 0.0791463 0)
(10.0701 0.0967721 0)
(10.0903 0.107669 0)
(10.1082 0.115558 0)
(10.1248 0.120733 0)
(10.1395 0.123797 0)
(10.1527 0.125418 0)
(10.1649 0.125866 0)
(10.176 0.125241 0)
(10.1862 0.123752 0)
(10.1953 0.121555 0)
(10.2036 0.118802 0)
(10.211 0.115586 0)
(10.2176 0.111994 0)
(10.2234 0.108098 0)
(10.2285 0.103975 0)
(10.2329 0.0996967 0)
(10.2367 0.0953386 0)
(10.2398 0.090968 0)
(10.2424 0.0866507 0)
(10.2445 0.082403 0)
(10.2462 0.0782794 0)
(10.2475 0.074273 0)
(10.2485 0.0703959 0)
(10.2494 0.0666142 0)
(10.2501 0.0629038 0)
(10.2507 0.0592006 0)
(10.2512 0.0554592 0)
(10.2517 0.0515803 0)
(10.2523 0.0474799 0)
(10.2527 0.0430042 0)
(10.253 0.0380451 0)
(10.2528 0.0324026 0)
(10.252 0.0262025 0)
(10.2497 0.0193116 0)
(10.009 0.0368263 0)
(10.0337 0.0716707 0)
(10.0604 0.0904146 0)
(10.0806 0.102221 0)
(10.0985 0.110586 0)
(10.115 0.116168 0)
(10.1299 0.1196 0)
(10.1433 0.121506 0)
(10.1557 0.122195 0)
(10.1671 0.121812 0)
(10.1776 0.120555 0)
(10.1871 0.118585 0)
(10.1959 0.11604 0)
(10.2039 0.113031 0)
(10.2111 0.109646 0)
(10.2176 0.105956 0)
(10.2235 0.102039 0)
(10.2288 0.0979603 0)
(10.2334 0.0938067 0)
(10.2375 0.0896202 0)
(10.2411 0.0854633 0)
(10.2442 0.0813633 0)
(10.247 0.0773584 0)
(10.2495 0.0734541 0)
(10.2517 0.0696498 0)
(10.2538 0.0659244 0)
(10.2557 0.0622492 0)
(10.2575 0.05857 0)
(10.2592 0.0548373 0)
(10.2609 0.0509704 0)
(10.2625 0.0468898 0)
(10.264 0.0424827 0)
(10.2652 0.0376669 0)
(10.266 0.0323383 0)
(10.2661 0.0266237 0)
(10.265 0.0205433 0)
(10.0065 0.0314431 0)
(10.0272 0.064691 0)
(10.0517 0.0840375 0)
(10.0716 0.0965703 0)
(10.0893 0.105394 0)
(10.1058 0.111373 0)
(10.1206 0.115166 0)
(10.1342 0.117364 0)
(10.1467 0.118299 0)
(10.1582 0.118154 0)
(10.1688 0.117125 0)
(10.1786 0.115375 0)
(10.1876 0.113042 0)
(10.1958 0.110237 0)
(10.2034 0.10705 0)
(10.2102 0.103554 0)
(10.2165 0.0998271 0)
(10.2221 0.095936 0)
(10.2272 0.0919533 0)
(10.2318 0.0879313 0)
(10.2359 0.0839241 0)
(10.2396 0.0799578 0)
(10.243 0.0760654 0)
(10.2461 0.0722525 0)
(10.2489 0.0685211 0)
(10.2515 0.0648508 0)
(10.254 0.0612094 0)
(10.2564 0.0575537 0)
(10.2587 0.0538369 0)
(10.2609 0.0499928 0)
(10.263 0.0459531 0)
(10.2649 0.0416367 0)
(10.2665 0.0369888 0)
(10.2677 0.0319657 0)
(10.2682 0.026691 0)
(10.2678 0.0212297 0)
(10.0047 0.0270318 0)
(10.0219 0.0582772 0)
(10.044 0.0777607 0)
(10.0632 0.0907922 0)
(10.0806 0.100015 0)
(10.0968 0.106366 0)
(10.1116 0.110506 0)
(10.1252 0.112998 0)
(10.1378 0.114186 0)
(10.1494 0.114283 0)
(10.1601 0.113485 0)
(10.17 0.111956 0)
(10.1792 0.109835 0)
(10.1876 0.107232 0)
(10.1953 0.10424 0)
(10.2024 0.100937 0)
(10.2088 0.0973969 0)
(10.2147 0.0936874 0)
(10.2201 0.0898766 0)
(10.225 0.0860147 0)
(10.2294 0.0821507 0)
(10.2334 0.0783122 0)
(10.2371 0.0745274 0)
(10.2405 0.0708036 0)
(10.2437 0.0671403 0)
(10.2467 0.0635216 0)
(10.2495 0.0599191 0)
(10.2522 0.0562949 0)
(10.2548 0.0526074 0)
(10.2573 0.0488026 0)
(10.2596 0.044826 0)
(10.2617 0.040621 0)
(10.2634 0.0361567 0)
(10.2648 0.0314252 0)
(10.2655 0.0265422 0)
(10.2656 0.0215735 0)
(10.0035 0.0234108 0)
(10.0176 0.0524539 0)
(10.0372 0.0716917 0)
(10.0553 0.0849778 0)
(10.0722 0.0945022 0)
(10.0881 0.101175 0)
(10.1028 0.105637 0)
(10.1164 0.108415 0)
(10.1289 0.10986 0)
(10.1406 0.110201 0)
(10.1514 0.109638 0)
(10.1614 0.108334 0)
(10.1707 0.106427 0)
(10.1792 0.10403 0)
(10.187 0.101237 0)
(10.1943 0.0981268 0)
(10.2009 0.0947741 0)
(10.207 0.0912452 0)
(10.2125 0.0876041 0)
(10.2176 0.0838998 0)
(10.2222 0.0801778 0)
(10.2265 0.076466 0)
(10.2305 0.0727895 0)
(10.2341 0.0691562 0)
(10.2375 0.0655662 0)
(10.2407 0.0620057 0)
(10.2438 0.0584506 0)
(10.2466 0.0548683 0)
(10.2494 0.0512241 0)
(10.252 0.0474753 0)
(10.2544 0.0435803 0)
(10.2565 0.0395019 0)
(10.2584 0.0352277 0)
(10.2598 0.0307691 0)
(10.2608 0.0262312 0)
(10.2611 0.0216672 0)
(10.0026 0.0204275 0)
(10.0142 0.0472105 0)
(10.0314 0.0659132 0)
(10.0482 0.0792216 0)
(10.0643 0.0889229 0)
(10.0797 0.0958469 0)
(10.0942 0.100586 0)
(10.1076 0.103632 0)
(10.1202 0.105328 0)
(10.1318 0.105912 0)
(10.1427 0.105584 0)
(10.1527 0.104507 0)
(10.162 0.102818 0)
(10.1707 0.100631 0)
(10.1786 0.0980401 0)
(10.186 0.0951265 0)
(10.1927 0.0919635 0)
(10.199 0.0886165 0)
(10.2047 0.0851461 0)
(10.2099 0.0816005 0)
(10.2147 0.0780219 0)
(10.2192 0.0744385 0)
(10.2233 0.0708731 0)
(10.2271 0.0673345 0)
(10.2307 0.0638232 0)
(10.2341 0.0603283 0)
(10.2373 0.0568304 0)
(10.2403 0.0533017 0)
(10.2431 0.0497156 0)
(10.2458 0.0460386 0)
(10.2482 0.0422412 0)
(10.2505 0.0383011 0)
(10.2524 0.0342188 0)
(10.2539 0.0300131 0)
(10.2549 0.025782 0)
(10.2555 0.0215612 0)
(10.002 0.0179582 0)
(10.0115 0.042513 0)
(10.0265 0.0604776 0)
(10.0419 0.0736077 0)
(10.057 0.0833521 0)
(10.0718 0.0904396 0)
(10.0858 0.0953988 0)
(10.099 0.0986795 0)
(10.1114 0.100609 0)
(10.123 0.101427 0)
(10.1339 0.101329 0)
(10.1439 0.100478 0)
(10.1533 0.0990082 0)
(10.162 0.0970332 0)
(10.1701 0.0946478 0)
(10.1775 0.0919335 0)
(10.1844 0.0889628 0)
(10.1907 0.0857999 0)
(10.1966 0.0825026 0)
(10.202 0.0791179 0)
(10.2069 0.0756857 0)
(10.2115 0.072234 0)
(10.2158 0.0687843 0)
(10.2198 0.0653461 0)
(10.2235 0.0619209 0)
(10.227 0.058501 0)
(10.2303 0.0550709 0)
(10.2334 0.0516094 0)
(10.2363 0.0480951 0)
(10.239 0.0445046 0)
(10.2415 0.0408181 0)
(10.2438 0.0370241 0)
(10.2457 0.0331321 0)
(10.2473 0.0291604 0)
(10.2485 0.0252051 0)
(10.2492 0.0212818 0)
(10.0015 0.0159046 0)
(10.0094 0.0383217 0)
(10.0224 0.0554087 0)
(10.0364 0.0682005 0)
(10.0505 0.0778612 0)
(10.0644 0.0850174 0)
(10.0779 0.0901282 0)
(10.0907 0.0935976 0)
(10.1029 0.0957329 0)
(10.1143 0.0967659 0)
(10.1251 0.0968871 0)
(10.1351 0.0962544 0)
(10.1445 0.0950007 0)
(10.1532 0.0932373 0)
(10.1613 0.0910582 0)
(10.1688 0.0885447 0)
(10.1758 0.0857682 0)
(10.1823 0.0827912 0)
(10.1882 0.0796695 0)
(10.1937 0.0764484 0)
(10.1988 0.0731663 0)
(10.2036 0.0698506 0)
(10.208 0.066522 0)
(10.2121 0.063191 0)
(10.2159 0.0598605 0)
(10.2195 0.0565256 0)
(10.2229 0.053175 0)
(10.2261 0.0497933 0)
(10.2291 0.046365 0)
(10.2319 0.0428735 0)
(10.2344 0.0393085 0)
(10.2367 0.0356651 0)
(10.2387 0.0319594 0)
(10.2403 0.0282092 0)
(10.2416 0.0245023 0)
(10.2425 0.0208386 0)
(10.0012 0.0143555 0)
(10.0079 0.0350439 0)
(10.0195 0.0512785 0)
(10.0322 0.0636832 0)
(10.0453 0.0731857 0)
(10.0585 0.0803254 0)
(10.0714 0.0855079 0)
(10.0838 0.0890973 0)
(10.0957 0.0913797 0)
(10.1069 0.0925771 0)
(10.1175 0.0928728 0)
(10.1274 0.0924197 0)
(10.1367 0.0913468 0)
(10.1454 0.0897633 0)
(10.1536 0.0877617 0)
(10.1611 0.0854221 0)
(10.1682 0.0828144 0)
(10.1747 0.0800001 0)
(10.1807 0.0770325 0)
(10.1863 0.073956 0)
(10.1915 0.0708074 0)
(10.1964 0.067614 0)
(10.2009 0.0643958 0)
(10.2051 0.0611643 0)
(10.209 0.0579237 0)
(10.2127 0.0546715 0)
(10.2162 0.0514002 0)
(10.2194 0.0480986 0)
(10.2225 0.0447558 0)
(10.2253 0.0413612 0)
(10.2278 0.0379099 0)
(10.2301 0.0344016 0)
(10.2322 0.0308565 0)
(10.2339 0.0272894 0)
(10.2352 0.0237802 0)
(10.2363 0.0203195 0)
(10.001 0.0131295 0)
(10.0069 0.0323823 0)
(10.0172 0.0478189 0)
(10.029 0.0598363 0)
(10.0412 0.0691526 0)
(10.0537 0.0762323 0)
(10.066 0.0814399 0)
(10.078 0.0851049 0)
(10.0895 0.0874936 0)
(10.1005 0.0888179 0)
(10.1109 0.0892535 0)
(10.1207 0.0889483 0)
(10.1299 0.0880274 0)
(10.1386 0.0865972 0)
(10.1467 0.0847484 0)
(10.1543 0.0825596 0)
(10.1613 0.0800994 0)
(10.1679 0.0774275 0)
(10.174 0.0745958 0)
(10.1797 0.0716475 0)
(10.1849 0.0686181 0)
(10.1899 0.0655346 0)
(10.1944 0.0624169 0)
(10.1987 0.0592771 0)
(10.2027 0.0561206 0)
(10.2065 0.0529473 0)
(10.21 0.0497522 0)
(10.2133 0.0465279 0)
(10.2164 0.0432673 0)
(10.2192 0.0399639 0)
(10.2218 0.0366169 0)
(10.2242 0.0332295 0)
(10.2262 0.0298229 0)
(10.228 0.0264106 0)
(10.2294 0.023065 0)
(10.2306 0.019771 0)
(10.0009 0.0120093 0)
(10.006 0.0298485 0)
(10.0152 0.0444426 0)
(10.026 0.0560087 0)
(10.0374 0.0650832 0)
(10.0491 0.072056 0)
(10.0609 0.0772499 0)
(10.0723 0.0809603 0)
(10.0834 0.0834327 0)
(10.0941 0.0848671 0)
(10.1042 0.0854308 0)
(10.1139 0.0852655 0)
(10.123 0.0844918 0)
(10.1315 0.0832125 0)
(10.1396 0.0815163 0)
(10.1471 0.0794795 0)
(10.1542 0.077169 0)
(10.1608 0.0746427 0)
(10.1669 0.0719508 0)
(10.1726 0.0691352 0)
(10.1779 0.0662303 0)
(10.1829 0.0632626 0)
(10.1876 0.060252 0)
(10.1919 0.0572111 0)
(10.196 0.0541469 0)
(10.1998 0.0510609 0)
(10.2034 0.0479513 0)
(10.2068 0.0448138 0)
(10.2099 0.0416448 0)
(10.2127 0.0384413 0)
(10.2154 0.0352062 0)
(10.2178 0.0319447 0)
(10.2199 0.028679 0)
(10.2217 0.0254205 0)
(10.2232 0.0222347 0)
(10.2245 0.0191016 0)
(10.0008 0.0109763 0)
(10.0052 0.0274325 0)
(10.0134 0.0411585 0)
(10.0232 0.0522174 0)
(10.0338 0.0609977 0)
(10.0448 0.0678191 0)
(10.0559 0.0729607 0)
(10.0668 0.076685 0)
(10.0775 0.0792161 0)
(10.0878 0.080741 0)
(10.0976 0.0814178 0)
(10.107 0.0813813 0)
(10.1159 0.0807468 0)
(10.1244 0.0796134 0)
(10.1323 0.0780667 0)
(10.1398 0.0761807 0)
(10.1468 0.0740201 0)
(10.1533 0.0716407 0)
(10.1595 0.069091 0)
(10.1652 0.0664114 0)
(10.1706 0.0636352 0)
(10.1756 0.0607885 0)
(10.1803 0.057891 0)
(10.1847 0.054956 0)
(10.1889 0.0519917 0)
(10.1928 0.0490018 0)
(10.1964 0.0459867 0)
(10.1998 0.0429453 0)
(10.2029 0.0398769 0)
(10.2058 0.036782 0)
(10.2085 0.0336658 0)
(10.2109 0.0305355 0)
(10.2131 0.0274128 0)
(10.215 0.0243073 0)
(10.2166 0.0212781 0)
(10.218 0.0183008 0)
(10.0007 0.0100174 0)
(10.0045 0.0251315 0)
(10.0118 0.0379714 0)
(10.0207 0.0484761 0)
(10.0305 0.0569148 0)
(10.0408 0.0635422 0)
(10.0512 0.0685942 0)
(10.0615 0.0723006 0)
(10.0717 0.0748644 0)
(10.0816 0.0764586 0)
(10.0911 0.0772312 0)
(10.1002 0.0773098 0)
(10.1089 0.076804 0)
(10.1171 0.0758087 0)
(10.1249 0.074406 0)
(10.1323 0.0726671 0)
(10.1392 0.0706542 0)
(10.1457 0.0684211 0)
(10.1519 0.0660141 0)
(10.1576 0.0634723 0)
(10.163 0.0608278 0)
(10.168 0.0581062 0)
(10.1728 0.055327 0)
(10.1772 0.0525042 0)
(10.1814 0.049647 0)
(10.1853 0.0467611 0)
(10.1889 0.0438491 0)
(10.1924 0.0409126 0)
(10.1955 0.0379536 0)
(10.1985 0.034975 0)
(10.2012 0.0319842 0)
(10.2036 0.0289893 0)
(10.2058 0.0260114 0)
(10.2078 0.0230577 0)
(10.2095 0.0201822 0)
(10.211 0.0173564 0)
(10.0006 0.00912362 0)
(10.0039 0.022944 0)
(10.0104 0.0348857 0)
(10.0185 0.0447971 0)
(10.0275 0.052851 0)
(10.037 0.0592439 0)
(10.0468 0.0641699 0)
(10.0565 0.0678273 0)
(10.0662 0.0703975 0)
(10.0756 0.0720387 0)
(10.0847 0.0728887 0)
(10.0935 0.0730672 0)
(10.1019 0.0726778 0)
(10.1099 0.0718106 0)
(10.1176 0.0705442 0)
(10.1248 0.0689465 0)
(10.1316 0.0670772 0)
(10.138 0.0649877 0)
(10.1441 0.0627223 0)
(10.1498 0.0603184 0)
(10.1551 0.0578072 0)
(10.1602 0.0552133 0)
(10.1649 0.0525565 0)
(10.1694 0.0498511 0)
(10.1736 0.0471075 0)
(10.1775 0.0443327 0)
(10.1812 0.0415316 0)
(10.1846 0.0387079 0)
(10.1878 0.0358659 0)
(10.1908 0.0330105 0)
(10.1935 0.0301505 0)
(10.196 0.0272944 0)
(10.1982 0.0244622 0)
(10.2003 0.0216594 0)
(10.202 0.0189348 0)
(10.2036 0.0162568 0)
(10.0005 0.00828729 0)
(10.0034 0.0208669 0)
(10.0092 0.0319047 0)
(10.0165 0.0411908 0)
(10.0247 0.0488208 0)
(10.0335 0.0549407 0)
(10.0426 0.0597055 0)
(10.0518 0.0632832 0)
(10.0609 0.0658334 0)
(10.0699 0.0674994 0)
(10.0786 0.0684078 0)
(10.087 0.06867 0)
(10.0951 0.0683835 0)
(10.1029 0.0676333 0)
(10.1103 0.0664938 0)
(10.1173 0.06503 0)
(10.124 0.0632985 0)
(10.1303 0.0613483 0)
(10.1363 0.0592216 0)
(10.1419 0.0569544 0)
(10.1472 0.0545764 0)
(10.1522 0.0521119 0)
(10.1569 0.0495803 0)
(10.1613 0.0469963 0)
(10.1655 0.0443714 0)
(10.1694 0.0417138 0)
(10.1731 0.0390302 0)
(10.1766 0.0363261 0)
(10.1798 0.0336076 0)
(10.1828 0.030881 0)
(10.1855 0.0281558 0)
(10.188 0.025441 0)
(10.1903 0.022755 0)
(10.1924 0.0201015 0)
(10.1942 0.017525 0)
(10.1959 0.0149916 0)
(10.0004 0.00750112 0)
(10.003 0.0188958 0)
(10.0081 0.0290307 0)
(10.0147 0.0376657 0)
(10.0222 0.044837 0)
(10.0303 0.0506474 0)
(10.0388 0.0552169 0)
(10.0474 0.0586844 0)
(10.056 0.0611885 0)
(10.0645 0.0628566 0)
(10.0728 0.0638041 0)
(10.0808 0.0641336 0)
(10.0886 0.0639359 0)
(10.096 0.0632907 0)
(10.1032 0.0622682 0)
(10.11 0.0609299 0)
(10.1165 0.0593292 0)
(10.1226 0.0575129 0)
(10.1285 0.0555211 0)
(10.134 0.053388 0)
(10.1392 0.0511422 0)
(10.1442 0.0488074 0)
(10.1488 0.0464026 0)
(10.1532 0.0439431 0)
(10.1574 0.0414408 0)
(10.1613 0.0389053 0)
(10.1649 0.0363445 0)
(10.1683 0.0337654 0)
(10.1715 0.0311753 0)
(10.1745 0.0285817 0)
(10.1773 0.0259944 0)
(10.1798 0.0234221 0)
(10.1821 0.0208819 0)
(10.1843 0.0183759 0)
(10.1862 0.0159446 0)
(10.1879 0.0135529 0)
(10.0004 0.00675875 0)
(10.0026 0.0170255 0)
(10.0071 0.0262645 0)
(10.0131 0.0342289 0)
(10.0199 0.040911 0)
(10.0274 0.0463778 0)
(10.0352 0.0507185 0)
(10.0433 0.0540456 0)
(10.0513 0.056477 0)
(10.0593 0.0581245 0)
(10.0672 0.0590914 0)
(10.0749 0.0594714 0)
(10.0823 0.059348 0)
(10.0895 0.0587955 0)
(10.0963 0.0578795 0)
(10.1029 0.0566576 0)
(10.1092 0.0551805 0)
(10.1152 0.0534921 0)
(10.1209 0.0516306 0)
(10.1262 0.0496284 0)
(10.1314 0.047513 0)
(10.1362 0.0453073 0)
(10.1408 0.0430302 0)
(10.1451 0.040697 0)
(10.1492 0.0383204 0)
(10.153 0.0359106 0)
(10.1567 0.0334767 0)
(10.1601 0.0310267 0)
(10.1632 0.0285687 0)
(10.1662 0.0261108 0)
(10.169 0.0236631 0)
(10.1715 0.0212337 0)
(10.1739 0.0188382 0)
(10.176 0.0164774 0)
(10.1779 0.014188 0)
(10.1798 0.0119354 0)
(10.0004 0.00605441 0)
(10.0023 0.0152515 0)
(10.0063 0.0236043 0)
(10.0116 0.0308855 0)
(10.0179 0.0370528 0)
(10.0247 0.0421442 0)
(10.0319 0.0462238 0)
(10.0394 0.0493805 0)
(10.047 0.0517122 0)
(10.0545 0.0533154 0)
(10.062 0.0542814 0)
(10.0692 0.0546944 0)
(10.0763 0.0546305 0)
(10.0832 0.0541579 0)
(10.0898 0.0533374 0)
(10.0961 0.0522229 0)
(10.1022 0.0508616 0)
(10.1079 0.0492949 0)
(10.1135 0.0475587 0)
(10.1187 0.0456839 0)
(10.1237 0.0436967 0)
(10.1284 0.0416193 0)
(10.1329 0.0394701 0)
(10.1371 0.0372646 0)
(10.1411 0.0350158 0)
(10.1449 0.0327344 0)
(10.1485 0.0304304 0)
(10.1518 0.0281123 0)
(10.155 0.0257889 0)
(10.1579 0.0234685 0)
(10.1607 0.021161 0)
(10.1632 0.0188739 0)
(10.1656 0.0166213 0)
(10.1677 0.0144033 0)
(10.1697 0.0122526 0)
(10.1716 0.0101362 0)
(10.0003 0.00538358 0)
(10.0021 0.0135661 0)
(10.0056 0.021051 0)
(10.0104 0.0276369 0)
(10.016 0.0332695 0)
(10.0223 0.0379582 0)
(10.0289 0.0417456 0)
(10.0359 0.0447016 0)
(10.0429 0.0469064 0)
(10.05 0.0484409 0)
(10.057 0.0493847 0)
(10.0639 0.0498124 0)
(10.0707 0.0497921 0)
(10.0772 0.0493859 0)
(10.0835 0.0486496 0)
(10.0896 0.0476328 0)
(10.0954 0.0463794 0)
(10.101 0.0449279 0)
(10.1063 0.0433121 0)
(10.1114 0.041561 0)
(10.1163 0.0396996 0)
(10.1209 0.0377492 0)
(10.1252 0.0357279 0)
(10.1294 0.0336509 0)
(10.1333 0.0315314 0)
(10.137 0.0293805 0)
(10.1405 0.0272085 0)
(10.1438 0.0250244 0)
(10.1469 0.0228371 0)
(10.1498 0.0206551 0)
(10.1525 0.0184876 0)
(10.155 0.0163418 0)
(10.1574 0.0142302 0)
(10.1595 0.0121523 0)
(10.1615 0.010137 0)
(10.1634 0.00815426 0)
(10.0003 0.00474325 0)
(10.0018 0.0119593 0)
(10.005 0.0186004 0)
(10.0092 0.0244891 0)
(10.0143 0.0295671 0)
(10.02 0.033827 0)
(10.0262 0.0372948 0)
(10.0326 0.0400216 0)
(10.0392 0.0420712 0)
(10.0458 0.0435117 0)
(10.0524 0.0444106 0)
(10.059 0.0448332 0)
(10.0654 0.0448398 0)
(10.0716 0.0444858 0)
(10.0776 0.0438214 0)
(10.0834 0.042892 0)
(10.089 0.0417379 0)
(10.0944 0.0403948 0)
(10.0996 0.038894 0)
(10.1045 0.0372628 0)
(10.1092 0.0355246 0)
(10.1136 0.0336999 0)
(10.1179 0.0318061 0)
(10.1219 0.0298581 0)
(10.1258 0.027869 0)
(10.1294 0.0258502 0)
(10.1328 0.0238117 0)
(10.136 0.021763 0)
(10.1391 0.0197128 0)
(10.1419 0.0176694 0)
(10.1446 0.0156414 0)
(10.1471 0.0136356 0)
(10.1494 0.0116627 0)
(10.1516 0.00972252 0)
(10.1536 0.0078398 0)
(10.1555 0.00598822 0)
(10.0003 0.00413077 0)
(10.0016 0.0104242 0)
(10.0044 0.0162437 0)
(10.0083 0.0214384 0)
(10.0129 0.0259488 0)
(10.0181 0.0297587 0)
(10.0237 0.0328806 0)
(10.0297 0.0353505 0)
(10.0358 0.0372182 0)
(10.042 0.0385389 0)
(10.0482 0.0393692 0)
(10.0543 0.039765 0)
(10.0604 0.0397796 0)
(10.0663 0.0394618 0)
(10.0721 0.0388561 0)
(10.0776 0.038003 0)
(10.083 0.036939 0)
(10.0882 0.0356968 0)
(10.0931 0.0343051 0)
(10.0979 0.0327894 0)
(10.1024 0.0311715 0)
(10.1068 0.0294707 0)
(10.1109 0.0277036 0)
(10.1148 0.0258847 0)
(10.1186 0.0240267 0)
(10.1221 0.0221408 0)
(10.1254 0.020237 0)
(10.1286 0.0183245 0)
(10.1316 0.016412 0)
(10.1344 0.0145071 0)
(10.137 0.012618 0)
(10.1395 0.0107507 0)
(10.1418 0.00891484 0)
(10.144 0.00711004 0)
(10.146 0.00535745 0)
(10.1479 0.00363499 0)
(10.0002 0.0035435 0)
(10.0015 0.00895394 0)
(10.0039 0.0139744 0)
(10.0074 0.01848 0)
(10.0116 0.0224144 0)
(10.0163 0.0257561 0)
(10.0215 0.0285082 0)
(10.027 0.0306951 0)
(10.0327 0.0323541 0)
(10.0384 0.0335295 0)
(10.0443 0.0342675 0)
(10.0501 0.0346152 0)
(10.0558 0.0346179 0)
(10.0614 0.0343184 0)
(10.0669 0.0337562 0)
(10.0722 0.0329669 0)
(10.0774 0.0319827 0)
(10.0823 0.0308329 0)
(10.0871 0.0295437 0)
(10.0917 0.0281383 0)
(10.0961 0.0266369 0)
(10.1003 0.0250576 0)
(10.1043 0.0234159 0)
(10.1081 0.0217255 0)
(10.1118 0.0199987 0)
(10.1152 0.0182461 0)
(10.1185 0.0164775 0)
(10.1216 0.0147017 0)
(10.1245 0.0129267 0)
(10.1272 0.0111601 0)
(10.1298 0.00940908 0)
(10.1323 0.00767918 0)
(10.1346 0.00597868 0)
(10.1367 0.00430748 0)
(10.1387 0.00268318 0)
(10.1407 0.0010882 0)
(10.0002 0.00297847 0)
(10.0013 0.00754103 0)
(10.0035 0.011784 0)
(10.0066 0.015607 0)
(10.0104 0.0189594 0)
(10.0147 0.0218178 0)
(10.0195 0.0241791 0)
(10.0246 0.0260585 0)
(10.0298 0.0274833 0)
(10.0352 0.0284879 0)
(10.0407 0.0291096 0)
(10.0462 0.0293869 0)
(10.0516 0.0293578 0)
(10.0569 0.0290585 0)
(10.0621 0.0285233 0)
(10.0672 0.0277835 0)
(10.0722 0.0268674 0)
(10.0769 0.0258004 0)
(10.0815 0.0246059 0)
(10.086 0.0233047 0)
(10.0902 0.0219153 0)
(10.0943 0.0204541 0)
(10.0982 0.0189354 0)
(10.1019 0.0173722 0)
(10.1054 0.0157757 0)
(10.1088 0.0141561 0)
(10.112 0.0125225 0)
(10.115 0.0108831 0)
(10.1179 0.00924553 0)
(10.1206 0.00761654 0)
(10.1232 0.00600275 0)
(10.1256 0.0044091 0)
(10.1278 0.00284265 0)
(10.13 0.00130364 0)
(10.132 -0.000193654 0)
(10.1339 -0.00166237 0)
(10.0002 0.00243232 0)
(10.0012 0.00617741 0)
(10.0032 0.00966212 0)
(10.006 0.0128092 0)
(10.0094 0.0155754 0)
(10.0134 0.0179376 0)
(10.0178 0.0198892 0)
(10.0224 0.0214385 0)
(10.0273 0.0226049 0)
(10.0324 0.0234142 0)
(10.0375 0.0238955 0)
(10.0427 0.0240798 0)
(10.0478 0.0239981 0)
(10.0528 0.0236805 0)
(10.0578 0.0231557 0)
(10.0627 0.0224505 0)
(10.0674 0.0215894 0)
(10.072 0.0205945 0)
(10.0764 0.0194857 0)
(10.0807 0.0182815 0)
(10.0848 0.0169983 0)
(10.0888 0.0156508 0)
(10.0925 0.0142519 0)
(10.0962 0.0128134 0)
(10.0996 0.0113456 0)
(10.1029 0.00985768 0)
(10.106 0.00835813 0)
(10.109 0.00685441 0)
(10.1118 0.00535342 0)
(10.1145 0.00386121 0)
(10.117 0.00238365 0)
(10.1194 0.000925154 0)
(10.1216 -0.000508367 0)
(10.1238 -0.00191633 0)
(10.1258 -0.00328747 0)
(10.1277 -0.00463075 0)
(10.0002 0.00190115 0)
(10.0011 0.00485373 0)
(10.0029 0.00759588 0)
(10.0054 0.0100725 0)
(10.0086 0.0122487 0)
(10.0122 0.0141034 0)
(10.0162 0.015628 0)
(10.0206 0.0168263 0)
(10.0252 0.0177112 0)
(10.0299 0.0183014 0)
(10.0347 0.018619 0)
(10.0396 0.018688 0)
(10.0444 0.0185329 0)
(10.0492 0.0181779 0)
(10.054 0.0176465 0)
(10.0586 0.0169606 0)
(10.0631 0.0161411 0)
(10.0676 0.0152065 0)
(10.0718 0.0141737 0)
(10.076 0.0130583 0)
(10.0799 0.0118747 0)
(10.0838 0.0106355 0)
(10.0875 0.00935221 0)
(10.091 0.00803507 0)
(10.0943 0.00669328 0)
(10.0975 0.00533507 0)
(10.1006 0.00396789 0)
(10.1035 0.00259841 0)
(10.1063 0.00123268 0)
(10.1089 -0.000123953 0)
(10.1114 -0.00146644 0)
(10.1138 -0.00279091 0)
(10.116 -0.0040925 0)
(10.1182 -0.00537031 0)
(10.1202 -0.00661585 0)
(10.1221 -0.00783424 0)
(10.0002 0.00138153 0)
(10.001 0.00355937 0)
(10.0026 0.00556878 0)
(10.005 0.00737751 0)
(10.0079 0.008959 0)
(10.0112 0.0102949 0)
(10.015 0.0113763 0)
(10.019 0.0122039 0)
(10.0233 0.0127856 0)
(10.0278 0.0131341 0)
(10.0323 0.0132655 0)
(10.0369 0.0131973 0)
(10.0415 0.0129483 0)
(10.0461 0.0125371 0)
(10.0506 0.0119819 0)
(10.0551 0.0113002 0)
(10.0594 0.0105087 0)
(10.0637 0.00962226 0)
(10.0678 0.00865513 0)
(10.0718 0.00761994 0)
(10.0757 0.00652855 0)
(10.0794 0.0053917 0)
(10.083 0.00421903 0)
(10.0864 0.00301927 0)
(10.0897 0.00180024 0)
(10.0929 0.000569011 0)
(10.0959 -0.000668042 0)
(10.0987 -0.00190521 0)
(10.1015 -0.00313732 0)
(10.1041 -0.00435983 0)
(10.1065 -0.00556852 0)
(10.1089 -0.00676006 0)
(10.1111 -0.0079306 0)
(10.1132 -0.009079 0)
(10.1152 -0.0101992 0)
(10.1172 -0.0112931 0)
(10.0001 0.000866128 0)
(10.0009 0.00228046 0)
(10.0024 0.00356037 0)
(10.0046 0.00469868 0)
(10.0073 0.00567752 0)
(10.0104 0.00648189 0)
(10.014 0.00710355 0)
(10.0178 0.00754118 0)
(10.0218 0.00779882 0)
(10.026 0.00788429 0)
(10.0303 0.00780801 0)
(10.0347 0.00758212 0)
(10.0391 0.00721967 0)
(10.0435 0.00673406 0)
(10.0479 0.00613862 0)
(10.0521 0.00544632 0)
(10.0564 0.00466956 0)
(10.0605 0.00381976 0)
(10.0645 0.00290804 0)
(10.0683 0.00194427 0)
(10.0721 0.000937717 0)
(10.0757 -0.000103057 0)
(10.0792 -0.00117032 0)
(10.0826 -0.00225707 0)
(10.0858 -0.00335692 0)
(10.0889 -0.00446415 0)
(10.0919 -0.00557354 0)
(10.0947 -0.00668045 0)
(10.0974 -0.00778068 0)
(10.1 -0.00887053 0)
(10.1024 -0.00994661 0)
(10.1048 -0.0110062 0)
(10.107 -0.0120463 0)
(10.1091 -0.0130657 0)
(10.1111 -0.0140605 0)
(10.113 -0.0150298 0)
(10.0001 0.000371886 0)
(10.0008 0.000993832 0)
(10.0023 0.00153729 0)
(10.0043 0.00199772 0)
(10.0069 0.00236238 0)
(10.0099 0.00262032 0)
(10.0132 0.00276477 0)
(10.0168 0.00279323 0)
(10.0207 0.00270667 0)
(10.0247 0.0025087 0)
(10.0288 0.00220485 0)
(10.033 0.00180205 0)
(10.0373 0.00130812 0)
(10.0415 0.000731416 0)
(10.0457 8.0467e-05 0)
(10.0499 -0.00063621 0)
(10.054 -0.00141031 0)
(10.058 -0.00223409 0)
(10.0619 -0.00309987 0)
(10.0656 -0.00400038 0)
(10.0693 -0.00492901 0)
(10.0729 -0.00587954 0)
(10.0763 -0.00684629 0)
(10.0796 -0.00782407 0)
(10.0828 -0.00880812 0)
(10.0858 -0.00979412 0)
(10.0887 -0.0107781 0)
(10.0915 -0.0117567 0)
(10.0942 -0.0127265 0)
(10.0968 -0.0136848 0)
(10.0992 -0.0146291 0)
(10.1015 -0.0155572 0)
(10.1037 -0.0164672 0)
(10.1059 -0.0173577 0)
(10.1079 -0.0182266 0)
(10.1098 -0.0190709 0)
(10.0001 -0.000103443 0)
(10.0008 -0.0002838 0)
(10.0022 -0.00047212 0)
(10.0042 -0.000686255 0)
(10.0066 -0.000935591 0)
(10.0095 -0.00122649 0)
(10.0128 -0.00156394 0)
(10.0163 -0.00195131 0)
(10.02 -0.00239029 0)
(10.0239 -0.00288111 0)
(10.0279 -0.0034227 0)
(10.032 -0.00401302 0)
(10.0361 -0.00464919 0)
(10.0403 -0.00532772 0)
(10.0444 -0.00604469 0)
(10.0484 -0.00679591 0)
(10.0524 -0.00757701 0)
(10.0563 -0.00838404 0)
(10.0602 -0.00921261 0)
(10.0639 -0.0100581 0)
(10.0675 -0.0109165 0)
(10.071 -0.011784 0)
(10.0744 -0.0126571 0)
(10.0776 -0.0135323 0)
(10.0808 -0.0144065 0)
(10.0838 -0.015277 0)
(10.0867 -0.016141 0)
(10.0895 -0.0169961 0)
(10.0921 -0.0178403 0)
(10.0947 -0.0186717 0)
(10.0971 -0.0194884 0)
(10.0994 -0.0202891 0)
(10.1016 -0.0210724 0)
(10.1038 -0.0218373 0)
(10.1058 -0.0225831 0)
(10.1077 -0.0233055 0)
(10.0001 -0.000558181 0)
(10.0008 -0.00150718 0)
(10.0022 -0.00239617 0)
(10.0042 -0.00325535 0)
(10.0066 -0.00409153 0)
(10.0094 -0.00490719 0)
(10.0126 -0.00570577 0)
(10.0161 -0.00649159 0)
(10.0198 -0.00726896 0)
(10.0237 -0.00804174 0)
(10.0276 -0.0088132 0)
(10.0317 -0.00958592 0)
(10.0358 -0.0103617 0)
(10.0398 -0.0111416 0)
(10.0439 -0.0119261 0)
(10.0479 -0.012715 0)
(10.0518 -0.0135077 0)
(10.0557 -0.0143039 0)
(10.0595 -0.0151019 0)
(10.0632 -0.0158999 0)
(10.0668 -0.0166964 0)
(10.0702 -0.0174897 0)
(10.0736 -0.0182782 0)
(10.0768 -0.0190604 0)
(10.0799 -0.0198347 0)
(10.0829 -0.0205996 0)
(10.0858 -0.0213537 0)
(10.0886 -0.0220957 0)
(10.0912 -0.0228244 0)
(10.0938 -0.0235388 0)
(10.0962 -0.0242379 0)
(10.0986 -0.0249208 0)
(10.1008 -0.025587 0)
(10.1029 -0.0262356 0)
(10.105 -0.0268669 0)
(10.1069 -0.027476 0)
(10.0001 -0.00102185 0)
(10.0008 -0.00266693 0)
(10.0022 -0.00421968 0)
(10.0042 -0.00569163 0)
(10.0067 -0.00708252 0)
(10.0096 -0.00839183 0)
(10.0128 -0.00962234 0)
(10.0163 -0.0107798 0)
(10.02 -0.0118717 0)
(10.0239 -0.0129058 0)
(10.0279 -0.0138898 0)
(10.0319 -0.014831 0)
(10.036 -0.0157356 0)
(10.0401 -0.0166091 0)
(10.0441 -0.017456 0)
(10.0481 -0.01828 0)
(10.0521 -0.0190841 0)
(10.056 -0.0198712 0)
(10.0597 -0.0206418 0)
(10.0634 -0.021397 0)
(10.067 -0.0221375 0)
(10.0704 -0.0228636 0)
(10.0738 -0.0235757 0)
(10.077 -0.0242736 0)
(10.0801 -0.0249573 0)
(10.0831 -0.0256265 0)
(10.086 -0.0262809 0)
(10.0888 -0.0269202 0)
(10.0915 -0.0275441 0)
(10.094 -0.0281523 0)