/*--------------------------------*- C++ -*----------------------------------*\
| =========                 |                                                 |
| \\      /  F ield         | OpenFOAM: The Open Source CFD Toolbox           |
|  \\    /   O peration     | Version:  2.4.0                                 |
|   \\  /    A nd           | Web:      www.OpenFOAM.org                      |
|    \\/     M anipulation  |                                                 |
\*---------------------------------------------------------------------------*/
FoamFile
{
    version     2.0;
    format      ascii;
    class       volVectorField;
    location    "3.41";
    object      U;
}
// * * * * * * * * * * * * * * * * * * * * * * * * * * * * * * * * * * * * * //

dimensions      [0 1 -1 0 0 0 0];

internalField   nonuniform List<vector> 
6000
(
(0.513501 -0.0430681 -8.2022e-18)
(-0.317792 0.0668527 0)
(0.111918 -0.0273968 8.17007e-18)
(0.00879877 -0.00173425 0)
(0.00585391 6.51432e-05 0)
(-0.029405 0.00566378 0)
(-0.0104928 0.00219493 3.55153e-18)
(-0.0252947 0.00451322 7.77031e-23)
(-0.0195407 0.00371305 0)
(-0.0330106 0.00597667 0)
(-0.047213 0.00869896 2.97138e-18)
(-0.0729664 0.012325 -5.67037e-18)
(-0.0978383 0.0153474 0)
(-0.119169 0.0166794 0)
(-0.125815 0.0153871 -1.23692e-18)
(-0.109157 0.0103739 0)
(-0.0654854 0.00261102 0)
(0.00730105 -0.00686311 -1.22428e-18)
(0.0900771 -0.013551 -1.17437e-18)
(0.146092 -0.0118355 0)
(0.108357 -0.00483495 1.13538e-18)
(0.044669 -0.000861538 5.96427e-19)
(0.0111075 0.00413151 -5.86472e-19)
(-0.118765 0.0155876 0)
(-0.24879 0.0199378 0)
(-0.340318 0.0179282 0)
(-0.398153 0.0143141 1.61183e-19)
(-0.437441 0.0105139 -1.43568e-19)
(-0.464739 0.00653751 0)
(-0.483059 0.00231233 0)
(-0.492974 -0.00206492 1.64137e-20)
(-0.494309 -0.0065591 0)
(-0.487663 -0.0109553 1.57495e-19)
(-0.473622 -0.0149142 -1.82041e-19)
(-0.451615 -0.0183563 0)
(-0.421061 -0.0210867 0)
(-0.381257 -0.0228907 6.1172e-19)
(-0.331398 -0.0235286 0)
(-0.270643 -0.02273 8.55039e-19)
(-0.198323 -0.0202013 0)
(-0.114282 -0.0156337 0)
(-0.0190895 -0.00865481 2.53041e-18)
(0.0852376 0.00100351 -5.45261e-18)
(0.195402 0.013187 0)
(0.306729 0.0275927 0)
(0.413605 0.0435913 2.79345e-18)
(0.510289 0.0603433 0)
(0.591864 0.0768665 0)
(0.654995 0.0922942 -4.49577e-18)
(0.698101 0.106533 -4.14622e-18)
(0.712322 0.115706 -3.85224e-18)
(0.702892 0.120621 -9.36469e-21)
(0.675363 0.121962 3.56219e-18)
(0.644357 0.121459 0)
(0.60784 0.119633 -5.00102e-21)
(0.593955 0.120315 -3.62009e-18)
(0.567168 0.120065 3.29569e-18)
(0.602317 0.12999 3.39936e-18)
(0.572417 0.130739 1.17125e-20)
(0.677846 0.152485 0)
(0.726752 -0.108549 6.49735e-18)
(-0.209355 0.0626672 4.93019e-18)
(0.0919617 -0.0316612 -3.96376e-18)
(-0.0226767 0.00879544 -4.30502e-18)
(0.00506299 0.00137875 0)
(-0.0416093 0.00864908 0)
(-0.0180016 0.00356839 -3.49108e-18)
(-0.0343354 0.00637409 6.7158e-18)
(-0.0291961 0.0059146 0)
(-0.0455405 0.0090919 0)
(-0.0629098 0.0128112 -2.87568e-18)
(-0.0897983 0.0165987 2.72921e-18)
(-0.113371 0.0191484 1.28874e-18)
(-0.130728 0.0191196 0)
(-0.133811 0.0159989 1.16855e-18)
(-0.117578 0.00904289 0)
(-0.0749206 -0.00133293 0)
(-0.00459367 -0.0129417 0)
(0.0764557 -0.0192814 0)
(0.134509 -0.0122412 0)
(0.121398 -0.000462176 2.49623e-22)
(0.0527908 0.00550672 0)
(-0.0269272 0.0173673 -5.60117e-19)
(-0.192157 0.0332734 0)
(-0.31693 0.0337294 0)
(-0.387839 0.0266842 1.73663e-19)
(-0.432124 0.0203544 -1.48131e-19)
(-0.462864 0.0149048 -1.50209e-22)
(-0.483794 0.00969847 6.07049e-20)
(-0.496678 0.0043874 0)
(-0.502269 -0.000999171 -1.49607e-20)
(-0.501261 -0.00637765 -6.36984e-20)
(-0.493371 -0.0116605 -8.16222e-22)
(-0.477709 -0.0166228 1.6483e-19)
(-0.453828 -0.021121 -1.92732e-19)
(-0.421145 -0.024947 0)
(-0.378972 -0.0278629 0)
(-0.326528 -0.0295968 0)
(-0.263 -0.0298272 0)
(-0.187745 -0.0281792 0)
(-0.100648 -0.0242452 -1.97808e-18)
(-0.00233066 -0.0175631 0)
(0.105478 -0.00780489 2.37528e-18)
(0.219598 0.00514014 2.46278e-18)
(0.335347 0.0210799 0)
(0.447182 0.0393614 0)
(0.54949 0.0590151 0)
(0.637578 0.0788717 0)
(0.708058 0.0978126 4.07626e-18)
(0.759084 0.115071 0)
(0.793759 0.12998 0)
(0.810289 0.141611 -3.38583e-18)
(0.806926 0.149194 -3.30686e-18)
(0.789337 0.152499 0)
(0.758814 0.153099 -6.58568e-18)
(0.735247 0.152257 0)
(0.706453 0.15305 -6.1397e-18)
(0.718591 0.156918 -3.15003e-18)
(0.703828 0.164078 1.76024e-18)
(0.801975 0.182388 2.2846e-18)
(0.798642 -0.0913452 -3.36057e-19)
(-0.0779731 0.0480754 -4.60772e-18)
(0.0670688 -0.0276811 0)
(-0.0545335 0.0169935 4.26929e-18)
(0.00205768 0.0026 0)
(-0.0459149 0.00982667 0)
(-0.0220824 0.00440389 0)
(-0.0382548 0.00722998 -3.27426e-18)
(-0.0338772 0.00741374 0)
(-0.0503958 0.0112046 -2.93688e-18)
(-0.0675635 0.015581 0)
(-0.0930239 0.019262 0)
(-0.115156 0.0212639 -1.22318e-18)
(-0.131907 0.0201746 0)
(-0.135842 0.0155571 0)
(-0.121168 0.00655572 0)
(-0.0810689 -0.00625457 0)
(-0.0144821 -0.0196708 0)
(0.0630433 -0.0254029 0)
(0.120169 -0.0135127 1.00067e-18)
(0.113353 0.00432948 -1.05413e-18)
(0.0470379 0.0146392 0)
(-0.0561824 0.0336168 -1.69333e-21)
(-0.218024 0.0502805 -4.71162e-19)
(-0.322395 0.0442221 0)
(-0.383045 0.0325441 -3.16364e-19)
(-0.424134 0.0241924 0)
(-0.453523 0.0175313 1.1797e-19)
(-0.473826 0.0113971 -5.41818e-20)
(-0.48656 0.00527507 0)
(-0.4923 -0.000877202 0)
(-0.491293 -0.00698931 5.6501e-20)
(-0.483113 -0.0129685 -7.71533e-22)
(-0.467178 -0.018707 0)
(-0.44302 -0.0240262 3.3886e-19)
(-0.410048 -0.0287238 0)
(-0.367572 -0.032565 4.74615e-19)
(-0.314804 -0.0352776 0)
(-0.250929 -0.036525 0)
(-0.175296 -0.0358892 0)
(-0.0877816 -0.0328895 1.71474e-18)
(0.011014 -0.0269692 0)
(0.119456 -0.0177397 0)
(0.234247 -0.00491137 -2.12919e-18)
(0.350704 0.0114251 0)
(0.46332 0.0306381 0)
(0.566555 0.0516976 2.03101e-18)
(0.655841 0.0733171 -1.91393e-18)
(0.727888 0.0942458 -1.78583e-18)
(0.781228 0.113404 0)
(0.817043 0.130517 0)
(0.836639 0.144512 0)
(0.839524 0.154963 3.01695e-18)
(0.830199 0.160981 3.0577e-18)
(0.807468 0.164142 3.0615e-18)
(0.788597 0.163771 0)
(0.761144 0.165463 2.86368e-18)
(0.773161 0.166125 5.87003e-18)
(0.756068 0.175128 0)
(0.853271 0.186827 -2.11793e-18)
(0.836472 -0.0599318 -2.63422e-19)
(0.0437776 0.0395406 4.21228e-18)
(0.0472225 -0.0204547 -3.85297e-18)
(-0.0753961 0.0221973 0)
(-0.000639344 0.00300021 0)
(-0.0477675 0.0106225 0)
(-0.02491 0.00494838 0)
(-0.0406504 0.00788093 0)
(-0.0368733 0.00858222 0)
(-0.0528714 0.0129008 2.84781e-18)
(-0.0692061 0.0177362 2.67069e-18)
(-0.093253 0.0213755 0)
(-0.114501 0.0230027 0)
(-0.131319 0.0211149 0)
(-0.136415 0.0151891 1.02967e-18)
(-0.123721 0.00419353 0)
(-0.0866206 -0.0110161 9.53234e-19)
(-0.0240133 -0.0262574 -9.38335e-19)
(0.0497867 -0.0314436 0)
(0.10566 -0.014924 -9.55713e-19)
(0.102361 0.00915657 0)
(0.0374464 0.0249755 -5.3555e-19)
(-0.0783642 0.0500554 1.01293e-18)
(-0.228074 0.0653135 4.42809e-19)
(-0.317196 0.0530401 0)
(-0.372922 0.0378829 1.44611e-19)
(-0.412449 0.027892 0)
(-0.441135 0.0201417 1.06649e-19)
(-0.461142 0.0131617 0)
(-0.473824 0.00630157 0)
(-0.479614 -0.00054969 0)
(-0.478583 -0.0073941 5.00507e-20)
(-0.470323 -0.0141422 -2.2307e-19)
(-0.45436 -0.020694 0)
(-0.430202 -0.0268789 -1.50937e-19)
(-0.397252 -0.0325015 0)
(-0.354809 -0.0373324 -4.24064e-19)
(-0.302082 -0.0410998 0)
(-0.238242 -0.0434533 0)
(-0.162628 -0.0439296 0)
(-0.0750955 -0.0419734 1.51088e-18)
(0.0237814 -0.0369288 0)
(0.132309 -0.0282531 1.79233e-18)
(0.247123 -0.0155251 -1.87125e-18)
(0.363543 0.00125213 0)
(0.476063 0.0214549 -1.87258e-18)
(0.579184 0.0439691 -3.61628e-18)
(0.66841 0.0673629 1.71415e-18)
(0.740551 0.0902346 3.1968e-18)
(0.794316 0.111397 -2.99198e-18)
(0.830293 0.130206 -2.84408e-18)
(0.850508 0.145715 0)
(0.855373 0.157763 -2.75458e-18)
(0.84975 0.165337 -2.8092e-18)
(0.831892 0.170123 -2.81518e-18)
(0.817346 0.170401 0)
(0.792829 0.172833 0)
(0.805026 0.171999 -2.72071e-18)
(0.788076 0.181581 0)
(0.880588 0.188246 1.91923e-18)
(0.861491 -0.0344704 -2.46477e-19)
(0.153237 0.0356188 -8.98765e-20)
(0.0541311 -0.0146514 3.81838e-18)
(-0.0863595 0.0250014 4.22137e-18)
(-0.00313807 0.00291629 0)
(-0.0487314 0.0112667 -3.58638e-18)
(-0.0270728 0.00536562 0)
(-0.0423565 0.00843936 0)
(-0.0389579 0.00956377 0)
(-0.0541291 0.0143654 2.77396e-18)
(-0.0694107 0.0195719 -2.58687e-18)
(-0.0921565 0.0232383 0)
(-0.112774 0.0245944 0)
(-0.129883 0.0220381 0)
(-0.136296 0.0148961 -9.83202e-19)
(-0.12586 0.00200736 0)
(-0.0920653 -0.015515 -9.04005e-19)
(-0.0336183 -0.032539 8.89868e-19)
(0.0362943 -0.0373143 0)
(0.0908752 -0.0165198 0)
(0.0903372 0.0138699 4.95369e-19)
(0.02611 0.0359945 5.18908e-19)
(-0.0953473 0.0659402 -9.70882e-19)
(-0.230935 0.0784589 -4.17808e-19)
(-0.308897 0.0607891 0)
(-0.361348 0.0429475 1.33888e-19)
(-0.399584 0.031516 0)
(-0.427644 0.0227341 -9.76131e-20)
(-0.447358 0.0149306 4.44141e-20)
(-0.459935 0.00733984 0)
(-0.465694 -0.000216274 0)
(-0.464626 -0.00779072 -9.1046e-20)
(-0.456346 -0.0153147 1.01421e-19)
(-0.44042 -0.0226909 0)
(-0.416339 -0.0297551 -1.35858e-19)
(-0.383497 -0.0363198 0)
(-0.341189 -0.0421613 3.82702e-19)
(-0.288613 -0.0470091 0)
(-0.224931 -0.0504988 0)
(-0.149462 -0.0521213 0)
(-0.0620416 -0.0512445 -1.38678e-18)
(0.036772 -0.0471035 -1.52374e-18)
(0.145182 -0.0390029 -1.64455e-18)
(0.259795 -0.026388 9.58701e-21)
(0.375919 -0.00917643 -1.73156e-18)
(0.488037 0.012012 1.71847e-18)
(0.590669 0.0359704 3.29614e-18)
(0.679375 0.0611135 0)
(0.751058 0.0858705 -1.46299e-18)
(0.804551 0.108883 2.7497e-18)
(0.84022 0.129309 2.6137e-18)
(0.860339 0.146207 0)
(0.865801 0.159505 0)
(0.861825 0.168157 0)
(0.846727 0.173995 2.59931e-18)
(0.835145 0.174745 0)
(0.813405 0.1777 0)
(0.82619 0.175682 2.50919e-18)
(0.810226 0.185561 -1.33295e-18)
(0.898478 0.188128 -1.76027e-18)
(0.880274 -0.013733 -2.28016e-19)
(0.250979 0.0348475 -3.86643e-18)
(0.0814722 -0.00978969 0)
(-0.0883215 0.0267739 -4.20259e-18)
(-0.0056217 0.00263897 -3.75913e-18)
(-0.0492476 0.0118251 3.70347e-22)
(-0.0287546 0.00569896 0)
(-0.0436168 0.00893384 0)
(-0.0403973 0.0103928 0)
(-0.0545789 0.0156342 -2.70958e-18)
(-0.068701 0.0211673 0)
(-0.0902278 0.0249192 0)
(-0.110334 0.026092 1.08194e-18)
(-0.127834 0.0229793 0)
(-0.135669 0.0147297 0)
(-0.1277 7.78376e-05 0)
(-0.0974659 -0.0196336 0)
(-0.0433518 -0.0383854 -8.47701e-19)
(0.0224953 -0.0428923 0)
(0.0757672 -0.018227 8.93517e-19)
(0.077703 0.0184214 -4.84879e-19)
(0.0139649 0.0472357 -5.03802e-19)
(-0.108262 0.0809249 9.33242e-19)
(-0.229764 0.0900263 7.92438e-19)
(-0.299154 0.0677428 0)
(-0.348964 0.0477605 -1.25072e-19)
(-0.385967 0.0350333 0)
(-0.413393 0.0252776 0)
(-0.432779 0.0166783 -8.22817e-20)
(-0.445194 0.00837135 0)
(-0.45087 0.000114764 0)
(-0.449749 -0.0081844 8.38867e-20)
(-0.441464 -0.0164774 0)
(-0.425592 -0.0246724 0)
(-0.401611 -0.0326121 1.26223e-19)
(-0.36891 -0.0401165 0)
(-0.326775 -0.0469679 -3.56436e-19)
(-0.274401 -0.0528975 0)
(-0.210933 -0.0575269 0)
(-0.135671 -0.0603015 0)
(-0.0484235 -0.0605107 0)
(0.0502422 -0.0572738 1.42865e-18)
(0.158429 -0.0497501 1.52607e-18)
(0.272731 -0.0372496 8.15883e-21)
(0.388434 -0.0196051 1.62417e-18)
(0.499995 0.00256363 1.59188e-18)
(0.601947 0.0279522 -1.54023e-18)
(0.689892 0.0548163 0)
(0.760823 0.0814089 -1.35082e-18)
(0.81368 0.106198 1.26893e-18)
(0.848755 0.128189 -2.41113e-18)
(0.868432 0.146396 0)
(0.873889 0.160771 0)
(0.870594 0.170269 -2.37862e-18)
(0.857053 0.176829 -2.40002e-18)
(0.847428 0.177881 2.49022e-18)
(0.827927 0.181126 2.26627e-18)
(0.84147 0.178167 -2.33333e-18)
(0.826742 0.188085 1.23535e-18)
(0.911671 0.187356 0)
(0.895342 0.00501089 -2.04974e-19)
(0.337864 0.0365202 0)
(0.120313 -0.00453888 3.64961e-18)
(-0.0786232 0.0275493 4.14854e-18)
(-0.00797918 0.00244242 -4.72138e-22)
(-0.0494574 0.0123036 3.50991e-18)
(-0.0300182 0.00596657 0)
(-0.0445202 0.00936992 0)
(-0.0413167 0.0110845 0)
(-0.0544178 0.0167245 1.32762e-18)
(-0.0673172 0.0225604 1.22866e-18)
(-0.0876749 0.0264512 0)
(-0.107318 0.0275213 -1.04964e-18)
(-0.125249 0.023956 9.7536e-19)
(-0.134571 0.0147125 0)
(-0.12923 -0.00156712 0)
(-0.102774 -0.0233419 0)
(-0.0531811 -0.0437702 2.87889e-21)
(0.0084529 -0.048161 0)
(0.0603375 -0.0200173 -1.74898e-18)
(0.0646625 0.0227978 4.75622e-19)
(0.00161221 0.0583846 4.90756e-19)
(-0.11788 0.094857 -9.17841e-22)
(-0.226028 0.100254 -3.77642e-19)
(-0.288531 0.0740668 0)
(-0.335975 0.0523413 0)
(-0.371746 0.0384325 0)
(-0.398505 0.027757 4.25017e-20)
(-0.417515 0.0183903 7.70379e-20)
(-0.429717 0.00938347 0)
(-0.435266 0.00043593 0)
(-0.434074 -0.00857907 -7.82355e-20)
(-0.425781 -0.0176304 -4.32425e-20)
(-0.409961 -0.026634 0)
(-0.386084 -0.0354402 0)
(-0.353533 -0.043876 0)
(-0.311589 -0.0517301 0)
(-0.25944 -0.0587357 0)
(-0.196216 -0.0645016 0)
(-0.121195 -0.0684279 0)
(-0.0341579 -0.0697234 0)
(0.0642996 -0.0673867 0)
(0.172199 -0.0604353 -6.63044e-21)
(0.286128 -0.0480444 1.51788e-18)
(0.401335 -0.0299625 0)
(0.512244 -0.00681229 -3.02634e-18)
(0.613389 0.0199994 -1.44886e-18)
(0.700415 0.0485655 0)
(0.770402 0.0769587 1.28528e-18)
(0.822388 0.103479 -1.20568e-18)
(0.856663 0.126993 2.28542e-18)
(0.875682 0.146453 -2.19544e-18)
(0.8808 0.161806 0)
(0.877672 0.172014 7.57241e-21)
(0.864987 0.179094 2.24784e-18)
(0.856656 0.180321 -4.65714e-18)
(0.838888 0.183669 -7.6812e-21)
(0.853203 0.179919 -2.17245e-18)
(0.839737 0.189688 1.11915e-18)
(0.922129 0.186238 1.49558e-18)
(0.90765 0.0223016 -2.17471e-18)
(0.414792 0.040087 0)
(0.166506 0.00140252 9.91772e-21)
(-0.0570375 0.0277192 -3.26817e-21)
(-0.00960688 0.00254355 3.78105e-18)
(-0.0493912 0.012705 3.49038e-18)
(-0.0308788 0.00617583 0)
(-0.0451019 0.00974887 2.9995e-18)
(-0.0417885 0.0116475 0)
(-0.0537603 0.0176484 -1.30332e-18)
(-0.0653924 0.0237738 4.21171e-22)
(-0.0846046 0.0278527 -1.11074e-18)
(-0.103789 0.0288955 0)
(-0.122148 0.0249769 -1.89928e-18)
(-0.132987 0.0148564 0)
(-0.130388 -0.00291421 0)
(-0.107895 -0.0266294 0)
(-0.0630167 -0.0486889 7.99853e-19)
(-0.00571984 -0.0531229 0)
(0.0446233 -0.02188 8.59569e-19)
(0.0513593 0.0269736 -9.37888e-19)
(-0.0105242 0.0692238 0)
(-0.124765 0.107662 -1.21917e-21)
(-0.220522 0.109314 0)
(-0.277272 0.079867 0)
(-0.322475 0.0567047 -1.11757e-19)
(-0.356993 0.0417116 0)
(-0.383042 0.0301673 -8.04747e-20)
(-0.401627 0.0200608 -3.64342e-20)
(-0.413567 0.0103712 -8.6327e-21)
(-0.418953 0.0007444 8.66979e-21)
(-0.41767 -0.008976 3.69558e-20)
(-0.409355 -0.0187748 8.17241e-20)
(-0.39358 -0.0285768 0)
(-0.369802 -0.0382401 1.10498e-19)
(-0.3374 -0.0475987 0)
(-0.295652 -0.0564475 0)
(-0.243738 -0.0645227 0)
(-0.180776 -0.0714211 4.40396e-19)
(-0.106016 -0.0764983 0)
(-0.0192128 -0.0788793 0)
(0.0789901 -0.0774387 1.28953e-18)
(0.18656 -0.0710517 -1.39329e-18)
(0.300074 -0.0587614 0)
(0.414735 -0.0402312 0)
(0.524923 -0.01609 1.45617e-18)
(0.625168 0.0121479 1.39805e-18)
(0.711155 0.0424081 -1.30758e-18)
(0.780051 0.0725803 0)
(0.830992 0.100801 0)
(0.864307 0.125804 0)
(0.882506 0.146472 1.24373e-20)
(0.887071 0.162731 0)
(0.883795 0.173559 2.10813e-18)
(0.871531 0.18102 0)
(0.864049 0.182331 2.19401e-18)
(0.847612 0.185637 -1.989e-18)
(0.862641 0.18119 4.08338e-18)
(0.850379 0.190673 -1.04926e-18)
(0.930812 0.184918 -1.40026e-18)
(0.917686 0.0379343 1.70977e-19)
(0.482641 0.0450117 -3.3234e-18)
(0.217287 0.00800334 -3.44865e-18)
(-0.0265114 0.0280466 -3.26152e-21)
(-0.0093363 0.00308797 -3.79328e-18)
(-0.0489977 0.0130524 -3.48478e-18)
(-0.0313271 0.00633053 0)
(-0.0453734 0.0100714 -2.96817e-18)
(-0.0418601 0.0120884 0)
(-0.0526815 0.0184154 -1.28262e-18)
(-0.06301 0.0248215 -1.17952e-18)
(-0.0810791 0.0291341 1.08687e-18)
(-0.0997773 0.0302203 -1.00003e-18)
(-0.118531 0.0260445 9.2801e-19)
(-0.13088 0.0151656 -8.71653e-19)
(-0.131092 -0.0039569 8.22093e-19)
(-0.112709 -0.0294897 0)
(-0.0727314 -0.0531402 0)
(-0.0198837 -0.0577746 0)
(0.0286935 -0.0238127 4.23435e-19)
(0.0379082 0.0308996 4.63585e-19)
(-0.0221335 0.0795914 0)
(-0.12935 0.119308 -4.20808e-19)
(-0.213711 0.117338 0)
(-0.2655 0.0852117 0)
(-0.308518 0.0608581 1.0692e-19)
(-0.341751 0.0448691 -8.85475e-20)
(-0.367045 0.0325048 3.83719e-20)
(-0.385158 0.0216856 0)
(-0.396795 0.0113303 1.64346e-20)
(-0.401984 0.0010369 -1.65012e-20)
(-0.400588 -0.00937779 0)
(-0.392236 -0.0199135 -3.89076e-20)
(-0.376491 -0.0305042 8.89641e-20)
(-0.352803 -0.0410155 -1.05863e-19)
(-0.320544 -0.0512882 0)
(-0.278991 -0.0611239 0)
(-0.227317 -0.0702622 0)
(-0.164623 -0.0782893 -4.25091e-19)
(-0.0901354 -0.0845167 0)
(-0.00358426 -0.0879815 0)
(0.0943277 -0.0874319 -1.25123e-18)
(0.201539 -0.0816011 0)
(0.31461 -0.0694003 1.40461e-18)
(0.428688 -0.0504071 -1.42508e-18)
(0.538101 -0.0252603 0)
(0.637368 0.00441323 1.34469e-18)
(0.722217 0.0363668 2.53727e-18)
(0.789901 0.0683043 -1.17719e-18)
(0.839659 0.0982013 0)
(0.871878 0.124662 0)
(0.889127 0.146501 1.01064e-18)
(0.892982 0.163613 0)
(0.889347 0.174993 2.00112e-18)
(0.877209 0.182737 0)
(0.870267 0.184059 2.07748e-18)
(0.854849 0.187214 1.87268e-18)
(0.870517 0.182121 -1.93096e-18)
(0.859363 0.191221 0)
(0.93826 0.183465 1.32e-18)
(0.925859 0.051915 1.43247e-18)
(0.542257 0.0508441 7.40116e-20)
(0.270488 0.0151515 3.37358e-18)
(0.0110139 0.0290086 -3.43e-21)
(-0.00605933 0.00416184 -5.7923e-22)
(-0.04812 0.013392 0)
(-0.0313339 0.00643484 0)
(-0.0453321 0.0103389 0)
(-0.0415643 0.0124127 -1.35848e-18)
(-0.0512352 0.0190325 2.52806e-18)
(-0.0602274 0.0257128 0)
(-0.0771389 0.0303006 1.06706e-18)
(-0.0953014 0.0314963 -2.84176e-22)
(-0.114388 0.0271568 -9.09366e-19)
(-0.128206 0.0156395 1.0114e-21)
(-0.131251 -0.004693 -8.0912e-19)
(-0.117082 -0.0319176 0)
(-0.0821737 -0.0571223 0)
(-0.033883 -0.0621106 0)
(0.0126501 -0.0258136 -4.18373e-19)
(0.0243957 0.0345264 0)
(-0.0329787 0.0893487 4.56068e-19)
(-0.131968 0.129789 4.06601e-19)
(-0.205888 0.124435 -3.29855e-19)
(-0.253281 0.0901466 0)
(-0.294136 0.0648044 0)
(-0.326055 0.0479022 8.50723e-20)
(-0.350548 0.0347651 0)
(-0.368146 0.0232604 3.30415e-20)
(-0.37944 0.0122571 -7.86934e-21)
(-0.384403 0.00131009 7.89926e-21)
(-0.382873 -0.00978745 -3.31696e-20)
(-0.374468 -0.0210497 0)
(-0.358739 -0.0324195 -8.56396e-20)
(-0.335128 -0.0437701 0)
(-0.303004 -0.0549485 0)
(-0.261639 -0.065763 2.88866e-19)
(-0.210204 -0.075958 0)
(-0.147782 -0.0851099 0)
(-0.0735709 -0.0924862 0)
(0.0127145 -0.0970322 0)
(0.110307 -0.0973675 0)
(0.217138 -0.0920847 0)
(0.329746 -0.0799614 -2.74799e-18)
(0.44321 -0.0604884 1.39877e-18)
(0.551801 -0.0343181 1.36977e-18)
(0.650024 -0.00319588 -2.63244e-18)
(0.733649 0.0304545 -1.24061e-18)
(0.800018 0.0641483 1.15391e-18)
(0.848475 0.0957021 -1.06844e-18)
(0.879482 0.123594 0)
(0.895669 0.146572 6.17719e-21)
(0.898691 0.164491 -1.89156e-18)
(0.894542 0.176371 -1.92723e-18)
(0.882321 0.184319 -1.91807e-18)
(0.875694 0.185594 -3.97123e-18)
(0.861054 0.18851 -1.78649e-18)
(0.87728 0.182802 1.83502e-18)
(0.867133 0.191445 9.0294e-19)
(0.944806 0.181918 -1.25323e-18)
(0.93254 0.0644462 -1.49123e-19)
(0.594442 0.0572406 3.16188e-18)
(0.324416 0.0227221 2.38573e-21)
(0.0546975 0.030673 -3.80901e-21)
(0.00125322 0.00609934 3.73954e-18)
(-0.0464365 0.0137869 3.51057e-18)
(-0.0308453 0.00649733 -3.15116e-18)
(-0.0449632 0.0105539 1.46148e-18)
(-0.0409229 0.012626 -1.59974e-22)
(-0.0494617 0.0195059 -1.24773e-18)
(-0.0570869 0.0264535 -1.14283e-18)
(-0.0728134 0.0313542 -1.04894e-18)
(-0.0903718 0.0327211 1.9259e-18)
(-0.109706 0.0283086 1.69417e-22)
(-0.124916 0.0162732 8.41489e-19)
(-0.130772 -0.00512439 0)
(-0.120874 -0.0339109 7.64707e-19)
(-0.0911778 -0.0606332 0)
(-0.0475719 -0.0661293 -7.65088e-19)
(-0.00333276 -0.0278726 -4.14119e-19)
(0.0108912 0.0378335 -4.55285e-19)
(-0.0428851 0.0983626 -4.52703e-22)
(-0.132883 0.13912 -3.96535e-19)
(-0.197241 0.130695 3.19933e-19)
(-0.240655 0.0947034 0)
(-0.279354 0.0685444 -9.8653e-20)
(-0.309932 0.0508076 0)
(-0.333584 0.0369443 0)
(-0.350626 0.0247811 -3.18706e-20)
(-0.361544 0.0131477 0)
(-0.366254 0.0015608 0)
(-0.364569 -0.010208 3.20304e-20)
(-0.356094 -0.0221864 0)
(-0.340367 -0.0343261 0)
(-0.31682 -0.0465074 9.65087e-20)
(-0.28482 -0.0585831 0)
(-0.243637 -0.0703688 -2.8075e-19)
(-0.192435 -0.0816137 0)
(-0.130283 -0.0918864 3.96597e-19)
(-0.0563491 -0.10041 0)
(0.0296585 -0.106033 0)
(0.126909 -0.107247 0)
(0.233346 -0.102504 0)
(0.345474 -0.090446 1.35219e-18)
(0.458299 -0.0704749 0)
(0.566026 -0.0432611 -2.69987e-18)
(0.663144 -0.0106744 1.2968e-18)
(0.745466 0.024679 -1.20734e-18)
(0.810428 0.0601232 1.12041e-18)
(0.857484 0.0933171 1.0523e-18)
(0.887178 0.122615 0)
(0.902207 0.146703 9.41716e-19)
(0.904294 0.165392 2.75657e-18)
(0.899512 0.177725 -1.85424e-18)
(0.887049 0.185815 1.85172e-18)
(0.880568 0.186992 1.90927e-18)
(0.866514 0.189599 0)
(0.883226 0.18329 -1.75708e-18)
(0.873985 0.191421 -1.71345e-18)
(0.950667 0.180301 0)
(0.938039 0.0757305 -8.11425e-19)
(0.639951 0.0639353 0)
(0.377744 0.0305921 1.1653e-22)
(0.102724 0.0332026 -4.30492e-21)
(0.01536 0.00849718 -3.67574e-18)
(-0.0433563 0.014335 -7.06892e-18)
(-0.0297681 0.0065368 6.31481e-18)
(-0.0442373 0.0107209 -1.45476e-18)
(-0.0399478 0.0127345 1.33324e-18)
(-0.047392 0.0198411 0)
(-0.0536221 0.0270473 -4.23248e-22)
(-0.0681264 0.0322945 0)
(-0.0849979 0.03389 -1.89608e-18)
(-0.104473 0.0294923 8.79846e-19)
(-0.120966 0.0170587 0)
(-0.129562 -0.00525689 0)
(-0.123945 -0.0354705 -7.57965e-19)
(-0.0995692 -0.0636706 0)
(-0.0607962 -0.0698218 7.58588e-19)
(-0.0190393 -0.0299711 4.09915e-19)
(-0.00250726 0.0407568 -5.80773e-22)
(-0.0517345 0.106532 -4.38245e-19)
(-0.132301 0.14733 -3.84644e-19)
(-0.187899 0.136191 0)
(-0.227644 0.0989056 0)
(-0.264193 0.0720781 9.57002e-20)
(-0.293405 0.0535827 0)
(-0.31618 0.0390386 3.40876e-20)
(-0.33263 0.0262442 -3.06221e-20)
(-0.343142 0.0139992 7.23519e-21)
(-0.347575 0.00178618 -7.23632e-21)
(-0.345717 -0.0106421 3.05494e-20)
(-0.337156 -0.0233267 -3.3913e-20)
(-0.321418 -0.0362273 7.84104e-20)
(-0.297924 -0.049231 -9.38465e-20)
(-0.266038 -0.062196 0)
(-0.225027 -0.074945 0)
(-0.174052 -0.0872333 0)
(-0.112164 -0.0986228 -2.23854e-21)
(-0.0385036 -0.108291 4.54184e-19)
(0.047214 -0.114988 0)
(0.144107 -0.117074 0)
(0.250139 -0.112863 0)
(0.361773 -0.100856 0)
(0.473934 -0.0803678 0)
(0.580757 -0.0520887 8.18253e-21)
(0.676712 -0.0180197 0)
(0.75766 0.019045 2.38952e-18)
(0.821135 0.056236 -2.21408e-18)
(0.866701 0.0910553 -1.0248e-18)
(0.894994 0.121738 0)
(0.908783 0.146908 0)
(0.909849 0.166332 -1.78696e-18)
(0.904337 0.179078 6.7699e-21)
(0.891509 0.187258 -1.78697e-18)
(0.885042 0.188292 1.84211e-18)
(0.871422 0.19053 1.63905e-18)
(0.888553 0.183625 -1.68974e-18)
(0.880123 0.191201 1.62436e-18)
(0.955996 0.178629 1.15117e-18)
(0.942609 0.0859175 1.3188e-19)
(0.679492 0.0707191 -2.90401e-18)
(0.429458 0.0386464 -6.34529e-18)
(0.153646 0.0366517 -4.93422e-21)
(0.0363674 0.0113178 3.59914e-18)
(-0.0378741 0.0151654 3.55321e-18)
(-0.0279432 0.00659143 -1.58553e-18)
(-0.0431056 0.010847 0)
(-0.0386401 0.0127452 0)
(-0.0450493 0.0200432 1.22204e-18)
(-0.0498608 0.0274969 1.11417e-18)
(-0.0630985 0.0331197 0)
(-0.0791895 0.0349968 9.34897e-19)
(-0.0986815 0.0306981 0)
(-0.116319 0.0179846 0)
(-0.127538 -0.0051001 0)
(-0.126159 -0.0366004 0)
(-0.107172 -0.0662325 7.40613e-19)
(-0.0733809 -0.0731769 3.75907e-19)
(-0.0342887 -0.032106 -4.07052e-19)
(-0.0156369 0.0432371 -9.51039e-22)
(-0.0594475 0.113796 0)
(-0.13039 0.154456 3.76614e-19)
(-0.177948 0.140989 0)
(-0.214264 0.102771 0)
(-0.248669 0.0754059 9.26335e-20)
(-0.276497 0.056225 -7.67238e-20)
(-0.298363 0.0410447 -3.31372e-20)
(-0.314192 0.0276466 2.97623e-20)
(-0.32427 0.0148086 -1.40247e-20)
(-0.328405 0.00198364 1.40218e-20)
(-0.326359 -0.0110925 -2.97192e-20)
(-0.317698 -0.0244732 3.30134e-20)
(-0.301935 -0.0381261 -6.89498e-22)
(-0.278484 -0.0519441 -9.00153e-20)
(-0.246702 -0.0657908 0)
(-0.205854 -0.0794957 0)
(-0.155097 -0.0928212 0)
(-0.0934672 -0.105324 -7.58552e-19)
(-0.0200739 -0.116135 -4.47869e-19)
(0.0653406 -0.123898 0)
(0.161865 -0.12685 0)
(0.267484 -0.123165 -1.24895e-18)
(0.378611 -0.111196 0)
(0.490085 -0.0901692 0)
(0.595964 -0.0608015 2.64669e-18)
(0.690701 -0.025231 -1.2605e-18)
(0.770208 0.0135548 -2.36639e-18)
(0.832122 0.0524903 9.79497e-21)
(0.876122 0.0889225 2.0308e-18)
(0.902941 0.120969 9.42791e-19)
(0.915417 0.147195 0)
(0.91539 0.167322 8.75946e-19)
(0.90907 0.180447 1.76228e-18)
(0.895778 0.188669 1.74262e-18)
(0.889221 0.189521 -1.79033e-18)
(0.875909 0.191338 -1.5882e-18)
(0.893401 0.183838 1.63359e-18)
(0.885696 0.190825 -7.78382e-19)
(0.960903 0.176913 -1.10766e-18)
(0.946455 0.0951288 1.24638e-19)
(0.713728 0.0774324 2.87906e-18)
(0.4788 0.0467742 3.66357e-21)
(0.20629 0.0409722 -5.64282e-21)
(0.0634057 0.0148236 0)
(-0.0285029 0.0162251 0)
(-0.0251064 0.00672694 2.05351e-22)
(-0.0414901 0.0109444 0)
(-0.0369877 0.0126669 0)
(-0.0424497 0.0201179 3.258e-22)
(-0.0458266 0.0278039 0)
(-0.0577495 0.0338273 0)
(-0.0729581 0.0360342 9.2385e-19)
(-0.0923278 0.0319146 0)
(-0.110943 0.0190371 0)
(-0.124628 -0.00466707 0)
(-0.127391 -0.0373083 0)
(-0.113815 -0.0683182 -2.57422e-21)
(-0.0851406 -0.0761858 -3.73417e-19)
(-0.0489015 -0.0342716 8.07058e-19)
(-0.0282954 0.045227 -1.34042e-21)
(-0.0659734 0.120113 4.23878e-19)
(-0.127284 0.160542 0)
(-0.167449 0.145141 2.8997e-19)
(-0.200527 0.106314 0)
(-0.232797 0.0785284 -9.04276e-20)
(-0.259229 0.0587327 1.81983e-22)
(-0.28016 0.0429599 0)
(-0.29534 0.0289856 0)
(-0.304963 0.0155735 4.03486e-23)
(-0.308783 0.00215095 -5.12321e-23)
(-0.306534 -0.0115614 1.42488e-20)
(-0.297761 -0.0256285 0)
(-0.281964 -0.0400252 -7.39847e-20)
(-0.258546 -0.0546499 8.80686e-20)
(-0.226858 -0.069371 0)
(-0.186165 -0.0840248 -2.55917e-19)
(-0.135617 -0.0983817 0)
(-0.0742359 -0.111994 2.28151e-21)
(-0.00110407 -0.123943 0)
(0.0839934 -0.132769 5.05669e-19)
(0.180142 -0.136581 5.67869e-19)
(0.285342 -0.133414 5.94865e-21)
(0.395949 -0.121468 -1.3084e-18)
(0.506711 -0.0998818 0)
(0.611606 -0.0694011 -8.81413e-21)
(0.70507 -0.0323087 1.26452e-18)
(0.783074 0.00820886 1.02983e-20)
(0.843361 0.048888 1.09114e-18)
(0.88573 0.0869214 -9.50541e-21)
(0.911011 0.120312 -8.24183e-21)
(0.922116 0.147571 0)
(0.920936 0.168372 0)
(0.913743 0.181841 0)
(0.899907 0.190065 0)
(0.893175 0.190697 0)
(0.880068 0.19205 1.53818e-18)
(0.89787 0.183948 0)
(0.890812 0.19032 0)
(0.965469 0.175161 -1.07742e-18)
(0.949749 0.103478 7.49836e-20)
(0.743279 0.0839598 0)
(0.525228 0.0548686 5.15542e-21)
(0.259664 0.0460585 -6.37183e-21)
(0.0958527 0.01907 0)
(-0.0140281 0.0175738 1.75986e-18)
(-0.0208472 0.00702743 -1.60725e-18)
(-0.0392694 0.011033 0)
(-0.0349612 0.0125105 0)
(-0.0396007 0.0200713 -1.20381e-18)
(-0.0415401 0.0279697 0)
(-0.0520988 0.0344138 0)
(-0.0663182 0.0369941 -9.13679e-19)
(-0.0854151 0.0331292 0)
(-0.104818 0.0202002 -7.99717e-19)
(-0.120773 -0.00397395 0)
(-0.127533 -0.0376049 0)
(-0.11934 -0.0699284 -2.61646e-21)
(-0.0958909 -0.0788404 0)
(-0.0626835 -0.0364572 -3.99761e-19)
(-0.0402797 0.0466874 4.41196e-19)
(-0.0712843 0.125454 -8.35748e-19)
(-0.123096 0.165634 3.59679e-19)
(-0.156446 0.148697 -2.84184e-19)
(-0.186442 0.109547 0)
(-0.216593 0.0814466 -8.80511e-20)
(-0.24162 0.0611047 1.45885e-19)
(-0.261595 0.0447822 0)
(-0.276106 0.030259 -1.39974e-20)
(-0.285255 0.0162919 6.62315e-21)
(-0.288744 0.00228618 -6.61059e-21)
(-0.28628 -0.0120508 -1.39361e-20)
(-0.277385 -0.0267946 0)
(-0.261546 -0.0419271 -7.11241e-20)
(-0.238152 -0.0573513 8.48419e-20)
(-0.206551 -0.07294 0)
(-0.166005 -0.0885364 2.51883e-19)
(-0.115658 -0.103919 0)
(-0.0545163 -0.118637 3.66964e-19)
(0.0183573 -0.131721 0)
(0.103125 -0.141602 -5.0241e-19)
(0.198894 -0.14627 -5.66013e-19)
(0.303667 -0.143613 6.16836e-21)
(0.413739 -0.131678 1.31185e-18)
(0.523762 -0.109509 0)
(0.627629 -0.0778897 -1.32231e-18)
(0.719766 -0.0392543 0)
(0.796206 0.00300629 1.1792e-18)
(0.854809 0.0454286 0)
(0.895494 0.0850526 -1.00452e-18)
(0.919187 0.11977 -1.85112e-18)
(0.928874 0.148039 0)
(0.926494 0.169487 0)
(0.918375 0.183269 0)
(0.903931 0.191458 8.31469e-19)
(0.896954 0.191836 0)
(0.883967 0.192685 -2.82314e-21)
(0.902036 0.183973 0)
(0.895552 0.189708 7.08912e-19)
(0.969756 0.173377 1.04534e-18)
(0.952629 0.111069 0)
(0.768721 0.0902226 2.68728e-18)
(0.568381 0.0628298 3.02784e-18)
(0.312901 0.0517753 -7.06918e-21)
(0.132957 0.0240139 0)
(0.00590595 0.0193311 -1.73542e-18)
(-0.0146181 0.00758473 0)
(-0.0362562 0.011143 1.46252e-18)
(-0.0325081 0.012291 1.31501e-18)
(-0.0364996 0.0199109 1.19844e-18)
(-0.0370179 0.0279958 1.08588e-18)
(-0.0461656 0.0348757 9.90356e-19)
(-0.0592872 0.0378679 0)
(-0.0779532 0.0343282 0)
(-0.0979376 0.021456 7.93228e-19)
(-0.115931 -0.00303956 0)
(-0.126494 -0.0375039 0)
(-0.12361 -0.0710663 -7.25459e-19)
(-0.10546 -0.0811333 0)
(-0.0754425 -0.038653 -3.97658e-19)
(-0.0513973 0.047592 0)
(-0.0753703 0.129807 4.12343e-19)
(-0.117919 0.169782 -3.53869e-19)
(-0.144971 0.151696 0)
(-0.172016 0.11248 0)
(-0.200069 0.0841623 1.88961e-22)
(-0.223689 0.0633403 -7.14268e-20)
(-0.242692 0.0465099 0)
(-0.256517 0.0314651 1.37124e-20)
(-0.265177 0.0169621 6.41132e-21)
(-0.268324 0.00238774 -6.37954e-21)
(-0.265634 -0.0125622 0)
(-0.256611 -0.0279736 0)
(-0.240722 -0.0438339 6.69358e-22)
(-0.217348 -0.0600509 -7.6504e-22)
(-0.185828 -0.0765009 0)
(-0.14542 -0.0930337 0)
(-0.0952675 -0.109438 2.976e-19)
(-0.0343553 -0.125259 0)
(0.0382589 -0.139472 0)
(0.122686 -0.150403 0)
(0.218071 -0.155922 0)
(0.322408 -0.153769 1.23573e-18)
(0.431928 -0.141827 1.30473e-18)
(0.541179 -0.119053 0)
(0.643972 -0.0862695 0)
(0.734725 -0.0460698 1.25563e-18)
(0.809545 -0.00205509 0)
(0.866414 0.0421102 0)
(0.905372 0.0833148 -9.91349e-19)
(0.927442 0.119342 9.23723e-19)
(0.935678 0.148599 0)
(0.932061 0.170669 0)
(0.922978 0.184736 0)
(0.907872 0.192856 -8.19627e-19)
(0.900595 0.192948 8.37513e-19)
(0.887655 0.193257 -2.93489e-18)
(0.905953 0.183925 0)
(0.899981 0.189006 -6.91226e-19)
(0.973813 0.171564 -1.0264e-18)
(0.955204 0.117995 0)
(0.79059 0.0961708 -2.67278e-18)
(0.60805 0.070569 0)
(0.365241 0.0579767 -4.90149e-18)
(0.173886 0.0295838 0)
(0.0313641 0.0215862 -1.70358e-18)
(-0.00580273 0.00855772 0)
(-0.0321655 0.0113182 -1.47226e-18)
(-0.0295432 0.0120291 -1.31812e-18)
(-0.0331296 0.0196461 -1.19481e-18)
(-0.0322726 0.0278844 -1.07924e-18)