/*--------------------------------*- C++ -*----------------------------------*\
| =========                 |                                                 |
| \\      /  F ield         | OpenFOAM: The Open Source CFD Toolbox           |
|  \\    /   O peration     | Version:  2.4.0                                 |
|   \\  /    A nd           | Web:      www.OpenFOAM.org                      |
|    \\/     M anipulation  |                                                 |
\*---------------------------------------------------------------------------*/
FoamFile
{
    version     2.0;
    format      ascii;
    class       volScalarField;
    location    "1.36";
    object      k;
}
// * * * * * * * * * * * * * * * * * * * * * * * * * * * * * * * * * * * * * //

dimensions      [0 2 -2 0 0 0 0];

internalField   nonuniform List<scalar> 
6000
(
0.0117068
0.00656689
0.00176795
0.000423346
0.000390941
0.00068969
0.00136977
0.00191097
0.00210006
0.00188212
0.00156979
0.00274325
0.00386515
0.00426053
0.00390366
0.00314211
0.00237983
0.00179066
0.00126979
0.000845093
0.000538098
0.000351429
0.000282365
0.00035757
0.000461035
0.00056293
0.000663318
0.000762948
0.000862006
0.000959994
0.00105595
0.00114877
0.00123748
0.00132153
0.00140088
0.00147604
0.00154799
0.00161804
0.0016877
0.00175859
0.00183237
0.00191077
0.00199558
0.00208867
0.0021921
0.00230818
0.00243956
0.0025894
0.00276157
0.00296084
0.00319323
0.00346664
0.00379084
0.00418057
0.00465052
0.00523788
0.00594318
0.0069353
0.00792343
0.00998234
0.0120359
0.0116604
0.00202131
0.000777893
0.00055014
0.00101696
0.00163315
0.00202713
0.00223891
0.00338777
0.00428292
0.00302797
0.00200056
0.00154117
0.00129178
0.00118172
0.0011233
0.00102338
0.000868383
0.000688384
0.000538466
0.000447611
0.000412452
0.000414219
0.000428789
0.000450825
0.000478695
0.00051192
0.000550427
0.000593968
0.000641727
0.000692207
0.000743425
0.000793331
0.000840282
0.000883335
0.000922273
0.000957414
0.00098938
0.00101892
0.00104684
0.001074
0.00110132
0.00112977
0.00116034
0.00119403
0.0012319
0.00127505
0.00132474
0.00138242
0.00144988
0.0015293
0.0016236
0.00173617
0.00187284
0.00203754
0.00224773
0.00249117
0.00284618
0.00328443
0.0115697
0.0150863
0.00276632
0.000738674
0.000720678
0.00123002
0.00207748
0.00284218
0.00355947
0.00469836
0.00328691
0.00172649
0.00126975
0.00121284
0.00124552
0.00130486
0.00132505
0.00125842
0.00109233
0.000869056
0.000669027
0.000540205
0.000475957
0.000450592
0.000441483
0.000440451
0.000444394
0.000451996
0.000463032
0.000477784
0.000496511
0.000519017
0.000544439
0.000571359
0.000598171
0.000623516
0.000646549
0.00066696
0.000684815
0.00070038
0.000714015
0.000726146
0.000737258
0.000747893
0.000758615
0.000769986
0.000782542
0.000796798
0.000813263
0.000832462
0.000854988
0.000881501
0.000912906
0.000950009
0.000994792
0.00104679
0.00111438
0.0011823
0.00128703
0.00133958
0.0114671
0.0159893
0.00381868
0.000679193
0.000824558
0.00127637
0.00229562
0.00349444
0.00456763
0.00446532
0.00222982
0.00130754
0.00123704
0.00130407
0.00138972
0.00147547
0.00151091
0.00144491
0.00126038
0.0010011
0.000758098
0.000595315
0.000509776
0.000472253
0.000454675
0.000446214
0.000442259
0.000440407
0.000439717
0.000440211
0.000442431
0.000446973
0.000454083
0.000463452
0.000474288
0.000485609
0.000496562
0.000506598
0.000515468
0.000523127
0.000529641
0.000535146
0.000539842
0.000543988
0.000547886
0.000551847
0.000556172
0.000561137
0.000566993
0.000573975
0.000582322
0.000592273
0.000604152
0.00061816
0.000635103
0.000654213
0.000679404
0.000701684
0.000743004
0.000744669
0.0113806
0.0156977
0.00509658
0.000695654
0.000859922
0.00122943
0.00226115
0.00385645
0.00492896
0.00356591
0.00164553
0.00125458
0.00132933
0.00142759
0.00153332
0.00163501
0.00167827
0.00161103
0.00141284
0.00112525
0.000840771
0.000640686
0.000532647
0.000484456
0.000461291
0.000449668
0.000443368
0.000438874
0.000434416
0.000429446
0.00042427
0.000419656
0.000416399
0.000414968
0.000415352
0.000417155
0.000419825
0.000422866
0.000425935
0.000428833
0.000431457
0.000433772
0.000435801
0.000437624
0.000439374
0.000441209
0.000443298
0.000445804
0.000448879
0.000452669
0.000457326
0.000463004
0.000469914
0.000478218
0.000488399
0.000500299
0.000515964
0.000531574
0.000560671
0.000577
0.0113081
0.0148914
0.00647495
0.000840815
0.00085856
0.00115649
0.00201384
0.00382522
0.00456422
0.00270198
0.00139186
0.00131356
0.00143757
0.0015413
0.00165622
0.00176739
0.00181741
0.00175113
0.00154766
0.00124677
0.000930349
0.000690698
0.000555479
0.000493352
0.000462905
0.000447983
0.000440496
0.000435687
0.00043086
0.000424752
0.000417207
0.00040884
0.000400627
0.00039347
0.000387904
0.000384025
0.000381618
0.00038034
0.000379865
0.000379934
0.000380355
0.000380998
0.000381788
0.000382705
0.000383777
0.000385074
0.000386688
0.000388722
0.000391289
0.000394509
0.00039852
0.000403478
0.000409604
0.000417119
0.000426529
0.000437928
0.000453429
0.000470595
0.000502577
0.000534957
0.0112484
0.0139107
0.00752117
0.0012692
0.00086689
0.00108171
0.00169933
0.00336037
0.00376655
0.00208429
0.00131796
0.00140178
0.00154027
0.00164108
0.00176216
0.00188291
0.00193917
0.00187119
0.00166174
0.00135802
0.00102719
0.000752251
0.000586369
0.000505714
0.000464376
0.000443956
0.000434304
0.000429285
0.000425169
0.000419843
0.00041249
0.000403349
0.000393334
0.000383558
0.000374919
0.00036789
0.00036255
0.000358726
0.000356149
0.000354547
0.000353688
0.000353391
0.000353527
0.000354023
0.000354856
0.000356046
0.000357646
0.00035973
0.000362395
0.000365759
0.000369969
0.000375208
0.000381743
0.000389855
0.000400188
0.000412918
0.0004307
0.000450825
0.000489966
0.000532592
0.0111937
0.0129251
0.00824613
0.00201862
0.000923044
0.00103526
0.00141528
0.00261299
0.00291096
0.00170119
0.00133383
0.00149675
0.00163484
0.00173378
0.00186476
0.0019987
0.00205991
0.00198355
0.00175764
0.00144733
0.00112007
0.000823376
0.000628545
0.000525853
0.000469996
0.000441258
0.000427486
0.000421168
0.000417522
0.000413507
0.0004075
0.000399156
0.000389127
0.000378559
0.000368577
0.000359945
0.00035299
0.000347702
0.000343886
0.000341288
0.000339657
0.000338785
0.000338517
0.00033875
0.000339436
0.000340568
0.000342177
0.000344324
0.000347097
0.000350616
0.000355043
0.000360585
0.000367551
0.000376293
0.000387549
0.000401675
0.000421635
0.000444634
0.000490957
0.000540025
0.0111407
0.0120136
0.00869343
0.00295915
0.00105478
0.00104249
0.00122105
0.00189141
0.00222562
0.00149009
0.00139158
0.00159278
0.00172564
0.00183006
0.00197843
0.00212949
0.00219355
0.00210245
0.00184778
0.00151326
0.00119541
0.000895795
0.00068072
0.000554589
0.000481843
0.000442408
0.000422459
0.000413273
0.000409136
0.000406131
0.000401762
0.000394946
0.000385879
0.000375581
0.000365291
0.000355994
0.000348229
0.00034214
0.000337615
0.000334428
0.000332329
0.000331096
0.00033056
0.000330604
0.000331165
0.000332227
0.000333809
0.000335965
0.000338783
0.000342388
0.000346955
0.000352716
0.000360015
0.000369256
0.000381288
0.0003965
0.00041841
0.000443619
0.000495675
0.000548677
0.0110903
0.0112077
0.00890767
0.00395967
0.00129844
0.00111273
0.00115302
0.0014166
0.00176669
0.00139564
0.00146846
0.00168947
0.00181924
0.00193937
0.00211301
0.00228301
0.00234631
0.00223575
0.00194529
0.00156694
0.00124608
0.000959904
0.000737458
0.000589895
0.000499726
0.00044824
0.000420555
0.000406998
0.000401154
0.000398404
0.00039544
0.000390361
0.000382744
0.000373323
0.000363343
0.000353949
0.000345868
0.000339387
0.00033448
0.00033096
0.000328587
0.000327136
0.000326426
0.000326336
0.000326796
0.000327784
0.000329314
0.00033144
0.00033425
0.000337872
0.000342493
0.00034836
0.000355847
0.000365396
0.000377932
0.000393914
0.000417177
0.00044405
0.000500325
0.000555787
0.0110435
0.0105144
0.00893591
0.00489312
0.00175008
0.00124185
0.00120081
0.00120445
0.0015018
0.00137869
0.00155523
0.00178855
0.00192191
0.00206845
0.00227374
0.00246166
0.00251848
0.00238387
0.00205607
0.00162374
0.00127564
0.00100905
0.000791137
0.000628179
0.000521962
0.000458239
0.00042203
0.000403017
0.000394334
0.000390919
0.000388831
0.000385372
0.000379391
0.000371185
0.000361888
0.000352746
0.000344651
0.000338027
0.00033294
0.000329248
0.000326726
0.000325152
0.00032434
0.000324164
0.000324552
0.000325478
0.000326958
0.000329042
0.00033182
0.000335424
0.000340047
0.000345948
0.000353521
0.000363236
0.00037607
0.000392546
0.00041672
0.00044476
0.000503854
0.000560795
0.0110009
0.00992795
0.00882442
0.00568719
0.00236387
0.00142423
0.0013301
0.00117291
0.00137907
0.001413
0.001649
0.00189261
0.00203882
0.00222175
0.00246309
0.00266533
0.00270774
0.00254329
0.00217861
0.00169351
0.00129591
0.00104109
0.000835491
0.000665349
0.000546204
0.000471117
0.000426382
0.000401394
0.000389047
0.000384099
0.000382227
0.00038007
0.000375717
0.000368896
0.000360513
0.000351846
0.000343926
0.000337314
0.00033217
0.000328402
0.000325811
0.000324175
0.000323311
0.000323088
0.000323432
0.000324318
0.000325758
0.000327807
0.000330552
0.000334131
0.000338737
0.000344638
0.00035224
0.000362034
0.000375033
0.000391804
0.000416546
0.000445363
0.00050617
0.000563893
0.0109625
0.00943769
0.00861539
0.00631047
0.00306906
0.00166384
0.00150865
0.00125073
0.00135485
0.00148116
0.00174955
0.00200451
0.00217396
0.00240227
0.00268218
0.00289303
0.00291127
0.00270965
0.00230789
0.00177725
0.00131971
0.00106016
0.00086692
0.000697641
0.000570016
0.000485321
0.000432707
0.000401781
0.000385348
0.000378191
0.000375878
0.000374594
0.000371725
0.000366351
0.000359028
0.000350986
0.000343367
0.000336867
0.000331742
0.000327958
0.000325343
0.000323685
0.000322801
0.000322558
0.000322881
0.000323744
0.000325161
0.000327185
0.000329908
0.000333465
0.000338055
0.000343948
0.000351557
0.000361385
0.000374475
0.000391413
0.000416489
0.000445799
0.000507496
0.000565502
0.0109282
0.00903104
0.0083447
0.00675579
0.00379604
0.00198696
0.00171447
0.00139248
0.00139811
0.00157205
0.00185763
0.00212703
0.0023304
0.00261219
0.00293173
0.00314396
0.00312678
0.00287932
0.00243857
0.0018701
0.0013556
0.00107331
0.000885624
0.000722395
0.000591231
0.00049935
0.000439987
0.000403601
0.000383057
0.000373285
0.000369968
0.000369091
0.000367473
0.000363526
0.000357351
0.000350045
0.00034282
0.000336501
0.000331445
0.000327682
0.000325071
0.000323414
0.00032253
0.000322284
0.000322602
0.000323455
0.000324861
0.000326874
0.000329584
0.000333129
0.000337708
0.000343596
0.000351208
0.000361055
0.000374193
0.000391228
0.000416492
0.0004461
0.000508128
0.000566059
0.0108978
0.00869567
0.00804116
0.00703262
0.00447533
0.00242295
0.00193615
0.00157318
0.00148789
0.00167896
0.0019743
0.00226269
0.00251052
0.00285328
0.0032126
0.00341783
0.00335278
0.00304988
0.00256661
0.00196562
0.00140486
0.00108851
0.000895192
0.00073866
0.000608221
0.000511938
0.000447273
0.000406207
0.000381852
0.000369335
0.000364611
0.0003637
0.000363046
0.000360439
0.000355455
0.000348968
0.000342213
0.000336128
0.000331178
0.000327461
0.000324873
0.000323231
0.000322358
0.000322122
0.000322443
0.000323298
0.000324702
0.00032671
0.000329415
0.000332956
0.000337533
0.000343421
0.000351038
0.0003609
0.00037407
0.000391165
0.000416532
0.000446314
0.000508318
0.000565926
0.0108709
0.00842028
0.00772672
0.00716038
0.00507888
0.0029561
0.00217211
0.00177994
0.00161041
0.00179824
0.00210067
0.00241357
0.0027162
0.00312711
0.00352591
0.00371469
0.00358837
0.00321996
0.00268954
0.00205855
0.00146418
0.0011107
0.000900723
0.000747334
0.000620131
0.000522145
0.000453789
0.000408995
0.00038135
0.000366202
0.000359844
0.000358527
0.000358533
0.00035713
0.000353342
0.000347737
0.000341515
0.000335711
0.000330897
0.000327245
0.000324692
0.000323075
0.000322222
0.000322001
0.000322334
0.000323195
0.000324602
0.000326612
0.000329318
0.000332861
0.000337441
0.000343333
0.00035096
0.000360838
0.000374032
0.000391171
0.000416595
0.000446475
0.000508243
0.000565374
0.0108474
0.00819489
0.00741719
0.00716361
0.00558398
0.00356142
0.00243252
0.00200406
0.00175706
0.00192818
0.00223771
0.00258133
0.00294882
0.00343502
0.00387276
0.00403452
0.0038328
0.00338878
0.00280621
0.00214557
0.00152888
0.00114091
0.000906782
0.000750677
0.000626988
0.000529426
0.000458978
0.000411468
0.000381175
0.000363688
0.000355643
0.000353645
0.000354016
0.000353648
0.000351025
0.000346345
0.000340712
0.000335232
0.000330582
0.000327012
0.000324504
0.000322919
0.000322092
0.000321891
0.00032224
0.000323111
0.000324526
0.00032654
0.000329251
0.000332799
0.000337385
0.000343286
0.000350925
0.00036082
0.000374039
0.000391213
0.000416671
0.000446604
0.000508022
0.000564584
0.0108268
0.00801096
0.0071233
0.00706849
0.0059759
0.0041908
0.00274573
0.00223931
0.00192276
0.00206822
0.00238622
0.00276711
0.00320927
0.00377803
0.00425386
0.00437676
0.00408505
0.00355575
0.00291619
0.00222512
0.0015948
0.00117751
0.000916162
0.00075144
0.000629605
0.00053366
0.000462511
0.000413267
0.000381004
0.000361578
0.000351935
0.00034909
0.000349567
0.000350046
0.000348527
0.000344796
0.0003398
0.000334684
0.000330224
0.000326751
0.000324299
0.000322751
0.000321954
0.000321779
0.000322146
0.000323032
0.000324455
0.000326477
0.000329195
0.000332749
0.000337344
0.000343256
0.000350909
0.000360823
0.000374066
0.000391271
0.000416751
0.000446713
0.000507723
0.000563673
0.0108088
0.00786125
0.00685171
0.00690052
0.00624878
0.0047952
0.00314147
0.00248141
0.00210475
0.00221841
0.00254673
0.00297148
0.00349789
0.00415659
0.0046692
0.00474007
0.00434366
0.0037202
0.0030194
0.00229671
0.00165906
0.00121767
0.000929716
0.000752018
0.000629291
0.00053512
0.000464281
0.000414173
0.00038059
0.000359672
0.000348624
0.000344864
0.000345239
0.000346375
0.000345875
0.000343097
0.000338778
0.000334064
0.000329819
0.00032646
0.000324072
0.000322567
0.000321804
0.000321657
0.000322047
0.000322948
0.000324384
0.000326415
0.000329141
0.000332704
0.000337308
0.000343232
0.0003509
0.000360833
0.000374101
0.000391336
0.000416832
0.000446806
0.000507386
0.000562711
0.0107932
0.0077397
0.00660599
0.00668295
0.00640501
0.00533941
0.00360884
0.00272943
0.00230152
0.00237906
0.00271945
0.00319441
0.00381432
0.00457034
0.00511773
0.00512217
0.00460667
0.00388127
0.00311583
0.00236043
0.00172011
0.00125853
0.000946859
0.00075396
0.000627468
0.000534373
0.000464385
0.0004141
0.000379768
0.0003578
0.000345601
0.000340948
0.00034107
0.000342681
0.000343098
0.00034126
0.000337647
0.00033337
0.000329367
0.000326137
0.000323821
0.000322365
0.000321641
0.000321525
0.000321939
0.00032286
0.000324309
0.000326351
0.000329085
0.000332657
0.000337272
0.000343209
0.000350892
0.000360845
0.000374137
0.000391402
0.000416909
0.000446887
0.000507035
0.00056174
0.0107796
0.00764128
0.00638747
0.00643579
0.0064536
0.00579705
0.00412603
0.00299116
0.0025119
0.00255049
0.00290418
0.00343521
0.00415738
0.00501789
0.00559716
0.00551981
0.00487163
0.00403789
0.00320539
0.00241772
0.00177604
0.00129772
0.000966256
0.000757896
0.000625344
0.000532131
0.000463069
0.000413069
0.000378454
0.000355838
0.000342764
0.000337303
0.000337078
0.000339006
0.000340226
0.000339297
0.000336412
0.000332603
0.000328866
0.00032578
0.000323547
0.000322145
0.000321462
0.000321381
0.000321823
0.000322764
0.000324229
0.000326282
0.000329027
0.000332609
0.000337234
0.000343184
0.000350884
0.000360856
0.000374171
0.000391465
0.00041698
0.000446956
0.000506679
0.000560782
0.0107678
0.00756182
0.00619589
0.00617551
0.00640831
0.00615097
0.00466518
0.00328081
0.00273437
0.00273286
0.0031003
0.00369245
0.00452498
0.00549658
0.0061038
0.00592872
0.00513572
0.00418885
0.0032879
0.00247068
0.00182512
0.00133356
0.000986374
0.00076372
0.000623733
0.000529103
0.000460676
0.000411191
0.000376632
0.000353702
0.000340025
0.000333885
0.000333272
0.000335381
0.000337288
0.000337224
0.000335075
0.000331763
0.000328316
0.00032539
0.000323249
0.000321907
0.00032127
0.000321225
0.000321697
0.000322661
0.000324144
0.00032621
0.000328966
0.000332558
0.000337195
0.000343157
0.000350873
0.000360865
0.000374203
0.000391524
0.000417046
0.000447015
0.000506327
0.000559849
0.0107576
0.00749788
0.00602998
0.00591491
0.0062858
0.00639276
0.00519847
0.00360571
0.002968
0.00292591
0.00330665
0.00396392
0.00491396
0.00600234
0.00663236
0.0063436
0.0053958
0.00433285
0.00336313
0.00252004
0.00186727
0.00136498
0.00100582
0.000770882
0.000623025
0.000525873
0.000457577
0.000408628
0.000374335
0.00035135
0.000337316
0.000330644
0.000329646
0.000331831
0.000334312
0.000335057
0.000333645
0.000330852
0.000327717
0.000324967
0.000322928
0.000321651
0.000321062
0.000321057
0.000321562
0.000322552
0.000324053
0.000326134
0.000328901
0.000332504
0.000337152
0.000343128
0.000350859
0.00036087
0.000374231
0.000391578
0.000417105
0.000447064
0.00050598
0.000558949
0.0107487
0.00744665
0.00588784
0.00566345
0.00610388
0.00652183
0.00569464
0.00396874
0.00321312
0.00312931
0.00352142
0.00424659
0.00532003
0.0065295
0.0071758
0.00675818
0.00564852
0.00446846
0.00343081
0.00256651
0.00190258
0.00139139
0.00102349
0.000778646
0.000623258
0.000522844
0.000454113
0.000405568
0.000371636
0.000348777
0.000334588
0.000327538
0.000326189
0.000328374
0.000331323
0.000332812
0.000332128
0.000329871
0.000327069
0.000324511
0.000322583
0.000321378
0.000320841
0.000320879
0.000321418
0.000322435
0.000323956
0.000326053
0.000328833
0.000332448
0.000337108
0.000343097
0.000350844
0.000360873
0.000374255
0.000391627
0.000417158
0.000447104
0.000505642
0.000558084
0.010741
0.0074058
0.00576724
0.00542764
0.00588008
0.00654419
0.00612503
0.00437147
0.00346714
0.00334387
0.00374151
0.00453652
0.0057377
0.00707066
0.00772527
0.0071652
0.00589041
0.00459424
0.00349049
0.00261082
0.00193118
0.00141254
0.00103859
0.000786272
0.000624237
0.000520232
0.000450562
0.000402198
0.000368626
0.000346
0.000331814
0.000324528
0.000322885
0.000325021
0.000328341
0.000330508
0.000330532
0.000328823
0.000326374
0.000324023
0.000322215
0.000321087
0.000320606
0.000320689
0.000321264
0.000322311
0.000323855
0.000325968
0.000328762
0.000332389
0.000337061
0.000343063
0.000350825
0.000360873
0.000374276
0.000391672
0.000417206
0.000447137
0.000505313
0.000557256
0.0107344
0.00737344
0.00566585
0.00521154
0.00563055
0.00647111
0.00646696
0.00480721
0.00372986
0.00357008
0.00396401
0.00482862
0.00616012
0.00761656
0.00826991
0.00755649
0.00611801
0.00470881
0.00354703
0.0026487
0.00195306
0.00142836
0.00105062
0.000793119
0.000625642
0.000518092
0.000447118
0.000398686
0.000365404
0.000343056
0.000328983
0.000321586
0.000319715
0.000321776
0.000325386
0.000328159
0.000328866
0.000327713
0.000325633
0.000323502
0.000321825
0.000320779
0.000320358
0.000320488
0.000321103
0.00032218
0.000323748
0.000325879
0.000328687
0.000332327
0.000337011
0.000343027
0.000350805
0.000360871
0.000374294
0.000391712
0.000417247
0.000447162
0.000504993
0.000556464
0.0107286
0.00734799
0.00558134
0.00501722
0.00536931
0.00631743
0.00670533
0.00526113
0.00400339
0.00380505
0.00419276
0.0051145
0.00657867
0.00815563
0.00879658
0.0079231
0.00632786
0.00481117
0.0036024
0.00267855
0.00196831
0.00143894
0.0010593
0.000798693
0.00062712
0.000516366
0.000443893
0.000395163
0.000362063
0.000339989
0.000326098
0.000318691
0.000316663
0.000318641
0.000322473
0.000325783
0.00032714
0.000326543
0.000324846
0.000322949
0.000321412
0.000320455
0.000320098
0.000320277
0.000320933
0.000322042
0.000323635
0.000325786
0.00032861
0.000332263
0.00033696
0.000342989
0.000350782
0.000360866
0.000374308
0.000391748
0.000417282
0.00044718
0.000504684
0.000555709
0.0107236
0.00732818
0.00551152
0.00484531
0.00510788
0.00610008
0.00683319
0.00571178
0.00429109
0.00404549
0.00442892
0.00539362
0.00698124
0.00867287
0.00928918
0.00825556
0.00651622
0.00490379
0.00365475
0.0027001
0.00197701
0.00144444
0.00106455
0.000802646
0.000628342
0.000514929
0.00044093
0.000391725
0.000358688
0.000336849
0.000323172
0.000315832
0.000313713
0.000315614
0.000319613
0.000323392
0.000325363
0.000325318
0.000324015
0.000322366
0.000320978
0.000320115
0.000319825
0.000320056
0.000320754
0.000321898
0.000323518
0.000325689
0.000328529
0.000332196
0.000336906
0.000342949
0.000350756
0.000360858
0.000374319
0.000391779
0.000417313
0.000447193
0.000504385
0.00055499
0.0107193
0.00731296
0.00545436
0.00469536
0.00485513
0.00583653
0.00685133
0.00613375
0.00459588
0.00428833
0.00467036
0.00567424
0.00735864
0.00914685
0.009727
0.00854433
0.00667849
0.00499669
0.00369607
0.00271303
0.00197928
0.00144507
0.00106639
0.000804768
0.000629034
0.000513628
0.000438219
0.000388432
0.000355345
0.000333685
0.000320224
0.000313002
0.000310851
0.000312692
0.000316815
0.000321002
0.000323546
0.000324044
0.000323143
0.000321752
0.000320522
0.00031976
0.00031954
0.000319826
0.000320568
0.000321748
0.000323396
0.000325589
0.000328445
0.000332126
0.00033685
0.000342906
0.000350729
0.000360847
0.000374327
0.000391807
0.00041734
0.0004472
0.000504096
0.000554306
0.0107155
0.00730146
0.00540802
0.00456619
0.00461748
0.00554361
0.00676724
0.00650104
0.00491846
0.00453137
0.00491409
0.00595335
0.00771638
0.00956193
0.0100811
0.00878702
0.0068292
0.00507488
0.00372479
0.00271714
0.00197524
0.00144106
0.00106493
0.000804962
0.000628993
0.000512309
0.000435717
0.000385315
0.000352085
0.000330539
0.000317277
0.000310202
0.00030807
0.00030987
0.000314086
0.000318622
0.000321697
0.000322724
0.000322231
0.000321109
0.000320046
0.00031939
0.000319244
0.000319587
0.000320375
0.000321592
0.000323269
0.000325484
0.000328359
0.000332055
0.000336792
0.000342862
0.000350699
0.000360834
0.000374332
0.00039183
0.000417362
0.000447203
0.000503818
0.000553658
0.0107122
0.00729296
0.00537086
0.00445621
0.00439908
0.00523648
0.00659368
0.00679036
0.00525584
0.00477354
0.00515644
0.00622742
0.008048
0.00991366
0.0103589
0.0089849
0.00695174
0.0051328
0.0037402
0.00271235
0.00196507
0.00143267
0.00106036
0.000803219
0.000628083
0.000510838
0.000433364
0.000382377
0.000348944
0.000327447
0.000314354
0.000307437
0.00030536
0.000307142
0.000311429
0.000316265
0.000319826
0.000321366
0.000321282
0.000320438
0.00031955
0.000319006
0.000318937
0.000319339
0.000320174
0.00032143
0.000323137
0.000325377
0.00032827
0.000331981
0.000336732
0.000342816
0.000350667
0.000360818
0.000374333
0.00039185
0.000417379
0.000447201
0.000503551
0.000553043
0.0107093
0.00728688
0.00534146
0.00436356
0.00420225
0.00492807
0.00634697
0.00698395
0.00560052
0.00501487
0.00539339
0.00649235
0.0083481
0.0102001
0.0105675
0.00913305
0.00703976
0.00516866
0.00374186
0.00269867
0.00194896
0.00142015
0.00105287
0.000799599
0.000626229
0.000509108
0.000431095
0.000379611
0.000345944
0.000324441
0.000311477
0.000304715
0.000302719
0.000304504
0.000308848
0.000313937
0.000317943
0.000319975
0.0003203
0.00031974
0.000319035
0.000318608
0.00031862
0.000319082
0.000319967
0.000321262
0.000323002
0.000325266
0.000328178
0.000331905
0.00033667
0.000342768
0.000350633
0.0003608
0.000374332
0.000391865
0.000417393
0.000447195
0.000503295
0.000552463
0.0107068
0.00728274
0.00531856
0.00428633
0.00402781
0.00462873
0.00604521
0.00707135
0.00594034
0.00525606
0.00562111
0.0067435
0.00861227
0.0104212
0.0107104
0.00922814
0.00709058
0.00518162
0.00372963
0.00267623
0.00192716
0.0014038
0.00104271
0.000794207
0.000623413
0.000507042
0.00042885
0.000376995
0.000343093
0.000321542
0.000308667
0.000302045
0.000300144
0.000301951
0.000306343
0.000311648
0.000316055
0.000318556
0.000319286
0.000319016
0.000318501
0.000318197
0.000318293
0.000318819
0.000319754
0.00032109
0.000322862
0.000325151
0.000328084
0.000331827
0.000336606
0.000342718
0.000350598
0.00036078
0.000374328
0.000391877
0.000417402
0.000447185
0.00050305
0.000551916
0.0107046
0.00728013
0.00530107
0.00422262
0.00387547
0.00434616
0.00570677
0.00705011
0.00625922
0.0054977
0.00583642
0.00697587
0.00883689
0.0105785
0.0107891
0.00926839
0.00710321
0.00517147
0.00370356
0.00264526
0.00189997
0.00138391
0.00103012
0.000787183
0.000619655
0.000504596
0.00042658
0.000374507
0.000340397
0.000318766
0.000305941
0.000299438
0.000297637
0.00029948
0.000303915
0.000309402
0.000314171
0.000317116
0.000318245
0.000318269
0.000317949
0.000317774
0.000317957
0.000318548
0.000319535
0.000320913
0.000322718
0.000325034
0.000327987
0.000331747
0.000336541
0.000342666
0.00035056
0.000360757
0.00037432
0.000391885
0.000417408
0.000447173
0.000502815
0.000551403
0.0107027
0.00727874
0.00528807
0.00417066
0.00374417
0.00408557
0.00534891
0.00692539
0.00653862
0.00573941
0.00603717
0.00718452
0.00901892
0.0106734
0.0108046
0.00925346
0.0070778
0.00513852
0.00366398
0.00260609
0.00186771
0.00136078
0.00101535
0.000778686
0.000615009
0.000501752
0.000424246
0.000372124
0.000337851
0.000316126
0.000303314
0.000296903
0.000295198
0.000297088
0.000301565
0.000307205
0.000312297
0.00031566
0.00031718
0.0003175
0.000317381
0.000317339
0.000317613
0.000318271
0.000319311
0.000320731
0.000322571
0.000324914
0.000327888
0.000331665
0.000336474
0.000342613
0.000350521
0.000360733
0.00037431
0.00039189
0.00041741
0.000447157
0.000502592
0.000550922
0.010701
0.00727829
0.00527874
0.00412879
0.00363236
0.00385002
0.00498684
0.00670882
0.00675959
0.00597893
0.00622242
0.00736498
0.00915573
0.0107077
0.0107579
0.00918425
0.00701553
0.00508359
0.00361141
0.00255915
0.00183076
0.00133474
0.000998665
0.000768892
0.000609554
0.000498515
0.000421826
0.000369826
0.000335451
0.000313628
0.000300798
0.00029445
0.000292832
0.000294774
0.00029929
0.00030506
0.00031044
0.000314194
0.000316094
0.000316711
0.000316798
0.000316893
0.000317261
0.000317988
0.000319082
0.000320546
0.000322421
0.000324791
0.000327787
0.000331582
0.000336406
0.000342558
0.00035048
0.000360706
0.000374298
0.000391891
0.000417409
0.000447139
0.00050238
0.000550473
0.0106995
0.00727856
0.00527241
0.00409551
0.00353821
0.00364075
0.00463313
0.00641667
0.00690517
0.00621151
0.00639225
0.00751389
0.00924517
0.0106829
0.0106504
0.00906291
0.0069185
0.00500801
0.00354658
0.00250496
0.00178952
0.0013061
0.00098032
0.00075798
0.000603383
0.00049491
0.00041931
0.000367598
0.000333191
0.000311275
0.000298403
0.000292087
0.00029054
0.000292535
0.00029709
0.000302971
0.000308606
0.000312724
0.00031499
0.000315903
0.0003162
0.000316436
0.000316902
0.0003177
0.000318848
0.000320357
0.000322267
0.000324666
0.000327684
0.000331497
0.000336336
0.000342502
0.000350437
0.000360677
0.000374283
0.00039189
0.000417404
0.000447119
0.000502179
0.000550056
0.0106982
0.00727938
0.00526851
0.00406948
0.00345978
0.00345765
0.00429741
0.00606794
0.00696262
0.00642952
0.00654732
0.00762939
0.00928582
0.0106005
0.0104842
0.00889279
0.00678973
0.00491348
0.00347041
0.00244411
0.00174443
0.00127521
0.000960574
0.000746133
0.000596601
0.000490976
0.000416698
0.000365429
0.000331064
0.00030907
0.000296136
0.000289823
0.000288328
0.000290372
0.000294965
0.00030094
0.0003068
0.000311253
0.000313873
0.00031508
0.000315588
0.00031597
0.000316536
0.000317406
0.000318611
0.000320165
0.000322111
0.000324539
0.00032758
0.000331411
0.000336265
0.000342445
0.000350393
0.000360646
0.000374265
0.000391884
0.000417396
0.000447096
0.000501989
0.00054967
0.010697
0.0072806
0.00526653
0.00404955
0.00339516
0.00329958
0.00398646
0.00568238
0.00692515
0.00662257
0.00668829
0.00771142
0.00927745
0.0104623
0.0102624
0.0086786
0.00663306
0.00480204
0.0033839
0.00237722
0.00169595
0.00124241
0.00093968
0.000733532
0.000589319
0.000486763
0.000414003
0.000363316
0.000329067
0.000307013
0.000294001
0.000287663
0.000286198
0.000288285
0.000292912
0.000298968
0.000305026
0.000309788
0.000312746
0.000314242
0.000314965
0.000315495
0.000316164
0.000317109
0.000318371
0.00031997
0.000321953
0.00032441
0.000327474
0.000331323
0.000336193
0.000342386
0.000350347
0.000360613
0.000374245
0.000391876
0.000417386
0.000447073
0.000501811
0.000549316
0.010696
0.00728212
0.00526607
0.00403466
0.00334252
0.00316479
0.00370441
0.00527884
0.00679284
0.00677813
0.0068151
0.00776166
0.00922149
0.010271
0.00998971
0.00842641
0.00645305
0.00467596
0.00328814
0.00230498
0.00164455
0.00120803
0.000917889
0.000720355
0.00058165
0.000482331
0.000411244
0.00036126
0.000327195
0.000305102
0.000292001
0.000285612
0.000284154
0.000286273
0.000290932
0.000297057
0.000303288
0.000308333
0.000311613
0.000313393
0.000314331
0.000315012
0.000315786
0.000316807
0.000318127
0.000319773
0.000321793
0.000324279
0.000327367
0.000331235
0.00033612
0.000342327
0.0003503
0.000360579
0.000374222
0.000391865
0.000417372
0.000447047
0.000501644
0.000548992
0.0106952
0.00728384
0.00526678
0.00402395
0.00330016
0.00305111
0.0034532
0.00487401
0.00657254
0.00688271
0.00692631
0.00778319
0.0091214
0.0100311
0.00967261
0.00814374
0.00625476
0.00453754
0.00318423
0.00222807
0.00159071
0.00117242
0.000895448
0.000706776
0.000573708
0.00047774
0.000408447
0.000359267
0.000325447
0.000303337
0.000290139
0.000283675
0.000282199
0.000284338
0.000289024
0.000295207
0.000301589
0.000306892
0.000310477
0.000312535
0.000313687
0.000314522
0.000315404
0.000316503
0.000317882
0.000319574
0.000321631
0.000324147
0.000327258
0.000331145
0.000336046
0.000342266
0.000350252
0.000360543
0.000374198
0.000391851
0.000417357
0.000447021
0.000501488
0.0005487
0.0106944
0.00728569
0.00526839
0.00401664
0.00326654
0.00295626
0.00323298
0.00448161
0.00627684
0.00692346
0.00701859
0.00777981
0.00898269
0.00974915
0.00931985
0.00783933
0.00604344
0.00438899
0.00307324
0.00214717
0.00153491
0.00113592
0.000872596
0.000692962
0.000565603
0.000473057
0.000405642
0.000357344
0.000323823
0.000301717
0.000288414
0.000281852
0.000280334
0.000282478
0.000287186
0.000293418
0.000299932
0.00030547
0.000309342
0.000311669
0.000313036
0.000314026
0.000315018
0.000316196
0.000317634
0.000319373
0.000321468
0.000324014
0.000327149
0.000331055
0.000335971
0.000342205
0.000350203
0.000360505
0.000374171
0.000391834
0.000417339
0.000446994
0.000501344
0.000548438
0.0106937
0.00728761
0.00527066
0.00401207
0.00324029
0.00287791
0.00304262
0.004112
0.0059225
0.00689
0.00708641
0.00775531
0.00881264
0.00943397
0.00894241
0.00752281
0.00582419
0.00423227
0.00295615