/*--------------------------------*- C++ -*----------------------------------*\
| =========                 |                                                 |
| \\      /  F ield         | OpenFOAM: The Open Source CFD Toolbox           |
|  \\    /   O peration     | Version:  2.4.0                                 |
|   \\  /    A nd           | Web:      www.OpenFOAM.org                      |
|    \\/     M anipulation  |                                                 |
\*---------------------------------------------------------------------------*/
FoamFile
{
    version     2.0;
    format      ascii;
    class       volScalarField;
    location    "6.88";
    object      nut;
}
// * * * * * * * * * * * * * * * * * * * * * * * * * * * * * * * * * * * * * //

dimensions      [0 2 -1 0 0 0 0];

internalField   nonuniform List<scalar> 
6000
(
1.24054e-05
1.01563e-05
5.68927e-06
3.0797e-06
1.71901e-06
2.90495e-06
2.67468e-06
3.52993e-06
3.85308e-06
4.51958e-06
5.0178e-06
5.64813e-06
6.23745e-06
6.89461e-06
7.54965e-06
8.23035e-06
8.90632e-06
9.58265e-06
1.02476e-05
1.09015e-05
1.15429e-05
1.21964e-05
1.28478e-05
1.34755e-05
1.40775e-05
1.46518e-05
1.51961e-05
1.57084e-05
1.61869e-05
1.66296e-05
1.70365e-05
1.74042e-05
1.77297e-05
1.80117e-05
1.82482e-05
1.84376e-05
1.85781e-05
1.86687e-05
1.87076e-05
1.86946e-05
1.86275e-05
1.85083e-05
1.83326e-05
1.81062e-05
1.78233e-05
1.74865e-05
1.73402e-05
1.7225e-05
1.70304e-05
1.68577e-05
1.65641e-05
1.63574e-05
1.59484e-05
1.57526e-05
1.51976e-05
1.5091e-05
1.43351e-05
1.44601e-05
1.34437e-05
1.42883e-05
2.33582e-05
3.47746e-05
1.72159e-05
7.91299e-06
4.17931e-06
6.73783e-06
1.22786e-05
1.45665e-05
1.89101e-05
2.31029e-05
2.73919e-05
3.2366e-05
3.71657e-05
4.27578e-05
4.84635e-05
5.47382e-05
6.11444e-05
6.78043e-05
7.45095e-05
8.12699e-05
8.79203e-05
9.42452e-05
0.000100306
0.000106273
0.000112151
0.000117931
0.000123601
0.000129152
0.000134576
0.000139859
0.000144935
0.000149621
0.000154105
0.000158376
0.00016242
0.000166219
0.000169757
0.000173016
0.000175975
0.000178623
0.000180927
0.000182889
0.000184459
0.00018565
0.000186383
0.000186533
0.000182627
0.000177378
0.000171615
0.000165091
0.000158118
0.00015048
0.000142377
0.000133863
0.00012471
0.000115682
0.00010497
9.63529e-05
8.4334e-05
7.9266e-05
2.89001e-05
5.03105e-05
2.44396e-05
9.92127e-06
9.61049e-06
1.58722e-05
2.67033e-05
3.32281e-05
4.21321e-05
5.18547e-05
6.11634e-05
7.21227e-05
8.26666e-05
9.48419e-05
0.000107336
0.000120963
0.000134907
0.000149338
0.000163863
0.000178454
0.000192814
0.000206687
0.000220154
0.000233411
0.000246447
0.000259235
0.000271739
0.000283932
0.000295783
0.000307239
0.000318164
0.000328351
0.000338048
0.000347228
0.000355856
0.000363894
0.000371299
0.000378035
0.000384054
0.000389327
0.000393789
0.000397435
0.000400166
0.000401983
0.000402679
0.00040187
0.000395093
0.00038608
0.000375721
0.000364051
0.000350977
0.000336978
0.000321207
0.00030541
0.000286883
0.000270192
0.000248231
0.000232338
0.000206313
0.000201401
3.21952e-05
5.72149e-05
2.78259e-05
1.07315e-05
1.58256e-05
2.63667e-05
4.11418e-05
5.25692e-05
6.59321e-05
8.11115e-05
9.5564e-05
0.000112266
0.000128579
0.000147058
0.000166169
0.000186811
0.000207995
0.000229836
0.000251831
0.00027389
0.000295648
0.000316866
0.000337596
0.000357989
0.000378013
0.000397615
0.000416735
0.000435326
0.000453334
0.000470677
0.000487168
0.000502639
0.000517319
0.000531169
0.00054413
0.000556147
0.000567154
0.000577098
0.000585905
0.000593531
0.000599884
0.000604946
0.000608579
0.00061075
0.00061109
0.000609158
0.000600707
0.00058944
0.000576049
0.000560926
0.000543509
0.000524986
0.000503501
0.000482325
0.000456615
0.000434117
0.000403518
0.00038201
0.000347016
0.000342608
3.39567e-05
5.94456e-05
3.42364e-05
1.14275e-05
2.11289e-05
3.58632e-05
5.40056e-05
7.01945e-05
8.79358e-05
0.000108146
0.000127602
0.000149613
0.000171426
0.00019574
0.000221029
0.000248148
0.000276035
0.000304716
0.000333614
0.000362574
0.000391197
0.000419256
0.000446756
0.000473792
0.000500306
0.00052622
0.000551453
0.000575934
0.000599593
0.00062233
0.000643912
0.000664232
0.000683477
0.000701593
0.000718507
0.000734144
0.000748424
0.000761276
0.000772608
0.000782363
0.000790427
0.000796765
0.000801211
0.000803677
0.000803652
0.000800835
0.000791452
0.000778822
0.00076344
0.000745939
0.000725459
0.000703612
0.00067798
0.00065265
0.000621698
0.000594472
0.00055771
0.000531289
0.000490628
0.000485894
3.49043e-05
5.90449e-05
4.16008e-05
1.18168e-05
2.41024e-05
4.35441e-05
6.4796e-05
8.55275e-05
0.000107532
0.000132374
0.000156611
0.000183539
0.000210529
0.000240239
0.000271252
0.000304325
0.000338376
0.000373332
0.000408567
0.000443861
0.000478797
0.000513146
0.000546867
0.000579997
0.000612451
0.000644128
0.000674924
0.000704751
0.000733523
0.000761139
0.000787306
0.000811999
0.000835352
0.000857302
0.00087776
0.00089664
0.000913849
0.000929301
0.000942896
0.000954558
0.000964165
0.00097166
0.000976856
0.000979598
0.000979303
0.000975883
0.000966046
0.000952625
0.000935973
0.000916831
0.000894228
0.000869915
0.000841327
0.000812746
0.000778066
0.00074691
0.000705919
0.000675068
0.000630958
0.000624873
3.5415e-05
5.72032e-05
4.71242e-05
1.4408e-05
2.35118e-05
4.90718e-05
7.33308e-05
9.84595e-05
0.000124589
0.00015374
0.000182514
0.000214021
0.000245873
0.000280589
0.0003169
0.000355449
0.000395165
0.000435873
0.000476914
0.00051801
0.000558732
0.00059884
0.000638246
0.000676935
0.000714794
0.0007517
0.000787529
0.000822177
0.000855547
0.000887545
0.000917811
0.000946413
0.00097343
0.000998789
0.00102239
0.00104415
0.00106395
0.0010817
0.0010973
0.00111066
0.00112164
0.00113017
0.00113605
0.00113905
0.00113863
0.00113484
0.00112486
0.00111104
0.00109363
0.00107338
0.00104935
0.00102323
0.000992596
0.000961482
0.000924238
0.000889829
0.000846082
0.000811266
0.000765311
0.000756962
3.56743e-05
5.46511e-05
5.08104e-05
2.14644e-05
2.06137e-05
5.21779e-05
7.95218e-05
0.000108993
0.000139111
0.000172315
0.000205389
0.000241188
0.000277609
0.000316984
0.000358208
0.000401804
0.000446729
0.000492715
0.000539078
0.00058549
0.00063151
0.000676881
0.000721472
0.000765221
0.000807988
0.000849629
0.000890001
0.000928985
0.000966476
0.00100238
0.00103631
0.00106839
0.00109865
0.00112703
0.00115341
0.00117769
0.00119977
0.00121954
0.0012369
0.00125174
0.00126394
0.00127339
0.00127988
0.00128312
0.00128271
0.00127873
0.00126882
0.00125484
0.00123704
0.00121609
0.00119117
0.00116375
0.00113177
0.00109872
0.00105981
0.00102275
0.000977359
0.000939063
0.000892419
0.000881135
3.57842e-05
5.18375e-05
5.29269e-05
2.99147e-05
1.86427e-05
5.2561e-05
8.33102e-05
0.000117146
0.000151132
0.000188192
0.000225348
0.000265193
0.000305916
0.000349645
0.000395434
0.000443695
0.000493417
0.000544253
0.000595501
0.000646788
0.00069766
0.000747842
0.000797163
0.000845517
0.00089274
0.000938665
0.000983135
0.00102602
0.0010672
0.00110658
0.00114378
0.00117894
0.00121208
0.00124311
0.00127192
0.00129842
0.00132249
0.00134402
0.0013629
0.00137904
0.00139229
0.00140254
0.00140957
0.00141304
0.00141275
0.00140871
0.00139898
0.00138504
0.00136711
0.00134576
0.00132033
0.00129203
0.00125924
0.00122476
0.00118487
0.0011457
0.00109952
0.00105824
0.00101174
0.000997088
3.58064e-05
4.90328e-05
5.37471e-05
3.79914e-05
1.93068e-05
4.99336e-05
8.46577e-05
0.000122923
0.000160685
0.000201452
0.000242497
0.000286176
0.00033096
0.000378772
0.000428815
0.000481399
0.00053555
0.000590852
0.000646592
0.000702354
0.000757676
0.000812262
0.000865902
0.000918451
0.000969722
0.00101953
0.0010677
0.00111409
0.00115857
0.00120106
0.00124117
0.00127906
0.00131473
0.00134809
0.00137904
0.00140746
0.00143325
0.00145631
0.00147651
0.00149376
0.00150791
0.00151885
0.00152634
0.00153004
0.00152994
0.00152592
0.00151646
0.00150268
0.0014848
0.00146326
0.00143763
0.00140878
0.00137558
0.0013401
0.00129976
0.00125899
0.00121266
0.00116889
0.00112311
0.00110487
3.57786e-05
4.63917e-05
5.35447e-05
4.46906e-05
2.32171e-05
4.45029e-05
8.35694e-05
0.00012632
0.00016779
0.00021216
0.000256923
0.000304253
0.000352882
0.000404538
0.000458558
0.000515159
0.000573409
0.000632835
0.000692712
0.000752593
0.000812003
0.000870624
0.000928215
0.000984593
0.00103955
0.00109288
0.0011444
0.00119394
0.00124139
0.00128664
0.00132935
0.00136966
0.00140756
0.00144297
0.00147578
0.00150588
0.00153316
0.00155752
0.00157885
0.00159704
0.00161196
0.00162348
0.00163134
0.0016353
0.0016354
0.00163146
0.0016223
0.00160874
0.00159104
0.0015695
0.00154388
0.00151474
0.00148146
0.00144533
0.00140497
0.00136303
0.00131703
0.00127125
0.00122662
0.00120472
3.57236e-05
4.39933e-05
5.25786e-05
4.98085e-05
2.98203e-05
3.80375e-05
8.01503e-05
0.000127335
0.00017246
0.000220359
0.000268694
0.000319518
0.000371798
0.000427085
0.000484834
0.00054518
0.000607237
0.000670478
0.000734177
0.000797856
0.00086103
0.000923359
0.000984571
0.00104445
0.00110277
0.00115931
0.00121386
0.00126626
0.00131637
0.00136409
0.00140911
0.00145156
0.00149144
0.00152864
0.00156307
0.00159463
0.00162319
0.00164867
0.00167095
0.00168994
0.00170549
0.00171748
0.00172565
0.00172987
0.00173017
0.00172634
0.00171749
0.0017042
0.00168675
0.00166532
0.00163988
0.00161066
0.00157754
0.00154106
0.00150099
0.00145828
0.00141299
0.00136566
0.00132246
0.00129694
3.5655e-05
4.18695e-05
5.10795e-05
5.33624e-05
3.69846e-05
3.28833e-05
7.4691e-05
0.000125991
0.000174709
0.000226083
0.000277865
0.000332046
0.000387804
0.000446531
0.000507788
0.000571638
0.000637237
0.00070402
0.000771259
0.00083845
0.000905099
0.000970843
0.00103538
0.00109848
0.00115988
0.00121935
0.00127665
0.00133163
0.00138415
0.00143408
0.00148116
0.00152552
0.00156714
0.00160592
0.00164177
0.00167458
0.00170424
0.00173067
0.00175375
0.00177339
0.00178946
0.00180182
0.00181025
0.00181471
0.00181518
0.00181147
0.00180291
0.00178991
0.00177277
0.00175153
0.00172637
0.00169724
0.00166447
0.0016279
0.00158836
0.00154522
0.00150092
0.00145247
0.0014109
0.00138191
3.55811e-05
4.00227e-05
4.92428e-05
5.54906e-05
4.35963e-05
3.07499e-05
6.77608e-05
0.000122375
0.000174566
0.000229362
0.000284478
0.000341898
0.000400975
0.000462972
0.000527539
0.000594677
0.000663586
0.000733667
0.000804194
0.000874641
0.000944506
0.00101341
0.00108102
0.00114707
0.0012113
0.00127345
0.00133327
0.0013906
0.00144529
0.00149721
0.00154614
0.0015922
0.00163536
0.00167552
0.0017126
0.00174649
0.0017771
0.00180432
0.00182807
0.00184824
0.00186472
0.00187735
0.00188601
0.00189065
0.00189127
0.00188768
0.00187939
0.00186667
0.00184984
0.00182887
0.00180407
0.00177516
0.00174286
0.00170641
0.0016676
0.00162434
0.00158124
0.00153205
0.00149224
0.00145999
3.55071e-05
3.84384e-05
4.72258e-05
5.6388e-05
4.92869e-05
3.37838e-05
6.04644e-05
0.000116684
0.000172099
0.000230234
0.000288577
0.000349126
0.000411379
0.000476491
0.000544189
0.000614423
0.000686433
0.000759594
0.000833186
0.000906662
0.000979513
0.00105134
0.00112179
0.00119058
0.00125742
0.00132203
0.00138416
0.00144363
0.00150029
0.00155401
0.0016046
0.00165218
0.0016967
0.00173808
0.00177624
0.00181106
0.00184246
0.00187035
0.00189464
0.00191523
0.00193201
0.00194485
0.00195369
0.00195847
0.0019592
0.0019557
0.00194765
0.00193519
0.00191869
0.001898
0.00187361
0.00184502
0.00181329
0.00177714
0.00173919
0.00169607
0.00165434
0.00160478
0.0015668
0.00153153
3.54358e-05
3.70933e-05
4.51508e-05
5.62694e-05
5.38834e-05
3.97015e-05
5.42143e-05
0.0001093
0.000167435
0.000228761
0.00029021
0.000353783
0.000419074
0.000487159
0.000557827
0.000630982
0.000705908
0.000781955
0.000858411
0.000934714
0.00101035
0.00108489
0.00115799
0.00122931
0.00129857
0.00136545
0.00142971
0.00149114
0.00154959
0.00160494
0.00165703
0.00170597
0.00175171
0.00179417
0.00183325
0.00186888
0.00190095
0.00192939
0.00195411
0.00197503
0.00199203
0.00200502
0.00201398
0.00201883
0.00201963
0.0020162
0.00200834
0.00199611
0.00197992
0.00195955
0.00193559
0.00190738
0.00187629
0.00184059
0.0018036
0.00176086
0.00172061
0.00167099
0.00163489
0.0015969
3.53691e-05
3.59603e-05
4.31078e-05
5.53491e-05
5.73111e-05
4.65611e-05
5.02079e-05
0.000100837
0.0001608
0.000225041
0.000289444
0.000355928
0.000424123
0.000495044
0.000568531
0.000644452
0.000722124
0.000800885
0.000880027
0.000958977
0.00103721
0.0011143
0.00118985
0.00126354
0.00133504
0.00140403
0.00147026
0.00153349
0.00159359
0.00165041
0.00170387
0.00175403
0.00180086
0.00184427
0.00188417
0.00192048
0.00195312
0.00198201
0.00200707
0.00202821
0.00204535
0.00205844
0.00206746
0.00207234
0.00207316
0.00206977
0.00206205
0.00205003
0.00203412
0.00201405
0.00199054
0.00196277
0.00193237
0.00189721
0.00186127
0.00181909
0.00178042
0.00173103
0.00169683
0.00165641
3.53077e-05
3.50121e-05
4.116e-05
5.38287e-05
5.95713e-05
5.3212e-05
5.05538e-05
9.2227e-05
0.000152547
0.000219238
0.000286377
0.000355638
0.000426595
0.000500216
0.00057638
0.000654919
0.000735187
0.000816505
0.000898173
0.000979609
0.00106028
0.00113975
0.0012176
0.0012935
0.00136709
0.00143806
0.0015061
0.001571
0.00163262
0.00169079
0.00174549
0.00179676
0.00184456
0.00188882
0.00192944
0.00196634
0.00199945
0.00202869
0.002054
0.0020753
0.00209252
0.00210565
0.00211466
0.00211953
0.00212033
0.00211692
0.00210931
0.00209744
0.00208178
0.00206202
0.00203895
0.00201164
0.00198195
0.00194744
0.0019126
0.00187115
0.0018341
0.00178521
0.0017529
0.00171039
3.52519e-05
3.42224e-05
3.93484e-05
5.18899e-05
6.07261e-05
5.90615e-05
5.43674e-05
8.45698e-05
0.000143189
0.000211598
0.000281154
0.000353015
0.000426574
0.000502756
0.000581455
0.000662474
0.000745195
0.000828928
0.000912978
0.000996755
0.00107972
0.00116142
0.00124144
0.00131941
0.00139497
0.00146778
0.00153752
0.00160397
0.00166698
0.00172641
0.00178224
0.00183452
0.0018832
0.0019282
0.00196945
0.00200686
0.00204036
0.00206988
0.00209537
0.00211675
0.002134
0.0021471
0.00215606
0.00216086
0.00216158
0.00215814
0.00215057
0.00213882
0.00212338
0.00210389
0.00208125
0.00205443
0.00202546
0.00199167
0.00195795
0.00191737
0.00188199
0.00183383
0.00180341
0.00175912
3.52019e-05
3.35677e-05
3.76965e-05
4.96898e-05
6.08822e-05
6.38072e-05
5.9948e-05
7.92395e-05
0.000133404
0.000202471
0.000273978
0.000348198
0.000424169
0.000502757
0.000583844
0.000667205
0.000752246
0.000838262
0.000924561
0.00101055
0.00109568
0.00117949
0.00126154
0.00134146
0.00141887
0.00149341
0.00156476
0.00163265
0.00169695
0.00175753
0.00181441
0.00186761
0.00191709
0.00196277
0.00200456
0.0020424
0.00207622
0.00210595
0.00213155
0.00215297
0.00217019
0.00218322
0.00219207
0.00219675
0.00219735
0.00219382
0.00218625
0.00217458
0.00215931
0.00214008
0.00211784
0.00209152
0.00206328
0.00203024
0.00199767
0.00195808
0.00192439
0.00187716
0.0018486
0.00180288
3.51572e-05
3.30269e-05
3.62147e-05
4.73596e-05
6.01763e-05
6.73134e-05
6.5966e-05
7.78039e-05
0.000124015
0.000192326
0.000265127
0.000341377
0.000419524
0.000500336
0.000583653
0.000669215
0.000756443
0.000844613
0.000933039
0.00102112
0.0011083
0.0011941
0.00127807
0.00135983
0.00143899
0.00151517
0.00158801
0.00165726
0.00172276
0.00178442
0.00184227
0.00189632
0.00194652
0.0019928
0.00203507
0.00207328
0.00210735
0.00213724
0.0021629
0.0021843
0.00220145
0.00221435
0.00222305
0.00222756
0.00222801
0.00222435
0.00221673
0.00220509
0.00218995
0.00217095
0.00214909
0.00212326
0.00209573
0.00206349
0.00203208
0.00199357
0.00196158
0.00191545
0.00188874
0.00184192
3.51175e-05
3.25815e-05
3.49033e-05
4.50048e-05
5.87623e-05
6.95504e-05
7.16473e-05
7.98987e-05
0.000115901
0.000181738
0.000254965
0.000332797
0.00041282
0.00049564
0.000581007
0.000668617
0.000757895
0.000848095
0.000938527
0.00102858
0.0011177
0.00120538
0.00129118
0.00137469
0.0014555
0.00153322
0.00160748
0.00167801
0.00174462
0.0018073
0.00186606
0.00192089
0.00197175
0.00201857
0.00206127
0.00209979
0.00213406
0.00216405
0.00218972
0.00221106
0.00222808
0.00224082
0.00224932
0.00225362
0.00225387
0.00225004
0.00224233
0.00223069
0.00221563
0.00219683
0.00217532
0.00214996
0.00212313
0.00209171
0.00206146
0.00202412
0.00199382
0.00194896
0.00192407
0.00187647
3.50825e-05
3.2216e-05
3.37564e-05
4.27065e-05
5.67991e-05
7.05627e-05
7.65252e-05
8.40633e-05
0.000110914
0.000171365
0.000243937
0.000322769
0.000404287
0.00048885
0.000576058
0.000665544
0.000756726
0.000848826
0.000941145
0.00103306
0.00112401
0.00121348
0.00130101
0.00138617
0.00146856
0.00154775
0.00162335
0.00169507
0.00176274
0.00182636
0.00188597
0.00194153
0.001993
0.00204031
0.00208338
0.00212216
0.00215659
0.00218663
0.00221227
0.00223351
0.00225038
0.0022629
0.00227117
0.00227523
0.00227524
0.00227121
0.00226336
0.00225166
0.00223666
0.00221802
0.00219682
0.00217193
0.00214577
0.00211519
0.00208608
0.00204996
0.00202136
0.00197789
0.00195481
0.00190675
3.50517e-05
3.19168e-05
3.27635e-05
4.05235e-05
5.4442e-05
7.04479e-05
8.03205e-05
8.90754e-05
0.000109519
0.000162183
0.000232562
0.000311665
0.000394206
0.000480188
0.000568989
0.000660153
0.000753077
0.000846937
0.000941019
0.00103469
0.00112736
0.00121852
0.00130769
0.00139442
0.0014783
0.00155889
0.00163576
0.00170861
0.00177728
0.0018418
0.0019022
0.00195844
0.00201047
0.00205822
0.00210163
0.00214062
0.00217516
0.00220522
0.0022308
0.0022519
0.00226857
0.00228086
0.00228885
0.00229263
0.00229237
0.0022881
0.00228007
0.00226828
0.00225329
0.00223478
0.00221386
0.00218941
0.00216391
0.00213417
0.00210619
0.00207134
0.00204441
0.00200247
0.00198117
0.00193297
3.50247e-05
3.16728e-05
3.19114e-05
3.84958e-05
5.18346e-05
6.93422e-05
8.28821e-05
9.40583e-05
0.000110971
0.00015551
0.000221416
0.000299914
0.000382909
0.00046992
0.000560017
0.000652628
0.000747108
0.000842575
0.000938287
0.00103359
0.00112789
0.00122064
0.00131136
0.00139958
0.00148488
0.00156679
0.00164487
0.00171879
0.0017884
0.00185377
0.00191492
0.00197179
0.00202434
0.0020725
0.00211619
0.00215536
0.00218998
0.00222003
0.00224551
0.00226644
0.00228288
0.0022949
0.00230259
0.00230606
0.00230549
0.00230095
0.00229271
0.00228079
0.00226577
0.00224737
0.00222669
0.00220266
0.00217778
0.00214888
0.00212201
0.00208846
0.00206319
0.00202288
0.00200335
0.00195531
3.5001e-05
3.14743e-05
3.11863e-05
3.66471e-05
4.91038e-05
6.74063e-05
8.41557e-05
9.8419e-05
0.000114224
0.000151685
0.000211696
0.000287974
0.000370774
0.000458349
0.000549395
0.000643181
0.000739005
0.000835902
0.000933097
0.00102991
0.00112572
0.00121997
0.00131214
0.00140177
0.00148841
0.00157158
0.00165081
0.00172574
0.00179624
0.00186242
0.00192428
0.00198173
0.00203477
0.00208328
0.00212722
0.00216654
0.00220121
0.00223122
0.00225658
0.00227732
0.00229351
0.00230522
0.00231259
0.00231572
0.00231481
0.00230997
0.00230149
0.00228941
0.00227432
0.00225598
0.00223552
0.00221189
0.00218761
0.00215953
0.00213375
0.00210153
0.00207789
0.0020393
0.00202152
0.00197395
3.49803e-05
3.13134e-05
3.05736e-05
3.49885e-05
4.63569e-05
6.48143e-05
8.4164e-05
0.00010177
0.000118284
0.000150502
0.000204026
0.000276753
0.000358247
0.000445817
0.000537411
0.000632056
0.000728976
0.000827103
0.000925615
0.0010238
0.001121
0.00121663
0.00131017
0.00140113
0.00148904
0.0015734
0.00165371
0.00172959
0.00180094
0.00186789
0.00193041
0.00198841
0.00204188
0.00209073
0.00213489
0.00217433
0.00220902
0.00223896
0.00226418
0.0022847
0.00230061
0.002312
0.00231902
0.00232178
0.00232052
0.00231535
0.00230659
0.00229432
0.00227914
0.00226084
0.00224056
0.0022173
0.00219359
0.00216633
0.00214161
0.00211074
0.0020887
0.0020519
0.00203587
0.00198905
3.49623e-05
3.11836e-05
3.00595e-05
3.3521e-05
4.36798e-05
6.17422e-05
8.29924e-05
0.000103875
0.000122349
0.000151356
0.00019872
0.000266804
0.000346012
0.000432822
0.000524381
0.000619524
0.000717256
0.000816381
0.00091602
0.00101542
0.00111388
0.00121079
0.00130559
0.00139778
0.00148688
0.00157237
0.00165369
0.00173046
0.00180263
0.00187029
0.00193343
0.00199194
0.00204581
0.00209496
0.00213932
0.00217885
0.00221355
0.00224341
0.00226845
0.00228874
0.00230435
0.0023154
0.00232205
0.00232442
0.00232278
0.00231725
0.0023082
0.00229572
0.00228041
0.00226212
0.00224199
0.00221908
0.0021959
0.00216945
0.00214576
0.00211625
0.00209578
0.00206086
0.00204656
0.00200076
3.49465e-05
3.10792e-05
2.96311e-05
3.22385e-05
4.11378e-05
5.83589e-05
8.07746e-05
0.000104613
0.000125817
0.000153475
0.000195727
0.000258551
0.000334551
0.000419831
0.000510778
0.000605968
0.000704111
0.000803961
0.000904512
0.00100495
0.00110452
0.00120257
0.00129853
0.00139186
0.00148207
0.0015686
0.00165087
0.00172846
0.00180139
0.00186973
0.00193345
0.00199244
0.00204669
0.0020961
0.00214063
0.00218024
0.00221492
0.00224467
0.00226953
0.00228956
0.00230486
0.00231555
0.00232181
0.00232378
0.00232174
0.00231584
0.00230647
0.00229374
0.00227829
0.00225998
0.00223998
0.0022174
0.00219473
0.00216906
0.00214637
0.00211822
0.0020993
0.0020663
0.00205373
0.00200923
3.49327e-05
3.09956e-05
2.92762e-05
3.11299e-05
3.87768e-05
5.48187e-05
7.76801e-05
0.000103957
0.000128259
0.000156091
0.000194667
0.000252214
0.000324278
0.000407257
0.000496977
0.000591717
0.000689877
0.00079013
0.000891332
0.000992593
0.00109309
0.00119214
0.00128912
0.00138349
0.00147471
0.0015622
0.00164534
0.0017237
0.00179735
0.00186633
0.00193058
0.00199002
0.00204461
0.00209427
0.00213895
0.00217861
0.00221325
0.00224287
0.00226753
0.00228729
0.00230226
0.00231258
0.00231843
0.00231998
0.00231753
0.00231125
0.00230153
0.00228855
0.00227293
0.00225458
0.00223468
0.0022124
0.00219021
0.00216532
0.00214359
0.00211681
0.00209941
0.00206838
0.00205753
0.00201459
3.49206e-05
3.09292e-05
2.89844e-05
3.01811e-05
3.66252e-05
5.1256e-05
7.38997e-05
0.000101959
0.00012939
0.000158536
0.000194961
0.000247766
0.000315484
0.000395469
0.000483344
0.000577106
0.000674852
0.000775152
0.000876714
0.000978557
0.00107979
0.00117966
0.00127753
0.00137281
0.00146493
0.00155329
0.00163723
0.00171629
0.00179062
0.00186018
0.00192493
0.00198479
0.00203969
0.00208957
0.00213436
0.00217406
0.00220863
0.00223811
0.00226255
0.00228203
0.00229666
0.00230659
0.00231202
0.00231315
0.00231027
0.00230359
0.00229353
0.00228026
0.00226445
0.00224606
0.00222623
0.00220424
0.0021825
0.00215837
0.00213758
0.00211216
0.00209624
0.00206723
0.0020581
0.00201696
3.49101e-05
3.08767e-05
2.87459e-05
2.93763e-05
3.4697e-05
4.77816e-05
6.96326e-05
9.87385e-05
0.000129045
0.000160269
0.00019595
0.000244946
0.000308293
0.000384759
0.000470211
0.000562458
0.000659337
0.000759297
0.000860897
0.000963056
0.00106479
0.00116531
0.00126391
0.00135995
0.00145287
0.001542
0.00162665
0.00170635
0.00178129
0.00185139
0.0019166
0.00197683
0.00203201
0.00208208
0.00212697
0.00216667
0.00220117
0.00223049
0.0022547
0.00227388
0.00228816
0.00229769
0.0023027
0.00230339
0.00230008
0.00229299
0.00228256
0.00226901
0.002253
0.00223453
0.00221477
0.00219304
0.00217174
0.00214834
0.00212846
0.0021044
0.00208992
0.00206297
0.00205557
0.00201646
3.49009e-05
3.08355e-05
2.85524e-05
2.86995e-05
3.29943e-05
4.44815e-05
6.50745e-05
9.4465e-05
0.000127164
0.000160877
0.000196995
0.000243321
0.000302646
0.000375307
0.000457851
0.000548071
0.000643621
0.000742834
0.000844127
0.000946309
0.00104831
0.00114926
0.00124841
0.00134508
0.00143865
0.00152845
0.0016137
0.00169399
0.00176947
0.00184006
0.00190569
0.00196624
0.00202167
0.00207189
0.00211686
0.00215654
0.00219094
0.00222009
0.00224405
0.00226292
0.00227684
0.00228597
0.00229055
0.0022908
0.00228704
0.00227954
0.00226874
0.00225489
0.00223867
0.00222012
0.0022004
0.00217892
0.00215804
0.00213536
0.00211637
0.00209364
0.00208059
0.00205572
0.00205005
0.0020132
3.48929e-05
3.08035e-05
2.83967e-05
2.81349e-05
3.15106e-05
4.14178e-05
6.04061e-05
8.9348e-05
0.000123778
0.000160072
0.000197528
0.000242357
0.000298311
0.000367157
0.000446456
0.000534195
0.000627971
0.000726024
0.000826646
0.000928539
0.00103054
0.0011317
0.0012312
0.00132833
0.00142242
0.00151277
0.00159851
0.00167931
0.00175527
0.00182629
0.00189227
0.00195311
0.00200875
0.00205909
0.0021041
0.00214375
0.00217803
0.00220699
0.00223069
0.00224924
0.00226279
0.00227152
0.00227566
0.00227546
0.00227126
0.00226334
0.00225217
0.00223801
0.00222157
0.00220293
0.00218325
0.00216201
0.00214152
0.00211954
0.00210141
0.00208002
0.00206836
0.0020456
0.00204166
0.00200728
3.48858e-05
3.07789e-05
2.82724e-05
2.76676e-05
3.02331e-05
3.86299e-05
5.57859e-05
8.36193e-05
0.000119001
0.000157679
0.000197079
0.000241498
0.000294918
0.000360213
0.000436112
0.000521018
0.000612615
0.000709103
0.000808685
0.000909961
0.00101167
0.00111279
0.00121244
0.00130985
0.00140431
0.00149506
0.00158118
0.00166242
0.00173878
0.00181016
0.00187644
0.00193752
0.00199332
0.00204375
0.00208878
0.00212836
0.00216251
0.00219126
0.00221469
0.00223291
0.00224609
0.0022544
0.0022581
0.00225745
0.00225281
0.00224447
0.00223292
0.00221847
0.0022018
0.00218307
0.00216342
0.0021424
0.00212229
0.002101
0.00208371
0.00206364
0.00205333
0.00203271
0.0020305
0.0019988
3.48797e-05
3.07603e-05
2.81743e-05
2.72838e-05
2.91449e-05
3.61379e-05
5.1344e-05
7.75177e-05
0.000113016
0.000153628
0.000195284
0.000240208
0.000292012
0.000354248
0.000426794
0.000508643
0.000597726
0.000692277
0.000790456
0.00089078
0.000991905
0.00109273
0.00119229
0.00128978
0.00138444
0.00147546
0.00156184
0.00164341
0.0017201
0.00179176
0.00185828
0.00191955
0.00197546
0.00202595
0.00207095
0.00211044
0.00214443
0.00217296
0.00219611
0.002214
0.00222679
0.00223468
0.00223794
0.00223685
0.00223176
0.00222301
0.00221109
0.00219633
0.00217945
0.00216062
0.00214099
0.00212019
0.00210045
0.00207984
0.00206336
0.0020446
0.00203562
0.00201715
0.00201668
0.00198784
3.48743e-05
3.07464e-05
2.80975e-05
2.69712e-05
2.82271e-05
3.39457e-05
4.71801e-05
7.12732e-05
0.00010606
0.000147953
0.000191883
0.000238015
0.000289103
0.000348929
0.000418365
0.000497086
0.000583412
0.000675705
0.00077214
0.000871185
0.000971422
0.00107168
0.00117092
0.00126829
0.00136297
0.00145409
0.00154061
0.0016224
0.00169931
0.00177118
0.00183788
0.00189927
0.00195525
0.00200575
0.00205069
0.00209007
0.00212388
0.00215216
0.00217502
0.00219255
0.00220496
0.00221243
0.00221526
0.00221372
0.00220819
0.00219903
0.00218674
0.00217168
0.00215458
0.00213566
0.00211605
0.00209548
0.0020761
0.00205615
0.00204047
0.00202301
0.00201533
0.00199903
0.0020003
0.00197451
3.48695e-05
3.07364e-05
2.80384e-05
2.67188e-05
2.74604e-05
3.20447e-05
4.33632e-05
6.5094e-05
9.84075e-05
0.000140778
0.000186727
0.000234524
0.000285703
0.000343855
0.000410587
0.000486265
0.000569705
0.00065949
0.000753881
0.000851333
0.000950384
0.0010498
0.00114848
0.0012455
0.00134
0.00143106
0.00151759
0.00159948
0.00167651
0.00174851
0.0018153
0.00187675
0.00193275
0.00198321
0.00202806
0.00206729
0.00210089
0.00212892
0.00215146
0.00216864
0.00218066
0.00218771
0.0021901
0.00218811
0.00218216
0.0021726
0.00215995
0.0021446
0.00212729
0.00210827
0.00208869
0.00206834
0.00204931
0.00203003
0.00201512
0.00199896
0.00199255
0.00197843
0.00198145
0.00195888
3.48654e-05
3.07294e-05
2.79936e-05
2.65167e-05
2.68254e-05
3.04176e-05
3.99339e-05
5.91564e-05
9.03487e-05
0.000132314
0.000179774
0.00022943
0.000281364
0.000338588
0.000403144
0.000476011
0.000556559
0.000643673
0.000735773
0.000831352
0.000928933
0.00102723
0.00112509
0.00122154
0.00131567
0.00140649
0.00149288
0.00157475
0.00165179
0.00172381
0.00179062
0.00185207
0.00190802
0.00195839
0.00200312
0.00204216
0.00207553
0.00210328
0.0021255
0.00214232
0.00215393
0.00216057
0.00216252
0.0021601
0.00215372
0.00214376
0.00213077
0.00211514
0.00209763
0.00207854
0.00205899
0.00203885
0.00202019
0.00200156
0.00198742
0.00197253
0.00196737
0.00195545
0.00196022
0.00194102
3.48617e-05
3.07248e-05
2.79604e-05
2.63566e-05
2.63042e-05
2.90411e-05
3.69082e-05
5.35979e-05
8.21715e-05
0.000122838
0.000171089
0.000222527
0.000275694
0.000332688
0.000395663
0.000466076
0.000543848
0.000628228
0.000717859
0.000811327
0.000907175
0.00100409
0.00110089
0.00119654
0.00129008
0.00138048
0.00146659
0.00154829
0.00162524
0.00169718
0.00176392
0.00182528
0.00188113
0.00193137
0.00197591
0.00201474
0.00204785
0.0020753
0.00209717
0.00211362
0.00212483
0.00213105
0.00213257
0.00212973
0.00212293
0.0021126
0.00209926
0.00208337
0.00206567
0.00204651
0.00202701
0.0020071
0.00198879
0.00197082
0.00195743
0.00194382
0.00193988
0.00193016
0.00193669
0.00192101
3.48586e-05
3.07221e-05
2.79364e-05
2.62312e-05
2.58801e-05
2.78891e-05
3.42821e-05
4.85154e-05
7.4141e-05
0.000112677
0.000160841
0.000213717
0.000268377
0.000325739
0.000387748
0.000456155
0.000531377
0.000613059
0.000700122
0.000791296
0.000885186
0.000980486
0.00107598
0.0011706
0.00126335
0.00135312
0.00143881
0.00152021
0.00159692
0.00166868
0.00173526
0.00179646
0.00185213
0.00190217
0.0019465
0.00198507
0.00201789
0.00204502
0.00206654
0.0020826
0.00209341
0.00209921
0.0021003
0.00209704
0.00208984
0.00207914
0.00206549
0.00204935
0.00203148
0.00201227
0.00199282
0.00197316
0.00195521
0.0019379
0.00192525
0.0019129
0.00191017
0.00190266
0.00191094
0.00189892
3.48558e-05
3.07209e-05
2.79198e-05
2.61343e-05
2.5538e-05
2.69347e-05
3.20364e-05
4.39664e-05
6.64828e-05
0.000102185
0.000149294
0.000203012
0.000259184
0.000317371
0.000378998
0.000445898
0.000518891
0.000598009
0.000682489
0.000771249
0.000862999
0.000956468
0.00105044
0.00114381
0.00123556
0.00132451
0.00140962
0.00149056
0.00156692
0.00163839
0.0017047
0.00176565
0.00182109
0.00187087
0.00191492
0.0019532
0.0019857
0.00201248
0.00203363
0.0020493
0.0020597
0.00206508
0.00206576
0.00206208
0.0020545
0.00204344
0.00202949
0.00201312
0.0019951
0.00197586
0.00195648
0.00193707
0.0019195
0.00190285
0.00189094
0.00187985
0.00187831
0.00187301
0.00188305
0.00187482
3.48533e-05
3.07208e-05
2.79092e-05
2.60606e-05
2.52648e-05
2.61513e-05
3.01416e-05
3.99738e-05
5.93725e-05
9.17124e-05
0.000136793
0.000190541
0.000247985
0.000307274
0.000369032
0.00043494
0.000506091
0.000582865
0.000664828
0.000751124
0.000840605
0.000932065
0.00102431
0.00111623
0.00120678
0.00129473
0.0013791
0.00145944
0.00153531
0.00160635
0.0016723
0.00173293
0.00178804
0.00183751
0.00188123
0.00191917
0.00195132
0.00197773
0.00199849
0.00201376
0.00202374
0.00202871
0.00202897
0.0020249
0.00201694
0.00200556
0.00199132