/*--------------------------------*- C++ -*----------------------------------*\
| =========                 |                                                 |
| \\      /  F ield         | OpenFOAM: The Open Source CFD Toolbox           |
|  \\    /   O peration     | Version:  2.4.0                                 |
|   \\  /    A nd           | Web:      www.OpenFOAM.org                      |
|    \\/     M anipulation  |                                                 |
\*---------------------------------------------------------------------------*/
FoamFile
{
    version     2.0;
    format      ascii;
    class       volScalarField;
    location    "2.05";
    object      epsilon;
}
// * * * * * * * * * * * * * * * * * * * * * * * * * * * * * * * * * * * * * //

dimensions      [0 2 -3 0 0 0 0];

internalField   nonuniform List<scalar> 
6000
(
54.1776
1.09491
0.0206343
0.134106
0.0728405
0.0873078
0.062904
0.0590211
0.0484948
0.0469376
0.0442314
0.0411246
0.0301239
0.0140183
0.00325475
0.0062758
0.0176516
0.0222722
0.0139765
0.019192
0.116958
0.349261
0.707881
1.12336
1.50096
1.7531
1.81542
1.65837
1.3137
0.866214
0.432773
0.124588
0.0151734
0.0559196
0.151982
0.240648
0.296836
0.319082
0.31726
0.303906
0.289275
0.280632
0.282908
0.299892
0.335209
0.393706
0.48132
0.606859
0.779063
1.01486
1.32184
1.74391
2.26023
3.03836
3.85945
5.51507
6.61193
11.1829
11.6236
26.8632
17.7242
0.974502
0.0255901
0.0740389
0.0419791
0.047884
0.0350423
0.0323781
0.0267487
0.0255819
0.0239113
0.0219387
0.0160942
0.00770552
0.00212154
0.00436683
0.0101933
0.0121258
0.00827543
0.0144793
0.0609721
0.150234
0.268914
0.391364
0.491646
0.550031
0.554251
0.501422
0.401359
0.273741
0.145561
0.0463713
0.00855873
0.0289779
0.0647129
0.095315
0.114365
0.122213
0.12226
0.118596
0.114632
0.112897
0.115206
0.122998
0.137632
0.160856
0.194714
0.242172
0.306183
0.39239
0.503664
0.654469
0.839904
1.11313
1.41219
1.97997
2.41176
3.92175
4.28634
9.09993
7.13635
0.710784
0.0304674
0.0434573
0.0253812
0.0275801
0.0204457
0.0186307
0.0154842
0.014666
0.0136113
0.0123195
0.00902718
0.00445042
0.00150319
0.00312917
0.00625423
0.00717689
0.00570896
0.0117063
0.0364147
0.0754929
0.120127
0.160137
0.187979
0.199611
0.193664
0.172497
0.138725
0.0974178
0.0550061
0.0196412
0.00591124
0.0159734
0.0299939
0.0414576
0.0486366
0.051805
0.0521896
0.051221
0.050175
0.0500447
0.0515715
0.0553486
0.0619428
0.0720359
0.0864067
0.106168
0.132454
0.167376
0.212206
0.272232
0.346599
0.453844
0.575648
0.79358
0.981379
1.53911
1.76293
3.45011
3.42014
0.518091
0.0346642
0.0274209
0.0161237
0.0166434
0.0124524
0.0112011
0.00937019
0.00880918
0.00812739
0.00726115
0.00531643
0.00272104
0.00116001
0.0023235
0.00410342
0.00469198
0.00459816
0.0099425
0.0242953
0.0432268
0.0615794
0.0753015
0.082539
0.083145
0.077946
0.0687354
0.0558693
0.0406268
0.0245472
0.0101493
0.00483467
0.00958742
0.0152535
0.0197765
0.0226808
0.0240805
0.0244225
0.0242157
0.0239831
0.024156
0.0250656
0.0269755
0.0301502
0.0348656
0.0414464
0.0503513
0.0620687
0.0774697
0.0971823
0.123324
0.156
0.202211
0.256583
0.348562
0.437093
0.663422
0.792357
1.43654
1.89782
0.395473
0.038761
0.0190373
0.0108357
0.0105308
0.00790953
0.00702415
0.00591674
0.00553394
0.00508369
0.00449221
0.00329802
0.00177827
0.00096731
0.00180393
0.00290624
0.00344179
0.00416358
0.00874195
0.0176569
0.0275348
0.0355464
0.0402867
0.0416977
0.0403893
0.0372691
0.0330105
0.0274469
0.0208855
0.013716
0.0069096
0.00453456
0.00650644
0.00871741
0.0104708
0.011632
0.0122415
0.0124545
0.0124367
0.0124121
0.0125809
0.0131014
0.0140994
0.0157083
0.0180418
0.021246
0.0255263
0.0311125
0.0383966
0.0477119
0.0599761
0.0754496
0.0969679
0.123105
0.165157
0.209626
0.309142
0.382679
0.646852
1.19133
0.318405
0.0430769
0.0149814
0.00780971
0.00701718
0.00524835
0.00459608
0.00389853
0.00363625
0.00333341
0.00292371
0.00216634
0.00125513
0.000860429
0.00147742
0.00224057
0.00283805
0.0040302
0.00787347
0.0136982
0.0191699
0.0228675
0.0245078
0.0244787
0.0233432
0.0217456
0.0197109
0.0170542
0.0138086
0.0100495
0.00623018
0.00473829
0.00516549
0.00577591
0.00629232
0.00664702
0.00684262
0.00692173
0.00691746
0.006922
0.00702967
0.00731817
0.0078521
0.00869937
0.00990835
0.0115484
0.013718
0.0165333
0.020184
0.0248554
0.0309749
0.038765
0.049453
0.0627912
0.0833583
0.10684
0.153736
0.195961
0.311183
0.829142
0.268834
0.0476623
0.0135706
0.00616375
0.00496858
0.00365523
0.00314589
0.00268514
0.00250318
0.00229615
0.00200875
0.00151591
0.000964566
0.000805615
0.00128141
0.00188436
0.00258105
0.00401723
0.0072155
0.0111893
0.0144183
0.0162925
0.0169585
0.0168295
0.0162938
0.0157378
0.0148645
0.0135386
0.0116995
0.00932672
0.00669457
0.00531231
0.00481083
0.00453893
0.00439288
0.0043093
0.00425412
0.00421577
0.00417332
0.00415599
0.00420456
0.00435587
0.00464396
0.0051028
0.00575272
0.00662791
0.00777819
0.0092656
0.0111877
0.0136506
0.0168667
0.0209934
0.0265974
0.0337451
0.0443964
0.0573062
0.0807844
0.105309
0.158463
0.628376
0.235886
0.0524227
0.0138919
0.00544836
0.00379125
0.00269404
0.00226355
0.00193963
0.00181013
0.00166625
0.00146248
0.00113693
0.000808603
0.000785115
0.00117523
0.00171391
0.0025079
0.00404137
0.00670621
0.00954709
0.0116388
0.0128254
0.0133872
0.013633
0.0137697
0.0138719
0.0136256
0.0129242
0.0116868
0.00986543
0.00768565
0.00615656
0.00504614
0.00419479
0.0036008
0.00321528
0.00297716
0.00283641
0.00274289
0.00269144
0.00269307
0.00276186
0.00291477
0.00316738
0.00352727
0.00401149
0.00464624
0.00546592
0.00652316
0.00788024
0.00964881
0.0119328
0.0150109
0.0190028
0.0247964
0.0321391
0.0445365
0.05898
0.0848368
0.510179
0.213252
0.0572006
0.0154228
0.00541475
0.00317185
0.00212614
0.00172473
0.00147649
0.00137969
0.00127784
0.00113267
0.00091844
0.000734288
0.000789419
0.00113164
0.0016564
0.00252755
0.00407013
0.00631881
0.0084842
0.0100693
0.0111619
0.0120167
0.0127666
0.0134468
0.0139289
0.013993
0.0135608
0.012557
0.0109248
0.00890717
0.00717521
0.00563753
0.00435744
0.00340487
0.00276154
0.00235929
0.00212059
0.00197215
0.00188468
0.00184967
0.00186687
0.00194235
0.00208128
0.00228496
0.00256157
0.00292516
0.00339525
0.00400136
0.00478062
0.00579462
0.00711014
0.0088726
0.0111855
0.0144757
0.0187807
0.025644
0.0342861
0.0475301
0.437334
0.197245
0.0618243
0.0178208
0.00592871
0.00294986
0.00182084
0.00140484
0.00119153
0.00111282
0.00103914
0.000936657
0.000800344
0.000712212
0.000813327
0.00113204
0.00166628
0.00259063
0.00409836
0.00604847
0.00785968
0.0093386
0.0106653
0.0119616
0.0131746
0.0142193
0.0148892
0.0150677
0.0147079
0.0137523
0.0121469
0.0101912
0.00827738
0.00643406
0.00481912
0.00355755
0.0026714
0.00210331
0.00176139
0.00155304
0.0014283
0.00136277
0.00134536
0.00137409
0.0014477
0.00156402
0.00172634
0.00194207
0.00222243
0.0025844
0.0030505
0.00365607
0.00444365
0.00549327
0.00688095
0.00882444
0.0114228
0.0153881
0.0206538
0.0277908
0.390871
0.185654
0.0661388
0.0208308
0.00691072
0.00304827
0.00170892
0.00123484
0.00102584
0.000953594
0.000898749
0.000828779
0.000749154
0.000725991
0.000854109
0.00116384
0.00171604
0.00267371
0.00413575
0.005903
0.00760204
0.00923663
0.0109579
0.0127074
0.0142857
0.015536
0.016254
0.0164122
0.016
0.0149864
0.013349
0.011418
0.00937988
0.0073286
0.00545452
0.00392405
0.00280501
0.00206495
0.00161018
0.00133435
0.00116908
0.00107525
0.00103193
0.0010302
0.00106424
0.00112957
0.00122651
0.00135861
0.00153225
0.00175739
0.00204787
0.00242465
0.002915
0.00356496
0.00442731
0.00561949
0.00723471
0.00961841
0.0128951
0.0169386
0.360469
0.177115
0.0700259
0.0242391
0.00831041
0.00342671
0.001758
0.00117786
0.000946534
0.000870398
0.000827625
0.000783313
0.000745926
0.000766953
0.000910778
0.00121927
0.0017907
0.00276978
0.00419917
0.00589431
0.0076656
0.00961609
0.011785
0.0139383
0.015778
0.0171001
0.0177558
0.0177912
0.0172386
0.0161002
0.0144234
0.0125073
0.0104098
0.00823802
0.00617798
0.00442165
0.00308359
0.00216782
0.00159063
0.00123863
0.00102782
0.000905033
0.000839568
0.000815846
0.000824186
0.000858171
0.000916038
0.000998919
0.00111022
0.0012558
0.00144426
0.00168844
0.00200603
0.00242463
0.00298029
0.00373954
0.00477548
0.00626405
0.00835347
0.0107595
0.340203
0.170753
0.0734143
0.0278548
0.010081
0.00406458
0.00195978
0.00121653
0.000936156
0.000845656
0.000809365
0.00078569
0.000780203
0.000831299
0.000983861
0.00129452
0.00188422
0.00288182
0.00430735
0.00603144
0.00800943
0.010359
0.0129672
0.0154533
0.0174561
0.0187358
0.0192371
0.0190691
0.0183114
0.0170053
0.0153072
0.0134035
0.0113064
0.00909469
0.00692376
0.00499242
0.00345725
0.00236736
0.00166055
0.00122409
0.000961953
0.00080782
0.000721119
0.00067955
0.000669688
0.000683161
0.000716514
0.000769169
0.00084259
0.000940076
0.00106704
0.0012315
0.00144522
0.00172534
0.00209669
0.00259858
0.00328527
0.00425024
0.00562027
0.00712148
0.326515
0.165992
0.0762789
0.0315054
0.0121676
0.00495424
0.00231381
0.00134627
0.000986897
0.000870201
0.000834942
0.000827912
0.000846862
0.000918514
0.00107534
0.00138918
0.00199668
0.003018
0.00447692
0.00631646
0.00859072
0.011368
0.0143757
0.0171166
0.0191916
0.0203301
0.020601
0.0201666
0.0191571
0.0176747
0.0159529
0.0140704
0.0120232
0.00984377
0.00763784
0.00559052
0.00388991
0.00263452
0.00179452
0.00126674
0.000947539
0.000758839
0.000650245
0.000592572
0.00056852
0.000567576
0.000584711
0.00061798
0.000667451
0.000734744
0.000823192
0.000937886
0.00108684
0.00128105
0.00153805
0.00188188
0.00235256
0.00300125
0.0039275
0.00490718
0.317188
0.162433
0.0786347
0.0350408
0.0145022
0.00608974
0.0028232
0.00157205
0.00109759
0.000940265
0.000899905
0.000906116
0.000944363
0.00103042
0.00118859
0.00150554
0.00213196
0.00318826
0.00472002
0.00674351
0.00936509
0.0125624
0.0159142
0.0188305
0.0208831
0.0218076
0.0217873
0.0210406
0.0197477
0.0181056
0.0163434
0.0144898
0.0125292
0.0104431
0.00827529
0.00617687
0.00435205
0.00294771
0.00197561
0.00135178
0.000970397
0.000743679
0.000611732
0.000538361
0.00050218
0.000490286
0.000496059
0.000516341
0.000550095
0.000597742
0.000661203
0.00074368
0.000850761
0.000989707
0.00117327
0.00141661
0.00174979
0.00220106
0.0028475
0.00351399
0.310801
0.159793
0.0805259
0.0383397
0.0170024
0.00745845
0.0034947
0.00190229
0.00127226
0.00105594
0.0010029
0.00101921
0.00107369
0.00117055
0.00132825
0.00164782
0.00229587
0.0034018
0.00504322
0.00729967
0.0102884
0.0138749
0.0175082
0.0205225
0.0224655
0.0231178
0.0227608
0.0216715
0.0200888
0.0183026
0.0164819
0.0146597
0.0128092
0.0108639
0.00880005
0.00671745
0.00481753
0.00328881
0.00219108
0.00146917
0.00102158
0.000753552
0.000596447
0.000507051
0.00045967
0.000438778
0.000436082
0.000447257
0.000470319
0.000504768
0.000551501
0.00061244
0.000691547
0.000793696
0.000928511
0.00110572
0.00134863
0.00167248
0.00213806
0.00260888
0.30642
0.157863
0.0820151
0.0413146
0.019576
0.00903626
0.00433565
0.00234487
0.00151965
0.00122049
0.00114489
0.00116802
0.00123765
0.00134375
0.00150007
0.00182153
0.00249464
0.00366562
0.00544743
0.0079668
0.0113184
0.0152491
0.0190979
0.0221367
0.0238952
0.0242273
0.0235034
0.0220563
0.0202097
0.0182757
0.0163857
0.0145927
0.0128629
0.0110907
0.00918573
0.00718335
0.00526252
0.00364126
0.00243013
0.00161137
0.00109495
0.000782787
0.000598655
0.000492523
0.000434194
0.000405346
0.000395898
0.000400355
0.000415867
0.000441173
0.000476393
0.000522533
0.00058242
0.000659339
0.000760809
0.000893103
0.001075
0.00131391
0.00165951
0.00200356
0.303417
0.156485
0.0831722
0.0439137
0.0221276
0.010785
0.00534817
0.00290935
0.00184963
0.00144009
0.00132878
0.00135478
0.00144042
0.00155579
0.00171069
0.00203288
0.00273397
0.00398384
0.00592858
0.00872334
0.0124156
0.0166367
0.0206345
0.023629
0.0251393
0.0251158
0.0240086
0.0222119
0.0201373
0.0180465
0.0160815
0.014312
0.0127034
0.0111214
0.00941613
0.00755156
0.00566552
0.00398935
0.00268273
0.00177195
0.00118588
0.000827442
0.000614549
0.00049079
0.00042137
0.000385043
0.00036983
0.000369037
0.000378985
0.00039775
0.000424831
0.00046055
0.000506917
0.000566115
0.000644212
0.000745191
0.000884775
0.00106541
0.00132949
0.00158872
0.301368
0.155537
0.0840674
0.046118
0.0245674
0.0126527
0.00652569
0.0036051
0.00227096
0.00172399
0.00155932
0.00158269
0.00168614
0.00181306
0.00196745
0.0022884
0.00301848
0.00435754
0.00647858
0.00954605
0.0135438
0.0179965
0.0220773
0.0249642
0.026174
0.025772
0.0242783
0.022178
0.0198884
0.0176423
0.015601
0.0138488
0.0123541
0.0109656
0.00948552
0.0078058
0.00600802
0.00431825
0.0029392
0.00194499
0.00129048
0.000884525
0.000641427
0.000499116
0.000418239
0.000374559
0.000354102
0.000348938
0.000354571
0.000368477
0.000389636
0.000417841
0.000454495
0.000500991
0.00056238
0.000641065
0.000750705
0.000890422
0.001098
0.00129892
0.299981
0.154921
0.0847648
0.0479369
0.0268192
0.014576
0.0078503
0.00443739
0.00279397
0.00208085
0.00184319
0.00185584
0.00197849
0.0021222
0.00227824
0.002594
0.00335161
0.0047851
0.00708645
0.0104113
0.0146705
0.0192932
0.0233927
0.026114
0.0269826
0.0261916
0.0243383
0.0219789
0.0194847
0.0170921
0.0149781
0.0132383
0.0118458
0.010643
0.00939802
0.00793713
0.00627525
0.00461434
0.00319005
0.00212469
0.00140518
0.000951543
0.000677218
0.000515508
0.000422709
0.000371584
0.000346104
0.000337064
0.000339155
0.000349288
0.000365992
0.000388634
0.000418159
0.000455382
0.000504627
0.000567178
0.000655296
0.00076576
0.000933587
0.00109355
0.299051
0.154559
0.0853198
0.0494007
0.0288258
0.0164857
0.00929145
0.00540472
0.00342747
0.00251956
0.00218847
0.00217912
0.00232161
0.00248973
0.00265121
0.00295691
0.00373597
0.00526291
0.00773965
0.0112966
0.0157668
0.0204971
0.0245528
0.0270549
0.0275537
0.02638
0.0242248
0.0216303
0.0189491
0.0164244
0.0142459
0.0125164
0.0112132
0.0101801
0.00916641
0.00794399
0.00645686
0.00486581
0.00342624
0.00230532
0.00152652
0.00102624
0.000720202
0.000538419
0.00043322
0.000374438
0.000343968
0.000331299
0.000330306
0.000337355
0.000350572
0.000368972
0.00039314
0.000423464
0.000463743
0.000514454
0.000586915
0.000676186
0.000815747
0.000946459
0.298439
0.154389
0.0857774
0.0505536
0.0305529
0.0183129
0.0108066
0.0064965
0.00417657
0.00304908
0.00260311
0.00255838
0.00271914
0.0029216
0.00309443
0.00338479
0.00417392
0.00578635
0.00842534
0.0121812
0.0168083
0.0215834
0.025534
0.0277673
0.0278801
0.0263703
0.0239528
0.0211501
0.0183038
0.0156658
0.0134354
0.0117178
0.010492
0.00960785
0.00881032
0.00783183
0.0065473
0.00506323
0.00363945
0.00248125
0.00165107
0.00110648
0.000768851
0.00056657
0.000448549
0.000381849
0.000346308
0.000330098
0.000326271
0.000330666
0.000341033
0.000356084
0.000376117
0.000401198
0.000434744
0.00047665
0.000537598
0.000611357
0.000730669
0.000840231
0.298044
0.154362
0.0861719
0.0514465
0.0319884
0.0199962
0.0123438
0.00769139
0.00504047
0.00367636
0.00309482
0.00300024
0.0031742
0.00342273
0.00361528
0.00388582
0.00466854
0.00635107
0.00913193
0.0130481
0.017775
0.0225322
0.0263168
0.0282337
0.0279792
0.0261807
0.0235385
0.0205564
0.0175696
0.0148401
0.012574
0.0108738
0.00971602
0.0089587
0.00835408
0.0076121
0.00654597
0.00520005
0.00382248
0.00264711
0.00177542
0.00119013
0.000821738
0.00059884
0.000467688
0.000392813
0.000352062
0.000332301
0.00032576
0.000327758
0.000335688
0.000347996
0.00036474
0.00038574
0.000414131
0.000449391
0.000501777
0.000564077
0.000668797
0.000762916
0.297799
0.154437
0.0865287
0.0521312
0.0331405
0.0214868
0.013846
0.00895708
0.00601031
0.00440455
0.00367004
0.00351033
0.00369062
0.0039933
0.00421963
0.00446871
0.00522461
0.00695462
0.00985063
0.013885
0.0186524
0.0233282
0.0268749
0.028451
0.0278726
0.025829
0.0229988
0.0198667
0.0167655
0.0139683
0.0116854
0.0100112
0.00891568
0.00826404
0.00782441
0.00730098
0.00645688
0.00527291
0.00396964
0.00279801
0.00189625
0.00127511
0.000877485
0.000634208
0.000489771
0.000406506
0.000360392
0.000337016
0.000327797
0.000327541
0.000333303
0.000343279
0.000357322
0.00037506
0.000399416
0.000429574
0.000475503
0.00052926
0.000623386
0.00070614
0.297654
0.154584
0.0868646
0.0526565
0.0340326
0.0227531
0.015257
0.0102516
0.00706775
0.00523107
0.00433267
0.00409287
0.00427133
0.00463095
0.00491076
0.00514202
0.0058495
0.00759827
0.0105774
0.0146869
0.0194231
0.0239335
0.0272023
0.0284395
0.027581
0.0253335
0.0223505
0.0190975
0.0159084
0.0130685
0.0107893
0.00915267
0.0081168
0.00755233
0.00724825
0.0069177
0.00628802
0.00528176
0.00407697
0.00292971
0.00201044
0.00135937
0.000934752
0.000671714
0.000514024
0.00042223
0.000370612
0.000343536
0.000331629
0.000329195
0.000332958
0.000340884
0.00035264
0.000367698
0.000388814
0.000414975
0.00045595
0.000503264
0.000589621
0.000663948
0.297576
0.154777
0.0871901
0.0530655
0.034699
0.0237812
0.0165268
0.0115264
0.0081844
0.0061458
0.00508234
0.00475005
0.00491675
0.00533459
0.00568896
0.00591291
0.00655362
0.00828891
0.0113098
0.0154207
0.0200566
0.0243481
0.0273127
0.0282229
0.0271252
0.0247129
0.0216103
0.0182641
0.0150133
0.0121562
0.00990231
0.008316
0.00734016
0.00684785
0.00665087
0.00648298
0.0060519
0.00522982
0.00414245
0.00303883
0.00211512
0.00144095
0.000992234
0.000710442
0.000539741
0.000439376
0.000382149
0.000351291
0.000336665
0.000332088
0.000333962
0.000340033
0.000349794
0.00036259
0.000381037
0.000403996
0.000441085
0.000483472
0.000564035
0.000632064
0.297541
0.154998
0.087511
0.0533939
0.0351794
0.0245746
0.0176168
0.0127307
0.00932275
0.00712973
0.00591279
0.00548074
0.00562519
0.00609929
0.00654502
0.0067858
0.0073471
0.0090219
0.0120253
0.0160734
0.0205479
0.0245775
0.0272232
0.0278265
0.0265269
0.0239861
0.0207942
0.0173807
0.0140937
0.0112449
0.00903765
0.00751503
0.00660158
0.00617003
0.00605451
0.00601738
0.00576334
0.00512289
0.00416595
0.00312297
0.00220784
0.00151802
0.00104868
0.00074952
0.000566267
0.000457403
0.00039452
0.000359814
0.000342434
0.000335728
0.000335787
0.000340142
0.000348123
0.000358961
0.000375151
0.000395481
0.000429443
0.000467993
0.00054413
0.000607408
0.297533
0.155234
0.0878293
0.0536699
0.0355143
0.0251509
0.0185031
0.0138171
0.0104386
0.00815463
0.00681031
0.00627911
0.00639206
0.00691745
0.00746821
0.00775538
0.00823235
0.00979646
0.0127168
0.0166387
0.0208983
0.0246329
0.0269538
0.0272754
0.0258085
0.0231719
0.0199173
0.01646
0.0131614
0.0103458
0.008206
0.00675996
0.00591233
0.00553337
0.00547753
0.00554001
0.0054371
0.00496866
0.00414914
0.00318079
0.00228661
0.0015889
0.00110291
0.000788123
0.000592994
0.000475829
0.000407304
0.00036872
0.000348562
0.000339736
0.000338031
0.000340775
0.000347134
0.000356242
0.000370479
0.000388595
0.000419967
0.000455464
0.000528106
0.000587757
0.297543
0.155474
0.0881447
0.0539146
0.0357423
0.0255383
0.0191778
0.0147461
0.0114852
0.00918396
0.00775277
0.00713319
0.0072088
0.0077783
0.00844434
0.00881092
0.00921019
0.0106158
0.0133842
0.0171177
0.0211155
0.0245302
0.0265276
0.0265954
0.0249929
0.0222887
0.0189939
0.0155136
0.0122271
0.00946883
0.00741567
0.00605789
0.00527973
0.00494776
0.00493399
0.00506756
0.00508792
0.00477619
0.0040952
0.00321201
0.00234999
0.00165221
0.00115386
0.000825481
0.000619364
0.000494219
0.000420144
0.00037769
0.000354751
0.000343817
0.000340392
0.000341606
0.000346468
0.000354018
0.000366526
0.000382736
0.000411899
0.000444904
0.000514673
0.000571512
0.297561
0.155711
0.088456
0.0541425
0.0358969
0.0257708
0.019648
0.0154905
0.0124175
0.0101753
0.00870971
0.00802384
0.00806186
0.00866739
0.0094545
0.00993503
0.0102776
0.0114858
0.0140339
0.0175185
0.0212134
0.0242904
0.0259704
0.025813
0.0241029
0.0213539
0.0180367
0.0145519
0.0113001
0.00862208
0.00667295
0.00541334
0.00470788
0.00441912
0.0044338
0.00461369
0.0047295
0.00455516
0.00400859
0.00321735
0.00239713
0.0017068
0.00120057
0.000860897
0.000644881
0.000512189
0.000432732
0.000386465
0.000360765
0.000347747
0.000342643
0.000342395
0.000345859
0.000351988
0.00036294
0.000377471
0.000404696
0.000435613
0.000502912
0.000557529
0.297583
0.155941
0.088761
0.0543635
0.0360062
0.0258844
0.0199332
0.0160375
0.0131976
0.011084
0.00964356
0.00892434
0.00893185
0.00956616
0.0104751
0.011103
0.0114253
0.012413
0.014678
0.0178563
0.0212119
0.0239386
0.0253106
0.0249551
0.0231607
0.0203838
0.0170568
0.0135839
0.0103887
0.00781245
0.00598238
0.00482871
0.00419828
0.0039501
0.0039831
0.00418882
0.00437386
0.00431526
0.00389461
0.00319845
0.00242776
0.00175185
0.00124227
0.000893755
0.000669072
0.000529399
0.000444806
0.000394833
0.000366426
0.000351362
0.000344623
0.000342974
0.000345123
0.000349939
0.00035947
0.000372496
0.000397978
0.000427095
0.000492178
0.000544998
0.297607
0.15616
0.0890576
0.0545828
0.0360918
0.0259136
0.0200617
0.0163894
0.0137987
0.011868
0.0105124
0.00980102
0.00979315
0.0104515
0.0114783
0.0122825
0.0126348
0.0134012
0.0153319
0.0181515
0.0211358
0.0235036
0.0245782
0.0240489
0.0221872
0.0193921
0.0160638
0.0126176
0.00950042
0.00704555
0.00534692
0.0043047
0.0037505
0.0035409
0.00358489
0.0038002
0.00403094
0.00406566
0.00375907
0.00315767
0.00244218
0.00178686
0.00127832
0.000923534
0.000691532
0.000545559
0.000456153
0.000402632
0.000371602
0.000354548
0.000346225
0.000343232
0.000344134
0.000347728
0.000355945
0.0003676
0.000391482
0.000419008
0.000482028
0.000533354
0.29763
0.156366
0.089344
0.054803
0.0361697
0.0258892
0.0200668
0.0165613
0.014208
0.0124925
0.0112737
0.0106152
0.0106143
0.0112958
0.0124325
0.0134345
0.0138769
0.0144476
0.0160112
0.0184279
0.0210134
0.0230165
0.0238036
0.0231198
0.0212007
0.0183902
0.0150651
0.01166
0.0086417
0.00632584
0.00476822
0.00384069
0.00336277
0.00318993
0.00323972
0.00345228
0.00370847
0.00381457
0.00360791
0.00309794
0.00244119
0.00181166
0.00130831
0.000949824
0.000711933
0.000560429
0.000466601
0.000409737
0.000376201
0.000357233
0.000347384
0.000343101
0.000342819
0.000345263
0.000352252
0.000362643
0.000385031
0.000411118
0.000472166
0.000522215
0.297651
0.15656
0.0896187
0.0550247
0.0362505
0.025837
0.0199824
0.0165787
0.0144269
0.0129339
0.0118893
0.0113261
0.0113593
0.0120675
0.0133033
0.0145144
0.0151105
0.0155386
0.0167273
0.0187094
0.0208743
0.0225087
0.0230164
0.022191
0.0202157
0.017386
0.0140662
0.010717
0.00781825
0.00565666
0.00424677
0.00343511
0.00303243
0.0028945
0.00294635
0.00314713
0.00341198
0.00356899
0.00344686
0.00302252
0.002426
0.00182641
0.00133198
0.000972322
0.000730023
0.00057382
0.000476021
0.000416065
0.00038017
0.000359381
0.000348073
0.000342556
0.000341142
0.000342497
0.00034833
0.000357539
0.000378517
0.000403278
0.000462405
0.000511329
0.29767
0.15674
0.0898809
0.0552471
0.0363404
0.0257769
0.0198408
0.0164734
0.0144707
0.0131828
0.0123297
0.0118957
0.0119905
0.0127323
0.0140545
0.0154747
0.0162836
0.0166465
0.0174828
0.0190159
0.0207459
0.0220097
0.0222425
0.0212809
0.019242
0.016384
0.0130712
0.0097942
0.00703504
0.00504034
0.00378216
0.00308576
0.00275637
0.0026513
0.00270245
0.002885
0.00314502
0.00333454
0.00328124
0.00293485
0.00239818
0.00183151
0.00134929
0.000990846
0.00074562
0.000585595
0.000484324
0.000421565
0.000383485
0.000360987
0.000348293
0.000341597
0.0003391
0.000339417
0.00034415
0.000352247
0.00037188
0.000395401
0.000452637
0.000500544
0.297686
0.156908
0.0901299
0.0554688
0.0364426
0.0257232
0.0196698
0.0162794
0.0143649
0.0132442
0.0125779
0.0122923
0.0124721
0.0132557
0.0146507
0.0162675
0.017336
0.0177279
0.0182666
0.0193587
0.0206498
0.0215433
0.0215102
0.0204015
0.0182836
0.0153849
0.0120825
0.00889657
0.00629633
0.00447826
0.00337325
0.00279006
0.00253131
0.00245685
0.00250501
0.00266484
0.00290949
0.00311552
0.00311571
0.00283835
0.00235952
0.00182764
0.00136035
0.00100533
0.000758621
0.000595671
0.000491459
0.000426216
0.00038615
0.000362068
0.000348071
0.000340251
0.000336714
0.000336034
0.000339714
0.000346754
0.000365097
0.000387445
0.000442811
0.000489777
0.2977
0.157065
0.0903657
0.0556884
0.0365577
0.0256854
0.019492
0.0160296
0.0141419
0.0131368
0.0126316
0.0124957
0.0127742
0.0136062
0.0150588
0.0168484
0.0182038
0.0187237
0.0190507
0.0197359
0.0205975
0.0211243
0.0208274
0.0195554
0.0173379
0.0143864
0.0111023
0.00802903
0.00560573
0.00397103
0.00301843
0.00254532
0.00235412
0.00230775
0.00235085
0.00248473
0.00270593
0.00291493
0.00295425
0.00273626
0.00231198
0.00181568
0.00136545
0.0010158
0.000768995
0.000604012
0.00049741
0.000430025
0.00038819
0.000362663
0.000347451
0.000338563
0.000334025
0.000332382
0.000335047
0.000341074
0.000358171
0.000379403
0.000432918
0.000478998
0.297712
0.15721
0.0905886
0.0559042
0.0366847
0.0256687
0.0193244
0.0157536
0.0138368
0.0128891
0.0125031
0.0124995
0.0128773
0.0137587
0.015252
0.01718
0.0188251
0.0195634
0.0197876
0.0201283
0.0205862
0.0207547
0.0201904
0.0187354
0.0163961
0.0133837
0.0101326
0.00719654
0.0049662
0.00351858
0.00271578
0.00234895
0.00222196
0.00220097
0.00223685
0.00234234
0.00253393
0.00273471
0.00280007
0.00263161
0.00225751
0.00179662
0.00136501
0.00102242
0.000776783
0.00061063
0.000502196
0.000433025
0.000389648
0.000362823
0.000346489
0.000336589
0.000331087
0.000328509
0.000330187
0.000335238
0.00035113
0.00037129
0.000422978
0.000468212
0.297721
0.157345
0.0907991
0.0561149
0.0368217
0.0256751
0.0191784
0.0154752
0.0134835
0.0125362
0.0122175
0.0123127
0.0127754
0.0136989
0.0152123
0.0172356
0.0191471
0.0201712
0.0204126
0.0204969
0.0205951
0.0204205
0.0195826
0.0179241
0.0154441
0.0123716
0.00917657
0.00640424
0.00438012
0.00312029
0.00246327
0.00219858
0.00213242
0.00213392
0.00216022
0.00223519
0.00239242
0.00257586
0.00265566
0.00252704
0.0021981
0.0017716
0.00135957
0.00102541
0.000782087
0.000615582
0.000505863
0.000435265
0.000390584
0.000362614
0.000345252
0.000334398
0.000327963
0.000324473
0.000325188
0.00032929
0.000344014
0.000363142
0.000413031
0.000457452
0.297729
0.157471
0.0909977
0.0563197
0.0369664
0.0257042
0.0190608
0.0152129
0.0131124
0.0121149
0.0118089
0.0119581
0.0124777
0.0134257
0.0149342
0.017003
0.0191324
0.0204755
0.0208483
0.0207831
0.0205841
0.0200896
0.018974
0.0170954
0.0144653
0.0113462
0.00823903
0.00565748
0.00384926
0.00277518
0.0022589
0.00209219
0.00208365
0.00210466
0.00211868
0.00216098
0.00227998
0.00243873
0.00252286
0.00242486
0.00213558
0.00174176
0.00134973
0.00102507
0.000785065
0.000618964
0.000508487
0.000436817
0.000391067
0.000362107
0.000343815
0.000332061
0.000324724
0.000320338
0.000320108
0.000323287
0.000336874
0.000355007
0.000403134
0.000446766
0.297734
0.157589
0.0911853
0.0565177
0.0371164
0.0257541
0.0189746
0.0149791
0.012748
0.0116603
0.0113161
0.0114697
0.012008
0.0129533
0.0144269
0.0164867
0.0187646
0.0204193
0.0210141
0.0209131
0.0204946
0.0197123
0.0183224
0.0162179
0.0134432
0.0103067
0.00732696
0.00496165
0.00337481
0.00248196
0.00210084
0.00202823
0.00207442
0.00211193
0.00211057
0.00211774
0.0021951
0.00232317
0.00240295
0.00232697
0.00207168
0.00170828
0.00133617
0.00102178
0.000785925
0.000620905
0.000510163
0.000437764
0.000391178
0.000361381
0.000342253
0.000329654
0.000321442
0.000316176
0.000315015
0.000317288
0.00032977
0.000346942
0.00039335
0.000436217
0.297739
0.1577
0.0913627
0.0567087
0.0372695
0.025822
0.0189199
0.0147812
0.0124088
0.0112028
0.0107777
0.0108879
0.0114017
0.0123104
0.0137149
0.0157098
0.018052
0.0199701
0.0208389
0.0208067
0.0202548
0.0192234
0.0175786
0.0152594
0.0123659
0.00925764
0.00644958
0.00432196
0.00295735
0.00223917
0.00198749
0.00200567
0.00210422
0.00215532
0.00213503
0.00210402
0.0021364
0.00222878
0.00229676
0.00223495
0.00200795
0.0016723
0.00131961
0.00101595
0.000784911
0.000621562
0.000511007
0.000438202
0.000391005
0.000360519
0.000340648
0.000327254
0.000318192
0.000312057
0.000309978
0.000311361
0.000322766
0.000339008
0.00038375
0.000425873
0.297742
0.157803
0.0915307
0.0568924
0.0374239
0.0259049
0.0188946
0.0146223
0.0121071
0.0107662
0.010229
0.0102547
0.010702
0.0115371
0.0128368
0.0147124
0.0170286
0.0191271
0.020274
0.02039
0.019789
0.0185628
0.0166949
0.0141936
0.0112301
0.00820971
0.00561778
0.00374304
0.00259685
0.00204525
0.00191756
0.00202407
0.00217336
0.00223535
0.00219211
0.00211893
0.00210279
0.00215503
0.00220479
0.00215
0.00194574
0.00163489
0.00130076
0.00100801
0.000782297
0.000621117
0.00051115
0.000438238
0.000390639
0.000359606
0.00033908
0.000324939
0.00031505
0.000308055
0.000305066
0.000305573
0.000315931
0.000331274
0.000374407
0.000415809
0.297745
0.157902
0.0916902
0.0570689
0.0375779
0.0259995
0.0188957
0.0145023
0.0118496
0.0103678
0.00969886
0.00960925
0.00995388
0.0106807
0.0118419
0.0135495
0.0157518
0.0179245
0.0193056
0.0196107
0.0190314
0.0176725
0.0156333
0.0130074
0.0100444
0.00717974
0.00484325
0.00322859
0.00229265
0.00189862
0.00189017
0.0020837
0.00228307
0.00235365
0.00228294
0.00216255
0.00209373
0.0021015
0.00212731
0.00207309
0.00188623
0.00159707
0.00128033
0.000998433
0.000778379
0.000619766
0.000510738
0.000437986
0.000390178
0.00035873
0.000337629
0.000322786
0.00031209
0.000304242
0.000300351
0.000299995
0.000309335
0.000323809
0.000365399
0.000406101
0.297747
0.157995
0.091842
0.0572385
0.0377303
0.026103
0.0189195
0.0144189
0.0116386
0.0100179
0.00920869
0.00898442
0.0091999
0.00979037
0.0107849
0.0122852
0.0142971
0.0164299
0.0179611
0.0184521
0.0179414
0.016516
0.0143767
0.0117071
0.00883056
0.00618923
0.00413718
0.00278096
0.00204345
0.00179772
0.00190492
0.00218561
0.00243563
0.00251302
0.00240988
0.00223606
0.00210931
0.00206796
0.00206451
0.00200495
0.00183041
0.00155974
0.001259
0.00098767
0.000773465
0.000617721
0.000509922
0.000437565
0.000389723
0.000357979
0.000336378
0.000320872
0.000309385
0.000300691
0.000295905
0.000294697
0.000303048
0.000316684
0.0003568
0.000396827
0.297748
0.158083
0.0919868
0.0574014
0.0378802
0.0262127
0.018962
0.0143685
0.0114733
0.00972158
0.00877237
0.00840505
0.00847579
0.00891113
0.00971998
0.0109865
0.0127492
0.0147359
0.0163097
0.0169425
0.0165171
0.0150918
0.0129383
0.0103214
0.00762205
0.00526158
0.00350884
0.00240089
0.00184737
0.00174113
0.001962
0.00233181
0.00263451
0.0027176
0.00257659
0.00234178
0.00215039
0.00205453
0.00201658
0.0019462
0.00177915
0.00152373
0.00123743
0.000976182
0.000767865
0.000615198
0.000508862
0.0004371
0.000389377
0.000357443
0.000335409