/*--------------------------------*- C++ -*----------------------------------*\
| =========                 |                                                 |
| \\      /  F ield         | OpenFOAM: The Open Source CFD Toolbox           |
|  \\    /   O peration     | Version:  2.4.0                                 |
|   \\  /    A nd           | Web:      www.OpenFOAM.org                      |
|    \\/     M anipulation  |                                                 |
\*---------------------------------------------------------------------------*/
FoamFile
{
    version     2.0;
    format      ascii;
    class       volScalarField;
    location    "2.25";
    object      nut;
}
// * * * * * * * * * * * * * * * * * * * * * * * * * * * * * * * * * * * * * //

dimensions      [0 2 -1 0 0 0 0];

internalField   nonuniform List<scalar> 
6000
(
4.7016e-05
1.4433e-05
4.26549e-06
8.7706e-06
7.79529e-06
8.94895e-06
8.61227e-06
8.99872e-06
8.90046e-06
9.20046e-06
9.43499e-06
9.84896e-06
9.9516e-06
9.44388e-06
7.73617e-06
5.1709e-06
5.48751e-06
8.11952e-06
9.14195e-06
8.13041e-06
9.52802e-06
1.73365e-05
2.52712e-05
3.24831e-05
3.85409e-05
4.32519e-05
4.6525e-05
4.8263e-05
4.8292e-05
4.64047e-05
4.24283e-05
3.62158e-05
2.75906e-05
1.6476e-05
1.25192e-05
2.07821e-05
2.60232e-05
2.89034e-05
3.00506e-05
2.99903e-05
2.91794e-05
2.79855e-05
2.6685e-05
2.54876e-05
2.45466e-05
2.39628e-05
2.3765e-05
2.39488e-05
2.44378e-05
2.52194e-05
2.61166e-05
2.72487e-05
2.819e-05
2.95274e-05
3.0049e-05
3.17916e-05
3.114e-05
3.42743e-05
3.11762e-05
3.71587e-05
2.94901e-05
9.49969e-06
3.18419e-06
7.01228e-06
6.32908e-06
7.03512e-06
6.81119e-06
7.05862e-06
7.01571e-06
7.23784e-06
7.42583e-06
7.69991e-06
7.72767e-06
7.30382e-06
6.13559e-06
4.86072e-06
5.66674e-06
7.31797e-06
8.13986e-06
8.2995e-06
1.03783e-05
1.51481e-05
1.97087e-05
2.35635e-05
2.65642e-05
2.86941e-05
2.99737e-05
3.04088e-05
2.99496e-05
2.86195e-05
2.64183e-05
2.33672e-05
1.96059e-05
1.63804e-05
1.4488e-05
1.62413e-05
1.81889e-05
1.93889e-05
1.98621e-05
1.97585e-05
1.9275e-05
1.85957e-05
1.78684e-05
1.72105e-05
1.67071e-05
1.64105e-05
1.63313e-05
1.64602e-05
1.67571e-05
1.72082e-05
1.77226e-05
1.83507e-05
1.88866e-05
1.96043e-05
1.99291e-05
2.08221e-05
2.05686e-05
2.21066e-05
2.06612e-05
2.34087e-05
2.1431e-05
8.15537e-06
2.8281e-06
5.89012e-06
5.33399e-06
5.69906e-06
5.53141e-06
5.68339e-06
5.68133e-06
5.86263e-06
6.03128e-06
6.22779e-06
6.23237e-06
5.92845e-06
5.28967e-06
5.16709e-06
6.00161e-06
7.08761e-06
8.09049e-06
9.51821e-06
1.16481e-05
1.45407e-05
1.7158e-05
1.91852e-05
2.05903e-05
2.14384e-05
2.18159e-05
2.18063e-05
2.14773e-05
2.09573e-05
2.03716e-05
1.99904e-05
2.0773e-05
2.65555e-05
2.02113e-05
1.53578e-05
1.44466e-05
1.4278e-05
1.41672e-05
1.39299e-05
1.3557e-05
1.31065e-05
1.26482e-05
1.22455e-05
1.19449e-05
1.17718e-05
1.17272e-05
1.18013e-05
1.1973e-05
1.22298e-05
1.25267e-05
1.288e-05
1.31974e-05
1.35916e-05
1.3814e-05
1.42734e-05
1.4227e-05
1.49472e-05
1.43576e-05
1.54344e-05
1.78745e-05
7.96633e-06
2.99901e-06
5.26386e-06
4.71328e-06
4.78572e-06
4.63007e-06
4.71116e-06
4.74175e-06
4.90982e-06
5.08366e-06
5.25411e-06
5.29003e-06
5.16774e-06
5.11961e-06
6.0467e-06
6.66701e-06
7.51443e-06
9.04897e-06
1.1584e-05
1.34675e-05
1.52443e-05
1.67816e-05
1.7921e-05
1.87153e-05
1.92902e-05
1.97907e-05
2.03926e-05
2.12391e-05
2.24823e-05
2.44554e-05
2.79344e-05
3.55273e-05
5.14719e-05
3.37539e-05
1.97524e-05
1.4663e-05
1.24927e-05
1.14168e-05
1.07713e-05
1.0279e-05
9.85159e-06
9.47813e-06
9.17284e-06
8.95039e-06
8.81686e-06
8.76607e-06
8.78829e-06
8.87161e-06
9.00557e-06
9.16947e-06
9.36377e-06
9.55313e-06
9.77122e-06
9.92976e-06
1.01645e-05
1.02138e-05
1.05187e-05
1.03495e-05
1.0588e-05
1.67544e-05
8.44326e-06
3.54481e-06
5.04505e-06
4.4186e-06
4.20645e-06
4.02297e-06
4.04455e-06
4.10413e-06
4.2831e-06
4.48967e-06
4.68609e-06
4.82028e-06
4.97561e-06
5.65628e-06
7.48893e-06
7.82663e-06
8.72384e-06
1.10629e-05
1.43302e-05
1.60315e-05
1.73453e-05
1.85989e-05
1.9833e-05
2.1212e-05
2.29406e-05
2.52585e-05
2.85231e-05
3.2626e-05
3.78569e-05
4.46989e-05
5.43015e-05
6.99451e-05
8.73262e-05
5.82143e-05
3.29448e-05
2.0498e-05
1.43939e-05
1.12879e-05
9.63921e-06
8.67235e-06
8.03802e-06
7.59e-06
7.26758e-06
7.04279e-06
6.89818e-06
6.81814e-06
6.78989e-06
6.80503e-06
6.85453e-06
6.92982e-06
7.02509e-06
7.1317e-06
7.24782e-06
7.35858e-06
7.47481e-06
7.55601e-06
7.65622e-06
7.67522e-06
7.52149e-06
1.71083e-05
9.39696e-06
4.40068e-06
5.15592e-06
4.42778e-06
3.91671e-06
3.66479e-06
3.62799e-06
3.71652e-06
3.93154e-06
4.20663e-06
4.4914e-06
4.81505e-06
5.39512e-06
7.0046e-06
9.48726e-06
9.62189e-06
1.08317e-05
1.4057e-05
1.77443e-05
1.96184e-05
2.12439e-05
2.33161e-05
2.61959e-05
3.02612e-05
3.58451e-05
4.32325e-05
5.26719e-05
6.29233e-05
7.42309e-05
8.6564e-05
0.000100405
0.000117221
0.000124609
9.10946e-05
5.74456e-05
3.50238e-05
2.17987e-05
1.45114e-05
1.06499e-05
8.55891e-06
7.36035e-06
6.63278e-06
6.17094e-06
5.86994e-06
5.67212e-06
5.54345e-06
5.46253e-06
5.41922e-06
5.4043e-06
5.41424e-06
5.44126e-06
5.48783e-06
5.53872e-06
5.60829e-06
5.65828e-06
5.73646e-06
5.73987e-06
5.82406e-06
5.51604e-06
1.83891e-05
1.0709e-05
5.52539e-06
5.51624e-06
4.71768e-06
3.90134e-06
3.53773e-06
3.43537e-06
3.556e-06
3.8372e-06
4.2306e-06
4.68741e-06
5.33122e-06
6.54789e-06
9.25872e-06
1.20304e-05
1.21361e-05
1.38569e-05
1.78633e-05
2.19476e-05
2.45848e-05
2.75976e-05
3.22003e-05
3.92919e-05
4.95023e-05
6.29356e-05
7.90639e-05
9.65381e-05
0.000112642
0.000127564
0.000140808
0.000152366
0.000162376
0.00015814
0.000125755
8.97089e-05
5.91882e-05
3.69184e-05
2.27062e-05
1.4611e-05
1.02312e-05
7.84882e-06
6.51505e-06
5.73873e-06
5.2664e-06
4.96459e-06
4.7624e-06
4.62025e-06
4.51984e-06
4.44884e-06
4.40412e-06
4.37723e-06
4.374e-06
4.37602e-06
4.40611e-06
4.41294e-06
4.46931e-06
4.42707e-06
4.51467e-06
4.17208e-06
2.02058e-05
1.22758e-05
6.87551e-06
6.07386e-06
5.23324e-06
4.15804e-06
3.64279e-06
3.46229e-06
3.62154e-06
4.00787e-06
4.58983e-06
5.33523e-06
6.48103e-06
8.58751e-06
1.23874e-05
1.50966e-05
1.53664e-05
1.76999e-05
2.23535e-05
2.71227e-05
3.13309e-05
3.72001e-05
4.67429e-05
6.14339e-05
8.14368e-05
0.000105156
0.000129894
0.00015196
0.000169342
0.000182683
0.000191875
0.000197188
0.000198502
0.000186599
0.000157114
0.000122635
8.87236e-05
5.92676e-05
3.70647e-05
2.26811e-05
1.4372e-05
9.81811e-06
7.34555e-06
5.97689e-06
5.18847e-06
4.70719e-06
4.39257e-06
4.17078e-06
4.00603e-06
3.87812e-06
3.78053e-06
3.70348e-06
3.65248e-06
3.60977e-06
3.59819e-06
3.56831e-06
3.59167e-06
3.52332e-06
3.58501e-06
3.26068e-06
2.22472e-05
1.39965e-05
8.39888e-06
6.82171e-06
5.89168e-06
4.67187e-06
3.9872e-06
3.71807e-06
3.92708e-06
4.46969e-06
5.33592e-06
6.52541e-06
8.39539e-06
1.1594e-05
1.6203e-05
1.86509e-05
1.92355e-05
2.21922e-05
2.7505e-05
3.34596e-05
4.02387e-05
5.07561e-05
6.79282e-05
9.30271e-05
0.000123958
0.000156123
0.000185238
0.000206634
0.000221091
0.000229648
0.00023287
0.00023151
0.000225625
0.000209799
0.000183162
0.00015155
0.00011779
8.48816e-05
5.64475e-05
3.52932e-05
2.16831e-05
1.37645e-05
9.39634e-06
7.01445e-06
5.68687e-06
4.90897e-06
4.4196e-06
4.08524e-06
3.83855e-06
3.64406e-06
3.48749e-06
3.35579e-06
3.25213e-06
3.16019e-06
3.10028e-06
3.0296e-06
3.01046e-06
2.91761e-06
2.93912e-06
2.64923e-06
2.42787e-05
1.57774e-05
1.00363e-05
7.7625e-06
6.63534e-06
5.39079e-06
4.56393e-06
4.21198e-06
4.48959e-06
5.25317e-06
6.52353e-06
8.341e-06
1.11467e-05
1.54664e-05
2.0459e-05
2.26492e-05
2.36418e-05
2.72203e-05
3.33677e-05
4.11206e-05
5.15864e-05
6.85793e-05
9.54361e-05
0.000131565
0.000171268
0.000207659
0.000236504
0.00025433
0.000263868
0.000266616
0.000263762
0.000256524
0.00024544
0.000227881
0.000203623
0.000174986
0.000143046
0.00010961
7.782e-05
5.13036e-05
3.22057e-05
2.00653e-05
1.29982e-05
9.06631e-06
6.88818e-06
5.64237e-06
4.88394e-06
4.3848e-06
4.0259e-06
3.74567e-06
3.51604e-06
3.31742e-06
3.14911e-06
2.99548e-06
2.87457e-06
2.75053e-06
2.67673e-06
2.54976e-06
2.52131e-06
2.26278e-06
2.61489e-05
1.75377e-05
1.17268e-05
8.88226e-06
7.45848e-06
6.23289e-06
5.33197e-06
4.93246e-06
5.30895e-06
6.3687e-06
8.17442e-06
1.07979e-05
1.46652e-05
1.99261e-05
2.49642e-05
2.70482e-05
2.85057e-05
3.27452e-05
4.00106e-05
5.02123e-05
6.5461e-05
9.03659e-05
0.000127558
0.000173115
0.000218135
0.000255171
0.000281047
0.000294126
0.000298096
0.000294938
0.000286382
0.000274094
0.000259444
0.000241132
0.000218833
0.000193005
0.000163554
0.000131251
9.84392e-05
6.86492e-05
4.50422e-05
2.86117e-05
1.83308e-05
1.23397e-05
8.9541e-06
7.02296e-06
5.86866e-06
5.13168e-06
4.61702e-06
4.22252e-06
3.89817e-06
3.61295e-06
3.36029e-06
3.12398e-06
2.92114e-06
2.72204e-06
2.57483e-06
2.39493e-06
2.30442e-06
2.06423e-06
2.77817e-05
1.92153e-05
1.34131e-05
1.01475e-05
8.38376e-06
7.13438e-06
6.22143e-06
5.83131e-06
6.34695e-06
7.77864e-06
1.02385e-05
1.37946e-05
1.87176e-05
2.46461e-05
2.96189e-05
3.18136e-05
3.37877e-05
3.87764e-05
4.74887e-05
6.07622e-05
8.17038e-05
0.000115229
0.000162
0.000214434
0.000261836
0.000297373
0.000319084
0.000327003
0.000325278
0.000316358
0.000302471
0.000285836
0.000268618
0.000249919
0.000229268
0.000206087
0.000179424
0.000149163
0.000116841
8.55651e-05
5.88575e-05
3.87591e-05
2.52407e-05
1.68967e-05
1.20019e-05
9.16475e-06
7.47309e-06
6.4117e-06
5.68904e-06
5.1462e-06
4.70106e-06
4.30466e-06
3.94151e-06
3.59301e-06
3.27729e-06
2.97027e-06
2.72039e-06
2.45834e-06
2.28627e-06
2.04553e-06
2.9157e-05
2.07677e-05
1.50461e-05
1.15125e-05
9.42594e-06
8.08003e-06
7.16911e-06
6.83384e-06
7.52419e-06
9.38667e-06
1.25811e-05
1.71185e-05
2.29927e-05
2.93815e-05
3.43887e-05
3.69234e-05
3.94822e-05
4.53414e-05
5.58253e-05
7.27037e-05
9.99237e-05
0.000141988
0.000196779
0.000253696
0.000301523
0.000334461
0.000351538
0.000354183
0.000346795
0.000332276
0.00031333
0.000292981
0.00027367
0.000254651
0.0002354
0.000214739
0.000191042
0.000163386
0.000132524
0.000101045
7.25186e-05
4.96489e-05
3.32675e-05
2.25715e-05
1.60175e-05
1.21148e-05
9.76549e-06
8.29975e-06
7.32066e-06
6.59922e-06
6.01092e-06
5.48095e-06
4.98047e-06
4.48562e-06
4.01744e-06
3.55787e-06
3.16271e-06
2.77626e-06
2.4914e-06
2.22605e-06
3.0288e-05
2.21708e-05
1.6588e-05
1.29269e-05
1.05806e-05
9.08748e-06
8.14934e-06
7.87414e-06
8.74697e-06
1.10615e-05
1.50172e-05
2.05164e-05
2.72217e-05
3.40089e-05
3.92693e-05
4.2364e-05
4.56017e-05
5.24649e-05
6.50044e-05
8.58776e-05
0.000119579
0.000169508
0.00023058
0.000290141
0.000337207
0.000367013
0.000379294
0.000376656
0.000363675
0.000343695
0.00031993
0.000296452
0.000275167
0.000255759
0.000237685
0.00021942
0.000198798
0.000174149
0.000145434
0.000114667
8.53263e-05
6.05461e-05
4.18438e-05
2.90185e-05
2.08271e-05
1.58025e-05
1.27325e-05
1.08145e-05
9.55159e-06
8.63848e-06
7.90024e-06
7.22828e-06
6.57436e-06
5.9048e-06
5.244e-06
4.5804e-06
3.98548e-06
3.41826e-06
2.97509e-06
2.6549e-06
3.12043e-05
2.34153e-05
1.80123e-05
1.43418e-05
1.18263e-05
1.01758e-05
9.17111e-06
8.92298e-06
9.94603e-06
1.26832e-05
1.73717e-05
2.37777e-05
3.12414e-05
3.84948e-05
4.4262e-05
4.81237e-05
5.2161e-05
6.01557e-05
7.49682e-05
0.000100051
0.000140087
0.000196889
0.000262663
0.000323561
0.000369158
0.000395584
0.000403028
0.000395135
0.000376645
0.000351331
0.000323169
0.000296834
0.000273611
0.00025369
0.000236571
0.00022055
0.000203044
0.000181696
0.000155661
0.000126309
9.69335e-05
7.09654e-05
5.04826e-05
3.58429e-05
2.6151e-05
2.00435e-05
1.62572e-05
1.38854e-05
1.23445e-05
1.12542e-05
1.03851e-05
9.58841e-06
8.78981e-06
7.93884e-06
7.06072e-06
6.14846e-06
5.29737e-06
4.48403e-06
3.82483e-06
3.41262e-06
3.19402e-05
2.45033e-05
1.93039e-05
1.5714e-05
1.313e-05
1.13502e-05
1.0255e-05
9.98909e-06
1.10964e-05
1.41792e-05
1.95259e-05
2.67747e-05
3.49863e-05
4.28475e-05
4.93614e-05
5.41846e-05
5.91645e-05
6.84002e-05
8.56205e-05
0.000114948
0.000160909
0.000223494
0.000292658
0.000353977
0.00039767
0.000420595
0.00042321
0.000410109
0.000386209
0.000355699
0.000323787
0.000294611
0.000269462
0.0002489
0.000232511
0.000218536
0.000204106
0.000186255
0.000163328
0.000135967
0.000107196
8.06376e-05
5.88493e-05
4.27112e-05
3.16964e-05
2.45959e-05
2.01437e-05
1.73552e-05
1.55731e-05
1.43468e-05
1.33926e-05
1.25182e-05
1.16172e-05
1.06142e-05
9.52865e-06
8.35124e-06
7.20557e-06
6.08667e-06
5.15213e-06
4.60584e-06
3.25285e-05
2.54439e-05
2.04571e-05
1.70087e-05
1.4453e-05
1.26006e-05
1.14163e-05
1.10999e-05
1.22108e-05
1.55309e-05
2.14271e-05
2.94553e-05
3.84478e-05
4.70834e-05
5.45504e-05
6.05163e-05
6.65977e-05
7.71611e-05
9.68353e-05
0.000130281
0.000181588
0.000248892
0.000320386
0.000381469
0.000422973
0.00044233
0.000440155
0.000421912
0.00039272
0.00035743
0.000322173
0.000290194
0.000263147
0.000241839
0.000225963
0.000213796
0.000202312
0.000188046
0.000168553
0.000143675
0.000116062
8.94291e-05
6.67461e-05
4.93927e-05
3.72258e-05
2.92292e-05
2.41734e-05
2.10194e-05
1.90462e-05
1.77384e-05
1.67602e-05
1.58758e-05
1.49442e-05
1.38575e-05
1.26207e-05
1.12096e-05
9.77328e-06
8.31905e-06
7.06852e-06
6.34849e-06
3.2998e-05
2.62506e-05
2.14734e-05
1.82009e-05
1.57558e-05
1.39041e-05
1.2658e-05
1.22781e-05
1.33292e-05
1.67587e-05
2.30737e-05
3.18143e-05
4.16366e-05
5.12088e-05
5.97978e-05
6.70719e-05
7.44213e-05
8.63773e-05
0.000108467
0.000145774
0.000201759
0.000272799
0.000345761
0.000406118
0.00044523
0.000460883
0.000454063
0.000430763
0.000396424
0.000357116
0.000318603
0.000283934
0.000255061
0.00023295
0.000217389
0.000206758
0.000198005
0.0001873
0.000171461
0.000149477
0.000123519
9.72766e-05
7.40675e-05
5.575e-05
4.25803e-05
3.37687e-05
2.8158e-05
2.46796e-05
2.25572e-05
2.12161e-05
2.02714e-05
1.94469e-05
1.85682e-05
1.74921e-05
1.62009e-05
1.46408e-05
1.29765e-05
1.12104e-05
9.64662e-06
8.72817e-06
3.33728e-05
2.69384e-05
2.23598e-05
1.92749e-05
1.70016e-05
1.5229e-05
1.39696e-05
1.35347e-05
1.44991e-05
1.79036e-05
2.44939e-05
3.38673e-05
4.45603e-05
5.52135e-05
6.50581e-05
7.37858e-05
8.25687e-05
9.59666e-05
0.000120363
0.000161175
0.000221134
0.000295017
0.00036874
0.000427982
0.000464544
0.000476411
0.000465053
0.000436806
0.000397813
0.000354956
0.000313315
0.000276134
0.000245562
0.000222646
0.000207243
0.000197865
0.000191554
0.000184272
0.00017219
0.000153426
0.000129567
0.000104149
8.07593e-05
6.17102e-05
4.76698e-05
3.81066e-05
3.19681e-05
2.8183e-05
2.59307e-05
2.45827e-05
2.3709e-05
2.29978e-05
2.22456e-05
2.12758e-05
2.00454e-05
1.84592e-05
1.66843e-05
1.46922e-05
1.28789e-05
1.17662e-05
3.36724e-05
2.75229e-05
2.31269e-05
2.02239e-05
1.816e-05
1.65393e-05
1.53299e-05
1.48687e-05
1.57427e-05
1.90393e-05
2.57306e-05
3.56362e-05
4.72149e-05
5.9054e-05
7.02717e-05
8.05745e-05
9.09444e-05
0.000105829
0.000132367
0.000176263
0.000239489
0.00031541
0.000389291
0.00044709
0.000480966
0.00048899
0.000473185
0.00044021
0.000397293
0.000351069
0.000306509
0.000267051
0.000234967
0.000211312
0.000195959
0.00018756
0.000183349
0.000179244
0.000170903
0.000155591
0.000134216
0.000110028
8.67917e-05
6.72372e-05
5.24519e-05
4.21899e-05
3.55343e-05
3.14377e-05
2.90492e-05
2.76939e-05
2.69011e-05
2.63285e-05
2.575e-05
2.49618e-05
2.38976e-05
2.24166e-05
2.06785e-05
1.85961e-05
1.66557e-05
1.53898e-05
3.39124e-05
2.80184e-05
2.37871e-05
2.10486e-05
1.92081e-05
1.77982e-05
1.67087e-05
1.62673e-05
1.70677e-05
2.02237e-05
2.68524e-05
3.71445e-05
4.95856e-05
6.26721e-05
7.53649e-05
8.73392e-05
9.94157e-05
0.000115846
0.000144333
0.000190852
0.000256655
0.000333882
0.000407393
0.00046345
0.000494505
0.00049864
0.000478477
0.000441411
0.000394925
0.000345566
0.000298356
0.000256908
0.000223553
0.000199288
0.000183939
0.000176276
0.000173792
0.00017253
0.000167791
0.00015606
0.000137488
0.000114904
9.21454e-05
7.23127e-05
5.69109e-05
4.60023e-05
3.88333e-05
3.4406e-05
3.18556e-05
3.04695e-05
2.97417e-05
2.93044e-05
2.89153e-05
2.83506e-05
2.75278e-05
2.62629e-05
2.4705e-05
2.26873e-05
2.07787e-05
1.94339e-05
3.41051e-05
2.84383e-05
2.43533e-05
2.17548e-05
2.01316e-05
1.89718e-05
1.80701e-05
1.77073e-05
1.8469e-05
2.14762e-05
2.7964e-05
3.8422e-05
5.16521e-05
6.60061e-05
8.02523e-05
9.39692e-05
0.000107854
0.00012589
0.000156123
0.000204793
0.000272513
0.000350366
0.000423023
0.000477047
0.000505133
0.00050534
0.000481215
0.000440513
0.000390764
0.000338546
0.000289002
0.000245895
0.00021156
0.000186871
0.000171543
0.000164419
0.000163288
0.000164464
0.000163076
0.00015495
0.000139418
0.000118772
9.68058e-05
7.69254e-05
6.10431e-05
4.95464e-05
4.18701e-05
3.70888e-05
3.43407e-05
3.28859e-05
3.21889e-05
3.18611e-05
3.16487e-05
3.13158e-05
3.07711e-05
2.97956e-05
2.85305e-05
2.67195e-05
2.50048e-05
2.36746e-05
3.42601e-05
2.8794e-05
2.48382e-05
2.23525e-05
2.09245e-05
2.00322e-05
1.9376e-05
1.9157e-05
1.99301e-05
2.28028e-05
2.9097e-05
3.95879e-05
5.33969e-05
6.89887e-05
8.48389e-05
0.000100346
0.000116115
0.000135819
0.000167619
0.000217977
0.000286988
0.000364823
0.000436162
0.000487848
0.000512797
0.00050922
0.000481547
0.000437567
0.000384867
0.000330105
0.000278582
0.000234182
0.000199193
0.000174312
0.000159081
0.000152357
0.000152227
0.000155394
0.000157009
0.000152404
0.000140065
0.000121641
0.000100761
8.10654e-05
6.48481e-05
5.28327e-05
4.46632e-05
3.95085e-05
3.65255e-05
3.49586e-05
3.42489e-05
3.39908e-05
3.39229e-05
3.38032e-05
3.35382e-05
3.28843e-05
3.1981e-05
3.04831e-05
2.90986e-05
2.78781e-05
3.43852e-05
2.90957e-05
2.52536e-05
2.28539e-05
2.15882e-05
2.09591e-05
2.05893e-05
2.05785e-05
2.14237e-05
2.41962e-05
3.02704e-05
4.06861e-05
5.49067e-05
7.15542e-05
8.90237e-05
0.000106346
0.000124042
0.000145483
0.000178715
0.000230334
0.000300052
0.000377235
0.00044679
0.000495769
0.000517491
0.000510422
0.000479552
0.000432626
0.000377295
0.000320335
0.000267218
0.000221918
0.000186631
0.000161822
0.000146811
0.000140407
0.000140968
0.000145668
0.00014986
0.000148592
0.000139505
0.000123526
0.000104005
8.47233e-05
6.83247e-05
5.58715e-05
4.72347e-05
4.16955e-05
3.84459e-05
3.67251e-05
3.59571e-05
3.57232e-05
3.57568e-05
3.58142e-05
3.58046e-05
3.54697e-05
3.49537e-05
3.3832e-05
3.28719e-05
3.18432e-05
3.44863e-05
2.93516e-05
2.56104e-05
2.32721e-05
2.21299e-05
2.17406e-05
2.16776e-05
2.19308e-05
2.2914e-05
2.56366e-05
3.149e-05
4.17387e-05
5.62241e-05
7.37408e-05
9.26906e-05
0.000111846
0.000131486
0.000154731
0.000189325
0.000241841
0.000311722
0.00038757
0.000454689
0.000500808
0.000519358
0.000509063
0.000475303
0.000425747
0.000368117
0.000309332
0.000255032
0.000209246
0.000174029
0.000149574
0.000134938
0.000128832
0.000129831
0.000135618
0.000141915
0.00014371
0.000137839
0.000124463
0.000106537
8.78903e-05
7.14697e-05
5.86705e-05
4.96039e-05
4.36805e-05
4.0141e-05
3.82305e-05
3.73622e-05
3.71076e-05
3.71964e-05
3.73858e-05
3.75911e-05
3.75476e-05
3.74097e-05
3.6687e-05
3.62001e-05
3.54242e-05
3.45682e-05
2.95691e-05
2.59176e-05
2.36201e-05
2.25613e-05
2.23737e-05
2.26152e-05
2.31734e-05
2.43587e-05
2.70928e-05
3.27479e-05
4.27604e-05
5.73567e-05
7.55803e-05
9.58214e-05
0.000116724
0.000138305
0.000163415
0.000199376
0.000252516
0.000321706
0.000395609
0.000459966
0.000503103
0.000518521
0.000505248
0.000468874
0.000416996
0.000357415
0.0002972
0.000242148
0.000196302
0.000161527
0.000137711
0.000123622
0.000117835
0.000119082
0.00012555
0.000133483
0.000137969
0.000135185
0.000124497
0.000108364
9.05597e-05
7.42781e-05
6.12334e-05
5.17858e-05
4.54904e-05
4.16471e-05
3.95193e-05
3.85152e-05
3.81992e-05
3.82987e-05
3.85733e-05
3.89456e-05
3.91512e-05
3.93576e-05
3.90248e-05
3.90204e-05
3.8535e-05
3.46345e-05
2.97541e-05
2.61832e-05
2.39104e-05
2.28966e-05
2.28632e-05
2.33856e-05
2.42696e-05
2.57122e-05
2.85242e-05
3.40226e-05
4.3756e-05
5.83141e-05
7.7053e-05
9.84272e-05
0.000120952
0.000144373
0.000171399
0.000208664
0.000261991
0.000329921
0.000401399
0.000462731
0.000502786
0.000515094
0.000499075
0.000460344
0.000406453
0.000345281
0.000284052
0.000228695
0.00018322
0.000149251
0.000126349
0.000112983
0.000107568
0.000108934
0.000115731
0.000124831
0.000131586
0.000131679
0.000123692
0.000109502
9.27285e-05
7.67441e-05
6.35604e-05
5.379e-05
4.71454e-05
4.29942e-05
4.06305e-05
3.94627e-05
3.90513e-05
3.91219e-05
3.94374e-05
3.99276e-05
4.03334e-05
4.08364e-05
4.08627e-05
4.13196e-05
4.11411e-05
3.46884e-05
2.99117e-05
2.64138e-05
2.41539e-05
2.31513e-05
2.32199e-05
2.39819e-05
2.51896e-05
2.69294e-05
2.98834e-05
3.52802e-05
4.47184e-05
5.9105e-05
7.81498e-05
0.000100457
0.000124468
0.000149625
0.000178449
0.000216906
0.000270107
0.000336325
0.000404998
0.000463097
0.000499987
0.000509221
0.000490647
0.000449805
0.00039421
0.000331824
0.000270013
0.000214809
0.00017013
0.000137318
0.000115583
0.000103106
9.81317e-05
9.95411e-05
0.000106383
0.000116206
0.00012478
0.00012747
0.000122126
0.00010998
9.43983e-05
7.88624e-05
6.56491e-05
5.56215e-05
4.86577e-05
4.42051e-05
4.15958e-05
4.02445e-05
3.97109e-05
3.97195e-05
4.00367e-05
4.05989e-05
4.11552e-05
4.1901e-05
4.22424e-05
4.31191e-05
4.32465e-05
3.47322e-05
3.00459e-05
2.66148e-05
2.43601e-05
2.3341e-05
2.34595e-05
2.44065e-05
2.59132e-05
2.79697e-05
3.11203e-05
3.64767e-05
4.56282e-05
5.9734e-05
7.88714e-05
0.000101877
0.000127186
0.000153952
0.000184401
0.000223895
0.000276722
0.000340892
0.000406474
0.000461177
0.000494831
0.000501036
0.000480074
0.000437358
0.000380378
0.000317168
0.000255222
0.000200633
0.000157166
0.000125832
0.000105489
9.40471e-05
8.95892e-05
9.10069e-05
9.76757e-05
0.000107825
0.000117759
0.000122713
0.000119888
0.000109834
9.55773e-05
8.06297e-05
6.7496e-05
5.72815e-05
5.00361e-05
4.52964e-05
4.24393e-05
4.08925e-05
4.02171e-05
4.01377e-05
4.04239e-05
4.10177e-05
4.16778e-05
4.26122e-05
4.32188e-05
4.44618e-05
4.4881e-05
3.47678e-05
3.01605e-05
2.67908e-05
2.45369e-05
2.34801e-05
2.36005e-05
2.46702e-05
2.6431e-05
2.88001e-05
3.21857e-05
3.75616e-05
4.64541e-05
6.01989e-05
7.92249e-05
0.000102671
0.000129048
0.000157266
0.000189128
0.000229457
0.000281712
0.000343605
0.000405894
0.000457079
0.000487437
0.000490668
0.000467471
0.000423122
0.000365083
0.000301453
0.00023983
0.000186316
0.000144456
0.000114888
9.61279e-05
8.58413e-05
8.19698e-05
8.33906e-05
8.97319e-05
9.98669e-05
0.000110717
0.000117566
0.000117077
0.000109112
9.62797e-05
8.20456e-05
6.90973e-05
5.87691e-05
5.12849e-05
4.6279e-05
4.3179e-05
4.14311e-05
4.06013e-05
4.04147e-05
4.06441e-05
4.12355e-05
4.1958e-05
4.30299e-05
4.3851e-05
4.54018e-05
4.60894e-05
3.47968e-05
3.02583e-05
2.69454e-05
2.46906e-05
2.35816e-05
2.36624e-05
2.47907e-05
2.67447e-05
2.93982e-05
3.30359e-05
3.84816e-05
4.71546e-05
6.04883e-05
7.92201e-05
0.000102837
0.000130016
0.000159494
0.000192547
0.00023346
0.00028497
0.000344445
0.000403321
0.000450907
0.000477922
0.000478244
0.000452964
0.000407228
0.00034847
0.000284835
0.000224
0.000172011
0.000132122
0.000104569
8.75426e-05
7.85045e-05
7.52782e-05
7.67148e-05
8.26284e-05
9.24731e-05
0.000103825
0.000112183
0.000113799
0.000107871
9.65271e-05
8.31133e-05
7.04504e-05
6.00821e-05
5.24058e-05
4.71594e-05
4.38272e-05
4.18788e-05
4.0888e-05
4.05814e-05
4.07346e-05
4.12965e-05
4.20464e-05
4.32102e-05
4.4197e-05
4.59968e-05
4.69239e-05
3.48203e-05
3.03418e-05
2.70815e-05
2.48263e-05
2.36566e-05
2.36644e-05
2.47897e-05
2.68663e-05
2.97542e-05
3.36364e-05
3.9186e-05
4.76821e-05
6.0581e-05
7.88656e-05
0.000102387
0.000130073
0.000160583
0.000194606
0.000235825
0.000286415
0.000343398
0.00039881
0.000442756
0.000466395
0.000463891
0.000436691
0.000389827
0.000330699
0.000267486
0.000207904
0.000157873
0.00012028
9.49446e-05
7.97633e-05
7.20381e-05
6.95017e-05
7.09753e-05
7.64038e-05
8.57445e-05
9.72301e-05
0.000106706
0.000110161
0.000106172
9.63473e-05
8.38405e-05
7.15542e-05
6.12181e-05
5.33985e-05
4.79414e-05
4.43922e-05
4.22489e-05
4.10958e-05
4.06619e-05
4.07258e-05
4.12376e-05
4.19862e-05
4.32027e-05
4.4311e-05
4.6304e-05
4.74387e-05
3.48394e-05
3.04132e-05
2.72016e-05
2.49476e-05
2.3714e-05
2.36244e-05
2.46919e-05
2.68164e-05
2.98715e-05
3.39657e-05
3.96313e-05
4.79873e-05
6.04477e-05
7.81659e-05
0.000101342
0.000129221
0.000160498
0.000195278
0.000236526
0.000286002
0.000340455
0.000392408
0.000432714
0.00045296
0.000447743
0.000418803
0.000371086
0.000311951
0.00024959
0.000191721
0.000144051
0.000109033
8.6069e-05
7.28066e-05
6.64322e-05
6.46154e-05
6.61488e-05
7.10663e-05
7.97463e-05
9.10477e-05
0.000101268
0.000106272
0.000104085
9.57743e-05
8.42392e-05
7.24103e-05
6.21755e-05
5.42622e-05
4.86266e-05
4.48794e-05
4.2551e-05
4.12388e-05
4.06754e-05
4.06419e-05
4.10888e-05
4.18138e-05
4.30506e-05
4.42415e-05
4.63767e-05
4.76864e-05
3.4855e-05
3.04743e-05
2.73078e-05
2.50573e-05
2.37608e-05
2.35579e-05
2.4522e-05
2.66219e-05
2.97654e-05
3.40165e-05
3.97856e-05
4.80247e-05
6.00542e-05
7.71198e-05
9.97288e-05
0.000127481
0.000159225
0.00019455
0.000235579
0.000283731
0.000335625
0.000384162
0.000420866
0.000437719
0.00042994
0.000399467
0.000351188
0.000292417
0.000231345
0.000175634
0.000130689
9.84708e-05
7.79831e-05
6.66772e-05
6.16685e-05
6.05872e-05
6.22006e-05
6.66018e-05
7.45128e-05
8.53669e-05
9.59826e-05
0.000102234
0.000101682
9.48474e-05
8.43261e-05
7.30231e-05
6.29538e-05
5.49958e-05
4.92158e-05
4.52923e-05
4.27919e-05
4.13275e-05
4.06363e-05
4.05021e-05
4.08746e-05
4.15593e-05
4.27904e-05
4.40307e-05
4.62633e-05
4.77162e-05
3.48676e-05
3.05266e-05
2.74018e-05
2.51575e-05
2.38022e-05
2.3478e-05
2.43038e-05
2.63131e-05
2.9462e-05
3.37971e-05
3.96322e-05
4.77583e-05
5.93663e-05
7.57214e-05
9.75749e-05
0.000124892
0.000156773
0.00019242
0.000233031
0.000279655
0.000328945
0.000374131
0.000407298
0.000420775
0.000410639
0.000378869
0.000330333
0.000272303
0.000212953
0.000159824
0.000117918
8.86678e-05
7.07128e-05
6.13694e-05
5.77228e-05
5.73816e-05
5.90902e-05
6.29815e-05
7.00538e-05
8.02503e-05
9.09464e-05
9.81443e-05
9.90343e-05
9.36101e-05
8.41218e-05
7.33999e-05
6.35543e-05
5.55988e-05
4.97092e-05
4.56333e-05
4.29766e-05
4.13699e-05
4.0556e-05
4.03215e-05
4.06144e-05
4.12473e-05
4.24526e-05
4.3715e-05
4.60066e-05
4.75726e-05
3.48777e-05
3.05715e-05
2.74851e-05
2.52496e-05
2.38415e-05
2.33947e-05
2.40583e-05
2.59217e-05
2.89949e-05
3.33298e-05
3.91715e-05
4.71659e-05
5.83554e-05
7.39628e-05
9.49095e-05
0.000121503
0.000153171
0.000188899
0.000228943
0.000273868
0.000320498
0.000362392
0.00039211
0.000402236
0.000390022
0.000357211
0.000308736
0.000251826
0.000194622
0.000144466
0.000105857
7.96802e-05
6.42702e-05
5.68692e-05
5.45677e-05
5.49629e-05
5.67766e-05
6.0169e-05
6.6361e-05
7.57373e-05
8.62374e-05
9.40896e-05
9.62138e-05
9.21086e-05
8.3651e-05
7.35515e-05
6.39804e-05
5.60722e-05
5.01075e-05
4.59041e-05
4.31089e-05
4.13722e-05
4.04436e-05
4.01121e-05
4.03241e-05
4.08977e-05
4.20624e-05
4.33248e-05
4.56434e-05
4.72952e-05
3.4886e-05
3.06099e-05
2.75589e-05
2.53346e-05
2.38811e-05
2.33158e-05
2.38036e-05
2.5478e-05
2.84021e-05
3.26488e-05
3.8421e-05
4.62429e-05
5.70039e-05
7.18384e-05
9.17619e-05
0.000117374
0.000148475
0.000184008
0.000223372
0.000266492
0.000310405
0.000349063
0.00037543
0.000382428
0.000368301
0.000334715
0.000286618
0.000231206
0.000176559
0.000129722
9.46023e-05
7.15468e-05
5.86549e-05
5.31565e-05
5.21746e-05
5.32982e-05
5.52216e-05
5.8126e-05
6.34148e-05
7.18485e-05
8.19162e-05
9.01472e-05
9.32893e-05
9.03911e-05
8.29415e-05
7.34912e-05
6.42377e-05
5.64179e-05
5.04118e-05
4.61067e-05
4.31922e-05
4.13396e-05
4.03061e-05
3.98836e-05
4.00161e-05
4.05266e-05
4.16405e-05
4.28857e-05
4.52052e-05
4.69185e-05
3.48926e-05
3.0643e-05
2.76243e-05
2.54131e-05
2.3922e-05
2.32462e-05
2.3554e-05
2.50096e-05
2.77232e-05
3.17971e-05
3.74144e-05
4.50038e-05
5.53102e-05
6.93502e-05
8.8164e-05
0.000112576
0.000142764
0.000177791
0.00021637
0.000257654
0.000298826
0.000334297
0.000357413
0.000361533
0.000345698
0.000311608
0.000264207
0.000210664
0.000158965
0.00011574
8.42322e-05
6.4289e-05
5.38561e-05
5.02067e-05
5.05161e-05
5.23588e-05
5.43929e-05
5.68166e-05
6.11896e-05
6.85903e-05
7.80272e-05
8.63833e-05
9.03254e-05
8.85061e-05
8.20235e-05
7.32355e-05
6.43342e-05
5.66397e-05
5.06244e-05
4.62433e-05
4.32294e-05
4.12763e-05
4.01495e-05
3.96438e-05
3.97007e-05
4.01472e-05
4.12036e-05
4.24187e-05
4.47185e-05
4.64719e-05
3.48979e-05
3.06715e-05
2.76824e-05
2.54858e-05
2.39649e-05
2.31892e-05
2.33203e-05
2.45401e-05
2.69961e-05
3.08223e-05
3.61979e-05
4.34818e-05
5.32918e-05
6.65128e-05
8.41535e-05
0.000107188
0.000136137
0.000170319
0.000207984
0.000247462
0.000285928
0.000318277
0.00033824
0.000339743
0.000322442
0.000288119
0.000241726
0.000190422
0.000142031
0.000102647
7.48025e-05
5.79126e-05
4.98539e-05
4.79936e-05
4.95679e-05
5.21227e-05
5.42663e-05
5.62108e-05
5.96587e-05
6.59595e-05
7.46013e-05
8.28532e-05
8.73812e-05
8.65016e-05
8.09292e-05
7.2803e-05
6.42798e-05
5.6743e-05
5.07485e-05
4.63167e-05
4.32239e-05
4.11866e-05
3.99789e-05
3.93992e-05
3.9386e-05
3.97698e-05
4.07652e-05
4.1941e-05
4.42053e-05
4.59806e-05
3.49022e-05
3.06961e-05
2.7734e-05
2.5553e-05
2.40096e-05
2.3146e-05
2.31096e-05
2.40881e-05
2.62551e-05
2.97727e-05
3.48262e-05
4.17264e-05
5.09856e-05
6.33574e-05
7.9778e-05
0.000101295
0.000128716
0.000161696
0.000198271
0.000236001
0.000271866
0.000301194
0.000318104
0.000317267
0.000298757
0.000264468
0.000219395
0.000170694
0.000125936
9.0548e-05
6.63477e-05
5.24085e-05
4.66224e-05
4.64914e-05
4.931e-05
5.25752e-05
5.48268e-05
5.62876e-05
5.87987e-05
6.39471e-05
7.16587e-05
7.9602e-05
8.45102e-05
8.44241e-05
7.96917e-05
7.22145e-05
6.40866e-05
5.67347e-05
5.07886e-05
4.63305e-05
4.31792e-05
4.10743e-05
3.97992e-05
3.91555e-05
3.9079e-05
3.94031e-05
4.03365e-05
4.14665e-05
4.36836e-05
4.54656e-05
3.49056e-05
3.07174e-05
2.77798e-05
2.5615e-05
2.40557e-05
2.31169e-05
2.29264e-05
2.36677e-05
2.55291e-05
2.86942e-05
3.33576e-05
3.97992e-05
4.84471e-05
5.99338e-05
7.50983e-05
9.49962e-05
0.000120643
0.000152062
0.000187313
0.000223336
0.000256757
0.000283216
0.000297178
0.000294308
0.000274848
0.000240861
0.000197428
0.000151689
0.000110836
7.95206e-05
5.88811e-05
4.77557e-05
4.41319e-05
4.56762e-05
4.97285e-05
5.37102e-05
5.60704e-05
5.70365e-05
5.85922e-05
6.25427e-05
6.92114e-05
7.66656e-05
8.17595e-05
8.23177e-05
7.83444e-05
7.14923e-05
6.37684e-05
5.66235e-05
5.07505e-05
4.62892e-05