/*--------------------------------*- C++ -*----------------------------------*\
| =========                 |                                                 |
| \\      /  F ield         | OpenFOAM: The Open Source CFD Toolbox           |
|  \\    /   O peration     | Version:  2.4.0                                 |
|   \\  /    A nd           | Web:      www.OpenFOAM.org                      |
|    \\/     M anipulation  |                                                 |
\*---------------------------------------------------------------------------*/
FoamFile
{
    version     2.0;
    format      ascii;
    class       volScalarField;
    location    "90";
    object      k;
}
// * * * * * * * * * * * * * * * * * * * * * * * * * * * * * * * * * * * * * //

dimensions      [0 2 -2 0 0 0 0];

internalField   nonuniform List<scalar> 
6000
(
0.0139164
0.00615441
0.00169488
0.00128065
0.00132383
0.00157307
0.00187725
0.00201159
0.00193029
0.0014005
0.00165829
0.00187967
0.00205318
0.00213127
0.00203917
0.00180517
0.0017352
0.00123546
0.0020526
0.00330362
0.00419885
0.00477909
0.00508665
0.00515995
0.00503964
0.00477086
0.00439746
0.00398426
0.00357111
0.00317621
0.00281083
0.00248137
0.00219167
0.00194516
0.00174953
0.00157287
0.00140481
0.00124577
0.00109533
0.000953266
0.000815444
0.000673548
0.000600891
0.000689656
0.000800457
0.000931771
0.00108386
0.001259
0.00145957
0.00168929
0.00195304
0.00225802
0.00261339
0.00303301
0.00353189
0.00414398
0.00487767
0.00587597
0.0069218
0.00922797
0.0108026
0.00615895
0.00349624
0.00199543
0.00174651
0.00185709
0.00218864
0.00270154
0.00312821
0.00271627
0.00236333
0.00205162
0.00176882
0.00151021
0.0012904
0.00116428
0.00150063
0.00181293
0.00166935
0.00181403
0.00184439
0.00183135
0.00180343
0.00177322
0.00174688
0.00173031
0.00173093
0.0017331
0.00172894
0.00171795
0.00170033
0.00167685
0.00164881
0.00161795
0.00158608
0.00155272
0.00151815
0.0014836
0.00144871
0.00141295
0.00136781
0.00128481
0.00120042
0.00118619
0.00118238
0.00118553
0.00119444
0.00120914
0.00123025
0.00125893
0.00129687
0.00134634
0.00141048
0.00149333
0.00160117
0.00173994
0.00192803
0.00215279
0.00252161
0.00265624
0.0105285
0.00644123
0.00416024
0.00298334
0.00253412
0.00252374
0.00282641
0.00336355
0.00369841
0.0031383
0.00271674
0.00232811
0.00199311
0.00171381
0.00148089
0.00139982
0.00211471
0.00172889
0.00140179
0.00137817
0.00139841
0.00145835
0.0015403
0.00162979
0.00171749
0.00179751
0.00186447
0.00191458
0.00194777
0.00196482
0.00196728
0.00195728
0.00193734
0.00191012
0.00187794
0.0018427
0.00180558
0.00176766
0.00172827
0.00168473
0.00162025
0.00150335
0.0014293
0.00139335
0.00136598
0.00134409
0.00132646
0.00131268
0.00130277
0.00129707
0.00129613
0.00130069
0.00131176
0.00133058
0.00135925
0.00139924
0.00145705
0.00152643
0.00165225
0.00167977
0.0106755
0.00664615
0.00447006
0.00361595
0.00334142
0.00315747
0.00333894
0.00377824
0.00391069
0.00334439
0.00291709
0.00251969
0.00219245
0.00194687
0.0017756
0.00183446
0.00253467
0.00157798
0.001328
0.00135722
0.00145627
0.00157923
0.0016998
0.00180859
0.00190359
0.00198334
0.0020448
0.00208945
0.00211721
0.00212893
0.00212627
0.00211151
0.00208717
0.00205591
0.00201998
0.00198118
0.00194052
0.00189849
0.00185378
0.00180057
0.00171271
0.00159632
0.00153394
0.00149109
0.00145531
0.00142465
0.00139826
0.0013757
0.00135694
0.00134211
0.00133154
0.00132566
0.00132508
0.00133047
0.00134326
0.00136409
0.00139744
0.00144028
0.00152107
0.00157609
0.0107856
0.00678543
0.0046277
0.00392382
0.00409556
0.00378483
0.00377631
0.00405853
0.0039875
0.0034642
0.00304277
0.00265717
0.00235715
0.00216336
0.00208985
0.0023428
0.00259088
0.00150328
0.00137176
0.00146724
0.00160273
0.00173238
0.00184335
0.00193687
0.00201619
0.00208127
0.00213005
0.00216361
0.00218173
0.00218535
0.00217617
0.00215644
0.00212855
0.00209491
0.00205747
0.0020176
0.00197587
0.00193199
0.00188373
0.00182118
0.00171678
0.00162303
0.00157046
0.00152777
0.00149048
0.00145771
0.00142901
0.00140408
0.00138297
0.00136582
0.001353
0.00134493
0.00134228
0.00134569
0.00135677
0.0013759
0.00140893
0.00145062
0.00153918
0.00160615
0.0108496
0.00688333
0.00471245
0.00404286
0.00466137
0.00442405
0.00418214
0.00426812
0.00403827
0.00355146
0.00312548
0.00275497
0.00249245
0.00236594
0.00242335
0.00285445
0.00244466
0.00149217
0.0014664
0.00159906
0.00173528
0.00184719
0.0019353
0.00200659
0.00206616
0.00211404
0.00214831
0.00216909
0.00217627
0.00217095
0.00215493
0.00213039
0.00209951
0.00206437
0.00202652
0.00198682
0.00194527
0.00190082
0.00185
0.00177857
0.00167336
0.00160614
0.00156282
0.00152403
0.00148903
0.00145771
0.00143001
0.00140578
0.0013852
0.0013685
0.00135615
0.00134866
0.00134686
0.00135149
0.00136458
0.00138631
0.0014246
0.00147049
0.00157772
0.00164715
0.0108852
0.0069529
0.00476018
0.00405772
0.00496945
0.00505335
0.00458519
0.00444432
0.0041086
0.00363752
0.00318562
0.00282205
0.00260147
0.00255792
0.00277548
0.00325791
0.0022341
0.00152089
0.0015725
0.001716
0.00183599
0.00192326
0.00198668
0.00203571
0.00207591
0.00210698
0.0021266
0.00213411
0.0021297
0.00211479
0.00209132
0.00206148
0.00202724
0.00199038
0.001952
0.00191247
0.00187127
0.0018266
0.00177335
0.00169407
0.00160501
0.00155932
0.00152491
0.00149188
0.00146127
0.00143343
0.00140859
0.00138677
0.00136826
0.00135339
0.00134276
0.00133702
0.00133716
0.0013441
0.00136025
0.00138575
0.00143044
0.00148185
0.00160834
0.00167743
0.0109022
0.00700225
0.0047888
0.00401994
0.00505093
0.00559742
0.00499959
0.00460714
0.00420995
0.00374218
0.00323972
0.00286652
0.0026872
0.00274181
0.00313449
0.00343846
0.0020447
0.00157007
0.00167106
0.00180951
0.00190766
0.00197056
0.00201162
0.00204107
0.0020642
0.00208004
0.0020856
0.00207976
0.0020632
0.00203785
0.00200593
0.0019697
0.00193101
0.00189137
0.0018515
0.00181131
0.00176983
0.00172456
0.00166839
0.00158581
0.00152231
0.00149177
0.00146572
0.00143925
0.00141409
0.00139086
0.00136996
0.00135154
0.00133599
0.00132374
0.0013155
0.00131205
0.00131457
0.00132414
0.00134357
0.00137301
0.00142394
0.00148108
0.00162465
0.00169338
0.0109069
0.00703749
0.00480769
0.00395953
0.00497364
0.00597125
0.0054167
0.00476331
0.00433825
0.00387636
0.00330242
0.00289662
0.00275322
0.00291847
0.00347531
0.00337594
0.00191325
0.00162656
0.00175521
0.00188102
0.00195751
0.00199946
0.0020224
0.0020362
0.00204535
0.00204804
0.0020403
0.00202104
0.0019917
0.00195489
0.00191326
0.00186924
0.00182464
0.00178073
0.0017379
0.00169575
0.00165291
0.00160605
0.00154621
0.00146925
0.00142988
0.00141009
0.00139155
0.00137171
0.00135242
0.00133435
0.001318
0.00130357
0.00129154
0.00128239
0.00127693
0.00127606
0.00128113
0.00129338
0.00131595
0.00134915
0.0014057
0.00146836
0.00162616
0.00169547
0.0109037
0.00706309
0.00482184
0.00389328
0.00479659
0.00613692
0.00578964
0.00490823
0.00448266
0.0040434
0.0033861
0.00292045
0.00280333
0.00308722
0.00376136
0.00315511
0.00182877
0.00168278
0.00182429
0.0019351
0.001993
0.00201896
0.00202885
0.00203134
0.00202976
0.00202127
0.0020009
0.00196805
0.00192525
0.00187595
0.00182337
0.00177018
0.00171817
0.00166844
0.00162111
0.00157553
0.00152994
0.00148008
0.00141605
0.0013545
0.00133185
0.00131953
0.0013073
0.00129359
0.00128004
0.00126725
0.00125569
0.00124558
0.0012374
0.00123168
0.00122928
0.00123117
0.00123884
0.00125371
0.00127919
0.0013158
0.00137718
0.00144497
0.0016141
0.00168517
0.0108958
0.00708215
0.0048339
0.0038301
0.0045662
0.00610996
0.00604169
0.00503194
0.00462773
0.00424037
0.0035002
0.00294548
0.00284097
0.00324548
0.00395136
0.00285924
0.00177859
0.00173521
0.0018804
0.00197696
0.0020208
0.00203636
0.00203842
0.00203387
0.00202455
0.00200656
0.001974
0.00192731
0.00187035
0.00180763
0.00174302
0.0016795
0.00161884
0.00156198
0.00150881
0.00145846
0.00140873
0.00135432
0.00128855
0.00124633
0.00123239
0.00122469
0.00121718
0.0012086
0.00120019
0.00119237
0.00118553
0.0011798
0.00117564
0.00117355
0.00117438
0.00117917
0.00118949
0.00120691
0.00123503
0.00127466
0.00134004
0.00141246
0.00159022
0.00166413
0.0108854
0.00709677
0.00484525
0.00377428
0.00431621
0.00592356
0.00613251
0.00510997
0.00475336
0.0044599
0.00365095
0.00297855
0.00286871
0.00338923
0.00398761
0.0025617
0.00175295
0.00178292
0.00192666
0.00201151
0.00204653
0.00205734
0.00205659
0.00204888
0.00203449
0.00200832
0.00196379
0.00190281
0.00183091
0.00175389
0.00167636
0.00160163
0.00153141
0.00146652
0.0014066
0.00135048
0.00129541
0.00123522
0.00117439
0.00114631
0.00113562
0.00112993
0.00112524
0.00112032
0.00111598
0.00111241
0.00110981
0.00110824
0.00110803
0.00110961
0.00111379
0.00112158
0.00113459
0.00115449
0.00118502
0.0012273
0.00129588
0.00137238
0.00155627
0.00163396
0.0108736
0.00710836
0.00485662
0.00372751
0.00406942
0.00561993
0.00605368
0.00511748
0.00484162
0.00469211
0.00384161
0.00302617
0.00288802
0.00350487
0.00383842
0.00231392
0.00174486
0.00182641
0.00196635
0.0020431
0.00207476
0.00208631
0.00208738
0.00208006
0.00206292
0.00202948
0.00197277
0.00189667
0.00180882
0.00171651
0.00162521
0.00153856
0.00145822
0.00138481
0.00131767
0.00125522
0.001194
0.00112846
0.00107858
0.00105623
0.0010453
0.00103933
0.00103544
0.00103241
0.00103067
0.00103017
0.00103096
0.00103295
0.00103632
0.00104139
0.00104886
0.00105967
0.00107538
0.00109772
0.00113046
0.00117506
0.00124612
0.00132611
0.00151392
0.00159611
0.0108613
0.00711789
0.0048683
0.00369002
0.00383989
0.00524283
0.00582295
0.00503811
0.00487831
0.004926
0.00407301
0.0030949
0.00289961
0.00357976
0.00355721
0.00212385
0.0017497
0.00186688
0.00200263
0.00207547
0.00210925
0.00212674
0.00213398
0.00213026
0.00211236
0.00207189
0.00200213
0.00190953
0.00180428
0.00169546
0.00158946
0.00149025
0.00139938
0.00131726
0.00124278
0.00117377
0.00110619
0.00103973
0.000999773
0.000977473
0.000964225
0.000956249
0.000951351
0.000948423
0.000947599
0.000948706
0.000951643
0.000956207
0.000962435
0.000970504
0.000980962
0.000994635
0.00101297
0.00103767
0.00107247
0.00111908
0.00119199
0.00127489
0.00146466
0.00155188
0.0108489
0.00712602
0.00488043
0.00366126
0.00363526
0.00483199
0.00547487
0.00486832
0.00485382
0.00515046
0.00434389
0.00319143
0.00290336
0.00359662
0.00321334
0.0019847
0.00176457
0.00190583
0.00203833
0.00211185
0.00215311
0.00218152
0.00219898
0.00220172
0.00218449
0.00213645
0.002052
0.00194086
0.00181632
0.00168947
0.00156768
0.00145523
0.00135349
0.00126256
0.00118079
0.00110524
0.00103175
0.000970837
0.000934778
0.000910262
0.000893776
0.000882798
0.000875628
0.000871311
0.000869847
0.000871021
0.000874669
0.000880537
0.000888557
0.000898788
0.000911625
0.000927746
0.00094844
0.000975323
0.00101199
0.00106035
0.00113454
0.00121978
0.00140982
0.00150238
0.0108369
0.00713321
0.00489299
0.00364035
0.00345861
0.00441991
0.00505126
0.00461726
0.00476364
0.00535481
0.00465119
0.00332252
0.0028986
0.00353278
0.00286638
0.00188832
0.00178774
0.00194482
0.00207603
0.00215498
0.00220901
0.00225315
0.00228458
0.00229608
0.00228007
0.00222334
0.00212175
0.00198945
0.00184334
0.00169669
0.00155787
0.0014314
0.00131844
0.0012186
0.00112957
0.00104764
0.000971301
0.000917663
0.000881044
0.000853724
0.000833892
0.000819634
0.00080959
0.000802962
0.000799709
0.000799649
0.000802642
0.000808461
0.000817012
0.000828295
0.000842593
0.00086045
0.000882985
0.000911679
0.00094991
0.000999718
0.0010747
0.00116173
0.00135058
0.00144861
0.0108254
0.00713975
0.00490594
0.00362626
0.0033101
0.00403048
0.0045934
0.00430347
0.00460853
0.0055292
0.0049902
0.0034948
0.00288637
0.00337499
0.00255791
0.00182738
0.00181819
0.00198542
0.00211803
0.00220733
0.00227934
0.00234387
0.00239274
0.00241472
0.00239974
0.00233225
0.00221033
0.00205378
0.00188352
0.00171515
0.00155796
0.00141667
0.00129208
0.00118317
0.00108686
0.000998857
0.000925189
0.0008748
0.000836302
0.000806315
0.000783479
0.000766173
0.000753231
0.000743972
0.000738338
0.000736209
0.000737513
0.000742115
0.000749969
0.000761096
0.00077574
0.000794366
0.000817953
0.000847848
0.000887175
0.000938016
0.00101329
0.00110155
0.00128799
0.00139143
0.0108144
0.00714586
0.00491919
0.00361798
0.00318807
0.00367906
0.00413681
0.00394763
0.00439399
0.00566496
0.00535462
0.00371436
0.00287003
0.00313531
0.00231119
0.00179597
0.00185535
0.00202914
0.00216645
0.00227112
0.00236631
0.00245577
0.00252519
0.00255878
0.00254403
0.00246255
0.00231653
0.0021323
0.00193516
0.00174305
0.00156613
0.00140917
0.00127251
0.00115431
0.00105069
0.000958507
0.000890098
0.000839171
0.000798613
0.000766322
0.000740986
0.000721104
0.000705602
0.000693849
0.000685752
0.000681236
0.000680294
0.000682896
0.00068909
0.00069898
0.000712848
0.000731156
0.000754811
0.000785065
0.000824801
0.000876105
0.000951111
0.00104
0.00122301
0.00133163
0.0108042
0.00715168
0.00493266
0.00361457
0.00308993
0.00337363
0.00370833
0.00357812
0.00412956
0.0057548
0.0057366
0.00398637
0.00285374
0.00286367
0.00212571
0.0017895
0.00189902
0.00207748
0.00222325
0.00234846
0.00247205
0.00259084
0.00268346
0.0027291
0.00271292
0.00261342
0.00243906
0.0022235
0.00199666
0.0017788
0.00158082
0.00140737
0.0012582
0.00113049
0.00101956
0.000927773
0.000861568
0.000808917
0.000766423
0.000732201
0.000704852
0.000682907
0.000665316
0.000651444
0.00064114
0.000634327
0.000631033
0.000631303
0.000635278
0.000643166
0.000655331
0.000672303
0.000694991
0.000724623
0.000763898
0.000814912
0.000888985
0.000977838
0.00115651
0.00126989
0.0107946
0.00715729
0.00494626
0.00361517
0.00301268
0.00311641
0.00332532
0.00321435
0.00382756
0.00579326
0.0061269
0.00431453
0.00284353
0.00259948
0.00199593
0.00180442
0.00194926
0.00213194
0.00229031
0.00244139
0.00259866
0.00275098
0.00286897
0.00292634
0.0029062
0.00278388
0.00257656
0.00232591
0.00206658
0.00182101
0.00160072
0.00141002
0.00124793
0.0011105
0.000993448
0.000904957
0.000837438
0.000782806
0.000738548
0.0007027
0.000673738
0.000650181
0.00063096
0.000615407
0.000603294
0.000594507
0.000589066
0.000587049
0.000588651
0.000594162
0.000604036
0.000618893
0.000639703
0.000667737
0.000705593
0.000755418
0.00082776
0.000915789
0.0010893
0.00120686
0.0107857
0.00716276
0.0049599
0.00361905
0.00295328
0.00290557
0.00299649
0.00287643
0.00350341
0.00577707
0.00651514
0.00470033
0.00285137
0.00237175
0.00191555
0.00183802
0.0020064
0.00219403
0.00236952
0.00255198
0.00274822
0.00293804
0.00308301
0.00315097
0.00312344
0.00297276
0.0027276
0.00243808
0.00214355
0.00186844
0.0016247
0.00141609
0.00124071
0.00109345
0.000974438
0.000886557
0.000816613
0.000759978
0.000714104
0.000676863
0.000646594
0.000621777
0.000601309
0.000584473
0.000570957
0.000560593
0.00055336
0.000549331
0.000548708
0.00055182
0.000559178
0.000571479
0.000589763
0.000615386
0.000650912
0.0006986
0.000768316
0.000854617
0.00102217
0.00114313
0.0107774
0.00716813
0.00497352
0.00362556
0.00290887
0.00273683
0.0027236
0.00258134
0.00317515
0.00570566
0.0068902
0.00514227
0.00289573
0.00219832
0.00187898
0.00188816
0.00207101
0.0022653
0.00246275
0.0026823
0.00292283
0.00315376
0.00332664
0.00340324
0.00336404
0.00317866
0.00289061
0.0025585
0.00222624
0.00191993
0.00165177
0.00142467
0.00123576
0.00107967
0.000961707
0.000871039
0.000798403
0.0007398
0.00069243
0.000653972
0.000622625
0.000596815
0.000575395
0.000557596
0.000543026
0.000531457
0.000522815
0.000517136
0.000514601
0.000515532
0.000520448
0.000530081
0.000545519
0.000568188
0.000600656
0.00064533
0.00071151
0.000795094
0.000955856
0.00107926
0.0107698
0.00717343
0.00498705
0.00363416
0.00287686
0.00260473
0.00250354
0.00233656
0.00286059
0.00558122
0.00724079
0.00563529
0.00298913
0.00208815
0.00188167
0.00195328
0.00214391
0.00234739
0.00257196
0.00283447
0.00312448
0.00339961
0.00360056
0.00368304
0.00362727
0.00339988
0.00306385
0.00268562
0.00231332
0.00197439
0.00168102
0.00143502
0.00123245
0.00107184
0.000952153
0.000857703
0.000782314
0.000721791
0.000673023
0.000633485
0.000601233
0.000574629
0.000552479
0.000533961
0.000518612
0.000506145
0.000496433
0.000489466
0.000485379
0.000484459
0.000487196
0.000494307
0.000506875
0.000526359
0.000555312
0.000596288
0.00065811
0.000737975
0.000891103
0.00101581
0.0107627
0.00717865
0.00500045
0.0036444
0.00285497
0.0025035
0.00233039
0.0021413
0.00257391
0.00540828
0.00755597
0.00617016
0.00314838
0.00204275
0.00191999
0.00203233
0.00222618
0.00244201
0.00269916
0.00301059
0.00335495
0.00367662
0.00390488
0.00398954
0.00391059
0.00363436
0.00324537
0.00281776
0.00240344
0.00203076
0.00171161
0.00144646
0.00123163
0.00106931
0.000944569
0.000846098
0.000767959
0.00070557
0.000655492
0.000614987
0.000581965
0.00055472
0.000532006
0.000512951
0.000497031
0.000483907
0.000473399
0.000465453
0.000460152
0.000457734
0.000458633
0.000463514
0.00047341
0.000489752
0.000515029
0.000551889
0.000608724
0.000683949
0.000828609
0.000953307
0.0107563
0.00718381
0.00501366
0.00365588
0.00284126
0.00242766
0.00219707
0.00198975
0.00232372
0.00519313
0.00782577
0.00673413
0.00339545
0.00206146
0.00199108
0.00212485
0.00231912
0.00255103
0.00284641
0.00321265
0.00361567
0.00398519
0.00423889
0.00432115
0.00421131
0.00387964
0.00343298
0.00295313
0.00249523
0.002088
0.00174273
0.00145846
0.00123655
0.00106904
0.000938427
0.000835882
0.000755025
0.000690831
0.000639525
0.000598151
0.000564472
0.000536707
0.000513557
0.000494103
0.000477768
0.000464165
0.000453073
0.000444394
0.000438165
0.000434568
0.000433973
0.000436975
0.000444518
0.000457954
0.000479651
0.000512264
0.000563746
0.000633587
0.000769026
0.000892304
0.0107504
0.0071889
0.00502665
0.00366829
0.00283409
0.00237229
0.00209643
0.00187431
0.00211331
0.00494319
0.00804167
0.00731214
0.00374668
0.00214445
0.00209269
0.00223094
0.00242431
0.00267643
0.0030158
0.00344239
0.00390741
0.00432477
0.00460085
0.0046754
0.00452691
0.00413281
0.00362422
0.00308983
0.00258727
0.00214508
0.00177362
0.00147334
0.00124576
0.00107004
0.000933375
0.000826772
0.000743251
0.000677322
0.00062487
0.000582715
0.000548476
0.000520292
0.000496808
0.000477062
0.000460428
0.000446483
0.000434966
0.000425744
0.000418812
0.000414302
0.000412521
0.000413984
0.000419535
0.00043041
0.000448804
0.00047729
0.000523333
0.000587296
0.000712919
0.000833325
0.0107449
0.00719393
0.00503939
0.00368137
0.00283209
0.00233317
0.00202198
0.00178763
0.00194206
0.00466668
0.00819701
0.00788852
0.00419357
0.0022925
0.00222327
0.00235133
0.00254362
0.00282029
0.00320933
0.00370114
0.00423012
0.0046937
0.00498795
0.00504899
0.00485376
0.00439046
0.00381632
0.00322586
0.00267814
0.00220097
0.00180419
0.00149427
0.00125636
0.00107185
0.000929127
0.000818525
0.000732413
0.00066483
0.000611316
0.000568468
0.000533756
0.000505238
0.000481505
0.000461552
0.000444711
0.000430525
0.000418704
0.000409082
0.000401621
0.00039641
0.000393698
0.000393924
0.000397829
0.000406519
0.000421987
0.000446648
0.000487422
0.000545298
0.000660738
0.000776871
0.0107399
0.00719889
0.00505186
0.00369489
0.00283414
0.00230679
0.00196815
0.00172341
0.00180716
0.00437241
0.00828743
0.00844886
0.00473148
0.00250711
0.00238221
0.00248743
0.00267918
0.00298486
0.00342884
0.00398958
0.00458262
0.00508901
0.00539617
0.00543774
0.00518726
0.00464863
0.00400626
0.00335909
0.00276636
0.00225467
0.00183978
0.00151781
0.00126751
0.00107414
0.000925436
0.000810927
0.000722321
0.000653175
0.000598688
0.000555232
0.00052013
0.000491355
0.000467445
0.000447355
0.00043038
0.000416033
0.000403998
0.000394086
0.000386229
0.00038048
0.00037704
0.000376281
0.000378846
0.000385711
0.000398661
0.000419903
0.000455768
0.000507621
0.00061279
0.00072339
0.0107354
0.00720377
0.00506403
0.00370868
0.00283932
0.00229029
0.00193033
0.00167657
0.00170115
0.00406914
0.00831127
0.00898093
0.00535386
0.00279165
0.00257012
0.00264138
0.0028335
0.00317243
0.00367587
0.00430755
0.00496248
0.00550629
0.00582017
0.00583624
0.00552155
0.0049027
0.00419068
0.00348728
0.00285036
0.00231007
0.00188021
0.00154173
0.00127878
0.00107664
0.000922083
0.000803791
0.000712807
0.000642205
0.000586839
0.00054286
0.000507445
0.000478485
0.000454463
0.000434295
0.000417245
0.0004028
0.000390622
0.000380503
0.000372351
0.000366192
0.000362182
0.000360639
0.00036212
0.000367482
0.000378305
0.000396573
0.000428007
0.000474128
0.000569223
0.000673261
0.0107312
0.00720856
0.00507589
0.00372259
0.00284688
0.00228138
0.00190485
0.00164325
0.00162441
0.00376802
0.0082703
0.00947424
0.00603637
0.00315521
0.00278933
0.00281621
0.00300947
0.00338538
0.00395153
0.00465389
0.00536585
0.00593958
0.00625308
0.00623732
0.00584921
0.00514735
0.00436591
0.00360811
0.00293204
0.00237209
0.00192107
0.00156528
0.00128982
0.0010791
0.000918868
0.000796953
0.000703728
0.000631786
0.000575643
0.000531228
0.000495577
0.000466498
0.000442421
0.000422228
0.000405153
0.000390661
0.000378397
0.000368136
0.000359768
0.000353294
0.000348838
0.000346671
0.000347276
0.000351405
0.000360453
0.00037618
0.000403713
0.000444553
0.00053003
0.000626762
0.0107274
0.00721327
0.00508742
0.00373651
0.00285623
0.00227826
0.0018888
0.00162039
0.00157342
0.00348111
0.00816972
0.00991708
0.00674926
0.00361026
0.00304465
0.00301609
0.00321059
0.00362621
0.00425645
0.00502642
0.00578755
0.00638132
0.00668608
0.0066314
0.00616083
0.00537643
0.00452796
0.00372306
0.00302056
0.00243457
0.00196095
0.00158799
0.00130032
0.00108129
0.00091561
0.000790263
0.000694957
0.000621805
0.000564993
0.000520231
0.000484419
0.000455283
0.000431206
0.000411035
0.000393977
0.000379482
0.000367177
0.000356825
0.000348301
0.000341588
0.000336783
0.000334116
0.000334011
0.000337129
0.000344704
0.000358287
0.000382445
0.000418546
0.000495066
0.000584067
0.010724
0.00721787
0.00509862
0.00375034
0.00286688
0.00227951
0.00187992
0.00160552
0.00153927
0.00321723
0.00801692
0.0103006
0.00747749
0.00415472
0.00334414
0.00324701
0.00344151
0.00389794
0.00459093
0.00542183
0.00622097
0.00682214
0.0071077
0.00700506
0.00644458
0.00558292
0.00468216
0.00384238
0.00310896
0.00249516
0.00199913
0.00160948
0.00131
0.00108299
0.000912146
0.000783591
0.000686382
0.000612164
0.000554796
0.00050978
0.00047388
0.00044475
0.000420721
0.000400614
0.000383613
0.00036915
0.000356842
0.00034644
0.000337809
0.000330915
0.000325835
0.000322768
0.000322085
0.000324372
0.000330724
0.000342508
0.000363784
0.00039572
0.00046408
0.00054523
0.0107208
0.00722237
0.00510947
0.003764
0.00287845
0.00228401
0.00187645
0.00159674
0.00151533
0.00298149
0.00781999
0.0106202
0.0082074
0.00477683
0.00369994
0.00351753
0.0037095
0.00420555
0.00495566
0.00583586
0.00665781
0.0072505
0.00750292
0.00733996
0.0066954
0.00577718
0.00483452
0.00395961
0.00319406
0.00255278
0.00203508
0.00162938
0.0013186
0.00108402
0.000908327
0.00077682
0.000677908
0.000602779
0.000544975
0.000499797
0.000463885
0.000434818
0.000410887
0.000390883
0.000373971
0.000359571
0.000347291
0.000336873
0.000328173
0.000321146
0.000315851
0.000312459
0.000311303
0.000312905
0.00031824
0.000328518
0.000347349
0.000375679
0.000436745
0.0005102
0.010718
0.00722676
0.00511998
0.00377742
0.00289064
0.00229091
0.00187705
0.00159256
0.00149807
0.00278517
0.00759357
0.0108715
0.00892329
0.00546334
0.00412055
0.00383635
0.00401998
0.00455139
0.00534937
0.00626319
0.00708913
0.00765566
0.00786097
0.007632
0.00692115
0.00595977
0.00498035
0.00407117
0.00327433
0.00260671
0.00206831
0.00164733
0.00132586
0.00108419
0.000904021
0.000769848
0.000669451
0.000593575
0.000535462
0.000490219
0.000454369
0.000425423
0.000401634
0.000381768
0.000364976
0.000350667
0.000338441
0.000328035
0.000319297
0.000312174
0.00030671
0.000303057
0.000301511
0.000302542
0.000307029
0.000316044
0.000332809
0.00035805
0.000412696
0.000478829
0.0107154
0.00723103
0.00513014
0.00379057
0.0029032
0.00229955
0.00188066
0.00159186
0.0014854
0.0026327
0.00735379
0.0110527
0.00960837
0.0062
0.00461015
0.00421014
0.00437679
0.00493517
0.00576734
0.00669587
0.00750613
0.0080303
0.00817784
0.00788397
0.00712391
0.00612888
0.00511665
0.00417518
0.0033488
0.00265632
0.00209839
0.00166303
0.00133156
0.00108333
0.000899109
0.000762584
0.000660939
0.000584492
0.0005262
0.00048099
0.000445276
0.000416507
0.000392902
0.000373208
0.000356563
0.000342368
0.000330219
0.000319848
0.000311099
0.00030391
0.000298316
0.00029445
0.00029258
0.000293135
0.000296908
0.000304862
0.000319881
0.000342495
0.000391555
0.000450898
0.010713
0.00723519
0.00513995
0.00380341
0.00291596
0.00230942
0.0018865
0.00159378
0.00147599
0.00250046
0.0070951
0.0111588
0.0102461
0.00697001
0.00516857
0.00464349
0.00478198
0.00535473
0.00620353
0.00712592
0.00790138
0.00836953
0.00845286
0.00810021
0.00730441
0.00628279
0.00524154
0.00427046
0.0034167
0.00270104
0.0021249
0.00167617
0.0013355
0.00108132
0.000893486
0.00075495
0.000652309
0.000575478
0.000517142
0.000472065
0.000436559
0.000408022
0.000384642
0.000365151
0.000348678
0.000334619
0.000322566
0.000312249
0.000303509
0.000296279
0.000290585
0.000286546
0.000284407
0.00028456
0.00028773
0.000294786
0.000308327
0.000328714
0.00037296
0.000426134
0.0107108
0.00723922
0.00514941
0.0038159
0.00292875
0.00232012
0.00189395
0.00159766
0.00146901
0.00237928
0.00680891
0.0111848
0.0108212
0.0077547
0.00579051
0.00513759
0.00523517
0.00580601
0.00665106
0.00754596
0.00826919
0.00867084
0.00868766
0.00828472
0.00746288
0.00642025
0.00535383
0.00435612
0.00347735
0.00274037
0.00214747
0.00168649
0.00133747
0.001078
0.000887062
0.000746881
0.000643513
0.000566489
0.000508249
0.000463404
0.000428179
0.000399926
0.000376809
0.000357551
0.000341272
0.000327367
0.000315427
0.000305181
0.000296468
0.000289217
0.000283448
0.000279268
0.000276904
0.000276716
0.000279372
0.000285665
0.000297949
0.00031645
0.000356571
0.000404241
0.0107089
0.00724312
0.00515853
0.00382802
0.00294146
0.00233135
0.00190254
0.00160299
0.00146389
0.00226584
0.00649429
0.0111271
0.0113196
0.0085343
0.00646549
0.00568939
0.0057331
0.00628319
0.00710271
0.00794961
0.00860573
0.00893376
0.0088851
0.0084405
0.00759949
0.00654047
0.00545267
0.00443143
0.00353016
0.00277385
0.00216574
0.00169374
0.00133733
0.00107327
0.000879759
0.000738323
0.000634506
0.000557491
0.000499488
0.000454975
0.000420103
0.000392185
0.000369368
0.000350368
0.000334304
0.000320569
0.000308757
0.000298595
0.000289923
0.000282669
0.000276845
0.000272551
0.000269997
0.000269518
0.000271733
0.000277373
0.000288584
0.000305486
0.000342084
0.000384908
0.0107071
0.00724689
0.00516729
0.00383976
0.00295401
0.00234288
0.00191191
0.00160937
0.00146026
0.0021593
0.00615442
0.0109849
0.0117294
0.00928863
0.00717852
0.0062913
0.00626945
0.00677908
0.00755136
0.0083317
0.00890884
0.00915931
0.00904848
0.00856974
0.00771454
0.00664306
0.00553748
0.00449582
0.00357461
0.00280105
0.00217941
0.00169771
0.00133491
0.00106704
0.000871514
0.000729233
0.000625259
0.000548456
0.000490833
0.000446753
0.000412302
0.000384768
0.000362286
0.000343569
0.000327737
0.000314188
0.000302515
0.000292449
0.000283831
0.000276587
0.000270725
0.000266339
0.000263623
0.000262895
0.00026473
0.000269806
0.000280095
0.000295637
0.000329231
0.000367838
0.0107055
0.00725053
0.00517571
0.00385111
0.00296633
0.00235454
0.00192179
0.0016165
0.00145784
0.00205966
0.00579472
0.0107599
0.012041
0.00999791
0.00791125
0.00693159
0.00683521
0.00728542
0.00799031
0.00868834
0.00917784
0.00934955
0.00918106
0.00867424
0.0078085
0.00672785
0.00560785
0.00454881
0.00361027
0.00282163
0.00218822
0.0016982
0.00133009
0.00105922
0.000862279
0.000719577
0.000615747
0.000539365
0.000482266
0.000438716
0.000404755
0.000377652
0.000355536
0.000337125
0.000321542
0.00030819
0.000296666
0.000286707
0.000278152
0.000270929
0.000265044
0.000260583
0.000257731
0.000256787
0.00025829
0.000262877
0.00027237
0.00028675
0.000317781
0.000352746
0.010704
0.00725404
0.0051838
0.00386205
0.00297836
0.00236618
0.00193196
0.00162415
0.00145643
0.00196722
0.00542183
0.0104562
0.012247
0.0106434
0.00864321
0.00759527
0.00741919
0.00779341
0.00841351
0.00901679
0.00941313
0.00950699
0.00928577
0.00875556
0.00788193
0.00679484
0.00566349
0.00459001
0.00363676
0.00283527
0.00219193
0.00169506
0.00132278
0.00104975
0.000852017
0.000709336
0.000605955
0.000530204
0.000473772
0.00043085
0.000397443
0.000370814
0.000349094
0.000331009
0.000315689
0.000302545
0.00029118
0.000281334
0.000272851
0.000265658
0.000259761
0.000255241
0.000252272
0.00025114
0.000252354
0.000256514
0.000265313
0.000278696
0.000307535
0.000339376
0.0107027
0.00725742
0.00519155
0.00387259
0.00299006
0.00237771
0.00194227
0.00163214
0.00145589
0.00188223
0.00504281
0.0100801
0.0123429
0.0112082
0.00935322
0.0082653
0.00800876
0.0082941
0.00881567
0.00931533
0.00961583
0.00963429
0.00936512
0.00881505
0.0079354
0.00684413
0.00570419
0.00461909
0.00365375
0.0028417
0.00219034
0.00168817
0.0013129
0.0010386
0.000840709
0.000698498
0.000595878
0.000520968
0.000465343
0.000423141
0.000390352
0.000364237
0.000342941
0.0003252
0.000310156
0.000297228
0.000286028
0.000276302
0.000267898
0.000260743
0.000254843
0.000250276
0.000247208
0.000245911
0.000246869
0.000250653
0.000258846
0.000271368
0.000298326
0.000327497
0.0107015
0.00726066
0.00519897
0.00388273
0.00300142
0.00238905
0.00195258
0.00164032
0.00145609
0.00180487
0.00466475
0.00963985
0.0123269
0.0116777
0.0100205
0.00892365
0.00859066
0.00877872
0.0091922
0.00958297
0.00978744
0.00973392
0.00942118
0.00885379
0.00796941
0.00687582
0.00572982
0.00463581
0.00366099
0.00284071
0.00218331
0.00167742
0.0013004
0.00102574
0.000828348
0.000687064
0.000585515
0.000511655
0.000456976
0.000415584
0.00038347
0.000357908
0.00033706
0.000319678
0.00030492
0.000292216
0.000281187
0.000271586
0.000263265
0.000256155
0.00025026
0.000245655
0.000242501
0.00024106
0.000241791
0.000245243
0.0002529
0.000264675
0.000290014
0.000316907
0.0107004
0.00726377
0.00520608
0.00389246
0.0030124
0.00240014
0.00196282
0.00164859
0.00145693
0.00173509
0.00429423
0.00914536
0.0122001
0.01204
0.0106255
0.00955238
0.00915165
0.00923895
0.00953919
0.00981917
0.0099295
0.00980803
0.00945555
0.00887227
0.00798428
0.00689001
0.00574025
0.00463996
0.00365825
0.00283212
0.00217071
0.00166275
0.00128524
0.00101117
0.00081494