/*--------------------------------*- C++ -*----------------------------------*\
| =========                 |                                                 |
| \\      /  F ield         | OpenFOAM: The Open Source CFD Toolbox           |
|  \\    /   O peration     | Version:  2.4.0                                 |
|   \\  /    A nd           | Web:      www.OpenFOAM.org                      |
|    \\/     M anipulation  |                                                 |
\*---------------------------------------------------------------------------*/
FoamFile
{
    version     2.0;
    format      ascii;
    class       surfaceScalarField;
    location    "0.06";
    object      phi_0;
}
// * * * * * * * * * * * * * * * * * * * * * * * * * * * * * * * * * * * * * //

dimensions      [0 3 -1 0 0 0 0];

internalField   nonuniform List<scalar> 
4456
(
2.50005e-06
-4.63956e-11
2.50028e-06
-2.38037e-10
2.5007e-06
-4.15815e-10
2.50137e-06
-6.67098e-10
2.50238e-06
-1.01338e-09
2.50386e-06
-1.48151e-09
2.50585e-06
-1.98405e-09
2.50861e-06
-2.76741e-09
2.51229e-06
-3.6793e-09
2.5172e-06
-4.90212e-09
2.52357e-06
-6.37386e-09
2.53229e-06
-8.72567e-09
2.54328e-06
-1.09858e-08
2.55958e-06
-1.62986e-08
2.57749e-06
-1.79067e-08
2.60844e-06
-3.09512e-08
2.63512e-06
-2.66849e-08
2.694e-06
-5.8876e-08
2.73254e-06
-3.85467e-08
-1.03716e-07
2.83626e-06
2.50005e-06
-9.66882e-11
2.50026e-06
-4.47313e-10
2.50069e-06
-8.42404e-10
2.50136e-06
-1.3416e-09
2.5023e-06
-1.95675e-09
2.50374e-06
-2.92138e-09
2.50571e-06
-3.95458e-09
2.50844e-06
-5.49037e-09
2.512e-06
-7.24304e-09
2.51678e-06
-9.67964e-09
2.52303e-06
-1.26235e-08
2.53158e-06
-1.72799e-08
2.54232e-06
-2.17231e-08
2.55841e-06
-3.23932e-08
2.57571e-06
-3.52013e-08
2.60693e-06
-6.21762e-08
2.63155e-06
-5.13e-08
2.69303e-06
-1.20353e-07
2.72495e-06
-7.0469e-08
-2.16025e-07
2.83726e-06
2.50005e-06
-1.46002e-10
2.50025e-06
-6.45988e-10
2.50065e-06
-1.23948e-09
2.5013e-06
-1.99387e-09
2.50219e-06
-2.85073e-09
2.50357e-06
-4.29864e-09
2.50543e-06
-5.81165e-09
2.50804e-06
-8.10374e-09
2.51142e-06
-1.06272e-08
2.51599e-06
-1.42422e-08
2.52196e-06
-1.85952e-08
2.53014e-06
-2.54576e-08
2.5404e-06
-3.19887e-08
2.55606e-06
-4.80503e-08
2.57222e-06
-5.13622e-08
2.60387e-06
-9.38319e-08
2.62464e-06
-7.20643e-08
2.6907e-06
-1.86417e-07
2.71046e-06
-9.02257e-08
-3.43256e-07
2.83769e-06
2.50004e-06
-1.89068e-10
2.50023e-06
-8.35222e-10
2.50059e-06
-1.59914e-09
2.50121e-06
-2.60865e-09
2.50202e-06
-3.66389e-09
2.50332e-06
-5.59425e-09
2.505e-06
-7.50034e-09
2.50746e-06
-1.05586e-08
2.51057e-06
-1.37368e-08
2.51482e-06
-1.84934e-08
2.52038e-06
-2.4159e-08
2.52798e-06
-3.30526e-08
2.5376e-06
-4.16065e-08
2.55248e-06
-6.2933e-08
2.56719e-06
-6.60712e-08
2.59904e-06
-1.25682e-07
2.61494e-06
-8.79621e-08
2.68609e-06
-2.57575e-07
2.69046e-06
-9.45914e-08
-4.88162e-07
2.83537e-06
2.50004e-06
-2.24776e-10
2.50021e-06
-1.01242e-09
2.50052e-06
-1.90874e-09
2.50109e-06
-3.17446e-09
2.50179e-06
-4.36796e-09
2.50299e-06
-6.79361e-09
2.50445e-06
-8.96e-09
2.50671e-06
-1.28193e-08
2.50945e-06
-1.64739e-08
2.51331e-06
-2.2352e-08
2.51834e-06
-2.91944e-08
2.52513e-06
-3.98427e-08
2.534e-06
-5.04694e-08
2.54761e-06
-7.65467e-08
2.56087e-06
-7.93349e-08
2.59202e-06
-1.56828e-07
2.60327e-06
-9.9216e-08
2.6781e-06
-3.32398e-07
2.66672e-06
-8.32165e-08
-6.50485e-07
2.82905e-06
2.50003e-06
-2.51313e-10
2.50019e-06
-1.17354e-09
2.50044e-06
-2.15847e-09
2.50095e-06
-3.68594e-09
2.50151e-06
-4.93279e-09
2.50261e-06
-7.88633e-09
2.50377e-06
-1.01284e-08
2.50582e-06
-1.48674e-08
2.50808e-06
-1.8731e-08
2.51149e-06
-2.5764e-08
2.51588e-06
-3.35805e-08
2.52163e-06
-4.55932e-08
2.52972e-06
-5.85614e-08
2.54135e-06
-8.81732e-08
2.5536e-06
-9.15916e-08
2.58226e-06
-1.85482e-07
2.59068e-06
-1.07638e-07
2.66578e-06
-4.07499e-07
2.64102e-06
-5.84571e-08
-8.28032e-07
2.81857e-06
2.50002e-06
-2.66404e-10
2.50016e-06
-1.31815e-09
2.50034e-06
-2.33692e-09
2.50079e-06
-4.14194e-09
2.50118e-06
-5.32183e-09
2.50218e-06
-8.87929e-09
2.50298e-06
-1.09275e-08
2.50483e-06
-1.67175e-08
2.50647e-06
-2.03787e-08
2.50942e-06
-2.87133e-08
2.51304e-06
-3.71993e-08
2.51752e-06
-5.00681e-08
2.5249e-06
-6.59491e-08
2.53358e-06
-9.68479e-08
2.54576e-06
-1.03778e-07
2.56904e-06
-2.08754e-07
2.5782e-06
-1.16805e-07
2.64828e-06
-4.77579e-07
2.61513e-06
-2.53042e-08
-1.01722e-06
2.80432e-06
2.5e-06
-2.69061e-10
2.50013e-06
-1.44418e-09
2.50023e-06
-2.43588e-09
2.50062e-06
-4.53784e-09
2.50082e-06
-5.51356e-09
2.5017e-06
-9.76712e-09
2.50208e-06
-1.13048e-08
2.50374e-06
-1.83781e-08
2.50465e-06
-2.12883e-08
2.50718e-06
-3.12419e-08
2.50986e-06
-3.98759e-08
2.51289e-06
-5.31053e-08
2.51972e-06
-7.27766e-08
2.5242e-06
-1.01325e-07
2.53776e-06
-1.1734e-07
2.5514e-06
-2.22397e-07
2.56687e-06
-1.32273e-07
2.62414e-06
-5.34847e-07
2.59122e-06
7.61219e-09
-1.21281e-06
2.78681e-06
2.49999e-06
-2.57272e-10
2.5001e-06
-1.55464e-09
2.5001e-06
-2.4388e-09
2.50046e-06
-4.89178e-09
2.50039e-06
-5.44471e-09
2.50124e-06
-1.06248e-08
2.50102e-06
-1.10842e-08
2.50267e-06
-2.00265e-08
2.50258e-06
-2.12002e-08
2.50483e-06
-3.34909e-08
2.50642e-06
-4.14638e-08
2.50783e-06
-5.4516e-08
2.51431e-06
-7.92515e-08
2.51338e-06
-1.00399e-07
2.53009e-06
-1.34054e-07
2.52749e-06
-2.1979e-07
2.55821e-06
-1.62999e-07
2.58913e-06
-5.65762e-07
2.57259e-06
2.41503e-08
-1.40526e-06
2.76504e-06
2.49997e-06
-2.32178e-10
2.50006e-06
-1.64254e-09
2.49998e-06
-2.35523e-09
2.50026e-06
-5.17e-09
2.49999e-06
-5.17528e-09
2.50067e-06
-1.13052e-08
2.50009e-06
-1.05042e-08
2.50134e-06
-2.12817e-08
2.50055e-06
-2.04052e-08
2.50244e-06
-3.53796e-08
2.50263e-06
-4.16562e-08
2.50276e-06
-5.46498e-08
2.50871e-06
-8.52003e-08
2.5013e-06
-9.2988e-08
2.52409e-06
-1.56847e-07
2.49748e-06
-1.9318e-07
2.55593e-06
-2.21445e-07
2.52857e-06
-5.38406e-07
2.56357e-06
-1.08437e-08
-1.57579e-06
2.7341e-06
2.49996e-06
-1.92067e-10
2.50004e-06
-1.71828e-09
2.49983e-06
-2.14878e-09
2.50012e-06
-5.46265e-09
2.4994e-06
-4.45806e-09
2.50044e-06
-1.23421e-08
2.49844e-06
-8.49913e-09
2.50096e-06
-2.3803e-08
2.49736e-06
-1.6805e-08
2.50067e-06
-3.86924e-08
2.49842e-06
-3.94043e-08
2.49738e-06
-5.36107e-08
2.50343e-06
-9.12512e-08
2.48882e-06
-7.83824e-08
2.51908e-06
-1.871e-07
2.4654e-06
-1.39506e-07
2.5592e-06
-3.15242e-07
2.45539e-06
-4.346e-07
2.5768e-06
-1.32254e-07
-1.67072e-06
2.67174e-06
2.49995e-06
-1.42911e-10
2.49999e-06
-1.75504e-09
2.49973e-06
-1.89441e-09
2.49982e-06
-5.54968e-09
2.49923e-06
-3.86317e-09
2.49935e-06
-1.24692e-08
2.49839e-06
-7.5366e-09
2.49822e-06
-2.36325e-08
2.49691e-06
-1.54963e-08
2.49684e-06
-3.86237e-08
2.49549e-06
-3.80551e-08
2.49223e-06
-5.03428e-08
2.49659e-06
-9.56158e-08
2.47742e-06
-5.92098e-08
2.51376e-06
-2.23444e-07
2.43511e-06
-6.08534e-08
2.55415e-06
-4.34284e-07
2.38546e-06
-2.6591e-07
2.55369e-06
-3.00484e-07
-1.67826e-06
2.56123e-06
2.49994e-06
-8.27965e-11
2.49997e-06
-1.78284e-09
2.49956e-06
-1.4911e-09
2.49986e-06
-5.8407e-09
2.4983e-06
-2.31173e-09
2.49999e-06
-1.41541e-08
2.49518e-06
-2.72828e-09
2.50047e-06
-2.89241e-08
2.49039e-06
-5.41101e-09
2.49877e-06
-4.70035e-08
2.48764e-06
-2.69266e-08
2.48871e-06
-5.14115e-08
2.49119e-06
-9.80948e-08
2.46601e-06
-3.40296e-08
2.50485e-06
-2.62291e-07
2.41852e-06
2.54784e-08
2.5409e-06
-5.56665e-07
2.33967e-06
-6.46788e-08
2.51772e-06
-4.78537e-07
-1.62037e-06
2.45983e-06
2.49995e-06
-2.91295e-11
2.49989e-06
-1.72775e-09
2.49955e-06
-1.15225e-09
2.49926e-06
-5.54761e-09
2.49875e-06
-1.80299e-09
2.49764e-06
-1.30411e-08
2.49766e-06
-2.75211e-09
2.49388e-06
-2.51413e-08
2.49576e-06
-7.2952e-09
2.48848e-06
-3.97232e-08
2.49117e-06
-2.96167e-08
2.48079e-06
-4.10318e-08
2.48236e-06
-9.96575e-08
2.46345e-06
-1.51227e-08
2.48503e-06
-2.83875e-07
2.41812e-06
9.23917e-08
2.51513e-06
-6.53672e-07
2.35351e-06
9.69332e-08
2.48519e-06
-6.10216e-07
-1.48613e-06
2.35095e-06
2.49996e-06
1.30786e-11
2.49986e-06
-1.62692e-09
2.49945e-06
-7.4778e-10
2.49952e-06
-5.61019e-09
2.49754e-06
1.67255e-10
2.49928e-06
-1.47718e-08
2.49243e-06
4.09177e-09
2.50054e-06
-3.32523e-08
2.48321e-06
1.00353e-08
2.4997e-06
-5.62096e-08
2.47347e-06
-3.38822e-09
2.48582e-06
-5.3385e-08
2.47077e-06
-8.46019e-08
2.45902e-06
-3.37348e-09
2.45976e-06
-2.84613e-07
2.44147e-06
1.10677e-07
2.45221e-06
-6.64416e-07
2.3946e-06
1.5455e-07
2.44537e-06
-6.6099e-07
-1.33133e-06
2.29057e-06
2.49995e-06
6.65058e-11
2.49979e-06
-1.4734e-09
2.49943e-06
-3.80508e-10
2.49868e-06
-4.86188e-09
2.49863e-06
2.1134e-10
2.49595e-06
-1.20882e-08
2.49799e-06
2.04812e-09
2.48871e-06
-2.39737e-08
2.49778e-06
9.74575e-10
2.47721e-06
-3.56462e-08
2.48924e-06
-1.54129e-08
2.47252e-06
-3.6665e-08
2.45798e-06
-7.00693e-08
2.47129e-06
-1.66793e-08
2.41077e-06
-2.2409e-07
2.45019e-06
7.12547e-08
2.36097e-06
-5.75192e-07
2.3955e-06
1.20019e-07
2.309e-06
-5.74493e-07
-1.24559e-06
2.22326e-06
2.50008e-06
-1.6308e-11
2.49959e-06
-9.85495e-10
2.49975e-06
-5.38201e-10
2.49847e-06
-3.58247e-09
2.49827e-06
4.09902e-10
2.49673e-06
-1.05465e-08
2.49293e-06
5.8487e-09
2.49797e-06
-2.90157e-08
2.47885e-06
2.00972e-08
2.50148e-06
-5.82717e-08
2.45797e-06
2.80932e-08
2.49235e-06
-7.10481e-08
2.43995e-06
-1.76664e-08
2.46566e-06
-4.2384e-08
2.39139e-06
-1.49829e-07
2.44345e-06
1.91974e-08
2.27425e-06
-4.05992e-07
2.32603e-06
6.82449e-08
2.16747e-06
-4.15934e-07
-1.24772e-06
2.1696e-06
2.49992e-06
6.23209e-11
2.49976e-06
-8.29105e-10
2.4993e-06
-7.77161e-11
2.49853e-06
-2.80853e-09
2.49844e-06
5.05162e-10
2.49477e-06
-6.87918e-09
2.4988e-06
1.82056e-09
2.48423e-06
-1.44534e-08
2.50109e-06
3.24482e-09
2.46801e-06
-2.52006e-08
2.4888e-06
7.31072e-09
2.46984e-06
-5.20936e-08
2.43489e-06
1.72866e-08
2.47875e-06
-8.62435e-08
2.36217e-06
-3.32498e-08
2.40289e-06
-2.15266e-08
2.30107e-06
-3.04165e-07
2.26971e-06
9.9606e-08
2.10703e-06
-2.53254e-07
-1.18181e-06
2.04111e-06
2.50035e-06
-2.82776e-10
2.49899e-06
5.2962e-10
2.50103e-06
-2.11722e-09
2.49521e-06
3.01172e-09
2.5041e-06
-8.3888e-09
2.4851e-06
1.21251e-08
2.51017e-06
-2.3254e-08
2.47069e-06
2.50305e-08
2.50408e-06
-3.01478e-08
2.47872e-06
1.59842e-10
2.45285e-06
3.31822e-08
2.51959e-06
-1.18839e-07
2.38363e-06
1.53249e-07
2.48856e-06
-1.9117e-07
2.41136e-06
4.39463e-08
2.33417e-06
5.56597e-08
2.32482e-06
-2.94816e-07
2.2809e-06
1.4353e-07
2.12824e-06
-1.00597e-07
-7.94725e-07
1.74116e-06
2.49972e-06
2.50025e-06
2.49813e-06
2.50114e-06
2.49275e-06
2.50488e-06
2.48162e-06
2.50665e-06
2.47651e-06
2.47667e-06
2.50985e-06
2.39101e-06
2.54426e-06
2.35309e-06
2.39703e-06
2.45269e-06
2.15788e-06
2.30141e-06
2.20081e-06
1.40609e-06
2.90642e-06
-7.01611e-08
3.04493e-06
-1.38506e-07
3.18327e-06
-1.38343e-07
3.31849e-06
-1.35214e-07
3.46397e-06
-1.45483e-07
3.60009e-06
-1.36126e-07
3.72454e-06
-1.24443e-07
-1.09875e-07
3.83441e-06
2.89461e-06
-1.27509e-07
3.04781e-06
-2.91714e-07
3.17735e-06
-2.67876e-07
3.31962e-06
-2.77491e-07
3.46619e-06
-2.92048e-07
3.60125e-06
-2.71188e-07
3.72926e-06
-2.52452e-07
-2.20039e-07
3.83942e-06
2.87194e-06
-1.61761e-07
3.05164e-06
-4.71417e-07
3.16427e-06
-3.80501e-07
3.32444e-06
-4.37658e-07
3.46908e-06
-4.36688e-07
3.60347e-06
-4.05578e-07
3.73943e-06
-3.88415e-07
-3.29936e-07
3.84933e-06
2.84008e-06
-1.66477e-07
3.05364e-06
-6.84979e-07
3.14558e-06
-4.72441e-07
3.33404e-06
-6.26112e-07
3.46733e-06
-5.69982e-07
3.608e-06
-5.46241e-07
3.75582e-06
-5.36237e-07
-4.37347e-07
3.86323e-06
2.80056e-06
-1.37995e-07
3.05151e-06
-9.35924e-07
3.1229e-06
-5.43834e-07
3.34647e-06
-8.49682e-07
3.4556e-06
-6.79106e-07
3.6201e-06
-7.10742e-07
3.77817e-06
-6.94315e-07
-5.3879e-07
3.87962e-06
2.75437e-06
-7.37991e-08
3.04343e-06
-1.22498e-06
3.09755e-06
-5.97959e-07
3.36105e-06
-1.11318e-06
3.44063e-06
-7.58687e-07
3.64171e-06
-9.11823e-07
3.80413e-06
-8.56728e-07
-6.3108e-07
3.89642e-06
2.70269e-06
2.78285e-08
3.02789e-06
-1.55017e-06
3.07064e-06
-6.40714e-07
3.37806e-06
-1.4206e-06
3.42142e-06
-8.02049e-07
3.66611e-06
-1.15651e-06
3.82348e-06
-1.0141e-06
-7.26653e-07
3.91905e-06
2.64783e-06
1.6681e-07
3.00461e-06
-1.90695e-06
3.04445e-06
-6.80556e-07
3.39921e-06
-1.77537e-06
3.39827e-06
-8.01104e-07
3.69094e-06
-1.44918e-06
3.83871e-06
-1.16187e-06
-8.43529e-07
3.95559e-06
2.59381e-06
3.38035e-07
2.97655e-06
-2.28969e-06
3.02168e-06
-7.2568e-07
3.4265e-06
-2.18019e-06
3.37399e-06
-7.48602e-07
3.7183e-06
-1.79348e-06
3.86058e-06
-1.30416e-06
-9.98892e-07
4.01594e-06
2.54345e-06
5.28688e-07
2.94606e-06
-2.6923e-06
2.99822e-06
-7.77841e-07
3.4549e-06
-2.63687e-06
3.35425e-06
-6.47947e-07
3.75091e-06
-2.19014e-06
3.88071e-06
-1.43396e-06
-1.20085e-06
4.08266e-06
2.4932e-06
7.07224e-07
2.89799e-06
-3.09709e-06
2.95119e-06
-8.31033e-07
3.45871e-06
-3.1444e-06
3.34488e-06
-5.34118e-07
3.79049e-06
-2.63575e-06
3.87907e-06
-1.52254e-06
-1.46463e-06
4.14285e-06
2.44047e-06
8.27986e-07
2.78598e-06
-3.4426e-06
2.84235e-06
-8.87404e-07
3.40346e-06
-3.70551e-06
3.34114e-06
-4.71792e-07
3.83107e-06
-3.12568e-06
3.82466e-06
-1.51613e-06
-1.79916e-06
4.1592e-06
2.39521e-06
8.92607e-07
2.55386e-06
-3.60126e-06
2.64694e-06
-9.80486e-07
3.27689e-06
-4.33545e-06
3.31842e-06
-5.13325e-07
3.84436e-06
-3.65162e-06
3.70255e-06
-1.37432e-06
-2.18388e-06
4.08727e-06
2.27511e-06
9.68449e-07
2.16446e-06
-3.49061e-06
2.39797e-06
-1.21399e-06
3.08023e-06
-5.01771e-06
3.22342e-06
-6.56514e-07
3.76327e-06
-4.19148e-06
3.53051e-06
-1.14156e-06
-2.58015e-06
3.92679e-06
2.14867e-06
1.11035e-06
1.83311e-06
-3.17505e-06
2.27003e-06
-1.65092e-06
2.82537e-06
-5.57305e-06
3.09564e-06
-9.26781e-07
3.58342e-06
-4.67926e-06
3.34637e-06
-9.04512e-07
-3.0206e-06
3.78683e-06
2.05473e-06
1.27888e-06
1.82692e-06
-2.94724e-06
2.46046e-06
-2.28445e-06
2.51931e-06
-5.6319e-06
3.05503e-06
-1.4625e-06
3.41931e-06
-5.04354e-06
3.14532e-06
-6.30521e-07
-3.6896e-06
3.81432e-06
2.10445e-06
1.34404e-06
2.17824e-06
-3.02103e-06
2.54436e-06
-2.65057e-06
2.09975e-06
-5.1873e-06
3.00498e-06
-2.36773e-06
3.17403e-06
-5.21259e-06
2.95326e-06
-4.09753e-07
-4.73202e-06
3.99568e-06
2.55121e-06
8.33936e-07
2.63791e-06
-3.10773e-06
2.07137e-06
-2.08403e-06
1.81252e-06
-4.92845e-06
2.78941e-06
-3.34461e-06
2.64381e-06
-5.067e-06
2.91518e-06
-6.81123e-07
-6.17448e-06
4.35765e-06
2.40245e-06
1.72641e-07
2.43621e-06
-3.14148e-06
2.13597e-06
-1.7838e-06
2.22659e-06
-5.01907e-06
2.18031e-06
-3.29833e-06
2.24731e-06
-5.134e-06
3.64749e-06
-2.08131e-06
-6.98676e-06
4.45978e-06
1.6989e-06
-1.20175e-07
1.51059e-06
-2.95317e-06
2.17365e-06
-2.44685e-06
2.04827e-06
-4.89369e-06
1.50628e-06
-2.75635e-06
2.04165e-06
-5.66936e-06
3.20727e-06
-3.24693e-06
4.08398e-06
-7.86347e-06
3.923e-06
-8.85878e-08
3.99575e-06
-7.27466e-08
4.05847e-06
-6.27234e-08
4.10843e-06
-4.99648e-08
4.14255e-06
-3.41107e-08
4.15948e-06
-1.69325e-08
4.16889e-06
-9.41375e-09
4.1621e-06
6.79557e-09
4.16657e-06
-4.46871e-09
4.13337e-06
3.31991e-08
4.16015e-06
-2.67845e-08
4.07891e-06
8.12379e-08
4.15423e-06
-7.53156e-08
4.02398e-06
1.30249e-07
4.10329e-06
-7.93079e-08
4.05588e-06
4.7407e-08
3.98646e-06
6.94157e-08
4.13438e-06
-1.47919e-07
4.02813e-06
1.06251e-07
3.98153e-06
4.66036e-08
4.20723e-06
-2.25702e-07
4.02747e-06
1.79766e-07
4.03083e-06
-3.36453e-09
4.3205e-06
-2.89669e-07
4.17109e-06
1.49404e-07
4.30087e-06
-1.29781e-07
4.82906e-06
-5.28185e-07
-3.39241e-07
5.1683e-06
3.92633e-06
-1.75491e-07
3.99875e-06
-1.45171e-07
4.06234e-06
-1.26313e-07
4.11131e-06
-9.89382e-08
4.14686e-06
-6.96596e-08
4.1595e-06
-2.95736e-08
4.17605e-06
-2.5958e-08
4.15576e-06
2.70795e-08
4.17999e-06
-2.86934e-08
4.11797e-06
9.52192e-08
4.17877e-06
-8.7584e-08
4.06994e-06
1.90069e-07
4.15972e-06
-1.65097e-07
4.0575e-06
2.32472e-07
4.10004e-06
-1.21857e-07
4.08313e-06
6.43193e-08
4.064e-06
8.85508e-08
4.05121e-06
-1.35136e-07
4.06864e-06
8.88268e-08
4.12464e-06
-9.39903e-09
3.96416e-06
-6.52211e-08
4.25558e-06
-1.11652e-07
4.14719e-06
1.05022e-07
4.14921e-06
-2.91689e-07
4.33343e-06
-3.48101e-08
4.63313e-06
-4.29486e-07
4.17992e-06
-7.49686e-08
-1.39418e-06
5.23486e-06
3.93286e-06
-2.59027e-07
4.00536e-06
-2.17664e-07
4.06913e-06
-1.90085e-07
4.11901e-06
-1.4882e-07
4.15071e-06
-1.01356e-07
4.16945e-06
-4.83201e-08
4.17208e-06
-2.859e-08
4.17343e-06
2.57294e-08
4.1558e-06
-1.10545e-08
4.1608e-06
9.02119e-08
4.12466e-06
-5.14404e-08
4.14844e-06
1.66291e-07
4.10148e-06
-1.18144e-07
4.12201e-06
2.11942e-07
4.11762e-06
-1.17462e-07
4.0584e-06
1.23534e-07
4.15293e-06
-5.97534e-09
4.01669e-06
1.10186e-09
4.13757e-06
-3.20466e-08
4.04081e-06
8.73559e-08
4.17788e-06
-2.0229e-07
4.03376e-06
3.24731e-08
4.24239e-06
-1.03617e-07
4.1874e-06
-2.36689e-07
4.28848e-06
-1.35894e-07
4.40201e-06
-5.43018e-07
4.68594e-06
-3.58897e-07
-1.23648e-06
4.52823e-06
3.94282e-06
-3.38624e-07
4.01516e-06
-2.89996e-07
4.0797e-06
-2.54626e-07
4.12805e-06
-1.97168e-07
4.16091e-06
-1.34216e-07
4.17643e-06
-6.38422e-08
4.18147e-06
-3.36364e-08
4.17436e-06
3.28469e-08
4.16443e-06
-1.13106e-09
4.15439e-06
1.00259e-07
4.13351e-06
-3.05684e-08
4.13713e-06
1.62672e-07
4.08846e-06
-6.94721e-08
4.12475e-06
1.75648e-07
4.04284e-06
-3.55453e-08
4.10786e-06
5.85141e-08
4.02332e-06
7.85619e-08
4.0965e-06
-7.20738e-08
4.00828e-06
5.61725e-08
4.12452e-06
-2.88815e-08
4.00673e-06
-8.45074e-08
4.12784e-06
-8.86391e-08
4.1122e-06
-8.79733e-08
4.15568e-06
-2.80168e-07
4.23748e-06
-2.17696e-07
4.27213e-06
-5.77662e-07
4.48034e-06
-5.67108e-07
-1.34349e-06
4.58734e-06
3.95636e-06
-4.15363e-07
4.02854e-06
-3.6218e-07
4.0921e-06
-3.18185e-07
4.14075e-06
-2.45814e-07
4.17329e-06
-1.66761e-07
4.19002e-06
-8.05734e-08
4.18801e-06
-3.16284e-08
4.18082e-06
4.00454e-08
4.16407e-06
1.56141e-08
4.15594e-06
1.08388e-07
4.13623e-06
-1.08609e-08
4.12725e-06
1.71657e-07
4.1132e-06
-5.54253e-08
4.08566e-06
2.03189e-07
4.10751e-06
-5.73927e-08
4.03483e-06
1.3119e-07
4.1137e-06
-3.06111e-10
4.00945e-06
3.21742e-08
4.09793e-06
-3.23068e-08
4.03971e-06
2.93399e-08
4.07269e-06
-1.1749e-07
4.09738e-06
-1.13328e-07
4.09341e-06
-8.39953e-08
4.15884e-06
-3.45599e-07
4.20336e-06
-2.62214e-07
4.28273e-06
-6.57033e-07
4.33447e-06
-6.1885e-07
-1.3485e-06
4.33949e-06
3.97457e-06
-4.93509e-07
4.04378e-06
-4.31394e-07
4.10486e-06
-3.79263e-07
4.15569e-06
-2.96645e-07
4.19137e-06
-2.02438e-07
4.20549e-06
-9.46961e-08
4.19885e-06
-2.49861e-08
4.18826e-06
5.06263e-08
4.16544e-06
3.84353e-08
4.16573e-06
1.08098e-07
4.12622e-06
2.86556e-08
4.14892e-06
1.48954e-07
4.07947e-06
1.4026e-08
4.12654e-06
1.56115e-07
4.04785e-06
2.12956e-08
4.08515e-06
9.38988e-08
4.04979e-06
3.50526e-08
4.04984e-06
3.21228e-08
4.05195e-06
-3.4423e-08
4.04881e-06
3.24866e-08
4.08916e-06
-1.57845e-07
4.01251e-06
-3.66706e-08
4.16804e-06
-2.39528e-07
4.07007e-06
-2.47634e-07
4.17627e-06
-3.68413e-07
4.15864e-06
-6.39399e-07
4.27642e-06
-7.36636e-07
-1.32262e-06
4.25054e-06
3.99918e-06
-5.73635e-07
4.05826e-06
-4.9048e-07
4.11438e-06
-4.35375e-07
4.17445e-06
-3.5672e-07
4.21371e-06
-2.41695e-07
4.22456e-06
-1.05551e-07
4.21058e-06
-1.10063e-08
4.19248e-06
6.8732e-08
4.17077e-06
6.01412e-08
4.15883e-06
1.20036e-07
4.13876e-06
4.87253e-08
4.12666e-06
1.61056e-07
4.10627e-06
3.44173e-08
4.08965e-06
1.72739e-07
4.07564e-06
3.52965e-08
4.06406e-06
1.05486e-07
4.03847e-06
6.06435e-08
4.06919e-06
1.397e-09
4.00742e-06
2.73533e-08
4.08319e-06
-4.32907e-08
3.99283e-06
-6.74837e-08
4.11292e-06
-1.56762e-07
4.01726e-06
-1.4387e-07
4.08014e-06
-3.10506e-07
4.16071e-06
-4.48986e-07
4.05068e-06
-5.29368e-07
4.18756e-06
-8.73518e-07
-1.1248e-06
3.98974e-06
4.02702e-06
-6.45071e-07
4.06666e-06
-5.30119e-07
4.12235e-06
-4.91066e-07
4.19424e-06
-4.28605e-07
4.24021e-06
-2.87661e-07
4.24729e-06
-1.12635e-07
4.22303e-06
1.32519e-08
4.19952e-06
9.22426e-08
4.17137e-06
8.82978e-08
4.16733e-06
1.24073e-07
4.13235e-06
8.3706e-08
4.14169e-06
1.51717e-07
4.08861e-06
8.74928e-08
4.10566e-06
1.55694e-07
4.05852e-06
8.24371e-08
4.05589e-06
1.08117e-07
4.06125e-06
5.52809e-08
4.0091e-06
5.35422e-08
4.05826e-06
-2.18036e-08
4.01196e-06
3.0044e-09
4.04996e-06
-1.05476e-07
4.00857e-06
-1.15379e-07
4.06633e-06
-2.01629e-07
4.08643e-06
-3.30601e-07
3.96879e-06
-3.31352e-07
4.14407e-06
-7.04645e-07
4.02918e-06
-7.58629e-07
-1.08444e-06
3.98882e-06
4.05908e-06
-6.88208e-07
4.06024e-06
-5.3128e-07
4.12752e-06
-5.58345e-07
4.21892e-06
-5.20007e-07
4.27032e-06
-3.39059e-07
4.266e-06
-1.08316e-07
4.2321e-06
4.71472e-08
4.19988e-06
1.24464e-07
4.17331e-06
1.14872e-07
4.16052e-06
1.36861e-07
4.14124e-06
1.02989e-07
4.12866e-06
1.6429e-07
4.10251e-06
1.13642e-07
4.08983e-06
1.68382e-07
4.06038e-06
1.11886e-07
4.06109e-06
1.07409e-07
4.0199e-06
9.64681e-08
4.05378e-06
1.96603e-08
4.00057e-06
3.1408e-08
4.03407e-06
-3.04964e-08
4.01699e-06
-8.83939e-08
4.0207e-06
-1.19089e-07
4.02655e-06
-2.07482e-07
3.98598e-06
-2.90025e-07
4.10192e-06
-4.47295e-07
3.92945e-06
-5.32174e-07
3.94101e-06
-7.70192e-07
-1.14719e-06
4.00376e-06
4.09736e-06
-7.02904e-07
4.0617e-06
-4.95616e-07
4.1306e-06
-6.27249e-07
4.24162e-06
-6.31025e-07
4.30531e-06
-4.02755e-07
4.29151e-06
-9.45094e-08
4.24078e-06
9.78745e-08
4.20031e-06
1.64931e-07
4.17123e-06
1.43959e-07
4.16327e-06
1.4482e-07
4.13796e-06
1.28292e-07
4.1329e-06
1.69352e-07
4.09446e-06
1.52088e-07
4.08657e-06
1.76273e-07
4.05661e-06
1.41838e-07
4.03765e-06
1.26376e-07
4.04193e-06
9.21896e-08
4.0014e-06
6.01865e-08
4.0223e-06
1.05098e-08
4.011e-06
-1.91992e-08
3.99011e-06
-6.74995e-08
4.01743e-06
-1.46413e-07
3.9922e-06
-1.8225e-07
4.00092e-06
-2.98752e-07
3.94694e-06
-3.93312e-07
3.98673e-06
-5.71962e-07
3.94451e-06
-7.27976e-07
-9.11233e-07
3.70855e-06
4.13527e-06
-6.95327e-07
4.076e-06
-4.36344e-07
4.14068e-06
-6.9193e-07
4.26807e-06
-7.58413e-07
4.32068e-06
-4.55363e-07
4.29825e-06
-7.20833e-08
4.23716e-06
1.58966e-07
4.18697e-06
2.15118e-07
4.15844e-06
1.72495e-07
4.15116e-06
1.521e-07
4.13899e-06
1.4046e-07
4.12676e-06
1.81577e-07
4.10098e-06
1.77866e-07
4.08328e-06
1.9398e-07
4.05405e-06
1.71063e-07
4.04372e-06
1.36712e-07
4.01531e-06
1.20595e-07
4.02154e-06
5.39555e-08
3.99913e-06
3.29172e-08
3.9934e-06
-1.34698e-08
4.00706e-06
-8.11588e-08
3.97006e-06
-1.09407e-07
3.98277e-06
-1.94967e-07
3.97059e-06
-2.86568e-07
3.94212e-06
-3.6484e-07
3.89339e-06
-5.23231e-07
3.84955e-06
-6.84134e-07
-8.75946e-07
3.81426e-06
4.18206e-06
-7.18188e-07
4.13475e-06
-3.89038e-07
4.15271e-06
-7.09895e-07
4.25936e-06
-8.65061e-07
4.33372e-06
-5.29719e-07
4.29818e-06
-3.65469e-08
4.23067e-06
2.26479e-07
4.1759e-06
2.69893e-07
4.15047e-06
1.97916e-07
4.14628e-06
1.56299e-07
4.13393e-06
1.52809e-07
4.12205e-06
1.93456e-07
4.09111e-06
2.08805e-07
4.06687e-06
2.18223e-07
4.04152e-06
1.96411e-07
4.01759e-06
1.60642e-07
4.01417e-06
1.24017e-07
3.99129e-06
7.68323e-08
3.99122e-06
3.29836e-08
3.99074e-06
-1.29836e-08
3.96473e-06
-5.51466e-08
3.97876e-06
-1.23441e-07
3.95692e-06
-1.73133e-07
3.92371e-06
-2.53355e-07
3.92497e-06
-3.66096e-07
3.86659e-06
-4.64855e-07
3.78797e-06
-6.05512e-07
-7.95539e-07
3.70756e-06
4.22842e-06
-8.59344e-07
4.25501e-06
-4.15621e-07
4.21101e-06
-6.65903e-07
4.19652e-06
-8.5057e-07
4.21837e-06
-5.5157e-07
4.23601e-06
-5.4185e-08
4.19289e-06
2.69602e-07
4.15237e-06
3.10411e-07
4.13384e-06
2.16446e-07
4.13516e-06
1.54982e-07
4.13161e-06
1.56356e-07
4.12087e-06
2.04198e-07
4.09712e-06
2.32552e-07
4.07311e-06
2.42238e-07
4.04521e-06
2.24308e-07
4.02517e-06
1.8068e-07
4.00497e-06
1.44223e-07
3.99488e-06
8.69218e-08
3.98503e-06
4.28272e-08
3.97041e-06
1.64071e-09
3.9725e-06
-5.72418e-08
3.94846e-06
-9.93938e-08
3.93574e-06
-1.60415e-07
3.92407e-06
-2.41683e-07
3.86636e-06
-3.08388e-07
3.83269e-06
-4.31185e-07
3.77421e-06
-5.47036e-07
-6.70481e-07
3.64915e-06
4.20508e-06
-1.13764e-06
4.377e-06
-5.87534e-07
4.28753e-06
-5.76435e-07
4.13638e-06
-6.99418e-07
4.11042e-06
-5.25616e-07
4.13339e-06
-7.7157e-08
4.16027e-06
2.42725e-07
4.16488e-06
3.05804e-07
4.16301e-06
2.18311e-07
4.15647e-06
1.61522e-07
4.13732e-06
1.75511e-07
4.10896e-06
2.32553e-07
4.07028e-06
2.71235e-07
4.03525e-06
2.7727e-07
4.00875e-06
2.50809e-07
3.9881e-06
2.01326e-07
3.98043e-06
1.51894e-07
3.97048e-06
9.68757e-08
3.96402e-06
4.92822e-08
3.96273e-06
2.93564e-09
3.94651e-06
-4.10272e-08
3.93867e-06
-9.15544e-08
3.92143e-06
-1.43175e-07
3.88393e-06
-2.04186e-07
3.86061e-06
-2.85063e-07
3.79734e-06
-3.6792e-07
3.71568e-06
-4.65368e-07
-5.96703e-07
3.6419e-06
4.07482e-06
-1.42563e-06
4.36621e-06
-8.78932e-07
4.3196e-06
-5.29821e-07
4.06972e-06
-4.49534e-07
3.95219e-06
-4.08092e-07
4.03669e-06
-1.6165e-07
4.15777e-06
1.21642e-07
4.23404e-06
2.29532e-07
4.24436e-06
2.07993e-07
4.21588e-06
1.9e-07
4.17539e-06
2.16003e-07
4.13634e-06
2.71599e-07
4.09708e-06
3.10501e-07
4.06088e-06
3.13468e-07
4.029e-06
2.82693e-07
4.00377e-06
2.2655e-07
3.98575e-06
1.69914e-07
3.97207e-06
1.10561e-07
3.963e-06
5.83516e-08
3.95147e-06
1.44581e-08
3.94195e-06
-3.15037e-08
3.92526e-06
-7.48605e-08
3.90156e-06
-1.19483e-07
3.87578e-06
-1.78406e-07
3.82681e-06
-2.36091e-07
3.7719e-06
-3.1301e-07
3.70318e-06
-3.96648e-07
-4.83211e-07
3.58969e-06
4.00959e-06
-1.6209e-06
4.26701e-06
-1.13636e-06
4.29422e-06
-5.57027e-07
4.14984e-06
-3.05155e-07
4.04175e-06
-2.99999e-07
4.05984e-06
-1.79744e-07
4.18515e-06
-3.6637e-09
4.31242e-06
1.02257e-07
4.33798e-06
1.82439e-07
4.27078e-06
2.57197e-07
4.16338e-06
3.23397e-07
4.06569e-06
3.69297e-07
3.99771e-06
3.78475e-07
3.95966e-06
3.51519e-07
3.94293e-06
2.99421e-07
3.93684e-06
2.32647e-07
3.93785e-06
1.68898e-07
3.93905e-06
1.0936e-07
3.93813e-06
5.92785e-08
3.9354e-06
1.71879e-08
3.92579e-06
-2.18954e-08
3.91055e-06
-5.96219e-08
3.88946e-06
-9.8392e-08
3.85413e-06
-1.43079e-07
3.81146e-06
-1.93418e-07
3.75203e-06
-2.53581e-07
3.67023e-06
-3.1485e-07
-3.92024e-07
3.57904e-06
4.10148e-06
-1.72671e-06
4.14232e-06
-1.17719e-06
4.11383e-06
-5.28544e-07
4.14403e-06
-3.35345e-07
4.17499e-06
-3.3096e-07
4.20208e-06
-2.06835e-07
4.25295e-06
-5.454e-08
4.29205e-06
6.31618e-08
4.30099e-06
1.73504e-07
4.25939e-06
2.9879e-07
4.18475e-06
3.98035e-07
4.10556e-06
4.48491e-07
4.04131e-06
4.42729e-07
3.99789e-06
3.9494e-07
3.97197e-06
3.25334e-07
3.95692e-06
2.47705e-07
3.94906e-06
1.76754e-07
3.94348e-06
1.14935e-07
3.93848e-06
6.42841e-08
3.93144e-06
2.42252e-08
3.92007e-06
-1.05239e-08
3.90298e-06
-4.25313e-08
3.87764e-06
-7.30568e-08
3.84302e-06
-1.08459e-07
3.79596e-06
-1.46355e-07
3.73302e-06
-1.90634e-07
3.65684e-06
-2.38672e-07
-2.9181e-07
3.55662e-06
4.25004e-06
-1.6191e-06
4.16119e-06
-1.08834e-06
3.95953e-06
-3.26887e-07
3.96057e-06
-3.36385e-07
4.01546e-06
-3.85848e-07
4.00344e-06
-1.9481e-07
3.9378e-06
1.10981e-08
3.84488e-06
1.56085e-07
3.75358e-06
2.64801e-07
3.69807e-06
3.54295e-07
3.68209e-06
4.14022e-07
3.6976e-06
4.32975e-07
3.73139e-06
4.08939e-07
3.77265e-06
3.5368e-07
3.81405e-06
2.83933e-07
3.85003e-06
2.11724e-07
3.87893e-06
1.47856e-07
3.89912e-06
9.47478e-08
3.91026e-06
5.31435e-08
3.91299e-06
2.14948e-08
3.90703e-06
-4.56224e-09
3.89197e-06
-2.74701e-08
3.86783e-06
-4.89181e-08
3.83216e-06
-7.27937e-08
3.78396e-06
-9.81554e-08
3.72139e-06
-1.28059e-07
3.64174e-06
-1.59019e-07
-1.9444e-07
3.54437e-06
3.95972e-06
-1.11905e-06
3.66948e-06
-7.98101e-07
3.43122e-06
-8.8626e-08
3.40923e-06
-3.14393e-07
3.36561e-06
-3.42235e-07
3.26759e-06
-9.67821e-08
3.15691e-06
1.21773e-07
3.0699e-06
2.43099e-07
3.04322e-06
2.91481e-07
3.0911e-06
3.06411e-07
3.19843e-06
3.06695e-07
3.33831e-06
2.93092e-07
3.48359e-06
2.63658e-07
3.61463e-06
2.22643e-07
3.7212e-06
1.77359e-07
3.79998e-06
1.32947e-07
3.85379e-06
9.40437e-08
3.88682e-06
6.1724e-08
3.90381e-06
3.61538e-08
3.90869e-06
1.66096e-08
3.90305e-06
1.07887e-09
3.88759e-06
-1.2011e-08
3.86238e-06
-2.37057e-08
3.8257e-06
-3.61107e-08
3.77674e-06
-4.91989e-08
3.71268e-06
-6.39948e-08
3.63337e-06
-7.97086e-08
-9.71982e-08
3.53612e-06
2.96494e-06
2.16683e-06
2.07821e-06
1.76382e-06
1.42158e-06
1.3248e-06
1.44657e-06
1.68967e-06
1.98115e-06
2.28756e-06
2.59426e-06
2.88735e-06
3.15101e-06
3.37365e-06
3.55101e-06
3.68396e-06
3.778e-06
3.83972e-06
3.87588e-06
3.89249e-06
3.89357e-06
3.88156e-06
3.85785e-06
3.82174e-06
3.77254e-06
3.70855e-06
3.62884e-06
3.53164e-06
6.127e-06
1.15291e-06
-2.11161e-06
4.60544e-06
-7.56069e-06
9.08224e-06
3.40054e-06
-6.80013e-06
8.00504e-06
2.21077e-06
-6.55121e-06
7.74098e-06
1.52819e-06
-6.21788e-06
6.90046e-06
1.07219e-06
-5.73571e-06
6.19171e-06
2.38103e-07
-4.46543e-06
5.29951e-06
-4.6933e-06
-1.22778e-06
6.15918e-06
6.81213e-06
-4.24356e-07
3.80583e-06
-4.55439e-06
2.4931e-06
-5.48739e-06
2.1849e-06
-6.24301e-06
1.78219e-06
-5.81517e-06
1.35196e-06
-5.30547e-06
1.08145e-06
-4.19492e-06
-3.71228e-06
1.00436e-07
5.40087e-06
-1.29699e-06
5.36097e-06
-4.51449e-06
5.04091e-06
-5.16733e-06
3.97277e-06
-5.17487e-06
2.72907e-06
-4.57147e-06
1.61481e-06
-4.19122e-06
7.34823e-07
-3.31493e-06
-2.88806e-06
-8.94032e-08
4.66367e-06
-1.37332e-06
3.39439e-06
-3.24522e-06
2.73321e-06
-4.50614e-06
2.46115e-06
-4.90282e-06
2.1457e-06
-4.25601e-06
1.59136e-06
-3.63688e-06
1.18852e-06
-2.91209e-06
-2.45995e-06
7.60415e-07
4.68464e-06
-1.71847e-06
4.40614e-06
-2.96672e-06
3.22294e-06
-3.32294e-06
1.94673e-06
-3.62662e-06
1.65774e-06
-3.96702e-06
1.57862e-06
-3.55776e-06
1.02768e-06
-2.36115e-06
-2.09695e-06
6.64679e-07
3.99024e-06
-1.45817e-06
3.83411e-06
-2.81058e-06
3.42982e-06
-2.91865e-06
2.79072e-06
-2.98751e-06
2.21523e-06
-3.39153e-06
1.78133e-06
-3.12386e-06
1.5731e-06
-2.15293e-06
-2.11864e-06
1.59479e-06
4.18297e-06
-1.6514e-06
3.49914e-06
-2.12675e-06
3.13512e-06
-2.55464e-06
3.58937e-06
-3.44176e-06
3.36157e-06
-3.16373e-06
2.65763e-06
-2.41992e-06
2.48249e-06
-1.97778e-06
-1.74273e-06
2.10658e-06
3.90684e-06
-1.56942e-06
3.54787e-06
-1.76778e-06
3.24827e-06
-2.25504e-06
1.99614e-06
-2.18962e-06
5.56029e-07
-1.72362e-06
4.61586e-07
-2.32547e-06
5.27846e-07
-2.04404e-06
-1.84798e-06
6.33095e-07
3.66286e-06
-1.22852e-06
3.55718e-06
-1.6621e-06
3.4411e-06
-2.13897e-06
3.21448e-06
-1.96301e-06
3.44781e-06
-1.95695e-06
3.65408e-06
-2.53175e-06
3.76456e-06
-2.15452e-06
-1.62199e-06
3.53857e-06
3.77183e-06
-1.29179e-06
3.60842e-06
-1.49869e-06
2.91941e-06
-1.44996e-06
2.74609e-06
-1.78968e-06
2.56636e-06
-1.77722e-06
1.5533e-06
-1.51868e-06
9.11188e-07
-1.51241e-06
-1.40892e-06
6.98114e-07
3.57219e-06
-1.04972e-06
3.35498e-06
-1.28148e-06
3.42731e-06
-1.52229e-06
3.21237e-06
-1.57475e-06
2.86298e-06
-1.42783e-06
2.89464e-06
-1.55034e-06
2.69482e-06
-1.31259e-06
-1.17737e-06
2.46327e-06