/*--------------------------------*- C++ -*----------------------------------*\
| =========                 |                                                 |
| \\      /  F ield         | OpenFOAM: The Open Source CFD Toolbox           |
|  \\    /   O peration     | Version:  2.4.0                                 |
|   \\  /    A nd           | Web:      www.OpenFOAM.org                      |
|    \\/     M anipulation  |                                                 |
\*---------------------------------------------------------------------------*/
FoamFile
{
    version     2.0;
    format      ascii;
    class       volScalarField;
    location    "0.92";
    object      p;
}
// * * * * * * * * * * * * * * * * * * * * * * * * * * * * * * * * * * * * * //

dimensions      [0 2 -2 0 0 0 0];

internalField   nonuniform List<scalar> 
6000
(
-0.106904
0.249174
0.203396
0.227938
0.217356
0.211152
0.179087
0.129573
0.0712655
0.0410587
0.0613206
0.125405
0.202817
0.265154
0.306947
0.333267
0.350698
0.363429
0.374257
0.383939
0.392759
0.40063
0.407396
0.412964
0.417354
0.420687
0.423142
0.424898
0.426101
0.426858
0.427238
0.427287
0.427033
0.426495
0.425681
0.424593
0.423227
0.421572
0.419611
0.417321
0.414672
0.411627
0.40814
0.404153
0.399598
0.394387
0.388416
0.381553
0.373633
0.36445
0.353738
0.341161
0.326257
0.308478
0.28687
0.260762
0.227097
0.187922
0.124989
0.0785079
-0.0805645
0.245769
0.203431
0.227737
0.21753
0.211764
0.180206
0.130725
0.0714972
0.0402183
0.0591837
0.123246
0.20111
0.264038
0.306264
0.33283
0.350387
0.36317
0.374035
0.383743
0.392587
0.400481
0.407267
0.412851
0.417251
0.42059
0.423046
0.424801
0.426001
0.426754
0.427129
0.427173
0.426914
0.426369
0.425548
0.424452
0.423078
0.421413
0.419441
0.417139
0.414476
0.411416
0.407911
0.403905
0.399327
0.394091
0.38809
0.381194
0.373235
0.364009
0.353246
0.340608
0.325633
0.307766
0.286056
0.259809
0.226007
0.186563
0.123565
0.076636
-0.0637367
0.242311
0.203413
0.227651
0.217698
0.212131
0.180623
0.130932
0.0713392
0.0393701
0.0582729
0.121641
0.199844
0.263282
0.305845
0.332572
0.350193
0.362983
0.373859
0.383576
0.392435
0.400347
0.407152
0.412751
0.417161
0.420505
0.422962
0.424716
0.425914
0.426664
0.427037
0.427079
0.426817
0.42627
0.425446
0.424348
0.422971
0.421303
0.419328
0.417023
0.414357
0.411293
0.407785
0.403774
0.399191
0.393949
0.387942
0.381038
0.373067
0.363825
0.353043
0.340383
0.325381
0.30748
0.285726
0.259425
0.225543
0.185948
0.122847
0.0757772
-0.0516119
0.238441
0.203577
0.227549
0.217975
0.212681
0.180935
0.130868
0.0709084
0.0381201
0.0561138
0.11963
0.198453
0.262538
0.305473
0.332346
0.35001
0.362781
0.373658
0.38338
0.392251
0.400183
0.407009
0.412626
0.417049
0.4204
0.422859
0.424611
0.425806
0.426553
0.426921
0.426958
0.426692
0.42614
0.425311
0.424208
0.422824
0.421149
0.419165
0.41685
0.414174
0.411097
0.407574
0.403546
0.398943
0.393679
0.387645
0.380709
0.372709
0.363433
0.352613
0.339907
0.32485
0.306884
0.285055
0.258657
0.22468
0.184993
0.121766
0.074763
-0.0399278
0.234287
0.203911
0.227457
0.218352
0.213364
0.181323
0.130811
0.0703399
0.0366254
0.0538932
0.11741
0.197016
0.261844
0.305166
0.332165
0.349851
0.362574
0.373447
0.383169
0.392053
0.400005
0.406855
0.412494
0.416932
0.420291
0.422753
0.424503
0.425695
0.426438
0.426803
0.426836
0.426566
0.426011
0.425178
0.42407
0.422681
0.421002
0.419013
0.416692
0.414009
0.410925
0.407395
0.403359
0.398747
0.393474
0.387431
0.380486
0.372466
0.363167
0.352318
0.339579
0.324482
0.306469
0.284577
0.258103
0.224016
0.184155
0.120818
0.0738441
-0.0284863
0.23002
0.204394
0.227356
0.21881
0.214146
0.181767
0.130741
0.0696293
0.0348598
0.0513778
0.114965
0.195498
0.261173
0.304913
0.332024
0.349691
0.362381
0.373224
0.382942
0.391838
0.399813
0.406691
0.412356
0.416813
0.420182
0.422646
0.424396
0.425585
0.426323
0.426684
0.426714
0.42644
0.42588
0.425044
0.423931
0.422538
0.420853
0.418858
0.41653
0.413839
0.410746
0.407205
0.403157
0.39853
0.393238
0.387172
0.380197
0.372154
0.362827
0.351945
0.339166
0.324022
0.305949
0.283994
0.257435
0.223259
0.1833
0.119828
0.0729734
-0.0179076
0.225737
0.204945
0.227226
0.219317
0.21498
0.182219
0.130611
0.0687528
0.0328359
0.0485719
0.112293
0.19389
0.260513
0.304704
0.331917
0.349539
0.362188
0.372984
0.382693
0.391601
0.399603
0.406514
0.41221
0.41669
0.420072
0.422541
0.42429
0.425476
0.42621
0.426567
0.426592
0.426314
0.425751
0.42491
0.423793
0.422396
0.420705
0.418705
0.416371
0.413672
0.410572
0.407021
0.402962
0.398324
0.39302
0.386941
0.379955
0.371888
0.362535
0.351622
0.338807
0.32362
0.305497
0.283474
0.256839
0.222554
0.182477
0.118877
0.0721717
-0.00824608
0.221507
0.205493
0.227076
0.219837
0.215825
0.182665
0.130413
0.0677222
0.0305831
0.045497
0.109404
0.192193
0.259862
0.304536
0.331841
0.349396
0.361989
0.372727
0.382421
0.391341
0.399371
0.406319
0.412053
0.416562
0.419961
0.422437
0.424186
0.425369
0.426099
0.426451
0.426472
0.426191
0.425623
0.424779
0.423658
0.422255
0.42056
0.418554
0.416214
0.413509
0.4104
0.40684
0.402771
0.398121
0.392803
0.386706
0.379698
0.371612
0.362234
0.351292
0.338443
0.323213
0.305039
0.282954
0.256239
0.221864
0.18168
0.117968
0.0714318
0.000731894
0.21739
0.205973
0.226922
0.220341
0.216652
0.183103
0.130156
0.0665631
0.0281295
0.042176
0.106313
0.190412
0.259219
0.304407
0.331798
0.349264
0.361786
0.372454
0.382127
0.391056
0.399116
0.406106
0.411883
0.416427
0.419848
0.422334
0.424084
0.425264
0.42599
0.426338
0.426355
0.426069
0.425498
0.424649
0.423524
0.422118
0.420417
0.418406
0.41606
0.413348
0.410231
0.406663
0.402584
0.397922
0.392591
0.38648
0.379454
0.371347
0.361944
0.350974
0.33809
0.322819
0.304596
0.28245
0.255664
0.221195
0.180912
0.117106
0.070743
0.00918392
0.213427
0.206349
0.226769
0.220803
0.217447
0.183526
0.129847
0.0652961
0.0254994
0.0386294
0.103032
0.188551
0.258585
0.304318
0.331787
0.349143
0.361578
0.372168
0.381813
0.390748
0.398839
0.405874
0.411699
0.416284
0.419731
0.42223
0.423984
0.425162
0.425884
0.426227
0.42624
0.42595
0.425375
0.424523
0.423393
0.421982
0.420277
0.418261
0.415909
0.41319
0.410066
0.406489
0.4024
0.397728
0.392383
0.386257
0.379214
0.371087
0.36166
0.350662
0.337745
0.322435
0.304163
0.281959
0.255101
0.220546
0.180169
0.116286
0.0700948
0.0171645
0.209636
0.206603
0.22661
0.221213
0.218202
0.183928
0.129489
0.0639381
0.0227164
0.0348774
0.0995687
0.186608
0.257958
0.304269
0.331806
0.349035
0.361369
0.371871
0.381482
0.390419
0.39854
0.405623
0.411501
0.416132
0.419612
0.422127
0.423885
0.425062
0.42578
0.426119
0.426127
0.425834
0.425255
0.424398
0.423265
0.42185
0.42014
0.418119
0.415761
0.413036
0.409904
0.406319
0.402221
0.397537
0.392179
0.386039
0.378979
0.370832
0.361383
0.350357
0.337407
0.322059
0.30374
0.28148
0.254552
0.219915
0.179448
0.115503
0.0694796
0.0247038
0.206033
0.206731
0.226438
0.221567
0.218915
0.184305
0.129089
0.0625052
0.0198055
0.0309422
0.0959348
0.184581
0.257332
0.304257
0.331848
0.348947
0.361162
0.371568
0.381137
0.390073
0.398222
0.405353
0.411289
0.415972
0.419488
0.422023
0.423788
0.424964
0.425679
0.426014
0.426017
0.42572
0.425137
0.424277
0.42314
0.42172
0.420006
0.417979
0.415616
0.412885
0.409746
0.406152
0.402045
0.39735
0.391981
0.385826
0.37875
0.370583
0.361111
0.350059
0.337077
0.321691
0.303327
0.281012
0.254016
0.2193
0.178747
0.114755
0.0688925
0.0318382
0.202627
0.206741
0.226241
0.22187
0.219576
0.184655
0.128652
0.0610145
0.0167943
0.026851
0.0921444
0.182468
0.2567
0.304277
0.331913
0.348878
0.36096
0.371262
0.380783
0.389712
0.397887
0.405067
0.411063
0.415803
0.41936
0.421918
0.423692
0.424869
0.425581
0.425911
0.42591
0.425609
0.425022
0.424158
0.423017
0.421594
0.419875
0.417843
0.415474
0.412737
0.409591
0.40599
0.401873
0.397168
0.391786
0.385617
0.378525
0.370339
0.360845
0.349767
0.336755
0.321331
0.302923
0.280554
0.253494
0.218702
0.178067
0.11404
0.0683299
0.0386039
0.199423
0.206639
0.226001
0.222135
0.22016
0.184975
0.128185
0.0594835
0.0137139
0.0226379
0.0882183
0.180271
0.256055
0.304308
0.332008
0.348825
0.360765
0.370958
0.380424
0.389342
0.397538
0.404766
0.410824
0.415625
0.419228
0.421813
0.423598
0.424776
0.425485
0.425811
0.425806
0.4255
0.42491
0.424042
0.422897
0.42147
0.419747
0.41771
0.415336
0.412592
0.40944
0.405831
0.401705
0.39699
0.391596
0.385414
0.378306
0.370102
0.360586
0.349482
0.33644
0.32098
0.302528
0.280107
0.252983
0.218118
0.177405
0.113354
0.0677898
0.0450298
0.196423
0.206433
0.225704
0.222372
0.22064
0.185265
0.127691
0.0579308
0.0105991
0.018344
0.0841852
0.177998
0.255391
0.304352
0.33212
0.348787
0.360579
0.370657
0.380064
0.388965
0.397178
0.404452
0.410573
0.415438
0.419092
0.421707
0.423505
0.424686
0.425392
0.425713
0.425704
0.425395
0.424801
0.423929
0.422781
0.421349
0.419621
0.41758
0.415201
0.412451
0.409292
0.405675
0.401541
0.396816
0.39141
0.385215
0.378091
0.369869
0.360332
0.349204
0.336132
0.320637
0.302143
0.279671
0.252485
0.217551
0.176763
0.112697
0.0672705
0.0511381
0.193627
0.206134
0.225337
0.222578
0.220999
0.185523
0.127176
0.0563757
0.00748789
0.0140163
0.0800811
0.175661
0.254704
0.304399
0.332244
0.348764
0.360403
0.370364
0.379707
0.388585
0.396811
0.404127
0.410311
0.415243
0.418951
0.421599
0.423413
0.424597
0.425301
0.425619
0.425606
0.425292
0.424694
0.423819
0.422666
0.421231
0.419499
0.417454
0.415069
0.412314
0.409148
0.405524
0.401381
0.396646
0.39123
0.385021
0.377882
0.369643
0.360085
0.348932
0.335832
0.320303
0.301767
0.279245
0.252
0.216998
0.17614
0.112067
0.066771
0.0569481
0.19103
0.205752
0.224896
0.222743
0.221223
0.185742
0.126645
0.0548384
0.00441998
0.00970659
0.0759483
0.173277
0.253991
0.304443
0.332371
0.348752
0.360239
0.37008
0.379355
0.388207
0.396439
0.403793
0.410039
0.41504
0.418805
0.421491
0.423322
0.424511
0.425213
0.425527
0.425509
0.425192
0.42459
0.423711
0.422555
0.421116
0.41938
0.41733
0.41494
0.412179
0.409008
0.405376
0.401225
0.39648
0.391053
0.384832
0.377679
0.369422
0.359844
0.348668
0.335539
0.319977
0.301401
0.278831
0.251528
0.216461
0.175536
0.111463
0.0662906
0.0624768
0.188627
0.205297
0.224377
0.222858
0.221315
0.185897
0.126104
0.0533392
0.00143598
0.0054692
0.0718331
0.170863
0.253264
0.304472
0.332496
0.348748
0.360085
0.369808
0.379012
0.387833
0.396067
0.403454
0.409759
0.41483
0.418656
0.421381
0.423232
0.424426
0.425127
0.425438
0.425416
0.425094
0.424489
0.423607
0.422447
0.421004
0.419264
0.417209
0.414815
0.412049
0.408871
0.405232
0.401073
0.396319
0.390882
0.384648
0.377481
0.369207
0.35961
0.34841
0.335255
0.319659
0.301044
0.278427
0.251068
0.21594
0.17495
0.110885
0.0658285
0.0677395
0.186413
0.20478
0.223783
0.22291
0.221275
0.185968
0.125562
0.0518983
-0.00142385
0.00135933
0.0677832
0.168447
0.25253
0.304479
0.332612
0.348749
0.359944
0.369548
0.378681
0.387467
0.395697
0.403112
0.409473
0.414613
0.418502
0.42127
0.423143
0.424344
0.425044
0.425351
0.425325
0.425
0.424391
0.423505
0.422342
0.420895
0.419151
0.417092
0.414693
0.411922
0.408738
0.405092
0.400925
0.396163
0.390715
0.384469
0.377288
0.368998
0.359382
0.34816
0.334977
0.319351
0.300698
0.278035
0.250621
0.215434
0.174383
0.110332
0.0653843
0.0727501
0.18438
0.204212
0.223117
0.222884
0.221103
0.185947
0.125021
0.0505352
-0.00412074
-0.00256864
0.0638456
0.166074
0.25179
0.30446
0.332713
0.348752
0.359812
0.369304
0.378364
0.387112
0.395333
0.402769
0.409182
0.41439
0.418344
0.421158
0.423054
0.424264
0.424964
0.425267
0.425237
0.424908
0.424295
0.423406
0.422239
0.420789
0.419041
0.416978
0.414575
0.411798
0.408608
0.404956
0.400782
0.396011
0.390552
0.384295
0.3771
0.368795
0.35916
0.347917
0.334708
0.319051
0.300361
0.277654
0.250187
0.214944
0.173835
0.109803
0.0649575
0.0775211
0.182521
0.203603
0.222384
0.222769
0.220797
0.185836
0.124475
0.0492687
-0.00661819
-0.00626304
0.0600648
0.163801
0.251043
0.30441
0.332794
0.348752
0.359691
0.369074
0.378061
0.386769
0.394977
0.402429
0.408888
0.414163
0.418182
0.421044
0.422967
0.424186
0.424886
0.425186
0.425152
0.424819
0.424202
0.42331
0.42214
0.420685
0.418934
0.416868
0.414459
0.411678
0.408483
0.404824
0.400642
0.395863
0.390395
0.384126
0.376919
0.368598
0.358945
0.34768
0.334447
0.31876
0.300034
0.277285
0.249767
0.21447
0.173306
0.109296
0.0645476
0.0820644
0.180827
0.202962
0.22159
0.222552
0.220363
0.185628
0.123911
0.0481289
-0.00888196
-0.00967566
0.0564964
0.161664
0.250301
0.304328
0.332851
0.348747
0.359578
0.368859
0.377776
0.386441
0.394631
0.402094
0.408594
0.413932
0.418017
0.42093
0.42288
0.424109
0.424811
0.425108
0.42507
0.424732
0.424112
0.423216
0.422043
0.420585
0.418831
0.41676
0.414348
0.411561
0.408361
0.404696
0.400507
0.39572
0.390242
0.383963
0.376742
0.368407
0.358737
0.347452
0.334194
0.318477
0.299717
0.276926
0.24936
0.214011
0.172796
0.108812
0.0641541
0.086391
0.179291
0.202297
0.220744
0.222228
0.219805
0.185314
0.123359
0.0471034
-0.010877
-0.0127562
0.0532843
0.159585
0.249579
0.304214
0.33288
0.348734
0.359472
0.36866
0.377507
0.386129
0.394298
0.401765
0.4083
0.413699
0.41785
0.420814
0.422794
0.424035
0.424738
0.425032
0.42499
0.424649
0.424025
0.423126
0.421949
0.420489
0.41873
0.416656
0.414239
0.411449
0.408243
0.404572
0.400376
0.395581
0.390094
0.383804
0.376572
0.368222
0.358535
0.34723
0.333949
0.318204
0.29941
0.27658
0.248966
0.213568
0.172304
0.10835
0.0637769
0.0905114
0.177903
0.201617
0.219852
0.221793
0.219129
0.184889
0.122822
0.0462043
-0.0125814
-0.0154764
0.0503823
0.157686
0.24889
0.304069
0.332877
0.348709
0.359371
0.368475
0.377257
0.385835
0.393979
0.401446
0.40801
0.413464
0.41768
0.420697
0.422708
0.423962
0.424667
0.424959
0.424913
0.424568
0.423941
0.423038
0.421859
0.420395
0.418633
0.416555
0.414135
0.411339
0.408128
0.404452
0.40025
0.395447
0.389951
0.383651
0.376407
0.368043
0.35834
0.347016
0.333711
0.31794
0.299113
0.276245
0.248585
0.213141
0.17183
0.10791
0.0634154
0.0944357
0.176655
0.200927
0.218922
0.221247
0.21834
0.184353
0.122294
0.045463
-0.0139884
-0.0178052
0.0478337
0.156001
0.248248
0.303897
0.332842
0.348671
0.359275
0.368305
0.377026
0.385559
0.393677
0.401137
0.407725
0.41323
0.417509
0.42058
0.422624
0.423892
0.424599
0.424889
0.424839
0.42449
0.42386
0.422954
0.421771
0.420304
0.418539
0.416458
0.414033
0.411234
0.408018
0.404336
0.400127
0.395317
0.389813
0.383503
0.376247
0.36787
0.358152
0.346809
0.333483
0.317685
0.298827
0.275921
0.248218
0.212729
0.171375
0.10749
0.0630693
0.0981733
0.175538
0.200235
0.217961
0.220596
0.217443
0.183707
0.121772
0.0448855
-0.0150815
-0.0197108
0.0456876
0.154561
0.247666
0.3037
0.332773
0.348617
0.359181
0.368149
0.376812
0.385303
0.393391
0.400841
0.407447
0.412998
0.417338
0.420462
0.42254
0.423823
0.424534
0.424821
0.424768
0.424415
0.423781
0.422872
0.421686
0.420216
0.418449
0.416364
0.413936
0.411132
0.407911
0.404224
0.40001
0.395192
0.38968
0.383361
0.376094
0.367704
0.35797
0.346609
0.333262
0.317439
0.298551
0.27561
0.247864
0.212334
0.170939
0.10709
0.0627384
0.101734
0.174544
0.199546
0.216978
0.219848
0.216444
0.18296
0.121261
0.0444722
-0.0158421
-0.0211615
0.043978
0.15339
0.247157
0.303482
0.332672
0.348547
0.359089
0.368006
0.376617
0.385065
0.393122
0.400559
0.407177
0.412769
0.417166
0.420344
0.422457
0.423757
0.424471
0.424756
0.424699
0.424343
0.423706
0.422794
0.421605
0.420132
0.418361
0.416273
0.413841
0.411034
0.407809
0.404117
0.399896
0.395072
0.389552
0.383224
0.375946
0.367543
0.357795
0.346417
0.33305
0.317202
0.298285
0.27531
0.247524
0.211954
0.170521
0.106709
0.0624223
0.105126
0.173665
0.198864
0.215979
0.219011
0.215349
0.182119
0.120763
0.044226
-0.0162568
-0.0221338
0.0427324
0.152511
0.246733
0.303248
0.332537
0.348459
0.358997
0.367875
0.376439
0.384846
0.392872
0.400292
0.406916
0.412544
0.416996
0.420226
0.422376
0.423692
0.424411
0.424694
0.424634
0.424274
0.423633
0.422718
0.421526
0.420051
0.418277
0.416186
0.413751
0.410939
0.40771
0.404013
0.399787
0.394956
0.389429
0.383092
0.375804
0.36739
0.357627
0.346233
0.332846
0.316975
0.29803
0.275022
0.247198
0.21159
0.170121
0.106348
0.0621207
0.108357
0.172893
0.198193
0.214971
0.218099
0.214167
0.181197
0.120281
0.04415
-0.0163184
-0.0226109
0.041974
0.151939
0.246402
0.303002
0.332372
0.348354
0.358904
0.367756
0.376279
0.384647
0.392641
0.40004
0.406666
0.412324
0.416827
0.42011
0.422296
0.423629
0.424353
0.424635
0.424571
0.424207
0.423563
0.422645
0.421451
0.419972
0.418196
0.416102
0.413664
0.410848
0.407615
0.403914
0.399682
0.394845
0.389311
0.382965
0.375668
0.367242
0.357466
0.346056
0.33265
0.316757
0.297786
0.274746
0.246886
0.211242
0.169739
0.106006
0.0618335
0.111437
0.17222
0.197537
0.21396
0.217124
0.212907
0.180208
0.119819
0.044246
-0.0160241
-0.0225817
0.0417204
0.15169
0.246174
0.302749
0.332179
0.348232
0.358811
0.367647
0.376135
0.384466
0.392428
0.399805
0.406428
0.412111
0.41666
0.419994
0.422217
0.423569
0.424297
0.424578
0.424511
0.424144
0.423496
0.422575
0.421379
0.419897
0.418118
0.416021
0.41358
0.410762
0.407524
0.403818
0.399582
0.394739
0.389198
0.382844
0.375537
0.367101
0.357312
0.345887
0.332463
0.316549
0.297552
0.274483
0.246587
0.210909
0.169375
0.105682
0.0615603
0.114373
0.171639
0.196898
0.212952
0.216098
0.211581
0.179166
0.119383
0.0445155
-0.0153741
-0.0220399
0.0419841
0.151771
0.246053
0.302493
0.331959
0.348094
0.358715
0.367548
0.376008
0.384304
0.392233
0.399586
0.406203
0.411905
0.416497
0.419879
0.422139
0.42351
0.424244
0.424524
0.424454
0.424083
0.423433
0.422509
0.421309
0.419826
0.418044
0.415944
0.4135
0.410678
0.407438
0.403727
0.399486
0.394637
0.38909
0.382729
0.375413
0.366966
0.357165
0.345726
0.332285
0.31635
0.297329
0.274231
0.246303
0.210593
0.169029
0.105376
0.061301
0.117173
0.171143
0.196278
0.211952
0.215033
0.210204
0.178088
0.118982
0.0449599
-0.0143704
-0.0209837
0.0427723
0.152187
0.246044
0.302238
0.331716
0.34794
0.358618
0.367458
0.375895
0.384159
0.392057
0.399385
0.405991
0.411708
0.416338
0.419767
0.422063
0.423454
0.424194
0.424473
0.424399
0.424025
0.423372
0.422445
0.421243
0.419757
0.417973
0.415871
0.413424
0.410599
0.407355
0.403641
0.399394
0.394541
0.388987
0.382619
0.375294
0.366838
0.357025
0.345572
0.332115
0.316161
0.297116
0.273992
0.246032
0.210292
0.168701
0.105088
0.0610554
0.119843
0.170725
0.19568
0.210965
0.213943
0.208789
0.176989
0.118627
0.0455822
-0.0130156
-0.0194141
0.0440873
0.152939
0.246148
0.301989
0.331454
0.347772
0.358518
0.367375
0.375797
0.384032
0.391898
0.3992
0.405794
0.41152
0.416184
0.419657
0.42199
0.4234
0.424147
0.424425
0.424348
0.42397
0.423314
0.422385
0.42118
0.419692
0.417905
0.415801
0.413351
0.410523
0.407276
0.403558
0.399308
0.394449
0.388889
0.382514
0.375182
0.366716
0.356892
0.345426
0.331953
0.315981
0.296915
0.273765
0.245775
0.210008
0.168391
0.104816
0.0608232
0.12239
0.17038
0.195103
0.209995
0.212838
0.207353
0.175886
0.118331
0.0463871
-0.0113109
-0.0173342
0.0459271
0.154022
0.246365
0.301748
0.331175
0.347591
0.358416
0.367301
0.375712
0.38392
0.391757
0.399032
0.40561
0.411342
0.416036
0.41955
0.421918
0.423348
0.424102
0.42438
0.4243
0.423919
0.423259
0.422327
0.42112
0.41963
0.417841
0.415734
0.413282
0.410452
0.407201
0.40348
0.399225
0.394362
0.388796
0.382415
0.375075
0.3666
0.356767
0.345288
0.331801
0.315811
0.296724
0.27355
0.245532
0.209739
0.168099
0.104562
0.0606043
0.124821
0.170102
0.19455
0.209046
0.211729
0.205911
0.174795
0.11811
0.047382
-0.00925493
-0.0147471
0.0482855
0.155428
0.246692
0.30152
0.330884
0.3474
0.358313
0.367233
0.37564
0.383824
0.391633
0.398881
0.405441
0.411175
0.415894
0.419447
0.421849
0.423299
0.424059
0.424337
0.424254
0.42387
0.423207
0.422273
0.421064
0.419571
0.41778
0.415671
0.413217
0.410384
0.407131
0.403406
0.399147
0.39428
0.388709
0.382322
0.374975
0.366492
0.356648
0.345158
0.331657
0.315651
0.296544
0.273348
0.245304
0.209486
0.167824
0.104324
0.0603986
0.127141
0.169884
0.194021
0.208121
0.210624
0.204478
0.173732
0.11798
0.0485772
-0.00684221
-0.0116556
0.0511528
0.157143
0.247124
0.301306
0.330584
0.3472
0.358208
0.367172
0.37558
0.383744
0.391524
0.398746
0.405287
0.411019
0.415759
0.419347
0.421782
0.423253
0.42402
0.424297
0.424212
0.423824
0.423158
0.422221
0.42101
0.419515
0.417723
0.415612
0.413155
0.41032
0.407064
0.403336
0.399074
0.394202
0.388627
0.382234
0.374881
0.366389
0.356537
0.345036
0.331522
0.3155
0.296376
0.273158
0.245089
0.209249
0.167567
0.104102
0.0602058
0.129357
0.169723
0.193515
0.207221
0.209532
0.203068
0.172713
0.117959
0.049986
-0.00406326
-0.00806102
0.0545153
0.15915
0.247655
0.301109
0.330277
0.346993
0.358102
0.367117
0.375531
0.383677
0.391431
0.398627
0.405148
0.410874
0.415631
0.419252
0.421719
0.423209
0.423983
0.424261
0.424172
0.423781
0.423113
0.422173
0.42096
0.419463
0.417669
0.415556
0.413098
0.41026
0.407002
0.403271
0.399006
0.39413
0.38855
0.382152
0.374792
0.366294
0.356433
0.344921
0.331395
0.31536
0.296218
0.27298
0.244889
0.209028
0.167327
0.103896
0.0600261
0.131473
0.169614
0.193034
0.20635
0.208458
0.201692
0.171754
0.118061
0.0516237
-0.000905013
-0.0039644
0.0583549
0.161427
0.248279
0.300931
0.329969
0.346781
0.357996
0.367067
0.375492
0.383623
0.391353
0.398523
0.405023
0.410742
0.415511
0.419161
0.421658
0.423167
0.423949
0.424227
0.424136
0.423742
0.42307
0.422128
0.420913
0.419414
0.417618
0.415504
0.413043
0.410204
0.406943
0.40321
0.398942
0.394062
0.388478
0.382075
0.37471
0.366205
0.356336
0.344815
0.331278
0.315229
0.296071
0.272815
0.244703
0.208822
0.167105
0.103707
0.0598591
0.133495
0.169551
0.192578
0.205507
0.20741
0.20036
0.170866
0.118303
0.0535067
0.00264749
0.000632225
0.0626488
0.163949
0.248986
0.300775
0.329662
0.346566
0.357889
0.367023
0.375463
0.383582
0.391289
0.398434
0.404913
0.410621
0.4154
0.419076
0.421601
0.423129
0.423918
0.424196
0.424102
0.423705
0.423031
0.422087
0.420869
0.419369
0.417571
0.415455
0.412993
0.410152
0.406889
0.403153
0.398882
0.394
0.388412
0.382004
0.374634
0.366122
0.356246
0.344716
0.331169
0.315108
0.295936
0.272663
0.244531
0.208633
0.1669
0.103532
0.0597049
0.135428
0.169531
0.192146
0.204696
0.206392
0.199082
0.170061
0.118697
0.0556505
0.00660827
0.00572321
0.0673676
0.166688
0.249768
0.300641
0.329359
0.346349
0.357783
0.366984
0.375443
0.383552
0.391239
0.39836
0.404816
0.410513
0.415298
0.418996
0.421548
0.423094
0.42389
0.424168
0.424072
0.423671
0.422994
0.422048
0.420829
0.419327
0.417528
0.41541
0.412947
0.410104
0.406839
0.403101
0.398828
0.393942
0.388351
0.381939
0.374564
0.366047
0.356164
0.344626
0.331069
0.314997
0.295811
0.272523
0.244373
0.208459
0.166713
0.103373
0.0595634
0.137275
0.169551
0.191738
0.203915
0.205408
0.197864
0.169348
0.119252
0.0580676
0.0109869
0.0112961
0.0724746
0.169611
0.250614
0.300532
0.329062
0.346134
0.357679
0.366949
0.375432
0.383533
0.391201
0.398299
0.404734
0.410417
0.415205
0.418922
0.421499
0.423062
0.423865
0.424143
0.424045
0.423641
0.422961
0.422012
0.420791
0.419288
0.417487
0.415368
0.412904
0.410059
0.406793
0.403053
0.398778
0.393889
0.388295
0.381879
0.3745
0.365978
0.356088
0.344544
0.330978
0.314896
0.295698
0.272395
0.244229
0.208301
0.166542
0.103229
0.0594346
0.139042
0.169607
0.191355
0.203167
0.20446
0.19671
0.168733
0.119974
0.0607652
0.0157844
0.0173284
0.0779252
0.172686
0.251515
0.300447
0.328776
0.345921
0.357577
0.36692
0.375428
0.383525
0.391174
0.398252
0.404665
0.410333
0.415121
0.418855
0.421453
0.423033
0.423843
0.424122
0.42402
0.423614
0.422931
0.42198
0.420757
0.419253
0.417451
0.415331
0.412865
0.410019
0.406751
0.40301
0.398732
0.393842
0.388245
0.381826
0.374442
0.365916
0.356021
0.34447
0.330896
0.314805
0.295596
0.272281
0.2441
0.208159
0.166389
0.1031
0.0593184
0.140731
0.169695
0.190996
0.20245
0.203552
0.195624
0.168218
0.120863
0.063743
0.0209896
0.0237845
0.0836663
0.175876
0.252463
0.300388
0.328501
0.345711
0.357477
0.366895
0.375431
0.383526
0.391159
0.398216
0.404609
0.410261
0.415047
0.418794
0.421413
0.423008
0.423825
0.424103
0.423999
0.423589
0.422904
0.421951
0.420727
0.419221
0.417418
0.415297
0.41283
0.409983
0.406714
0.402971
0.398691
0.393799
0.388199
0.381778
0.374391
0.36586
0.35596
0.344404
0.330824
0.314724
0.295505
0.272178
0.243985
0.208033
0.166253
0.102986
0.0592148
0.142348
0.169812
0.190661
0.201766
0.202683
0.194607
0.167803
0.121916
0.0669914
0.0265764
0.0306146
0.0896375
0.179148
0.253448
0.300356
0.32824
0.345508
0.35738
0.366874
0.375442
0.383536
0.391155
0.398193
0.404566
0.410202
0.414982
0.41874
0.421377
0.422987
0.423809
0.424087
0.423981
0.423568
0.422881
0.421926
0.4207
0.419192
0.417388
0.415266
0.412798
0.409951
0.40668
0.402936
0.398655
0.393761
0.38816
0.381735
0.374346
0.365811
0.355907
0.344346
0.33076
0.314653
0.295425
0.272089
0.243884
0.207922
0.166134
0.102886
0.0591239
0.143895
0.169956
0.190349
0.201115
0.201856
0.193661
0.167487
0.123124
0.0704908
0.0325023
0.0377542
0.0957732
0.182469
0.254463
0.300352
0.327996
0.345312
0.357288
0.366858
0.375458
0.383554
0.391161
0.398181
0.404534
0.410154
0.414928
0.418693
0.421346
0.422969
0.423797
0.424075
0.423966
0.423551
0.42286
0.421903
0.420676
0.419167
0.417362
0.415239
0.412771
0.409922
0.406651
0.402906
0.398624
0.393728
0.388125
0.381699
0.374307
0.365769
0.355862
0.344296
0.330705
0.314592
0.295357
0.272012
0.243798
0.207827
0.166032
0.102801
0.0590456
0.145375
0.170124
0.190061
0.200496
0.201071
0.192786
0.167266
0.124472
0.0742114
0.0387099
0.0451271
0.102006
0.185809
0.255502
0.300375
0.327769
0.345124
0.3572
0.366846
0.375481
0.38358
0.391176
0.39818
0.404515
0.410117
0.414883
0.418653
0.42132
0.422955
0.423788
0.424066
0.423954
0.423536
0.422843
0.421884
0.420655
0.419146
0.41734
0.415216
0.412747
0.409898
0.406626
0.402881
0.398598
0.393701
0.388096
0.381668
0.374274
0.365734
0.355824
0.344254
0.330659
0.314541
0.2953
0.271948
0.243726
0.207748
0.165947
0.10273
0.0589802
0.146792
0.170314
0.189796
0.199909
0.200328
0.19198
0.167134
0.125946
0.0781149
0.0451295
0.052649
0.108268
0.18914
0.25656
0.300426
0.327561
0.344946
0.357117
0.366839
0.375509
0.383613
0.391199
0.398189
0.404506
0.410092
0.414848
0.418621
0.421299
0.422945
0.423783
0.42406
0.423946
0.423525
0.422829
0.421869
0.420638
0.419128
0.417321
0.415197
0.412728
0.409878
0.406606
0.402859
0.398576
0.393678
0.388072
0.381643
0.374247
0.365706
0.355793
0.344221
0.330622
0.3145
0.295254
0.271897
0.243669
0.207685
0.16588
0.102673
0.0589275
0.148149
0.170524
0.189555
0.199355
0.199628
0.191242
0.167087
0.127525
0.0821568
0.0516849
0.0602338
0.1145
0.192441
0.257632
0.300506
0.327374
0.344779
0.357041
0.366836
0.375543
0.383653
0.391231
0.398207
0.404508
0.410077
0.414823
0.418596
0.421284
0.422939
0.423781
0.424057
0.42394
0.423516
0.422819
0.421856
0.420624
0.419113
0.417306
0.415182
0.412712
0.409862
0.406589
0.402843
0.398559
0.39366
0.388054
0.381624
0.374227
0.365684
0.35577
0.344195
0.330594
0.314469
0.29522
0.271859
0.243625
0.207638
0.165829
0.102631
0.0588877
0.149447
0.170751
0.189335
0.198832
0.198969
0.19057
0.167118
0.129191
0.0862902
0.0582992
0.0677994
0.120649
0.195696
0.258716
0.300614
0.327208
0.344623
0.356971
0.366839
0.375581
0.3837
0.391271
0.398234
0.40452
0.410074
0.414808
0.41858
0.421274
0.422937
0.423782
0.424058
0.423938
0.423512
0.422812
0.421847
0.420614
0.419102
0.417295
0.41517
0.4127
0.40985
0.406577
0.40283
0.398546
0.393648
0.388041
0.38161
0.374213
0.365669
0.355754
0.344178
0.330575
0.314448
0.295197
0.271833
0.243596
0.207606
0.165795
0.102603
0.0588609
0.150691
0.170993
0.189138
0.198342
0.198352
0.189964
0.16722
0.130925
0.0904699
0.0649009
0.0752736
0.126673
0.198892
0.259808
0.300751
0.327065
0.344481
0.356908
0.366846
0.375625
0.383752
0.391318
0.39827
0.404542
0.41008
0.414802
0.418571
0.42127
0.42294
0.423788
0.424062
0.42394
0.42351
0.422808
0.421841
0.420607
0.419094
0.417287
0.415162
0.412692
0.409842
0.406569
0.402823
0.398539
0.39364
0.388033
0.381603
0.374205
0.365661
0.355745
0.344169
0.330565
0.314437
0.295185
0.27182
0.243582
0.20759
0.165778
0.102589
0.0588473
0.151883
0.171249
0.188962
0.197883
0.197776
0.189419
0.167388
0.132709
0.0946551
0.0714286
0.0825977
0.13254
0.20202
0.260908
0.300917
0.326944
0.344352
0.356852
0.366858
0.375674
0.38381
0.391371
0.398314
0.404573
0.410096
0.414805
0.418569
0.421272
0.422947
0.423797
0.424069
0.423944
0.423512
0.422807
0.421839
0.420604
0.41909
0.417282
0.415157
0.412687
0.409838
0.406566
0.402819
0.398536
0.393638
0.388031
0.381601
0.374204
0.36566
0.355744
0.344168
0.330565
0.314437
0.295185
0.271819
0.243581
0.20759
0.165777
0.102589
0.0588473
0.153024
0.171518
0.188808
0.197455
0.197241
0.188935
0.167618
0.134529
0.0988124
0.0778334
0.0897279
0.138232
0.205077
0.262013
0.30111
0.326847
0.344238
0.356805
0.366876
0.375727
0.383873
0.391431
0.398365
0.404613
0.410122
0.414818
0.418576
0.42128
0.422959
0.423809
0.42408
0.423952
0.423517
0.42281
0.42184
0.420604
0.41909
0.417282
0.415157
0.412687
0.409838
0.406566
0.402821
0.398538
0.39364
0.388035
0.381605
0.374208
0.365665
0.355751
0.344176
0.330573
0.314447
0.295196
0.271832
0.243596
0.207605
0.165794
0.102603
0.0588607
0.154117
0.171798
0.188675
0.197057
0.196746
0.188509
0.167904
0.136372
0.102916
0.0840806
0.0966356
0.143736
0.20806
0.263124
0.301331
0.326773
0.344138
0.356766
0.366899
0.375785
0.383941
0.391496
0.398423
0.404661
0.410157
0.41484
0.41859
0.421294
0.422975
0.423826
0.424094
0.423963
0.423525
0.422816
0.421845
0.420607
0.419093
0.417285
0.41516
0.412691
0.409842
0.406571
0.402826
0.398544
0.393648
0.388043
0.381615
0.374219
0.365678
0.355764
0.344191
0.330591
0.314466
0.295218
0.271857
0.243624
0.207637
0.165828
0.102631
0.0588874
0.155164
0.172087
0.188562
0.196691
0.19629
0.18814
0.168242
0.13823
0.10695
0.0901478
0.103305
0.149049
0.210968
0.264238
0.301578
0.326723
0.344054
0.356737
0.366927
0.375847
0.384014
0.391567
0.398488
0.404717
0.410201
0.414871
0.418613
0.421314
0.422996
0.423846
0.424112
0.423978
0.423536
0.422825
0.421852
0.420614
0.4191
0.417291
0.415167
0.412698
0.409851
0.406581
0.402837
0.398556
0.39366
0.388057
0.38163
0.374237
0.365697
0.355786
0.344215
0.330617
0.314496
0.295252
0.271895
0.243667
0.207684
0.165879
0.102673
0.0589271
0.156167