/*--------------------------------*- C++ -*----------------------------------*\
| =========                 |                                                 |
| \\      /  F ield         | OpenFOAM: The Open Source CFD Toolbox           |
|  \\    /   O peration     | Version:  2.4.0                                 |
|   \\  /    A nd           | Web:      www.OpenFOAM.org                      |
|    \\/     M anipulation  |                                                 |
\*---------------------------------------------------------------------------*/
FoamFile
{
    version     2.0;
    format      ascii;
    class       volVectorField;
    location    "300";
    object      U;
}
// * * * * * * * * * * * * * * * * * * * * * * * * * * * * * * * * * * * * * //

dimensions      [0 1 -1 0 0 0 0];

internalField   nonuniform List<vector> 
12225
(
(9.84738 0.0276228 0)
(9.60645 0.0462072 0)
(9.3564 0.0508814 0)
(9.10784 0.0512142 0)
(8.8723 0.0498029 0)
(8.65225 0.0474758 0)
(8.44449 0.044921 0)
(8.24856 0.0424342 0)
(8.06437 0.0401114 0)
(7.89085 0.0379929 0)
(7.72732 0.0360986 0)
(7.57254 0.0344107 0)
(7.4263 0.0329571 0)
(7.28673 0.0317144 0)
(7.15413 0.0308263 0)
(7.02469 0.0300001 0)
(6.9031 0.0304831 0)
(6.77037 0.028402 0)
(10.0127 0.0509984 0)
(10.0276 0.0604976 0)
(10.0192 0.0587815 0)
(9.99386 0.0587053 0)
(9.96054 0.0593756 0)
(9.92154 0.0597109 0)
(9.87732 0.0599394 0)
(9.82906 0.0601779 0)
(9.77777 0.0603995 0)
(9.72408 0.0606186 0)
(9.66838 0.0608665 0)
(9.61094 0.0611629 0)
(9.55191 0.0615934 0)
(9.49128 0.0622157 0)
(9.42898 0.063249 0)
(9.36444 0.064608 0)
(9.29765 0.0671813 0)
(9.2259 0.0701732 0)
(10.0155 0.0399924 0)
(10.0408 0.0536726 0)
(10.0556 0.0570764 0)
(10.0575 0.0598763 0)
(10.0577 0.0631083 0)
(10.0558 0.0650895 0)
(10.051 0.0664647 0)
(10.0437 0.0675992 0)
(10.0343 0.0685835 0)
(10.0228 0.0695358 0)
(10.0093 0.0705538 0)
(9.99374 0.0717185 0)
(9.97618 0.0731524 0)
(9.95643 0.0749724 0)
(9.93441 0.0774163 0)
(9.90963 0.0805852 0)
(9.88228 0.0852901 0)
(9.85008 0.0913711 0)
(10.0121 0.0331582 0)
(10.0345 0.0495851 0)
(10.0509 0.0548917 0)
(10.0575 0.0585772 0)
(10.0625 0.0618163 0)
(10.0663 0.0640518 0)
(10.068 0.0656904 0)
(10.0681 0.0672053 0)
(10.0669 0.0688027 0)
(10.0643 0.0704672 0)
(10.0604 0.0722735 0)
(10.0549 0.0743183 0)
(10.048 0.0767355 0)
(10.0394 0.0796709 0)
(10.0291 0.0833758 0)
(10.0169 0.0880562 0)
(10.0027 0.0944197 0)
(9.98577 0.102781 0)
(10.0084 0.0268958 0)
(10.0275 0.0448297 0)
(10.0433 0.0517421 0)
(10.0514 0.0561943 0)
(10.0577 0.0599314 0)
(10.0628 0.062773 0)
(10.0662 0.0650714 0)
(10.068 0.067162 0)
(10.0687 0.0691766 0)
(10.0683 0.0713514 0)
(10.0667 0.073711 0)
(10.0639 0.0763674 0)
(10.0598 0.0794704 0)
(10.0544 0.083191 0)
(10.0475 0.0877857 0)
(10.0392 0.0935204 0)
(10.0293 0.100974 0)
(10.018 0.110572 0)
(10.0056 0.0215741 0)
(10.0212 0.0398606 0)
(10.0357 0.0481521 0)
(10.0445 0.053463 0)
(10.0513 0.0577374 0)
(10.0568 0.0611003 0)
(10.0609 0.0638698 0)
(10.0636 0.0664168 0)
(10.065 0.0688768 0)
(10.0655 0.071516 0)
(10.0648 0.0743969 0)
(10.063 0.0776398 0)
(10.0601 0.0814048 0)
(10.056 0.0858751 0)
(10.0507 0.0912991 0)
(10.0442 0.0979527 0)
(10.0367 0.106289 0)
(10.0282 0.116709 0)
(10.0037 0.0173637 0)
(10.0159 0.0350475 0)
(10.0287 0.0442772 0)
(10.0376 0.0503531 0)
(10.0445 0.0551591 0)
(10.0503 0.0590364 0)
(10.0547 0.0623094 0)
(10.0579 0.0653449 0)
(10.0598 0.0682923 0)
(10.0608 0.0714214 0)
(10.0607 0.0748438 0)
(10.0596 0.0786819 0)
(10.0574 0.0830954 0)
(10.0543 0.0882675 0)
(10.0501 0.094428 0)
(10.045 0.101837 0)
(10.0391 0.110838 0)
(10.0327 0.121743 0)
(10.0025 0.014505 0)
(10.0123 0.0313075 0)
(10.0234 0.0409552 0)
(10.032 0.0475295 0)
(10.0389 0.0527455 0)
(10.0446 0.057039 0)
(10.0492 0.060736 0)
(10.0526 0.064194 0)
(10.0549 0.0675672 0)
(10.0563 0.0711331 0)
(10.0566 0.0750195 0)
(10.056 0.0793567 0)
(10.0544 0.0843032 0)
(10.052 0.0900371 0)
(10.0486 0.0967667 0)
(10.0445 0.104717 0)
(10.0399 0.114148 0)
(10.035 0.125291 0)
(10.0018 0.0123954 0)
(10.0097 0.0282314 0)
(10.0194 0.0380341 0)
(10.0275 0.044956 0)
(10.0341 0.050493 0)
(10.0398 0.0551242 0)
(10.0444 0.0591789 0)
(10.048 0.0630031 0)
(10.0506 0.0667534 0)
(10.0522 0.0707081 0)
(10.0529 0.0750012 0)
(10.0528 0.0797692 0)
(10.0517 0.0851663 0)
(10.0499 0.0913599 0)
(10.0473 0.0985353 0)
(10.0442 0.106885 0)
(10.0406 0.116605 0)
(10.0369 0.127863 0)
(10.0013 0.0105621 0)
(10.0075 0.0252262 0)
(10.0157 0.0349955 0)
(10.0231 0.0421523 0)
(10.0294 0.0479612 0)
(10.0349 0.0529114 0)
(10.0395 0.0573209 0)
(10.0432 0.0615171 0)
(10.046 0.0656637 0)
(10.048 0.0700316 0)
(10.0491 0.0747499 0)
(10.0494 0.0799619 0)
(10.049 0.0858135 0)
(10.0479 0.0924565 0)
(10.0462 0.100049 0)
(10.0441 0.108745 0)
(10.0416 0.118684 0)
(10.0392 0.129975 0)
(10.0009 0.00898 0)
(10.0057 0.0223387 0)
(10.0125 0.0318995 0)
(10.0191 0.0391662 0)
(10.025 0.0451757 0)
(10.0302 0.050403 0)
(10.0347 0.0551447 0)
(10.0385 0.0596975 0)
(10.0415 0.0642451 0)
(10.0438 0.0690203 0)
(10.0453 0.0741628 0)
(10.0462 0.0798101 0)
(10.0465 0.0860949 0)
(10.0462 0.0931488 0)
(10.0455 0.1011 0)
(10.0444 0.110062 0)
(10.0432 0.120126 0)
(10.0421 0.13135 0)
(10.0006 0.00763218 0)
(10.0042 0.0196095 0)
(10.0099 0.0287841 0)
(10.0157 0.0360312 0)
(10.0211 0.042156 0)
(10.026 0.0475957 0)
(10.0304 0.0526272 0)
(10.0343 0.0574976 0)
(10.0375 0.0624206 0)
(10.0401 0.0675767 0)
(10.0421 0.0731111 0)
(10.0436 0.0791506 0)
(10.0446 0.0858111 0)
(10.0451 0.0932003 0)
(10.0454 0.101414 0)
(10.0456 0.110532 0)
(10.0456 0.120601 0)
(10.0459 0.131642 0)
(10.0005 0.00648824 0)
(10.0032 0.0170602 0)
(10.0078 0.0256724 0)
(10.0129 0.0327573 0)
(10.0179 0.0388925 0)
(10.0225 0.0444622 0)
(10.0268 0.0497057 0)
(10.0307 0.0548489 0)
(10.0342 0.0600802 0)
(10.0371 0.0655587 0)
(10.0397 0.0714188 0)
(10.0418 0.0777711 0)
(10.0436 0.0847115 0)
(10.0451 0.0923225 0)
(10.0465 0.10067 0)
(10.0478 0.109798 0)
(10.0492 0.119724 0)
(10.0508 0.130443 0)
(10.0003 0.00549813 0)
(10.0025 0.0146795 0)
(10.0062 0.0225651 0)
(10.0108 0.0293259 0)
(10.0153 0.0353418 0)
(10.0198 0.0409216 0)
(10.0241 0.0462858 0)
(10.0281 0.0516066 0)
(10.0319 0.0570502 0)
(10.0353 0.0627567 0)
(10.0384 0.0688371 0)
(10.0413 0.0753815 0)
(10.0439 0.0824645 0)
(10.0465 0.0901435 0)
(10.049 0.098457 0)
(10.0515 0.107424 0)
(10.0542 0.117037 0)
(10.0571 0.127276 0)
(10.0003 0.00460174 0)
(10.002 0.0124109 0)
(10.0052 0.0194191 0)
(10.0092 0.0256704 0)
(10.0136 0.0314117 0)
(10.018 0.036863 0)
(10.0223 0.0421932 0)
(10.0266 0.047553 0)
(10.0307 0.0530749 0)
(10.0347 0.058867 0)
(10.0385 0.0650161 0)
(10.0422 0.07159 0)
(10.0458 0.0786397 0)
(10.0494 0.0861989 0)
(10.053 0.0942841 0)
(10.0568 0.102894 0)
(10.0607 0.112006 0)
(10.0649 0.121595 0)
(10.0002 0.00371888 0)
(10.0017 0.0101756 0)
(10.0046 0.0161458 0)
(10.0083 0.0216795 0)
(10.0126 0.0269311 0)
(10.017 0.032053 0)
(10.0216 0.0371694 0)
(10.0262 0.0423873 0)
(10.0308 0.0478006 0)
(10.0354 0.0534869 0)
(10.04 0.0595063 0)
(10.0446 0.0659027 0)
(10.0492 0.0727046 0)
(10.0538 0.0799257 0)
(10.0586 0.0875649 0)
(10.0635 0.0956073 0)
(10.0687 0.104023 0)
(10.0741 0.112784 0)
(10.0002 0.00279132 0)
(10.0016 0.00778281 0)
(10.0044 0.012528 0)
(10.0081 0.0171174 0)
(10.0124 0.0216459 0)
(10.017 0.0262023 0)
(10.022 0.0308635 0)
(10.0271 0.0356964 0)
(10.0323 0.0407581 0)
(10.0376 0.046094 0)
(10.043 0.0517367 0)
(10.0485 0.0577067 0)
(10.0541 0.0640126 0)
(10.0598 0.0706516 0)
(10.0657 0.0776102 0)
(10.0718 0.0848656 0)
(10.0781 0.0923848 0)
(10.0846 0.100141 0)
(10.0002 0.00181131 0)
(10.0017 0.00519675 0)
(10.0045 0.0085532 0)
(10.0085 0.0120043 0)
(10.013 0.0155988 0)
(10.0181 0.0193689 0)
(10.0235 0.0233477 0)
(10.0292 0.0275645 0)
(10.0351 0.0320414 0)
(10.0411 0.0367936 0)
(10.0474 0.0418291 0)
(10.0537 0.0471489 0)
(10.0602 0.052746 0)
(10.0669 0.0586062 0)
(10.0738 0.0647088 0)
(10.0808 0.0710273 0)
(10.088 0.0775291 0)
(10.0954 0.0841903 0)
(10.0002 0.000849146 0)
(10.0019 0.00253292 0)
(10.005 0.00445063 0)
(10.0094 0.00671445 0)
(10.0144 0.00931242 0)
(10.0199 0.0122197 0)
(10.0259 0.0154285 0)
(10.0321 0.0189333 0)
(10.0387 0.0227256 0)
(10.0454 0.0267955 0)
(10.0523 0.0311325 0)
(10.0594 0.0357231 0)
(10.0666 0.0405501 0)
(10.0741 0.0455923 0)
(10.0817 0.0508253 0)
(10.0894 0.0562217 0)
(10.0973 0.061751 0)
(10.1054 0.0673925 0)
(10.0003 -0.000143476 0)
(10.0022 -0.000177166 0)
(10.0059 0.000344388 0)
(10.0107 0.00148574 0)
(10.0163 0.00314341 0)
(10.0224 0.00523019 0)
(10.0288 0.00769987 0)
(10.0357 0.0105143 0)
(10.0427 0.0136375 0)
(10.05 0.0170403 0)
(10.0575 0.0206986 0)
(10.0651 0.0245892 0)
(10.073 0.0286881 0)
(10.081 0.0329704 0)
(10.0891 0.0374101 0)
(10.0974 0.0419806 0)
(10.1058 0.0466532 0)
(10.1144 0.05141 0)
(10.0003 -0.00122276 0)
(10.0027 -0.00303536 0)
(10.0071 -0.00384459 0)
(10.0126 -0.00371816 0)
(10.0188 -0.0029045 0)
(10.0254 -0.00155585 0)
(10.0324 0.00024663 0)
(10.0397 0.00243148 0)
(10.0473 0.00493793 0)
(10.055 0.00772261 0)
(10.063 0.0107526 0)
(10.0711 0.0139985 0)
(10.0794 0.0174324 0)
(10.0878 0.0210276 0)
(10.0964 0.024758 0)
(10.1051 0.0285979 0)
(10.1139 0.0325214 0)
(10.1227 0.0365123 0)
(10.0005 -0.00246188 0)
(10.0035 -0.00613947 0)
(10.0088 -0.00817811 0)
(10.0152 -0.00891904 0)
(10.022 -0.00882405 0)
(10.0292 -0.00810507 0)
(10.0367 -0.00687491 0)
(10.0444 -0.00523965 0)
(10.0524 -0.00328052 0)
(10.0605 -0.00104893 0)
(10.0689 0.00141747 0)
(10.0773 0.00408564 0)
(10.086 0.00692581 0)
(10.0947 0.00991093 0)
(10.1036 0.0130156 0)
(10.1125 0.0162156 0)
(10.1216 0.0194871 0)
(10.1307 0.0228151 0)
(10.0008 -0.00404602 0)
(10.0048 -0.00956004 0)
(10.0113 -0.0126616 0)
(10.0185 -0.0141027 0)
(10.026 -0.0145883 0)
(10.0337 -0.0143749 0)
(10.0417 -0.0136109 0)
(10.0498 -0.0124375 0)
(10.0581 -0.0109485 0)
(10.0665 -0.00919672 0)
(10.0751 -0.00722139 0)
(10.0838 -0.00505739 0)
(10.0926 -0.00273486 0)
(10.1016 -0.00028025 0)
(10.1106 0.0022822 0)
(10.1197 0.00492974 0)
(10.1289 0.00764066 0)
(10.1381 0.0104003 0)
(10.0012 -0.00604367 0)
(10.0067 -0.0133971 0)
(10.0147 -0.0173221 0)
(10.0229 -0.0192638 0)
(10.0309 -0.020172 0)
(10.0391 -0.0203156 0)
(10.0473 -0.0198951 0)
(10.0557 -0.0190867 0)
(10.0641 -0.0179848 0)
(10.0726 -0.0166363 0)
(10.0813 -0.0150793 0)
(10.0901 -0.0133485 0)
(10.099 -0.0114728 0)
(10.1079 -0.00947718 0)
(10.117 -0.00738411 0)
(10.1261 -0.00521485 0)
(10.1353 -0.00298897 0)
(10.1444 -0.000722481 0)
(10.002 -0.008663 0)
(10.0094 -0.0177743 0)
(10.0194 -0.0221578 0)
(10.0282 -0.0243013 0)
(10.0365 -0.0254362 0)
(10.0449 -0.0257917 0)
(10.0532 -0.0256022 0)
(10.0615 -0.025068 0)
(10.0699 -0.0242722 0)
(10.0783 -0.0232508 0)
(10.0869 -0.0220393 0)
(10.0955 -0.0206711 0)
(10.1043 -0.0191728 0)
(10.1131 -0.0175668 0)
(10.1221 -0.0158733 0)
(10.131 -0.0141121 0)
(10.1401 -0.0122995 0)
(10.1491 -0.0104538 0)
(10.0033 -0.0122077 0)
(10.0134 -0.0226963 0)
(10.0252 -0.0269691 0)
(10.0341 -0.0289842 0)
(10.0424 -0.0301516 0)
(10.0505 -0.0305955 0)
(10.0586 -0.0305659 0)
(10.0666 -0.0302683 0)
(10.0747 -0.0297545 0)
(10.0829 -0.0290405 0)
(10.0911 -0.0281542 0)
(10.0995 -0.0271259 0)
(10.1079 -0.0259779 0)
(10.1165 -0.024731 0)
(10.1251 -0.023402 0)
(10.1338 -0.0220102 0)
(10.1425 -0.0205678 0)
(10.1513 -0.0190997 0)
(10.0055 -0.016989 0)
(10.0185 -0.0278023 0)
(10.0316 -0.031456 0)
(10.0399 -0.0331705 0)
(10.0476 -0.0342632 0)
(10.0551 -0.0346593 0)
(10.0625 -0.0346623 0)
(10.0698 -0.0344797 0)
(10.0772 -0.0341285 0)
(10.0846 -0.0336144 0)
(10.0922 -0.0329587 0)
(10.0998 -0.0321858 0)
(10.1076 -0.0313109 0)
(10.1154 -0.0303531 0)
(10.1233 -0.0293225 0)
(10.1313 -0.0282412 0)
(10.1393 -0.0271096 0)
(10.1473 -0.0259662 0)
(10.0084 -0.0226464 0)
(10.0241 -0.0320617 0)
(10.0372 -0.0345925 0)
(10.0435 -0.0360811 0)
(10.0493 -0.0374401 0)
(10.0549 -0.0381541 0)
(10.0601 -0.038489 0)
(10.065 -0.0386548 0)
(10.0699 -0.0386079 0)
(10.0749 -0.0383669 0)
(10.0799 -0.0379627 0)
(10.0849 -0.0374295 0)
(10.09 -0.0367813 0)
(10.0951 -0.0360463 0)
(10.1003 -0.0352279 0)
(10.1055 -0.0343587 0)
(10.1109 -0.0334265 0)
(10.1163 -0.0324877 0)
(10.0084 -0.0309423 0)
(10.0246 -0.0395548 0)
(10.0266 -0.0384628 0)
(10.0229 -0.038054 0)
(10.017 -0.0380423 0)
(10.0102 -0.0378145 0)
(10.0024 -0.0376523 0)
(9.99378 -0.0376277 0)
(9.98488 -0.0375371 0)
(9.97582 -0.0373494 0)
(9.96669 -0.037061 0)
(9.95762 -0.0366896 0)
(9.94868 -0.0362368 0)
(9.94 -0.0357222 0)
(9.93155 -0.0351454 0)
(9.92354 -0.0345312 0)
(9.9157 -0.0338651 0)
(9.90858 -0.0331883 0)
(9.92528 -0.0191791 0)
(9.81791 -0.0313632 0)
(9.70177 -0.0349155 0)
(9.58387 -0.0361669 0)
(9.4699 -0.0363768 0)
(9.36447 -0.0358939 0)
(9.26316 -0.0352096 0)
(9.16722 -0.0345166 0)
(9.07503 -0.0337316 0)
(8.9889 -0.0328861 0)
(8.90621 -0.031967 0)
(8.82949 -0.0310249 0)
(8.756 -0.0300398 0)
(8.68826 -0.0290615 0)
(8.62343 -0.0280658 0)
(8.564 -0.0270968 0)
(8.50708 -0.026126 0)
(8.45519 -0.0252014 0)
(0.023278 -0.0273538 0)
(0.0880101 -0.0661189 0)
(0.153898 -0.0696049 0)
(0.208888 -0.0530153 0)
(0.241501 -0.0282679 0)
(0.250914 -0.00806981 0)
(0.242498 0.00795367 -2.06202e-19)
(0.219001 0.0203783 2.17513e-19)
(0.187128 0.0295045 0)
(0.147927 0.0362738 2.65616e-19)
(0.100269 0.0294658 0)
(0.0373169 0.0263051 0)
(-0.056995 0.0649902 0)
(-0.185555 0.131445 -1.4616e-19)
(-0.359201 0.195483 0)
(-0.557942 0.235008 0)
(-0.765248 0.251993 5.89022e-20)
(-0.97898 0.257354 0)
(-1.19321 0.256014 0)
(-1.4062 0.249624 0)
(-1.61576 0.239874 -3.61841e-20)
(-1.82024 0.22873 0)
(-2.01867 0.217005 -3.24269e-20)
(-2.21034 0.205116 0)
(-2.39472 0.193366 0)
(-2.5715 0.18195 -2.97097e-20)
(-2.74052 0.170984 0)
(-2.90175 0.160518 2.88944e-20)
(-3.05527 0.150571 0)
(-3.20124 0.141162 -2.85e-20)
(-3.33991 0.132291 0)
(-3.47157 0.123952 0)
(-3.59659 0.116137 0)
(-3.7153 0.10885 0)
(-3.82805 0.102088 0)
(-3.93517 0.0958376 2.84461e-20)
(-4.03703 0.0900745 0)
(-4.13395 0.0847715 -5.71645e-20)
(-4.22628 0.079899 0)
(-4.31435 0.0754266 5.74848e-20)
(-4.39846 0.0713244 0)
(-4.4789 0.0675637 0)
(-4.55596 0.0641168 -5.79935e-20)
(-4.62988 0.0609577 0)
(-4.70092 0.0580622 -5.83269e-20)
(-4.76929 0.0554074 5.8488e-20)
(-4.8352 0.0529724 0)
(-4.89886 0.0507379 5.87951e-20)
(-4.96042 0.0486867 5.894e-20)
(-5.02007 0.0468042 0)
(-5.07794 0.045076 0)
(-5.13417 0.0434852 0)
(-5.18889 0.0420137 0)
(-5.24222 0.0406469 0)
(-5.29424 0.0393729 -5.96649e-20)
(-5.34505 0.0381818 0)
(-5.39471 0.0370649 5.98454e-20)
(-5.44331 0.0360147 0)
(-5.49089 0.0350242 0)
(-5.53751 0.0340873 -6.00529e-20)
(-5.58322 0.0331982 0)
(-5.62807 0.0323518 6.01468e-20)
(-5.67209 0.0315431 0)
(-5.71531 0.0307676 0)
(-5.75775 0.0300208 0)
(-5.79945 0.0292984 -6.02194e-20)
(-5.84042 0.0285973 0)
(-5.88067 0.0279141 0)
(-5.9202 0.0272457 -6.01632e-20)
(-5.95903 0.0265896 0)
(-5.99714 0.0259428 -6.00669e-20)
(-6.03455 0.0253018 0)
(-6.07125 0.0246657 0)
(-6.10723 0.0240325 0)
(-6.14248 0.0233965 5.97178e-20)
(-6.17696 0.0227541 0)
(-6.21065 0.0221003 0)
(-6.24351 0.0214265 5.93014e-20)
(-6.27552 0.0207333 5.91295e-20)
(-6.30665 0.0200243 0)
(-6.33681 0.0192919 5.87318e-20)
(-6.36595 0.0185278 0)
(-6.39396 0.0177346 1.16506e-19)
(-6.42082 0.0168905 0)
(-6.44647 0.0159906 1.15371e-19)
(-6.47082 0.0150713 0)
(-6.49373 0.0141187 -1.14042e-19)
(-6.51502 0.013086 0)
(-6.53456 0.0120191 0)
(-6.55232 0.0108802 0)
(-6.56828 0.00960024 1.10664e-19)
(-6.58229 0.00827992 0)
(-6.59392 0.00692278 -1.08586e-19)
(-6.60312 0.00550054 0)
(-6.60957 0.00405976 1.06124e-19)
(-6.61365 0.00303454 1.04722e-19)
(-6.61549 0.00128211 1.03223e-19)
(-6.61301 -0.000862349 0)
(-6.60701 -0.00293333 0)
(-6.59714 -0.00509265 0)
(-6.58306 -0.00739761 0)
(-6.56444 -0.00987026 0)
(-6.54089 -0.0125278 0)
(-6.51199 -0.0153811 0)
(-6.4773 -0.0184418 0)
(-6.43639 -0.0217234 -8.37203e-20)
(-6.38875 -0.0252488 -8.06511e-20)
(-6.33385 -0.0290455 0)
(-6.27105 -0.0331455 0)
(-6.19967 -0.037579 0)
(-6.11895 -0.0423724 -6.57399e-20)
(-6.0281 -0.0475497 0)
(-5.92624 -0.0531488 0)
(-5.81242 -0.059222 0)
(-5.68556 -0.065823 0)
(-5.5445 -0.072986 3.87153e-20)
(-5.38799 -0.0807115 0)
(-5.21479 -0.0889743 0)
(-5.0237 -0.0977585 -1.54433e-20)
(-4.81365 -0.107102 5.98536e-21)
(-4.58367 -0.116975 0)
(-4.33286 -0.12722 -1.63019e-20)
(-4.06054 -0.137448 0)
(-3.76652 -0.147102 4.44936e-20)
(-3.45178 -0.155467 0)
(-3.11816 -0.162406 0)
(-2.76689 -0.170552 0)
(-2.39985 -0.180238 0)
(-2.02069 -0.188474 0)
(-1.63201 -0.19584 -4.1689e-19)
(-1.23704 -0.203483 -5.29189e-19)
(-0.841634 -0.213118 0)
(-0.451672 -0.224268 0)
(-0.0691214 -0.229056 0)
(0.31253 -0.218617 1.05075e-18)
(0.692227 -0.201071 0)
(1.06012 -0.18308 0)
(1.41246 -0.166519 0)
(1.74815 -0.151215 5.05119e-19)
(2.06535 -0.138183 -4.484e-19)
(2.36273 -0.128257 0)
(2.64138 -0.118976 0)
(2.90128 -0.10902 -3.3597e-19)
(3.14301 -0.0992318 -3.09009e-19)
(3.36739 -0.0899739 0)
(3.57479 -0.0812278 0)
(3.76556 -0.0730325 2.46729e-19)
(3.94018 -0.0653975 -2.30697e-19)
(4.0993 -0.0582843 0)
(4.24345 -0.0516337 0)
(4.37295 -0.0453941 -1.92858e-19)
(4.48831 -0.0394793 0)
(4.58961 -0.0338532 0)
(4.67694 -0.0285343 -1.67275e-19)
(4.75102 -0.0234064 0)
(4.81148 -0.0185108 -1.55893e-19)
(4.85848 -0.0139594 0)
(4.89347 -0.00940858 0)
(4.91488 -0.00494572 0)
(4.92336 -0.00132155 1.4502e-19)
(4.92094 0.00254786 0)
(4.9069 0.00634014 0)
(4.88129 0.00985536 0)
(4.84461 0.013084 0)
(4.79761 0.0160771 0)
(4.74058 0.0187824 0)
(4.6748 0.0212529 1.60562e-19)
(4.59946 0.0234096 1.66442e-19)
(4.51825 0.0252863 0)
(4.42775 0.0268809 0)
(4.33415 0.0282154 0)
(4.2317 0.0293313 -1.98894e-19)
(4.12828 0.0302671 0)
(4.01625 0.0311311 4.41241e-19)
(3.90445 0.0321001 -4.66082e-19)
(3.78131 0.0332722 -4.93354e-19)
(3.66121 0.0355796 5.23877e-19)
(3.50831 0.0391867 -5.58397e-19)
(3.3842 0.0473875 6.00779e-19)
(3.09586 0.0743168 0)
(0.0458753 -0.213139 0)
(0.110419 -0.253281 0)
(0.164782 -0.215154 3.8456e-19)
(0.195234 -0.1436 0)
(0.201604 -0.0698684 -3.79526e-19)
(0.1858 -0.000720905 -3.87797e-19)
(0.15322 0.0550183 -1.92167e-19)
(0.103617 0.0923577 -1.96914e-19)
(0.0338774 0.11741 0)
(-0.0566222 0.154277 -1.53182e-19)
(-0.17709 0.217316 0)
(-0.333113 0.300529 0)
(-0.512802 0.393276 1.19478e-19)
(-0.697803 0.470566 4.82516e-20)
(-0.880279 0.519093 -8.25292e-20)
(-1.06058 0.543741 -7.25851e-20)
(-1.24309 0.554604 -3.21802e-20)
(-1.4276 0.55652 0)
(-1.61276 0.55209 0)
(-1.79723 0.542876 0)
(-1.97946 0.529808 -2.57711e-20)
(-2.1581 0.513763 0)
(-2.33205 0.495463 7.07596e-20)
(-2.50051 0.475523 0)
(-2.66296 0.454489 0)
(-2.81908 0.432821 2.2292e-20)
(-2.96876 0.410908 0)
(-3.11198 0.389091 -2.20608e-20)
(-3.24873 0.367689 -4.44962e-20)
(-3.37909 0.346966 2.20203e-20)
(-3.5032 0.327125 0)
(-3.62128 0.308319 0)
(-3.73352 0.290647 0)
(-3.84018 0.274079 -4.4678e-20)
(-3.94157 0.258485 -4.48078e-20)
(-4.038 0.243894 -2.23971e-20)
(-4.1298 0.23029 0)
(-4.21726 0.217642 4.51686e-20)
(-4.30069 0.205909 0)
(-4.38034 0.195043 -4.55546e-20)
(-4.4565 0.184994 0)
(-4.52941 0.175709 0)
(-4.59931 0.167137 4.61284e-20)
(-4.66641 0.159226 0)
(-4.73092 0.151928 1.39494e-19)
(-4.79304 0.145194 -4.66751e-20)
(-4.85295 0.138978 0)
(-4.9108 0.133237 -4.7018e-20)
(-4.96675 0.127929 -4.7182e-20)
(-5.02094 0.123017 0)
(-5.0735 0.118465 0)
(-5.12452 0.114239 0)
(-5.1741 0.110304 0)
(-5.22234 0.106627 0)
(-5.26932 0.103183 4.80489e-20)
(-5.3151 0.0999453 9.6258e-20)
(-5.35976 0.0968944 -4.82888e-20)
(-5.40335 0.0940115 0)
(-5.44592 0.0912794 9.69128e-20)
(-5.48753 0.0886823 -4.8507e-20)
(-5.5282 0.0862059 0)
(-5.56799 0.0838367 -4.87637e-20)
(-5.60691 0.0815627 0)
(-5.64499 0.0793728 0)
(-5.68226 0.0772562 -9.7822e-20)
(-5.71873 0.0752023 4.89982e-20)
(-5.75441 0.0732018 -9.79889e-20)
(-5.78931 0.0712463 9.80437e-20)
(-5.82343 0.0693283 4.9076e-20)
(-5.85677 0.0674412 0)
(-5.88933 0.0655785 4.90748e-20)
(-5.92111 0.0637333 0)
(-5.9521 0.0618996 0)
(-5.98229 0.0600713 0)
(-6.01167 0.0582404 4.88774e-20)
(-6.04021 0.056395 0)
(-6.06787 0.0545213 9.75137e-20)
(-6.09461 0.0526058 -1.46003e-19)
(-6.12042 0.050641 -4.85664e-20)
(-6.14524 0.0486268 0)
(-6.16901 0.0465621 -4.82898e-20)
(-6.19167 0.0444349 0)
(-6.21315 0.0422254 -9.58799e-20)
(-6.23337 0.0399109 0)
(-6.25229 0.0374767 -9.50195e-20)
(-6.26981 0.0349334 1.89098e-19)
(-6.28583 0.032294 9.39856e-20)
(-6.30018 0.0295389 0)
(-6.31274 0.0266306 0)
(-6.32343 0.0235457 0)
(-6.33221 0.0202355 -9.12838e-20)
(-6.33896 0.0167863 0)
(-6.34346 0.0132737 8.95893e-20)
(-6.34543 0.00969063 0)
(-6.3448 0.00589688 -2.62721e-19)
(-6.34114 0.00153583 -8.62878e-20)
(-6.33438 -0.0031972 -8.50082e-20)
(-6.32436 -0.00817727 0)
(-6.31076 -0.013394 0)
(-6.29328 -0.0189105 0)
(-6.2716 -0.0247847 0)
(-6.24537 -0.0310582 0)
(-6.21419 -0.0377611 -1.50684e-19)
(-6.17765 -0.0449106 -1.46481e-19)
(-6.13533 -0.0525182 0)
(-6.08679 -0.0606053 6.81184e-20)
(-6.03158 -0.0692186 6.54661e-20)
(-5.96918 -0.0784203 0)
(-5.899 -0.0882742 1.20228e-19)
(-5.82036 -0.0988429 0)
(-5.73256 -0.11019 -5.40509e-20)
(-5.63485 -0.122375 0)
(-5.52642 -0.135468 0)
(-5.40643 -0.149563 8.23138e-20)
(-5.27385 -0.164773 0)
(-5.12754 -0.181186 -3.02161e-20)
(-4.96624 -0.198807 0)
(-4.78879 -0.217543 0)
(-4.59404 -0.237281 -1.45829e-20)
(-4.38077 -0.258042 -4.50648e-21)
(-4.14797 -0.279752 0)
(-3.89479 -0.30205 -8.31157e-21)
(-3.62041 -0.324459 0)
(-3.3242 -0.346496 2.7374e-20)
(-3.00623 -0.367585 8.12141e-20)
(-2.66793 -0.386796 0)
(-2.31151 -0.402705 0)
(-1.93888 -0.415403 0)
(-1.55326 -0.424253 0)
(-1.1577 -0.428966 2.44794e-19)
(-0.755493 -0.430522 8.6082e-19)
(-0.350108 -0.431144 0)
(0.0573104 -0.432716 0)
(0.462273 -0.430595 0)
(0.857023 -0.419678 -3.30902e-19)
(1.23847 -0.401861 0)
(1.60658 -0.380797 0)
(1.96035 -0.358677 5.33046e-19)
(2.2982 -0.336271 2.46259e-19)
(2.61682 -0.312385 2.3931e-19)
(2.91787 -0.288527 0)
(3.20069 -0.265882 0)
(3.46566 -0.244621 2.01606e-19)
(3.71354 -0.22491 -1.86026e-19)
(3.94417 -0.206384 0)
(4.15771 -0.188625 0)
(4.35466 -0.171709 -1.62487e-19)
(4.53565 -0.155656 4.60648e-19)
(4.70132 -0.140415 0)
(4.85229 -0.125878 0)
(4.98891 -0.111937 1.34584e-19)
(5.11145 -0.0984853 0)
(5.22029 -0.0854538 2.47137e-19)
(5.31546 -0.0728927 -1.18744e-19)
(5.39723 -0.0607212 0)
(5.46619 -0.0488756 1.13767e-19)
(5.5219 -0.0375794 2.21846e-19)
(5.56485 -0.0266747 0)
(5.59628 -0.0156339 0)
(5.6142 -0.00523726 -1.08033e-19)
(5.62014 0.00327973 0)
(5.61604 0.0124125 2.15734e-19)
(5.60091 0.0211381 0)
(5.57513 0.0292724 0)
(5.53925 0.03683 0)
(5.4938 0.0437197 0)
(5.43943 0.0500111 -1.1972e-19)
(5.37673 0.0555585 -1.2388e-19)
(5.30649 0.0604704 0)
(5.22927 0.0646721 0)
(5.14593 0.0682926 0)
(5.05694 0.0713477 1.46221e-19)
(4.96305 0.0740137 0)
(4.8643 0.0764713 -3.21341e-19)
(4.76124 0.0791518 3.37479e-19)
(4.65235 0.0823307 3.5484e-19)
(4.53907 0.0879506 3.73272e-19)
(4.41108 0.0957886 3.9411e-19)
(4.28529 0.11714 4.14167e-19)
(4.09248 0.14979 0)
(0.0318881 -0.376856 0)
(0.0687382 -0.349012 0)
(0.0854023 -0.236689 -3.60357e-19)
(0.0706832 -0.113759 -3.48766e-19)
(0.0427739 -0.00314434 3.46004e-19)
(0.00293376 0.0913364 2.98555e-19)
(-0.0542018 0.173342 -1.23305e-22)
(-0.133875 0.249342 0)
(-0.240517 0.331577 0)
(-0.37426 0.431823 0)
(-0.534004 0.548735 0)
(-0.70404 0.659212 0)
(-0.873362 0.750254 -2.11908e-19)
(-1.03752 0.818395 0)
(-1.19852 0.86622 5.59172e-20)
(-1.35809 0.896445 5.12507e-20)
(-1.5169 0.911555 0)
(-1.67441 0.913663 0)
(-1.83002 0.904931 0)
(-1.98316 0.88745 0)
(-2.13337 0.86315 3.95819e-20)
(-2.28024 0.833809 0)
(-2.42332 0.800974 -3.77911e-20)
(-2.56217 0.765955 0)
(-2.69638 0.729826 0)
(-2.82566 0.693453 0)
(-2.94977 0.657517 -7.41804e-20)
(-3.06856 0.622486 0)
(-3.18217 0.588353 3.60833e-20)
(-3.29077 0.555421 -7.32709e-20)
(-3.39452 0.523886 0)
(-3.49365 0.493845 0)
(-3.58834 0.465339 0)
(-3.67883 0.43845 3.63036e-20)
(-3.76536 0.413313 3.64115e-20)
(-3.84816 0.389879 0)
(-3.92746 0.368083 0)
(-4.00345 0.347846 -7.39565e-20)
(-4.07631 0.329085 -7.41886e-20)
(-4.14624 0.311712 7.44363e-20)
(-4.21341 0.295639 0)
(-4.27798 0.280781 0)
(-4.34012 0.267052 0)
(-4.39998 0.254371 0)
(-4.45771 0.242658 -7.57184e-20)
(-4.51344 0.231839 -7.61034e-20)
(-4.56732 0.221839 7.63933e-20)
(-4.61946 0.212589 0)
(-4.66998 0.204022 0)
(-4.71897 0.196074 0)
(-4.76653 0.188684 0)
(-4.81276 0.181799 -7.78159e-20)
(-4.85772 0.175368 0)
(-4.9015 0.169346 0)
(-4.94415 0.16369 -7.86146e-20)
(-4.98573 0.158362 -7.88921e-20)
(-5.02628 0.153328 0)
(-5.06585 0.148559 1.58689e-19)
(-5.10449 0.144029 -7.96011e-20)
(-5.14223 0.139715 7.9816e-20)
(-5.1791 0.135592 0)
(-5.21513 0.131639 0)
(-5.25034 0.127836 0)
(-5.28476 0.124167 0)
(-5.31839 0.120615 8.07013e-20)
(-5.35125 0.117164 1.61613e-19)
(-5.38334 0.113796 8.09551e-20)
(-5.41468 0.110497 -8.10576e-20)
(-5.44525 0.107255 0)
(-5.47505 0.10406 1.6238e-19)
(-5.50407 0.100904 1.62481e-19)
(-5.53231 0.0977776 1.62543e-19)
(-5.55977 0.0946695 -1.62564e-19)
(-5.58643 0.0915661 0)
(-5.61228 0.0884528 -2.43721e-19)
(-5.6373 0.0853135 0)
(-5.66145 0.0821305 8.11133e-20)
(-5.68469 0.0788853 8.09881e-20)
(-5.70698 0.075563 0)
(-5.72828 0.0721541 0)
(-5.74854 0.0686509 1.6105e-19)
(-5.7677 0.0650397 0)
(-5.78569 0.0612967 1.60116e-19)
(-5.80245 0.0573909 0)
(-5.8179 0.0532965 -1.58916e-19)
(-5.83195 0.0490077 -3.16264e-19)
(-5.84448 0.0445325 0)
(-5.85535 0.0398657 0)
(-5.86447 0.0349806 0)
(-5.87174 0.0298288 -1.54521e-19)
(-5.87708 0.0243713 0)
(-5.88035 0.0186444 -1.52118e-19)
(-5.88137 0.0127748 0)
(-5.87997 0.00663809 0)
(-5.87583 2.46804e-05 2.94046e-19)
(-5.86877 -0.00711819 0)
(-5.85865 -0.0147981 1.43176e-19)
(-5.84526 -0.0229665 0)
(-5.82837 -0.0316252 1.38472e-19)
(-5.80768 -0.0408176 0)
(-5.78292 -0.0506034 0)
(-5.75374 -0.0610414 0)
(-5.71975 -0.0721842 3.79347e-19)
(-5.68051 -0.0840702 1.22383e-19)
(-5.63564 -0.096726 0)
(-5.58471 -0.110182 0)
(-5.52726 -0.124507 0)
(-5.46278 -0.139811 0)
(-5.39067 -0.15619 -1.00008e-19)
(-5.31031 -0.173729 1.91391e-19)
(-5.22099 -0.192525 8.8555e-20)
(-5.12199 -0.212683 -1.6716e-19)
(-5.01258 -0.234313 -1.53657e-19)
(-4.89198 -0.257524 -6.79257e-20)
(-4.75928 -0.282423 0)
(-4.61343 -0.309097 -1.06646e-19)
(-4.45328 -0.337615 0)
(-4.27774 -0.367921 6.88137e-20)
(-4.08601 -0.399723 2.14361e-20)
(-3.87632 -0.433036 0)
(-3.64735 -0.467697 3.96829e-23)
(-3.39799 -0.503032 1.63718e-20)
(-3.12731 -0.538107 0)
(-2.83469 -0.571995 4.0979e-20)
(-2.52032 -0.60405 -1.87718e-19)
(-2.18526 -0.63385 0)
(-1.83018 -0.659317 0)
(-1.45714 -0.678418 0)
(-1.07048 -0.691053 0)
(-0.673576 -0.697365 -3.64617e-19)
(-0.270125 -0.698407 -4.38867e-19)
(0.137375 -0.695306 0)
(0.544012 -0.687772 0)
(0.942149 -0.675044 0)
(1.32804 -0.656606 0)
(1.70027 -0.632231 0)
(2.05858 -0.603203 0)
(2.4018 -0.571057 -3.71406e-19)
(2.72744 -0.537561 -4.76662e-21)
(3.0356 -0.503872 0)
(3.3275 -0.470279 0)
(3.60221 -0.437357 -3.04355e-19)
(3.85984 -0.405316 0)
(4.10077 -0.374397 2.80231e-19)
(4.32326 -0.344023 2.64896e-19)
(4.52883 -0.3145 0)
(4.71841 -0.286471 0)
(4.8925 -0.260016 -2.35868e-19)
(5.0517 -0.234988 -4.48581e-19)
(5.19663 -0.211133 0)
(5.32763 -0.188208 0)
(5.44489 -0.166079 0)
(5.54879 -0.144655 -1.96388e-19)
(5.63945 -0.123961 1.90853e-19)
(5.7171 -0.103973 0)
(5.7823 -0.0845621 3.6234e-19)
(5.83487 -0.0658973 1.7727e-19)
(5.87505 -0.0479627 -3.52899e-19)
(5.90386 -0.0301412 0)
(5.92059 -0.0134556 0)
(5.92638 0.00135227 -3.5e-19)
(5.92182 0.0162656 -1.76625e-19)
(5.90672 0.0304447 0)
(5.88161 0.0437289 0)
(5.84701 0.0560689 0)
(5.80345 0.0673835 0)
(5.75156 0.0776627 -3.92469e-19)
(5.69197 0.086826 0)
(5.62538 0.0949069 0)
(5.55249 0.101902 0)
(5.47398 0.107905 0)
(5.3905 0.11303 0)
(5.30264 0.11748 0)
(5.2107 0.121599 -5.27743e-19)
(5.11509 0.125884 0)
(5.01505 0.131099 0)
(4.91164 0.139033 -1.22077e-18)
(4.79903 0.151319 6.40007e-19)
(4.68906 0.177572 -6.74346e-19)
(4.54839 0.217166 6.97092e-19)
(0.00228369 -0.431484 0)
(0.00232099 -0.332586 7.4353e-19)
(-0.0297384 -0.17609 0)
(-0.0696618 -0.0369593 2.19568e-19)
(-0.12126 0.0947768 0)
(-0.187509 0.222261 0)
(-0.272821 0.3483 -1.22595e-19)
(-0.380051 0.47791 0)
(-0.508733 0.613432 0)
(-0.651792 0.748095 0)
(-0.798241 0.86911 0)
(-0.943115 0.970069 0)
(-1.08442 1.049 2.14551e-19)
(-1.22231 1.10678 9.93479e-20)
(-1.3576 1.14516 -9.23916e-20)
(-1.49085 1.16629 0)
(-1.62226 1.17265 0)
(-1.75179 1.16663 0)
(-1.87926 1.15045 0)
(-2.00439 1.12607 0)
(-2.12685 1.09523 7.06131e-20)
(-2.2462 1.05948 6.8849e-20)
(-2.3621 1.01999 -6.73968e-20)
(-2.47439 0.977722 6.62083e-20)
(-2.58297 0.933712 0)
(-2.68785 0.888831 0)
(-2.78905 0.843818 6.24397e-20)
(-2.88669 0.799325 0)
(-2.98083 0.756167 0)
(-3.07164 0.714694 6.17088e-20)
(-3.15925 0.67512 6.25224e-20)
(-3.24376 0.637578 6.24102e-20)
(-3.32529 0.602137 0)
(-3.40395 0.568814 0)
(-3.47982 0.537577 -6.24213e-20)
(-3.55297 0.508355 0)
(-3.62348 0.481065 0)
(-3.69145 0.455619 6.24311e-20)
(-3.75696 0.431923 -6.33044e-20)
(-3.82011 0.409882 6.34671e-20)
(-3.881 0.389402 0)
(-3.93975 0.370389 0)
(-3.99646 0.35275 1.27776e-19)
(-4.05123 0.336395 0)
(-4.10417 0.321234 1.28823e-19)
(-4.15539 0.307179 1.93932e-19)
(-4.20498 0.294147 -1.9478e-19)
(-4.25306 0.282052 1.30483e-19)
(-4.29969 0.270815 0)
(-4.34497 0.260357 0)
(-4.38898 0.250606 1.32184e-19)
(-4.43178 0.241496 6.63295e-20)
(-4.47343 0.232964 0)
(-4.514 0.224952 0)
(-4.55354 0.217405 6.71803e-20)
(-4.59208 0.210273 1.34958e-19)
(-4.62966 0.203512 0)
(-4.6663 0.197088 -1.35963e-19)
(-4.70206 0.190972 1.36506e-19)
(-4.73695 0.185135 -1.36992e-19)
(-4.77101 0.179549 0)
(-4.80426 0.174184 0)
(-4.83671 0.169013 0)
(-4.86838 0.164014 0)
(-4.89929 0.159165 0)
(-4.92944 0.154442 -1.39474e-19)
(-4.95885 0.149823 0)
(-4.9875 0.145286 0)
(-5.01539 0.140814 0)
(-5.04251 0.136395 -2.8138e-19)
(-5.06883 0.132027 -1.4088e-19)
(-5.09437 0.127702 -1.41067e-19)
(-5.11911 0.123404 2.82517e-19)
(-5.14304 0.119111 -1.41422e-19)
(-5.16615 0.114801 1.41415e-19)
(-5.18841 0.11045 0)
(-5.20978 0.106039 -1.41454e-19)
(-5.23023 0.101546 0)
(-5.24972 0.0969518 0)
(-5.2682 0.0922363 0)
(-5.28562 0.0873804 -2.82152e-19)
(-5.30192 0.0823616 1.40931e-19)
(-5.31705 0.0771533 1.40846e-19)
(-5.33096 0.0717256 2.8063e-19)
(-5.34357 0.066051 4.19527e-19)
(-5.35476 0.060111 1.39211e-19)
(-5.36441 0.0538972 0)
(-5.37241 0.0473941 2.76638e-19)
(-5.37866 0.0405827 0)
(-5.38307 0.0334395 4.10302e-19)
(-5.38552 0.0259311 0)