/*--------------------------------*- C++ -*----------------------------------*\
| =========                 |                                                 |
| \\      /  F ield         | OpenFOAM: The Open Source CFD Toolbox           |
|  \\    /   O peration     | Version:  2.4.0                                 |
|   \\  /    A nd           | Web:      www.OpenFOAM.org                      |
|    \\/     M anipulation  |                                                 |
\*---------------------------------------------------------------------------*/
FoamFile
{
    version     2.0;
    format      ascii;
    class       volScalarField;
    location    "295";
    object      epsilon;
}
// * * * * * * * * * * * * * * * * * * * * * * * * * * * * * * * * * * * * * //

dimensions      [0 2 -3 0 0 0 0];

internalField   nonuniform List<scalar> 
6000
(
1.28837
0.343795
0.045571
0.0271202
0.0223187
0.0201566
0.0184847
0.0171955
0.016041
0.0151563
0.0147604
0.0148878
0.0152896
0.0156054
0.0155234
0.0149236
0.0136281
0.0116042
0.00900924
0.00594076
0.00413602
0.00363178
0.0036604
0.00364413
0.00775573
0.0135851
0.0200222
0.0270357
0.0345409
0.0415845
0.0479177
0.0534349
0.0581424
0.0621481
0.0656428
0.0686627
0.0713538
0.0738283
0.0761372
0.0782195
0.0798616
0.0806295
0.0799396
0.077025
0.0701536
0.0641249
0.0666456
0.0698115
0.0733503
0.078543
0.0858924
0.0968541
0.11123
0.132334
0.158536
0.19958
0.246973
0.342929
0.434909
0.767414
0.483863
0.207651
0.0748459
0.0200269
0.00906833
0.00738837
0.00666256
0.00619928
0.00583252
0.00557238
0.0054615
0.00547822
0.00553494
0.00553805
0.00543358
0.00523934
0.00489732
0.00435365
0.00360291
0.00264878
0.00194611
0.00182182
0.00247035
0.0036988
0.00563738
0.00777985
0.00975402
0.0116154
0.0133714
0.0149339
0.0163298
0.0176038
0.018811
0.020027
0.0214142
0.0228387
0.0243267
0.0258979
0.027554
0.029263
0.0309415
0.0324352
0.0335185
0.0338542
0.0324844
0.0299739
0.0299468
0.029839
0.029694
0.0297445
0.0301996
0.0311886
0.0329265
0.0354017
0.0396577
0.0443003
0.0554892
0.0657882
0.0979014
0.128043
0.351401
0.169544
0.078241
0.0307181
0.0100329
0.00636815
0.005215
0.00465442
0.00429711
0.00406427
0.00394673
0.00391302
0.00390639
0.00387908
0.00381062
0.00371129
0.00352877
0.00321798
0.00275379
0.00214478
0.00167571
0.00171422
0.00268895
0.00395044
0.00526531
0.00648629
0.00752261
0.00847693
0.00938696
0.0102542
0.0111031
0.0119594
0.0128522
0.0138213
0.0149063
0.0160557
0.017285
0.0186055
0.0200169
0.0214967
0.0229853
0.0243706
0.025474
0.0259794
0.0248547
0.0231877
0.0225748
0.0217935
0.0209211
0.0200637
0.0193454
0.018786
0.0185122
0.0184019
0.0190283
0.0198047
0.0237526
0.0276746
0.0414954
0.0535778
0.320757
0.155187
0.0775149
0.0392494
0.0142737
0.00730643
0.00534243
0.00450753
0.00403871
0.00375109
0.00359155
0.0035156
0.00347325
0.00342952
0.00337111
0.00330006
0.00316397
0.00291852
0.00253564
0.00204241
0.00168075
0.00186373
0.00299611
0.00414267
0.00515088
0.00601823
0.00676456
0.0074842
0.00820383
0.00892793
0.0096676
0.0104354
0.0112473
0.0121253
0.0130763
0.014083
0.0151597
0.0163176
0.0175589
0.0188662
0.0201884
0.0214235
0.0223956
0.0227335
0.0215409
0.0202906
0.0194506
0.0184228
0.0173031
0.0161734
0.0151302
0.0141849
0.0134282
0.0127979
0.0126929
0.0130335
0.0153731
0.0185087
0.0269649
0.0360922
0.31066
0.149284
0.0763093
0.0433337
0.0207648
0.00929263
0.00609226
0.00484486
0.00419766
0.00381701
0.00359681
0.0034745
0.00339854
0.00333736
0.00327826
0.00321655
0.00309571
0.00286811
0.00250689
0.00206245
0.00177167
0.00208928
0.00325074
0.00427189
0.00511661
0.00584018
0.00649961
0.00716562
0.00784938
0.00854907
0.00926706
0.0100082
0.0107811
0.0115985
0.0124573
0.0133554
0.0143083
0.0153298
0.0164256
0.0175832
0.0187559
0.0198432
0.0206572
0.0207491
0.0195764
0.0185544
0.0176062
0.0164639
0.0152365
0.0140017
0.0128437
0.0117782
0.0108859
0.0101677
0.00997484
0.0104124
0.0123952
0.015361
0.021987
0.029849
0.306588
0.146936
0.0754006
0.0449336
0.0272374
0.0122877
0.00731932
0.00548883
0.0045922
0.00408218
0.00378232
0.00360491
0.00349164
0.00340975
0.00334423
0.00328398
0.00316525
0.00293423
0.00256615
0.00213648
0.00189875
0.00231863
0.00343891
0.00435939
0.0051235
0.00580388
0.00646252
0.00714518
0.00784943
0.00856671
0.00929285
0.010027
0.0107728
0.0115375
0.0123142
0.0131099
0.0139425
0.0148299
0.0157824
0.0167934
0.0178206
0.0187632
0.0194142
0.0192692
0.0182153
0.0173197
0.0163179
0.0151192
0.0138417
0.0125641
0.011365
0.010268
0.00935672
0.00868818
0.0085995
0.00923752
0.0111956
0.0141543
0.0200703
0.0271928
0.304711
0.146149
0.0748798
0.0452706
0.0319881
0.0163266
0.00903874
0.00640742
0.00517457
0.00449318
0.00409151
0.00384723
0.00369031
0.00358352
0.00350755
0.00344478
0.00332149
0.00307476
0.00268099
0.00224086
0.00203805
0.00251917
0.00356939
0.00442274
0.00515999
0.00585375
0.0065567
0.00729171
0.00804471
0.00880058
0.00954935
0.0102852
0.0110077
0.0117199
0.0124146
0.0131043
0.0138108
0.0145569
0.0153595
0.016219
0.0170993
0.0179007
0.0183937
0.0180741
0.017183
0.0163635
0.0153379
0.014113
0.0128131
0.0115204
0.0103118
0.00922085
0.0083433
0.00778366
0.00786641
0.00871926
0.0107631
0.0137935
0.0194441
0.0260694
0.303654
0.146043
0.0746846
0.0450498
0.0345865
0.0210202
0.01131
0.00761508
0.00593845
0.00503498
0.00450505
0.00417937
0.00397055
0.00383386
0.00374407
0.00367665
0.0035454
0.00327502
0.00284072
0.00236737
0.00217627
0.00267942
0.00365701
0.00447484
0.00522249
0.00596524
0.00674021
0.00754981
0.0083696
0.00917783
0.00995872
0.0107017
0.0114026
0.0120608
0.0126699
0.0132471
0.0138187
0.0144132
0.0150556
0.0157553
0.0164852
0.0171497
0.0174964
0.0170848
0.0163604
0.0155936
0.0145623
0.013328
0.0120199
0.0107247
0.00952122
0.00845541
0.00764056
0.00721922
0.00749542
0.00855566
0.0107321
0.0138844
0.0194773
0.0257259
0.302903
0.146235
0.0747326
0.0446475
0.0355774
0.025431
0.0141835
0.00914636
0.00689528
0.00570829
0.00501841
0.00459385
0.00432311
0.00415069
0.0040439
0.00397067
0.0038303
0.00353126
0.0030441
0.00251572
0.00230842
0.00280178
0.00371718
0.00452577
0.00531066
0.00612668
0.00699282
0.00789315
0.00879348
0.00966511
0.0104861
0.011241
0.0119223
0.012525
0.0130449
0.0135033
0.0139308
0.0143631
0.0148339
0.0153642
0.0159387
0.01647
0.0166869
0.0162647
0.0156899
0.0149661
0.0139408
0.0127063
0.0113966
0.0101042
0.00891265
0.00788273
0.00714839
0.00687969
0.00735204
0.00860865
0.010945
0.0142543
0.0198941
0.0258234
0.302277
0.146553
0.0749529
0.0442495
0.0355136
0.0287732
0.0176311
0.0110429
0.00806592
0.00652193
0.00563429
0.0050901
0.00474554
0.00453062
0.00440348
0.0043238
0.0041749
0.00384487
0.0032951
0.00269103
0.00243728
0.00289685
0.00376408
0.00458382
0.00542568
0.00633247
0.00730419
0.00830823
0.00930083
0.0102459
0.0111148
0.0118868
0.0125513
0.0130982
0.0135267
0.0138611
0.0141373
0.0143975
0.0146856
0.0150358
0.0154486
0.0158488
0.0159565
0.0155888
0.0151398
0.0144564
0.0134448
0.0122154
0.0109066
0.00961811
0.00844118
0.00745358
0.00681093
0.00670023
0.00736299
0.00880773
0.0113254
0.0148158
0.0205535
0.0261845
0.301715
0.146921
0.0752917
0.0439382
0.034845
0.0308887
0.0212471
0.0133377
0.00947645
0.00748968
0.00635963
0.00567139
0.00523904
0.0049737
0.00482238
0.00473572
0.00458038
0.00421977
0.00360078
0.00290237
0.00257215
0.00297916
0.00381028
0.0046561
0.00556948
0.0065801
0.00766887
0.00878768
0.00988309
0.010911
0.0118356
0.0126307
0.0132822
0.0137743
0.0141106
0.0143184
0.014438
0.0145185
0.0146139
0.0147732
0.0150164
0.0152848
0.0153084
0.0150338
0.0146902
0.0140483
0.0130561
0.0118343
0.0105265
0.00924098
0.00807913
0.00713771
0.00659339
0.00664041
0.00748511
0.00911462
0.0118335
0.015519
0.0213703
0.0267053
0.301195
0.147303
0.0757099
0.0437425
0.0338938
0.0318637
0.0245388
0.0160293
0.0111539
0.00862855
0.00720417
0.00634338
0.00580696
0.00548188
0.0053018
0.00520733
0.00504882
0.00466089
0.00396987
0.00316152
0.00272684
0.0030645
0.00386687
0.00474885
0.00574437
0.00686872
0.00808394
0.00932712
0.0105349
0.0116545
0.0126423
0.0134663
0.014109
0.0145485
0.0147938
0.0148746
0.0148355
0.0147314
0.0146261
0.0145842
0.0146481
0.0147807
0.014746
0.0145795
0.0143266
0.0137292
0.0127609
0.011548
0.0102401
0.00895544
0.00780793
0.00691488
0.00647215
0.00667333
0.00769213
0.00950833
0.0124474
0.0163313
0.0222876
0.0273193
0.30071
0.147683
0.0761797
0.0436643
0.0328707
0.0319079
0.0271836
0.0189553
0.0131188
0.0099572
0.00817959
0.00711333
0.00645402
0.00605829
0.00584377
0.00573996
0.00558237
0.00517313
0.00441157
0.00348171
0.00291741
0.00316838
0.00394374
0.00486774
0.00595283
0.00719838
0.00854769
0.00992349
0.0112519
0.012471
0.0135288
0.0143869
0.0150243
0.0154141
0.0155707
0.0155267
0.0153298
0.0150399
0.0147291
0.0144769
0.0143509
0.0143405
0.0142691
0.0142091
0.0140369
0.0134883
0.0125481
0.011345
0.0100354
0.00874889
0.00761432
0.00677056
0.00643023
0.00678057
0.00796843
0.00997828
0.0131537
0.0172289
0.0232654
0.0279807
0.300256
0.148055
0.0766815
0.0436931
0.0319016
0.0312736
0.0290263
0.0218442
0.0153729
0.0114936
0.00929879
0.00798967
0.00718584
0.00670675
0.00645076
0.00633491
0.00618269
0.00576062
0.00493455
0.00387639
0.0031604
0.00330545
0.00404995
0.00501806
0.00619742
0.00756954
0.00905895
0.0105741
0.01203
0.0133548
0.0144877
0.0153839
0.0160185
0.0163608
0.0164316
0.0162664
0.0159157
0.0154428
0.0149257
0.0144572
0.0141304
0.0139674
0.0138748
0.0139085
0.0138108
0.0133159
0.012408
0.0112157
0.0099028
0.00861181
0.00748842
0.00669394
0.00645511
0.00694971
0.00830556
0.0105197
0.0139433
0.0181917
0.0242727
0.0286568
0.299833
0.148415
0.0772015
0.0438138
0.031053
0.0302038
0.0300295
0.0244662
0.0178263
0.0132507
0.0105749
0.00898149
0.00800863
0.00743145
0.00712541
0.00699332
0.00685062
0.0064262
0.00554614
0.00435829
0.00347171
0.00348938
0.00419405
0.00520489
0.00648073
0.00798282
0.00961664
0.011276
0.0128644
0.0142991
0.0155101
0.0164461
0.0170785
0.0173742
0.0173617
0.01708
0.0165821
0.0159326
0.0152133
0.0145266
0.0139899
0.0136643
0.0135579
0.013666
0.0136387
0.013203
0.0123323
0.0111525
0.00983502
0.00853696
0.0074228
0.00667687
0.00653765
0.00717298
0.00870016
0.0111311
0.0148079
0.0192017
0.0252842
0.0293228
0.29944
0.148763
0.0777298
0.0440105
0.0303533
0.0289043
0.030251
0.0266394
0.0203295
0.015226
0.0120197
0.010098
0.00892885
0.00823681
0.00787043
0.00771604
0.00758613
0.0071711
0.00625174
0.00493862
0.00386605
0.00373294
0.00438432
0.00543322
0.00680532
0.00843885
0.0102195
0.0120262
0.0137496
0.0152958
0.0165852
0.0175602
0.0181883
0.0184367
0.0183426
0.0179491
0.0173114
0.0164951
0.0155825
0.0146815
0.0139295
0.0134351
0.0133114
0.0134718
0.0135119
0.0131415
0.0123138
0.011149
0.00982628
0.00851888
0.00741196
0.00671332
0.00667156
0.00744639
0.0091523
0.0118117
0.0157389
0.0202416
0.0262786
0.0299604
0.299076
0.149099
0.0782595
0.0442681
0.0298074
0.0275333
0.0298119
0.0282341
0.022747
0.0173556
0.0136407
0.011348
0.0099529
0.00912715
0.00868842
0.0085037
0.00838826
0.00799484
0.00705444
0.00562654
0.00435681
0.00404823
0.00462899
0.00570803
0.00717373
0.00893812
0.0108661
0.0128206
0.0146792
0.0163358
0.0177011
0.0187116
0.0193309
0.0195291
0.0193535
0.0188519
0.0180825
0.0171107
0.0160177
0.0149122
0.0139453
0.0132833
0.0131279
0.0133177
0.0134228
0.0131242
0.0123463
0.0111999
0.00987226
0.00855372
0.00745206
0.00679918
0.00685311
0.0077688
0.00966423
0.012561
0.0167267
0.0212948
0.0272382
0.0305554
0.298739
0.149423
0.0787855
0.0445733
0.029407
0.0262022
0.0288661
0.0291845
0.0249373
0.019563
0.0154209
0.0127381
0.0110866
0.0101065
0.0095818
0.00935678
0.00925527
0.00889524
0.00795486
0.00642884
0.00495595
0.00444687
0.00493632
0.00603433
0.00758842
0.00948088
0.0115543
0.013655
0.0156461
0.0174094
0.0188454
0.0198854
0.020489
0.0206325
0.0203739
0.0197668
0.0188727
0.0177572
0.0164989
0.0152038
0.0140294
0.0132114
0.0130007
0.0131972
0.0133644
0.0131445
0.0124243
0.0113013
0.00996991
0.00863899
0.00754074
0.00693205
0.00708091
0.00814169
0.0102392
0.013377
0.0177601
0.0223452
0.0281482
0.0310977
0.298429
0.149737
0.0793042
0.0449147
0.0291372
0.0249814
0.027574
0.0294871
0.0267708
0.0217617
0.0173216
0.0142657
0.0123344
0.0111782
0.0105525
0.0102757
0.0101847
0.00986857
0.00895113
0.00734961
0.00567389
0.00494013
0.00531473
0.00641722
0.00805174
0.0100672
0.012282
0.0145246
0.0166431
0.0185063
0.0200056
0.0210672
0.0216463
0.0217295
0.0213854
0.0206739
0.0196609
0.0184124
0.0170044
0.0155378
0.014173
0.0132182
0.0129238
0.0131049
0.0133305
0.0131965
0.0125433
0.0114501
0.0101173
0.00877344
0.00767703
0.00711126
0.00735573
0.00856854
0.0108803
0.0142562
0.0188263
0.0233778
0.0289967
0.0315799
0.298144
0.15004
0.0798132
0.0452828
0.028981
0.0239095
0.026085
0.0291917
0.0281443
0.0238515
0.0193003
0.0159098
0.0136968
0.0123445
0.0116018
0.0112607
0.0111738
0.0109098
0.0100389
0.00839014
0.00651926
0.00553891
0.00577278
0.00686187
0.00856595
0.0106967
0.0130464
0.0154242
0.0176622
0.0196167
0.0211697
0.0222437
0.022789
0.0228055
0.0223726
0.0215569
0.0204293
0.0190568
0.0175136
0.0158949
0.0143725
0.013296
0.0128919
0.0130365
0.0133158
0.0132748
0.0126991
0.0116437
0.0103133
0.00895693
0.00786128
0.0073377
0.00768021
0.00905394
0.0115901
0.015193
0.0199093
0.0243788
0.0297748
0.0319973
0.297882
0.150333
0.0803104
0.0456697
0.0289209
0.0230021
0.0245249
0.0283872
0.028992
0.0257274
0.0212984
0.0176497
0.01516
0.0136054
0.0127299
0.0123122
0.0122192
0.0120127
0.0112116
0.00954862
0.00749863
0.00625364
0.00631914
0.00737356
0.00913318
0.0113689
0.0138444
0.0163482
0.0186958
0.0207309
0.0223269
0.0234035
0.0239053
0.0238491
0.0233239
0.0224038
0.0211647
0.0196755
0.0180091
0.0162578
0.0146262
0.013433
0.0129003
0.0129886
0.0133156
0.0133746
0.0128881
0.0118803
0.0105576
0.00919026
0.00809497
0.00761375
0.00805851
0.00960292
0.0123693
0.0161798
0.0209951
0.0253362
0.0304759
0.0323471
0.297642
0.150616
0.0807948
0.046069
0.0289406
0.0222589
0.022992
0.027186
0.0292891
0.0272906
0.0232447
0.0194539
0.0167123
0.0149505
0.0139349
0.0134302
0.0133174
0.0131704
0.0124606
0.0108201
0.00861599
0.00709406
0.00696257
0.00795768
0.00975546
0.012083
0.0146727
0.017291
0.0197362
0.0218397
0.0234672
0.0245366
0.024986
0.0248516
0.0242312
0.0232064
0.0218583
0.0202579
0.0184781
0.0166288
0.0149208
0.0136163
0.012944
0.0129584
0.0133257
0.0134916
0.0131072
0.0121585
0.0108506
0.00947503
0.00838069
0.0079431
0.00849593
0.0102203
0.0132168
0.0172075
0.0220698
0.0262396
0.0310957
0.0326287
0.297422
0.150889
0.0812654
0.0464753
0.0290255
0.0216701
0.0215557
0.025709
0.0290509
0.0284585
0.0250589
0.0212794
0.0183349
0.0163709
0.0152083
0.0146141
0.0144645
0.014375
0.0137753
0.0121964
0.00987228
0.00806885
0.00771187
0.00861981
0.0104349
0.0128379
0.0155276
0.0182467
0.020776
0.0229347
0.024582
0.0256346
0.0260235
0.0258066
0.0250887
0.0239592
0.0225046
0.0207975
0.018922
0.01701
0.0152413
0.0138326
0.013018
0.0129434
0.0133425
0.0136213
0.013353
0.0124769
0.0111929
0.00981348
0.00872192
0.00833054
0.00899838
0.0109099
0.0141295
0.0182646
0.0231205
0.027081
0.0316321
0.0328425
0.297221
0.151154
0.0817217
0.0468844
0.0291628
0.0212209
0.02026
0.0240736
0.0283276
0.0291718
0.0266582
0.0230729
0.0200013
0.0178533
0.0165419
0.0158567
0.0156557
0.0156183
0.0151434
0.0136658
0.0112648
0.00918514
0.00857576
0.00936587
0.0111736
0.0136327
0.0164054
0.0192097
0.0218079
0.024008
0.0256631
0.0266898
0.0270118
0.0267091
0.0258924
0.024659
0.0231002
0.0212961
0.0193542
0.0173958
0.0155744
0.0140699
0.0131169
0.0129416
0.0133627
0.0137598
0.0136225
0.0128344
0.0115854
0.0102083
0.00912287
0.00878163
0.00957182
0.0116742
0.0151017
0.0193382
0.024135
0.0278541
0.0320851
0.0329904
0.297037
0.15141
0.0821633
0.047293
0.0293416
0.020894
0.0191274
0.0223841
0.0271961
0.0294
0.0279641
0.0247727
0.0216766
0.0193793
0.0179244
0.0171461
0.0168856
0.0168916
0.0165517
0.0152135
0.0127865
0.0104478
0.0095628
0.0102023
0.0119744
0.0144665
0.0173025
0.0201742
0.022825
0.025052
0.0267034
0.0276954
0.0279453
0.0275547
0.0266391
0.0253031
0.0236485
0.0217703
0.019777
0.0177802
0.0159098
0.0143182
0.013235
0.0129509
0.0133834
0.0139031
0.0139122
0.0132294
0.0120288
0.0106624
0.00958823
0.00930236
0.0102217
0.0125138
0.0161262
0.020416
0.0251033
0.0285546
0.0324558
0.033075
0.29687
0.151656
0.0825902
0.0476983
0.0295526
0.0206721
0.0181647
0.0207261
0.0257503
0.0291432
0.0289091
0.0263117
0.0233181
0.0209242
0.019341
0.0184713
0.0181476
0.0181867
0.017985
0.0168215
0.0144254
0.0118588
0.0106811
0.0111364
0.0128409
0.015339
0.0182155
0.0211346
0.0238206
0.0260595
0.0276955
0.0286444
0.0288185
0.0283391
0.0273254
0.0258974
0.0241634
0.0222255
0.0201898
0.0181579
0.0162404
0.0145696
0.0133668
0.0129691
0.0134019
0.0140471
0.0142187
0.0136603
0.0125238
0.0111787
0.0101229
0.00989871
0.0109527
0.0134274
0.0171936
0.021486
0.0260167
0.0291801
0.032747
0.0330998
0.296717
0.151894
0.0830021
0.0480982
0.0297881
0.0205388
0.0173672
0.0191642
0.0240912
0.0284303
0.0294429
0.0276226
0.024876
0.0224575
0.0207723
0.0198184
0.0194335
0.0194961
0.0194305
0.0184665
0.0161644
0.0134155
0.0119377
0.0121766
0.0137787
0.0162513
0.0191415
0.0220855
0.0247877
0.0270232
0.0286323
0.0295295
0.0296257
0.0290599
0.0279583
0.0264509
0.0246508
0.0226634
0.0205908
0.0185248
0.0165614
0.0148182
0.0135068
0.0129942
0.0134157
0.0141878
0.014538
0.014125
0.0130708
0.0117601
0.0107317
0.0105762
0.0117677
0.0144112
0.0182937
0.0225368
0.0268686
0.0297296
0.0329621
0.0330686
0.296577
0.152124
0.0833993
0.048491
0.0300416
0.0204789
0.0167231
0.0177419
0.0223182
0.0273158
0.0295363
0.0286419
0.0262959
0.0239425
0.0221947
0.0211701
0.0207326
0.0208115
0.0208776
0.0201308
0.0179773
0.0151073
0.0133348
0.0133264
0.0147905
0.0172058
0.0200814
0.0230251
0.0257217
0.0279362
0.0295063
0.0303453
0.0303665
0.0297216
0.0285434
0.0269683
0.025113
0.0230837
0.0209772
0.0188775
0.0168694
0.0150599
0.0136502
0.0130239
0.0134227
0.014321
0.0148657
0.0146205
0.0136694
0.0124087
0.0114189
0.0113393
0.0126678
0.0154595
0.0194153
0.0235581
0.027654
0.0302038
0.0331054
0.0329855
0.29645
0.152345
0.0837819
0.0488755
0.0303079
0.0204793
0.0162168
0.0164839
0.0205213
0.0258735
0.0291844
0.0293156
0.0275212
0.0253376
0.0235799
0.022506
0.0220317
0.0221223
0.0223147
0.0217977
0.0198413
0.0169156
0.0148656
0.0145851
0.0158762
0.0182009
0.0210325
0.0239499
0.0266193
0.0287963
0.030317
0.0310934
0.0310441
0.0303282
0.0290841
0.027452
0.0255504
0.0234846
0.0213463
0.0192133
0.0171621
0.0152915
0.0137928
0.0130557
0.0134205
0.0144425
0.0151971
0.0151436
0.0143186
0.0131262
0.0121879
0.0121913
0.0136519
0.0165646
0.0205469
0.0245408
0.02837
0.0306043
0.0331818
0.0328548
0.296334
0.152558
0.08415
0.0492506
0.0305827
0.0205285
0.0158311
0.0153998
0.0187761
0.0241896
0.0284064
0.0296033
0.0284965
0.026597
0.0248951
0.023802
0.0233143
0.0234161
0.0237294
0.0234497
0.0217327
0.0188176
0.0165189
0.0159494
0.0170345
0.019235
0.0219923
0.0248574
0.0274784
0.0296027
0.0310649
0.0317759
0.0316611
0.0308825
0.0295824
0.0279026
0.0259619
0.0238637
0.0216952
0.0195295
0.0174375
0.0155107
0.013931
0.0130874
0.0134072
0.014548
0.0155266
0.0156897
0.0150163
0.0139128
0.013041
0.0131334
0.0147167
0.0177172
0.0216774
0.0254773
0.0290147
0.0309338
0.0331963
0.0326808
0.296228
0.152763
0.0845039
0.0496156
0.0308622
0.0206165
0.0155487
0.0144872
0.0171406
0.0223551
0.0272442
0.029482
0.0291717
0.027673
0.0261038
0.0250304
0.0245604
0.0246778
0.0251078
0.025069
0.0236266
0.020787
0.0182792
0.0174133
0.0182627
0.0203059
0.0229585
0.0257453
0.0282977
0.0303551
0.0317509
0.0323951
0.0322198
0.0313865
0.0300392
0.0283195
0.0263456
0.0242181
0.022021
0.0198237
0.0176934
0.0157154
0.0140618
0.0131163
0.0133808
0.014633
0.0158483
0.0162536
0.0157592
0.0147679
0.0139784
0.0141645
0.0158564
0.0189068
0.0227955
0.0263611
0.0295881
0.0311954
0.033154
0.0324675
0.296133
0.152961
0.0848439
0.04997
0.0311438
0.0207353
0.0153536
0.0137361
0.0156548
0.0204587
0.025759
0.0289484
0.0295052
0.0285185
0.0271668
0.0261607
0.0257434
0.0258889
0.0264342
0.0266368
0.0254961
0.0227948
0.0201268
0.0189676
0.0195568
0.0214111
0.0239291
0.0266122
0.0290765
0.031054
0.0323765
0.032953
0.032722
0.0318411
0.0304543
0.0287014
0.0266989
0.0245451
0.0223209
0.0200938
0.0179281
0.0159036
0.0141824
0.0131402
0.0133396
0.0146932
0.0161557
0.016829
0.0165428
0.0156888
0.0149989
0.0152814
0.0170629
0.0201221
0.0238886
0.0271875
0.0300908
0.0313929
0.0330599
0.0322191
0.296046
0.15315
0.0851703
0.0503135
0.031425
0.0208777
0.015231
0.0131313
0.0143417
0.0185803
0.0240262
0.0280201
0.0294681
0.0290894
0.0280433
0.0271599
0.0268233
0.0270272
0.0276913
0.0281341
0.0273153
0.0248104
0.0220382
0.0205998
0.0209107
0.0225471
0.0249018
0.027457
0.0298147
0.0317001
0.0329433
0.0334517
0.033169
0.0322468
0.030827
0.0290464
0.0270194
0.0248418
0.0225924
0.0203374
0.0181394
0.0160734
0.0142908
0.0131566
0.0132821
0.0147243
0.0164417
0.0174083
0.017361
0.0166713
0.0160984
0.016478
0.0183261
0.0213516
0.0249474
0.0279528
0.0305246
0.0315304
0.032919
0.0319392
0.295966
0.153332
0.0854834
0.0506456
0.031704
0.0210381
0.0151679
0.0126557
0.0132096
0.0167867
0.0221293
0.0267348
0.0290467
0.0293482
0.0286934
0.0279935
0.0277683
0.0280675
0.0288594
0.0295414
0.0290584
0.0268019
0.0239868
0.0222939
0.0223163
0.0237098
0.0258745
0.0282786
0.0305125
0.0322946
0.0334529
0.0338927
0.0335618
0.0326035
0.031156
0.0293524
0.0273044
0.0251054
0.022833
0.0205524
0.0183254
0.0162227
0.0143847
0.0131634
0.0132068
0.0147221
0.0166988
0.0179831
0.018206
0.0177088
0.0172706
0.0177455
0.0196339
0.0225825
0.0259639
0.028655
0.0308918
0.0316119
0.0327358
0.0316313
0.295895
0.153506
0.0857835
0.0509665
0.0319793
0.0212116
0.0151531
0.0122915
0.0122556
0.0151287
0.0201533
0.0251478
0.0282446
0.0292667
0.02908
0.0286272
0.0285478
0.0289821
0.0299163
0.0308379
0.0307001
0.0287372
0.0259433
0.024031
0.0237631
0.0248937
0.0268444
0.0290762
0.0311701
0.0328385
0.0339068
0.0342774
0.033901
0.0329109
0.0314402
0.0296174
0.0275513
0.0253335
0.0230403
0.0207368
0.0184841
0.0163496
0.0144622
0.0131587
0.0131124
0.0146827
0.016919
0.0185436
0.0190684
0.0187927
0.0185064
0.0190728
0.0209728
0.0238013
0.0269312
0.0292927
0.0311952
0.0316416
0.0325148
0.0312987
0.295829
0.153673
0.086071
0.0512759
0.0322496
0.0213945
0.0151771
0.0120217
0.0114687
0.0136399
0.0181791
0.0233286
0.0270837
0.0288288
0.0291711
0.0290277
0.0291313
0.029741
0.0308372
0.032002
0.0322148
0.0305846
0.0278765
0.025789
0.0252385
0.0260923
0.0278085
0.0298488
0.031788
0.0333332
0.0343066
0.0346071
0.0341871
0.0331683
0.0316779
0.0298392
0.027758
0.0255238
0.0232122
0.0208886
0.0186136
0.016452
0.0145213
0.0131406
0.0129981
0.0146027
0.0170941
0.019079
0.0199369
0.0199119
0.0197942
0.0204463
0.0223282
0.0249959
0.0278433
0.0298656
0.0314378
0.0316233
0.0322599
0.0309441
0.29577
0.153833
0.0863462
0.0515739
0.0325142
0.0215834
0.0152318
0.0118305
0.0108328
0.012338
0.0162772
0.0213559
0.0256036
0.0280328
0.0289428
0.0291648
0.0294897
0.0303108
0.0315944
0.0330106
0.0335778
0.0323126
0.0297542
0.0275431
0.0267272
0.0272972
0.0287627
0.030595
0.0323663
0.0337795
0.0346535
0.0348828
0.0344202
0.0333751
0.0318678
0.030016
0.0279221
0.0256741
0.0233469
0.0210061
0.0187122
0.016528
0.0145601
0.0131075
0.0128631
0.014479
0.0172161
0.0195776
0.0207986
0.0210531
0.0211197
0.0218504
0.0236847
0.0261552
0.0286955
0.0303739
0.0316227
0.0315609
0.0319746
0.0305702
0.295717
0.153986
0.0866095
0.0518607
0.0327722
0.0217758
0.0153105
0.0117041
0.0103298
0.0112269
0.0145045
0.0193114
0.0238602
0.0268931
0.0283814
0.0290136
0.0295962
0.0306494
0.0321569
0.0338384
0.0347638
0.0338911
0.0315434
0.0292664
0.0282117
0.0284986
0.0297023
0.0313129
0.0329049
0.0341783
0.0349485
0.0351053
0.0346003
0.0335305
0.0320084
0.0301458
0.0280418
0.0257825
0.0234425
0.0210875
0.0187782
0.0165758
0.0145769
0.0130579
0.012707
0.0143093
0.0172767
0.0200268
0.0216388
0.0222008
0.0224661
0.0232677
0.0250266
0.0272687
0.0294837
0.0308182
0.031753
0.0314576
0.0316621
0.0301791
0.295668
0.154132
0.0868611
0.0521363
0.0330231
0.0219696
0.0154076
0.0116303
0.0099407
0.0102998
0.0129013
0.0172745
0.0219216
0.0254401
0.0274856
0.0285561
0.0294283
0.0307206
0.0324924
0.0344583
0.0357477
0.0352906
0.0332114
0.0309304
0.0296723
0.0296848
0.0306209
0.0319999
0.0334032
0.0345299
0.0351923
0.0352751
0.0347273
0.0336336
0.0320984
0.0302271
0.0281153
0.0258474
0.0234973
0.0211312
0.0188101
0.0165937
0.0145697
0.0129905
0.0125298
0.014092
0.0172683
0.0204135
0.0224416
0.0233373
0.0238149
0.0246796
0.0263381
0.0283268
0.0302049
0.0311996
0.0318315
0.0313166
0.031325
0.0297728
0.295624
0.154271
0.0871015
0.0524009
0.0332666
0.0221631
0.0155185
0.0115989
0.00964753
0.00954236
0.0114915
0.0153162
0.0198645
0.0237204
0.0262683
0.0277842
0.0289696
0.0305054
0.0325681
0.0348407
0.0365032
0.0364831
0.0347261
0.0325056
0.0310875
0.0308424
0.0315115
0.0326526
0.0338601
0.0348345
0.0353854
0.0353923
0.0348008
0.0336838
0.0321365
0.0302583
0.028141
0.025867
0.0235099
0.021136
0.0188064
0.0165801
0.0145369
0.0129041
0.0123317
0.0138265
0.0171838
0.0207244
0.0231896
0.0244434
0.0251455
0.0260664
0.0276037
0.0293206
0.0308563
0.0315189
0.0318609
0.0311405
0.0309658
0.0293529
0.295584
0.154404
0.0873309
0.0526546
0.0335023
0.0223549
0.0156394
0.011601
0.00943381
0.00893611
0.0102836
0.0134946
0.0177686
0.0217942
0.0247572
0.0267008
0.028211
0.0299909
0.0323491
0.0349538
0.0370035
0.0374412
0.0360563
0.0339617
0.0324337
0.0319561
0.0323649
0.0332665
0.0342736
0.0350914
0.0355275
0.0354569
0.0348207
0.0336801
0.0321217
0.0302382
0.0281175
0.02584
0.0234789
0.0211005
0.018766
0.0165338
0.0144769
0.0127977
0.0121132
0.013513
0.0170173
0.0209461
0.0238649
0.0254982
0.0264362
0.0274083
0.0288083
0.0302422
0.0314356
0.0317771
0.0318434
0.0309317
0.0305863
0.0289206
0.295548
0.154531
0.0875498
0.0528978
0.0337301
0.0225441
0.0157674
0.0116296
0.00928499
0.00846061
0.00927348
0.0118519
0.0157105
0.0197321
0.0229949
0.0253219
0.0271524
0.0291709
0.0318027
0.034763
0.0372206
0.0381386
0.0371722
0.0352687
0.0336865
0.033009
0.0331711
0.0338359
0.0346411
0.0352994
0.0356184
0.0354683
0.0347862
0.0336219
0.0320529
0.0301654
0.0280434
0.0257652
0.0234032
0.0210236
0.0186877
0.0164534
0.0143883
0.01267
0.0118752
0.013153
0.0167638
0.0210658
0.0244488
0.0264802
0.0276647
0.0286849
0.0299375
0.0310841
0.031941
0.0319752
0.031781
0.0306919
0.030188
0.0284772
0.295515
0.154651
0.0877585
0.0531307
0.0339498
0.0227296
0.0158999
0.0116787
0.00918852
0.00809562
0.00844753
0.0104132
0.0137583
0.0176111
0.0210374
0.0236771
0.0258047
0.0280479
0.0309188
0.0342317
0.0371268
0.0385502
0.0380455
0.0363968
0.0348204
0.0339826
0.0339181
0.0343538
0.0349586
0.0354566
0.0356569
0.035426
0.0346966
0.0335081
0.0319291
0.030039
0.0279177
0.0256415
0.0232816
0.0209042
0.0185705
0.016338
0.0142698
0.0125202
0.0116185
0.0127492
0.0164204
0.0210717
0.024923
0.0273673
0.028808
0.0298766
0.0309776
0.0318394
0.0323705
0.0321136
0.0316751
0.0304227
0.0297723
0.0280233
0.295485
0.154766
0.0879572
0.0533534
0.0341615
0.0229109
0.016035
0.0117434
0.00913383
0.0078222
0.00778642
0.0091876
0.0119668
0.0155084
0.018952
0.0218098
0.0241908
0.0266341
0.0297051
0.0333437
0.0366977
0.038652
0.0386497
0.0373174
0.0358094
0.0348573
0.0345926
0.0348121
0.0352215
0.0355604
0.0356414
0.0353287
0.0345512
0.033338
0.0317492
0.0298578
0.0277393
0.0254677
0.0231133
0.0207415
0.0184136
0.0161866
0.0141202
0.0123471
0.0113445
0.0123051
0.0159856
0.0209531
0.0252696
0.0281376
0.0298438
0.030964
0.0319156
0.0325017
0.0327223
0.0321927
0.0315269
0.0301252
0.0293399
0.0275596
0.295458
0.154875
0.0881464
0.0535663
0.0343651
0.0230875
0.0161711
0.0118197
0.00911209
0.00762342
0.00726801
0.00817006
0.0103742
0.0134961
0.016813
0.0197764
0.0223462
0.0249521
0.0281774
0.0320999
0.0359145
0.0384226
0.0389604
0.0380032
0.0366277
0.0356122
0.03518
0.0352011
0.0354237
0.0356071
0.0355699
0.0351751
0.0343486
0.0331105
0.0315124
0.0296209
0.0275073
0.0252432
0.0228973
0.0205348
0.0182164
0.0159988
0.0139388
0.01215
0.0110542
0.0118257
0.0154605
0.0207016
0.0254719
0.0287699
0.0307503
0.0319291
0.0327395
0.033065
0.0329943
0.0322125
0.0313369
0.0298001
0.0288915
0.0270865
0.295434
0.154978
0.0883263
0.0537696
0.0345606
0.023259
0.0163069
0.0119045
0.00911606
0.00748464
0.00686979
0.00734544
0.00900088
0.0116354
0.0146969
0.0176435
0.0203197
0.0230359
0.0263613
0.0305095
0.0347648
0.0378426
0.038955
0.0384284
0.0372499
0.0362261
0.0356645
0.0355101
0.0355584
0.0355922
0.0354393
0.0349631
0.0340876
0.0328245
0.0312176
0.0293273
0.0272209
0.024967
0.022633
0.0202834
0.0179783
0.0157738
0.0137247
0.0119279
0.0107487
0.0113167
0.0148482
0.020311
0.0255151
0.0292446
0.0315073
0.0327549
0.0334384
0.0335238
0.0331846
0.0321726
0.0311057
0.0294478
0.0284273
0.0266043
0.295412
0.155076
0.0884973
0.0539635
0.0347482
0.023425
0.0164414
0.0119952
0.00913983
0.00739349
0.00657054
0.00669207
0.00785062
0.0099718
0.0126762
0.015485
0.0181713
0.0209319
0.0242935
0.0285924
0.0332446
0.0368967
0.0386137
0.0385693
0.0376512
0.0366772
0.0360292
0.035727
0.0356173
0.0355105
0.0352462
0.0346904
0.0337664
0.0324786
0.0308638
0.0289764
0.0268792
0.0246385
0.0223199
0.0199868
0.0176989
0.0155114
0.0134775
0.0116801
0.0104291
0.0107846
0.0141545
0.0197779
0.0253866
0.0295437
0.0320961
0.033426
0.0340022
0.0338727
0.0332911
0.0320724
0.030833
0.0290684
0.0279475
0.0261129
0.295392
0.155169
0.0886596
0.0541484
0.0349279
0.0235855
0.0165738
0.0120897
0.00917864
0.00733974
0.00635125
0.00618534
0.00691311
0.00853263
0.0108137
0.0133763
0.0159708
0.0186979
0.022023
0.0263816
0.0313603
0.0355741
0.0379194
0.0384044
0.0378085
0.0369441
0.0362567
0.035839
0.0355914
0.0353557
0.0349864
0.0343541
0.033383
0.0320715
0.0304499
0.0285671
0.0264817
0.0242573
0.0219576
0.0196449
0.0173779
0.0152115
0.0131969
0.0114059
0.0100959
0.0102366
0.0133879
0.0191024
0.0250769
0.0296521
0.0325004
0.0339291
0.034422
0.0341069
0.0333115
0.031911
0.0305186
0.0286618
0.027452
0.0256123
0.295374
0.155257
0.0888137
0.0543245
0.0350999
0.0237402
0.0167035
0.0121864
0.00922867
0.00731501
0.00619557
0.00580049
0.0061682
0.00732669
0.00915669
0.0113888
0.0137928
0.016402
0.0196109