/*--------------------------------*- C++ -*----------------------------------*\
| =========                 |                                                 |
| \\      /  F ield         | OpenFOAM: The Open Source CFD Toolbox           |
|  \\    /   O peration     | Version:  2.4.0                                 |
|   \\  /    A nd           | Web:      www.OpenFOAM.org                      |
|    \\/     M anipulation  |                                                 |
\*---------------------------------------------------------------------------*/
FoamFile
{
    version     2.0;
    format      ascii;
    class       volScalarField;
    location    "295";
    object      nut;
}
// * * * * * * * * * * * * * * * * * * * * * * * * * * * * * * * * * * * * * //

dimensions      [0 2 -1 0 0 0 0];

internalField   nonuniform List<scalar> 
6000
(
1.35204e-05
9.808e-06
5.56213e-06
5.14764e-06
5.25848e-06
5.49718e-06
5.73737e-06
5.98096e-06
6.20356e-06
6.41989e-06
6.66944e-06
6.97993e-06
7.33236e-06
7.67556e-06
7.95391e-06
8.13031e-06
8.15875e-06
7.98399e-06
7.56311e-06
6.87861e-06
5.89281e-06
5.62458e-06
5.73582e-06
6.0341e-06
7.75961e-06
9.42399e-06
1.08149e-05
1.20169e-05
1.31173e-05
1.40095e-05
1.47142e-05
1.52535e-05
1.56493e-05
1.59244e-05
1.61069e-05
1.62033e-05
1.62295e-05
1.6198e-05
1.61164e-05
1.59852e-05
1.57967e-05
1.55308e-05
1.5158e-05
1.46438e-05
1.3936e-05
1.2875e-05
1.26036e-05
1.23234e-05
1.20134e-05
1.17266e-05
1.14761e-05
1.12985e-05
1.11377e-05
1.10582e-05
1.09401e-05
1.09321e-05
1.07746e-05
1.09254e-05
1.06387e-05
1.13888e-05
2.16982e-05
1.63835e-05
1.46856e-05
1.58099e-05
2.24752e-05
2.66567e-05
3.02101e-05
3.35418e-05
3.6315e-05
3.80323e-05
3.88723e-05
3.97035e-05
4.13351e-05
4.4159e-05
4.80969e-05
5.25195e-05
5.66241e-05
5.98774e-05
6.12446e-05
5.95895e-05
5.10842e-05
4.43049e-05
3.91322e-05
3.51282e-05
3.27134e-05
3.51669e-05
3.90279e-05
4.34107e-05
4.80496e-05
5.30272e-05
5.82916e-05
6.37722e-05
6.94063e-05
7.5101e-05
8.02117e-05
8.54446e-05
9.08474e-05
9.64331e-05
0.000102179
0.000107981
0.00011362
0.000118678
0.000122593
0.000124658
0.000123704
0.000117692
0.000106462
9.44887e-05
8.23388e-05
7.04344e-05
5.90881e-05
4.89851e-05
4.00555e-05
3.31126e-05
2.68656e-05
2.40464e-05
1.99581e-05
2.21415e-05
1.80102e-05
2.50141e-05
2.839e-05
2.19852e-05
1.99283e-05
2.41227e-05
4.23932e-05
5.64375e-05
6.68699e-05
7.56375e-05
8.26952e-05
8.72736e-05
8.99223e-05
9.25279e-05
9.66841e-05
0.00010295
0.000110788
0.00011854
0.000124688
0.000127788
0.000125922
0.00011722
9.90743e-05
8.37889e-05
6.86232e-05
6.11346e-05
6.27516e-05
7.17197e-05
8.33417e-05
9.59367e-05
0.000108762
0.000121629
0.000134281
0.000146506
0.00015815
0.000169026
0.000178535
0.000187897
0.000197293
0.000206832
0.000216515
0.000226124
0.000235103
0.000242397
0.000246601
0.000245986
0.000239539
0.000227544
0.000208095
0.000187023
0.000165318
0.000143923
0.000123295
0.000104711
8.79903e-05
7.53059e-05
6.43262e-05
6.20498e-05
5.57758e-05
6.73706e-05
5.6405e-05
8.1113e-05
3.19828e-05
2.55928e-05
2.32302e-05
2.86627e-05
5.29735e-05
7.76282e-05
9.70083e-05
0.000112795
0.000125466
0.000134245
0.000139971
0.000145214
0.000152039
0.000160965
0.000170989
0.00017983
0.000185573
0.000186098
0.000179117
0.000162553
0.000135788
0.00011251
9.14725e-05
8.54165e-05
9.39575e-05
0.000111622
0.000132394
0.00015366
0.000174201
0.000193611
0.000211636
0.000228167
0.000243202
0.000256759
0.000268697
0.000280304
0.000291922
0.000303782
0.000315926
0.000328033
0.000339203
0.000347721
0.000351317
0.000347391
0.000336603
0.000319202
0.000294169
0.000266822
0.000238524
0.000210624
0.000183811
0.000159793
0.000138671
0.000123975
0.000113589
0.000117234
0.00011548
0.000137398
0.000124556
0.000160341
3.37101e-05
2.77454e-05
2.52892e-05
3.10511e-05
5.70558e-05
9.04284e-05
0.000118411
0.00014156
0.000160471
0.000174294
0.000183897
0.000192183
0.000201471
0.000212223
0.000223147
0.000231685
0.000235755
0.000232881
0.000220714
0.000197215
0.000163454
0.000133531
0.000111081
0.000108961
0.000125427
0.000151968
0.00018115
0.000209582
0.000235861
0.000259636
0.000280865
0.000299681
0.000316323
0.000331055
0.000344157
0.000356888
0.000369742
0.000383073
0.000396983
0.000411081
0.000424151
0.000433836
0.000436979
0.00043038
0.000416494
0.000394656
0.000365495
0.00033354
0.00030048
0.000267974
0.000237016
0.00020973
0.00018688
0.000173367
0.000167821
0.000179933
0.000185674
0.000213845
0.000203377
0.00024074
3.4566e-05
2.90178e-05
2.65359e-05
3.20582e-05
5.86142e-05
9.74851e-05
0.000132777
0.000162828
0.000188032
0.000207287
0.000221197
0.000232683
0.000244179
0.000256144
0.000267175
0.000274673
0.000276538
0.00027018
0.000253367
0.000224226
0.000184818
0.000150419
0.000129022
0.000132187
0.000156733
0.000191473
0.00022767
0.000261499
0.000291661
0.000318052
0.00034092
0.000360666
0.00037776
0.000392662
0.000406014
0.00041905
0.000432412
0.000446589
0.000461777
0.000477565
0.000492478
0.000503534
0.000506635
0.00049829
0.000482101
0.00045685
0.000424518
0.000389075
0.000352505
0.000316733
0.000283112
0.000254238
0.000231818
0.000222002
0.000223696
0.000244046
0.000256607
0.00028716
0.000280141
0.000313871
3.50092e-05
2.97738e-05
2.726e-05
3.22105e-05
5.8395e-05
0.000100392
0.000141952
0.00017812
0.000209322
0.00023408
0.000252473
0.000267186
0.000280677
0.000293462
0.000304183
0.00031034
0.000309914
0.000300338
0.000279603
0.000246081
0.000202228
0.000165099
0.000146131
0.000155285
0.000187618
0.000229533
0.000271282
0.000308947
0.000341531
0.000369258
0.000392665
0.000412392
0.000429107
0.000443406
0.000456258
0.000468901
0.000482128
0.000496584
0.000512603
0.000529833
0.000546613
0.000559352
0.000562935
0.000553792
0.000535901
0.00050816
0.000473378
0.000435274
0.00039613
0.000358124
0.000323028
0.000293993
0.000273829
0.000269556
0.000279271
0.000306167
0.000323652
0.000353939
0.000349957
0.000377724
3.52417e-05
3.02248e-05
2.76568e-05
3.18664e-05
5.68879e-05
0.000100387
0.00014728
0.000188786
0.00022552
0.000255646
0.000278541
0.000296451
0.000311785
0.000325187
0.000335456
0.000340272
0.000337747
0.000325385
0.000301459
0.000264668
0.000217431
0.000178714
0.000162931
0.000178357
0.000217919
0.000265888
0.000311858
0.000352096
0.00038601
0.00041415
0.000437307
0.000456314
0.000471996
0.000485046
0.000496739
0.000508343
0.000520809
0.00053497
0.000551361
0.000569775
0.000588467
0.000603259
0.000607934
0.000598882
0.000579909
0.000550458
0.000513812
0.000473694
0.000432711
0.000393315
0.00035775
0.000329821
0.000313457
0.000315881
0.000333206
0.000364556
0.000385072
0.00041345
0.000411638
0.000432569
3.53593e-05
3.04934e-05
2.78538e-05
3.12622e-05
5.44139e-05
9.86838e-05
0.000149517
0.000195837
0.000237601
0.00027285
0.000300172
0.000321229
0.000338327
0.000352292
0.000362169
0.000365852
0.000361598
0.000346969
0.000320524
0.000281397
0.000231722
0.000192053
0.000179805
0.000201472
0.000247548
0.000300465
0.000349518
0.000391349
0.000425791
0.000453686
0.00047602
0.000493771
0.00050789
0.000519139
0.000529079
0.000539024
0.000550099
0.00056336
0.000579609
0.000598895
0.000619524
0.000636775
0.000643231
0.000635128
0.000615769
0.000585268
0.000547254
0.000505645
0.000463413
0.000423332
0.000388177
0.000362486
0.000351171
0.000360782
0.000384602
0.000418507
0.000440533
0.000466031
0.000465471
0.000479403
3.54118e-05
3.06513e-05
2.79324e-05
3.05484e-05
5.1359e-05
9.57926e-05
0.000148774
0.000199947
0.000246313
0.000286391
0.000318022
0.000342183
0.000361032
0.00037562
0.000385306
0.00038821
0.000382715
0.000366384
0.000338018
0.000297325
0.000246076
0.000205755
0.000197067
0.000224696
0.000276474
0.000333307
0.000384503
0.000427186
0.000461582
0.000488768
0.000509869
0.000525961
0.000538091
0.000547079
0.000554735
0.000562436
0.000571485
0.000583195
0.000598708
0.000618464
0.000640989
0.000661107
0.000670109
0.000663828
0.000644846
0.000613884
0.000574931
0.000532254
0.00048925
0.000449072
0.000415099
0.000392642
0.000387307
0.00040403
0.000432956
0.000467921
0.000490321
0.000512392
0.000512255
0.000519361
3.54266e-05
3.07413e-05
2.79432e-05
2.98169e-05
4.80563e-05
9.16847e-05
0.000146293
0.000201489
0.00025219
0.00029681
0.000332619
0.000359861
0.000380504
0.00039586
0.00040565
0.000408224
0.000402052
0.000384619
0.000354874
0.000313236
0.000261234
0.000220377
0.000214991
0.000248096
0.000304712
0.000364527
0.00041711
0.000460094
0.000494047
0.000520215
0.000539807
0.000553954
0.000563772
0.000570141
0.000575067
0.000579993
0.000586396
0.000595865
0.000609958
0.00062965
0.000653913
0.000677265
0.000689641
0.000686097
0.000668305
0.000637435
0.000597923
0.000554518
0.000511118
0.000471331
0.000439209
0.000420832
0.000422079
0.000445425
0.000478083
0.000512996
0.000534966
0.000553322
0.000552829
0.000553505
3.54194e-05
3.07889e-05
2.79174e-05
2.91206e-05
4.47563e-05
8.65464e-05
0.000142662
0.000200514
0.000255578
0.00030451
0.000344372
0.000374697
0.000397227
0.000413552
0.000423797
0.000426545
0.000420304
0.000402397
0.000371791
0.000329702
0.000277729
0.000236407
0.00023383
0.000271749
0.000332313
0.000394284
0.000447653
0.000490546
0.000523797
0.00054876
0.00056668
0.00057871
0.000585995
0.000589503
0.000591359
0.000593063
0.00059625
0.000602784
0.000614685
0.000633622
0.000659289
0.000686147
0.000702738
0.000702914
0.000687155
0.000656919
0.000617193
0.00057333
0.000529821
0.000490818
0.000461113
0.000447502
0.000455619
0.000484842
0.000520024
0.000554091
0.000575057
0.000589565
0.000588059
0.000582759
3.53993e-05
3.08103e-05
2.78738e-05
2.84869e-05
4.16282e-05
8.06839e-05
0.000137853
0.000197718
0.000256656
0.000309769
0.000353587
0.000387027
0.000411573
0.000429103
0.000440177
0.000443621
0.000437933
0.000420206
0.000389267
0.000347127
0.000295893
0.000254245
0.000253812
0.000295735
0.000359358
0.000422761
0.000476449
0.000518981
0.000551377
0.000575045
0.00059123
0.000601074
0.000605718
0.000606235
0.000604803
0.000602962
0.000602459
0.000605404
0.000614298
0.000631631
0.000658139
0.0006886
0.000710195
0.000715129
0.000702272
0.00067322
0.000633601
0.000589494
0.000546084
0.00050817
0.000481342
0.000473011
0.000488008
0.000522244
0.000558957
0.000591645
0.000611161
0.000621778
0.000618757
0.000607902
3.5372e-05
3.08154e-05
2.78234e-05
2.79271e-05
3.87729e-05
7.44321e-05
0.000131801
0.000193761
0.000255422
0.000312758
0.000360482
0.000397097
0.000423818
0.000442802
0.000455077
0.000459728
0.000455213
0.000438337
0.000407628
0.000365783
0.000315876
0.000274169
0.000275134
0.00032014
0.000385946
0.000450156
0.000503803
0.000545794
0.000577265
0.000599627
0.000614093
0.00062177
0.000623771
0.000621273
0.000616465
0.000610896
0.000606371
0.000605181
0.000610271
0.00062503
0.000651558
0.000685466
0.000712715
0.000723461
0.000714402
0.000687107
0.000647905
0.000603725
0.000560557
0.000523952
0.000500359
0.000497648
0.000519309
0.000557671
0.000595128
0.000626071
0.00064379
0.000650517
0.000645596
0.000629579
3.5341e-05
3.08106e-05
2.77728e-05
2.74432e-05
3.62392e-05
6.81014e-05
0.000124604
0.000188651
0.000252466
0.000313549
0.000365195
0.000405077
0.000434152
0.000454843
0.000468667
0.000475005
0.000472253
0.000456907
0.000427036
0.000385823
0.000337673
0.000296315
0.000297952
0.00034505
0.000412192
0.000476669
0.000529998
0.000571337
0.00060187
0.000622972
0.000635795
0.000641395
0.00064083
0.000635387
0.000627238
0.000617906
0.000609194
0.000603489
0.000604086
0.000615261
0.000640744
0.000677613
0.000710923
0.000728505
0.000724165
0.000699234
0.000660762
0.000616649
0.000573812
0.000538665
0.000518559
0.000521643
0.00054958
0.000591218
0.000628799
0.000657739
0.000673385
0.000676245
0.000669126
0.000648315
3.53084e-05
3.08e-05
2.77256e-05
2.70313e-05
3.40391e-05
6.19501e-05
0.000116482
0.000182268
0.000248341
0.00031217
0.000367791
0.00041107
0.000442696
0.000465341
0.000481027
0.000489481
0.000489043
0.000475897
0.000447511
0.000407295
0.000361172
0.000320661
0.000322364
0.000370545
0.000438216
0.000502492
0.000555287
0.000595912
0.000625534
0.000645456
0.000656752
0.00066041
0.000657415
0.000649167
0.000637809
0.00062481
0.000611919
0.000601523
0.000597127
0.000603778
0.000626984
0.000665886
0.000705441
0.000730734
0.000732056
0.000710134
0.000672722
0.000628801
0.000586344
0.000552739
0.000536276
0.000545177
0.00057888
0.000623012
0.00066023
0.000686973
0.000700319
0.000699337
0.000689796
0.000664543
3.52755e-05
3.07863e-05
2.76833e-05
2.66853e-05
3.21605e-05
5.61721e-05
0.000107722
0.000174571
0.000243013
0.000309231
0.000368267
0.000415119
0.000449513
0.000474346
0.000492163
0.000503106
0.000505475
0.000495176
0.000468954
0.00043015
0.000386197
0.000347048
0.0003484
0.000396691
0.000464138
0.000527803
0.000579893
0.000619769
0.000648527
0.00066737
0.000677274
0.00067915
0.000673891
0.000663023
0.000648655
0.000632186
0.000615271
0.00060021
0.000590566
0.000591947
0.000611599
0.000651187
0.000696829
0.000730517
0.000738448
0.000720229
0.000684231
0.000640628
0.000598571
0.000566541
0.000553783
0.000568389
0.000607271
0.000653176
0.000689657
0.00071405
0.000724897
0.000720098
0.000707974
0.000678614
3.52433e-05
3.07713e-05
2.76469e-05
2.63975e-05
3.05775e-05
5.08964e-05
9.8639e-05
0.000165621
0.0002364
0.000304991
0.000366899
0.000417214
0.000454611
0.000481862
0.000502035
0.00051577
0.000521377
0.000514535
0.000491171
0.000454251
0.000412543
0.00037521
0.000376012
0.000423534
0.000490067
0.000552761
0.000604
0.000643107
0.000671057
0.000688924
0.000697577
0.000697836
0.000690486
0.000677201
0.000660055
0.000640375
0.000619698
0.000600175
0.00058528
0.000580921
0.000595857
0.000634462
0.000685615
0.000728131
0.000743605
0.000729829
0.000695639
0.000652489
0.000610842
0.000580373
0.000571301
0.000591384
0.000634813
0.000681856
0.00071729
0.000739202
0.000747365
0.000738774
0.000723961
0.000690821
3.52123e-05
3.0756e-05
2.76165e-05
2.61605e-05
2.92577e-05
4.61936e-05
8.95404e-05
0.000155577
0.00022843
0.000299466
0.00036404
0.000417427
0.000457957
0.00048785
0.000510564
0.000527326
0.000536532
0.000533709
0.000513896
0.000479392
0.000439985
0.00040482
0.000405079
0.000451096
0.000516096
0.000577498
0.00062776
0.00066608
0.00069327
0.000710258
0.00071779
0.000716589
0.000707313
0.000691813
0.000672128
0.000649518
0.0006254
0.00060174
0.000581812
0.000571562
0.000580834
0.000616724
0.000672311
0.000723787
0.000747694
0.00073915
0.000707208
0.000664671
0.000623439
0.000594485
0.000589005
0.000614237
0.000661562
0.000709191
0.000743314
0.000762619
0.000767917
0.000755567
0.000738009
0.000701404
3.51828e-05
3.07412e-05
2.75917e-05
2.59671e-05
2.81666e-05
4.2086e-05
8.07001e-05
0.000144671
0.000219075
0.00029262
0.000359774
0.000416069
0.000459525
0.000492243
0.000517653
0.000537609
0.000550702
0.000552399
0.000536816
0.000505307
0.000468292
0.000435529
0.00043541
0.000479364
0.000542298
0.000602119
0.000651283
0.000688794
0.000715262
0.000731451
0.000737976
0.000735453
0.000724401
0.000706867
0.000684868
0.000659607
0.000632386
0.000604977
0.000580389
0.000564392
0.000567313
0.000599029
0.000657436
0.000717649
0.000750804
0.000748323
0.000719121
0.00067739
0.000636586
0.000609075
0.000607026
0.000637001
0.000687567
0.0007353
0.000767883
0.000784448
0.000786698
0.000770643
0.000750328
0.000710564
3.51549e-05
3.07273e-05
2.75722e-05
2.58106e-05
2.72708e-05
3.85597e-05
7.23432e-05
0.000133191
0.000208379
0.000284391
0.000354132
0.000413211
0.000459543
0.000494957
0.000523189
0.000546441
0.000563637
0.000570286
0.000559588
0.000531696
0.000497223
0.000466993
0.000466763
0.000508288
0.000568716
0.000626699
0.000674647
0.000711314
0.00073708
0.000752533
0.000758144
0.000754414
0.000741713
0.000722306
0.000698191
0.00067053
0.000640529
0.000609773
0.000580986
0.00055962
0.000555917
0.000582254
0.000641517
0.000709856
0.000752957
0.000757411
0.000731498
0.000690804
0.000650457
0.000624302
0.000625466
0.000659709
0.000712873
0.000760284
0.000791122
0.000804803
0.000803843
0.00078414
0.000761097
0.00071847
3.51288e-05
3.07147e-05
2.75575e-05
2.56854e-05
2.65398e-05
3.55761e-05
6.46368e-05
0.000121446
0.00019646
0.000274728
0.000347106
0.0004089
0.000458042
0.000496143
0.000527054
0.000553647
0.000575091
0.000587047
0.00058185
0.000558229
0.00052653
0.000498892
0.000498858
0.00053778
0.000595363
0.00065128
0.000697893
0.000733669
0.000758736
0.000773491
0.000778261
0.000773418
0.000759172
0.000738025
0.000711962
0.00068212
0.000649627
0.000615902
0.000583397
0.000557204
0.000547091
0.000567061
0.00062508
0.000700543
0.000754129
0.000766416
0.000744403
0.000705026
0.000665188
0.000640289
0.000644398
0.000682385
0.000737516
0.000784232
0.000813131
0.000823762
0.000819456
0.00079618
0.00077047
0.000725265
3.51044e-05
3.07033e-05
2.75471e-05
2.55863e-05
2.59466e-05
3.3082e-05
5.76884e-05
0.000109748
0.000183509
0.000263613
0.000338658
0.000403152
0.000455044
0.000495797
0.000529332
0.000559055
0.000584828
0.00060236
0.000603231
0.000584558
0.000555954
0.000530933
0.000531393
0.000567711
0.000622215
0.000675871
0.000721031
0.000755857
0.000780208
0.000794285
0.000798265
0.000792379
0.000776675
0.000753897
0.000726023
0.000694181
0.000659439
0.00062308
0.00058738
0.000557017
0.000540935
0.000553887
0.000608634
0.000689852
0.000754264
0.000775296
0.000757856
0.000720126
0.000680876
0.000657132
0.000663879
0.000705041
0.00076153
0.000807216
0.00083398
0.00084138
0.000833621
0.000806866
0.000778581
0.000731068
3.50818e-05
3.06933e-05
2.75405e-05
2.55092e-05
2.54676e-05
3.10181e-05
5.15498e-05
9.8386e-05
0.000169778
0.000251079
0.000328739
0.00039596
0.000450557
0.000493912
0.000529991
0.000562683
0.000592633
0.000615913
0.000623358
0.000610323
0.00058523
0.000562848
0.00056406
0.00059791
0.000649211
0.000700448
0.000744039
0.000777845
0.000801448
0.000814848
0.00081807
0.000811194
0.000794104
0.000769786
0.000740211
0.000706514
0.000669723
0.000631061
0.00059274
0.000558802
0.000537299
0.000542953
0.000592643
0.000677944
0.000753283
0.000783968
0.000771837
0.000736138
0.00069759
0.000674902
0.000683945
0.000727685
0.000784944
0.000829292
0.000853711
0.000857693
0.000846409
0.000816294
0.000785547
0.000735984
3.50608e-05
3.06846e-05
2.75372e-05
2.54503e-05
2.50828e-05
2.93245e-05
4.6225e-05
8.76089e-05
0.000155562
0.000237223
0.000317312
0.000387294
0.000444577
0.000490477
0.000529006
0.000564494
0.000598443
0.000627425
0.000641861
0.000635152
0.000614081
0.000594393
0.000596555
0.00062817
0.000676249
0.000724952
0.000766868
0.000799577
0.000822387
0.000835095
0.000837576
0.000829747
0.000811336
0.000785551
0.000754364
0.000718926
0.0006803
0.000639733
0.000599201
0.000562221
0.00053588
0.000534296
0.000577501
0.000665
0.000751096
0.000792322
0.000786296
0.00075307
0.000715373
0.000693648
0.000704623
0.00075032
0.000807784
0.000850498
0.000872347
0.000872733
0.000857885
0.000824549
0.00079147
0.0007401
3.50414e-05
3.06773e-05
2.75368e-05
2.54065e-05
2.47755e-05
2.79444e-05
4.16808e-05
7.76151e-05
0.000141177
0.000222206
0.000304365
0.000377113
0.000437087
0.000485482
0.000526356
0.000564451
0.00060216
0.000636724
0.00065839
0.000658666
0.000642215
0.000625341
0.000628586
0.000658256
0.000703185
0.000749289
0.000789438
0.000820975
0.000842938
0.000854929
0.000856672
0.000847916
0.000828245
0.000801056
0.000768329
0.000731331
0.000691113
0.000648902
0.000606493
0.000566919
0.000536314
0.000527814
0.000563517
0.000651221
0.000747612
0.000800218
0.000801153
0.000770899
0.000734241
0.0007134
0.000725924
0.000772948
0.000830071
0.000870853
0.000889886
0.000886521
0.000868106
0.00083171
0.000796441
0.000743492
3.50235e-05
3.06712e-05
2.75389e-05
2.53753e-05
2.45316e-05
2.68265e-05
3.78577e-05
6.85442e-05
0.000126946
0.000206252
0.000289933
0.000365377
0.000428059
0.000478914
0.000522027
0.000562531
0.000603715
0.00064364
0.000672667
0.000680496
0.000669326
0.000655472
0.000659883
0.000687904
0.000729835
0.000773329
0.000811643
0.000841937
0.000863
0.00087424
0.000875239
0.000865574
0.000844704
0.000816203
0.000782087
0.000743669
0.000702033
0.000658387
0.000614363
0.000572562
0.000538228
0.000523307
0.000550901
0.000636824
0.000742743
0.000807497
0.0008163
0.000789579
0.000754188
0.000734165
0.00074785
0.000795564
0.000851815
0.000890356
0.000906316
0.000899075
0.00087713
0.000837849
0.000800541
0.000746223
3.5007e-05
3.06663e-05
2.75432e-05
2.53544e-05
2.43397e-05
2.59258e-05
3.46806e-05
6.0476e-05
0.000113174
0.000189637
0.000274102
0.000352063
0.000417461
0.000470754
0.000516011
0.000558722
0.000603063
0.000648041
0.000684433
0.000700291
0.000695118
0.00068458
0.00069018
0.000716842
0.000756025
0.000796963
0.000833391
0.000862366
0.000882466
0.000892922
0.000893177
0.000882645
0.000860676
0.000830959
0.000795563
0.000755852
0.000712943
0.000668027
0.000622588
0.000578853
0.000541276
0.000520523
0.000539769
0.000622034
0.00073641
0.000813976
0.000831605
0.000809039
0.000775185
0.000755931
0.000770385
0.000818157
0.000873012
0.000908988
0.000921616
0.000910415
0.000885012
0.000843036
0.000803841
0.00074835
3.49919e-05
3.06625e-05
2.75493e-05
2.53421e-05
2.419e-05
2.52035e-05
3.20679e-05
5.34344e-05
0.00010013
0.000172674
0.000257019
0.000337172
0.00040526
0.000460984
0.000508302
0.000553021
0.00060018
0.000649828
0.000693461
0.000717719
0.000719251
0.000712446
0.00071927
0.000744842
0.000781588
0.000820094
0.00085462
0.000882216
0.000901295
0.00091093
0.000910437
0.000899074
0.000876097
0.00084526
0.000808687
0.000767796
0.000723737
0.000677678
0.000630975
0.000585543
0.000545151
0.000519188
0.000530152
0.000607072
0.000728553
0.000819461
0.000846911
0.000829183
0.000797177
0.000778664
0.000793498
0.000840706
0.000893646
0.000926714
0.00093576
0.000920562
0.000891808
0.000847333
0.000806404
0.000749919
3.4978e-05
3.06596e-05
2.75569e-05
2.53368e-05
2.40748e-05
2.4627e-05
2.99384e-05
4.73955e-05
8.80365e-05
0.0001557
0.00023889
0.000320747
0.000391432
0.00044958
0.000498895
0.000545436
0.000595059
0.000648937
0.000699562
0.000732469
0.000741383
0.000738826
0.000746971
0.000771697
0.000806349
0.000842601
0.000875252
0.000901428
0.000919434
0.000928214
0.000926969
0.00091481
0.000890911
0.000859045
0.000821395
0.000779425
0.000734316
0.000687213
0.000639362
0.000592424
0.000549588
0.000519028
0.00052201
0.000592151
0.000719126
0.000823738
0.000862036
0.000849891
0.000820086
0.000802305
0.000817139
0.000863173
0.000913682
0.00094349
0.000948724
0.000929542
0.000897573
0.000850799
0.000808285
0.000750972
3.49653e-05
3.06577e-05
2.75659e-05
2.53373e-05
2.39876e-05
2.41691e-05
2.82157e-05
4.22982e-05
7.70546e-05
0.000139054
0.000219979
0.000302878
0.000375972
0.000436526
0.000487789
0.00053598
0.000587694
0.000645334
0.000702581
0.000744255
0.000761168
0.000763451
0.000773112
0.000797222
0.000830125
0.000864348
0.000895192
0.000919932
0.000936827
0.000944721
0.000942719
0.0009298
0.00090506
0.000872257
0.000833622
0.000790666
0.000744591
0.00069652
0.000647613
0.000599325
0.000554367
0.000519788
0.000515252
0.000577468
0.00070811
0.000826585
0.000876773
0.000871016
0.000843809
0.000826771
0.000841238
0.000885505
0.000933068
0.000959266
0.00096049
0.000937388
0.000902363
0.000853489
0.000809535
0.000751544
3.49537e-05
3.06566e-05
2.7576e-05
2.53424e-05
2.39232e-05
2.38075e-05
2.68309e-05
3.80563e-05
6.72825e-05
0.000123058
0.000200593
0.000283712
0.000358905
0.000421808
0.000474985
0.000524674
0.000578082
0.000639018
0.000702403
0.000752821
0.000778269
0.000786037
0.00079752
0.00082125
0.000852739
0.000885185
0.00091433
0.000937646
0.000953406
0.000960394
0.000957634
0.00094399
0.000918488
0.000884838
0.000845306
0.000801446
0.000754477
0.000705504
0.000655615
0.000606108
0.0005593
0.000521231
0.000509745
0.000563197
0.000695513
0.000827767
0.000890889
0.000892388
0.000868219
0.000851956
0.000865704
0.000907635
0.000951746
0.000973992
0.000971058
0.000944138
0.000906232
0.000855453
0.000810198
0.000751666
3.4943e-05
3.06563e-05
2.7587e-05
2.53514e-05
2.38773e-05
2.35236e-05
2.57239e-05
3.45697e-05
5.87551e-05
0.000108003
0.000181079
0.000263453
0.000340293
0.000405432
0.000460485
0.000511544
0.000566333
0.000630017
0.000698951
0.000757942
0.000792363
0.000806291
0.000820015
0.000843629
0.000874015
0.000904956
0.000932543
0.000954478
0.000969099
0.00097517
0.00097166
0.000957325
0.000931138
0.000896727
0.000856385
0.000811697
0.000763898
0.000714077
0.00066327
0.000612657
0.000564233
0.000523147
0.000505337
0.000549483
0.000681376
0.000827047
0.000904127
0.000913806
0.000893162
0.00087773
0.000890426
0.000929475
0.000969646
0.000987622
0.000980438
0.000949835
0.000909234
0.000856738
0.000810312
0.000751363
3.49333e-05
3.06566e-05
2.75987e-05
2.53635e-05
2.38463e-05
2.33024e-05
2.48433e-05
3.17344e-05
5.14504e-05
9.41236e-05
0.000161799
0.000242362
0.000320244
0.00038742
0.0004443
0.00049662
0.000552496
0.00061838
0.000692188
0.000759428
0.000803143
0.00082391
0.000840405
0.000864212
0.00089379
0.000923498
0.000949699
0.000970324
0.000983826
0.000988984
0.000984737
0.000969751
0.000942952
0.000907867
0.000866796
0.000821351
0.000772782
0.000722164
0.000670498
0.000618875
0.000569035
0.00052535
0.000501861
0.000536444
0.000665773
0.000824188
0.000916203
0.000935046
0.000918459
0.000903939
0.000915273
0.00095093
0.000986698
0.00100012
0.00098865
0.000954525
0.000911421
0.000857388
0.000809912
0.00075066
3.49245e-05
3.06574e-05
2.7611e-05
2.53781e-05
2.38274e-05
2.31318e-05
2.41462e-05
2.94495e-05
4.53e-05
8.15931e-05
0.000143115
0.000220752
0.00029892
0.000367829
0.000426453
0.00047994
0.00053663
0.000604167
0.000682115
0.000757131
0.000810327
0.000838595
0.000858482
0.000882853
0.000911908
0.000940651
0.00096566
0.000985078
0.000997502
0.00100177
0.000996803
0.000981208
0.000953872
0.000918197
0.000876476
0.000830344
0.00078106
0.000729696
0.000677227
0.000624681
0.000573594
0.000527678
0.000499147
0.000524166
0.000648816
0.000818957
0.00092681
0.000955855
0.000943909
0.00093041
0.0009401
0.000971895
0.00100284
0.00101148
0.000995725
0.000958259
0.000912843
0.000857443
0.00080903
0.000749577
3.49164e-05
3.06588e-05
2.76238e-05
2.53946e-05
2.38182e-05
2.30018e-05
2.3597e-05
2.76221e-05
4.02021e-05
7.05129e-05
0.000125369
0.000198977
0.000276537
0.000346751
0.000406982
0.000461548
0.000518806
0.000587446
0.000668771
0.000750945
0.00081366
0.000850048
0.000874024
0.000899403
0.000928221
0.00095626
0.000980285
0.000998622
0.00101003
0.00101344
0.0010078
0.000991636
0.000963837
0.000927654
0.000885363
0.000838611
0.00078867
0.00073661
0.000683393
0.000630003
0.000577818
0.000529989
0.000497029
0.000512701
0.000630656
0.000811137
0.000935619
0.000975951
0.000969282
0.00095695
0.000964751
0.000992262
0.00101801
0.00102168
0.0010017
0.000961087
0.000913549
0.000856939
0.000807695
0.000748134
3.49091e-05
3.06607e-05
2.76369e-05
2.54127e-05
2.38169e-05
2.29044e-05
2.31664e-05
2.61701e-05
3.60352e-05
6.09129e-05
0.000108858
0.000177422
0.000253371
0.000324323
0.000385952
0.0004415
0.000499105
0.000568274
0.000652227
0.000740813
0.00081292
0.00085798
0.000886794
0.000913703
0.00094259
0.000970177
0.000993434
0.00101084
0.00102133
0.00102393
0.00101765
0.00100097
0.000972786
0.000936176
0.000893392
0.000846089
0.00079555
0.000742848
0.000688939
0.000634778
0.000581623
0.000532158
0.000495344
0.000502072
0.000611483
0.000800534
0.000942279
0.000995025
0.000994331
0.000983351
0.000989062
0.00101192
0.00103216
0.00103074
0.00100662
0.000963064
0.000913585
0.000855912
0.000805932
0.000746347
3.49024e-05
3.06629e-05
2.76503e-05
2.54319e-05
2.38218e-05
2.28332e-05
2.28309e-05
2.50228e-05
3.26703e-05
5.27569e-05
9.38216e-05
0.000156481
0.00022975
0.000300737
0.000363457
0.000419864
0.000477619
0.00054676
0.00063259
0.000726724
0.000807929
0.000862117
0.000896544
0.00092558
0.000954879
0.000982263
0.00100497
0.00102161
0.00103128
0.00103315
0.00102629
0.00100916
0.000980656
0.000943701
0.000900503
0.000852719
0.000801642
0.000748353
0.00069381
0.00063895
0.000584939
0.000534077
0.000493939
0.00049227
0.000591519
0.000786987
0.000946423
0.00101274
0.00101878
0.00100939
0.00101286
0.00103078
0.00104526
0.00103868
0.00101055
0.000964242
0.000912996
0.000854393
0.000803766
0.000744232
3.48963e-05
3.06654e-05
2.76638e-05
2.5452e-05
2.38317e-05
2.27829e-05
2.25713e-05
2.41209e-05
2.99809e-05
4.59547e-05
8.04226e-05
0.000136535
0.000206049
0.000276239
0.000339631
0.000396732
0.000454457
0.000523143
0.000609996
0.000708717
0.000798551
0.000862205
0.000903021
0.000934849
0.000964947
0.000992384
0.00101476
0.00103081
0.0010398
0.00104103
0.00103365
0.00101612
0.000987383
0.000950165
0.000906632
0.000858439
0.00080689
0.000753074
0.000697955
0.000642466
0.000587701
0.000535651
0.000492671
0.000483257
0.000571019
0.000770382
0.000947672
0.00102874
0.00104234
0.00103484
0.00103599
0.00104874
0.00105729
0.00104553
0.00101353
0.000964676
0.000911824
0.000852414
0.000801221
0.000741807
3.48908e-05
3.06682e-05
2.76774e-05
2.54728e-05
2.38456e-05
2.27494e-05
2.2372e-05
2.34152e-05
2.785e-05
4.03772e-05
6.87413e-05
0.000117931
0.000182676
0.000251132
0.000314658
0.000372219
0.000429739
0.000497573
0.000584586
0.000686875
0.000784703
0.000858015
0.000905965
0.00094131
0.000972653
0.00100042
0.00102268
0.00103834
0.00104678
0.00104747
0.00103965
0.00102181
0.000992904
0.000955505
0.000911718
0.000863192
0.000811238
0.000756958
0.000701328
0.000645276
0.000589851
0.000536793
0.000491408
0.000474969
0.000550259
0.000750667
0.000945642
0.00104263
0.0010647
0.00105945
0.00105827
0.00106572
0.00106824
0.00105135
0.00101563
0.000964419
0.000910112
0.000850004
0.000798319
0.000739085
3.48858e-05
3.06712e-05
2.76911e-05
2.54939e-05
2.38625e-05
2.27293e-05
2.22209e-05
2.28657e-05
2.6174e-05
3.58727e-05
5.87759e-05
0.000100958
0.000160054
0.000225776
0.000288769
0.000346476
0.000403608
0.000470226
0.000556498
0.000661326
0.000766357
0.000849353
0.000905121
0.000944746
0.000977844
0.00100623
0.00102862
0.00104407
0.00105212
0.00105239
0.00104423
0.00102614
0.000997153
0.000959658
0.0009157
0.000866918
0.000814632
0.000759957
0.000703879
0.000647335
0.000591336
0.000537428
0.000490026
0.000467323
0.000529524
0.000727859
0.000939951
0.001054
0.00108552
0.00108298
0.00107955
0.00108165
0.00107811
0.00105617
0.00101691
0.000963525
0.000907899
0.000847192
0.000795081