/*--------------------------------*- C++ -*----------------------------------*\
| =========                 |                                                 |
| \\      /  F ield         | OpenFOAM: The Open Source CFD Toolbox           |
|  \\    /   O peration     | Version:  2.4.0                                 |
|   \\  /    A nd           | Web:      www.OpenFOAM.org                      |
|    \\/     M anipulation  |                                                 |
\*---------------------------------------------------------------------------*/
FoamFile
{
    version     2.0;
    format      ascii;
    class       volScalarField;
    location    "0.86";
    object      p;
}
// * * * * * * * * * * * * * * * * * * * * * * * * * * * * * * * * * * * * * //

dimensions      [0 2 -2 0 0 0 0];

internalField   nonuniform List<scalar> 
2320
(
1.16884
1.16928
1.15657
1.14442
1.18327
1.16113
1.15547
1.16969
1.16808
1.17969
1.15756
1.16918
1.16578
1.14963
1.16396
1.1594
1.14594
1.14368
1.1382
1.12662
1.14883
1.16218
1.12791
1.12341
1.14747
1.15175
1.16047
1.15354
1.15059
1.14926
1.14384
1.15351
1.1612
1.15472
1.15259
1.15453
1.13447
1.13208
1.1232
1.10303
1.16429
1.15515
1.14904
1.16388
1.1692
1.15357
1.16459
1.16402
1.15468
1.16393
1.16658
1.17262
1.16499
1.16285
1.16182
1.15277
1.14087
1.14472
1.13738
1.11899
1.16882
1.16222
1.1611
1.15947
1.16006
1.15577
1.16206
1.16109
1.15838
1.16262
1.15638
1.16092
1.15951
1.15671
1.15056
1.15166
1.14419
1.13704
1.13674
1.11906
1.16912
1.16297
1.16153
1.15913
1.16497
1.16674
1.16633
1.16594
1.16114
1.16969
1.16335
1.1673
1.16271
1.17012
1.16152
1.15505
1.14896
1.1464
1.14083
1.13014
1.16879
1.1638
1.16263
1.16057
1.16557
1.16369
1.16547
1.16614
1.16337
1.16574
1.1596
1.164
1.16036
1.15485
1.15389
1.1489
1.14864
1.14589
1.13887
1.12673
1.16873
1.16373
1.16399
1.16144
1.16465
1.16413
1.16691
1.16813
1.16544
1.1698
1.16283
1.16663
1.16074
1.16016
1.1599
1.154
1.15331
1.14897
1.14577
1.14373
1.1688
1.16403
1.16442
1.16271
1.1651
1.16425
1.16605
1.16517
1.16371
1.16802
1.16221
1.16636
1.15898
1.15898
1.15949
1.15216
1.15614
1.15134
1.14574
1.13997
1.16882
1.16386
1.16343
1.16408
1.16755
1.16501
1.16587
1.16536
1.16377
1.16936
1.16189
1.16871
1.16056
1.16059
1.16313
1.15744
1.16068
1.15634
1.15214
1.15193
1.1689
1.16385
1.1623
1.16405
1.16782
1.1645
1.16564
1.1663
1.16382
1.16657
1.16087
1.16359
1.16059
1.15981
1.16413
1.16002
1.1643
1.15903
1.15691
1.15426
1.16904
1.16454
1.16346
1.16455
1.16754
1.16489
1.16586
1.16606
1.16402
1.16623
1.16103
1.16544
1.16188
1.16236
1.16645
1.16293
1.16788
1.1634
1.16127
1.16433
1.1691
1.16539
1.1655
1.16624
1.16806
1.16567
1.16638
1.16485
1.16428
1.16655
1.16228
1.16626
1.16332
1.16677
1.16895
1.16524
1.17131
1.16582
1.16665
1.16879
1.16891
1.16558
1.16584
1.16681
1.16848
1.16644
1.16723
1.16406
1.16422
1.16753
1.16361
1.16794
1.16416
1.16638
1.17096
1.16691
1.17493
1.16938
1.17226
1.17561
1.16886
1.16606
1.16541
1.16581
1.16793
1.16698
1.16788
1.16503
1.16375
1.16799
1.16478
1.16944
1.16542
1.16662
1.17198
1.16892
1.17819
1.1728
1.17895
1.18182
1.16868
1.16669
1.16496
1.1654
1.16645
1.16668
1.16833
1.16615
1.16379
1.16819
1.1654
1.17063
1.16755
1.16743
1.17194
1.16989
1.18172
1.17659
1.18572
1.1885
1.16845
1.16705
1.16475
1.16555
1.16567
1.16637
1.16832
1.16746
1.1645
1.16829
1.16543
1.17147
1.16927
1.16916
1.17092
1.17101
1.18448
1.18013
1.1928
1.19476
1.16845
1.16726
1.16483
1.16598
1.16594
1.16608
1.16805
1.168
1.16537
1.1673
1.1659
1.17195
1.17001
1.17119
1.17325
1.17234
1.18631
1.18332
1.19906
1.20163
1.16875
1.16786
1.16531
1.16704
1.16686
1.16642
1.16776
1.16843
1.16559
1.16768
1.16594
1.17273
1.16813
1.17298
1.17603
1.17566
1.18789
1.18606
1.20466
1.2075
1.16895
1.16863
1.16607
1.16797
1.16813
1.16693
1.16822
1.16894
1.16691
1.16884
1.16669
1.17299
1.1693
1.17385
1.17843
1.17746
1.1899
1.18678
1.2091
1.21195
1.16891
1.16894
1.16657
1.16833
1.16835
1.1675
1.16851
1.17001
1.16817
1.17078
1.16691
1.17342
1.16892
1.17426
1.17849
1.17845
1.19083
1.19028
1.21189
1.21851
1.10597
1.10285
1.05269
1.04926
0.972447
0.925204
0.813331
0.795415
1.08437
1.0906
1.0372
1.02406
0.968862
0.903188
0.827378
0.779343
1.08613
1.08749
1.07157
1.04165
0.977282
0.951729
0.878966
0.782402
1.09857
1.0957
1.07083
1.03709
0.9909
0.951122
0.889962
0.783185
1.10997
1.10722
1.07845
1.04591
0.99954
0.963282
0.904365
0.794197
1.11644
1.10989
1.07986
1.05495
1.01591
0.978086
0.91635
0.814861
1.12308
1.11717
1.09558
1.06534
1.0305
0.992278
0.936723
0.837994
1.1289
1.1237
1.10178
1.07657
1.0469
1.00739
0.953908
0.863931
1.13741
1.13346
1.11396
1.09189
1.06449
1.02793
0.979358
0.894744
1.14538
1.14133
1.12489
1.10377
1.08275
1.05105
1.007
0.928766
1.15233
1.15358
1.13459
1.1218
1.1011
1.07456
1.04012
0.967666
1.16115
1.16302
1.14603
1.13645
1.1193
1.10275
1.06996
1.00919
1.1729
1.17387
1.15879
1.15209
1.13937
1.12863
1.1027
1.05199
1.18197
1.18579
1.17047
1.16628
1.15838
1.1549
1.13693
1.09715
1.19268
1.19684
1.18261
1.18111
1.17713
1.17943
1.17479
1.14969
1.20367
1.2108
1.19297
1.19428
1.19411
1.2053
1.20962
1.19635
1.21513
1.22385
1.20405
1.20456
1.20765
1.23086
1.23811
1.24079
1.22919
1.23813
1.21348
1.21378
1.21772
1.25695
1.27916
1.27613
1.24621
1.25192
1.21973
1.21807
1.22606
1.24415
1.25558
1.28654
1.26362
1.27726
1.22729
1.21846
1.23036
1.29212
1.26734
1.2709
0.654075
0.481116
0.258477
-0.0363602
-0.35924
-0.808737
-1.34094
-1.92694
-2.66281
-3.43736
-4.31896
-5.19723
-6.00884
-6.75075
-7.36567
-7.74521
-7.94329
-7.9309
-7.67027
-7.19792
-6.56875
-5.75572
-4.90288
-3.97828
-3.13576
-2.28593
-1.57942
-0.730763
0.630811
0.474721
0.258437
-0.0348656
-0.352206
-0.801464
-1.33107
-1.93909
-2.68161
-3.46429
-4.35849
-5.23951
-6.05866
-6.80685
-7.4157
-7.80069
-7.99743
-7.98549
-7.72149
-7.25734
-6.61219
-5.80694
-4.93293
-4.02253
-3.1384
-2.33609
-1.58741
-1.03088
0.646833
0.474327
0.267999
-0.018532
-0.35066
-0.799971
-1.31293
-1.96098
-2.71727
-3.51847
-4.432
-5.31476
-6.15527
-6.91413
-7.52288
-7.91326
-8.1213
-8.09032
-7.83193
-7.36197
-6.70812
-5.88652
-5.0086
-4.077
-3.19938
-2.36375
-1.61383
-1.0214
0.65476
0.481107
0.276047
-0.00576504
-0.349634
-0.805524
-1.3151
-1.99454
-2.77258
-3.60597
-4.53381
-5.4355
-6.29885
-7.0813
-7.68098
-8.09153
-8.2969
-8.25694
-8.00064
-7.52928
-6.84852
-6.02195
-5.11909
-4.17034
-3.26429
-2.41672
-1.64378
-1.05435
0.67573
0.499944
0.286904
0.0137501
-0.339246
-0.811242
-1.33098
-2.0318
-2.84447
-3.72114
-4.67428
-5.6002
-6.50361
-7.29646
-7.90216
-8.32565
-8.52651
-8.47499
-8.22439
-7.74148
-7.03563
-6.20062
-5.2676
-4.30557
-3.34815
-2.48082
-1.68632
-1.06276
0.692515
0.528586
0.304049
0.0317815
-0.328214
-0.815356
-1.35711
-2.08715
-2.93394
-3.86627
-4.84206
-5.80643
-6.74312
-7.54937
-8.17761
-8.61074
-8.80518
-8.74434
-8.50126
-7.98935
-7.27551
-6.4194
-5.45601
-4.46916
-3.46208
-2.56055
-1.74147
-1.07442
0.716055
0.557827
0.330435
0.0540085
-0.316137
-0.812557
-1.39192
-2.15673
-3.04409
-4.02601
-5.02641
-6.03499
-6.991
-7.81045
-8.46919
-8.90015
-9.08212
-9.02867
-8.77981
-8.24534
-7.53211
-6.66259
-5.66489
-4.65667
-3.59982
-2.64981
-1.80682
-1.09525
0.744646
0.586111
0.363429
0.0789908
-0.301476
-0.808596
-1.42644
-2.22862
-3.15342
-4.17859
-5.20165
-6.24852
-7.21917
-8.06773
-8.74505
-9.16619
-9.35368
-9.29471
-9.03845
-8.4875
-7.77304
-6.8976
-5.87054
-4.84475
-3.7535
-2.76363
-1.8762
-1.1123
0.778192
0.621076
0.401842
0.105879
-0.281596
-0.794966
-1.4512
-2.28403
-3.24778
-4.30962
-5.36343
-6.42695
-7.41564
-8.31122
-8.99181
-9.41164
-9.60252
-9.53185
-9.27188
-8.70793
-7.98763
-7.09025
-6.06173
-5.01371
-3.86046
-2.86742
-1.94633
-1.12411
0.819384
0.662799
0.444713
0.141235
-0.248547
-0.765416
-1.4557
-2.31878
-3.31206
-4.40258
-5.48651
-6.56104
-7.56425
-8.49192
-9.18936
-9.62371
-9.79841
-9.72006
-9.46108
-8.90105
-8.1805
-7.2358
-6.20641
-5.16195
-3.95511
-2.93479
-1.97039
-1.13383
0.863141
0.70921
0.491015
0.186347
-0.20283
-0.722795
-1.43629
-2.32839
-3.34419
-4.45412
-5.55932
-6.64386
-7.66497
-8.60961
-9.317
-9.76373
-9.94046
-9.8677
-9.58687
-8.99499
-8.31514
-7.34858
-6.29512
-5.20868
-4.02797
-3.01677
-1.96176
-1.10465
0.911959
0.757611
0.538763
0.238937
-0.140668
-0.663981
-1.39811
-2.31027
-3.34306
-4.46504
-5.58
-6.67
-7.7079
-8.66335
-9.38055
-9.84378
-9.99312
-9.93837
-9.67148
-9.06635
-8.35204
-7.3887
-6.36814
-5.20309
-4.01951
-3.03809
-1.94408
-1.08112
0.961332
0.808498
0.592698
0.297748
-0.0692375
-0.593358
-1.34132
-2.26125
-3.30687
-4.43969
-5.56193
-6.64395
-7.68647
-8.65676
-9.36219
-9.83897
-10.0198
-9.92842
-9.63564
-9.08861
-8.35645
-7.37011
-6.34829
-5.16856
-4.0145
-2.99494
-1.85796
-1.04342
1.0187
0.868338
0.648433
0.360801
0.00741699
-0.519248
-1.27619
-2.1897
-3.2347
-4.37117
-5.49793
-6.58885
-7.61647
-8.58005
-9.29805
-9.75861
-9.94358
-9.88564
-9.5715
-9.02229
-8.28037
-7.31727
-6.264
-5.09045
-3.96209
-2.91748
-1.78404
-0.984088
1.08228
0.933707
0.711088
0.421789
0.0779198
-0.435843
-1.20224
-2.11684
-3.13974
-4.27372
-5.38959
-6.48404
-7.52377
-8.45179
-9.17562
-9.64115
-9.82392
-9.75831
-9.45304
-8.91686
-8.15904
-7.2099
-6.14432
-4.98868
-3.87194
-2.79198
-1.69144
-0.905003
1.14904
0.995192
0.76386
0.483211
0.141462
-0.372518
-1.10315
-2.02781
-3.04551
-4.15385
-5.27503
-6.35265
-7.39796
-8.3134
-9.02131
-9.49032
-9.6759
-9.6106
-9.29862
-8.77352
-8.00912
-7.06551
-6.00061
-4.86814
-3.76133
-2.66037
-1.58566
-0.797052
1.20195
1.05099
0.807372
0.521449
0.1915
-0.319062
-1.02119
-1.91386
-2.94199
-4.02844
-5.14438
-6.22886
-7.25766
-8.17013
-8.87271
-9.32504
-9.50744
-9.44374
-9.14625
-8.61976
-7.84981
-6.91063
-5.84968
-4.74171
-3.64129
-2.51169
-1.47572
-0.712888
1.23835
1.09505
0.848694
0.561054
0.230451
-0.266699
-0.953633
-1.82201
-2.83544
-3.92215
-5.02412
-6.11094
-7.13617
-8.037
-8.73586
-9.17233
-9.35613
-9.29816
-9.00608
-8.47099
-7.70162
-6.7742
-5.71866
-4.62815
-3.51829
-2.3767
-1.39392
-0.645949
1.2398
1.09551
0.874074
0.59569
0.265499
-0.227698
-0.893729
-1.75497
-2.75182
-3.83265
-4.9343
-6.01707
-7.04224
-7.9388
-8.62058
-9.04575
-9.23614
-9.18801
-8.89358
-8.35187
-7.58667
-6.66907
-5.61664
-4.52882
-3.40045
-2.27405
-1.34541
-0.594062
1.21094
1.09699
0.893297
0.620264
0.283984
-0.208115
-0.870995
-1.71684
-2.71225
-3.78462
-4.88593
-5.96513
-6.99104
-7.88505
-8.55707
-8.97569
-9.17508
-9.12935
-8.83123
-8.28424
-7.52473
-6.61053
-5.56079
-4.47013
-3.32911
-2.2259
-1.33034
-0.556984
-0.532389
-0.832183
-0.0702776
0.132901
-0.248732
0.266168
0.902447
1.416
-0.591308
-0.739033
-0.0435014
0.363408
0.0104551
0.483553
0.917004
1.25617
-0.543294
-0.316328
0.0387344
0.372412
0.324932
0.746697
0.934544
1.09818
-0.553851
-0.312292
0.0210959
0.445213
0.530438
1.03759
1.18754
0.964616
-0.561743
-0.199157
0.141858
0.486272
0.657961
0.943627
1.14155
1.11082
-0.556033
-0.142763
0.193022
0.521177
0.72867
0.988721
1.13553
1.01336
-0.544097
-0.0947996
0.267909
0.5733
0.787865
0.973619
1.09178
1.07331
-0.523801
-0.0492818
0.337316
0.622145
0.824018
0.974383
1.07822
1.075
-0.504435
0.00264226
0.408273
0.676795
0.860286
0.983956
1.07711
1.06947
-0.489394
0.0548993
0.470389
0.729724
0.897752
1.00212
1.07699
1.07355
-0.46315
0.104398
0.526795
0.782791
0.933005
1.02092
1.08575
1.08524
-0.417589
0.176153
0.583398
0.837243
0.974493
1.04834
1.10483
1.10297
-0.365854
0.240588
0.640398
0.90228
1.02238
1.08392
1.12965
1.12663
-0.282082
0.305731
0.697386
0.967344
1.06672
1.12324
1.15596
1.14804
-0.194465
0.373673
0.76837
1.03126
1.10765
1.16596
1.18534
1.17268
-0.0938529
0.43659
0.852658
1.08673
1.14868
1.20895
1.20908
1.19247
-0.0106378
0.501206
0.943632
1.12227
1.18451
1.24213
1.22602
1.21142
0.0697862
0.553702
1.01045
1.14183
1.218
1.26397
1.23975
1.22841
0.129922
0.595384
1.05496
1.13706
1.24167
1.27361
1.24842
1.23748
0.183936
0.615629
1.06807
1.13413
1.25172
1.2738
1.25323
1.24057
1.48193
1.37049
1.3226
1.16752
0.975358
0.756461
0.711887
0.712559
0.711592
0.691556
0.643222
0.596953
0.533163
0.471064
0.386346
0.316508
0.209747
0.131566
-0.0362673
-0.152435
1.42095
1.32374
1.24294
1.10334
0.946345
0.799319
0.764854
0.74933
0.730319
0.699361
0.646781
0.59953
0.53297
0.470893
0.386811
0.314444
0.213453
0.126617
0.0131428
-0.0809042
1.22982
1.25765
1.2414
1.08598
0.950913
0.820874
0.765744
0.746941
0.72352
0.694069
0.64288
0.594739
0.531701
0.470347
0.386065
0.313972
0.214636
0.129887
0.0329639
-0.0674206
1.36409
1.21777
1.16874
1.04143
0.931577
0.832287
0.788596
0.77054
0.739426
0.701188
0.649967
0.599282
0.533066
0.47003
0.388142
0.311592
0.222984
0.132423
0.0477036
-0.0372244
1.23036
1.14842
1.10867
1.02576
0.941652
0.856387
0.799021
0.766217
0.733139
0.696324
0.644455
0.595512
0.532634
0.46825
0.389077
0.310804
0.226357
0.136826
0.0615281
-0.0196831
1.21221
1.15488
1.11756
1.03202
0.946113
0.859817
0.805721
0.776802
0.74258
0.701638
0.660671
0.598648
0.534787
0.468486
0.392833
0.312421
0.230878
0.143048
0.0713813
-0.00427126
1.18888
1.11803
1.07899
1.00949
0.937665
0.867274
0.816792
0.778717
0.739814
0.697503
0.649536
0.598364
0.53602
0.466969
0.394224
0.313696
0.234604
0.148441
0.0795013
0.00713782
1.14779
1.1078
1.07026
1.01381
0.951595
0.885758
0.827395
0.786148
0.747522
0.701402
0.650557
0.596922
0.538061
0.468749
0.397192
0.317346
0.23838
0.154458
0.0862739
0.0151898
1.13038
1.10833
1.07056
1.01332
0.953051
0.89035
0.83328
0.78737
0.74757
0.701874
0.654258
0.599974
0.540365
0.469792
0.398893
0.31984
0.241646
0.160082
0.0921776
0.0213081
1.1176
1.09861
1.06079
1.00799
0.955005
0.899508
0.840515
0.790507
0.747953
0.701061
0.651376
0.595053
0.539563
0.470624
0.400637
0.323447
0.245023
0.165293
0.097377
0.026076
1.10916
1.10046
1.06622
1.01887
0.968123
0.910739
0.850206
0.795979
0.753349
0.705511
0.657112
0.602292
0.543743
0.473325
0.402577
0.327012
0.24832
0.169783
0.101647
0.0294324
1.11293
1.10347
1.06683
1.01682
0.968188
0.913106
0.849998
0.793051
0.742798
0.698522
0.652237
0.595459
0.540645
0.472307
0.403451
0.330467
0.251851
0.173894
0.105369
0.0321191
1.12183
1.10795
1.07327
1.02507
0.976187
0.921772
0.859996
0.800852
0.752148
0.705012
0.65936
0.604401
0.544734
0.476365
0.405381
0.334433
0.255209
0.177437
0.108377
0.0340738
1.13248
1.11479
1.07865
1.02791
0.97932
0.92231
0.856162
0.795844
0.745641
0.699243
0.654313
0.597694
0.540722
0.473225
0.405814
0.33665
0.258043
0.180614
0.110957
0.0356266
1.15023
1.12388
1.08365
1.03275
0.982874
0.927346
0.863315
0.804088
0.751752
0.704255
0.660226
0.604689
0.544119
0.478511
0.407771
0.339131
0.261368
0.183501
0.113128
0.0367736
1.16318
1.1313
1.0867
1.03458
0.984457
0.925724
0.860268
0.798492
0.746522
0.699892
0.65595
0.599528
0.539972
0.473234
0.407843
0.340308
0.263429
0.186431
0.114742
0.0377632
1.17699
1.1367
1.08926
1.03775
0.987096
0.928156
0.863065
0.803477
0.750132
0.703312
0.660161
0.60401
0.542526
0.478456
0.409987
0.343274
0.267175
0.188349
0.115975
0.0384459
1.18627
1.14086
1.09037
1.03736
0.984316
0.923218
0.859915
0.799082
0.746184
0.699924
0.656032
0.599341
0.538848
0.474943
0.40996
0.343865
0.26858
0.190396
0.117265
0.0390353
1.1886
1.14197
1.09257
1.03903
0.985104
0.924086
0.860776
0.801234
0.748641
0.702119
0.657771
0.601421
0.540439
0.477823
0.411815
0.345733
0.270621
0.19168
0.117783
0.0393074
1.18955
1.14192
1.09055
1.03492
0.978491
0.916094
0.855464
0.796873
0.744413
0.698034
0.653334
0.597225
0.537567
0.476148
0.412099
0.347112
0.272966
0.193894
0.11887
0.039441
-0.413933
-0.298018
-0.276186
-0.221561
-0.0166025
-0.0223288
-0.0672438
0.00136566
-0.478894
-0.469846
-0.343949
-0.290707
-0.164443
-0.134562
-0.125909
-0.0143125
-0.522216
-0.527846
-0.420667
-0.427225
-0.368437
-0.281206
-0.190163
-0.0660198
-0.59474
-0.60986
-0.439116
-0.531149
-0.569766
-0.485691
-0.396557
-0.23741
-0.743379
-0.72824
-0.594705
-0.723591
-0.801898
-0.707811
-0.593092
-0.48816
-0.770569
-0.808524
-0.730932
-0.89474
-0.908008
-0.856038
-0.698398
-0.637176
-0.774876
-0.861549
-0.900287
-1.15171
-1.18759
-1.04303
-0.883622
-0.781793
-0.833649
-0.958714
-1.07542
-1.36133
-1.49895
-1.32361
-1.14874
-0.994087
-0.891431
-1.01922
-1.17135
-1.49361
-1.75196
-1.51364
-1.31379
-1.1187
-0.976976
-1.09396
-1.26963
-1.59045
-1.77611
-1.59188
-1.37608
-1.2347
-1.02343
-1.13148
-1.33644
-1.65286
-1.84535
-1.70494
-1.53943
-1.38702
-1.0911
-1.16394
-1.39618
-1.64759
-1.84632
-1.68469
-1.54344
-1.37016
-1.12882
-1.19723
-1.40489
-1.58124
-1.76656
-1.55504
-1.41863
-1.32169
-1.12758
-1.19067
-1.36797
-1.49355
-1.6077
-1.46111
-1.39772
-1.35267
-1.1264
-1.16325
-1.3134
-1.36216
-1.47368
-1.39851
-1.37663
-1.31193
-1.11256
-1.14278
-1.24567
-1.29052
-1.35699
-1.32647
-1.30129
-1.29574
-1.06509
-1.09009
-1.17654
-1.24764
-1.22149
-1.28711
-1.24985
-1.28736
-1.01894
-1.06876
-1.10827
-1.23121
-1.19551
-1.28413
-1.21443
-1.21224
-0.965355
-1.04701
-1.0744
-1.24604
-1.18209
-1.32905
-1.24395
-1.22806
-0.908868
-1.01035
-1.05232
-1.2703
-1.18938
-1.36356
-1.26641
-1.24435
-0.856746
-0.971119
-1.00989
-1.23047
-1.13728
-1.28238
-1.15124
-1.09174
-0.803965
-0.913145
-0.967538
-1.19872
-1.10436
-1.16827
-1.0383
-0.972731
-0.743723
-0.858966
-0.922127
-1.15641
-1.06943
-1.07155
-0.964485
-0.915341
-0.667757
-0.785888
-0.884984
-1.11228
-1.01504
-0.98588
-0.862585
-0.809805
-0.599693
-0.712277
-0.820786
-1.04116
-0.930274
-0.880536
-0.778859
-0.725876
-0.521881
-0.655719
-0.747157
-0.928024
-0.8095
-0.728429
-0.69772
-0.648313
-0.485566
-0.631465
-0.656567
-0.799079
-0.690868
-0.538563
-0.577613
-0.51539
-0.53226
-0.736578
-0.576314
-0.652653
-0.565887
-0.365783
-0.485677
-0.409287
-0.569154
-0.746343
-0.509301
-0.565447
-0.48438
-0.293821
-0.45822
-0.352123
-0.548193
-0.58897
-0.44425
-0.477217
-0.446319
-0.16345
-0.407304
-0.272103
-0.521611
-0.509463
-0.428146
-0.431148
-0.388238
-0.0582287
-0.359098
-0.192166
-0.497068
-0.509634
-0.395092
-0.449185
-0.464552
-0.103411
-0.312164
-0.107497
-0.465288
-0.490239
-0.369202
-0.449982
-0.382776
0.145674
-0.238275
-0.0146752
-0.435521
-0.536275
-0.307896
-0.55418
-0.448497
0.0593574
-0.207241
0.0823207
-0.407732
-0.419849
-0.443257
-0.640161
-0.513264
0.2383
-0.14303
0.177567
-0.476255
-0.711027
-0.561984
-0.69599
-0.629735
0.174776
0.0156611
0.302711
-0.4902
-0.603455
-0.742013
-0.452465
-0.579186
0.345212
0.36271
0.465658
-0.503479
-0.986221
-0.230656
-0.215
-0.660999
-0.208048
0.568265
0.625237
-0.531089
-0.917285
-0.768165
-0.206852
-0.56999
-0.447053
0.611821
0.819877
-0.513966
-1.53988
0.113135
0.283506
-0.737862
-0.175
0.797699
1.07159
1.28244
1.27502
1.22371
1.22408
1.22976
1.22966
1.23946
1.24451
1.2631
1.27172
1.24433
1.21129
1.24714
1.28333
1.21882
1.24419
1.27276
1.26632
1.24162
1.23375
1.18168
1.25174
1.26245
1.25942
1.25664
1.27061
1.24913
1.25248
1.23782
1.24394
1.22984
1.26536
1.25682
1.25386
1.25001
1.24148
1.23044
1.23505
1.24141
1.25734
1.24863
1.25013
1.24549
1.22961
1.23419
1.2364
1.23223
1.24354
1.247
1.24036
1.2439
1.22042
1.23194
1.2306
1.23329
1.23727
1.24366
1.23876
1.24382
1.22286
1.23138
1.23701
1.23751
1.2414
1.24269
1.23631
1.2427
1.22982
1.23165
1.23068
1.23824
1.24268
1.24185
1.23632
1.24034
1.23546
1.23262
1.23049
1.23389
1.24131
1.24152
1.2348
1.23722
1.23012
1.22714
1.22465
1.22234
1.23124
1.24062
1.2348
1.23417
1.22993
1.2236
1.22344
1.20715
1.22128
1.23861
1.22968
1.23162
1.22671
1.22201
1.22543
1.20953
1.22473
1.23269
1.22481
1.22812
1.22401
1.21539
1.2229
1.21266
1.2271
1.22354
1.21362
1.22443
1.22115
1.21078
1.21723
1.20974
1.22301
1.21618
1.20971
1.21992
1.22007
1.20704
1.21381
1.20412
1.21662
1.21296
1.21641
1.21588
1.21908
1.20569
1.21517
1.20148
1.2137
1.20838
1.21725
1.21199
1.21759
1.20575
1.21109
1.19942
1.21196
1.20179
1.21235
1.20588
1.21526
1.20696
1.19925
1.19641
1.20509
1.18449
1.20066
1.1981
1.21175
1.20533
1.19952
1.19935
1.20352
1.16068
1.18097
1.17689
1.20623
1.20111
1.20714
1.20315
1.20693
1.14404
1.16481
1.15115
1.19733
1.19384
1.20803
1.20346
1.2086
1.14204
1.15251
1.14196
1.18828
1.18602
1.20382
1.20167
1.20656
1.14218
1.14142
1.14203
1.17907
1.17951
1.19791
1.19801
1.20345
1.1365
1.12536
1.13159
1.17056
1.17363
1.19048
1.19346
1.20031
1.14622
1.11313
1.11689
1.16267
1.17008
1.1854
1.18988
1.19631
1.16446
1.11933
1.12395
1.1564
1.16835
1.17999
1.18673
1.19263
1.18083
1.12924
1.13351
1.1566
1.17029
1.17746
1.18442
1.18965
1.2021
1.14332
1.13751
1.16112
1.17405
1.17724
1.18529
1.18743
1.22788
1.16854
1.15837
1.16941
1.17913
1.17863
1.18712
1.18674
1.24535
1.20306
1.18909
1.18235
1.18571
1.1813
1.19024
1.18734
1.2548
1.23106
1.2133
1.20022
1.19358
1.18864
1.1945
1.18992
1.26253
1.24285
1.22345
1.21396
1.20111
1.19768
1.19988
1.1958
1.27092
1.25198
1.23059
1.2227
1.20844
1.20698
1.20646
1.20417
1.27416
1.26049
1.23969
1.23089
1.21462
1.21592
1.21304
1.2134
1.2773
1.26647
1.24501
1.23915
1.22082
1.22765
1.21865
1.22488
1.27884
1.27018
1.24789
1.24685
1.22247
1.2335
1.22392
1.23837
1.27888
1.2755
1.24938
1.25445
1.22752
1.23961
1.23131
1.25128
1.27733
1.26673
1.25078
1.2649
1.23
1.25058
1.23589
1.26474
1.27722
1.26854
1.26698
1.27678
1.23894
1.25265
1.23984
1.26628
)
;

boundaryField
{
    wall
    {
        type            zeroGradient;
    }
    inlet1
    {
        type            zeroGradient;
    }
    inlet2
    {
        type            zeroGradient;
    }
    outlet1
    {
        type            fixedValue;
        value           uniform 0;
    }
    outlet2
    {
        type            outletInlet;
        outletValue     uniform 0;
        value           nonuniform List<scalar> 8(-0.413933 0 -0.276186 -0.221561 0 0 0 0);
    }
    defaultFaces
    {
        type            empty;
    }
}


// ************************************************************************* //
