/*--------------------------------*- C++ -*----------------------------------*\
| =========                 |                                                 |
| \\      /  F ield         | OpenFOAM: The Open Source CFD Toolbox           |
|  \\    /   O peration     | Version:  2.4.0                                 |
|   \\  /    A nd           | Web:      www.OpenFOAM.org                      |
|    \\/     M anipulation  |                                                 |
\*---------------------------------------------------------------------------*/
FoamFile
{
    version     2.0;
    format      ascii;
    class       volScalarField;
    location    "2100";
    object      p;
}
// * * * * * * * * * * * * * * * * * * * * * * * * * * * * * * * * * * * * * //

dimensions      [0 2 -2 0 0 0 0];

internalField   nonuniform List<scalar> 
48900
(
-1.64436
-2.91524
-3.49105
-3.69875
-3.92439
-4.1521
-4.34519
-4.51898
-4.68297
-4.83663
-4.97826
-5.10874
-5.22758
-5.33708
-5.4393
-5.53449
-5.62158
-5.70069
-5.77202
-5.8363
-5.894
-5.9461
-5.99381
-6.03828
-6.0804
-6.12111
-6.16133
-6.2019
-6.24373
-6.2876
-6.33465
-6.38577
-6.44268
-6.50577
-6.57615
-6.66812
-1.94115
-2.9615
-3.49202
-3.70136
-3.92705
-4.15431
-4.34795
-4.52125
-4.68409
-4.83646
-4.97672
-5.10627
-5.22513
-5.33499
-5.43678
-5.53121
-5.61751
-5.69608
-5.7669
-5.83098
-5.88841
-5.94038
-5.98789
-6.03242
-6.07454
-6.11544
-6.1557
-6.19649
-6.2383
-6.28235
-6.3292
-6.38031
-6.43651
-6.49799
-6.56497
-6.65147
-2.19486
-2.98659
-3.49153
-3.7173
-3.94157
-4.1618
-4.35106
-4.52048
-4.67968
-4.82907
-4.96676
-5.09421
-5.21178
-5.32064
-5.4213
-5.51468
-5.60025
-5.67842
-5.74904
-5.81331
-5.87105
-5.9241
-5.97237
-6.01778
-6.06046
-6.10211
-6.14272
-6.18406
-6.22588
-6.27008
-6.31629
-6.36667
-6.42024
-6.47872
-6.53613
-6.58941
-2.44729
-3.038
-3.50836
-3.74224
-3.95836
-4.1688
-4.35382
-4.52055
-4.67702
-4.82437
-4.96012
-5.0859
-5.20229
-5.31002
-5.4096
-5.50191
-5.58674
-5.6643
-5.73467
-5.79876
-5.85688
-5.91042
-5.95921
-6.005
-6.04803
-6.08992
-6.13064
-6.17196
-6.21342
-6.25702
-6.30194
-6.35031
-6.40023
-6.453
-6.49882
-6.53561
-2.67337
-3.11408
-3.53899
-3.76992
-3.97805
-4.18
-4.36074
-4.52448
-4.67747
-4.82133
-4.9543
-5.0777
-5.19213
-5.29821
-5.39647
-5.48752
-5.57136
-5.64818
-5.71819
-5.7821
-5.84038
-5.89398
-5.94317
-5.98926
-6.03279
-6.07493
-6.11597
-6.15714
-6.1984
-6.24109
-6.28471
-6.33053
-6.37669
-6.42318
-6.46131
-6.48962
-2.86204
-3.19946
-3.57823
-3.80206
-4.00252
-4.19603
-4.37122
-4.53088
-4.68003
-4.82022
-4.95033
-5.07129
-5.18359
-5.28785
-5.38466
-5.47436
-5.55708
-5.63306
-5.70254
-5.76614
-5.82438
-5.87801
-5.92753
-5.97391
-6.01782
-6.06012
-6.10128
-6.14216
-6.18299
-6.22455
-6.26666
-6.30971
-6.35221
-6.39308
-6.42571
-6.44768
-3.02102
-3.2845
-3.62158
-3.83698
-4.02964
-4.2149
-4.38411
-4.53943
-4.68457
-4.82101
-4.94805
-5.06637
-5.17644
-5.27879
-5.37389
-5.4621
-5.54358
-5.61859
-5.68742
-5.75061
-5.80864
-5.86223
-5.91188
-5.9584
-6.00247
-6.04481
-6.08591
-6.12643
-6.16665
-6.20704
-6.24748
-6.28788
-6.32694
-6.36312
-6.39146
-6.40943
-3.16091
-3.36755
-3.66679
-3.87295
-4.05751
-4.23492
-4.39822
-4.54909
-4.6903
-4.82301
-4.94691
-5.06253
-5.17022
-5.27052
-5.36386
-5.45053
-5.53073
-5.60472
-5.67282
-5.73551
-5.79325
-5.84671
-5.89637
-5.94296
-5.98709
-6.02941
-6.07037
-6.11047
-6.14998
-6.18917
-6.22789
-6.26582
-6.30174
-6.33409
-6.35918
-6.37493
-3.2876
-3.44939
-3.71344
-3.90935
-4.08549
-4.25528
-4.41277
-4.55914
-4.6964
-4.82547
-4.94623
-5.05913
-5.16448
-5.26274
-5.35428
-5.43938
-5.51827
-5.59121
-5.65849
-5.72061
-5.778
-5.83125
-5.88084
-5.92741
-5.97151
-6.01371
-6.05442
-6.09402
-6.13274
-6.17072
-6.20775
-6.2434
-6.27658
-6.30584
-6.32853
-6.34305
-3.40386
-3.53047
-3.76176
-3.94634
-4.11367
-4.27582
-4.42747
-4.56922
-4.7025
-4.82796
-4.94561
-5.0558
-5.15882
-5.25503
-5.34477
-5.42831
-5.50589
-5.57776
-5.64423
-5.70575
-5.76274
-5.81573
-5.86517
-5.91163
-5.95561
-5.9976
-6.03798
-6.07703
-6.1149
-6.15167
-6.18709
-6.22069
-6.25151
-6.27833
-6.29927
-6.31317
-3.5113
-3.61065
-3.81192
-3.98421
-4.14238
-4.29672
-4.44237
-4.57932
-4.70851
-4.83036
-4.94489
-5.05236
-5.15303
-5.24719
-5.33514
-5.41713
-5.49339
-5.56419
-5.62983
-5.69073
-5.74727
-5.79995
-5.84918
-5.89547
-5.93927
-5.98099
-6.02098
-6.05942
-6.09644
-6.13203
-6.16595
-6.19773
-6.22657
-6.25146
-6.27117
-6.2848
-3.61106
-3.68951
-3.86382
-4.0232
-4.17193
-4.31826
-4.45768
-4.58963
-4.71458
-4.83272
-4.94407
-5.04879
-5.14707
-5.23916
-5.3253
-5.40573
-5.48068
-5.55041
-5.61521
-5.67545
-5.73151
-5.78383
-5.83279
-5.87885
-5.9224
-5.96379
-6.00332
-6.04114
-6.0773
-6.11177
-6.14433
-6.17453
-6.20175
-6.22515
-6.244
-6.2576
-3.70406
-3.76657
-3.9171
-4.06336
-4.2025
-4.34066
-4.47364
-4.60035
-4.72088
-4.83521
-4.94328
-5.04517
-5.141
-5.23097
-5.31528
-5.39414
-5.46776
-5.5364
-5.60032
-5.65988
-5.71541
-5.76732
-5.81596
-5.86173
-5.90496
-5.94598
-5.985
-6.02218
-6.05752
-6.09096
-6.12229
-6.15115
-6.17705
-6.19935
-6.21762
-6.2313
-3.79116
-3.84139
-3.97135
-4.10458
-4.23413
-4.36408
-4.49043
-4.6117
-4.72764
-4.83802
-4.9427
-5.04166
-5.13496
-5.22275
-5.30517
-5.38242
-5.45468
-5.52218
-5.58519
-5.64402
-5.69898
-5.75042
-5.79868
-5.8441
-5.88697
-5.92756
-5.96606
-6.00258
-6.03713
-6.06963
-6.0999
-6.12764
-6.1525
-6.17399
-6.19189
-6.20573
-3.86303
-3.90469
-4.01929
-4.14142
-4.26262
-4.3854
-4.50586
-4.62224
-4.73403
-4.84085
-4.94245
-5.03876
-5.12978
-5.2156
-5.29632
-5.37211
-5.44314
-5.50962
-5.57179
-5.62994
-5.68435
-5.73534
-5.78322
-5.82828
-5.87079
-5.91098
-5.949
-5.98496
-6.01886
-6.05062
-6.08009
-6.10702
-6.13116
-6.15213
-6.16986
-6.18388
-3.92318
-3.959
-4.06132
-4.17426
-4.28828
-4.40479
-4.52003
-4.63203
-4.74009
-4.8437
-4.94253
-5.03645
-5.1254
-5.20942
-5.2886
-5.36307
-5.43298
-5.49852
-5.55992
-5.61743
-5.67132
-5.72188
-5.76938
-5.81409
-5.85626
-5.89607
-5.93367
-5.96914
-6.00249
-6.03365
-6.06249
-6.08882
-6.11244
-6.13306
-6.15072
-6.16492
-3.98278
-4.01378
-4.10463
-4.20862
-4.31541
-4.42549
-4.53531
-4.64273
-4.74686
-4.84707
-4.94296
-5.03433
-5.12108
-5.20319
-5.28073
-5.35378
-5.42249
-5.48702
-5.54757
-5.60438
-5.65769
-5.70776
-5.75483
-5.79915
-5.84092
-5.88032
-5.91748
-5.95246
-5.98527
-6.01586
-6.04412
-6.06991
-6.0931
-6.11346
-6.1311
-6.14554
-4.04175
-4.06871
-4.14908
-4.24436
-4.34391
-4.44747
-4.55172
-4.65437
-4.75438
-4.85102
-4.94381
-5.03248
-5.11689
-5.19697
-5.27275
-5.3443
-5.41171
-5.47515
-5.53479
-5.59083
-5.64349
-5.69301
-5.73959
-5.78346
-5.8248
-5.86376
-5.90045
-5.93494
-5.96722
-5.99727
-6.02502
-6.05035
-6.07318
-6.09335
-6.11102
-6.12572
-4.09991
-4.12347
-4.19438
-4.2813
-4.37368
-4.4707
-4.56925
-4.66697
-4.76269
-4.8556
-4.94514
-5.03097
-5.1129
-5.19084
-5.26475
-5.33468
-5.40072
-5.46299
-5.52163
-5.57682
-5.62877
-5.67767
-5.72371
-5.76708
-5.80794
-5.84642
-5.88263
-5.91662
-5.9484
-5.97795
-6.00523
-6.03016
-6.05271
-6.07275
-6.0905
-6.10548
-4.1571
-4.1778
-4.24026
-4.3192
-4.40457
-4.49506
-4.58784
-4.68053
-4.77182
-4.86085
-4.94699
-5.02985
-5.10918
-5.18485
-5.25679
-5.32501
-5.38958
-5.45058
-5.50814
-5.56242
-5.61358
-5.66179
-5.70722
-5.75004
-5.79038
-5.82837
-5.86407
-5.89756
-5.92885
-5.95794
-5.9848
-6.00939
-6.03172
-6.0517
-6.06956
-6.08483
-4.21316
-4.23145
-4.28639
-4.35781
-4.43637
-4.52044
-4.60743
-4.69499
-4.78175
-4.86678
-4.9494
-5.02916
-5.10577
-5.17906
-5.24892
-5.31534
-5.37834
-5.43799
-5.4944
-5.54768
-5.59797
-5.64543
-5.6902
-5.73241
-5.77219
-5.80964
-5.84484
-5.87784
-5.90866
-5.93732
-5.96381
-5.98812
-6.01028
-6.03023
-6.04823
-6.06381
-4.2679
-4.28414
-4.33246
-4.39685
-4.46887
-4.54667
-4.6279
-4.7103
-4.79245
-4.87337
-4.95237
-5.02892
-5.10271
-5.17351
-5.2412
-5.30572
-5.36707
-5.42529
-5.48045
-5.53266
-5.58202
-5.62866
-5.67271
-5.71426
-5.75345
-5.79034
-5.82501
-5.85752
-5.88789
-5.91615
-5.94231
-5.96639
-5.98843
-6.0084
-6.02655
-6.04245
-4.32113
-4.33561
-4.3781
-4.43599
-4.50178
-4.57351
-4.64907
-4.72632
-4.80383
-4.8806
-4.95588
-5.02915
-5.10002
-5.16825
-5.23367
-5.2962
-5.35581
-5.41252
-5.46637
-5.51742
-5.56579
-5.61155
-5.65481
-5.69567
-5.73422
-5.77053
-5.80467
-5.83669
-5.86663
-5.89452
-5.9204
-5.94428
-5.96623
-5.98624
-6.00456
-6.02078
-4.37261
-4.38556
-4.42297
-4.47489
-4.5348
-4.60072
-4.67075
-4.74291
-4.81579
-4.88837
-4.9599
-5.02981
-5.09769
-5.16327
-5.22635
-5.28682
-5.34462
-5.39974
-5.4522
-5.50204
-5.54934
-5.59416
-5.63659
-5.67671
-5.71459
-5.7503
-5.7839
-5.81545
-5.84498
-5.87253
-5.89815
-5.92187
-5.94377
-5.96384
-5.98232
-5.99885
-4.42209
-4.43367
-4.46669
-4.51319
-4.5676
-4.62798
-4.69268
-4.75987
-4.82818
-4.89658
-4.96434
-5.03086
-5.09571
-5.15858
-5.21926
-5.2776
-5.33353
-5.38699
-5.438
-5.48657
-5.53274
-5.57658
-5.61814
-5.65748
-5.69467
-5.72977
-5.76283
-5.7939
-5.82303
-5.85026
-5.87566
-5.89924
-5.9211
-5.94125
-5.9599
-5.97674
-4.46924
-4.47961
-4.50883
-4.55047
-4.59976
-4.65496
-4.71457
-4.77696
-4.84079
-4.90508
-4.96909
-5.03222
-5.09401
-5.15415
-5.21239
-5.26856
-5.32256
-5.37432
-5.42383
-5.47107
-5.51608
-5.55888
-5.59953
-5.63807
-5.67455
-5.70902
-5.74154
-5.77215
-5.8009
-5.82784
-5.85302
-5.87649
-5.89833
-5.91856
-5.93738
-5.95452
-4.51375
-4.52304
-4.54897
-4.58627
-4.63089
-4.68126
-4.73609
-4.79388
-4.85339
-4.91367
-4.97399
-5.03376
-5.09253
-5.14992
-5.2057
-5.25968
-5.31173
-5.36176
-5.40972
-5.45561
-5.49941
-5.54116
-5.58087
-5.61858
-5.65434
-5.68818
-5.72016
-5.75032
-5.7787
-5.80536
-5.83035
-5.85372
-5.87556
-5.89587
-5.91486
-5.93227
-4.55522
-4.56356
-4.58664
-4.62011
-4.6605
-4.70646
-4.75683
-4.81029
-4.86567
-4.92209
-4.97884
-5.03533
-5.09111
-5.14581
-5.19916
-5.25094
-5.30102
-5.34931
-5.39572
-5.44023
-5.48281
-5.52348
-5.56224
-5.59912
-5.63415
-5.66737
-5.69882
-5.72853
-5.75656
-5.78296
-5.80777
-5.83106
-5.85289
-5.87329
-5.89243
-5.9101
-4.59322
-4.60074
-4.62136
-4.65147
-4.6881
-4.73005
-4.77634
-4.82577
-4.87728
-4.93004
-4.98338
-5.03671
-5.0896
-5.14167
-5.19264
-5.24228
-5.29042
-5.33697
-5.38184
-5.42497
-5.46634
-5.50593
-5.54374
-5.57979
-5.6141
-5.64671
-5.67763
-5.70692
-5.73462
-5.76076
-5.78542
-5.80862
-5.83046
-5.85094
-5.87022
-5.88814
-4.62725
-4.63406
-4.65258
-4.67979
-4.7131
-4.75149
-4.79409
-4.83985
-4.88779
-4.93716
-4.98729
-5.03765
-5.08779
-5.13734
-5.18602
-5.23359
-5.27987
-5.32473
-5.36809
-5.40987
-5.45004
-5.48858
-5.52546
-5.5607
-5.59431
-5.62632
-5.65674
-5.68562
-5.713
-5.73892
-5.76342
-5.78656
-5.8084
-5.82896
-5.84838
-5.86653
-4.65673
-4.66296
-4.6797
-4.70442
-4.73488
-4.77016
-4.80951
-4.85199
-4.89673
-4.943
-4.99021
-5.03782
-5.08541
-5.13261
-5.17914
-5.22476
-5.26927
-5.31253
-5.35444
-5.39494
-5.43397
-5.47149
-5.50749
-5.54195
-5.5749
-5.60634
-5.63629
-5.66479
-5.69187
-5.71758
-5.74195
-5.76503
-5.78687
-5.80752
-5.82706
-5.84543
-4.68099
-4.68672
-4.70199
-4.72466
-4.75273
-4.78538
-4.82193
-4.86158
-4.90352
-4.94708
-4.99168
-5.03684
-5.08214
-5.12721
-5.17178
-5.21561
-5.2585
-5.30029
-5.34087
-5.38018
-5.41814
-5.45473
-5.4899
-5.52365
-5.55598
-5.5869
-5.61642
-5.64458
-5.6714
-5.69691
-5.72117
-5.7442
-5.76606
-5.78679
-5.80646
-5.82503
-4.69925
-4.70451
-4.71859
-4.73965
-4.76582
-4.79633
-4.83061
-4.86793
-4.90753
-4.94881
-4.99121
-5.03428
-5.0776
-5.12083
-5.1637
-5.20595
-5.24741
-5.28791
-5.32731
-5.36556
-5.40258
-5.43833
-5.47277
-5.50589
-5.53768
-5.56814
-5.59729
-5.62515
-5.65175
-5.67711
-5.70128
-5.72428
-5.74618
-5.76699
-5.78678
-5.80555
-4.71047
-4.71528
-4.72851
-4.74842
-4.77319
-4.80211
-4.83468
-4.87022
-4.90803
-4.94753
-4.9882
-5.02961
-5.07135
-5.1131
-5.15458
-5.19555
-5.23583
-5.27526
-5.31369
-5.35106
-5.3873
-5.42236
-5.45619
-5.48879
-5.52013
-5.55022
-5.57907
-5.6067
-5.63313
-5.65838
-5.6825
-5.70551
-5.72745
-5.74836
-5.76829
-5.78725
-4.71316
-4.71773
-4.73049
-4.74973
-4.77368
-4.80167
-4.8332
-4.86763
-4.90431
-4.94267
-4.98221
-5.02251
-5.06319
-5.10393
-5.14445
-5.18452
-5.22397
-5.26264
-5.30038
-5.33712
-5.3728
-5.40736
-5.44076
-5.47299
-5.50402
-5.53386
-5.56251
-5.58999
-5.61633
-5.64154
-5.66565
-5.6887
-5.71072
-5.73174
-5.75181
-5.77096
-4.70716
-4.71183
-4.72452
-4.74358
-4.76731
-4.79503
-4.82624
-4.8603
-4.89656
-4.93446
-4.97353
-5.01334
-5.05352
-5.09377
-5.13381
-5.17343
-5.21245
-5.2507
-5.28807
-5.32447
-5.35985
-5.39414
-5.42731
-5.45935
-5.49022
-5.51994
-5.54852
-5.57595
-5.60227
-5.6275
-5.65166
-5.67479
-5.69691
-5.71807
-5.73828
-5.75762
-4.69391
-4.6988
-4.71178
-4.73114
-4.7552
-4.78326
-4.81479
-4.84912
-4.88559
-4.92365
-4.96282
-5.00267
-5.04287
-5.08308
-5.12307
-5.16262
-5.20155
-5.23971
-5.27698
-5.3133
-5.34861
-5.38284
-5.41596
-5.44796
-5.47882
-5.50854
-5.53713
-5.56461
-5.59099
-5.61629
-5.64054
-5.66378
-5.68603
-5.70732
-5.72769
-5.7472
-4.67457
-4.67967
-4.69325
-4.71339
-4.73829
-4.76724
-4.79965
-4.83481
-4.87204
-4.91076
-4.95052
-4.99087
-5.03149
-5.07206
-5.11234
-5.15213
-5.19126
-5.22958
-5.267
-5.30345
-5.33886
-5.3732
-5.40642
-5.43851
-5.46946
-5.49928
-5.52797
-5.55556
-5.58205
-5.60747
-5.63185
-5.65522
-5.67761
-5.69906
-5.71957
-5.73926
-4.64988
-4.65526
-4.66975
-4.6911
-4.71735
-4.7477
-4.7815
-4.81799
-4.85645
-4.89629
-4.93704
-4.97827
-5.01965
-5.06089
-5.10175
-5.14204
-5.18159
-5.22029
-5.25804
-5.29479
-5.33046
-5.36502
-5.39845
-5.43074
-5.46188
-5.49187
-5.52073
-5.54847
-5.57512
-5.6007
-5.62523
-5.64876
-5.6713
-5.69291
-5.71358
-5.73343
-4.62039
-4.62619
-4.64191
-4.66494
-4.69303
-4.72527
-4.76095
-4.79922
-4.83932
-4.88066
-4.92275
-4.96518
-5.00761
-5.04977
-5.09143
-5.13242
-5.17258
-5.21183
-5.25006
-5.28723
-5.32327
-5.35817
-5.3919
-5.42446
-5.45585
-5.48607
-5.51515
-5.54309
-5.56993
-5.5957
-5.62041
-5.64411
-5.66681
-5.68858
-5.7094
-5.72941
-4.58656
-4.59291
-4.61023
-4.63543
-4.66587
-4.7005
-4.73851
-4.77898
-4.82111
-4.86428
-4.908
-4.95187
-4.99558
-5.03886
-5.08151
-5.12335
-5.16428
-5.20419
-5.24302
-5.2807
-5.31721
-5.35252
-5.38663
-5.41952
-5.4512
-5.4817
-5.51103
-5.53921
-5.56627
-5.59223
-5.61713
-5.64101
-5.66388
-5.68581
-5.70679
-5.72695
-4.5487
-4.55575
-4.57512
-4.60304
-4.63638
-4.67389
-4.71467
-4.75772
-4.8022
-4.84748
-4.89308
-4.93861
-4.98377
-5.02833
-5.07209
-5.11492
-5.15672
-5.19739
-5.23689
-5.27517
-5.3122
-5.34798
-5.3825
-5.41577
-5.44779
-5.4786
-5.5082
-5.53663
-5.56392
-5.5901
-5.6152
-5.63927
-5.66231
-5.6844
-5.70553
-5.72583
-4.50702
-4.51497
-4.53691
-4.5682
-4.60502
-4.64591
-4.68988
-4.73586
-4.78298
-4.8306
-4.87826
-4.9256
-4.97235
-5.01829
-5.06328
-5.10718
-5.14992
-5.19142
-5.23164
-5.27057
-5.30817
-5.34445
-5.37942
-5.41309
-5.44548
-5.47661
-5.50651
-5.53521
-5.56274
-5.58914
-5.61445
-5.63869
-5.66191
-5.68416
-5.70543
-5.72587
-4.46166
-4.47071
-4.49592
-4.53131
-4.5722
-4.61696
-4.66453
-4.71376
-4.76375
-4.8139
-4.86377
-4.91304
-4.96147
-5.00888
-5.05515
-5.10017
-5.1439
-5.18626
-5.22725
-5.26685
-5.30505
-5.34186
-5.3773
-5.41139
-5.44415
-5.47562
-5.50582
-5.53479
-5.56257
-5.5892
-5.6147
-5.63913
-5.66252
-5.68492
-5.70632
-5.7269
-4.41265
-4.42311
-4.45244
-4.4928
-4.53836
-4.58746
-4.639
-4.69176
-4.74481
-4.79762
-4.8498
-4.90107
-4.95123
-5.00016
-5.04774
-5.09392
-5.13865
-5.18191
-5.22368
-5.26396
-5.30277
-5.34012
-5.37604
-5.41055
-5.44369
-5.4755
-5.506
-5.53525
-5.56327
-5.59012
-5.61582
-5.64043
-5.66398
-5.68653
-5.70806
-5.72875
-4.35995
-4.37222
-4.40677
-4.45304
-4.50391
-4.55781
-4.61366
-4.67015
-4.72642
-4.78198
-4.83652
-4.88982
-4.94174
-4.99218
-5.04109
-5.08843
-5.13418
-5.17832
-5.22087
-5.26184
-5.30125
-5.33914
-5.37553
-5.41047
-5.44398
-5.47612
-5.50693
-5.53645
-5.56471
-5.59177
-5.61767
-5.64245
-5.66615
-5.68884
-5.71049
-5.73129
-4.30339
-4.31806
-4.35922
-4.41246
-4.46927
-4.52839
-4.58882
-4.64922
-4.70878
-4.76713
-4.82404
-4.87936
-4.93302
-4.98498
-5.0352
-5.08368
-5.13042
-5.17544
-5.21876
-5.26041
-5.30042
-5.33882
-5.37568
-5.41103
-5.44491
-5.47738
-5.50848
-5.53825
-5.56675
-5.59402
-5.6201
-5.64505
-5.66889
-5.6917
-5.71347
-5.73437
-4.24272
-4.26063
-4.31014
-4.37152
-4.43484
-4.49955
-4.56481
-4.6292
-4.69207
-4.75319
-4.81244
-4.86974
-4.9251
-4.97852
-5.03002
-5.07961
-5.12733
-5.1732
-5.21726
-5.25956
-5.30014
-5.33905
-5.37635
-5.4121
-5.44633
-5.47912
-5.5105
-5.54052
-5.56924
-5.59671
-5.62297
-5.64807
-5.67205
-5.69498
-5.71686
-5.73784
-4.17753
-4.19991
-4.25999
-4.33071
-4.40102
-4.47164
-4.54187
-4.61028
-4.67642
-4.74024
-4.80174
-4.86095
-4.91794
-4.97276
-5.02547
-5.07613
-5.12478
-5.17147
-5.21625
-5.25917
-5.30029
-5.33969
-5.37741
-5.41353
-5.4481
-5.48119
-5.51284
-5.54311
-5.57205
-5.5997
-5.62613
-5.65138
-5.6755
-5.69854
-5.72052
-5.74158
-4.10727
-4.13595
-4.20934
-4.29055
-4.36819
-4.44493
-4.52019
-4.59256
-4.66185
-4.72825
-4.79189
-4.8529
-4.91142
-4.96757
-5.02143
-5.0731
-5.12264
-5.1701
-5.21556
-5.25907
-5.30072
-5.34056
-5.37869
-5.41517
-5.45007
-5.48345
-5.51536
-5.54587
-5.57502
-5.60286
-5.62946
-5.65486
-5.6791
-5.70226
-5.72433
-5.74547
-4.03119
-4.06884
-4.15887
-4.25151
-4.33664
-4.41961
-4.49987
-4.57603
-4.64831
-4.71713
-4.78276
-4.84544
-4.90538
-4.96277
-5.01772
-5.07035
-5.12073
-5.16893
-5.21503
-5.25912
-5.30125
-5.34154
-5.38006
-5.41688
-5.4521
-5.48577
-5.51795
-5.54869
-5.57805
-5.60609
-5.63286
-5.65841
-5.68278
-5.70605
-5.72823
-5.74944
-3.94829
-3.99884
-4.10939
-4.21403
-4.30655
-4.39574
-4.48085
-4.56059
-4.63563
-4.70666
-4.77412
-4.83834
-4.89961
-4.95815
-5.01413
-5.06768
-5.11887
-5.1678
-5.21454
-5.25917
-5.3018
-5.34251
-5.38141
-5.41858
-5.45412
-5.48809
-5.52053
-5.55153
-5.58111
-5.60934
-5.63629
-5.66199
-5.68651
-5.70989
-5.73218
-5.75347
-3.85728
-3.92636
-4.06169
-4.17829
-4.27786
-4.37315
-4.46292
-4.54596
-4.62352
-4.69659
-4.76574
-4.8314
-4.89391
-4.95356
-5.01053
-5.06499
-5.117
-5.16665
-5.21403
-5.25922
-5.30233
-5.34346
-5.38275
-5.42028
-5.45615
-5.49042
-5.52316
-5.55441
-5.58424
-5.61271
-5.63985
-5.66572
-5.69038
-5.71389
-5.7363
-5.75765
-3.7565
-3.8519
-4.01628
-4.14414
-4.25022
-4.35149
-4.44576
-4.53187
-4.61176
-4.68673
-4.7575
-4.82453
-4.88826
-4.949
-5.00695
-5.06235
-5.1152
-5.16559
-5.21363
-5.2594
-5.30303
-5.3446
-5.38427
-5.42216
-5.45836
-5.49296
-5.52598
-5.55751
-5.58759
-5.61627
-5.64361
-5.66964
-5.69445
-5.71807
-5.7406
-5.762
-3.64323
-3.77535
-3.97325
-4.1112
-4.22319
-4.33043
-4.42927
-4.51826
-4.60037
-4.67722
-4.74958
-4.81797
-4.88295
-4.94481
-5.00374
-5.06012
-5.11381
-5.16496
-5.21367
-5.26004
-5.30417
-5.34618
-5.38623
-5.42448
-5.46103
-5.49595
-5.52929
-5.56109
-5.59142
-5.62032
-5.64786
-5.67408
-5.69904
-5.72279
-5.74545
-5.76694
-3.51109
-3.69521
-3.93271
-4.0796
-4.19702
-4.31044
-4.41412
-4.5058
-4.59003
-4.66875
-4.7427
-4.81246
-4.87869
-4.94168
-5.00158
-5.05894
-5.11343
-5.16528
-5.21462
-5.2615
-5.30605
-5.34839
-5.38875
-5.42733
-5.46422
-5.49943
-5.53303
-5.56507
-5.59563
-5.62473
-5.65244
-5.6788
-5.70388
-5.72771
-5.75045
-5.77191
-3.34757
-3.6127
-3.89708
-4.05107
-4.17394
-4.29376
-4.40197
-4.49583
-4.58164
-4.66185
-4.73713
-4.80807
-4.87539
-4.93934
-5.00041
-5.05884
-5.11424
-5.16691
-5.217
-5.26451
-5.30964
-5.35244
-5.39315
-5.43202
-5.46921
-5.50467
-5.53855
-5.57083
-5.60162
-5.63091
-5.6588
-5.68528
-5.71049
-5.73436
-5.75722
-5.77864
-3.14516
-3.54269
-3.87028
-4.0248
-4.15391
-4.28261
-4.39419
-4.49078
-4.57848
-4.66006
-4.73629
-4.80797
-4.87586
-4.94033
-5.00198
-5.06071
-5.11645
-5.16941
-5.2197
-5.26729
-5.3125
-5.35542
-5.3964
-5.43548
-5.47289
-5.5085
-5.54256
-5.57496
-5.60591
-5.63528
-5.66329
-5.68982
-5.7151
-5.73894
-5.76186
-5.78297
-2.91323
-3.52061
-3.86996
-4.01094
-4.13794
-4.2711
-4.38364
-4.48158
-4.5712
-4.65459
-4.7325
-4.80577
-4.87516
-4.9411
-5.00401
-5.0639
-5.1208
-5.17477
-5.22588
-5.27402
-5.31935
-5.36185
-5.40286
-5.44217
-5.47992
-5.51576
-5.55011
-5.58271
-5.61389
-5.64342
-5.67163
-5.69826
-5.7237
-5.74755
-5.77056
-5.79173
-2.62476
-3.47597
-3.87113
-4.01211
-4.14198
-4.27801
-4.39008
-4.4867
-4.57531
-4.65786
-4.73521
-4.8082
-4.87758
-4.9437
-5.00693
-5.06727
-5.12473
-5.17926
-5.23088
-5.2794
-5.32469
-5.36646
-5.40701
-5.44634
-5.4842
-5.52018
-5.55465
-5.58737
-5.61866
-5.64827
-5.67656
-5.70323
-5.72872
-5.75262
-5.77551
-5.79678
-6.70505
-6.70511
-6.70514
-6.7051
-6.705
-6.70484
-6.7046
-6.70426
-6.70379
-6.70315
-6.70237
-6.70147
-6.70051
-6.69957
-6.69874
-6.69812
-6.6978
-6.69785
-6.69832
-6.69922
-6.70054
-6.70226
-6.70435
-6.70674
-6.70939
-6.71224
-6.71524
-6.71833
-6.72146
-6.7246
-6.72771
-6.73076
-6.73371
-6.73656
-6.73929
-6.74188
-6.7443
-6.74654
-6.74861
-6.7505
-6.75222
-6.75377
-6.75515
-6.75637
-6.75744
-6.75836
-6.75914
-6.75979
-6.76032
-6.76073
-6.76104
-6.76124
-6.76134
-6.76134
-6.76125
-6.76104
-6.76074
-6.76036
-6.75992
-6.75943
-6.7589
-6.75835
-6.75778
-6.75723
-6.75668
-6.75615
-6.75565
-6.75518
-6.75476
-6.75438
-6.75405
-6.75379
-6.7536
-6.7535
-6.75351
-6.75364
-6.7539
-6.75434
-6.75495
-6.75577
-6.75681
-6.75807
-6.75958
-6.76132
-6.76329
-6.76549
-6.76788
-6.77045
-6.77317
-6.77602
-6.77899
-6.78207
-6.78525
-6.78851
-6.79187
-6.79531
-6.79883
-6.80243
-6.80611
-6.80988
-6.81374
-6.81772
-6.82185
-6.82612
-6.83051
-6.835
-6.8397
-6.84488
-6.85082
-6.85766
-6.86546
-6.87415
-6.88338
-6.89249
-6.90054
-6.90651
-6.91061
-6.91384
-6.91762
-6.92327
-6.93337
-6.95097
-6.97605
-7.00682
-7.04162
-7.07896
-7.11765
-7.15678
-7.19566
-7.23379
-7.27085
-7.30659
-7.34086
-7.37359
-7.40473
-7.43426
-7.4622
-7.48857
-7.5134
-7.53673
-7.55858
-7.579
-7.59803
-7.61568
-7.632
-7.64701
-7.66072
-7.67316
-7.68434
-7.69427
-7.70296
-7.71042
-7.71665
-7.72167
-7.72547
-7.72806
-7.72944
-7.7296
-7.72855
-7.72628
-7.7228
-7.71809
-7.71217
-7.70503
-7.69667
-7.68709
-7.67625
-7.66415
-7.65081
-7.63622
-7.62037
-7.60328
-7.58493
-7.56533
-7.54447
-7.52235
-7.49898
-7.47434
-7.44845
-7.4213
-7.39289
-7.36323
-7.3323
-7.30013
-7.2667
-7.23202
-7.1961
-7.15893
-7.12052
-7.08087
-7.04
-6.99789
-6.95457
-6.91003
-6.86428
-6.81733
-6.76918
-6.71984
-6.66932
-6.61763
-6.56478
-6.51076
-6.45561
-6.39931
-6.34189
-6.28336
-6.22372
-6.16299
-6.10118
-6.03831
-5.97438
-5.90939
-5.84331
-5.77617
-5.70798
-5.6388
-5.5687
-5.49763
-5.42553
-5.35247
-5.27843
-5.20342
-5.12747
-5.05058
-4.97276
-4.89401
-4.81434
-4.73377
-4.65229
-4.56992
-4.48665
-4.4025
-4.31747
-4.23157
-4.1448
-4.05717
-3.96867
-3.8793
-3.78903
-3.69788
-3.60586
-3.51297
-3.41919
-3.32453
-3.22899
-3.13255
-3.03522
-2.93698
-2.83784
-2.73777
-2.63677
-2.53484
-2.43196
-2.32812
-2.22331
-2.11752
-2.01073
-1.90294
-1.79412
-1.68427
-1.57338
-1.46142
-1.34838
-1.23425
-1.11901
-1.00266
-0.885172
-0.766533
-0.64673
-0.525749
-0.403576
-0.280198
-0.155603
-0.0297776
0.0972886
0.225607
0.355187
0.486039
0.61817
0.751589
0.886301
1.02231
1.15963
1.29824
1.43817
1.5794
1.72194
1.86577
2.01091
2.15733
2.30505
2.45403
2.60427
2.75576
2.90847
3.0624
3.21752
3.37382
3.53126
3.68983
3.84949
4.01021
4.17197
4.33472
4.49844
4.66307
4.82859
4.99494
5.16208
5.32996
5.49853
5.66773
5.83752
6.00783
6.17859
6.34975
6.52125
6.693
6.86494
7.03701
7.20911
7.38117
7.55312
7.72486
7.89631
8.06738
8.23798
8.40802
8.5774
8.74602
8.91378
9.08058
9.2463
9.41085
9.5741
9.73596
9.89629
10.055
10.212
10.367
10.5201
10.6711
10.8199
10.9663
11.1103
11.2516
11.3903
11.5262
11.6592
11.7892
11.9162
12.0402
12.1612
12.279
12.394
12.5061
12.6169
12.725
12.837
12.9416
-6.70509
-6.70516
-6.70519
-6.7052
-6.70518
-6.70512
-6.705
-6.70478
-6.70443
-6.70391
-6.70323
-6.70242
-6.70154
-6.70068
-6.69994
-6.69943
-6.69923
-6.69939
-6.69997
-6.70097
-6.70237
-6.70414
-6.70626
-6.70866
-6.7113
-6.71412
-6.71708
-6.72013
-6.72321
-6.7263
-6.72936
-6.73235
-6.73525
-6.73805
-6.74071
-6.74322
-6.74557
-6.74776
-6.74978
-6.75162
-6.75329
-6.75479
-6.7561
-6.75725
-6.75825
-6.75909
-6.75978
-6.76034
-6.76077
-6.76108
-6.76127
-6.76135
-6.76133
-6.7612
-6.76097
-6.76066
-6.76028
-6.75984
-6.75936
-6.75884
-6.75831
-6.75777
-6.75724
-6.75671
-6.75621
-6.75572
-6.75527
-6.75485
-6.75447
-6.75414
-6.75386
-6.75363
-6.75349
-6.75342
-6.75347
-6.75363
-6.75395
-6.75443
-6.7551
-6.75598
-6.75707
-6.75836
-6.75987
-6.76162
-6.76361
-6.76582
-6.76821
-6.77075
-6.77342
-6.77621
-6.77912
-6.78213
-6.78524
-6.78844
-6.79172
-6.79508
-6.79854
-6.80206
-6.80564
-6.80923
-6.81292
-6.81678
-6.82082
-6.82504
-6.82944
-6.83382
-6.83818
-6.84269
-6.84745
-6.85234
-6.85758
-6.86404
-6.87224
-6.88231
-6.8936
-6.90349
-6.91035
-6.91611
-6.92301
-6.9331
-6.94777
-6.96765
-6.99286
-7.02284
-7.0564
-7.09231
-7.12952
-7.16719
-7.20469
-7.24155
-7.27744
-7.31212
-7.34545
-7.37733
-7.40771
-7.43657
-7.46392
-7.48976
-7.51413
-7.53704
-7.55853
-7.57863
-7.59737
-7.61479
-7.63091
-7.64574
-7.6593
-7.67161
-7.68267
-7.6925
-7.70111
-7.7085
-7.71468
-7.71965
-7.72341
-7.72596
-7.72732
-7.72746
-7.7264
-7.72413
-7.72064
-7.71592
-7.70998
-7.70282
-7.69441
-7.68477
-7.67393
-7.66186
-7.64856
-7.63401
-7.61822
-7.60119
-7.5829
-7.56336
-7.54257
-7.52052
-7.49722
-7.47266
-7.44684
-7.41977
-7.39144
-7.36185
-7.33101
-7.29892
-7.26558
-7.23099
-7.19515
-7.15807
-7.11975
-7.08019
-7.0394
-6.99739
-6.95416
-6.90971
-6.86405
-6.81719
-6.76914
-6.71989
-6.66947
-6.61787
-6.5651
-6.51118
-6.45612
-6.39991
-6.34258
-6.28414
-6.22459
-6.16395
-6.10221
-6.03941
-5.97556
-5.91065
-5.84467
-5.77762
-5.70955
-5.64047
-5.57044
-5.49942
-5.42741
-5.35442
-5.28045
-5.20553
-5.12966
-5.05284
-4.97509
-4.89641
-4.81682
-4.73632
-4.65491
-4.57261
-4.48941
-4.40533
-4.32036
-4.2345
-4.14777
-4.06015
-3.97165
-3.8823
-3.79209
-3.70101
-3.60905
-3.51623
-3.42252
-3.32793
-3.23245
-3.13609
-3.03883
-2.94067
-2.84159
-2.7416
-2.64068
-2.53883
-2.43603
-2.33227
-2.22754
-2.12184
-2.01514
-1.90743
-1.79871
-1.68895
-1.57815
-1.46629
-1.35335
-1.23933
-1.12421
-1.00796
-0.890588
-0.77206
-0.65237
-0.531504
-0.409449
-0.286191
-0.161718
-0.0360173
0.0909222
0.219112
0.348561
0.479279
0.611275
0.744557
0.87913
1.015
1.15217
1.29064
1.43042
1.57151
1.71389
1.85758
2.00257
2.14884
2.29639
2.44522
2.5953
2.74663
2.89919
3.05296
3.20793
3.36406
3.52135
3.67975
3.83926
3.99982
4.16142
4.32402
4.48757
4.65205
4.81741
4.9836
5.15059
5.31831
5.48673
5.65578
5.82541
5.99557
6.16619
6.33721
6.50856
6.68017
6.85198
7.02391
7.19588
7.36782
7.53964
7.71126
7.88259
8.05356
8.22406
8.394
8.56329
8.73182
8.89951
9.06623
9.2319
9.39639
9.5596
9.72143
9.88175
10.0404
10.1974
10.3525
10.5057
10.6567
10.8056
10.9521
11.0962
11.2378
11.3768
11.513
11.6464
11.7767
11.9039
12.0279
12.149
12.267
12.3824
12.4949
12.6065
12.7151
12.8293
12.9327
-6.7055
-6.70554
-6.70559
-6.70564
-6.70569
-6.70571
-6.70568
-6.70554
-6.70525
-6.70481
-6.70425
-6.70361
-6.70299
-6.70246
-6.70212
-6.70205
-6.70231
-6.70291
-6.70388
-6.7052
-6.70686
-6.70882
-6.71104
-6.71348
-6.7161
-6.71885
-6.7217
-6.7246
-6.72752
-6.73043
-6.73329
-6.73609
-6.7388
-6.7414
-6.74388
-6.74621
-6.7484
-6.75043
-6.7523
-6.754
-6.75553
-6.7569
-6.75809
-6.75912
-6.76
-6.76071
-6.76128
-6.76171
-6.762
-6.76217
-6.76221
-6.76214
-6.76196
-6.76168
-6.76132
-6.76088
-6.76038
-6.75983
-6.75924
-6.75862
-6.758
-6.75736
-6.75673
-6.75611
-6.75551
-6.75495
-6.75442
-6.75393
-6.75349
-6.7531
-6.75277
-6.75253
-6.75239
-6.75235
-6.75242
-6.75263
-6.75299
-6.75354
-6.7543
-6.75527
-6.75646
-6.75789
-6.75954
-6.76139
-6.76343
-6.76563
-6.76799
-6.77049
-6.7731
-6.7758
-6.77859
-6.78146
-6.78442
-6.78747
-6.79058
-6.79374
-6.79697
-6.80031
-6.80371
-6.80704
-6.81036
-6.81377
-6.81724
-6.82068
-6.8239
-6.82673
-6.82971
-6.83376
-6.83958
-6.84652
-6.85392
-6.86237
-6.87258
-6.88476
-6.89758
-6.90975
-6.92112
-6.93229
-6.94447
-6.95912
-6.97734
-6.99938
-7.02497
-7.05367
-7.08482
-7.11771
-7.15165
-7.18606
-7.22046
-7.25447
-7.2878
-7.32019
-7.3515
-7.3816
-7.41044
-7.43797
-7.46416
-7.48901
-7.51253
-7.53472
-7.5556
-7.57519
-7.59349
-7.61053
-7.62631
-7.64085
-7.65416
-7.66625
-7.67714
-7.68682
-7.69531
-7.7026
-7.70871
-7.71363
-7.71736
-7.7199
-7.72125
-7.72141
-7.72038
-7.71814
-7.71471
-7.71007
-7.70422
-7.69716
-7.68888
-7.67936
-7.66862
-7.65666
-7.64346
-7.62903
-7.61336
-7.59644
-7.57828
-7.55887
-7.53821
-7.51631
-7.49314
-7.46873
-7.44306
-7.41614
-7.38797
-7.35854
-7.32786
-7.29593
-7.26274
-7.22832
-7.19264
-7.15573
-7.11758
-7.07819
-7.03758
-6.99574
-6.95268
-6.9084
-6.86292
-6.81623
-6.76834
-6.71927
-6.66902
-6.61759
-6.565
-6.51125
-6.45635
-6.40031
-6.34314
-6.28486
-6.22547
-6.16499
-6.10342
-6.04076
-5.97706
-5.9123
-5.84648
-5.77961
-5.71171
-5.64282
-5.57293
-5.50206
-5.43019
-5.35734
-5.28353
-5.20875
-5.13302
-5.05634
-4.97873
-4.9002
-4.82075
-4.74038
-4.65912
-4.57695
-4.49389
-4.40995
-4.32512
-4.23941
-4.15283
-4.06537
-3.97703
-3.88783
-3.79775
-3.70681
-3.61499
-3.5223
-3.42874
-3.33429
-3.23896
-3.14274
-3.04563
-2.94761
-2.84869
-2.74885
-2.64809
-2.5464
-2.44376
-2.34016
-2.2356
-2.13007
-2.02354
-1.91601
-1.80747
-1.69789
-1.58728
-1.4756
-1.36286
-1.24902
-1.13409
-1.01804
-0.900862
-0.782542
-0.663065
-0.542415
-0.42058
-0.297546
-0.1733
-0.0478304
0.0788749
0.206827
0.336035
0.466509
0.598258
0.731289
0.865609
1.00122
1.13813
1.27635
1.41586
1.55668
1.6988
1.84221
1.98692
2.13292
2.28019
2.42873
2.57853
2.72958
2.88185
3.03533
3.19001
3.34585
3.50285
3.66096
3.82017
3.98045
4.14175
4.30406
4.46732
4.63151
4.79658
4.96248
5.12918
5.29662
5.46475
5.63352
5.80287
5.97275
6.14309
6.31383
6.48491
6.65626
6.8278
6.99946
7.17117
7.34285
7.51442
7.6858
7.85689
8.02762
8.19789
8.36761
8.53668
8.70501
8.87249
9.03902
9.2045
9.36881
9.53186
9.69352
9.8537
10.0123
10.1691
10.3241
10.4771
10.6281
10.7769
10.9235
11.0675
11.2091
11.348
11.4842
11.6176
11.748
11.8756
12.0001
12.1218
12.2405
12.3569
12.4703
12.5833
12.6925
12.8096
12.9094
-6.70605
-6.70607
-6.7061
-6.70613
-6.70617
-6.70618
-6.70612
-6.70598
-6.70573
-6.7054
-6.70505
-6.70473
-6.70451
-6.70449
-6.70471
-6.70522
-6.70603
-6.70715
-6.70857
-6.71027
-6.71221
-6.71437
-6.71671
-6.71921
-6.72182
-6.72452
-6.72726
-6.73003
-6.73279
-6.73553
-6.7382
-6.7408
-6.74329
-6.74567
-6.74793
-6.75005
-6.75202
-6.75385
-6.75552
-6.75703
-6.75839
-6.75959
-6.76062
-6.76149
-6.76221
-6.76277
-6.76318
-6.76344
-6.76357
-6.76357
-6.76344
-6.7632
-6.76285
-6.76241
-6.76187
-6.76125
-6.76056
-6.75981
-6.75902
-6.7582
-6.75736
-6.75653
-6.7557
-6.7549
-6.75412
-6.75339