/*--------------------------------*- C++ -*----------------------------------*\
| =========                 |                                                 |
| \\      /  F ield         | OpenFOAM: The Open Source CFD Toolbox           |
|  \\    /   O peration     | Version:  2.4.0                                 |
|   \\  /    A nd           | Web:      www.OpenFOAM.org                      |
|    \\/     M anipulation  |                                                 |
\*---------------------------------------------------------------------------*/
FoamFile
{
    version     2.0;
    format      ascii;
    class       volScalarField;
    location    "3417";
    object      nut;
}
// * * * * * * * * * * * * * * * * * * * * * * * * * * * * * * * * * * * * * //

dimensions      [0 2 -1 0 0 0 0];

internalField   nonuniform List<scalar> 
48900
(
4.85788e-06
6.85399e-06
7.90889e-06
8.2972e-06
8.25473e-06
7.97855e-06
7.57928e-06
7.14026e-06
6.69524e-06
6.27787e-06
5.89235e-06
5.50533e-06
5.08209e-06
4.71409e-06
4.40648e-06
4.13996e-06
3.92308e-06
3.7338e-06
3.58543e-06
3.45225e-06
3.35393e-06
3.25981e-06
3.19792e-06
3.13007e-06
3.09467e-06
3.04332e-06
3.0278e-06
2.98602e-06
2.98667e-06
2.94977e-06
2.96523e-06
2.93036e-06
2.96142e-06
2.93118e-06
2.98431e-06
2.96094e-06
2.33055e-05
1.47923e-05
1.23934e-05
1.14163e-05
1.09766e-05
1.08035e-05
1.0802e-05
1.09117e-05
1.10599e-05
1.12135e-05
1.13984e-05
1.13839e-05
1.13355e-05
1.13328e-05
1.13689e-05
1.14387e-05
1.15439e-05
1.16686e-05
1.18271e-05
1.19887e-05
1.21861e-05
1.23685e-05
1.25942e-05
1.27799e-05
1.30238e-05
1.31968e-05
1.34548e-05
1.36019e-05
1.38762e-05
1.39865e-05
1.42855e-05
1.43497e-05
1.469e-05
1.46927e-05
1.50871e-05
1.50204e-05
0.000151611
7.42914e-05
4.89464e-05
3.66435e-05
2.95865e-05
2.51704e-05
2.22439e-05
2.02465e-05
1.88523e-05
1.78603e-05
1.71604e-05
1.66958e-05
1.6409e-05
1.62741e-05
1.62555e-05
1.63451e-05
1.65149e-05
1.67665e-05
1.7078e-05
1.74616e-05
1.78868e-05
1.79724e-05
1.82051e-05
1.83354e-05
1.86289e-05
1.87933e-05
1.91315e-05
1.93141e-05
1.96838e-05
1.98745e-05
2.02657e-05
2.04625e-05
2.08687e-05
2.10836e-05
2.15062e-05
2.17952e-05
0.000465395
0.000261888
0.000175214
0.000128435
9.98371e-05
8.10691e-05
6.80487e-05
5.86307e-05
5.15856e-05
4.61917e-05
4.19777e-05
3.86601e-05
3.60173e-05
3.3916e-05
3.22342e-05
3.09062e-05
2.98551e-05
2.90465e-05
2.84054e-05
2.78918e-05
2.74698e-05
2.7152e-05
2.69145e-05
2.67653e-05
2.66783e-05
2.66609e-05
2.66884e-05
2.67698e-05
2.68829e-05
2.70376e-05
2.72143e-05
2.74258e-05
2.766e-05
2.79311e-05
2.82296e-05
2.85609e-05
0.000788587
0.000544755
0.000401212
0.000310311
0.000248922
0.000205663
0.000174063
0.000150296
0.000131972
0.000117574
0.000106052
9.67154e-05
8.90402e-05
8.26873e-05
7.73666e-05
7.29003e-05
6.91071e-05
6.58867e-05
6.30735e-05
6.05785e-05
5.83311e-05
5.63479e-05
5.45818e-05
5.3041e-05
5.16738e-05
5.0489e-05
4.94397e-05
4.85374e-05
4.7743e-05
4.70687e-05
4.64843e-05
4.5997e-05
4.55738e-05
4.52061e-05
4.48845e-05
4.46192e-05
0.00099639
0.000805243
0.00065482
0.000541621
0.000455955
0.000390318
0.000339209
0.000298786
0.000266342
0.000239989
0.000218315
0.000200321
0.000185218
0.000172457
0.00016157
0.000152245
0.000144178
0.000137184
0.000131041
0.000125623
0.000120773
0.000116441
0.00011252
0.000108995
0.000105784
0.000102888
0.000100239
9.78454e-05
9.56561e-05
9.36801e-05
9.18821e-05
9.02624e-05
8.87818e-05
8.74196e-05
8.61744e-05
8.5059e-05
0.0011043
0.000985247
0.000866168
0.000760601
0.000670933
0.000595996
0.000533564
0.000481433
0.000437687
0.000400794
0.000369479
0.000342755
0.000319792
0.00029997
0.000282744
0.000267723
0.000254532
0.000242918
0.00023261
0.000223438
0.0002152
0.000207795
0.000201074
0.000194982
0.000189408
0.000184326
0.000179652
0.000175372
0.000171428
0.000167811
0.000164484
0.000161441
0.000158658
0.000156125
0.000153835
0.000151793
0.0011548
0.00109028
0.00101177
0.000930997
0.000854274
0.00078434
0.000721918
0.000666789
0.000618329
0.000575815
0.000538493
0.000505693
0.000476781
0.000451246
0.000428608
0.000408496
0.000390548
0.0003745
0.000360075
0.000347086
0.000335319
0.000324647
0.000314905
0.00030601
0.000297837
0.000290333
0.000283405
0.000277018
0.000271107
0.000265647
0.000260595
0.000255932
0.000251635
0.000247689
0.000244081
0.000240826
0.00117704
0.0011452
0.00109969
0.00104625
0.000989835
0.000933846
0.000880289
0.000830207
0.000784025
0.000741817
0.000703439
0.000668656
0.000637163
0.00060867
0.000582868
0.000559493
0.000538272
0.00051899
0.000501416
0.000485381
0.000470697
0.000457237
0.000444848
0.000433438
0.000422887
0.000413129
0.000404073
0.00039567
0.000387854
0.000380589
0.000373829
0.000367548
0.000361716
0.000356312
0.000351319
0.00034677
0.00118638
0.00117172
0.00114778
0.0011162
0.00107943
0.00103983
0.00099926
0.000959074
0.000920157
0.000883059
0.000848072
0.00081533
0.000784837
0.000756546
0.000730345
0.000706121
0.000683725
0.00066303
0.000643884
0.00062617
0.00060975
0.000594522
0.000580368
0.000567205
0.000554937
0.000543497
0.000532809
0.000522822
0.000513476
0.000504732
0.000496547
0.00048889
0.000481731
0.000475046
0.000468813
0.000463094
0.00119015
0.00118373
0.00117205
0.00115502
0.00113333
0.0011081
0.00108047
0.00105148
0.00102199
0.000992633
0.000963884
0.000936069
0.000909391
0.000883977
0.00085988
0.000837118
0.000815666
0.000795489
0.000776524
0.000758715
0.000741989
0.000726283
0.000711524
0.000697654
0.000684608
0.000672334
0.000660776
0.000649891
0.000639635
0.000629972
0.000620866
0.00061229
0.000604215
0.000596617
0.000589481
0.000582893
0.00119159
0.00118884
0.00118347
0.00117494
0.0011632
0.00114851
0.00113137
0.00111235
0.00109201
0.00107087
0.00104935
0.00102781
0.0010065
0.000985633
0.000965354
0.000945763
0.000926921
0.000908864
0.000891604
0.00087514
0.000859456
0.000844534
0.000830342
0.000816856
0.00080404
0.000791866
0.000780301
0.000769318
0.000758889
0.000748988
0.00073959
0.000730675
0.000722221
0.000714209
0.00070663
0.000699596
0.0011921
0.00119089
0.00118849
0.00118446
0.00117853
0.00117063
0.00116085
0.00114939
0.00113654
0.00112258
0.0011078
0.00109248
0.00107684
0.00106109
0.00104537
0.00102983
0.00101455
0.000999626
0.000985099
0.000971012
0.000957388
0.000944241
0.000931576
0.000919395
0.000907691
0.000896457
0.000885683
0.000875358
0.000865468
0.000856003
0.00084695
0.000838295
0.000830027
0.000822134
0.000814615
0.000807598
0.00119225
0.00119164
0.00119054
0.00118869
0.00118586
0.00118189
0.00117671
0.00117033
0.00116283
0.00115433
0.00114498
0.00113493
0.00112434
0.00111335
0.00110209
0.00109067
0.0010792
0.00106776
0.00105641
0.0010452
0.00103419
0.00102341
0.00101288
0.00100262
0.000992644
0.000982962
0.000973579
0.000964498
0.00095572
0.000947245
0.00093907
0.000931193
0.000923608
0.000916312
0.000909313
0.000902737
0.00119228
0.00119185
0.00119122
0.00119023
0.00118873
0.00118657
0.00118367
0.00117998
0.00117548
0.0011702
0.00116421
0.00115759
0.00115042
0.0011428
0.00113481
0.00112653
0.00111806
0.00110945
0.00110077
0.00109207
0.00108339
0.00107479
0.00106628
0.00105789
0.00104965
0.00104156
0.00103366
0.00102594
0.00101842
0.0010111
0.00100399
0.00099708
0.000990384
0.000983901
0.000977643
0.000971743
0.00119228
0.00119191
0.00119147
0.00119086
0.00119
0.00118877
0.0011871
0.00118492
0.0011822
0.00117892
0.0011751
0.00117076
0.00116595
0.00116071
0.00115511
0.0011492
0.00114303
0.00113665
0.00113012
0.00112349
0.00111678
0.00111004
0.0011033
0.00109658
0.00108991
0.00108331
0.00107679
0.00107038
0.00106407
0.00105789
0.00105184
0.00104593
0.00104015
0.00103452
0.00102906
0.00102389
0.00119226
0.00119192
0.00119155
0.00119113
0.00119059
0.00118987
0.00118892
0.00118767
0.00118609
0.00118415
0.00118183
0.00117914
0.00117608
0.00117268
0.00116896
0.00116496
0.00116071
0.00115624
0.00115158
0.00114678
0.00114186
0.00113684
0.00113176
0.00112664
0.0011215
0.00111636
0.00111124
0.00110615
0.0011011
0.00109611
0.00109119
0.00108634
0.00108157
0.0010769
0.00107233
0.00106798
0.00119224
0.0011919
0.00119155
0.0011912
0.00119081
0.00119035
0.00118978
0.00118906
0.00118815
0.00118703
0.00118568
0.00118409
0.00118224
0.00118014
0.00117781
0.00117525
0.00117247
0.0011695
0.00116636
0.00116307
0.00115965
0.00115611
0.00115248
0.00114878
0.00114502
0.00114122
0.00113739
0.00113354
0.0011297
0.00112587
0.00112205
0.00111826
0.00111451
0.0011108
0.00110715
0.00110366
0.00119223
0.00119187
0.00119153
0.0011912
0.00119087
0.00119052
0.00119012
0.00118967
0.00118913
0.00118847
0.00118769
0.00118676
0.00118568
0.00118444
0.00118304
0.00118148
0.00117976
0.00117789
0.00117588
0.00117374
0.00117149
0.00116913
0.00116667
0.00116413
0.00116153
0.00115886
0.00115615
0.0011534
0.00115062
0.00114782
0.00114501
0.0011422
0.00113939
0.00113659
0.00113382
0.00113114
0.00119221
0.00119184
0.00119149
0.00119116
0.00119084
0.00119053
0.00119021
0.00118987
0.0011895
0.00118909
0.00118861
0.00118806
0.00118742
0.00118669
0.00118587
0.00118494
0.00118391
0.00118278
0.00118155
0.00118023
0.00117881
0.00117731
0.00117573
0.00117408
0.00117237
0.0011706
0.00116877
0.00116691
0.001165
0.00116306
0.0011611
0.00115912
0.00115712
0.00115512
0.00115312
0.00115118
0.0011922
0.00119182
0.00119145
0.00119111
0.00119079
0.00119048
0.00119019
0.00118989
0.00118959
0.00118928
0.00118894
0.00118857
0.00118817
0.00118772
0.00118722
0.00118666
0.00118604
0.00118537
0.00118463
0.00118383
0.00118297
0.00118205
0.00118107
0.00118004
0.00117896
0.00117784
0.00117667
0.00117546
0.00117421
0.00117294
0.00117163
0.00117031
0.00116896
0.00116759
0.00116622
0.00116488
0.00119219
0.00119179
0.00119142
0.00119107
0.00119074
0.00119042
0.00119012
0.00118983
0.00118955
0.00118927
0.00118899
0.0011887
0.0011884
0.00118808
0.00118774
0.00118738
0.00118698
0.00118656
0.0011861
0.00118561
0.00118508
0.00118451
0.00118392
0.00118328
0.00118262
0.00118192
0.00118119
0.00118043
0.00117964
0.00117883
0.001178
0.00117715
0.00117627
0.00117538
0.00117448
0.0011736
0.00119218
0.00119178
0.00119139
0.00119103
0.00119069
0.00119036
0.00119005
0.00118975
0.00118947
0.00118919
0.00118893
0.00118866
0.0011884
0.00118813
0.00118786
0.00118758
0.00118729
0.00118699
0.00118667
0.00118634
0.00118599
0.00118562
0.00118523
0.00118483
0.00118441
0.00118397
0.00118351
0.00118303
0.00118253
0.00118202
0.00118149
0.00118095
0.00118039
0.00117983
0.00117925
0.00117868
0.00119217
0.00119176
0.00119137
0.001191
0.00119064
0.00119031
0.00118998
0.00118968
0.00118938
0.0011891
0.00118883
0.00118856
0.0011883
0.00118805
0.0011878
0.00118755
0.0011873
0.00118704
0.00118679
0.00118653
0.00118626
0.00118599
0.00118571
0.00118542
0.00118513
0.00118482
0.00118451
0.00118419
0.00118386
0.00118352
0.00118317
0.00118282
0.00118245
0.00118208
0.00118171
0.00118134
0.00119216
0.00119175
0.00119135
0.00119097
0.00119061
0.00119026
0.00118993
0.00118961
0.0011893
0.00118901
0.00118872
0.00118845
0.00118819
0.00118793
0.00118768
0.00118743
0.00118719
0.00118695
0.00118671
0.00118648
0.00118624
0.00118601
0.00118577
0.00118554
0.0011853
0.00118506
0.00118482
0.00118457
0.00118432
0.00118407
0.00118382
0.00118356
0.0011833
0.00118304
0.00118278
0.00118252
0.00119216
0.00119174
0.00119134
0.00119095
0.00119058
0.00119022
0.00118988
0.00118955
0.00118923
0.00118893
0.00118864
0.00118835
0.00118808
0.00118781
0.00118755
0.0011873
0.00118705
0.00118681
0.00118657
0.00118634
0.00118611
0.00118589
0.00118566
0.00118544
0.00118522
0.00118501
0.00118479
0.00118458
0.00118437
0.00118415
0.00118394
0.00118373
0.00118352
0.00118331
0.0011831
0.0011829
0.00119215
0.00119173
0.00119132
0.00119093
0.00119055
0.00119019
0.00118984
0.0011895
0.00118918
0.00118886
0.00118856
0.00118827
0.00118798
0.0011877
0.00118744
0.00118717
0.00118692
0.00118667
0.00118643
0.00118619
0.00118596
0.00118573
0.0011855
0.00118528
0.00118507
0.00118486
0.00118465
0.00118444
0.00118424
0.00118404
0.00118384
0.00118364
0.00118345
0.00118325
0.00118307
0.00118289
0.00119215
0.00119172
0.00119131
0.00119092
0.00119053
0.00119016
0.00118981
0.00118946
0.00118913
0.00118881
0.0011885
0.0011882
0.0011879
0.00118762
0.00118734
0.00118707
0.00118681
0.00118655
0.0011863
0.00118605
0.00118581
0.00118558
0.00118535
0.00118512
0.0011849
0.00118469
0.00118447
0.00118426
0.00118406
0.00118386
0.00118366
0.00118347
0.00118328
0.00118309
0.00118291
0.00118274
0.00119214
0.00119172
0.0011913
0.0011909
0.00119052
0.00119014
0.00118978
0.00118943
0.00118909
0.00118876
0.00118845
0.00118814
0.00118784
0.00118754
0.00118726
0.00118698
0.00118671
0.00118645
0.00118619
0.00118594
0.00118569
0.00118545
0.00118521
0.00118498
0.00118475
0.00118453
0.00118431
0.0011841
0.00118389
0.00118368
0.00118348
0.00118328
0.00118309
0.0011829
0.00118272
0.00118255
0.00119214
0.00119171
0.0011913
0.00119089
0.0011905
0.00119013
0.00118976
0.00118941
0.00118906
0.00118873
0.0011884
0.00118809
0.00118778
0.00118749
0.0011872
0.00118691
0.00118664
0.00118636
0.0011861
0.00118584
0.00118559
0.00118534
0.0011851
0.00118486
0.00118463
0.0011844
0.00118418
0.00118396
0.00118374
0.00118353
0.00118333
0.00118312
0.00118292
0.00118273
0.00118254
0.00118237
0.00119214
0.00119171
0.00119129
0.00119089
0.00119049
0.00119011
0.00118974
0.00118939
0.00118904
0.0011887
0.00118837
0.00118805
0.00118774
0.00118744
0.00118714
0.00118686
0.00118657
0.0011863
0.00118603
0.00118577
0.00118551
0.00118525
0.00118501
0.00118476
0.00118453
0.00118429
0.00118407
0.00118384
0.00118362
0.00118341
0.0011832
0.00118299
0.00118279
0.00118259
0.0011824
0.00118222
0.00119214
0.00119171
0.00119129
0.00119088
0.00119049
0.0011901
0.00118973
0.00118937
0.00118902
0.00118868
0.00118835
0.00118802
0.00118771
0.0011874
0.0011871
0.00118681
0.00118653
0.00118625
0.00118597
0.0011857
0.00118544
0.00118519
0.00118493
0.00118469
0.00118445
0.00118421
0.00118398
0.00118375
0.00118353
0.00118331
0.00118309
0.00118288
0.00118268
0.00118248
0.00118228
0.0011821
0.00119214
0.00119171
0.00119129
0.00119088
0.00119048
0.0011901
0.00118972
0.00118936
0.00118901
0.00118866
0.00118833
0.001188
0.00118768
0.00118737
0.00118707
0.00118678
0.00118649
0.00118621
0.00118593
0.00118566
0.00118539
0.00118513
0.00118488
0.00118463
0.00118439
0.00118415
0.00118391
0.00118368
0.00118345
0.00118323
0.00118302
0.0011828
0.00118259
0.00118239
0.00118219
0.00118201
0.00119214
0.00119171
0.00119128
0.00119088
0.00119048
0.00119009
0.00118972
0.00118935
0.001189
0.00118865
0.00118831
0.00118799
0.00118767
0.00118736
0.00118705
0.00118675
0.00118646
0.00118618
0.0011859
0.00118563
0.00118536
0.0011851
0.00118484
0.00118459
0.00118434
0.0011841
0.00118386
0.00118363
0.0011834
0.00118318
0.00118296
0.00118274
0.00118253
0.00118233
0.00118213
0.00118194
0.00119214
0.0011917
0.00119128
0.00119087
0.00119048
0.00119009
0.00118971
0.00118935
0.00118899
0.00118865
0.00118831
0.00118798
0.00118766
0.00118734
0.00118704
0.00118674
0.00118645
0.00118616
0.00118588
0.00118561
0.00118534
0.00118507
0.00118482
0.00118456
0.00118431
0.00118407
0.00118383
0.0011836
0.00118337
0.00118314
0.00118292
0.00118271
0.00118249
0.00118229
0.00118209
0.0011819
0.00119214
0.00119171
0.00119128
0.00119088
0.00119048
0.00119009
0.00118971
0.00118935
0.00118899
0.00118864
0.00118831
0.00118798
0.00118766
0.00118734
0.00118704
0.00118674
0.00118644
0.00118616
0.00118587
0.0011856
0.00118533
0.00118507
0.00118481
0.00118455
0.0011843
0.00118406
0.00118382
0.00118359
0.00118336
0.00118313
0.00118291
0.00118269
0.00118248
0.00118227
0.00118207
0.00118189
0.00119214
0.00119171
0.00119129
0.00119088
0.00119048
0.00119009
0.00118972
0.00118935
0.001189
0.00118865
0.00118831
0.00118798
0.00118766
0.00118735
0.00118704
0.00118674
0.00118645
0.00118616
0.00118588
0.0011856
0.00118533
0.00118507
0.00118481
0.00118456
0.00118431
0.00118406
0.00118382
0.00118359
0.00118336
0.00118313
0.00118291
0.0011827
0.00118248
0.00118228
0.00118208
0.00118189
0.00119214
0.00119171
0.00119129
0.00119088
0.00119048
0.0011901
0.00118972
0.00118936
0.001189
0.00118866
0.00118832
0.00118799
0.00118767
0.00118736
0.00118705
0.00118675
0.00118646
0.00118617
0.00118589
0.00118562
0.00118535
0.00118508
0.00118483
0.00118457
0.00118432
0.00118408
0.00118384
0.00118361
0.00118338
0.00118315
0.00118293
0.00118272
0.0011825
0.0011823
0.0011821
0.00118191
0.00119214
0.00119171
0.00119129
0.00119088
0.00119049
0.0011901
0.00118973
0.00118937
0.00118901
0.00118867
0.00118833
0.001188
0.00118769
0.00118737
0.00118707
0.00118677
0.00118648
0.00118619
0.00118591
0.00118564
0.00118537
0.00118511
0.00118485
0.0011846
0.00118435
0.00118411
0.00118387
0.00118364
0.00118341
0.00118319
0.00118297
0.00118275
0.00118254
0.00118233
0.00118213
0.00118195
0.00119214
0.00119171
0.0011913
0.00119089
0.0011905
0.00119011
0.00118974
0.00118938
0.00118903
0.00118868
0.00118835
0.00118802
0.00118771
0.0011874
0.00118709
0.0011868
0.00118651
0.00118622
0.00118595
0.00118567
0.00118541
0.00118515
0.00118489
0.00118464
0.00118439
0.00118415
0.00118391
0.00118368
0.00118345
0.00118323
0.00118301
0.00118279
0.00118258
0.00118237
0.00118217
0.00118198
0.00119214
0.00119172
0.0011913
0.0011909
0.00119051
0.00119012
0.00118975
0.0011894
0.00118905
0.00118871
0.00118837
0.00118805
0.00118774
0.00118743
0.00118713
0.00118683
0.00118654
0.00118626
0.00118599
0.00118572
0.00118545
0.00118519
0.00118493
0.00118468
0.00118443
0.00118419
0.00118395
0.00118372
0.00118348
0.00118326
0.00118303
0.00118281
0.00118259
0.00118237
0.00118217
0.00118197
0.00119215
0.00119172
0.00119131
0.00119091
0.00119052
0.00119014
0.00118977
0.00118942
0.00118907
0.00118873
0.0011884
0.00118808
0.00118777
0.00118746
0.00118717
0.00118687
0.00118658
0.0011863
0.00118603
0.00118575
0.00118548
0.00118522
0.00118496
0.0011847
0.00118444
0.00118419
0.00118394
0.00118369
0.00118344
0.00118319
0.00118295
0.0011827
0.00118246
0.00118222
0.00118199
0.00118176
0.00119215
0.00119173
0.00119132
0.00119092
0.00119053
0.00119016
0.00118979
0.00118944
0.0011891
0.00118876
0.00118844
0.00118812
0.00118781
0.0011875
0.0011872
0.0011869
0.00118661
0.00118632
0.00118603
0.00118574
0.00118545
0.00118517
0.00118488
0.00118459
0.0011843
0.00118401
0.00118372
0.00118342
0.00118312
0.00118282
0.00118252
0.00118221
0.0011819
0.00118159
0.00118128
0.00118097
0.00119215
0.00119173
0.00119133
0.00119093
0.00119055
0.00119018
0.00118982
0.00118947
0.00118913
0.00118879
0.00118847
0.00118814
0.00118782
0.0011875
0.00118718
0.00118686
0.00118654
0.00118621
0.00118587
0.00118553
0.00118518
0.00118483
0.00118446
0.00118408
0.00118369
0.0011833
0.00118289
0.00118247
0.00118203
0.00118159
0.00118114
0.00118067
0.0011802
0.00117972
0.00117923
0.00117875
0.00119216
0.00119174
0.00119134
0.00119095
0.00119057
0.00119021
0.00118985
0.00118949
0.00118914
0.0011888
0.00118845
0.00118809
0.00118773
0.00118735
0.00118696
0.00118656
0.00118613
0.00118568
0.00118521
0.00118471
0.00118419
0.00118364
0.00118306
0.00118245
0.00118182
0.00118116
0.00118048
0.00117977
0.00117903
0.00117827
0.00117749
0.00117669
0.00117587
0.00117504
0.00117419
0.00117334
0.00119217
0.00119176
0.00119136
0.00119097
0.00119059
0.00119022
0.00118984
0.00118947
0.00118907
0.00118866
0.00118823
0.00118776
0.00118725
0.00118669
0.00118609
0.00118544
0.00118473
0.00118396
0.00118314
0.00118225
0.00118131
0.00118031
0.00117925
0.00117814
0.00117698
0.00117577
0.00117451
0.00117321
0.00117188
0.0011705
0.0011691
0.00116766
0.0011662
0.00116472
0.00116322
0.00116173
0.00119217
0.00119177
0.00119137
0.00119098
0.00119058
0.00119016
0.00118972
0.00118923
0.00118868
0.00118805
0.00118734
0.00118653
0.00118562
0.00118459
0.00118344
0.00118218
0.0011808
0.0011793
0.00117769
0.00117597
0.00117414
0.00117223
0.00117022
0.00116813
0.00116597
0.00116374
0.00116145
0.00115911
0.00115672
0.00115429
0.00115184
0.00114935
0.00114685
0.00114433
0.00114181
0.00113933
0.00119218
0.00119178
0.00119136
0.00119092
0.00119042
0.00118984
0.00118913
0.00118828
0.00118725
0.00118602
0.00118457
0.00118289
0.00118099
0.00117885
0.00117649
0.00117392
0.00117115
0.00116819
0.00116505
0.00116177
0.00115834
0.0011548
0.00115115
0.00114741
0.00114359
0.00113972
0.0011358
0.00113185
0.00112788
0.00112389
0.00111989
0.00111591
0.00111193
0.00110798
0.00110406
0.00110023
0.00119219
0.00119175
0.00119124
0.00119059
0.00118973
0.0011886
0.00118712
0.00118525
0.00118295
0.00118022
0.00117705
0.00117346
0.00116946
0.00116509
0.00116039
0.00115538
0.00115011
0.00114462
0.00113895
0.00113312
0.00112717
0.00112113
0.00111503
0.00110889
0.00110274
0.00109659
0.00109046
0.00108436
0.00107831
0.00107233
0.00106641
0.00106056
0.0010548
0.00104913
0.00104357
0.00103818
0.00119215
0.00119156
0.00119067
0.00118931
0.00118734
0.00118464
0.00118112
0.00117677
0.00117161
0.00116567
0.00115902
0.00115176
0.00114396
0.00113572
0.00112711
0.00111823
0.00110914
0.00109992
0.00109061
0.00108127
0.00107194
0.00106266
0.00105346
0.00104437
0.00103541
0.00102659
0.00101793
0.00100944
0.00100113
0.000992997
0.000985055
0.000977301
0.000969738
0.000962367
0.000955196
0.000948304
0.00119196
0.00119077
0.00118859
0.00118511
0.0011801
0.00117349
0.00116534
0.00115577
0.00114498
0.00113317
0.00112055
0.00110734
0.0010937
0.00107979
0.00106576
0.00105172
0.00103775
0.00102394
0.00101034
0.000997001
0.000983956
0.00097123
0.000958841
0.000946801
0.000935116
0.000923789
0.000912818
0.000902201
0.000891931
0.000882003
0.000872408
0.000863137
0.000854181
0.000845531
0.000837186
0.000829219
0.00119118
0.00118789
0.00118185
0.0011727
0.00116047
0.00114552
0.00112836
0.00110951
0.0010895
0.00106877
0.0010477
0.00102658
0.00100564
0.000985069
0.000964985
0.000945478
0.000926608
0.00090841
0.000890903
0.00087409
0.000857967
0.00084252
0.000827733
0.000813583
0.000800048
0.000787103
0.000774723
0.000762883
0.000751557
0.000740721
0.00073035
0.000720421
0.000710913
0.000701805
0.000693083
0.000684803
0.00118829
0.00117846
0.00116211
0.00113989
0.00111313
0.00108335
0.00105186
0.00101973
0.000987723
0.000956391
0.000926088
0.000897032
0.000869343
0.000843073
0.000818225
0.00079477
0.000772658
0.000751827
0.000732209
0.000713733
0.000696327
0.000679923
0.000664455
0.00064986
0.000636079
0.000623058
0.000610745
0.000599091
0.000588054
0.00057759
0.000567664
0.000558238
0.00054928
0.000540761
0.000532657
0.000524998
0.00117831
0.00115013
0.00111013
0.00106302
0.00101291
0.000962709
0.000914189
0.000868298
0.000825469
0.000785816
0.000749279
0.000715697
0.000684866
0.000656563
0.000630566
0.00060666
0.000584647
0.000564342
0.000545582
0.000528216
0.000512113
0.000497154
0.000483236
0.000470263
0.000458153
0.000446831
0.000436229
0.000426288
0.000416954
0.000408177
0.000399913
0.000392123
0.00038477
0.000377821
0.000371248
0.000365059
0.00114598
0.00107332
0.000990041
0.000907817
0.000831894
0.00076402
0.000704215
0.000651789
0.000605857
0.00056554
0.000530045
0.000498679
0.000470853
0.000446061
0.000423879
0.000403948
0.000385966
0.000369678
0.000354871
0.000341363
0.000329003
0.00031766
0.000307225
0.000297599
0.000288702
0.000280458
0.000272806
0.000265688
0.000259055
0.000252864
0.000247074
0.000241652
0.000236566
0.000231788
0.000227293
0.000223073
0.00104903
0.000893205
0.000759157
0.000651869
0.00056692
0.000499318
0.000444904
0.000400507
0.000363816
0.000333134
0.000307206
0.00028508
0.000266028
0.000249478
0.000234983
0.000222192
0.000210829
0.000200675
0.000191558
0.000183335
0.000175891
0.000169129
0.000162968
0.000157338
0.000152182
0.000147447
0.000143089
0.00013907
0.000135357
0.000131919
0.000128731
0.000125768
0.000123012
0.000120443
0.000118045
0.000115804
0.00079805
0.000565304
0.000428059
0.000340613
0.000280921
0.000238171
0.000206362
0.000181934
0.0001627
0.000147244
0.000134611
0.000124126
0.000115293
0.000107741
0.0001012
9.54757e-05
9.0432e-05
8.59653e-05
8.20018e-05
7.84729e-05
7.53243e-05
7.25062e-05
6.99799e-05
6.77087e-05
6.56647e-05
6.38208e-05
6.21568e-05
6.06519e-05
5.92914e-05
5.80591e-05
5.69439e-05
5.59331e-05
5.50182e-05
5.41888e-05
5.34385e-05
5.27569e-05
0.000357729
0.000202652
0.000140633
0.000107529
8.71631e-05
7.3587e-05
6.40057e-05
5.69481e-05
5.15857e-05
4.74168e-05
4.41222e-05
4.14834e-05
3.9344e-05
3.75848e-05
3.61197e-05
3.48858e-05
3.38377e-05
3.29408e-05
3.21753e-05
3.15231e-05
3.09725e-05
3.05107e-05
3.01285e-05
2.98157e-05
2.95657e-05
2.93703e-05
2.92251e-05
2.91232e-05
2.90618e-05
2.90353e-05
2.90417e-05
2.90764e-05
2.91381e-05
2.92229e-05
2.933e-05
2.94557e-05
6.02377e-05
3.53521e-05
2.71001e-05
2.31523e-05
2.09612e-05
1.96529e-05
1.88469e-05
1.83555e-05
1.80785e-05
1.79592e-05
1.7965e-05
1.80758e-05
1.82796e-05
1.85659e-05
1.89228e-05
1.93318e-05
1.97714e-05
2.01766e-05
2.01818e-05
2.02082e-05
2.02526e-05
2.03125e-05
2.0385e-05
2.04699e-05
2.05638e-05
2.06678e-05
2.07781e-05
2.08967e-05
2.10192e-05
2.11489e-05
2.12804e-05
2.14181e-05
2.1556e-05
2.16992e-05
2.18408e-05
2.19866e-05
4.82765e-06
6.70416e-06
8.14963e-06
9.18306e-06
9.86545e-06
1.02738e-05
1.04828e-05
1.05467e-05
1.05115e-05
1.04073e-05
1.02606e-05
1.00858e-05
9.89796e-06
9.70296e-06
9.50992e-06
9.31995e-06
9.1387e-06
8.96461e-06
8.80208e-06
8.64764e-06
8.50422e-06
8.36821e-06
8.24259e-06
8.12356e-06
8.01422e-06
7.91062e-06
7.81604e-06
7.72632e-06
7.64495e-06
7.56759e-06
7.49795e-06
7.43148e-06
7.37215e-06
7.31518e-06
7.26482e-06
7.21608e-06
9.49712e-13
5.53666e-11
2.00888e-10
5.23352e-10
1.09816e-09
1.98946e-09
3.23632e-09
4.84752e-09
6.83112e-09
9.28093e-09
1.26963e-08
1.70147e-08
2.19277e-08
2.68572e-08
3.23152e-08
4.1445e-08
5.32049e-08
6.59546e-08
7.90813e-08
9.219e-08
1.05092e-07
1.17626e-07
1.29616e-07
1.40935e-07
1.51495e-07
1.61231e-07
1.70098e-07
1.78057e-07
1.85074e-07
1.91119e-07
1.96165e-07
2.00188e-07
2.03169e-07
2.05091e-07
2.05947e-07
2.05735e-07
2.04488e-07
2.02629e-07
2.00099e-07
1.96655e-07
1.92233e-07
1.86846e-07
1.80536e-07
1.73372e-07
1.65446e-07
1.56865e-07
1.47751e-07
1.38234e-07
1.28454e-07
1.18551e-07
1.08667e-07
9.89374e-08
8.94901e-08
8.04399e-08
7.18858e-08
6.39076e-08
5.65645e-08
4.98936e-08
4.39105e-08
3.86108e-08
3.39727e-08
2.99616e-08
2.65299e-08
2.36229e-08
2.11858e-08
1.91659e-08
1.75139e-08
1.61856e-08
1.51432e-08
1.43559e-08
1.38004e-08
1.34623e-08
1.33586e-08
1.34802e-08
1.38116e-08
1.43813e-08
1.52306e-08
1.63902e-08
1.78989e-08
1.98074e-08
2.21795e-08
2.50951e-08
2.8653e-08
3.29617e-08
3.81336e-08
4.42739e-08
5.14645e-08
5.97477e-08
6.91123e-08
7.94879e-08
9.07474e-08
1.02722e-07
1.15224e-07
1.28062e-07
1.41067e-07
1.54093e-07
1.67029e-07
1.7982e-07
1.92468e-07
2.05008e-07
2.17459e-07
2.29864e-07
2.42243e-07
2.54534e-07
2.66498e-07
2.77983e-07
2.89148e-07
2.99954e-07
3.09997e-07
3.1907e-07
3.27523e-07
3.35449e-07
3.4147e-07
3.47496e-07
3.50316e-07
3.48813e-07
3.43594e-07
3.36241e-07
3.30743e-07
3.44016e-07
4.14581e-07
5.55069e-07
6.3983e-07
6.16722e-07
5.57845e-07
5.13333e-07
4.57207e-07
4.06057e-07
5.97181e-07
1.18461e-06
1.86586e-06
2.57644e-06
3.27046e-06
3.93141e-06
4.54945e-06
5.12467e-06
5.65784e-06
6.15297e-06
6.6132e-06
7.04273e-06
7.44468e-06
7.82255e-06
8.1789e-06
8.51644e-06
8.83714e-06
9.14304e-06
9.43561e-06
9.71637e-06
9.98641e-06
1.02469e-05
1.04986e-05
1.07423e-05
1.09788e-05
1.12085e-05
1.14321e-05
1.16498e-05
1.18622e-05
1.20696e-05
1.22721e-05
1.24702e-05
1.2664e-05
1.28536e-05
1.30394e-05
1.32213e-05
1.33995e-05
1.35182e-05
1.3627e-05
1.37344e-05
1.38404e-05
1.39451e-05
1.40486e-05
1.41508e-05
1.4252e-05
1.43521e-05
1.44512e-05
1.45492e-05
1.46464e-05
1.47426e-05
1.48379e-05
1.49324e-05
1.5026e-05
1.51189e-05
1.5211e-05
1.53023e-05
1.53929e-05
1.54828e-05
1.5572e-05
1.56605e-05
1.57484e-05
1.58356e-05
1.59222e-05
1.60082e-05
1.60936e-05
1.61784e-05
1.62627e-05
1.63464e-05
1.64296e-05
1.65123e-05
1.65946e-05
1.66765e-05
1.6758e-05
1.68391e-05
1.69201e-05
1.70008e-05
1.70814e-05
1.7162e-05
1.72431e-05
1.73252e-05
1.74082e-05
1.74909e-05
1.75734e-05
1.76555e-05
1.77375e-05
1.78191e-05
1.79006e-05
1.79817e-05
1.80627e-05
1.81434e-05
1.8224e-05
1.83043e-05
1.83844e-05
1.84643e-05
1.85441e-05
1.86237e-05
1.8703e-05
1.87823e-05
1.88613e-05
1.89401e-05
1.90188e-05
1.9097e-05
1.91652e-05
1.91658e-05
1.91635e-05
1.91585e-05
1.91509e-05
1.91405e-05
1.91276e-05
1.9112e-05
1.90938e-05
1.9073e-05
1.90496e-05
1.90238e-05
1.89953e-05
1.89644e-05
1.89311e-05
1.88953e-05
1.88571e-05
1.88165e-05
1.87735e-05
1.87283e-05
1.86807e-05
1.86309e-05
1.8579e-05
1.85248e-05
1.84686e-05
1.84102e-05
1.83499e-05
1.82875e-05
1.82232e-05
1.8157e-05
1.80889e-05
1.80191e-05
1.79475e-05
1.78743e-05
1.77994e-05
1.77229e-05
1.76449e-05
1.75654e-05
1.74846e-05
1.74023e-05
1.73188e-05
1.72341e-05
1.71482e-05
1.70611e-05
1.6973e-05
1.68839e-05
1.67939e-05
1.6703e-05
1.66113e-05
1.65188e-05
1.64257e-05
1.63318e-05
1.62374e-05
1.61425e-05
1.60471e-05
1.59512e-05
1.5855e-05
1.57584e-05
1.56616e-05
1.55645e-05
1.54673e-05
1.53699e-05
1.52723e-05
1.51747e-05
1.50771e-05
1.49795e-05
1.48819e-05
1.47843e-05
1.46868e-05
1.45894e-05
1.44922e-05
1.4395e-05
1.4298e-05
1.42012e-05
1.41045e-05
1.4008e-05
1.39116e-05
1.38154e-05
1.37193e-05
1.36234e-05
1.35277e-05
1.34321e-05
1.33366e-05
1.32412e-05
1.3146e-05
1.30509e-05
1.29558e-05
1.28609e-05
1.2766e-05
1.26712e-05
1.25763e-05
1.24815e-05
1.23866e-05
1.22916e-05
1.21965e-05
1.21013e-05
1.20059e-05
1.19102e-05
1.18143e-05
1.17181e-05
1.16215e-05
1.15246e-05
1.14272e-05
1.13294e-05
1.12311e-05
1.11323e-05
1.10328e-05
1.09328e-05
1.0832e-05
1.07304e-05
1.0628e-05
1.05247e-05
1.04204e-05
1.03149e-05
1.02082e-05
1.01001e-05
9.99045e-06
9.87901e-06
9.76551e-06
9.64961e-06
9.53086e-06
9.4087e-06
9.28255e-06
9.15139e-06
9.01467e-06
8.87061e-06
8.72251e-06
8.5509e-06
8.39823e-06
8.17957e-06
1.49962e-11
1.19587e-10
1.55788e-09
6.42355e-09
1.59885e-08
3.3513e-08
6.628e-08
1.28706e-07
2.49272e-07
4.76205e-07
7.84931e-07
1.16265e-06
1.60832e-06
2.05343e-06
2.49253e-06
2.91251e-06
3.30084e-06
3.64912e-06
3.95092e-06
4.20319e-06
4.40557e-06
4.55945e-06
4.66751e-06
4.73329e-06
4.76079e-06
4.75414e-06
4.71741e-06
4.65448e-06
4.56897e-06
4.46418e-06
4.34308e-06
4.20835e-06
4.06234e-06
3.90714e-06
3.74459e-06
3.57615e-06
3.4013e-06
3.19904e-06
2.97046e-06
2.72999e-06
2.49918e-06
2.28478e-06
2.08662e-06
1.90418e-06
1.73669e-06
1.58328e-06
1.44304e-06
1.31504e-06