/*--------------------------------*- C++ -*----------------------------------*\
| =========                 |                                                 |
| \\      /  F ield         | OpenFOAM: The Open Source CFD Toolbox           |
|  \\    /   O peration     | Version:  2.4.0                                 |
|   \\  /    A nd           | Web:      www.OpenFOAM.org                      |
|    \\/     M anipulation  |                                                 |
\*---------------------------------------------------------------------------*/
FoamFile
{
    version     2.0;
    format      ascii;
    class       volScalarField;
    location    "2.11";
    object      p;
}
// * * * * * * * * * * * * * * * * * * * * * * * * * * * * * * * * * * * * * //

dimensions      [0 2 -2 0 0 0 0];

internalField   nonuniform List<scalar> 
6000
(
0.0573517
0.286487
0.283428
0.306801
0.312285
0.320017
0.323108
0.32678
0.32873
0.330773
0.332153
0.333731
0.335332
0.337152
0.338642
0.339199
0.338164
0.335185
0.329939
0.322238
0.312732
0.30339
0.296895
0.295687
0.301339
0.314457
0.334787
0.361261
0.391889
0.423808
0.453726
0.478717
0.496964
0.507936
0.512374
0.511753
0.507693
0.501624
0.494628
0.487452
0.480577
0.474291
0.468727
0.463876
0.459601
0.455656
0.451714
0.447406
0.442203
0.435691
0.426994
0.416021
0.400771
0.383064
0.356097
0.330825
0.279015
0.253793
0.132501
0.150285
0.0723711
0.284701
0.283471
0.306652
0.312202
0.319931
0.323051
0.326727
0.328694
0.330744
0.332129
0.333699
0.335289
0.337097
0.338586
0.339162
0.338165
0.335246
0.330083
0.322455
0.312996
0.303644
0.297088
0.29579
0.301348
0.314383
0.33465
0.361079
0.391691
0.423611
0.45354
0.478542
0.496798
0.507795
0.512265
0.511666
0.507619
0.501555
0.494566
0.487395
0.48052
0.474233
0.468665
0.463806
0.459514
0.455562
0.451606
0.447277
0.442045
0.435493
0.426749
0.415709
0.400392
0.382575
0.355532
0.330049
0.27826
0.25248
0.131608
0.147904
0.0862164
0.282625
0.283567
0.306534
0.31213
0.319863
0.323001
0.326685
0.328663
0.330719
0.332106
0.333669
0.335245
0.337042
0.338532
0.339131
0.33818
0.335325
0.330245
0.322693
0.313265
0.303878
0.297232
0.295818
0.301262
0.314202
0.334401
0.360793
0.391401
0.423345
0.453311
0.478348
0.496627
0.507671
0.512173
0.51159
0.507551
0.501492
0.494505
0.487332
0.480456
0.474166
0.468595
0.463732
0.459435
0.455471
0.4515
0.447149
0.441889
0.435301
0.426511
0.415413
0.400033
0.382122
0.355007
0.329348
0.277523
0.251303
0.130622
0.145777
0.0976865
0.280448
0.283706
0.306443
0.312076
0.319808
0.322959
0.326649
0.328636
0.330697
0.332084
0.333639
0.335202
0.33699
0.338487
0.339114
0.338214
0.335426
0.330426
0.322933
0.313501
0.304033
0.297255
0.2957
0.301022
0.31387
0.33401
0.360382
0.391009
0.423005
0.453036
0.478131
0.496452
0.507568
0.512107
0.511532
0.507491
0.501429
0.494438
0.487262
0.480383
0.474091
0.468517
0.463652
0.459352
0.455379
0.451396
0.447027
0.441742
0.435119
0.426287
0.415134
0.399694
0.381695
0.35451
0.328692
0.276822
0.250218
0.129674
0.143979
0.107676
0.278276
0.283868
0.306375
0.312038
0.319762
0.322924
0.326617
0.328612
0.330677
0.332063
0.333607
0.335158
0.336939
0.338448
0.339111
0.338267
0.335554
0.330628
0.323173
0.313692
0.304086
0.297132
0.295414
0.300611
0.313372
0.33346
0.359819
0.390476
0.42254
0.452659
0.477839
0.496237
0.507442
0.512034
0.511474
0.507429
0.501358
0.49436
0.48718
0.480298
0.474004
0.46843
0.463564
0.459261
0.455283
0.45129
0.446905
0.441596
0.434941
0.426068
0.414859
0.39936
0.381274
0.35402
0.328044
0.276136
0.249162
0.128764
0.142385
0.116749
0.276176
0.284037
0.306331
0.312016
0.319723
0.322894
0.326589
0.328592
0.330659
0.332042
0.333574
0.335111
0.336886
0.338413
0.33912
0.338341
0.335709
0.330855
0.32341
0.313825
0.304023
0.296853
0.29496
0.300034
0.312711
0.332746
0.359087
0.389774
0.421916
0.452147
0.477449
0.495969
0.507259
0.511921
0.511392
0.507348
0.501271
0.494266
0.487082
0.480199
0.473905
0.468333
0.463469
0.459166
0.455184
0.451181
0.44678
0.441448
0.43476
0.425846
0.414582
0.399023
0.380849
0.353526
0.327394
0.275454
0.248113
0.127882
0.140926
0.125077
0.27419
0.284209
0.306306
0.312008
0.319692
0.32287
0.326565
0.328574
0.330643
0.332021
0.333539
0.33506
0.336832
0.338381
0.339142
0.338439
0.335896
0.331108
0.323639
0.313891
0.303835
0.296422
0.294352
0.29931
0.311907
0.331881
0.358197
0.388914
0.421151
0.451525
0.476987
0.495652
0.507017
0.51175
0.511266
0.507238
0.501159
0.494151
0.486966
0.480084
0.473795
0.468227
0.463367
0.459065
0.45508
0.451069
0.446653
0.441298
0.434577
0.42562
0.4143
0.398681
0.380418
0.353029
0.326739
0.274773
0.247071
0.127028
0.139577
0.132747
0.272341
0.284383
0.306283
0.312023
0.319669
0.322853
0.326545
0.32856
0.330629
0.332
0.333502
0.335006
0.336775
0.338352
0.339177
0.338562
0.336119
0.331388
0.323854
0.313882
0.303527
0.295857
0.293619
0.298471
0.310987
0.330897
0.35719
0.38795
0.420304
0.450848
0.476492
0.495298
0.506731
0.511525
0.511088
0.507086
0.501017
0.494012
0.486831
0.479955
0.473673
0.468114
0.46326
0.458961
0.454974
0.450955
0.446523
0.441145
0.434389
0.42539
0.414012
0.398333
0.379981
0.352526
0.32608
0.274093
0.246036
0.126201
0.138328
0.139857
0.270641
0.284556
0.306268
0.312051
0.319654
0.322842
0.32653
0.32855
0.330617
0.33198
0.333464
0.334948
0.336715
0.338327
0.339226
0.338716
0.336381
0.331696
0.324052
0.3138
0.303112
0.295187
0.292793
0.297548
0.309985
0.329837
0.356116
0.386936
0.419425
0.450151
0.475977
0.494915
0.506417
0.511259
0.510861
0.506888
0.500838
0.493845
0.486674
0.479811
0.473541
0.467993
0.463148
0.458854
0.454866
0.450839
0.446391
0.440988
0.434198
0.425155
0.413719
0.397978
0.379537
0.352017
0.325417
0.273413
0.245011
0.125403
0.137164
0.146506
0.269095
0.284726
0.306257
0.312089
0.319648
0.322838
0.326519
0.328543
0.330608
0.331961
0.333423
0.334887
0.336652
0.338306
0.339292
0.338902
0.336685
0.332032
0.324234
0.313651
0.302612
0.294438
0.291903
0.296569
0.308935
0.328735
0.355009
0.3859
0.418534
0.449441
0.475442
0.494504
0.506077
0.51096
0.510591
0.506645
0.500619
0.493647
0.486495
0.479651
0.473399
0.467867
0.463034
0.458746
0.454757
0.450722
0.446257
0.440829
0.434002
0.424915
0.413419
0.397617
0.379087
0.351503
0.324751
0.272733
0.243996
0.124633
0.136076
0.152771
0.267709
0.284889
0.306245
0.312138
0.319649
0.32284
0.326512
0.328539
0.330601
0.331943
0.333382
0.334822
0.336587
0.338288
0.339375
0.339123
0.337034
0.332396
0.3244
0.313449
0.302049
0.293638
0.290973
0.295559
0.307856
0.327608
0.353884
0.384849
0.417626
0.448711
0.47488
0.494061
0.505707
0.510628
0.510283
0.50636
0.50036
0.493416
0.486293
0.479475
0.473248
0.467736
0.462917
0.458637
0.454647
0.450604
0.446122
0.440667
0.433803
0.42467
0.413114
0.39725
0.37863
0.350983
0.324082
0.272053
0.242993
0.123888
0.135052
0.158715
0.266483
0.28504
0.306229
0.312196
0.319657
0.322848
0.326509
0.32854
0.330597
0.331927
0.33334
0.334755
0.336521
0.338275
0.339477
0.33938
0.337427
0.332788
0.324555
0.313206
0.301445
0.292808
0.290024
0.294533
0.306765
0.326469
0.352744
0.383781
0.4167
0.447958
0.474287
0.493584
0.505302
0.510258
0.509934
0.506033
0.500062
0.493152
0.486066
0.479283
0.473088
0.467601
0.462799
0.458527
0.454538
0.450485
0.445985
0.440503
0.4336
0.42442
0.412803
0.396876
0.378167
0.350457
0.323411
0.271374
0.242004
0.123167
0.134085
0.164383
0.26542
0.285179
0.306206
0.312261
0.31967
0.322863
0.32651
0.328543
0.330596
0.331912
0.333299
0.334687
0.336452
0.338265
0.339596
0.339673
0.337864
0.333205
0.324701
0.312937
0.300818
0.291968
0.289073
0.293506
0.30567
0.325323
0.351594
0.382699
0.415752
0.447178
0.473659
0.493068
0.504852
0.509842
0.509538
0.50566
0.499722
0.492855
0.485814
0.479076
0.472919
0.467463
0.462681
0.458419
0.454429
0.450367
0.445848
0.440337
0.433394
0.424166
0.412486
0.396496
0.377699
0.349926
0.322738
0.270694
0.241028
0.122468
0.133168
0.169815
0.264517
0.285303
0.306175
0.312331
0.319688
0.322884
0.326515
0.328551
0.330598
0.3319
0.333259
0.334618
0.336383
0.33826
0.339732
0.340001
0.338341
0.333645
0.324844
0.312654
0.300187
0.291138
0.288134
0.292491
0.304583
0.32418
0.350442
0.381607
0.414788
0.446368
0.472995
0.492506
0.504352
0.509371
0.509088
0.505236
0.499338
0.492523
0.485538
0.478854
0.472744
0.467322
0.462564
0.458313
0.454323
0.45025
0.44571
0.44017
0.433186
0.423908
0.412165
0.396111
0.377226
0.349391
0.322065
0.270015
0.240066
0.121788
0.132296
0.175037
0.263775
0.285415
0.306134
0.312404
0.319711
0.32291
0.326525
0.328562
0.330603
0.331891
0.33322
0.334549
0.336313
0.338258
0.339885
0.34036
0.338854
0.334105
0.324988
0.312371
0.299569
0.290331
0.287222
0.291497
0.303511
0.323047
0.349293
0.38051
0.413806
0.445531
0.47229
0.491892
0.503792
0.508838
0.508576
0.504757
0.498907
0.492154
0.485237
0.478617
0.472561
0.467181
0.462448
0.45821
0.454219
0.450136
0.445574
0.440002
0.432975
0.423646
0.411839
0.39572
0.376747
0.34885
0.32139
0.269336
0.23912
0.121126
0.131463
0.180072
0.263189
0.285516
0.306081
0.312478
0.319736
0.322942
0.326538
0.328576
0.330611
0.331885
0.333184
0.334481
0.336243
0.338259
0.340052
0.340746
0.339396
0.334582
0.325137
0.312099
0.298979
0.289561
0.286346
0.290535
0.302467
0.321935
0.348156
0.379416
0.41281
0.444666
0.471539
0.49122
0.503164
0.508233
0.507994
0.504214
0.498424
0.491746
0.48491
0.478366
0.472372
0.467039
0.462336
0.45811
0.454119
0.450024
0.445439
0.439834
0.432763
0.423381
0.411509
0.395324
0.376264
0.348305
0.320715
0.268657
0.238188
0.120479
0.130664
0.184938
0.262756
0.285612
0.306016
0.312552
0.319764
0.322979
0.326554
0.328593
0.330621
0.331882
0.33315
0.334414
0.336173
0.338264
0.34023
0.341153
0.33996
0.335071
0.325294
0.311848
0.298428
0.288838
0.285516
0.289614
0.301457
0.320852
0.347041
0.378329
0.411807
0.443774
0.47074
0.490481
0.502459
0.507546
0.507333
0.503602
0.497884
0.491296
0.484555
0.478099
0.472178
0.466897
0.462226
0.458015
0.454024
0.449916
0.445308
0.439668
0.432551
0.423115
0.411176
0.394924
0.375777
0.347756
0.32004
0.267977
0.237271
0.119846
0.129895
0.189648
0.262471
0.285708
0.305939
0.312623
0.319792
0.323021
0.326574
0.328614
0.330635
0.331883
0.333121
0.334351
0.336105
0.338271
0.340417
0.341576
0.340539
0.335567
0.325462
0.311627
0.297927
0.288172
0.284741
0.288742
0.300492
0.319807
0.345956
0.377255
0.4108
0.442853
0.469888
0.489669
0.501666
0.506768
0.506585
0.502911
0.497282
0.490801
0.484172
0.477817
0.471978
0.466756
0.462121
0.457925
0.453934
0.449813
0.44518
0.439504
0.43234
0.422848
0.410841
0.394521
0.375287
0.347204
0.319366
0.267298
0.236368
0.119224
0.129154
0.194211
0.262326
0.285809
0.305852
0.312689
0.31982
0.323067
0.326597
0.328638
0.330651
0.331888
0.333096
0.334291
0.336039
0.33828
0.340608
0.342007
0.341124
0.336066
0.325644
0.311445
0.297483
0.28757
0.284028
0.287929
0.299579
0.318809
0.344906
0.376204
0.409795
0.441905
0.468978
0.488775
0.500777
0.505888
0.505739
0.502135
0.496611
0.490257
0.483758
0.47752
0.471774
0.466616
0.46202
0.457842
0.453851
0.449716
0.445056
0.439344
0.432131
0.422582
0.410506
0.394117
0.374796
0.346651
0.318693
0.26662
0.235479
0.118614
0.128436
0.198637
0.262315
0.28592
0.305757
0.312749
0.319848
0.323117
0.326624
0.328664
0.330669
0.331896
0.333075
0.334237
0.335977
0.33829
0.340801
0.34244
0.341706
0.336564
0.325841
0.311305
0.297103
0.287038
0.283385
0.287181
0.298728
0.317867
0.343901
0.375182
0.408794
0.440929
0.468007
0.487791
0.49978
0.504895
0.504785
0.501265
0.495866
0.48966
0.483312
0.477207
0.471565
0.466479
0.461925
0.457766
0.453775
0.449625
0.444939
0.439188
0.431925
0.422318
0.410172
0.393714
0.374306
0.346098
0.318024
0.265946
0.234605
0.118013
0.127741
0.202932
0.26243
0.286048
0.305656
0.312802
0.319874
0.32317
0.326653
0.328695
0.33069
0.331908
0.333061
0.33419
0.33592
0.338302
0.340992
0.342867
0.342279
0.337056
0.326056
0.311213
0.29679
0.286581
0.282815
0.286504
0.297945
0.316987
0.342948
0.374197
0.407802
0.439926
0.466972
0.486712
0.498668
0.503779
0.503713
0.500292
0.495039
0.489007
0.482832
0.476878
0.471352
0.466345
0.461837
0.457698
0.453707
0.449542
0.444827
0.439038
0.431724
0.422057
0.40984
0.393311
0.373817
0.345546
0.317359
0.265275
0.233747
0.117425
0.127065
0.207104
0.262663
0.286196
0.305554
0.312848
0.319897
0.323226
0.326685
0.328728
0.330713
0.331924
0.333053
0.33415
0.335869
0.338315
0.341178
0.343282
0.342835
0.337538
0.326288
0.311171
0.296548
0.286202
0.282325
0.285905
0.297236
0.316176
0.342057
0.373255
0.406823
0.438896
0.465869
0.48553
0.497429
0.502529
0.502513
0.499207
0.494124
0.488292
0.482316
0.476532
0.471135
0.466214
0.461757
0.457638
0.453647
0.449467
0.444723
0.438893
0.431526
0.421799
0.409511
0.392911
0.373331
0.344998
0.3167
0.264612
0.232905
0.116849
0.126408
0.211158
0.263006
0.286369
0.305453
0.312886
0.319917
0.323284
0.326721
0.328766
0.330739
0.331943
0.333051
0.33412
0.335825
0.33833
0.341356
0.343679
0.343366
0.338007
0.326536
0.31118
0.296378
0.285905
0.281918
0.28539
0.29661
0.315443
0.341234
0.372361
0.405861
0.437841
0.464696
0.48424
0.496058
0.501136
0.501175
0.498002
0.493113
0.487511
0.481761
0.476169
0.470915
0.466089
0.461685
0.457589
0.453598
0.4494
0.444626
0.438754
0.431333
0.421544
0.409184
0.392514
0.372848
0.344454
0.316049
0.263956
0.232081
0.116288
0.12577
0.215098
0.26345
0.286569
0.305357
0.312917
0.319934
0.323344
0.326759
0.328806
0.330769
0.331968
0.333056
0.334099
0.335792
0.338347
0.341524
0.344053
0.343868
0.338459
0.326801
0.311241
0.296281
0.285692
0.281599
0.284963
0.296071
0.314795
0.340485
0.371522
0.404919
0.436761
0.463451
0.482837
0.494546
0.499591
0.49969
0.496667
0.492001
0.486659
0.481165
0.475788
0.470692
0.465969
0.461622
0.45755
0.453558
0.449344
0.444537
0.438621
0.431146
0.421294
0.408861
0.39212
0.37237
0.343916
0.315407
0.263311
0.231276
0.115744
0.125151
0.21893
0.263989
0.286799
0.305271
0.312943
0.319947
0.323405
0.3268
0.328851
0.330801
0.331996
0.333068
0.334089
0.335769
0.338368
0.34168
0.344399
0.344336
0.338891
0.327079
0.311349
0.296259
0.285565
0.281372
0.28463
0.295626
0.314236
0.339817
0.370743
0.404
0.435658
0.462133
0.481319
0.492888
0.497887
0.49805
0.495195
0.49078
0.485733
0.480526
0.475389
0.470468
0.465857
0.461571
0.457524
0.453531
0.449297
0.444457
0.438496
0.430963
0.421047
0.408541
0.391729
0.371895
0.343382
0.314773
0.262676
0.23049
0.115217
0.124551
0.222659
0.264613
0.28706
0.305198
0.312965
0.319956
0.323468
0.326844
0.3289
0.330837
0.33203
0.333087
0.33409
0.335759
0.338394
0.341825
0.344715
0.344766
0.339299
0.327367
0.311505
0.296311
0.285527
0.281241
0.284395
0.29528
0.313774
0.339236
0.370029
0.403109
0.434533
0.460741
0.479681
0.491079
0.496017
0.496245
0.493578
0.489444
0.484726
0.479841
0.47497
0.470242
0.465752
0.461532
0.457511
0.453517
0.449262
0.444387
0.438378
0.430787
0.420805
0.408225
0.391341
0.371425
0.342855
0.314148
0.262053
0.229724
0.114711
0.123969
0.226288
0.265317
0.287353
0.305141
0.312985
0.319964
0.323531
0.326892
0.328954
0.330877
0.332068
0.333114
0.334102
0.33576
0.338426
0.34196
0.345
0.345156
0.33968
0.32766
0.311704
0.296435
0.285577
0.281206
0.284261
0.295037
0.313413
0.338747
0.369384
0.402249
0.433386
0.459274
0.477923
0.489117
0.493976
0.494271
0.491809
0.487987
0.483636
0.479108
0.474533
0.470016
0.465658
0.461508
0.457513
0.453516
0.44924
0.444327
0.438268
0.430616
0.420567
0.407912
0.390956
0.370959
0.342333
0.313532
0.261442
0.228977
0.114223
0.123404
0.229824
0.266092
0.287677
0.305102
0.313006
0.31997
0.323594
0.326943
0.329013
0.330922
0.332113
0.33315
0.334127
0.335775
0.338466
0.342085
0.345255
0.345505
0.340031
0.327954
0.311946
0.296631
0.285717
0.281271
0.284233
0.294901
0.313158
0.338356
0.368812
0.401421
0.43222
0.457735
0.476045
0.486999
0.49176
0.492121
0.489881
0.486402
0.482457
0.478324
0.474075
0.46979
0.465575
0.461499
0.457531
0.453531
0.44923
0.444277
0.438167
0.430452
0.420334
0.407602
0.390575
0.370497
0.341816
0.312926
0.260843
0.22825
0.113756
0.122856
0.23327
0.266933
0.288032
0.305084
0.31303
0.319975
0.323659
0.326998
0.329078
0.330973
0.332164
0.333194
0.334164
0.335805
0.338514
0.342202
0.34548
0.345813
0.340348
0.328248
0.312226
0.296897
0.285946
0.281436
0.284311
0.294877
0.313014
0.338066
0.368319
0.400629
0.431037
0.456123
0.474047
0.484725
0.489367
0.489791
0.487789
0.484685
0.481185
0.477488
0.473598
0.469565
0.465505
0.461508
0.457568
0.453563
0.449236
0.44424
0.438074
0.430294
0.420105
0.407296
0.390197
0.370039
0.341306
0.312329
0.260256
0.227543
0.113309
0.122326
0.236632
0.267832
0.288418
0.305088
0.313059
0.319983
0.323726
0.327058
0.329149
0.331031
0.332223
0.333247
0.334216
0.33585
0.338572
0.342313
0.345677
0.346078
0.340632
0.328539
0.312541
0.297229
0.286262
0.281702
0.2845
0.294968
0.312986
0.337883
0.367906
0.399875
0.429838
0.454441
0.471931
0.482295
0.486796
0.487278
0.485529
0.482831
0.479818
0.476598
0.4731
0.469344
0.465449
0.461536
0.457625
0.453613
0.449257
0.444215
0.437992
0.430143
0.419882
0.406994
0.389822
0.369585
0.340801
0.311742
0.259681
0.226855
0.11288
0.12181
0.239913
0.268786
0.288832
0.305115
0.313094
0.319993
0.323795
0.327123
0.329227
0.331097
0.33229
0.333312
0.334281
0.335912
0.338641
0.342418
0.345846
0.346302
0.340882
0.328825
0.312889
0.297625
0.286665
0.282069
0.2848
0.295176
0.313077
0.33781
0.367578
0.399161
0.428625
0.452692
0.4697
0.479712
0.484046
0.48458
0.483097
0.480836
0.478352
0.475652
0.472583
0.469126
0.465411
0.461586
0.457703
0.453684
0.449294
0.444204
0.437919
0.43
0.419664
0.406696
0.389452
0.369136
0.340302
0.311164
0.259118
0.226185
0.112471
0.121311
0.243118
0.269787
0.289274
0.305165
0.313138
0.320008
0.323867
0.327193
0.329313
0.331171
0.332367
0.333387
0.334361
0.33599
0.338723
0.342521
0.345989
0.346485
0.341099
0.329105
0.313267
0.298083
0.287152
0.282538
0.285214
0.295506
0.313291
0.337852
0.367337
0.39849
0.427402
0.45088
0.467358
0.476978
0.481118
0.481695
0.48049
0.478696
0.476784
0.474648
0.472045
0.468913
0.465391
0.461659
0.457806
0.453775
0.44935
0.444207
0.437858
0.429865
0.419451
0.406402
0.389084
0.368692
0.339809
0.310595
0.258567
0.225535
0.11208
0.120826
0.246252
0.270831
0.289742
0.305239
0.313191
0.320029
0.323944
0.327271
0.329408
0.331257
0.332456
0.333476
0.334456
0.336087
0.338819
0.342622
0.34611
0.346629
0.341283
0.329378
0.31367
0.298598
0.287722
0.283108
0.285742
0.295959
0.313632
0.33801
0.367185
0.397863
0.42617
0.449008
0.464909
0.474096
0.478013
0.478622
0.477706
0.47641
0.475113
0.473587
0.471487
0.468707
0.465392
0.461759
0.457934
0.45389
0.449426
0.444226
0.437808
0.429739
0.419244
0.406113
0.388721
0.368252
0.339323
0.310036
0.258028
0.224903
0.111707
0.120355
0.249319
0.271914
0.290234
0.305336
0.313255
0.320058
0.324026
0.327356
0.329513
0.331353
0.332557
0.333578
0.334569
0.336202
0.33893
0.342725
0.34621
0.346738
0.341436
0.329642
0.314098
0.299168
0.288374
0.283779
0.286387
0.29654
0.314103
0.338289
0.367124
0.397282
0.424935
0.447082
0.462358
0.471071
0.474734
0.475361
0.474744
0.473975
0.473336
0.472466
0.47091
0.468509
0.465415
0.461887
0.458091
0.45403
0.449522
0.444261
0.437771
0.429621
0.419044
0.405829
0.388362
0.367817
0.338843
0.309488
0.257502
0.22429
0.11135
0.119899
0.252324
0.273031
0.290749
0.305456
0.313331
0.320095
0.324114
0.32745
0.329628
0.331463
0.332673
0.333697
0.3347
0.336337
0.339058
0.342832
0.346294
0.346815
0.34156
0.329899
0.314547
0.299791
0.289104
0.284551
0.287149
0.29725
0.314708
0.338691
0.367155
0.39675
0.423698
0.445107
0.459712
0.467906
0.471283
0.471914
0.471602
0.47139
0.471452
0.471285
0.470314
0.468321
0.465465
0.462046
0.458278
0.454197
0.449641
0.444314
0.437747
0.429512
0.418851
0.405549
0.388007
0.367388
0.33837
0.308949
0.256988
0.223696
0.111011
0.119457
0.25527
0.274178
0.291283
0.305598
0.313419
0.320142
0.32421
0.327554
0.329756
0.331588
0.332805
0.333834
0.33485
0.336493
0.339204
0.342944
0.346364
0.346864
0.341657
0.330148
0.315016
0.300464
0.289912
0.285423
0.288031
0.298092
0.31545
0.339217
0.36728
0.396267
0.422465
0.44309
0.456976
0.464607
0.467662
0.468282
0.468282
0.468655
0.46946
0.470045
0.469701
0.468145
0.465541
0.462237
0.458497
0.454392
0.449782
0.444385
0.437736
0.429414
0.418664
0.405275
0.387657
0.366964
0.337903
0.308421
0.256487
0.22312
0.110688
0.11903
0.258163
0.275352
0.291837
0.305762
0.31352
0.3202
0.324315
0.327668
0.329896
0.331728
0.332955
0.33399
0.335021
0.336671
0.339368
0.343064
0.346426
0.346889
0.341731
0.330391
0.315505
0.301185
0.290797
0.286396
0.289033
0.299069
0.31633
0.339868
0.367499
0.395836
0.42124
0.441036
0.454157
0.461178
0.463876
0.464466
0.464783
0.465768
0.467361
0.468746
0.469071
0.467982
0.465648
0.462465
0.45875
0.454618
0.449949
0.444475
0.43774
0.429326
0.418484
0.405006
0.387312
0.366546
0.337444
0.307904
0.255999
0.222564
0.11038
0.118616
0.261006
0.276549
0.292407
0.305946
0.313633
0.320268
0.324428
0.327794
0.33005
0.331885
0.333124
0.334168
0.335216
0.336871
0.339552
0.343195
0.346482
0.346896
0.341787
0.330631
0.316015
0.301954
0.291757
0.287471
0.290158
0.300184
0.317351
0.340645
0.367811
0.395458
0.420027
0.438953
0.451261
0.457626
0.459928
0.460469
0.461107
0.462731
0.465156
0.467389
0.468427
0.467835
0.465787
0.46273
0.459041
0.454875
0.450142
0.444585
0.437759
0.429248
0.418313
0.404743
0.386972
0.366134
0.336993
0.307399
0.255525
0.222027
0.110088
0.118217
0.263804
0.277765
0.292992
0.306149
0.313758
0.320348
0.324551
0.327931
0.330218
0.332061
0.333315
0.334369
0.335435
0.337096
0.339757
0.343339
0.346539
0.346892
0.341831
0.330871
0.316546
0.302771
0.292794
0.288649
0.291408
0.30144
0.318516
0.341548
0.368216
0.395136
0.418833
0.436847
0.448297
0.453957
0.455824
0.456296
0.457258
0.459546
0.462844
0.465974
0.467769
0.467705
0.465961
0.463036
0.45937
0.455167
0.450363
0.444717
0.437794
0.429182
0.418149
0.404487
0.386638
0.365728
0.33655
0.306905
0.255063
0.22151
0.109811
0.117833
0.26656
0.278998
0.293591
0.306371
0.313895
0.320439
0.324684
0.328081
0.330402
0.332256
0.333528
0.334595
0.33568
0.337347
0.339985
0.343497
0.346598
0.346882
0.34187
0.331117
0.317104
0.303639
0.293909
0.289933
0.292787
0.30284
0.319824
0.342576
0.368714
0.39487
0.41766
0.434726
0.445271
0.450177
0.45157
0.451952
0.453239
0.456215
0.460428
0.464504
0.467099
0.467596
0.466172
0.463385
0.459741
0.455493
0.450612
0.444871
0.437845
0.429128
0.417994
0.404237
0.38631
0.36533
0.336115
0.306423
0.254616
0.221012
0.109548
0.117465
0.269278
0.280244
0.294202
0.306609
0.314044
0.320542
0.324827
0.328244
0.3306
0.33247
0.333764
0.334848
0.335954
0.337626
0.340238
0.343673
0.346666
0.346874
0.341911
0.331376
0.317692
0.304562
0.295105
0.291325
0.294299
0.304386
0.321276
0.343727
0.369302
0.394662
0.416516
0.432596
0.442191
0.446295
0.447174
0.447444
0.449055
0.452743
0.457911
0.462981
0.46642
0.467509
0.466423
0.463779
0.460154
0.455858
0.450891
0.445048
0.437913
0.429086
0.417848
0.403994
0.385988
0.364939
0.335688
0.305954
0.254182
0.220535
0.1093
0.117111
0.271962
0.281501
0.294824
0.306863
0.314205
0.320656
0.32498
0.328419
0.330815
0.332705
0.334025
0.335129
0.336257
0.337935
0.340516
0.343869
0.346747
0.346875
0.341963
0.331657
0.318317
0.305545
0.296388
0.292831
0.295947
0.306082
0.322872
0.344998
0.369979
0.394515
0.415405
0.430466
0.439065
0.442318
0.442645
0.442781
0.444715
0.449134
0.455296
0.461407
0.465734
0.467447
0.466716
0.464221
0.460613
0.456261
0.451202
0.445249
0.437999
0.429057
0.417711
0.403758
0.385672
0.364555
0.335271
0.305498
0.253764
0.220079
0.109067
0.116774
0.274616
0.282767
0.295453
0.307132
0.314375
0.320781
0.325143
0.328607
0.331045
0.33296
0.33431
0.335439
0.336592
0.338275
0.340823
0.344087
0.346845
0.346891
0.342035
0.331968
0.318989
0.306595
0.297764
0.294457
0.297736
0.307927
0.324608
0.346384
0.370742
0.394429
0.414333
0.428342
0.435902
0.438259
0.437996
0.437976
0.440229
0.445396
0.452587
0.459785
0.465043
0.467411
0.467053
0.464712
0.461119
0.456704
0.451545
0.445475
0.438103
0.42904
0.417583
0.403529
0.385363
0.364179
0.334864
0.305056
0.25336
0.219643
0.108847
0.116454
0.277243
0.284038
0.296091
0.307415
0.314556
0.320917
0.325317
0.328807
0.33129
0.333236
0.334621
0.335779
0.336959
0.338647
0.34116
0.344332
0.346966
0.346929
0.342137
0.33232
0.319718
0.307722
0.299241
0.296209
0.299671
0.309923
0.326482
0.34788
0.371588
0.394406
0.413305
0.426233
0.432712
0.434129
0.433242
0.433044
0.43561
0.441538
0.449791
0.45812
0.464351
0.467405
0.467437
0.465256
0.461674
0.45719
0.451921
0.445727
0.438225
0.429038
0.417465
0.403308
0.385061
0.363812
0.334467
0.304627
0.252971
0.219229
0.108642
0.11615
0.279847
0.285312
0.296734
0.30771
0.314747
0.321063
0.3255
0.32902
0.33155
0.333531
0.334956
0.336147
0.337358
0.339053
0.341529
0.344605
0.347113
0.346997
0.342276
0.332722
0.320513
0.308936
0.300829
0.298094
0.301755
0.312069
0.328487
0.349481
0.372514
0.394448
0.412325
0.424146
0.429506
0.429944
0.4284
0.428003
0.430874
0.437572
0.446915
0.456415
0.46366
0.467431
0.46787
0.465853
0.46228
0.457718
0.452332
0.446004
0.438367
0.429049
0.417357
0.403095
0.384767
0.363453
0.33408
0.304214
0.252599
0.218837
0.10845
0.115865
0.282432
0.286587
0.297381
0.308016
0.314946
0.32122
0.325692
0.329244
0.331824
0.333845
0.335315
0.336545
0.33779
0.339493
0.341931
0.34491
0.347291
0.347101
0.342462
0.333186
0.321386
0.310247
0.302537
0.300119
0.303989
0.31436
0.330616
0.351179
0.373517
0.394557
0.4114
0.422089
0.426296
0.425721
0.423493
0.422877
0.42604
0.43351
0.443966
0.454675
0.462974
0.467492
0.468354
0.466505
0.462937
0.458291
0.452779
0.446309
0.438529
0.429074
0.417259
0.402891
0.38448
0.363103
0.333703
0.303815
0.252242
0.218467
0.108272
0.115597
0.285
0.28786
0.298032
0.308333
0.315154
0.321386
0.325894
0.32948
0.332112
0.334177
0.335696
0.336971
0.338254
0.339968
0.342368
0.345251
0.347507
0.347248
0.342702
0.333719
0.322347
0.311665
0.304372
0.302288
0.306373
0.31679
0.332861
0.352966
0.374593
0.394732
0.410534
0.420072
0.423097
0.42148
0.418545
0.417691
0.42113
0.42937
0.440955
0.452907
0.462297
0.467589
0.46889
0.467215
0.463648
0.45891
0.453262
0.446641
0.438711
0.429114
0.417172
0.402695
0.384202
0.362763
0.333339
0.303431
0.251902
0.21812
0.108108
0.115349
0.287555
0.289129
0.298684
0.308659
0.31537
0.321561
0.326105
0.329726
0.332413
0.334526
0.336099
0.337423
0.338749
0.340476
0.342842
0.345628
0.347763
0.347445
0.343004
0.334331
0.323403
0.313198
0.30634
0.304603
0.308904
0.319351
0.335211
0.354835
0.375741
0.394978
0.409733
0.418103
0.419923
0.417244
0.413586
0.412474
0.416172
0.425171
0.437894
0.451117
0.461631
0.467726
0.469481
0.467983
0.464413
0.459575
0.453781
0.447002
0.438914
0.429169
0.417096
0.402508
0.383931
0.362432
0.332985
0.303064
0.251579
0.217797
0.107958
0.11512
0.290101
0.290392
0.299337
0.308994
0.315593
0.321745
0.326325
0.329983
0.332726
0.334891
0.336523
0.3379
0.339273
0.341018
0.343351
0.346045
0.348064
0.347696
0.343375
0.335027
0.324563
0.314853
0.308446
0.307062
0.311573
0.322032
0.337654
0.356777
0.376956
0.395294
0.409002
0.416194
0.416793
0.413038
0.408646
0.40726
0.411192
0.420932
0.434795
0.449312
0.460983
0.467906
0.470129
0.46881
0.465234
0.460286
0.454339
0.44739
0.439137
0.429239
0.417031
0.40233
0.38367
0.362112
0.332644
0.302713
0.251274
0.217497
0.107822
0.114911
0.292641
0.291647
0.299988
0.309336
0.315822
0.321938
0.326553
0.330249
0.33305
0.335271
0.336965
0.338401
0.339825
0.341591
0.343895
0.346503
0.348414
0.348006
0.343819
0.335812
0.325829
0.316631
0.310687
0.309662
0.314372
0.324819
0.340178
0.358785
0.378236
0.395683
0.408347
0.414355
0.413725
0.40889
0.403757
0.402083
0.406222
0.416679
0.431674
0.447501
0.460355
0.46813
0.470835
0.469699
0.466111
0.461046
0.454934
0.447808
0.439382
0.429324
0.416978
0.402162
0.383417
0.361803
0.332316
0.30238
0.250986
0.217222
0.1077
0.114722
0.295178
0.292891
0.300637
0.309684
0.316058
0.322138
0.326789
0.330525
0.333386
0.335665
0.337425
0.338924
0.340402
0.342194
0.344474
0.347001
0.348815
0.34838
0.344341
0.33669
0.327203
0.318532
0.31306
0.312391
0.317286
0.327699
0.342772
0.360851
0.379579
0.396145
0.407772
0.412597
0.410739
0.404828
0.398955
0.396977
0.401295
0.412435
0.428547
0.445693
0.459752
0.468401
0.4716
0.47065
0.467045
0.461854
0.455568
0.448255
0.439648
0.429425
0.416936
0.402003
0.383174
0.361505
0.332001
0.302064
0.250717
0.216972
0.107591
0.114555
0.297716
0.294121
0.301283
0.310038
0.316299
0.322346
0.327033
0.330811
0.333732
0.336073
0.3379
0.339466
0.341003
0.342825
0.345087
0.347541
0.349268
0.34882
0.344943
0.337662
0.328684
0.320551
0.315556
0.315237
0.320301
0.330655
0.345423
0.36297
0.380984
0.396683
0.407282
0.410932
0.407856
0.400881
0.394273
0.391978
0.396441
0.408226
0.425431
0.443896
0.45918
0.468721
0.472425
0.471662
0.468036
0.46271
0.45624
0.448731
0.439935
0.429541
0.416906
0.401854
0.382941
0.361218
0.331699
0.301766
0.250467
0.216747
0.107497
0.11441
0.300257
0.295337
0.301923
0.310396
0.316545
0.322562
0.327285
0.331105
0.334088
0.336492
0.33839
0.340025
0.341625
0.343481
0.34573
0.348121
0.349774
0.349327
0.345625
0.338727
0.330267
0.322679
0.318162
0.318184
0.323399
0.333674
0.348122
0.365135
0.382447
0.397296
0.406884
0.409372
0.405097
0.397077
0.389743
0.387118
0.391693
0.404079
0.422344
0.442122
0.458642
0.469093
0.473312
0.472737
0.469084
0.463614
0.45695
0.449236
0.440245
0.429674
0.416888
0.401715
0.382717
0.360943
0.331412
0.301487
0.250237
0.216548
0.107417
0.114287
0.302806
0.296534
0.302557
0.310758
0.316796
0.322785
0.327544
0.331408
0.334454
0.336923
0.338894
0.340601
0.342265
0.34416
0.346403
0.34874
0.350331
0.3499
0.346388
0.33988
0.331947
0.324907
0.320865
0.321217
0.326564
0.336741
0.350859
0.367343
0.383967
0.397986
0.40658
0.40793
0.402482
0.393441
0.385393
0.382428
0.38708
0.400019
0.419304
0.440381
0.458145
0.469518
0.47426
0.473874
0.470189
0.464567
0.457699
0.449771
0.440575
0.429822
0.416882
0.401587
0.382504
0.360681
0.331139
0.301228
0.250026
0.216376
0.107351
0.114187
0.305365
0.29771
0.303184
0.311123
0.31705
0.323014
0.32781
0.331719
0.334828
0.337364
0.33941
0.341192
0.342923
0.34486
0.347102
0.349396
0.350938
0.350539
0.347227
0.341119
0.333714
0.327222
0.32365
0.324319
0.329781
0.339845
0.353627
0.369588
0.385543
0.398752
0.406376
0.406616
0.400029
0.389998
0.381248
0.377933
0.382629
0.39607