/*--------------------------------*- C++ -*----------------------------------*\
| =========                 |                                                 |
| \\      /  F ield         | OpenFOAM: The Open Source CFD Toolbox           |
|  \\    /   O peration     | Version:  2.4.0                                 |
|   \\  /    A nd           | Web:      www.OpenFOAM.org                      |
|    \\/     M anipulation  |                                                 |
\*---------------------------------------------------------------------------*/
FoamFile
{
    version     2.0;
    format      ascii;
    class       surfaceScalarField;
    location    "2.11";
    object      phi;
}
// * * * * * * * * * * * * * * * * * * * * * * * * * * * * * * * * * * * * * //

dimensions      [0 3 -1 0 0 0 0];

internalField   nonuniform List<scalar> 
11840
(
7.85333e-07
9.21467e-06
-1.99883e-08
8.05322e-07
-4.78442e-08
2.78559e-08
-7.30209e-08
2.51767e-08
-8.40506e-08
1.10297e-08
-8.58092e-08
1.75859e-09
-9.00768e-08
4.26762e-09
-8.99442e-08
-1.32667e-10
-9.37257e-08
3.78155e-09
-9.75824e-08
3.85669e-09
-1.04309e-07
6.72656e-09
-1.06538e-07
2.22894e-09
-9.82726e-08
-8.26536e-09
-7.08769e-08
-2.73957e-08
-2.47697e-08
-4.61072e-08
2.99226e-08
-5.46922e-08
7.53966e-08
-4.5474e-08
9.1736e-08
-1.63394e-08
5.55942e-08
3.61418e-08
-5.91901e-08
1.14784e-07
-2.64315e-07
2.05125e-07
-5.45079e-07
2.80764e-07
-8.62246e-07
3.17166e-07
-1.17015e-06
3.07905e-07
-1.42934e-06
2.59192e-07
-1.60938e-06
1.80035e-07
-1.68674e-06
7.7367e-08
-1.64434e-06
-4.24004e-08
-1.47718e-06
-1.67168e-07
-1.19946e-06
-2.77712e-07
-8.46626e-07
-3.52837e-07
-4.68302e-07
-3.78324e-07
-1.14425e-07
-3.53877e-07
1.80166e-07
-2.94591e-07
3.99319e-07
-2.19153e-07
5.3923e-07
-1.39911e-07
6.09436e-07
-7.02059e-08
6.27193e-07
-1.77565e-08
6.11088e-07
1.61048e-08
5.77202e-07
3.38859e-08
5.3778e-07
3.94223e-08
5.01403e-07
3.63766e-08
4.7361e-07
2.7793e-08
4.57423e-07
1.61876e-08
4.5397e-07
3.45251e-09
4.62923e-07
-8.95339e-09
4.8299e-07
-2.00667e-08
5.12596e-07
-2.96064e-08
5.49045e-07
-3.6448e-08
5.9068e-07
-4.16355e-08
6.33178e-07
-4.24982e-08
6.77389e-07
-4.42107e-08
7.15038e-07
-3.76495e-08
7.56416e-07
-4.13771e-08
7.79275e-07
-2.28593e-08
8.23142e-07
-4.3867e-08
8.1891e-07
4.23201e-09
8.95089e-07
-7.61796e-08
8.36899e-07
5.81902e-08
-2.60926e-07
1.91869e-06
1.7296e-05
1.03349e-07
2.62066e-06
-7.35005e-08
2.04706e-07
-1.77566e-07
1.29242e-07
-2.10214e-07
4.36782e-08
-2.28716e-07
2.02605e-08
-2.40035e-07
1.55866e-08
-2.46147e-07
5.97963e-09
-2.56559e-07
1.41936e-08
-2.70195e-07
1.74917e-08
-2.87158e-07
2.36896e-08
-2.91887e-07
6.95809e-09
-2.66298e-07
-3.38542e-08
-1.92436e-07
-1.01258e-07
-7.35378e-08
-1.65005e-07
5.95115e-08
-1.87742e-07
1.56093e-07
-1.42055e-07
1.59336e-07
-1.95826e-08
4.85497e-09
1.90623e-07
-3.55976e-07
4.75615e-07
-9.25852e-07
7.75001e-07
-1.63487e-06
9.89778e-07
-2.37516e-06
1.05746e-06
-3.04242e-06
9.75166e-07
-3.55814e-06
7.74912e-07
-3.86876e-06
4.90655e-07
-3.93785e-06
1.46462e-07
-3.74406e-06
-2.36192e-07
-3.28946e-06
-6.21771e-07
-2.61146e-06
-9.55709e-07
-1.78402e-06
-1.18028e-06
-9.04672e-07
-1.25768e-06
-7.82263e-08
-1.18032e-06
6.10525e-07
-9.83343e-07
1.11512e-06
-7.2375e-07
1.4341e-06
-4.58892e-07
1.592e-06
-2.28102e-07
1.62867e-06
-5.44275e-08
1.58731e-06
5.74703e-08
1.50569e-06
1.155e-07
1.41294e-06
1.32172e-07
1.32946e-06
1.19853e-07
1.26812e-06
8.9141e-08
1.2356e-06
4.87049e-08
1.23382e-06
5.23655e-09
1.2617e-06
-3.68425e-08
1.31582e-06
-7.41826e-08
1.39164e-06
-1.05421e-07
1.48331e-06
-1.2812e-07
1.58525e-06
-1.43582e-07
1.69031e-06
-1.47554e-07
1.79486e-06
-1.48762e-07
1.89043e-06
-1.33213e-07
1.98123e-06
-1.32184e-07
2.05193e-06
-9.3554e-08
2.12908e-06
-1.21022e-07
2.16706e-06
-3.37506e-08
2.26793e-06
-1.77046e-07
2.25228e-06
7.3841e-08
-6.71879e-07
2.91808e-06
2.43779e-05
3.98193e-07
5.14055e-06
-3.88769e-08
6.41775e-07
-2.38518e-07
3.28884e-07
-3.02851e-07
1.08011e-07
-3.46102e-07
6.35119e-08
-3.67517e-07
3.70015e-08
-3.83704e-07
2.21662e-08
-4.02007e-07
3.2497e-08
-4.26506e-07
4.199e-08
-4.52604e-07
4.97876e-08
-4.58773e-07
1.31273e-08
-4.16882e-07
-7.57445e-08
-3.04525e-07
-2.13615e-07
-1.30491e-07
-3.3904e-07
5.45777e-08
-3.7281e-07
1.70476e-07
-2.57953e-07
1.25506e-07
2.53869e-08
-1.75783e-07
4.91912e-07
-7.95326e-07
1.09516e-06
-1.7027e-06
1.68238e-06
-2.76936e-06
2.05643e-06
-3.82468e-06
2.11278e-06
-4.72054e-06
1.87102e-06
-5.35663e-06
1.411e-06
-5.67294e-06
8.06965e-07
-5.63594e-06
1.09469e-07
-5.23486e-06
-6.37274e-07
-4.4908e-06
-1.36584e-06
-3.46709e-06
-1.97942e-06
-2.26764e-06
-2.37973e-06
-1.02157e-06
-2.50374e-06
1.34195e-07
-2.33609e-06
1.09364e-06
-1.94279e-06
1.80358e-06
-1.43369e-06
2.25605e-06
-9.11366e-07
2.48057e-06
-4.52615e-07
2.53073e-06
-1.04588e-07
2.46762e-06
1.2058e-07
2.34667e-06
2.36449e-07
2.21128e-06
2.6756e-07
2.09171e-06
2.39426e-07
2.00652e-06
1.74334e-07
1.96483e-06
9.03886e-08
1.96887e-06
1.19934e-09
2.01625e-06
-8.42229e-08
2.10178e-06
-1.59714e-07
2.21835e-06
-2.21984e-07
2.35775e-06
-2.67527e-07
2.51099e-06
-2.96816e-07
2.6694e-06
-3.05963e-07
2.82455e-06
-3.0392e-07
2.97036e-06
-2.79021e-07
3.10145e-06
-2.63274e-07
3.21667e-06
-2.08768e-07
3.31612e-06
-2.20474e-07
3.40145e-06
-1.19081e-07
3.5029e-06
-2.78498e-07
3.5589e-06
1.78377e-08
-1.12323e-06
3.81011e-06
3.05678e-05
8.15608e-07
8.13505e-06
5.47162e-08
1.40267e-06
-2.51703e-07
6.35302e-07
-3.61895e-07
2.18203e-07
-4.3574e-07
1.37356e-07
-4.72213e-07
7.34744e-08
-5.01195e-07
5.11482e-08
-5.294e-07
6.07027e-08
-5.65206e-07
7.77956e-08
-6.00075e-07
8.46563e-08
-6.07592e-07
2.06446e-08
-5.5269e-07
-1.30646e-07
-4.11657e-07
-3.54648e-07
-2.00381e-07
-5.50316e-07
1.27861e-08
-5.85977e-07
1.21108e-07
-3.66275e-07
2.52298e-09
1.43972e-07
-4.63224e-07
9.57659e-07
-1.3315e-06
1.96343e-06
-2.52919e-06
2.88007e-06
-3.86439e-06
3.39163e-06
-5.11421e-06
3.3626e-06
-6.10566e-06
2.86247e-06
-6.73675e-06
2.0421e-06
-6.95857e-06
1.02878e-06
-6.75441e-06
-9.46889e-08
-6.13352e-06
-1.25817e-06
-5.13809e-06
-2.36127e-06
-3.85075e-06
-3.26676e-06
-2.39186e-06
-3.83861e-06
-9.05975e-07
-3.98963e-06
4.60267e-07
-3.70233e-06
1.60039e-06
-3.08292e-06
2.45396e-06
-2.28726e-06
3.00409e-06
-1.46149e-06
3.27938e-06
-7.27905e-07
3.34022e-06
-1.65426e-07
3.25982e-06
2.0098e-07
3.10739e-06
3.88873e-07
2.93825e-06
4.36701e-07
2.7909e-06
3.86776e-07
2.68845e-06
2.76793e-07
2.64165e-06
1.3718e-07
2.65258e-06
-9.72872e-09
2.71762e-06
-1.49264e-07
2.82994e-06
-2.72032e-07
2.9804e-06
-3.7244e-07
3.15889e-06
-4.46025e-07
3.354e-06
-4.9192e-07
3.55564e-06
-5.07602e-07
3.75235e-06
-5.00638e-07
3.93871e-06
-4.65377e-07
4.10402e-06
-4.28583e-07
4.25419e-06
-3.58937e-07
4.37527e-06
-3.41562e-07
4.49462e-06
-2.38426e-07
4.60239e-06
-3.86269e-07
4.71185e-06
-9.16263e-08
-1.57964e-06
4.61676e-06
3.5951e-05
1.32724e-06
1.14246e-05
2.15805e-07
2.5141e-06
-2.15942e-07
1.06705e-06
-3.86145e-07
3.88407e-07
-4.96787e-07
2.47999e-07
-5.53371e-07
1.30059e-07
-5.97967e-07
9.57442e-08
-6.37988e-07
1.00723e-07
-6.85575e-07
1.25383e-07
-7.2923e-07
1.28311e-07
-7.39047e-07
3.04612e-08
-6.75828e-07
-1.93865e-07
-5.16815e-07
-5.13662e-07
-2.85346e-07
-7.81786e-07
-6.51864e-08
-8.06136e-07
1.45901e-08
-4.46052e-07
-1.95608e-07
3.5417e-07
-8.2769e-07
1.58974e-06
-1.91962e-06
3.05537e-06
-3.34406e-06
4.3045e-06
-4.84789e-06
4.89546e-06
-6.17225e-06
4.68697e-06
-7.14126e-06
3.83148e-06
-7.67082e-06
2.57165e-06
-7.73656e-06
1.09453e-06
-7.34594e-06
-4.85312e-07
-6.5287e-06
-2.07541e-06
-5.342e-06
-3.54796e-06
-3.87758e-06
-4.73118e-06
-2.26043e-06
-5.45577e-06
-6.36996e-07
-5.61306e-06
8.54827e-07
-5.19416e-06
2.11225e-06
-4.34034e-06
3.06366e-06
-3.23867e-06
3.68386e-06
-2.0817e-06
3.99781e-06
-1.04185e-06
4.06774e-06
-2.35365e-07
3.97427e-06
2.94452e-07
3.79694e-06
5.66206e-07
3.60086e-06
6.32781e-07
3.43153e-06
5.56104e-07
3.31576e-06
3.92561e-07
3.26549e-06
1.87454e-07
3.28239e-06
-2.66259e-08
3.36173e-06
-2.28608e-07
3.49528e-06
-4.05582e-07
3.67237e-06
-5.49525e-07
3.88141e-06
-6.55066e-07
4.10934e-06
-7.19848e-07
4.3448e-06
-7.43067e-07
4.5746e-06
-7.30438e-07
4.79284e-06
-6.83612e-07
4.98646e-06
-6.22202e-07
5.16348e-06
-5.35965e-07
5.3046e-06
-4.82673e-07
5.44729e-06
-3.81122e-07
5.56472e-06
-5.03701e-07
5.71121e-06
-2.38114e-07
-2.01802e-06
5.34842e-06
4.06026e-05
1.90561e-06
1.48674e-05
4.52121e-07
3.96759e-06
-1.30102e-07
1.64927e-06
-3.74431e-07
6.32735e-07
-5.28403e-07
4.01971e-07
-6.10272e-07
2.11927e-07
-6.73416e-07
1.58889e-07
-7.27106e-07
1.54413e-07
-7.87025e-07
1.85302e-07
-8.39873e-07
1.81159e-07
-8.53811e-07
4.43998e-08
-7.87888e-07
-2.59788e-07
-6.21684e-07
-6.79866e-07
-3.85452e-07
-1.01802e-06
-1.75661e-07
-1.01593e-06
-1.40496e-07
-4.81217e-07
-4.49775e-07
6.63449e-07
-1.23972e-06
2.37969e-06
-2.51653e-06
4.33217e-06
-4.09308e-06
5.88105e-06
-5.66424e-06
6.46662e-06
-6.95618e-06
5.97891e-06
-7.81236e-06
4.68766e-06
-8.18189e-06
2.94119e-06
-8.07158e-06
9.84213e-07
-7.51162e-06
-1.04527e-06
-6.54489e-06
-3.04214e-06
-5.23319e-06
-4.85966e-06
-3.66757e-06
-6.2968e-06
-1.96915e-06
-7.15419e-06
-2.76206e-07
-7.306e-06
1.2873e-06
-6.75767e-06
2.61822e-06
-5.67125e-06
3.63456e-06
-4.25501e-06
4.30415e-06
-2.75129e-06
4.64716e-06
-1.38486e-06
4.7248e-06
-3.13007e-07
4.62152e-06
3.97729e-07
4.42427e-06
7.63457e-07
4.2061e-06
8.50952e-07
4.01846e-06
7.43746e-07
3.8913e-06
5.19723e-07
3.83743e-06
2.41321e-07
3.85811e-06
-4.73058e-08
3.94765e-06
-3.18144e-07
4.09667e-06
-5.54607e-07
4.29339e-06
-7.46246e-07
4.52511e-06
-8.86789e-07
4.77772e-06
-9.7246e-07
5.03879e-06
-1.00413e-06
5.29418e-06
-9.85832e-07
5.53696e-06
-9.26394e-07
5.75349e-06
-8.38727e-07
5.95095e-06
-7.33426e-07
6.10984e-06
-6.41561e-07
6.26818e-06
-5.39459e-07
6.39639e-06
-6.31914e-07
6.56679e-06
-4.08513e-07
-2.42502e-06
6.01061e-06
4.4592e-05
2.5278e-06
1.83502e-05
7.62087e-07
5.73331e-06
2.63736e-09
2.40872e-06
-3.2558e-07
9.60953e-07
-5.29669e-07
6.06059e-07
-6.42154e-07
3.24412e-07
-7.26924e-07
2.43659e-07
-7.9613e-07
2.23619e-07
-8.69042e-07
2.58214e-07
-9.31845e-07
2.43962e-07
-9.52373e-07
6.4928e-08
-8.8978e-07
-3.22381e-07
-7.26617e-07
-8.4303e-07
-4.98935e-07
-1.2457e-06
-3.13154e-07
-1.20171e-06
-3.32676e-07
-4.61694e-07
-7.41744e-07
1.07252e-06
-1.67039e-06
3.30834e-06
-3.08294e-06
5.74472e-06
-4.73256e-06
7.53067e-06
-6.27777e-06
8.01182e-06
-7.45348e-06
7.15462e-06
-8.14189e-06
5.37607e-06
-8.33373e-06
3.13303e-06
-8.0645e-06
7.14987e-07
-7.37689e-06
-1.73289e-06
-6.31446e-06
-4.10456e-06
-4.934e-06
-6.24012e-06
-3.31984e-06
-7.91097e-06
-1.58567e-06
-8.88835e-06
1.4029e-07
-9.03196e-06
1.74204e-06
-8.35942e-06
3.11396e-06
-7.04317e-06
4.17047e-06
-5.31151e-06
4.87385e-06
-3.45468e-06
5.23832e-06
-1.74933e-06
5.32215e-06
-3.96832e-07
5.21119e-06
5.08684e-07
4.99749e-06
9.77163e-07
4.7604e-06
1.08804e-06
4.55645e-06
9.47697e-07
4.41833e-06
6.57838e-07
4.35963e-06
3.00025e-07
4.38122e-06
-6.88951e-08
4.47663e-06
-4.13553e-07
4.63562e-06
-7.13602e-07
4.84563e-06
-9.56253e-07
5.09316e-06
-1.13431e-06
5.36344e-06
-1.24274e-06
5.64316e-06
-1.28385e-06
5.91779e-06
-1.26045e-06
6.17911e-06
-1.18771e-06
6.4138e-06
-1.07342e-06
6.62675e-06
-9.4638e-07
6.8009e-06
-8.15711e-07
6.96964e-06
-7.08201e-07
7.10823e-06
-7.70504e-07
7.29279e-06
-5.93075e-07
-2.79453e-06
6.60717e-06
4.79848e-05
3.1748e-06
2.17825e-05
1.14204e-06
7.76607e-06
1.99977e-07
3.35078e-06
-2.38326e-07
1.39926e-06
-4.9955e-07
8.67284e-07
-6.48177e-07
4.73038e-07
-7.57821e-07
3.53304e-07
-8.4444e-07
3.10237e-07
-9.31144e-07
3.44919e-07
-1.00495e-06
3.17773e-07
-1.03493e-06
9.48989e-08
-9.81665e-07
-3.75641e-07
-8.30736e-07
-9.93958e-07
-6.22515e-07
-1.45392e-06
-4.707e-07
-1.35352e-06
-5.50033e-07
-3.82361e-07
-1.05259e-06
1.57507e-06
-2.09248e-06
4.34823e-06
-3.58553e-06
7.23777e-06
-5.23186e-06
9.177e-06
-6.67458e-06
9.45454e-06
-7.68097e-06
8.16102e-06
-8.18509e-06
5.8802e-06
-8.21689e-06
3.16482e-06
-7.82764e-06
3.25729e-07
-7.05746e-06
-2.50307e-06
-5.94104e-06
-5.22097e-06
-4.52666e-06
-7.65451e-06
-2.89144e-06
-9.54619e-06
-1.1427e-06
-1.06371e-05
5.97526e-07
-1.07722e-05
2.21448e-06
-9.97637e-06
3.60217e-06
-8.43087e-06
4.67792e-06
-6.38726e-06
5.40146e-06
-4.17821e-06
5.78069e-06
-2.12856e-06
5.86901e-06
-4.85143e-07
5.75155e-06
6.26134e-07
5.52359e-06
1.20513e-06
5.26945e-06
1.34218e-06
5.04999e-06
1.16716e-06
4.90038e-06
8.07444e-07
4.83495e-06
3.65461e-07
4.85432e-06
-8.82618e-08
4.95143e-06
-5.10664e-07
5.11542e-06
-8.77595e-07
5.3332e-06
-1.17403e-06
5.59072e-06
-1.39183e-06
5.87283e-06
-1.52486e-06
6.16554e-06
-1.57656e-06
6.45412e-06
-1.54904e-06
6.72915e-06
-1.46274e-06
6.97797e-06
-1.32224e-06
7.20266e-06
-1.17107e-06
7.38956e-06
-1.00261e-06
7.5653e-06
-8.83935e-07
7.71301e-06
-9.18215e-07
7.90484e-06
-7.84907e-07
-3.12519e-06
7.14167e-06
5.08432e-05
3.83074e-06
2.50935e-05
1.58513e-06
1.00117e-05
4.46647e-07
4.48926e-06
-1.10739e-07
1.95664e-06
-4.36867e-07
1.19341e-06
-6.27397e-07
6.63568e-07
-7.65361e-07
4.91268e-07
-8.71402e-07
4.16278e-07
-9.72852e-07
4.46369e-07
-1.05892e-06
4.03842e-07
-1.10131e-06
1.37292e-07
-1.06299e-06
-4.13966e-07
-9.32134e-07
-1.12481e-06
-7.51793e-07
-1.63426e-06
-6.40397e-07
-1.46492e-06
-7.80119e-07
-2.42639e-07
-1.36401e-06
2.15896e-06
-2.48175e-06
5.46597e-06
-3.99876e-06
8.75478e-06
-5.57507e-06
1.07533e-05
-6.86228e-06
1.07417e-05
-7.6795e-06
8.97823e-06
-8.01418e-06
6.21488e-06
-7.92097e-06
3.07161e-06
-7.44953e-06
-1.4571e-07
-6.62824e-06
-3.32436e-06
-5.48135e-06
-6.36786e-06
-4.04989e-06
-9.08597e-06
-2.40583e-06
-1.11902e-05
-6.52516e-07
-1.23904e-05
1.09001e-06
-1.25147e-05
2.70557e-06
-1.15919e-05
4.09016e-06
-9.81545e-06
5.1669e-06
-7.464e-06
5.89659e-06
-4.90791e-06
6.28281e-06
-2.51479e-06
6.37304e-06
-5.75374e-07
6.24944e-06
7.4974e-07
6.00849e-06
1.44608e-06
5.73824e-06
1.61243e-06
5.50327e-06
1.40213e-06
5.34105e-06
9.69664e-07
5.2667e-06
4.39813e-07
5.28076e-06
-1.02318e-07
5.37577e-06
-6.0568e-07
5.54046e-06
-1.04228e-06
5.76139e-06
-1.39496e-06
6.02414e-06
-1.65459e-06
6.31336e-06
-1.81407e-06
6.61448e-06
-1.87768e-06
6.91277e-06
-1.84733e-06
7.19766e-06
-1.74764e-06
7.45724e-06
-1.58182e-06
7.69081e-06
-1.40464e-06
7.88813e-06
-1.19993e-06
8.06868e-06
-1.06448e-06
8.22391e-06
-1.07345e-06
8.41831e-06
-9.79312e-07
-3.41849e-06
7.61794e-06
5.32252e-05
4.48245e-06
2.8229e-05
2.08254e-06
1.24116e-05
7.4827e-07
5.82353e-06
5.91476e-08
2.64576e-06
-3.40301e-07
1.59286e-06
-5.78762e-07
9.0203e-07
-7.48708e-07
6.61214e-07
-8.76356e-07
5.43926e-07
-9.93677e-07
5.6369e-07
-1.09337e-06
5.03532e-07
-1.15106e-06
1.94989e-07
-1.13261e-06
-4.32418e-07
-1.02814e-06
-1.22928e-06
-8.81667e-07
-1.78074e-06
-8.13954e-07
-1.53263e-06
-1.01067e-06
-4.59247e-08
-1.65905e-06
2.80735e-06
-2.8181e-06
6.62502e-06
-4.30609e-06
1.02428e-05
-5.76086e-06
1.22081e-05
-6.86562e-06
1.18465e-05
-7.50075e-06
9.61337e-06
-7.69543e-06
6.40956e-06
-7.51001e-06
2.88618e-06
-6.98162e-06
-6.74095e-07
-6.12628e-06
-4.17971e-06
-4.96029e-06
-7.53385e-06
-3.51947e-06
-1.05268e-05
-1.87249e-06
-1.28372e-05
-1.20085e-07
-1.41428e-05
1.61501e-06
-1.42498e-05
3.2176e-06
-1.31945e-05
4.5858e-06
-1.11837e-05
5.64865e-06
-8.52685e-06
6.37046e-06
-5.62972e-06
6.75379e-06
-2.89811e-06
6.84131e-06
-6.62896e-07
6.7106e-06
8.80452e-07
6.45711e-06
1.69956e-06
6.17109e-06
1.89845e-06
5.92015e-06
1.65306e-06
5.74393e-06
1.14588e-06
5.65846e-06
5.25286e-07
5.66436e-06
-1.08224e-07
5.75399e-06
-6.95308e-07
5.91579e-06
-1.20408e-06
6.13612e-06
-1.6153e-06
6.40033e-06
-1.91879e-06
6.69289e-06
-2.10664e-06
6.99885e-06
-2.18364e-06
7.30344e-06
-2.15192e-06
7.59517e-06
-2.03936e-06
7.86273e-06
-1.84938e-06
8.10297e-06
-1.64488e-06
8.30862e-06
-1.40558e-06
8.49257e-06
-1.24843e-06
8.65369e-06
-1.23457e-06
8.84757e-06
-1.1732e-06
-3.67732e-06
8.04004e-06
5.51852e-05
5.11919e-06
3.11498e-05
2.62411e-06
1.49067e-05
1.10438e-06
7.34326e-06
2.72863e-07
3.47728e-06
-2.08432e-07
2.07415e-06
-5.01109e-07
1.19471e-06
-7.06928e-07
8.67032e-07
-8.58608e-07
6.95607e-07
-9.93113e-07
6.98195e-07
-1.10782e-06
6.18243e-07
-1.18343e-06
2.70595e-07
-1.18895e-06
-4.26896e-07
-1.11561e-06
-1.30263e-06
-1.00672e-06
-1.88962e-06
-9.83143e-07
-1.55621e-06
-1.23011e-06
2.01037e-07
-1.92289e-06
3.50013e-06
-3.08649e-06
7.78862e-06
-4.50025e-06
1.16565e-05
-5.79999e-06
1.35078e-05
-6.71783e-06
1.27643e-05
-7.19236e-06
1.00879e-05
-7.27594e-06
6.49315e-06
-7.02097e-06
2.63121e-06
-6.44987e-06
-1.24519e-06
-5.56915e-06
-5.06042e-06
-4.38965e-06
-8.71334e-06
-2.94345e-06
-1.1973e-05
-1.29711e-06
-1.44836e-05
4.47907e-07
-1.58878e-05
2.17034e-06
-1.59722e-05
3.75225e-06
-1.47764e-05
5.09507e-06
-1.25265e-05
6.13277e-06
-9.56456e-06
6.83411e-06
-6.33106e-06
7.20345e-06
-3.26745e-06
7.28121e-06
-7.40655e-07
7.14047e-06
1.02119e-06
6.87381e-06
1.96621e-06
6.57181e-06
2.20046e-06
6.30419e-06
1.92068e-06
6.11254e-06
1.33753e-06
6.01391e-06
6.23921e-07
6.00919e-06
-1.0351e-07
6.0907e-06
-7.76817e-07
6.24674e-06
-1.36011e-06
6.46355e-06
-1.83211e-06
6.72629e-06
-2.18152e-06
7.01932e-06
-2.39967e-06
7.32733e-06
-2.49165e-06
7.63554e-06
-2.46013e-06
7.93169e-06
-2.33551e-06
8.20496e-06
-2.12265e-06
8.45012e-06
-1.89004e-06
8.66227e-06
-1.61773e-06
8.84868e-06
-1.43484e-06
9.01417e-06
-1.40005e-06
9.20557e-06
-1.3646e-06
-3.90512e-06
8.41222e-06
5.6773e-05
5.73243e-06
3.38296e-05
3.19902e-06
1.74401e-05
1.51297e-06
9.02931e-06
5.33143e-07
4.45711e-06
-3.99927e-08
2.64729e-06
-3.93158e-07
1.54787e-06
-6.38973e-07
1.11285e-06
-8.17419e-07
8.74052e-07
-9.70632e-07
8.51408e-07
-1.10175e-06
7.49358e-07
-1.19747e-06
3.66315e-07
-1.23013e-06
-3.94236e-07
-1.19113e-06
-1.34163e-06
-1.12156e-06
-1.9592e-06
-1.14017e-06
-1.53759e-06
-1.42799e-06
4.88854e-07
-2.14339e-06
4.21553e-06
-3.27739e-06
8.92263e-06
-4.58218e-06
1.29613e-05
-5.71058e-06
1.46362e-05
-6.45177e-06
1.35055e-05
-6.79032e-06
1.04264e-05
-6.78494e-06
6.48777e-06
-6.47427e-06
2.32054e-06
-5.86831e-06
-1.85115e-06
-4.96691e-06
-5.96182e-06
-3.77695e-06
-9.90331e-06
-2.32774e-06
-1.34222e-05
-6.84698e-07
-1.61266e-05
1.04984e-06
-1.76224e-05
2.75396e-06
-1.76764e-05
4.31005e-06
-1.63325e-05
5.6215e-06
-1.38379e-05
6.62598e-06
-1.0569e-05
7.29659e-06
-7.00166e-06
7.64116e-06
-3.61202e-06
7.70051e-06
-8.00012e-07
7.54473e-06
1.17697e-06
7.26281e-06
2.24814e-06
6.94394e-06
2.51933e-06
6.65874e-06
2.20587e-06
6.45032e-06
1.54595e-06
6.33675e-06
7.37487e-07
6.31939e-06
-8.61435e-08
6.39061e-06
-8.48046e-07
6.53869e-06
-1.50819e-06
6.74978e-06
-2.04321e-06
7.00886e-06
-2.4406e-06
7.30018e-06
-2.69099e-06
7.60813e-06
-2.79961e-06
7.91788e-06
-2.76988e-06
8.21653e-06
-2.63417e-06
8.49361e-06
-2.39972e-06
8.74225e-06
-2.13868e-06
8.95931e-06
-1.83479e-06
9.1475e-06
-1.62304e-06
9.316e-06
-1.56855e-06
9.50371e-06
-1.55231e-06
-4.10536e-06
8.73875e-06
5.80342e-05
6.3157e-06
3.62527e-05
3.79636e-06
1.99594e-05
1.97046e-06
1.08552e-05
8.41182e-07
5.58639e-06
1.67939e-07
3.32053e-06
-2.53495e-07
1.96931e-06
-5.43661e-07
1.40301e-06
-7.51967e-07
1.08236e-06
-9.25661e-07
1.0251e-06
-1.07452e-06
8.98218e-07
-1.19208e-06
4.83872e-07
-1.25408e-06
-3.32233e-07
-1.25128e-06
-1.34443e-06
-1.22106e-06
-1.98942e-06
-1.278e-06
-1.48065e-06
-1.59544e-06
8.06291e-07
-2.31158e-06
4.93167e-06
-3.38658e-06
9.99763e-06
-4.55893e-06
1.41337e-05
-5.51321e-06
1.55905e-05
-6.09493e-06
1.40872e-05
-6.31931e-06
1.06508e-05
-6.24029e-06
6.40874e-06
-5.88233e-06
1.96258e-06
-5.24611e-06
-2.48737e-06
-4.32681e-06
-6.88112e-06
-3.12821e-06
-1.11019e-05
-1.67753e-06
-1.48729e-05
-3.79491e-08
-1.77662e-05
1.68111e-06
-1.93414e-05
3.3636e-06
-1.93588e-05
4.89048e-06
-1.78594e-05
6.16658e-06
-1.5114e-05
7.13222e-06
-1.15347e-05
7.76427e-06
-7.63371e-06
8.07468e-06
-3.92243e-06
8.10666e-06
-8.31998e-07
7.92933e-06
1.3543e-06
7.62854e-06
2.54894e-06
7.29104e-06
2.85683e-06
6.98708e-06
2.50983e-06
6.76063e-06
1.77241e-06
6.63066e-06
8.67452e-07
6.59905e-06
-5.45339e-08
6.65838e-06
-9.07378e-07
6.7969e-06
-1.64671e-06
7.0007e-06
-2.247e-06
7.25456e-06
-2.69446e-06
7.54257e-06
-2.979e-06
7.84886e-06
-3.10589e-06
8.15849e-06
-3.07951e-06
8.45811e-06
-2.9338e-06
8.73741e-06
-2.67902e-06
8.98833e-06
-2.3896e-06
9.20887e-06
-2.05533e-06
9.39829e-06
-1.81245e-06
9.56859e-06
-1.73885e-06
9.7519e-06
-1.73562e-06
-4.28126e-06
9.02388e-06
5.90103e-05
6.86429e-06
3.84123e-05
4.40555e-06
2.24182e-05
2.47177e-06
1.2789e-05
1.19745e-06
6.86072e-06
4.16072e-07
4.10191e-06
-8.03199e-08
2.4657e-06
-4.19634e-07
1.74233e-06
-6.61307e-07
1.32403e-06
-8.57532e-07
1.22133e-06
-1.02543e-06
1.06612e-06
-1.16604e-06
6.24475e-07
-1.25867e-06
-2.396e-07
-1.29276e-06
-1.31034e-06
-1.30061e-06
-1.98156e-06
-1.39056e-06
-1.3907e-06
-1.7254e-06
1.14113e-06
-2.42175e-06
5.62802e-06
-3.41434e-06
1.09902e-05
-4.44113e-06
1.51605e-05
-5.22746e-06
1.63768e-05
-5.66835e-06
1.45281e-05
-5.79589e-06
1.07784e-05
-5.65366e-06
6.26652e-06
-5.25383e-06
1.56275e-06
-4.5903e-06
-3.15091e-06
-3.65484e-06
-7.81658e-06
-2.44873e-06
-1.2308e-05
-9.97625e-07
-1.6324e-05
6.32607e-07
-1.93964e-05
2.33796e-06
-2.10468e-05
3.99668e-06
-2.10176e-05
5.49212e-06
-1.93549e-05
6.73025e-06
-1.63522e-05
7.65327e-06
-1.24577e-05
8.2411e-06
-8.22154e-06
8.50977e-06
-4.19109e-06
8.50605e-06
-8.28281e-07
8.30003e-06
1.56032e-06
7.9756e-06
2.87337e-06
7.61681e-06
3.21561e-06
7.29254e-06
2.8341e-06
7.04681e-06
2.01814e-06
6.89925e-06
1.01501e-06
6.85221e-06
-7.49806e-09
6.89851e-06
-9.53675e-07
7.0264e-06
-1.7746e-06
7.22183e-06
-2.44243e-06
7.4694e-06
-2.94203e-06
7.75297e-06
-3.26257e-06
8.0564e-06
-3.40933e-06
8.36462e-06
-3.38772e-06
8.66394e-06
-3.23313e-06
8.94411e-06
-2.95919e-06
9.19623e-06
-2.64172e-06
9.41897e-06
-2.27807e-06
9.60909e-06
-2.00257e-06
9.78013e-06
-1.90988e-06
9.95864e-06
-1.91414e-06
-4.4356e-06
9.27173e-06
5.97386e-05
7.37509e-06
4.03089e-05
5.01672e-06
2.47766e-05
3.01052e-06
1.47952e-05
1.60131e-06
8.26993e-06
7.06324e-07
4.99689e-06
1.28173e-07
3.04385e-06
-2.65358e-07
2.13586e-06
-5.44321e-07
1.60299e-06
-7.65432e-07
1.44244e-06
-9.53648e-07
1.25434e-06
-1.11802e-06
7.88846e-07
-1.24176e-06
-1.15864e-07
-1.31253e-06
-1.23957e-06
-1.35625e-06
-1.93784e-06
-1.47298e-06
-1.27398e-06
-1.81286e-06
1.48101e-06
-2.47127e-06
6.28643e-06
-3.36439e-06
1.18833e-05
-4.24081e-06
1.60369e-05
-4.8702e-06
1.70062e-05
-5.1876e-06
1.48455e-05
-5.23152e-06
1.08223e-05
-5.03341e-06
6.0684e-06
-4.59547e-06
1.12481e-06
-3.90669e-06
-3.83969e-06
-2.95624e-06
-8.76703e-06
-1.7433e-06
-1.3521e-05
-2.92407e-07
-1.77749e-05
1.3289e-06
-2.10177e-05
3.01696e-06
-2.27348e-05
4.65042e-06
-2.2651e-05
6.11289e-06
-2.08173e-05
7.31134e-06
-1.75506e-05
8.18934e-06
-1.33357e-05
8.72911e-06
-8.76131e-06
8.95026e-06
-4.41225e-06
8.90369e-06
-7.81704e-07
8.66197e-06
1.80203e-06
8.30852e-06
3.22682e-06
7.92505e-06
3.59908e-06
7.57847e-06
3.18068e-06
7.3122e-06
2.28442e-06
7.14605e-06
1.18116e-06
7.08275e-06
5.58052e-08
7.11528e-06
-9.8621e-07
7.23188e-06
-1.89119e-06
7.41832e-06
-2.62887e-06
7.6589e-06
-3.18261e-06
7.93724e-06
-3.5409e-06
8.23692e-06
-3.709e-06
8.54268e-06
-3.69349e-06
8.84064e-06
-3.53108e-06
9.12048e-06
-3.23903e-06
9.37281e-06
-2.89405e-06
9.59658e-06
-2.50184e-06
9.78689e-06
-2.19288e-06
9.95765e-06
-2.08064e-06
1.01312e-05
-2.08767e-06
-4.57075e-06
9.48624e-06
6.02524e-05
7.84635e-06
4.19488e-05
5.62095e-06
2.7002e-05
3.57932e-06
1.68368e-05
2.05092e-06
9.79834e-06
1.04007e-06
6.00774e-06
3.74102e-07
3.70982e-06
-7.91739e-08
2.58913e-06
-3.99695e-07
1.92352e-06
-6.48364e-07
1.69111e-06
-8.58202e-07
1.46417e-06
-1.04664e-06
9.77286e-07
-1.20128e-06
3.87766e-08
-1.30788e-06
-1.13297e-06
-1.38473e-06
-1.86099e-06
-1.52164e-06
-1.13706e-06
-1.85479e-06
1.81416e-06
-2.46017e-06
6.89181e-06
-3.24266e-06
1.26658e-05
-3.9699e-06
1.67641e-05
-4.4553e-06
1.74916e-05
-4.66418e-06
1.50544e-05
-4.63457e-06
1.07927e-05
-4.38599e-06
5.81981e-06
-3.9128e-06
6.51628e-07
-3.20031e-06
-4.55217e-06
-2.23564e-06
-9.7317e-06
-1.01623e-06
-1.47404e-05
4.33318e-07
-1.92244e-05
2.04497e-06
-2.26294e-05
3.71472e-06
-2.44046e-05
5.3218e-06
-2.42581e-05
6.75024e-06
-2.22458e-05
7.90796e-06
-1.87083e-05
8.73954e-06
-1.41673e-05
9.22886e-06
-9.25062e-06
9.39842e-06
-4.58181e-06
9.30322e-06
-6.86507e-07
9.01944e-06
2.08582e-06
8.63145e-06
3.6148e-06
8.21946e-06
4.01108e-06
7.84826e-06
3.55188e-06
7.56008e-06
2.5726e-06
7.3745e-06
1.36674e-06
7.29435e-06
1.35949e-07
7.31272e-06
-1.00458e-06
7.4177e-06
-1.99618e-06
7.59482e-06
-2.80599e-06
7.82804e-06
-3.41583e-06
8.10061e-06
-3.81347e-06
8.39585e-06
-4.00425e-06
8.69831e-06
-3.99595e-06
8.99396e-06
-3.82673e-06
9.27239e-06
-3.51746e-06
9.52402e-06
-3.14567e-06
9.74768e-06
-2.7255e-06
9.93765e-06
-2.38286e-06
1.01072e-05
-2.25016e-06
1.02756e-05
-2.25611e-06
-4.68859e-06
9.67115e-06
6.05812e-05
8.27745e-06
4.33425e-05
6.21045e-06
2.9069e-05
4.17012e-06
1.88771e-05
2.54311e-06
1.14253e-05
1.41804e-06
7.1328e-06
6.59448e-07
4.46842e-06
1.4088e-07
3.1077e-06
-2.25922e-07
2.29032e-06
-5.05132e-07
1.97032e-06
-7.3801e-07
1.69705e-06
-9.50514e-07
1.18979e-06
-1.13534e-06
2.23598e-07
-1.27649e-06
-9.9181e-07
-1.38355e-06
-1.75393e-06
-1.53422e-06
-9.86395e-07
-1.85002e-06
2.12996e-06
-2.39053e-06
7.43233e-06
-3.05626e-06
1.33316e-05
-3.6394e-06
1.73473e-05
-3.99392e-06
1.78461e-05
-4.10682e-06
1.51673e-05
-4.01149e-06
1.06974e-05
-3.71667e-06
5.52499e-06
-3.21055e-06
1.45507e-07
-2.47556e-06
-5.28716e-06
-1.49717e-06
-1.07101e-05
-2.71379e-07
-1.59662e-05
1.17612e-06
-2.06719e-05
2.77722e-06
-2.42305e-05
4.42791e-06
-2.60553e-05
6.0077e-06
-2.58379e-05
7.40128e-06
-2.36393e-05
8.51766e-06
-1.98247e-05
9.30222e-06
-1.49518e-05
9.73986e-06
-9.68826e-06
9.85523e-06
-4.69719e-06
9.70709e-06
-5.38364e-07
9.37578e-06
2.41713e-06
8.94801e-06
4.04257e-06
8.50348e-06
4.45561e-06
8.10512e-06
3.95023e-06
7.79359e-06
2.88413e-06
7.58782e-06
1.57252e-06
7.49046e-06
2.33305e-07
7.4945e-06
-1.00861e-06
7.58781e-06
-2.08949e-06
7.75552e-06
-2.97371e-06
7.98119e-06
-3.64149e-06
8.24765e-06
-4.07994e-06
8.53793e-06
-4.29453e-06
8.83637e-06
-4.29439e-06
9.12887e-06
-4.11923e-06
9.4049e-06
-3.79349e-06
9.65492e-06
-3.39569e-06
9.8774e-06
-2.94798e-06
1.00665e-05
-2.57193e-06
1.02338e-05
-2.4175e-06
1.03971e-05
-2.41943e-06
-4.79056e-06
9.82997e-06
6.07512e-05
8.66871e-06
4.45037e-05
6.77863e-06
3.0959e-05
4.77455e-06
2.08812e-05
3.07345e-06
1.31264e-05
1.84009e-06
8.36617e-06
9.85822e-07
5.32268e-06
3.96615e-07
3.69691e-06
-2.11736e-08
2.70811e-06
-3.34351e-07
2.28349e-06
-5.91893e-07
1.95459e-06
-8.28278e-07
1.42617e-06
-1.04217e-06
4.37494e-07
-1.21639e-06
-8.17597e-07
-1.35092e-06
-1.6194e-06
-1.50955e-06
-8.27772e-07
-1.79898e-06
2.41939e-06
-2.26596e-06
7.89931e-06
-2.81269e-06
1.38783e-05
-3.25903e-06
1.77936e-05
-3.49499e-06
1.80821e-05
-3.52227e-06
1.51946e-05
-3.36746e-06
1.05425e-05
-3.0299e-06
5.18743e-06
-2.49278e-06
-3.91611e-07
-1.73627e-06
-6.04368e-06
-7.44448e-07
-1.17019e-05
4.87207e-07
-1.71978e-05
1.93241e-06
-2.21171e-05
3.52239e-06
-2.58204e-05
5.15332e-06
-2.76862e-05
6.70489e-06
-2.73895e-05
8.0629e-06
-2.49974e-05
9.13766e-06
-2.08995e-05
9.87519e-06
-1.56894e-05
1.02609e-05
-1.00739e-05
1.03207e-05
-4.75705e-06
1.01167e-05
-3.34313e-07
9.73347e-06
2.80033e-06
9.26118e-06
4.51486e-06
8.78018e-06
4.93661e-06
8.35202e-06
4.37839e-06
8.01567e-06
3.22048e-06
7.789e-06
1.79919e-06
7.67421e-06
3.48104e-07
7.66394e-06
-9.98344e-07
7.74568e-06
-2.17123e-06
7.90408e-06
-3.13211e-06
8.12216e-06
-3.85957e-06
8.38229e-06
-4.34008e-06
8.66721e-06
-4.57944e-06
8.96101e-06
-4.58819e-06
9.2496e-06
-4.40782e-06
9.5223e-06
-4.0662e-06
9.76983e-06
-3.64321e-06
9.99009e-06
-3.16824e-06
1.01776e-05
-2.75947e-06
1.03418e-05
-2.58172e-06
1.05e-05
-2.57757e-06
-4.87772e-06
9.96597e-06
6.07853e-05
9.02121e-06
4.54485e-05
7.32014e-06
3.26601e-05
5.38424e-06
2.28171e-05
3.63636e-06
1.48743e-05
2.30503e-06
9.6975e-06
1.35438e-06
6.27333e-06
6.89886e-07
4.3614e-06
2.1627e-07
3.18172e-06
-1.34473e-07
2.63424e-06
-4.18584e-07
2.23871e-06
-6.78634e-07
1.68623e-06
-9.20252e-07
6.79111e-07
-1.12593e-06
-6.11922e-07
-1.28564e-06
-1.45968e-06
-1.44747e-06
-6.65951e-07
-1.70334e-06
2.67526e-06
-2.09096e-06
8.28693e-06
-2.51937e-06
1.43067e-05
-2.83722e-06
1.81115e-05
-2.96572e-06
1.82106e-05
-2.91597e-06
1.51449e-05
-2.70676e-06
1.03333e-05
-2.32942e-06
4.81009e-06
-1.76299e-06
-9.58045e-07
-9.8576e-07
-6.8209e-06
1.94559e-08
-1.27071e-05
1.25655e-06
-1.84349e-05
2.699e-06
-2.35596e-05
4.27749e-06
-2.73989e-05
5.88786e-06
-2.92966e-05
7.41018e-06
-2.89118e-05
8.7319e-06
-2.63191e-05
9.76494e-06
-2.19325e-05
1.04559e-05
-1.63803e-05
1.07901e-05
-1.04081e-05
1.07942e-05
-4.76116e-06
1.05325e-05
-7.26515e-08
1.00942e-05
3.23869e-06
9.57334e-06
5.03569e-06
9.0522e-06
5.45776e-06
8.59162e-06
4.83897e-06
8.22895e-06
3.58314e-06
7.98074e-06
2.0474e-06
7.84838e-06
4.80472e-07
7.82394e-06
-9.73909e-07
7.89435e-06
-2.24164e-06
8.04363e-06
-3.28139e-06
8.25418e-06
-4.07011e-06
8.50787e-06
-4.59377e-06
8.78707e-06
-4.85865e-06
9.07569e-06
-4.87681e-06
9.35966e-06
-4.69179e-06
9.62819e-06
-4.33473e-06
9.87235e-06
-3.88737e-06
1.00894e-05
-3.3853e-06
1.02747e-05
-2.94481e-06
1.0435e-05
-2.74192e-06
1.05878e-05
-2.73047e-06
-4.95079e-06
1.00821e-05
6.07031e-05
9.33664e-06
4.6194e-05
7.8309e-06
3.41658e-05
5.99116e-06
2.46569e-05
4.2253e-06
1.66402e-05
2.81052e-06
1.11123e-05
1.76564e-06
7.31821e-06
1.0224e-06
5.10465e-06
4.88629e-07
3.71549e-06
9.62317e-08
3.02663e-06
-2.16744e-07
2.55168e-06
-5.00348e-07
1.96983e-06
-7.68217e-07
9.4698e-07
-1.00375e-06
-3.76388e-07
-1.18696e-06
-1.27647e-06
-1.34857e-06
-5.04338e-07
-1.56566e-06
2.89235e-06
-1.87057e-06
8.59184e-06
-2.1833e-06
1.46194e-05
-2.3812e-06
1.83093e-05
-2.41203e-06
1.82414e-05
-2.29237e-06
1.50252e-05
-2.03302e-06
1.0074e-05
-1.61844e-06
4.39552e-06
-1.02417e-06
-1.55231e-06
-2.26904e-07
-7.61817e-06
7.91063e-07
-1.37251e-05
2.03369e-06
-1.96775e-05
3.47319e-06
-2.49991e-05
5.03979e-06
-2.89655e-05
6.62856e-06
-3.08853e-05
8.12039e-06
-3.04036e-05
9.40498e-06
-2.76037e-05
1.03963e-05
-2.29238e-05
1.10415e-05
-1.70255e-05
1.13254e-05
-1.0692e-05
1.12744e-05
-4.71016e-06
1.09545e-05
2.47198e-07
1.04589e-05
3.73434e-06
9.88626e-06
5.60829e-06
9.32169e-06
6.02234e-06
8.82619e-06
5.33447e-06
8.43575e-06
3.97358e-06
8.16539e-06
2.31776e-06
8.01538e-06
6.30475e-07
7.977e-06
-9.35528e-07
8.03639e-06