/*--------------------------------*- C++ -*----------------------------------*\
| =========                 |                                                 |
| \\      /  F ield         | OpenFOAM: The Open Source CFD Toolbox           |
|  \\    /   O peration     | Version:  2.4.0                                 |
|   \\  /    A nd           | Web:      www.OpenFOAM.org                      |
|    \\/     M anipulation  |                                                 |
\*---------------------------------------------------------------------------*/
FoamFile
{
    version     2.0;
    format      ascii;
    class       volScalarField;
    location    "1.63";
    object      nut;
}
// * * * * * * * * * * * * * * * * * * * * * * * * * * * * * * * * * * * * * //

dimensions      [0 2 -1 0 0 0 0];

internalField   nonuniform List<scalar> 
6000
(
4.70175e-05
1.44203e-05
4.29083e-06
8.76587e-06
7.8149e-06
8.97775e-06
8.66922e-06
9.23301e-06
9.51139e-06
9.88856e-06
9.08118e-06
6.74361e-06
4.2697e-06
7.32129e-06
9.26828e-06
8.86334e-06
8.77821e-06
1.7263e-05
2.6274e-05
3.45757e-05
4.13417e-05
4.59845e-05
4.81048e-05
4.74503e-05
4.40545e-05
3.81913e-05
3.02508e-05
2.06167e-05
1.09327e-05
9.30037e-06
1.44804e-05
1.74139e-05
1.89333e-05
1.96435e-05
1.99602e-05
2.01661e-05
2.0441e-05
2.08831e-05
2.15298e-05
2.23757e-05
2.33876e-05
2.45153e-05
2.56993e-05
2.68771e-05
2.79878e-05
2.89831e-05
2.9826e-05
3.05119e-05
3.1034e-05
3.14491e-05
3.17271e-05
3.20307e-05
3.21375e-05
3.2557e-05
3.23755e-05
3.33257e-05
3.22861e-05
3.47726e-05
3.16314e-05
3.70169e-05
2.94907e-05
9.48824e-06
3.21136e-06
7.01132e-06
6.34571e-06
7.06025e-06
6.87068e-06
7.26041e-06
7.45948e-06
7.63085e-06
6.94163e-06
5.33346e-06
4.42449e-06
6.45217e-06
7.65562e-06
7.88917e-06
9.54383e-06
1.48824e-05
1.9975e-05
2.4186e-05
2.71869e-05
2.88184e-05
2.90331e-05
2.78348e-05
2.54315e-05
2.19608e-05
1.75147e-05
1.22741e-05
7.99982e-06
8.5894e-06
1.10774e-05
1.25666e-05
1.33776e-05
1.37998e-05
1.40413e-05
1.4243e-05
1.4491e-05
1.48286e-05
1.5268e-05
1.58006e-05
1.64051e-05
1.70533e-05
1.77136e-05
1.83545e-05
1.89471e-05
1.94698e-05
1.99078e-05
2.02616e-05
2.05312e-05
2.07452e-05
2.08925e-05
2.10487e-05
2.11139e-05
2.1322e-05
2.12523e-05
2.17091e-05
2.12331e-05
2.24182e-05
2.09294e-05
2.33708e-05
2.14311e-05
8.14798e-06
2.84908e-06
5.89288e-06
5.35044e-06
5.72533e-06
5.59938e-06
5.87069e-06
6.01537e-06
6.06279e-06
5.50957e-06
4.56777e-06
4.67402e-06
5.92013e-06
6.82795e-06
7.78486e-06
9.92257e-06
1.32864e-05
1.60917e-05
1.80064e-05
1.89531e-05
1.90003e-05
1.82852e-05
1.69742e-05
1.52681e-05
1.32068e-05
1.07893e-05
8.26328e-06
7.27795e-06
7.823e-06
8.78873e-06
9.49391e-06
9.93218e-06
1.02032e-05
1.03971e-05
1.05779e-05
1.07838e-05
1.10321e-05
1.13254e-05
1.16573e-05
1.20162e-05
1.23877e-05
1.27567e-05
1.31085e-05
1.34299e-05
1.37113e-05
1.39465e-05
1.4136e-05
1.4281e-05
1.43945e-05
1.44746e-05
1.45532e-05
1.45925e-05
1.46885e-05
1.46695e-05
1.48703e-05
1.46752e-05
1.51892e-05
1.45498e-05
1.54634e-05
1.78743e-05
7.96161e-06
3.01571e-06
5.2705e-06
4.73208e-06
4.81723e-06
4.71179e-06
4.89832e-06
5.01033e-06
5.00053e-06
4.62115e-06
4.32536e-06
5.0109e-06
5.73341e-06
6.63586e-06
8.13243e-06
1.008e-05
1.2128e-05
1.34907e-05
1.40481e-05
1.3899e-05
1.32448e-05
1.22921e-05
1.12595e-05
1.01918e-05
9.07733e-06
7.94106e-06
7.25791e-06
8.03722e-06
7.47632e-06
7.43738e-06
7.63562e-06
7.83129e-06
7.99413e-06
8.13818e-06
8.28117e-06
8.43439e-06
8.60224e-06
8.78436e-06
8.97761e-06
9.17739e-06
9.37833e-06
9.57469e-06
9.76075e-06
9.93102e-06
1.00809e-05
1.02071e-05
1.03085e-05
1.03858e-05
1.04436e-05
1.04834e-05
1.05166e-05
1.05347e-05
1.0568e-05
1.05651e-05
1.06324e-05
1.05678e-05
1.07397e-05
1.05167e-05
1.06604e-05
1.6754e-05
8.44038e-06
3.5592e-06
5.0558e-06
4.44224e-06
4.24719e-06
4.12398e-06
4.24572e-06
4.34809e-06
4.34328e-06
4.19446e-06
4.55301e-06
5.47574e-06
5.89385e-06
6.94095e-06
8.62919e-06
1.01404e-05
1.12768e-05
1.17318e-05
1.15674e-05
1.10117e-05
1.03263e-05
9.72414e-06
9.28372e-06
8.91092e-06
8.55751e-06
8.37176e-06
9.18077e-06
1.01319e-05
7.91975e-06
6.97341e-06
6.71313e-06
6.67864e-06
6.72317e-06
6.79756e-06
6.88406e-06
6.97515e-06
7.06713e-06
7.15826e-06
7.24796e-06
7.33614e-06
7.42274e-06
7.50735e-06
7.5889e-06
7.66553e-06
7.73464e-06
7.79354e-06
7.83993e-06
7.87303e-06
7.89318e-06
7.90287e-06
7.9043e-06
7.90139e-06
7.89587e-06
7.88922e-06
7.88619e-06
7.87181e-06
7.87528e-06
7.83581e-06
7.62124e-06
1.71079e-05
9.39548e-06
4.4141e-06
5.17062e-06
4.45863e-06
3.97091e-06
3.79157e-06
3.85983e-06
3.98036e-06
4.04639e-06
4.20768e-06
5.22564e-06
6.1177e-06
6.38936e-06
7.58166e-06
9.1559e-06
1.02216e-05
1.07618e-05
1.0756e-05
1.04317e-05
1.01141e-05
1.00949e-05
1.05619e-05
1.12479e-05
1.1902e-05
1.23861e-05
1.30198e-05
1.4705e-05
1.37308e-05
9.53636e-06
7.48218e-06
6.63947e-06
6.29833e-06
6.17249e-06
6.14051e-06
6.14658e-06
6.16391e-06
6.18023e-06
6.1912e-06
6.19674e-06
6.19882e-06
6.20001e-06
6.20257e-06
6.20775e-06
6.21545e-06
6.22398e-06
6.23079e-06
6.23278e-06
6.22815e-06
6.21515e-06
6.19599e-06
6.16925e-06
6.14292e-06
6.10842e-06
6.08652e-06
6.04375e-06
6.03736e-06
5.96205e-06
5.98624e-06
5.63144e-06
1.83889e-05
1.07087e-05
5.53871e-06
5.53451e-06
4.75736e-06
3.9735e-06
3.69807e-06
3.71896e-06
3.89364e-06
4.10909e-06
4.68742e-06
6.30884e-06
6.97303e-06
7.18123e-06
8.41074e-06
9.72372e-06
1.04528e-05
1.07132e-05
1.07152e-05
1.08676e-05
1.16388e-05
1.34091e-05
1.62285e-05
1.90475e-05
2.12466e-05
2.244e-05
2.30441e-05
2.33751e-05
1.8954e-05
1.2693e-05
9.171e-06
7.47342e-06
6.66093e-06
6.26671e-06
6.06937e-06
5.96068e-06
5.8869e-06
5.82239e-06
5.75664e-06
5.68707e-06
5.61503e-06
5.54347e-06
5.47548e-06
5.4134e-06
5.35817e-06
5.30897e-06
5.26373e-06
5.21927e-06
5.17336e-06
5.12341e-06
5.07088e-06
5.01328e-06
4.95882e-06
4.89677e-06
4.85173e-06
4.78158e-06
4.76122e-06
4.65003e-06
4.67809e-06
4.29343e-06
2.02058e-05
1.22765e-05
6.88929e-06
6.09574e-06
5.2819e-06
4.25212e-06
3.84533e-06
3.8241e-06
4.10133e-06
4.56685e-06
5.68449e-06
7.73813e-06
8.05775e-06
8.21256e-06
9.3484e-06
1.04052e-05
1.09812e-05
1.13296e-05
1.19186e-05
1.34452e-05
1.66825e-05
2.20522e-05
2.86501e-05
3.4021e-05
3.71685e-05
3.77266e-05
3.63266e-05
3.3008e-05
2.55035e-05
1.74902e-05
1.225e-05
9.35731e-06
7.83149e-06
7.02075e-06
6.57102e-06
6.29809e-06
6.10707e-06
5.95023e-06
5.80497e-06
5.66205e-06
5.51908e-06
5.37709e-06
5.23859e-06
5.10624e-06
4.98207e-06
4.86665e-06
4.7592e-06
4.65745e-06
4.55945e-06
4.46249e-06
4.36736e-06
4.27128e-06
4.18128e-06
4.08741e-06
4.01202e-06
3.91613e-06
3.86975e-06
3.73936e-06
3.74357e-06
3.3782e-06
2.22475e-05
1.39981e-05
8.41341e-06
6.84744e-06
5.94841e-06
4.78964e-06
4.2396e-06
4.18879e-06
4.63335e-06
5.47379e-06
7.22251e-06
9.4327e-06
9.37161e-06
9.43354e-06
1.03957e-05
1.12998e-05
1.19717e-05
1.28686e-05
1.48297e-05
1.90303e-05
2.65168e-05
3.68199e-05
4.66112e-05
5.28358e-05
5.50031e-05
5.33863e-05
4.89237e-05
4.19869e-05
3.26801e-05
2.35165e-05
1.66854e-05
1.23831e-05
9.89561e-06
8.48951e-06
7.67603e-06
7.17416e-06
6.83075e-06
6.56429e-06
6.33233e-06
6.11346e-06
5.8977e-06
5.68155e-06
5.46533e-06
5.2516e-06
5.04381e-06
4.84498e-06
4.65692e-06
4.47954e-06
4.31206e-06
4.15228e-06
4.00046e-06
3.8537e-06
3.71737e-06
3.58286e-06
3.46853e-06
3.34183e-06
3.26091e-06
3.11345e-06
3.0815e-06
2.75103e-06
2.42793e-05
1.57798e-05
1.00517e-05
7.7922e-06
6.69909e-06
5.53042e-06
4.86985e-06
4.82167e-06
5.51477e-06
6.8624e-06
9.23956e-06
1.13251e-05
1.09094e-05
1.08262e-05
1.16076e-05
1.25206e-05
1.3605e-05
1.5636e-05
1.99888e-05
2.8315e-05
4.10149e-05
5.51734e-05
6.5493e-05
7.04146e-05
7.04137e-05
6.63493e-05
5.92412e-05
4.99496e-05
3.97821e-05
3.00113e-05
2.20474e-05
1.64239e-05
1.28515e-05
1.07008e-05
9.41219e-06
8.61153e-06
8.0765e-06
7.68096e-06
7.35417e-06
7.05635e-06
6.76533e-06
6.46974e-06
6.16572e-06
5.85504e-06
5.54319e-06
5.23709e-06
4.94302e-06
4.66475e-06
4.40396e-06
4.15967e-06
3.93186e-06
3.71737e-06
3.51983e-06
3.33152e-06
3.16686e-06
2.99935e-06
2.87515e-06
2.70442e-06
2.62977e-06
2.33242e-06
2.61497e-05
1.75407e-05
1.17429e-05
8.91574e-06
7.52889e-06
6.3897e-06
5.68858e-06
5.70174e-06
6.73167e-06
8.68917e-06
1.15796e-05
1.33768e-05
1.26721e-05
1.24096e-05
1.30636e-05
1.41861e-05
1.60675e-05
1.99346e-05
2.77546e-05
4.10246e-05
5.79697e-05
7.33155e-05
8.20836e-05
8.48147e-05
8.25794e-05
7.65021e-05
6.75177e-05
5.70136e-05
4.63822e-05
3.62976e-05
2.76859e-05
2.10881e-05
1.65231e-05
1.35857e-05
1.17535e-05
1.06005e-05
9.84174e-06
9.30216e-06
8.87663e-06
8.50133e-06
8.13702e-06
7.76059e-06
7.36133e-06
6.93892e-06
6.50131e-06
6.061e-06
5.63107e-06
5.22146e-06
4.83814e-06
4.48227e-06
4.15408e-06
3.84999e-06
3.57187e-06
3.31218e-06
3.08199e-06
2.85929e-06
2.68059e-06
2.47498e-06
2.3514e-06
2.07701e-06
2.77827e-05
1.92188e-05
1.34295e-05
1.01843e-05
8.46051e-06
7.30396e-06
6.61955e-06
6.76264e-06
8.20375e-06
1.08109e-05
1.40556e-05
1.55733e-05
1.46725e-05
1.42232e-05
1.4849e-05
1.64112e-05
1.95261e-05
2.59572e-05
3.79867e-05
5.57998e-05
7.48706e-05
8.93104e-05
9.59029e-05
9.64043e-05
9.22108e-05
8.45659e-05
7.43356e-05
6.32869e-05
5.23227e-05
4.20135e-05
3.30555e-05
2.58713e-05
2.05734e-05
1.69482e-05
1.45849e-05
1.30669e-05
1.20735e-05
1.13876e-05
1.08689e-05
1.04264e-05
9.99977e-06
9.55031e-06
9.05705e-06
8.51557e-06
7.93585e-06
7.33737e-06
6.74253e-06
6.17021e-06
5.63293e-06
5.13553e-06
4.67922e-06
4.26e-06
3.8781e-06
3.52541e-06
3.21039e-06
2.91389e-06
2.66559e-06
2.40918e-06
2.22775e-06
1.96235e-06
2.9158e-05
2.07714e-05
1.50627e-05
1.15518e-05
9.50847e-06
8.25949e-06
7.59568e-06
7.90854e-06
9.79555e-06
1.303e-05
1.65256e-05
1.79125e-05
1.69325e-05
1.63278e-05
1.70438e-05
1.92935e-05
2.40881e-05
3.36731e-05
5.00105e-05
7.10873e-05
9.04746e-05
0.000103135
0.000107558
0.000105978
0.000100046
9.11135e-05
8.01122e-05
6.88215e-05
5.75926e-05
4.70631e-05
3.78729e-05
3.03647e-05
2.46195e-05
2.0501e-05
1.77037e-05
1.58626e-05
1.46551e-05
1.38393e-05
1.32459e-05
1.27574e-05
1.22908e-05
1.17886e-05
1.12163e-05
1.05622e-05
9.83676e-06
9.06676e-06
8.28602e-06
7.52516e-06
6.80599e-06
6.13889e-06
5.52722e-06
4.96683e-06
4.45647e-06
3.98693e-06
3.56471e-06
3.17224e-06
2.83509e-06
2.50795e-06
2.2555e-06
1.98338e-06
3.02891e-05
2.21746e-05
1.66042e-05
1.29677e-05
1.0668e-05
9.27515e-06
8.59202e-06
9.05636e-06
1.13685e-05
1.51766e-05
1.89209e-05
2.03937e-05
1.94757e-05
1.87812e-05
1.97135e-05
2.28969e-05
2.97633e-05
4.28062e-05
6.2955e-05
8.59182e-05
0.000104629
0.000115344
0.000117687
0.000114116
0.000106549
9.64709e-05
8.50658e-05
7.36483e-05
6.22266e-05
5.14813e-05
4.20743e-05
3.43531e-05
2.83602e-05
2.39498e-05
2.08626e-05
1.8785e-05
1.74153e-05
1.65055e-05
1.58684e-05
1.53649e-05
1.48909e-05
1.43692e-05
1.37484e-05
1.30061e-05
1.21499e-05
1.12126e-05
1.02403e-05
9.2777e-06
8.35868e-06
7.50149e-06
6.7131e-06
5.98976e-06
5.32902e-06
4.72009e-06
4.16805e-06
3.65596e-06
3.2077e-06
2.78666e-06
2.44556e-06
2.1501e-06
3.12054e-05
2.34191e-05
1.80279e-05
1.4383e-05
1.19172e-05
1.03701e-05
9.62135e-06
1.01676e-05
1.28311e-05
1.71568e-05
2.12272e-05
2.30114e-05
2.23191e-05
2.16287e-05
2.29014e-05
2.72382e-05
3.64527e-05
5.29361e-05
7.6119e-05
9.99543e-05
0.000117597
0.000126412
0.000126709
0.000121155
0.000111969
0.000100831
8.92805e-05
7.77735e-05
6.62543e-05
5.53349e-05
4.57082e-05
3.77901e-05
3.16361e-05
2.70721e-05
2.3831e-05
2.16198e-05
2.01577e-05
1.92028e-05
1.85608e-05
1.80792e-05
1.76368e-05
1.71377e-05
1.65127e-05
1.57245e-05
1.47736e-05
1.36951e-05
1.25462e-05
1.13868e-05
1.02655e-05
9.2109e-06
8.23545e-06
7.33674e-06
6.5114e-06
5.74668e-06
5.04639e-06
4.39339e-06
3.81188e-06
3.27254e-06
2.82207e-06
2.48654e-06
3.19412e-05
2.4507e-05
1.93186e-05
1.57545e-05
1.32228e-05
1.15495e-05
1.07073e-05
1.12548e-05
1.41531e-05
1.89453e-05
2.34545e-05
2.57522e-05
2.54658e-05
2.48973e-05
2.66229e-05
3.22827e-05
4.39751e-05
6.36406e-05
8.90939e-05
0.0001132
0.000129676
0.000136636
0.000134849
0.000127262
0.000116432
0.000104383
9.27174e-05
8.11859e-05
6.96844e-05
5.86764e-05
4.88531e-05
4.07244e-05
3.44157e-05
2.97544e-05
2.64466e-05
2.41873e-05
2.27005e-05
2.17503e-05
2.11425e-05
2.07185e-05
2.03461e-05
1.99147e-05
1.93373e-05
1.85594e-05
1.75686e-05
1.63969e-05
1.51086e-05
1.37784e-05
1.2471e-05
1.1228e-05
1.00696e-05
8.99613e-06
8.00382e-06
7.07754e-06
6.21969e-06
5.4118e-06
4.67977e-06
4.00044e-06
3.42007e-06
3.02907e-06
3.25294e-05
2.54475e-05
2.04705e-05
1.70475e-05
1.45457e-05
1.28026e-05
1.18667e-05
1.23577e-05
1.53482e-05
2.05537e-05
2.56148e-05
2.8594e-05
2.8901e-05
2.85921e-05
3.08655e-05
3.79527e-05
5.21145e-05
7.45848e-05
0.000101698
0.00012576
0.000141067
0.000146157
0.000142201
0.00013251
0.00012
0.000107241
9.53627e-05
8.38689e-05
7.25083e-05
6.15314e-05
5.15746e-05
4.32348e-05
3.6746e-05
3.19817e-05
2.86352e-05
2.63746e-05
2.49098e-05
2.40026e-05
2.34596e-05
2.31212e-05
2.28503e-05
2.25265e-05
2.20479e-05
2.13413e-05
2.03773e-05
1.91774e-05
1.78069e-05
1.6352e-05
1.48935e-05
1.34882e-05
1.21665e-05
1.09334e-05
9.78559e-06
8.7055e-06
7.69371e-06
6.7289e-06
5.83925e-06
5.00611e-06
4.28071e-06
3.82267e-06
3.29988e-05
2.62539e-05
2.14855e-05
1.8237e-05
1.58463e-05
1.41061e-05
1.31029e-05
1.35071e-05
1.6473e-05
2.20036e-05
2.77087e-05
3.15056e-05
3.25902e-05
3.26957e-05
3.55919e-05
4.41431e-05
6.06612e-05
8.55358e-05
0.000113864
0.000137727
0.000151863
0.00015501
0.00014878
0.00013692
0.000122812
0.000109396
9.72177e-05
8.58113e-05
7.47094e-05
6.39024e-05
5.39123e-05
4.5393e-05
3.87031e-05
3.38017e-05
3.03995e-05
2.81429e-05
2.67171e-05
2.58713e-05
2.54091e-05
2.51715e-05
2.50213e-05
2.48335e-05
2.44952e-05
2.39162e-05
2.30468e-05
2.18917e-05
2.05097e-05
1.89922e-05
1.74341e-05
1.59079e-05
1.44569e-05
1.30927e-05
1.18144e-05
1.06022e-05
9.45453e-06
8.34557e-06
7.3057e-06
6.31789e-06
5.44364e-06
4.91413e-06
3.33735e-05
2.69415e-05
2.23706e-05
1.93077e-05
1.7088e-05
1.54278e-05
1.4406e-05
1.47199e-05
1.75959e-05
2.33157e-05
2.97097e-05
3.44466e-05
3.64794e-05
3.7169e-05
4.07469e-05
5.07386e-05
6.94331e-05
9.63372e-05
0.000125563
0.000149134
0.000162065
0.000163155
0.000154551
0.000140481
0.000125013
0.000110817
9.8297e-05
8.7013e-05
7.62729e-05
6.57786e-05
5.58814e-05
4.72489e-05
4.03603e-05
3.52877e-05
3.17913e-05
2.95138e-05
2.81163e-05
2.73288e-05
2.69468e-05
2.68109e-05
2.67862e-05
2.67475e-05
2.65758e-05
2.61669e-05
2.54506e-05
2.44107e-05
2.30914e-05
2.15822e-05
1.9987e-05
1.83932e-05
1.68581e-05
1.54026e-05
1.40299e-05
1.27191e-05
1.1467e-05
1.02416e-05
9.07529e-06
7.9484e-06
6.93787e-06
6.34272e-06
3.36731e-05
2.75257e-05
2.31365e-05
2.02531e-05
1.82402e-05
1.67314e-05
1.57543e-05
1.59996e-05
1.87464e-05
2.45555e-05
3.15923e-05
3.73676e-05
4.04976e-05
4.19517e-05
4.62633e-05
5.76253e-05
7.82787e-05
0.000106876
0.000136758
0.000159955
0.000171603
0.000170501
0.000159454
0.000143304
0.000126588
0.000111509
9.86272e-05
8.74886e-05
7.71928e-05
6.71456e-05
5.74804e-05
4.88291e-05
4.17736e-05
3.65122e-05
3.28821e-05
3.05446e-05
2.91465e-05
2.83974e-05
2.80808e-05
2.80349e-05
2.81273e-05
2.82356e-05
2.82393e-05
2.80244e-05
2.75027e-05
2.66353e-05
2.54467e-05
2.40164e-05
2.2451e-05
2.08494e-05
1.92827e-05
1.77827e-05
1.63593e-05
1.49921e-05
1.36772e-05
1.23755e-05
1.11216e-05
9.88822e-06
8.7728e-06
8.1299e-06
3.3913e-05
2.80211e-05
2.37954e-05
2.10738e-05
1.92807e-05
1.798e-05
1.71169e-05
1.73365e-05
1.9941e-05
2.57701e-05
3.33461e-05
4.02109e-05
4.4561e-05
4.6964e-05
5.20665e-05
6.46979e-05
8.70729e-05
0.000117058
0.000147389
0.000170106
0.000180346
0.000176922
0.000163426
0.000145529
0.000127478
0.00011149
9.82461e-05
8.72676e-05
7.74767e-05
6.79931e-05
5.86992e-05
5.01423e-05
4.29779e-05
3.75331e-05
3.37419e-05
3.13057e-05
2.98707e-05
2.91307e-05
2.88558e-05
2.88791e-05
2.90703e-05
2.93114e-05
2.94835e-05
2.94676e-05
2.91616e-05
2.85052e-05
2.75005e-05
2.62111e-05
2.47391e-05
2.31898e-05
2.16462e-05
2.01518e-05
1.87249e-05
1.73477e-05
1.60173e-05
1.46877e-05
1.33965e-05
1.21034e-05
1.0932e-05
1.02708e-05
3.41056e-05
2.84407e-05
2.43604e-05
2.1776e-05
2.01954e-05
1.914e-05
1.84575e-05
1.87094e-05
2.11832e-05
2.69721e-05
3.50038e-05
4.29112e-05
4.85704e-05
5.21078e-05
5.80769e-05
7.18638e-05
9.57125e-05
0.000126795
0.000157366
0.000179456
0.000188121
0.000182267
0.000166635
0.00014705
0.000127659
0.000110788
9.71997e-05
8.63933e-05
7.71469e-05
6.832e-05
5.95272e-05
5.11858e-05
4.39907e-05
3.83902e-05
3.44278e-05
3.18635e-05
3.03575e-05
2.95951e-05
2.93343e-05
2.94019e-05
2.96682e-05
3.00197e-05
3.03417e-05
3.05142e-05
3.04258e-05
2.99984e-05
2.9212e-05
2.81103e-05
2.67855e-05
2.5343e-05
2.38747e-05
2.24347e-05
2.10511e-05
1.97103e-05
1.84129e-05
1.71067e-05
1.58342e-05
1.45373e-05
1.33718e-05
1.27302e-05
3.42606e-05
2.87963e-05
2.48443e-05
2.237e-05
2.09788e-05
2.01838e-05
1.97376e-05
2.00873e-05
2.24636e-05
2.81661e-05
3.65616e-05
4.54358e-05
5.24185e-05
5.72711e-05
6.4212e-05
7.90466e-05
0.000104116
0.000136003
0.000166574
0.000187836
0.000194713
0.000186599
0.000169023
0.000147801
0.000127125
0.000109434
9.55405e-05
8.492e-05
7.62404e-05
6.81377e-05
5.99581e-05
5.19524e-05
4.48171e-05
3.91071e-05
3.4981e-05
3.22721e-05
3.06686e-05
2.98558e-05
2.95826e-05
2.96694e-05
2.99854e-05
3.04216e-05
3.08682e-05
3.12076e-05
3.13237e-05
3.11251e-05
3.05718e-05
2.96873e-05
2.8549e-05
2.72578e-05
2.59098e-05
2.4568e-05
2.32702e-05
2.20089e-05
2.07899e-05
1.95565e-05
1.83587e-05
1.71168e-05
1.60248e-05
1.5445e-05
3.43857e-05
2.90977e-05
2.5259e-05
2.28679e-05
2.16329e-05
2.10917e-05
2.09204e-05
2.14328e-05
2.37608e-05
2.93488e-05
3.80071e-05
4.77622e-05
5.60446e-05
6.23334e-05
7.03872e-05
8.61906e-05
0.000112226
0.000144602
0.000174876
0.00019501
0.000200048
0.00018989
0.000170511
0.000147741
0.00012588
0.000107464
9.33252e-05
8.291e-05
7.48066e-05
6.74703e-05
5.99936e-05
5.2435e-05
4.54549e-05
3.96945e-05
3.54276e-05
3.25711e-05
3.08534e-05
2.99687e-05
2.96609e-05
2.97442e-05
3.00863e-05
3.05812e-05
3.11249e-05
3.16041e-05
3.19018e-05
3.19179e-05
3.15961e-05
3.09407e-05
3.00127e-05
2.89043e-05
2.77116e-05
2.65039e-05
2.53278e-05
2.41824e-05
2.30811e-05
2.1964e-05
2.0892e-05
1.97604e-05
1.8808e-05
1.83314e-05
3.44867e-05
2.93535e-05
2.5615e-05
2.3283e-05
2.21652e-05
2.18529e-05
2.19735e-05
2.27048e-05
2.50437e-05
3.05083e-05
3.93277e-05
4.98529e-05
5.94044e-05
6.71938e-05
7.6522e-05
9.32531e-05
0.000119948
0.000152409
0.000182064
0.000200903
0.000204126
0.000192096
0.000171043
0.000146849
0.000123938
0.000104919
9.06139e-05
8.04317e-05
7.29049e-05
6.6354e-05
5.96452e-05
5.26303e-05
4.58995e-05
4.01555e-05
3.57821e-05
3.27869e-05
3.09482e-05
2.99774e-05
2.96182e-05
2.96798e-05
3.00278e-05
3.05582e-05
3.11723e-05
3.17626e-05
3.22141e-05
3.24219e-05
3.23179e-05
3.18893e-05
3.11807e-05
3.02731e-05
2.92593e-05
2.82117e-05
2.71845e-05
2.61836e-05
2.52309e-05
2.42653e-05
2.33612e-05
2.23878e-05
2.16333e-05
2.12967e-05
3.45685e-05
2.95709e-05
2.59217e-05
2.36286e-05
2.25879e-05
2.2465e-05
2.28725e-05
2.38631e-05
2.62737e-05
3.1624e-05
4.051e-05
5.1674e-05
6.24365e-05
7.17298e-05
8.24381e-05
0.000100062
0.000127136
0.00015933
0.000188089
0.000205499
0.000206919
0.000193173
0.000170584
0.00014512
0.000121323
0.000101845
8.74695e-05
7.75567e-05
7.06021e-05
6.48357e-05
5.89341e-05
5.25411e-05
4.61466e-05
4.04885e-05
3.6051e-05
3.2935e-05
3.09774e-05
2.99136e-05
2.9492e-05
2.95186e-05
2.98565e-05
3.0403e-05
3.10641e-05
3.17382e-05
3.23144e-05
3.26869e-05
3.27792e-05
3.25646e-05
3.20724e-05
3.13715e-05
3.05489e-05
2.96775e-05
2.88173e-05
2.79803e-05
2.71982e-05
2.64094e-05
2.5705e-05
2.49268e-05
2.44168e-05
2.42502e-05
3.46349e-05
2.97557e-05
2.61868e-05
2.39168e-05
2.29153e-05
2.29338e-05
2.36018e-05
2.48716e-05
2.74084e-05
3.26673e-05
4.15388e-05
5.31962e-05
6.50822e-05
7.58367e-05
8.79604e-05
0.000106446
0.000133659
0.000165282
0.000192912
0.000208787
0.000208423
0.000193097
0.000169123
0.000142566
0.000118069
9.8293e-05
8.39567e-05
7.43584e-05
6.79693e-05
6.29702e-05
5.78911e-05
5.2177e-05
4.61947e-05
4.06903e-05
3.62354e-05
3.30237e-05
3.0956e-05
2.97987e-05
2.93088e-05
2.92917e-05
2.96082e-05
3.01557e-05
3.08443e-05
3.15782e-05
3.2252e-05
3.27611e-05
3.30244e-05
3.30045e-05
3.27172e-05
3.22192e-05
3.15903e-05
3.09019e-05
3.02179e-05
2.95558e-05
2.89569e-05
2.83608e-05
2.78766e-05
2.73192e-05
2.70869e-05
2.71124e-05
3.46888e-05
2.99131e-05
2.64171e-05
2.41586e-05
2.31633e-05
2.3271e-05
2.4156e-05
2.57017e-05
2.84056e-05
3.36039e-05
4.23959e-05
5.43946e-05
6.72865e-05
7.94288e-05
9.29307e-05
0.000112236
0.000139395
0.000170199
0.000196506
0.000210762
0.000208647
0.000191859
0.000166667
0.000139213
0.000114219
9.43199e-05
8.01424e-05
7.09102e-05
6.50794e-05
6.08183e-05
5.65546e-05
5.15546e-05
4.6046e-05
4.07571e-05
3.63335e-05
3.30565e-05
3.08929e-05
2.96461e-05
2.90865e-05
2.90211e-05
2.93086e-05
2.98464e-05
3.05473e-05
3.13212e-05
3.20684e-05
3.26878e-05
3.30962e-05
3.32485e-05
3.31492e-05
3.28434e-05
3.24031e-05
3.18966e-05
3.13904e-05
3.09064e-05
3.04954e-05
3.00989e-05
2.9845e-05
2.95229e-05
2.9588e-05
2.98202e-05
3.47325e-05
3.00473e-05
2.66179e-05
2.43636e-05
2.33474e-05
2.34928e-05
2.45391e-05
2.63347e-05
2.92271e-05
3.4396e-05
4.30605e-05
5.52491e-05
6.90004e-05
8.24366e-05
9.72192e-05
0.00011728
0.000144237
0.000174028
0.000198854
0.000211425
0.000207603
0.000189473
0.000163239
0.000135104
0.000109827
8.99883e-05
7.60951e-05
6.72848e-05
6.20056e-05
5.84435e-05
5.49694e-05
5.0697e-05
4.57065e-05
4.06892e-05
3.63447e-05
3.3034e-05
3.07926e-05
2.9464e-05
2.88368e-05
2.87215e-05
2.89759e-05
2.94968e-05
3.0199e-05
3.09972e-05
3.17977e-05
3.25037e-05
3.30326e-05
3.3334e-05
3.34031e-05
3.32746e-05
3.30125e-05
3.26811e-05
3.23481e-05
3.20393e-05
3.1814e-05
3.16163e-05
3.15939e-05
3.1512e-05
3.18822e-05
3.23285e-05
3.47681e-05
3.01617e-05
2.67936e-05
2.45396e-05
2.34822e-05
2.36182e-05
2.47634e-05
2.67633e-05
2.9843e-05
3.50064e-05
4.35096e-05
5.57439e-05
7.0182e-05
8.48021e-05
0.00010073
0.000121446
0.00014809
0.000176722
0.00019995
0.000210786
0.000205312
0.000185966
0.000158883
0.000130292
0.000104958
8.53664e-05
7.18841e-05
6.3553e-05
5.88184e-05
5.59103e-05
5.31841e-05
4.96326e-05
4.51853e-05
4.04896e-05
3.62688e-05
3.29568e-05
3.06573e-05
2.92573e-05
2.85667e-05
2.84023e-05
2.8622e-05
2.91218e-05
2.98178e-05
3.06285e-05
3.1466e-05
3.22387e-05
3.28658e-05
3.32943e-05
3.35117e-05
3.35436e-05
3.34461e-05
3.32793e-05
3.31107e-05
3.29692e-05
3.29223e-05
3.29169e-05
3.31199e-05
3.32748e-05
3.39476e-05
3.461e-05
3.4797e-05
3.02594e-05
2.6948e-05
2.46928e-05
2.35805e-05
2.36671e-05
2.48477e-05
2.69913e-05
3.02341e-05
3.54027e-05
4.37201e-05
5.5868e-05
7.07995e-05
8.64746e-05
0.000103403
0.000124636
0.000150873
0.000178249
0.000199794
0.000208868
0.00020181
0.000181387
0.000153656
0.000124845
9.96828e-05
8.05267e-05
6.7579e-05
5.97825e-05
5.55854e-05
5.32817e-05
5.12495e-05
4.8394e-05
4.45033e-05
4.01658e-05
3.61078e-05
3.28252e-05
3.04882e-05
2.90284e-05
2.82804e-05
2.80695e-05
2.82547e-05
2.87314e-05
2.94164e-05
3.02313e-05
3.10932e-05
3.19162e-05
3.26225e-05
3.31579e-05
3.35043e-05
3.36794e-05
3.37317e-05
3.37165e-05
3.37009e-05
3.37159e-05
3.38363e-05
3.40124e-05
3.44293e-05
3.48118e-05
3.57768e-05
3.66521e-05
3.48206e-05
3.03429e-05
2.7084e-05
2.48281e-05
2.36533e-05
2.36588e-05
2.48149e-05
2.70331e-05
3.0394e-05
3.5561e-05
4.36715e-05
5.56155e-05
7.08334e-05
8.74097e-05
0.000105201
0.000126786
0.000152528
0.000178585
0.000198401
0.000205702
0.000197146
0.000175799
0.000147633
0.000118843
9.40833e-05
7.55448e-05
6.32487e-05
5.60375e-05
5.23688e-05
5.06176e-05
4.92164e-05
4.70162e-05
4.36829e-05
3.9728e-05
3.58654e-05
3.26407e-05
3.02862e-05
2.87792e-05
2.79807e-05
2.77268e-05
2.78789e-05
2.8332e-05
2.90033e-05
2.98168e-05
3.06939e-05
3.1554e-05
3.23234e-05
3.29481e-05
3.3406e-05
3.37078e-05
3.38948e-05
3.40177e-05
3.41423e-05
3.43012e-05
3.45759e-05
3.49199e-05
3.55355e-05
3.61318e-05
3.73729e-05
3.84543e-05
3.48397e-05
3.04142e-05
2.7204e-05
2.49493e-05
2.37094e-05
2.36111e-05
2.46902e-05
2.6911e-05
3.03294e-05
3.5469e-05
4.33495e-05
5.49866e-05
7.02785e-05
8.75712e-05
0.000106104
0.000127871
0.000153021
0.000177723
0.000195792
0.000201332
0.000191385
0.00016928
0.000140897
0.000112374
8.82456e-05
7.04982e-05
5.89597e-05
5.2377e-05
4.92254e-05
4.79732e-05
4.7134e-05
4.55349e-05
4.27465e-05
3.91884e-05
3.55472e-05
3.24055e-05
3.00523e-05
2.8511e-05
2.76694e-05
2.73766e-05
2.74977e-05
2.79278e-05
2.85843e-05
2.93927e-05
3.02782e-05
3.11654e-05
3.19848e-05
3.2684e-05
3.32378e-05
3.3651e-05
3.39586e-05
3.42062e-05
3.44579e-05
3.47476e-05
3.51623e-05
3.56592e-05
3.64564e-05
3.725e-05
3.87471e-05
4.00248e-05
3.48552e-05
3.04752e-05
2.73101e-05
2.5059e-05
2.37557e-05
2.35392e-05
2.44988e-05
2.66536e-05
3.0059e-05
3.51282e-05
4.27489e-05
5.39889e-05
6.91452e-05
8.69357e-05
0.000106098
0.000127898
0.00015235
0.000175671
0.000192002
0.000195813
0.000184603
0.00016192
0.000133547
0.000105536
8.22605e-05
6.54641e-05
5.47751e-05
4.88547e-05
4.62052e-05
4.53982e-05
4.50486e-05
4.39855e-05
4.17191e-05
3.85617e-05
3.51607e-05
3.21234e-05
2.97885e-05
2.82253e-05
2.73482e-05
2.70208e-05
2.71133e-05
2.75216e-05
2.81629e-05
2.89642e-05
2.98536e-05
3.07601e-05
3.16191e-05
3.23801e-05
3.30164e-05
3.35278e-05
3.3943e-05
3.43026e-05
3.46689e-05
3.50764e-05
3.56171e-05
3.62513e-05
3.72121e-05
3.81849e-05
3.99158e-05
4.13776e-05
3.48677e-05
3.05274e-05
2.74039e-05
2.51593e-05
2.3797e-05
2.34561e-05
2.42642e-05
2.62923e-05
2.96113e-05
3.45536e-05
4.18765e-05
5.26396e-05
6.74608e-05
8.54994e-05
0.00010517
0.000126895
0.000150541
0.000172459
0.00018708
0.000189209
0.000176894
0.000153824
0.000125688
9.8434e-05
7.6221e-05
6.05175e-05
5.0753e-05
4.55176e-05
4.33513e-05
4.29357e-05
4.30021e-05
4.24001e-05
4.06279e-05
3.78647e-05
3.47149e-05
3.1799e-05
2.94977e-05
2.7924e-05
2.70186e-05
2.66611e-05
2.67274e-05
2.71151e-05
2.77417e-05
2.85347e-05
2.94248e-05
3.03451e-05
3.12355e-05
3.20481e-05
3.27556e-05
3.33534e-05
3.38646e-05
3.43249e-05
3.47942e-05
3.53073e-05
3.59602e-05
3.6717e-05
3.78232e-05
3.89569e-05
4.08982e-05
4.25308e-05
3.48779e-05
3.05722e-05
2.74871e-05
2.52514e-05
2.38367e-05
2.33714e-05
2.40074e-05
2.5859e-05
2.90217e-05
3.37734e-05
4.07522e-05
5.09667e-05
6.52689e-05
8.3283e-05
0.000103308
0.000124894
0.00014765
0.000168142
0.000181095
0.000181598
0.000168362
0.000145102
0.000117435
9.11772e-05
7.02198e-05
5.57293e-05
4.69453e-05
4.24059e-05
4.06993e-05
4.06219e-05
4.10315e-05
4.08308e-05
3.95024e-05
3.71152e-05
3.42199e-05
3.14379e-05
2.91835e-05
2.76092e-05
2.66826e-05
2.6299e-05
2.63416e-05
2.67099e-05
2.73222e-05
2.81064e-05
2.89953e-05
2.99253e-05
3.08407e-05
3.16966e-05
3.24657e-05
3.31401e-05
3.37372e-05
3.42882e-05
3.48502e-05
3.54577e-05
3.62102e-05
3.70754e-05
3.83099e-05
3.95863e-05
4.17148e-05
4.35039e-05
3.48861e-05
3.06106e-05
2.75607e-05
2.53365e-05
2.38769e-05
2.32925e-05
2.37459e-05
2.53841e-05
2.83293e-05
3.28254e-05
3.94091e-05
4.90099e-05
6.26299e-05
8.03361e-05
0.000100517
0.000121921
0.000143744
0.000162797
0.00017413
0.000173066
0.000159125
0.000135874
0.000108909
8.38768e-05
6.43468e-05
5.11642e-05
4.3397e-05
3.95523e-05
3.82775e-05
3.84864e-05
3.91684e-05
3.93081e-05
3.83673e-05
3.63305e-05
3.36865e-05
3.10464e-05
2.88495e-05
2.72836e-05
2.6342e-05
2.59363e-05
2.59573e-05
2.63075e-05
2.69058e-05
2.76811e-05
2.85673e-05
2.95042e-05
3.04397e-05
3.13323e-05
3.21552e-05
3.28976e-05
3.35722e-05
3.42052e-05
3.48507e-05
3.55428e-05
3.63836e-05
3.73442e-05
3.8691e-05
4.0093e-05
4.23862e-05
4.43171e-05
3.48928e-05
3.06436e-05
2.7626e-05
2.54151e-05
2.39187e-05
2.32241e-05
2.34933e-05
2.48944e-05
2.75733e-05
3.17544e-05
3.78911e-05
4.68207e-05
5.96185e-05
7.6738e-05
9.68253e-05
0.000117998
0.000138891
0.000156515
0.000166286
0.000163824
0.000149313
0.000126264
0.000100232
7.66442e-05
5.86869e-05
4.68795e-05
4.01447e-05
3.69821e-05
3.61073e-05
3.65517e-05
3.74386e-05
3.78527e-05
3.72445e-05
3.55274e-05
3.31259e-05
3.06314e-05
2.85e-05
2.69501e-05
2.59992e-05
2.55749e-05
2.55762e-05
2.59091e-05
2.64939e-05
2.72599e-05
2.81427e-05
2.90843e-05
3.00362e-05
3.09602e-05
3.18304e-05
3.26338e-05
3.33785e-05
3.4086e-05
3.48072e-05
3.55753e-05
3.64945e-05
3.75389e-05
3.89835e-05
4.0495e-05
4.29319e-05
4.49901e-05
3.48981e-05
3.06721e-05
2.7684e-05
2.54879e-05
2.39625e-05
2.31689e-05
2.32597e-05
2.44123e-05
2.67906e-05
3.06076e-05
3.62503e-05
4.44599e-05
5.63222e-05
7.25958e-05
9.22955e-05
0.000113147
0.000133146
0.000149385
0.000157664
0.000153983
0.000139043
0.000116398
9.1533e-05
6.95882e-05
5.33174e-05
4.29232e-05
3.72169e-05
3.47132e-05
3.42033e-05
3.48345e-05
3.58627e-05
3.6486e-05
3.61544e-05
3.4722e-05
3.2549e-05
3.01999e-05
2.81395e-05
2.66117e-05
2.56564e-05
2.52166e-05
2.51999e-05
2.55163e-05
2.60876e-05
2.68442e-05
2.77228e-05
2.86675e-05
2.96329e-05
3.05842e-05
3.14963e-05
3.23548e-05
3.31634e-05
3.39391e-05
3.47293e-05
3.5566e-05
3.65551e-05
3.7673e-05
3.92025e-05
4.0809e-05
4.33702e-05
4.55416e-05
3.49024e-05
3.06966e-05
2.77354e-05
2.55551e-05
2.4008e-05
2.31281e-05
2.30516e-05
2.39554e-05
2.60136e-05
2.94312e-05
3.45425e-05
4.19952e-05
5.28371e-05
6.80394e-05
8.70334e-05
0.00010741
0.000126552
0.000141484
0.000148361
0.000143626
0.000128428
0.000106402
8.29395e-05
6.28127e-05
4.83058e-05
3.93333e-05
3.46336e-05
3.27569e-05
3.25743e-05
3.33454e-05
3.44561e-05
3.52262e-05
3.51151e-05
3.39293e-05
3.19667e-05
2.9759e-05
2.77727e-05
2.62715e-05
2.5316e-05
2.48636e-05
2.48303e-05
2.51305e-05
2.56882e-05
2.64349e-05
2.73086e-05
2.82552e-05
2.92321e-05
3.02071e-05
3.11568e-05
3.20653e-05
3.29327e-05
3.37712e-05
3.46247e-05
3.55238e-05
3.65754e-05
3.77581e-05
3.9361e-05
4.10496e-05
4.37174e-05
4.59887e-05
3.49058e-05
3.07179e-05
2.77812e-05
2.56172e-05
2.40549e-05
2.31016e-05
2.28726e-05
2.35362e-05
2.52686e-05
2.8267e-05
3.28231e-05
3.94968e-05
4.92632e-05
6.32145e-05
8.11863e-05
0.000100866
0.000119153
0.000132874
0.000138454
0.00013284
0.000117579
9.64108e-05
7.45811e-05
5.6413e-05
4.37082e-05
3.61372e-05
3.24066e-05
3.11183e-05
3.12241e-05
3.20908e-05
3.32298e-05
3.40883e-05
3.41425e-05
3.3163e-05
3.13891e-05
2.93156e-05
2.74042e-05
2.59324e-05
2.49804e-05
2.45177e-05
2.4469e-05
2.47533e-05
2.5297e-05
2.60333e-05
2.69014e-05
2.78488e-05
2.88353e-05
2.98313e-05
3.0815e-05
3.17694e-05
3.26909e-05
3.35877e-05