/*--------------------------------*- C++ -*----------------------------------*\
| =========                 |                                                 |
| \\      /  F ield         | OpenFOAM: The Open Source CFD Toolbox           |
|  \\    /   O peration     | Version:  2.4.0                                 |
|   \\  /    A nd           | Web:      www.OpenFOAM.org                      |
|    \\/     M anipulation  |                                                 |
\*---------------------------------------------------------------------------*/
FoamFile
{
    version     2.0;
    format      ascii;
    class       surfaceScalarField;
    location    "5.64";
    object      phi;
}
// * * * * * * * * * * * * * * * * * * * * * * * * * * * * * * * * * * * * * //

dimensions      [0 3 -1 0 0 0 0];

internalField   nonuniform List<scalar> 
11840
(
7.85118e-07
9.21488e-06
-2.03195e-08
8.05437e-07
-4.80671e-08
2.77476e-08
-7.30465e-08
2.49794e-08
-8.37744e-08
1.07279e-08
-8.51767e-08
1.40232e-09
-8.91401e-08
3.96338e-09
-8.86579e-08
-4.82189e-10
-9.10722e-08
2.4143e-09
-9.16705e-08
5.98288e-10
-9.45215e-08
2.85103e-09
-9.72619e-08
2.74039e-09
-1.02017e-07
4.75467e-09
-1.07697e-07
5.68022e-09
-1.15311e-07
7.61452e-09
-1.24358e-07
9.04672e-09
-1.35281e-07
1.09234e-08
-1.47847e-07
1.25659e-08
-1.62215e-07
1.43673e-08
-1.78233e-07
1.60187e-08
-1.95876e-07
1.76429e-08
-2.14938e-07
1.90618e-08
-2.35209e-07
2.02714e-08
-2.56352e-07
2.11423e-08
-2.77979e-07
2.16277e-08
-2.99636e-07
2.16562e-08
-3.20811e-07
2.11757e-08
-3.4091e-07
2.00982e-08
-3.59262e-07
1.83523e-08
-3.75126e-07
1.58638e-08
-3.87702e-07
1.25761e-08
-3.96152e-07
8.44969e-09
-3.9963e-07
3.47807e-09
-3.97289e-07
-2.34056e-09
-3.88295e-07
-8.99378e-09
-3.71903e-07
-1.63927e-08
-3.47484e-07
-2.44187e-08
-3.14456e-07
-3.30274e-08
-2.72522e-07
-4.19343e-08
-2.21352e-07
-5.11699e-08
-1.6128e-07
-6.00725e-08
-9.25827e-08
-6.86969e-08
-1.75307e-08
-7.5052e-08
5.97752e-08
-7.73059e-08
1.34555e-07
-7.47798e-08
2.09718e-07
-7.51632e-08
2.81873e-07
-7.21551e-08
3.55693e-07
-7.38198e-08
4.22026e-07
-6.63324e-08
4.9282e-07
-7.07949e-08
5.47231e-07
-5.44103e-08
6.15419e-07
-6.81879e-08
6.49521e-07
-3.41022e-08
7.2157e-07
-7.20493e-08
7.22863e-07
-1.29267e-09
8.16434e-07
-9.35717e-08
7.65798e-07
5.06368e-08
9.20808e-07
-1.5501e-07
7.94382e-07
1.26426e-07
-4.03403e-07
1.91812e-06
1.72968e-05
1.02213e-07
2.62134e-06
-7.43107e-08
2.04271e-07
-1.77869e-07
1.28538e-07
-2.09722e-07
4.25808e-08
-2.27254e-07
1.89345e-08
-2.37724e-07
1.44329e-08
-2.42624e-07
4.41811e-09
-2.48896e-07
8.68653e-09
-2.53636e-07
5.33793e-09
-2.61354e-07
1.0569e-08
-2.7043e-07
1.18166e-08
-2.8348e-07
1.78048e-08
-2.99788e-07
2.19876e-08
-3.20621e-07
2.84479e-08
-3.45591e-07
3.40166e-08
-3.7521e-07
4.05426e-08
-4.09213e-07
4.65691e-08
-4.47682e-07
5.28363e-08
-4.90302e-07
5.8638e-08
-5.36791e-07
6.41318e-08
-5.8657e-07
6.88413e-08
-6.38938e-07
7.26393e-08
-6.92934e-07
7.51379e-08
-7.4745e-07
7.61438e-08
-8.01234e-07
7.54409e-08
-8.52904e-07
7.28452e-08
-9.0089e-07
6.80843e-08
-9.43467e-07
6.09293e-08
-9.78763e-07
5.11599e-08
-1.0048e-06
3.86129e-08
-1.01954e-06
2.31889e-08
-1.02092e-06
4.86252e-09
-1.00692e-06
-1.63398e-08
-9.75664e-07
-4.02546e-08
-9.25355e-07
-6.67015e-08
-8.5451e-07
-9.52639e-08
-7.61823e-07
-1.25714e-07
-6.4648e-07
-1.57278e-07
-5.07902e-07
-1.89748e-07
-3.46681e-07
-2.21294e-07
-1.6437e-07
-2.51008e-07
3.26475e-08
-2.72069e-07
2.31618e-07
-2.76276e-07
4.24586e-07
-2.67748e-07
6.16123e-07
-2.667e-07
8.02041e-07
-2.58074e-07
9.86186e-07
-2.57964e-07
1.15773e-06
-2.37879e-07
1.3282e-06
-2.41265e-07
1.47434e-06
-2.00547e-07
1.62771e-06
-2.21556e-07
1.73622e-06
-1.4261e-07
1.87774e-06
-2.13575e-07
1.93433e-06
-5.78841e-08
2.08503e-06
-2.44269e-07
2.07279e-06
6.28749e-08
2.28956e-06
-3.71781e-07
2.19641e-06
2.19574e-07
-1.05294e-06
2.91719e-06
2.43796e-05
3.9651e-07
5.14202e-06
-4.04898e-08
6.41271e-07
-2.39331e-07
3.27379e-07
-3.02451e-07
1.057e-07
-3.4419e-07
6.06736e-08
-3.64219e-07
3.44622e-08
-3.78221e-07
1.84196e-08
-3.89611e-07
2.00769e-08
-4.00207e-07
1.59345e-08
-4.13239e-07
2.36e-08
-4.29196e-07
2.77742e-08
-4.50334e-07
3.89431e-08
-4.76936e-07
4.85894e-08
-5.10123e-07
6.16351e-08
-5.49883e-07
7.37764e-08
-5.96591e-07
8.725e-08
-6.50031e-07
1.0001e-07
-7.10089e-07
1.12894e-07
-7.76278e-07
1.24827e-07
-8.4798e-07
1.35834e-07
-9.24211e-07
1.45073e-07
-1.00373e-06
1.52153e-07
-1.08492e-06
1.56337e-07
-1.16598e-06
1.57195e-07
-1.24485e-06
1.54316e-07
-1.31933e-06
1.47322e-07
-1.38694e-06
1.35699e-07
-1.44502e-06
1.19011e-07
-1.49073e-06
9.68687e-08
-1.52112e-06
6.89993e-08
-1.5332e-06
3.52668e-08
-1.52401e-06
-4.32253e-09
-1.49074e-06
-4.96151e-08
-1.4308e-06
-1.00194e-07
-1.34189e-06
-1.55611e-07
-1.22216e-06
-2.14996e-07
-1.07019e-06
-2.77679e-07
-8.85336e-07
-3.42134e-07
-6.67713e-07
-4.0737e-07
-4.19192e-07
-4.69815e-07
-1.44098e-07
-5.26101e-07
1.47399e-07
-5.63566e-07
4.40605e-07
-5.69482e-07
7.2995e-07
-5.57093e-07
1.01864e-06
-5.55393e-07
1.30223e-06
-5.41664e-07
1.5807e-06
-5.36434e-07
1.84506e-06
-5.02236e-07
2.10073e-06
-4.96932e-07
2.33046e-06
-4.30281e-07
2.55458e-06
-4.4568e-07
2.73573e-06
-3.2376e-07
2.92914e-06
-4.06985e-07
3.04957e-06
-1.78312e-07
3.2298e-06
-4.24493e-07
3.28155e-06
1.11185e-08
3.50787e-06
-5.98101e-07
3.50719e-06
2.20254e-07
-1.78574e-06
3.80892e-06
3.05707e-05
8.1327e-07
8.13767e-06
5.25018e-08
1.40204e-06
-2.53253e-07
6.33134e-07
-3.61904e-07
2.14351e-07
-4.33773e-07
1.32543e-07
-4.68338e-07
6.90278e-08
-4.94126e-07
4.4207e-08
-5.12816e-07
3.87671e-08
-5.30468e-07
3.35861e-08
-5.49675e-07
4.28073e-08
-5.72771e-07
5.08699e-08
-6.01922e-07
6.80946e-08
-6.38263e-07
8.49301e-08
-6.82877e-07
1.06249e-07
-7.36035e-07
1.26934e-07
-7.97988e-07
1.49203e-07
-8.68493e-07
1.70514e-07
-9.47198e-07
1.91599e-07
-1.03337e-06
2.11001e-07
-1.12601e-06
2.28467e-07
-1.22365e-06
2.42719e-07
-1.32449e-06
2.52987e-07
-1.42626e-06
2.58113e-07
-1.52644e-06
2.57373e-07
-1.62226e-06
2.50136e-07
-1.71075e-06
2.35808e-07
-1.78866e-06
2.13617e-07
-1.85258e-06
1.8293e-07
-1.89893e-06
1.43216e-07
-1.92409e-06
9.41544e-08
-1.92447e-06
3.56521e-08
-1.89666e-06
-3.21345e-08
-1.83751e-06
-1.0876e-07
-1.74429e-06
-1.93415e-07
-1.61474e-06
-2.8516e-07
-1.44728e-06
-3.82456e-07
-1.24107e-06
-4.83889e-07
-9.96336e-07
-5.86872e-07
-7.14601e-07
-6.89105e-07
-3.99533e-07
-7.84883e-07
-5.80061e-08
-8.67629e-07
2.98839e-07
-9.20412e-07
6.6032e-07
-9.30963e-07
1.0245e-06
-9.21275e-07
1.39138e-06
-9.22272e-07
1.75576e-06
-9.06047e-07
2.11392e-06
-8.94591e-07
2.4579e-06
-8.46214e-07
2.78766e-06
-8.26689e-07
3.09041e-06
-7.33038e-07
3.37739e-06
-7.32656e-07
3.62209e-06
-5.68466e-07
3.86303e-06
-6.47921e-07
4.03793e-06
-3.53213e-07
4.24773e-06
-6.34287e-07
4.35034e-06
-9.14991e-08
4.58939e-06
-8.37151e-07
4.66272e-06
1.46923e-07
-2.54522e-06
4.61533e-06
3.59553e-05
1.32422e-06
1.14288e-05
2.12533e-07
2.51373e-06
-2.18451e-07
1.06412e-06
-3.86883e-07
3.82782e-07
-4.95174e-07
2.40834e-07
-5.49363e-07
1.23217e-07
-5.89794e-07
8.46382e-08
-6.18008e-07
6.69809e-08
-6.43976e-07
5.95539e-08
-6.70207e-07
6.90388e-08
-7.00682e-07
8.13449e-08
-7.37698e-07
1.0511e-07
-7.83126e-07
1.30358e-07
-8.38086e-07
1.61209e-07
-9.03049e-07
1.91897e-07
-9.78134e-07
2.24288e-07
-1.06298e-06
2.55365e-07
-1.15696e-06
2.8558e-07
-1.25902e-06
3.13053e-07
-1.36769e-06
3.37137e-07
-1.48102e-06
3.56049e-07
-1.59659e-06
3.68563e-07
-1.71154e-06
3.73062e-07
-1.82268e-06
3.68514e-07
-1.92663e-06
3.54086e-07
-2.01982e-06
3.28995e-07
-2.09846e-06
2.92262e-07
-2.15865e-06
2.43121e-07
-2.19644e-06
1.81003e-07
-2.20794e-06
1.05656e-07
-2.18946e-06
1.71686e-08
-2.13762e-06
-8.39779e-08
-2.04948e-06
-1.969e-07
-1.92264e-06
-3.20251e-07
-1.75537e-06
-4.52426e-07
-1.54677e-06
-5.91064e-07
-1.29683e-06
-7.33825e-07
-1.00676e-06
-8.7694e-07
-6.79263e-07
-1.0166e-06
-3.19096e-07
-1.14505e-06
6.58829e-08
-1.25261e-06
4.6591e-07
-1.32044e-06
8.75314e-07
-1.34037e-06
1.29434e-06
-1.3403e-06
1.71997e-06
-1.3479e-06
2.14669e-06
-1.33277e-06
2.56815e-06
-1.31605e-06
2.97732e-06
-1.25538e-06
3.36949e-06
-1.21886e-06
3.73544e-06
-1.09899e-06
4.07813e-06
-1.07535e-06
4.38002e-06
-8.70352e-07
4.66504e-06
-9.3294e-07
4.88919e-06
-5.77368e-07
5.12834e-06
-8.73434e-07
5.27392e-06
-2.37077e-07
5.52753e-06
-1.09076e-06
5.65818e-06
1.62737e-08
-3.29158e-06
5.3468e-06
4.06085e-05
1.90193e-06
1.48736e-05
4.47754e-07
3.96791e-06
-1.33776e-07
1.64565e-06
-3.7622e-07
6.25226e-07
-5.27561e-07
3.92175e-07
-6.066e-07
2.02256e-07
-6.64722e-07
1.42761e-07
-7.04743e-07
1.07001e-07
-7.40359e-07
9.51704e-08
-7.74461e-07
1.0314e-07
-8.12543e-07
1.19427e-07
-8.57205e-07
1.49772e-07
-9.10969e-07
1.84123e-07
-9.7504e-07
2.2528e-07
-1.05001e-06
2.66868e-07
-1.13584e-06
3.10119e-07
-1.23199e-06
3.51511e-07
-1.33747e-06
3.91065e-07
-1.45085e-06
4.26432e-07
-1.5702e-06
4.5648e-07
-1.69303e-06
4.78886e-07
-1.81641e-06
4.91937e-07
-1.93692e-06
4.93574e-07
-2.05091e-06
4.825e-07
-2.15458e-06
4.57756e-07
-2.24403e-06
4.18451e-07
-2.31527e-06
3.635e-07
-2.36428e-06
2.92126e-07
-2.38712e-06
2.03846e-07
-2.38007e-06
9.86098e-08
-2.33973e-06
-2.31746e-08
-2.26311e-06
-1.60598e-07
-2.14772e-06
-3.1229e-07
-1.99166e-06
-4.76307e-07
-1.79377e-06
-6.50316e-07
-1.55372e-06
-8.31121e-07
-1.27211e-06
-1.01543e-06
-9.50703e-07
-1.19835e-06
-5.92732e-07
-1.37457e-06
-2.03238e-07
-1.53454e-06
2.10073e-07
-1.66592e-06
6.39408e-07
-1.74977e-06
1.08254e-06
-1.7835e-06
1.54029e-06
-1.79805e-06
2.00751e-06
-1.81512e-06
2.47876e-06
-1.80402e-06
2.94635e-06
-1.78364e-06
3.4043e-06
-1.71334e-06
3.84478e-06
-1.65934e-06
4.26169e-06
-1.5159e-06
4.65105e-06
-1.46471e-06
5.00317e-06
-1.22247e-06
5.32814e-06
-1.25791e-06
5.5988e-06
-8.4803e-07
5.86649e-06
-1.14112e-06
6.05296e-06
-4.23546e-07
6.32095e-06
-1.35876e-06
6.49872e-06
-1.61496e-07
-3.99776e-06
6.00885e-06
4.45997e-05
2.52349e-06
1.8359e-05
7.56542e-07
5.73486e-06
-2.45258e-09
2.40464e-06
-3.28737e-07
9.5151e-07
-5.30021e-07
5.9346e-07
-6.39313e-07
3.11548e-07
-7.18382e-07
2.2183e-07
-7.72577e-07
1.61196e-07
-8.19261e-07
1.41854e-07
-8.62089e-07
1.45969e-07
-9.08001e-07
1.65339e-07
-9.6003e-07
2.01801e-07
-1.02129e-06
2.45382e-07
-1.09309e-06
2.9708e-07
-1.17609e-06
3.49867e-07
-1.27006e-06
4.04089e-07
-1.37421e-06
4.5566e-07
-1.48719e-06
5.0405e-07
-1.60717e-06
5.46409e-07
-1.73177e-06
5.81078e-07
-1.85809e-06
6.05209e-07
-1.98278e-06
6.16627e-07
-2.10212e-06
6.1291e-07
-2.2122e-06
5.92584e-07
-2.30911e-06
5.54669e-07
-2.38894e-06
4.98279e-07
-2.44777e-06
4.22326e-07
-2.48176e-06
3.26122e-07
-2.48728e-06
2.09364e-07
-2.46095e-06
7.22798e-08
-2.39978e-06
-8.43435e-08
-2.30119e-06
-2.59186e-07
-2.16308e-06
-4.50407e-07
-1.98392e-06
-6.55465e-07
-1.76292e-06
-8.71314e-07
-1.50007e-06
-1.09397e-06
-1.19628e-06
-1.31922e-06
-8.53513e-07
-1.54112e-06
-4.75131e-07
-1.75296e-06
-6.60674e-08
-1.94361e-06
3.66591e-07
-2.09858e-06
8.16778e-07
-2.19996e-06
1.28403e-06
-2.25076e-06
1.7688e-06
-2.28281e-06
2.26465e-06
-2.31098e-06
2.76624e-06
-2.30561e-06
3.26532e-06
-2.28272e-06
3.75686e-06
-2.20488e-06
4.23137e-06
-2.13385e-06
4.68535e-06
-1.96988e-06
5.10994e-06
-1.8893e-06
5.5022e-06
-1.61472e-06
5.86023e-06
-1.61595e-06
6.17265e-06
-1.16044e-06
6.46605e-06
-1.43452e-06
6.69317e-06
-6.50675e-07
6.97349e-06
-1.63907e-06
7.19386e-06
-3.81873e-07
-4.64629e-06
6.60531e-06
4.79944e-05
3.16991e-06
2.17944e-05
1.13526e-06
7.76951e-06
1.93281e-07
3.34662e-06
-2.43166e-07
1.38796e-06
-5.01521e-07
8.51815e-07
-6.46681e-07
4.56708e-07
-7.50173e-07
3.25322e-07
-8.21025e-07
2.32049e-07
-8.803e-07
2.01129e-07
-9.32747e-07
1.98416e-07
-9.86724e-07
2.19316e-07
-1.0458e-06
2.60876e-07
-1.11364e-06
3.13223e-07
-1.19169e-06
3.75128e-07
-1.28063e-06
4.38804e-07
-1.38003e-06
5.03497e-07
-1.48886e-06
5.64491e-07
-1.60544e-06
6.20626e-07
-1.72759e-06
6.68554e-07
-1.85261e-06
7.06099e-07
-1.97734e-06
7.29947e-07
-2.09826e-06
7.37539e-07
-2.21153e-06
7.26182e-07
-2.31327e-06
6.94327e-07
-2.39967e-06
6.4107e-07
-2.46699e-06
5.65599e-07
-2.51156e-06
4.66893e-07
-2.52984e-06
3.44402e-07
-2.51851e-06
1.98037e-07
-2.47456e-06
2.83249e-08
-2.39531e-06
-1.63595e-07
-2.27845e-06
-3.7604e-07
-2.12213e-06
-6.06723e-07
-1.92509e-06
-8.52513e-07
-1.68671e-06
-1.10969e-06
-1.40715e-06
-1.37352e-06
-1.08746e-06
-1.63892e-06
-7.29617e-07
-1.89896e-06
-3.36983e-07
-2.14559e-06
8.57698e-08
-2.36636e-06
5.32307e-07
-2.54511e-06
9.97863e-07
-2.66552e-06
1.4826e-06
-2.73549e-06
1.98618e-06
-2.78639e-06
2.50147e-06
-2.82627e-06
3.02319e-06
-2.82733e-06
3.54292e-06
-2.80245e-06
4.05631e-06
-2.71827e-06
4.55314e-06
-2.63068e-06
5.03179e-06
-2.44852e-06
5.48045e-06
-2.33796e-06
5.90137e-06
-2.03565e-06
6.28372e-06
-1.9983e-06
6.62963e-06
-1.50636e-06
6.94342e-06
-1.74831e-06
7.20817e-06
-9.15417e-07
7.497e-06
-1.9279e-06
7.75691e-06
-6.41783e-07
-5.22725e-06
7.13977e-06
5.08546e-05
3.82534e-06
2.51088e-05
1.5771e-06
1.00177e-05
4.38211e-07
4.48551e-06
-1.17586e-07
1.94375e-06
-4.40876e-07
1.1751e-06
-6.27772e-07
6.43603e-07
-7.59392e-07
4.56942e-07
-8.4953e-07
3.22187e-07
-9.23049e-07
2.74648e-07
-9.86069e-07
2.61435e-07
-1.04839e-06
2.81632e-07
-1.11418e-06
3.26674e-07
-1.18768e-06
3.86724e-07
-1.27049e-06
4.5793e-07
-1.36331e-06
5.31628e-07
-1.46558e-06
6.05767e-07
-1.57606e-06
6.74966e-07
-1.69282e-06
7.37386e-07
-1.81348e-06
7.89223e-07
-1.93521e-06
8.27822e-07
-2.05475e-06
8.49487e-07
-2.16856e-06
8.51351e-07
-2.27292e-06
8.30538e-07
-2.36408e-06
7.85492e-07
-2.43844e-06
7.15434e-07
-2.49251e-06
6.19663e-07
-2.52286e-06
4.97247e-07
-2.52624e-06
3.47784e-07
-2.49961e-06
1.71404e-07
-2.4402e-06
-3.10835e-08
-2.34556e-06
-2.5824e-07
-2.21354e-06
-5.08054e-07
-2.04248e-06
-7.77788e-07
-1.83124e-06
-1.06375e-06
-1.57936e-06
-1.36158e-06
-1.28706e-06
-1.66582e-06
-9.55438e-07
-1.97054e-06
-5.86486e-07
-2.26791e-06
-1.83461e-07
-2.54861e-06
2.49265e-07
-2.79909e-06
7.06088e-07
-3.00194e-06
1.18316e-06
-3.14259e-06
1.68059e-06
-3.23292e-06
2.19716e-06
-3.30296e-06
2.72542e-06
-3.35453e-06
3.26012e-06
-3.36203e-06
3.79286e-06
-3.33519e-06
4.31973e-06
-3.24513e-06
4.83027e-06
-3.14122e-06
5.3241e-06
-2.94236e-06
5.7878e-06
-2.80165e-06
6.22729e-06
-2.47514e-06
6.6256e-06
-2.39661e-06
6.99547e-06
-1.87623e-06
7.32327e-06
-2.0761e-06
7.61894e-06
-1.21109e-06
7.91155e-06
-2.22051e-06
8.20592e-06
-9.36145e-07
-5.73718e-06
7.61604e-06
5.32386e-05
4.47662e-06
2.82483e-05
2.07329e-06
1.24211e-05
7.37942e-07
5.82085e-06
5.00886e-08
2.63161e-06
-3.46762e-07
1.57196e-06
-5.81536e-07
8.78377e-07
-7.45215e-07
6.2062e-07
-8.57448e-07
4.34421e-07
-9.47018e-07
3.64218e-07
-1.02167e-06
3.36082e-07
-1.09268e-06
3.52645e-07
-1.16493e-06
3.9893e-07
-1.24324e-06
4.65035e-07
-1.32943e-06
5.44112e-07
-1.4243e-06
6.26501e-07
-1.52722e-06
7.08685e-07
-1.63685e-06
7.84601e-07
-1.75117e-06
8.51707e-07
-1.86774e-06
9.05789e-07
-1.98368e-06
9.43765e-07
-2.09582e-06
9.61625e-07
-2.20072e-06
9.56253e-07
-2.29483e-06
9.24645e-07
-2.37461e-06
8.65267e-07
-2.43666e-06
7.77487e-07
-2.47772e-06
6.60721e-07
-2.4946e-06
5.14127e-07
-2.48426e-06
3.37446e-07
-2.44387e-06
1.31019e-07
-2.37086e-06
-1.04094e-07
-2.2629e-06
-3.66199e-07
-2.11799e-06
-6.52965e-07
-1.93458e-06
-9.61199e-07
-1.71166e-06
-1.28667e-06
-1.44883e-06
-1.6244e-06
-1.1464e-06
-1.96826e-06
-8.05462e-07
-2.31147e-06
-4.27995e-07
-2.64538e-06
-1.71404e-08
-2.95947e-06
4.23036e-07
-3.23926e-06
8.87587e-07
-3.46649e-06
1.37328e-06
-3.62829e-06
1.87981e-06
-3.73945e-06
2.4051e-06
-3.82825e-06
2.94165e-06
-3.89108e-06
3.48424e-06
-3.90462e-06
4.02458e-06
-3.87553e-06
4.55903e-06
-3.77957e-06
5.07716e-06
-3.65936e-06
5.57938e-06
-3.44458e-06
6.05143e-06
-3.2737e-06
6.50169e-06
-2.92541e-06
6.90923e-06
-2.80414e-06
7.2945e-06
-2.26151e-06
7.63045e-06
-2.41204e-06
7.94885e-06
-1.52949e-06
8.24084e-06
-2.5125e-06
8.56214e-06
-1.25745e-06
-6.17797e-06
8.03818e-06
5.52004e-05
5.11303e-06
3.11734e-05
2.61369e-06
1.49204e-05
1.09205e-06
7.34249e-06
2.61173e-07
3.46249e-06
-2.17742e-07
2.05087e-06
-5.06804e-07
1.16744e-06
-7.06688e-07
8.20504e-07
-8.44034e-07
5.71768e-07
-9.51646e-07
4.71829e-07
-1.03912e-06
4.23559e-07
-1.11933e-06
4.32852e-07
-1.19792e-06
4.77517e-07
-1.28036e-06
5.47483e-07
-1.3688e-06
6.32549e-07
-1.46425e-06
7.21949e-07
-1.56611e-06
8.10549e-07
-1.67309e-06
8.91581e-07
-1.78317e-06
9.61783e-07
-1.89395e-06
1.01657e-06
-2.00264e-06
1.05246e-06
-2.1062e-06
1.06518e-06
-2.20135e-06
1.05141e-06
-2.28473e-06
1.00802e-06
-2.353e-06
9.33538e-07
-2.40298e-06
8.27461e-07
-2.43157e-06
6.89317e-07
-2.4358e-06
5.18352e-07
-2.41279e-06
3.14441e-07
-2.3599e-06
7.81251e-08
-2.27467e-06
-1.89324e-07
-2.15488e-06
-4.85983e-07
-1.99866e-06
-8.09187e-07
-1.80457e-06
-1.1553e-06
-1.57167e-06
-1.51957e-06
-1.29966e-06
-1.89641e-06
-9.8886e-07
-2.27906e-06
-6.40407e-07
-2.65993e-06
-2.56235e-07
-3.02955e-06
1.60635e-07
-3.37634e-06
6.06429e-07
-3.68506e-06
1.07675e-06
-3.93681e-06
1.56877e-06
-4.12031e-06
2.08159e-06
-4.25226e-06
2.61239e-06
-4.35905e-06
3.15373e-06
-4.43242e-06
3.70047e-06
-4.45135e-06
4.24447e-06
-4.41954e-06
4.78226e-06
-4.31736e-06
5.30359e-06
-4.18069e-06
5.80933e-06
-3.95032e-06
6.2849e-06
-3.74928e-06
6.74025e-06
-3.38075e-06
7.15195e-06
-3.21584e-06
7.54588e-06
-2.65544e-06
7.8853e-06
-2.75146e-06
8.21874e-06
-1.86293e-06
8.50671e-06
-2.80048e-06
8.84656e-06
-1.5973e-06
-6.55496e-06
8.41042e-06
5.679e-05
5.72606e-06
3.38578e-05
3.18754e-06
1.7459e-05
1.49859e-06
9.03144e-06
5.18633e-07
4.44244e-06
-5.24437e-08
2.62195e-06
-4.02283e-07
1.51728e-06
-6.42719e-07
1.06094e-06
-8.08434e-07
7.37483e-07
-9.36293e-07
5.99688e-07
-1.038e-06
5.25264e-07
-1.1281e-06
5.22951e-07
-1.21311e-06
5.62525e-07
-1.29929e-06
6.33664e-07
-1.38919e-06
7.22456e-07
-1.48418e-06
8.16937e-07
-1.58382e-06
9.10187e-07
-1.68695e-06
9.94713e-07
-1.79166e-06
1.06649e-06
-1.89566e-06
1.12058e-06
-1.99631e-06
1.15311e-06
-2.09072e-06
1.15959e-06
-2.17579e-06
1.13648e-06
-2.24836e-06
1.08059e-06
-2.30528e-06
9.90452e-07
-2.34353e-06
8.65709e-07
-2.3602e-06
7.05989e-07
-2.35246e-06
5.10617e-07
-2.31761e-06
2.79592e-07
-2.25313e-06
1.36451e-08
-2.15668e-06
-2.85778e-07
-2.02613e-06
-6.16531e-07
-1.85972e-06
-9.75601e-07
-1.6561e-06
-1.35891e-06
-1.41445e-06
-1.76122e-06
-1.13449e-06
-2.17637e-06
-8.16604e-07
-2.59694e-06
-4.61937e-07
-3.01459e-06
-7.23919e-08
-3.41909e-06
3.49132e-07
-3.79786e-06
7.99124e-07
-4.13505e-06
1.27364e-06
-4.41133e-06
1.77009e-06
-4.61676e-06
2.28694e-06
-4.76911e-06
2.82072e-06
-4.89283e-06
3.36417e-06
-4.97587e-06
3.91221e-06
-4.99939e-06
4.45691e-06
-4.96424e-06
4.99489e-06
-4.85534e-06
5.51617e-06
-4.70197e-06
6.02189e-06
-4.45604e-06
6.49745e-06
-4.22483e-06
6.95374e-06
-3.83705e-06
7.36588e-06
-3.62798e-06
7.76341e-06
-3.05296e-06
8.10279e-06
-3.09085e-06
8.44493e-06
-2.20507e-06
8.72656e-06
-3.08211e-06
9.07718e-06
-1.94791e-06
-6.87491e-06
8.73705e-06
5.80529e-05
6.30921e-06
3.62856e-05
3.78394e-06
1.99842e-05
1.95402e-06
1.08613e-05
8.23646e-07
5.57282e-06
1.5176e-07
3.29383e-06
-2.66548e-07
1.93559e-06
-5.52066e-07
1.34646e-06
-7.49674e-07
9.3509e-07
-9.00229e-07
7.50243e-07
-1.01781e-06
6.42844e-07
-1.11876e-06
6.23897e-07
-1.21056e-06
6.54326e-07
-1.30038e-06
7.23491e-07
-1.39134e-06
8.13417e-07
-1.48526e-06
9.10849e-07
-1.58196e-06
1.00689e-06
-1.68054e-06
1.09329e-06
-1.77922e-06
1.16517e-06
-1.87592e-06
1.21727e-06
-1.96813e-06
1.24532e-06
-2.05314e-06
1.2446e-06
-2.12805e-06
1.2114e-06
-2.18988e-06
1.14242e-06
-2.23565e-06
1.03622e-06
-2.2625e-06
8.92568e-07
-2.2677e-06
7.11181e-07
-2.24854e-06
4.91456e-07
-2.20246e-06
2.33513e-07
-2.12706e-06
-6.1751e-08
-2.0201e-06
-3.92738e-07
-1.87955e-06
-7.57076e-07
-1.70376e-06
-1.15139e-06
-1.49148e-06
-1.5712e-06
-1.24194e-06
-2.01076e-06
-9.54966e-07
-2.46334e-06
-6.30952e-07
-2.92096e-06
-2.71063e-07
-3.37448e-06
1.22821e-07
-3.81298e-06
5.47926e-07
-4.22297e-06
1.00096e-06
-4.58808e-06
1.47835e-06
-4.88872e-06
1.97762e-06
-5.11603e-06
2.49663e-06
-5.28813e-06
3.03138e-06
-5.42757e-06
3.57479e-06
-5.51928e-06
4.12188e-06
-5.54648e-06
4.66495e-06
-5.50731e-06
5.20071e-06
-5.39109e-06
5.71945e-06
-5.22072e-06
6.22249e-06
-4.95907e-06
6.69536e-06
-4.6977e-06
7.14954e-06
-4.29123e-06
7.55933e-06
-4.03777e-06
7.95671e-06
-3.45035e-06
8.29347e-06
-3.4276e-06
8.63939e-06
-2.55099e-06
8.91316e-06
-3.35587e-06
9.26809e-06
-2.30284e-06
-7.14457e-06
9.0223e-06
5.90306e-05
6.85779e-06
3.84501e-05
4.39235e-06
2.24497e-05
2.45334e-06
1.28004e-05
1.17674e-06
6.84941e-06
3.95951e-07
4.07463e-06
-9.78213e-08
2.42936e-06
-4.33314e-07
1.68195e-06
-6.6663e-07
1.16841e-06
-8.42592e-07
9.26206e-07
-9.77978e-07
7.7823e-07
-1.09103e-06
7.36944e-07
-1.1903e-06
7.53601e-07
-1.28402e-06
8.1721e-07
-1.37597e-06
9.05368e-07
-1.46855e-06
1.00343e-06
-1.56199e-06
1.10032e-06
-1.65564e-06
1.18694e-06
-1.74798e-06
1.25751e-06
-1.8371e-06
1.30639e-06
-1.92069e-06
1.3289e-06
-1.99623e-06
1.32014e-06
-2.061e-06
1.27617e-06
-2.11219e-06
1.19361e-06
-2.14701e-06
1.07103e-06
-2.16275e-06
9.08314e-07
-2.15681e-06
7.05239e-07
-2.12663e-06
4.61276e-07
-2.06978e-06
1.76658e-07
-1.98396e-06
-1.47572e-07
-1.86702e-06
-5.09679e-07
-1.71704e-06
-9.07051e-07
-1.53247e-06
-1.33596e-06
-1.31217e-06
-1.7915e-06
-1.05544e-06
-2.26749e-06
-7.62148e-07
-2.75663e-06
-4.32755e-07
-3.25035e-06
-6.84367e-08
-3.7388e-06
3.28957e-07
-4.21037e-06
7.56758e-07
-4.65077e-06
1.21186e-06
-5.04319e-06
1.69097e-06
-5.36783e-06
2.19168e-06
-5.61673e-06
2.71127e-06
-5.80772e-06
3.2453e-06
-5.96161e-06
3.78693e-06
-6.06091e-06
4.33125e-06
-6.09081e-06
4.87083e-06
-6.04688e-06
5.40241e-06
-5.92268e-06
5.91665e-06
-5.73496e-06
6.41491e-06
-5.45733e-06
6.88301e-06
-5.16581e-06
7.33275e-06
-4.74096e-06
7.73806e-06
-4.44308e-06
8.1325e-06
-3.84479e-06
8.46466e-06
-3.75977e-06
8.81065e-06
-2.89698e-06
9.07555e-06
-3.62076e-06
9.42973e-06
-2.65702e-06
-7.36999e-06
9.27028e-06
5.97603e-05
7.36868e-06
4.03517e-05
5.00293e-06
2.48154e-05
2.9902e-06
1.48131e-05
1.57737e-06
8.26225e-06
6.81948e-07
4.97005e-06
1.05774e-07
3.00553e-06
-2.84882e-07
2.07261e-06
-5.5801e-07
1.44153e-06
-7.62359e-07
1.13056e-06
-9.17788e-07
9.33659e-07
-1.04451e-06
8.63661e-07
-1.15227e-06
8.61362e-07
-1.25045e-06
9.15391e-07
-1.34364e-06
9.98558e-07
-1.43494e-06
1.09473e-06
-1.52502e-06
1.19041e-06
-1.61364e-06
1.27556e-06
-1.69951e-06
1.34339e-06
-1.78096e-06
1.38784e-06
-1.85588e-06
1.40382e-06
-1.92194e-06
1.3862e-06
-1.97663e-06
1.33086e-06
-2.01731e-06
1.2343e-06
-2.04135e-06
1.09507e-06
-2.04621e-06
9.13172e-07
-2.02941e-06
6.88433e-07
-1.98851e-06
4.20386e-07
-1.92123e-06
1.0937e-07
-1.82535e-06
-2.43448e-07
-1.69883e-06
-6.362e-07
-1.53986e-06
-1.06602e-06
-1.34699e-06
-1.52883e-06
-1.11916e-06
-2.01933e-06
-8.5577e-07
-2.53088e-06
-5.56746e-07
-3.05566e-06
-2.22587e-07
-3.58451e-06
1.45511e-07
-4.1069e-06
5.45721e-07
-4.61058e-06
9.75464e-07
-5.08051e-06
1.43178e-06
-5.49951e-06
1.91161e-06
-5.84765e-06
2.41252e-06
-6.11764e-06
2.93133e-06
-6.32653e-06
3.46323e-06
-6.49351e-06
4.0016e-06
-6.59927e-06
4.54164e-06
-6.63086e-06
5.07615e-06
-6.5814e-06
5.60198e-06
-6.4485e-06
6.11008e-06
-6.24306e-06
6.60187e-06
-5.94913e-06
7.06354e-06
-5.62747e-06
7.50698e-06
-5.18441e-06
7.90614e-06
-4.84224e-06
8.29547e-06
-4.23412e-06
8.62153e-06
-4.08582e-06
8.96475e-06
-3.24019e-06
9.22008e-06
-3.87609e-06
9.56967e-06
-3.00661e-06
-7.5563e-06
9.48492e-06
6.02754e-05
7.84011e-06
4.19965e-05
5.60675e-06
2.70488e-05
3.5573e-06
1.68625e-05
2.02374e-06
9.79581e-06
1.01119e-06
5.9826e-06
3.46294e-07
3.67043e-06
-1.05064e-07
2.52397e-06
-4.22345e-07
1.75882e-06
-6.58305e-07
1.36651e-06
-8.36325e-07
1.11168e-06
-9.78602e-07
1.00594e-06
-1.09618e-06
9.78942e-07
-1.1997e-06
1.01891e-06
-1.29466e-06
1.09352e-06
-1.38497e-06
1.18504e-06
-1.47186e-06
1.2773e-06
-1.5555e-06
1.3592e-06
-1.63493e-06
1.42282e-06
-1.70872e-06
1.46164e-06
-1.775e-06
1.4701e-06
-1.83164e-06
1.44285e-06
-1.87633e-06
1.37554e-06
-1.90662e-06
1.26458e-06
-1.92004e-06
1.10849e-06
-1.91419e-06
9.07328e-07
-1.88674e-06
6.60978e-07
-1.83538e-06
3.69028e-07
-1.75793e-06
3.19164e-08
-1.65228e-06
-3.49091e-07
-1.5165e-06
-7.71984e-07
-1.34888e-06
-1.23363e-06
-1.14809e-06
-1.72963e-06
-9.13147e-07
-2.25427e-06
-6.43537e-07
-2.80049e-06
-3.39253e-07
-3.35994e-06
-8.36164e-10
-3.92293e-06
3.70483e-07
-4.47822e-06
7.72911e-07
-5.01301e-06
1.20393e-06
-5.51153e-06
1.66071e-06
-5.95629e-06
2.14035e-06
-6.32729e-06
2.64038e-06
-6.61768e-06
3.1572e-06
-6.84335e-06
3.68575e-06
-7.02205e-06
4.21959e-06
-7.13311e-06
4.75405e-06
-7.16532e-06
5.28217e-06
-7.10952e-06
5.80087e-06
-6.96721e-06
6.30146e-06
-6.74364e-06
6.78538e-06
-6.43304e-06
7.2392e-06
-6.08129e-06
7.67485e-06
-5.62006e-06
8.06646e-06
-5.23384e-06
8.449e-06
-4.61666e-06
8.76774e-06
-4.40456e-06
9.10599e-06
-3.57845e-06
9.35124e-06
-4.12135e-06
9.69335e-06
-3.34872e-06
-7.70774e-06
9.66998e-06
6.06054e-05
8.27145e-06
4.3395e-05
6.19605e-06
2.91242e-05
4.14663e-06
1.8912e-05
2.51278e-06
1.14297e-05
1.38447e-06
7.11091e-06
6.25797e-07
4.4291e-06
1.08067e-07
3.0417e-06
-2.58004e-07
2.12489e-06
-5.28995e-07
1.63751e-06
-7.32449e-07
1.31513e-06
-8.92483e-07
1.16597e-06
-1.02153e-06
1.10799e-06
-1.13156e-06
1.12894e-06
-1.22908e-06
1.19103e-06
-1.31891e-06
1.27487e-06
-1.40292e-06
1.36131e-06
-1.48179e-06
1.43807e-06
-1.55492e-06
1.49595e-06
-1.62117e-06
1.52789e-06
-1.6789e-06
1.52782e-06
-1.72622e-06
1.49017e-06
-1.76101e-06
1.41034e-06
-1.78103e-06
1.2846e-06
-1.78397e-06
1.11143e-06
-1.76759e-06
8.90946e-07
-1.72967e-06
6.23059e-07
-1.66804e-06
3.07406e-07
-1.58064e-06
-5.54851e-08
-1.46547e-06
-4.64264e-07
-1.32068e-06
-9.16769e-07
-1.14471e-06
-1.40961e-06
-9.36308e-07
-1.93803e-06
-6.94602e-07
-2.49598e-06
-4.1915e-07
-3.07594e-06
-1.10017e-07
-3.66907e-06
2.32201e-07
-4.26515e-06
6.06272e-07
-4.85229e-06
1.01039e-06
-5.41712e-06
1.44209e-06
-5.94324e-06
1.89864e-06
-6.41284e-06
2.37726e-06
-6.80591e-06
2.87543e-06
-7.11584e-06
3.38921e-06
-7.35714e-06
3.91332e-06
-7.54616e-06
4.44152e-06
-7.66131e-06
4.96925e-06
-7.69305e-06
5.48982e-06
-7.63008e-06
6.00022e-06
-7.47761e-06
6.4921e-06
-7.23552e-06
6.96692e-06
-6.90786e-06
7.41169e-06
-6.52606e-06
7.83828e-06
-6.04666e-06
8.22117e-06
-5.61673e-06
8.59552e-06
-4.99101e-06
8.90593e-06
-4.71497e-06
9.23749e-06
-3.91001e-06
9.47225e-06
-4.35612e-06
9.8047e-06
-3.68116e-06
-7.82777e-06
9.82895e-06
6.07765e-05
8.66302e-06
4.4561e-05
6.76421e-06
3.1023e-05
4.74985e-06
2.09263e-05
3.04013e-06
1.31394e-05
1.80174e-06
8.34931e-06
9.4596e-07
5.28488e-06
3.5642e-07
3.63123e-06
-6.31457e-08
2.54445e-06
-3.72803e-07
1.94716e-06
-6.04788e-07
1.54712e-06
-7.85056e-07
1.34624e-06
-9.27534e-07
1.25047e-06
-1.04553e-06
1.24693e-06
-1.14664e-06
1.29214e-06
-1.23671e-06
1.36495e-06
-1.31834e-06
1.44294e-06
-1.39279e-06
1.51252e-06
-1.45986e-06
1.56302e-06
-1.51875e-06
1.58678e-06
-1.56809e-06
1.57716e-06
-1.60622e-06
1.5283e-06
-1.63126e-06
1.43537e-06
-1.64114e-06
1.29448e-06
-1.63374e-06
1.10403e-06
-1.60698e-06
8.64182e-07
-1.55876e-06
5.74842e-07
-1.48705e-06
2.35701e-07
-1.3899e-06
-1.52644e-07
-1.2654e-06
-5.88761e-07
-1.11184e-06
-1.07033e-06
-9.27768e-07
-1.59368e-06
-7.12033e-07
-2.15377e-06
-4.63864e-07
-2.74415e-06
-1.82903e-07
-3.3569e-06
1.30717e-07
-3.98269e-06
4.76348e-07
-4.61078e-06
8.52731e-07
-5.22867e-06
1.25805e-06
-5.82244e-06
1.68988e-06
-6.37507e-06
2.14557e-06
-6.86853e-06
2.62242e-06
-7.28275e-06
3.11782e-06
-7.61125e-06
3.6276e-06
-7.86691e-06
4.14631e-06
-8.06487e-06
4.66789e-06
-8.18288e-06
5.18788e-06
-8.21305e-06
5.69986e-06
-8.14206e-06
6.2009e-06
-7.97865e-06
6.68301e-06
-7.71763e-06
7.14765e-06
-7.3725e-06
7.58229e-06
-6.96071e-06
7.99873e-06
-6.46309e-06
8.37187e-06
-5.98987e-06
8.73686e-06
-5.356e-06
9.03806e-06
-5.01618e-06
9.36154e-06
-4.23348e-06
9.58545e-06
-4.58002e-06
9.90658e-06
-4.0023e-06
-7.91924e-06
9.96509e-06
6.08114e-05
9.01589e-06
4.55102e-05
7.30591e-06
3.2733e-05
5.35864e-06
2.28736e-05
3.6003e-06
1.48977e-05
2.26191e-06
9.6877e-06
1.30802e-06
6.23878e-06
6.41817e-07
4.29743e-06
1.64158e-07
3.02211e-06
-1.87943e-07
2.29926e-06
-4.51763e-07
1.81094e-06
-6.54983e-07
1.54946e-06
-8.13127e-07
1.40861e-06
-9.40815e-07
1.37462e-06
-1.04681e-06
1.39813e-06
-1.13805e-06
1.45619e-06
-1.21796e-06
1.52285e-06
-1.28846e-06
1.58302e-06
-1.34983e-06
1.62439e-06
-1.40164e-06
1.63858e-06
-1.4428e-06
1.61832e-06
-1.47193e-06
1.55744e-06
-1.48738e-06
1.45082e-06
-1.48728e-06
1.29439e-06
-1.46971e-06
1.08646e-06
-1.43272e-06
8.27197e-07
-1.37438e-06
5.16494e-07
-1.29276e-06
1.54085e-07
-1.18602e-06
-2.5938e-07
-1.0524e-06
-7.22389e-07
-8.90279e-07
-1.23244e-06
-6.98331e-07
-1.78563e-06
-4.75518e-07
-2.37658e-06
-2.21164e-07
-2.9985e-06
6.50021e-08
-3.64307e-06
3.8278e-07
-4.30047e-06
7.31464e-07
-4.95946e-06
1.10976e-06
-5.60697e-06
1.51583e-06
-6.22851e-06
1.94729e-06
-6.80653e-06
2.40152e-06
-7.32276e-06
2.87589e-06
-7.75712e-06
3.36771e-06
-8.10308e-06
3.87261e-06
-8.37181e-06
4.38504e-06
-8.5773e-06
4.89909e-06
-8.69693e-06
5.41043e-06
-8.72439e-06
5.91287e-06
-8.64449e-06
6.40359e-06
-8.46938e-06
6.87496e-06
-8.18899e-06
7.32845e-06
-7.826e-06
7.75201e-06
-7.38427e-06
8.15729e-06
-6.86838e-06
8.51977e-06
-6.35235e-06
8.87439e-06
-5.71062e-06
9.16562e-06
-5.3074e-06
9.47985e-06
-4.54771e-06
9.69255e-06
-4.79273e-06
1.00011e-05
-4.31086e-06
-7.98449e-06
1.00814e-05
6.073e-05
9.33172e-06
4.62598e-05
7.81703e-06
3.42477e-05
5.96499e-06
2.47256e-05
4.18684e-06
1.66759e-05
2.76278e-06
1.11118e-05
1.7126e-06
7.28896e-06
9.66022e-07
5.04401e-06
4.25976e-07
3.56216e-06
2.74425e-08
2.6978e-06
-2.7162e-07
2.11e-06
-5.00691e-07
1.77853e-06
-6.77001e-07
1.58492e-06
-8.16385e-07
1.514e-06
-9.28792e-07
1.51054e-06
-1.02234e-06
1.54974e-06
-1.10138e-06
1.60189e-06
-1.16855e-06
1.65018e-06
-1.22468e-06
1.68052e-06
-1.26976e-06
1.68366e-06
-1.30304e-06
1.6516e-06
-1.32342e-06
1.57782e-06
-1.32949e-06
1.45688e-06
-1.31961e-06
1.28451e-06
-1.29204e-06
1.05889e-06
-1.24501e-06
7.80168e-07
-1.17671e-06
4.48191e-07
-1.08536e-06
6.27324e-08
-9.69221e-07
-3.75515e-07
-8.26651e-07
-8.6496e-07
-6.56179e-07
-1.40292e-06
-4.56581e-07
-1.98523e-06
-2.2693e-07
-2.60623e-06
3.33465e-08
-3.25878e-06
3.24436e-07
-3.93416e-06
6.46065e-07
-4.6221e-06
9.97463e-07
-5.31086e-06
1.37729e-06
-5.98679e-06
1.78369e-06
-6.63491e-06
2.21429e-06
-7.23713e-06
2.6665e-06
-7.77498e-06
3.13773e-06