/*--------------------------------*- C++ -*----------------------------------*\
| =========                 |                                                 |
| \\      /  F ield         | OpenFOAM: The Open Source CFD Toolbox           |
|  \\    /   O peration     | Version:  2.4.0                                 |
|   \\  /    A nd           | Web:      www.OpenFOAM.org                      |
|    \\/     M anipulation  |                                                 |
\*---------------------------------------------------------------------------*/
FoamFile
{
    version     2.0;
    format      ascii;
    class       volVectorField;
    location    "3.25";
    object      U;
}
// * * * * * * * * * * * * * * * * * * * * * * * * * * * * * * * * * * * * * //

dimensions      [0 1 -1 0 0 0 0];

internalField   nonuniform List<vector> 
6000
(
(0.513492 -0.0430661 -7.59792e-18)
(-0.31781 0.0668558 0)
(0.11202 -0.0274123 8.73186e-18)
(0.00851507 -0.00166939 0)
(0.00588284 6.00832e-05 0)
(-0.0294678 0.00566387 0)
(-0.00941354 0.00194525 3.7753e-18)
(-0.0236904 0.00420522 8.12023e-23)
(-0.0170435 0.00326692 0)
(-0.0308803 0.00573031 0)
(-0.047594 0.0089905 3.14754e-18)
(-0.0776432 0.0133421 -5.98033e-18)
(-0.106979 0.0168099 0)
(-0.129546 0.0177871 0)
(-0.130687 0.0152202 -1.30291e-18)
(-0.10148 0.00811538 0)
(-0.0368484 -0.00239362 0)
(0.0630943 -0.0143508 -1.32867e-18)
(0.164121 -0.0196941 -1.23467e-18)
(0.201824 -0.0143422 0)
(0.121296 -0.00527837 1.23075e-18)
(0.0675204 -0.00360945 6.5504e-19)
(0.0427602 0.00257966 -6.40829e-19)
(-0.113605 0.0173212 0)
(-0.271863 0.02295 0)
(-0.383778 0.0206627 0)
(-0.45336 0.0163212 1.34769e-19)
(-0.498812 0.0118616 -1.1116e-19)
(-0.5281 0.00717219 0)
(-0.544647 0.00225487 0)
(-0.549103 -0.00274777 1.31375e-20)
(-0.541992 -0.00796753 0)
(-0.525562 -0.0125484 1.53346e-19)
(-0.499251 -0.0165732 -1.93215e-19)
(-0.462618 -0.0198105 0)
(-0.415029 -0.0220252 0)
(-0.355723 -0.0229545 7.44164e-19)
(-0.283986 -0.0223008 0)
(-0.199525 -0.019749 1.04914e-18)
(-0.10296 -0.0149869 0)
(0.00406937 -0.00760327 0)
(0.117929 0.00245353 2.81682e-18)
(0.233744 0.0148817 -5.74134e-18)
(0.345733 0.0291337 0)
(0.447682 0.0444175 0)
(0.533898 0.0597679 2.53734e-18)
(0.600149 0.0741691 0)
(0.644493 0.0875563 0)
(0.657632 0.0963444 -4.07918e-18)
(0.64166 0.100325 -3.95171e-18)
(0.605249 0.100282 -3.92801e-18)
(0.56082 0.0976281 -3.25307e-21)
(0.517034 0.0939777 4.10274e-18)
(0.486808 0.0914931 0)
(0.464074 0.0905801 -3.89759e-21)
(0.469952 0.0943132 -4.32008e-18)
(0.463334 0.0973919 3.96213e-18)
(0.517625 0.109939 3.95452e-18)
(0.50466 0.114149 1.27167e-20)
(0.654858 0.144742 0)
(0.726743 -0.108545 5.95513e-18)
(-0.209361 0.0626653 5.20439e-18)
(0.0920332 -0.031664 -4.23641e-18)
(-0.0231075 0.00889084 -4.56773e-18)
(0.00514681 0.00134464 0)
(-0.0414983 0.00857127 0)
(-0.0166834 0.00321369 -3.71099e-18)
(-0.0325201 0.00597838 7.13723e-18)
(-0.0267901 0.00546369 0)
(-0.0441862 0.00906865 0)
(-0.0647937 0.0135378 -3.04558e-18)
(-0.0961126 0.0181037 2.87626e-18)
(-0.123237 0.0208894 1.35049e-18)
(-0.140905 0.0201945 0)
(-0.139254 0.0154309 1.22501e-18)
(-0.110665 0.00558297 0)
(-0.0476309 -0.00837088 0)
(0.0498545 -0.0226252 0)
(0.149593 -0.0259618 0)
(0.206358 -0.0131794 0)
(0.156097 -0.000253143 2.14638e-22)
(0.0825755 0.00244541 0)
(-0.00247641 0.0178888 -6.12422e-19)
(-0.209061 0.0391298 0)
(-0.363993 0.0401309 0)
(-0.448626 0.0314341 1.59185e-19)
(-0.498838 0.0235193 -1.24409e-19)
(-0.531464 0.0168029 8.3141e-23)
(-0.551095 0.0103991 4.51606e-20)
(-0.560078 0.00398026 0)
(-0.559784 -0.00234876 -1.20293e-20)
(-0.55099 -0.00864947 -5.60669e-20)
(-0.532292 -0.0145185 -1.2191e-21)
(-0.503507 -0.0198644 1.75214e-19)
(-0.46417 -0.0244451 -2.18175e-19)
(-0.413677 -0.0279978 0)
(-0.351301 -0.0302192 0)
(-0.276363 -0.0307373 0)
(-0.188603 -0.0291207 0)
(-0.0886879 -0.0249313 0)
(0.0217297 -0.0176675 -2.30713e-18)
(0.139319 -0.00716455 0)
(0.259318 0.00651007 2.52624e-18)
(0.375919 0.0228298 2.49046e-18)
(0.482985 0.0408926 0)
(0.57501 0.0595409 0)
(0.647844 0.0775331 0)
(0.698634 0.0939831 0)
(0.730103 0.108046 3.77322e-18)
(0.740507 0.118637 0)
(0.728314 0.12455 0)
(0.69745 0.125574 -3.73753e-18)
(0.655028 0.123071 -3.84655e-18)
(0.614915 0.11915 0)
(0.581375 0.11664 -8.01845e-18)
(0.572018 0.116984 0)
(0.566331 0.121351 -7.49511e-18)
(0.614217 0.131981 -3.72416e-18)
(0.618506 0.142766 2.20096e-18)
(0.776772 0.174491 2.66895e-18)
(0.798633 -0.0913418 -3.36051e-19)
(-0.0779829 0.0480724 -4.86399e-18)
(0.0670831 -0.0276605 0)
(-0.0549049 0.0170753 4.52944e-18)
(0.00217703 0.0025378 0)
(-0.045773 0.00969751 0)
(-0.0208832 0.00400728 0)
(-0.0366145 0.00683147 -3.48234e-18)
(-0.031871 0.00707053 0)
(-0.0496735 0.0114905 -3.12108e-18)
(-0.070107 0.0167555 0)
(-0.0997117 0.0211705 0)
(-0.125169 0.0231763 -1.28046e-18)
(-0.142483 0.0211057 0)
(-0.142112 0.0142858 0)
(-0.115619 0.00165166 0)
(-0.0558245 -0.0154507 0)
(0.0371241 -0.0315121 0)
(0.133766 -0.0328029 0)
(0.190746 -0.0123833 1.06535e-18)
(0.155579 0.00611238 -1.14385e-18)
(0.0787781 0.0126648 0)
(-0.0431181 0.0379565 -1.87341e-21)
(-0.247948 0.0606659 -5.00585e-19)
(-0.374252 0.0530287 0)
(-0.444252 0.0382755 -2.91164e-19)
(-0.490377 0.0277654 0)
(-0.52164 0.0194237 9.21884e-20)
(-0.540983 0.0117535 -4.05596e-20)
(-0.550243 0.00422372 0)
(-0.550203 -0.00318039 0)
(-0.54097 -0.0103467 4.99847e-20)
(-0.521883 -0.0172061 -1.20977e-21)
(-0.492717 -0.0235696 0)
(-0.452999 -0.0292066 3.84508e-19)
(-0.402123 -0.0338612 0)
(-0.339357 -0.0372274 5.76558e-19)
(-0.264016 -0.0389017 0)
(-0.175832 -0.0383771 0)
(-0.0754568 -0.0351072 0)
(0.0354881 -0.028471 2.00632e-18)
(0.153719 -0.0182157 0)
(0.274387 -0.0042417 0)
(0.391688 0.0129756 -2.18074e-18)
(0.499538 0.0324936 0)
(0.592538 0.0530436 0)
(0.666631 0.0732431 1.8753e-18)
(0.719313 0.0918689 -1.7714e-18)
(0.751601 0.108301 -1.7002e-18)
(0.76447 0.121495 0)
(0.758384 0.130433 0)
(0.735989 0.134426 0)
(0.701019 0.134133 3.59779e-18)
(0.664523 0.130739 3.73586e-18)
(0.630888 0.127774 3.77781e-18)
(0.619896 0.125986 0)
(0.612448 0.129885 3.53771e-18)
(0.65984 0.136847 7.03634e-18)
(0.66574 0.150261 0)
(0.824185 0.174537 -2.51234e-18)
(0.836463 -0.0599281 -2.63413e-19)
(0.0437602 0.0395395 4.45605e-18)
(0.0471734 -0.0204125 -4.11735e-18)
(-0.075606 0.0222399 0)
(-0.000553523 0.00293148 0)
(-0.0476693 0.0104689 0)
(-0.0239423 0.00453679 0)
(-0.0392752 0.00750222 0)
(-0.0352905 0.00835685 0)
(-0.0526344 0.0134599 3.02927e-18)
(-0.07214 0.0192933 2.83163e-18)
(-0.10016 0.023652 0)
(-0.124752 0.0251312 0)
(-0.14244 0.0219549 0)
(-0.143669 0.0132684 1.07059e-18)
(-0.11979 -0.00209595 0)
(-0.0637198 -0.0223324 1.01211e-18)
(0.0243664 -0.0402718 -1.001e-18)
(0.117746 -0.0395772 0)
(0.17434 -0.0120728 -1.02399e-18)
(0.14733 0.0127161 0)
(0.0690662 0.0249685 -5.89755e-19)
(-0.0751273 0.0587316 1.11068e-18)
(-0.264289 0.0795835 4.7136e-19)
(-0.369011 0.0635128 0)
(-0.432948 0.0443839 1.33314e-19)
(-0.477596 0.0318485 0)
(-0.508423 0.0220908 8.33215e-20)
(-0.527769 0.0132743 0)
(-0.537192 0.00472503 0)
(-0.537219 -0.00367228 0)
(-0.52786 -0.0118673 4.40762e-20)
(-0.508722 -0.0197679 -2.17987e-19)
(-0.479538 -0.0272066 0)
(-0.439826 -0.0339668 -1.72049e-19)
(-0.388971 -0.0398011 0)
(-0.326234 -0.0444021 -5.17895e-19)
(-0.250919 -0.0473345 0)
(-0.162738 -0.0480119 0)
(-0.0623207 -0.045776 0)
(0.0487118 -0.0398611 1.77865e-18)
(0.166995 -0.0298361 0)
(0.287639 -0.015504 1.93938e-18)
(0.404841 0.00269292 -1.93355e-18)
(0.512537 0.0237507 0)
(0.605388 0.0462604 -1.78709e-18)
(0.679419 0.068667 -3.38404e-18)
(0.732355 0.0895869 1.60932e-18)
(0.764623 0.108066 3.09439e-18)
(0.777807 0.123064 -3.04471e-18)
(0.773532 0.133814 -3.09305e-18)
(0.754981 0.139614 0)
(0.725034 0.140887 -3.35799e-18)
(0.692721 0.13819 -3.50432e-18)
(0.661163 0.135135 -3.54566e-18)
(0.64999 0.132099 0)
(0.641784 0.13523 0)
(0.686703 0.139791 -3.30042e-18)
(0.693277 0.153927 0)
(0.845496 0.172513 2.28444e-18)
(0.861483 -0.034466 -2.46465e-19)
(0.153213 0.0356209 -8.9878e-20)
(0.0540538 -0.0145994 4.08025e-18)
(-0.0864136 0.0250106 4.47825e-18)
(-0.00312422 0.00285471 0)
(-0.0487082 0.0110989 -3.8109e-18)
(-0.0263748 0.00495697 0)
(-0.0412725 0.00808691 0)
(-0.0377721 0.00945644 0)
(-0.0542751 0.0151742 2.95336e-18)
(-0.0726156 0.0214807 -2.74422e-18)
(-0.0992468 0.0258746 0)
(-0.123315 0.0269677 0)
(-0.141621 0.0228283 0)
(-0.14466 0.0123858 -1.02232e-18)
(-0.123754 -0.00560238 0)
(-0.0717839 -0.0288743 -9.59537e-19)
(0.0112126 -0.0487194 9.49563e-19)
(0.101146 -0.0462743 0)
(0.157628 -0.0122022 0)
(0.136258 0.0193167 5.37354e-19)
(0.0562986 0.0386732 5.71256e-19)
(-0.0999064 0.0789816 -1.06377e-18)
(-0.269858 0.0957765 -4.42779e-19)
(-0.359645 0.0725078 0)
(-0.420104 0.0501857 1.23027e-19)
(-0.463591 0.0358788 0)
(-0.493995 0.024766 -7.65043e-20)
(-0.513248 0.0148147 3.31594e-20)
(-0.522689 0.00523446 0)
(-0.522713 -0.00416739 0)
(-0.513318 -0.0133926 -8.04052e-20)
(-0.494216 -0.0223491 9.94926e-20)
(-0.465109 -0.03088 0)
(-0.425508 -0.0387836 -1.55369e-19)
(-0.374792 -0.0458219 0)
(-0.31221 -0.0516864 4.70169e-19)
(-0.237051 -0.0559096 0)
(-0.149006 -0.0578242 0)
(-0.0486724 -0.0566545 0)
(0.0622865 -0.0514787 -1.64347e-18)
(0.180413 -0.0416938 -1.73418e-18)
(0.300797 -0.0270032 -1.79225e-18)
(0.41762 -0.00782014 1.04595e-20)
(0.524822 0.0147833 -1.72513e-18)
(0.617104 0.0392485 1.65349e-18)
(0.690565 0.0638343 3.11274e-18)
(0.7431 0.0869511 0)
(0.774908 0.107399 -1.43041e-18)
(0.787789 0.124094 2.81986e-18)
(0.783967 0.136322 2.86664e-18)
(0.767138 0.143417 0)
(0.740131 0.145765 0)
(0.710959 0.143607 0)
(0.681684 0.140511 3.33207e-18)
(0.671005 0.136488 0)
(0.662652 0.138774 0)
(0.705427 0.14115 3.07946e-18)
(0.712113 0.1553 -1.74367e-18)
(0.858341 0.169287 -2.10083e-18)
(0.880267 -0.0137277 -2.28001e-19)
(0.250948 0.0348532 -4.09523e-18)
(0.081379 -0.00973585 0)
(-0.0882645 0.0267606 -4.45841e-18)
(-0.00568327 0.00259075 -3.99671e-18)
(-0.0493095 0.0116504 3.83638e-22)
(-0.0283328 0.00530315 0)
(-0.0428238 0.00860925 0)
(-0.0395672 0.0103976 0)
(-0.0550288 0.0166731 -2.88678e-18)
(-0.0721017 0.0234091 0)
(-0.0974738 0.027915 0)
(-0.121178 0.028734 1.13334e-18)
(-0.140226 0.0237636 0)
(-0.145235 0.0116999 0)
(-0.127584 -0.00875786 0)
(-0.0800482 -0.0349208 0)
(-0.00235645 -0.0566742 -9.04799e-19)
(0.0838748 -0.0527696 0)
(0.140588 -0.0126677 9.63887e-19)
(0.123688 0.0258386 -5.25849e-19)
(0.0418912 0.053083 -5.53996e-19)
(-0.118757 0.0981922 1.02094e-18)
(-0.269519 0.109805 8.37908e-19)
(-0.348615 0.0805189 0)
(-0.406444 0.0557395 -1.14981e-19)
(-0.448787 0.0398217 0)
(-0.4787 0.0274118 0)
(-0.497758 0.0163471 -6.15055e-20)
(-0.507123 0.00574105 0)
(-0.507103 -0.00466519 0)
(-0.497694 -0.0149118 7.40802e-20)
(-0.478649 -0.0249176 0)
(-0.449648 -0.0345363 0)
(-0.410194 -0.0435802 1.45316e-19)
(-0.359661 -0.051821 0)
(-0.297287 -0.0589495 -4.41117e-19)
(-0.222342 -0.0644664 0)
(-0.134493 -0.0676228 0)
(-0.0343035 -0.067521 0)
(0.0764919 -0.0630799 0)
(0.194359 -0.0535318 1.6363e-18)
(0.314369 -0.0384789 1.67403e-18)
(0.430674 -0.0183076 9.14679e-21)
(0.537206 0.00583728 1.62883e-18)
(0.628694 0.0322422 1.54097e-18)
(0.701309 0.0589717 -1.46384e-18)
(0.75308 0.0842257 0)
(0.784136 0.106597 -1.33255e-18)
(0.796388 0.124911 1.31256e-18)
(0.792405 0.138451 -2.66945e-18)
(0.776263 0.14658 0)
(0.750935 0.149699 0)
(0.723948 0.1479 -3.07645e-18)
(0.696643 0.144695 -3.13099e-18)
(0.686716 0.139828 3.19426e-18)
(0.678558 0.141223 2.91712e-18)
(0.719725 0.141758 -2.90112e-18)
(0.726409 0.155448 1.62881e-18)
(0.867606 0.165807 0)
(0.895336 0.00501702 -2.04957e-19)
(0.337829 0.0365295 0)
(0.12021 -0.00448769 3.8974e-18)
(-0.0785287 0.0275293 4.40176e-18)
(-0.0080964 0.00240956 -4.7002e-22)
(-0.0496024 0.0121281 3.73155e-18)
(-0.029861 0.00558911 0)
(-0.0440044 0.00907178 0)
(-0.0407952 0.0111923 0)
(-0.0551035 0.0179755 1.41539e-18)
(-0.0708526 0.0251212 1.30496e-18)
(-0.0950419 0.0298081 0)
(-0.118452 0.0304544 -1.10071e-18)
(-0.138302 0.0247788 1.01782e-18)
(-0.145397 0.0112358 0)
(-0.131228 -0.011529 0)
(-0.0884263 -0.0404386 0)
(-0.0162502 -0.0641041 3.81821e-21)
(0.0659661 -0.0590522 0)
(0.123218 -0.0134182 -1.89394e-18)
(0.110182 0.032265 5.14779e-19)
(0.0268115 0.067702 5.39093e-19)
(-0.132764 0.116127 -1.76355e-21)
(-0.265607 0.122088 -3.98168e-19)
(-0.336665 0.0878083 0)
(-0.39216 0.0610669 0)
(-0.433312 0.0436572 0)
(-0.462651 0.0300055 3.31172e-20)
(-0.481426 0.0178529 5.74696e-20)
(-0.490644 0.00623363 0)
(-0.490543 -0.00516861 0)
(-0.481116 -0.0164241 -6.90527e-20)
(-0.462125 -0.0274669 -4.23988e-20)
(-0.433232 -0.0381629 0)
(-0.393936 -0.0483371 0)
(-0.343604 -0.0577718 0)
(-0.281464 -0.0661576 0)
(-0.206763 -0.0729642 0)
(-0.11914 -0.0773615 0)
(-0.0191302 -0.0783242 0)
(0.0914424 -0.0746097 0)
(0.208991 -0.0652893 0)
(0.328562 -0.0498653 -7.66885e-21)
(0.444264 -0.0286986 1.60002e-18)
(0.550013 -0.00301059 0)
(0.640557 0.0253249 -2.94437e-18)
(0.712137 0.054173 -1.38356e-18)
(0.762901 0.0815245 0)
(0.792986 0.105783 1.27192e-18)
(0.804382 0.125662 -1.2482e-18)
(0.799886 0.140411 2.53003e-18)
(0.783854 0.149416 -2.62733e-18)
(0.759443 0.153107 0)
(0.733941 0.151519 2.56716e-21)
(0.708218 0.148119 2.96183e-18)
(0.699087 0.142487 -6.04594e-18)
(0.691296 0.142967 -7.81444e-21)
(0.731296 0.141924 -2.72898e-18)
(0.738009 0.15488 1.49235e-18)
(0.875022 0.162294 1.78054e-18)
(0.907645 0.0223087 -1.74814e-18)
(0.414754 0.0400998 0)
(0.166396 0.00145075 9.90721e-21)
(-0.0569599 0.0277038 -3.26434e-21)
(-0.00974929 0.00252603 4.01939e-18)
(-0.0496087 0.0125338 3.71088e-18)
(-0.0309643 0.00581957 0)
(-0.0448414 0.00947378 3.20308e-18)
(-0.0415264 0.0118471 0)
(-0.0546188 0.0190944 -1.39016e-18)
(-0.0690039 0.026641 5.22057e-22)
(-0.0920464 0.0315726 -1.17347e-18)
(-0.115175 0.032141 0)
(-0.13584 0.0258826 -1.98536e-18)
(-0.145092 0.0110069 0)
(-0.13458 -0.0139011 0)
(-0.0967776 -0.0454198 0)
(-0.0303215 -0.0710023 8.58704e-19)
(0.0475308 -0.0651353 0)
(0.105547 -0.0144336 9.35194e-19)
(0.0960651 0.0385745 -1.01438e-18)
(0.0117366 0.0821862 0)
(-0.142803 0.132674 -2.24758e-21)
(-0.259366 0.132899 0)
(-0.32408 0.094525 0)
(-0.377329 0.0661782 -1.01846e-19)
(-0.417228 0.0473771 0)
(-0.445911 0.0325375 -6.26952e-20)
(-0.464326 0.0193241 -2.71862e-20)
(-0.473336 0.00670779 -6.44311e-21)
(-0.473121 -0.00567813 6.88812e-21)
(-0.46366 -0.01793 3.26788e-20)
(-0.444709 -0.0299979 8.03828e-20)
(-0.415917 -0.04176 0)
(-0.376776 -0.0530543 1.28313e-19)
(-0.326649 -0.0636736 0)
(-0.264753 -0.0733097 0)
(-0.190312 -0.0814022 0)
(-0.102931 -0.0870399 5.59218e-19)
(-0.00312477 -0.0890635 0)
(0.107182 -0.0860663 0)
(0.224374 -0.0769619 1.4978e-18)
(0.343463 -0.0611524 -1.5485e-18)
(0.458505 -0.0389751 0)
(0.563385 -0.0117328 0)
(0.652872 0.0185351 1.42283e-18)
(0.723273 0.0494892 1.34007e-18)
(0.772847 0.0789132 -1.26054e-18)
(0.801782 0.105028 0)
(0.812144 0.126428 0)
(0.806895 0.142311 0)
(0.790608 0.152081 6.36597e-21)
(0.766619 0.156203 0)
(0.742107 0.154709 2.76211e-18)
(0.71762 0.151037 0)
(0.709239 0.144682 2.87461e-18)
(0.701891 0.144232 -2.61776e-18)
(0.741047 0.141804 5.1769e-18)
(0.747852 0.153863 -1.40997e-18)
(0.881336 0.15882 -1.67479e-18)
(0.917682 0.0379424 1.70956e-19)
(0.482601 0.0450278 -3.53933e-18)
(0.217171 0.00804922 -3.68212e-18)
(-0.0264709 0.0280395 -3.25858e-21)
(-0.00948105 0.00308348 -4.03239e-18)
(-0.0492702 0.0128902 -3.70435e-18)
(-0.0316268 0.00599675 0)
(-0.0453419 0.00981472 -3.17021e-18)
(-0.0418079 0.0123672 0)
(-0.0536518 0.0200392 -1.3688e-18)
(-0.0666366 0.0279829 -1.25404e-18)
(-0.0885371 0.0332182 1.14911e-18)
(-0.111358 0.0337982 -1.05081e-18)
(-0.132813 0.0270768 9.71851e-19)
(-0.144244 0.011018 -9.10824e-19)
(-0.137511 -0.0158664 8.62492e-19)
(-0.10493 -0.0498598 0)
(-0.0443906 -0.0773646 0)
(0.0287398 -0.0710256 0)
(0.0876195 -0.0157128 4.62613e-19)
(0.081565 0.0447238 5.0109e-19)
(-0.00286465 0.0962785 0)
(-0.149567 0.147786 -4.56796e-19)
(-0.251508 0.14244 0)
(-0.310984 0.100758 0)
(-0.36199 0.0710758 9.74666e-20)
(-0.400575 0.0509755 -7.40644e-20)
(-0.428527 0.0350005 2.98818e-20)
(-0.446512 0.0207545 0)
(-0.455263 0.007159 1.22607e-20)
(-0.454901 -0.00619673 -1.31104e-20)
(-0.445385 -0.0194324 0)
(-0.426456 -0.0325139 -3.83746e-20)
(-0.397751 -0.0453318 9.63542e-20)
(-0.358757 -0.0577363 -1.23669e-19)
(-0.308833 -0.0695311 0)
(-0.247184 -0.0804108 0)
(-0.173009 -0.089786 0)
(-0.0858773 -0.0966637 -5.44056e-19)
(0.0137083 -0.0997442 0)
(0.123718 -0.0974544 0)
(0.240527 -0.0885531 -1.46353e-18)
(0.359105 -0.072341 0)
(0.473441 -0.0491334 1.49572e-18)
(0.577386 -0.0203194 -1.44858e-18)
(0.665722 0.01189 0)
(0.734823 0.044946 1.29176e-18)
(0.78306 0.0764253 2.45136e-18)
(0.810693 0.10437 -1.17215e-18)
(0.819869 0.127252 0)
(0.813685 0.144211 0)
(0.796891 0.154662 1.20474e-18)
(0.772983 0.159107 0)
(0.749098 0.157615 2.63869e-18)
(0.725563 0.153602 0)
(0.717852 0.146545 2.74485e-18)
(0.71097 0.145154 2.48904e-18)
(0.749516 0.141482 -2.46756e-18)
(0.756472 0.152545 0)
(0.886932 0.1554 1.57785e-18)
(0.925856 0.0519241 1.01889e-18)
(0.542216 0.0508635 7.40288e-20)
(0.270367 0.015196 3.60112e-18)
(0.0110092 0.029011 -3.428e-21)
(-0.00619492 0.00416589 -5.81177e-22)
(-0.0484237 0.0132421 0)
(-0.0318156 0.00612399 0)
(-0.0455018 0.0100953 0)
(-0.0416739 0.0127573 -1.45294e-18)
(-0.0522567 0.0208171 2.69885e-18)
(-0.0638037 0.0291558 0)
(-0.0845432 0.0347487 1.12894e-18)
(-0.106999 0.0354245 -6.2981e-23)
(-0.129181 0.0283581 -9.53196e-19)
(-0.142768 0.011268 2.17984e-21)
(-0.139877 -0.0174217 -8.51283e-19)
(-0.112695 -0.0537544 0)
(-0.0582701 -0.0831874 0)
(0.00983112 -0.0767184 0)
(0.069486 -0.0172568 -4.60534e-19)
(0.0668604 0.0506501 0)
(-0.0166656 0.109778 4.97126e-19)
(-0.1536 0.161459 4.38539e-19)
(-0.242462 0.150872 -3.40644e-19)
(-0.297435 0.106564 0)
(-0.346172 0.075758 0)
(-0.383387 0.0544463 7.12337e-20)
(-0.410537 0.0373878 0)
(-0.428033 0.0221383 2.42729e-20)
(-0.43648 0.00758288 -5.86573e-21)
(-0.435941 -0.00672794 6.27346e-21)
(-0.426347 -0.0209349 -2.90112e-20)
(-0.407422 -0.0350189 0)
(-0.378789 -0.0488823 -9.32252e-20)
(-0.33993 -0.0623871 0)
(-0.290202 -0.0753487 0)
(-0.228797 -0.0874653 3.67384e-19)
(-0.154887 -0.0981203 0)
(-0.0680048 -0.106237 0)
(0.031344 -0.11037 0)
(0.141033 -0.108777 0)
(0.257442 -0.100066 0)
(0.375485 -0.0834327 0)
(0.489078 -0.0591722 -2.94152e-18)
(0.59203 -0.0287654 1.4284e-18)
(0.679134 0.00539912 1.34506e-18)
(0.746835 0.0405581 -2.53407e-18)
(0.79361 0.0740803 -1.20036e-18)
(0.81981 0.103832 1.14847e-18)
(0.82767 0.128164 -1.11006e-18)
(0.820402 0.146149 0)
(0.802909 0.157213 3.27741e-21)
(0.778831 0.161895 -2.41566e-18)
(0.755302 0.160326 -2.53984e-18)
(0.732487 0.155912 -2.58033e-18)
(0.725362 0.148161 -5.27409e-18)
(0.718943 0.145819 -2.39034e-18)
(0.757049 0.141006 2.35898e-18)
(0.764199 0.151015 1.23962e-18)
(0.89203 0.152032 -1.5077e-18)
(0.932538 0.0644563 -1.49098e-19)
(0.594402 0.0572633 3.37202e-18)
(0.324292 0.0227664 2.37525e-21)
(0.054651 0.030684 -3.80744e-21)
(0.00111731 0.00611155 3.97631e-18)
(-0.0467423 0.0136513 3.72905e-18)
(-0.0314744 0.00620955 -3.35818e-18)
(-0.0453065 0.0103179 1.56062e-18)
(-0.0411495 0.0130224 -2.33334e-22)
(-0.0504744 0.0214337 -1.33236e-18)
(-0.0605432 0.0301646 -1.21622e-18)
(-0.0800834 0.0361642 -1.11053e-18)
(-0.102091 0.0370154 2.02831e-18)
(-0.124905 0.0297194 8.06762e-22)
(-0.140576 0.011751 8.85607e-19)
(-0.141533 -0.0185684 0)
(-0.119874 -0.0571004 8.14298e-19)
(-0.0717646 -0.0884612 0)
(-0.00890696 -0.0822096 -8.29492e-19)
(0.0511887 -0.0190617 -4.59022e-19)
(0.0520952 0.0562717 -4.90562e-19)
(-0.0294317 0.122534 -1.13984e-21)
(-0.155332 0.173714 -4.27016e-19)
(-0.232494 0.158326 3.29897e-19)
(-0.283463 0.111979 0)
(-0.329897 0.0802217 -8.88648e-20)
(-0.365693 0.0577838 0)
(-0.391981 0.0396933 0)
(-0.408935 0.0234708 -2.34647e-20)
(-0.417039 0.00797546 0)
(-0.416295 -0.00727518 0)
(-0.406601 -0.0224408 2.81167e-20)
(-0.387662 -0.0375164 0)
(-0.359085 -0.0524155 0)
(-0.320349 -0.067011 1.13439e-19)
(-0.270807 -0.0811305 0)
(-0.20964 -0.0944776 -3.59425e-19)
(-0.13599 -0.10641 0)
(-0.0493531 -0.115765 5.15946e-19)
(0.0497422 -0.120943 0)
(0.159092 -0.120038 0)
(0.275088 -0.111504 0)
(0.392578 -0.0944299 0)
(0.505395 -0.0690922 1.45482e-18)
(0.607303 -0.037069 0)
(0.693105 -0.000932749 -2.65797e-18)
(0.759316 0.0363337 1.25031e-18)
(0.804524 0.0718905 -1.16898e-18)
(0.829178 0.10343 1.11601e-18)
(0.835606 0.129181 1.08909e-18)
(0.827132 0.14815 0)
(0.808788 0.159768 1.1251e-18)
(0.784347 0.164614 3.51216e-18)
(0.760962 0.162901 -2.4534e-18)
(0.73868 0.158033 2.49285e-18)
(0.732057 0.149586 2.54521e-18)
(0.726084 0.146286 0)
(0.763874 0.140411 -2.27409e-18)
(0.771252 0.149331 -2.37265e-18)
(0.896769 0.148712 0)
(0.938038 0.0757415 -4.06472e-19)
(0.639913 0.0639612 0)
(0.37762 0.0306372 1.03885e-22)
(0.102642 0.0332208 -4.30329e-21)
(0.015209 0.00852016 -3.90872e-18)
(-0.0436326 0.0142139 -7.50561e-18)
(-0.0305075 0.00627222 6.72658e-18)
(-0.0447288 0.0104871 -1.55284e-18)
(-0.0402514 0.0131683 1.42582e-18)
(-0.0483375 0.0218937 0)
(-0.0568848 0.0310119 -5.38928e-22)
(-0.0751722 0.0374624 0)
(-0.096628 0.0385635 -1.99884e-18)
(-0.11995 0.0311503 9.25435e-19)
(-0.137586 0.012457 0)
(-0.142337 -0.0193121 0)
(-0.126266 -0.0598969 -8.09362e-19)
(-0.0846532 -0.0931802 0)
(-0.0271912 -0.0874804 8.23797e-19)
(0.0327615 -0.0211157 4.58041e-19)
(0.0373751 0.0614952 1.40594e-22)
(-0.0409826 0.134429 -4.7617e-19)
(-0.1551 0.184592 -4.11143e-19)
(-0.221775 0.164907 0)
(-0.269082 0.117026 0)
(-0.313182 0.0844638 8.62184e-20)
(-0.347519 0.0609832 0)
(-0.372893 0.041912 2.60262e-20)
(-0.389261 0.0247474 -2.2219e-20)
(-0.396989 0.00833325 5.27513e-21)
(-0.396015 -0.00784152 -5.62992e-21)
(-0.386202 -0.0239532 2.65115e-20)
(-0.367232 -0.0400099 -3.32164e-20)
(-0.338698 -0.055935 8.53467e-20)
(-0.300072 -0.0716119 -1.10867e-19)
(-0.250705 -0.0868809 0)
(-0.189767 -0.101452 0)
(-0.116371 -0.114659 0)
(-0.0299711 -0.12525 -2.80757e-21)
(0.0688519 -0.131468 5.84029e-19)
(0.177851 -0.13124 0)
(0.293424 -0.122871 0)
(0.410341 -0.105336 0)
(0.522352 -0.0788956 0)
(0.623168 -0.0452304 0)
(0.707606 -0.00710366 9.8816e-21)
(0.772251 0.0322776 0)
(0.815801 0.0698633 2.31383e-18)
(0.838813 0.103174 -2.20181e-18)
(0.843711 0.130318 -1.06044e-18)
(0.833924 0.150231 0)
(0.814605 0.162352 0)
(0.789648 0.167298 -2.27679e-18)
(0.76624 0.165381 1.74591e-21)
(0.744335 0.16001 -2.41604e-18)
(0.738138 0.15086 2.46644e-18)
(0.732586 0.146596 2.2212e-18)
(0.770154 0.139716 -2.19647e-18)
(0.777782 0.14753 2.27059e-18)
(0.901242 0.145435 1.39395e-18)
(0.942608 0.0859294 1.31852e-19)
(0.679456 0.0707482 -3.10968e-18)
(0.429334 0.0386931 -6.7729e-18)
(0.153533 0.0366764 -4.93385e-21)
(0.0361919 0.0113524 3.82747e-18)
(-0.0380975 0.0150567 3.77146e-18)
(-0.0287532 0.00635018 -1.68803e-18)
(-0.0437224 0.0106108 0)
(-0.0389877 0.0132018 0)
(-0.0458725 0.0222016 1.30532e-18)
(-0.0528538 0.0316987 1.18637e-18)
(-0.0698233 0.0386394 0)
(-0.0906072 0.0400596 9.86532e-19)
(-0.114284 0.0326376 0)
(-0.133725 0.0133715 0)
(-0.142156 -0.0196631 0)
(-0.13168 -0.0621457 0)
(-0.0967052 -0.097343 8.01615e-19)
(-0.0447556 -0.0924993 4.08319e-19)
(0.0142456 -0.023413 -4.57805e-19)
(0.0227659 0.0662881 -3.81675e-22)
(-0.0511835 0.145335 0)
(-0.153172 0.194144 4.0196e-19)
(-0.210414 0.170701 0)
(-0.254301 0.121725 0)
(-0.296047 0.0884822 8.26881e-20)
(-0.328893 0.0640407 -6.30764e-20)
(-0.353309 0.0440394 -2.53289e-20)
(-0.369055 0.0259646 2.16311e-20)
(-0.376376 0.00865328 -1.01967e-20)
(-0.375151 -0.00842966 1.08833e-20)
(-0.365204 -0.0254749 -2.58678e-20)
(-0.346189 -0.0425023 3.24489e-20)
(-0.317684 -0.0594443 -1.03683e-21)
(-0.279157 -0.076194 -1.06448e-19)
(-0.229955 -0.0926043 0)
(-0.169236 -0.108394 0)
(-0.0960838 -0.122873 0)
(-0.00991621 -0.134698 -1.00063e-18)
(0.0886148 -0.141947 -5.7953e-19)
(0.197254 -0.142389 0)
(0.312393 -0.134173 0)
(0.428721 -0.116156 -1.42941e-18)
(0.539894 -0.0885859 0)
(0.639576 -0.0532518 0)
(0.722592 -0.013114 2.61286e-18)
(0.785605 0.0283915 -1.21478e-18)
(0.827423 0.0680029 -2.29017e-18)
(0.84871 0.103071 8.76599e-21)
(0.851994 0.131582 2.09228e-18)
(0.840804 0.152405 1.04066e-18)
(0.820408 0.164982 0)
(0.79481 0.169971 1.11274e-18)
(0.771242 0.167794 2.32516e-18)
(0.749586 0.161876 2.35344e-18)
(0.743746 0.152014 -2.40014e-18)
(0.738589 0.146779 -2.16009e-18)
(0.776003 0.13894 2.13493e-18)
(0.783896 0.145639 -1.09683e-18)
(0.905514 0.142196 -1.35434e-18)
(0.946455 0.0951416 1.24609e-19)
(0.713694 0.0774645 3.08294e-18)
(0.478677 0.0468231 3.68135e-21)
(0.206152 0.0410031 -5.64461e-21)
(0.0632114 0.0148649 0)
(-0.0286764 0.0161312 0)
(-0.0259442 0.00650883 1.9564e-22)
(-0.0422126 0.0107022 0)
(-0.0373548 0.0131317 0)
(-0.0431007 0.0223619 4.60881e-22)
(-0.0484734 0.032225 0)
(-0.0640511 0.0396899 0)
(-0.0840298 0.041493 9.75316e-19)
(-0.107889 0.0341661 0)
(-0.128934 0.0144772 0)
(-0.140875 -0.0196351 0)
(-0.135936 -0.0638522 0)
(-0.107697 -0.100949 -3.64993e-21)
(-0.0614146 -0.097245 -4.05708e-19)
(-0.00415897 -0.0259192 9.12632e-19)
(0.00841649 0.0705904 -9.58972e-22)
(-0.0599584 0.155148 4.57212e-19)
(-0.149759 0.202429 0)
(-0.198483 0.175781 2.92547e-19)
(-0.239127 0.126086 0)
(-0.278507 0.0922755 -8.07197e-20)
(-0.30984 0.0669532 4.99341e-22)
(-0.333262 0.0460721 0)
(-0.348355 0.0271195 0)
(-0.355247 0.00893306 8.09176e-23)
(-0.353754 -0.00904186 -9.29941e-23)
(-0.343658 -0.0270083 1.22353e-20)
(-0.324587 -0.0449965 0)
(-0.296103 -0.0629466 -8.08923e-20)
(-0.257664 -0.0807608 1.04617e-19)
(-0.208618 -0.0983049 0)
(-0.14811 -0.115308 -3.33314e-19)
(-0.0751899 -0.131058 0)
(0.0107477 -0.144112 2.95235e-21)
(0.108967 -0.152387 0)
(0.217239 -0.153491 6.37864e-19)
(0.331932 -0.145415 6.87387e-19)
(0.44765 -0.126895 7.97079e-21)
(0.557955 -0.0981673 -1.42437e-18)
(0.656458 -0.0611364 0)
(0.738003 -0.018966 -1.10107e-20)
(0.799329 0.0246745 1.21974e-18)
(0.839354 0.0663104 1.05242e-20)
(0.858853 0.103123 1.07961e-18)
(0.860453 0.132979 -7.34007e-21)
(0.847785 0.154679 -5.39332e-21)
(0.826226 0.167669 0)
(0.799885 0.17265 0)
(0.776044 0.170163 0)
(0.754528 0.163655 0)
(0.748983 0.153067 0)
(0.744193 0.146855 2.10216e-18)
(0.781508 0.138092 0)
(0.789675 0.143677 0)
(0.909631 0.13899 -1.31876e-18)
(0.94975 0.103491 -1.23603e-19)
(0.743248 0.0839949 0)
(0.525109 0.0549203 5.17596e-21)
(0.259506 0.0460953 -6.37595e-21)
(0.0956379 0.0191143 0)
(-0.014178 0.0174988 1.86778e-18)
(-0.0216683 0.00683185 -1.70907e-18)
(-0.0400804 0.0107827 0)
(-0.0353336 0.0129693 0)
(-0.040038 0.0223796 -1.2852e-18)
(-0.0437657 0.0325904 0)
(-0.0578724 0.0406082 0)
(-0.0769031 0.0428522 -9.65395e-19)
(-0.100752 0.0357191 0)
(-0.12317 0.0157542 -8.46573e-19)
(-0.1384 -0.0192459 0)
(-0.138877 -0.0650245 0)
(-0.117421 -0.103994 -3.76285e-21)
(-0.0770026 -0.101672 0)
(-0.0221556 -0.0285776 -4.53739e-19)
(-0.00554111 0.0742831 4.78385e-19)
(-0.0672682 0.163824 -9.00044e-19)
(-0.145028 0.209508 3.79248e-19)
(-0.186031 0.180205 -2.86411e-19)
(-0.223565 0.13012 0)
(-0.260579 0.0958436 -7.78332e-20)
(-0.290384 0.0697189 1.18997e-19)
(-0.312786 0.0480075 0)
(-0.327201 0.0282097 -9.92177e-21)
(-0.333645 0.00917064 4.75801e-21)
(-0.33187 -0.00967999 -5.07474e-21)
(-0.321615 -0.0285553 -1.19959e-20)
(-0.30248 -0.0474947 0)
(-0.274009 -0.0664448 -7.74672e-20)
(-0.235653 -0.0853158 1.00788e-19)
(-0.186754 -0.103987 0)
(-0.126448 -0.122199 3.30008e-19)
(-0.0537506 -0.139218 0)
(0.0319521 -0.153497 4.90395e-19)
(0.129842 -0.162789 0)
(0.237737 -0.164549 -6.38324e-19)
(0.351968 -0.156601 -6.89916e-19)
(0.467052 -0.137557 8.47231e-21)
(0.576454 -0.107644 1.4357e-18)
(0.673737 -0.0688885 0)
(0.753765 -0.0246634 -1.30844e-18)
(0.813359 0.0211238 0)
(0.851546 0.0647846 1.13854e-18)
(0.869209 0.103331 0)
(0.869073 0.134513 -1.0247e-18)
(0.854867 0.15706 -2.02566e-18)
(0.832073 0.170424 0)
(0.804905 0.175348 0)
(0.780697 0.172503 0)
(0.759231 0.165367 1.12677e-18)
(0.753925 0.154038 0)
(0.749476 0.146842 -1.88665e-21)
(0.786734 0.137181 0)
(0.795179 0.141657 1.01816e-18)
(0.913629 0.135814 1.29085e-18)
(0.952629 0.111083 0)
(0.768694 0.0902605 2.88824e-18)
(0.568268 0.0628847 3.23242e-18)
(0.312729 0.051818 -7.07594e-21)
(0.132721 0.0240597 0)
(0.0057502 0.0192771 -1.84201e-18)
(-0.0153806 0.0074111 0)
(-0.0371398 0.010884 1.55722e-18)
(-0.0328828 0.0127299 1.40308e-18)
(-0.0366926 0.0222609 1.27891e-18)
(-0.0387525 0.0327941 1.15648e-18)
(-0.0513066 0.041388 1.05057e-18)
(-0.0692407 0.0441251 0)
(-0.0928743 0.0372787 0)
(-0.116406 0.0171805 8.41421e-19)
(-0.134662 -0.0185156 0)
(-0.140376 -0.0656735 0)
(-0.125702 -0.106472 -7.85824e-19)
(-0.0913501 -0.105735 0)
(-0.0394805 -0.0313719 -4.53459e-19)
(-0.0189204 0.0772812 0)
(-0.0730979 0.171337 4.43517e-19)
(-0.139114 0.215448 -3.7268e-19)
(-0.173088 0.184025 0)
(-0.207618 0.133836 0)
(-0.242279 0.099187 5.37206e-22)
(-0.27055 0.0723366 -5.81025e-20)
(-0.29191 0.0498438 0)
(-0.30563 0.0292336 9.72934e-21)
(-0.311612 0.00936451 4.5112e-21)
(-0.309544 -0.0103454 -4.80038e-21)
(-0.299123 -0.0301175 0)
(-0.27992 -0.0499987 0)
(-0.251459 -0.0699411 1.0319e-21)
(-0.21318 -0.089862 -1.1405e-21)
(-0.164423 -0.109654 0)
(-0.104312 -0.129071 0)
(-0.031828 -0.147357 3.99882e-19)
(0.0536252 -0.162855 0)
(0.151169 -0.173159 0)
(0.258675 -0.175569 0)
(0.372424 -0.167736 0)
(0.486843 -0.148147 1.43869e-18)
(0.595302 -0.117022 1.43081e-18)
(0.69132 -0.0765131 0)
(0.769792 -0.0302114 0)
(0.827621 0.0177347 1.20682e-18)
(0.863942 0.0634219 0)
(0.879739 0.103694 0)
(0.87783 0.136184 -1.00821e-18)
(0.862041 0.159551 1.00467e-18)
(0.837957 0.173251 0)
(0.809892 0.178074 0)
(0.785239 0.174827 0)
(0.763745 0.167025 -1.10759e-18)
(0.758631 0.154937 1.12806e-18)
(0.754497 0.146753 -4.03227e-18)
(0.79173 0.136215 0)
(0.800456 0.13959 -9.98275e-19)
(0.917534 0.132664 -1.26656e-18)
(0.955205 0.11801 0)
(0.790566 0.0962113 -2.87266e-18)
(0.607944 0.0706274 0)
(0.365059 0.0580254 -5.20558e-18)
(0.173629 0.0296315 0)
(0.0311703 0.0215547 -1.80846e-18)
(-0.00647429 0.00840294 0)
(-0.0331056 0.0110515 -1.5666e-18)
(-0.0299294 0.0124355 -1.40504e-18)
(-0.033062 0.0220141 -1.27394e-18)
(-0.0334543 0.0328361 -1.14898e-18)
(-0.0443761 0.0420229 -1.04249e-18)
(-0.0610627 0.0452994 0)
(-0.0842688 0.0388263 0)