/*--------------------------------*- C++ -*----------------------------------*\
| =========                 |                                                 |
| \\      /  F ield         | OpenFOAM: The Open Source CFD Toolbox           |
|  \\    /   O peration     | Version:  2.4.0                                 |
|   \\  /    A nd           | Web:      www.OpenFOAM.org                      |
|    \\/     M anipulation  |                                                 |
\*---------------------------------------------------------------------------*/
FoamFile
{
    version     2.0;
    format      ascii;
    class       surfaceScalarField;
    location    "355";
    object      phi;
}
// * * * * * * * * * * * * * * * * * * * * * * * * * * * * * * * * * * * * * //

dimensions      [0 3 -1 0 0 0 0];

internalField   nonuniform List<scalar> 
19800
(
0.000192349
1.78248e-08
0.000192318
3.09453e-08
0.000192276
4.21639e-08
0.000192225
5.10472e-08
0.000192166
5.89853e-08
0.0001921
6.61711e-08
0.000192027
7.29894e-08
0.000191947
7.96986e-08
0.000191861
8.6552e-08
0.000191767
9.38145e-08
0.000191665
1.01796e-07
0.000191554
1.1089e-07
0.000191433
1.21624e-07
0.000191298
1.34752e-07
0.000191147
1.51324e-07
0.000190973
1.73122e-07
0.00019077
2.03175e-07
0.000190518
2.5263e-07
0.00019013
3.87845e-07
1.11658e-06
0.000189013
0.000197684
3.60443e-08
0.000197652
6.28359e-08
0.000197608
8.53674e-08
0.000197556
1.0345e-07
0.000197496
1.19493e-07
0.000197428
1.34038e-07
0.000197353
1.4782e-07
0.000197271
1.61367e-07
0.000197183
1.75181e-07
0.000197087
1.89784e-07
0.000196983
2.05778e-07
0.00019687
2.23918e-07
0.000196746
2.45201e-07
0.00019661
2.71034e-07
0.000196458
3.03467e-07
0.000196285
3.46128e-07
0.000196082
4.06194e-07
0.000195828
5.06599e-07
0.000195503
7.12918e-07
1.18502e-06
0.000195434
0.000203166
5.47297e-08
0.000203133
9.55632e-08
0.000203089
1.29668e-07
0.000203035
1.57176e-07
0.000202973
1.81499e-07
0.000202903
2.03545e-07
0.000202827
2.244e-07
0.000202743
2.44855e-07
0.000202653
2.65653e-07
0.000202555
2.87547e-07
0.00020245
3.1139e-07
0.000202335
3.38217e-07
0.000202211
3.69355e-07
0.000202076
4.06603e-07
0.000201927
4.52482e-07
0.000201761
5.11166e-07
0.000201578
5.90079e-07
0.000201377
7.07295e-07
0.000201196
8.94216e-07
1.18738e-06
0.000201193
0.0002088
7.38804e-08
0.000208766
1.29125e-07
0.000208721
1.75056e-07
0.000208666
2.12201e-07
0.000208602
2.44958e-07
0.000208531
2.74618e-07
0.000208453
3.02611e-07
0.000208368
3.29983e-07
0.000208276
3.57691e-07
0.000208177
3.86686e-07
0.00020807
4.18e-07
0.000207956
4.52835e-07
0.000207832
4.92645e-07
0.0002077
5.39266e-07
0.000207557
5.95031e-07
0.000207405
6.63326e-07
0.000207246
7.49108e-07
0.000207092
8.61601e-07
0.000206977
1.00919e-06
1.19045e-06
0.000206974
0.00021459
9.34919e-08
0.000214556
1.63512e-07
0.000214509
2.21511e-07
0.000214453
2.68494e-07
0.000214388
3.09815e-07
0.000214316
3.47169e-07
0.000214236
3.82315e-07
0.00021415
4.16539e-07
0.000214056
4.50984e-07
0.000213956
4.86742e-07
0.000213849
5.24939e-07
0.000213735
5.66804e-07
0.000213614
6.13695e-07
0.000213486
6.67122e-07
0.000213353
7.28681e-07
0.000213216
8.00152e-07
0.000213082
8.83211e-07
0.000212964
9.79808e-07
0.000212885
1.0874e-06
1.19565e-06
0.00021288
0.000220541
1.1356e-07
0.000220506
1.98714e-07
0.000220459
2.69013e-07
0.000220401
3.26014e-07
0.000220335
3.76005e-07
0.000220261
4.21093e-07
0.00022018
4.63353e-07
0.000220092
5.04291e-07
0.000219998
5.45192e-07
0.000219898
5.87227e-07
0.000219791
6.31521e-07
0.000219679
6.79183e-07
0.000219561
7.31265e-07
0.000219439
7.88674e-07
0.000219316
8.51946e-07
0.000219195
9.21058e-07
0.000219084
9.9488e-07
0.000218992
1.07098e-06
0.000218937
1.14313e-06
1.20159e-06
0.000218931
0.000226657
1.34074e-07
0.000226621
2.34713e-07
0.000226573
3.1753e-07
0.000226514
3.84709e-07
0.000226447
4.43447e-07
0.000226372
4.96268e-07
0.000226289
5.45548e-07
0.000226201
5.92979e-07
0.000226106
6.39947e-07
0.000226006
6.87633e-07
0.0002259
7.37064e-07
0.00022579
7.89094e-07
0.000225677
8.44309e-07
0.000225563
9.02851e-07
0.000225451
9.6413e-07
0.000225345
1.02657e-06
0.000225253
1.08719e-06
0.000225182
1.14168e-06
0.000225142
1.18375e-06
1.20694e-06
0.000225136
0.000232943
1.55027e-07
0.000232906
2.7149e-07
0.000232857
3.67025e-07
0.000232797
4.44521e-07
0.000232728
5.12049e-07
0.000232652
5.72558e-07
0.000232569
6.28699e-07
0.00023248
6.82323e-07
0.000232385
7.34864e-07
0.000232285
7.87448e-07
0.000232181
8.4091e-07
0.000232074
8.9575e-07
0.000231967
9.51991e-07
0.000231861
1.00898e-06
0.00023176
1.06515e-06
0.000231668
1.11782e-06
0.000231592
1.16321e-06
0.000231537
1.19677e-06
0.000231507
1.21375e-06
1.21101e-06
0.000231503
0.000239403
1.76402e-07
0.000239366
3.09016e-07
0.000239315
4.17452e-07
0.000239254
5.05377e-07
0.000239185
5.81704e-07
0.000239107
6.49807e-07
0.000239024
7.12589e-07
0.000238934
7.72023e-07
0.000238839
8.29545e-07
0.00023874
8.8616e-07
0.000238639
9.42443e-07
0.000238536
9.98474e-07
0.000238434
1.05369e-06
0.000238337
1.10674e-06
0.000238247
1.15532e-06
0.000238168
1.19624e-06
0.000238106
1.22567e-06
0.000238063
1.23986e-06
0.00023804
1.23598e-06
1.21354e-06
0.000238038
0.000246042
1.98185e-07
0.000246004
3.4726e-07
0.000245953
4.68758e-07
0.000245891
5.67197e-07
0.00024582
6.52292e-07
0.000245742
7.27846e-07
0.000245658
7.96984e-07
0.000245568
8.61766e-07
0.000245474
9.23586e-07
0.000245377
9.83274e-07
0.000245278
1.0411e-06
0.00024518
1.09671e-06
0.000245085
1.149e-06
0.000244996
1.19608e-06
0.000244916
1.23525e-06
0.000244849
1.26329e-06
0.000244797
1.27693e-06
0.000244764
1.27362e-06
0.000244747
1.25235e-06
1.2145e-06
0.000244746
0.000252866
2.20353e-07
0.000252827
3.86183e-07
0.000252775
5.20881e-07
0.000252712
6.29885e-07
0.000252641
7.23678e-07
0.000252562
8.06487e-07
0.000252477
8.8163e-07
0.000252388
9.51225e-07
0.000252295
1.01658e-06
0.0002522
1.07832e-06
0.000252105
1.13639e-06
0.000252011
1.19001e-06
0.000251923
1.23768e-06
0.000251841
1.27715e-06
0.000251771
1.30568e-06
0.000251714
1.32039e-06
0.000251672
1.31892e-06
0.000251646
1.30002e-06
0.000251634
1.26418e-06
1.21402e-06
0.000251634
0.000259878
2.42887e-07
0.000259839
4.25741e-07
0.000259786
5.73749e-07
0.000259722
6.93337e-07
0.00025965
7.95716e-07
0.000259571
8.85529e-07
0.000259487
9.66266e-07
0.000259398
1.04007e-06
0.000259306
1.10813e-06
0.000259214
1.17086e-06
0.000259122
1.22788e-06
0.000259034
1.27807e-06
0.000258952
1.31964e-06
0.000258879
1.35026e-06
0.000258817
1.3674e-06
0.000258769
1.36884e-06
0.000258735
1.35321e-06
0.000258714
1.32053e-06
0.000258706
1.27242e-06
1.21223e-06
0.000258708
0.000267085
2.65757e-07
0.000267045
4.6588e-07
0.000266992
6.27281e-07
0.000266928
7.57435e-07
0.000266855
8.68242e-07
0.000266776
9.64756e-07
0.000266692
1.05062e-06
0.000266604
1.12796e-06
0.000266514
1.19786e-06
0.000266424
1.26049e-06
0.000266337
1.31521e-06
0.000266254
1.36066e-06
0.000266179
1.39493e-06
0.000266114
1.4158e-06
0.00026606
1.42122e-06
0.000266019
1.40975e-06
0.000265991
1.38109e-06
0.000265975
1.33626e-06
0.00026597
1.27775e-06
1.20929e-06
0.000265973
0.000274492
2.88935e-07
0.000274452
5.06545e-07
0.000274398
6.8139e-07
0.000274333
8.22051e-07
0.00027426
9.41084e-07
0.000274181
1.04394e-06
0.000274097
1.1344e-06
0.000274011
1.21457e-06
0.000273923
1.2854e-06
0.000273837
1.34687e-06
0.000273754
1.39812e-06
0.000273677
1.43768e-06
0.000273608
1.46367e-06
0.00027355
1.47423e-06
0.000273503
1.4679e-06
0.000273469
1.44414e-06
0.000273446
1.40356e-06
0.000273434
1.34807e-06
0.000273431
1.28069e-06
1.20534e-06
0.000273435
0.000282105
3.12383e-07
0.000282064
5.47666e-07
0.000282009
7.35972e-07
0.000281944
8.87042e-07
0.000281871
1.01405e-06
0.000281792
1.12285e-06
0.00028171
1.21732e-06
0.000281625
1.29957e-06
0.000281539
1.37041e-06
0.000281457
1.42967e-06
0.000281378
1.47638e-06
0.000281307
1.50907e-06
0.000281245
1.52609e-06
0.000281193
1.52603e-06
0.000281153
1.50817e-06
0.000281124
1.47283e-06
0.000281106
1.42145e-06
0.000281097
1.35659e-06
0.000281097
1.28163e-06
1.20049e-06
0.000281101
0.000289929
3.36067e-07
0.000289887
5.89176e-07
0.000289832
7.90921e-07
0.000289767
9.52261e-07
0.000289694
1.08695e-06
0.000289616
1.20124e-06
0.000289534
1.2991e-06
0.000289451
1.38264e-06
0.000289369
1.45258e-06
0.00028929
1.50865e-06
0.000289216
1.54986e-06
0.00028915
1.57488e-06
0.000289094
1.58242e-06
0.000289048
1.57168e-06
0.000289014
1.54268e-06
0.00028899
1.49654e-06
0.000288976
1.43543e-06
0.00028897
1.36235e-06
0.000288971
1.28087e-06
1.19484e-06
0.000288977
0.000297969
3.5994e-07
0.000297927
6.30989e-07
0.000297872
8.46115e-07
0.000297807
1.01754e-06
0.000297734
1.15957e-06
0.000297657
1.27885e-06
0.000297576
1.37945e-06
0.000297496
1.46349e-06
0.000297417
1.53163e-06
0.000297342
1.58358e-06
0.000297273
1.61846e-06
0.000297213
1.63519e-06
0.000297162
1.63297e-06
0.000297122
1.61164e-06
0.000297093
1.57201e-06
0.000297074
1.5159e-06
0.000297063
1.44603e-06
0.00029706
1.36574e-06
0.000297062
1.27865e-06
1.18848e-06
0.000297068
0.000306233
3.83961e-07
0.000306191
6.73022e-07
0.000306136
9.01431e-07
0.00030607
1.08271e-06
0.000305998
1.2317e-06
0.000305922
1.35542e-06
0.000305843
1.45809e-06
0.000305765
1.54182e-06
0.000305689
1.6073e-06
0.000305618
1.6543e-06
0.000305555
1.68214e-06
0.0003055
1.69013e-06
0.000305455
1.67802e-06
0.00030542
1.64637e-06
0.000305395
1.59668e-06
0.00030538
1.53141e-06
0.000305372
1.45369e-06
0.000305371
1.36707e-06
0.000305374
1.27515e-06
1.18148e-06
0.000305381
0.000314726
4.08072e-07
0.000314684
7.15176e-07
0.000314628
9.56726e-07
0.000314564
1.14759e-06
0.000314492
1.30312e-06
0.000314417
1.43072e-06
0.00031434
1.53474e-06
0.000314265
1.61737e-06
0.000314193
1.67938e-06
0.000314126
1.72069e-06
0.000314067
1.74092e-06
0.000314018
1.73987e-06
0.000313978
1.71791e-06
0.000313948
1.67628e-06
0.000313927
1.61716e-06
0.000313915
1.54351e-06
0.00031391
1.45878e-06
0.000313911
1.36661e-06
0.000313915
1.27053e-06
1.17388e-06
0.000313923
0.000323454
4.32226e-07
0.000323412
7.57355e-07
0.000323357
1.01186e-06
0.000323293
1.212e-06
0.000323222
1.37359e-06
0.000323148
1.50447e-06
0.000323074
1.60914e-06
0.000323001
1.68991e-06
0.000322933
1.74769e-06
0.000322871
1.78267e-06
0.000322817
1.79485e-06
0.000322773
1.78459e-06
0.000322738
1.75292e-06
0.000322712
1.70176e-06
0.000322695
1.63385e-06
0.000322686
1.55257e-06
0.000322684
1.46159e-06
0.000322686
1.36456e-06
0.000322691
1.2649e-06
1.16575e-06
0.000322699
0.000332425
4.56357e-07
0.000332383
7.99443e-07
0.000332328
1.06668e-06
0.000332264
1.27572e-06
0.000332195
1.44289e-06
0.000332123
1.57642e-06
0.000332051
1.68103e-06
0.000331982
1.75921e-06
0.000331917
1.81209e-06
0.00033186
1.84018e-06
0.000331811
1.844e-06
0.000331771
1.8245e-06
0.00033174
1.78337e-06
0.000331719
1.72316e-06
0.000331706
1.64711e-06
0.000331699
1.55891e-06
0.000331699
1.46237e-06
0.000331702
1.36109e-06
0.000331709
1.25837e-06
1.15711e-06
0.000331717
0.000341644
4.80409e-07
0.000341602
8.41332e-07
0.000341548
1.12102e-06
0.000341485
1.33857e-06
0.000341417
1.51079e-06
0.000341347
1.64634e-06
0.000341278
1.7502e-06
0.000341212
1.82508e-06
0.000341152
1.87244e-06
0.000341099
1.89322e-06
0.000341055
1.88848e-06
0.000341019
1.85981e-06
0.000340993
1.80955e-06
0.000340975
1.74081e-06
0.000340965
1.65726e-06
0.000340961
1.56281e-06
0.000340962
1.46133e-06
0.000340967
1.35636e-06
0.000340975
1.25102e-06
1.14801e-06
0.000340984
0.00035112
5.04308e-07
0.000351078
8.82894e-07
0.000351024
1.17472e-06
0.000350962
1.40034e-06
0.000350896
1.57705e-06
0.000350829
1.71398e-06
0.000350762
1.81641e-06
0.0003507
1.88736e-06
0.000350644
1.92868e-06
0.000350595
1.94181e-06
0.000350555
1.92841e-06
0.000350524
1.89072e-06
0.000350502
1.83172e-06
0.000350488
1.75499e-06
0.000350481
1.66456e-06
0.000350479
1.56449e-06
0.000350482
1.45866e-06
0.000350488
1.35048e-06
0.000350496
1.24292e-06
1.13848e-06
0.000350505
0.000360858
5.27994e-07
0.000360816
9.2401e-07
0.000360764
1.22761e-06
0.000360703
1.46083e-06
0.000360639
1.64145e-06
0.000360573
1.77912e-06
0.00036051
1.87947e-06
0.000360452
1.94591e-06
0.0003604
1.98074e-06
0.000360356
1.98598e-06
0.00036032
1.96393e-06
0.000360293
1.91747e-06
0.000360275
1.85014e-06
0.000360264
1.76599e-06
0.000360259
1.66927e-06
0.00036026
1.56417e-06
0.000360264
1.45449e-06
0.000360271
1.34356e-06
0.000360279
1.23413e-06
1.12853e-06
0.000360289
0.000370866
5.51384e-07
0.000370825
9.64542e-07
0.000370773
1.27951e-06
0.000370714
1.51981e-06
0.000370652
1.70377e-06
0.000370589
1.84155e-06
0.00037053
1.9392e-06
0.000370475
2.00061e-06
0.000370427
2.0286e-06
0.000370387
2.0258e-06
0.000370356
1.99518e-06
0.000370333
1.94025e-06
0.000370318
1.86506e-06
0.00037031
1.77403e-06
0.000370308
1.6716e-06
0.00037031
1.562e-06
0.000370316
1.44897e-06
0.000370324
1.33567e-06
0.000370333
1.22471e-06
1.11819e-06
0.000370343
0.000381151
5.74414e-07
0.000381112
1.00436e-06
0.000381061
1.33025e-06
0.000381003
1.5771e-06
0.000380943
1.76379e-06
0.000380884
1.90106e-06
0.000380828
1.99546e-06
0.000380777
2.05137e-06
0.000380733
2.07224e-06
0.000380698
2.06136e-06
0.000380671
2.02233e-06
0.000380652
1.95927e-06
0.00038064
1.8767e-06
0.000380635
1.77933e-06
0.000380635
1.67175e-06
0.000380638
1.55815e-06
0.000380645
1.4422e-06
0.000380654
1.32691e-06
0.000380664
1.21469e-06
1.10748e-06
0.000380675
0.000391722
5.96995e-07
0.000391683
1.04333e-06
0.000391634
1.37964e-06
0.000391579
1.63249e-06
0.000391521
1.82131e-06
0.000391465
1.95747e-06
0.000391412
2.04809e-06
0.000391365
2.09813e-06
0.000391326
2.11169e-06
0.000391294
2.09274e-06
0.000391271
2.04553e-06
0.000391256
1.97473e-06
0.000391247
1.88527e-06
0.000391244
1.7821e-06
0.000391246
1.66987e-06
0.000391252
1.55275e-06
0.00039126
1.43429e-06
0.000391269
1.31732e-06
0.00039128
1.20411e-06
1.09642e-06
0.000391291
0.000402587
6.1906e-07
0.000402549
1.0813e-06
0.000402501
1.42752e-06
0.000402447
1.68577e-06
0.000402393
1.87613e-06
0.000402339
2.01063e-06
0.000402291
2.09699e-06
0.000402248
2.14085e-06
0.000402213
2.14699e-06
0.000402185
2.12005e-06
0.000402166
2.06494e-06
0.000402154
1.98682e-06
0.000402148
1.89097e-06
0.000402148
1.7825e-06
0.000402151
1.66612e-06
0.000402158
1.54592e-06
0.000402167
1.42531e-06
0.000402178
1.30698e-06
0.000402189
1.19301e-06
1.08502e-06
0.0004022
0.000413752
6.40517e-07
0.000413715
1.11814e-06
0.000413669
1.47369e-06
0.000413618
1.73676e-06
0.000413566
1.92807e-06
0.000413516
2.06037e-06
0.000413471
2.14207e-06
0.000413433
2.17951e-06
0.000413402
2.17818e-06
0.000413378
2.14342e-06
0.000413362
2.08072e-06
0.000413354
1.99572e-06
0.000413351
1.89397e-06
0.000413352
1.78071e-06
0.000413358
1.66064e-06
0.000413366
1.53777e-06
0.000413376
1.41535e-06
0.000413387
1.29593e-06
0.000413399
1.18143e-06
1.07331e-06
0.00041341
0.000425227
6.61298e-07
0.000425192
1.15372e-06
0.000425148
1.51801e-06
0.000425099
1.78528e-06
0.00042505
1.97696e-06
0.000425004
2.10657e-06
0.000424963
2.18326e-06
0.000424928
2.2141e-06
0.000424901
2.20533e-06
0.000424882
2.16295e-06
0.000424869
2.09304e-06
0.000424863
2.0016e-06
0.000424863
1.89444e-06
0.000424867
1.77686e-06
0.000424874
1.65354e-06
0.000424883
1.52838e-06
0.000424894
1.40447e-06
0.000424906
1.28422e-06
0.000424918
1.16938e-06
1.06128e-06
0.00042493
0.000437021
6.81311e-07
0.000436987
1.18788e-06
0.000436945
1.56028e-06
0.000436899
1.83115e-06
0.000436853
2.02265e-06
0.00043681
2.14913e-06
0.000436773
2.22051e-06
0.000436743
2.24465e-06
0.00043672
2.22852e-06
0.000436704
2.17879e-06
0.000436695
2.10204e-06
0.000436692
2.00463e-06
0.000436694
1.89253e-06
0.000436699
1.7711e-06
0.000436708
1.64494e-06
0.000436718
1.51784e-06
0.00043673
1.39274e-06
0.000436743
1.27188e-06
0.000436755
1.15689e-06
1.04896e-06
0.000436767
0.000449142
7.0049e-07
0.000449109
1.2205e-06
0.000449069
1.60037e-06
0.000449026
1.87421e-06
0.000448984
2.06501e-06
0.000448945
2.18795e-06
0.000448912
2.25379e-06
0.000448885
2.27118e-06
0.000448866
2.24784e-06
0.000448853
2.19106e-06
0.000448848
2.10788e-06
0.000448847
2.00495e-06
0.000448851
1.88839e-06
0.000448859
1.76354e-06
0.000448869
1.63494e-06
0.000448881
1.50622e-06
0.000448893
1.3802e-06
0.000448906
1.25896e-06
0.000448919
1.14399e-06
1.03636e-06
0.000448932
0.000461599
7.18743e-07
0.000461568
1.25144e-06
0.00046153
1.6381e-06
0.00046149
1.91431e-06
0.000461451
2.10391e-06
0.000461416
2.22296e-06
0.000461387
2.28308e-06
0.000461364
2.29375e-06
0.000461348
2.26339e-06
0.00046134
2.1999e-06
0.000461337
2.11071e-06
0.000461339
2.00272e-06
0.000461345
1.88214e-06
0.000461355
1.7543e-06
0.000461366
1.62362e-06
0.000461378
1.4936e-06
0.000461392
1.36691e-06
0.000461405
1.24548e-06
0.000461419
1.13069e-06
1.02349e-06
0.000461431
0.000474401
7.36013e-07
0.000474372
1.28059e-06
0.000474337
1.67335e-06
0.0004743
1.95133e-06
0.000474264
2.13926e-06
0.000474233
2.25411e-06
0.000474208
2.30841e-06
0.000474189
2.31242e-06
0.000474177
2.27529e-06
0.000474172
2.20543e-06
0.000474172
2.11066e-06
0.000474176
1.99808e-06
0.000474185
1.87392e-06
0.000474195
1.74349e-06
0.000474208
1.61107e-06
0.000474221
1.48004e-06
0.000474235
1.35291e-06
0.000474249
1.23149e-06
0.000474263
1.11702e-06
1.01035e-06
0.000474276
0.000487558
7.52211e-07
0.000487531
1.30783e-06
0.000487499
1.70597e-06
0.000487465
1.98514e-06
0.000487433
2.17096e-06
0.000487406
2.28137e-06
0.000487384
2.32978e-06
0.00048737
2.32727e-06
0.000487361
2.28363e-06
0.000487359
2.20779e-06
0.000487362
2.10788e-06
0.000487369
1.99115e-06
0.000487379
1.86384e-06
0.000487391
1.73119e-06
0.000487405
1.59736e-06
0.000487419
1.46559e-06
0.000487434
1.33824e-06
0.000487448
1.217e-06
0.000487462
1.10299e-06
9.96967e-07
0.000487476
0.000501081
7.67289e-07
0.000501056
1.33304e-06
0.000501026
1.73586e-06
0.000500995
2.01564e-06
0.000500967
2.19897e-06
0.000500944
2.30473e-06
0.000500926
2.34724e-06
0.000500915
2.33837e-06
0.00050091
2.28854e-06
0.000500911
2.20712e-06
0.000500916
2.10251e-06
0.000500925
1.98205e-06
0.000500937
1.85201e-06
0.000500951
1.71749e-06
0.000500966
1.58257e-06
0.000500981
1.4503e-06
0.000500996
1.32295e-06
0.000501011
1.20205e-06
0.000501026
1.08862e-06
9.83342e-07
0.000501039
0.000514978
7.81165e-07
0.000514955
1.35612e-06
0.000514928
1.7629e-06
0.000514901
2.04275e-06
0.000514877
2.22323e-06
0.000514857
2.32419e-06
0.000514844
2.36085e-06
0.000514836
2.34582e-06
0.000514835
2.29013e-06
0.000514838
2.20354e-06
0.000514846
2.09466e-06
0.000514857
1.97091e-06
0.000514871
1.83852e-06
0.000514886
1.70249e-06
0.000514901
1.56675e-06
0.000514917
1.43424e-06
0.000514933
1.30706e-06
0.000514949
1.18666e-06
0.000514963
1.07394e-06
9.69488e-07
0.000514977
0.000529261
7.93803e-07
0.00052924
1.377e-06
0.000529216
1.78702e-06
0.000529192
2.0664e-06
0.000529172
2.24372e-06
0.000529156
2.33978e-06
0.000529146
2.37066e-06
0.000529142
2.34973e-06
0.000529144
2.28853e-06
0.00052915
2.19718e-06
0.000529161
2.08446e-06
0.000529174
1.95784e-06
0.000529189
1.82347e-06
0.000529205
1.68625e-06
0.000529222
1.54997e-06
0.000529239
1.41744e-06
0.000529255
1.29062e-06
0.000529271
1.17085e-06
0.000529286
1.05894e-06
9.55414e-07
0.0005293
0.00054394
8.05131e-07
0.000543921
1.39558e-06
0.0005439
1.80812e-06
0.00054388
2.08655e-06
0.000543863
2.26043e-06
0.000543852
2.35152e-06
0.000543845
2.37677e-06
0.000543845
2.3502e-06
0.00054385
2.28386e-06
0.000543859
2.18817e-06
0.000543871
2.07205e-06
0.000543886
1.94295e-06
0.000543902
1.80695e-06
0.00054392
1.66885e-06
0.000543938
1.5323e-06
0.000543955
1.39994e-06
0.000543972
1.27366e-06
0.000543988
1.15465e-06
0.000544004
1.04366e-06
9.41131e-07
0.000544018
0.000559026
8.15129e-07
0.00055901
1.41182e-06
0.000558992
1.82616e-06
0.000558975
2.10316e-06
0.000558962
2.27338e-06
0.000558954
2.35949e-06
0.000558952
2.37925e-06
0.000558954
2.34735e-06
0.000558962
2.27626e-06
0.000558974
2.17664e-06
0.000558988
2.05752e-06
0.000559005
1.92633e-06
0.000559023
1.78906e-06
0.000559041
1.65037e-06
0.00055906
1.51377e-06
0.000559078
1.3818e-06
0.000559095
1.25619e-06
0.000559112
1.13808e-06
0.000559127
1.02811e-06
9.2665e-07
0.000559142
0.00057453
8.23736e-07
0.000574516
1.42563e-06
0.000574501
1.84108e-06
0.000574488
2.11622e-06
0.000574479
2.28258e-06
0.000574475
2.36373e-06
0.000574476
2.37822e-06
0.000574482
2.3413e-06
0.000574492
2.26584e-06
0.000574506
2.16272e-06
0.000574523
2.041e-06
0.000574541
1.90808e-06
0.00057456
1.76986e-06
0.00057458
1.63086e-06
0.000574599
1.49445e-06
0.000574618
1.36304e-06
0.000574636
1.23827e-06
0.000574653
1.12115e-06
0.000574669
1.01229e-06
9.11979e-07
0.000574683
0.000590464
8.30949e-07
0.000590453
1.43701e-06
0.000590441
1.85288e-06
0.000590432
2.12575e-06
0.000590426
2.28809e-06
0.000590426
2.36434e-06
0.00059043
2.37376e-06
0.000590439
2.33216e-06
0.000590452
2.25273e-06
0.000590469
2.14651e-06
0.000590487
2.02259e-06
0.000590507
1.88831e-06
0.000590527
1.74944e-06
0.000590548
1.61038e-06
0.000590568
1.47438e-06
0.000590587
1.34371e-06
0.000590605
1.2199e-06
0.000590623
1.1039e-06
0.000590639
9.96232e-07
8.97131e-07
0.000590654
0.000606841
8.36722e-07
0.000606832
1.44591e-06
0.000606823
1.86153e-06
0.000606817
2.13175e-06
0.000606815
2.28996e-06
0.000606818
2.3614e-06
0.000606826
2.36601e-06
0.000606838
2.32007e-06
0.000606854
2.23707e-06
0.000606872
2.12814e-06
0.000606892
2.0024e-06
0.000606913
1.86709e-06
0.000606935
1.72787e-06
0.000606956
1.58901e-06
0.000606977
1.45361e-06
0.000606997
1.32384e-06
0.000607016
1.20113e-06
0.000607033
1.08635e-06
0.00060705
9.79943e-07
8.82114e-07
0.000607065
0.000623671
8.41067e-07
0.000623664
1.45233e-06
0.000623659
1.86706e-06
0.000623656
2.13429e-06
0.000623658
2.28827e-06
0.000623664
2.35502e-06
0.000623675
2.35509e-06
0.00062369
2.30516e-06
0.000623708
2.21897e-06
0.000623729
2.10773e-06
0.000623751
1.98053e-06
0.000623773
1.84452e-06
0.000623796
1.70523e-06
0.000623818
1.56679e-06
0.00062384
1.43218e-06
0.00062386
1.30346e-06
0.000623879
1.18197e-06
0.000623897
1.0685e-06
0.000623913
9.6344e-07
8.66941e-07
0.000623929
0.000640968
8.43955e-07
0.000640964
1.45627e-06
0.000640961
1.86948e-06
0.000640962
2.1334e-06
0.000640967
2.28311e-06
0.000640977
2.34531e-06
0.000640991
2.34111e-06
0.000641009
2.28756e-06
0.000641029
2.19856e-06
0.000641052
2.0854e-06
0.000641075
1.95708e-06
0.000641099
1.82068e-06
0.000641122
1.68158e-06
0.000641145
1.54378e-06
0.000641167
1.41014e-06
0.000641188
1.28262e-06
0.000641208
1.16246e-06
0.000641226
1.05038e-06
0.000641243
9.46737e-07
8.51622e-07
0.000641258
0.000658744
8.45417e-07
0.000658743
1.45775e-06
0.000658744
1.86884e-06
0.000658748
2.12917e-06
0.000658756
2.27458e-06
0.000658769
2.3324e-06
0.000658786
2.32422e-06
0.000658806
2.2674e-06
0.000658829
2.17597e-06
0.000658853
2.06125e-06
0.000658878
1.93216e-06
0.000658903
1.79566e-06
0.000658928
1.65699e-06
0.000658951
1.52004e-06
0.000658974
1.38754e-06
0.000658995
1.26134e-06
0.000659015
1.14261e-06
0.000659033
1.03202e-06
0.00065905
9.29849e-07
8.36167e-07
0.000659066
0.000677014
8.45437e-07
0.000677015
1.4568e-06
0.000677018
1.86518e-06
0.000677026
2.12168e-06
0.000677038
2.26278e-06
0.000677054
2.3164e-06
0.000677073
2.30455e-06
0.000677096
2.24481e-06
0.000677121
2.15133e-06
0.000677147
2.03539e-06
0.000677173
1.90585e-06
0.000677199
1.76952e-06
0.000677224
1.63153e-06
0.000677249
1.49561e-06
0.000677272
1.3644e-06
0.000677294
1.23965e-06
0.000677314
1.12246e-06
0.000677332
1.01343e-06
0.000677349
9.12792e-07
8.20589e-07
0.000677365
0.00069579
8.44068e-07
0.000695793
1.45346e-06
0.0006958
1.8586e-06
0.000695811
2.11104e-06
0.000695825
2.24786e-06
0.000695844
2.29748e-06
0.000695867
2.28224e-06
0.000695892
2.21993e-06
0.000695918
2.12476e-06
0.000695946
2.00795e-06
0.000695973
1.87825e-06
0.000696
1.74236e-06
0.000696027
1.60526e-06
0.000696052
1.47056e-06
0.000696075
1.34078e-06
0.000696097
1.2176e-06
0.000696118
1.10203e-06
0.000696137
9.94625e-07
0.000696154
8.9558e-07
8.04899e-07
0.00069617
0.000715087
8.41304e-07
0.000715092
1.44779e-06
0.000715102
1.84915e-06
0.000715115
2.09734e-06
0.000715133
2.22993e-06
0.000715155
2.27575e-06
0.00071518
2.25743e-06
0.000715207
2.1929e-06
0.000715235
2.09638e-06
0.000715264
1.97902e-06
0.000715293
1.84945e-06
0.000715321
1.71424e-06
0.000715348
1.57824e-06
0.000715374
1.44492e-06
0.000715398
1.31672e-06
0.00071542
1.19521e-06
0.000715441
1.08135e-06
0.00071546
9.75632e-07
0.000715477
8.78229e-07
7.89108e-07
0.000715493
0.000734918
8.37216e-07
0.000734926
1.43986e-06
0.000734939
1.83697e-06
0.000734955
2.08072e-06
0.000734976
2.20914e-06
0.000735
2.25137e-06
0.000735027
2.23027e-06
0.000735057
2.16386e-06
0.000735087
2.06631e-06
0.000735117
1.94871e-06
0.000735147
1.81955e-06
0.000735176
1.68525e-06
0.000735204
1.55053e-06
0.00073523
1.41875e-06
0.000735254
1.29224e-06
0.000735277
1.17251e-06
0.000735298
1.06043e-06
0.000735317
9.56469e-07
0.000735334
8.60753e-07
7.7323e-07
0.00073535
0.0007553
8.3181e-07
0.00075531
1.42974e-06
0.000755325
1.82213e-06
0.000755344
2.06131e-06
0.000755368
2.18563e-06
0.000755395
2.22449e-06
0.000755424
2.20091e-06
0.000755455
2.13292e-06
0.000755487
2.03467e-06
0.000755518
1.91712e-06
0.000755549
1.78862e-06
0.000755579
1.65545e-06
0.000755607
1.52219e-06
0.000755634
1.3921e-06
0.000755659
1.2674e-06
0.000755682
1.14953e-06
0.000755703
1.03931e-06
0.000755722
9.37155e-07
0.00075574
8.43169e-07
7.57275e-07
0.000755756
0.000776247
8.25172e-07
0.000776259
1.41754e-06
0.000776276
1.80477e-06
0.000776298
2.03926e-06
0.000776325
2.15955e-06
0.000776354
2.19527e-06
0.000776385
2.16949e-06
0.000776418
2.10025e-06
0.000776451
2.00159e-06
0.000776484
1.88435e-06
0.000776516
1.75675e-06
0.000776546
1.62491e-06
0.000776575
1.49328e-06
0.000776602
1.36501e-06
0.000776627
1.24223e-06
0.000776651
1.1263e-06
0.000776672
1.018e-06
0.000776691
9.17709e-07
0.000776709
8.25491e-07
7.41257e-07
0.000776725
0.000797774
8.17318e-07
0.000797789
1.40332e-06
0.000797808
1.78501e-06
0.000797833
2.01469e-06
0.000797861
2.13107e-06
0.000797893
2.16386e-06
0.000797926
2.13616e-06
0.00079796
2.06595e-06
0.000797995
1.96718e-06
0.000798029
1.85051e-06
0.000798061
1.72403e-06
0.000798093
1.5937e-06
0.000798122
1.46386e-06
0.00079815
1.33753e-06
0.000798175
1.21677e-06
0.000798198
1.10286e-06
0.00079822
9.96542e-07
0.00079824
8.9815e-07
0.000798257
8.07737e-07
7.25187e-07
0.000798273
0.000819899
8.08345e-07
0.000819915
1.38722e-06
0.000819937
1.76299e-06
0.000819964
1.98779e-06
0.000819995
2.10035e-06
0.000820028
2.13042e-06
0.000820063
2.10106e-06
0.000820099
2.03017e-06
0.000820135
1.93154e-06
0.000820169
1.8157e-06
0.000820203
1.69054e-06
0.000820235
1.5619e-06
0.000820265
1.43398e-06
0.000820292
1.3097e-06
0.000820318
1.19104e-06
0.000820342
1.07923e-06
0.000820363
9.74946e-07
0.000820383
8.78499e-07
0.000820401
7.8992e-07
7.0908e-07
0.000820417
0.000842637
7.98278e-07
0.000842655
1.36932e-06
0.000842679
1.73885e-06
0.000842708
1.95868e-06
0.000842741
2.06754e-06
0.000842776
2.0951e-06
0.000842813
2.06435e-06
0.00084285
1.99304e-06
0.000842887
1.89481e-06
0.000842922
1.78e-06
0.000842957
1.65636e-06
0.000842989
1.52956e-06
0.000843019
1.40369e-06
0.000843047
1.28158e-06
0.000843073
1.1651e-06
0.000843097
1.05544e-06
0.000843119
9.5324e-07
0.000843139
8.58775e-07
0.000843156
7.72058e-07
6.92947e-07
0.000843173
0.000866005
7.87223e-07
0.000866025
1.34977e-06
0.000866051
1.71273e-06
0.000866082
1.92755e-06
0.000866117
2.0328e-06
0.000866154
2.05806e-06
0.000866192
2.02616e-06
0.00086623
1.95468e-06
0.000866268
1.85708e-06
0.000866305
1.74352e-06
0.000866339
1.62157e-06
0.000866372
1.49676e-06
0.000866403
1.37306e-06
0.000866431
1.25319e-06
0.000866457
1.13897e-06
0.000866481
1.03152e-06
0.000866503
9.31449e-07
0.000866523
8.38997e-07
0.000866541
7.54165e-07
6.76801e-07
0.000866557
0.000890022
7.75209e-07
0.000890043
1.32865e-06
0.000890071
1.68478e-06
0.000890104
1.89455e-06
0.00089014
1.99631e-06
0.000890179
2.01946e-06
0.000890218
1.98663e-06
0.000890258
1.91522e-06
0.000890296
1.81847e-06
0.000890334
1.70634e-06
0.000890369
1.58624e-06
0.000890402
1.46356e-06
0.000890433
1.34213e-06
0.000890462
1.22459e-06
0.000890488
1.1127e-06
0.000890512
1.00751e-06
0.000890534
9.09595e-07
0.000890554
8.19184e-07
0.000890571
7.36258e-07
6.60657e-07
0.000890588
0.000914704
7.62348e-07
0.000914726
1.30612e-06
0.000914756
1.65516e-06
0.000914791
1.85984e-06
0.000914829
1.95823e-06
0.000914869
1.97945e-06
0.00091491
1.94592e-06
0.00091495
1.87479e-06
0.000914989
1.77907e-06
0.000915027
1.66855e-06
0.000915063
1.55045e-06
0.000915096
1.43001e-06
0.000915128
1.31095e-06
0.000915156
1.19582e-06
0.000915183
1.08631e-06
0.000915207
9.83419e-07
0.000915229
8.87701e-07
0.000915249
7.99356e-07
0.000915267
7.18353e-07
6.44526e-07
0.000915283
0.00094007
7.48672e-07
0.000940094
1.28227e-06
0.000940125
1.624e-06
0.000940162
1.82359e-06
0.000940201
1.9187e-06
0.000940243
1.93818e-06
0.000940284
1.90414e-06
0.000940326
1.83349e-06
0.000940366
1.739e-06
0.000940404
1.63025e-06
0.00094044
1.51427e-06
0.000940474
1.39618e-06
0.000940505
1.27957e-06
0.000940534
1.16692e-06
0.000940561
1.05983e-06
0.000940585
9.59287e-07
0.000940607
8.65792e-07
0.000940627
7.79532e-07
0.000940645
7.00466e-07
6.28422e-07
0.000940661
0.00096614
7.34294e-07
0.000966165
1.25725e-06
0.000966198
1.59147e-06
0.000966236
1.78596e-06
0.000966276
1.8779e-06
0.000966319
1.8958e-06
0.000966362
1.86144e-06
0.000966404
1.79145e-06
0.000966444
1.69836e-06
0.000966483
1.59151e-06
0.000966519
1.47778e-06
0.000966554
1.36213e-06
0.000966585
1.24805e-06
0.000966614
1.13793e-06
0.000966641
1.03331e-06
0.000966665
9.35139e-07
0.000966687
8.43889e-07
0.000966706
7.59729e-07
0.000966724
6.82611e-07
6.12357e-07
0.00096674
0.000992933
7.19248e-07
0.000992959
1.23116e-06
0.000992993
1.55771e-06
0.000993032
1.74709e-06
0.000993074
1.83598e-06
0.000993117
1.85245e-06
0.000993161
1.81795e-06
0.000993203
1.74878e-06
0.000993245
1.65723e-06
0.000993284
1.55241e-06
0.00099332
1.44104e-06
0.000993355
1.32791e-06
0.000993386
1.21643e-06
0.000993415
1.10889e-06
0.000993442
1.00678e-06
0.000993466
9.11002e-07
0.000993488
8.22015e-07
0.000993508
7.39968e-07
0.000993525
6.64804e-07
5.96345e-07
0.000993541
0.00102047
7.03645e-07
0.0010205
1.20414e-06
0.00102053
1.52288e-06
0.00102057
1.70716e-06
0.00102061
1.79309e-06