/*--------------------------------*- C++ -*----------------------------------*\
| =========                 |                                                 |
| \\      /  F ield         | OpenFOAM: The Open Source CFD Toolbox           |
|  \\    /   O peration     | Version:  2.4.0                                 |
|   \\  /    A nd           | Web:      www.OpenFOAM.org                      |
|    \\/     M anipulation  |                                                 |
\*---------------------------------------------------------------------------*/
FoamFile
{
    version     2.0;
    format      ascii;
    class       volScalarField;
    location    "0.14";
    object      nut;
}
// * * * * * * * * * * * * * * * * * * * * * * * * * * * * * * * * * * * * * //

dimensions      [0 2 -1 0 0 0 0];

internalField   nonuniform List<scalar> 
6000
(
1.2517e-05
9.27095e-06
6.97101e-06
7.68035e-06
8.88065e-06
1.01635e-05
1.1304e-05
1.22502e-05
1.29079e-05
1.33858e-05
1.37835e-05
1.41351e-05
1.44505e-05
1.47368e-05
1.49998e-05
1.52436e-05
1.54707e-05
1.56826e-05
1.58798e-05
1.60623e-05
1.623e-05
1.63826e-05
1.65198e-05
1.66411e-05
1.6746e-05
1.68343e-05
1.69054e-05
1.69593e-05
1.69956e-05
1.70141e-05
1.70149e-05
1.69978e-05
1.69628e-05
1.69097e-05
1.6839e-05
1.67511e-05
1.66465e-05
1.65257e-05
1.63891e-05
1.62373e-05
1.60712e-05
1.58914e-05
1.5699e-05
1.54949e-05
1.52802e-05
1.50561e-05
1.48241e-05
1.45854e-05
1.43418e-05
1.40948e-05
1.38462e-05
1.35981e-05
1.33517e-05
1.31116e-05
1.28722e-05
1.26589e-05
1.24098e-05
1.23019e-05
1.19161e-05
1.2087e-05
2.3156e-05
3.30096e-05
2.00531e-05
1.86282e-05
1.88957e-05
1.894e-05
1.89422e-05
1.92211e-05
1.97278e-05
2.03617e-05
2.10832e-05
2.1848e-05
2.26139e-05
2.33561e-05
2.40623e-05
2.47254e-05
2.53415e-05
2.5909e-05
2.64276e-05
2.68981e-05
2.73217e-05
2.76999e-05
2.80343e-05
2.83262e-05
2.85773e-05
2.87887e-05
2.89616e-05
2.90969e-05
2.91955e-05
2.92578e-05
2.92844e-05
2.92751e-05
2.92295e-05
2.91454e-05
2.90241e-05
2.88658e-05
2.86695e-05
2.84341e-05
2.81583e-05
2.78405e-05
2.74791e-05
2.70719e-05
2.6617e-05
2.61118e-05
2.55539e-05
2.49407e-05
2.42695e-05
2.35379e-05
2.27437e-05
2.18851e-05
2.09613e-05
1.99728e-05
1.89215e-05
1.78135e-05
1.66543e-05
1.54619e-05
1.42441e-05
1.30431e-05
1.17382e-05
1.09179e-05
2.86415e-05
3.62419e-05
2.55581e-05
2.51797e-05
2.79784e-05
2.93995e-05
2.96538e-05
2.97672e-05
3.02006e-05
3.09218e-05
3.17642e-05
3.26e-05
3.3372e-05
3.40658e-05
3.46819e-05
3.52249e-05
3.57009e-05
3.6117e-05
3.64798e-05
3.67954e-05
3.70692e-05
3.73057e-05
3.75091e-05
3.76826e-05
3.78291e-05
3.79509e-05
3.805e-05
3.81278e-05
3.81856e-05
3.82242e-05
3.82444e-05
3.82461e-05
3.82288e-05
3.81912e-05
3.81341e-05
3.80573e-05
3.79598e-05
3.78402e-05
3.76967e-05
3.75272e-05
3.73292e-05
3.70995e-05
3.68344e-05
3.65294e-05
3.61794e-05
3.5778e-05
3.53178e-05
3.47901e-05
3.41843e-05
3.34884e-05
3.26877e-05
3.1766e-05
3.07034e-05
2.94837e-05
2.80734e-05
2.64978e-05
2.46165e-05
2.28352e-05
2.00894e-05
1.8459e-05
3.18824e-05
3.49481e-05
2.77854e-05
2.82729e-05
3.2246e-05
3.48191e-05
3.58484e-05
3.62906e-05
3.67234e-05
3.72499e-05
3.77946e-05
3.8291e-05
3.87185e-05
3.90799e-05
3.93838e-05
3.96387e-05
3.98522e-05
4.00311e-05
4.01813e-05
4.03074e-05
4.04134e-05
4.05024e-05
4.05769e-05
4.06392e-05
4.06907e-05
4.0733e-05
4.07669e-05
4.07935e-05
4.08133e-05
4.08268e-05
4.08343e-05
4.08359e-05
4.08314e-05
4.08205e-05
4.08034e-05
4.07798e-05
4.07492e-05
4.07111e-05
4.06645e-05
4.06084e-05
4.05414e-05
4.04619e-05
4.03677e-05
4.02565e-05
4.01251e-05
3.99698e-05
3.97858e-05
3.95674e-05
3.93072e-05
3.89962e-05
3.86228e-05
3.81728e-05
3.76271e-05
3.69644e-05
3.61493e-05
3.51711e-05
3.39082e-05
3.26054e-05
3.04392e-05
2.90909e-05
3.35776e-05
3.32454e-05
2.84431e-05
2.95866e-05
3.37795e-05
3.68245e-05
3.83391e-05
3.90704e-05
3.95461e-05
3.99308e-05
4.02442e-05
4.04908e-05
4.06828e-05
4.08332e-05
4.09518e-05
4.10458e-05
4.11206e-05
4.11803e-05
4.12283e-05
4.1267e-05
4.12983e-05
4.13237e-05
4.13444e-05
4.13611e-05
4.13747e-05
4.13856e-05
4.13943e-05
4.1401e-05
4.14059e-05
4.14094e-05
4.14114e-05
4.14119e-05
4.1411e-05
4.14087e-05
4.14048e-05
4.13993e-05
4.13921e-05
4.13829e-05
4.13715e-05
4.13575e-05
4.13403e-05
4.13194e-05
4.12939e-05
4.12628e-05
4.1225e-05
4.11786e-05
4.11218e-05
4.10517e-05
4.09649e-05
4.08568e-05
4.07217e-05
4.05517e-05
4.03366e-05
4.0063e-05
3.97116e-05
3.92661e-05
3.86688e-05
3.80027e-05
3.69087e-05
3.6204e-05
3.44817e-05
3.20905e-05
2.85632e-05
2.99646e-05
3.40732e-05
3.73367e-05
3.91554e-05
4.00898e-05
4.06181e-05
4.09386e-05
4.11331e-05
4.12524e-05
4.13292e-05
4.13812e-05
4.14179e-05
4.14444e-05
4.14638e-05
4.14781e-05
4.14888e-05
4.14969e-05
4.15031e-05
4.15078e-05
4.15115e-05
4.15143e-05
4.15165e-05
4.15183e-05
4.15196e-05
4.15206e-05
4.15214e-05
4.15219e-05
4.15222e-05
4.15224e-05
4.15223e-05
4.1522e-05
4.15215e-05
4.15209e-05
4.15199e-05
4.15187e-05
4.15171e-05
4.15151e-05
4.15125e-05
4.15092e-05
4.1505e-05
4.14996e-05
4.14927e-05
4.14838e-05
4.14722e-05
4.1457e-05
4.1437e-05
4.14105e-05
4.13753e-05
4.13281e-05
4.12647e-05
4.11788e-05
4.10627e-05
4.09042e-05
4.06891e-05
4.04211e-05
4.00361e-05
3.9786e-05
3.49793e-05
3.14888e-05
2.85831e-05
2.99307e-05
3.38706e-05
3.72776e-05
3.93208e-05
4.04051e-05
4.0984e-05
4.1285e-05
4.14292e-05
4.14941e-05
4.15233e-05
4.15367e-05
4.1543e-05
4.15458e-05
4.15468e-05
4.15469e-05
4.15464e-05
4.15458e-05
4.1545e-05
4.15443e-05
4.15435e-05
4.15429e-05
4.15424e-05
4.15419e-05
4.15415e-05
4.15412e-05
4.1541e-05
4.15409e-05
4.15408e-05
4.15409e-05
4.1541e-05
4.15412e-05
4.15415e-05
4.15418e-05
4.15423e-05
4.15429e-05
4.15436e-05
4.15444e-05
4.15454e-05
4.15465e-05
4.15478e-05
4.15493e-05
4.15509e-05
4.15527e-05
4.15547e-05
4.15566e-05
4.15585e-05
4.15601e-05
4.1561e-05
4.15604e-05
4.15576e-05
4.15506e-05
4.15386e-05
4.15144e-05
4.14858e-05
4.14283e-05
4.14165e-05
4.14272e-05
3.52518e-05
3.12364e-05
2.86089e-05
2.97473e-05
3.34955e-05
3.70188e-05
3.9252e-05
4.04597e-05
4.10868e-05
4.13903e-05
4.15184e-05
4.1564e-05
4.15764e-05
4.15768e-05
4.15734e-05
4.15691e-05
4.15649e-05
4.15611e-05
4.15578e-05
4.15549e-05
4.15526e-05
4.15506e-05
4.15489e-05
4.15476e-05
4.15465e-05
4.15456e-05
4.15449e-05
4.15443e-05
4.15439e-05
4.15437e-05
4.15436e-05
4.15436e-05
4.15437e-05
4.1544e-05
4.15444e-05
4.15449e-05
4.15457e-05
4.15466e-05
4.15477e-05
4.15491e-05
4.15508e-05
4.15529e-05
4.15554e-05
4.15584e-05
4.15621e-05
4.15665e-05
4.1572e-05
4.15786e-05
4.15868e-05
4.15967e-05
4.1609e-05
4.16241e-05
4.16428e-05
4.16655e-05
4.16951e-05
4.1728e-05
4.17825e-05
4.18263e-05
4.19936e-05
4.21412e-05
3.53936e-05
3.11548e-05
2.86296e-05
2.95145e-05
3.3076e-05
3.67002e-05
3.9106e-05
4.04253e-05
4.10995e-05
4.14151e-05
4.15417e-05
4.15822e-05
4.15896e-05
4.15862e-05
4.15801e-05
4.15739e-05
4.15684e-05
4.15637e-05
4.15597e-05
4.15565e-05
4.15538e-05
4.15515e-05
4.15497e-05
4.15482e-05
4.1547e-05
4.1546e-05
4.15453e-05
4.15447e-05
4.15443e-05
4.1544e-05
4.15439e-05
4.15439e-05
4.1544e-05
4.15443e-05
4.15447e-05
4.15453e-05
4.15461e-05
4.15471e-05
4.15483e-05
4.15498e-05
4.15516e-05
4.15538e-05
4.15566e-05
4.15599e-05
4.1564e-05
4.1569e-05
4.15753e-05
4.1583e-05
4.15927e-05
4.16049e-05
4.16203e-05
4.16401e-05
4.16656e-05
4.16984e-05
4.1743e-05
4.17981e-05
4.18868e-05
4.19757e-05
4.22225e-05
4.24357e-05
3.54588e-05
3.11382e-05
2.86302e-05
2.92715e-05
3.26606e-05
3.63716e-05
3.89382e-05
4.03635e-05
4.10842e-05
4.14154e-05
4.15458e-05
4.15863e-05
4.15927e-05
4.15884e-05
4.15816e-05
4.15749e-05
4.1569e-05
4.15641e-05
4.156e-05
4.15567e-05
4.15539e-05
4.15516e-05
4.15498e-05
4.15482e-05
4.1547e-05
4.1546e-05
4.15453e-05
4.15447e-05
4.15442e-05
4.1544e-05
4.15438e-05
4.15438e-05
4.1544e-05
4.15443e-05
4.15447e-05
4.15453e-05
4.15461e-05
4.15471e-05
4.15483e-05
4.15498e-05
4.15516e-05
4.15539e-05
4.15567e-05
4.15601e-05
4.15643e-05
4.15694e-05
4.15758e-05
4.15838e-05
4.15938e-05
4.16066e-05
4.16229e-05
4.16439e-05
4.16714e-05
4.17073e-05
4.17568e-05
4.18199e-05
4.19215e-05
4.20289e-05
4.23076e-05
4.25483e-05
3.54786e-05
3.11357e-05
2.86081e-05
2.90357e-05
3.22673e-05
3.605e-05
3.87665e-05
4.02942e-05
4.10611e-05
4.14092e-05
4.15449e-05
4.15868e-05
4.15934e-05
4.15889e-05
4.15819e-05
4.15751e-05
4.15692e-05
4.15642e-05
4.15601e-05
4.15567e-05
4.15539e-05
4.15516e-05
4.15497e-05
4.15482e-05
4.1547e-05
4.1546e-05
4.15452e-05
4.15446e-05
4.15442e-05
4.15439e-05
4.15438e-05
4.15438e-05
4.15439e-05
4.15442e-05
4.15446e-05
4.15452e-05
4.1546e-05
4.1547e-05
4.15482e-05
4.15497e-05
4.15516e-05
4.15539e-05
4.15567e-05
4.15601e-05
4.15643e-05
4.15695e-05
4.15759e-05
4.1584e-05
4.15941e-05
4.1607e-05
4.16235e-05
4.16448e-05
4.16729e-05
4.17097e-05
4.17609e-05
4.18266e-05
4.19327e-05
4.20472e-05
4.23366e-05
4.25856e-05
3.54714e-05
3.11281e-05
2.85685e-05
2.88159e-05
3.19025e-05
3.57409e-05
3.85965e-05
4.02235e-05
4.10362e-05
4.14013e-05
4.15429e-05
4.15866e-05
4.15936e-05
4.15891e-05
4.15821e-05
4.15752e-05
4.15692e-05
4.15642e-05
4.15601e-05
4.15566e-05
4.15538e-05
4.15516e-05
4.15497e-05
4.15481e-05
4.15469e-05
4.15459e-05
4.15451e-05
4.15445e-05
4.15441e-05
4.15438e-05
4.15437e-05
4.15437e-05
4.15439e-05
4.15441e-05
4.15446e-05
4.15452e-05
4.15459e-05
4.15469e-05
4.15482e-05
4.15497e-05
4.15516e-05
4.15538e-05
4.15566e-05
4.156e-05
4.15643e-05
4.15695e-05
4.15759e-05
4.1584e-05
4.15942e-05
4.16071e-05
4.16237e-05
4.16452e-05
4.16734e-05
4.17106e-05
4.17622e-05
4.1829e-05
4.19366e-05
4.20535e-05
4.23448e-05
4.25934e-05
3.54482e-05
3.11108e-05
2.85185e-05
2.8616e-05
3.15674e-05
3.54462e-05
3.84298e-05
4.01529e-05
4.1011e-05
4.13932e-05
4.15407e-05
4.15862e-05
4.15938e-05
4.15893e-05
4.15822e-05
4.15753e-05
4.15693e-05
4.15642e-05
4.156e-05
4.15566e-05
4.15538e-05
4.15515e-05
4.15496e-05
4.15481e-05
4.15468e-05
4.15459e-05
4.15451e-05
4.15445e-05
4.15441e-05
4.15438e-05
4.15436e-05
4.15436e-05
4.15438e-05
4.15441e-05
4.15445e-05
4.15451e-05
4.15459e-05
4.15469e-05
4.15481e-05
4.15496e-05
4.15515e-05
4.15538e-05
4.15566e-05
4.156e-05
4.15642e-05
4.15694e-05
4.15759e-05
4.1584e-05
4.15942e-05
4.16072e-05
4.16238e-05
4.16454e-05
4.16738e-05
4.17111e-05
4.1763e-05
4.18301e-05
4.19382e-05
4.2056e-05
4.2346e-05
4.25905e-05
3.54159e-05
3.10853e-05
2.84646e-05
2.8437e-05
3.12611e-05
3.51661e-05
3.82668e-05
4.00829e-05
4.09859e-05
4.13852e-05
4.15385e-05
4.15859e-05
4.15939e-05
4.15895e-05
4.15823e-05
4.15754e-05
4.15693e-05
4.15642e-05
4.156e-05
4.15566e-05
4.15538e-05
4.15515e-05
4.15496e-05
4.1548e-05
4.15468e-05
4.15458e-05
4.1545e-05
4.15444e-05
4.1544e-05
4.15437e-05
4.15436e-05
4.15436e-05
4.15437e-05
4.1544e-05
4.15444e-05
4.1545e-05
4.15458e-05
4.15468e-05
4.15481e-05
4.15496e-05
4.15514e-05
4.15537e-05
4.15565e-05
4.156e-05
4.15642e-05
4.15694e-05
4.15759e-05
4.15841e-05
4.15943e-05
4.16073e-05
4.1624e-05
4.16456e-05
4.16741e-05
4.17115e-05
4.17635e-05
4.1831e-05
4.19392e-05
4.20572e-05
4.23448e-05
4.25839e-05
3.53789e-05
3.10548e-05
2.84115e-05
2.82785e-05
3.09819e-05
3.49003e-05
3.81076e-05
4.00135e-05
4.09609e-05
4.13773e-05
4.15364e-05
4.15856e-05
4.15941e-05
4.15897e-05
4.15825e-05
4.15754e-05
4.15693e-05
4.15642e-05
4.156e-05
4.15566e-05
4.15537e-05
4.15514e-05
4.15495e-05
4.1548e-05
4.15467e-05
4.15457e-05
4.1545e-05
4.15444e-05
4.15439e-05
4.15436e-05
4.15435e-05
4.15435e-05
4.15437e-05
4.15439e-05
4.15444e-05
4.1545e-05
4.15458e-05
4.15468e-05
4.1548e-05
4.15495e-05
4.15514e-05
4.15537e-05
4.15565e-05
4.15599e-05
4.15642e-05
4.15694e-05
4.15759e-05
4.15841e-05
4.15943e-05
4.16074e-05
4.16241e-05
4.16458e-05
4.16743e-05
4.17119e-05
4.17641e-05
4.18317e-05
4.19399e-05
4.20581e-05
4.23429e-05
4.25764e-05
3.53399e-05
3.10222e-05
2.83621e-05
2.81392e-05
3.0728e-05
3.46485e-05
3.79521e-05
3.99446e-05
4.0936e-05
4.13694e-05
4.15344e-05
4.15854e-05
4.15942e-05
4.15899e-05
4.15826e-05
4.15755e-05
4.15694e-05
4.15643e-05
4.156e-05
4.15566e-05
4.15537e-05
4.15514e-05
4.15495e-05
4.15479e-05
4.15467e-05
4.15457e-05
4.15449e-05
4.15443e-05
4.15439e-05
4.15436e-05
4.15435e-05
4.15435e-05
4.15436e-05
4.15439e-05
4.15443e-05
4.15449e-05
4.15457e-05
4.15467e-05
4.15479e-05
4.15495e-05
4.15513e-05
4.15536e-05
4.15565e-05
4.15599e-05
4.15642e-05
4.15694e-05
4.15759e-05
4.15841e-05
4.15944e-05
4.16075e-05
4.16242e-05
4.1646e-05
4.16746e-05
4.17123e-05
4.17646e-05
4.18324e-05
4.19407e-05
4.20588e-05
4.23408e-05
4.25687e-05
3.53009e-05
3.09897e-05
2.83179e-05
2.80175e-05
3.04971e-05
3.441e-05
3.78005e-05
3.98763e-05
4.09112e-05
4.13617e-05
4.15324e-05
4.15852e-05
4.15944e-05
4.15901e-05
4.15828e-05
4.15756e-05
4.15694e-05
4.15643e-05
4.156e-05
4.15565e-05
4.15537e-05
4.15513e-05
4.15494e-05
4.15479e-05
4.15466e-05
4.15456e-05
4.15448e-05
4.15442e-05
4.15438e-05
4.15435e-05
4.15434e-05
4.15434e-05
4.15435e-05
4.15438e-05
4.15443e-05
4.15449e-05
4.15456e-05
4.15466e-05
4.15479e-05
4.15494e-05
4.15513e-05
4.15536e-05
4.15564e-05
4.15599e-05
4.15641e-05
4.15694e-05
4.15759e-05
4.15841e-05
4.15944e-05
4.16075e-05
4.16244e-05
4.16462e-05
4.16749e-05
4.17127e-05
4.1765e-05
4.18331e-05
4.19413e-05
4.20594e-05
4.23387e-05
4.25613e-05
3.52628e-05
3.09588e-05
2.82796e-05
2.79115e-05
3.02872e-05
3.41844e-05
3.76526e-05
3.98084e-05
4.08865e-05
4.1354e-05
4.15305e-05
4.1585e-05
4.15946e-05
4.15903e-05
4.15829e-05
4.15757e-05
4.15695e-05
4.15643e-05
4.156e-05
4.15565e-05
4.15537e-05
4.15513e-05
4.15494e-05
4.15478e-05
4.15466e-05
4.15456e-05
4.15448e-05
4.15442e-05
4.15438e-05
4.15435e-05
4.15433e-05
4.15433e-05
4.15435e-05
4.15438e-05
4.15442e-05
4.15448e-05
4.15456e-05
4.15466e-05
4.15478e-05
4.15494e-05
4.15513e-05
4.15536e-05
4.15564e-05
4.15599e-05
4.15641e-05
4.15694e-05
4.15759e-05
4.15842e-05
4.15945e-05
4.16076e-05
4.16245e-05
4.16463e-05
4.16751e-05
4.1713e-05
4.17655e-05
4.18337e-05
4.19419e-05
4.20599e-05
4.23366e-05
4.25541e-05
3.52264e-05
3.09303e-05
2.82473e-05
2.78196e-05
3.00966e-05
3.39711e-05
3.75085e-05
3.9741e-05
4.08618e-05
4.13464e-05
4.15287e-05
4.15848e-05
4.15949e-05
4.15906e-05
4.15831e-05
4.15758e-05
4.15695e-05
4.15643e-05
4.156e-05
4.15565e-05
4.15536e-05
4.15513e-05
4.15494e-05
4.15478e-05
4.15465e-05
4.15455e-05
4.15447e-05
4.15441e-05
4.15437e-05
4.15434e-05
4.15433e-05
4.15433e-05
4.15434e-05
4.15437e-05
4.15441e-05
4.15447e-05
4.15455e-05
4.15465e-05
4.15478e-05
4.15493e-05
4.15512e-05
4.15535e-05
4.15564e-05
4.15598e-05
4.15641e-05
4.15694e-05
4.1576e-05
4.15842e-05
4.15945e-05
4.16077e-05
4.16246e-05
4.16465e-05
4.16754e-05
4.17134e-05
4.1766e-05
4.18343e-05
4.19425e-05
4.20604e-05
4.23346e-05
4.25472e-05
3.51922e-05
3.09048e-05
2.82208e-05
2.77399e-05
2.99233e-05
3.37696e-05
3.73682e-05
3.96742e-05
4.0837e-05
4.13387e-05
4.15269e-05
4.15847e-05
4.15951e-05
4.15908e-05
4.15833e-05
4.15759e-05
4.15696e-05
4.15643e-05
4.156e-05
4.15565e-05
4.15536e-05
4.15512e-05
4.15493e-05
4.15477e-05
4.15465e-05
4.15455e-05
4.15447e-05
4.15441e-05
4.15436e-05
4.15434e-05
4.15432e-05
4.15432e-05
4.15434e-05
4.15437e-05
4.15441e-05
4.15447e-05
4.15455e-05
4.15465e-05
4.15477e-05
4.15493e-05
4.15512e-05
4.15535e-05
4.15563e-05
4.15598e-05
4.15641e-05
4.15694e-05
4.1576e-05
4.15842e-05
4.15946e-05
4.16078e-05
4.16247e-05
4.16467e-05
4.16756e-05
4.17137e-05
4.17664e-05
4.18349e-05
4.19431e-05
4.20608e-05
4.23326e-05
4.25405e-05
3.51602e-05
3.08823e-05
2.81997e-05
2.76712e-05
2.97657e-05
3.35792e-05
3.72317e-05
3.96079e-05
4.08123e-05
4.13312e-05
4.15251e-05
4.15847e-05
4.15954e-05
4.15911e-05
4.15835e-05
4.1576e-05
4.15696e-05
4.15644e-05
4.156e-05
4.15565e-05
4.15536e-05
4.15512e-05
4.15493e-05
4.15477e-05
4.15464e-05
4.15454e-05
4.15446e-05
4.1544e-05
4.15436e-05
4.15433e-05
4.15432e-05
4.15432e-05
4.15433e-05
4.15436e-05
4.1544e-05
4.15446e-05
4.15454e-05
4.15464e-05
4.15477e-05
4.15492e-05
4.15511e-05
4.15534e-05
4.15563e-05
4.15598e-05
4.15641e-05
4.15694e-05
4.1576e-05
4.15842e-05
4.15946e-05
4.16079e-05
4.16249e-05
4.16469e-05
4.16759e-05
4.17141e-05
4.17668e-05
4.18355e-05
4.19436e-05
4.20612e-05
4.23306e-05
4.25342e-05
3.51307e-05
3.08629e-05
2.81834e-05
2.76124e-05
2.96225e-05
3.33995e-05
3.7099e-05
3.95422e-05
4.07876e-05
4.13236e-05
4.15234e-05
4.15846e-05
4.15957e-05
4.15913e-05
4.15836e-05
4.15761e-05
4.15697e-05
4.15644e-05
4.156e-05
4.15565e-05
4.15535e-05
4.15512e-05
4.15492e-05
4.15477e-05
4.15464e-05
4.15454e-05
4.15446e-05
4.1544e-05
4.15435e-05
4.15433e-05
4.15431e-05
4.15431e-05
4.15433e-05
4.15435e-05
4.1544e-05
4.15446e-05
4.15454e-05
4.15464e-05
4.15476e-05
4.15492e-05
4.15511e-05
4.15534e-05
4.15562e-05
4.15597e-05
4.1564e-05
4.15694e-05
4.1576e-05
4.15842e-05
4.15947e-05
4.16079e-05
4.1625e-05
4.1647e-05
4.16761e-05
4.17144e-05
4.17672e-05
4.18361e-05
4.19441e-05
4.20615e-05
4.23287e-05
4.2528e-05
3.51036e-05
3.08463e-05
2.81714e-05
2.75621e-05
2.94923e-05
3.32299e-05
3.697e-05
3.9477e-05
4.07628e-05
4.1316e-05
4.15217e-05
4.15846e-05
4.1596e-05
4.15916e-05
4.15838e-05
4.15763e-05
4.15698e-05
4.15644e-05
4.156e-05
4.15564e-05
4.15535e-05
4.15511e-05
4.15492e-05
4.15476e-05
4.15463e-05
4.15453e-05
4.15445e-05
4.15439e-05
4.15435e-05
4.15432e-05
4.15431e-05
4.15431e-05
4.15432e-05
4.15435e-05
4.15439e-05
4.15445e-05
4.15453e-05
4.15463e-05
4.15476e-05
4.15491e-05
4.1551e-05
4.15534e-05
4.15562e-05
4.15597e-05
4.1564e-05
4.15693e-05
4.1576e-05
4.15843e-05
4.15947e-05
4.1608e-05
4.16251e-05
4.16472e-05
4.16763e-05
4.17147e-05
4.17676e-05
4.18366e-05
4.19446e-05
4.20618e-05
4.23268e-05
4.25222e-05
3.50787e-05
3.08324e-05
2.81632e-05
2.75193e-05
2.93738e-05
3.30698e-05
3.68449e-05
3.94126e-05
4.07381e-05
4.13085e-05
4.152e-05
4.15846e-05
4.15963e-05
4.15919e-05
4.1584e-05
4.15764e-05
4.15698e-05
4.15644e-05
4.156e-05
4.15564e-05
4.15535e-05
4.15511e-05
4.15492e-05
4.15476e-05
4.15463e-05
4.15453e-05
4.15445e-05
4.15439e-05
4.15434e-05
4.15432e-05
4.1543e-05
4.1543e-05
4.15432e-05
4.15434e-05
4.15439e-05
4.15445e-05
4.15453e-05
4.15463e-05
4.15475e-05
4.15491e-05
4.1551e-05
4.15533e-05
4.15562e-05
4.15597e-05
4.1564e-05
4.15693e-05
4.1576e-05
4.15843e-05
4.15947e-05
4.16081e-05
4.16252e-05
4.16473e-05
4.16765e-05
4.1715e-05
4.1768e-05
4.18371e-05
4.1945e-05
4.20621e-05
4.2325e-05
4.25166e-05
3.50561e-05
3.0821e-05
2.81582e-05
2.74831e-05
2.9266e-05
3.29189e-05
3.67236e-05
3.93488e-05
4.07133e-05
4.13009e-05
4.15184e-05
4.15846e-05
4.15967e-05
4.15922e-05
4.15842e-05
4.15765e-05
4.15699e-05
4.15645e-05
4.156e-05
4.15564e-05
4.15535e-05
4.15511e-05
4.15491e-05
4.15475e-05
4.15463e-05
4.15452e-05
4.15444e-05
4.15438e-05
4.15434e-05
4.15431e-05
4.1543e-05
4.1543e-05
4.15431e-05
4.15434e-05
4.15438e-05
4.15444e-05
4.15452e-05
4.15462e-05
4.15475e-05
4.15491e-05
4.1551e-05
4.15533e-05
4.15561e-05
4.15597e-05
4.1564e-05
4.15693e-05
4.1576e-05
4.15843e-05
4.15948e-05
4.16081e-05
4.16253e-05
4.16475e-05
4.16767e-05
4.17153e-05
4.17684e-05
4.18376e-05
4.19454e-05
4.20623e-05
4.23232e-05
4.25113e-05
3.50356e-05
3.08117e-05
2.81561e-05
2.74525e-05
2.91678e-05
3.27765e-05
3.6606e-05
3.92858e-05
4.06886e-05
4.12933e-05
4.15168e-05
4.15847e-05
4.1597e-05
4.15925e-05
4.15844e-05
4.15766e-05
4.157e-05
4.15645e-05
4.156e-05
4.15564e-05
4.15534e-05
4.1551e-05
4.15491e-05
4.15475e-05
4.15462e-05
4.15452e-05
4.15444e-05
4.15438e-05
4.15433e-05
4.15431e-05
4.15429e-05
4.15429e-05
4.15431e-05
4.15434e-05
4.15438e-05
4.15444e-05
4.15452e-05
4.15462e-05
4.15475e-05
4.1549e-05
4.15509e-05
4.15533e-05
4.15561e-05
4.15596e-05
4.1564e-05
4.15693e-05
4.1576e-05
4.15843e-05
4.15948e-05
4.16082e-05
4.16254e-05
4.16476e-05
4.16769e-05
4.17155e-05
4.17687e-05
4.1838e-05
4.19458e-05
4.20625e-05
4.23214e-05
4.25062e-05
3.5017e-05
3.08044e-05
2.81564e-05
2.74268e-05
2.90783e-05
3.26423e-05
3.64921e-05
3.92236e-05
4.06639e-05
4.12858e-05
4.15152e-05
4.15848e-05
4.15974e-05
4.15928e-05
4.15846e-05
4.15767e-05
4.157e-05
4.15645e-05
4.156e-05
4.15564e-05
4.15534e-05
4.1551e-05
4.15491e-05
4.15475e-05
4.15462e-05
4.15452e-05
4.15444e-05
4.15437e-05
4.15433e-05
4.1543e-05
4.15429e-05
4.15429e-05
4.1543e-05
4.15433e-05
4.15437e-05
4.15444e-05
4.15451e-05
4.15462e-05
4.15474e-05
4.1549e-05
4.15509e-05
4.15532e-05
4.15561e-05
4.15596e-05
4.15639e-05
4.15693e-05
4.1576e-05
4.15843e-05
4.15949e-05
4.16083e-05
4.16255e-05
4.16478e-05
4.16771e-05
4.17158e-05
4.17691e-05
4.18385e-05
4.19462e-05
4.20626e-05
4.23198e-05
4.25013e-05
3.50002e-05
3.07988e-05
2.81588e-05
2.74055e-05
2.89967e-05
3.25157e-05
3.6382e-05
3.91622e-05
4.06393e-05
4.12782e-05
4.15136e-05
4.15849e-05
4.15978e-05
4.15931e-05
4.15848e-05
4.15768e-05
4.15701e-05
4.15645e-05
4.156e-05
4.15564e-05
4.15534e-05
4.1551e-05
4.1549e-05
4.15474e-05
4.15461e-05
4.15451e-05
4.15443e-05
4.15437e-05
4.15433e-05
4.1543e-05
4.15428e-05
4.15428e-05
4.1543e-05
4.15433e-05
4.15437e-05
4.15443e-05
4.15451e-05
4.15461e-05
4.15474e-05
4.15489e-05
4.15508e-05
4.15532e-05
4.15561e-05
4.15596e-05
4.15639e-05
4.15693e-05
4.1576e-05
4.15843e-05
4.15949e-05
4.16083e-05
4.16255e-05
4.16479e-05
4.16773e-05
4.1716e-05
4.17694e-05
4.18389e-05
4.19465e-05
4.20628e-05
4.23181e-05
4.24967e-05
3.49851e-05
3.07947e-05
2.81628e-05
2.73879e-05
2.89222e-05
3.23963e-05
3.62755e-05
3.91018e-05
4.06148e-05
4.12706e-05
4.15121e-05
4.1585e-05
4.15982e-05
4.15934e-05
4.1585e-05
4.1577e-05
4.15702e-05
4.15646e-05
4.15601e-05
4.15564e-05
4.15534e-05
4.1551e-05
4.1549e-05
4.15474e-05
4.15461e-05
4.15451e-05
4.15443e-05
4.15437e-05
4.15432e-05
4.15429e-05
4.15428e-05
4.15428e-05
4.15429e-05
4.15432e-05
4.15437e-05
4.15443e-05
4.15451e-05
4.15461e-05
4.15473e-05
4.15489e-05
4.15508e-05
4.15532e-05
4.1556e-05
4.15596e-05
4.15639e-05
4.15693e-05
4.1576e-05
4.15844e-05
4.15949e-05
4.16084e-05
4.16256e-05
4.1648e-05
4.16775e-05
4.17163e-05
4.17697e-05
4.18393e-05
4.19468e-05
4.20629e-05
4.23166e-05
4.24923e-05
3.49714e-05
3.07919e-05
2.81683e-05
2.73735e-05
2.88541e-05
3.22838e-05
3.61726e-05
3.90423e-05
4.05904e-05
4.1263e-05
4.15105e-05
4.15851e-05
4.15986e-05
4.15938e-05
4.15852e-05
4.15771e-05
4.15702e-05
4.15646e-05
4.15601e-05
4.15564e-05
4.15534e-05
4.15509e-05
4.1549e-05
4.15474e-05
4.15461e-05
4.1545e-05
4.15442e-05
4.15436e-05
4.15432e-05
4.15429e-05
4.15428e-05
4.15428e-05
4.15429e-05
4.15432e-05
4.15436e-05
4.15442e-05
4.1545e-05
4.1546e-05
4.15473e-05
4.15489e-05
4.15508e-05
4.15531e-05
4.1556e-05
4.15595e-05
4.15639e-05
4.15693e-05
4.1576e-05
4.15844e-05
4.1595e-05
4.16084e-05
4.16257e-05
4.16481e-05
4.16776e-05
4.17165e-05
4.177e-05
4.18397e-05
4.19471e-05
4.2063e-05
4.23151e-05
4.24882e-05
3.49592e-05
3.07903e-05
2.81749e-05
2.73619e-05
2.87919e-05
3.21777e-05
3.60734e-05
3.89838e-05
4.05661e-05
4.12555e-05
4.1509e-05
4.15853e-05
4.1599e-05
4.15941e-05
4.15855e-05
4.15772e-05
4.15703e-05
4.15646e-05
4.15601e-05
4.15564e-05
4.15534e-05
4.15509e-05
4.15489e-05
4.15473e-05
4.1546e-05
4.1545e-05
4.15442e-05
4.15436e-05
4.15431e-05
4.15429e-05
4.15427e-05
4.15427e-05
4.15429e-05
4.15431e-05
4.15436e-05
4.15442e-05
4.1545e-05
4.1546e-05
4.15473e-05
4.15488e-05
4.15508e-05
4.15531e-05
4.1556e-05
4.15595e-05
4.15639e-05
4.15693e-05
4.1576e-05
4.15844e-05
4.1595e-05
4.16085e-05
4.16258e-05
4.16482e-05
4.16778e-05
4.17167e-05
4.17703e-05
4.184e-05
4.19474e-05
4.2063e-05
4.23136e-05
4.24842e-05
3.49482e-05
3.07896e-05
2.81824e-05
2.73526e-05
2.87349e-05
3.20775e-05
3.59776e-05
3.89264e-05
4.05419e-05
4.12479e-05
4.15075e-05
4.15854e-05
4.15994e-05
4.15945e-05
4.15857e-05
4.15774e-05
4.15704e-05
4.15647e-05
4.15601e-05
4.15564e-05
4.15533e-05
4.15509e-05
4.15489e-05
4.15473e-05
4.1546e-05
4.1545e-05
4.15442e-05
4.15435e-05
4.15431e-05
4.15428e-05
4.15427e-05
4.15427e-05
4.15428e-05
4.15431e-05
4.15436e-05
4.15442e-05
4.1545e-05
4.1546e-05
4.15472e-05
4.15488e-05
4.15507e-05
4.15531e-05
4.1556e-05
4.15595e-05
4.15639e-05
4.15693e-05
4.1576e-05
4.15844e-05
4.1595e-05
4.16085e-05
4.16259e-05
4.16483e-05
4.16779e-05
4.17169e-05
4.17705e-05
4.18403e-05
4.19476e-05
4.20631e-05
4.23123e-05
4.24805e-05
3.49383e-05
3.07896e-05
2.81905e-05
2.73454e-05
2.86827e-05
3.19831e-05
3.58853e-05
3.88701e-05
4.0518e-05
4.12404e-05
4.1506e-05
4.15856e-05
4.15998e-05
4.15948e-05
4.15859e-05
4.15775e-05
4.15704e-05
4.15647e-05
4.15601e-05
4.15564e-05
4.15533e-05
4.15509e-05
4.15489e-05
4.15473e-05
4.1546e-05
4.15449e-05
4.15441e-05
4.15435e-05
4.15431e-05
4.15428e-05
4.15426e-05
4.15426e-05
4.15428e-05
4.15431e-05
4.15435e-05
4.15441e-05
4.15449e-05
4.15459e-05
4.15472e-05
4.15488e-05
4.15507e-05
4.15531e-05
4.15559e-05
4.15595e-05
4.15639e-05
4.15693e-05
4.1576e-05
4.15844e-05
4.1595e-05
4.16086e-05
4.16259e-05
4.16484e-05
4.16781e-05
4.17171e-05
4.17708e-05
4.18407e-05
4.19479e-05
4.20631e-05
4.23109e-05
4.2477e-05
3.49294e-05
3.07904e-05
2.81992e-05
2.734e-05
2.86348e-05
3.1894e-05
3.57964e-05
3.88149e-05
4.04942e-05
4.12329e-05
4.15045e-05
4.15858e-05
4.16003e-05
4.15952e-05
4.15861e-05
4.15776e-05
4.15705e-05
4.15648e-05
4.15601e-05
4.15564e-05
4.15533e-05
4.15509e-05
4.15489e-05
4.15473e-05
4.15459e-05
4.15449e-05
4.15441e-05
4.15435e-05
4.1543e-05
4.15428e-05
4.15426e-05
4.15426e-05
4.15428e-05
4.1543e-05
4.15435e-05
4.15441e-05
4.15449e-05
4.15459e-05
4.15472e-05
4.15487e-05
4.15507e-05
4.1553e-05
4.15559e-05
4.15595e-05
4.15638e-05
4.15693e-05
4.1576e-05
4.15844e-05
4.15951e-05
4.16086e-05
4.1626e-05
4.16485e-05
4.16782e-05
4.17173e-05
4.1771e-05
4.18409e-05
4.19481e-05
4.20631e-05
4.23097e-05
4.24737e-05
3.49215e-05
3.07917e-05
2.82082e-05
2.7336e-05
2.85908e-05
3.18098e-05
3.57107e-05
3.87608e-05
4.04707e-05
4.12255e-05
4.15031e-05
4.1586e-05
4.16007e-05
4.15955e-05
4.15864e-05
4.15778e-05
4.15706e-05
4.15648e-05
4.15601e-05
4.15564e-05
4.15533e-05
4.15508e-05
4.15488e-05
4.15472e-05
4.15459e-05
4.15449e-05
4.15441e-05
4.15435e-05
4.1543e-05
4.15427e-05
4.15426e-05
4.15426e-05
4.15427e-05
4.1543e-05
4.15435e-05
4.15441e-05
4.15449e-05
4.15459e-05
4.15472e-05
4.15487e-05
4.15506e-05
4.1553e-05
4.15559e-05
4.15594e-05
4.15638e-05
4.15692e-05
4.1576e-05
4.15844e-05
4.15951e-05
4.16086e-05
4.16261e-05
4.16486e-05
4.16783e-05
4.17175e-05
4.17712e-05
4.18412e-05
4.19483e-05
4.20632e-05
4.23085e-05
4.24707e-05
3.49143e-05
3.07934e-05
2.82175e-05
2.73332e-05
2.85502e-05
3.17303e-05
3.56282e-05
3.8708e-05
4.04475e-05
4.12181e-05
4.15016e-05
4.15862e-05
4.16012e-05
4.15959e-05
4.15866e-05
4.15779e-05
4.15707e-05
4.15648e-05
4.15601e-05
4.15564e-05
4.15533e-05
4.15508e-05
4.15488e-05
4.15472e-05
4.15459e-05
4.15449e-05
4.1544e-05
4.15434e-05
4.1543e-05
4.15427e-05
4.15426e-05
4.15426e-05
4.15427e-05
4.1543e-05
4.15434e-05
4.1544e-05
4.15448e-05
4.15459e-05
4.15471e-05
4.15487e-05
4.15506e-05
4.1553e-05
4.15559e-05
4.15594e-05
4.15638e-05
4.15692e-05
4.1576e-05
4.15844e-05
4.15951e-05
4.16087e-05
4.16261e-05
4.16487e-05
4.16785e-05
4.17177e-05
4.17714e-05
4.18415e-05
4.19484e-05
4.20632e-05
4.23074e-05
4.24678e-05
3.49079e-05
3.07955e-05
2.82268e-05
2.73314e-05
2.85128e-05
3.16551e-05
3.55488e-05
3.86563e-05
4.04245e-05
4.12107e-05
4.15002e-05
4.15864e-05
4.16017e-05
4.15962e-05
4.15868e-05
4.1578e-05
4.15708e-05
4.15649e-05
4.15602e-05
4.15564e-05
4.15533e-05
4.15508e-05
4.15488e-05
4.15472e-05
4.15459e-05
4.15448e-05
4.1544e-05
4.15434e-05
4.1543e-05
4.15427e-05
4.15425e-05
4.15425e-05
4.15427e-05
4.1543e-05
4.15434e-05
4.1544e-05
4.15448e-05
4.15458e-05
4.15471e-05
4.15487e-05
4.15506e-05
4.1553e-05
4.15559e-05
4.15594e-05
4.15638e-05
4.15692e-05
4.1576e-05
4.15844e-05
4.15951e-05
4.16087e-05
4.16262e-05
4.16488e-05
4.16786e-05
4.17178e-05
4.17716e-05
4.18417e-05
4.19486e-05
4.20632e-05
4.23063e-05
4.24652e-05
3.49022e-05
3.07978e-05
2.82361e-05
2.73304e-05
2.84782e-05
3.15839e-05
3.54724e-05
3.86058e-05
4.04018e-05
4.12034e-05
4.14988e-05
4.15867e-05
4.16021e-05
4.15966e-05
4.15871e-05
4.15782e-05
4.15708e-05
4.15649e-05
4.15602e-05
4.15564e-05
4.15533e-05
4.15508e-05
4.15488e-05
4.15472e-05
4.15459e-05
4.15448e-05
4.1544e-05
4.15434e-05
4.15429e-05
4.15426e-05
4.15425e-05
4.15425e-05
4.15426e-05
4.15429e-05
4.15434e-05
4.1544e-05
4.15448e-05
4.15458e-05
4.15471e-05
4.15487e-05
4.15506e-05
4.15529e-05
4.15558e-05
4.15594e-05
4.15638e-05
4.15692e-05
4.1576e-05
4.15845e-05
4.15951e-05
4.16087e-05
4.16262e-05
4.16489e-05
4.16787e-05
4.1718e-05
4.17718e-05
4.18419e-05
4.19487e-05
4.20632e-05
4.23053e-05
4.24627e-05
3.48971e-05
3.08003e-05
2.82453e-05
2.73301e-05
2.84461e-05
3.15166e-05
3.53988e-05
3.85565e-05
4.03794e-05
4.11962e-05
4.14974e-05
4.15869e-05
4.16026e-05
4.1597e-05
4.15873e-05
4.15783e-05
4.15709e-05
4.1565e-05
4.15602e-05
4.15564e-05
4.15533e-05
4.15508e-05
4.15488e-05
4.15471e-05
4.15458e-05
4.15448e-05
4.1544e-05
4.15434e-05
4.15429e-05
4.15426e-05
4.15425e-05
4.15425e-05
4.15426e-05
4.15429e-05
4.15434e-05
4.1544e-05
4.15448e-05
4.15458e-05
4.15471e-05
4.15486e-05
4.15506e-05
4.15529e-05
4.15558e-05
4.15594e-05
4.15638e-05
4.15692e-05
4.1576e-05
4.15845e-05
4.15952e-05
4.16088e-05
4.16263e-05
4.16489e-05
4.16788e-05
4.17181e-05
4.1772e-05
4.18421e-05
4.19489e-05
4.20632e-05
4.23044e-05
4.24605e-05
3.48924e-05
3.08029e-05
2.82544e-05
2.73303e-05
2.84163e-05
3.14528e-05
3.5328e-05
3.85083e-05
4.03574e-05
4.1189e-05
4.1496e-05
4.15872e-05
4.16031e-05
4.15974e-05
4.15875e-05
4.15785e-05
4.1571e-05
4.1565e-05
4.15602e-05
4.15564e-05
4.15533e-05
4.15508e-05
4.15488e-05
4.15471e-05
4.15458e-05
4.15448e-05
4.1544e-05
4.15433e-05
4.15429e-05
4.15426e-05
4.15425e-05
4.15425e-05
4.15426e-05
4.15429e-05
4.15433e-05
4.15439e-05
4.15447e-05
4.15458e-05
4.1547e-05
4.15486e-05
4.15505e-05
4.15529e-05
4.15558e-05
4.15594e-05
4.15638e-05
4.15692e-05
4.1576e-05
4.15845e-05
4.15952e-05
4.16088e-05
4.16263e-05
4.1649e-05
4.16789e-05
4.17182e-05
4.17721e-05
4.18423e-05
4.1949e-05
4.20632e-05
4.23035e-05
4.24584e-05
3.48883e-05
3.08057e-05
2.82632e-05
2.73309e-05
2.83885e-05
3.13923e-05
3.52599e-05
3.84614e-05
4.03356e-05
4.11819e-05
4.14946e-05
4.15874e-05
4.16036e-05
4.15977e-05
4.15878e-05
4.15786e-05
4.15711e-05
4.15651e-05
4.15602e-05
4.15564e-05
4.15533e-05
4.15508e-05
4.15487e-05
4.15471e-05
4.15458e-05
4.15448e-05
4.15439e-05
4.15433e-05
4.15429e-05
4.15426e-05
4.15424e-05
4.15424e-05
4.15426e-05
4.15429e-05
4.15433e-05
4.15439e-05
4.15447e-05
4.15457e-05
4.1547e-05
4.15486e-05
4.15505e-05
4.15529e-05
4.15558e-05
4.15594e-05
4.15638e-05
4.15692e-05
4.1576e-05
4.15845e-05
4.15952e-05
4.16088e-05
4.16263e-05
4.16491e-05
4.16789e-05
4.17183e-05