/*--------------------------------*- C++ -*----------------------------------*\
| =========                 |                                                 |
| \\      /  F ield         | OpenFOAM: The Open Source CFD Toolbox           |
|  \\    /   O peration     | Version:  2.4.0                                 |
|   \\  /    A nd           | Web:      www.OpenFOAM.org                      |
|    \\/     M anipulation  |                                                 |
\*---------------------------------------------------------------------------*/
FoamFile
{
    version     2.0;
    format      ascii;
    class       volVectorField;
    location    "0.14";
    object      U;
}
// * * * * * * * * * * * * * * * * * * * * * * * * * * * * * * * * * * * * * //

dimensions      [0 1 -1 0 0 0 0];

internalField   nonuniform List<vector> 
6000
(
(0.535862 -0.0498191 -1.68092e-17)
(-0.131079 0.0225693 0)
(0.0839055 -0.0280756 5.38359e-18)
(0.146931 -0.0394316 0)
(0.222312 -0.0546661 0)
(0.306706 -0.0682126 0)
(0.370143 -0.0753338 5.70716e-18)
(0.398826 -0.0756605 6.0781e-21)
(0.404558 -0.072371 0)
(0.402988 -0.0682825 0)
(0.400272 -0.0642292 6.03004e-18)
(0.396755 -0.0601569 -1.20173e-17)
(0.392377 -0.0560662 0)
(0.38751 -0.052039 0)
(0.382477 -0.0481239 -2.93283e-18)
(0.377496 -0.0443385 0)
(0.372713 -0.0406875 0)
(0.368209 -0.0371684 -2.84925e-18)
(0.36403 -0.0337741 -2.82265e-18)
(0.360205 -0.0304954 0)
(0.356749 -0.0273218 2.77378e-18)
(0.353671 -0.0242422 1.37665e-18)
(0.35097 -0.0212456 -1.36714e-18)
(0.348646 -0.018321 0)
(0.346696 -0.0154573 0)
(0.345116 -0.0126441 0)
(0.343905 -0.00987075 6.69967e-19)
(0.34306 -0.0071279 -6.6803e-19)
(0.34258 -0.00441176 0)
(0.342467 -0.001706 0)
(0.342723 0.000999245 8.32063e-20)
(0.343352 0.00370651 0)
(0.344352 0.00642537 6.66925e-19)
(0.345719 0.00916488 -6.68416e-19)
(0.347481 0.0119346 0)
(0.349661 0.0147484 0)
(0.352276 0.0176171 1.35299e-18)
(0.355346 0.0205554 0)
(0.358898 0.0235767 1.3692e-18)
(0.362961 0.0266947 0)
(0.36757 0.0299247 0)
(0.372768 0.0332834 2.80324e-18)
(0.378602 0.0367898 -5.6565e-18)
(0.385131 0.0404652 0)
(0.392422 0.0443336 0)
(0.400554 0.0484229 2.91409e-18)
(0.409622 0.0527649 0)
(0.419739 0.0573968 0)
(0.431038 0.0623623 -5.9967e-18)
(0.443684 0.0677135 -6.04775e-18)
(0.457869 0.0735118 -6.08237e-18)
(0.473866 0.0798366 -5.69383e-21)
(0.491891 0.0867674 6.07421e-18)
(0.512635 0.0944685 0)
(0.535697 0.102937 -9.18829e-21)
(0.564533 0.112855 -5.64802e-18)
(0.592303 0.123078 5.20603e-18)
(0.642303 0.137914 4.61997e-18)
(0.661005 0.148028 1.96014e-20)
(0.775548 0.175407 0)
(0.743387 -0.121959 1.42715e-17)
(0.07909 -0.00153674 2.55791e-18)
(0.132203 -0.0368861 -2.57972e-18)
(0.193993 -0.0462153 -3.4881e-18)
(0.272929 -0.0627681 0)
(0.364779 -0.0784323 0)
(0.438354 -0.0864475 -5.5432e-18)
(0.4747 -0.0863876 1.14733e-17)
(0.481619 -0.0820382 0)
(0.476613 -0.0768443 0)
(0.469446 -0.0718524 -5.91031e-18)
(0.462026 -0.0669725 5.89368e-18)
(0.454296 -0.0621591 2.9284e-18)
(0.446427 -0.0574816 0)
(0.438695 -0.0529825 2.88411e-18)
(0.431311 -0.0486701 0)
(0.4244 -0.0445402 0)
(0.418017 -0.0405817 0)
(0.412182 -0.0367806 0)
(0.406901 -0.033122 0)
(0.402166 -0.0295907 -1.09255e-21)
(0.397968 -0.0261719 0)
(0.394292 -0.0228514 -1.34788e-18)
(0.391123 -0.0196156 0)
(0.388448 -0.0164517 0)
(0.386255 -0.0133474 6.63533e-19)
(0.384532 -0.0102912 -6.61367e-19)
(0.383272 -0.00727145 2.24866e-22)
(0.382468 -0.00428102 3.28994e-19)
(0.382119 -0.00130867 0)
(0.382223 0.001657 -8.21555e-20)
(0.382782 0.00463748 -3.28678e-19)
(0.38381 0.00764484 -2.30014e-22)
(0.385329 0.0106871 6.59885e-19)
(0.387337 0.0137752 -6.61604e-19)
(0.389846 0.0169184 0)
(0.392876 0.0201326 0)
(0.396454 0.0234278 0)
(0.40061 0.0268189 0)
(0.405382 0.0303232 0)
(0.410812 0.0339594 -2.73805e-18)
(0.416952 0.0377484 0)
(0.423864 0.0417137 2.78582e-18)
(0.431618 0.0458821 2.80973e-18)
(0.440299 0.0502842 0)
(0.450009 0.0549553 0)
(0.460865 0.0599367 0)
(0.473012 0.0652771 0)
(0.48662 0.0710342 5.88858e-18)
(0.501899 0.0772771 0)
(0.519098 0.0840894 0)
(0.538551 0.0915753 -5.96656e-18)
(0.560579 0.099855 -5.94371e-18)
(0.585901 0.109111 0)
(0.614477 0.119471 -1.14554e-17)
(0.649123 0.131412 0)
(0.685443 0.144669 -1.01175e-17)
(0.740473 0.161596 -4.44989e-18)
(0.775445 0.17736 3.17007e-18)
(0.908314 0.211117 2.12682e-18)
(0.802397 -0.107451 -4.0605e-19)
(0.237343 -0.0265836 -2.44534e-18)
(0.191007 -0.0493743 0)
(0.223228 -0.0587883 3.40304e-18)
(0.292037 -0.0752142 0)
(0.382143 -0.0902598 0)
(0.459122 -0.096475 0)
(0.499959 -0.0942811 -5.63018e-18)
(0.50876 -0.0881438 0)
(0.502701 -0.0816605 -5.81151e-18)
(0.493361 -0.0757767 0)
(0.483913 -0.070224 0)
(0.474518 -0.0648507 -2.89726e-18)
(0.465232 -0.059705 0)
(0.456259 -0.0548252 0)
(0.447788 -0.0502056 0)
(0.439927 -0.0458264 0)
(0.432716 -0.0416651 0)
(0.426161 -0.0376994 0)
(0.42025 -0.0339078 2.73453e-18)
(0.414968 -0.03027 -2.71454e-18)
(0.410294 -0.026767 0)
(0.406205 -0.0233809 4.33365e-22)
(0.402681 -0.0200953 -1.33082e-18)
(0.399703 -0.0168947 0)
(0.397252 -0.0137645 -1.31866e-18)
(0.395317 -0.0106907 0)
(0.393884 -0.00766039 6.55328e-19)
(0.392946 -0.00465857 -3.27034e-19)
(0.392498 -0.00167376 0)
(0.392539 0.00130877 0)
(0.393073 0.00430291 3.2673e-19)
(0.394105 0.007303 -2.0006e-22)
(0.395646 0.0103259 0)
(0.397707 0.0133855 1.31492e-18)
(0.400302 0.0165029 0)
(0.403454 0.0196938 1.32537e-18)
(0.407188 0.0229689 0)
(0.411539 0.0263437 0)
(0.416544 0.0298359 0)
(0.422251 0.0334646 2.71851e-18)
(0.428713 0.0372513 0)
(0.435996 0.0412201 0)
(0.444176 0.0453981 -2.78698e-18)
(0.453344 0.0498168 0)
(0.463608 0.0545121 0)
(0.475095 0.0595261 2.86173e-18)
(0.48796 0.0649081 -2.88601e-18)
(0.502387 0.0707168 -2.90786e-18)
(0.518604 0.0770226 0)
(0.536879 0.0839104 0)
(0.557578 0.0914863 0)
(0.581052 0.0998748 5.84228e-18)
(0.608084 0.109258 5.76514e-18)
(0.638655 0.119784 5.62566e-18)
(0.675807 0.131905 0)
(0.714895 0.145475 4.9505e-18)
(0.774283 0.16251 8.69382e-18)
(0.811636 0.178898 0)
(0.95341 0.210872 -2.07183e-18)
(0.827502 -0.0809781 -3.51306e-19)
(0.347799 -0.0381221 2.13378e-18)
(0.246792 -0.0570504 -2.50142e-18)
(0.249026 -0.0663078 0)
(0.304723 -0.0827975 0)
(0.389469 -0.0974262 0)
(0.465868 -0.101864 0)
(0.508453 -0.0974198 0)
(0.518646 -0.0895492 0)
(0.512552 -0.0821586 5.75793e-18)
(0.502348 -0.0759148 5.77606e-18)
(0.491957 -0.0701867 0)
(0.481776 -0.0646779 0)
(0.471838 -0.0594302 0)
(0.462305 -0.0544881 2.83739e-18)
(0.453345 -0.0498378 0)
(0.445062 -0.0454482 2.79143e-18)
(0.437487 -0.0412895 -2.76807e-18)
(0.430617 -0.0373343 0)
(0.424436 -0.033558 -2.72484e-18)
(0.418921 -0.0299378 0)
(0.414047 -0.0264527 -1.34246e-18)
(0.409787 -0.0230838 2.66854e-18)
(0.406118 -0.0198137 1.32701e-18)
(0.403016 -0.0166265 0)
(0.400464 -0.0135079 6.57474e-19)
(0.398444 -0.0104441 0)
(0.396944 -0.00742204 6.53252e-19)
(0.395955 -0.00442998 0)
(0.395471 -0.00145617 0)
(0.39549 0.00150979 0)
(0.39601 0.00446967 3.25715e-19)
(0.397039 0.00745499 -1.30473e-18)
(0.398588 0.0104773 0)
(0.400669 0.0135341 -6.55657e-19)
(0.4033 0.0166428 0)
(0.406501 0.0198179 -1.32174e-18)
(0.410299 0.0230761 0)
(0.414729 0.0264335 0)
(0.419831 0.0299073 0)
(0.42565 0.0335167 2.70727e-18)
(0.432245 0.0372832 0)
(0.439682 0.0412311 2.74982e-18)
(0.448039 0.0453878 -2.77297e-18)
(0.45741 0.0497851 0)
(0.467904 0.0544596 -2.82115e-18)
(0.479655 0.0594539 -5.69185e-18)
(0.492819 0.0648185 2.86952e-18)
(0.507587 0.0706131 5.77651e-18)
(0.52419 0.0769094 -5.80427e-18)
(0.542906 0.083794 -5.8199e-18)
(0.564105 0.0913754 0)
(0.588151 0.0997782 -5.78272e-18)
(0.615837 0.109195 -5.69787e-18)
(0.64717 0.119754 -5.52857e-18)
(0.685187 0.131981 0)
(0.725344 0.145546 0)
(0.785924 0.162737 -4.2454e-18)
(0.824746 0.178825 0)
(0.967281 0.209237 1.95561e-18)
(0.842219 -0.0607408 -3.38243e-19)
(0.423748 -0.0423076 -1.18297e-19)
(0.29355 -0.0608373 2.49757e-18)
(0.272959 -0.0721797 3.26722e-18)
(0.316271 -0.0897129 0)
(0.394325 -0.104135 -4.81011e-18)
(0.468275 -0.106748 0)
(0.511154 -0.0999476 0)
(0.522288 -0.0903212 0)
(0.516524 -0.0820608 5.71952e-18)
(0.506058 -0.0755035 -5.75293e-18)
(0.495234 -0.0696526 0)
(0.484668 -0.0640595 0)
(0.474415 -0.0587511 0)
(0.464619 -0.0537788 -2.83143e-18)
(0.455435 -0.0491241 0)
(0.44696 -0.0447482 -2.78696e-18)
(0.439221 -0.0406153 2.76415e-18)
(0.432211 -0.036695 0)
(0.425911 -0.0329606 0)
(0.420294 -0.0293881 1.34985e-18)
(0.415333 -0.0259555 1.34117e-18)
(0.411 -0.0226435 -2.66523e-18)
(0.407268 -0.0194342 -1.32499e-18)
(0.404114 -0.0163117 0)
(0.401518 -0.0132616 6.56551e-19)
(0.399462 -0.010271 0)
(0.397934 -0.00732688 -6.52802e-19)
(0.396924 -0.00441588 3.25692e-19)
(0.396425 -0.00152603 0)
(0.396434 0.00135605 0)
(0.396956 0.00425126 -6.50905e-19)
(0.397996 0.00715917 6.51822e-19)
(0.399558 0.0100984 0)
(0.401656 0.0130855 -6.54754e-19)
(0.404308 0.0161273 0)
(0.407538 0.0192371 1.31979e-18)
(0.411372 0.0224295 0)
(0.415845 0.0257202 0)
(0.420997 0.0291268 0)
(0.426877 0.0326688 -2.70462e-18)
(0.433542 0.0363676 -2.72376e-18)
(0.441059 0.0402475 -2.74661e-18)
(0.449508 0.0443358 1.34361e-21)
(0.458985 0.048664 -2.79145e-18)
(0.469601 0.0532682 2.8166e-18)
(0.481491 0.0581908 5.67778e-18)
(0.494815 0.0634814 0)
(0.509766 0.069199 -2.88012e-18)
(0.52658 0.0754145 5.78802e-18)
(0.545536 0.0822132 5.80075e-18)
(0.567013 0.0897018 0)
(0.591378 0.0980045 0)
(0.619432 0.107305 0)
(0.651187 0.117748 5.49009e-18)
(0.689691 0.129775 0)
(0.730414 0.143261 0)
(0.791618 0.159905 4.14837e-18)
(0.831313 0.176028 -2.87121e-18)
(0.973284 0.205103 -1.9104e-18)
(0.853626 -0.0441956 -3.19047e-19)
(0.477771 -0.0425019 -1.96032e-18)
(0.332452 -0.0618695 0)
(0.295962 -0.0767101 -3.25075e-18)
(0.32821 -0.0959794 -4.08543e-18)
(0.398971 -0.110413 1.40373e-20)
(0.469463 -0.111303 0)
(0.511802 -0.10216 0)
(0.523546 -0.0907519 0)
(0.518231 -0.0816146 -5.70534e-18)
(0.507781 -0.0747758 0)
(0.496774 -0.0688548 0)
(0.486015 -0.0632318 2.85963e-18)
(0.475607 -0.0579123 0)
(0.465686 -0.0529543 0)
(0.456398 -0.0483354 0)
(0.447834 -0.0440082 0)
(0.44002 -0.0399313 -2.76054e-18)
(0.432947 -0.0360705 0)
(0.426593 -0.0323971 2.71761e-18)
(0.420931 -0.0288856 -1.34944e-18)
(0.415933 -0.0255132 -1.33985e-18)
(0.411568 -0.0222599 2.66366e-18)
(0.407809 -0.0191076 2.64895e-18)
(0.404634 -0.01604 0)
(0.40202 -0.013042 -6.56423e-19)
(0.399951 -0.0100997 0)
(0.398413 -0.00719972 0)
(0.397396 -0.00432793 -6.51174e-19)
(0.396894 -0.00146935 0)
(0.396905 0.00138672 0)
(0.397426 0.00424487 6.50598e-19)
(0.398463 0.00711642 0)
(0.400029 0.0100067 0)
(0.402136 0.012936 6.54638e-19)
(0.4048 0.0159191 0)
(0.408045 0.0189692 -1.31953e-18)
(0.411897 0.0221004 0)
(0.416392 0.025328 0)
(0.42157 0.028669 0)
(0.427481 0.032142 0)
(0.434181 0.035768 2.72297e-18)
(0.441739 0.0395708 2.74322e-18)
(0.450237 0.0435773 1.35035e-21)
(0.459769 0.0478185 2.79029e-18)
(0.470451 0.0523304 2.81208e-18)
(0.482416 0.0571546 -2.83646e-18)
(0.495828 0.0623407 0)
(0.510881 0.0679472 -2.87359e-18)
(0.527813 0.0740443 2.88648e-18)
(0.546909 0.0807167 -5.7832e-18)
(0.568549 0.0880704 0)
(0.593106 0.0962272 0)
(0.621383 0.105371 -5.62645e-18)
(0.653407 0.115637 -5.45423e-18)
(0.692206 0.127482 5.18272e-18)
(0.733332 0.140719 4.72353e-18)
(0.794846 0.157136 -4.12176e-18)
(0.835259 0.172795 2.84575e-18)
(0.976508 0.200487 0)
(0.863959 -0.0286756 -2.949e-19)
(0.519165 -0.0401914 0)
(0.366321 -0.0612704 2.47378e-18)
(0.318635 -0.0802867 3.2117e-18)
(0.340827 -0.101703 1.85952e-20)
(0.404017 -0.116338 4.71203e-18)
(0.470506 -0.115666 0)
(0.511822 -0.104265 0)
(0.523939 -0.0910913 0)
(0.519087 -0.081068 2.84365e-18)
(0.508778 -0.0739439 2.86179e-18)
(0.497712 -0.067959 0)
(0.486855 -0.062315 -2.85789e-18)
(0.476366 -0.0569902 2.84225e-18)
(0.466381 -0.0520482 0)
(0.457039 -0.0474635 0)
(0.448429 -0.0431819 0)
(0.440574 -0.039157 1.12479e-21)
(0.433466 -0.0353521 0)
(0.427082 -0.0317368 -5.4335e-18)
(0.421395 -0.0282849 1.34832e-18)
(0.416373 -0.0249732 1.33972e-18)
(0.411989 -0.0217811 -4.42006e-22)
(0.408214 -0.0186906 -1.32415e-18)
(0.405024 -0.015685 0)
(0.402399 -0.0127493 0)
(0.400321 -0.00986957 0)
(0.398776 -0.00703257 3.26023e-19)
(0.397754 -0.00422601 6.50938e-19)
(0.397249 -0.00143834 0)
(0.397256 0.00133558 0)
(0.39778 0.00410967 -6.50364e-19)
(0.398825 0.00690802 -3.25534e-19)
(0.400397 0.00974052 0)
(0.402511 0.012612 0)
(0.405185 0.0155341 0)
(0.408442 0.0185209 0)
(0.412309 0.0215871 0)
(0.416821 0.024748 0)
(0.422019 0.0280206 0)
(0.427952 0.0314236 0)
(0.434678 0.0349776 0)
(0.442266 0.0387059 -1.22239e-21)
(0.450797 0.0426351 2.76536e-18)
(0.460368 0.0467954 0)
(0.471093 0.0512221 -5.62174e-18)
(0.483108 0.055956 -2.83249e-18)
(0.496577 0.0610454 0)
(0.511695 0.0665476 2.87287e-18)
(0.528704 0.0725317 -2.88561e-18)
(0.547889 0.0790804 5.78105e-18)
(0.569634 0.0862979 -5.76144e-18)
(0.594315 0.0943038 0)
(0.622738 0.10328 8.33007e-21)
(0.654945 0.113354 5.44852e-18)
(0.693941 0.124982 -1.03388e-17)
(0.735358 0.137961 -1.4303e-20)
(0.797079 0.154032 -4.07428e-18)
(0.838048 0.169216 2.79339e-18)
(0.978521 0.195672 1.80902e-18)
(0.873687 -0.0138909 -7.80876e-18)
(0.553532 -0.0364327 0)
(0.397341 -0.0597425 5.31472e-21)
(0.341265 -0.0830948 -1.16678e-20)
(0.354083 -0.106878 4.01621e-18)
(0.409589 -0.121896 4.65117e-18)
(0.471778 -0.119857 0)
(0.511777 -0.106323 5.38663e-18)
(0.524091 -0.0914217 0)
(0.519667 -0.0805058 -2.84029e-18)
(0.509538 -0.0730845 -1.87923e-21)
(0.498462 -0.0670345 -2.86047e-18)
(0.487543 -0.061377 0)
(0.476998 -0.0560569 -5.68133e-18)
(0.46697 -0.0511407 0)
(0.45759 -0.0465997 0)
(0.448946 -0.0423728 0)
(0.441061 -0.0384084 2.7586e-18)
(0.433926 -0.034667 0)
(0.427518 -0.0311164 2.71603e-18)
(0.42181 -0.0277291 -2.69597e-18)
(0.41677 -0.0244813 0)
(0.41237 -0.0213521 -4.31698e-22)
(0.408582 -0.0183231 0)
(0.405382 -0.0153778 0)
(0.402747 -0.0125011 -6.55739e-19)
(0.400662 -0.00967929 0)
(0.399112 -0.00689939 -6.51924e-19)
(0.398087 -0.00414943 -3.25408e-19)
(0.397579 -0.0014183 -8.12408e-20)
(0.397589 0.0013069 8.1217e-20)
(0.398114 0.00404466 3.25123e-19)
(0.39916 0.00678861 6.50946e-19)
(0.400737 0.00955639 0)
(0.402858 0.0123644 6.53943e-19)
(0.405541 0.0152243 0)
(0.408808 0.0181484 0)
(0.412688 0.0211502 0)
(0.417215 0.0242447 1.33205e-18)
(0.42243 0.0274482 0)
(0.428383 0.030779 0)
(0.435132 0.0342573 2.71911e-18)
(0.442745 0.0379061 -2.74154e-18)
(0.451305 0.0417512 0)
(0.460909 0.0458226 0)
(0.47167 0.0501549 2.80988e-18)
(0.483727 0.0547883 2.83226e-18)
(0.497243 0.0597703 -2.85108e-18)
(0.512415 0.0651573 0)
(0.529486 0.0710171 0)
(0.548741 0.077431 0)
(0.570566 0.0845014 6.03003e-21)
(0.595343 0.0923451 0)
(0.623876 0.101142 5.61208e-18)
(0.65622 0.111012 0)
(0.695361 0.122407 5.16072e-18)
(0.737002 0.135111 -4.69652e-18)
(0.79886 0.150817 8.12249e-18)
(0.840271 0.165511 -2.78966e-18)
(0.979941 0.190807 -1.80359e-18)
(0.882831 -0.000107086 2.56082e-19)
(0.583799 -0.0319477 -1.53346e-18)
(0.426694 -0.0576808 -2.42937e-18)
(0.363892 -0.0852367 -9.47827e-21)
(0.367857 -0.111498 -3.96132e-18)
(0.415678 -0.127079 -4.62078e-18)
(0.473389 -0.123879 0)
(0.511872 -0.108351 -5.36569e-18)
(0.52424 -0.0917728 0)
(0.520186 -0.0799594 -2.83313e-18)
(0.510234 -0.0722236 -2.8559e-18)
(0.499162 -0.0660997 2.85911e-18)
(0.488192 -0.0604271 -2.85103e-18)
(0.477599 -0.055112 2.8392e-18)
(0.467531 -0.0502208 -2.82012e-18)
(0.458118 -0.0457215 2.79978e-18)
(0.449443 -0.0415465 0)
(0.441531 -0.0376397 0)
(0.434371 -0.0339586 0)
(0.427941 -0.0304698 1.35695e-18)
(0.422213 -0.0271448 1.34767e-18)
(0.417156 -0.0239594 0)
(0.412741 -0.0208923 -1.33047e-18)
(0.40894 -0.0179251 0)
(0.405729 -0.0150412 0)
(0.403086 -0.0122256 6.55714e-19)
(0.400994 -0.00946461 -6.53319e-19)
(0.399438 -0.00674542 3.25903e-19)
(0.398409 -0.0040561 0)
(0.397901 -0.00138522 1.62453e-19)
(0.397909 0.0012793 -1.62406e-19)
(0.398436 0.00394249 0)
(0.399486 0.00662703 -3.25413e-19)
(0.401068 0.00933769 6.51927e-19)
(0.403196 0.0120852 -6.5392e-19)
(0.405887 0.0148823 0)
(0.409165 0.0177419 0)
(0.413057 0.0206778 0)
(0.417599 0.0237046 -1.33199e-18)
(0.422831 0.0268385 0)
(0.428803 0.0300973 0)
(0.435573 0.0335008 -2.71899e-18)
(0.443211 0.0370714 0)
(0.451799 0.0408347 2.76118e-18)
(0.461433 0.0448197 -2.78392e-18)
(0.472229 0.0490603 0)
(0.484325 0.0535958 2.82878e-18)
(0.497884 0.0584728 5.7e-18)
(0.513105 0.0637464 -2.8662e-18)
(0.530231 0.069483 0)
(0.549549 0.0757622 0)
(0.571447 0.0826845 2.87992e-18)
(0.596307 0.0903638 0)
(0.624933 0.0989766 5.59527e-18)
(0.657395 0.108638 0)
(0.696654 0.119793 5.13674e-18)
(0.738485 0.132215 4.66776e-18)
(0.800439 0.147543 -4.05096e-18)
(0.842218 0.161746 0)
(0.981069 0.185937 1.7633e-18)
(0.891389 0.0126588 6.58037e-18)
(0.611364 -0.0270857 6.51539e-20)
(0.454866 -0.0552661 2.41673e-18)
(0.386434 -0.0867637 -7.18929e-21)
(0.382032 -0.115559 1.60075e-20)
(0.422249 -0.131873 0)
(0.475364 -0.127723 0)
(0.512167 -0.110347 0)
(0.524464 -0.0921472 -2.77187e-18)
(0.520715 -0.0794346 5.65838e-18)
(0.51092 -0.0713672 0)
(0.49985 -0.065159 2.8547e-18)
(0.488831 -0.0594693 1.40595e-21)
(0.47819 -0.0541599 -2.83581e-18)
(0.468083 -0.0492948 1.228e-21)
(0.458636 -0.0448384 -2.79938e-18)
(0.44993 -0.040717 0)
(0.44199 -0.0368696 0)
(0.434806 -0.033251 0)
(0.428354 -0.0298261 -1.35687e-18)
(0.422607 -0.0265654 0)
(0.417533 -0.0234441 1.33773e-18)
(0.413104 -0.0204405 1.32958e-18)
(0.40929 -0.017536 -1.32232e-18)
(0.406068 -0.014714 0)
(0.403417 -0.0119595 0)
(0.401318 -0.0092589 6.53297e-19)
(0.399757 -0.00659954 0)
(0.398725 -0.00396961 3.25106e-19)
(0.398214 -0.00135785 -8.12125e-20)
(0.398223 0.00124698 8.11888e-20)
(0.398751 0.00385766 -3.2482e-19)
(0.399804 0.00647954 0)
(0.401391 0.00912776 -6.51907e-19)
(0.403526 0.0118134 0)
(0.406226 0.0145479 0)
(0.409513 0.0173436 1.31711e-18)
(0.413418 0.0202138 0)
(0.417973 0.023173 0)
(0.423222 0.0262368 0)
(0.429212 0.0294229 0)
(0.436004 0.0327505 0)
(0.443665 0.0362417 0)
(0.45228 0.0399214 -5.52087e-18)
(0.461944 0.0438181 2.78379e-18)
(0.472774 0.047965 2.80511e-18)
(0.484907 0.0524007 -5.65568e-18)
(0.498509 0.0571707 -2.84895e-18)
(0.513777 0.0623289 2.86605e-18)
(0.530956 0.0679404 -2.87572e-18)
(0.550335 0.0740832 0)
(0.572301 0.0808554 2.89386e-21)
(0.59724 0.0883682 -5.68977e-18)
(0.625954 0.0967949 -5.59492e-18)
(0.658524 0.106245 -5.40712e-18)
(0.697891 0.117155 -1.02615e-17)
(0.739893 0.129289 -4.66745e-18)
(0.801921 0.144235 4.017e-18)
(0.844022 0.157951 2.73324e-18)
(0.982052 0.181081 -1.76195e-18)
(0.899376 0.0245328 -2.27064e-19)
(0.636857 -0.0219863 1.43589e-18)
(0.48199 -0.0525744 5.71643e-21)
(0.408768 -0.0877103 -4.83372e-21)
(0.396504 -0.119061 3.91313e-18)
(0.42926 -0.13627 4.52942e-18)
(0.477699 -0.131374 -4.98611e-18)
(0.51268 -0.1123 2.65553e-18)
(0.524786 -0.0925398 1.79225e-21)
(0.521276 -0.0789301 -2.82523e-18)
(0.511613 -0.070516 -2.84732e-18)
(0.500538 -0.0642139 -2.85342e-18)
(0.489468 -0.0585047 5.69411e-18)
(0.478777 -0.0532015 1.24838e-21)
(0.468629 -0.0483633 2.81787e-18)
(0.459147 -0.0439505 0)
(0.45041 -0.039883 2.7754e-18)
(0.442442 -0.0360953 0)
(0.435233 -0.0325394 -2.73228e-18)
(0.428759 -0.0291784 -1.35587e-18)
(0.422993 -0.025982 -1.34619e-18)
(0.417902 -0.0229246 -4.14555e-22)
(0.413458 -0.0199844 -1.32952e-18)
(0.409632 -0.0171427 1.32226e-18)
(0.4064 -0.0143826 0)
(0.40374 -0.0116895 -6.55097e-19)
(0.401634 -0.00904959 0)
(0.400069 -0.0064505 0)
(0.399033 -0.00388053 -3.25096e-19)
(0.398521 -0.00132857 0)
(0.398529 0.0012165 0)
(0.399059 0.0037643 3.24811e-19)
(0.400115 0.00632756 0)
(0.401707 0.00891518 0)
(0.403848 0.0115389 6.53291e-19)
(0.406556 0.0142103 0)
(0.409854 0.0169415 -1.31706e-18)
(0.41377 0.0197455 0)
(0.41834 0.0226366 1.33053e-18)
(0.423604 0.0256301 0)
(0.429612 0.0287431 0)
(0.436424 0.0319946 0)
(0.44411 0.0354061 0)
(0.45275 0.0390019 2.7597e-18)
(0.462444 0.0428101 0)
(0.473306 0.046863 -5.60854e-18)
(0.485476 0.0511984 2.82691e-18)
(0.499119 0.0558607 -2.8453e-18)
(0.514434 0.0609029 2.86199e-18)
(0.531666 0.0663885 2.87558e-18)
(0.551103 0.0723938 0)
(0.573135 0.0790147 2.87081e-18)
(0.59815 0.0863596 8.53097e-18)
(0.62695 0.0945984 -5.57916e-18)
(0.659624 0.103835 5.4069e-18)
(0.699093 0.114498 5.12501e-18)
(0.741257 0.126342 0)
(0.803347 0.140901 -4.01684e-18)
(0.845737 0.15414 -5.44907e-18)
(0.982956 0.176249 0)
(0.906812 0.035618 -5.53982e-18)
(0.660565 -0.0167252 0)
(0.508057 -0.049643 6.29016e-21)
(0.430778 -0.0881073 -2.44759e-21)
(0.411186 -0.122012 -3.87224e-18)
(0.436672 -0.140263 -9.00055e-18)
(0.480381 -0.134821 9.91497e-18)
(0.513411 -0.114199 -2.64588e-18)
(0.525214 -0.0929431 2.75858e-18)
(0.521875 -0.0784425 0)
(0.512317 -0.069669 1.39877e-21)
(0.501229 -0.0632642 0)
(0.490104 -0.0575333 -5.68967e-18)
(0.47936 -0.0522368 2.8332e-18)
(0.46917 -0.0474263 0)
(0.459651 -0.0430575 0)
(0.450882 -0.0390444 -2.7751e-18)
(0.442886 -0.0353166 0)
(0.435652 -0.0318237 2.73209e-18)
(0.429156 -0.0285271 1.35578e-18)
(0.423371 -0.0253953 4.18807e-22)
(0.418264 -0.0224023 -1.33718e-18)
(0.413805 -0.019526 -1.32867e-18)
(0.409967 -0.0167474 0)
(0.406725 -0.0140497 0)
(0.404056 -0.0114182 6.55075e-19)
(0.401943 -0.00883942 0)
(0.400373 -0.00630094 3.25507e-19)
(0.399334 -0.00379124 -3.2491e-19)
(0.39882 -0.00129938 8.11409e-20)
(0.398828 0.0011855 -8.11171e-20)
(0.399359 0.00367365 3.24624e-19)
(0.400419 0.00617555 -3.25013e-19)
(0.402016 0.00870168 6.51306e-19)
(0.404163 0.0112631 -6.5327e-19)
(0.406879 0.013871 0)
(0.410186 0.0165374 0)
(0.414114 0.0192751 0)
(0.418697 0.0220977 -4.33348e-22)
(0.423977 0.0250204 1.33831e-18)
(0.430004 0.02806 0)
(0.436836 0.0312349 0)
(0.444544 0.0345662 0)
(0.45321 0.0380777 0)
(0.462932 0.0417968 0)
(0.473827 0.0457551 1.39844e-21)
(0.486033 0.0499895 0)
(0.499717 0.0545436 5.68864e-18)
(0.515077 0.0594689 -5.72183e-18)
(0.532359 0.0648277 -2.87114e-18)
(0.551855 0.0706944 0)
(0.573952 0.0771628 0)
(0.599041 0.0843385 -5.67951e-18)
(0.627924 0.0923879 7.49893e-21)
(0.660699 0.101409 -5.38882e-18)
(0.700266 0.111823 5.10337e-18)
(0.742586 0.123375 4.62844e-18)
(0.80473 0.137544 -3.98511e-18)
(0.847387 0.150319 5.41388e-18)
(0.983813 0.171447 1.70993e-18)
(0.913719 0.0459749 2.0315e-19)
(0.682642 -0.011361 -1.26783e-18)
(0.533027 -0.0464973 -4.73932e-18)
(0.452369 -0.0879869 -6.31956e-23)
(0.426 -0.124421 3.86129e-18)
(0.444444 -0.143849 4.47316e-18)
(0.483394 -0.138052 -2.46818e-18)
(0.514355 -0.116033 0)
(0.525747 -0.0933492 0)
(0.522515 -0.0779677 2.81451e-18)
(0.513034 -0.0688248 2.84222e-18)
(0.501923 -0.0623093 0)
(0.490739 -0.0565548 2.84329e-18)
(0.479941 -0.0512656 0)
(0.469705 -0.0464833 0)
(0.460149 -0.042159 0)
(0.451347 -0.0382007 0)
(0.443322 -0.0345335 2.75132e-18)
(0.436063 -0.0311041 1.36505e-18)
(0.429546 -0.0278722 -1.35484e-18)
(0.423741 -0.0248055 4.06496e-22)
(0.418617 -0.0218773 0)
(0.414145 -0.0190652 1.32862e-18)
(0.410294 -0.0163501 0)
(0.407042 -0.0137151 0)
(0.404365 -0.0111456 6.54696e-19)
(0.402246 -0.00862821 -6.52513e-19)
(0.40067 -0.00615062 -3.25497e-19)
(0.399628 -0.00370149 3.24901e-19)
(0.399112 -0.00127003 -1.62256e-19)
(0.39912 0.0011544 1.62209e-19)
(0.399653 0.00358191 -3.24615e-19)
(0.400715 0.00602273 3.25004e-19)
(0.402317 0.00848715 -1.78172e-22)
(0.40447 0.010986 -6.52882e-19)
(0.407194 0.0135302 0)
(0.410511 0.0161315 0)
(0.41445 0.0188023 0)
(0.419046 0.0215561 -2.65959e-18)
(0.424342 0.0244077 -1.33826e-18)
(0.430386 0.0273734 0)
(0.437238 0.0304713 0)
(0.444968 0.033722 -2.73414e-18)
(0.453659 0.0371487 0)
(0.46341 0.0407781 0)
(0.474336 0.0446412 5.60248e-18)
(0.486577 0.0487741 -2.82206e-18)
(0.5003 0.0532192 -5.68504e-18)
(0.515705 0.0580269 1.85316e-21)
(0.533037 0.063258 5.73995e-18)
(0.552589 0.0689851 2.87167e-18)
(0.57475 0.0753 0)
(0.599912 0.0823052 2.83804e-18)
(0.628876 0.0901637 5.57126e-18)
(0.66175 0.0989686 5.38869e-18)
(0.701413 0.109131 -5.10328e-18)
(0.743882 0.120389 -4.62857e-18)
(0.806074 0.134168 3.98511e-18)
(0.848979 0.146486 -2.69808e-18)
(0.984633 0.166673 -1.70965e-18)
(0.920123 0.0556514 1.92854e-19)
(0.703197 -0.00593914 1.25717e-18)
(0.556872 -0.0431592 -7.93366e-21)
(0.473465 -0.0873841 2.29295e-21)
(0.440876 -0.126307 0)
(0.452535 -0.147027 0)
(0.486722 -0.141057 -2.79227e-21)
(0.515508 -0.11779 0)
(0.526386 -0.0937504 0)
(0.523197 -0.0775017 -1.17566e-21)
(0.513764 -0.0679816 0)
(0.50262 -0.0613488 0)
(0.491374 -0.0555689 2.84011e-18)
(0.480518 -0.0502874 0)
(0.470235 -0.0455343 0)
(0.46064 -0.0412552 0)
(0.451805 -0.0373523 0)
(0.443751 -0.0337461 -8.90806e-22)
(0.436466 -0.0303806 -1.36496e-18)
(0.429927 -0.0272139 2.70912e-18)
(0.424103 -0.0242128 3.94113e-22)
(0.418963 -0.0213498 1.33589e-18)
(0.414476 -0.0186022 0)
(0.410614 -0.0159509 1.32062e-18)
(0.407351 -0.013379 0)
(0.404666 -0.0108718 -6.54675e-19)
(0.40254 -0.00841604 1.69034e-22)
(0.40096 -0.00599964 0)
(0.399914 -0.00361134 0)
(0.399397 -0.00124054 2.07635e-23)
(0.399405 0.00112319 -2.08441e-23)
(0.399939 0.00348978 1.62218e-19)
(0.401004 0.00586925 0)
(0.40261 0.00827169 -6.51092e-19)
(0.40477 0.0107076 6.52863e-19)
(0.407501 0.0131878 0)
(0.410828 0.0157237 -1.31537e-18)
(0.414778 0.0183274 0)
(0.419387 0.0210121 4.12729e-22)
(0.424697 0.0237922 0)
(0.430758 0.0266836 1.34636e-18)
(0.43763 0.0297041 1.35612e-18)
(0.445382 0.0328737 1.04649e-21)
(0.454097 0.0362151 -2.7547e-18)
(0.463875 0.0397544 0)
(0.474833 0.0435217 -1.33339e-21)
(0.487109 0.0475524 2.82195e-18)
(0.50087 0.0518877 1.62195e-21)
(0.516319 0.0565771 2.85788e-18)
(0.5337 0.0616796 -2.03508e-21)
(0.553307 0.0672662 -2.30902e-21)
(0.575529 0.0734264 0)
(0.600763 0.08026 0)
(0.629806 0.0879261 0)
(0.662777 0.0965129 0)
(0.702532 0.106422 0)
(0.745147 0.117385 4.60422e-18)
(0.807382 0.130772 0)
(0.850518 0.142643 0)
(0.985422 0.161928 -1.67896e-18)
(0.926057 0.064695 2.20919e-18)
(0.722329 -0.000494396 0)
(0.579584 -0.0396509 -8.93629e-21)
(0.49401 -0.0863356 4.59976e-21)
(0.455752 -0.127686 0)
(0.460905 -0.149799 2.20345e-18)
(0.490345 -0.143827 -2.4373e-18)
(0.516862 -0.11946 0)
(0.527129 -0.0941391 0)
(0.523922 -0.0770401 -2.80699e-18)
(0.51451 -0.0671378 0)
(0.503322 -0.0603819 0)
(0.492009 -0.0545752 -2.83921e-18)
(0.481092 -0.0493022 0)
(0.47076 -0.0445791 -2.81057e-18)
(0.461125 -0.0403459 0)
(0.452255 -0.0364989 0)
(0.444172 -0.0329544 -8.56689e-22)
(0.436862 -0.0296533 0)
(0.4303 -0.0265523 -1.35428e-18)
(0.424457 -0.023617 1.3447e-18)
(0.419301 -0.0208196 -2.67129e-18)
(0.4148 -0.018137 1.32741e-18)
(0.410926 -0.0155498 -1.32057e-18)
(0.407653 -0.0130413 0)
(0.40496 -0.0105967 -6.54316e-19)
(0.402828 -0.00820289 1.30445e-18)
(0.401243 -0.00584795 0)
(0.400194 -0.00352077 -1.62317e-19)
(0.399675 -0.0012109 8.10924e-20)
(0.399682 0.00109186 -8.10687e-20)
(0.400218 0.00339727 -1.62214e-19)
(0.401286 0.00571513 0)
(0.402896 0.00805531 -6.50731e-19)
(0.405062 0.0104281 6.52494e-19)
(0.4078 0.012844 0)
(0.411136 0.0153141 1.31533e-18)
(0.415097 0.0178503 0)
(0.419719 0.0204656 1.32909e-18)
(0.425044 0.0231739 0)
(0.431122 0.0259907 -1.34632e-18)
(0.438012 0.0289334 -1.35608e-18)
(0.445785 0.0320214 1.02037e-21)
(0.454525 0.035277 2.75461e-18)
(0.46433 0.0387257 0)
(0.475317 0.0423967 -2.79902e-18)
(0.487627 0.0463245 0)
(0.501426 0.0505494 2.83986e-18)
(0.516917 0.0551196 0)
(0.534346 0.0600927 -2.86668e-18)
(0.554007 0.0655379 -5.73604e-18)
(0.57629 0.0715424 0)
(0.601594 0.0782031 0)
(0.630714 0.0856754 0)
(0.66378 0.0940427 2.68156e-18)
(0.703625 0.103697 0)
(0.74638 0.114363 -1.17709e-20)
(0.808652 0.127359 0)
(0.852004 0.138792 2.65123e-18)
(0.986183 0.15721 1.67891e-18)
(0.931552 0.073152 0)
(0.740132 0.00494489 1.16464e-18)
(0.601173 -0.0359953 2.33728e-18)
(0.513964 -0.0848785 6.84085e-21)
(0.470573 -0.12858 0)
(0.469514 -0.152167 -2.1955e-18)
(0.494244 -0.146356 0)
(0.518412 -0.121033 2.60253e-18)
(0.527975 -0.094508 2.73e-18)
(0.524691 -0.0765791 2.80192e-18)
(0.51527 -0.0662914 2.83223e-18)
(0.504028 -0.0594078 2.84007e-18)
(0.492643 -0.0535734 0)
(0.481662 -0.0483096 0)
(0.471279 -0.0436176 2.8101e-18)
(0.461602 -0.039431 0)
(0.452698 -0.0356407 0)
(0.444585 -0.0321583 -2.74891e-18)
(0.437249 -0.0289222 0)
(0.430665 -0.0258873 -1.35343e-18)
(0.424804 -0.0230184 0)
(0.419631 -0.0202869 1.3354e-18)
(0.415116 -0.0176696 -1.32736e-18)
(0.41123 -0.0151469 0)
(0.407947 -0.012702 0)
(0.405246 -0.0103203 1.62233e-22)
(0.403108 -0.00798878 -6.52122e-19)
(0.401518 -0.00569557 0)
(0.400466 -0.00342978 1.62313e-19)
(0.399945 -0.00118111 8.10504e-20)
(0.399953 0.00106043 -8.10266e-20)
(0.40049 0.0033044 0)
(0.401561 0.00556037 0)
(0.403175 0.00783802 1.6483e-22)
(0.405346 0.0101473 -1.68835e-22)
(0.408092 0.0124986 0)
(0.411437 0.0149027 0)
(0.415408 0.0173713 1.32095e-18)
(0.420043 0.0199167 0)
(0.425382 0.0225528 0)
(0.431476 0.0252946 0)
(0.438384 0.0281591 0)
(0.446178 0.0311652 2.7318e-18)
(0.454942 0.0343346 2.75235e-18)
(0.464773 0.037692 0)
(0.47579 0.0412662 0)
(0.488132 0.0450905 2.81747e-18)
(0.501969 0.0492044 0)
(0.517501 0.0536547 0)
(0.534976 0.0584976 -2.86267e-18)
(0.55469 0.0638003 2.8668e-18)
(0.577033 0.0696481 0)
(0.602404 0.0761348 0)
(0.6316 0.0834119 0)
(0.664757 0.0915584 -2.68152e-18)
(0.70469 0.100956 2.53154e-18)
(0.74758 0.111324 -9.17407e-18)
(0.809885 0.123929 0)
(0.853439 0.134934 -2.65085e-18)
(0.986915 0.152519 -1.65084e-18)
(0.936641 0.0810647 0)
(0.756701 0.0103543 -1.15701e-18)
(0.621663 -0.0322149 0)
(0.533298 -0.0830494 -4.81009e-18)
(0.485289 -0.129011 0)
(0.478324 -0.154138 -2.18107e-18)
(0.4984 -0.148637 0)
(0.520149 -0.122501 -2.59429e-18)
(0.528923 -0.09485 -2.72449e-18)
(0.525502 -0.0761145 -2.79874e-18)
(0.516046 -0.0654409 -2.83034e-18)
(0.504739 -0.058426 -2.83882e-18)
(0.493277 -0.0525631 0)
(0.482229 -0.0473095 0)
(0.471793 -0.0426496 0)
(0.462073 -0.0385106 0)
(0.453133 -0.0347775 0)
(0.444989 -0.0313578 1.37355e-18)
(0.437628 -0.0281872 0)
(0.431022 -0.025219 1.35336e-18)
(0.425142 -0.0224168 0)
(0.419953 -0.0197517 1.33465e-18)
(0.415424 -0.0172 1.32663e-18)
(0.411526 -0.0147421 0)
(0.408234 -0.0123612 6.56611e-19)
(0.405525 -0.0100427 6.54116e-19)
(0.40338 -0.00777373 6.51789e-19)
(0.401786 -0.00554253 0)
(0.400731 -0.00333837 -1.62231e-19)
(0.400209 -0.00115116 -1.62078e-19)
(0.400216 0.00102889 1.6203e-19)
(0.400754 0.00321116 1.62087e-19)
(0.401827 0.005405 0)