/*--------------------------------*- C++ -*----------------------------------*\
| =========                 |                                                 |
| \\      /  F ield         | OpenFOAM: The Open Source CFD Toolbox           |
|  \\    /   O peration     | Version:  2.4.0                                 |
|   \\  /    A nd           | Web:      www.OpenFOAM.org                      |
|    \\/     M anipulation  |                                                 |
\*---------------------------------------------------------------------------*/
FoamFile
{
    version     2.0;
    format      ascii;
    class       volScalarField;
    location    "5.8";
    object      epsilon;
}
// * * * * * * * * * * * * * * * * * * * * * * * * * * * * * * * * * * * * * //

dimensions      [0 2 -3 0 0 0 0];

internalField   nonuniform List<scalar> 
6000
(
0.995192
0.381684
0.0487432
0.00579331
0.000784876
0.0030808
0.00205074
0.00387952
0.00442756
0.00620479
0.00746035
0.00913616
0.0104331
0.0118857
0.0133908
0.0153978
0.017949
0.0210851
0.024614
0.028421
0.0325244
0.0370839
0.041747
0.0465093
0.0513599
0.0562939
0.061308
0.0664031
0.0715822
0.0768575
0.0822468
0.0877159
0.093274
0.0989201
0.104653
0.110471
0.116371
0.122357
0.128418
0.134572
0.140785
0.147114
0.15347
0.159965
0.16648
0.176424
0.192398
0.211426
0.23153
0.257271
0.283134
0.320397
0.354273
0.413554
0.458577
0.565068
0.625151
0.849014
0.935786
1.59245
0.558284
0.355011
0.0228215
0.00518931
0.000375573
0.000952698
0.000922786
0.00147107
0.00185857
0.00247404
0.00304443
0.00364868
0.00421452
0.00480915
0.00549956
0.00638047
0.00749801
0.00883574
0.0103379
0.0119536
0.0136738
0.0155043
0.0173748
0.0192787
0.0212133
0.0231782
0.0251743
0.0272041
0.0292717
0.0313849
0.0335741
0.0358101
0.0380973
0.0404386
0.0428371
0.0452961
0.0478188
0.0504099
0.0530725
0.0558146
0.0586364
0.0615547
0.0645626
0.0676897
0.0709874
0.0752236
0.0809528
0.0874797
0.094528
0.102895
0.111825
0.123142
0.134917
0.15141
0.167864
0.194347
0.220746
0.268034
0.322231
0.433849
0.416733
0.411458
0.0305969
0.00378801
0.000305952
0.000569547
0.000680916
0.00101426
0.00133941
0.00176062
0.00218329
0.00261245
0.0030337
0.00348174
0.00401417
0.004691
0.00554378
0.00655661
0.00768913
0.0089029
0.0101814
0.011515
0.0128746
0.0142556
0.0156567
0.0170781
0.0185211
0.0199884
0.0214839
0.0230154
0.024596
0.0262121
0.0278668
0.0295629
0.0313033
0.0330913
0.0349302
0.0368242
0.0387772
0.0407951
0.0428817
0.0450475
0.0472976
0.0496506
0.0521809
0.0551682
0.0588842
0.0630022
0.0674913
0.0725802
0.0781696
0.0847442
0.0920467
0.101084
0.111329
0.124809
0.141131
0.163284
0.196575
0.241558
0.367366
0.406298
0.0520387
0.00234889
0.000297146
0.000459207
0.000598576
0.000868588
0.00116232
0.00152179
0.00188847
0.00225922
0.00262796
0.00302576
0.00350174
0.0041059
0.00486197
0.00575496
0.00674956
0.00781234
0.00892486
0.0100749
0.0112455
0.0124326
0.0136356
0.0148548
0.0160915
0.0173484
0.0186291
0.0199404
0.0212884
0.0226659
0.0240754
0.0255192
0.0270001
0.0285209
0.0300846
0.0316949
0.0333553
0.0350711
0.0368467
0.0386901
0.0406109
0.0426254
0.0448025
0.0472521
0.0501661
0.0533397
0.0568134
0.0606428
0.0649121
0.0697187
0.075248
0.0816245
0.0893647
0.0984724
0.110747
0.124988
0.149444
0.176124
0.343017
0.376367
0.0745273
0.00180758
0.000315731
0.000422091
0.000568518
0.000812519
0.0010894
0.00142267
0.00176342
0.00210929
0.00245508
0.00283168
0.00328258
0.00385326
0.00456334
0.00539882
0.00632708
0.00731723
0.00835011
0.009413
0.0104936
0.0115886
0.0126972
0.01382
0.0149583
0.0161143
0.0172918
0.0184961
0.0197304
0.0209905
0.0222783
0.023596
0.0249459
0.0263304
0.0277522
0.0292146
0.0307208
0.0322753
0.0338828
0.0355503
0.0372892
0.0391167
0.0410822
0.0432305
0.0457135
0.048385
0.051312
0.0544799
0.0580395
0.0619368
0.0665132
0.071564
0.0779529
0.0849727
0.0950854
0.105729
0.125602
0.144501
0.329442
0.340307
0.0979122
0.00277369
0.000367808
0.000415288
0.000563516
0.000794218
0.00106184
0.001383
0.00171155
0.00204699
0.00238338
0.00275157
0.00319115
0.0037451
0.00443104
0.00523624
0.00612988
0.00708253
0.00807452
0.00909295
0.0101278
0.0111759
0.0122367
0.0133104
0.0143985
0.015503
0.0166273
0.017776
0.0189503
0.0201477
0.0213699
0.0226187
0.0238961
0.0252042
0.0265452
0.0279221
0.0293377
0.0307961
0.032302
0.0338615
0.0354877
0.0371981
0.0390183
0.0409736
0.043186
0.0455446
0.0481263
0.0508846
0.0539955
0.0573379
0.0613121
0.065573
0.0711093
0.0769247
0.085689
0.0943321
0.111438
0.126121
0.321262
0.305841
0.11509
0.00804706
0.000499209
0.000427864
0.000574797
0.000796817
0.00105938
0.0013753
0.00169917
0.00203198
0.00236652
0.00273329
0.00316888
0.00371481
0.00438804
0.00517732
0.00605336
0.00698755
0.00795978
0.00895691
0.00997004
0.0109961
0.0120342
0.0130848
0.0141491
0.0152291
0.0163276
0.0174487
0.0185925
0.0197574
0.0209448
0.0221561
0.0233932
0.0246576
0.0259515
0.027277
0.0286371
0.0300351
0.0314757
0.0329648
0.0345163
0.0361457
0.0378592
0.0396792
0.0417047
0.0438478
0.0461886
0.0486656
0.0514627
0.0544283
0.0579819
0.0617167
0.0666599
0.0716945
0.0795323
0.0869155
0.10215
0.114203
0.315829
0.275751
0.126886
0.0179719
0.000826722
0.000459944
0.000600009
0.000814026
0.00107373
0.00138812
0.00171191
0.0020469
0.00238441
0.00275415
0.00319023
0.00373329
0.00440049
0.00518237
0.00605105
0.00697842
0.00794386
0.00893392
0.00994013
0.0109593
0.0119906
0.0130341
0.014091
0.0151631
0.016253
0.017364
0.0184955
0.0196465
0.020818
0.0220114
0.0232279
0.0244689
0.0257361
0.0270314
0.0283571
0.0297166
0.0311142
0.0325555
0.0340554
0.0356234
0.037255
0.0389739
0.0408611
0.0428451
0.0450055
0.0472746
0.0498363
0.0525259
0.0557645
0.0591206
0.0636226
0.0681083
0.0752656
0.0817846
0.0956537
0.105898
0.311896
0.250633
0.134087
0.0307445
0.00163897
0.000520162
0.000640213
0.00084388
0.00110147
0.0014163
0.00174298
0.00208337
0.00242721
0.00280298
0.0032426
0.00378612
0.00445153
0.00523145
0.00609943
0.00702767
0.00799499
0.00898747
0.00999671
0.0110194
0.0120543
0.0131016
0.0141622
0.0152378
0.0163307
0.0174434
0.0185749
0.0197245
0.020893
0.0220814
0.0232905
0.0245216
0.0257757
0.0270545
0.02836
0.029695
0.0310639
0.0324721
0.0339354
0.0354522
0.0370194
0.0386588
0.040438
0.0422977
0.0443155
0.0464221
0.0487971
0.0512726
0.0542626
0.0573296
0.0614863
0.0655623
0.0721942
0.0780819
0.0908967
0.0998085
0.308899
0.230185
0.137436
0.0445368
0.00372136
0.000631765
0.000699483
0.000886824
0.00114163
0.0014577
0.00178914
0.00213721
0.00248988
0.002874
0.00331937
0.00386567
0.00453216
0.00531378
0.00618561
0.0071201
0.00809543
0.00909708
0.0101165
0.01115
0.0121963
0.0132552
0.0143276
0.0154148
0.016519
0.017642
0.0187822
0.0199395
0.021114
0.0223066
0.0235177
0.0247482
0.0259987
0.0272706
0.0285653
0.0298857
0.0312356
0.0326205
0.0340559
0.0355285
0.0370432
0.0386172
0.0403081
0.0420661
0.043966
0.0459394
0.04816
0.0504612
0.0532466
0.0560821
0.0599575
0.0637127
0.0699227
0.0753257
0.0872905
0.095168
0.306551
0.213782
0.137737
0.0574653
0.0084191
0.000850253
0.000785939
0.000945245
0.00119488
0.00151188
0.00184914
0.00220648
0.0025699
0.00296422
0.00341711
0.00396791
0.0046375
0.00542336
0.00630228
0.00724691
0.00823476
0.00925064
0.0102856
0.0113356
0.012399
0.0134755
0.0145656
0.0156707
0.0167926
0.0179322
0.0190879
0.0202594
0.0214467
0.0226503
0.0238703
0.0251069
0.0263607
0.0276324
0.0289233
0.0302356
0.0315734
0.0329418
0.0343534
0.0357877
0.0372577
0.0387756
0.0403914
0.0420628
0.0438614
0.0457211
0.0478091
0.0499629
0.0525737
0.0552165
0.0588551
0.062349
0.0682087
0.0732241
0.0844796
0.0915226
0.304675
0.200743
0.135801
0.0685378
0.0149693
0.00129518
0.000914536
0.00102371
0.00126326
0.00157972
0.00192305
0.00229067
0.00266633
0.00307238
0.00353423
0.00409087
0.00476502
0.00555694
0.00644528
0.00740295
0.00840676
0.00944073
0.0104954
0.0115662
0.0126513
0.01375
0.0148627
0.0159905
0.0171351
0.0182963
0.0194726
0.0206635
0.0218689
0.0230886
0.0243225
0.0255705
0.0268326
0.0281091
0.029401
0.0307101
0.0320403
0.0333968
0.0347857
0.0361865
0.037617
0.0390851
0.0406347
0.0422296
0.0439383
0.0456975
0.0476681
0.0496927
0.0521503
0.054627
0.0580604
0.0613343
0.0668949
0.0715899
0.0822367
0.088586
0.303153
0.190436
0.132365
0.0772361
0.0227871
0.00225431
0.00111326
0.00112988
0.00135031
0.00166319
0.00201194
0.00239032
0.00277929
0.00319833
0.00367037
0.00423394
0.00491373
0.005713
0.00661246
0.00758536
0.00860779
0.0096629
0.0107406
0.0118358
0.0129462
0.0140709
0.0152101
0.0163646
0.0175358
0.0187226
0.0199236
0.021138
0.0223654
0.0236052
0.0248571
0.0261202
0.0273944
0.0286794
0.0299756
0.0312849
0.0326108
0.0339577
0.035324
0.0366952
0.0380895
0.0395116
0.041001
0.0425261
0.0441527
0.0458204
0.0476841
0.0495923
0.0519119
0.0542413
0.0574926
0.0605756
0.0658746
0.0702967
0.0804091
0.0861685
0.301904
0.182319
0.128047
0.0834304
0.0309909
0.0044757
0.00143706
0.00127626
0.00146157
0.00176553
0.00211788
0.00250683
0.00290978
0.00334281
0.00382608
0.00439746
0.00508371
0.00589124
0.00680303
0.00779278
0.00883589
0.00991458
0.011018
0.0121404
0.0132791
0.014433
0.0156019
0.0167862
0.0179874
0.0192031
0.020432
0.0216732
0.0229258
0.0241889
0.0254617
0.0267429
0.0280319
0.0293279
0.0306311
0.0319428
0.0332664
0.0346034
0.0359481
0.0372919
0.0386519
0.0400306
0.0414636
0.0429233
0.0444728
0.0460552
0.0478192
0.0496198
0.0518123
0.0540078
0.057094
0.0600073
0.0650725
0.0692563
0.0788908
0.0841397
0.300871
0.175943
0.12333
0.0872474
0.0390904
0.00826018
0.00199132
0.00148367
0.00160535
0.00189151
0.00224404
0.00264251
0.00305956
0.00350731
0.00400265
0.00458257
0.00527585
0.00609223
0.00701717
0.00802496
0.00909036
0.0101946
0.0113258
0.0124779
0.0136475
0.0148331
0.0160343
0.0172512
0.018485
0.0197323
0.0209918
0.0222624
0.0235427
0.0248315
0.0261275
0.027429
0.0287348
0.0300437
0.0313553
0.0326709
0.0339934
0.0353185
0.036643
0.0379605
0.0392872
0.0406236
0.0420024
0.0433994
0.0448751
0.0463759
0.0480454
0.0497443
0.0518176
0.0538887
0.0568224
0.0595815
0.064434
0.068405
0.0776055
0.0824066
0.300012
0.170947
0.118571
0.0889709
0.0466003
0.0135078
0.00298282
0.00178752
0.00179421
0.00204801
0.00239486
0.00280067
0.00323127
0.00369408
0.00420209
0.00479107
0.00549174
0.00631729
0.00725587
0.00828252
0.00937138
0.0105026
0.0116636
0.0128472
0.0140497
0.0152692
0.0165049
0.0177567
0.0190252
0.0203064
0.0215986
0.0229007
0.0242107
0.0255271
0.026848
0.0281713
0.0294952
0.0308182
0.0321393
0.0334595
0.03478
0.0360921
0.0373968
0.0386885
0.0399818
0.0412762
0.0426019
0.0439375
0.0453415
0.046763
0.0483412
0.0499424
0.0519021
0.0538556
0.0566462
0.0592626
0.0639182
0.0676959
0.0764972
0.0809014
0.299295
0.16704
0.114012
0.088969
0.0531059
0.0197547
0.00483877
0.00224993
0.00204731
0.00224482
0.0025765
0.0029858
0.00342846
0.00390613
0.00442709
0.00502544
0.00573364
0.00656841
0.0075208
0.00856677
0.00967992
0.0108394
0.0120314
0.0132482
0.0144853
0.0157404
0.0170125
0.018301
0.0196062
0.0209229
0.0222496
0.0235847
0.0249259
0.0262712
0.0276183
0.0289643
0.0303073
0.031645
0.0329758
0.0343009
0.0356166
0.0369155
0.0382004
0.0394657
0.0407251
0.0419771
0.0432499
0.0445245
0.0458574
0.0472009
0.0486897
0.0501957
0.0520457
0.0538864
0.056541
0.0590229
0.063494
0.0670931
0.0755236
0.0795733
0.298693
0.163993
0.109804
0.087639
0.0583161
0.0264969
0.007818
0.00297966
0.00239447
0.00249607
0.00279741
0.00320392
0.00365579
0.00414739
0.00468114
0.00528886
0.00600446
0.00684822
0.00781426
0.00887968
0.0100176
0.011206
0.0124302
0.0136814
0.0149545
0.0162467
0.0175566
0.0188834
0.0202266
0.0215803
0.0229427
0.0243121
0.0256855
0.0270606
0.0284345
0.0298039
0.0311661
0.0325186
0.0338592
0.0351874
0.0364964
0.0377817
0.0390462
0.0402841
0.0415085
0.0427171
0.0439364
0.0451495
0.0464115
0.047677
0.0490775
0.0504897
0.0522326
0.0539636
0.0564874
0.0588412
0.0631372
0.0665691
0.0746524
0.0783836
0.298187
0.161623
0.106031
0.0853662
0.0620805
0.0332493
0.0118976
0.00416757
0.00288296
0.00282222
0.00306916
0.00346302
0.00391931
0.00442287
0.0049686
0.00558527
0.00630781
0.00716001
0.00813922
0.00922385
0.0103867
0.0116045
0.0128616
0.014148
0.0154581
0.0167885
0.0181375
0.0195038
0.020886
0.0222776
0.0236767
0.0250811
0.0264874
0.0278927
0.0292938
0.0306866
0.0320681
0.033435
0.0347846
0.0361127
0.037414
0.0386848
0.0399276
0.0411368
0.0423246
0.0434882
0.044653
0.0458036
0.0469939
0.0481811
0.0494934
0.0508124
0.0524498
0.0540733
0.0564702
0.0587003
0.0628285
0.0661023
0.0738581
0.0773021
0.297761
0.159787
0.102724
0.0824966
0.0643819
0.0395689
0.0168325
0.00609381
0.00358866
0.00325335
0.00340775
0.0037737
0.00422683
0.00473889
0.00529486
0.00591951
0.00664807
0.00750778
0.00849928
0.00960251
0.0107899
0.0120373
0.0133275
0.0146499
0.0159977
0.017367
0.0187558
0.0201625
0.0215844
0.0230147
0.0244509
0.0258908
0.0273302
0.0287658
0.0301939
0.0316098
0.0330098
0.0343904
0.0357464
0.0370723
0.0383648
0.0396196
0.0408391
0.0420178
0.043167
0.0442837
0.0453924
0.0464791
0.0475966
0.0487046
0.0499283
0.051154
0.0526867
0.054204
0.0564766
0.0585865
0.0625525
0.0656754
0.0731207
0.0763051
0.2974
0.158372
0.0998814
0.0793205
0.065315
0.0450887
0.0223542
0.00894359
0.00463347
0.00383408
0.00383542
0.00415005
0.00458839
0.00510335
0.00566657
0.0062974
0.00703051
0.00789629
0.00889874
0.0100195
0.0112308
0.0125074
0.0138308
0.0151892
0.016575
0.0179838
0.0194129
0.0208605
0.0223224
0.0237916
0.0252651
0.0267405
0.0282127
0.0296783
0.0311329
0.0325711
0.0339888
0.0353811
0.0367404
0.0380627
0.0393446
0.0405817
0.0417758
0.0429218
0.0440302
0.0450978
0.0461483
0.0471693
0.0482125
0.0492398
0.0503742
0.0515059
0.0529344
0.054346
0.0564963
0.0584884
0.0622967
0.0652744
0.0724241
0.0753734
0.297095
0.157289
0.0974785
0.0760673
0.0650572
0.0495383
0.0281329
0.0127249
0.00620564
0.00463082
0.00438332
0.0046109
0.00501696
0.00552621
0.00609187
0.006726
0.00746138
0.00833119
0.00934271
0.0104794
0.0117135
0.0130185
0.0143746
0.0157687
0.0171926
0.0186407
0.0201104
0.0215992
0.0231009
0.0246089
0.0261194
0.0276299
0.0291345
0.0306293
0.0321094
0.0335687
0.0350024
0.0364027
0.0377635
0.0390803
0.0403498
0.0415668
0.0427333
0.043844
0.0449089
0.045925
0.0469152
0.0478681
0.0488353
0.0497802
0.0508241
0.051861
0.053185
0.0544912
0.0565204
0.0583965
0.0620505
0.0648881
0.0717553
0.0744915
0.296836
0.156467
0.0954778
0.0729062
0.0638366
0.0527551
0.0338105
0.01732
0.00846694
0.00574182
0.00509526
0.00518144
0.00552928
0.00601994
0.00658075
0.00721377
0.00794811
0.00881912
0.00983712
0.0109876
0.0122426
0.0135747
0.0149626
0.0163919
0.0178532
0.0193404
0.0208503
0.0223802
0.0239211
0.0254674
0.0270144
0.0285591
0.030095
0.0316178
0.0331221
0.0346008
0.0360467
0.0374528
0.038813
0.0401221
0.0413766
0.0425711
0.0437072
0.0447798
0.0457986
0.0467603
0.0476876
0.0485703
0.0494592
0.0503199
0.0512719
0.0522128
0.053432
0.0546325
0.0565417
0.0583029
0.0618054
0.0645069
0.0711035
0.0736469
0.296615
0.155851
0.0938356
0.0699528
0.0619014
0.0546856
0.0390381
0.0225005
0.0115186
0.00729314
0.00603294
0.00589542
0.00614699
0.0066002
0.00714542
0.00777087
0.00849946
0.00936782
0.0103889
0.0115502
0.0128238
0.014181
0.0155991
0.0170624
0.0185602
0.0200857
0.0216351
0.0232053
0.0247846
0.0263683
0.0279505
0.0295283
0.0310941
0.0326432
0.0341698
0.035664
0.0371197
0.0385292
0.0398863
0.0411851
0.0424218
0.0435909
0.0446936
0.0457251
0.0466946
0.047599
0.0484607
0.0492705
0.0500791
0.0508535
0.051712
0.0525557
0.0536694
0.0547639
0.0565534
0.0582008
0.061554
0.064123
0.0704597
0.0728288
0.296427
0.155398
0.0925067
0.0672774
0.0594939
0.0553772
0.0435082
0.0279704
0.0153695
0.00940936
0.00728012
0.00679793
0.00689808
0.00728657
0.00780081
0.00840945
0.0091258
0.00998636
0.011006
0.0121743
0.0134632
0.0148429
0.0162891
0.0177846
0.0193174
0.0208798
0.0224675
0.0240768
0.0256932
0.0273128
0.0289288
0.0305379
0.0321316
0.033705
0.0352496
0.0367568
0.0382195
0.0396298
0.0409808
0.0422662
0.043482
0.0446225
0.0456886
0.0466757
0.0475926
0.0484366
0.0492299
0.0499642
0.0506899
0.051376
0.0521394
0.0528844
0.0538918
0.05488
0.0565501
0.0580843
0.06129
0.0637299
0.0698165
0.0720286
0.296266
0.155074
0.091447
0.0649151
0.0568323
0.0549596
0.0469834
0.0334008
0.0199194
0.0121955
0.00893202
0.00794788
0.00781863
0.00810358
0.00856514
0.00914406
0.00983928
0.0106852
0.0116977
0.012868
0.0141679
0.0155667
0.0170381
0.0185633
0.0201291
0.0217264
0.0233508
0.0249973
0.026649
0.0283027
0.0299502
0.0315884
0.0332072
0.0348008
0.0363607
0.0378779
0.0393445
0.0407523
0.0420939
0.0433626
0.044554
0.0456623
0.0466883
0.0476274
0.0484884
0.0492687
0.0499905
0.0506465
0.051287
0.0518826
0.0525492
0.0531942
0.0540945
0.0549757
0.0565267
0.0579483
0.061008
0.0633218
0.0691676
0.0712387
0.296128
0.15485
0.0906159
0.0628746
0.0540985
0.0536218
0.0493153
0.0384594
0.0249741
0.0156997
0.0110897
0.00941484
0.00895446
0.00908167
0.00946055
0.00999199
0.0106541
0.0114766
0.0124744
0.0136405
0.0149462
0.0163594
0.0178523
0.019404
0.0209998
0.0226296
0.0242883
0.0259695
0.0276541
0.0293394
0.0310159
0.0326792
0.0343196
0.0359302
0.0375021
0.0390258
0.0404929
0.0418945
0.043223
0.0444712
0.0456344
0.0467066
0.0476887
0.0485761
0.0493776
0.0500908
0.0507381
0.051313
0.0518659
0.0523688
0.0529369
0.0534805
0.054273
0.0550468
0.0564788
0.0577883
0.0607035
0.062894
0.0685076
0.0704527
0.296009
0.154706
0.0899766
0.061146
0.0514335
0.0515847
0.0504531
0.0428388
0.0302709
0.0198887
0.0138406
0.0112769
0.0103594
0.0102586
0.0105138
0.0109737
0.011587
0.0123743
0.0133482
0.0145021
0.0158069
0.0172291
0.0187385
0.0203126
0.0219348
0.0235936
0.0252839
0.0269967
0.028711
0.0304238
0.0321255
0.0338105
0.0354688
0.0370928
0.0386729
0.0401992
0.0416628
0.0430541
0.0443654
0.0455888
0.0467197
0.0477519
0.048686
0.0495178
0.050256
0.0508987
0.0514683
0.0519593
0.052422
0.0528302
0.0532982
0.0537392
0.054423
0.055089
0.0564021
0.0576001
0.0603722
0.0624423
0.067832
0.0696652
0.295906
0.154624
0.0894966
0.0597077
0.0489374
0.0490766
0.0504408
0.0462839
0.0355052
0.0246414
0.0172344
0.0136132
0.0120943
0.011677
0.011757
0.0121138
0.0126574
0.0133946
0.0143327
0.0154647
0.0167602
0.0181842
0.0197043
0.0212956
0.0229396
0.0246234
0.0263409
0.0280807
0.029821
0.0315573
0.0332802
0.0349828
0.036655
0.038288
0.0398721
0.0413966
0.0428521
0.0442286
0.0455181
0.0467123
0.0478064
0.048794
0.049676
0.0504481
0.0511193
0.0516878
0.0521766
0.0525807
0.052951
0.0532624
0.0536288
0.0539661
0.0545407
0.0550987
0.0562931
0.0573803
0.0600106
0.0619631
0.0671368
0.0688715
0.295817
0.154591
0.0891481
0.0585316
0.0466739
0.0463114
0.0494043
0.0486141
0.0403586
0.0297591
0.0212611
0.0164901
0.0142235
0.0133854
0.0132256
0.0134391
0.0138869
0.0145553
0.0154432
0.0165412
0.0178173
0.0192344
0.0207575
0.0223595
0.0240195
0.0257231
0.0274632
0.0292251
0.0309864
0.0327418
0.0344812
0.0361968
0.037878
0.0395154
0.0410984
0.0426162
0.0440586
0.0454154
0.0466781
0.0478382
0.0488907
0.0498292
0.0506545
0.0513627
0.0519628
0.0524537
0.0528584
0.053173
0.0534485
0.0536613
0.0539247
0.0541573
0.0546222
0.0550721
0.0561483
0.0571256
0.0596155
0.0614534
0.0664184
0.0680673
0.295739
0.154596
0.0889072
0.0575866
0.0446763
0.043474
0.0475294
0.0497397
0.0445266
0.034983
0.0258384
0.0199439
0.0168078
0.0154352
0.0149593
0.0149801
0.0152994
0.0158759
0.0166958
0.0177453
0.0189898
0.0203896
0.0219069
0.0235117
0.0251807
0.0268978
0.028655
0.030433
0.03221
0.033979
0.0357296
0.0374528
0.0391377
0.0407739
0.0423505
0.043856
0.0452799
0.0466116
0.0478421
0.0489629
0.0499686
0.0508531
0.0516171
0.0522571
0.0527821
0.0531917
0.0535092
0.0537316
0.05391
0.0540225
0.0541817
0.0543089
0.054664
0.055006
0.0559645
0.0568328
0.0591839
0.0609103
0.065674
0.0672491
0.295671
0.154629
0.0887536
0.0568414
0.0429543
0.040711
0.0450366
0.0496671
0.0477474
0.0400174
0.0308116
0.023964
0.0198932
0.017877
0.0169999
0.0167695
0.016921
0.0173776
0.0181081
0.0190919
0.0202902
0.0216604
0.0231613
0.0247597
0.0264297
0.0281528
0.0299207
0.0317078
0.0334941
0.0352706
0.0370262
0.038751
0.0404335
0.0420625
0.0436266
0.0451139
0.0465133
0.0478139
0.0490065
0.0500823
0.051036
0.0518614
0.0525592
0.0531265
0.0535724
0.0538971
0.0541243
0.0542518
0.0543311
0.0543418
0.0543958
0.0544173
0.0546624
0.0548971
0.0557386
0.0564994
0.0587134
0.0603314
0.0649008
0.0664137
0.295612
0.154684
0.0886704
0.0562663
0.0415006
0.0381286
0.0421549
0.0484941
0.0498274
0.0445542
0.0359623
0.0284811
0.0234978
0.0207533
0.0193884
0.0188415
0.0187793
0.0190829
0.0196989
0.0205967
0.021732
0.0230582
0.0245303
0.0261115
0.0277728
0.0294935
0.0312639
0.0330526
0.0348409
0.036618
0.0383718
0.0400914
0.0417646
0.0433798
0.0449247
0.0463872
0.0477557
0.0490189
0.0501675
0.0511924
0.0520883
0.0528492
0.053476
0.0539659
0.0543287
0.0545649
0.0546987
0.054729
0.0547074
0.054615
0.0545631
0.0544786
0.0546141
0.0547422
0.0554678
0.0561226
0.0582014
0.0597145
0.0640966
0.0655582
0.29556
0.154754
0.0886434
0.055834
0.0402968
0.0357948
0.0390985
0.0463936
0.0506613
0.0483001
0.0410242
0.0333626
0.0275994
0.0240893
0.0221603
0.0212291
0.0209022
0.021015
0.0214875
0.0222759
0.0233288
0.0245945
0.0260235
0.0275752
0.0292168
0.0309252
0.0326886
0.0344706
0.0362526
0.0380222
0.0397665
0.0414733
0.0431299
0.0447239
0.0462425
0.047673
0.0490036
0.0502227
0.0513207
0.0522886
0.0531209
0.0538118
0.0543623
0.0547704
0.0550459
0.0551901
0.0552277
0.0551584
0.0550342
0.0548377
0.0546794
0.0544891
0.0545156
0.0545383
0.0551494
0.0557002
0.0576459
0.0590577
0.0632592
0.0646802
0.295514
0.154836
0.0886605
0.0555203
0.0393184
0.0337447
0.0360502
0.0435901
0.0502432
0.0510043
0.0457035
0.0384166
0.0321257
0.0278831
0.0253392
0.0239605
0.0233158
0.0231964
0.0234931
0.0241457
0.0250942
0.0262808
0.0276506
0.0291585
0.0307679
0.0324529
0.0341987
0.0359642
0.0377308
0.0394841
0.0412102
0.0428959
0.0445277
0.0460925
0.0475769
0.0489679
0.0502532
0.051421
0.0524616
0.0533658
0.0541284
0.0547437
0.0552129
0.0555345
0.0557186
0.0557674
0.055706
0.0555351
0.0553069
0.0550055
0.0547408
0.0544452
0.0543637
0.0542824
0.0547808
0.0552298
0.057045
0.0583593
0.0623868
0.0637773
0.295474
0.154924
0.088712
0.0553041
0.0385377
0.0319873
0.0331517
0.0403308
0.0486659
0.0524851
0.0497022
0.0434019
0.03695
0.0320958
0.028929
0.0270545
0.0260416
0.0256473
0.0257333
0.0262216
0.0270415
0.028128
0.0294206
0.0308689
0.0324321
0.0340811
0.0357973
0.0375355
0.0392763
0.0410036
0.0427021
0.0443576
0.0459558
0.0474827
0.0489246
0.0502678
0.0515
0.052609
0.053585
0.0544189
0.0551054
0.0556393
0.056022
0.0562524
0.0563414
0.0562915
0.0561285
0.055854
0.0555207
0.0551141
0.0547432
0.0543432
0.0541551
0.0539718
0.0543595
0.0547094
0.0563967
0.0576177
0.0614778
0.0628475
0.295439
0.155018
0.0887896
0.0551672
0.0379271
0.0305132
0.0305008
0.0368583
0.0461079
0.0526517
0.052745
0.0480434
0.0418924
0.0366444
0.0329063
0.0305147
0.0290929
0.0283832
0.0282232
0.0285169
0.0291821
0.030146
0.0313416
0.0327129
0.0342144
0.0358138
0.0374869
0.0391858
0.0408895
0.04258
0.0442406
0.0458561
0.047411
0.0488909
0.0502813
0.0515683
0.052739
0.0537813
0.0546853
0.055442
0.0560461
0.0564927
0.0567837
0.0569185
0.0569083
0.0567566
0.0564897
0.0561102
0.0556709
0.055159
0.0546825
0.0541794
0.0538864
0.0536035
0.053883
0.0541369
0.0556995
0.0568315
0.0605308
0.061889
0.295408
0.155113
0.0888864
0.0550941
0.0374603
0.0293007
0.0281541
0.0333869
0.0428107
0.0515164
0.054607
0.0520523
0.0467275
0.0413984
0.037213
0.0343234
0.0324703
0.0314117
0.0309726
0.0310415
0.0315252
0.0323427
0.0334201
0.0346956
0.0361186
0.0376535
0.0392688
0.0409153
0.0425696
0.0442117
0.0458234
0.0473881
0.0488897
0.0503127
0.0516422
0.0528639
0.0539646
0.0549321
0.0557565
0.0564287
0.056944
0.0572975
0.0574916
0.0575263
0.0574133
0.057157
0.0567841
0.0562983
0.0557526
0.0551357
0.0545546
0.0539502
0.0535545
0.0531749
0.0533491
0.0535105
0.0549518
0.0559996
0.0595444
0.0609003
0.29538
0.155209
0.0889968
0.0550717
0.0371133
0.0283217
0.026134
0.030087
0.039047
0.049196
0.0551399
0.05515
0.0511958
0.0461809
0.041751
0.0384349
0.0361562
0.0347291
0.0339837
0.0338
0.034076
0.0347229
0.0356603
0.0368202
0.0381467
0.0396013
0.0411429
0.0427228
0.0443145
0.0458958
0.0474468
0.0489496
0.050387
0.0517428
0.0530016
0.0541485
0.0551704
0.0560548
0.0567917
0.0573724
0.0577923
0.058047
0.0581392
0.0580695
0.0578503
0.0574868
0.0570061
0.0564131
0.0557608
0.0550398
0.0543554
0.053652
0.0531563
0.0526832
0.0527555
0.0528284
0.0541521
0.0551206
0.0585176
0.0598798
0.295356
0.155303
0.0891163
0.0550891
0.0368649
0.0275452
0.0244365
0.0270781
0.0350889
0.0458991
0.0542937
0.0570943
0.0550216
0.0507745
0.0463808
0.0427708
0.0401106
0.0383163
0.0372482
0.0367895
0.036834
0.0372871
0.0380626
0.0390869
0.0402983
0.0416557
0.043107
0.0446054
0.0461206
0.0476279
0.0491058
0.0505348
0.0518968
0.0531747
0.0543526
0.0554152
0.0563491
0.0571419
0.0577836
0.0582656
0.0585837
0.0587339
0.0587193
0.0585413
0.0582128
0.0577397
0.0571498
0.0564491
0.0556906
0.0548666
0.054081
0.0532811
0.0526886
0.0521258
0.0521002
0.0520889
0.0532993
0.0541938
0.0574493
0.0588263
0.295335
0.155395
0.0892411
0.0551371
0.0366968
0.0269407
0.0230404
0.0244295
0.0311788
0.0419005
0.0521281
0.0577081
0.0579338
0.0549317
0.0509227
0.0472167
0.0442658
0.0421343
0.0407439
0.039997
0.0397912
0.0400301
0.0406232
0.0414919
0.0425697
0.0438116
0.0451567
0.046558
0.0479822
0.049402
0.0507939
0.0521369
0.0534118
0.0546009
0.0556874
0.0566559
0.0574927
0.0581853
0.0587239
0.0591003
0.0593103
0.0593506
0.0592246
0.0589346
0.0584939
0.0579094
0.0572093
0.0564009
0.055537
0.0546116
0.0537272
0.0528341
0.0521484
0.0515003
0.051381
0.0512905
0.052392
0.0532182
0.0563387
0.0577386
0.295316
0.155485
0.0893683
0.0552081
0.0365933
0.0264797
0.0219138
0.0221674
0.027508
0.0375072
0.0488115
0.0569035
0.0596906
0.0583901
0.0551627
0.0516219
0.0485234
0.0461209
0.0444312
0.0433967
0.0429302
0.0429391
0.043332
0.0440271
0.0449533
0.0460617
0.0472843
0.0485731
0.0498915
0.0512098
0.0525024
0.053747
0.0549232
0.0560121
0.0569968
0.0578613
0.0585919
0.0591759
0.0596039
0.0598678
0.0599637
0.059889
0.0596475
0.0592421
0.0586868
0.0579895
0.0571787
0.0562629
0.0552949
0.0542704
0.05329
0.0523076
0.0515328
0.0508042
0.050596
0.0504316
0.0514294
0.0521931
0.055185
0.0566156
0.2953
0.155571
0.0894957
0.0552958
0.036541
0.0261367
0.0210208
0.0202853
0.0242072
0.03302
0.0446044
0.0547015
0.0601073
0.0608919
0.0588624
0.0558017
0.0527528
0.0501875
0.0482501
0.0469471
0.0462211
0.0459919
0.0461716
0.0466777
0.0474364
0.0483943
0.0494787
0.0506396
0.0518376
0.0530405
0.0542208
0.0553545
0.0564201
0.0573979
0.0582703
0.0590212
0.0596365
0.0601039
0.0604139
0.0605587
0.060535
0.0603405
0.0599796
0.0594561
0.0587843
0.0579732
0.0570518
0.0560296
0.0549594
0.0538384
0.0527657
0.051698
0.050839
0.0500352
0.0497434
0.0495111
0.0504104
0.0511178
0.0539876
0.0554566
0.295285
0.155653
0.0896214
0.0553951
0.0365291
0.0258895
0.020325
0.0187543
0.0213468
0.0286998
0.0398289
0.051239
0.0590826
0.0622071
0.0617734
0.0595442
0.0567925
0.0542171
0.0521174
0.0505886
0.0496203
0.0491551
0.0491155
0.0494219
0.05
0.0507927
0.0517243
0.0527429
0.0538066
0.0548807
0.0559358
0.0569464
0.0578899
0.0587457
0.0594958
0.0601237
0.0606152
0.0609581
0.0611432
0.0611629
0.0610144
0.060696
0.0602126
0.0595686
0.0587792
0.057854
0.0568225
0.0556955
0.0545254
0.0533114
0.0521503
0.0510023
0.0500642
0.0491912
0.0488217
0.0485276
0.0493343
0.0499919
0.0527462
0.0542608
0.295272
0.155732
0.0897443
0.0555018
0.0365481
0.0257192
0.0197924
0.0175334
0.0189459
0.0247439
0.0348276
0.0467611
0.0566208
0.0621601
0.0636554
0.0626199
0.0604535
0.0580651
0.0559254
0.0542412
0.0530672
0.052382
0.0521265
0.0522292
0.0526182
0.0532342
0.0540006
0.0548641
0.0557806
0.0567134
0.0576313
0.0585073
0.0593177
0.0600413
0.0606595
0.0611555
0.0615152
0.0617265
0.0617803
0.0616696
0.0613919
0.0609461
0.0603375
0.0595716
0.0586638
0.0576249
0.0564846
0.0552551
0.0539882
0.0526851
0.0514402
0.0502173
0.049206
0.0482702
0.0478292
0.0474803
0.0482004
0.0488151
0.0514604
0.0530275
0.295261
0.155807
0.0898634
0.0556128
0.0365905
0.0256101
0.0193927
0.0165769
0.016985
0.0212757
0.0299204
0.0415964
0.0528449
0.0606559
0.064299
0.0647963
0.0635272
0.0615616
0.059542
0.0578033
0.0564837
0.0556114
0.0551553
0.0550588
0.0552566
0.0556888
0.056281
0.0569792
0.0577376
0.0585181
0.0592879
0.0600188
0.0606862
0.0612682
0.0617457
0.0621018
0.0623225
0.0623958
0.0623128
0.0620671
0.0616565
0.0610806
0.0603452
0.0594565
0.0584305
0.057279
0.0560321
0.0547029
0.053343
0.0519554
0.050632
0.0493403
0.048262
0.0472704
0.0467647
0.0463681
0.0470083
0.0475871
0.05013
0.0517564
0.295251
0.155877
0.0899781
0.0557255
0.0366501
0.0255488
0.0190997
0.0158398
0.0154204
0.0183475
0.025367
0.0361165
0.0479949
0.0577039
0.0635506
0.0658557
0.0657959
0.0645166
0.0628119
0.0611518
0.0597723
0.0587655
0.0581392
0.0578591
0.0578715
0.0581191
0.0585326
0.0590585
0.0596508
0.0602701
0.0608828
0.0614597
0.0619754
0.0624075
0.0627368
0.0629462
0.0630217
0.0629515
0.0627273
0.062343
0.0617969
0.0610891
0.0602261
0.0592148
0.0580717
0.0568096
0.0554587
0.0540336
0.0525852
0.0511185
0.0497224
0.0483684
0.0472302
0.0461902
0.0456272
0.0451906
0.0457578
0.0463079
0.0487551
0.0504471
0.295242
0.155944
0.0900878
0.0558378
0.0367217
0.0255247
0.0188916
0.0152808
0.014197
0.0159545
0.0213444
0.030687
0.0424078
0.0534336
0.0613387
0.0656174
0.0670473
0.0667291
0.0655616
0.0641434
0.0628169
0.0617503
0.0610011
0.0605659
0.0604089
0.060479
0.0607151
0.0610664
0.0614879
0.0619402
0.0623892
0.0628052
0.0631624
0.0634382
0.0636131
0.0636702
0.0635957
0.0633781
0.0630094
0.0624841
0.0618009
0.0609606
0.0599704
0.0588376
0.0575795
0.0562097
0.0547587
0.0532422
0.0517106
0.0501707
0.0487086
0.0472996
0.0461088
0.0450285
0.0444157
0.0439473
0.0444487
0.0449777
0.0473357
0.0490994
0.295234
0.156007
0.0901925
0.0559484
0.0368015
0.0255288
0.0187502
0.0148643
0.0132569
0.0140523
0.0179412
0.0256197
0.0364788
0.0480956
0.0576978
0.063962
0.0670929
0.0679981
0.0676058
0.0666183
0.0654839
0.0644551
0.0636494
0.0631027
0.062804
0.062713
0.0627803
0.0629605
0.0632112
0.0634943
0.0637762
0.0640271
0.0642214
0.0643364
0.0643528
0.0642539
0.0640261
0.0636586
0.0631437