/*--------------------------------*- C++ -*----------------------------------*\
| =========                 |                                                 |
| \\      /  F ield         | OpenFOAM: The Open Source CFD Toolbox           |
|  \\    /   O peration     | Version:  2.4.0                                 |
|   \\  /    A nd           | Web:      www.OpenFOAM.org                      |
|    \\/     M anipulation  |                                                 |
\*---------------------------------------------------------------------------*/
FoamFile
{
    version     2.0;
    format      ascii;
    class       volScalarField;
    location    "100";
    object      p;
}
// * * * * * * * * * * * * * * * * * * * * * * * * * * * * * * * * * * * * * //

dimensions      [0 2 -2 0 0 0 0];

internalField   nonuniform List<scalar> 
156381
(
0.463896
0.463008
0.461813
0.46022
0.458706
0.457055
0.455483
0.453975
0.452612
0.451509
0.450542
0.449907
0.449299
0.449031
0.44865
0.448355
0.447481
0.446314
0.444409
0.442799
0.4411
0.440491
0.439931
0.440501
0.440792
0.442119
0.44292
0.444611
0.446661
0.448939
0.476429
0.476106
0.475433
0.47452
0.473542
0.472444
0.471382
0.470266
0.469274
0.468271
0.467426
0.466556
0.465774
0.464869
0.46385
0.462465
0.460763
0.459124
0.457695
0.456874
0.456346
0.456442
0.456674
0.457415
0.458052
0.45918
0.459995
0.4613
0.462974
0.464886
0.480909
0.48067
0.480314
0.479748
0.479159
0.478455
0.47778
0.477022
0.476316
0.47553
0.474783
0.473899
0.472961
0.471782
0.470479
0.469149
0.468017
0.467237
0.466748
0.466753
0.46696
0.467706
0.468388
0.469616
0.470566
0.472017
0.473031
0.474398
0.476037
0.47791
0.486047
0.48615
0.486037
0.485856
0.485607
0.485306
0.484955
0.484546
0.484093
0.483557
0.482948
0.482183
0.481303
0.480361
0.479505
0.478837
0.478409
0.478275
0.47836
0.478761
0.479282
0.480063
0.480819
0.481799
0.482631
0.48369
0.484481
0.485432
0.486636
0.488113
0.490437
0.49035
0.490311
0.490248
0.490148
0.490019
0.489826
0.489579
0.489252
0.48884
0.488351
0.487822
0.487303
0.486857
0.486539
0.48639
0.486399
0.486601
0.486923
0.487437
0.488004
0.488745
0.489435
0.490273
0.490978
0.491807
0.492431
0.493116
0.493983
0.495109
0.492889
0.493201
0.493387
0.493526
0.49357
0.493559
0.493456
0.493313
0.493125
0.492926
0.492712
0.492524
0.492375
0.492302
0.492312
0.49243
0.492636
0.492954
0.493334
0.493821
0.494334
0.494932
0.495502
0.496139
0.496691
0.497295
0.497765
0.498239
0.49885
0.49969
0.49546
0.495505
0.495655
0.495826
0.495938
0.49601
0.496036
0.496062
0.496077
0.496103
0.49613
0.496183
0.496259
0.49638
0.496543
0.496765
0.497032
0.497358
0.497714
0.498127
0.498551
0.499026
0.499475
0.499955
0.500381
0.500823
0.501178
0.501524
0.501977
0.50262
0.496958
0.497028
0.497227
0.497478
0.497706
0.497912
0.498097
0.498279
0.498454
0.498633
0.498808
0.498993
0.49918
0.499385
0.499603
0.499847
0.50011
0.500401
0.500704
0.501034
0.501366
0.50172
0.502062
0.502414
0.502733
0.503056
0.503324
0.503573
0.503914
0.504428
0.497904
0.498253
0.498602
0.498979
0.499322
0.499673
0.499984
0.500288
0.500559
0.500821
0.501061
0.5013
0.50152
0.501744
0.501961
0.502189
0.502419
0.502661
0.502904
0.503158
0.503408
0.503669
0.503916
0.504166
0.504394
0.50462
0.504813
0.504988
0.505242
0.50567
0.499696
0.499878
0.500285
0.500736
0.501242
0.501667
0.50209
0.502415
0.502732
0.502983
0.503234
0.50345
0.503666
0.503858
0.504054
0.504238
0.504429
0.504614
0.504804
0.504987
0.505172
0.505349
0.505524
0.505686
0.505843
0.505985
0.506115
0.50623
0.506444
0.506709
0.501454
0.501786
0.502229
0.502772
0.503293
0.503812
0.504191
0.504519
0.504752
0.504974
0.505161
0.505351
0.505518
0.505682
0.50583
0.505979
0.506119
0.50626
0.50639
0.506522
0.50664
0.50676
0.50686
0.50696
0.507035
0.507112
0.50717
0.507252
0.507305
0.507442
0.503562
0.503775
0.504089
0.504585
0.505138
0.505607
0.505944
0.506167
0.506326
0.50646
0.5066
0.506746
0.506885
0.507011
0.507127
0.507235
0.507337
0.507431
0.507518
0.507597
0.507668
0.507728
0.507775
0.507807
0.507828
0.507845
0.507875
0.507894
0.507933
0.507869
0.50522
0.505426
0.505824
0.506341
0.50688
0.507298
0.507543
0.507667
0.507735
0.507806
0.507901
0.508011
0.508121
0.508222
0.50831
0.508387
0.508452
0.508508
0.508553
0.50859
0.508618
0.508636
0.508642
0.508634
0.50861
0.508579
0.508556
0.508564
0.508569
0.508652
0.50708
0.507382
0.507742
0.508251
0.508759
0.509104
0.509266
0.509308
0.509312
0.50934
0.509402
0.509482
0.509564
0.509639
0.509701
0.509751
0.509787
0.509811
0.509826
0.509832
0.509832
0.509824
0.509805
0.509768
0.50971
0.509631
0.509547
0.509477
0.509476
0.50942
0.509168
0.509319
0.509757
0.510271
0.510732
0.511008
0.511101
0.511088
0.511055
0.511058
0.511097
0.511154
0.511215
0.511269
0.51131
0.511337
0.51135
0.511351
0.511342
0.511327
0.511308
0.511284
0.511251
0.511199
0.511121
0.511007
0.510863
0.510722
0.510614
0.510677
0.511026
0.511399
0.511848
0.512356
0.512756
0.512973
0.51302
0.51298
0.512933
0.512924
0.512951
0.512995
0.513042
0.513081
0.513106
0.513114
0.513108
0.513089
0.513062
0.51303
0.512998
0.512964
0.512924
0.512869
0.512784
0.512652
0.512462
0.512218
0.511984
0.511815
0.512887
0.51339
0.513956
0.514436
0.51478
0.514946
0.514963
0.514913
0.514865
0.514854
0.514876
0.514914
0.514954
0.514982
0.514994
0.514987
0.514964
0.514928
0.514884
0.514837
0.514794
0.514753
0.514711
0.514656
0.514574
0.51444
0.514225
0.513902
0.513453
0.513343
0.51522
0.515621
0.516079
0.516487
0.516767
0.516886
0.516887
0.516838
0.516798
0.516794
0.516818
0.516856
0.516893
0.516915
0.516915
0.516895
0.516857
0.516804
0.516743
0.516681
0.516626
0.516578
0.516533
0.516482
0.516408
0.516285
0.516078
0.515751
0.515318
0.515032
0.517752
0.517836
0.518149
0.518469
0.518683
0.518764
0.518756
0.518714
0.518687
0.518693
0.518725
0.518766
0.518803
0.518819
0.51881
0.518777
0.518726
0.518656
0.518578
0.5185
0.518432
0.518375
0.518327
0.518279
0.518214
0.518112
0.517937
0.517653
0.517265
0.516893
0.519946
0.519909
0.520093
0.520349
0.520509
0.520564
0.520552
0.520523
0.520512
0.520531
0.520573
0.520622
0.520661
0.520674
0.520655
0.520611
0.520547
0.520461
0.520364
0.52027
0.520188
0.52012
0.520068
0.52002
0.519966
0.519887
0.519752
0.519533
0.519245
0.51898
0.521716
0.521653
0.521871
0.522107
0.522235
0.52227
0.522259
0.522244
0.52225
0.522283
0.522337
0.522392
0.522432
0.522442
0.522409
0.522357
0.522286
0.522185
0.522071
0.521959
0.521863
0.521785
0.521727
0.521679
0.521634
0.521574
0.52148
0.52133
0.521122
0.520934
0.523135
0.523285
0.523523
0.523751
0.523858
0.523881
0.523877
0.523874
0.523895
0.523942
0.524008
0.524067
0.524108
0.524114
0.524093
0.524033
0.523934
0.523818
0.523687
0.523559
0.52345
0.523362
0.523299
0.52325
0.523213
0.52317
0.523112
0.523018
0.522884
0.522726
0.52467
0.524803
0.52506
0.525282
0.52537
0.525388
0.525388
0.525396
0.525429
0.525484
0.525556
0.525617
0.525657
0.525662
0.52563
0.525563
0.525463
0.525333
0.525187
0.525044
0.524923
0.524828
0.524763
0.524717
0.524689
0.524666
0.524642
0.524595
0.524513
0.52444
0.526084
0.526239
0.526474
0.526686
0.526764
0.526777
0.526783
0.526803
0.526849
0.526913
0.526987
0.527053
0.527099
0.527109
0.527074
0.527003
0.526897
0.526752
0.526587
0.526427
0.526296
0.526195
0.52613
0.526089
0.526074
0.526073
0.526083
0.526081
0.526044
0.52597
0.527388
0.527506
0.527747
0.52795
0.528025
0.528036
0.528051
0.52809
0.528153
0.528233
0.528319
0.528395
0.52845
0.528466
0.528437
0.528366
0.528252
0.528092
0.527907
0.52773
0.527587
0.52748
0.527415
0.527379
0.527377
0.527399
0.527441
0.527482
0.527479
0.527409
0.528528
0.528655
0.528874
0.529068
0.529144
0.529166
0.529199
0.529259
0.529346
0.529447
0.529557
0.529656
0.529731
0.529762
0.529744
0.529678
0.529559
0.529381
0.529172
0.528973
0.528817
0.528705
0.52864
0.52861
0.52862
0.528661
0.528731
0.528809
0.528847
0.528765
0.529559
0.529656
0.52988
0.530065
0.530139
0.530176
0.530232
0.530315
0.530423
0.530549
0.530689
0.530816
0.530913
0.53097
0.53098
0.530926
0.530798
0.530602
0.530367
0.530144
0.529971
0.529852
0.529789
0.529767
0.52979
0.52985
0.529948
0.530061
0.530132
0.530111
0.530475
0.530587
0.530787
0.530966
0.53105
0.531108
0.531187
0.531292
0.531421
0.53157
0.531738
0.531886
0.531999
0.532084
0.532132
0.532099
0.531967
0.531752
0.531485
0.531233
0.53104
0.530914
0.530851
0.530836
0.530873
0.530957
0.531087
0.531235
0.531337
0.531309
0.531329
0.531419
0.531628
0.531804
0.5319
0.531979
0.532081
0.532203
0.532348
0.532522
0.532718
0.532882
0.533004
0.533109
0.533195
0.533188
0.533055
0.532823
0.532523
0.532243
0.532034
0.5319
0.531835
0.531823
0.53187
0.531977
0.532144
0.532331
0.532462
0.532471
0.532108
0.53221
0.5324
0.532576
0.532691
0.532793
0.532914
0.533051
0.53321
0.533405
0.533625
0.533808
0.533948
0.534073
0.534184
0.534196
0.534068
0.533815
0.533484
0.53318
0.532957
0.532816
0.532749
0.532738
0.53279
0.532911
0.533113
0.533344
0.533505
0.533508
0.532818
0.532904
0.533099
0.533277
0.533413
0.533539
0.533679
0.533828
0.534
0.534213
0.534459
0.534667
0.534825
0.534972
0.535106
0.535135
0.535011
0.53474
0.534379
0.534052
0.533814
0.533666
0.533597
0.533586
0.533642
0.533777
0.534006
0.534279
0.53447
0.534512
0.533433
0.53353
0.533722
0.53391
0.534071
0.534222
0.534381
0.534544
0.53473
0.534962
0.535232
0.535469
0.535645
0.535808
0.535958
0.536002
0.535881
0.535596
0.535209
0.534862
0.534612
0.534458
0.534388
0.534378
0.534437
0.534581
0.534828
0.535121
0.535346
0.535397
0.533962
0.534053
0.53426
0.534461
0.534646
0.534819
0.534996
0.535173
0.535377
0.535631
0.535928
0.536193
0.536389
0.536566
0.536727
0.536783
0.536669
0.536372
0.535962
0.535598
0.535339
0.53518
0.53511
0.535101
0.535163
0.535314
0.535572
0.535882
0.536132
0.5362
0.534399
0.534497
0.534725
0.53494
0.535146
0.535337
0.535529
0.535718
0.535938
0.53621
0.536526
0.536811
0.537021
0.537208
0.537378
0.537444
0.537339
0.537036
0.536611
0.536233
0.535968
0.535806
0.535737
0.53573
0.535793
0.535947
0.53621
0.536535
0.536812
0.536878
0.534754
0.534865
0.535111
0.535336
0.535559
0.535765
0.535972
0.536171
0.536405
0.536692
0.537026
0.537334
0.537566
0.537762
0.53793
0.538004
0.537914
0.537608
0.537167
0.536778
0.536507
0.536342
0.536273
0.536268
0.536332
0.536487
0.536756
0.537096
0.537395
0.537488
0.535022
0.535146
0.535431
0.535662
0.535894
0.536109
0.536324
0.53653
0.536776
0.537077
0.537429
0.537759
0.538012
0.538214
0.538381
0.538462
0.538383
0.538075
0.537626
0.537228
0.536952
0.536782
0.536713
0.536711
0.536776
0.536932
0.537204
0.537556
0.537873
0.53796
0.535195
0.535339
0.535677
0.535917
0.53616
0.536388
0.536616
0.536828
0.537087
0.537403
0.537772
0.538121
0.538389
0.538597
0.538762
0.538847
0.538782
0.538479
0.538023
0.537618
0.537338
0.537165
0.537097
0.537099
0.537166
0.537321
0.537597
0.537962
0.538295
0.538421
0.535281
0.535458
0.535791
0.536046
0.536291
0.536531
0.536769
0.536984
0.537256
0.537589
0.537973
0.53834
0.538619
0.538837
0.539008
0.539095
0.53903
0.538728
0.538267
0.537849
0.537562
0.53738
0.537307
0.537312
0.537379
0.537535
0.53782
0.538196
0.538557
0.538642
0.535308
0.535489
0.535827
0.536089
0.536333
0.536585
0.536832
0.537041
0.537324
0.537666
0.538052
0.538425
0.538702
0.538927
0.5391
0.539186
0.539119
0.538817
0.538366
0.537946
0.537659
0.537471
0.537392
0.537409
0.537472
0.537622
0.537911
0.538289
0.538641
0.538709
0.535379
0.535536
0.535848
0.536103
0.536335
0.536599
0.53685
0.537038
0.537328
0.537669
0.538033
0.538394
0.538643
0.53887
0.539055
0.539136
0.539056
0.538766
0.538352
0.537942
0.537669
0.537478
0.53739
0.537427
0.537479
0.537613
0.537898
0.538257
0.538583
0.538652
1.54916
1.54801
1.54625
1.54367
1.54109
1.53835
1.53592
1.53336
1.53099
1.5284
1.5258
1.52275
1.51925
1.51521
1.51114
1.50728
1.50376
1.50101
1.49881
1.49741
1.49656
1.49672
1.49747
1.49897
1.50049
1.5023
1.50384
1.50532
1.50641
1.50725
1.53954
1.53875
1.53749
1.5359
1.53423
1.53243
1.53057
1.52848
1.52616
1.52342
1.52028
1.51697
1.51365
1.51056
1.50773
1.50547
1.50356
1.50248
1.50202
1.50263
1.50374
1.50547
1.50725
1.50914
1.51082
1.51238
1.51363
1.5147
1.51544
1.51608
1.52875
1.52849
1.52787
1.52694
1.5259
1.52466
1.52325
1.52152
1.51947
1.51719
1.51482
1.51255
1.51041
1.50865
1.50717
1.50633
1.50601
1.50655
1.50754
1.50914
1.51083
1.51284
1.51461
1.51649
1.51798
1.51942
1.52042
1.52129
1.52189
1.52257
1.52436
1.52424
1.52398
1.52361
1.52306
1.52239
1.52147
1.52035
1.51901
1.51763
1.51623
1.51499
1.51391
1.51322
1.51287
1.51311
1.51376
1.5149
1.51624
1.51783
1.51939
1.52095
1.52234
1.5236
1.5246
1.52544
1.52599
1.52641
1.52666
1.52712
1.52135
1.52154
1.52159
1.52156
1.52131
1.52098
1.52044
1.51985
1.51915
1.5185
1.51788
1.51745
1.51718
1.51726
1.51761
1.51833
1.51926
1.52044
1.52168
1.52301
1.52424
1.52545
1.52647
1.52739
1.52807
1.52861
1.52892
1.52912
1.52923
1.52957
1.51951
1.5199
1.52015
1.52033
1.52036
1.52036
1.52022
1.52008
1.5199
1.5198
1.51974
1.51985
1.52008
1.52053
1.52113
1.52194
1.52284
1.52386
1.52489
1.52594
1.52692
1.52781
1.52857
1.52921
1.52968
1.53002
1.53018
1.53026
1.53032
1.53062
1.51857
1.51879
1.5191
1.5195
1.5198
1.52007
1.52026
1.52047
1.52065
1.52089
1.52115
1.52152
1.52194
1.52248
1.5231
1.52382
1.52458
1.5254
1.52621
1.52701
1.52775
1.52844
1.52902
1.52952
1.52988
1.53014
1.53025
1.53031
1.53039
1.53069
1.51783
1.51821
1.51877
1.5194
1.51996
1.52047
1.52089
1.52129
1.52165
1.52202
1.52239
1.52282
1.52327
1.52378
1.52431
1.5249
1.52551
1.52613
1.52674
1.52733
1.52788
1.52837
1.5288
1.52917
1.52944
1.52965
1.52976
1.52981
1.52992
1.53026
1.51819
1.51898
1.51985
1.52076
1.52151
1.52216
1.52265
1.52309
1.52343
1.52378
1.52412
1.5245
1.52488
1.52531
1.52573
1.5262
1.52665
1.52712
1.52756
1.52799
1.52837
1.52872
1.529
1.52924
1.52941
1.52953
1.5296
1.52967
1.52983
1.53023
1.52109
1.52183
1.52294
1.52402
1.52493
1.52555
1.52597
1.52624
1.52645
1.52664
1.52687
1.52712
1.52742
1.52771
1.52805
1.52838
1.52872
1.52904
1.52936
1.52964
1.52989
1.53009
1.53025
1.53033
1.5304
1.53044
1.5305
1.53057
1.5308
1.531
1.525
1.52599
1.52731
1.52851
1.52933
1.52982
1.52997
1.52999
1.52993
1.52996
1.53003
1.5302
1.53037
1.53059
1.53081
1.53105
1.53127
1.5315
1.53169
1.53187
1.53198
1.53207
1.53208
1.53207
1.53203
1.53201
1.53199
1.53205
1.53202
1.53209
1.52952
1.53052
1.53164
1.53272
1.53344
1.53367
1.53356
1.53328
1.53303
1.5329
1.53289
1.53297
1.53309
1.53323
1.53339
1.53354
1.53368
1.5338
1.5339
1.53397
1.534
1.53398
1.53391
1.53381
1.53369
1.53358
1.5335
1.53343
1.53344
1.53311
1.53327
1.53428
1.53563
1.53671
1.53731
1.53736
1.53702
1.53657
1.53619
1.53597
1.5359
1.53593
1.53601
1.53611
1.53621
1.5363
1.53637
1.53641
1.53643
1.53642
1.53638
1.5363
1.53619
1.53603
1.53584
1.53565
1.53547
1.53539
1.5353
1.53541
1.53763
1.53874
1.53989
1.54091
1.5414
1.54131
1.54085
1.54031
1.53988
1.53962
1.53952
1.53952
1.53957
1.53964
1.5397
1.53974
1.53976
1.53975
1.53971
1.53965
1.53956
1.53946
1.53932
1.53913
1.5389
1.53863
1.53836
1.53811
1.53806
1.53787
1.54237
1.54306
1.54437
1.54534
1.54572
1.54553
1.54502
1.54446
1.54403
1.54377
1.54367
1.54365
1.54369
1.54373
1.54377
1.54377
1.54375
1.54369
1.54361
1.54351
1.54341
1.54328
1.54314
1.54295
1.54271
1.5424
1.54203
1.54167
1.54136
1.54153
1.54662
1.54781
1.54898
1.54986
1.55017
1.54993
1.54942
1.54888
1.54848
1.54825
1.54815
1.54814
1.54817
1.5482
1.54821
1.54819
1.54813
1.54804
1.54793
1.5478
1.54767
1.54754
1.5474
1.54723
1.547
1.54668
1.54626
1.54572
1.54523
1.54487
1.55077
1.55221
1.55363
1.55445
1.55467
1.55441
1.55392
1.55343
1.55308
1.55288
1.5528
1.5528
1.55284
1.55286
1.55286
1.55281
1.55272
1.5526
1.55245
1.55229
1.55214
1.552
1.55186
1.55171
1.55151
1.55121
1.55078
1.55016
1.54934
1.54931
1.55592
1.55722
1.55829
1.55898
1.55912
1.55885
1.5584
1.55797
1.55768
1.55752
1.55748
1.5575
1.55755
1.55757
1.55755
1.55748
1.55736
1.5572
1.55702
1.55683
1.55665
1.55649
1.55635
1.55621
1.55604
1.5558
1.55541
1.55479
1.55396
1.55331
1.5615
1.56202
1.56293
1.56345
1.56351
1.56323
1.56282
1.56246
1.56223
1.56212
1.56212
1.56216
1.56221
1.56223
1.5622
1.56211
1.56197
1.56177
1.56155
1.56132
1.56111
1.56093
1.56078
1.56065
1.56051
1.56032
1.56001
1.5595
1.55876
1.55794
1.56633
1.56675
1.56731
1.56773
1.56773
1.56746
1.5671
1.56681
1.56664
1.56659
1.56662
1.56669
1.56675
1.56677
1.56673
1.56662
1.56645
1.56622
1.56595
1.56568
1.56543
1.56523
1.56507
1.56494
1.56483
1.56468
1.56446
1.56409
1.56358
1.56299
1.57049
1.5707
1.57144
1.57184
1.57181
1.57155
1.57125
1.57103
1.57092
1.57091
1.57098
1.57107
1.57114
1.57116
1.57111
1.57098
1.57078
1.57052
1.57021
1.56989
1.56961
1.56938
1.5692
1.56908
1.56898
1.56888
1.56874
1.56851
1.56814
1.56778
1.57405
1.57467
1.57532
1.57572
1.57568
1.57544
1.57519
1.57503
1.57498
1.57502
1.57511
1.57522
1.57531
1.57533
1.57527
1.57513
1.57491
1.57461
1.57425
1.57389
1.57358
1.57332
1.57313
1.57301
1.57293
1.57287
1.57281
1.57269
1.57249
1.57218
1.57776
1.57825
1.57902
1.57941
1.57937
1.57917
1.57897
1.57887
1.57887
1.57894
1.57905
1.57917
1.57927
1.5793
1.57924
1.57909
1.57885
1.57851
1.57811
1.57771
1.57736
1.57708
1.57689
1.57677
1.57672
1.57671
1.57672
1.5767
1.57662
1.57653
1.58126
1.58181
1.58244
1.58282
1.5828
1.58264
1.58251
1.58246
1.58251
1.58261
1.58276
1.5829
1.58303
1.58308
1.58303
1.58288
1.58262
1.58224
1.58178
1.58133
1.58095
1.58065
1.58045
1.58035
1.58033
1.58037
1.58046
1.58055
1.58056
1.58045
1.58452
1.58493
1.58565
1.58603
1.58605
1.58596
1.5859
1.58593
1.58602
1.58617
1.58635
1.58653
1.58668
1.58676
1.58672
1.58658
1.5863
1.58588
1.58536
1.58486
1.58443
1.58411
1.58392
1.58382
1.58383
1.58392
1.5841
1.58428
1.58436
1.58425
1.58757
1.58803
1.58861
1.58901
1.58909
1.58907
1.5891
1.58919
1.58935
1.58955
1.58978
1.59001
1.5902
1.59031
1.5903
1.59017
1.58988
1.58941
1.58882
1.58826
1.58779
1.58745
1.58725
1.58716
1.5872
1.58734
1.58759
1.58787
1.58805
1.58788
1.59041
1.59076
1.59143
1.59183
1.59196
1.59202
1.59213
1.5923
1.59253
1.59279
1.59309
1.59337
1.59359
1.59373
1.59377
1.59366
1.59336
1.59283
1.59218
1.59155
1.59105
1.59069
1.59049
1.5904
1.59046
1.59065
1.59097
1.59133
1.59159
1.59158
1.59304
1.59342
1.59397
1.59438
1.59456
1.5947
1.59489
1.59515
1.59545
1.59579
1.59617
1.59652
1.59679
1.59697
1.59705
1.59697
1.59665
1.59608
1.59535
1.59467
1.59413
1.59375
1.59354
1.59347
1.59354
1.59376
1.59415
1.59461
1.59495
1.59492
1.59542
1.59572
1.59633
1.59676
1.597
1.59721
1.59748
1.59779
1.59816
1.59858
1.59906
1.59948
1.59979
1.60003
1.60017
1.60012
1.59979
1.59916
1.59836
1.59762
1.59705
1.59666
1.59644
1.59637
1.59646
1.59671
1.59716
1.59771
1.59814
1.59821
1.59761
1.59793
1.59846
1.5989
1.5992
1.59949
1.59982
1.60019
1.60061
1.60111
1.60168
1.60218
1.60256
1.60285
1.60306
1.60306
1.60274
1.60206
1.60117
1.60037
1.59976
1.59935
1.59913
1.59907
1.59917
1.59946
1.59998
1.60063
1.60114
1.6012
1.59957
1.59984
1.60042
1.60088
1.60125
1.6016
1.60199
1.60241
1.60289
1.60345
1.6041
1.60468
1.60512
1.60548
1.60575
1.60581
1.60552
1.60479
1.60382
1.60295
1.6023
1.60186
1.60164
1.60158
1.60171
1.60205
1.60263
1.60337
1.60396
1.60411
1.60133
1.60163
1.60215
1.60265
1.60308
1.60349
1.60393
1.6044
1.60493
1.60557
1.6063
1.60696
1.60746
1.60786
1.60819
1.60831
1.60805
1.60729
1.60625
1.60532
1.60461
1.60416
1.60393
1.60388
1.60403
1.60441
1.60506
1.60587
1.60654
1.60671
1.60287
1.60314
1.60375
1.60428
1.60478
1.60525
1.60573
1.60624
1.60682
1.60753
1.60834
1.60908
1.60965
1.61009
1.61044
1.6106
1.61038
1.60959
1.60849
1.6075
1.60677
1.60629
1.60606
1.60602
1.60618
1.60659
1.60729
1.60817
1.60889
1.60907
1.60419
1.60451
1.60506
1.60562
1.60618
1.6067
1.60724
1.60778
1.60842
1.60918
1.61007
1.61089
1.61152
1.612
1.61237
1.61256
1.61236
1.61155
1.61041
1.60938
1.60862
1.60813
1.6079
1.60786
1.60803
1.60846
1.6092
1.61013
1.61092
1.61107
1.6053
1.60557
1.60622
1.6068
1.60739
1.60796
1.60854
1.60912
1.60979
1.61062
1.61157
1.61246
1.61315
1.61367
1.61404
1.61425
1.61409
1.61327
1.61209
1.61102
1.61024
1.60973
1.6095
1.60947
1.60965
1.61009
1.61085
1.61182
1.61266
1.61289
1.60614
1.60646
1.60712
1.60771
1.60834
1.60894
1.60956
1.61016
1.61088
1.61175
1.61275
1.6137
1.61445
1.61498
1.61535
1.61559
1.61545
1.61463
1.61342
1.61233
1.61153
1.61101
1.61078
1.61076
1.61095
1.6114
1.61217
1.61317
1.61406
1.61431
1.60676
1.60707
1.60785
1.60846
1.60909
1.60973
1.61038
1.61099
1.61175
1.61266
1.61371
1.61473
1.61553
1.61608
1.61646
1.61671
1.61659
1.61575
1.61452
1.6134
1.61258
1.61204
1.61179
1.61179
1.61198
1.61243
1.61323
1.61426
1.61518
1.61549
1.60713
1.60748
1.60835
1.609
1.60965
1.61032
1.611
1.61162
1.61242
1.61337
1.61444
1.61549
1.61631
1.61688
1.61726
1.61751
1.6174
1.61657
1.61534
1.61419
1.61337
1.61282
1.61257
1.61259
1.61279
1.61323
1.61405
1.6151
1.61605
1.61637
1.60735
1.60773
1.60855
1.60922
1.60988
1.61059
1.61129
1.61189
1.61272
1.61369
1.61475
1.61581
1.61661
1.61718
1.61757
1.61782
1.6177
1.61689
1.6157
1.61456
1.61375
1.61319
1.61294
1.613
1.61318
1.6136
1.61441
1.61545
1.61641
1.61667
1.60753
1.60785
1.60864
1.6093
1.60993
1.61068
1.6114
1.61195
1.61279
1.61376
1.61477
1.61581
1.61654
1.61711
1.61752
1.61775
1.61761
1.61683
1.61573
1.61462
1.61385
1.61329
1.61302
1.61314
1.61329
1.61367
1.61448
1.61548
1.61635
1.61664
2.60885
2.60865
2.60851
2.60789
2.60698
2.60519
2.60263
2.59921
2.59548
2.5916
2.58788
2.58453
2.58167
2.57939
2.57775
2.57715
2.57779
2.57988
2.58288
2.58642
2.58969
2.59253
2.59443
2.59578
2.59642
2.59682
2.5967
2.59646
2.59605
2.59599
2.60183
2.60148
2.60091
2.59994
2.59847
2.59629
2.59359
2.59056
2.58748
2.58454
2.58183
2.57954
2.57775
2.5768
2.57669
2.57792
2.58022
2.58333
2.58651
2.58966
2.5923
2.59451
2.59611
2.59715
2.59764
2.5976
2.59718
2.59652
2.59578
2.59549
2.58975
2.58961
2.5892
2.58839
2.58713
2.5854
2.58339
2.58129
2.57922
2.57739
2.57587
2.57493
2.57455
2.57502
2.57623
2.57821
2.58053
2.58311
2.58555
2.58787
2.58974
2.59137
2.59251
2.5934
2.59381
2.59395
2.59368
2.59325
2.59265
2.59247
2.58229
2.58209
2.58176
2.58117
2.5803
2.57926
2.5781
2.57698
2.57596
2.57523
2.57482
2.57493
2.57547
2.57651
2.57788
2.57957
2.58134
2.58317
2.58484
2.58639
2.58766
2.58871
2.58943
2.58989
2.59004
2.58998
2.58968
2.58925
2.58869
2.58851
2.57495
2.57505
2.57496
2.57476
2.57439
2.57398
2.57354
2.5732
2.57297
2.57301
2.5733
2.5739
2.57471
2.57574
2.57689
2.57817
2.57944
2.58069
2.5818
2.58282
2.58363
2.58432
2.58475
2.58503
2.58508
2.58499
2.58473
2.58439
2.58397
2.58386
2.56939
2.56954
2.56955
2.56956
2.56955
2.56961
2.56969
2.56989
2.57014
2.57053
2.57102
2.57168
2.57242
2.57327
2.57415
2.57508
2.57596
2.57681
2.57754
2.57821
2.57873
2.57916
2.57943
2.57958
2.57958
2.57948
2.57926
2.57898
2.57869
2.57865
2.56489
2.56487
2.56504
2.56535
2.56569
2.5661
2.56651
2.56694
2.56735
2.56779
2.56826
2.56879
2.56935
2.56995
2.57055
2.57116
2.57174
2.5723
2.57278
2.57322
2.57356
2.57383
2.574
2.57408
2.57406
2.57396
2.57376
2.57353
2.57333
2.57336
2.56095
2.56156
2.56221
2.56288
2.56352
2.56413
2.56465
2.56511
2.56549
2.56584
2.56618
2.56654
2.56691
2.56729
2.56768
2.56807
2.56844
2.56879
2.56909
2.56936
2.56956
2.5697
2.56975
2.56974
2.56965
2.56954
2.56938
2.56923
2.56915
2.56929
2.56057
2.56139
2.56232
2.56326
2.56406
2.56469
2.56514
2.56546
2.56565
2.56581
2.56595
2.56613
2.56632
2.56655
2.56678
2.56702
2.56724
2.56745
2.56761
2.56774
2.56781
2.56781
2.56773
2.56762
2.56748
2.56736
2.56726
2.56722
2.56729
2.56759
2.56383
2.5647
2.56583
2.56692
2.56773
2.56821
2.5684
2.56841
2.56834
2.56824
2.5682
2.56819
2.56826
2.56834
2.56847
2.56859
2.56871
2.5688
2.56887
2.56887
2.56882
2.56868
2.56853
2.56833
2.56815
2.56799
2.56793
2.56795
2.56817
2.5684
2.56903
2.57013
2.57152
2.57259
2.57322
2.57338
2.57318
2.57284
2.57247
2.57219
2.57198
2.57188
2.57183
2.57185
2.57188
2.57194
2.57196
2.57198
2.57194
2.57186
2.5717
2.57152
2.57129
2.57106
2.57081
2.57062
2.5705
2.57053
2.57054
2.57058
2.57509
2.57621
2.57735
2.57828
2.57866
2.57847
2.57793
2.57729
2.57673
2.57633
2.57606
2.57588
2.57579
2.57575
2.57574
2.57572
2.5757
2.57564
2.57554
2.57539
2.5752
2.57498
2.57474
2.57448
2.5742
2.57394
2.57375
2.57363
2.57366
2.57329
2.58002
2.58134
2.58278
2.58367
2.58386
2.58342
2.58264
2.58185
2.5812
2.58074
2.58043
2.58024
2.58013
2.58007
2.58002
2.57997
2.57989
2.57979
2.57964
2.57947
2.57927
2.57905
2.57881
2.57855
2.57825
2.57794
2.57767
2.57754
2.57743
2.57755
2.58589
2.58711
2.58834
2.58915
2.5892
2.58861
2.58772
2.58687
2.5862
2.58573
2.58542
2.58524
2.58514
2.58507
2.58501
2.58494
2.58483
2.58469
2.58453
2.58434
2.58414
2.58393
2.5837
2.58345
2.58316
2.58283
2.58249
2.58221
2.58216
2.582
2.59203
2.59274
2.59407
2.59479
2.59472
2.59404
2.59313
2.59228
2.59163
2.59118
2.59091
2.59075
2.59067
2.59061
2.59055
2.59046
2.59033
2.59017
2.58999
2.58979
2.58958
2.58938
2.58917
2.58895
2.58869
2.58837
2.588
2.58766
2.58741
2.58764
2.59751
2.59875
2.59984
2.60046
2.60031
2.5996
2.5987
2.59789
2.59729
2.59688
2.59665
2.59653
2.59647
2.59642
2.59636
2.59626
2.59612
2.59594
2.59573
2.59551
2.59529
2.59509
2.5949
2.59472
2.59449
2.59421
2.59386
2.59347
2.59323
2.59296
2.60271
2.60432
2.60563
2.60615
2.60593
2.6052
2.60435
2.6036
2.60306
2.60271
2.60252
2.60244
2.60241
2.60238
2.60232
2.60221
2.60205
2.60184
2.6016
2.60135
2.60111
2.6009
2.60072
2.60056
2.60039
2.60017
2.59988
2.59958
2.59936
2.59986
2.609
2.6104
2.61135
2.61174
2.61146
2.61075
2.60996
2.60929
2.60881
2.60853
2.6084
2.60836
2.60836
2.60835
2.60829
2.60817
2.60799
2.60775
2.60746
2.60717
2.6069
2.60667
2.60649
2.60635
2.60622
2.60607
2.60587
2.60563
2.60544
2.60533
2.6157
2.61615
2.61696
2.61723
2.61691
2.61623
2.61551
2.61493
2.61454
2.61432
2.61425
2.61425
2.61429
2.61429
2.61423
2.6141
2.61389
2.61361
2.61328
2.61294
2.61262
2.61236
2.61217
2.61204
2.61195
2.61186
2.61175
2.61162
2.61141
2.61111
2.62102
2.62166
2.62228
2.62252
2.6222
2.62157
2.62093
2.62044
2.62013
2.61999
2.61997
2.62002
2.62008
2.62009
2.62003
2.61989
2.61966
2.61933
2.61895
2.61856
2.6182
2.6179
2.61769
2.61756
2.61749
2.61746
2.61743
2.61739
2.6173
2.61704
2.62605
2.62653
2.62739
2.62766
2.62736
2.62678
2.62623
2.62583
2.62561
2.62553
2.62556
2.62565
2.62575
2.62577
2.62571
2.62555
2.62529
2.62493
2.62449
2.62405
2.62363
2.6233
2.62306
2.62293
2.62288
2.62289
2.62294
2.62299
2.62295
2.62283
2.63075
2.63152
2.63227
2.63257
2.6323
2.6318
2.63134
2.63103
2.63088
2.63086
2.63094
2.63107
2.63119
2.63124
2.63118
2.63102
2.63074
2.63033
2.62983
2.62932
2.62886
2.62849
2.62824
2.62811
2.62809
2.62814
2.62826
2.62839
2.62846
2.62833
2.63548
2.63609
2.63698
2.63731
2.63709
2.63667
2.63631
2.63609
2.63602
2.63606
2.63619
2.63637
2.63654
2.63661
2.63657
2.63641
2.63611
2.63564
2.63507
2.63449
2.63397
2.63357
2.63331
2.63318
2.63319
2.6333
2.63348
2.6337
2.63385
2.63394
2.64002
2.6407
2.64147
2.64183
2.64167
2.64136
2.64111
2.641
2.64101
2.64113
2.64133
2.64157
2.64179
2.64191
2.64189
2.64175
2.64143
2.6409
2.64024
2.63958
2.639
2.63856
2.63828
2.63816
2.63819
2.63836
2.63863
2.63894
2.63917
2.63916
2.64442
2.64498
2.64587
2.64628
2.64622
2.64604
2.64592
2.64592
2.64602
2.64622
2.6465
2.64679
2.64706
2.64722
2.64725
2.64712
2.64679
2.6462
2.64544
2.64469
2.64405
2.64357
2.64327
2.64315
2.64321
2.64343
2.6438
2.64421
2.64449
2.64446
2.64876
2.64939
2.65018
2.65065
2.6507
2.65065
2.65067
2.65077
2.65097
2.65124
2.65159
2.65195
2.65227
2.65247
2.65253
2.65243
2.6521
2.65144
2.65058
2.64974
2.64903
2.64851
2.64819
2.64807
2.64816
2.64844
2.6489
2.64942
2.6498
2.64966
2.653
2.65354
2.65445
2.65498
2.65515
2.65524
2.65538
2.6556
2.65588
2.65623
2.65665
2.65708
2.65743
2.65766
2.65775
2.65769
2.65735
2.65662
2.65567
2.65474
2.65398
2.65342
2.65309
2.65297
2.65307
2.65339
2.65394
2.65458
2.65506
2.65513
2.65711
2.65769
2.6585
2.65909
2.65938
2.6596
2.65986
2.66017
2.66053
2.66096
2.66148
2.662
2.66242
2.66268
2.6628
2.66276
2.66241
2.66162
2.66057
2.65957
2.65875
2.65817
2.65783
2.65771
2.65782
2.65817
2.6588
2.65956
2.66018
2.66022
2.66095
2.66144
2.66233
2.66297
2.66337
2.66372
2.66409
2.66449
2.66493
2.66545
2.66609
2.66673
2.66723
2.66754
2.66769
2.66769
2.66734
2.66647
2.66533
2.66425
2.66339
2.66278
2.66243
2.66231
2.66243
2.66282
2.66352
2.66441
2.66515
2.66533
2.66448
2.66499
2.66579
2.66648
2.66698
2.66743
2.66792
2.66843
2.66897
2.6696
2.67037
2.67114
2.67175
2.67212
2.67231
2.67236
2.67203
2.67109
2.66985
2.66869
2.66778
2.66714
2.66678
2.66667
2.66681
2.66724
2.66802
2.66903
2.66989
2.67005
2.66765
2.66809
2.66896
2.66969
2.67029
2.67085
2.67144
2.67205
2.67271
2.67347
2.67439
2.67528
2.67598
2.67642
2.67667
2.67677
2.67648
2.67549
2.67415
2.67292
2.67195
2.67129
2.67092
2.67081
2.67098
2.67145
2.67232
2.67344
2.67439
2.67468
2.67055
2.67103
2.67182
2.6726
2.67328
2.67393
2.67461
2.67531
2.6761
2.677
2.67804
2.67905
2.67983
2.68034
2.68066
2.68084
2.68059
2.67957
2.67815
2.67684
2.67581
2.67512
2.67475
2.67465
2.67484
2.67537
2.67632
2.67754
2.67859
2.67889
2.67316
2.6736
2.67446
2.67526
2.67602
2.67675
2.67752
2.6783
2.67919
2.6802
2.68137
2.68247
2.68335
2.68392
2.68429
2.68454
2.68437
2.68333
2.68183
2.68045
2.67937
2.67865
2.67827
2.67818
2.6784
2.67898
2.68
2.68132
2.68244
2.68268
2.67548
2.67594
2.67679
2.67763
2.67847
2.67928
2.68012
2.68098
2.68195
2.68307
2.68435
2.68555
2.68652
2.68715
2.68754
2.68785
2.68775
2.6867
2.68514
2.68369
2.68257
2.68182
2.68144
2.68136
2.68161
2.68223
2.68332
2.68471
2.6859
2.68611
2.67742
2.67789
2.67879
2.67967
2.68059
2.68147
2.68238
2.6833
2.68435
2.68556
2.68694
2.68824
2.6893
2.68997
2.69036
2.69071
2.69066
2.68961
2.688
2.6865
2.68535
2.68457
2.68419
2.68413
2.6844
2.68505
2.68619
2.68764
2.68891
2.68923
2.67901
2.67947
2.6804
2.68131
2.68228
2.68323
2.68421
2.68517
2.6863
2.68759
2.68904
2.69041
2.69154
2.69223
2.69264
2.69301
2.693
2.69195
2.69032
2.68879
2.68762
2.68683
2.68645
2.68641
2.68669
2.68736
2.68853
2.69002
2.69134
2.69171
2.68019
2.68064
2.68171
2.68266
2.68367
2.68468
2.68571
2.6867
2.68789
2.68925
2.69074
2.69217
2.69333
2.69405
2.69445
2.69486
2.69487
2.69384
2.6922
2.69065
2.68947
2.68867
2.68829
2.68828
2.68858
2.68925
2.69043
2.69195
2.69331
2.69368
2.681
2.68147
2.68254
2.6835
2.68453
2.68559
2.68667
2.68766
2.6889
2.69031
2.69181
2.69327
2.69444
2.69516
2.69558
2.696
2.69603
2.69502
2.6934
2.69184
2.69067
2.68985
2.68946
2.68949
2.68978
2.69043
2.69162
2.69314
2.69451
2.69484