/*--------------------------------*- C++ -*----------------------------------*\
| =========                 |                                                 |
| \\      /  F ield         | OpenFOAM: The Open Source CFD Toolbox           |
|  \\    /   O peration     | Version:  2.4.0                                 |
|   \\  /    A nd           | Web:      www.OpenFOAM.org                      |
|    \\/     M anipulation  |                                                 |
\*---------------------------------------------------------------------------*/
FoamFile
{
    version     2.0;
    format      ascii;
    class       volScalarField;
    location    "0.38";
    object      k;
}
// * * * * * * * * * * * * * * * * * * * * * * * * * * * * * * * * * * * * * //

dimensions      [0 2 -2 0 0 0 0];

internalField   nonuniform List<scalar> 
6000
(
0.00510096
0.00645279
0.00771269
0.00881057
0.00970888
0.0103985
0.010891
0.0112109
0.0113893
0.0114582
0.0114475
0.0113833
0.011287
0.0111755
0.0110611
0.0109518
0.010852
0.0107628
0.0106838
0.0106133
0.0105497
0.0104919
0.0104392
0.0103916
0.0103494
0.0103129
0.0102821
0.0102571
0.0102374
0.0102225
0.0102117
0.010204
0.0101985
0.0101945
0.0101913
0.0101882
0.010185
0.0101812
0.0101766
0.0101708
0.0101634
0.010154
0.0101419
0.0101263
0.0101063
0.0100805
0.0100473
0.0100045
0.00994933
0.00987814
0.00978613
0.009667
0.00951235
0.00931072
0.00904667
0.00869721
0.00823475
0.00760461
0.00681352
0.00560641
0.0035494
0.00344487
0.00340552
0.00341536
0.00345853
0.00352207
0.00359806
0.00368243
0.00377319
0.00386942
0.00397059
0.00407594
0.0041841
0.00429298
0.00439983
0.00450159
0.00459527
0.00467825
0.00474855
0.00480481
0.00484619
0.00487224
0.0048829
0.00487858
0.00486039
0.00483037
0.00479147
0.00474734
0.00470188
0.00465862
0.00462027
0.00458844
0.00456361
0.00454542
0.0045329
0.00452489
0.00452028
0.00451815
0.00451788
0.00451908
0.00452163
0.00452555
0.00453103
0.00453837
0.00454806
0.00456072
0.00457723
0.00459875
0.00462686
0.00466372
0.00471231
0.00477691
0.00486377
0.00498243
0.00514813
0.00538627
0.00574214
0.00629576
0.00718367
0.00936022
0.00348321
0.00325647
0.00306425
0.00290017
0.00275852
0.00263413
0.00252318
0.00242333
0.00233339
0.00225285
0.00218162
0.00211975
0.00206725
0.00202398
0.00198963
0.00196365
0.00194523
0.00193337
0.00192683
0.00192429
0.00192443
0.00192608
0.00192821
0.00192995
0.00193052
0.00192929
0.00192577
0.00191977
0.00191145
0.00190135
0.00189032
0.00187925
0.00186898
0.00186008
0.00185286
0.00184733
0.00184335
0.00184068
0.00183907
0.00183835
0.00183837
0.00183909
0.0018405
0.00184269
0.00184579
0.00185001
0.00185567
0.00186324
0.00187335
0.00188698
0.00190552
0.00193113
0.00196722
0.00201937
0.00209725
0.00221823
0.00241665
0.00275448
0.00338827
0.00470507
0.00347969
0.00324256
0.00303442
0.00285067
0.00268757
0.00254191
0.00241088
0.00229217
0.00218391
0.00208464
0.00199319
0.00190869
0.00183049
0.00175809
0.00169111
0.00162927
0.00157234
0.00152015
0.00147252
0.00142928
0.00139027
0.00135534
0.00132435
0.00129718
0.00127363
0.00125344
0.00123625
0.00122165
0.00120921
0.00119856
0.0011894
0.00118155
0.00117489
0.00116935
0.00116484
0.00116128
0.00115856
0.00115655
0.00115515
0.00115426
0.00115381
0.00115374
0.00115403
0.00115469
0.00115574
0.00115726
0.00115934
0.00116214
0.0011659
0.00117093
0.00117773
0.00118705
0.00120008
0.00121885
0.00124697
0.00129127
0.00136662
0.00150284
0.00179371
0.00239834
0.00347951
0.00324163
0.00303199
0.00284603
0.00268015
0.00253139
0.00239731
0.00227586
0.00216532
0.00206426
0.00197146
0.00188593
0.00180681
0.00173341
0.00166515
0.00160154
0.00154221
0.00148686
0.00143527
0.00138728
0.0013428
0.0013018
0.00126427
0.00123024
0.00119973
0.00117273
0.00114918
0.00112895
0.00111183
0.00109754
0.00108576
0.00107617
0.00106843
0.00106226
0.00105739
0.00105358
0.00105066
0.00104845
0.0010468
0.00104561
0.00104478
0.00104424
0.00104393
0.00104381
0.00104387
0.0010441
0.00104451
0.00104513
0.00104603
0.00104729
0.00104908
0.00105164
0.00105538
0.00106102
0.00106984
0.0010843
0.00110972
0.00115816
0.00126852
0.00152572
0.0034795
0.00324152
0.00303169
0.00284547
0.00267923
0.00253007
0.00239558
0.00227374
0.00216291
0.00206169
0.00196889
0.00188352
0.00180473
0.00173178
0.00166408
0.0016011
0.00154242
0.0014877
0.00143668
0.00138917
0.00134502
0.00130418
0.00126661
0.00123231
0.00120127
0.00117351
0.00114897
0.00112758
0.0011092
0.00109365
0.00108069
0.00107005
0.00106142
0.00105453
0.00104909
0.00104485
0.00104159
0.00103911
0.00103726
0.00103589
0.0010349
0.00103419
0.0010337
0.00103336
0.00103316
0.00103305
0.00103302
0.00103308
0.00103323
0.00103351
0.00103397
0.00103473
0.00103595
0.00103797
0.00104134
0.0010471
0.00105729
0.00107682
0.0011184
0.00122785
0.00347949
0.00324148
0.00303159
0.00284531
0.00267901
0.00252978
0.0023952
0.00227331
0.00216243
0.0020612
0.00196844
0.00188315
0.00180449
0.00173175
0.00166431
0.00160165
0.00154334
0.00148903
0.00143846
0.0013914
0.00134772
0.00130733
0.00127019
0.00123625
0.00120551
0.00117794
0.00115349
0.00113208
0.00111357
0.00109779
0.00108454
0.00107358
0.00106464
0.00105745
0.00105176
0.00104731
0.00104389
0.00104128
0.00103933
0.00103789
0.00103683
0.00103607
0.00103553
0.00103516
0.0010349
0.00103473
0.00103463
0.00103459
0.00103462
0.00103473
0.00103496
0.00103538
0.00103613
0.00103742
0.00103964
0.00104344
0.00104991
0.00106156
0.00108183
0.00113479
0.00347949
0.00324145
0.00303152
0.0028452
0.00267887
0.0025296
0.00239499
0.00227307
0.00216217
0.00206093
0.00196816
0.00188289
0.00180427
0.00173158
0.00166421
0.00160164
0.00154345
0.00148929
0.00143887
0.00139199
0.00134851
0.00130833
0.00127139
0.00123766
0.00120712
0.00117971
0.0011554
0.00113408
0.00111562
0.00109985
0.00108657
0.00107555
0.00106654
0.00105927
0.00105351
0.00104899
0.00104551
0.00104286
0.00104087
0.0010394
0.00103833
0.00103756
0.00103701
0.00103663
0.00103637
0.00103621
0.00103611
0.00103607
0.0010361
0.00103622
0.00103645
0.00103687
0.00103761
0.00103886
0.00104097
0.00104451
0.00105035
0.00106029
0.00107526
0.00110862
0.00347949
0.00324143
0.00303147
0.00284512
0.00267876
0.00252946
0.00239483
0.00227288
0.00216197
0.0020607
0.00196793
0.00188265
0.00180402
0.00173134
0.00166398
0.00160144
0.00154328
0.00148915
0.00143878
0.00139195
0.00134854
0.00130842
0.00127156
0.00123791
0.00120744
0.00118012
0.00115587
0.00113461
0.00111619
0.00110046
0.0010872
0.00107618
0.00106716
0.00105989
0.00105411
0.00104958
0.00104609
0.00104343
0.00104143
0.00103996
0.00103888
0.00103811
0.00103756
0.00103718
0.00103693
0.00103677
0.00103668
0.00103665
0.0010367
0.00103683
0.00103709
0.00103754
0.00103832
0.00103961
0.00104177
0.00104534
0.00105114
0.00106076
0.00107478
0.0011016
0.00347949
0.00324142
0.00303143
0.00284505
0.00267866
0.00252934
0.00239469
0.00227272
0.00216179
0.00206051
0.00196772
0.00188243
0.0018038
0.00173111
0.00166375
0.00160121
0.00154305
0.00148893
0.00143857
0.00139176
0.00134836
0.00130828
0.00127144
0.00123782
0.00120738
0.00118009
0.00115588
0.00113464
0.00111626
0.00110055
0.00108731
0.00107631
0.0010673
0.00106003
0.00105426
0.00104973
0.00104624
0.00104358
0.00104158
0.00104011
0.00103903
0.00103826
0.00103772
0.00103734
0.00103709
0.00103693
0.00103684
0.00103683
0.00103688
0.00103702
0.00103729
0.00103776
0.00103856
0.00103988
0.00104206
0.00104563
0.00105139
0.00106081
0.00107459
0.00109875
0.00347949
0.00324141
0.0030314
0.002845
0.00267859
0.00252924
0.00239457
0.00227258
0.00216164
0.00206035
0.00196755
0.00188225
0.00180361
0.00173091
0.00166355
0.001601
0.00154284
0.00148872
0.00143836
0.00139156
0.00134817
0.00130809
0.00127127
0.00123767
0.00120725
0.00117997
0.00115578
0.00113456
0.0011162
0.0011005
0.00108728
0.0010763
0.0010673
0.00106005
0.00105428
0.00104975
0.00104626
0.00104361
0.00104162
0.00104014
0.00103907
0.0010383
0.00103775
0.00103738
0.00103713
0.00103697
0.00103688
0.00103687
0.00103692
0.00103707
0.00103734
0.00103782
0.00103862
0.00103994
0.00104211
0.00104564
0.0010513
0.00106042
0.00107384
0.00109621
0.00347949
0.0032414
0.00303137
0.00284495
0.00267852
0.00252916
0.00239447
0.00227247
0.00216151
0.00206021
0.00196739
0.00188209
0.00180344
0.00173074
0.00166337
0.00160082
0.00154266
0.00148853
0.00143818
0.00139138
0.001348
0.00130792
0.00127111
0.00123751
0.00120711
0.00117984
0.00115566
0.00113447
0.00111611
0.00110044
0.00108723
0.00107626
0.00106727
0.00106003
0.00105426
0.00104975
0.00104626
0.00104361
0.00104162
0.00104015
0.00103907
0.0010383
0.00103776
0.00103738
0.00103713
0.00103698
0.00103689
0.00103688
0.00103693
0.00103708
0.00103736
0.00103783
0.00103863
0.00103994
0.00104208
0.00104554
0.00105106
0.00105983
0.00107271
0.00109339
0.00347949
0.00324139
0.00303135
0.00284491
0.00267847
0.00252909
0.00239438
0.00227237
0.00216139
0.00206008
0.00196726
0.00188195
0.00180329
0.00173058
0.00166321
0.00160066
0.00154249
0.00148837
0.00143802
0.00139122
0.00134784
0.00130777
0.00127097
0.00123738
0.00120698
0.00117973
0.00115556
0.00113438
0.00111604
0.00110037
0.00108718
0.00107622
0.00106724
0.00106
0.00105425
0.00104974
0.00104625
0.0010436
0.00104162
0.00104015
0.00103907
0.0010383
0.00103776
0.00103739
0.00103713
0.00103698
0.0010369
0.00103688
0.00103694
0.00103708
0.00103736
0.00103783
0.00103862
0.00103992
0.00104203
0.00104542
0.00105077
0.00105917
0.00107144
0.00109048
0.00347948
0.00324138
0.00303134
0.00284488
0.00267842
0.00252903
0.00239431
0.00227228
0.0021613
0.00205997
0.00196715
0.00188182
0.00180316
0.00173045
0.00166307
0.00160052
0.00154235
0.00148823
0.00143788
0.00139108
0.0013477
0.00130764
0.00127084
0.00123726
0.00120687
0.00117963
0.00115547
0.0011343
0.00111597
0.00110032
0.00108713
0.00107618
0.00106721
0.00105998
0.00105423
0.00104973
0.00104625
0.0010436
0.00104161
0.00104014
0.00103907
0.0010383
0.00103776
0.00103739
0.00103713
0.00103698
0.0010369
0.00103688
0.00103694
0.00103708
0.00103736
0.00103783
0.00103861
0.00103989
0.00104197
0.00104529
0.00105049
0.00105853
0.00107018
0.00108769
0.00347948
0.00324138
0.00303132
0.00284485
0.00267838
0.00252897
0.00239424
0.00227221
0.00216121
0.00205988
0.00196705
0.00188172
0.00180305
0.00173033
0.00166295
0.00160039
0.00154223
0.0014881
0.00143775
0.00139096
0.00134758
0.00130753
0.00127073
0.00123716
0.00120677
0.00117954
0.00115539
0.00113423
0.00111591
0.00110027
0.00108709
0.00107615
0.00106719
0.00105996
0.00105422
0.00104972
0.00104624
0.00104359
0.00104161
0.00104014
0.00103907
0.0010383
0.00103776
0.00103739
0.00103713
0.00103698
0.0010369
0.00103688
0.00103694
0.00103708
0.00103735
0.00103782
0.0010386
0.00103987
0.00104192
0.00104517
0.00105022
0.00105793
0.00106899
0.00108513
0.00347948
0.00324138
0.00303131
0.00284483
0.00267835
0.00252893
0.00239419
0.00227214
0.00216114
0.0020598
0.00196696
0.00188162
0.00180295
0.00173023
0.00166285
0.00160028
0.00154212
0.001488
0.00143764
0.00139085
0.00134748
0.00130743
0.00127063
0.00123707
0.00120669
0.00117947
0.00115532
0.00113417
0.00111586
0.00110022
0.00108706
0.00107612
0.00106717
0.00105995
0.0010542
0.00104971
0.00104623
0.00104359
0.00104161
0.00104014
0.00103907
0.0010383
0.00103776
0.00103739
0.00103713
0.00103698
0.0010369
0.00103688
0.00103694
0.00103708
0.00103735
0.00103782
0.00103859
0.00103985
0.00104187
0.00104506
0.00104997
0.00105739
0.00106791
0.00108285
0.00347948
0.00324137
0.0030313
0.00284481
0.00267832
0.00252889
0.00239414
0.00227209
0.00216108
0.00205973
0.00196688
0.00188154
0.00180287
0.00173014
0.00166276
0.00160019
0.00154202
0.0014879
0.00143755
0.00139076
0.00134739
0.00130734
0.00127055
0.00123699
0.00120662
0.0011794
0.00115526
0.00113412
0.00111582
0.00110019
0.00108703
0.0010761
0.00106715
0.00105993
0.00105419
0.0010497
0.00104623
0.00104359
0.0010416
0.00104014
0.00103907
0.0010383
0.00103776
0.00103739
0.00103713
0.00103698
0.0010369
0.00103688
0.00103694
0.00103708
0.00103735
0.00103782
0.00103858
0.00103983
0.00104182
0.00104495
0.00104975
0.00105691
0.00106695
0.00108086
0.00347948
0.00324137
0.00303129
0.0028448
0.00267829
0.00252886
0.0023941
0.00227204
0.00216102
0.00205967
0.00196682
0.00188147
0.00180279
0.00173007
0.00166268
0.00160011
0.00154194
0.00148782
0.00143747
0.00139068
0.00134731
0.00130726
0.00127048
0.00123692
0.00120656
0.00117934
0.00115521
0.00113407
0.00111578
0.00110016
0.001087
0.00107607
0.00106713
0.00105992
0.00105419
0.00104969
0.00104622
0.00104358
0.0010416
0.00104014
0.00103907
0.0010383
0.00103776
0.00103739
0.00103713
0.00103698
0.0010369
0.00103688
0.00103694
0.00103708
0.00103735
0.00103781
0.00103857
0.00103981
0.00104178
0.00104486
0.00104955
0.00105648
0.00106609
0.00107914
0.00347948
0.00324137
0.00303129
0.00284479
0.00267827
0.00252883
0.00239407
0.002272
0.00216098
0.00205962
0.00196676
0.00188141
0.00180273
0.00173
0.00166261
0.00160004
0.00154187
0.00148775
0.0014374
0.00139061
0.00134725
0.0013072
0.00127042
0.00123686
0.0012065
0.00117929
0.00115517
0.00113403
0.00111574
0.00110013
0.00108698
0.00107606
0.00106712
0.00105991
0.00105418
0.00104969
0.00104622
0.00104358
0.0010416
0.00104014
0.00103907
0.0010383
0.00103776
0.00103739
0.00103714
0.00103698
0.0010369
0.00103688
0.00103694
0.00103708
0.00103735
0.00103781
0.00103857
0.00103979
0.00104174
0.00104478
0.00104937
0.0010561
0.00106536
0.00107767
0.00347948
0.00324137
0.00303128
0.00284478
0.00267826
0.00252881
0.00239404
0.00227197
0.00216094
0.00205958
0.00196672
0.00188137
0.00180268
0.00172995
0.00166255
0.00159999
0.00154182
0.00148769
0.00143734
0.00139056
0.00134719
0.00130715
0.00127037
0.00123682
0.00120646
0.00117925
0.00115514
0.001134
0.00111572
0.00110011
0.00108696
0.00107604
0.00106711
0.0010599
0.00105417
0.00104968
0.00104622
0.00104358
0.0010416
0.00104014
0.00103907
0.0010383
0.00103776
0.00103739
0.00103714
0.00103698
0.0010369
0.00103688
0.00103694
0.00103708
0.00103735
0.00103781
0.00103856
0.00103978
0.00104171
0.00104471
0.00104922
0.00105578
0.00106472
0.00107643
0.00347948
0.00324137
0.00303128
0.00284477
0.00267825
0.00252879
0.00239402
0.00227194
0.00216091
0.00205954
0.00196668
0.00188132
0.00180264
0.0017299
0.00166251
0.00159994
0.00154177
0.00148764
0.00143729
0.00139051
0.00134714
0.0013071
0.00127033
0.00123678
0.00120642
0.00117922
0.00115511
0.00113398
0.0011157
0.00110009
0.00108694
0.00107603
0.0010671
0.00105989
0.00105417
0.00104968
0.00104621
0.00104358
0.0010416
0.00104013
0.00103907
0.0010383
0.00103776
0.00103739
0.00103714
0.00103698
0.0010369
0.00103688
0.00103694
0.00103708
0.00103735
0.0010378
0.00103856
0.00103977
0.00104168
0.00104465
0.00104909
0.00105551
0.0010642
0.0010754
0.00347948
0.00324137
0.00303128
0.00284476
0.00267824
0.00252878
0.002394
0.00227192
0.00216088
0.00205952
0.00196665
0.00188129
0.00180261
0.00172987
0.00166247
0.0015999
0.00154173
0.00148761
0.00143726
0.00139047
0.00134711
0.00130707
0.00127029
0.00123675
0.00120639
0.0011792
0.00115508
0.00113396
0.00111568
0.00110007
0.00108693
0.00107602
0.00106709
0.00105989
0.00105416
0.00104968
0.00104621
0.00104358
0.0010416
0.00104013
0.00103907
0.0010383
0.00103776
0.00103739
0.00103714
0.00103698
0.0010369
0.00103688
0.00103694
0.00103708
0.00103735
0.0010378
0.00103855
0.00103976
0.00104166
0.0010446
0.00104899
0.00105529
0.00106377
0.00107456
0.00347948
0.00324137
0.00303127
0.00284476
0.00267823
0.00252877
0.00239399
0.0022719
0.00216087
0.0020595
0.00196663
0.00188127
0.00180258
0.00172984
0.00166245
0.00159988
0.0015417
0.00148758
0.00143723
0.00139045
0.00134708
0.00130704
0.00127027
0.00123672
0.00120637
0.00117918
0.00115507
0.00113394
0.00111566
0.00110006
0.00108692
0.00107601
0.00106709
0.00105988
0.00105416
0.00104967
0.00104621
0.00104358
0.0010416
0.00104013
0.00103907
0.0010383
0.00103776
0.00103739
0.00103714
0.00103698
0.0010369
0.00103688
0.00103694
0.00103708
0.00103735
0.0010378
0.00103855
0.00103975
0.00104164
0.00104456
0.00104891
0.00105513
0.00106344
0.00107391
0.00347948
0.00324137
0.00303127
0.00284475
0.00267822
0.00252876
0.00239398
0.00227189
0.00216085
0.00205948
0.00196661
0.00188125
0.00180256
0.00172983
0.00166243
0.00159986
0.00154168
0.00148756
0.00143721
0.00139043
0.00134707
0.00130703
0.00127025
0.00123671
0.00120636
0.00117916
0.00115505
0.00113393
0.00111566
0.00110005
0.00108692
0.00107601
0.00106708
0.00105988
0.00105416
0.00104967
0.00104621
0.00104357
0.0010416
0.00104013
0.00103907
0.0010383
0.00103776
0.00103739
0.00103714
0.00103698
0.0010369
0.00103688
0.00103694
0.00103708
0.00103734
0.0010378
0.00103854
0.00103974
0.00104163
0.00104453
0.00104885
0.00105501
0.0010632
0.00107344
0.00347948
0.00324137
0.00303127
0.00284475
0.00267822
0.00252876
0.00239397
0.00227189
0.00216085
0.00205948
0.00196661
0.00188125
0.00180256
0.00172982
0.00166242
0.00159985
0.00154168
0.00148755
0.0014372
0.00139042
0.00134706
0.00130702
0.00127025
0.0012367
0.00120635
0.00117916
0.00115505
0.00113393
0.00111565
0.00110005
0.00108691
0.00107601
0.00106708
0.00105988
0.00105416
0.00104967
0.00104621
0.00104357
0.0010416
0.00104013
0.00103907
0.0010383
0.00103776
0.00103739
0.00103714
0.00103698
0.0010369
0.00103688
0.00103694
0.00103708
0.00103734
0.0010378
0.00103854
0.00103974
0.00104162
0.00104452
0.00104882
0.00105494
0.00106306
0.00107313
0.00347948
0.00324137
0.00303127
0.00284475
0.00267822
0.00252876
0.00239397
0.00227189
0.00216085
0.00205948
0.00196661
0.00188125
0.00180256
0.00172982
0.00166242
0.00159985
0.00154168
0.00148755
0.0014372
0.00139042
0.00134706
0.00130702
0.00127025
0.0012367
0.00120635
0.00117916
0.00115505
0.00113393
0.00111565
0.00110005
0.00108691
0.00107601
0.00106708
0.00105988
0.00105416
0.00104967
0.00104621
0.00104357
0.0010416
0.00104013
0.00103907
0.0010383
0.00103776
0.00103739
0.00103714
0.00103698
0.0010369
0.00103688
0.00103694
0.00103708
0.00103734
0.0010378
0.00103854
0.00103974
0.00104162
0.00104451
0.00104881
0.00105492
0.00106301
0.00107299
0.00347948
0.00324137
0.00303127
0.00284475
0.00267822
0.00252876
0.00239398
0.00227189
0.00216085
0.00205948
0.00196661
0.00188125
0.00180256
0.00172983
0.00166243
0.00159986
0.00154169
0.00148756
0.00143721
0.00139043
0.00134707
0.00130703
0.00127025
0.00123671
0.00120636
0.00117916
0.00115506
0.00113393
0.00111566
0.00110006
0.00108692
0.00107601
0.00106708
0.00105988
0.00105416
0.00104967
0.00104621
0.00104357
0.0010416
0.00104013
0.00103907
0.0010383
0.00103776
0.00103739
0.00103714
0.00103698
0.0010369
0.00103688
0.00103694
0.00103708
0.00103734
0.0010378
0.00103854
0.00103974
0.00104162
0.00104452
0.00104883
0.00105496
0.00106305
0.00107301
0.00347948
0.00324137
0.00303127
0.00284476
0.00267823
0.00252877
0.00239399
0.0022719
0.00216087
0.0020595
0.00196663
0.00188127
0.00180258
0.00172984
0.00166245
0.00159988
0.0015417
0.00148758
0.00143723
0.00139045
0.00134708
0.00130704
0.00127027
0.00123673
0.00120638
0.00117918
0.00115507
0.00113394
0.00111567
0.00110006
0.00108692
0.00107602
0.00106709
0.00105989
0.00105416
0.00104968
0.00104621
0.00104358
0.0010416
0.00104013
0.00103907
0.0010383
0.00103776
0.00103739
0.00103714
0.00103698
0.0010369
0.00103688
0.00103694
0.00103708
0.00103734
0.0010378
0.00103854
0.00103974
0.00104163
0.00104454
0.00104887
0.00105504
0.00106319
0.00107321
0.00347948
0.00324137
0.00303128
0.00284476
0.00267824
0.00252878
0.002394
0.00227192
0.00216088
0.00205952
0.00196665
0.00188129
0.00180261
0.00172987
0.00166247
0.0015999
0.00154173
0.00148761
0.00143726
0.00139047
0.00134711
0.00130707
0.0012703
0.00123675
0.0012064
0.0011792
0.00115508
0.00113396
0.00111568
0.00110007
0.00108693
0.00107602
0.00106709
0.00105989
0.00105416
0.00104968
0.00104621
0.00104358
0.0010416
0.00104013
0.00103907
0.0010383
0.00103776
0.00103739
0.00103714
0.00103698
0.0010369
0.00103688
0.00103694
0.00103708
0.00103734
0.0010378
0.00103854
0.00103974
0.00104164
0.00104457
0.00104894
0.00105518
0.00106343
0.00107358
0.00347948
0.00324137
0.00303128
0.00284477
0.00267825
0.00252879
0.00239402
0.00227194
0.00216091
0.00205954
0.00196668
0.00188133
0.00180264
0.0017299
0.00166251
0.00159994
0.00154177
0.00148765
0.00143729
0.00139051
0.00134715
0.00130711
0.00127033
0.00123678
0.00120643
0.00117922
0.00115511
0.00113398
0.0011157
0.00110009
0.00108695
0.00107603
0.0010671
0.0010599
0.00105417
0.00104968
0.00104622
0.00104358
0.0010416
0.00104014
0.00103907
0.0010383
0.00103776
0.00103739
0.00103714
0.00103698
0.0010369
0.00103688
0.00103694
0.00103708
0.00103734
0.0010378
0.00103854
0.00103975
0.00104166
0.00104461
0.00104903
0.00105537
0.00106377
0.00107414
0.00347948
0.00324137
0.00303128
0.00284478
0.00267826
0.00252881
0.00239404
0.00227197
0.00216094
0.00205958
0.00196672
0.00188137
0.00180268
0.00172995
0.00166255
0.00159999
0.00154182
0.00148769
0.00143734
0.00139056
0.00134719
0.00130715
0.00127037
0.00123682
0.00120646
0.00117926
0.00115514
0.00113401
0.00111572
0.00110011
0.00108696
0.00107605
0.00106711
0.0010599
0.00105417
0.00104968
0.00104622
0.00104358
0.0010416
0.00104014
0.00103907
0.0010383
0.00103776
0.00103739
0.00103714
0.00103698
0.0010369
0.00103688
0.00103694
0.00103708
0.00103734
0.0010378
0.00103855
0.00103976
0.00104168
0.00104466
0.00104915
0.00105562
0.00106422
0.00107491
0.00347948
0.00324137
0.00303129
0.00284479
0.00267827
0.00252883
0.00239407
0.002272
0.00216098
0.00205962
0.00196676
0.00188141
0.00180273
0.00173
0.00166261
0.00160004
0.00154187
0.00148775
0.0014374
0.00139061
0.00134725
0.0013072
0.00127042
0.00123687
0.00120651
0.0011793
0.00115518
0.00113404
0.00111575
0.00110013
0.00108698
0.00107606
0.00106712
0.00105991
0.00105418
0.00104969
0.00104622
0.00104358
0.0010416
0.00104014
0.00103907
0.0010383
0.00103776
0.00103739
0.00103714
0.00103698
0.0010369
0.00103688
0.00103694
0.00103708
0.00103734
0.0010378
0.00103855
0.00103977
0.0010417
0.00104473
0.0010493
0.00105592
0.00106478
0.00107589
0.00347948
0.00324137
0.00303129
0.0028448
0.00267829
0.00252886
0.0023941
0.00227204
0.00216102
0.00205967
0.00196682
0.00188147
0.0018028
0.00173007
0.00166268
0.00160011
0.00154194
0.00148782
0.00143747
0.00139068
0.00134731
0.00130727
0.00127048
0.00123692
0.00120656
0.00117935
0.00115522
0.00113408
0.00111578
0.00110016
0.001087
0.00107608
0.00106714
0.00105992
0.00105419
0.00104969
0.00104623
0.00104358
0.0010416
0.00104014
0.00103907
0.0010383
0.00103776
0.00103739
0.00103714
0.00103698
0.0010369
0.00103688
0.00103694
0.00103708
0.00103734
0.0010378
0.00103855
0.00103978
0.00104173
0.0010448
0.00104947
0.00105629
0.00106547
0.00107713
0.00347948
0.00324137
0.0030313
0.00284481
0.00267832
0.00252889
0.00239414
0.00227209
0.00216108
0.00205973
0.00196688
0.00188154
0.00180287
0.00173014
0.00166276
0.00160019
0.00154202
0.0014879
0.00143755
0.00139076
0.00134739
0.00130734
0.00127055
0.00123699
0.00120662
0.0011794
0.00115527
0.00113412
0.00111582
0.00110019
0.00108703
0.0010761
0.00106715
0.00105994
0.0010542
0.0010497
0.00104623
0.00104359
0.00104161
0.00104014
0.00103907
0.0010383
0.00103776
0.00103739
0.00103714
0.00103698
0.0010369
0.00103688
0.00103694
0.00103708
0.00103734
0.0010378
0.00103856
0.00103979
0.00104177
0.00104489
0.00104967
0.00105673
0.00106629
0.00107865
0.00347948
0.00324138
0.00303131
0.00284483
0.00267835
0.00252893
0.00239419
0.00227214
0.00216114
0.0020598
0.00196696
0.00188162
0.00180295
0.00173023
0.00166285
0.00160029
0.00154212
0.001488
0.00143764
0.00139086
0.00134748
0.00130743
0.00127064
0.00123707
0.0012067
0.00117947
0.00115533
0.00113417
0.00111587
0.00110023
0.00108706
0.00107613
0.00106717
0.00105995
0.00105421
0.00104971
0.00104624
0.00104359
0.00104161
0.00104014
0.00103907
0.0010383
0.00103776
0.00103739
0.00103714
0.00103698
0.0010369
0.00103688
0.00103694
0.00103708
0.00103734
0.0010378
0.00103856
0.0010398
0.00104181
0.00104499
0.00104989
0.00105724
0.00106726
0.00108049
0.00347948
0.00324138
0.00303132
0.00284485
0.00267838
0.00252897
0.00239424
0.00227221
0.00216121
0.00205988
0.00196705
0.00188172
0.00180305
0.00173033
0.00166295
0.00160039
0.00154223
0.00148811
0.00143775
0.00139096
0.00134759
0.00130753
0.00127073
0.00123716
0.00120678
0.00117955
0.0011554
0.00113423
0.00111592
0.00110028
0.0010871
0.00107615
0.0010672
0.00105997
0.00105422
0.00104972
0.00104624
0.0010436
0.00104161
0.00104014
0.00103907
0.00103831
0.00103776
0.00103739
0.00103714
0.00103698
0.0010369
0.00103688
0.00103694
0.00103708
0.00103734
0.0010378
0.00103857
0.00103982
0.00104185
0.0010451
0.00105015
0.00105782
0.00106838
0.00108273
0.00347948
0.00324138
0.00303134
0.00284488
0.00267842
0.00252903
0.00239431
0.00227228
0.0021613
0.00205998
0.00196715
0.00188182
0.00180316
0.00173045
0.00166307
0.00160052
0.00154235
0.00148823
0.00143788
0.00139108
0.00134771
0.00130765
0.00127084
0.00123726
0.00120688
0.00117964
0.00115548
0.0011343
0.00111598
0.00110033
0.00108714
0.00107619
0.00106722
0.00105999
0.00105423
0.00104973
0.00104625
0.0010436
0.00104161
0.00104015
0.00103908
0.00103831
0.00103776
0.00103739
0.00103714
0.00103698
0.0010369
0.00103688
0.00103694
0.00103708
0.00103734
0.00103781
0.00103857
0.00103984
0.00104189
0.00104521
0.00105043
0.00105849
0.00106968
0.00108543
0.00347949
0.00324139
0.00303135
0.00284491
0.00267847
0.00252909
0.00239438
0.00227237
0.0021614
0.00206008
0.00196726
0.00188195
0.00180329
0.00173058
0.00166321
0.00160066
0.00154249
0.00148837
0.00143802
0.00139122
0.00134784
0.00130778
0.00127097
0.00123738
0.00120699
0.00117974
0.00115557
0.00113438
0.00111605
0.00110038
0.00108719
0.00107622
0.00106725
0.00106001
0.00105425
0.00104974
0.00104626
0.00104361
0.00104162
0.00104015
0.00103908
0.00103831
0.00103776
0.00103739
0.00103714
0.00103698
0.0010369
0.00103688
0.00103694
0.00103708
0.00103734
0.00103781
0.00103858
0.00103985
0.00104194
0.00104534
0.00105074
0.00105925
0.00107117
0.00108871
0.00347949
0.0032414
0.00303137
0.00284495
0.00267852
0.00252916
0.00239447
0.00227247
0.00216151
0.00206021
0.0019674
0.00188209
0.00180344
0.00173074
0.00166337
0.00160082
0.00154266
0.00148854
0.00143818
0.00139138
0.001348
0.00130793
0.00127111
0.00123752
0.00120711
0.00117985
0.00115567
0.00113447
0.00111612
0.00110045
0.00108724
0.00107627
0.00106728
0.00106003
0.00105427
0.00104975
0.00104626
0.00104361
0.00104162
0.00104015
0.00103908
0.00103831
0.00103776
0.00103739
0.00103714
0.00103698
0.0010369
0.00103688
0.00103693
0.00103708
0.00103734
0.00103781
0.00103858
0.00103987
0.00104199
0.00104548
0.00105108
0.0010601
0.00107288
0.00109271
0.00347949
0.00324141
0.0030314
0.002845
0.00267859
0.00252924
0.00239457
0.00227258
0.00216164
0.00206035
0.00196755
0.00188225
0.00180361
0.00173091
0.00166355
0.001601
0.00154284
0.00148872
0.00143837
0.00139157
0.00134818
0.0013081
0.00127128
0.00123767
0.00120725
0.00117998
0.00115578
0.00113457
0.00111621
0.00110052
0.00108729
0.00107631
0.00106731
0.00106005
0.00105428
0.00104976
0.00104627
0.00104361
0.00104162
0.00104015
0.00103907
0.0010383
0.00103776
0.00103738
0.00103713
0.00103697
0.00103689
0.00103687
0.00103693
0.00103707
0.00103734
0.0010378
0.00103858
0.00103988
0.00104203
0.00104561
0.00105144
0.00106106
0.00107482
0.00109763
0.00347949
0.00324142
0.00303143
0.00284505
0.00267866
0.00252934
0.00239469
0.00227272
0.00216179
0.00206051
0.00196772
0.00188243
0.0018038
0.00173111
0.00166375
0.00160121
0.00154305
0.00148893
0.00143857
0.00139177
0.00134837
0.00130828
0.00127145
0.00123783
0.00120739
0.0011801
0.00115589
0.00113466
0.00111627
0.00110056
0.00108732
0.00107632
0.00106731
0.00106004
0.00105426
0.00104974
0.00104624
0.00104358
0.00104159
0.00104012
0.00103904
0.00103827
0.00103773
0.00103735
0.0010371
0.00103694
0.00103686
0.00103684
0.0010369
0.00103704
0.00103731
0.00103777
0.00103856
0.00103987
0.00104206
0.00104573
0.0010518
0.0010621
0.00107704
0.00110375
0.00347949
0.00324143
0.00303147
0.00284512
0.00267876
0.00252946
0.00239483
0.00227288
0.00216197
0.0020607
0.00196793
0.00188265
0.00180403
0.00173134
0.00166398
0.00160144
0.00154328
0.00148915
0.00143878
0.00139196
0.00134854
0.00130843
0.00127157
0.00123792
0.00120745
0.00118013
0.00115588
0.00113462
0.00111621
0.00110047
0.00108721
0.0010762
0.00106718
0.0010599
0.00105412
0.00104959
0.0010461
0.00104344
0.00104144
0.00103997
0.0010389
0.00103813
0.00103758
0.00103721
0.00103696
0.0010368
0.00103672
0.0010367
0.00103676
0.0010369
0.00103717
0.00103764
0.00103843
0.00103976
0.00104198
0.00104576
0.0010521
0.00106318
0.0010795
0.00111143
0.00347949
0.00324145
0.00303152
0.0028452
0.00267887
0.0025296
0.00239499
0.00227307
0.00216217
0.00206093
0.00196816
0.00188289
0.00180427
0.00173158
0.00166421
0.00160164
0.00154345
0.00148929
0.00143887
0.001392
0.00134852
0.00130834
0.0012714
0.00123768
0.00120713
0.00117973
0.00115542
0.0011341
0.00111564
0.00109988
0.0010866
0.00107558
0.00106657
0.0010593
0.00105353
0.00104902
0.00104554
0.00104289
0.0010409
0.00103944
0.00103837
0.0010376
0.00103706
0.00103669
0.00103644
0.00103628
0.0010362
0.00103619
0.00103625
0.00103639
0.00103667
0.00103714
0.00103794
0.00103929
0.00104156
0.00104544
0.00105208
0.00106404
0.00108206
0.0011211
0.00347949
0.00324148
0.00303159
0.00284531
0.00267901
0.00252978
0.0023952
0.00227331
0.00216243
0.0020612
0.00196844
0.00188315
0.0018045
0.00173175
0.00166431
0.00160165
0.00154334
0.00148904
0.00143846
0.00139141
0.00134773
0.00130735
0.0012702
0.00123627
0.00120554
0.00117798
0.00115353
0.00113212
0.00111362
0.00109785
0.0010846
0.00107364
0.0010647
0.00105751
0.00105182
0.00104737
0.00104394
0.00104134
0.00103939
0.00103795
0.0010369
0.00103614
0.00103561
0.00103524
0.001035
0.00103484
0.00103476
0.00103475
0.00103481
0.00103495
0.00103523
0.00103571
0.00103651
0.00103787
0.00104017
0.00104415
0.0010511
0.00106399
0.00108412
0.00113294
0.0034795
0.00324152
0.00303169
0.00284547
0.00267923
0.00253007
0.00239558
0.00227374
0.00216291
0.00206169
0.00196889
0.00188352
0.00180473
0.00173178
0.00166408
0.0016011
0.00154243
0.00148771
0.00143669
0.00138918
0.00134504
0.0013042
0.00126664
0.00123234
0.00120132
0.00117356
0.00114903
0.00112765
0.00110928
0.00109373
0.00108077
0.00107012
0.00106149
0.00105459
0.00104914
0.0010449
0.00104163
0.00103915
0.00103729
0.0010359