/*--------------------------------*- C++ -*----------------------------------*\
| =========                 |                                                 |
| \\      /  F ield         | OpenFOAM: The Open Source CFD Toolbox           |
|  \\    /   O peration     | Version:  2.4.0                                 |
|   \\  /    A nd           | Web:      www.OpenFOAM.org                      |
|    \\/     M anipulation  |                                                 |
\*---------------------------------------------------------------------------*/
FoamFile
{
    version     2.0;
    format      ascii;
    class       volScalarField;
    location    "0.51";
    object      p;
}
// * * * * * * * * * * * * * * * * * * * * * * * * * * * * * * * * * * * * * //

dimensions      [0 2 -2 0 0 0 0];

internalField   nonuniform List<scalar> 
2320
(
1.51783
1.49423
1.48723
1.50186
1.48917
1.47575
1.47259
1.45755
1.45618
1.46287
1.44375
1.45566
1.4628
1.4545
1.45427
1.44143
1.43525
1.44086
1.40706
1.39412
1.51825
1.49601
1.4862
1.49606
1.48713
1.47716
1.46695
1.45563
1.45273
1.45635
1.43893
1.44442
1.46447
1.4602
1.44081
1.42714
1.4041
1.40761
1.40922
1.36602
1.51848
1.49587
1.48341
1.49592
1.48523
1.46372
1.46022
1.45487
1.46494
1.4422
1.43327
1.4732
1.46287
1.44041
1.45155
1.45823
1.42833
1.41707
1.35038
1.35867
1.52199
1.50015
1.48535
1.49096
1.45991
1.44144
1.46217
1.45454
1.45955
1.44684
1.42734
1.43438
1.41355
1.44205
1.46286
1.44299
1.44145
1.43544
1.39078
1.38067
1.52484
1.49853
1.48494
1.48789
1.46043
1.45472
1.46883
1.45518
1.46113
1.43842
1.42914
1.46545
1.46496
1.4528
1.46215
1.45985
1.44249
1.43027
1.39636
1.37836
1.52766
1.50203
1.48904
1.48415
1.46188
1.45158
1.46001
1.44613
1.44331
1.42793
1.42678
1.4531
1.45505
1.44766
1.45435
1.43995
1.44661
1.43496
1.41122
1.37851
1.53506
1.50565
1.48956
1.49147
1.4645
1.43736
1.45615
1.43075
1.43196
1.43625
1.44602
1.446
1.45028
1.46089
1.4638
1.45307
1.45227
1.44879
1.42173
1.39913
1.53814
1.51272
1.50263
1.49554
1.4732
1.43808
1.4404
1.42892
1.42807
1.43471
1.43311
1.44106
1.45297
1.46947
1.46727
1.44575
1.45633
1.45519
1.43713
1.42074
1.54548
1.51767
1.51016
1.49954
1.48075
1.44096
1.43587
1.42067
1.4348
1.42873
1.43441
1.44727
1.45868
1.47336
1.46954
1.45164
1.4632
1.47358
1.447
1.44125
1.55077
1.5245
1.51402
1.50754
1.48997
1.45131
1.42659
1.41671
1.4127
1.43083
1.44176
1.4581
1.4689
1.48192
1.47675
1.45741
1.48215
1.47511
1.46016
1.45072
1.56358
1.52696
1.51969
1.50948
1.48258
1.43857
1.41347
1.39739
1.41004
1.41845
1.43544
1.45755
1.48151
1.48978
1.48844
1.47741
1.49571
1.49423
1.47827
1.46449
1.57729
1.53983
1.52945
1.51908
1.48067
1.43007
1.39328
1.37492
1.38809
1.41147
1.43241
1.46827
1.47918
1.49887
1.50012
1.50628
1.50809
1.50841
1.49023
1.49009
1.59329
1.55713
1.55212
1.53986
1.48796
1.42148
1.36211
1.34382
1.38254
1.39903
1.43388
1.46431
1.48961
1.49508
1.50898
1.51108
1.52466
1.51944
1.50056
1.50255
1.59977
1.5736
1.56647
1.55817
1.48767
1.4114
1.31853
1.30944
1.33128
1.37531
1.42785
1.48213
1.49214
1.50872
1.51507
1.53402
1.53097
1.53029
1.53005
1.53043
1.61642
1.58513
1.57844
1.57595
1.50399
1.38769
1.23977
1.23877
1.3028
1.34129
1.43208
1.47637
1.49977
1.51254
1.52197
1.52015
1.53397
1.54563
1.54387
1.53915
1.62777
1.60225
1.59646
1.58668
1.5142
1.34612
1.12965
1.18622
1.25102
1.29308
1.45882
1.50387
1.50412
1.52948
1.52267
1.55045
1.53997
1.55245
1.56366
1.64343
1.64488
1.6126
1.62004
1.59937
1.52131
1.29471
0.983589
1.11653
1.18799
1.228
1.47562
1.51259
1.51568
1.54562
1.53728
1.55395
1.55004
1.57931
1.56444
1.62444
1.6569
1.63616
1.6594
1.63847
1.56347
1.26002
0.924568
1.102
1.11511
1.19001
1.54767
1.50922
1.53169
1.59149
1.54733
1.57952
1.55115
1.57513
1.55023
1.77157
1.66796
1.64587
1.6998
1.68817
1.6066
1.36262
0.943397
1.14515
1.0721
1.1603
1.57937
1.55997
1.55246
1.5994
1.55639
1.58246
1.56993
1.62763
1.49014
1.77481
1.67427
1.67056
1.72433
1.71166
1.60403
1.40666
1.04305
1.16637
1.09017
1.22314
1.57769
1.52941
1.5698
1.59916
1.55644
1.5875
1.56059
1.60641
1.52925
1.94265
1.34452
1.2808
1.22498
1.20739
1.02882
1.00762
0.808365
0.546281
1.30353
1.2452
1.17634
1.19514
1.05839
0.936283
0.741032
0.481195
1.32617
1.29454
1.22161
1.18517
1.08429
0.958848
0.733732
0.537289
1.35105
1.30975
1.24326
1.18173
1.10117
0.970339
0.763006
0.607895
1.35675
1.30923
1.22862
1.18956
1.10463
0.982902
0.789715
0.622428
1.35698
1.33599
1.26312
1.20503
1.11981
0.989727
0.809019
0.636583
1.3726
1.33295
1.27275
1.21529
1.13458
1.01004
0.832717
0.658322
1.38542
1.34967
1.2908
1.25119
1.15044
1.02274
0.850101
0.663801
1.40728
1.36658
1.30378
1.24142
1.1618
1.02718
0.857572
0.658972
1.42899
1.3739
1.33875
1.28876
1.17078
1.03997
0.870483
0.661618
1.45596
1.38604
1.32556
1.26544
1.17906
1.04587
0.871887
0.676352
1.4863
1.40327
1.36997
1.28458
1.18879
1.0553
0.889158
0.691811
1.49534
1.40282
1.37979
1.29977
1.21264
1.07706
0.91573
0.720404
1.54201
1.42098
1.39406
1.31915
1.22482
1.0995
0.952922
0.761337
1.56171
1.45436
1.41606
1.34096
1.24686
1.13198
0.977795
0.797225
1.64546
1.49087
1.44964
1.37647
1.2744
1.16036
1.03813
0.828706
1.72085
1.52024
1.47654
1.4004
1.31083
1.19424
1.0772
0.900729
1.81718
1.57817
1.5183
1.43154
1.33772
1.23176
1.12189
0.919797
1.89735
1.60613
1.53669
1.43778
1.35669
1.25885
1.1789
0.993459
1.93118
1.6077
1.54436
1.44545
1.37583
1.29667
1.2379
1.16507
0.25902
-0.0702391
-0.605707
-1.06608
-1.86444
-2.89707
-3.91941
-5.19299
-6.42343
-7.49655
-8.56065
-9.519
-10.2508
-10.7072
-10.8532
-10.6128
-10.0861
-9.27596
-8.29501
-7.11888
-5.90002
-4.70683
-3.64043
-2.6381
-1.67043
-1.12546
-0.635838
-0.334412
0.285846
-0.0547967
-0.622812
-1.17461
-1.92329
-2.91323
-3.97646
-5.23655
-6.447
-7.56438
-8.62219
-9.60214
-10.3384
-10.7972
-10.9446
-10.7032
-10.1827
-9.36738
-8.35669
-7.14628
-5.86204
-4.69257
-3.64625
-2.67502
-1.84459
-1.24392
-0.673356
-0.402061
0.307968
-0.0569207
-0.533299
-1.21535
-1.99011
-2.91849
-4.0937
-5.33728
-6.51476
-7.66531
-8.77401
-9.75836
-10.5373
-10.957
-11.0889
-10.8943
-10.3273
-9.50177
-8.48369
-7.23018
-5.93275
-4.68676
-3.62306
-2.64529
-1.84739
-1.23738
-0.668502
-0.292269
0.317221
-0.115427
-0.508931
-1.20258
-2.0016
-2.94407
-4.19705
-5.49155
-6.64588
-7.84792
-8.96637
-10.0074
-10.7962
-11.1964
-11.3669
-11.1571
-10.5745
-9.70673
-8.62766
-7.36124
-6.03302
-4.77619
-3.64796
-2.65479
-1.80499
-1.1095
-0.572608
-0.194538
0.313441
-0.142648
-0.488204
-1.20661
-2.04347
-3.04033
-4.36878
-5.68362
-6.85163
-8.04949
-9.2372
-10.3353
-11.1234
-11.5329
-11.708
-11.5116
-10.8816
-9.97967
-8.88021
-7.55185
-6.16709
-4.85055
-3.64724
-2.65393
-1.80179
-1.10731
-0.51165
-0.0791204
0.330917
-0.147204
-0.506624
-1.19248
-2.11483
-3.21696
-4.56363
-5.92189
-7.11948
-8.30188
-9.58344
-10.7239
-11.5087
-11.9759
-12.1688
-11.9228
-11.2625
-10.314
-9.18312
-7.81573
-6.3491
-4.96035
-3.72104
-2.68652
-1.78613
-1.0403
-0.44414
-0.00845934
0.359573
-0.132266
-0.534436
-1.18508
-2.21561
-3.42104
-4.79168
-6.17225
-7.37813
-8.5738
-9.96916
-11.1365
-11.9551
-12.4853
-12.669
-12.3927
-11.7013
-10.7039
-9.51388
-8.08361
-6.54066
-5.08357
-3.80651
-2.72747
-1.75335
-0.975792
-0.373214
0.0758096
0.361301
-0.111048
-0.53513
-1.18192
-2.31213
-3.63577
-5.02866
-6.40114
-7.61244
-8.91412
-10.3474
-11.547
-12.4565
-13.0202
-13.1629
-12.8686
-12.162
-11.1472
-9.88849
-8.36279
-6.74528
-5.22721
-3.8788
-2.74121
-1.73605
-0.927164
-0.284052
0.176105
0.353718
-0.0930648
-0.524602
-1.19845
-2.41236
-3.81111
-5.2252
-6.58668
-7.81813
-9.26162
-10.7267
-11.9438
-12.923
-13.5033
-13.639
-13.3208
-12.5449
-11.4959
-10.217
-8.62329
-6.92274
-5.34968
-3.96262
-2.74715
-1.69496
-0.860328
-0.212895
0.252798
0.365955
-0.0637517
-0.497763
-1.19714
-2.45351
-3.89399
-5.33441
-6.70744
-8.0017
-9.53635
-11.0584
-12.3403
-13.3017
-13.8608
-14.0701
-13.7038
-12.9088
-11.8286
-10.4608
-8.83783
-7.09176
-5.44355
-4.01935
-2.74509
-1.65327
-0.783849
-0.122152
0.332468
0.37747
-0.0370803
-0.474361
-1.20151
-2.48723
-3.92787
-5.35941
-6.76643
-8.16751
-9.76481
-11.3186
-12.6467
-13.5827
-14.1569
-14.3609
-13.9048
-13.1635
-12.0759
-10.6498
-8.99197
-7.17552
-5.48895
-4.0313
-2.74867
-1.61549
-0.693412
-0.0325162
0.426497
0.404322
-0.00625196
-0.440678
-1.15939
-2.43585
-3.89458
-5.3505
-6.77123
-8.25401
-9.93403
-11.4888
-12.8246
-13.7488
-14.3384
-14.567
-14.117
-13.3935
-12.1839
-10.7272
-9.08748
-7.21203
-5.47586
-3.98647
-2.73542
-1.55774
-0.604696
0.054184
0.527101
0.44218
0.0659359
-0.383418
-1.08468
-2.279
-3.7312
-5.2387
-6.73136
-8.27155
-10.0191
-11.5721
-12.8623
-13.797
-14.4003
-14.5274
-14.123
-13.452
-12.2231
-10.7502
-9.02868
-7.15051
-5.46126
-3.93158
-2.71864
-1.457
-0.48443
0.142982
0.630398
0.476978
0.127357
-0.297343
-0.98804
-2.1201
-3.50329
-5.02691
-6.61374
-8.21659
-9.97099
-11.5657
-12.8265
-13.7223
-14.3437
-14.5056
-14.0826
-13.3381
-12.1373
-10.6936
-8.9139
-7.03849
-5.35538
-3.87419
-2.68585
-1.32271
-0.379624
0.264165
0.7339
0.5572
0.201971
-0.193703
-0.822765
-1.92053
-3.29009
-4.80866
-6.42762
-8.11765
-9.85268
-11.396
-12.6582
-13.585
-14.1788
-14.2831
-13.9403
-13.1686
-11.9679
-10.5241
-8.7561
-6.90566
-5.2424
-3.80935
-2.60967
-1.1627
-0.293082
0.354677
0.802152
0.605053
0.345549
-0.0124602
-0.6712
-1.73802
-3.05119
-4.56645
-6.20279
-7.95183
-9.68993
-11.2256
-12.4484
-13.3759
-13.9556
-14.0519
-13.7158
-12.9311
-11.7443
-10.304
-8.56112
-6.73698
-5.10754
-3.7248
-2.4665
-1.05251
-0.181484
0.456104
0.86089
0.68089
0.422404
0.108849
-0.540419
-1.58092
-2.85539
-4.34667
-5.95512
-7.72176
-9.45182
-10.9988
-12.228
-13.1457
-13.6964
-13.798
-13.4637
-12.6541
-11.494
-10.0586
-8.3364
-6.54607
-4.95428
-3.60638
-2.32634
-0.928766
-0.0960646
0.492493
0.915463
0.740444
0.558576
0.221362
-0.432117
-1.42942
-2.6742
-4.16459
-5.80021
-7.53258
-9.23948
-10.7838
-12.0097
-12.9144
-13.4558
-13.5661
-13.2099
-12.3899
-11.2518
-9.82753
-8.11878
-6.37272
-4.84547
-3.51616
-2.18872
-0.823195
-0.0475067
0.52143
0.95486
0.703876
0.435272
0.233678
-0.318905
-1.30903
-2.51457
-3.98135
-5.61001
-7.36367
-9.07272
-10.6138
-11.8387
-12.737
-13.2765
-13.3833
-12.9981
-12.1703
-11.0568
-9.62946
-7.9688
-6.25811
-4.7822
-3.45842
-2.07118
-0.747489
-0.0236471
0.540143
0.983466
0.914968
0.49759
0.157227
-0.353016
-1.28806
-2.44652
-3.88469
-5.518
-7.26956
-8.96782
-10.5197
-11.7371
-12.6401
-13.1801
-13.2721
-12.8663
-12.0569
-10.9486
-9.52998
-7.88316
-6.18928
-4.77502
-3.41433
-1.96596
-0.715119
-0.000708572
0.575875
1.00955
-0.360349
-0.0466933
0.0482975
0.556652
1.21917
1.48986
1.93317
2.2079
-0.0834167
0.379476
0.451239
0.702379
1.25631
1.63951
1.96658
2.1
0.0282844
0.267352
0.692036
1.07877
1.42462
1.40323
1.92677
2.08861
0.238263
0.593423
0.851815
1.05361
1.49736
1.84813
1.33264
2.06165
0.358726
0.647049
0.897332
1.28729
1.39577
1.92286
1.8514
1.72589
0.40026
0.743096
0.998784
1.1971
1.37623
1.77812
1.63087
1.74175
0.493482
0.826846
1.0558
1.3036
1.42265
1.75155
1.72462
1.85138
0.559436
0.885063
1.1156
1.31188
1.42655
1.66323
1.72929
1.79728
0.636446
0.954628
1.15968
1.34506
1.46605
1.66939
1.72756
1.74474
0.705856
1.02543
1.22827
1.37963
1.48663
1.6424
1.70449
1.75446
0.792431
1.0809
1.26994
1.39085
1.49154
1.63442
1.68724
1.70257
0.889997
1.15891
1.33777
1.42664
1.50585
1.64625
1.67115
1.68893
0.962051
1.2429
1.39541
1.44085
1.53169
1.65053
1.64768
1.68058
1.04839
1.30569
1.43068
1.46673
1.56842
1.67765
1.63083
1.66821
1.12749
1.38468
1.44847
1.45744
1.61429
1.67767
1.61319
1.66385
1.20472
1.40687
1.51231
1.47819
1.64943
1.68332
1.59643
1.66644
1.28381
1.45999
1.4456
1.46817
1.7376
1.65974
1.57667
1.65984
1.30978
1.46445
1.56335
1.46954
1.72815
1.67147
1.55865
1.66977
1.33685
1.45416
1.46799
1.48011
1.76487
1.60817
1.57407
1.67522
1.34246
1.44189
1.55528
1.4674
1.73347
1.66033
1.55649
1.72475
2.50624
2.42159
2.29828
2.00813
1.61932
1.17562
1.02381
1.03946
1.05751
1.03554
0.987221
0.951914
0.852633
0.74745
0.612203
0.49903
0.312893
0.171277
-0.149549
-0.355467
2.49603
2.28751
2.1365
1.86261
1.52427
1.20496
1.08174
1.09089
1.08407
1.04425
0.989609
0.952265
0.851577
0.744688
0.611858
0.493305
0.320814
0.164099
-0.043714
-0.199166
2.23401
2.23912
2.16909
1.8326
1.54064
1.25543
1.1134
1.10354
1.08597
1.04383
0.988464
0.951023
0.850267
0.741444
0.611945
0.489528
0.327519
0.170626
0.000307053
-0.158113
2.48415
2.06908
1.94587
1.7049
1.4526
1.22418
1.11993
1.12224
1.10341
1.05375
0.993345
0.949963
0.851224
0.736762
0.612208
0.482825
0.335386
0.178035
0.0202042
-0.0990616
2.08551
1.95561
1.84226
1.65958
1.46868
1.28571
1.17653
1.14942
1.1183
1.06081
0.996767
0.948618
0.848835
0.732491
0.613143
0.480164
0.345685
0.188526
0.0618411
-0.0576236
2.13246
1.99472
1.9
1.66513
1.45212
1.27517
1.17116
1.15328
1.12762
1.06768
1.00303
0.947054
0.855321
0.730462
0.613685
0.479185
0.349064
0.200829
0.0809064
-0.0284821
2.07635
1.88977
1.736
1.57615
1.42731
1.29603
1.21125
1.17853
1.14074
1.07265
1.00279
0.940215
0.849977
0.728105
0.613589
0.479684
0.357658
0.212905
0.0974151
-0.00603234
1.93963
1.8319
1.74502
1.62206
1.4724
1.33293
1.23684
1.19331
1.14977
1.07713
1.00505
0.934256
0.852959
0.727407
0.612038
0.480563
0.362691
0.222923
0.110364
0.0111382
1.88459
1.80165
1.68809
1.56287
1.43667
1.32654
1.2446
1.20747
1.15946
1.08453
1.00865
0.927586
0.823407
0.725799
0.610864
0.483741
0.368175
0.2323
0.119927
0.0232487
1.81783
1.75106
1.66323
1.57097
1.47653
1.37873
1.28714
1.22483
1.17246
1.09472
1.01398
0.924161
0.826106
0.729086
0.613599
0.488443
0.3741
0.241643
0.134068
0.0329352
1.75267
1.71996
1.65624
1.56164
1.46516
1.37375
1.28429
1.23621
1.18332
1.10517
1.02072
0.921288
0.82234
0.72677
0.61104
0.48841
0.377273
0.249124
0.140558
0.039955
1.71761
1.69317
1.64002
1.55378
1.47684
1.40371
1.31252
1.25167
1.19558
1.11567
1.02702
0.918128
0.818096
0.731127
0.614017
0.492892
0.383251
0.256374
0.14741
0.0459
1.69047
1.66657
1.6283
1.55221
1.48377
1.41521
1.32366
1.2626
1.20479
1.12256
1.02959
0.915311
0.817781
0.730551
0.613929
0.49289
0.385918
0.261546
0.153174
0.050204
1.66511
1.65927
1.64339
1.5644
1.49551
1.42448
1.33413
1.27375
1.21567
1.13041
1.03276
0.913804
0.815287
0.732615
0.615851
0.496937
0.391707
0.268194
0.158841
0.0539127
1.63915
1.63957
1.61752
1.55469
1.50342
1.43526
1.34218
1.28184
1.22262
1.13446
1.03376
0.912878
0.814454
0.733993
0.617147
0.499116
0.394741
0.273465
0.163616
0.0564871
1.64311
1.66951
1.6432
1.57147
1.51072
1.43447
1.34604
1.28844
1.22941
1.13719
1.03145
0.910314
0.813746
0.73504
0.618619
0.501869
0.398621
0.27871
0.168168
0.0588286
1.61661
1.64952
1.61878
1.56464
1.51473
1.43622
1.34888
1.29295
1.23311
1.13791
1.03142
0.910336
0.815418
0.736394
0.620211
0.504671
0.402102
0.283348
0.171629
0.0601529
1.63998
1.68395
1.63718
1.57102
1.51148
1.42858
1.34855
1.29465
1.23175
1.1328
1.02461
0.908303
0.814512
0.735895
0.620971
0.507308
0.405295
0.287679
0.175338
0.0615047
1.64122
1.68991
1.6154
1.56762
1.51079
1.42742
1.35166
1.29643
1.23136
1.13148
1.02462
0.907772
0.816133
0.7363
0.622536
0.509837
0.407957
0.290449
0.176479
0.06175
1.64988
1.68282
1.61861
1.56109
1.50073
1.41874
1.34751
1.29297
1.22369
1.12181
1.01545
0.904336
0.814078
0.735027
0.623127
0.512831
0.411669
0.294557
0.178733
0.0619117
-0.45809
0.144459
-0.632361
0.0271176
-0.222362
-0.0271775
0.274327
-0.0717502
-0.352474
-0.649944
-0.803649
-0.521895
-0.442399
0.0302841
0.218748
-0.18039
-0.693991
-0.541432
-0.86722
-0.683637
-0.841475
-0.20197
-0.0460581
-0.440402
-0.668939
-0.858864
-1.44304
-1.44097
-1.3141
-0.645711
-0.615006
-0.84968
-1.18364
-1.35536
-1.69829
-1.65439
-1.7489
-1.1013
-0.902568
-1.08642
-1.40931
-1.49457
-2.16369
-2.47279
-2.16712
-1.49667
-1.30608
-1.36101
-1.78672
-2.02116
-2.62733
-2.62863
-2.543
-2.03309
-1.71893
-1.77256
-2.15013
-2.35048
-2.96965
-3.29619
-2.91767
-2.5612
-2.07911
-2.10063
-2.48179
-2.69212
-3.38567
-3.68355
-3.31913
-2.95038
-2.44144
-2.4032
-2.7469
-3.02024
-3.65436
-4.06473
-3.63455
-3.28749
-2.83518
-2.69831
-3.00967
-3.34787
-3.98967
-4.52805
-3.94832
-3.57201
-3.09388
-2.92936
-3.22467
-3.60435
-4.15085
-4.54786
-4.11879
-3.76113
-3.23287
-3.04195
-3.35845
-3.77139
-4.20874
-4.93582
-4.23285
-3.89308
-3.37606
-3.13583
-3.42572
-3.8465
-4.22832
-4.64806
-4.21555
-3.95523
-3.43671
-3.18328
-3.41646
-3.85935
-4.18316
-4.88001
-4.18916
-3.89327
-3.37744
-3.13148
-3.33547
-3.8024
-4.11871
-4.49038
-4.12352
-3.71908
-3.30919
-3.03425
-3.18583
-3.64722
-3.99026
-4.4934
-3.99488
-3.49729
-3.11575
-2.83361
-2.93049
-3.39798
-3.75786
-4.04541
-3.73921
-3.21287
-2.86085
-2.6257
-2.60538
-3.09307
-3.46654
-3.79145
-3.44696
-2.86893
-2.59135
-2.39497
-2.22337
-2.73446
-3.12116
-3.3553
-3.07203
-2.52361
-2.27629
-2.10216
-1.79356
-2.3267
-2.70358
-2.84555
-2.67447
-2.19
-1.94055
-1.85311
-1.33851
-1.87091
-2.21027
-2.37284
-2.17897
-1.79856
-1.59337
-1.57895
-0.927372
-1.40138
-1.71462
-1.67778
-1.66963
-1.41757
-1.26497
-1.28042
-0.583148
-1.02238
-1.22884
-1.29715
-1.14911
-1.07165
-0.956686
-1.0142
-0.328461
-0.734587
-0.825181
-0.681961
-0.685954
-0.740076
-0.673333
-0.776407
-0.196885
-0.56933
-0.454023
-0.405994
-0.288728
-0.445301
-0.463113
-0.548619
-0.0785903
-0.448061
-0.245569
-0.155971
-0.0363612
-0.193076
-0.283849
-0.326629
-0.143594
-0.413403
-0.0452498
-0.0269587
0.100748
-0.0263137
-0.0817329
-0.12643
-0.133684
-0.424339
-0.0456508
0.00731224
0.127878
0.184
-0.041088
-0.0261034
-0.264194
-0.409821
0.0956348
0.147786
0.205584
0.158446
-0.112015
0.0877482
-0.24028
-0.402831
0.0167959
0.0398604
-0.0726217
0.173458
-0.0548561
0.19555
-0.303607
-0.419009
0.0791221
0.0762258
0.0668882
0.099856
0.117058
0.312424
-0.495352
-0.38955
0.0694324
-0.0176392
-0.0717678
-0.0495141
0.31283
0.455707
-0.249177
-0.346436
0.066322
-0.0230233
0.049904
-0.169125
0.37596
0.663797
-0.270034
-0.203205
0.114951
0.176356
-0.0627232
-0.141718
0.581152
0.91547
-0.21869
-0.306184
0.14536
0.243909
0.235866
0.348135
0.875659
1.18236
-0.120887
-0.177872
0.163357
0.388167
0.505362
0.612143
1.18805
1.43725
-0.328109
-0.56683
-0.0791311
0.515408
0.552724
0.836065
1.43521
1.62207
-0.16651
-0.460921
-0.281122
0.632093
0.853865
0.969207
1.69461
1.96091
-0.364017
-0.31758
-0.216069
0.744531
0.959506
1.22824
1.88994
1.81623
1.85741
1.63271
1.5444
1.45424
1.39351
1.3295
1.29652
1.2037
1.70435
1.5934
1.52027
1.44672
1.40151
1.34197
1.3257
1.28509
1.61315
1.55573
1.49078
1.43504
1.39694
1.35183
1.33399
1.30022
1.50809
1.50926
1.45909
1.41803
1.39018
1.35162
1.34685
1.32211
1.44606
1.45602
1.42252
1.39219
1.3698
1.34339
1.34558
1.35111
1.37803
1.41079
1.38195
1.36618
1.34932
1.32168
1.32935
1.33055
1.32801
1.36256
1.34717
1.33551
1.33037
1.30887
1.3096
1.31588
1.28311
1.3212
1.31048
1.30742
1.30045
1.29165
1.29207
1.30739
1.24873
1.285
1.27516
1.27799
1.2838
1.27293
1.27693
1.28521
1.22307
1.2532
1.24172
1.24967
1.24474
1.25502
1.26852
1.29845
1.20179
1.22764
1.22011
1.22416
1.22034
1.21267
1.23464
1.24225
1.16762
1.19518
1.19535
1.2026
1.19872
1.19779
1.20566
1.23157
1.14465
1.16892
1.16241
1.1744
1.17243
1.18059
1.17477
1.19292
1.11628
1.14297
1.1412
1.14933
1.14196
1.15475
1.15924
1.20657
1.09561
1.12131
1.11543
1.13031
1.1186
1.11966
1.10567
1.13711
1.07535
1.09959
1.10013
1.10682
1.10032
1.11493
1.09783
1.1193
1.06002
1.08125
1.08054
1.09227
1.07583
1.09026
1.07679
1.10922
1.04723
1.0639
1.05515
1.06695
1.06232
1.07825
1.05929
1.08747
1.03822
1.05139
1.04638
1.0536
1.03498
1.04714
1.03851
1.06701
1.02511
1.03748
1.03391
1.03941
1.0328
1.03538
1.00809
1.03546
1.0213
1.02315
1.02252
1.02623
1.0133
1.03157
1.01199
1.029
0.999867
1.01501
1.01109
1.01298
1.00103
1.00695
0.983136
1.01456
0.996653
0.998094
1.00023
1.00246
0.99387
0.997624
0.971555
0.992503
0.982197
0.992922
0.992177
0.989941
0.983541
0.988712
0.963048
0.9834
0.972625
0.979107
0.986623
0.983573
0.978525
0.979045
0.956112
0.979861
0.972108
0.973305
0.974838
0.974548
0.975293
0.979613
0.953656
0.978583
0.963118
0.966595
0.972823
0.963895
0.968829
0.967053
0.957418
0.977753
0.962157
0.957207
0.962513
0.959896
0.966343
0.969594
0.959693
0.980719
0.960065
0.955292
0.956826
0.94735
0.955828
0.956297
0.961226
0.980372
0.950847
0.944879
0.958465
0.944682
0.95342
0.951704
0.952363
0.973735
0.951163
0.938782
0.945868
0.934263
0.945196
0.945093
0.952261
0.96936
0.946485
0.933002
0.944937
0.922136
0.935626
0.932058
0.937357
0.962192
0.955236
0.930124
0.942434
0.919868
0.928209
0.922607
0.927704
0.946579
0.954555
0.921674
0.933568
0.904818
0.918404
0.916463
0.91651
0.941286
0.96349
0.92508
0.934806
0.900755
0.90314
0.898404
0.901774
0.925183
0.968861
0.915388
0.927806
0.892565
0.899878
0.891227
0.886172
0.908063
0.994537
0.922921
0.924246
0.883402
0.878024
0.871462
0.871635
0.886283
1.0065
0.921434
0.928572
0.884437
0.877107
0.861515
0.855118
0.861257
1.04768
0.921256
0.918313
0.874458
0.854453
0.843484
0.837008
0.833696
1.12742
0.954386
0.913913
0.872305
0.848193
0.820873
0.81219
0.750049
)
;

boundaryField
{
    wall
    {
        type            zeroGradient;
    }
    inlet1
    {
        type            zeroGradient;
    }
    inlet2
    {
        type            zeroGradient;
    }
    outlet1
    {
        type            fixedValue;
        value           uniform 0;
    }
    outlet2
    {
        type            outletInlet;
        outletValue     uniform 0;
        value           nonuniform List<scalar> 8(-0.45809 0 -0.632361 0 0 -0.0271775 0 0);
    }
    defaultFaces
    {
        type            empty;
    }
}


// ************************************************************************* //
