/*--------------------------------*- C++ -*----------------------------------*\
| =========                 |                                                 |
| \\      /  F ield         | OpenFOAM: The Open Source CFD Toolbox           |
|  \\    /   O peration     | Version:  2.4.0                                 |
|   \\  /    A nd           | Web:      www.OpenFOAM.org                      |
|    \\/     M anipulation  |                                                 |
\*---------------------------------------------------------------------------*/
FoamFile
{
    version     2.0;
    format      ascii;
    class       surfaceScalarField;
    location    "5.64";
    object      phi;
}
// * * * * * * * * * * * * * * * * * * * * * * * * * * * * * * * * * * * * * //

dimensions      [0 3 -1 0 0 0 0];

internalField   nonuniform List<scalar> 
11840
(
7.835e-07
9.2165e-06
-9.362e-07
1.7197e-06
6.58542e-07
-1.59474e-06
1.4633e-07
5.12213e-07
-2.0515e-07
3.51479e-07
-3.05445e-07
1.00295e-07
-4.12027e-07
1.06582e-07
-5.07161e-07
9.51343e-08
-6.88833e-07
1.81672e-07
-8.34737e-07
1.45904e-07
-1.04838e-06
2.13639e-07
-1.20673e-06
1.58359e-07
-1.38562e-06
1.78887e-07
-1.53599e-06
1.50364e-07
-1.72128e-06
1.8529e-07
-1.93295e-06
2.11674e-07
-2.1828e-06
2.49855e-07
-2.44056e-06
2.57755e-07
-2.69e-06
2.49438e-07
-2.91559e-06
2.25592e-07
-3.11644e-06
2.00853e-07
-3.29561e-06
1.79169e-07
-3.45671e-06
1.61096e-07
-3.59867e-06
1.41959e-07
-3.72041e-06
1.21741e-07
-3.82038e-06
9.99751e-08
-3.8971e-06
7.67186e-08
-3.94872e-06
5.16221e-08
-3.97285e-06
2.41262e-08
-3.96661e-06
-6.23817e-09
-3.93004e-06
-3.65733e-08
-3.86314e-06
-6.68994e-08
-3.7646e-06
-9.85352e-08
-3.63327e-06
-1.31331e-07
-3.46826e-06
-1.65012e-07
-3.26867e-06
-1.99595e-07
-3.0342e-06
-2.34465e-07
-2.76414e-06
-2.70064e-07
-2.45933e-06
-3.0481e-07
-2.11869e-06
-3.40639e-07
-1.74555e-06
-3.73138e-07
-1.33692e-06
-4.0863e-07
-9.01223e-07
-4.35697e-07
-4.31453e-07
-4.69771e-07
5.61885e-08
-4.87641e-07
5.72846e-07
-5.16657e-07
1.0888e-06
-5.1595e-07
1.64713e-06
-5.58332e-07
2.16864e-06
-5.21512e-07
2.75967e-06
-5.9103e-07
3.2453e-06
-4.85631e-07
3.87325e-06
-6.27947e-07
4.25801e-06
-3.84759e-07
4.95721e-06
-6.99205e-07
5.13919e-06
-1.81977e-07
5.99035e-06
-8.51161e-07
5.81429e-06
1.76061e-07
7.00081e-06
-1.18652e-06
6.36745e-06
6.33355e-07
-2.31688e-06
2.45138e-06
1.67651e-05
-5.06826e-07
4.67791e-06
3.68294e-07
-2.46986e-06
-8.65861e-08
9.67093e-07
-3.12125e-07
5.77018e-07
-4.69709e-07
2.57879e-07
-5.73832e-07
2.10705e-07
-6.91407e-07
2.1271e-07
-8.74758e-07
3.65024e-07
-1.04113e-06
3.12276e-07
-1.24401e-06
4.1652e-07
-1.41306e-06
3.27409e-07
-1.58466e-06
3.50486e-07
-1.74896e-06
3.14662e-07
-1.94123e-06
3.77565e-07
-2.16228e-06
4.32723e-07
-2.40675e-06
4.94321e-07
-2.65062e-06
5.0163e-07
-2.87998e-06
4.78795e-07
-3.08835e-06
4.33963e-07
-3.27683e-06
3.89326e-07
-3.44642e-06
3.48766e-07
-3.59715e-06
3.11828e-07
-3.72773e-06
2.72536e-07
-3.83689e-06
2.30902e-07
-3.92314e-06
1.86226e-07
-3.98502e-06
1.3859e-07
-4.021e-06
8.76106e-08
-4.02992e-06
3.30384e-08
-4.01116e-06
-2.49971e-08
-3.9629e-06
-8.48257e-08
-3.88335e-06
-1.46454e-07
-3.77124e-06
-2.1065e-07
-3.62545e-06
-2.77118e-07
-3.44509e-06
-3.45372e-07
-3.2294e-06
-4.15282e-07
-2.97797e-06
-4.85892e-07
-2.69049e-06
-5.57543e-07
-2.36726e-06
-6.28043e-07
-2.00845e-06
-6.99445e-07
-1.61544e-06
-7.66157e-07
-1.18895e-06
-8.3512e-07
-7.31726e-07
-8.92916e-07
-2.45706e-07
-9.55791e-07
2.64099e-07
-9.97445e-07
7.97583e-07
-1.05014e-06
1.34568e-06
-1.06405e-06
1.913e-06
-1.12565e-06
2.48006e-06
-1.08857e-06
3.06456e-06
-1.17553e-06
3.62238e-06
-1.04346e-06
4.20964e-06
-1.21521e-06
4.71923e-06
-8.94346e-07
5.30899e-06
-1.28897e-06
5.712e-06
-5.84986e-07
6.34518e-06
-1.48434e-06
6.55274e-06
-3.15032e-08
7.34584e-06
-1.97961e-06
7.35096e-06
6.2823e-07
-3.78369e-06
3.6069e-06
2.31582e-05
1.72622e-08
8.26754e-06
5.85266e-08
-2.51113e-06
-3.04712e-07
1.33033e-06
-3.68512e-07
6.40818e-07
-5.35071e-07
4.24439e-07
-6.26516e-07
3.02149e-07
-7.52061e-07
3.38255e-07
-9.19358e-07
5.32321e-07
-1.09046e-06
4.83374e-07
-1.27874e-06
6.04806e-07
-1.45033e-06
4.98998e-07
-1.61739e-06
5.17543e-07
-1.78426e-06
4.8153e-07
-1.97242e-06
5.65734e-07
-2.18645e-06
6.46748e-07
-2.41833e-06
7.26201e-07
-2.64937e-06
7.3267e-07
-2.86723e-06
6.96651e-07
-3.06707e-06
6.33805e-07
-3.24888e-06
5.71138e-07
-3.4126e-06
5.12483e-07
-3.55748e-06
4.56706e-07
-3.6823e-06
3.97359e-07
-3.78575e-06
3.34353e-07
-3.86636e-06
2.6684e-07
-3.92269e-06
1.94921e-07
-3.95335e-06
1.18264e-07
-3.9571e-06
3.67955e-08
-3.93289e-06
-4.92109e-08
-3.87907e-06
-1.38648e-07
-3.79395e-06
-2.31572e-07
-3.67634e-06
-3.28258e-07
-3.52516e-06
-4.28298e-07
-3.33952e-06
-5.31018e-07
-3.1187e-06
-6.36101e-07
-2.86227e-06
-7.42323e-07
-2.57001e-06
-8.49799e-07
-2.2421e-06
-9.55949e-07
-1.87901e-06
-1.06254e-06
-1.48165e-06
-1.16351e-06
-1.05154e-06
-1.26523e-06
-5.90298e-07
-1.35416e-06
-1.01393e-07
-1.4447e-06
4.12936e-07
-1.51177e-06
9.49282e-07
-1.58649e-06
1.50389e-06
-1.61865e-06
2.07247e-06
-1.69424e-06
2.64892e-06
-1.66501e-06
3.23016e-06
-1.75677e-06
3.80462e-06
-1.61791e-06
4.37754e-06
-1.78813e-06
4.9215e-06
-1.4383e-06
5.4703e-06
-1.83778e-06
5.94913e-06
-1.06381e-06
6.47838e-06
-2.01359e-06
6.85239e-06
-4.05514e-07
7.41121e-06
-2.53843e-06
7.7411e-06
2.98348e-07
-4.76074e-06
4.52841e-06
2.86298e-05
7.56502e-07
1.20395e-05
-2.33649e-07
-1.52098e-06
-4.60371e-07
1.55705e-06
-3.99095e-07
5.79541e-07
-5.66346e-07
5.9169e-07
-6.47297e-07
3.831e-07
-7.76554e-07
4.67512e-07
-9.30475e-07
6.86242e-07
-1.10104e-06
6.53942e-07
-1.28e-06
7.83765e-07
-1.45141e-06
6.70401e-07
-1.61632e-06
6.82454e-07
-1.78325e-06
6.48467e-07
-1.96697e-06
7.49451e-07
-2.17317e-06
8.52943e-07
-2.39412e-06
9.47159e-07
-2.61465e-06
9.53194e-07
-2.82358e-06
9.05579e-07
-3.01641e-06
8.26637e-07
-3.19228e-06
7.47008e-07
-3.35052e-06
6.7073e-07
-3.49011e-06
5.96291e-07
-3.60983e-06
5.17082e-07
-3.70835e-06
4.32871e-07
-3.78421e-06
3.42704e-07
-3.836e-06
2.46708e-07
-3.86234e-06
1.44607e-07
-3.86199e-06
3.64399e-08
-3.83368e-06
-7.75236e-08
-3.77584e-06
-1.96488e-07
-3.68693e-06
-3.20478e-07
-3.56577e-06
-4.49418e-07
-3.41129e-06
-5.82776e-07
-3.22261e-06
-7.19695e-07
-2.99905e-06
-8.59666e-07
-2.74015e-06
-1.00122e-06
-2.44575e-06
-1.1442e-06
-2.11598e-06
-1.28572e-06
-1.75138e-06
-1.42714e-06
-1.35275e-06
-1.56214e-06
-9.21813e-07
-1.69617e-06
-4.59884e-07
-1.81609e-06
2.93238e-08
-1.9339e-06
5.44321e-07
-2.02677e-06
1.08083e-06
-2.123e-06
1.63649e-06
-2.17431e-06
2.20438e-06
-2.26213e-06
2.78242e-06
-2.24305e-06
3.3611e-06
-2.33545e-06
3.93925e-06
-2.19606e-06
4.50543e-06
-2.35431e-06
5.05915e-06
-1.99202e-06
5.59108e-06
-2.36971e-06
6.09542e-06
-1.56815e-06
6.58231e-06
-2.50048e-06
7.01952e-06
-8.42719e-07
7.47865e-06
-2.99757e-06
7.93847e-06
-1.61468e-07
-5.49861e-06
5.30453e-06
3.33253e-05
1.4905e-06
1.58535e-05
-2.59773e-07
2.29298e-07
-5.51589e-07
1.84887e-06
-4.19582e-07
4.47535e-07
-5.82671e-07
7.54778e-07
-6.55369e-07
4.55799e-07
-7.85034e-07
5.97177e-07
-9.28468e-07
8.29675e-07
-1.09582e-06
8.21297e-07
-1.26789e-06
9.55833e-07
-1.43794e-06
8.40455e-07
-1.60131e-06
8.45815e-07
-1.76725e-06
8.14415e-07
-1.94636e-06
9.2856e-07
-2.14467e-06
1.05125e-06
-2.35552e-06
1.15801e-06
-2.56643e-06
1.16411e-06
-2.76724e-06
1.10639e-06
-2.95345e-06
1.01285e-06
-3.12354e-06
9.1709e-07
-3.27641e-06
8.23605e-07
-3.41087e-06
7.30747e-07
-3.52569e-06
6.31909e-07
-3.61953e-06
5.26709e-07
-3.69094e-06
4.14117e-07
-3.73852e-06
2.94286e-07
-3.76091e-06
1.66997e-07
-3.75682e-06
3.23518e-08
-3.72492e-06
-1.09424e-07
-3.66369e-06
-2.57723e-07
-3.57168e-06
-4.12486e-07
-3.44772e-06
-5.7338e-07
-3.29076e-06
-7.39736e-07
-3.09993e-06
-9.10528e-07
-2.87455e-06
-1.08504e-06
-2.61418e-06
-1.26159e-06
-2.31867e-06
-1.43971e-06
-1.98812e-06
-1.61627e-06
-1.62312e-06
-1.79214e-06
-1.22441e-06
-1.96085e-06
-7.93778e-07
-2.1268e-06
-3.32428e-07
-2.27744e-06
1.55991e-07
-2.42232e-06
6.70174e-07
-2.54096e-06
1.20558e-06
-2.6584e-06
1.76026e-06
-2.72899e-06
2.32636e-06
-2.82824e-06
2.90329e-06
-2.81998e-06
3.47908e-06
-2.91124e-06
4.05673e-06
-2.77372e-06
4.61795e-06
-2.91553e-06
5.17365e-06
-2.54772e-06
5.69591e-06
-2.89197e-06
6.20932e-06
-2.08156e-06
6.67467e-06
-2.96584e-06
7.13832e-06
-1.30637e-06
7.54915e-06
-3.4084e-06
8.06199e-06
-6.74301e-07
-6.10368e-06
5.97543e-06
3.73499e-05
2.24002e-06
1.95889e-05
-6.30925e-08
2.53241e-06
-5.83131e-07
2.36891e-06
-4.36564e-07
3.00968e-07
-5.90434e-07
9.08649e-07
-6.56421e-07
5.21786e-07
-7.84425e-07
7.25181e-07
-9.19008e-07
9.64257e-07
-1.08189e-06
9.84179e-07
-1.24808e-06
1.12202e-06
-1.41618e-06
1.00856e-06
-1.57803e-06
1.00766e-06
-1.74238e-06
9.7877e-07
-1.91675e-06
1.10293e-06
-2.10721e-06
1.2417e-06
-2.30839e-06
1.35919e-06
-2.51011e-06
1.36583e-06
-2.7031e-06
1.29938e-06
-2.88278e-06
1.19252e-06
-3.04706e-06
1.08138e-06
-3.19456e-06
9.71096e-07
-3.32391e-06
8.60101e-07
-3.43389e-06
7.41893e-07
-3.52313e-06
6.15949e-07
-3.5902e-06
4.81183e-07
-3.63369e-06
3.37782e-07
-3.65227e-06
1.85574e-07
-3.64462e-06
2.46996e-08
-3.60937e-06
-1.44671e-07
-3.54505e-06
-3.22045e-07
-3.45028e-06
-5.07253e-07
-3.3239e-06
-6.99759e-07
-3.16488e-06
-8.98759e-07
-2.97235e-06
-1.10306e-06
-2.74566e-06
-1.31174e-06
-2.48435e-06
-1.52289e-06
-2.18829e-06
-1.73578e-06
-1.85757e-06
-1.94699e-06
-1.49279e-06
-2.15692e-06
-1.09466e-06
-2.35898e-06
-6.64977e-07
-2.55648e-06
-2.04909e-07
-2.73751e-06
2.82052e-07
-2.90928e-06
7.94588e-07
-3.05349e-06
1.32808e-06
-3.1919e-06
1.8807e-06
-3.2816e-06
2.44424e-06
-3.39178e-06
3.01874e-06
-3.39448e-06
3.59115e-06
-3.48366e-06
4.16641e-06
-3.34898e-06
4.72301e-06
-3.47212e-06
5.27743e-06
-3.10214e-06
5.79252e-06
-3.40706e-06
6.30835e-06
-2.59739e-06
6.76021e-06
-3.4177e-06
7.23545e-06
-1.7816e-06
7.61883e-06
-3.79178e-06
8.15311e-06
-1.20858e-06
-6.62191e-06
6.56069e-06
4.07892e-05
2.97392e-06
2.31757e-05
2.30047e-07
5.27628e-06
-5.36432e-07
3.13539e-06
-4.51312e-07
2.15848e-07
-5.92278e-07
1.04961e-06
-6.52567e-07
5.82075e-07
-7.7772e-07
8.50334e-07
-9.04349e-07
1.09089e-06
-1.06212e-06
1.14195e-06
-1.22285e-06
1.28275e-06
-1.38859e-06
1.1743e-06
-1.54876e-06
1.16783e-06
-1.7111e-06
1.14112e-06
-1.88063e-06
1.27245e-06
-2.06332e-06
1.42439e-06
-2.25511e-06
1.55098e-06
-2.44784e-06
1.55857e-06
-2.63311e-06
1.48465e-06
-2.80621e-06
1.36562e-06
-2.96462e-06
1.23979e-06
-3.10666e-06
1.11313e-06
-3.23087e-06
9.84311e-07
-3.33599e-06
8.4701e-07
-3.42062e-06
7.00586e-07
-3.48336e-06
5.43918e-07
-3.5228e-06
3.77226e-07
-3.53761e-06
2.00385e-07
-3.52646e-06
1.35528e-08
-3.48798e-06
-1.83151e-07
-3.42074e-06
-3.89293e-07
-3.3234e-06
-6.04591e-07
-3.19482e-06
-8.2834e-07
-3.03398e-06
-1.0596e-06
-2.84004e-06
-1.297e-06
-2.61233e-06
-1.53945e-06
-2.35043e-06
-1.7848e-06
-2.05418e-06
-2.03202e-06
-1.72368e-06
-2.27749e-06
-1.35955e-06
-2.52106e-06
-9.62445e-07
-2.75608e-06
-5.34164e-07
-2.98476e-06
-7.58565e-08
-3.19581e-06
4.09151e-07
-3.39429e-06
9.19456e-07
-3.5638e-06
1.45044e-06
-3.72288e-06
2.00027e-06
-3.83143e-06
2.56066e-06
-3.95217e-06
3.13188e-06
-3.96569e-06
3.70047e-06
-4.05225e-06
4.27224e-06
-3.92075e-06
4.82416e-06
-4.02404e-06
5.37557e-06
-3.65356e-06
5.88447e-06
-3.91596e-06
6.39942e-06
-3.11234e-06
6.84146e-06
-3.85973e-06
7.32111e-06
-2.26126e-06
7.68677e-06
-4.15744e-06
8.22758e-06
-1.74939e-06
-7.07641e-06
7.07174e-06
4.37174e-05
3.68649e-06
2.65609e-05
6.53469e-07
8.3093e-06
-4.06633e-07
4.19549e-06
-4.5996e-07
2.69175e-07
-5.89293e-07
1.17895e-06
-6.44694e-07
6.37475e-07
-7.66369e-07
9.72009e-07
-8.85577e-07
1.21009e-06
-1.03787e-06
1.29424e-06
-1.19329e-06
1.43816e-06
-1.35632e-06
1.33734e-06
-1.51459e-06
1.32609e-06
-1.6746e-06
1.30112e-06
-1.83921e-06
1.43707e-06
-2.01422e-06
1.5994e-06
-2.19682e-06
1.73358e-06
-2.38069e-06
1.74243e-06
-2.55821e-06
1.66217e-06
-2.72464e-06
1.53205e-06
-2.87705e-06
1.3922e-06
-3.01353e-06
1.24961e-06
-3.13252e-06
1.10329e-06
-3.2327e-06
9.47195e-07
-3.31268e-06
7.80571e-07
-3.37105e-06
6.02285e-07
-3.40642e-06
4.12595e-07
-3.41746e-06
2.1142e-07
-3.40283e-06
-1.07429e-09
-3.36117e-06
-2.24812e-07
-3.29108e-06
-4.59385e-07
-3.19127e-06
-7.04395e-07
-3.06062e-06
-9.58989e-07
-2.89813e-06
-1.22209e-06
-2.70295e-06
-1.49218e-06
-2.47445e-06
-1.76795e-06
-2.21219e-06
-2.04706e-06
-1.91602e-06
-2.32818e-06
-1.58605e-06
-2.60747e-06
-1.22286e-06
-2.88425e-06
-8.27127e-07
-3.15181e-06
-4.006e-07
-3.41129e-06
5.5571e-08
-3.65198e-06
5.38217e-07
-3.87694e-06
1.04583e-06
-4.07141e-06
1.57382e-06
-4.25087e-06
2.1203e-06
-4.37791e-06
2.67705e-06
-4.50893e-06
3.24436e-06
-4.533e-06
3.8087e-06
-4.61658e-06
4.37623e-06
-4.48829e-06
4.92327e-06
-4.57108e-06
5.4706e-06
-4.20089e-06
5.97368e-06
-4.41903e-06
6.48584e-06
-3.62451e-06
6.91988e-06
-4.29378e-06
7.39999e-06
-2.74136e-06
7.75293e-06
-4.51038e-06
8.2924e-06
-2.28886e-06
-7.48038e-06
7.51718e-06
4.62002e-05
4.37145e-06
2.97066e-05
1.18008e-06
1.15007e-05
-2.07718e-07
5.58329e-06
-4.53108e-07
5.14564e-07
-5.81549e-07
1.30739e-06
-6.33126e-07
6.89052e-07
-7.51097e-07
1.08998e-06
-8.63246e-07
1.32224e-06
-1.00987e-06
1.44087e-06
-1.15998e-06
1.58828e-06
-1.31999e-06
1.49735e-06
-1.47608e-06
1.48218e-06
-1.63348e-06
1.45852e-06
-1.79313e-06
1.59671e-06
-1.96057e-06
1.76685e-06
-2.13414e-06
1.90715e-06
-2.3092e-06
1.91749e-06
-2.47893e-06
1.8319e-06
-2.63855e-06
1.69167e-06
-2.78483e-06
1.53848e-06
-2.91562e-06
1.38041e-06
-3.02927e-06
1.21694e-06
-3.12442e-06
1.04235e-06
-3.19968e-06
8.55822e-07
-3.25361e-06
6.56217e-07
-3.28485e-06
4.43836e-07
-3.29207e-06
2.1864e-07
-3.27394e-06
-1.92023e-08
-3.2291e-06
-2.69648e-07
-3.1562e-06
-5.32286e-07
-3.05399e-06
-8.06608e-07
-2.92135e-06
-1.09163e-06
-2.75731e-06
-1.38613e-06
-2.56103e-06
-1.68846e-06
-2.33188e-06
-1.99709e-06
-2.06944e-06
-2.30951e-06
-1.77356e-06
-2.62406e-06
-1.44434e-06
-2.93669e-06
-1.08236e-06
-3.24622e-06
-6.88279e-07
-3.54589e-06
-2.63802e-07
-3.83577e-06
1.89912e-07
-4.1057e-06
6.69837e-07
-4.35686e-06
1.17435e-06
-4.57592e-06
1.69892e-06
-4.77545e-06
2.24159e-06
-4.92058e-06
2.79426e-06
-5.0616e-06
3.35716e-06
-5.0959e-06
3.91684e-06
-5.17627e-06
4.47956e-06
-5.051e-06
5.02144e-06
-5.11296e-06
5.56395e-06
-4.7434e-06
6.06127e-06
-4.91635e-06
6.56941e-06
-4.13265e-06
6.99642e-06
-4.72079e-06
7.47455e-06
-3.21949e-06
7.81752e-06
-4.85336e-06
8.35113e-06
-2.82246e-06
-7.84218e-06
7.90471e-06
4.82955e-05
5.02292e-06
3.25884e-05
1.7729e-06
1.47507e-05
5.73834e-08
7.29881e-06
-4.20704e-07
9.92652e-07
-5.68086e-07
1.45477e-06
-6.17831e-07
7.38796e-07
-7.32214e-07
1.20436e-06
-8.37619e-07
1.42765e-06
-9.78464e-07
1.58171e-06
-1.12321e-06
1.73303e-06
-1.2799e-06
1.65403e-06
-1.43354e-06
1.63582e-06
-1.58809e-06
1.61308e-06
-1.74274e-06
1.75136e-06
-1.90274e-06
1.92685e-06
-2.06742e-06
2.07184e-06
-2.2337e-06
2.08377e-06
-2.39554e-06
1.99374e-06
-2.54821e-06
1.84434e-06
-2.6882e-06
1.67846e-06
-2.81316e-06
1.50537e-06
-2.92135e-06
1.32513e-06
-3.01136e-06
1.13237e-06
-3.08178e-06
9.2624e-07
-3.13119e-06
7.05626e-07
-3.15823e-06
4.70872e-07
-3.16157e-06
2.21983e-07
-3.1399e-06
-4.08749e-08
-3.09187e-06
-3.17677e-07
-3.01616e-06
-6.07993e-07
-2.91156e-06
-9.11206e-07
-2.77698e-06
-1.22621e-06
-2.61145e-06
-1.55166e-06
-2.41416e-06
-1.88575e-06
-2.18449e-06
-2.22676e-06
-1.92201e-06
-2.57198e-06
-1.6266e-06
-2.91947e-06
-1.29832e-06
-3.26497e-06
-9.37773e-07
-3.60677e-06
-5.45589e-07
-3.93807e-06
-1.23426e-07
-4.25793e-06
3.27542e-07
-4.55667e-06
8.04414e-07
-4.83373e-06
1.30547e-06
-5.07697e-06
1.82623e-06
-5.29621e-06
2.36468e-06
-5.45902e-06
2.91286e-06
-5.60978e-06
3.47091e-06
-5.65395e-06
4.02555e-06
-5.73091e-06
4.58296e-06
-5.60842e-06
5.11938e-06
-5.64937e-06
5.65648e-06
-5.2805e-06
6.14797e-06
-5.40785e-06
6.65123e-06
-4.6359e-06
7.07169e-06
-5.14125e-06
7.54623e-06
-3.69403e-06
7.88078e-06
-5.18791e-06
8.40575e-06
-3.34743e-06
-8.16753e-06
8.24128e-06
5.00543e-05
5.63628e-06
3.51934e-05
2.41027e-06
1.79767e-05
4.34318e-07
9.27476e-06
-3.52104e-07
1.77907e-06
-5.46554e-07
1.64922e-06
-5.98437e-07
7.9068e-07
-7.09745e-07
1.31567e-06
-8.0876e-07
1.52666e-06
-9.43821e-07
1.71677e-06
-1.08312e-06
1.87233e-06
-1.2362e-06
1.80711e-06
-1.38709e-06
1.78672e-06
-1.53858e-06
1.76457e-06
-1.68822e-06
1.90099e-06
-1.84089e-06
2.07952e-06
-1.99683e-06
2.22778e-06
-2.15435e-06
2.24129e-06
-2.30822e-06
2.14761e-06
-2.45378e-06
1.98991e-06
-2.58731e-06
1.81199e-06
-2.70629e-06
1.62436e-06
-2.80888e-06
1.42771e-06
-2.89363e-06
1.21712e-06
-2.9591e-06
9.91711e-07
-3.00389e-06
7.50409e-07
-3.02663e-06
4.93613e-07
-3.02601e-06
2.21371e-07
-3.00074e-06
-6.6152e-08
-2.94947e-06
-3.68939e-07
-2.87094e-06
-6.86524e-07
-2.76396e-06
-1.01819e-06
-2.62746e-06
-1.36272e-06
-2.46049e-06
-1.71863e-06
-2.26225e-06
-2.08398e-06
-2.03215e-06
-2.45686e-06
-1.76976e-06
-2.83437e-06
-1.47496e-06
-3.21428e-06
-1.1478e-06
-3.59213e-06
-7.88878e-07
-3.9657e-06
-3.98813e-07
-4.32814e-06
2.07901e-08
-4.67753e-06
4.6874e-07
-5.00462e-06
9.42244e-07
-5.30724e-06
1.4395e-06
-5.57422e-06
1.95609e-06
-5.81281e-06
2.48994e-06
-5.99287e-06
3.03325e-06
-6.15309e-06
3.58603e-06
-6.20673e-06
4.13526e-06
-6.28013e-06
4.68695e-06
-6.16011e-06
5.21759e-06
-6.18001e-06
5.74878e-06
-5.8117e-06
6.23429e-06
-5.89336e-06
6.73199e-06
-5.13361e-06
7.14613e-06
-5.55538e-06
7.61594e-06
-4.16384e-06
7.94294e-06
-5.51491e-06
8.45749e-06
-3.86199e-06
-8.46055e-06
8.53312e-06
5.15211e-05
6.20826e-06
3.75183e-05
3.06994e-06
2.1115e-05
8.67642e-07
1.14771e-05
-2.21183e-07
2.8679e-06
-5.12259e-07
1.9403e-06
-5.74132e-07
8.52553e-07
-6.83466e-07
1.42501e-06
-7.76575e-07
1.61977e-06
-9.05942e-07
1.84614e-06
-1.03971e-06
2.00609e-06
-1.18892e-06
1.95632e-06
-1.33678e-06
1.93458e-06
-1.48501e-06
1.91279e-06
-1.62962e-06
2.04561e-06
-1.7751e-06
2.225e-06
-1.92244e-06
2.37511e-06
-2.07123e-06
2.39008e-06
-2.21703e-06
2.29341e-06
-2.35532e-06
2.1282e-06
-2.48223e-06
1.93889e-06
-2.59507e-06
1.7372e-06
-2.69191e-06
1.52455e-06
-2.77126e-06
1.29647e-06
-2.83167e-06
1.05211e-06
-2.87171e-06
7.90454e-07
-2.89006e-06
5.11957e-07
-2.8854e-06
2.16717e-07
-2.85645e-06
-9.5105e-08
-2.8019e-06
-4.23485e-07
-2.72051e-06
-7.67912e-07
-2.61113e-06
-1.12757e-06
-2.47271e-06
-1.50114e-06
-2.30433e-06
-1.88702e-06
-2.10521e-06
-2.2831e-06
-1.87476e-06
-2.68732e-06
-1.61255e-06
-3.09657e-06
-1.31848e-06
-3.50835e-06
-9.92605e-07
-3.918e-06
-6.35492e-07
-4.32281e-06
-2.47756e-07
-4.71588e-06
1.69055e-07
-5.09435e-06
6.13725e-07
-5.44929e-06
1.08356e-06
-5.77707e-06
1.57669e-06
-6.06735e-06
2.08877e-06
-6.32488e-06
2.61765e-06
-6.52175e-06
3.15572e-06
-6.69116e-06
3.70286e-06
-6.75388e-06
4.2463e-06
-6.82358e-06
4.79186e-06
-6.70567e-06
5.3164e-06
-6.70455e-06
5.84127e-06
-6.33657e-06
6.32057e-06
-6.37266e-06
6.81219e-06
-5.62523e-06
7.22005e-06
-5.96324e-06
7.68428e-06
-4.62808e-06
8.00418e-06
-5.8348e-06
8.50715e-06
-4.36496e-06
-8.72438e-06
8.78578e-06
5.27354e-05
6.73688e-06
3.95672e-05
3.7359e-06
2.4116e-05
1.36169e-06
1.38513e-05
-7.37126e-09
4.23696e-06
-4.56613e-07
2.38954e-06
-5.43407e-07
9.39347e-07
-6.52884e-07
1.53448e-06
-7.40817e-07
1.7077e-06
-8.64708e-07
1.97003e-06
-9.92887e-07
2.13427e-06
-1.13799e-06
2.10142e-06
-1.28255e-06
2.07915e-06
-1.42734e-06
2.05758e-06
-1.56693e-06
2.1852e-06
-1.70536e-06
2.36343e-06
-1.84423e-06
2.51398e-06
-1.98431e-06
2.53016e-06
-2.12196e-06
2.43105e-06
-2.25284e-06
2.25909e-06
-2.37295e-06
2.059e-06
-2.4795e-06
1.84375e-06
-2.57045e-06
1.6155e-06
-2.64426e-06
1.37029e-06
-2.69947e-06
1.10731e-06
-2.73465e-06
8.25644e-07
-2.7485e-06
5.25797e-07
-2.7397e-06
2.07925e-07
-2.707e-06
-1.27813e-07
-2.6491e-06
-4.81377e-07
-2.56481e-06
-8.52201e-07
-2.45301e-06
-1.23938e-06
-2.31267e-06
-1.64148e-06
-2.14289e-06
-2.05679e-06
-1.94292e-06
-2.48307e-06
-1.71218e-06
-2.91806e-06
-1.45026e-06
-3.35849e-06
-1.15704e-06
-3.80156e-06
-8.32588e-07
-4.24246e-06
-4.77456e-07
-4.67794e-06
-9.2246e-08
-5.10109e-06
3.21544e-07
-5.50814e-06
7.62679e-07
-5.89042e-06
1.22855e-06
-6.24295e-06
1.71724e-06
-6.55604e-06
2.22446e-06
-6.8321e-06
2.74803e-06
-7.04531e-06
3.2805e-06
-7.22363e-06
3.82163e-06
-7.29501e-06
4.35893e-06
-7.36087e-06
4.89798e-06
-7.24473e-06
5.41608e-06
-7.22264e-06
5.93423e-06
-6.85472e-06
6.40708e-06
-6.84551e-06
6.89216e-06
-6.1103e-06
7.29368e-06
-6.36476e-06
7.75167e-06
-5.08607e-06
8.06467e-06
-6.1478e-06
8.55527e-06
-4.85556e-06
-8.9615e-06
9.00425e-06
5.37311e-05
7.22143e-06
4.135e-05
4.396e-06
2.69414e-05
1.90606e-06
1.63412e-05
2.37338e-07
5.90568e-06
-3.65998e-07
2.99287e-06
-5.03623e-07
1.07697e-06
-6.17168e-07
1.64803e-06
-7.01066e-07
1.7916e-06
-8.19873e-07
2.08884e-06
-9.4248e-07
2.25688e-06
-1.08328e-06
2.24222e-06
-1.22429e-06
2.22016e-06
-1.36546e-06
2.19875e-06
-1.50005e-06
2.31979e-06
-1.63158e-06
2.49496e-06
-1.76213e-06
2.64453e-06
-1.89355e-06
2.66159e-06
-2.02296e-06
2.56046e-06
-2.14629e-06
2.38242e-06
-2.25945e-06
2.17217e-06
-2.35955e-06
1.94385e-06
-2.44445e-06
1.7004e-06
-2.51258e-06
1.43842e-06
-2.56246e-06
1.15719e-06
-2.59267e-06
8.55856e-07
-2.60189e-06
5.35024e-07
-2.58887e-06
1.94898e-07
-2.55232e-06
-1.6436e-07
-2.49102e-06
-5.42682e-07
-2.40377e-06
-9.39441e-07
-2.28951e-06
-1.35364e-06
-2.14723e-06
-1.78376e-06
-1.97607e-06
-2.22795e-06
-1.77529e-06
-2.68386e-06
-1.54432e-06
-3.14903e-06
-1.28276e-06
-3.62005e-06
-9.90507e-07
-4.09381e-06
-6.67613e-07
-4.56535e-06
-3.14626e-07
-5.03093e-06
6.78645e-08
-5.48358e-06
4.7841e-07
-5.91868e-06
9.15759e-07
-6.32777e-06
1.37738e-06
-6.70457e-06
1.86132e-06
-7.03998e-06
2.36336e-06
-7.33414e-06
2.88126e-06
-7.56322e-06
3.40777e-06
-7.75014e-06
3.94253e-06
-7.82977e-06
4.47332e-06
-7.89166e-06
5.00551e-06
-7.77691e-06
5.51683e-06
-7.73396e-06
6.02789e-06
-7.36579e-06
6.49402e-06
-7.31163e-06
6.97215e-06
-6.58843e-06
7.3672e-06
-6.75981e-06
7.81839e-06
-5.53727e-06
8.12454e-06
-6.45394e-06
8.60223e-06
-5.33325e-06
-9.17393e-06
9.19305e-06
5.45381e-05
7.66216e-06
4.28809e-05
5.04069e-06
2.95629e-05
2.49184e-06
1.88901e-05
5.75148e-07
7.82237e-06
-2.2771e-07
3.79573e-06
-4.50477e-07
1.29974e-06
-5.74999e-07
1.77255e-06
-6.56694e-07
1.8733e-06
-7.71058e-07
2.2032e-06
-8.88212e-07
2.37403e-06
-1.02458e-06
2.37859e-06
-1.1618e-06
2.35738e-06
-1.29921e-06
2.33617e-06
-1.42882e-06
2.4494e-06
-1.55361e-06
2.61974e-06
-1.676e-06
2.76692e-06
-1.79882e-06
2.78441e-06
-1.91994e-06
2.68158e-06
-2.03559e-06
2.49806e-06
-2.14165e-06
2.27823e-06
-2.23513e-06
2.03733e-06
-2.31384e-06
1.77911e-06
-2.37615e-06
1.50074e-06
-2.42057e-06
1.2016e-06
-2.44568e-06
8.80969e-07
-2.45018e-06
5.39524e-07
-2.43282e-06
1.77534e-07
-2.39234e-06
-2.04832e-07
-2.32755e-06
-6.07471e-07
-2.23731e-06
-1.02969e-06
-2.12055e-06
-1.4704e-06
-1.97632e-06
-1.92799e-06
-1.80378e-06
-2.40049e-06
-1.6022e-06
-2.88543e-06
-1.37105e-06
-3.38019e-06
-1.10994e-06
-3.88117e-06
-8.18753e-07
-4.385e-06
-4.97554e-07
-4.88655e-06
-1.46872e-07
-5.38161e-06
2.3271e-07
-5.86316e-06
6.3979e-07
-6.32576e-06
1.0731e-06
-6.76108e-06
1.53019e-06
-7.16166e-06
2.00908e-06
-7.51886e-06
2.5056e-06
-7.83066e-06
3.01751e-06
-8.07513e-06
3.53771e-06
-8.27034e-06
4.06573e-06
-8.3578e-06
4.58966e-06
-8.41559e-06
5.11461e-06
-8.30186e-06
5.61881e-06
-8.23816e-06
6.12243e-06
-7.86941e-06
6.58154e-06
-7.77074e-06
7.05235e-06
-7.05923e-06
7.44076e-06
-7.14823e-06
7.88469e-06
-5.98119e-06
8.18391e-06
-6.75317e-06
8.64833e-06
-5.79767e-06
-9.36333e-06
9.35625e-06
5.51818e-05
8.06021e-06
4.41769e-05
5.66237e-06
3.19607e-05
3.10865e-06
2.14438e-05
9.92928e-07
9.9381e-06
-3.89953e-08
4.82765e-06
-3.77653e-07
1.6384e-06
-5.24348e-07
1.91924e-06
-6.06802e-07
1.95575e-06
-7.17719e-07
2.31412e-06
-8.29704e-07
2.48601e-06
-9.61581e-07
2.51046e-06
-1.09483e-06
2.49063e-06
-1.22837e-06
2.46971e-06
-1.35303e-06
2.57406e-06
-1.47125e-06
2.73796e-06
-1.58567e-06
2.88134e-06
-1.69997e-06
2.89871e-06
-1.81275e-06
2.79437e-06
-1.9206e-06
2.60591e-06
-2.01942e-06
2.37704e-06
-2.10615e-06
2.12406e-06
-2.17852e-06
1.85148e-06
-2.23488e-06
1.55709e-06
-2.2737e-06
1.24042e-06
-2.29359e-06
9.00862e-07
-2.29326e-06
5.39188e-07
-2.27146e-06
1.55735e-07
-2.22697e-06
-2.49316e-07
-2.15863e-06
-6.75817e-07
-2.06532e-06
-1.123e-06
-1.94603e-06
-1.58969e-06
-1.79983e-06
-2.07419e-06
-1.6259e-06
-2.57442e-06
-1.42356e-06
-3.08777e-06
-1.19228e-06
-3.61147e-06
-9.31676e-07
-4.14177e-06
-6.41664e-07
-4.67501e-06
-3.22289e-07
-5.20593e-06
2.59304e-08
-5.72983e-06
4.02416e-07
-6.23964e-06
8.05808e-07
-6.72915e-06
1.23484e-06
-7.19011e-06
1.68711e-06
-7.61394e-06
2.16063e-06
-7.99238e-06
2.65131e-06
-8.32134e-06
3.15689e-06
-8.58071e-06
3.67042e-06
-8.78388e-06
4.19137e-06
-8.87874e-06
4.70806e-06
-8.93228e-06
5.22542e-06
-8.81923e-06
5.72216e-06
-8.7349e-06
6.21799e-06
-8.36523e-06
6.66978e-06
-8.22254e-06
7.13291e-06
-7.52236e-06
7.51447e-06
-7.52978e-06
7.95071e-06
-6.41744e-06
8.24288e-06
-7.04533e-06
8.69378e-06
-6.24857e-06
-9.53112e-06
9.49748e-06
5.56843e-05
8.41736e-06
4.52571e-05
6.25503e-06
3.41231e-05
3.74575e-06
2.39531e-05
1.48158e-06
1.22023e-05
2.31421e-07
6.07781e-06
-2.7687e-07
2.14669e-06
-4.62112e-07
2.10449e-06
-5.5012e-07
2.04376e-06
-6.59112e-07
2.42311e-06
-7.66447e-07
2.59335e-06
-8.93905e-07
2.63792e-06
-1.02307e-06
2.6198e-06
-1.15265e-06
2.59928e-06
-1.27242e-06
2.69383e-06
-1.38425e-06
2.84979e-06
-1.49089e-06
2.98798e-06
-1.59677e-06
3.00459e-06
-1.70121e-06
2.89881e-06
-1.80117e-06
2.70586e-06
-1.89262e-06
2.46849e-06
-1.97245e-06
2.2039e-06
-2.03836e-06
1.91738e-06
-2.08863e-06
1.60736e-06
-2.12173e-06
1.27353e-06
-2.13629e-06
9.15419e-07
-2.13101e-06
5.33907e-07
-2.10468e-06
1.29403e-07
-2.05609e-06
-2.97897e-07
-1.98412e-06
-7.47789e-07
-1.88769e-06
-1.21943e-06
-1.76583e-06
-1.71155e-06
-1.61764e-06
-2.22238e-06
-1.44233e-06
-2.74972e-06
-1.23924e-06
-3.29086e-06
-1.00788e-06
-3.84284e-06
-7.47866e-07
-4.40177e-06
-4.59125e-07
-4.96375e-06
-1.41702e-07
-5.52335e-06
2.03898e-07
-6.07543e-06
5.77099e-07
-6.61285e-06
9.76583e-07
-7.12864e-06
1.40108e-06
-7.61461e-06
1.84826e-06
-8.06112e-06
2.31612e-06
-8.46024e-06
2.80063e-06
-8.80585e-06
3.29953e-06
-9.07961e-06
3.80605e-06
-9.29039e-06
4.31955e-06
-9.39224e-06
4.82865e-06
-9.44138e-06
5.33807e-06
-9.32864e-06
5.82699e-06
-9.22382e-06
6.31467e-06
-8.85292e-06
6.75885e-06
-8.66671e-06
7.21396e-06
-7.97748e-06
7.58843e-06
-7.90425e-06
8.01662e-06
-6.84563e-06
8.30154e-06
-7.33026e-06
8.73876e-06
-6.68578e-06
-9.67853e-06
9.62e-06
5.60643e-05
8.73588e-06
4.61412e-05
6.81407e-06
3.60449e-05
4.39263e-06
2.63745e-05
2.02845e-06
1.45664e-05
5.629e-07
7.54336e-06
-1.33877e-07
2.84347e-06
-3.83631e-07
2.35424e-06
-4.8486e-07
2.14499e-06
-5.9423e-07
2.53248e-06
-6.97777e-07
2.6969e-06
-8.21051e-07
2.7612e-06
-9.46101e-07
2.74485e-06
-1.07168e-06
2.72486e-06
-1.18664e-06
2.8088e-06
-1.2923e-06
2.95544e-06
-1.39138e-06
3.08706e-06
-1.48897e-06
3.10218e-06
-1.58508e-06
2.99493e-06
-1.67709e-06
2.79787e-06
-1.76106e-06
2.55246e-06
-1.83388e-06
2.27672e-06
-1.89319e-06
1.97669e-06
-1.93725e-06
1.65142e-06
-1.96452e-06
1.3008e-06
-1.97363e-06
9.24528e-07
-1.9633e-06
5.23581e-07
-1.93235e-06
9.84456e-08
-1.87959e-06
-3.50657e-07
-1.80392e-06
-8.23457e-07
-1.70432e-06
-1.31903e-06
-1.57984e-06
-1.83603e-06
-1.42964e-06
-2.37258e-06
-1.25295e-06
-2.92641e-06
-1.04915e-06
-3.49467e-06
-8.17739e-07
-4.07424e-06
-5.58392e-07
-4.66112e-06
-2.71021e-07
-5.25112e-06
4.4321e-08
-5.83869e-06
3.87143e-07
-6.41825e-06
7.56871e-07
-6.98257e-06
1.15222e-06
-7.52399e-06
1.57194e-06
-8.03432e-06
2.01374e-06
-8.50293e-06
2.47563e-06
-8.92212e-06
2.95366e-06
-9.28388e-06
3.44555e-06
-9.5715e-06
3.94469e-06
-9.78954e-06
4.45039e-06
-9.89794e-06
4.95154e-06
-9.94253e-06
5.45264e-06
-9.82975e-06
5.93339e-06
-9.70457e-06
6.41259e-06
-9.33212e-06
6.84882e-06
-9.10294e-06
7.29559e-06
-8.42425e-06
7.66271e-06
-8.27136e-06
8.0825e-06
-7.26542e-06
8.35997e-06
-7.60774e-06
8.7834e-06
-7.10921e-06
-9.80663e-06
9.72668e-06
5.63377e-05
9.01847e-06
4.68494e-05
7.33619e-06
3.77271e-05
5.03946e-06
2.86712e-05
2.62156e-06
1.69843e-05
9.58199e-07
9.20672e-06
6.10423e-08
3.74062e-06
-2.82269e-07
2.69755e-06
-4.08515e-07
2.27124e-06
-5.21718e-07
2.64569e-06
-6.22835e-07
2.79801e-06
-7.42388e-07
2.88075e-06
-8.6342e-07
2.86588e-06
-9.85024e-07
2.84646e-06
-1.09531e-06
2.91908e-06
-1.19502e-06
3.05516e-06
-1.28679e-06
3.17883e-06
-1.37626e-06
3.19165e-06
-1.4641e-06
3.08277e-06
-1.54811e-06
2.88187e-06
-1.62452e-06
2.62887e-06
-1.69022e-06
2.34243e-06
-1.74282e-06
2.02928e-06
-1.78056e-06
1.68916e-06
-1.80189e-06
1.32214e-06
-1.80545e-06
9.2809e-07
-1.78999e-06
5.08114e-07
-1.75432e-06
6.2777e-08
-1.69731e-06
-4.07671e-07
-1.61788e-06
-9.02882e-07
-1.51506e-06
-1.42185e-06
-1.38794e-06
-1.96315e-06
-1.23571e-06
-2.52482e-06
-1.05764e-06
-3.10447e-06
-8.53142e-07
-3.69917e-06
-6.21749e-07
-4.30564e-06
-3.63139e-07
-4.91973e-06
-7.72392e-08
-5.53702e-06
2.35892e-07
-6.15182e-06
5.75776e-07
-6.75814e-06
9.41841e-07
-7.34864e-06
1.33284e-06
-7.91499e-06
1.74752e-06
-8.449e-06
2.18367e-06
-8.93908e-06
2.63928e-06
-9.37773e-06
3.11049e-06
-9.75509e-06
3.59503e-06
-1.0056e-05
4.08645e-06
-1.0281e-05
4.58398e-06
-1.03955e-05
5.0768e-06
-1.04354e-05
5.56924e-06
-1.03222e-05
6.04146e-06
-1.01768e-05
6.51183e-06
-9.80248e-06
6.93979e-06
-9.5309e-06
7.37789e-06
-8.86236e-06
7.73738e-06
-8.63085e-06
8.14845e-06
-7.67649e-06
8.41824e-06
-7.87753e-06
8.82782e-06
-7.51879e-06
-9.91634e-06
9.82005e-06
5.65176e-05
9.26804e-06
4.74014e-05
7.81925e-06
3.91759e-05
5.67726e-06
3.08132e-05
3.24996e-06
1.94116e-05
1.41585e-06
1.10408e-05
3.07512e-07
4.84896e-06
-1.49597e-07
3.15466e-06
-3.17597e-07
2.43924e-06
-4.39755e-07
2.76784e-06
-5.40512e-07
2.89877e-06
-6.57124e-07
2.99736e-06
-7.74409e-07
2.98317e-06
-8.92166e-07
2.96422e-06
-9.97946e-07
3.02486e-06
-1.09199e-06
3.1492e-06
-1.17673e-06
3.26358e-06
-1.25828e-06
3.2732e-06
-1.33793e-06
3.16242e-06
-1.41394e-06
2.95789e-06
-1.48274e-06
2.69766e-06
-1.54124e-06
2.40093e-06
-1.58704e-06
2.07508e-06
-1.61836e-06
1.72048e-06
-1.63366e-06
1.33743e-06
-1.63158e-06
9.26011e-07
-1.61089e-06
4.87423e-07
-1.57043e-06
2.23205e-08
-1.5091e-06
-4.69006e-07
-1.42586e-06
-9.86121e-07
-1.31977e-06
-1.52793e-06
-1.18998e-06
-2.09294e-06
-1.03571e-06
-2.67909e-06
-8.56281e-07
-3.2839e-06
-6.51114e-07
-3.90434e-06
-4.19785e-07
-4.53697e-06
-1.6199e-07
-5.17753e-06