/*--------------------------------*- C++ -*----------------------------------*\
| =========                 |                                                 |
| \\      /  F ield         | OpenFOAM: The Open Source CFD Toolbox           |
|  \\    /   O peration     | Version:  2.4.0                                 |
|   \\  /    A nd           | Web:      www.OpenFOAM.org                      |
|    \\/     M anipulation  |                                                 |
\*---------------------------------------------------------------------------*/
FoamFile
{
    version     2.0;
    format      ascii;
    class       volScalarField;
    location    "0.65";
    object      nut;
}
// * * * * * * * * * * * * * * * * * * * * * * * * * * * * * * * * * * * * * //

dimensions      [0 2 -1 0 0 0 0];

internalField   nonuniform List<scalar> 
6000
(
2.40581e-05
2.70589e-05
2.95827e-05
3.16182e-05
3.31908e-05
3.4349e-05
3.51522e-05
3.56633e-05
3.59428e-05
3.60457e-05
3.60191e-05
3.59015e-05
3.5724e-05
3.55103e-05
3.52785e-05
3.50417e-05
3.48093e-05
3.45877e-05
3.43808e-05
3.41908e-05
3.40187e-05
3.38642e-05
3.37263e-05
3.36033e-05
3.34932e-05
3.33937e-05
3.33026e-05
3.32176e-05
3.3137e-05
3.30594e-05
3.29837e-05
3.29093e-05
3.28358e-05
3.2763e-05
3.26909e-05
3.26192e-05
3.2548e-05
3.24772e-05
3.24065e-05
3.23356e-05
3.22643e-05
3.2192e-05
3.2118e-05
3.20412e-05
3.19601e-05
3.18728e-05
3.17763e-05
3.16668e-05
3.15389e-05
3.13857e-05
3.11979e-05
3.09631e-05
3.06655e-05
3.02832e-05
2.97886e-05
2.91404e-05
2.83011e-05
2.71767e-05
2.58798e-05
2.39603e-05
4.52336e-05
3.94809e-05
3.46735e-05
3.09934e-05
2.83843e-05
2.66578e-05
2.56033e-05
2.50492e-05
2.48724e-05
2.49877e-05
2.53359e-05
2.58755e-05
2.65759e-05
2.74136e-05
2.83687e-05
2.94233e-05
3.05599e-05
3.17607e-05
3.30075e-05
3.42814e-05
3.55629e-05
3.6833e-05
3.80735e-05
3.92677e-05
4.0402e-05
4.14658e-05
4.24523e-05
4.33584e-05
4.4184e-05
4.49313e-05
4.56039e-05
4.62059e-05
4.67412e-05
4.72136e-05
4.76262e-05
4.79818e-05
4.82828e-05
4.85311e-05
4.87285e-05
4.88768e-05
4.89778e-05
4.90338e-05
4.90482e-05
4.90256e-05
4.89724e-05
4.88972e-05
4.88102e-05
4.87238e-05
4.86522e-05
4.86116e-05
4.8621e-05
4.8704e-05
4.8893e-05
4.92359e-05
4.98077e-05
5.07353e-05
5.22272e-05
5.46398e-05
5.82684e-05
6.70686e-05
4.98371e-05
4.86949e-05
4.7185e-05
4.5293e-05
4.30834e-05
4.06954e-05
3.82786e-05
3.59527e-05
3.37988e-05
3.18625e-05
3.01631e-05
2.87028e-05
2.74747e-05
2.6468e-05
2.56706e-05
2.50708e-05
2.4658e-05
2.44224e-05
2.43551e-05
2.44475e-05
2.46908e-05
2.50758e-05
2.55921e-05
2.62285e-05
2.69719e-05
2.78086e-05
2.87235e-05
2.97011e-05
3.07256e-05
3.17818e-05
3.28548e-05
3.39305e-05
3.49959e-05
3.60388e-05
3.70482e-05
3.80141e-05
3.89278e-05
3.97816e-05
4.05692e-05
4.12855e-05
4.19262e-05
4.24877e-05
4.29675e-05
4.33633e-05
4.36742e-05
4.39003e-05
4.40437e-05
4.41094e-05
4.41048e-05
4.4041e-05
4.39328e-05
4.37998e-05
4.36687e-05
4.35808e-05
4.36036e-05
4.38641e-05
4.45892e-05
4.62746e-05
4.95679e-05
5.79344e-05
5.00841e-05
4.95483e-05
4.89992e-05
4.84047e-05
4.7734e-05
4.69673e-05
4.60975e-05
4.51293e-05
4.40765e-05
4.29589e-05
4.17983e-05
4.06152e-05
3.94279e-05
3.82514e-05
3.70976e-05
3.59763e-05
3.48951e-05
3.38607e-05
3.28791e-05
3.1956e-05
3.1097e-05
3.03078e-05
2.95941e-05
2.8961e-05
2.84135e-05
2.79555e-05
2.75897e-05
2.73177e-05
2.71394e-05
2.70529e-05
2.70546e-05
2.71393e-05
2.73002e-05
2.75293e-05
2.78173e-05
2.81544e-05
2.85305e-05
2.89351e-05
2.93584e-05
2.97906e-05
3.02226e-05
3.06461e-05
3.10527e-05
3.14347e-05
3.17845e-05
3.20949e-05
3.236e-05
3.25752e-05
3.27385e-05
3.28512e-05
3.29189e-05
3.29533e-05
3.29737e-05
3.30122e-05
3.31204e-05
3.33902e-05
3.3981e-05
3.52483e-05
3.77948e-05
4.3729e-05
5.00958e-05
4.96032e-05
4.91474e-05
4.87183e-05
4.83056e-05
4.7899e-05
4.74892e-05
4.70678e-05
4.66287e-05
4.61674e-05
4.56817e-05
4.51711e-05
4.46366e-05
4.40799e-05
4.35036e-05
4.29103e-05
4.23029e-05
4.16841e-05
4.10566e-05
4.04228e-05
3.9785e-05
3.91455e-05
3.85063e-05
3.78695e-05
3.72373e-05
3.66119e-05
3.59958e-05
3.53918e-05
3.48032e-05
3.42334e-05
3.36861e-05
3.31649e-05
3.26736e-05
3.22153e-05
3.17929e-05
3.14084e-05
3.10631e-05
3.07579e-05
3.04928e-05
3.02672e-05
3.00802e-05
2.99302e-05
2.98151e-05
2.97313e-05
2.96736e-05
2.96345e-05
2.96035e-05
2.95668e-05
2.95076e-05
2.94071e-05
2.92456e-05
2.9006e-05
2.86781e-05
2.82665e-05
2.78013e-05
2.73613e-05
2.70918e-05
2.73118e-05
2.85237e-05
3.20678e-05
5.00963e-05
4.96062e-05
4.91573e-05
4.87436e-05
4.83595e-05
4.80003e-05
4.76612e-05
4.73381e-05
4.70267e-05
4.67236e-05
4.64253e-05
4.61292e-05
4.58329e-05
4.55344e-05
4.52324e-05
4.49258e-05
4.46137e-05
4.42959e-05
4.39721e-05
4.36422e-05
4.33065e-05
4.29653e-05
4.26188e-05
4.22676e-05
4.19121e-05
4.15529e-05
4.11905e-05
4.08257e-05
4.04593e-05
4.00922e-05
3.97255e-05
3.93606e-05
3.89991e-05
3.86425e-05
3.8293e-05
3.79526e-05
3.76235e-05
3.73083e-05
3.70091e-05
3.67286e-05
3.64689e-05
3.62321e-05
3.60196e-05
3.58316e-05
3.56668e-05
3.55207e-05
3.53851e-05
3.52464e-05
3.50841e-05
3.48697e-05
3.45646e-05
3.41191e-05
3.34719e-05
3.25539e-05
3.12987e-05
2.96844e-05
2.77716e-05
2.592e-05
2.46127e-05
2.53071e-05
5.00962e-05
4.96062e-05
4.91577e-05
4.8745e-05
4.83636e-05
4.80093e-05
4.7679e-05
4.73694e-05
4.70779e-05
4.68021e-05
4.65397e-05
4.62889e-05
4.60476e-05
4.58144e-05
4.55878e-05
4.53663e-05
4.51489e-05
4.49345e-05
4.47222e-05
4.45113e-05
4.43012e-05
4.40914e-05
4.38815e-05
4.36711e-05
4.34601e-05
4.32484e-05
4.3036e-05
4.2823e-05
4.26095e-05
4.2396e-05
4.21828e-05
4.19707e-05
4.17604e-05
4.15531e-05
4.135e-05
4.11527e-05
4.09629e-05
4.07826e-05
4.06142e-05
4.04599e-05
4.03221e-05
4.02031e-05
4.01049e-05
4.00286e-05
3.99744e-05
3.9941e-05
3.99244e-05
3.99177e-05
3.99092e-05
3.98812e-05
3.98068e-05
3.96457e-05
3.93361e-05
3.87825e-05
3.78349e-05
3.62798e-05
3.38362e-05
3.04728e-05
2.63894e-05
2.3735e-05
5.00962e-05
4.96061e-05
4.91575e-05
4.87448e-05
4.83634e-05
4.80095e-05
4.76799e-05
4.73719e-05
4.70829e-05
4.6811e-05
4.65544e-05
4.63113e-05
4.60804e-05
4.58603e-05
4.565e-05
4.54483e-05
4.52543e-05
4.5067e-05
4.48858e-05
4.47098e-05
4.45385e-05
4.43712e-05
4.42074e-05
4.40466e-05
4.38885e-05
4.37327e-05
4.3579e-05
4.34271e-05
4.32771e-05
4.31289e-05
4.29826e-05
4.28387e-05
4.26975e-05
4.25599e-05
4.24268e-05
4.22994e-05
4.21793e-05
4.20683e-05
4.19683e-05
4.18818e-05
4.18109e-05
4.17579e-05
4.17249e-05
4.17134e-05
4.17244e-05
4.17578e-05
4.18124e-05
4.18851e-05
4.19712e-05
4.20629e-05
4.21487e-05
4.22109e-05
4.22209e-05
4.21289e-05
4.18404e-05
4.11719e-05
3.97447e-05
3.70062e-05
3.20966e-05
2.66485e-05
5.00962e-05
4.9606e-05
4.91573e-05
4.87444e-05
4.8363e-05
4.8009e-05
4.76794e-05
4.73714e-05
4.70827e-05
4.68112e-05
4.65552e-05
4.63133e-05
4.6084e-05
4.58662e-05
4.56589e-05
4.5461e-05
4.52719e-05
4.50907e-05
4.49167e-05
4.47493e-05
4.4588e-05
4.44322e-05
4.42814e-05
4.41353e-05
4.39933e-05
4.38552e-05
4.37208e-05
4.35897e-05
4.34617e-05
4.3337e-05
4.32154e-05
4.30971e-05
4.29826e-05
4.28725e-05
4.27674e-05
4.26686e-05
4.25775e-05
4.24957e-05
4.24251e-05
4.23679e-05
4.23262e-05
4.23023e-05
4.22981e-05
4.23152e-05
4.23546e-05
4.24166e-05
4.25007e-05
4.26054e-05
4.27281e-05
4.2865e-05
4.30111e-05
4.31596e-05
4.33004e-05
4.34163e-05
4.34719e-05
4.3386e-05
4.29434e-05
4.1661e-05
3.82456e-05
3.23577e-05
5.00962e-05
4.96059e-05
4.91571e-05
4.87442e-05
4.83626e-05
4.80085e-05
4.76788e-05
4.73707e-05
4.70819e-05
4.68104e-05
4.65545e-05
4.63126e-05
4.60835e-05
4.5866e-05
4.56591e-05
4.54619e-05
4.52736e-05
4.50936e-05
4.49211e-05
4.47555e-05
4.45964e-05
4.44433e-05
4.42957e-05
4.41533e-05
4.40157e-05
4.38825e-05
4.37535e-05
4.36286e-05
4.35074e-05
4.339e-05
4.32764e-05
4.31667e-05
4.30614e-05
4.29608e-05
4.28659e-05
4.27777e-05
4.26975e-05
4.2627e-05
4.2568e-05
4.25226e-05
4.2493e-05
4.24812e-05
4.24892e-05
4.25186e-05
4.25703e-05
4.26448e-05
4.27417e-05
4.28598e-05
4.29973e-05
4.31516e-05
4.33198e-05
4.34989e-05
4.36857e-05
4.3876e-05
4.40616e-05
4.42187e-05
4.42634e-05
4.39532e-05
4.23722e-05
3.82103e-05
5.00962e-05
4.96059e-05
4.9157e-05
4.8744e-05
4.83623e-05
4.80081e-05
4.76783e-05
4.73702e-05
4.70813e-05
4.68097e-05
4.65537e-05
4.63117e-05
4.60826e-05
4.58651e-05
4.56582e-05
4.54611e-05
4.52729e-05
4.5093e-05
4.49207e-05
4.47555e-05
4.45968e-05
4.44442e-05
4.42973e-05
4.41557e-05
4.40191e-05
4.38871e-05
4.37595e-05
4.36361e-05
4.35168e-05
4.34015e-05
4.32902e-05
4.31831e-05
4.30805e-05
4.2983e-05
4.28914e-05
4.28067e-05
4.27302e-05
4.26637e-05
4.26088e-05
4.25678e-05
4.25428e-05
4.25358e-05
4.25487e-05
4.25831e-05
4.264e-05
4.27198e-05
4.28221e-05
4.2946e-05
4.30897e-05
4.32511e-05
4.3428e-05
4.36186e-05
4.38219e-05
4.40385e-05
4.42698e-05
4.45155e-05
4.47538e-05
4.4896e-05
4.44647e-05
4.23558e-05
5.00962e-05
4.96058e-05
4.91569e-05
4.87438e-05
4.8362e-05
4.80078e-05
4.76779e-05
4.73697e-05
4.70807e-05
4.6809e-05
4.65529e-05
4.63109e-05
4.60817e-05
4.58642e-05
4.56572e-05
4.54601e-05
4.52719e-05
4.5092e-05
4.49197e-05
4.47545e-05
4.45959e-05
4.44434e-05
4.42966e-05
4.41551e-05
4.40187e-05
4.38869e-05
4.37596e-05
4.36366e-05
4.35177e-05
4.34029e-05
4.32921e-05
4.31857e-05
4.30839e-05
4.29873e-05
4.28966e-05
4.2813e-05
4.27377e-05
4.26724e-05
4.2619e-05
4.25796e-05
4.25561e-05
4.25509e-05
4.25656e-05
4.2602e-05
4.26609e-05
4.27429e-05
4.28475e-05
4.29738e-05
4.312e-05
4.32843e-05
4.34646e-05
4.36595e-05
4.38689e-05
4.40946e-05
4.43417e-05
4.46179e-05
4.49264e-05
4.52495e-05
4.53741e-05
4.46614e-05
5.00962e-05
4.96058e-05
4.91568e-05
4.87436e-05
4.83618e-05
4.80075e-05
4.76776e-05
4.73692e-05
4.70802e-05
4.68085e-05
4.65523e-05
4.63103e-05
4.6081e-05
4.58634e-05
4.56564e-05
4.54592e-05
4.5271e-05
4.5091e-05
4.49187e-05
4.47535e-05
4.45948e-05
4.44423e-05
4.42955e-05
4.4154e-05
4.40176e-05
4.38859e-05
4.37586e-05
4.36357e-05
4.35168e-05
4.34021e-05
4.32915e-05
4.31852e-05
4.30836e-05
4.29872e-05
4.28968e-05
4.28134e-05
4.27385e-05
4.26737e-05
4.26208e-05
4.25818e-05
4.2559e-05
4.25544e-05
4.25699e-05
4.2607e-05
4.26668e-05
4.27496e-05
4.28551e-05
4.29824e-05
4.31296e-05
4.3295e-05
4.34765e-05
4.36729e-05
4.38842e-05
4.41129e-05
4.43648e-05
4.46505e-05
4.4982e-05
4.53699e-05
4.57304e-05
4.57609e-05
5.00962e-05
4.96058e-05
4.91567e-05
4.87435e-05
4.83616e-05
4.80073e-05
4.76773e-05
4.73689e-05
4.70798e-05
4.6808e-05
4.65518e-05
4.63097e-05
4.60804e-05
4.58627e-05
4.56557e-05
4.54585e-05
4.52702e-05
4.50902e-05
4.49178e-05
4.47526e-05
4.45939e-05
4.44414e-05
4.42945e-05
4.4153e-05
4.40166e-05
4.38848e-05
4.37576e-05
4.36346e-05
4.35158e-05
4.3401e-05
4.32904e-05
4.31842e-05
4.30826e-05
4.29862e-05
4.28959e-05
4.28127e-05
4.27379e-05
4.26732e-05
4.26204e-05
4.25817e-05
4.25591e-05
4.25548e-05
4.25706e-05
4.26081e-05
4.26683e-05
4.27515e-05
4.28575e-05
4.29851e-05
4.31327e-05
4.32985e-05
4.34804e-05
4.36771e-05
4.38888e-05
4.4118e-05
4.43707e-05
4.46582e-05
4.49951e-05
4.54017e-05
4.58519e-05
4.6226e-05
5.00962e-05
4.96058e-05
4.91567e-05
4.87434e-05
4.83615e-05
4.80071e-05
4.7677e-05
4.73686e-05
4.70794e-05
4.68076e-05
4.65513e-05
4.63092e-05
4.60798e-05
4.58621e-05
4.56551e-05
4.54578e-05
4.52695e-05
4.50895e-05
4.49171e-05
4.47518e-05
4.45931e-05
4.44405e-05
4.42937e-05
4.41522e-05
4.40157e-05
4.38839e-05
4.37566e-05
4.36336e-05
4.35148e-05
4.34e-05
4.32894e-05
4.31831e-05
4.30816e-05
4.29852e-05
4.28949e-05
4.28117e-05
4.2737e-05
4.26724e-05
4.26197e-05
4.25811e-05
4.25587e-05
4.25546e-05
4.25706e-05
4.26083e-05
4.26687e-05
4.27521e-05
4.28583e-05
4.29861e-05
4.31339e-05
4.32997e-05
4.34817e-05
4.36783e-05
4.38898e-05
4.41187e-05
4.43708e-05
4.46572e-05
4.49931e-05
4.5401e-05
4.58787e-05
4.63927e-05
5.00962e-05
4.96058e-05
4.91566e-05
4.87433e-05
4.83614e-05
4.80069e-05
4.76768e-05
4.73683e-05
4.70791e-05
4.68072e-05
4.6551e-05
4.63088e-05
4.60794e-05
4.58616e-05
4.56546e-05
4.54573e-05
4.52689e-05
4.50889e-05
4.49165e-05
4.47511e-05
4.45924e-05
4.44398e-05
4.42929e-05
4.41514e-05
4.40149e-05
4.38831e-05
4.37558e-05
4.36328e-05
4.35139e-05
4.33992e-05
4.32885e-05
4.31823e-05
4.30807e-05
4.29843e-05
4.2894e-05
4.28109e-05
4.27362e-05
4.26716e-05
4.2619e-05
4.25805e-05
4.25582e-05
4.25542e-05
4.25704e-05
4.26083e-05
4.26688e-05
4.27524e-05
4.28587e-05
4.29867e-05
4.31345e-05
4.33004e-05
4.34822e-05
4.36787e-05
4.38898e-05
4.4118e-05
4.4369e-05
4.46534e-05
4.49862e-05
4.5389e-05
4.58692e-05
4.64289e-05
5.00962e-05
4.96057e-05
4.91566e-05
4.87433e-05
4.83613e-05
4.80068e-05
4.76766e-05
4.73681e-05
4.70789e-05
4.68069e-05
4.65506e-05
4.63084e-05
4.6079e-05
4.58612e-05
4.56541e-05
4.54568e-05
4.52684e-05
4.50883e-05
4.49159e-05
4.47506e-05
4.45918e-05
4.44392e-05
4.42923e-05
4.41507e-05
4.40142e-05
4.38824e-05
4.37551e-05
4.36321e-05
4.35132e-05
4.33984e-05
4.32878e-05
4.31815e-05
4.30799e-05
4.29835e-05
4.28933e-05
4.28101e-05
4.27355e-05
4.2671e-05
4.26185e-05
4.258e-05
4.25578e-05
4.25539e-05
4.25702e-05
4.26082e-05
4.26689e-05
4.27527e-05
4.28591e-05
4.29871e-05
4.3135e-05
4.33008e-05
4.34825e-05
4.36788e-05
4.38895e-05
4.4117e-05
4.43668e-05
4.4649e-05
4.49781e-05
4.53741e-05
4.58473e-05
4.64121e-05
5.00962e-05
4.96057e-05
4.91566e-05
4.87432e-05
4.83612e-05
4.80067e-05
4.76765e-05
4.73679e-05
4.70786e-05
4.68067e-05
4.65503e-05
4.63081e-05
4.60786e-05
4.58608e-05
4.56537e-05
4.54564e-05
4.5268e-05
4.50879e-05
4.49154e-05
4.47501e-05
4.45913e-05
4.44387e-05
4.42918e-05
4.41502e-05
4.40136e-05
4.38818e-05
4.37545e-05
4.36314e-05
4.35126e-05
4.33978e-05
4.32871e-05
4.31808e-05
4.30792e-05
4.29829e-05
4.28926e-05
4.28095e-05
4.27349e-05
4.26704e-05
4.2618e-05
4.25796e-05
4.25575e-05
4.25537e-05
4.25701e-05
4.26082e-05
4.26691e-05
4.27529e-05
4.28594e-05
4.29875e-05
4.31354e-05
4.33012e-05
4.34828e-05
4.36788e-05
4.38891e-05
4.41159e-05
4.43645e-05
4.46447e-05
4.49701e-05
4.53592e-05
4.58226e-05
4.63765e-05
5.00961e-05
4.96057e-05
4.91565e-05
4.87432e-05
4.83611e-05
4.80065e-05
4.76763e-05
4.73677e-05
4.70784e-05
4.68065e-05
4.65501e-05
4.63078e-05
4.60783e-05
4.58605e-05
4.56534e-05
4.5456e-05
4.52676e-05
4.50875e-05
4.4915e-05
4.47497e-05
4.45909e-05
4.44382e-05
4.42913e-05
4.41497e-05
4.40132e-05
4.38813e-05
4.3754e-05
4.36309e-05
4.3512e-05
4.33972e-05
4.32866e-05
4.31803e-05
4.30787e-05
4.29823e-05
4.28921e-05
4.2809e-05
4.27344e-05
4.267e-05
4.26176e-05
4.25793e-05
4.25573e-05
4.25535e-05
4.257e-05
4.26083e-05
4.26692e-05
4.27531e-05
4.28597e-05
4.29878e-05
4.31358e-05
4.33015e-05
4.3483e-05
4.36787e-05
4.38887e-05
4.41148e-05
4.43623e-05
4.46406e-05
4.49627e-05
4.53454e-05
4.57988e-05
4.6337e-05
5.00961e-05
4.96057e-05
4.91565e-05
4.87431e-05
4.8361e-05
4.80065e-05
4.76762e-05
4.73676e-05
4.70783e-05
4.68063e-05
4.65499e-05
4.63076e-05
4.60781e-05
4.58603e-05
4.56531e-05
4.54557e-05
4.52673e-05
4.50872e-05
4.49147e-05
4.47493e-05
4.45905e-05
4.44379e-05
4.42909e-05
4.41493e-05
4.40128e-05
4.38809e-05
4.37536e-05
4.36305e-05
4.35116e-05
4.33968e-05
4.32861e-05
4.31798e-05
4.30782e-05
4.29819e-05
4.28917e-05
4.28086e-05
4.2734e-05
4.26696e-05
4.26173e-05
4.2579e-05
4.25571e-05
4.25534e-05
4.257e-05
4.26083e-05
4.26693e-05
4.27534e-05
4.286e-05
4.29882e-05
4.31361e-05
4.33018e-05
4.34831e-05
4.36787e-05
4.38882e-05
4.41137e-05
4.43603e-05
4.46369e-05
4.4956e-05
4.53331e-05
4.57773e-05
4.62996e-05
5.00961e-05
4.96057e-05
4.91565e-05
4.87431e-05
4.8361e-05
4.80064e-05
4.76761e-05
4.73675e-05
4.70781e-05
4.68061e-05
4.65497e-05
4.63074e-05
4.60779e-05
4.58601e-05
4.56529e-05
4.54555e-05
4.5267e-05
4.50869e-05
4.49144e-05
4.4749e-05
4.45902e-05
4.44376e-05
4.42906e-05
4.4149e-05
4.40124e-05
4.38806e-05
4.37532e-05
4.36301e-05
4.35112e-05
4.33964e-05
4.32858e-05
4.31795e-05
4.30779e-05
4.29815e-05
4.28913e-05
4.28082e-05
4.27337e-05
4.26693e-05
4.2617e-05
4.25788e-05
4.25569e-05
4.25534e-05
4.257e-05
4.26084e-05
4.26695e-05
4.27536e-05
4.28603e-05
4.29884e-05
4.31364e-05
4.3302e-05
4.34832e-05
4.36786e-05
4.38878e-05
4.41128e-05
4.43585e-05
4.46336e-05
4.49501e-05
4.53225e-05
4.57588e-05
4.62666e-05
5.00961e-05
4.96057e-05
4.91565e-05
4.87431e-05
4.83609e-05
4.80063e-05
4.76761e-05
4.73674e-05
4.7078e-05
4.6806e-05
4.65496e-05
4.63073e-05
4.60777e-05
4.58599e-05
4.56527e-05
4.54553e-05
4.52668e-05
4.50867e-05
4.49142e-05
4.47488e-05
4.459e-05
4.44373e-05
4.42904e-05
4.41488e-05
4.40122e-05
4.38803e-05
4.3753e-05
4.36299e-05
4.3511e-05
4.33961e-05
4.32855e-05
4.31792e-05
4.30776e-05
4.29813e-05
4.2891e-05
4.2808e-05
4.27335e-05
4.26691e-05
4.26168e-05
4.25787e-05
4.25568e-05
4.25533e-05
4.257e-05
4.26085e-05
4.26696e-05
4.27538e-05
4.28605e-05
4.29887e-05
4.31366e-05
4.33022e-05
4.34833e-05
4.36784e-05
4.38873e-05
4.41118e-05
4.43568e-05
4.46306e-05
4.4945e-05
4.53136e-05
4.57432e-05
4.6239e-05
5.00961e-05
4.96057e-05
4.91565e-05
4.87431e-05
4.83609e-05
4.80063e-05
4.7676e-05
4.73673e-05
4.7078e-05
4.68059e-05
4.65495e-05
4.63072e-05
4.60776e-05
4.58598e-05
4.56526e-05
4.54551e-05
4.52667e-05
4.50865e-05
4.4914e-05
4.47486e-05
4.45898e-05
4.44371e-05
4.42902e-05
4.41486e-05
4.4012e-05
4.38801e-05
4.37528e-05
4.36297e-05
4.35107e-05
4.33959e-05
4.32853e-05
4.3179e-05
4.30774e-05
4.29811e-05
4.28908e-05
4.28078e-05
4.27333e-05
4.2669e-05
4.26167e-05
4.25786e-05
4.25568e-05
4.25533e-05
4.25701e-05
4.26086e-05
4.26698e-05
4.27539e-05
4.28607e-05
4.29889e-05
4.31368e-05
4.33023e-05
4.34833e-05
4.36782e-05
4.38868e-05
4.41109e-05
4.43552e-05
4.4628e-05
4.49408e-05
4.53063e-05
4.57308e-05
4.62168e-05
5.00961e-05
4.96057e-05
4.91565e-05
4.8743e-05
4.83609e-05
4.80063e-05
4.7676e-05
4.73673e-05
4.70779e-05
4.68059e-05
4.65494e-05
4.63071e-05
4.60776e-05
4.58597e-05
4.56525e-05
4.54551e-05
4.52666e-05
4.50864e-05
4.49139e-05
4.47485e-05
4.45897e-05
4.4437e-05
4.42901e-05
4.41484e-05
4.40119e-05
4.388e-05
4.37526e-05
4.36295e-05
4.35106e-05
4.33958e-05
4.32851e-05
4.31788e-05
4.30772e-05
4.29809e-05
4.28907e-05
4.28077e-05
4.27332e-05
4.26689e-05
4.26167e-05
4.25786e-05
4.25568e-05
4.25534e-05
4.25702e-05
4.26087e-05
4.26699e-05
4.27541e-05
4.28609e-05
4.29891e-05
4.31369e-05
4.33023e-05
4.34832e-05
4.3678e-05
4.38863e-05
4.411e-05
4.43538e-05
4.46258e-05
4.49373e-05
4.53007e-05
4.57214e-05
4.62001e-05
5.00961e-05
4.96057e-05
4.91565e-05
4.8743e-05
4.83609e-05
4.80063e-05
4.7676e-05
4.73673e-05
4.70779e-05
4.68058e-05
4.65494e-05
4.63071e-05
4.60775e-05
4.58596e-05
4.56524e-05
4.5455e-05
4.52666e-05
4.50864e-05
4.49139e-05
4.47485e-05
4.45897e-05
4.4437e-05
4.429e-05
4.41484e-05
4.40118e-05
4.38799e-05
4.37526e-05
4.36295e-05
4.35106e-05
4.33957e-05
4.32851e-05
4.31788e-05
4.30772e-05
4.29809e-05
4.28907e-05
4.28077e-05
4.27332e-05
4.26689e-05
4.26167e-05
4.25786e-05
4.25568e-05
4.25534e-05
4.25703e-05
4.26088e-05
4.267e-05
4.27542e-05
4.2861e-05
4.29892e-05
4.3137e-05
4.33023e-05
4.34831e-05
4.36777e-05
4.38858e-05
4.41091e-05
4.43525e-05
4.4624e-05
4.49347e-05
4.52967e-05
4.57151e-05
4.61889e-05
5.00961e-05
4.96057e-05
4.91565e-05
4.8743e-05
4.83609e-05
4.80063e-05
4.7676e-05
4.73673e-05
4.70779e-05
4.68058e-05
4.65494e-05
4.63071e-05
4.60775e-05
4.58596e-05
4.56524e-05
4.5455e-05
4.52666e-05
4.50864e-05
4.49139e-05
4.47485e-05
4.45897e-05
4.4437e-05
4.429e-05
4.41484e-05
4.40118e-05
4.38799e-05
4.37526e-05
4.36295e-05
4.35106e-05
4.33957e-05
4.32851e-05
4.31788e-05
4.30772e-05
4.29809e-05
4.28907e-05
4.28077e-05
4.27332e-05
4.26689e-05
4.26168e-05
4.25787e-05
4.25569e-05
4.25535e-05
4.25704e-05
4.26089e-05
4.26701e-05
4.27543e-05
4.28611e-05
4.29892e-05
4.3137e-05
4.33022e-05
4.34829e-05
4.36773e-05
4.38852e-05
4.41083e-05
4.43513e-05
4.46225e-05
4.49328e-05
4.52944e-05
4.57119e-05
4.61832e-05
5.00961e-05
4.96057e-05
4.91565e-05
4.8743e-05
4.83609e-05
4.80063e-05
4.7676e-05
4.73673e-05
4.70779e-05
4.68059e-05
4.65494e-05
4.63071e-05
4.60776e-05
4.58597e-05
4.56525e-05
4.54551e-05
4.52666e-05
4.50864e-05
4.49139e-05
4.47485e-05
4.45897e-05
4.4437e-05
4.42901e-05
4.41485e-05
4.40119e-05
4.388e-05
4.37526e-05
4.36296e-05
4.35106e-05
4.33958e-05
4.32852e-05
4.31789e-05
4.30773e-05
4.2981e-05
4.28908e-05
4.28078e-05
4.27333e-05
4.26691e-05
4.26169e-05
4.25788e-05
4.25571e-05
4.25537e-05
4.25705e-05
4.2609e-05
4.26702e-05
4.27544e-05
4.28611e-05
4.29892e-05
4.31369e-05
4.33021e-05
4.34826e-05
4.36769e-05
4.38845e-05
4.41074e-05
4.43502e-05
4.46213e-05
4.49318e-05
4.52938e-05
4.57117e-05
4.61829e-05
5.00961e-05
4.96057e-05
4.91565e-05
4.87431e-05
4.83609e-05
4.80063e-05
4.7676e-05
4.73673e-05
4.7078e-05
4.68059e-05
4.65495e-05
4.63072e-05
4.60776e-05
4.58598e-05
4.56526e-05
4.54551e-05
4.52667e-05
4.50865e-05
4.4914e-05
4.47486e-05
4.45898e-05
4.44371e-05
4.42902e-05
4.41486e-05
4.4012e-05
4.38801e-05
4.37528e-05
4.36297e-05
4.35108e-05
4.3396e-05
4.32853e-05
4.3179e-05
4.30775e-05
4.29812e-05
4.2891e-05
4.2808e-05
4.27335e-05
4.26692e-05
4.2617e-05
4.2579e-05
4.25572e-05
4.25538e-05
4.25706e-05
4.26092e-05
4.26703e-05
4.27545e-05
4.28612e-05
4.29892e-05
4.31368e-05
4.33019e-05
4.34823e-05
4.36764e-05
4.38839e-05
4.41066e-05
4.43493e-05
4.46204e-05
4.49315e-05
4.52948e-05
4.57148e-05
4.61883e-05
5.00961e-05
4.96057e-05
4.91565e-05
4.87431e-05
4.83609e-05
4.80063e-05
4.76761e-05
4.73674e-05
4.7078e-05
4.6806e-05
4.65496e-05
4.63073e-05
4.60777e-05
4.58599e-05
4.56527e-05
4.54553e-05
4.52669e-05
4.50867e-05
4.49142e-05
4.47488e-05
4.459e-05
4.44373e-05
4.42904e-05
4.41488e-05
4.40122e-05
4.38803e-05
4.3753e-05
4.36299e-05
4.3511e-05
4.33962e-05
4.32856e-05
4.31793e-05
4.30777e-05
4.29814e-05
4.28912e-05
4.28082e-05
4.27338e-05
4.26695e-05
4.26173e-05
4.25792e-05
4.25574e-05
4.2554e-05
4.25708e-05
4.26093e-05
4.26704e-05
4.27545e-05
4.28611e-05
4.29891e-05
4.31366e-05
4.33016e-05
4.34818e-05
4.36758e-05
4.38831e-05
4.41057e-05
4.43484e-05
4.46199e-05
4.4932e-05
4.52976e-05
4.57211e-05
4.61996e-05
5.00961e-05
4.96057e-05
4.91565e-05
4.87431e-05
4.8361e-05
4.80064e-05
4.76761e-05
4.73675e-05
4.70781e-05
4.68061e-05
4.65497e-05
4.63074e-05
4.60779e-05
4.58601e-05
4.56529e-05
4.54555e-05
4.5267e-05
4.50869e-05
4.49144e-05
4.4749e-05
4.45902e-05
4.44376e-05
4.42906e-05
4.4149e-05
4.40125e-05
4.38806e-05
4.37533e-05
4.36302e-05
4.35113e-05
4.33965e-05
4.32859e-05
4.31796e-05
4.3078e-05
4.29817e-05
4.28916e-05
4.28085e-05
4.27341e-05
4.26698e-05
4.26176e-05
4.25795e-05
4.25577e-05
4.25542e-05
4.2571e-05
4.26094e-05
4.26705e-05
4.27546e-05
4.28611e-05
4.2989e-05
4.31364e-05
4.33012e-05
4.34814e-05
4.36751e-05
4.38823e-05
4.41048e-05
4.43476e-05
4.46197e-05
4.49333e-05
4.53021e-05
4.57309e-05
4.62172e-05
5.00961e-05
4.96057e-05
4.91565e-05
4.87431e-05
4.8361e-05
4.80065e-05
4.76762e-05
4.73676e-05
4.70783e-05
4.68063e-05
4.65499e-05
4.63076e-05
4.60781e-05
4.58603e-05
4.56531e-05
4.54557e-05
4.52673e-05
4.50872e-05
4.49147e-05
4.47493e-05
4.45905e-05
4.44379e-05
4.42909e-05
4.41493e-05
4.40128e-05
4.3881e-05
4.37536e-05
4.36306e-05
4.35117e-05
4.33969e-05
4.32863e-05
4.318e-05
4.30784e-05
4.29821e-05
4.2892e-05
4.28089e-05
4.27345e-05
4.26702e-05
4.26179e-05
4.25798e-05
4.2558e-05
4.25545e-05
4.25712e-05
4.26096e-05
4.26706e-05
4.27546e-05
4.2861e-05
4.29888e-05
4.31361e-05
4.33008e-05
4.34808e-05
4.36744e-05
4.38815e-05
4.41039e-05
4.43469e-05
4.46198e-05
4.49354e-05
4.53085e-05
4.57442e-05
4.62416e-05
5.00961e-05
4.96057e-05
4.91565e-05
4.87432e-05
4.83611e-05
4.80065e-05
4.76763e-05
4.73677e-05
4.70784e-05
4.68065e-05
4.65501e-05
4.63078e-05
4.60783e-05
4.58605e-05
4.56534e-05
4.5456e-05
4.52676e-05
4.50875e-05
4.4915e-05
4.47497e-05
4.45909e-05
4.44382e-05
4.42913e-05
4.41497e-05
4.40132e-05
4.38814e-05
4.3754e-05
4.3631e-05
4.35121e-05
4.33973e-05
4.32867e-05
4.31805e-05
4.30789e-05
4.29826e-05
4.28925e-05
4.28094e-05
4.27349e-05
4.26706e-05
4.26184e-05
4.25802e-05
4.25584e-05
4.25548e-05
4.25714e-05
4.26097e-05
4.26707e-05
4.27546e-05
4.28609e-05
4.29886e-05
4.31358e-05
4.33003e-05
4.34801e-05
4.36736e-05
4.38805e-05
4.41029e-05
4.43462e-05
4.46202e-05
4.49383e-05
4.53169e-05
4.57614e-05
4.62734e-05
5.00962e-05
4.96057e-05
4.91566e-05
4.87432e-05
4.83612e-05
4.80067e-05
4.76765e-05
4.73679e-05
4.70786e-05
4.68067e-05
4.65503e-05
4.63081e-05
4.60786e-05
4.58608e-05
4.56537e-05
4.54564e-05
4.5268e-05
4.50879e-05
4.49154e-05
4.47501e-05
4.45913e-05
4.44387e-05
4.42918e-05
4.41502e-05
4.40137e-05
4.38819e-05
4.37546e-05
4.36315e-05
4.35127e-05
4.33979e-05
4.32873e-05
4.3181e-05
4.30795e-05
4.29832e-05
4.2893e-05
4.281e-05
4.27355e-05
4.26712e-05
4.26189e-05
4.25807e-05
4.25588e-05
4.25552e-05
4.25717e-05
4.26099e-05
4.26708e-05
4.27545e-05
4.28608e-05
4.29883e-05
4.31353e-05
4.32998e-05
4.34794e-05
4.36727e-05
4.38795e-05
4.41019e-05
4.43456e-05
4.46208e-05
4.49421e-05
4.53272e-05
4.57826e-05
4.63136e-05
5.00962e-05
4.96057e-05
4.91566e-05
4.87433e-05
4.83613e-05
4.80068e-05
4.76766e-05
4.73681e-05
4.70789e-05
4.68069e-05
4.65506e-05
4.63084e-05
4.6079e-05
4.58612e-05
4.56541e-05
4.54568e-05
4.52684e-05
4.50883e-05
4.49159e-05
4.47506e-05
4.45918e-05
4.44392e-05
4.42923e-05
4.41508e-05
4.40143e-05
4.38825e-05
4.37552e-05
4.36322e-05
4.35133e-05
4.33985e-05
4.3288e-05
4.31817e-05
4.30802e-05
4.29839e-05
4.28937e-05
4.28107e-05
4.27362e-05
4.26718e-05
4.26195e-05
4.25813e-05
4.25593e-05
4.25556e-05
4.2572e-05
4.26101e-05
4.26709e-05
4.27545e-05
4.28606e-05
4.2988e-05
4.31349e-05
4.32991e-05
4.34786e-05
4.36717e-05
4.38784e-05
4.41008e-05
4.4345e-05
4.46218e-05
4.49466e-05
4.53398e-05
4.58082e-05
4.63632e-05
5.00962e-05
4.96058e-05
4.91566e-05
4.87433e-05
4.83614e-05
4.80069e-05
4.76768e-05
4.73683e-05
4.70791e-05
4.68072e-05
4.6551e-05
4.63088e-05
4.60794e-05
4.58616e-05
4.56546e-05
4.54573e-05
4.52689e-05
4.50889e-05
4.49165e-05
4.47512e-05
4.45924e-05
4.44398e-05
4.4293e-05
4.41514e-05
4.40149e-05
4.38832e-05
4.37559e-05
4.36329e-05
4.3514e-05
4.33993e-05
4.32887e-05
4.31825e-05
4.3081e-05
4.29847e-05
4.28945e-05
4.28115e-05
4.2737e-05
4.26726e-05
4.26202e-05
4.25819e-05
4.25598e-05
4.2556e-05
4.25724e-05
4.26104e-05
4.2671e-05
4.27545e-05
4.28604e-05
4.29876e-05
4.31343e-05
4.32984e-05
4.34777e-05
4.36706e-05
4.38772e-05
4.40997e-05
4.43444e-05
4.46229e-05
4.49519e-05
4.53546e-05
4.58385e-05
4.64238e-05
5.00962e-05
4.96058e-05
4.91567e-05
4.87434e-05
4.83615e-05
4.80071e-05
4.7677e-05
4.73686e-05
4.70794e-05
4.68076e-05
4.65513e-05
4.63092e-05
4.60798e-05
4.58621e-05
4.56551e-05
4.54578e-05
4.52695e-05
4.50895e-05
4.49171e-05
4.47518e-05
4.45931e-05
4.44406e-05
4.42937e-05
4.41522e-05
4.40157e-05
4.3884e-05
4.37567e-05
4.36337e-05
4.35149e-05
4.34002e-05
4.32896e-05
4.31834e-05
4.30819e-05
4.29857e-05
4.28955e-05
4.28124e-05
4.27378e-05
4.26734e-05
4.2621e-05
4.25826e-05
4.25605e-05
4.25566e-05
4.25728e-05
4.26106e-05
4.26711e-05
4.27544e-05
4.28601e-05
4.29871e-05
4.31337e-05
4.32975e-05
4.34766e-05
4.36694e-05
4.38758e-05
4.40984e-05
4.43437e-05
4.46242e-05
4.4958e-05
4.53718e-05
4.5874e-05
4.64972e-05
5.00962e-05
4.96058e-05
4.91567e-05
4.87435e-05
4.83616e-05
4.80073e-05
4.76773e-05
4.73689e-05
4.70798e-05
4.6808e-05
4.65518e-05
4.63097e-05
4.60804e-05
4.58627e-05
4.56557e-05
4.54585e-05
4.52702e-05
4.50902e-05
4.49179e-05
4.47526e-05
4.45939e-05
4.44414e-05
4.42946e-05
4.41531e-05
4.40166e-05
4.38849e-05
4.37577e-05
4.36347e-05
4.35159e-05
4.34012e-05
4.32907e-05
4.31845e-05
4.3083e-05
4.29867e-05
4.28965e-05
4.28134e-05
4.27388e-05
4.26743e-05
4.26218e-05
4.25834e-05
4.25611e-05
4.2557e-05
4.25731e-05
4.26107e-05
4.2671e-05
4.27541e-05
4.28596e-05
4.29864e-05
4.31327e-05
4.32963e-05
4.34752e-05
4.36677e-05
4.3874e-05
4.40967e-05
4.43427e-05
4.46255e-05
4.49646e-05
4.53915e-05
4.5915e-05
4.65859e-05
5.00962e-05
4.96058e-05
4.91568e-05
4.87436e-05
4.83618e-05
4.80075e-05
4.76776e-05
4.73692e-05
4.70802e-05
4.68085e-05
4.65523e-05
4.63103e-05
4.6081e-05
4.58634e-05
4.56564e-05
4.54592e-05
4.5271e-05
4.5091e-05
4.49187e-05
4.47535e-05
4.45949e-05
4.44423e-05
4.42955e-05
4.41541e-05
4.40177e-05
4.3886e-05
4.37587e-05
4.36358e-05
4.3517e-05
4.34023e-05
4.32918e-05
4.31855e-05
4.3084e-05
4.29877e-05
4.28974e-05
4.28143e-05
4.27396e-05
4.2675e-05
4.26223e-05
4.25837e-05
4.25612e-05
4.25569e-05
4.25727e-05
4.26101e-05
4.26701e-05
4.27529e-05
4.28581e-05
4.29846e-05
4.31306e-05
4.3294e-05
4.34726e-05
4.36649e-05
4.38711e-05
4.40939e-05
4.43408e-05
4.46261e-05
4.49714e-05
4.54134e-05
4.59618e-05
4.66928e-05
5.00962e-05
4.96058e-05
4.91569e-05
4.87438e-05
4.8362e-05
4.80078e-05
4.76779e-05
4.73697e-05
4.70807e-05
4.6809e-05
4.65529e-05
4.63109e-05
4.60817e-05
4.58642e-05
4.56573e-05
4.54601e-05
4.52719e-05
4.5092e-05
4.49197e-05
4.47545e-05
4.45959e-05
4.44434e-05
4.42966e-05
4.41552e-05
4.40187e-05
4.3887e-05
4.37597e-05
4.36367e-05
4.35179e-05
4.34031e-05
4.32924e-05
4.31861e-05
4.30844e-05
4.29879e-05
4.28974e-05
4.28139e-05
4.27389e-05
4.2674e-05
4.26209e-05
4.25819e-05
4.25589e-05
4.25542e-05
4.25695e-05
4.26064e-05
4.26658e-05
4.27481e-05
4.28529e-05
4.2979e-05
4.31246e-05
4.32877e-05
4.3466e-05
4.36583e-05
4.38644e-05
4.40876e-05
4.43355e-05
4.46239e-05
4.49762e-05
4.54361e-05
4.60136e-05
4.68215e-05
5.00962e-05
4.96059e-05
4.9157e-05
4.8744e-05
4.83623e-05
4.80081e-05
4.76783e-05
4.73702e-05
4.70813e-05
4.68097e-05
4.65537e-05
4.63117e-05
4.60826e-05
4.58651e-05
4.56582e-05
4.54611e-05
4.52729e-05
4.5093e-05
4.49207e-05
4.47555e-05
4.45968e-05
4.44443e-05
4.42974e-05
4.41558e-05
4.40192e-05
4.38872e-05
4.37597e-05
4.36363e-05
4.3517e-05
4.34018e-05
4.32905e-05
4.31835e-05
4.30811e-05
4.29838e-05
4.28924e-05
4.2808e-05
4.27319e-05
4.26658e-05
4.26116e-05
4.25713e-05
4.25472e-05
4.25412e-05
4.25553e-05
4.25911e-05
4.26494e-05
4.27307e-05
4.28346e-05
4.296e-05
4.31052e-05
4.32679e-05
4.34462e-05
4.36386e-05
4.38452e-05
4.40694e-05
4.43192e-05
4.46117e-05
4.49729e-05
4.54544e-05
4.60669e-05
4.69743e-05
5.00962e-05
4.96059e-05
4.91571e-05
4.87442e-05
4.83626e-05
4.80085e-05
4.76788e-05
4.73707e-05
4.70819e-05
4.68104e-05
4.65545e-05
4.63126e-05
4.60835e-05
4.5866e-05
4.56591e-05
4.54619e-05
4.52737e-05
4.50936e-05
4.49211e-05
4.47555e-05
4.45965e-05
4.44434e-05
4.42958e-05
4.41534e-05
4.40158e-05
4.38826e-05
4.37537e-05
4.36288e-05
4.35077e-05
4.33904e-05
4.32769e-05
4.31674e-05
4.30623e-05
4.29621e-05
4.28676e-05
4.278e-05
4.27005e-05
4.2631e-05
4.25732e-05
4.25294e-05
4.25017e-05
4.24925e-05
4.25036e-05
4.25364e-05
4.25922e-05
4.26714e-05
4.27736e-05
4.28978e-05
4.30423e-05
4.32051e-05
4.33841e-05
4.35779e-05