/*--------------------------------*- C++ -*----------------------------------*\
| =========                 |                                                 |
| \\      /  F ield         | OpenFOAM: The Open Source CFD Toolbox           |
|  \\    /   O peration     | Version:  2.4.0                                 |
|   \\  /    A nd           | Web:      www.OpenFOAM.org                      |
|    \\/     M anipulation  |                                                 |
\*---------------------------------------------------------------------------*/
FoamFile
{
    version     2.0;
    format      ascii;
    class       volScalarField;
    location    "2.48";
    object      epsilon;
}
// * * * * * * * * * * * * * * * * * * * * * * * * * * * * * * * * * * * * * //

dimensions      [0 2 -3 0 0 0 0];

internalField   nonuniform List<scalar> 
6000
(
0.995089
0.38252
0.0491226
0.00549689
0.00107534
0.0030451
0.00149092
0.00279641
0.00450685
0.00932709
0.0154353
0.0261509
0.0570193
0.0900586
0.0971664
0.0861438
0.0552549
0.0319997
0.0304876
0.0436129
0.0550615
0.106768
0.158285
0.188576
0.196132
0.187868
0.170864
0.151189
0.130926
0.110889
0.0914347
0.0726526
0.0545929
0.0375384
0.0222651
0.0143679
0.0140357
0.015571
0.018677
0.0225277
0.0258524
0.0276464
0.0285959
0.0294488
0.0306776
0.0325501
0.0352731
0.0390644
0.0441462
0.0509361
0.0600829
0.072403
0.0889909
0.111549
0.14233
0.186008
0.24627
0.343159
0.463635
0.739495
0.558258
0.355954
0.022859
0.00527363
0.000529858
0.00100821
0.00099284
0.0016403
0.0028236
0.00499408
0.00806755
0.0136971
0.0277604
0.0370574
0.0338625
0.0290074
0.0267306
0.0199926
0.0190991
0.0756949
0.14571
0.099998
0.0651769
0.051394
0.0436678
0.0387023
0.0359534
0.0339887
0.0318018
0.0293648
0.0266061
0.0234131
0.0196697
0.0153477
0.010611
0.00724258
0.00563076
0.00460533
0.00409051
0.00399401
0.00429252
0.00500235
0.00563465
0.00605992
0.006319
0.00652492
0.00678913
0.0072011
0.00785323
0.00879814
0.0100965
0.0118584
0.0142459
0.0174889
0.0219522
0.0281304
0.0370304
0.0496175
0.0695968
0.100697
0.416716
0.411973
0.0305763
0.00372878
0.000472788
0.000706739
0.000968952
0.00152864
0.00263264
0.00441715
0.00720488
0.0122555
0.0238
0.0314371
0.0271292
0.0215759
0.0183105
0.0150136
0.0274569
0.113487
0.104097
0.0482343
0.0296532
0.0242111
0.0221373
0.0215346
0.0218154
0.0221248
0.0222041
0.0219766
0.0213329
0.0201147
0.0181301
0.0152354
0.0114262
0.00795175
0.0056842
0.00396079
0.00276148
0.00200632
0.00159808
0.00148962
0.00152904
0.00159785
0.00165284
0.00169222
0.00172955
0.00178072
0.00186774
0.00201993
0.00223931
0.00254193
0.00295361
0.00350837
0.00426865
0.005289
0.00678408
0.00866903
0.011958
0.0151801
0.367353
0.406498
0.0517881
0.00235901
0.000495776
0.000650961
0.000999442
0.00155703
0.00265653
0.00437569
0.00713956
0.0120073
0.0223373
0.030152
0.0260142
0.0201056
0.0167141
0.0157546
0.0416444
0.11593
0.0666867
0.0287378
0.0202224
0.0185215
0.0185272
0.0192539
0.0203484
0.0213236
0.022057
0.0224616
0.0224141
0.0217282
0.020159
0.0174849
0.0135843
0.0096663
0.00683895
0.0046127
0.00301389
0.00195199
0.00129315
0.000930369
0.000758402
0.000682876
0.00064893
0.000630304
0.000617838
0.000611408
0.00061781
0.000647597
0.000698004
0.000769752
0.000866718
0.00099452
0.00116514
0.00138581
0.00170241
0.00207102
0.00274651
0.00320637
0.343009
0.376416
0.0742377
0.00195568
0.000545349
0.000653696
0.00103476
0.0016114
0.0027226
0.00444276
0.00720334
0.0119024
0.0211016
0.0289899
0.0256583
0.0197949
0.016709
0.018617
0.0570891
0.0996572
0.0445127
0.0212767
0.0176545
0.0177944
0.0188311
0.0202346
0.0217618
0.0230871
0.0241234
0.0247851
0.024951
0.024425
0.0229303
0.0201912
0.0159855
0.0116617
0.00831655
0.00561701
0.00363902
0.00229845
0.00143947
0.000921134
0.000631427
0.000476203
0.000394251
0.000349789
0.000324626
0.000311376
0.000308939
0.000318914
0.000339016
0.00036829
0.00040731
0.00045744
0.000522437
0.000604252
0.000718792
0.000850182
0.00109505
0.00129086
0.329438
0.340296
0.097506
0.00309812
0.000626475
0.000676657
0.00106467
0.0016626
0.0027826
0.00450741
0.00722968
0.0117006
0.0197343
0.0272218
0.025166
0.0196551
0.0171598
0.0225484
0.068076
0.0798742
0.0322468
0.0183953
0.0175559
0.0188255
0.0205651
0.0224394
0.0242581
0.0257832
0.0269451
0.0276722
0.0278607
0.0273222
0.0257665
0.0228802
0.0183576
0.0137264
0.00991286
0.00676002
0.00440382
0.00278289
0.00172697
0.00106757
0.000677447
0.000456296
0.000335234
0.000270096
0.000235539
0.000218617
0.000213598
0.000218399
0.000230636
0.000248991
0.000273305
0.000304052
0.000343285
0.000392071
0.000460244
0.000539312
0.000693618
0.000846891
0.321261
0.305815
0.114665
0.00846799
0.000790212
0.000711977
0.00108955
0.00170251
0.00282127
0.00453544
0.00717585
0.0113676
0.0182993
0.0249424
0.0244257
0.0194386
0.0177615
0.0271258
0.0730017
0.0630993
0.0254923
0.0176011
0.0185786
0.0206971
0.0230005
0.0252361
0.0272488
0.0288593
0.0300167
0.030674
0.0307581
0.0301034
0.0284205
0.0253704
0.0205915
0.0157557
0.0115408
0.00796606
0.00523625
0.00333027
0.00207661
0.00128022
0.000792337
0.000505095
0.000343488
0.000255835
0.000209908
0.000187661
0.000179834
0.000181859
0.000190821
0.000205142
0.000224362
0.00024866
0.000279673
0.000318182
0.000373056
0.000436485
0.000571116
0.00071017
0.31583
0.27573
0.126494
0.0182962
0.00115947
0.00076386
0.0011146
0.0017321
0.00283819
0.004524
0.00705102
0.0109491
0.0169556
0.0224969
0.0234796
0.0191109
0.0184366
0.0320691
0.0730609
0.0503509
0.0217866
0.0179003
0.0202035
0.0230413
0.0258235
0.028338
0.0304607
0.0320597
0.0331068
0.0335881
0.0334716
0.032627
0.0307776
0.0275673
0.0226201
0.0176761
0.0131411
0.00919277
0.00610519
0.0039121
0.00245752
0.00152645
0.000943302
0.000588822
0.00038349
0.000270085
0.00021015
0.00018062
0.000168841
0.00016823
0.000174993
0.000187113
0.000203882
0.000225318
0.000252922
0.000287356
0.000337478
0.000395127
0.000525181
0.000657006
0.311898
0.250624
0.133747
0.0308572
0.00202345
0.000846817
0.0011478
0.00175748
0.00284157
0.00448674
0.00688972
0.0105183
0.0158064
0.0202589
0.0223182
0.0186918
0.0191869
0.0371218
0.0697314
0.0410221
0.0198377
0.0188272
0.0221877
0.0256686
0.0288629
0.0315859
0.033744
0.0352481
0.0360969
0.0363146
0.0359196
0.0348269
0.0327817
0.0294176
0.0243996
0.0194296
0.0146638
0.0104059
0.00699049
0.00451491
0.00285584
0.00179031
0.00111519
0.000694237
0.000442994
0.000300844
0.000224358
0.000185725
0.000168904
0.000165224
0.000169828
0.000180164
0.000195245
0.000214946
0.000240697
0.000273102
0.000321191
0.000376337
0.000505886
0.00063288
0.308903
0.230187
0.137156
0.0444289
0.00411194
0.000992252
0.00119927
0.00178747
0.00284454
0.00444559
0.00673557
0.0101475
0.0149029
0.0184623
0.0208688
0.0182119
0.0200404
0.0419536
0.0642464
0.0342799
0.0189599
0.0201373
0.0243973
0.0284647
0.032013
0.0348822
0.0370095
0.0383476
0.0389237
0.0388049
0.0380664
0.0366767
0.034411
0.0308965
0.0259049
0.020973
0.0160665
0.0115733
0.0078737
0.00512944
0.00326461
0.00206302
0.00129876
0.000813959
0.000516402
0.000343393
0.000248156
0.00019874
0.000175758
0.000168375
0.00017052
0.000178996
0.000192495
0.00021074
0.000235099
0.000266147
0.000313044
0.000366863
0.000496474
0.000619606
0.306555
0.213794
0.137519
0.0571804
0.00876109
0.00126713
0.00128155
0.00183168
0.0028619
0.00442453
0.00663015
0.00989451
0.0142805
0.01717
0.0191143
0.0177295
0.0210262
0.0459502
0.0577457
0.0294334
0.0187711
0.0216905
0.0267487
0.0313544
0.0352043
0.0381641
0.0402026
0.0413138
0.041555
0.0410383
0.0399018
0.0381739
0.0356653
0.0319996
0.0271269
0.0222767
0.0173144
0.0126651
0.00873581
0.00574663
0.00367935
0.00233961
0.0014877
0.00094254
0.000600072
0.000395307
0.000279667
0.000217989
0.00018777
0.00017597
0.000175198
0.000181522
0.000193266
0.000209982
0.000232965
0.000262773
0.000308606
0.000361432
0.000490515
0.000610115
0.304679
0.200763
0.13564
0.0681392
0.0152515
0.0018048
0.00141282
0.00189917
0.00290734
0.00444503
0.00660603
0.00979661
0.0139504
0.0163511
0.0172147
0.0173536
0.0221648
0.0484508
0.0512735
0.025972
0.0190437
0.0234006
0.0291857
0.0342859
0.0383899
0.0413906
0.0432897
0.0441222
0.043976
0.0430104
0.0414309
0.0393306
0.0365592
0.0327395
0.0280691
0.0233236
0.0183821
0.0136554
0.00955765
0.00635645
0.00409596
0.0026171
0.00167766
0.00107544
0.000690816
0.000454737
0.000317789
0.000242692
0.00020426
0.000187321
0.000183106
0.000186886
0.000196573
0.00021153
0.000232955
0.000261393
0.000305986
0.000357767
0.00048537
0.000601434
0.303157
0.190461
0.132254
0.0767846
0.022994
0.00289503
0.00162298
0.00199815
0.00299133
0.00452294
0.00668392
0.00987204
0.013907
0.0159356
0.0154932
0.0172128
0.0234616
0.0493706
0.0453236
0.0235308
0.0196344
0.0252115
0.0316688
0.0372229
0.0415381
0.0445354
0.0462506
0.04676
0.0461827
0.0447265
0.0426678
0.0401679
0.0371172
0.0331607
0.0287235
0.0241073
0.019253
0.0145233
0.0103211
0.0069481
0.0045098
0.0028934
0.00186576
0.00120892
0.000785524
0.00051978
0.000361483
0.000272246
0.000224813
0.000202062
0.000193872
0.000194687
0.000201975
0.000214882
0.000234491
0.000261322
0.000304382
0.00035488
0.000480015
0.000592364
0.301908
0.182346
0.127978
0.0829739
0.0311517
0.0052137
0.00196712
0.00213728
0.00311997
0.0046671
0.00687269
0.0101242
0.0141368
0.0158706
0.0142437
0.0173595
0.0248965
0.0488679
0.040086
0.0218498
0.0204485
0.0270852
0.0341689
0.0401394
0.0446271
0.0475818
0.0490743
0.0492229
0.0481778
0.0461972
0.0436317
0.0407121
0.0373689
0.0333145
0.0290919
0.0246315
0.0199191
0.0152538
0.0110106
0.00751059
0.00491568
0.00316659
0.00205023
0.00134008
0.000881212
0.000588311
0.000409485
0.000305911
0.000248948
0.000219826
0.000207175
0.000204625
0.000209184
0.000219757
0.000237288
0.000262257
0.00030347
0.00035238
0.000474161
0.000582542
0.300875
0.175971
0.123296
0.0868194
0.0391797
0.00907584
0.00254763
0.00232895
0.00329499
0.00487928
0.00717112
0.0105469
0.0146266
0.0161439
0.0135679
0.0176741
0.02641
0.0471523
0.0355974
0.020742
0.0214212
0.0289943
0.0366647
0.0430169
0.0476427
0.0505199
0.0517558
0.0515109
0.0499679
0.0474363
0.0443441
0.0409918
0.0373472
0.0332411
0.029196
0.0249081
0.0203802
0.0158379
0.0116133
0.00803356
0.00530794
0.00343459
0.00222993
0.00146689
0.000975233
0.000658064
0.000460245
0.000342686
0.000275978
0.000240091
0.000222585
0.000216334
0.000217889
0.000225892
0.00024113
0.000264015
0.000303109
0.000350132
0.00046784
0.00057199
0.300016
0.170974
0.118563
0.0885927
0.0466153
0.0143627
0.00355965
0.00259545
0.00351503
0.00515503
0.00757006
0.0111275
0.0153643
0.0167535
0.0134142
0.0178503
0.0278975
0.0444016
0.0318235
0.0200718
0.022507
0.0309188
0.0391396
0.0458419
0.0505754
0.0533446
0.0542938
0.0536274
0.0515613
0.0484585
0.0448269
0.0410359
0.0370864
0.0329771
0.0290642
0.0249552
0.0206423
0.0162718
0.0121205
0.00850787
0.00568086
0.00369507
0.00240408
0.00158811
0.00106546
0.00072682
0.000512017
0.000381321
0.000304995
0.000262155
0.000239528
0.000229334
0.000227688
0.000232963
0.000245765
0.000266414
0.000303191
0.000348078
0.00046119
0.000560884
0.299298
0.167066
0.114023
0.0886518
0.0530577
0.0206234
0.00539242
0.00297992
0.0037783
0.00548518
0.00805443
0.0118493
0.0163371
0.0176929
0.0136303
0.0176971
0.028804
0.0410619
0.0287015
0.019739
0.0236729
0.0328433
0.041581
0.0486043
0.0534188
0.0560531
0.0566892
0.0555768
0.0529669
0.0492782
0.0451013
0.0408722
0.0366211
0.0325575
0.0287261
0.0247947
0.0207166
0.0165567
0.0125266
0.0089261
0.00602895
0.00394545
0.00257196
0.00170311
0.0011504
0.000792615
0.000563003
0.000420402
0.000334914
0.000285164
0.000257305
0.00024304
0.000238094
0.00024057
0.000250877
0.00026922
0.000303571
0.000346155
0.000454338
0.000549421
0.298696
0.164017
0.109828
0.0873861
0.0582229
0.0273227
0.00836757
0.00356434
0.00408709
0.00585795
0.0086048
0.0126916
0.0175304
0.0189561
0.0141137
0.0172492
0.0287216
0.0375306
0.0261609
0.0196687
0.0248948
0.0347555
0.0439784
0.0512963
0.0561684
0.0586442
0.0589435
0.0573637
0.0541929
0.049909
0.045187
0.0405265
0.0360143
0.0319843
0.0282103
0.0244507
0.0206179
0.0166978
0.0128296
0.00928277
0.00634731
0.0041831
0.00273285
0.00181167
0.00122918
0.000853905
0.000611533
0.000458478
0.00036456
0.000308176
0.000275145
0.000256812
0.000248569
0.000248265
0.000256102
0.000272152
0.000304058
0.000344257
0.000447353
0.000537757
0.298189
0.161645
0.106064
0.0851754
0.0619624
0.0339953
0.0124868
0.00450263
0.00445496
0.00626172
0.00919891
0.0136299
0.0189259
0.0205433
0.0148494
0.0164115
0.0277623
0.0340838
0.0241322
0.0198045
0.0261544
0.0366453
0.0463228
0.0539109
0.0588204
0.0611167
0.0610581
0.0589918
0.0552465
0.0503625
0.0451016
0.0400218
0.0353087
0.0312764
0.0275449
0.0239487
0.0203642
0.0167036
0.0130304
0.00957447
0.00663181
0.00440543
0.00288592
0.00191379
0.00130148
0.000909658
0.000656213
0.000494187
0.000392768
0.000330235
0.000292268
0.000270001
0.000258571
0.000255591
0.000261061
0.000274904
0.00030442
0.000342238
0.000440234
0.000525983
0.297763
0.159807
0.102762
0.0823619
0.064258
0.0402162
0.0174782
0.00607014
0.00491841
0.00668889
0.0098132
0.0146358
0.0205004
0.0224586
0.0158834
0.0153817
0.0261908
0.0309003
0.0225518
0.0201029
0.0274374
0.0385037
0.0486062
0.0564419
0.0613709
0.063469
0.063033
0.0604634
0.0561331
0.0506487
0.0448609
0.0393798
0.0345354
0.0304566
0.0267563
0.0233138
0.0199748
0.0165852
0.0131328
0.0097998
0.00687932
0.00461005
0.00303026
0.00200958
0.00136742
0.000959374
0.000696043
0.000526388
0.00041848
0.00035045
0.00030794
0.000282004
0.000267595
0.000262126
0.000265394
0.000277175
0.000304419
0.000339929
0.000432923
0.000514128
0.297402
0.15839
0.0999214
0.0792341
0.0652013
0.0456333
0.0230556
0.00849018
0.00555574
0.00714144
0.010425
0.0156775
0.0222245
0.0247052
0.0172869
0.0144317
0.0243133
0.0280859
0.0213627
0.0205301
0.0287322
0.0403226
0.050821
0.0588827
0.0638152
0.065698
0.0648671
0.0617791
0.056856
0.050776
0.0444785
0.0386328
0.0337067
0.0295459
0.025869
0.0225705
0.0194701
0.0163559
0.0131425
0.00995922
0.0070878
0.00479495
0.00316494
0.00209912
0.00142738
0.00100303
0.000730477
0.000554261
0.000440845
0.000368061
0.00032153
0.000292305
0.000275216
0.000267508
0.000268792
0.000278703
0.000303834
0.000337162
0.00042533
0.000502175
0.297096
0.157304
0.0975184
0.0760203
0.0649652
0.0499878
0.0288764
0.0118753
0.00650429
0.00763908
0.0110155
0.0167212
0.0240615
0.0272795
0.0191305
0.013779
0.022404
0.0256931
0.0205149
0.0210598
0.030029
0.0420944
0.0529592
0.0612263
0.0661476
0.0677994
0.0665569
0.0629373
0.0574172
0.0507511
0.0439665
0.0378299
0.0328135
0.0285623
0.024905
0.021742
0.0188706
0.0160301
0.0130671
0.0100548
0.00725625
0.00495852
0.00328906
0.00218244
0.00148187
0.001041
0.000759422
0.000577367
0.000459293
0.000382515
0.000332562
0.000300511
0.00028111
0.000271466
0.000271022
0.000279281
0.000302486
0.000333792
0.00041736
0.000490082
0.296837
0.15648
0.0955161
0.07289
0.0637733
0.0531249
0.0345767
0.0161908
0.00792086
0.00823871
0.0115752
0.0177322
0.025966
0.0301678
0.0214705
0.0135608
0.0206709
0.0237377
0.0199646
0.0216708
0.0313189
0.0438115
0.055013
0.0634648
0.0683612
0.0697668
0.0680976
0.0639348
0.0578167
0.0505793
0.0433361
0.0370015
0.0318618
0.027522
0.0238844
0.0208498
0.0181962
0.015623
0.0129155
0.0100902
0.00738478
0.00509971
0.00340185
0.00225951
0.00153145
0.00107388
0.000783181
0.000595663
0.00047358
0.00039351
0.000340751
0.000306382
0.000285078
0.000273832
0.000271934
0.000278774
0.000300252
0.000329715
0.000408935
0.000477805
0.296616
0.155863
0.0938714
0.0699594
0.0618693
0.0549949
0.0398069
0.0212496
0.00996706
0.00902214
0.0121254
0.0186544
0.0278835
0.0333438
0.0243454
0.0138588
0.0192505
0.0222127
0.0196738
0.0223462
0.0325939
0.0454663
0.0569739
0.0655895
0.0704475
0.0715921
0.069482
0.0647666
0.0580533
0.0502651
0.0426128
0.0361539
0.0308604
0.0264393
0.0228248
0.0199135
0.0174661
0.0151498
0.0126977
0.01007
0.00747442
0.00521795
0.00350267
0.00233022
0.00157661
0.00110244
0.000802357
0.000609467
0.0004838
0.000401008
0.000346026
0.000309844
0.000287054
0.000274545
0.000271469
0.000277123
0.000297071
0.000324872
0.000400009
0.000465315
0.296428
0.155408
0.0925393
0.0673001
0.0594923
0.0556454
0.0442641
0.0267533
0.0127759
0.0100772
0.012742
0.0194501
0.0297508
0.0367661
0.0277773
0.0147271
0.0182206
0.0210983
0.0196092
0.0230722
0.0338464
0.047051
0.058833
0.0675906
0.0723963
0.0732655
0.0707015
0.0654263
0.0581251
0.0498123
0.0418493
0.0352636
0.0298176
0.025327
0.021742
0.018951
0.0166981
0.014626
0.0124241
0.00999984
0.00752705
0.00531323
0.00359107
0.00239446
0.00161776
0.00112743
0.000817734
0.000619378
0.00049034
0.000405237
0.000348526
0.00031099
0.000287104
0.000273651
0.000269658
0.000274343
0.000292945
0.000319261
0.000390574
0.000452603
0.296267
0.155082
0.0914764
0.0649482
0.0568577
0.0552039
0.0477174
0.0323434
0.0164025
0.0115125
0.0134896
0.0201455
0.0314967
0.0403768
0.0317726
0.0162057
0.0176198
0.0203687
0.0197417
0.0238374
0.0350689
0.0485579
0.0605808
0.0694571
0.0741961
0.0747752
0.0717459
0.0659066
0.0580297
0.0492251
0.0410775
0.0343266
0.0287414
0.0241965
0.0206499
0.0179781
0.0159086
0.014066
0.0121055
0.00988602
0.00754519
0.00538603
0.00366686
0.00245209
0.00165518
0.00114953
0.000830154
0.000626169
0.000493814
0.000406651
0.00034858
0.000310063
0.000285411
0.000271291
0.000266608
0.000270515
0.000287936
0.000312922
0.000380662
0.000439691
0.296129
0.154857
0.0906418
0.0629135
0.054146
0.053855
0.0500252
0.0376478
0.0207868
0.0134457
0.0144283
0.0208319
0.0330446
0.0440993
0.0363231
0.0183216
0.0174645
0.0199971
0.0200461
0.0246322
0.0362544
0.0499789
0.0622071
0.071177
0.0758337
0.0761079
0.0726038
0.0661997
0.0577646
0.0485593
0.0402688
0.0333447
0.0276395
0.0230579
0.0195608
0.0170089
0.0151127
0.0134838
0.0117525
0.0097352
0.00753171
0.00543727
0.00373009
0.00250307
0.00168907
0.00116931
0.000840416
0.000630672
0.000494961
0.00040585
0.000346653
0.000307422
0.000282253
0.000267683
0.00026249
0.000265771
0.000282149
0.000305942
0.000370341
0.000426625
0.296009
0.154711
0.0899991
0.0611873
0.0514974
0.0518152
0.0511416
0.0423213
0.0257442
0.0159814
0.0156327
0.0216357
0.0343321
0.0478364
0.0414054
0.0210851
0.0177614
0.0199578
0.0205007
0.0254489
0.0373965
0.0513057
0.0637011
0.0727367
0.0772937
0.0772485
0.0732626
0.0662975
0.057328
0.0478626
0.0394043
0.0323214
0.0265192
0.0219205
0.0184854
0.0160555
0.0143233
0.012892
0.0113754
0.00955428
0.00749009
0.00546844
0.00378113
0.00254741
0.00171957
0.00118719
0.000849202
0.000633678
0.000494546
0.000403504
0.000343288
0.000303496
0.00027797
0.000263093
0.000257517
0.000260285
0.000275726
0.000298436
0.000359705
0.000413477
0.295906
0.154629
0.0895161
0.059749
0.0490121
0.0493083
0.051113
0.0460773
0.0309861
0.0191796
0.0171863
0.0225901
0.0354144
0.0514687
0.0469793
0.024488
0.0185139
0.0202276
0.0210873
0.0262824
0.0384898
0.0525299
0.0650508
0.0741211
0.078559
0.0781801
0.0737088
0.0661926
0.0567755
0.0471117
0.038479
0.0312615
0.0253874
0.0207924
0.017433
0.0151285
0.0135523
0.0123022
0.0109841
0.00935016
0.00742513
0.00548156
0.00382061
0.00258523
0.00174673
0.00120344
0.000857031
0.00063586
0.000493272
0.000400264
0.000339037
0.000298738
0.000272924
0.000257814
0.000251925
0.000254249
0.00026883
0.000290539
0.000348871
0.000400333
0.295817
0.154595
0.0891647
0.0585711
0.0467544
0.0465446
0.0500645
0.0487123
0.0361595
0.023024
0.0191717
0.0237426
0.0363828
0.0548536
0.0529845
0.0285072
0.0197257
0.020787
0.0217916
0.0271312
0.0395317
0.0536433
0.0662428
0.0753128
0.0796095
0.0788842
0.0739283
0.0658895
0.0561511
0.0462836
0.0374936
0.0301705
0.0242508
0.019681
0.0164118
0.014237
0.0128093
0.0117245
0.0105876
0.00912954
0.00734109
0.00547877
0.00384935
0.00261675
0.00177062
0.00121823
0.000864256
0.000637726
0.000491715
0.000396697
0.000334405
0.000293572
0.000267466
0.000252133
0.000245953
0.000247863
0.00026163
0.000282396
0.000337962
0.000387289
0.295739
0.154598
0.0889211
0.0576232
0.0447583
0.0437063
0.0481796
0.05012
0.0408941
0.0273992
0.0216542
0.0251486
0.0373984
0.0578264
0.0593346
0.0331142
0.0214014
0.0216211
0.0226039
0.0280026
0.0405242
0.0546376
0.0672611
0.0762913
0.0804218
0.07934
0.073906
0.0654538
0.0554277
0.0453702
0.0364514
0.0290542
0.0231159
0.0185931
0.0154288
0.0133884
0.0121028
0.0111678
0.0101941
0.00889881
0.00724217
0.00546234
0.00386831
0.00264229
0.0017913
0.0012316
0.000871073
0.000639615
0.000490298
0.000393243
0.000329808
0.000288364
0.000261907
0.000246313
0.000239823
0.000241317
0.000254291
0.00027415
0.000327105
0.000374445
0.295671
0.154631
0.0887652
0.0568746
0.0430344
0.0409386
0.0456754
0.0502957
0.044849
0.0320886
0.0246597
0.0268627
0.0385164
0.0603365
0.0659086
0.038287
0.023548
0.0227213
0.0235216
0.0289241
0.0414799
0.0555047
0.068086
0.0770316
0.0809683
0.079532
0.0736859
0.0648747
0.0545919
0.0443706
0.0353576
0.0279188
0.0219887
0.0175347
0.0144901
0.0125891
0.0114396
0.0106396
0.00981097
0.00866389
0.00713244
0.00543461
0.00387861
0.00266226
0.00180888
0.00124358
0.000877554
0.000641705
0.000489279
0.000390204
0.000325548
0.000283396
0.000256499
0.000240574
0.000233728
0.000234779
0.000246966
0.000265937
0.000316419
0.000361895
0.295612
0.154685
0.08868
0.0562958
0.0415764
0.0383474
0.0427773
0.0493287
0.0477509
0.0367929
0.0281533
0.0289271
0.0397597
0.0623855
0.0725385
0.044019
0.0261754
0.0240875
0.0245539
0.0299215
0.0423797
0.0562432
0.0687139
0.077521
0.0812409
0.0794765
0.0732699
0.0641449
0.0536393
0.0432881
0.0342186
0.0267706
0.020875
0.0165111
0.0136007
0.011844
0.0108251
0.0101459
0.0094444
0.00843012
0.00701576
0.00539796
0.00388146
0.00267717
0.00182348
0.00125417
0.000883687
0.000644046
0.000488777
0.000387745
0.000321816
0.00027886
0.000251426
0.000235086
0.000227822
0.000228391
0.000239784
0.000257875
0.000306009
0.000349727
0.29556
0.154755
0.0886511
0.0558598
0.0403668
0.0360009
0.0396972
0.0473865
0.0494226
0.0411668
0.0320218
0.0313583
0.0411585
0.0640217
0.078994
0.0503212
0.0292944
0.0257288
0.0257156
0.0309653
0.0432191
0.0568529
0.0691474
0.0777672
0.0812517
0.0791836
0.0726597
0.063262
0.0525704
0.0421287
0.0330417
0.0256161
0.0197802
0.0155271
0.0127646
0.011157
0.0102636
0.00969177
0.00909973
0.00820221
0.00689576
0.00535476
0.00387817
0.00268761
0.00183532
0.00126335
0.00088941
0.000646597
0.000488802
0.000385922
0.000318703
0.000274865
0.000246804
0.000229967
0.000222221
0.000222264
0.000232849
0.000250063
0.000295966
0.000338013
0.295514
0.154836
0.0886668
0.0555426
0.0393815
0.0339349
0.0366171
0.0446902
0.0497977
0.0448642
0.0360703
0.0341308
0.0427436
0.0653844
0.0849643
0.0572118
0.0329105
0.0276572
0.0269946
0.0320502
0.0439964
0.0573348
0.0693905
0.0777789
0.0810124
0.0786616
0.0718583
0.0622276
0.0513899
0.0408999
0.0318343
0.0244614
0.0187094
0.0145867
0.0119854
0.0105312
0.00975837
0.00928089
0.00878129
0.00798419
0.00677584
0.00530736
0.00387008
0.00269425
0.00184463
0.00127114
0.000894641
0.000649265
0.000489287
0.000384706
0.000316217
0.000271452
0.000242692
0.000225287
0.000217
0.000216475
0.000226242
0.000242579
0.00028636
0.000326815
0.295474
0.154925
0.088717
0.0553231
0.0385937
0.0321597
0.033679
0.0414868
0.0489222
0.047584
0.0400339
0.0371643
0.0445256
0.0665227
0.0902207
0.0646929
0.0370125
0.0298688
0.0283908
0.0331709
0.0447118
0.0576914
0.0694489
0.0775656
0.0805343
0.0779188
0.0708704
0.0610461
0.0501048
0.0396106
0.0306047
0.0233127
0.017667
0.0136935
0.0112657
0.0099688
0.00931153
0.00891606
0.00849248
0.00777945
0.00665924
0.00525809
0.00385858
0.00269779
0.0018517
0.0012776
0.000899306
0.000651933
0.000490123
0.000384017
0.000314313
0.000268604
0.0002391
0.000221073
0.000212201
0.000211074
0.000220016
0.000235478
0.000277244
0.000316176
0.295439
0.155018
0.0887935
0.0551831
0.037976
0.0306668
0.0309822
0.0380217
0.0469424
0.0491087
0.0436046
0.0403159
0.0464343
0.0674583
0.0945606
0.0727099
0.0415637
0.0323514
0.0299125
0.0343234
0.0453676
0.0579262
0.0693295
0.0771374
0.0798287
0.0769639
0.0697023
0.0597245
0.0487241
0.0382706
0.0293608
0.0221756
0.0166574
0.0128505
0.0106076
0.0094714
0.00892465
0.00859919
0.00823589
0.0075913
0.00654924
0.00520912
0.00384498
0.00269893
0.00185687
0.0012828
0.00090335
0.000654485
0.000491183
0.000383745
0.000312911
0.000266274
0.000236005
0.000217324
0.000207836
0.000206084
0.000214202
0.000228797
0.000268652
0.000306125
0.295408
0.155113
0.0888895
0.0551074
0.0375024
0.0294354
0.0285857
0.0345152
0.044081
0.0493311
0.0464701
0.0433832
0.0483953
0.0681954
0.09782
0.081094
0.0465027
0.0351257
0.0315715
0.0355054
0.0459674
0.058044
0.0690403
0.0765047
0.0789069
0.0758065
0.0683625
0.058272
0.0472586
0.0368905
0.0281106
0.0210554
0.015684
0.0120602
0.0100126
0.00904008
0.0085987
0.0083315
0.00801332
0.00742548
0.00644845
0.00516224
0.00383044
0.00269836
0.00186045
0.00128687
0.000906748
0.000656823
0.000492348
0.000383774
0.000311916
0.000264391
0.000233361
0.000214015
0.000203897
0.000201511
0.000208814
0.000222555
0.000260601
0.000296679
0.29538
0.155209
0.0889993
0.0550827
0.0371492
0.0284382
0.0265141
0.0311461
0.0406063
0.0482656
0.0483554
0.0461186
0.0502882
0.0687149
0.100011
0.0893775
0.051897
0.0381995
0.0333795
0.0367167
0.0465161
0.0580509
0.0685902
0.075679
0.077781
0.0744572
0.066861
0.0566994
0.0457201
0.0354809
0.0268616
0.019957
0.0147502
0.0113246
0.00948203
0.00867565
0.00833426
0.00811366
0.00782594
0.00728168
0.00635819
0.00511887
0.00381602
0.00269673
0.00186282
0.00128995
0.000909509
0.000658876
0.00049351
0.000383995
0.00031123
0.000262878
0.000231112
0.000211108
0.000200361
0.000197343
0.00020385
0.000216758
0.000253097
0.000287839
0.295356
0.155303
0.0891182
0.0550981
0.0368953
0.0276448
0.0247659
0.0280435
0.0367985
0.0460424
0.0490629
0.0482557
0.0519509
0.0689687
0.101206
0.0970092
0.0579018
0.0415569
0.0353454
0.0379596
0.0470196
0.0579537
0.0679891
0.074672
0.0764633
0.072928
0.0652097
0.0550194
0.0441216
0.0340526
0.0256211
0.0188847
0.0138587
0.0106452
0.00901669
0.00837871
0.00813172
0.00794595
0.00767437
0.00716031
0.00627965
0.00508024
0.00380269
0.00269467
0.00186434
0.00129221
0.000911671
0.000660602
0.000494587
0.000384313
0.000310762
0.000261656
0.000229196
0.000208556
0.000197196
0.00019356
0.000199298
0.0002114
0.000246132
0.000279601
0.295335
0.155395
0.0892426
0.0551445
0.0367222
0.0270249
0.0233216
0.0252869
0.0329177
0.0428868
0.0485021
0.0495429
0.0531897
0.0688757
0.10143
0.103775
0.0643524
0.0451816
0.0374737
0.0392375
0.0474844
0.0577606
0.0672476
0.0734961
0.0749672
0.071232
0.0634218
0.0532459
0.0424766
0.0326163
0.0243956
0.0178423
0.0130117
0.0100233
0.00861736
0.00814987
0.00799143
0.00782844
0.00755884
0.007062
0.00621384
0.00504742
0.0037913
0.00269278
0.00186536
0.00129383
0.000913301
0.000661988
0.000495522
0.000384652
0.000310434
0.000260655
0.000227554
0.000206312
0.000194366
0.000190135
0.000195137
0.000206465
0.00023969
0.000271949
0.295316
0.155485
0.0893696
0.0552141
0.0366144
0.0265503
0.0221508
0.0229114
0.0291804
0.0390851
0.0467047
0.0497805
0.0537988
0.068323
0.100682
0.109443
0.0710718
0.0490549
0.0397643
0.0405548
0.0479177
0.0574804
0.0663768
0.0721646
0.0733067
0.0693837
0.0615123
0.0513942
0.040799
0.0311823
0.0231908
0.0168328
0.012211
0.00945997
0.00828476
0.00798986
0.00791389
0.00776114
0.00747931
0.00698706
0.00616148
0.00502127
0.00378261
0.0026916
0.00186623
0.00129502
0.000914487
0.000663046
0.000496283
0.000384956
0.000310184
0.000259814
0.00022613
0.000204331
0.000191833
0.000187038
0.000191342
0.000201934
0.000233751
0.000264862
0.295299
0.155571
0.0894968
0.0553008
0.0365585
0.0261953
0.0212183
0.0209179
0.0257454
0.0349456
0.0438216
0.0488546
0.0535869
0.0671658
0.0989404
0.11379
0.0778615
0.0531529
0.042212
0.0419157
0.0483267
0.0571226
0.065389
0.0706914
0.0714969
0.0673989
0.0594975
0.0494804
0.0391031
0.0297601
0.0220117
0.0158589
0.0114582
0.00895586
0.00801969
0.00789971
0.00789992
0.00774424
0.00743561
0.00693553
0.00612304
0.00500247
0.00377727
0.00269161
0.00186728
0.00129598
0.000915334
0.000663812
0.000496857
0.00038519
0.000309964
0.000259084
0.00022488
0.000202571
0.000189561
0.000184238
0.000187888
0.000197784
0.000228289
0.000258316
0.295285
0.155653
0.0896224
0.0553992
0.0365435
0.0259379
0.0204879
0.0192828
0.0227102
0.0307591
0.0401013
0.046761
0.0524076
0.0652301
0.0961722
0.116608
0.0844938
0.0574418
0.0448073
0.0433234
0.0487188
0.0566971
0.0642967
0.0690911
0.0695539
0.0652948
0.0573951
0.0475217
0.0374029
0.0283586
0.0208625
0.0149225
0.0107541
0.00851172
0.00782321
0.00788085
0.00795081
0.00777824
0.0074276
0.00690729
0.00609874
0.0049915
0.00377577
0.00269323
0.0018688
0.0012969
0.000915956
0.000664337
0.000497257
0.000385336
0.000309742
0.000258427
0.000223765
0.000200997
0.000187518
0.000181706
0.000184747
0.000193991
0.000223276
0.000252283
0.295272
0.155732
0.0897452
0.0555054
0.03656
0.025759
0.0199257
0.0179684
0.0201176
0.0267678
0.0358541
0.0436138
0.0501909
0.0624804
0.0923455
0.117714
0.0907084
0.0618708
0.0475365
0.0447804
0.0491014
0.0562146
0.0631131
0.0673792
0.0674948
0.0630899
0.0552241
0.0455358
0.0357122
0.0269853
0.0197462
0.0140252
0.0100998
0.00812828
0.00769669
0.00793531
0.00806857
0.00786421
0.0074554
0.00690216
0.00608863
0.00498865
0.00377851
0.00269681
0.00187107
0.00129796
0.000916472
0.000664689
0.000497507
0.000385395
0.000309503
0.000257819
0.000222756
0.000199579
0.000185676
0.000179416
0.000181894
0.000190529
0.000218684
0.000246734
0.29526
0.155807
0.0898643
0.0556159
0.0366004
0.0256426
0.019501
0.0169304
0.0179663
0.0231462
0.0314061
0.039635
0.0469647
0.0588622
0.0874272
0.116953
0.0962152
0.0663654
0.0503808
0.0462876
0.0494814
0.0556859
0.0618524
0.0655722
0.065338
0.060804
0.0530044
0.0435406
0.0340439
0.0256468
0.0186649
0.0131678
0.00949574
0.00780639
0.00764203
0.00806582
0.00825605
0.00800403
0.00751956
0.00692002
0.0060926
0.00499405
0.00378573
0.00270261
0.00187431
0.00129935
0.000917002
0.000664941
0.000497645
0.000385377
0.00030924
0.000257244
0.000221834
0.000198295
0.000184012
0.000177344
0.000179304
0.000187374
0.000214485
0.000241641
0.29525
0.155877
0.0899789
0.0557282
0.0366583
0.0255754
0.0191873
0.0161241
0.0162249
0.0199958
0.0270559
0.0351246
0.0428653
0.0543925
0.0813789
0.114207