/*--------------------------------*- C++ -*----------------------------------*\
| =========                 |                                                 |
| \\      /  F ield         | OpenFOAM: The Open Source CFD Toolbox           |
|  \\    /   O peration     | Version:  2.4.0                                 |
|   \\  /    A nd           | Web:      www.OpenFOAM.org                      |
|    \\/     M anipulation  |                                                 |
\*---------------------------------------------------------------------------*/
FoamFile
{
    version     2.0;
    format      ascii;
    class       volVectorField;
    location    "0.97";
    object      U;
}
// * * * * * * * * * * * * * * * * * * * * * * * * * * * * * * * * * * * * * //

dimensions      [0 1 -1 0 0 0 0];

internalField   nonuniform List<vector> 
2320
(
(1.04601 -0.0259101 0)
(1.0126 0.0214934 0)
(0.910675 0.0193136 0)
(1.13064 0.0445525 0)
(0.597272 -0.0765788 0)
(1.37788 0.0515116 0)
(0.326107 -0.00341831 0)
(1.45493 -0.020484 0)
(0.413007 -0.00193098 0)
(1.32816 -0.0820466 0)
(0.710333 -0.0178077 0)
(1.52682 -0.0225156 0)
(0.65418 0.0256526 0)
(1.37815 0.0192888 0)
(0.655402 0.040438 0)
(1.08573 -0.125483 0)
(0.823056 0.0741596 0)
(0.826751 -0.0983907 0)
(1.35605 -0.00585686 0)
(0.78778 -0.0295127 0)
(0.867593 0.00186783 0)
(1.11013 0.0373973 0)
(0.770006 -0.0677757 0)
(1.31375 0.0945662 0)
(0.756886 -0.0405938 0)
(1.20506 0.0659727 0)
(0.765185 -0.0222717 0)
(1.22432 -0.0276064 0)
(0.769215 0.0647878 0)
(1.22255 -0.0605325 0)
(0.710936 -0.103773 0)
(1.26339 0.0583563 0)
(0.817827 0.0425143 0)
(1.06079 -0.0189596 0)
(0.943768 0.0961798 0)
(1.12202 0.0621223 0)
(0.570168 0.0374529 0)
(1.21449 -0.180395 0)
(0.816129 0.0310273 0)
(1.19322 -0.045295 0)
(0.806267 -0.00945574 0)
(1.29971 0.0554687 0)
(0.691493 -0.0790958 0)
(1.32129 0.0512016 0)
(0.827682 -0.00305529 0)
(1.2553 0.051047 0)
(0.826914 -0.0101122 0)
(1.21154 -0.0158521 0)
(0.878164 -0.0111712 0)
(1.21435 -0.0441675 0)
(0.896984 -0.0243007 0)
(1.05124 -0.0625094 0)
(0.951465 0.12254 0)
(0.953151 -0.033269 0)
(0.973834 -0.00905736 0)
(1.1167 0.0690852 0)
(1.05924 0.0369772 0)
(1.04262 -0.20832 0)
(0.877955 0.0331367 0)
(1.07809 -0.0633436 0)
(1.0066 -0.0474002 0)
(1.01084 0.0796821 0)
(1.01303 -0.057901 0)
(1.00687 0.0210373 0)
(1.03117 -0.00519958 0)
(1.07263 0.0482902 0)
(1.04862 0.00400535 0)
(1.05083 -0.0615987 0)
(1.08834 0.0612316 0)
(0.93584 -0.0729072 0)
(1.1484 -0.0352476 0)
(0.938651 0.0343921 0)
(1.02714 0.0749043 0)
(0.939743 -0.0208156 0)
(1.11206 -0.00325522 0)
(0.928041 0.0485062 0)
(1.28378 0.0550907 0)
(0.90429 -0.0954964 0)
(0.985526 0.0172219 0)
(1.07101 -0.00932865 0)
(1.00637 -0.00910765 0)
(0.978419 0.0479608 0)
(1.02964 -0.0635906 0)
(0.90637 0.0263911 0)
(1.05113 -0.0297191 0)
(0.958102 0.0421217 0)
(1.09298 0.00341391 0)
(0.941658 -0.0305032 0)
(1.02109 0.0437511 0)
(1.01031 -0.0704349 0)
(0.934153 -0.0259166 0)
(1.01686 0.0114119 0)
(1.02104 0.11633 0)
(0.935311 -0.0583723 0)
(1.00834 -0.0160313 0)
(0.995181 -0.00742567 0)
(1.17051 0.0474095 0)
(0.879557 -0.0778507 0)
(0.996725 -0.0292046 0)
(1.03506 -0.0372927 0)
(0.932679 -0.0356344 0)
(1.09337 0.0459699 0)
(0.956794 -0.00739278 0)
(1.00569 -0.00152653 0)
(0.962618 -0.0188889 0)
(1.02391 0.0221667 0)
(1.01935 0.0115284 0)
(1.02923 -0.0174753 0)
(0.973915 0.016783 0)
(1.04514 -0.0143759 0)
(0.911564 -0.0502568 0)
(1.06686 0.000888271 0)
(0.938737 0.102011 0)
(1.05806 -0.00704818 0)
(0.91829 -0.05055 0)
(1.10451 -0.0212327 0)
(0.978046 0.102247 0)
(1.09035 -0.00648331 0)
(0.89201 -0.0626217 0)
(1.07481 -0.0313101 0)
(0.998587 -0.0197688 0)
(0.990177 0.0295671 0)
(0.981144 -0.00876954 0)
(1.02592 0.0115577 0)
(0.976612 -0.0297059 0)
(1.02033 0.00645461 0)
(1.00633 0.00529577 0)
(1.06845 -0.00868669 0)
(0.972133 0.0293759 0)
(0.991805 -0.0347643 0)
(1.04036 -0.0484344 0)
(0.962324 0.00532464 0)
(1.05277 0.111822 0)
(0.962837 -0.0309803 0)
(1.02239 -0.0490131 0)
(0.963296 -0.025519 0)
(1.07879 0.0569295 0)
(1.02336 -0.0243274 0)
(0.989259 -0.0188478 0)
(1.02596 -0.065298 0)
(0.976592 -0.0228608 0)
(0.977621 0.042118 0)
(1.0171 -0.0113921 0)
(1.02101 -0.01159 0)
(0.99716 -0.00684463 0)
(0.97988 0.00224452 0)
(1.02724 -0.0138742 0)
(1.03969 0.00537369 0)
(0.961893 0.0449258 0)
(1.01374 -0.0352741 0)
(0.959743 -0.0454038 0)
(1.02766 0.00721347 0)
(0.97791 0.0872334 0)
(1.03763 0.0165433 0)
(1.00059 -0.063311 0)
(0.998815 -0.0425829 0)
(1.03562 0.0579704 0)
(1.00805 0.0402672 0)
(1.00762 -0.0671701 0)
(1.01247 -0.0381011 0)
(0.960046 0.0034291 0)
(1.01309 0.00357605 0)
(0.992676 -0.0204066 0)
(1.07293 0.00971538 0)
(0.940579 0.00176902 0)
(1.02045 -0.0157767 0)
(0.992699 -0.0205106 0)
(1.05194 0.0254835 0)
(0.944199 0.0359683 0)
(1.01626 -0.0228518 0)
(0.983239 -0.0669628 0)
(0.999452 0.00779659 0)
(0.989527 0.10077 0)
(1.03364 -0.0298459 0)
(1.04646 -0.0396478 0)
(0.97556 -0.0305834 0)
(0.991453 0.0491013 0)
(1.02496 -0.00209735 0)
(1.00563 -0.0269423 0)
(1.04174 -0.0759715 0)
(0.996816 -0.0057967 0)
(0.994378 0.0167101 0)
(1.01292 -0.030043 0)
(1.01329 0.00268631 0)
(0.975124 0.0277488 0)
(1.00707 -0.0290973 0)
(0.992531 -0.0301355 0)
(1.04509 0.0321484 0)
(0.933734 0.0551638 0)
(1.05848 -0.045091 0)
(0.978837 -0.0495635 0)
(1.00561 0.0136956 0)
(0.971104 0.0588076 0)
(1.04387 -0.00361825 0)
(1.01657 -0.0428118 0)
(1.00284 -0.0093594 0)
(0.996827 0.0264906 0)
(0.983981 0.0340542 0)
(1.04773 -0.0725607 0)
(0.966595 -0.0492941 0)
(0.975777 0.00753201 0)
(1.02898 -0.00639318 0)
(0.990266 -0.0216534 0)
(1.00514 0.0183447 0)
(0.972756 0.0156704 0)
(1.03256 -0.0318608 0)
(1.00287 -0.035163 0)
(0.983574 0.0570927 0)
(0.990416 0.0231764 0)
(1.03532 -0.034235 0)
(0.998723 -0.0502861 0)
(0.961258 0.0228164 0)
(0.97244 0.0706843 0)
(1.02905 -0.0431979 0)
(0.980334 -0.0274713 0)
(1.07517 -0.0121422 0)
(0.94045 0.0510011 0)
(1.0448 -0.020181 0)
(0.990447 -0.0277439 0)
(1.02545 -0.0873684 0)
(0.953423 -0.00749036 0)
(1.05925 0.006127 0)
(0.948045 -0.0103559 0)
(1.03465 0.000651044 0)
(0.958617 0.0225217 0)
(1.07289 -0.0482759 0)
(0.95096 -0.00404135 0)
(1.01816 0.0407091 0)
(0.985603 0.0235982 0)
(1.05891 -0.0410852 0)
(0.977778 -0.0203787 0)
(0.899548 0.0362549 0)
(1.01805 0.0165158 0)
(0.980789 -0.00272669 0)
(1.04773 -0.0705028 0)
(1.00871 0.0114953 0)
(0.981108 0.0431563 0)
(1.01983 0.00533912 0)
(1.00151 -0.0563223 0)
(1.05216 -0.0749254 0)
(0.980083 -0.000704371 0)
(1.01664 -0.00259132 0)
(0.981363 -0.00379903 0)
(1.01565 0.00226976 0)
(0.970836 0.00652519 0)
(1.06745 -0.0354297 0)
(0.941382 -0.00352898 0)
(1.04856 0.0381408 0)
(0.972445 -0.000855878 0)
(1.05712 -0.0230006 0)
(0.928226 0.0199576 0)
(0.952285 0.0123142 0)
(1.01536 0.0202032 0)
(1.01236 -0.0502221 0)
(1.05425 -0.0436086 0)
(0.921321 0.0268092 0)
(1.01567 0.0398918 0)
(0.991537 -0.0239414 0)
(1.04055 -0.0510831 0)
(1.0235 -0.0561522 0)
(0.989341 -0.00676083 0)
(0.990554 0.00678445 0)
(1.0094 -0.00515214 0)
(1.00156 -0.0029757 0)
(0.980748 0.00408599 0)
(1.04821 -0.0389308 0)
(0.970828 0.00887412 0)
(1.04811 0.0244256 0)
(0.967726 0.0158231 0)
(1.01885 -0.0142735 0)
(0.920582 0.0259209 0)
(1.00216 -0.00144558 0)
(1.02583 -0.0188643 0)
(1.04135 -0.0199332 0)
(0.987902 -0.025636 0)
(0.91175 0.0295944 0)
(1.01482 0.0140067 0)
(1.03518 -0.0167128 0)
(1.00223 -0.0634023 0)
(1.03124 -0.0302974 0)
(0.998678 0.00665984 0)
(0.968586 -0.00951776 0)
(1.03273 -0.00572687 0)
(0.983804 0.00725092 0)
(1.01066 -0.00742673 0)
(1.01598 -0.0389206 0)
(1.00665 0.00182129 0)
(1.00354 0.0372416 0)
(0.998858 0.0118081 0)
(0.988681 0.00569459 0)
(0.951928 0.0206125 0)
(1.0343 -0.0302102 0)
(1.004 -0.00866173 0)
(1.04556 -0.0246006 0)
(0.943601 0.0178491 0)
(0.940099 0.0113563 0)
(1.03915 -0.0170112 0)
(1.02134 -0.0225642 0)
(1.02708 -0.0438495 0)
(0.967503 -0.0133996 0)
(1.00631 0.00674982 0)
(0.982297 -0.00585878 0)
(1.02555 -0.0117886 0)
(0.969623 0.00192891 0)
(1.03047 -0.00614781 0)
(1.01035 -0.0416612 0)
(0.987823 0.0197127 0)
(0.988991 0.0269814 0)
(1.00619 0.0223138 0)
(0.965397 0.0126583 0)
(0.991731 -0.00252289 0)
(1.03324 -0.0216642 0)
(0.993342 -0.0297492 0)
(1.0326 0.0144131 0)
(0.922478 0.0233193 0)
(0.991344 -0.0174273 0)
(1.02804 -0.0258666 0)
(1.00465 -0.0159815 0)
(1.01812 -0.0306228 0)
(0.949987 0.00333539 0)
(1.00526 0.00932198 0)
(0.99929 -0.0139919 0)
(1.02838 0.00247263 0)
(0.943755 -0.00311976 0)
(1.04683 -0.0192113 0)
(0.989614 -0.0248568 0)
(0.968649 0.0200284 0)
(0.996534 0.0240379 0)
(0.998203 0.0238357 0)
(0.989323 0.0160142 0)
(1.00003 -0.0201073 0)
(1.03079 -0.0222737 0)
(0.986959 -0.0169897 0)
(1.00004 0.0176281 0)
(0.949972 0.0354844 0)
(1.02225 -0.0412435 0)
(0.993889 -0.0183296 0)
(0.990494 -0.0256103 0)
(1.02063 -0.00623265 0)
(0.926659 0.0100071 0)
(1.03084 0.000587907 0)
(0.984049 -0.0106712 0)
(1.03647 0.0143718 0)
(0.943639 -0.011586 0)
(1.03956 -0.0246178 0)
(0.967093 -0.00697228 0)
(0.962195 0.0202419 0)
(0.991664 0.00869403 0)
(1.00524 0.0273273 0)
(0.993107 0.0127271 0)
(1.04237 -0.0254354 0)
(0.97816 -0.0107703 0)
(1.01713 -0.0199164 0)
(0.969677 0.038993 0)
(0.994464 0.00436476 0)
(1.03859 -0.0307955 0)
(0.976463 -0.0151727 0)
(0.961499 -0.0267971 0)
(1.01119 0.00205496 0)
(0.919336 0.0309067 0)
(1.04367 -0.00163616 0)
(0.953646 -0.0110522 0)
(1.04744 0.0227102 0)
(0.956655 -0.0110257 0)
(1.03528 -0.0234685 0)
(0.925606 0.00685125 0)
(1.0107 0.0143167 0)
(0.962471 -0.00327423 0)
(1.01776 0.0257731 0)
(1.01361 -0.00269976 0)
(1.02975 -0.0151406 0)
(0.980008 -0.00442545 0)
(1.00215 -0.0198483 0)
(0.949932 0.0365351 0)
(1.06516 -0.00442188 0)
(0.966356 -0.0304047 0)
(1.00807 0.0214323 0)
(0.945832 -0.049662 0)
(0.965811 0.024959 0)
(0.949294 0.0196744 0)
(1.07356 -0.00211622 0)
(0.910612 -0.00531607 0)
(1.05545 0.0107922 0)
(0.974633 -0.00821688 0)
(1.00751 -0.00435295 0)
(0.929107 0.0011242 0)
(1.01031 0.00706669 0)
(0.985105 0.000789307 0)
(0.993812 0.00507444 0)
(1.05447 0.0057762 0)
(0.995065 -0.00987035 0)
(1.00485 0.00645198 0)
(1.00156 -0.00985178 0)
(0.939954 0.0150561 0)
(1.10878 -0.0105747 0)
(0.903256 0.00479731 0)
(1.05836 -0.0108531 0)
(0.929769 0.00103441 0)
(0.94377 -0.00100974 0)
(1.00458 0.0119373 0)
(1.45593 0.0173893 0)
(0.684738 0.0812072 0)
(0.991639 -0.163694 0)
(1.41846 0.0805008 0)
(0.193271 -0.110475 0)
(1.64642 -0.0325785 0)
(0.413684 0.00697016 0)
(1.53214 -0.0968613 0)
(0.853017 0.0580784 0)
(1.26718 0.122743 0)
(0.597902 -0.176128 0)
(1.35434 0.249115 0)
(0.756957 0.0356733 0)
(1.06928 -0.122757 0)
(1.07209 0.0773576 0)
(1.13155 -0.0165174 0)
(0.783115 0.0114044 0)
(1.30696 0.178023 0)
(0.550354 -0.209861 0)
(1.42401 0.0424947 0)
(0.80661 0.0820109 0)
(1.4781 -0.206248 0)
(0.686835 -0.00405508 0)
(1.66739 -0.0847778 0)
(0.910905 -0.0505491 0)
(1.11895 0.215175 0)
(1.1056 -0.1801 0)
(1.0765 0.0577636 0)
(1.17926 0.0268909 0)
(1.24778 -0.0988458 0)
(1.09056 -0.0124872 0)
(1.27148 0.0116469 0)
(1.00109 -0.00528818 0)
(1.05524 0.101794 0)
(1.04244 -0.166134 0)
(0.969886 -0.0235383 0)
(1.17523 0.0141239 0)
(1.09429 -0.14266 0)
(1.00665 -0.0247804 0)
(1.12292 -0.0591643 0)
(0.956326 -0.0395536 0)
(1.08859 0.137189 0)
(1.04287 -0.115828 0)
(0.995714 -0.0326113 0)
(1.09078 -0.0189043 0)
(1.09693 -0.0287986 0)
(1.08213 -0.0439214 0)
(1.11035 -0.0743364 0)
(0.971624 -0.00307898 0)
(1.06278 0.0583775 0)
(1.03728 -0.0930438 0)
(1.02044 -0.0644115 0)
(1.01298 -0.0258921 0)
(1.13373 -0.120162 0)
(1.03195 -0.043303 0)
(1.12813 -0.062 0)
(1.03942 -0.0383142 0)
(1.03116 0.0730668 0)
(1.05875 -0.074623 0)
(0.953568 -0.0444651 0)
(1.08208 -0.0716723 0)
(1.06032 -0.0390894 0)
(1.03167 -0.0627716 0)
(1.12744 -0.103268 0)
(1.00996 -0.00698848 0)
(1.05066 0.0380106 0)
(0.994033 -0.037855 0)
(1.03074 -0.0828618 0)
(1.03329 -0.0725269 0)
(1.06522 -0.0789922 0)
(1.06401 -0.0860378 0)
(1.04768 -0.0747342 0)
(1.08031 -0.0273376 0)
(0.981778 0.0594676 0)
(1.0352 -0.0452297 0)
(1.03652 -0.0874877 0)
(1.01385 -0.0811702 0)
(1.0856 -0.0547965 0)
(0.988729 -0.072064 0)
(1.07367 -0.115805 0)
(1.02767 -0.0135165 0)
(0.955891 0.0555759 0)
(1.06358 -0.0537029 0)
(1.00968 -0.0757458 0)
(1.03734 -0.0934302 0)
(0.988516 -0.0570905 0)
(1.04921 -0.088732 0)
(0.999788 -0.103562 0)
(0.950239 0.0198367 0)
(1.01372 0.023629 0)
(0.991355 -0.0528695 0)
(1.04844 -0.0925753 0)
(1.00455 -0.0621821 0)
(1.00863 -0.0569314 0)
(0.984602 -0.0949362 0)
(1.01208 -0.0975471 0)
(0.937237 0.0060016 0)
(1.0148 0.0280512 0)
(1.00701 -0.0617795 0)
(1.01286 -0.091327 0)
(0.992953 -0.063666 0)
(1.00181 -0.0537464 0)
(0.968477 -0.0881276 0)
(0.992808 -0.0998949 0)
(0.909271 0.0284109 0)
(1.03216 -0.0167327 0)
(1.01619 -0.0462125 0)
(0.994329 -0.0937475 0)
(0.963535 -0.0473659 0)
(1.00604 -0.0468847 0)
(0.965627 -0.101209 0)
(0.965949 -0.0782879 0)
(0.948388 0.00884511 0)
(1.00969 -0.0296762 0)
(1.02244 -0.0370784 0)
(0.986087 -0.0744258 0)
(0.955282 -0.0578795 0)
(1.01833 -0.0587559 0)
(0.947221 -0.0727661 0)
(0.972606 -0.0970002 0)
(0.956634 0.00956652 0)
(1.00609 -0.0547201 0)
(1.00695 -0.0368085 0)
(0.962426 -0.0630912 0)
(0.997372 -0.0505587 0)
(0.986285 -0.0592912 0)
(0.93472 -0.0724128 0)
(0.967931 -0.0604626 0)
(0.959035 -0.0156709 0)
(1.00688 -0.0577457 0)
(0.981161 -0.0145064 0)
(0.98423 -0.0789677 0)
(0.994976 -0.0490748 0)
(0.969938 -0.0422968 0)
(0.924789 -0.0685483 0)
(1.00563 -0.0637311 0)
(0.975565 -0.0278678 0)
(0.992748 -0.0695469 0)
(0.955635 -0.0223209 0)
(0.994784 -0.0746324 0)
(1.03 -0.027788 0)
(0.903835 -0.0481564 0)
(0.925253 -0.0600941 0)
(1.00943 0.00761207 0)
(1.0189 -0.0518592 0)
(0.961214 -0.0497226 0)
(0.954763 -0.022411 0)
(0.98901 -0.129458 0)
(0.953881 0.0289097 0)
(0.902694 -0.0291387 0)
(0.954212 -0.119398 0)
(0.901813 0.0353481 0)
(0.992694 -0.0393545 0)
(0.892279 -0.0252149 0)
(0.96525 -0.0438315 0)
(0.784052 -0.0667465 0)
(0.801398 0.0338505 0)
(0.866405 -0.0821212 0)
(0.597687 -0.00183807 0)
(0.675324 0.15627 0)
(0.595862 -0.0786505 0)
(2.15794 0.0461891 0)
(0.0357631 0.00454026 0)
(2.0794 -0.202274 0)
(0.483427 -0.0474639 0)
(2.26664 -0.244152 0)
(1.39536 -0.0199125 0)
(2.62635 -0.0971866 0)
(1.2386 -0.0146539 0)
(3.26148 -0.153197 0)
(1.59089 -0.0426613 0)
(3.79824 -0.172277 0)
(2.47763 -0.0828747 0)
(4.13248 -0.132588 0)
(3.28215 -0.0781937 0)
(4.42637 -0.0729355 0)
(3.819 -0.0574015 0)
(4.60303 -0.0402921 0)
(4.11851 -0.0105871 0)
(4.61781 -0.0292679 0)
(4.14292 0.0292177 0)
(4.52569 -0.0109041 0)
(3.91812 0.0459015 0)
(4.30195 0.00186051 0)
(3.47521 0.0636268 0)
(3.94057 0.00932216 0)
(2.81553 0.0879093 0)
(3.4874 0.00889303 0)
(1.03002 -0.228023 0)
(1.3478 0.16635 0)
(1.14996 0.097068 0)
(1.65067 -0.0639943 0)
(1.20337 -0.0584388 0)
(1.70965 -0.203601 0)
(1.44723 -0.14731 0)
(2.1374 0.116499 0)
(1.7621 -0.224049 0)
(2.82267 -0.122484 0)
(2.06418 -0.162456 0)
(3.4908 -0.308659 0)
(2.62825 -0.0907087 0)
(3.87177 -0.30257 0)
(3.28085 -0.0494846 0)
(4.17312 -0.184408 0)
(3.81648 -0.0699423 0)
(4.3788 -0.0538453 0)
(4.13 -0.0261353 0)
(4.4577 0.0338787 0)
(4.22797 0.0444408 0)
(4.40037 0.0958589 0)
(4.06228 0.110813 0)
(4.14719 0.155189 0)
(3.66745 0.197771 0)
(3.69647 0.202373 0)
(3.0578 0.282772 0)
(3.11395 0.292284 0)
(0.617478 -0.146409 0)
(1.55116 -0.00397362 0)
(0.956335 -0.103923 0)
(1.79997 -0.252545 0)
(1.27593 -0.0464595 0)
(1.75952 -0.363858 0)
(1.61801 -0.222619 0)
(1.95327 -0.263458 0)
(2.14334 -0.274326 0)
(2.44633 -0.387118 0)
(2.57681 -0.306768 0)
(3.10715 -0.487825 0)
(2.9733 -0.24172 0)
(3.66464 -0.475842 0)
(3.52308 -0.195278 0)
(4.06452 -0.34285 0)
(4.01528 -0.170801 0)
(4.28379 -0.166949 0)
(4.32961 -0.0779645 0)
(4.33597 -0.0452449 0)
(4.45272 0.0494337 0)
(4.21315 0.0924031 0)
(4.27944 0.155918 0)
(3.94234 0.216442 0)
(3.86361 0.271699 0)
(3.54109 0.322713 0)
(3.24325 0.37539 0)
(3.10409 0.461627 0)
(1.07158 -0.164839 0)
(1.33902 -0.0598088 0)
(1.22845 -0.00868352 0)
(1.45764 -0.221959 0)
(1.35004 -0.108766 0)
(1.63733 -0.306776 0)
(1.52582 -0.308143 0)
(1.85923 -0.169431 0)
(1.98801 -0.42607 0)
(2.45323 -0.449909 0)
(2.4298 -0.409965 0)
(3.04541 -0.582588 0)
(2.97262 -0.347918 0)
(3.63358 -0.606307 0)
(3.54034 -0.244506 0)
(4.06047 -0.440028 0)
(4.01025 -0.175024 0)
(4.29772 -0.199416 0)
(4.29686 -0.0587357 0)
(4.34984 -6.82602e-05 0)
(4.40183 0.111284 0)
(4.23236 0.174546 0)
(4.25716 0.273581 0)
(3.98102 0.336526 0)
(3.80945 0.429311 0)
(3.60618 0.475462 0)
(3.13974 0.537102 0)
(3.19852 0.602971 0)
(1.20212 -0.163552 0)
(0.966645 -0.0842776 0)
(1.40069 -0.165485 0)
(1.24934 -0.263386 0)
(1.4297 -0.17245 0)
(1.47549 -0.380898 0)
(1.64279 -0.343472 0)
(1.68726 -0.471122 0)
(2.24443 -0.536528 0)
(2.25842 -0.648804 0)
(2.5842 -0.561664 0)
(3.03673 -0.759026 0)
(3.07359 -0.57228 0)
(3.66111 -0.724176 0)
(3.53701 -0.430638 0)
(4.10302 -0.581639 0)
(3.92772 -0.273273 0)
(4.35518 -0.317787 0)
(4.16967 -0.126259 0)
(4.41981 -0.0390775 0)
(4.24054 0.0536119 0)
(4.32762 0.204041 0)
(4.0895 0.263227 0)
(4.10419 0.442183 0)
(3.66529 0.471896 0)
(3.76761 0.642338 0)
(3.03883 0.625788 0)
(3.30413 0.748975 0)
(1.10046 -0.10991 0)
(1.16005 -0.153347 0)
(1.20565 -0.160699 0)
(1.2365 -0.217734 0)
(1.42253 -0.301339 0)
(1.42304 -0.36296 0)
(1.69284 -0.484964 0)
(1.68811 -0.47503 0)
(2.19432 -0.650097 0)
(2.13744 -0.714137 0)
(2.71947 -0.740156 0)
(2.88187 -0.869464 0)
(3.1333 -0.710676 0)
(3.46971 -0.778338 0)
(3.48588 -0.558818 0)
(3.93199 -0.608042 0)
(3.69589 -0.318582 0)
(4.21505 -0.338446 0)
(3.80944 -0.0916455 0)
(4.30754 -0.00651048 0)
(3.84745 0.109663 0)
(4.23093 0.297805 0)
(3.74046 0.329952 0)
(4.03583 0.576696 0)
(3.43315 0.532773 0)
(3.7297 0.792237 0)
(3.00308 0.737433 0)
(3.25266 0.88525 0)
(1.13428 -0.166741 0)
(1.09794 -0.159712 0)
(1.18896 -0.196433 0)
(1.29813 -0.336794 0)
(1.28508 -0.303256 0)
(1.445 -0.458638 0)
(1.56974 -0.517434 0)
(1.64263 -0.699005 0)
(2.09144 -0.768024 0)
(2.17635 -0.936907 0)
(2.69606 -0.956014 0)
(2.71578 -0.970404 0)
(3.04882 -0.885023 0)
(3.20307 -0.884113 0)
(3.32351 -0.697162 0)
(3.52233 -0.66729 0)
(3.43272 -0.400533 0)
(3.78383 -0.39281 0)
(3.43408 -0.131106 0)
(3.93762 -0.0549251 0)
(3.39943 0.0884704 0)
(3.93027 0.311947 0)
(3.30537 0.330614 0)
(3.77518 0.648991 0)
(3.09466 0.592191 0)
(3.48003 0.87546 0)
(2.90779 0.832668 0)
(3.02563 0.956872 0)
(1.07808 -0.10793 0)
(1.12405 -0.183485 0)
(1.19064 -0.243079 0)
(1.17957 -0.276941 0)
(1.27817 -0.396111 0)
(1.41445 -0.478389 0)
(1.48848 -0.601966 0)
(1.64763 -0.734644 0)
(2.03097 -0.919692 0)
(2.18372 -1.05503 0)
(2.48552 -1.0179 0)
(2.52928 -1.03676 0)
(2.796 -0.988195 0)
(2.81737 -0.88449 0)
(2.94241 -0.746567 0)
(3.03667 -0.648228 0)
(3.03863 -0.441557 0)
(3.26013 -0.369813 0)
(2.98947 -0.106475 0)
(3.45343 -0.047895 0)
(2.90171 0.144734 0)
(3.49182 0.346285 0)
(2.83712 0.386716 0)
(3.35752 0.693531 0)
(2.76942 0.64639 0)
(3.03289 0.95254 0)
(2.76609 0.918457 0)
(2.64052 0.975515 0)
(1.11474 -0.162558 0)
(1.10925 -0.215651 0)
(1.12387 -0.228201 0)
(1.19529 -0.356034 0)
(1.24171 -0.437969 0)
(1.28852 -0.533426 0)
(1.42165 -0.680661 0)
(1.61398 -0.951155 0)
(1.91742 -1.06658 0)
(1.96588 -1.15413 0)
(2.20305 -1.14143 0)
(2.22968 -1.1194 0)
(2.3325 -1.0304 0)
(2.34514 -0.935358 0)
(2.47477 -0.819821 0)
(2.47899 -0.696781 0)
(2.56031 -0.508776 0)
(2.60361 -0.389158 0)
(2.50747 -0.163597 0)
(2.7993 -0.0746308 0)
(2.39517 0.147527 0)
(2.91433 0.304616 0)
(2.30456 0.431798 0)
(2.82897 0.726445 0)
(2.31896 0.65523 0)
(2.57193 0.9619 0)
(2.42976 1.00501 0)
(2.2038 0.998873 0)
(1.07458 -0.142486 0)
(1.08887 -0.199031 0)
(1.10004 -0.266584 0)
(1.13021 -0.35337 0)
(1.14328 -0.4359 0)
(1.24748 -0.557312 0)
(1.36757 -0.787805 0)
(1.52543 -0.978225 0)
(1.68249 -1.12379 0)
(1.75125 -1.20095 0)
(1.85096 -1.14757 0)
(1.82586 -1.10707 0)
(1.86828 -1.0374 0)
(1.90232 -0.941822 0)
(1.93684 -0.834309 0)
(1.88313 -0.657254 0)
(1.98923 -0.492907 0)
(1.93727 -0.353403 0)
(1.97347 -0.174636 0)
(2.06103 -0.0494297 0)
(1.81607 0.186923 0)
(2.18766 0.308631 0)
(1.75855 0.462306 0)
(2.19999 0.719844 0)
(1.79932 0.739053 0)
(1.95872 0.947796 0)
(2.12731 1.01034 0)
(1.70865 1.03392 0)
(1.0433 -0.178493 0)
(1.05673 -0.213167 0)
(1.0494 -0.253245 0)
(1.05411 -0.372958 0)
(1.09836 -0.486996 0)
(1.16883 -0.639906 0)
(1.24119 -0.840105 0)
(1.35705 -1.09542 0)
(1.42889 -1.19868 0)
(1.40088 -1.20992 0)
(1.4236 -1.1714 0)
(1.38767 -1.12603 0)
(1.34536 -1.05191 0)
(1.36483 -0.944419 0)
(1.284 -0.82963 0)
(1.3109 -0.698519 0)
(1.35604 -0.54929 0)
(1.24846 -0.362206 0)
(1.32493 -0.174574 0)
(1.29431 -0.0458736 0)
(1.25098 0.142001 0)
(1.42604 0.30207 0)
(1.1182 0.503885 0)
(1.52297 0.641401 0)
(1.29294 0.75917 0)
(1.33833 0.926499 0)
(1.60597 1.00159 0)
(1.32093 0.993042 0)
(0.987392 -0.179995 0)
(1.02311 -0.206606 0)
(0.987965 -0.259321 0)
(1.02311 -0.377464 0)
(1.04229 -0.482372 0)
(1.06555 -0.635847 0)
(1.12066 -0.890514 0)
(1.1089 -1.05362 0)
(1.09239 -1.16518 0)
(1.06204 -1.18562 0)
(1.00199 -1.12568 0)
(0.928527 -1.08378 0)
(0.839192 -1.01849 0)
(0.811841 -0.904281 0)
(0.702465 -0.814511 0)
(0.670545 -0.656364 0)
(0.593178 -0.482084 0)
(0.564093 -0.352884 0)
(0.634118 -0.191534 0)
(0.510856 -0.00999253 0)
(0.573726 0.148516 0)
(0.636952 0.311161 0)
(0.520514 0.488078 0)
(0.748288 0.605708 0)
(0.676269 0.795548 0)
(0.782423 0.843496 0)
(1.00013 0.992516 0)
(0.803125 0.997663 0)
(0.964875 -0.184224 0)
(0.991861 -0.208616 0)
(0.921884 -0.250286 0)
(0.974197 -0.404641 0)
(0.982596 -0.490993 0)
(0.955292 -0.678297 0)
(0.898972 -0.878639 0)
(0.856115 -1.08561 0)
(0.78743 -1.16176 0)
(0.667215 -1.14813 0)
(0.546596 -1.09863 0)
(0.419111 -1.03377 0)
(0.276694 -0.986732 0)
(0.203682 -0.862262 0)
(0.0437567 -0.751323 0)
(-0.0101126 -0.643701 0)
(-0.0879421 -0.478122 0)
(-0.169215 -0.342079 0)
(-0.146382 -0.172827 0)
(-0.201101 -0.0341843 0)
(-0.130484 0.126122 0)
(-0.168161 0.319702 0)
(-0.0910015 0.45427 0)
(-0.0337382 0.573682 0)
(0.0691994 0.770983 0)
(0.157324 0.745475 0)
(0.426408 0.935509 0)
(0.313575 0.918668 0)
(0.987013 -0.190219 0)
(0.899786 -0.184093 0)
(0.92421 -0.2536 0)
(0.917625 -0.393804 0)
(0.913594 -0.461608 0)
(0.767425 -0.606962 0)
(0.682101 -0.84999 0)
(0.608708 -1.01053 0)
(0.405433 -1.06509 0)
(0.287839 -1.05588 0)
(0.10518 -1.02071 0)
(-0.0604267 -0.951262 0)
(-0.259488 -0.895118 0)
(-0.387014 -0.809282 0)
(-0.55965 -0.689086 0)
(-0.705427 -0.561176 0)
(-0.79289 -0.432001 0)
(-0.872732 -0.310617 0)
(-0.913353 -0.153507 0)
(-0.93337 -0.0205185 0)
(-0.898661 0.136624 0)
(-0.913278 0.292927 0)
(-0.70336 0.40889 0)
(-0.80278 0.543586 0)
(-0.497112 0.704503 0)
(-0.489734 0.680263 0)
(-0.186717 0.910391 0)
(-0.253722 0.798751 0)
(0.946646 -0.164276 0)
(0.868627 -0.166405 0)
(0.892527 -0.266363 0)
(0.89954 -0.371648 0)
(0.791226 -0.409184 0)
(0.572794 -0.564649 0)
(0.458258 -0.789199 0)
(0.318762 -0.948556 0)
(0.107378 -0.9991 0)
(-0.105111 -0.96476 0)
(-0.368248 -0.922805 0)
(-0.553946 -0.868791 0)
(-0.820372 -0.805744 0)
(-1.00538 -0.711884 0)
(-1.19043 -0.618408 0)
(-1.34573 -0.510583 0)
(-1.47464 -0.386714 0)
(-1.54696 -0.282638 0)
(-1.60386 -0.154634 0)
(-1.61851 -0.0262871 0)
(-1.61987 0.116462 0)
(-1.56458 0.248013 0)
(-1.42904 0.392439 0)
(-1.47683 0.469497 0)
(-1.02618 0.588455 0)
(-1.22539 0.63784 0)
(-0.710063 0.804696 0)
(-0.805054 0.693456 0)
(0.902405 -0.163475 0)
(0.817699 -0.156046 0)
(0.885651 -0.280664 0)
(0.859354 -0.331207 0)
(0.646893 -0.283719 0)
(0.384389 -0.472386 0)
(0.248626 -0.74737 0)
(0.0738463 -0.833562 0)
(-0.245951 -0.860133 0)
(-0.479443 -0.821206 0)
(-0.818574 -0.779641 0)
(-1.06883 -0.723723 0)
(-1.32431 -0.68302 0)
(-1.568 -0.600684 0)
(-1.7848 -0.514148 0)
(-1.94673 -0.423777 0)
(-2.1009 -0.328036 0)
(-2.19145 -0.226494 0)
(-2.26093 -0.121495 0)
(-2.28386 -0.0123062 0)
(-2.27142 0.10198 0)
(-2.19876 0.221523 0)
(-2.10279 0.329841 0)
(-2.01399 0.393925 0)
(-1.70922 0.529765 0)
(-1.8112 0.545848 0)
(-1.1489 0.654734 0)
(-1.46948 0.626347 0)
(0.804847 -0.101387 0)
(0.830312 -0.161621 0)
(0.83464 -0.27463 0)
(0.766885 -0.255107 0)
(0.47595 -0.204052 0)
(0.252758 -0.388044 0)
(0.0517302 -0.644465 0)
(-0.157729 -0.71738 0)
(-0.526498 -0.715704 0)
(-0.836767 -0.691554 0)
(-1.1948 -0.650623 0)
(-1.51178 -0.610396 0)
(-1.82655 -0.555233 0)
(-2.07491 -0.498369 0)
(-2.32808 -0.421803 0)
(-2.51467 -0.3467 0)
(-2.66852 -0.269735 0)
(-2.78506 -0.191611 0)
(-2.84773 -0.100379 0)
(-2.87981 -0.0144273 0)
(-2.85501 0.0843313 0)
(-2.78635 0.172152 0)
(-2.6823 0.26039 0)
(-2.54857 0.32737 0)
(-2.33002 0.434363 0)
(-2.22593 0.429471 0)
(-1.76476 0.565686 0)
(-1.93246 0.512829 0)
(0.771927 -0.107401 0)
(0.813748 -0.154304 0)
(0.759228 -0.227477 0)
(0.527855 -0.116719 0)
(0.289623 0.00229087 0)
(0.148317 -0.244127 0)
(-0.162664 -0.502304 0)
(-0.419898 -0.546411 0)
(-0.838242 -0.506907 0)
(-1.23577 -0.465054 0)
(-1.61346 -0.45585 0)
(-1.93306 -0.426728 0)
(-2.25361 -0.404021 0)
(-2.55318 -0.350736 0)
(-2.77683 -0.306311 0)
(-3.01504 -0.246099 0)
(-3.14716 -0.191423 0)
(-3.29382 -0.134424 0)
(-3.34092 -0.0685862 0)
(-3.39064 -0.00576847 0)
(-3.35111 0.0629972 0)
(-3.29022 0.129051 0)
(-3.17092 0.187697 0)
(-3.01958 0.246562 0)
(-2.80828 0.302087 0)
(-2.61414 0.323669 0)
(-2.26938 0.41406 0)
(-2.17398 0.331611 0)
(0.633287 -0.0365271 0)
(0.717983 -0.165617 0)
(0.525055 -0.153768 0)
(0.257958 -0.0328552 0)
(0.118881 -0.027122 0)
(0.0557749 -0.215601 0)
(-0.312258 -0.408542 0)
(-0.664129 -0.413254 0)
(-1.05939 -0.341298 0)
(-1.43295 -0.31019 0)
(-1.89941 -0.292929 0)
(-2.25371 -0.278714 0)
(-2.61441 -0.262873 0)
(-2.93405 -0.230361 0)
(-3.1981 -0.198428 0)
(-3.44062 -0.160154 0)
(-3.59501 -0.126205 0)
(-3.74291 -0.0850146 0)
(-3.79289 -0.0428675 0)
(-3.83862 -0.00172111 0)
(-3.79001 0.0438601 0)
(-3.71963 0.081992 0)
(-3.58447 0.125515 0)
(-3.41062 0.156869 0)
(-3.19515 0.194656 0)
(-2.9412 0.214062 0)
(-2.64497 0.262729 0)
(-2.40276 0.213239 0)
(0.545865 -0.0517565 0)
(0.39964 -0.0592925 0)
(0.116092 0.0250257 0)
(0.120443 0.102533 0)
(0.262013 0.103698 0)
(0.277949 0.0146953 0)
(-0.165076 -0.105484 0)
(-0.823682 -0.147863 0)
(-1.37644 -0.0879749 0)
(-1.70997 -0.0637375 0)
(-2.11452 -0.0811481 0)
(-2.44992 -0.0783147 0)
(-2.83484 -0.0721923 0)
(-3.14712 -0.0688458 0)
(-3.4421 -0.0558998 0)
(-3.68241 -0.0481645 0)
(-3.85905 -0.0368093 0)
(-4.00298 -0.0269146 0)
(-4.06535 -0.0133856 0)
(-4.1087 -0.00209899 0)
(-4.06259 0.00956775 0)
(-3.992 0.0230628 0)
(-3.85393 0.031656 0)
(-3.68238 0.0436204 0)
(-3.46344 0.049605 0)
(-3.20043 0.0612047 0)
(-2.92886 0.0774059 0)
(-2.61616 0.0642135 0)
(2.01891 0.356218 0)
(2.33883 0.188841 0)
(0.963919 0.2568 0)
(1.17075 0.34918 0)
(0.968199 -0.0540918 0)
(1.57661 -0.810383 0)
(0.784341 -1.1003 0)
(0.476456 -0.595733 0)
(2.35275 0.591679 0)
(2.69154 0.622854 0)
(1.99545 0.670888 0)
(2.07963 0.79297 0)
(1.74331 0.0161006 0)
(1.84646 -0.645538 0)
(1.18849 -0.804534 0)
(1.05804 -1.03657 0)
(2.58341 0.55139 0)
(2.66937 0.64462 0)
(2.39673 0.610993 0)
(2.23352 0.614962 0)
(2.31848 0.135483 0)
(1.83973 -0.383783 0)
(1.48843 -0.951946 0)
(-0.0754638 -0.0934127 0)
(2.49175 0.664984 0)
(2.82693 0.703435 0)
(2.2101 0.702128 0)
(2.66611 0.720342 0)
(1.97553 0.311378 0)
(2.2274 -0.242583 0)
(0.964681 0.1917 0)
(-1.29064 -0.29855 0)
(2.44633 0.762138 0)
(2.77333 0.735229 0)
(2.22532 0.787062 0)
(2.43943 0.683343 0)
(2.14912 0.506439 0)
(2.08357 -0.0122931 0)
(0.963595 0.562432 0)
(2.1536 -0.0132708 0)
(2.63136 0.886442 0)
(2.59878 0.838286 0)
(2.35627 0.864082 0)
(2.19174 0.76171 0)
(2.19574 0.548187 0)
(1.89296 0.299937 0)
(1.37846 0.362514 0)
(1.55819 -0.146446 0)
(2.75127 1.03336 0)
(2.44489 0.884633 0)
(2.4314 0.94241 0)
(2.08858 0.839013 0)
(2.18767 0.66951 0)
(1.75244 0.409678 0)
(1.60516 0.490197 0)
(1.3968 0.250293 0)
(2.73778 1.16661 0)
(2.26178 0.977728 0)
(2.39075 1.0131 0)
(2.0448 0.87749 0)
(2.13859 0.765303 0)
(1.78856 0.516484 0)
(1.65651 0.578911 0)
(1.48033 0.275064 0)
(2.53213 1.1862 0)
(2.08408 1.03635 0)
(2.23394 1.10995 0)
(1.91736 0.958272 0)
(2.00091 0.832726 0)
(1.74585 0.64433 0)
(1.62313 0.643436 0)
(1.47434 0.419618 0)
(2.17854 1.23227 0)
(1.79256 1.02851 0)
(2.06605 1.12184 0)
(1.81845 0.994081 0)
(1.7972 0.887486 0)
(1.65598 0.716384 0)
(1.55062 0.690587 0)
(1.45567 0.5262 0)
(1.77684 1.20866 0)
(1.41574 1.06489 0)
(1.71586 1.15888 0)
(1.62732 1.00895 0)
(1.65432 0.918707 0)
(1.55634 0.762383 0)
(1.45316 0.719085 0)
(1.39611 0.553914 0)
(1.32122 1.13087 0)
(1.11151 0.989715 0)
(1.3562 1.15367 0)
(1.27455 1.00493 0)
(1.35979 0.948889 0)
(1.34341 0.795595 0)
(1.32579 0.758589 0)
(1.32087 0.6348 0)
(0.769935 1.11046 0)
(0.550159 0.940135 0)
(1.04305 1.10655 0)
(0.963672 0.920868 0)
(1.10454 0.957367 0)
(1.10332 0.770741 0)
(1.14234 0.748623 0)
(1.21124 0.615876 0)
(0.315399 1.01202 0)
(0.116838 0.824175 0)
(0.555913 1.07894 0)
(0.580214 0.888017 0)
(0.831721 0.924037 0)
(0.832324 0.715229 0)
(0.953327 0.728892 0)
(1.06431 0.598861 0)
(-0.277741 0.969472 0)
(-0.389606 0.729382 0)
(0.23675 0.922548 0)
(0.144349 0.722631 0)
(0.515554 0.924339 0)
(0.5376 0.64401 0)
(0.80068 0.674421 0)
(0.902338 0.542238 0)
(-0.665518 0.800007 0)
(-0.842182 0.56434 0)
(-0.23646 0.873914 0)
(-0.314935 0.653673 0)
(0.263645 0.790413 0)
(0.251747 0.508068 0)
(0.587378 0.61651 0)
(0.696889 0.465824 0)
(-0.99138 0.622443 0)
(-1.47494 0.501758 0)
(-0.39384 0.679912 0)
(-0.608885 0.464382 0)
(-0.140011 0.688881 0)
(-0.0796634 0.392372 0)
(0.370082 0.516017 0)
(0.499815 0.343314 0)
(-1.4765 0.462746 0)
(-1.79205 0.289431 0)
(-0.640897 0.481373 0)
(-1.23424 0.495082 0)
(-0.179076 0.541626 0)
(-0.347607 0.238778 0)
(0.178753 0.389956 0)
(0.26728 0.217741 0)
(-1.90935 0.314017 0)
(-1.94693 0.172631 0)
(-1.16493 0.333767 0)
(-1.44554 0.262941 0)
(-0.205085 0.262628 0)
(-0.723127 0.1869 0)
(0.138095 0.221366 0)
(0.0278533 0.128188 0)
(-2.22694 0.114119 0)
(-2.02596 0.0509225 0)
(-1.52084 0.128749 0)
(-1.36034 0.0805009 0)
(-0.651365 0.109234 0)
(-0.718094 0.0557856 0)
(-0.141621 0.0428703 0)
(-0.140638 0.0653859 0)
(-0.701634 0.346088 0)
(0.657481 0.437799 0)
(0.949459 0.705825 0)
(0.873694 0.59394 3.84623e-18)
(0.994254 0.600449 3.92973e-19)
(0.938048 0.400033 0)
(1.27341 0.356077 3.08535e-18)
(1.11779 0.241412 1.74394e-19)
(1.34963 0.247386 2.25221e-18)
(1.23317 0.19397 2.15005e-18)
(1.55378 0.217371 0)
(1.42572 0.177829 1.8067e-18)
(1.68921 0.218473 -7.54871e-20)
(1.41693 0.174625 1.45882e-18)