/*--------------------------------*- C++ -*----------------------------------*\
| =========                 |                                                 |
| \\      /  F ield         | OpenFOAM: The Open Source CFD Toolbox           |
|  \\    /   O peration     | Version:  2.4.0                                 |
|   \\  /    A nd           | Web:      www.OpenFOAM.org                      |
|    \\/     M anipulation  |                                                 |
\*---------------------------------------------------------------------------*/
FoamFile
{
    version     2.0;
    format      ascii;
    class       volScalarField;
    location    "1.96";
    object      p;
}
// * * * * * * * * * * * * * * * * * * * * * * * * * * * * * * * * * * * * * //

dimensions      [0 2 -2 0 0 0 0];

internalField   nonuniform List<scalar> 
2320
(
1.33301
1.34069
1.33896
1.33288
1.3382
1.33915
1.34042
1.33889
1.34297
1.34291
1.33451
1.33661
1.32981
1.33755
1.33061
1.33137
1.33149
1.32509
1.32892
1.32261
1.33705
1.33994
1.33537
1.33418
1.33718
1.33701
1.33784
1.33614
1.34126
1.33898
1.3304
1.33643
1.32518
1.33356
1.33062
1.33231
1.33929
1.33221
1.3282
1.3179
1.33311
1.33573
1.33578
1.33695
1.33815
1.33577
1.3353
1.33374
1.33562
1.32987
1.3267
1.33432
1.33009
1.33982
1.32995
1.33154
1.33058
1.31854
1.31845
1.31593
1.33273
1.33727
1.33602
1.336
1.33627
1.33442
1.33503
1.33299
1.33144
1.33199
1.33189
1.34049
1.33318
1.33641
1.32997
1.3302
1.32909
1.32279
1.32721
1.32742
1.333
1.3379
1.33737
1.3361
1.33574
1.33612
1.33488
1.33301
1.33135
1.33475
1.33415
1.33943
1.33099
1.33671
1.32971
1.33032
1.32997
1.32493
1.32862
1.32337
1.333
1.33901
1.338
1.33618
1.33639
1.33707
1.33427
1.33521
1.33353
1.33872
1.33581
1.33955
1.33339
1.33761
1.33207
1.33212
1.33096
1.32752
1.32849
1.32341
1.33363
1.33895
1.3378
1.33678
1.33624
1.33774
1.33535
1.33749
1.33585
1.34023
1.33461
1.33958
1.33266
1.33834
1.333
1.33311
1.33207
1.32771
1.32765
1.32357
1.33414
1.33902
1.3379
1.33712
1.33634
1.33819
1.33573
1.33895
1.33629
1.33934
1.33464
1.33937
1.33441
1.33826
1.33396
1.33429
1.33236
1.32867
1.32785
1.32372
1.33443
1.33828
1.33776
1.3376
1.33621
1.33854
1.33601
1.33947
1.33617
1.33954
1.33475
1.33991
1.33435
1.33882
1.33357
1.33495
1.33285
1.33004
1.32836
1.32492
1.33522
1.33829
1.33759
1.3378
1.33615
1.33872
1.33612
1.33939
1.33626
1.3394
1.33535
1.33948
1.33567
1.33849
1.33483
1.3357
1.33358
1.33179
1.32949
1.32598
1.33541
1.33726
1.33735
1.33779
1.3361
1.3388
1.33606
1.33917
1.33549
1.33938
1.33539
1.3398
1.33544
1.33882
1.33408
1.33624
1.33371
1.33315
1.32979
1.32689
1.33711
1.33659
1.33697
1.33781
1.33592
1.33857
1.336
1.33858
1.33599
1.33853
1.33647
1.3393
1.33722
1.33829
1.33649
1.3371
1.33552
1.3353
1.33224
1.32881
1.33705
1.33583
1.33697
1.33751
1.33628
1.33825
1.33571
1.33806
1.33505
1.33796
1.33617
1.33928
1.33611
1.3379
1.33406
1.33715
1.33509
1.3357
1.33292
1.32735
1.33928
1.33503
1.33634
1.3379
1.33665
1.33763
1.33571
1.33698
1.33612
1.3372
1.33739
1.33813
1.33947
1.33717
1.34026
1.3396
1.33886
1.33932
1.33723
1.33275
1.33904
1.33434
1.33649
1.33721
1.33728
1.33698
1.33547
1.33627
1.33508
1.33632
1.33653
1.33741
1.33668
1.3357
1.33497
1.33786
1.33777
1.33809
1.33864
1.32685
1.33986
1.33307
1.33625
1.33875
1.33743
1.33652
1.33632
1.33571
1.33816
1.33702
1.33892
1.33556
1.34222
1.3333
1.34499
1.34117
1.34469
1.34408
1.34485
1.34319
1.33997
1.33211
1.33395
1.33624
1.33684
1.33454
1.33659
1.33395
1.33614
1.33513
1.33869
1.33466
1.3395
1.33256
1.34021
1.34061
1.34215
1.34444
1.3449
1.33898
1.3394
1.33245
1.34007
1.3394
1.33703
1.3343
1.33726
1.33671
1.34172
1.33839
1.3402
1.33175
1.34435
1.33828
1.35054
1.34671
1.34871
1.35449
1.35105
1.36747
1.33779
1.32198
1.33035
1.33431
1.33471
1.3283
1.33399
1.32951
1.33209
1.33082
1.34021
1.3245
1.32567
1.31999
1.34008
1.33511
1.34251
1.34724
1.33754
1.3865
1.34642
1.32623
1.33598
1.33556
1.33317
1.33608
1.34589
1.33681
1.34057
1.33328
1.33825
1.33248
1.34201
1.34544
1.35574
1.34247
1.34947
1.37349
1.33028
1.50025
1.31492
1.31967
1.29117
1.30065
1.30037
1.28408
1.31827
1.28858
1.3027
1.3101
1.29373
1.30305
1.30807
1.28853
1.29782
1.25351
1.31332
1.32044
1.29945
1.29919
1.29726
1.2784
1.28983
1.26841
1.31628
1.31718
1.30191
1.30215
1.29931
1.28743
1.28809
1.27468
1.31396
1.3171
1.30429
1.30575
1.30481
1.28574
1.28719
1.27596
1.31732
1.31839
1.3086
1.30755
1.30202
1.29057
1.28884
1.276
1.31742
1.31821
1.30918
1.30764
1.30662
1.29242
1.28942
1.27603
1.3192
1.31836
1.31116
1.31028
1.30714
1.2967
1.29125
1.27506
1.31968
1.31852
1.31144
1.31068
1.30909
1.29989
1.29202
1.27526
1.32082
1.31916
1.31255
1.3152
1.31222
1.30504
1.29412
1.27495
1.32035
1.31906
1.31106
1.3163
1.31295
1.3116
1.29447
1.27525
1.32276
1.31899
1.31047
1.32262
1.31712
1.32233
1.29484
1.27601
1.32189
1.31569
1.30636
1.32058
1.32119
1.3317
1.29127
1.2787
1.32956
1.3119
1.30251
1.32621
1.327
1.3425
1.28979
1.28266
1.32754
1.30328
1.29519
1.3204
1.33202
1.34831
1.28892
1.28582
1.34669
1.28584
1.28427
1.31925
1.33262
1.35551
1.29148
1.28538
1.34464
1.27094
1.28403
1.30601
1.32713
1.34383
1.29291
1.27681
1.35136
1.2136
1.2445
1.30175
1.31689
1.34083
1.29615
1.26785
1.28461
1.16409
1.21201
1.27762
1.31148
1.35591
1.3133
1.26123
1.28327
1.05769
1.06629
1.2748
1.35926
1.39382
1.33499
1.22486
1.24935
1.26489
1.19182
1.23174
1.25076
1.22119
1.19514
1.1882
1.17882
1.13986
1.13313
1.08356
1.05103
0.978342
0.918781
0.822367
0.710668
0.602571
0.459837
0.300041
0.156426
0.00780876
-0.128209
-0.2114
-0.259717
-0.273749
-0.223038
-0.150237
1.23164
1.26348
1.21362
1.23282
1.22569
1.20817
1.194
1.19239
1.1672
1.13155
1.10632
1.06946
1.0517
0.968639
0.911472
0.809241
0.704422
0.598591
0.451715
0.281488
0.13531
-0.0223655
-0.137966
-0.225538
-0.269701
-0.288509
-0.235641
-0.186783
1.25753
1.28133
1.22644
1.2252
1.22982
1.21707
1.20318
1.18713
1.16902
1.13996
1.13485
1.08116
1.05027
0.985613
0.913683
0.827982
0.709498
0.598922
0.449377
0.286747
0.121821
-0.0126231
-0.162326
-0.24082
-0.296027
-0.307733
-0.256567
-0.205086
1.25784
1.26262
1.23069
1.22987
1.22328
1.20682
1.20575
1.18296
1.17232
1.14464
1.13154
1.08179
1.05077
0.991836
0.918343
0.834337
0.708056
0.590762
0.443752
0.271189
0.113737
-0.0624032
-0.188307
-0.287117
-0.333338
-0.340394
-0.295607
-0.235906
1.25527
1.26599
1.23743
1.2334
1.23983
1.21659
1.21259
1.19045
1.18385
1.15171
1.13931
1.09605
1.05726
1.01105
0.924366
0.852531
0.718129
0.597495
0.432192
0.265742
0.0860236
-0.0702963
-0.226625
-0.321909
-0.380217
-0.393993
-0.343274
-0.277912
1.26141
1.25767
1.24108
1.23362
1.22994
1.21322
1.21755
1.19606
1.19149
1.15852
1.14645
1.10625
1.06665
1.01766
0.935498
0.856403
0.730503
0.588292
0.419059
0.243167
0.0530807
-0.112881
-0.273992
-0.385013
-0.442406
-0.457028
-0.400711
-0.309893
1.25784
1.25793
1.24463
1.23445
1.23777
1.21835
1.21748
1.20283
1.19705
1.17062
1.15481
1.11997
1.07877
1.03435
0.952546
0.870314
0.743299
0.587346
0.40644
0.220616
0.0104842
-0.163868
-0.335198
-0.456437
-0.517806
-0.533105
-0.468188
-0.372772
1.26287
1.25486
1.24512
1.23479
1.23613
1.22123
1.22375
1.20808
1.20582
1.18112
1.16415
1.13282
1.09467
1.04825
0.973662
0.87771
0.758743
0.588078
0.391771
0.19174
-0.0371041
-0.229719
-0.410645
-0.546845
-0.612381
-0.619376
-0.559225
-0.440012
1.25999
1.25205
1.24324
1.23423
1.23675
1.22597
1.22481
1.21685
1.20951
1.19379
1.17288
1.15006
1.1108
1.06714
0.995808
0.892454
0.77302
0.589239
0.37568
0.155435
-0.0943855
-0.305976
-0.502365
-0.654658
-0.720686
-0.727434
-0.664476
-0.525896
1.2621
1.25001
1.24261
1.23475
1.23854
1.22974
1.23166
1.22271
1.21798
1.20278
1.18514
1.1646
1.13144
1.08779
1.01933
0.912519
0.786819
0.593456
0.356758
0.109207
-0.158001
-0.398107
-0.61247
-0.776952
-0.851129
-0.852911
-0.783577
-0.626898
1.25987
1.24618
1.23923
1.23392
1.23831
1.23397
1.2341
1.23074
1.2249
1.21354
1.19778
1.18189
1.15442
1.11259
1.04626
0.938379
0.80334
0.596237
0.335552
0.0569575
-0.231306
-0.501431
-0.729845
-0.902678
-0.98309
-0.986081
-0.911627
-0.732756
1.25784
1.24096
1.23552
1.23406
1.2393
1.23763
1.23958
1.23917
1.23412
1.22433
1.21159
1.19909
1.17895
1.13865
1.07563
0.968854
0.822741
0.600734
0.313256
0.00128764
-0.305177
-0.60067
-0.840452
-1.02006
-1.10817
-1.109
-1.02624
-0.835176
1.25191
1.23334
1.23065
1.23258
1.23928
1.24101
1.24411
1.24687
1.24298
1.23538
1.22586
1.2202
1.2028
1.16876
1.10814
1.00491
0.848594
0.607776
0.295328
-0.0446345
-0.36394
-0.673315
-0.919065
-1.09922
-1.191
-1.19919
-1.10805
-0.908191
1.24126
1.22359
1.22469
1.23127
1.2395
1.24233
1.25033
1.25447
1.25295
1.24525
1.24033
1.23921
1.22898
1.19953
1.1442
1.04653
0.879645
0.624083
0.295383
-0.0636141
-0.396629
-0.714382
-0.965835
-1.14954
-1.24145
-1.25724
-1.15746
-0.954267
1.22291
1.21243
1.22299
1.22925
1.2387
1.24609
1.25525
1.26268
1.26213
1.25681
1.25643
1.26012
1.25676
1.23183
1.18665
1.09519
0.921784
0.653211
0.313638
-0.0543859
-0.399875
-0.727389
-0.977713
-1.16726
-1.26663
-1.28302
-1.17813
-0.977557
1.19313
1.19892
1.21172
1.22377
1.23647
1.24761
1.26015
1.27114
1.27081
1.26605
1.2695
1.28121
1.28481
1.26659
1.23375
1.15181
0.977273
0.698182
0.348868
-0.0245684
-0.37471
-0.717053
-0.971197
-1.15353
-1.2575
-1.27747
-1.16465
-0.97111
1.1518
1.18981
1.20538
1.21777
1.2351
1.24975
1.26433
1.27899
1.28057
1.27809
1.28495
1.30566
1.3116
1.30146
1.28322
1.21351
1.04171
0.756595
0.396357
0.0178708
-0.338477
-0.677425
-0.944184
-1.13013
-1.23173
-1.24714
-1.13753
-0.943631
1.08877
1.18187
1.1965
1.20989
1.23105
1.25095
1.26772
1.28409
1.29017
1.29204
1.30046
1.32561
1.33236
1.32548
1.31565
1.25752
1.0961
0.808276
0.447204
0.0687343
-0.297382
-0.636891
-0.902036
-1.09524
-1.20122
-1.20716
-1.09932
-0.906215
1.0592
1.1804
1.18779
1.20579
1.233
1.25384
1.26914
1.28759
1.30012
1.30692
1.31885
1.35456
1.36501
1.35675
1.34664
1.28316
1.13
0.846778
0.487184
0.109769
-0.258099
-0.598083
-0.867846
-1.06242
-1.1668
-1.16752
-1.06026
-0.863526
0.967429
1.17899
1.18203
1.20353
1.23295
1.25443
1.26982
1.28873
1.3079
1.31825
1.3306
1.36229
1.37088
1.36039
1.34503
1.28313
1.13355
0.865583
0.513636
0.13578
-0.234841
-0.572446
-0.844914
-1.04301
-1.14373
-1.14262
-1.03525
-0.8355
-0.041277
-0.0630361
0.0365399
0.0969371
0.0387046
0.344437
0.725895
1.22391
-0.0635369
0.0195459
0.232634
0.657446
0.993409
-0.155824
0.387751
1.21879
-0.0619669
0.0318562
0.158816
0.325005
0.38409
0.582805
0.767031
1.20518
-0.10054
0.0204231
0.219022
0.461155
0.721546
0.760007
0.853075
1.31205
-0.120366
0.0391391
0.218152
0.407936
0.530118
0.679575
0.954775
1.26359
-0.152938
0.0190485
0.206307
0.413798
0.615588
0.839363
0.996001
1.22681
-0.19896
-0.0148298
0.189055
0.40791
0.589874
0.769176
0.955206
1.14397
-0.263269
-0.0582991
0.162952
0.387833
0.584657
0.790994
0.969654
1.12298
-0.335699
-0.109553
0.126984
0.367232
0.581894
0.787977
0.953024
1.07813
-0.417943
-0.173127
0.086281
0.341005
0.572007
0.778567
0.940329
1.05457
-0.506224
-0.241026
0.0380345
0.315787
0.562652
0.770248
0.935751
1.04547
-0.593473
-0.308231
-0.0173877
0.286996
0.553173
0.770839
0.935662
1.04477
-0.654728
-0.362638
-0.0601579
0.266775
0.543043
0.777817
0.946745
1.05701
-0.684578
-0.399271
-0.0862637
0.274525
0.547033
0.788844
0.95858
1.08501
-0.683477
-0.414964
-0.0930992
0.288657
0.569283
0.825835
0.97288
1.12183
-0.674138
-0.410051
-0.0554292
0.311471
0.591894
0.859009
1.00892
1.17799
-0.646739
-0.387912
-0.0150263
0.343438
0.656261
0.888902
1.03502
1.22024
-0.615895
-0.353753
0.038924
0.370945
0.6964
0.915779
1.11208
1.2589
-0.589075
-0.319289
0.0881257
0.394927
0.740208
0.929437
1.13447
1.27252
-0.574871
-0.294397
0.114374
0.406645
0.757705
0.943983
1.18398
1.28345
2.03293
1.61077
1.27597
1.13992
0.940302
0.704886
0.691536
0.734873
0.755365
0.746216
0.707506
0.660289
0.59022
0.525691
0.431893
0.351057
0.229464
0.138452
-0.0505507
-0.176962
1.76874
1.36791
1.14084
1.06569
0.91617
0.765017
0.75939
0.781101
0.779589
0.75716
0.70996
0.659608
0.589062
0.524084
0.432091
0.348252
0.233262
0.134551
0.00767394
-0.0947987
1.51912
1.31389
1.17828
1.08042
0.940745
0.794534
0.77009
0.783405
0.773487
0.74984
0.707183
0.658027
0.587216
0.522791
0.431801
0.347552
0.236705
0.138135
0.0306833
-0.0756279
1.48825
1.24986
1.11085
1.02532
0.916516
0.815494
0.802978
0.810737
0.796959
0.76793
0.71489
0.659942
0.589266
0.520897
0.43337
0.344034
0.242321
0.141963
0.0484308
-0.0425339
1.43957
1.19416
1.09185
1.03009
0.953811
0.867261
0.82909
0.82223
0.796584
0.75678
0.710308
0.655624
0.585632
0.519454
0.434516
0.343275
0.247458
0.147641
0.0642052
-0.0223511
1.33544
1.15483
1.08174
1.02593
0.959891
0.886902
0.855162
0.840015
0.81323
0.776489
0.720391
0.661725
0.591712
0.518702
0.43648
0.34408
0.251799
0.154439
0.0750525
-0.00562524
1.25866
1.11895
1.05543
1.01907
0.969865
0.910183
0.867488
0.847893
0.813676
0.764761
0.714507
0.652868
0.587343
0.516639
0.437624
0.344548
0.255768
0.160832
0.0839655
0.00646534
1.20451
1.11432
1.07391
1.04162
0.998978
0.941423
0.895109
0.862103
0.825861
0.782078
0.724221
0.663574
0.595227
0.518168
0.439302
0.346751
0.259571
0.167568
0.0919674
0.0156693
1.15232
1.09675
1.05987
1.03678
1.00337
0.954821
0.902839
0.868305
0.82768
0.773034
0.719069
0.652288
0.588744
0.51623
0.439379
0.348523
0.26234
0.17372
0.0979973
0.0222275
1.12011
1.10391
1.08726
1.06814
1.03401
0.980153
0.924903
0.879801
0.836547
0.786337
0.726737
0.664297
0.598729
0.518618
0.441055
0.351347
0.266249
0.179737
0.10394
0.0273915
1.11013
1.11119
1.09404
1.07001
1.03948
0.991938
0.933184
0.885256
0.838503
0.779564
0.722696
0.65391
0.58924
0.516524
0.440551
0.353749
0.268698
0.184525
0.108226
0.0311107
1.10924
1.12757
1.12235
1.10286
1.06896
1.0145
0.950856
0.895039
0.84524
0.788613
0.728291
0.66433
0.596273
0.519052
0.442191
0.356879
0.272726
0.189553
0.112537
0.0341006
1.11895
1.14626
1.14394
1.11604
1.076
1.02176
0.958122
0.899851
0.84669
0.784467
0.724891
0.656843
0.591283
0.517398
0.441949
0.359208
0.275281
0.193145
0.115576
0.0362869
1.1493
1.17996
1.17562
1.14254
1.09901
1.04092
0.971031
0.906933
0.849996
0.788593
0.728196
0.661662
0.594026
0.519141
0.443379
0.362193
0.279249
0.197147
0.118577
0.0380563
1.17652
1.21355
1.20429
1.16109
1.10923
1.04635
0.977389
0.910984
0.850832
0.786701
0.725751
0.65953
0.591459
0.518138
0.44382
0.363928
0.281301
0.199784
0.120629
0.0392961
1.21528
1.26117
1.23806
1.18671
1.13033
1.06392
0.987733
0.91671
0.853032
0.787853
0.726533
0.662075
0.59295
0.518896
0.445076
0.36689
0.284711
0.20381
0.12299
0.0403269
1.25267
1.3025
1.25799
1.2007
1.13979
1.06787
0.991014
0.918592
0.853487
0.787691
0.725949
0.661131
0.591637
0.518504
0.445878
0.368324
0.286618
0.205616
0.12425
0.041001
1.28548
1.34477
1.27539
1.21469
1.14944
1.07174
0.992671
0.919301
0.851995
0.785273
0.723848
0.660407
0.591282
0.518735
0.446935
0.370573
0.289479
0.208428
0.126055
0.0415601
1.32604
1.36642
1.28512
1.22603
1.15735
1.07555
0.995239
0.920748
0.852762
0.786183
0.724333
0.660373
0.590995
0.518775
0.447596
0.371551
0.290634
0.209641
0.126608
0.0418262
1.34172
1.37939
1.28377
1.22445
1.1509
1.06665
0.989114
0.91583
0.847188
0.780873
0.719847
0.657004
0.58881
0.518478
0.448431
0.373722
0.293583
0.212257
0.127903
0.0419085
-0.0345277
-0.0402052
-0.0572382
-0.0589542
-0.0595223
0.00624137
-0.0172663
-0.00493184
-0.042839
-0.0789119
-0.0775945
-0.0752284
-0.0796406
0.0389221
-0.0157255
0.0065129
-0.0548406
-0.0371858
-0.0432816
-0.0740581
-0.0687477
0.040741
-0.00783002
0.0206434
-0.0688442
-0.0748354
-0.0583564
-0.0632145
-0.0718184
0.0575828
-0.00389336
0.00154448
-0.0618018
-0.0795759
-0.0661457
-0.0637658
-0.0633092
0.0319602
-0.0145236
-0.0140473
-0.0648652
-0.0833126
-0.0828259
-0.0723015
-0.0797965
-0.00281164
-0.0168781
-0.0236075
-0.0838707
-0.0984281
-0.0993818
-0.0916717
-0.0930235
-0.0226986
-0.0550537
-0.0528779
-0.0669754
-0.100383
-0.11264
-0.118052
-0.147951
-0.103773
-0.0967655
-0.0726363
-0.0704308
-0.111022
-0.152755
-0.154988
-0.169243
-0.135306
-0.142293
-0.110189
-0.107371
-0.138235
-0.176347
-0.191129
-0.231893
-0.23559
-0.196756
-0.147101
-0.178271
-0.186404
-0.195735
-0.194319
-0.219635
-0.25829
-0.246201
-0.205294
-0.212685
-0.213671
-0.207426
-0.204894
-0.238404
-0.319716
-0.358736
-0.287019
-0.226861
-0.206475
-0.216441
-0.224098
-0.251511
-0.334527
-0.441748
-0.338887
-0.188028
-0.20189
-0.208468
-0.243381
-0.228444
-0.324565
-0.423375
-0.340915
-0.131158
-0.173072
-0.230498
-0.244756
-0.220201
-0.250736
-0.297648
-0.255865
-0.103648
-0.15892
-0.204572
-0.216365
-0.148277
-0.173617
-0.14513
-0.16566
-0.124058
-0.16186
-0.203569
-0.175119
-0.124376
-0.10208
-0.0315991
-0.0898737
-0.196464
-0.21019
-0.196969
-0.170383
-0.0677584
-0.0743877
0.0392669
-0.0491906
-0.233758
-0.269005
-0.184426
-0.151968
-0.0631531
-0.031895
0.0581334
-0.0330355
-0.242924
-0.238272
-0.21208
-0.178683
-0.059225
-0.0785412
0.0311786
-0.0389491
-0.23007
-0.200763
-0.195352
-0.172541
-0.0782021
-0.0204004
-0.0205724
-0.0666054
-0.244301
-0.201386
-0.230575
-0.199348
-0.140086
-0.167434
-0.0988744
-0.101127
-0.260654
-0.270318
-0.235044
-0.214245
-0.143574
-0.112335
-0.155679
-0.153498
-0.26125
-0.252834
-0.248248
-0.237774
-0.242408
-0.331755
-0.246585
-0.241171
-0.248893
-0.253301
-0.251842
-0.269066
-0.264196
-0.390217
-0.34366
-0.342284
-0.225237
-0.220498
-0.259913
-0.268627
-0.306466
-0.50276
-0.441241
-0.417638
-0.209919
-0.203467
-0.248522
-0.287578
-0.31781
-0.540139
-0.468567
-0.40888
-0.203998
-0.196142
-0.242188
-0.267221
-0.302316
-0.472796
-0.456579
-0.374408
-0.209323
-0.213302
-0.236836
-0.291137
-0.332725
-0.483704
-0.394317
-0.335756
-0.198249
-0.220662
-0.230677
-0.239053
-0.270642
-0.302337
-0.383102
-0.293591
-0.145233
-0.239039
-0.224248
-0.273462
-0.292273
-0.425681
-0.381622
-0.236308
-0.272952
-0.248299
-0.181494
-0.193367
-0.214034
-0.244729
-0.361772
-0.165944
-0.0767091
-0.233894
-0.157056
-0.239311
-0.261357
-0.341672
-0.321661
-0.0702027
-0.133392
-0.175836
-0.137451
-0.13342
-0.149824
-0.118061
-0.203349
0.0844522
-0.0518286
-0.15074
-0.100273
-0.155911
-0.158088
-0.18955
-0.032616
0.298867
-0.0130371
-0.121769
-0.1055
-0.113227
-0.0582637
0.0207441
0.126504
0.530416
-0.0536717
-0.074395
-0.0846645
-0.0415685
-0.0705728
0.014329
0.144149
0.743577
0.0266672
-0.0568019
-0.0676448
-0.204519
-0.0768857
0.3059
0.38348
0.794147
-0.0625019
-0.0601665
0.0298731
0.0385124
-0.0812156
0.0866843
0.798804
1.12491
0.000375346
-0.0729933
-0.017504
-0.291213
0.208763
0.0101479
0.529207
1.04021
1.28641
0.941171
1.00344
1.3502
1.37111
1.45615
1.41291
1.34719
1.23187
0.773598
0.965739
1.32092
1.35876
1.48248
1.43416
1.4268
1.11141
0.845003
1.09077
1.27998
1.33847
1.47264
1.40941
1.42248
1.21902
1.01052
1.11864
1.25725
1.33169
1.45302
1.41533
1.40501
1.20541
1.08345
1.16736
1.25778
1.31841
1.39436
1.38497
1.40246
1.21669
1.16513
1.24074
1.2406
1.29975
1.37413
1.36387
1.3821
1.24101
1.20684
1.21573
1.25723
1.27979
1.33567
1.33101
1.34555
1.23904
1.22501
1.25435
1.2502
1.27824
1.32308
1.31422
1.32245
1.24249
1.23415
1.24092
1.25588
1.26067
1.30486
1.2805
1.30416
1.2434
1.23251
1.24783
1.24867
1.26152
1.29317
1.27159
1.29411
1.24294
1.23358
1.2429
1.2457
1.25491
1.27974
1.26416
1.29233
1.24384
1.23555
1.24873
1.24086
1.25091
1.25907
1.2579
1.2963
1.24295
1.23701
1.24714
1.24325
1.24559
1.2514
1.24812
1.29832
1.24193
1.23702
1.25187
1.25062
1.25465
1.25552
1.24663
1.29624
1.2378
1.23514
1.23931
1.24212
1.24851
1.26102
1.25027
1.28919
1.23711
1.23386
1.23361
1.24208
1.24656
1.2595
1.25888
1.28312
1.23788
1.23475
1.22454
1.23508
1.23805
1.25618
1.26385
1.27704
1.24008
1.23784
1.22358
1.23557
1.23375
1.25124
1.26331
1.27025
1.24338
1.2419
1.22589
1.23733
1.23093
1.24766
1.25989
1.26414
1.24827
1.24722
1.234
1.24177
1.23516
1.24647
1.25689
1.26004
1.25182
1.25176
1.24222
1.24814
1.24141
1.24842
1.25555
1.25764
1.25515
1.25489
1.24895
1.25199
1.2497
1.25132
1.25601
1.25593
1.25784
1.25754
1.25337
1.25504
1.25492
1.25473
1.26038
1.2571
1.25983
1.25898
1.25634
1.25664
1.25731
1.25609
1.26311
1.26017
1.2617
1.26018
1.25791
1.25855
1.25757
1.25721
1.2617
1.26011
1.26366
1.26092
1.25833
1.25928
1.25842
1.25832
1.25981
1.25851
1.26602
1.26217
1.2582
1.25888
1.25702
1.2584
1.25805
1.25703
1.26893
1.26363
1.25828
1.25711
1.25371
1.25568
1.25913
1.25799
1.27247
1.26564
1.25914
1.25589
1.24928
1.24946
1.25622
1.25709
1.27721
1.26829
1.26061
1.2564
1.2473
1.2458
1.25248
1.25107
1.28249
1.27227
1.263
1.25788
1.24847
1.2463
1.25042
1.24813
1.28884
1.27762
1.26666
1.26073
1.24931
1.24725
1.24402
1.24882
1.29441
1.28391
1.2718
1.26626
1.24989
1.24949
1.22819
1.23903
1.29966
1.29004
1.2774
1.27236
1.25457
1.25367
1.23906
1.23595
1.30345
1.29605
1.28207
1.27762
1.25946
1.25729
1.24745
1.24349
1.30561
1.30074
1.28635
1.28438
1.26675
1.26974
1.23106
1.24958
1.3059
1.30291
1.2917
1.29157
1.27366
1.2849
1.24169
1.28235
1.30431
1.30177
1.29818
1.30003
1.28132
1.29677
1.26262
1.32065
1.30383
1.30113
1.30268
1.30688
1.29053
1.30563
1.28538
1.34851
1.30564
1.30304
1.30372
1.31046
1.29457
1.30959
1.29475
1.36263
)
;

boundaryField
{
    wall
    {
        type            zeroGradient;
    }
    inlet1
    {
        type            zeroGradient;
    }
    inlet2
    {
        type            zeroGradient;
    }
    outlet1
    {
        type            fixedValue;
        value           uniform 0;
    }
    outlet2
    {
        type            outletInlet;
        outletValue     uniform 0;
        value           nonuniform List<scalar> 8(-0.0345277 0 -0.0572382 -0.0589542 0 0 0 0);
    }
    defaultFaces
    {
        type            empty;
    }
}


// ************************************************************************* //
