/*--------------------------------*- C++ -*----------------------------------*\
| =========                 |                                                 |
| \\      /  F ield         | OpenFOAM: The Open Source CFD Toolbox           |
|  \\    /   O peration     | Version:  2.4.0                                 |
|   \\  /    A nd           | Web:      www.OpenFOAM.org                      |
|    \\/     M anipulation  |                                                 |
\*---------------------------------------------------------------------------*/
FoamFile
{
    version     2.0;
    format      ascii;
    class       volVectorField;
    location    "1.07";
    object      UMean;
}
// * * * * * * * * * * * * * * * * * * * * * * * * * * * * * * * * * * * * * //

dimensions      [0 1 -1 0 0 0 0];

internalField   nonuniform List<vector> 
2320
(
(0.855362 0.00230449 0)
(1.04019 -0.00305123 0)
(0.849454 -0.00280187 0)
(1.0489 -0.00715056 0)
(0.850117 -0.0032909 0)
(1.0556 -0.00472306 0)
(0.841481 -0.00560817 0)
(1.06596 -0.0091937 0)
(0.838307 -0.00729012 0)
(1.07454 -0.00824873 0)
(0.831273 -0.00726734 0)
(1.08319 -0.0109448 0)
(0.829335 -0.00946933 0)
(1.09389 -0.0136751 0)
(0.823733 -0.014485 0)
(1.11731 -0.0179442 0)
(0.822757 -0.0197254 0)
(1.15095 -0.0282019 0)
(0.844027 -0.0266216 0)
(1.20343 -0.0389421 0)
(0.94542 0.0045853 0)
(0.954808 -0.00242062 0)
(0.949125 0.00394758 0)
(0.962511 -0.00359083 0)
(0.946111 0.00596093 0)
(0.970578 -0.00333059 0)
(0.943903 0.00813625 0)
(0.981574 -0.00238879 0)
(0.945016 0.0104582 0)
(0.986544 -0.00358078 0)
(0.951965 0.0121897 0)
(0.995346 -0.0058002 0)
(0.956232 0.0157993 0)
(0.999096 -0.00584269 0)
(0.963998 0.0179587 0)
(1.00948 -0.00907035 0)
(0.984534 0.020649 0)
(1.02483 -0.0161326 0)
(1.01772 0.0220428 0)
(1.07334 -0.020119 0)
(0.987318 0.00833244 0)
(0.910909 -0.00746387 0)
(0.992567 0.0056304 0)
(0.9157 -0.0109349 0)
(0.992038 0.00534133 0)
(0.920354 -0.0110551 0)
(0.994677 0.00520886 0)
(0.930146 -0.0149783 0)
(0.998849 0.00562802 0)
(0.936999 -0.0194078 0)
(1.00735 0.00930644 0)
(0.937284 -0.0216766 0)
(1.0182 0.0112066 0)
(0.940139 -0.0285904 0)
(1.02988 0.00925479 0)
(0.941799 -0.0411307 0)
(1.04718 0.00810953 0)
(0.953239 -0.0580157 0)
(1.07336 -0.00585455 0)
(0.99751 -0.0810535 0)
(0.996542 0.0101623 0)
(0.901626 -0.0101801 0)
(1.00044 0.00888401 0)
(0.905665 -0.0130266 0)
(1.00601 0.00930255 0)
(0.909915 -0.0142151 0)
(1.01554 0.0106348 0)
(0.911776 -0.0183734 0)
(1.02403 0.0150464 0)
(0.917077 -0.0225684 0)
(1.03379 0.020963 0)
(0.922264 -0.0287137 0)
(1.0475 0.0256385 0)
(0.935991 -0.0338905 0)
(1.06377 0.0305588 0)
(0.953085 -0.0454949 0)
(1.09119 0.0294723 0)
(0.986499 -0.0635703 0)
(1.13056 0.0163646 0)
(1.03668 -0.088353 0)
(0.980674 0.0155178 0)
(0.917181 -0.0157699 0)
(0.982455 0.0125397 0)
(0.91912 -0.0218257 0)
(0.987619 0.0135327 0)
(0.920918 -0.0230119 0)
(0.989701 0.015737 0)
(0.918206 -0.0275722 0)
(0.99431 0.0183266 0)
(0.919419 -0.0337729 0)
(1.00094 0.0222652 0)
(0.922002 -0.0401735 0)
(1.00754 0.0244351 0)
(0.923848 -0.0504016 0)
(1.01896 0.024366 0)
(0.935468 -0.0690654 0)
(1.03259 0.0213514 0)
(0.957774 -0.0953906 0)
(1.05459 0.00574151 0)
(1.00218 -0.13526 0)
(0.987025 0.015385 0)
(0.914518 -0.0175873 0)
(0.99159 0.0108187 0)
(0.91067 -0.0232312 0)
(0.993875 0.0109326 0)
(0.910771 -0.0244582 0)
(1.00043 0.0148358 0)
(0.917619 -0.0307542 0)
(1.00998 0.0168246 0)
(0.921101 -0.0380206 0)
(1.01926 0.0239314 0)
(0.924487 -0.0439317 0)
(1.03216 0.0275439 0)
(0.930066 -0.0539812 0)
(1.05114 0.0300483 0)
(0.936338 -0.0729863 0)
(1.08152 0.0260474 0)
(0.950836 -0.101165 0)
(1.12192 0.00633333 0)
(0.983234 -0.141021 0)
(0.959504 0.0214275 0)
(0.944862 -0.0217194 0)
(0.965803 0.0222038 0)
(0.942326 -0.026576 0)
(0.966462 0.0217021 0)
(0.939997 -0.0315397 0)
(0.978308 0.0228436 0)
(0.952476 -0.0375054 0)
(0.988375 0.028292 0)
(0.955778 -0.0441842 0)
(0.996485 0.0331491 0)
(0.965967 -0.053561 0)
(1.00898 0.0366629 0)
(0.975846 -0.0670935 0)
(1.02682 0.0374989 0)
(0.988632 -0.091252 0)
(1.05386 0.0330398 0)
(1.00472 -0.123926 0)
(1.09919 0.0103714 0)
(1.02919 -0.175755 0)
(0.947153 0.0155651 0)
(0.959284 -0.0208524 0)
(0.958641 0.0139565 0)
(0.962583 -0.0250113 0)
(0.970654 0.0110405 0)
(0.965611 -0.0314219 0)
(0.982235 0.00947544 0)
(0.965615 -0.0376818 0)
(0.992741 0.0150321 0)
(0.969856 -0.0443096 0)
(1.00639 0.0185357 0)
(0.974995 -0.053196 0)
(1.02138 0.0215634 0)
(0.984401 -0.0675562 0)
(1.03915 0.0234154 0)
(0.995124 -0.0930285 0)
(1.05852 0.0191278 0)
(1.01364 -0.132856 0)
(1.09051 0.00108834 0)
(1.03512 -0.193837 0)
(0.934699 0.0232854 0)
(0.974023 -0.0294932 0)
(0.945311 0.023584 0)
(0.980488 -0.0343619 0)
(0.958467 0.0229821 0)
(0.984777 -0.0398749 0)
(0.970333 0.0245219 0)
(0.98758 -0.0439583 0)
(0.983585 0.0279738 0)
(0.994653 -0.0514843 0)
(0.995813 0.0317533 0)
(1.00178 -0.0579261 0)
(1.00571 0.0317314 0)
(1.01313 -0.0711423 0)
(1.01748 0.0304894 0)
(1.02757 -0.095371 0)
(1.03283 0.0205691 0)
(1.04488 -0.136874 0)
(1.06131 -0.00397267 0)
(1.06657 -0.209064 0)
(0.925967 0.0113087 0)
(0.981262 -0.0204491 0)
(0.933325 0.00633413 0)
(0.983726 -0.0264668 0)
(0.943594 0.00326286 0)
(0.98922 -0.0300693 0)
(0.956063 0.00256987 0)
(0.99904 -0.0343081 0)
(0.972495 0.00312304 0)
(1.00781 -0.0395202 0)
(0.982106 0.0054267 0)
(1.01333 -0.0458618 0)
(0.994905 0.00337571 0)
(1.01682 -0.0587571 0)
(1.00428 0.00210475 0)
(1.02873 -0.0820649 0)
(1.01148 -0.00351793 0)
(1.04169 -0.126149 0)
(1.01129 -0.0172376 0)
(1.06138 -0.209431 0)
(0.928165 0.0232313 0)
(0.984648 -0.0328186 0)
(0.928072 0.0195556 0)
(0.985651 -0.0401868 0)
(0.933376 0.0170534 0)
(0.989278 -0.0464677 0)
(0.949434 0.0152225 0)
(0.999153 -0.05059 0)
(0.964843 0.0181706 0)
(1.00271 -0.05371 0)
(0.969966 0.0221576 0)
(1.00576 -0.0593381 0)
(0.971197 0.0225264 0)
(1.00571 -0.0697543 0)
(0.976899 0.0139188 0)
(1.01035 -0.0899872 0)
(0.984276 0.000170522 0)
(1.00722 -0.126498 0)
(1.00103 -0.0337084 0)
(0.99495 -0.196166 0)
(0.945417 0.00329982 0)
(0.966331 -0.010339 0)
(0.94238 -0.00186822 0)
(0.977219 -0.0184087 0)
(0.940124 -0.00677467 0)
(0.993386 -0.0257421 0)
(0.948561 -0.0123217 0)
(1.00703 -0.0259457 0)
(0.952561 -0.0117867 0)
(1.01724 -0.0253181 0)
(0.952715 -0.0123326 0)
(1.02797 -0.027584 0)
(0.943296 -0.0158462 0)
(1.04284 -0.037644 0)
(0.933628 -0.0243506 0)
(1.05818 -0.0534926 0)
(0.912131 -0.0316896 0)
(1.06963 -0.0953314 0)
(0.883254 -0.0410466 0)
(1.06912 -0.197329 0)
(0.980261 0.020607 0)
(0.928636 -0.0292358 0)
(0.986545 0.0119699 0)
(0.930895 -0.040488 0)
(0.989268 0.00733073 0)
(0.945283 -0.0490739 0)
(0.994928 0.00417887 0)
(0.958917 -0.0506557 0)
(0.999929 0.00802839 0)
(0.970928 -0.0501276 0)
(1.0024 0.0118021 0)
(0.978316 -0.0517936 0)
(0.995448 0.00857119 0)
(0.987384 -0.0626427 0)
(0.982344 -0.00413505 0)
(1.00623 -0.0753222 0)
(0.953894 -0.0196289 0)
(1.0296 -0.108878 0)
(0.876825 -0.0459757 0)
(1.05536 -0.213861 0)
(0.977342 -0.00275449 0)
(0.929107 -0.00416686 0)
(0.981231 -0.0124246 0)
(0.925423 -0.0122819 0)
(0.9844 -0.0225386 0)
(0.936906 -0.0192198 0)
(0.995462 -0.0301659 0)
(0.951209 -0.0155322 0)
(1.00772 -0.0317523 0)
(0.95944 -0.0103185 0)
(1.01183 -0.0329947 0)
(0.955604 -0.00429995 0)
(1.00729 -0.0397035 0)
(0.953124 -0.00482509 0)
(1.00732 -0.058467 0)
(0.964544 -0.00238653 0)
(1.00001 -0.0808815 0)
(0.974391 -0.00559132 0)
(0.952711 -0.103836 0)
(0.975001 -0.0463744 0)
(0.994619 0.0210114 0)
(0.913834 -0.0292658 0)
(0.999915 0.0136736 0)
(0.910782 -0.0412326 0)
(1.00527 0.00297163 0)
(0.926187 -0.0550638 0)
(1.01999 -0.00179984 0)
(0.946299 -0.0571712 0)
(1.03452 0.00336562 0)
(0.953375 -0.052233 0)
(1.03821 0.0126925 0)
(0.946443 -0.0533477 0)
(1.04024 0.00838212 0)
(0.944049 -0.0688579 0)
(1.04247 -0.0106852 0)
(0.959056 -0.0750909 0)
(1.03084 -0.0299043 0)
(0.983717 -0.0793538 0)
(0.983699 -0.0593305 0)
(1.01521 -0.133092 0)
(0.981296 -0.008216 0)
(0.926394 0.00189059 0)
(0.986487 -0.0192949 0)
(0.922044 -0.00786599 0)
(0.996378 -0.0387019 0)
(0.934584 -0.0192 0)
(1.01577 -0.0493363 0)
(0.953499 -0.0122185 0)
(1.02335 -0.0479327 0)
(0.958428 0.00375405 0)
(1.02276 -0.041468 0)
(0.944804 0.0127031 0)
(1.02749 -0.0514626 0)
(0.911399 0.0146667 0)
(1.03951 -0.0845112 0)
(0.890839 0.0330081 0)
(1.04879 -0.13177 0)
(0.879663 0.0679671 0)
(1.02784 -0.176527 0)
(0.884133 0.144422 0)
(0.967553 0.0212574 0)
(0.943903 -0.0314864 0)
(0.96941 0.0152603 0)
(0.942584 -0.0489109 0)
(0.97926 -0.0023218 0)
(0.951706 -0.067585 0)
(0.991912 -0.00879223 0)
(0.954461 -0.0645699 0)
(0.998176 0.00064702 0)
(0.956075 -0.0551825 0)
(1.00596 0.0169382 0)
(0.943389 -0.0614677 0)
(1.00996 0.0272049 0)
(0.9082 -0.0858612 0)
(1.03497 0.0127997 0)
(0.879697 -0.094628 0)
(1.05212 -0.00699117 0)
(0.813708 -0.0793779 0)
(1.0535 -0.083766 0)
(0.791044 -0.0582717 0)
(0.953354 -0.0145831 0)
(0.957515 0.0098255 0)
(0.95183 -0.0254006 0)
(0.959141 -0.00545032 0)
(0.954545 -0.0479447 0)
(0.955254 -0.017569 0)
(0.937238 -0.0540116 0)
(0.945218 -0.00780673 0)
(0.934389 -0.054349 0)
(0.940528 0.014876 0)
(0.937268 -0.0412296 0)
(0.937229 0.0235966 0)
(0.931642 -0.0372105 0)
(0.949846 0.00962325 0)
(0.932017 -0.0738031 0)
(0.947777 0.0263842 0)
(0.939286 -0.108772 0)
(0.886482 0.0952769 0)
(0.917707 -0.167043 0)
(0.710856 0.35197 0)
(0.964838 0.0186758 0)
(0.94346 -0.0276112 0)
(0.96237 0.0107579 0)
(0.934955 -0.0498557 0)
(0.936639 -0.00477567 0)
(0.879733 -0.0597334 0)
(0.879931 -0.00709746 0)
(0.838081 -0.0645632 0)
(0.83355 -0.00222806 0)
(0.801352 -0.0575024 0)
(0.81892 0.0100467 0)
(0.772244 -0.0592351 0)
(0.816515 0.0141727 0)
(0.785309 -0.0917115 0)
(0.748444 0.0174124 0)
(0.784932 -0.111461 0)
(0.684865 0.0360956 0)
(0.79066 -0.110631 0)
(0.778863 -0.0355313 0)
(0.513861 -0.0336359 0)
(0.941863 -0.017615 0)
(0.962946 0.0174964 0)
(0.928746 -0.0250745 0)
(0.923044 0.0147725 0)
(0.858085 -0.0204418 0)
(0.863687 0.0171518 0)
(0.77206 -0.0298696 0)
(0.780481 0.0235286 0)
(0.683775 -0.0330236 0)
(0.696881 0.0345134 0)
(0.634721 -0.026947 0)
(0.648337 0.0365007 0)
(0.589415 -0.0387286 0)
(0.584313 0.0485245 0)
(0.492733 -0.0628063 0)
(0.489067 0.0608524 0)
(0.363975 -0.0925454 0)
(0.389738 0.0607046 0)
(0.190314 0.0222155 0)
(0.401548 0.410552 0)
(0.879251 -0.0400821 0)
(1.29423 -0.0589519 0)
(0.969108 -0.0564152 0)
(1.4425 -0.0609856 0)
(1.09959 -0.0598317 0)
(1.62569 -0.0786097 0)
(1.30799 -0.0792872 0)
(1.86345 -0.0967802 0)
(1.0673 0.0196389 0)
(1.17199 -0.0303499 0)
(1.13844 0.00633411 0)
(1.31795 -0.0383512 0)
(1.26858 -0.0260154 0)
(1.49997 -0.0515349 0)
(1.46768 -0.0339791 0)
(1.72906 -0.0673926 0)
(1.12759 -0.0360802 0)
(1.10197 -0.112582 0)
(1.20761 -0.0798329 0)
(1.28082 -0.133708 0)
(1.31939 -0.117185 0)
(1.48587 -0.163205 0)
(1.4899 -0.157216 0)
(1.73029 -0.213372 0)
(1.19629 -0.013101 0)
(1.11063 -0.115174 0)
(1.29032 -0.0622123 0)
(1.22918 -0.133476 0)
(1.4327 -0.126879 0)
(1.40914 -0.16158 0)
(1.63608 -0.17277 0)
(1.66484 -0.21138 0)
(1.09223 -0.031894 0)
(1.09433 -0.184857 0)
(1.1723 -0.0993363 0)
(1.25492 -0.223392 0)
(1.32967 -0.182804 0)
(1.4429 -0.259003 0)
(1.57725 -0.267114 0)
(1.64107 -0.319706 0)
(1.1822 -0.0384834 0)
(1.06287 -0.191624 0)
(1.2621 -0.119741 0)
(1.23368 -0.24205 0)
(1.36552 -0.212078 0)
(1.46924 -0.294023 0)
(1.51464 -0.291801 0)
(1.71616 -0.35914 0)
(1.1722 -0.0472244 0)
(1.08312 -0.241164 0)
(1.2719 -0.152489 0)
(1.20813 -0.301372 0)
(1.40353 -0.276796 0)
(1.37635 -0.344775 0)
(1.57992 -0.379549 0)
(1.69775 -0.448457 0)
(1.15194 -0.0504113 0)
(1.07279 -0.267168 0)
(1.25729 -0.157676 0)
(1.20257 -0.330861 0)
(1.32378 -0.273248 0)
(1.41667 -0.400821 0)
(1.62002 -0.450201 0)
(1.70856 -0.500077 0)
(1.12641 -0.0626683 0)
(1.08879 -0.312231 0)
(1.27045 -0.191823 0)
(1.10035 -0.356192 0)
(1.38538 -0.341382 0)
(1.48251 -0.50962 0)
(1.62668 -0.516132 0)
(1.76774 -0.601076 0)
(1.00968 -0.0596804 0)
(1.11839 -0.349571 0)
(1.07907 -0.147933 0)
(1.1455 -0.443964 0)
(1.49467 -0.439469 0)
(1.46243 -0.559427 0)
(1.65741 -0.574504 0)
(1.74618 -0.648804 0)
(1.0532 -0.114668 0)
(1.01836 -0.334362 0)
(1.06108 -0.180707 0)
(1.2914 -0.580552 0)
(1.50689 -0.471698 0)
(1.44319 -0.619636 0)
(1.66076 -0.624956 0)
(1.68844 -0.700605 0)
(0.920706 -0.0861229 0)
(0.990506 -0.33059 0)
(1.1948 -0.294119 0)
(1.32466 -0.648967 0)
(1.48687 -0.491002 0)
(1.4168 -0.683406 0)
(1.65215 -0.662014 0)
(1.57432 -0.711099 0)
(0.713313 -0.117418 0)
(1.09339 -0.462218 0)
(1.20981 -0.397756 0)
(1.33656 -0.707474 0)
(1.43822 -0.507884 0)
(1.40334 -0.754348 0)
(1.58563 -0.656917 0)
(1.41911 -0.713428 0)
(0.80376 -0.133078 0)
(1.143 -0.521438 0)
(1.23947 -0.470851 0)
(1.3106 -0.71705 0)
(1.37638 -0.514056 0)
(1.36619 -0.796288 0)
(1.46324 -0.617278 0)
(1.32542 -0.751506 0)
(0.786855 -0.25547 0)
(1.16663 -0.627405 0)
(1.22356 -0.552429 0)
(1.24372 -0.726553 0)
(1.3235 -0.550129 0)
(1.29773 -0.822061 0)
(1.34758 -0.578873 0)
(1.24764 -0.817773 0)
(0.872639 -0.261926 0)
(1.156 -0.631471 0)
(1.19891 -0.576455 0)
(1.17904 -0.704241 0)
(1.27113 -0.570834 0)
(1.19968 -0.80535 0)
(1.22113 -0.537865 0)
(1.21241 -0.897709 0)
(0.843605 -0.488491 0)
(1.11895 -0.718082 0)
(1.10876 -0.64172 0)
(1.10061 -0.713313 0)
(1.17442 -0.60837 0)
(1.08074 -0.791268 0)
(1.14945 -0.558777 0)
(1.14861 -0.974565 0)
(0.874262 -0.490185 0)
(1.0687 -0.655795 0)
(1.03411 -0.620817 0)
(1.04524 -0.678014 0)
(1.08787 -0.606442 0)
(0.992236 -0.756761 0)
(1.07528 -0.568168 0)
(1.0377 -0.982998 0)
(0.801822 -0.801784 0)
(0.990723 -0.774146 0)
(0.923683 -0.699087 0)
(0.960544 -0.708743 0)
(0.962833 -0.641173 0)
(0.874048 -0.744351 0)
(0.976069 -0.631282 0)
(0.89058 -0.974552 0)
(0.807759 -0.755391 0)
(0.928158 -0.648039 0)
(0.83606 -0.630294 0)
(0.881306 -0.63733 0)
(0.829315 -0.604087 0)
(0.783548 -0.693322 0)
(0.808394 -0.61705 0)
(0.614955 -0.82072 0)
(1.56258 -0.0919307 0)
(2.14756 -0.117473 0)
(1.89539 -0.102873 0)
(2.48529 -0.126253 0)
(2.29971 -0.0989438 0)
(2.85945 -0.114632 0)
(2.72772 -0.0922066 0)
(3.25094 -0.104774 0)
(3.15758 -0.0823985 0)
(3.62289 -0.0899716 0)
(3.53554 -0.0675671 0)
(3.92898 -0.0719465 0)
(3.81611 -0.0503299 0)
(4.12779 -0.0520349 0)
(3.96392 -0.0312141 0)
(4.192 -0.0319818 0)
(3.96478 -0.0139778 0)
(4.11576 -0.0150947 0)
(3.82317 -0.000866294 0)
(3.9154 -0.00399093 0)
(3.56256 0.00542413 0)
(3.63225 0.000323539 0)
(3.22835 0.00437936 0)
(3.31467 -0.00383735 0)
(2.87772 -0.00502738 0)
(3.01996 -0.0171545 0)
(2.58209 -0.0256655 0)
(2.83109 -0.061155 0)
(1.72472 -0.0434894 0)
(2.0127 -0.0841269 0)
(2.04089 -0.0600971 0)
(2.34923 -0.106059 0)
(2.39842 -0.0851344 0)
(2.72729 -0.122582 0)
(2.80222 -0.102511 0)
(3.13359 -0.125262 0)
(3.20885 -0.106445 0)
(3.52705 -0.10819 0)
(3.57033 -0.085203 0)
(3.85566 -0.0745906 0)
(3.84004 -0.0447274 0)
(4.07048 -0.0263282 0)
(3.97833 0.00719785 0)
(4.14476 0.0284706 0)
(3.97123 0.0609963 0)
(4.07158 0.0805462 0)
(3.82142 0.10915 0)
(3.86613 0.122028 0)
(3.5554 0.144199 0)
(3.56483 0.14782 0)
(3.22078 0.163631 0)
(3.21815 0.15591 0)
(2.86959 0.164662 0)
(2.88013 0.13829 0)
(2.55569 0.142398 0)
(2.58733 0.0707338 0)
(1.73072 -0.190953 0)
(2.03276 -0.263474 0)
(2.03275 -0.227124 0)
(2.38869 -0.298918 0)
(2.40591 -0.25473 0)
(2.7804 -0.311839 0)
(2.82769 -0.271135 0)
(3.19072 -0.304936 0)
(3.25274 -0.264263 0)
(3.57967 -0.268175 0)
(3.62843 -0.220637 0)
(3.90396 -0.20255 0)
(3.89967 -0.146131 0)
(4.11806 -0.115973 0)
(4.03343 -0.0560607 0)
(4.19177 -0.021884 0)
(4.01861 0.0345903 0)
(4.11631 0.0650482 0)
(3.86079 0.112613 0)
(3.90641 0.130755 0)
(3.58951 0.167566 0)
(3.60069 0.165353 0)
(3.24889 0.193949 0)
(3.25051 0.16512 0)
(2.89385 0.194134 0)
(2.90741 0.123337 0)
(2.57225 0.167512 0)
(2.61451 0.0220552 0)
(1.87193 -0.215911 0)
(1.98637 -0.262757 0)
(2.14225 -0.253947 0)
(2.36133 -0.315227 0)
(2.46819 -0.291304 0)
(2.78754 -0.355107 0)
(2.85444 -0.31626 0)
(3.22335 -0.355707 0)
(3.27562 -0.307351 0)
(3.61877 -0.310208 0)
(3.66826 -0.251101 0)
(3.93166 -0.220626 0)
(3.95765 -0.149369 0)
(4.13047 -0.103499 0)
(4.10369 -0.0214422 0)
(4.19061 0.025127 0)
(4.09348 0.108405 0)
(4.1061 0.145903 0)
(3.93707 0.221207 0)
(3.88973 0.239786 0)
(3.66184 0.30138 0)
(3.57927 0.295314 0)
(3.31597 0.340541 0)
(3.22436 0.306211 0)
(2.95109 0.336958 0)
(2.88128 0.268801 0)
(2.61089 0.286808 0)
(2.59932 0.174123 0)
(1.87129 -0.334172 0)
(1.91363 -0.380357 0)
(2.20305 -0.400308 0)
(2.28225 -0.450375 0)
(2.57032 -0.453443 0)
(2.72785 -0.502495 0)
(2.95708 -0.4765 0)
(3.19896 -0.512174 0)
(3.34978 -0.453855 0)
(3.62541 -0.4587 0)
(3.71068 -0.373979 0)
(3.9437 -0.338994 0)
(3.98801 -0.243586 0)
(4.12976 -0.179371 0)
(4.12543 -0.0794463 0)
(4.17861 -0.00893895 0)
(4.11149 0.0876191 0)
(4.09032 0.146958 0)
(3.95502 0.231475 0)
(3.87661 0.26767 0)
(3.68345 0.332765 0)
(3.5666 0.339628 0)
(3.34153 0.382537 0)
(3.20634 0.353123 0)
(2.97114 0.377389 0)
(2.85283 0.308009 0)
(2.61848 0.311311 0)
(2.54811 0.207643 0)
(1.80382 -0.372523 0)
(2.00031 -0.431369 0)
(2.19281 -0.463177 0)
(2.34781 -0.503819 0)
(2.61017 -0.534132 0)
(2.744 -0.560044 0)
(3.01924 -0.566679 0)
(3.1758 -0.570917 0)
(3.39479 -0.532664 0)
(3.58346 -0.509285 0)
(3.69715 -0.420635 0)
(3.89961 -0.371107 0)
(3.91358 -0.254419 0)
(4.07704 -0.178276 0)
(4.01828 -0.0566057 0)
(4.11861 0.0283327 0)
(3.99258 0.145551 0)
(4.03364 0.217205 0)
(3.84547 0.318423 0)
(3.83658 0.363103 0)
(3.60141 0.442755 0)
(3.55374 0.451166 0)
(3.28963 0.504572 0)
(3.22531 0.472954 0)
(2.93899 0.496085 0)
(2.89133 0.426915 0)
(2.59051 0.417249 0)
(2.57974 0.318636 0)
(1.84576 -0.474112 0)
(2.06051 -0.557838 0)
(2.18911 -0.577113 0)
(2.40063 -0.641291 0)
(2.56046 -0.657972 0)
(2.74232 -0.698239 0)
(2.95146 -0.698718 0)
(3.10641 -0.697842 0)
(3.30508 -0.657181 0)
(3.44922 -0.612628 0)
(3.57347 -0.524324 0)
(3.72471 -0.448622 0)
(3.73183 -0.321276 0)
(3.88259 -0.228692 0)
(3.79674 -0.0899181 0)
(3.90574 0.0101193 0)
(3.7654 0.140428 0)
(3.81935 0.226034 0)
(3.63999 0.337158 0)
(3.64204 0.392011 0)
(3.43401 0.479859 0)
(3.40318 0.495859 0)
(3.16263 0.55244 0)
(3.13452 0.529083 0)
(2.85154 0.549172 0)
(2.85639 0.487551 0)
(2.53335 0.469856 0)
(2.58263 0.372077 0)
(1.93093 -0.567868 0)
(2.03766 -0.611182 0)
(2.19552 -0.647794 0)
(2.34007 -0.690608 0)
(2.48881 -0.720579 0)
(2.67151 -0.760717 0)
(2.83675 -0.760788 0)
(2.98335 -0.754292 0)
(3.15359 -0.708996 0)
(3.25176 -0.652847 0)
(3.38327 -0.555668 0)
(3.44686 -0.460701 0)
(3.50532 -0.327843 0)
(3.5562 -0.21697 0)
(3.527 -0.0635774 0)
(3.56421 0.0448111 0)
(3.48476 0.189287 0)
(3.48408 0.282602 0)
(3.37497 0.402223 0)
(3.33914 0.467756 0)
(3.19924 0.553874 0)
(3.15421 0.583828 0)
(2.96937 0.628419 0)
(2.94642 0.62174 0)
(2.7152 0.621559 0)
(2.72137 0.578312 0)
(2.46215 0.541211 0)
(2.47743 0.455521 0)
(1.90564 -0.640723 0)
(1.98468 -0.682396 0)
(2.12342 -0.721323 0)
(2.2385 -0.77655 0)
(2.41356 -0.827305 0)
(2.54934 -0.865408 0)
(2.68659 -0.860874 0)
(2.80718 -0.85111 0)
(2.92401 -0.796355 0)
(2.99022 -0.726061 0)
(3.08623 -0.618459 0)
(3.10722 -0.512618 0)
(3.15479 -0.366443 0)
(3.15143 -0.241757 0)
(3.14551 -0.0841663 0)
(3.15398 0.0325706 0)
(3.08765 0.186697 0)
(3.09858 0.283572 0)
(2.99027 0.412523 0)
(2.99561 0.48763 0)
(2.84912 0.574034 0)
(2.86209 0.617294 0)
(2.67593 0.657137 0)
(2.70172 0.664682 0)
(2.49857 0.659182 0)
(2.50981 0.625401 0)
(2.33373 0.579916 0)
(2.29473 0.500978 0)
(1.83756 -0.676892 0)
(1.90648 -0.720229 0)
(2.03748 -0.774683 0)
(2.1704 -0.841571 0)
(2.29942 -0.88707 0)
(2.38355 -0.904696 0)
(2.48763 -0.899747 0)
(2.55147 -0.878167 0)
(2.61746 -0.809938 0)
(2.649 -0.728895 0)
(2.70532 -0.616409 0)
(2.67371 -0.492311 0)
(2.7108 -0.342025 0)
(2.66998 -0.214599 0)
(2.68115 -0.0547598 0)
(2.64869 0.0717801 0)
(2.61579 0.225574 0)
(2.62257 0.322801 0)
(2.53611 0.456237 0)
(2.57557 0.530639 0)
(2.43817 0.621048 0)
(2.49952 0.663812 0)
(2.33732 0.704545 0)
(2.39312 0.706463 0)
(2.24481 0.709437 0)
(2.25961 0.667587 0)
(2.14652 0.640491 0)
(2.10818 0.547285 0)
(1.74855 -0.715291 0)
(1.81676 -0.777563 0)
(1.97287 -0.849106 0)
(2.04634 -0.906633 0)
(2.12139 -0.938 0)
(2.16114 -0.954573 0)
(2.20552 -0.945784 0)
(2.2167 -0.912252 0)
(2.22991 -0.839864 0)
(2.23874 -0.756161 0)
(2.21042 -0.628602 0)
(2.18404 -0.502947 0)
(2.17618 -0.35744 0)
(2.1362 -0.224482 0)
(2.11691 -0.0615349 0)
(2.09866 0.0662138 0)
(2.05939 0.215025 0)
(2.08149 0.322159 0)
(2.00259 0.456755 0)
(2.08969 0.530423 0)
(1.96147 0.620903 0)
(2.07375 0.671236 0)
(1.93302 0.713038 0)
(2.03641 0.718043 0)
(1.9141 0.719404 0)
(1.98835 0.678877 0)
(1.88572 0.649122 0)
(1.9119 0.557917 0)
(1.63741 -0.731958 0)
(1.76265 -0.833017 0)
(1.8626 -0.888656 0)
(1.88352 -0.924389 0)
(1.90344 -0.948869 0)
(1.86866 -0.94463 0)
(1.86832 -0.929215 0)
(1.81212 -0.890535 0)
(1.80971 -0.816498 0)
(1.7226 -0.713797 0)
(1.69629 -0.587668 0)
(1.61132 -0.465316 0)
(1.60296 -0.32011 0)
(1.50879 -0.180637 0)
(1.53043 -0.0328189 0)
(1.4802 0.0993889 0)
(1.47535 0.235888 0)
(1.47686 0.340124 0)
(1.45548 0.470996 0)
(1.52191 0.546068 0)
(1.4642 0.63324 0)
(1.58022 0.677985 0)
(1.51048 0.719131 0)
(1.62088 0.726056 0)
(1.5693 0.729402 0)
(1.65076 0.696334 0)
(1.62007 0.671094 0)
(1.65028 0.57392 0)
(1.59481 -0.792716 0)
(1.68318 -0.891662 0)
(1.72882 -0.908053 0)
(1.67036 -0.929213 0)
(1.59239 -0.928441 0)
(1.5278 -0.927557 0)
(1.45468 -0.920909 0)
(1.37581 -0.877587 0)
(1.27367 -0.78839 0)
(1.20047 -0.689027 0)
(1.08366 -0.567326 0)
(1.01933 -0.445192 0)
(0.915913 -0.299217 0)
(0.889676 -0.183746 0)
(0.838371 -0.0388752 0)
(0.834905 0.0984845 0)
(0.81398 0.226415 0)
(0.844901 0.325939 0)
(0.850929 0.444344 0)
(0.931935 0.520871 0)
(0.918382 0.60604 0)
(1.05164 0.64683 0)
(1.03792 0.689686 0)
(1.1677 0.696161 0)
(1.18304 0.694291 0)
(1.27596 0.663162 0)
(1.32456 0.640067 0)
(1.35012 0.554533 0)
(1.54752 -0.851329 0)
(1.57495 -0.902786 0)
(1.52679 -0.874698 0)
(1.35257 -0.871131 0)
(1.26226 -0.877175 0)
(1.12256 -0.877681 0)
(1.00849 -0.855328 0)
(0.8256 -0.797476 0)
(0.749608 -0.725677 0)
(0.572739 -0.615787 0)
(0.487828 -0.498473 0)
(0.345059 -0.378405 0)
(0.295074 -0.255715 0)
(0.186353 -0.137708 0)
(0.17465 -0.00437395 0)
(0.140131 0.114304 0)
(0.185468 0.227087 0)
(0.166674 0.331135 0)
(0.249775 0.433588 0)
(0.321212 0.505551 0)
(0.372655 0.583294 0)
(0.506764 0.621371 0)
(0.548265 0.659867 0)
(0.716492 0.662135 0)
(0.770193 0.670893 0)
(0.90304 0.637723 0)
(0.991708 0.62583 0)
(1.05563 0.530576 0)
(1.49916 -0.893441 0)
(1.40349 -0.878029 0)
(1.23936 -0.794395 0)
(1.02409 -0.805177 0)
(0.851308 -0.80189 0)
(0.672308 -0.793878 0)
(0.460863 -0.776192 0)
(0.308913 -0.745253 0)
(0.092471 -0.655963 0)
(-0.040254 -0.554319 0)
(-0.207949 -0.44932 0)
(-0.313871 -0.341716 0)
(-0.43336 -0.216099 0)
(-0.477912 -0.12669 0)
(-0.54175 -0.00446367 0)
(-0.507962 0.103511 0)
(-0.519609 0.213986 0)
(-0.451963 0.289636 0)
(-0.379847 0.383318 0)
(-0.27967 0.460709 0)
(-0.194888 0.52282 0)
(-0.0209993 0.551693 0)
(0.0455905 0.590687 0)
(0.252233 0.588795 0)
(0.33851 0.598504 0)
(0.518045 0.556894 0)
(0.646633 0.556978 0)
(0.735964 0.466778 0)
(1.40008 -0.891387 0)
(1.13722 -0.779362 0)
(0.913877 -0.672527 0)
(0.592501 -0.682665 0)
(0.442026 -0.699423 0)
(0.168588 -0.692981 0)
(-0.0122892 -0.667065 0)
(-0.330698 -0.6103 0)
(-0.461276 -0.551937 0)
(-0.718111 -0.461493 0)
(-0.807292 -0.362816 0)
(-1.02647 -0.263615 0)
(-1.05032 -0.167688 0)
(-1.18933 -0.0779779 0)
(-1.17661 0.015321 0)
(-1.19428 0.109238 0)
(-1.1296 0.201354 0)
(-1.08965 0.270137 0)
(-0.960713 0.348989 0)
(-0.873919 0.409531 0)
(-0.696556 0.465424 0)
(-0.56496 0.495535 0)
(-0.40874 0.525179 0)
(-0.206396 0.520304 0)
(-0.0502413 0.532529 0)
(0.122543 0.495648 0)
(0.314022 0.508175 0)
(0.40578 0.419818 0)
(1.21224 -0.814688 0)
(0.813805 -0.638856 0)
(0.536454 -0.534142 0)
(0.229872 -0.592501 0)
(-0.0207383 -0.586589 0)
(-0.283502 -0.565291 0)
(-0.623723 -0.54414 0)
(-0.843853 -0.522493 0)
(-1.14806 -0.451382 0)
(-1.31021 -0.385541 0)
(-1.51511 -0.289973 0)
(-1.63365 -0.222408 0)
(-1.74194 -0.131121 0)
(-1.80369 -0.062278 0)
(-1.83741 0.0124797 0)
(-1.7965 0.0799308 0)
(-1.76904 0.162369 0)
(-1.65447 0.21205 0)
(-1.56203 0.277184 0)
(-1.40718 0.319768 0)
(-1.23023 0.376651 0)
(-1.05853 0.396445 0)
(-0.87474 0.415129 0)
(-0.649423 0.406109 0)
(-0.473106 0.428704 0)
(-0.25818 0.383609 0)
(-0.0414053 0.399526 0)
(0.0840801 0.313249 0)
(0.982157 -0.675813 0)
(0.436213 -0.460707 0)
(0.177145 -0.348571 0)
(-0.261193 -0.400896 0)
(-0.453962 -0.434105 0)
(-0.841322 -0.394071 0)
(-1.06728 -0.379264 0)
(-1.46779 -0.355459 0)
(-1.64189 -0.323061 0)
(-1.97381 -0.270255 0)
(-2.05568 -0.205017 0)
(-2.30303 -0.145014 0)
(-2.30912 -0.0832311 0)
(-2.45053 -0.0309128 0)
(-2.37289 0.0193169 0)
(-2.43496 0.0786813 0)
(-2.29044 0.132041 0)
(-2.23887 0.171203 0)
(-2.06348 0.218115 0)
(-1.94591 0.248673 0)
(-1.70133 0.297232 0)
(-1.5497 0.308958 0)
(-1.27034 0.319456 0)
(-1.10063 0.321709 0)
(-0.825396 0.325873 0)
(-0.648191 0.295591 0)
(-0.363681 0.309841 0)
(-0.271377 0.250044 0)
(0.653655 -0.406742 0)
(0.0216141 -0.253589 0)
(-0.204752 -0.212549 0)
(-0.585978 -0.301675 0)
(-0.935607 -0.285145 0)
(-1.29504 -0.277887 0)
(-1.58728 -0.246244 0)
(-1.92469 -0.242533 0)
(-2.17906 -0.200046 0)
(-2.45352 -0.18617 0)
(-2.62114 -0.126916 0)
(-2.79267 -0.102258 0)
(-2.86624 -0.0561051 0)
(-2.93655 -0.0283631 0)
(-2.9253 0.011537 0)
(-2.91523 0.0326884 0)
(-2.80254 0.0688417 0)
(-2.71633 0.0959063 0)
(-2.55449 0.125483 0)
(-2.39307 0.138504 0)
(-2.16502 0.172375 0)
(-1.95705 0.169791 0)
(-1.69567 0.188289 0)
(-1.48049 0.179599 0)
(-1.20048 0.187214 0)
(-1.00616 0.163744 0)
(-0.699866 0.177793 0)
(-0.592916 0.135945 0)
(0.319486 -0.275143 0)
(-0.564163 -0.0492749 0)
(-0.357549 -0.0153107 0)
(-1.00349 -0.0412994 0)
(-1.10482 -0.073633 0)
(-1.71616 -0.0619849 0)
(-1.83004 -0.0672101 0)
(-2.36636 -0.0588454 0)
(-2.45774 -0.0562713 0)
(-2.89694 -0.050199 0)
(-2.94433 -0.0376969 0)
(-3.24584 -0.0220055 0)
(-3.19905 -0.0119282 0)
(-3.3924 0.00509728 0)
(-3.23671 0.0139917 0)
(-3.34367 0.0223936 0)
(-3.12395 0.0345721 0)
(-3.1398 0.0486656 0)
(-2.83443 0.0535514 0)
(-2.79154 0.0596962 0)
(-2.43198 0.0694632 0)
(-2.3358 0.0722617 0)
(-1.9466 0.0773812 0)
(-1.82299 0.0746251 0)
(-1.43903 0.0750004 0)
(-1.32682 0.0659182 0)
(-0.951965 0.0735499 0)
(-0.887888 0.0612049 0)
(2.44545 -0.0534556 0)
(2.46724 -0.413499 0)
(2.0057 -0.45225 0)
(1.81759 -0.650173 0)
(1.54092 -0.793236 0)
(1.29472 -1.05697 0)
(0.699893 -0.961926 0)
(-0.005752 -0.713952 0)
(2.34787 0.0545629 0)
(2.20531 -0.160877 0)
(1.83541 -0.248127 0)
(1.78345 -0.506495 0)
(1.45771 -0.609249 0)
(1.19662 -0.783024 0)
(0.810841 -0.696061 0)
(0.831729 -0.786525 0)
(2.33287 0.0877179 0)
(2.37543 -0.122279 0)
(2.18356 -0.208605 0)
(2.08225 -0.410691 0)
(1.6821 -0.466422 0)
(1.5208 -0.714598 0)
(1.14455 -0.725035 0)
(0.408013 -0.218052 0)
(2.29468 0.162772 0)
(2.36726 -0.0279717 0)
(1.89488 -0.103694 0)
(1.90285 -0.272958 0)
(1.35645 -0.337851 0)
(1.39213 -0.482158 0)
(0.269778 -0.216339 0)
(0.186661 -0.235954 0)
(2.30664 0.170069 0)
(2.2982 0.06165 0)
(1.99842 -0.0135462 0)
(2.11027 -0.167413 0)
(1.70584 -0.195613 0)
(1.7138 -0.240063 0)
(1.16892 -0.0794997 0)
(1.13188 -0.324709 0)
(2.28318 0.267756 0)
(2.27126 0.156634 0)
(2.01994 0.0439621 0)
(1.89779 -0.0831807 0)
(1.53524 -0.101527 0)
(1.45733 -0.212061 0)
(1.16321 0.0229485 0)
(1.11309 -0.0508377 0)
(2.24714 0.322365 0)
(2.29686 0.192931 0)
(2.02144 0.143548 0)
(1.95802 0.026746 0)
(1.81808 0.0075668 0)
(1.6825 -0.0913022 0)
(1.52815 0.0722294 0)
(1.39553 -0.0830718 0)
(2.22624 0.407155 0)
(2.22203 0.265554 0)
(1.97599 0.243066 0)
(1.94845 0.0486308 0)
(1.68408 0.0872335 0)
(1.51057 -0.0375494 0)
(1.32481 0.145303 0)
(1.25262 0.0852871 0)
(2.16755 0.440797 0)
(2.08308 0.32401 0)
(1.94922 0.284063 0)
(1.8853 0.140013 0)
(1.67252 0.187459 0)
(1.70495 0.0533748 0)
(1.5112 0.172747 0)
(1.54782 0.0748966 0)
(2.03622 0.506767 0)
(1.94335 0.37291 0)
(1.89921 0.346723 0)
(1.76649 0.213281 0)
(1.66317 0.212605 0)
(1.58591 0.0949861 0)
(1.38231 0.198319 0)
(1.43406 0.143916 0)
(1.84057 0.53271 0)
(1.80241 0.390896 0)
(1.75485 0.379713 0)
(1.68392 0.242335 0)
(1.63301 0.24713 0)
(1.53628 0.169669 0)
(1.49866 0.224549 0)
(1.44646 0.197859 0)
(1.64595 0.556147 0)
(1.6481 0.415473 0)
(1.59704 0.422895 0)
(1.59872 0.279796 0)
(1.51074 0.304018 0)
(1.51221 0.193666 0)
(1.42208 0.235492 0)
(1.44381 0.201208 0)
(1.4157 0.538783 0)
(1.40925 0.405599 0)
(1.45983 0.408642 0)
(1.44951 0.272363 0)
(1.43025 0.290183 0)
(1.4415 0.205803 0)
(1.38359 0.244667 0)
(1.43877 0.221991 0)
(1.1705 0.530805 0)
(1.18581 0.391951 0)
(1.26839 0.421226 0)
(1.27963 0.28543 0)
(1.31197 0.318837 0)
(1.3414 0.216088 0)
(1.31354 0.244163 0)
(1.37627 0.214105 0)
(0.886026 0.478118 0)
(0.933201 0.343128 0)
(1.0623 0.372324 0)
(1.10225 0.224864 0)
(1.15716 0.28377 0)
(1.21423 0.187161 0)
(1.2108 0.233547 0)
(1.29539 0.189652 0)
(0.644192 0.429556 0)
(0.649027 0.303714 0)
(0.841018 0.352266 0)
(0.854145 0.232229 0)
(0.988285 0.276813 0)
(1.04342 0.165328 0)
(1.08766 0.227503 0)
(1.17214 0.173493 0)
(0.349931 0.346446 0)
(0.345339 0.251026 0)
(0.602394 0.259147 0)
(0.613673 0.136202 0)
(0.771833 0.211626 0)
(0.795709 0.119265 0)
(0.892113 0.187424 0)
(0.967098 0.114899 0)
(0.0475368 0.275372 0)
(0.0400424 0.193077 0)
(0.376464 0.218272 0)
(0.246303 0.158979 0)
(0.586498 0.184751 0)
(0.552166 0.089961 0)
(0.704002 0.168217 0)
(0.715449 0.0978574 0)
(-0.231199 0.153714 0)
(-0.263843 0.114193 0)
(0.1127 0.125914 0)
(0.00493083 0.0327048 0)
(0.364524 0.0586129 0)
(0.254693 0.0562267 0)
(0.491734 0.111913 0)
(0.470026 0.0266125 0)
(-0.482816 0.0728547 0)
(-0.541532 0.0633951 0)
(-0.0365185 0.05764 0)
(-0.257227 0.059554 0)
(0.198391 0.0480454 0)
(-0.0748561 0.0222725 0)
(0.367835 0.0781281 0)
(0.308232 0.0314131 0)
(-0.674627 -0.432338 0)
(0.399482 0.151995 0)
(0.648935 0.458196 0)
(0.78635 0.496312 5.90405e-18)
(1.22411 0.668473 4.68211e-19)
(1.39015 0.552107 0)
(1.82875 0.505955 3.70685e-18)
(1.59553 0.364794 2.12416e-19)
(1.80355 0.362853 2.76396e-18)
(1.58656 0.290608 2.66203e-18)
(1.89723 0.322426 0)
(1.66044 0.259546 2.23386e-18)
(2.01852 0.307354 -9.38352e-20)
(1.7762 0.251431 1.83623e-18)
(2.14207 0.307974 2.23938e-20)
(1.92606 0.254973 -2.47021e-20)
(2.26706 0.322388 -5.45569e-19)