/*--------------------------------*- C++ -*----------------------------------*\
| =========                 |                                                 |
| \\      /  F ield         | OpenFOAM: The Open Source CFD Toolbox           |
|  \\    /   O peration     | Version:  2.4.0                                 |
|   \\  /    A nd           | Web:      www.OpenFOAM.org                      |
|    \\/     M anipulation  |                                                 |
\*---------------------------------------------------------------------------*/
FoamFile
{
    version     2.0;
    format      ascii;
    class       volScalarField;
    location    "40";
    object      epsilon;
}
// * * * * * * * * * * * * * * * * * * * * * * * * * * * * * * * * * * * * * //

dimensions      [0 2 -3 0 0 0 0];

internalField   nonuniform List<scalar> 
10000
(
0.0655311
0.136307
0.164157
0.153458
0.135568
0.116167
0.0988584
0.0837031
0.0708298
0.0600261
0.0511087
0.0438691
0.0381173
0.0336947
0.0305136
0.0286389
0.0285149
0.031795
0.0458196
0.124416
0.0665684
0.136781
0.16446
0.153759
0.136073
0.116793
0.0995601
0.084416
0.0715178
0.0606633
0.0516831
0.0443765
0.0385593
0.0340742
0.0308275
0.0288592
0.028511
0.0309113
0.0396439
0.0672562
0.0646165
0.134541
0.163499
0.154404
0.137725
0.119042
0.102095
0.0870389
0.0740926
0.0630985
0.0539202
0.0463818
0.040318
0.0355828
0.0320805
0.0298176
0.0290002
0.0302308
0.0348829
0.0455643
0.0608199
0.130157
0.161132
0.154725
0.139728
0.12209
0.105689
0.0908708
0.0779442
0.0668189
0.0574054
0.0495631
0.0431539
0.0380499
0.0341581
0.0314534
0.0300244
0.0301192
0.0321506
0.0365105
0.0557175
0.123846
0.157197
0.154268
0.141556
0.1254
0.109842
0.0954601
0.0826824
0.0715009
0.0618839
0.053732
0.0469392
0.0413998
0.0370288
0.0337794
0.0316613
0.0307295
0.0310348
0.0325131
0.0497701
0.115862
0.151589
0.152632
0.14271
0.128443
0.11404
0.10033
0.0878795
0.0767747
0.0670483
0.0586462
0.0514958
0.0455152
0.0406313
0.0367893
0.0339551
0.0321008
0.031164
0.0310244
0.0433799
0.106504
0.144281
0.149502
0.142746
0.130726
0.117783
0.104999
0.0930854
0.0822313
0.0725382
0.0639997
0.0565768
0.0502109
0.0448431
0.0404212
0.0368961
0.0342143
0.0323001
0.0310646
0.036894
0.0961141
0.135346
0.144673
0.141304
0.131816
0.120612
0.109005
0.0978505
0.0874432
0.077956
0.0694322
0.0618667
0.0552242
0.049461
0.044533
0.0403945
0.0369915
0.0342704
0.032191
0.030603
0.0850626
0.124954
0.138059
0.138134
0.131369
0.122134
0.111933
0.101753
0.0919915
0.0828938
0.0745538
0.0670016
0.060226
0.0541996
0.0488898
0.0442609
0.0402727
0.0368923
0.0341316
0.0247394
0.0737342
0.113366
0.129704
0.133107
0.129147
0.122044
0.113438
0.104423
0.0954947
0.0869642
0.0789773
0.0716008
0.0648497
0.0587149
0.0531772
0.0482126
0.0437968
0.0399195
0.0366254
0.0194759
0.0625089
0.100923
0.119775
0.126223
0.125029
0.12014
0.113265
0.105571
0.0976346
0.0898302
0.0823526
0.0753056
0.0687325
0.0626451
0.0570395
0.0519043
0.0472295
0.0430239
0.0393571
0.0149254
0.0517415
0.08802
0.10855
0.117611
0.119022
0.116339
0.111263
0.104997
0.0981779
0.0912311
0.0843964
0.0778141
0.0715567
0.0656587
0.0601332
0.0549826
0.0502096
0.0458377
0.0419562
0.0111425
0.0417429
0.0750782
0.0963951
0.107518
0.111257
0.110676
0.107398
0.102611
0.096992
0.0910005
0.0849153
0.0789092
0.0730834
0.0674955
0.0621768
0.0571444
0.052413
0.0480181
0.0440624
0.00812657
0.0327627
0.0625169
0.0837406
0.0962918
0.101978
0.103307
0.10175
0.0984366
0.0940525
0.0890775
0.083818
0.0784744
0.0731732
0.0679938
0.0629858
0.0581808
0.0536056
0.0493058
0.0453935
0.00582751
0.0249766
0.0507219
0.0710433
0.0843517
0.0915291
0.0944939
0.0945096
0.0926046
0.089444
0.0855085
0.0811203
0.0764995
0.0717934
0.0671005
0.0624865
0.0579968
0.0536698
0.0495595
0.0457848
0.00415539
0.0184775
0.0400179
0.0587529
0.072159
0.0803255
0.084589
0.0859661
0.0853486
0.0833532
0.0804419
0.0769393
0.0730761
0.0690141
0.0648663
0.060712
0.0566083
0.0526035
0.0487588
0.0451972
0.00299425
0.0132738
0.0306472
0.0472768
0.0601795
0.0688231
0.0740077
0.0764852
0.0769861
0.0760541
0.0741148
0.0714813
0.0683849
0.0649942
0.0614317
0.0577863
0.0541241
0.0505008
0.0469833
0.0436958
0.00221975
0.00929307
0.0227545
0.0369497
0.0488465
0.0574825
0.0631974
0.0664825
0.0678948
0.0678876
0.0668343
0.0650237
0.0626774
0.0599632
0.0570068
0.0539023
0.0507215
0.0475251
0.0443829
0.0414182
0.00171756
0.00639437
0.016381
0.0280103
0.0385278
0.046733
0.0526028
0.0563915
0.0584849
0.0592354
0.0589532
0.0578918
0.0562539
0.0541984
0.0518484
0.0492982
0.0466217
0.0438816
0.0411485
0.0385419
0.00139613
0.00438826
0.0114666
0.020587
0.0294978
0.0369387
0.0426304
0.0466302
0.0491669
0.0504908
0.0508431
0.0504337
0.0494388
0.0480018
0.0462369
0.0442344
0.0420662
0.0397944
0.037488
0.0352601
0.00119031
0.00306484
0.00786191
0.0146936
0.02192
0.0283706
0.0336166
0.0375674
0.0403196
0.0420284
0.0428653
0.0429931
0.0425559
0.041676
0.0404542
0.0389722
0.0372968
0.0354866
0.0336069
0.0317626
0.00105728
0.00222436
0.00535138
0.0102367
0.0158395
0.0211884
0.0258016
0.0294936
0.0322599
0.0341739
0.0353432
0.0358832
0.0359035
0.035502
0.0347624
0.0337548
0.0325378
0.0311646
0.0296947
0.0282229
0.000970119
0.00170215
0.00368664
0.00703321
0.0111876
0.0154329
0.0193133
0.022599
0.0252175
0.0271789
0.0285366
0.0293625
0.0297324
0.0297187
0.0293862
0.0287912
0.0279824
0.0270055
0.0259132
0.0247886
0.000912085
0.00137894
0.00262543
0.00484229
0.00779958
0.0110318
0.0141629
0.0169614
0.0193186
0.0212017
0.0226223
0.0236157
0.0242278
0.0245065
0.0244977
0.0242432
0.0237808
0.0231479
0.022389
0.021575
0.00087276
0.00117679
0.0019645
0.00340607
0.0054455
0.00781974
0.0102546
0.0125481
0.0145818
0.0162991
0.0176835
0.018743
0.0194987
0.0199774
0.0202078
0.0202178
0.0200344
0.0196862
0.0192093
0.018662
0.000845588
0.00104787
0.00155468
0.00249088
0.00387286
0.00557262
0.00741197
0.00923355
0.0109284
0.012432
0.0137124
0.0147594
0.0155761
0.016173
0.0165643
0.0167656
0.0167943
0.0166704
0.0164215
0.016094
0.000826403
0.000963725
0.00129755
0.00191359
0.00284865
0.00405103
0.00541593
0.00683176
0.00820887
0.00948582
0.0106252
0.0116072
0.0124233
0.0130725
0.0135582
0.0138864
0.0140662
0.01411
0.0140376
0.0138839
0.000812537
0.000907414
0.0011326
0.00154673
0.00218694
0.00303918
0.00404685
0.00513612
0.00623874
0.00730212
0.00828989
0.00917862
0.0099541
0.0106083
0.0111373
0.0115404
0.01182
0.0119825
0.0120407
0.0120193
0.00080227
0.000868782
0.00102388
0.0013088
0.00175574
0.00236744
0.00311595
0.00395463
0.00483395
0.0057116
0.00655545
0.00734245
0.00805639
0.00868588
0.00922293
0.00966246
0.0100023
0.010244
0.0103947
0.0104705
0.000794483
0.000841624
0.000950199
0.00115024
0.00146876
0.00191561
0.00247908
0.00313067
0.00383534
0.00456003
0.00527767
0.0059674
0.00661328
0.00720294
0.0077266
0.00817676
0.00854842
0.00883977
0.00905342
0.00919825
0.000788442
0.000822085
0.000898954
0.0010415
0.00127245
0.00160452
0.00203531
0.00254826
0.00311886
0.00372155
0.00433387
0.00493755
0.0055179
0.00606286
0.00656226
0.00700764
0.00739244
0.00771263
0.00796743
0.00816003
0.000783658
0.000807717
0.000862499
0.000964965
0.0011343
0.00138425
0.00171802
0.00212712
0.00259478
0.00310129
0.00362799
0.00415894
0.00468086
0.00518248
0.00565396
0.0060867
0.00647348
0.0068089
0.00708973
0.00731479
0.000779799
0.00079694
0.000836074
0.000909953
0.00103468
0.00122404
0.00148477
0.00181416
0.00220143
0.00263158
0.00308907
0.00355985
0.00403183
0.00449457
0.00493875
0.00535602
0.00573896
0.0060814
0.00637838
0.00662537
0.000776636
0.000788706
0.000816625
0.000869809
0.00096153
0.00110496
0.00130899
0.00157526
0.0018979
0.00226602
0.00266681
0.00308779
0.00351783
0.00394708
0.0043667
0.00476861
0.00514542
0.00549047
0.00579759
0.00605966
0.000774006
0.000782305
0.000802124
0.000840225
0.000907253
0.00101521
0.00117413
0.00138886
0.00165776
0.00197373
0.00232663
0.00270556
0.00310013
0.00350092
0.00389934
0.00428749
0.00465797
0.00500376
0.00531772
0.00559073
0.000771792
0.000777247
0.000791185
0.000818289
0.000866811
0.000947201
0.00106971
0.00124142
0.00146423
0.00173469
0.00204552
0.00238754
0.00275121
0.00312744
0.00350774
0.00388416
0.00424917
0.00459535
0.00491466
0.00519635
0.000769907
0.000773184
0.000782831
0.000801947
0.00083669
0.000895742
0.000988811
0.00112425
0.00130674
0.00153628
0.00180861
0.00211668
0.00245211
0.00280624
0.0031706
0.00353708
0.00389779
0.00424477
0.00456908
0.00485845
0.000768287
0.000769869
0.000776365
0.000789707
0.000814309
0.000857052
0.000926561
0.00103152
0.00117856
0.00137065
0.00160669
0.00188217
0.00219032
0.00252328
0.00287273
0.00323031
0.00358767
0.0039361
0.00426562
0.00456244
0.000766882
0.000767123
0.000771282
0.000780466
0.000797702
0.000828208
0.000879202
0.000958946
0.00107508
0.00123289
0.00143426
0.00167753
0.00195814
0.00226948
0.00260377
0.00295254
0.00330689
0.00365721
0.00399227
0.00429669
0.000765655
0.000764815
0.000767217
0.000773405
0.00078536
0.000806865
0.000843651
0.000903014
0.000992736
0.0011196
0.001288
0.0014992
0.00175127
0.00203953
0.00235724
0.00269618
0.003047
0.00339911
0.00373987
0.0040521
0.000764577
0.000762851
0.000763907
0.000767925
0.000776124
0.000791135
0.000817293
0.000860645
0.00092843
0.00102803
0.00116567
0.00134526
0.00156771
0.00183085
0.00212966
0.00245669
0.00280249
0.00315557
0.00350169
0.00382172
0.000763626
0.000761161
0.000761163
0.000763588
0.000769124
0.000779523
0.000797921
0.000829064
0.000879206
0.000955562
0.00106532
0.00121447
0.0014067
0.00164267
0.00191975
0.00223198
0.00257031
0.00292263
0.00327314
0.00360054
0.000762782
0.000759691
0.000758849
0.000760079
0.000763717
0.000770871
0.000783721
0.000805814
0.000842231
0.000899458
0.000984843
0.00110566
0.00126791
0.00147517
0.00172768
0.00202171
0.00234935
0.00269832
0.00305144
0.00338521
0.000762033
0.000758404
0.000756867
0.000757178
0.000759443
0.000764318
0.000773257
0.000788805
0.000814877
0.000856919
0.000921788
0.00101721
0.00115081
0.00132875
0.00155435
0.00182676
0.00213997
0.00248224
0.00283542
0.00317389
0.000761365
0.00075727
0.000755148
0.000754729
0.000755974
0.000759234
0.000765437
0.000776338
0.000794823
0.000825216
0.000873467
0.000947045
0.00105434
0.00120351
0.00140078
0.00164854
0.00194348
0.0022752
0.00262518
0.002966
0.000760769
0.000756266
0.000753642
0.000752623
0.000753085
0.000755178
0.00075946
0.000767098
0.000780138
0.000801857
0.000837123
0.000892631
0.000976774
0.00109887
0.00126756
0.0014885
0.00176163
0.00207875
0.00242178
0.00276199
0.000760238
0.000755374
0.000752311
0.000750784
0.000750622
0.000751845
0.000754758
0.000760107
0.000769295
0.000784709
0.000810145
0.000851255
0.000915822
0.0010135
0.00115459
0.00134766
0.00159616
0.00189483
0.00222693
0.00256312
0.000759764
0.000754581
0.00075113
0.000749161
0.00074848
0.000749026
0.000750939
0.000754668
0.000761145
0.000772053
0.000790238
0.000820248
0.000868878
0.000945403
0.00106094
0.00122632
0.00144838
0.00172532
0.0020426
0.00237114
0.000759342
0.000753874
0.000750077
0.000747716
0.000746588
0.000746585
0.000747738
0.000750297
0.000754858
0.000762573
0.000775514
0.000797199
0.000833282
0.000892167
0.00098497
0.00112398
0.00131896
0.00157175
0.00187072
0.00218801
0.000758967
0.000753245
0.000749136
0.000746422
0.000744899
0.000744432
0.000744983
0.00074667
0.000749854
0.000755309
0.000764499
0.00078007
0.000806553
0.000851211
0.000924531
0.00103939
0.0012078
0.00143503
0.00171291
0.00201566
0.000758634
0.000752686
0.000748295
0.00074526
0.000743381
0.000742507
0.00074256
0.00074357
0.000745743
0.00074958
0.000756099
0.000767243
0.000786543
0.00082005
0.000877207
0.000970731
0.00111404
0.00131541
0.00157029
0.00185571
0.00075834
0.000752189
0.000747545
0.000744216
0.00074201
0.000740772
0.000740396
0.000740859
0.000742263
0.000744921
0.00074953
0.000757493
0.000771504
0.000796468
0.000840589
0.00091585
0.00103626
0.00121245
0.00144336
0.00170936
0.000758082
0.000751751
0.000746876
0.000743278
0.000740772
0.000739201
0.000738447
0.000738451
0.000739248
0.000741024
0.000744248
0.000749923
0.000760078
0.000778609
0.000812454
0.000872498
0.000972645
0.00112511
0.00133201
0.00157727
0.000757856
0.000751365
0.000746283
0.000742438
0.000739655
0.000737778
0.000736682
0.000736288
0.000736588
0.000737685
0.000739885
0.000743904
0.000751255
0.000764997
0.000790881
0.000838526
0.000921196
0.00105197
0.00123559
0.00145955
0.000757659
0.000751028
0.000745758
0.000741689
0.00073865
0.00073649
0.000735082
0.000734336
0.000734217
0.000734771
0.000736197
0.000738999
0.000744308
0.000754504
0.000774296
0.000812011
0.000879927
0.000991352
0.00115304
0.00135586
0.000757491
0.000750735
0.000745297
0.000741023
0.000737749
0.000735328
0.000733634
0.000732573
0.000732091
0.000732199
0.000733021
0.000734914
0.000738721
0.000746294
0.000761457
0.000791318
0.000846988
0.000941501
0.00108302
0.00126541
0.000757347
0.000750482
0.000744895
0.000740434
0.000736945
0.000734284
0.000732328
0.000730981
0.00073018
0.000729912
0.000730252
0.00073145
0.000734138
0.000739761
0.000751417
0.000775117
0.000820749
0.000900722
0.00102405
0.00118718
0.000757226
0.000750266
0.000744546
0.000739918
0.000736233
0.000733352
0.000731157
0.000729551
0.000728466
0.000727875
0.000727818
0.000728473
0.000730314
0.000734476
0.000743469
0.000762354
0.00079983
0.000867459
0.00097465
0.00111995
0.000757125
0.000750085
0.000744247
0.000739469
0.000735606
0.000732526
0.000730112
0.000728271
0.000726933
0.000726061
0.000725671
0.000725891
0.00072708
0.000730133
0.000737095
0.000752219
0.0007831
0.000840345
0.000933395
0.00106244
0.000757044
0.000749933
0.000743993
0.000739081
0.000735058
0.000731797
0.000729187
0.000727134
0.000725569
0.000724449
0.000723777
0.000723641
0.000724317
0.000726518
0.000731918
0.000744095
0.000769653
0.000818212
0.000898985
0.0010134
0.000756978
0.000749809
0.000743779
0.000738749
0.000734584
0.000731161
0.000728373
0.000726129
0.000724362
0.000723024
0.000722109
0.000721676
0.000721941
0.000723477
0.000727663
0.00073752
0.000758777
0.000800093
0.000870274
0.000971641
0.000756928
0.00074971
0.000743602
0.000738469
0.000734178
0.00073061
0.000727663
0.000725249
0.000723301
0.000721771
0.000720644
0.000719961
0.000719892
0.0007209
0.000724132
0.000732147
0.000749918
0.000785195
0.000846274
0.000936078
0.00075689
0.000749632
0.000743459
0.000738235
0.000733832
0.000730137
0.000727048
0.000724483
0.000722375
0.000720676
0.000719365
0.000718469
0.000718122
0.000718706
0.000721178
0.000727719
0.00074265
0.000772885
0.000826151
0.000905751
0.000756864
0.000749573
0.000743344
0.000738042
0.000733542
0.000729734
0.000726521
0.000723823
0.000721573
0.000719725
0.000718254
0.000717176
0.000716597
0.000716834
0.000718694
0.000724044
0.000736646
0.000762657
0.000809215
0.000879829
0.000756846
0.00074953
0.000743254
0.000737886
0.000733302
0.000729396
0.000726074
0.000723258
0.000720885
0.000718906
0.000717295
0.00071606
0.000715285
0.000715235
0.000716597
0.000720975
0.000731653
0.000754109
0.000794898
0.000857603
0.000756837
0.000749501
0.000743187
0.000737761
0.000733106
0.000729114
0.000725698
0.00072278
0.000720299
0.000718207
0.000716474
0.000715103
0.000714162
0.000713873
0.000714822
0.000718398
0.000727473
0.000746923
0.000782737
0.000838479
0.000756834
0.000749483
0.000743137
0.000737665
0.000732947
0.000728883
0.000725385
0.00072238
0.000719805
0.000717614
0.000715776
0.000714289
0.000713205
0.000712714
0.000713319
0.000716227
0.000723958
0.00074085
0.000772358
0.000821963
0.000756836
0.000749474
0.000743103
0.000737592
0.000732822
0.000728697
0.000725129
0.000722048
0.000719393
0.000717117
0.000715189
0.000713601
0.000712396
0.000711733
0.000712048
0.000714394
0.000720988
0.00073569
0.000763459
0.000807642
0.000756842
0.000749473
0.000743082
0.000737538
0.000732726
0.000728548
0.000724922
0.000721776
0.000719053
0.000716705
0.000714699
0.000713025
0.000711715
0.000710906
0.000710976
0.000712845
0.000718469
0.000731286
0.000755792
0.000795172
0.00075685
0.000749477
0.00074307
0.0007375
0.000732652
0.000728431
0.000724756
0.000721557
0.000718776
0.000716367
0.000714295
0.000712547
0.000711148
0.000710214
0.000710074
0.000711536
0.000716326
0.000727509
0.000749155
0.000784267
0.00075686
0.000749484
0.000743066
0.000737474
0.000732598
0.000728341
0.000724625
0.000721381
0.000718553
0.000716092
0.000713964
0.000712153
0.000710678
0.000709637
0.000709318
0.00071043
0.0007145
0.000724259
0.000743387
0.000774696
0.000756871
0.000749494
0.000743067
0.000737459
0.000732558
0.000728273
0.000724524
0.000721243
0.000718375
0.000715871
0.000713697
0.000711834
0.000710294
0.000709162
0.000708688
0.000709497
0.00071294
0.000721453
0.000738354
0.000766263
0.000756881
0.000749504
0.000743071
0.00073745
0.000732531
0.000728222
0.000724446
0.000721136
0.000718235
0.000715696
0.000713484
0.000711577
0.000709982
0.000708772
0.000708164
0.00070871
0.000711606
0.000719022
0.000733947
0.000758809
0.000756891
0.000749515
0.000743077
0.000737445
0.000732512
0.000728185
0.000724388
0.000721053
0.000718127
0.00071556
0.000713316
0.000711373
0.000709733
0.000708456
0.000707733
0.00070805
0.000710466
0.000716913
0.000730079
0.000752201
0.000756899
0.000749524
0.000743083
0.000737444
0.000732499
0.000728158
0.000724344
0.000720992
0.000718044
0.000715455
0.000713187
0.000711214
0.000709535
0.000708202
0.00070738
0.000707496
0.000709489
0.000715078
0.000726674
0.00074633
0.000756906
0.000749532
0.000743088
0.000737443
0.00073249
0.000728139
0.000724312
0.000720945
0.000717983
0.000715376
0.000713088
0.000711091
0.000709382
0.000708001
0.000707092
0.000707033
0.000708654
0.00071348
0.000723672
0.000741104
0.000756911
0.000749537
0.000743091
0.000737443
0.000732483
0.000728124
0.000724288
0.000720911
0.000717937
0.000715317
0.000713014
0.000710999
0.000709264
0.000707843
0.000706861
0.000706648
0.000707938
0.000712086
0.00072102
0.000736448
0.000756913
0.00074954
0.000743092
0.000737441
0.000732477
0.000728112
0.00072427
0.000720886
0.000717903
0.000715274
0.00071296
0.00071093
0.000709176
0.000707721
0.000706675
0.000706328
0.000707326
0.000710869
0.000718677
0.000732296
0.000756914
0.00074954
0.000743091
0.000737437
0.00073247
0.000728101
0.000724255
0.000720866
0.000717878
0.000715243
0.00071292
0.000710881
0.00070911
0.000707629
0.000706529
0.000706063
0.000706802
0.000709806
0.000716604
0.000728591
0.000756912
0.000749537
0.000743086
0.00073743
0.000732462
0.000728091
0.000724242
0.00072085
0.000717859
0.00071522
0.000712892
0.000710845
0.000709063
0.000707559
0.000706413
0.000705845
0.000706354
0.000708877
0.00071477
0.000725287
0.000756909
0.000749532
0.000743079
0.000737421
0.000732451
0.000728079
0.000724229
0.000720836
0.000717843
0.000715202
0.000712872
0.00071082
0.000709029
0.000707508
0.000706322
0.000705664
0.00070597
0.000708065
0.000713147
0.000722341
0.000756903
0.000749524
0.000743069
0.000737409
0.000732438
0.000728066
0.000724215
0.000720822
0.000717829
0.000715188
0.000712856
0.000710802
0.000709005
0.00070747
0.000706251
0.000705514
0.000705642
0.000707355
0.000711713
0.000719717
0.000756897
0.000749513
0.000743056
0.000737395
0.000732423
0.00072805
0.000724201
0.000720808
0.000717816
0.000715175
0.000712844
0.000710789
0.000708988
0.000707442
0.000706195
0.00070539
0.000705359
0.000706733
0.000710443
0.000717379
0.000756888
0.000749501
0.000743041
0.000737378
0.000732406
0.000728033
0.000724184
0.000720793
0.000717802
0.000715163
0.000712833
0.000710778
0.000708975
0.00070742
0.00070615
0.000705285
0.000705115
0.000706189
0.000709321
0.000715299
0.000756879
0.000749488
0.000743024
0.00073736
0.000732386
0.000728014
0.000724166
0.000720776
0.000717787
0.00071515
0.000712822
0.000710768
0.000708964
0.000707403
0.000706113
0.000705197
0.000704904
0.000705711
0.000708329
0.000713454
0.00075687
0.000749474
0.000743007
0.00073734
0.000732365
0.000727993
0.000724146
0.000720758
0.000717771
0.000715136
0.00071281
0.000710758
0.000708954
0.000707388
0.000706082
0.000705122
0.000704722
0.000705295
0.000707459
0.000711825
0.00075686
0.000749459
0.000742988
0.000737319
0.000732343
0.000727971
0.000724125
0.000720738
0.000717753
0.00071512
0.000712796
0.000710747
0.000708944
0.000707375
0.000706056
0.000705058
0.000704564
0.00070493
0.000706693
0.000710387
0.000756851
0.000749445
0.00074297
0.000737298
0.000732321
0.000727948
0.000724103
0.000720717
0.000717734
0.000715103
0.000712782
0.000710734
0.000708932
0.000707361
0.000706031
0.000705001
0.000704426
0.000704611
0.000706022
0.000709122
0.000756842
0.000749431
0.000742952
0.000737277
0.000732299
0.000727926
0.00072408
0.000720695
0.000717714
0.000715085
0.000712765
0.00071072
0.000708919
0.000707346
0.000706007
0.000704948
0.000704301
0.000704327
0.000705426
0.000708003
0.000756833
0.000749418
0.000742935
0.000737257
0.000732277
0.000727903
0.000724058
0.000720674
0.000717693
0.000715065
0.000712748
0.000710704
0.000708904
0.000707331
0.000705984
0.000704901
0.000704192
0.000704079
0.000704908
0.000707028
0.000756826
0.000749406
0.00074292
0.000737239
0.000732257
0.000727882
0.000724036
0.000720652
0.000717672
0.000715045
0.000712729
0.000710687
0.000708888
0.000707313
0.000705959
0.000704854
0.00070409
0.000703856
0.000704445
0.000706163
0.00075682
0.000749396
0.000742906
0.000737223
0.000732239
0.000727862
0.000724016
0.000720632
0.000717652
0.000715026
0.000712711
0.000710669
0.000708871
0.000707296
0.000705935
0.000704813
0.000704002
0.000703663
0.000704049
0.000705421
0.000756815
0.000749388
0.000742895
0.000737209
0.000732222
0.000727845
0.000723997
0.000720612
0.000717632
0.000715006
0.000712691
0.00071065
0.000708853
0.000707275
0.000705909
0.000704769
0.000703915
0.000703482
0.000703685
0.000704751
0.000756812
0.000749382
0.000742886
0.000737197
0.000732209
0.000727829
0.000723981
0.000720595
0.000717615
0.000714989
0.000712674
0.000710634
0.000708836
0.000707258
0.000705887
0.000704733
0.000703845
0.000703335
0.000703387
0.000704199
0.000756809
0.000749377
0.000742879
0.000737188
0.000732198
0.000727816
0.000723966
0.00072058
0.000717598
0.000714972
0.000712657
0.000710616
0.000708817
0.000707237
0.000705861
0.000704693
0.000703772
0.000703193
0.00070311
0.000703696
0.000756808
0.000749374
0.000742874
0.000737181
0.000732189
0.000727807
0.000723956
0.000720568
0.000717586
0.000714959
0.000712644
0.000710603
0.000708804
0.000707222
0.000705842
0.000704664
0.000703719
0.000703085
0.0007029
0.000703312
0.000756807
0.000749372
0.000742871
0.000737177
0.000732183
0.0007278
0.000723947
0.000720559
0.000717576
0.000714949
0.000712633
0.000710592
0.000708792
0.000707209
0.000705825
0.000704637
0.000703669
0.000702987
0.000702709
0.000702967
0.000756806
0.000749371
0.000742869
0.000737174
0.00073218
0.000727796
0.000723942
0.000720553
0.000717569
0.000714941
0.000712624
0.000710582
0.000708782
0.000707197
0.000705809
0.000704614
0.000703632
0.000702922
0.000702594
0.000702772
0.000756806
0.000749371
0.000742869
0.000737174
0.000732179
0.000727794
0.000723941
0.000720552
0.000717569
0.000714942
0.000712626
0.000710585
0.000708785
0.000707201
0.000705814
0.000704621
0.000703646
0.00070296
0.00070269
0.000702995
0.000756806
0.000749371
0.000742869
0.000737174
0.000732179
0.000727795
0.000723941
0.000720552
0.000717568
0.00071494
0.000712624
0.000710581
0.000708781
0.000707198
0.000705816
0.000704644
0.000703738
0.000703241
0.000703422
0.000704625
1.18844
1.05269
0.95096
0.871647
0.807826
0.75513
0.710675
0.672487
0.639181
0.609761
0.583503
0.559879
0.53851
0.519138
0.501597
0.485804
0.471746
0.459471
0.449088
0.440762
0.43471
0.43117
0.430181
0.431808
0.436134
0.443242
0.453255
0.466333
0.482621
0.502167
0.524842
0.550287
0.577907
0.606916
0.63641
0.665466
0.693227
0.718968
0.742124
0.76231
0.779303
0.793002
0.803388
0.810546
0.814645
0.815856
0.81436
0.81041
0.804215
0.795948
0.785792
0.773932
0.760536
0.745741
0.729731
0.712728
0.694878
0.676263
0.657061
0.637512
0.617702
0.597664
0.57756
0.557618
0.537872
0.518371
0.499187
0.480333
0.461648
0.443057
0.424678
0.406568
0.388596
0.369876
0.350881
0.332925
0.315538
0.294449
0.278052
0.24518
0.167594
0.212218
0.229608
0.233394
0.230189
0.223455
0.215088
0.20615
0.197234
0.188667
0.180618
0.173169
0.166352
0.160178
0.154646
0.149757
0.145514
0.141929
0.139016
0.136789
0.135241
0.134321
0.133933
0.134474
0.135948
0.138319
0.141634
0.145968
0.151392
0.157944
0.165605
0.174282
0.183802
0.193914
0.204312
0.214661
0.224633
0.233935
0.242328
0.249638
0.255758
0.260636
0.264263
0.266671
0.267915
0.268056
0.267147
0.265338
0.262732
0.25937
0.255317
0.250652
0.245462
0.239825
0.233815
0.227531
0.221021
0.214338
0.207526
0.200681
0.193815
0.186959
0.180129
0.17342
0.166812
0.16032
0.153958
0.147727
0.141606
0.135559
0.129666
0.12388
0.118131
0.11231
0.106583
0.100998
0.0953334
0.0895218
0.0835006
0.0772898
0.0667191
0.0839047
0.0955622
0.102635
0.106291
0.107496
0.10699
0.105324
0.102903
0.100024
0.0968988
0.0936825
0.0904861
0.0873903
0.0844538
0.0817204
0.079223
0.0769855
0.0750227
0.0733374
0.0719106
0.0707752
0.0700664
0.0697914
0.0699751
0.0706591
0.0719072
0.0737995
0.0764196
0.0798386
0.0840951
0.0891775
0.0950104
0.101451
0.108296
0.115306
0.122223
0.128806
0.134845
0.140178
0.144694
0.148327
0.151054
0.152884
0.153848
0.153992
0.153373
0.152089
0.150239
0.147856
0.144988
0.141696
0.138044
0.134099
0.129921
0.125576
0.121111
0.116572
0.111999
0.107443
0.102924
0.0984723
0.0941004
0.0898484
0.0857128
0.0817038
0.077827
0.0740813
0.0704615
0.0669565
0.0636006
0.0603646
0.0572034
0.0541113
0.0511704
0.0483239
0.0453894
0.042597
0.0395228
0.037452
0.0434217
0.0503529
0.0561754
0.0605994
0.0636791
0.0655835
0.0665143
0.066669
0.0662208
0.0653162
0.0640769
0.0626029
0.0609756
0.0592606
0.0575111
0.0557689
0.0540682
0.0524341
0.0508818
0.0494369
0.0481499
0.0470527
0.0461745
0.0455501
0.045226
0.0452649
0.0457467
0.0467655
0.04842
0.0507993
0.0539644
0.0579298
0.0626484
0.0680069
0.0738324
0.0799094
0.0860046
0.0918909
0.097368
0.102274
0.106494
0.109952
0.112616
0.114481
0.11557
0.115919
0.115583
0.114636
0.11317
0.111222
0.108839
0.106077
0.102995
0.09965
0.0960996
0.0923989
0.0885944
0.0847312
0.0808479
0.0769841
0.0731662
0.0694207
0.0657651
0.0622221
0.0587975
0.0554999
0.0523339
0.0492998
0.0463969
0.0436219
0.0409884
0.0384829
0.0360841
0.0337914
0.0316428
0.0295954
0.0275533
0.0256454
0.0236639
0.0223488
0.0350225
0.0379216
0.0406876
0.0430468
0.044894
0.0462217
0.0470641
0.0474719
0.0475038
0.0472172
0.046668
0.0459083
0.0449839
0.0439344
0.0427946
0.0415917
0.0403518
0.039103
0.0378769
0.0366997
0.0355954
0.0345931
0.0337281
0.033045
0.0326007
0.0324667
0.0327283
0.0334818
0.0348257
0.036849
0.0396157
0.0431477
0.0474118
0.0523137
0.0577026
0.0633849
0.0691463
0.0747733
0.0800728
0.0848845
0.0890875
0.092601
0.0953806
0.097413
0.0987099
0.0993027
0.0992391
0.0985841
0.0974159
0.0957766
0.0937136
0.0912798
0.0885315
0.0855244
0.0823127
0.0789485
0.0754786
0.0719471
0.0683931
0.064853
0.0613555
0.0579264
0.0545845
0.0513482
0.0482267
0.0452279
0.0423563
0.0396137
0.0370005
0.0345163
0.0321667
0.0299452
0.0278413
0.0258531
0.0239932
0.0222378
0.0205402
0.0189596
0.0174076
0.0162222
0.0315392
0.0324538
0.0335065
0.0345128
0.0353642
0.0360079
0.0364256
0.0366189
0.036601
0.0363921
0.0360137
0.0354865
0.0348315
0.0340689
0.033218
0.0323
0.0313339
0.0303381
0.0293331
0.0283414
0.0273888
0.0265065
0.0257332
0.0251172
0.0247177
0.0246055
0.0248614
0.0255732
0.02683
0.0287127
0.031282
0.0345644
0.0385398
0.0431337
0.0482193
0.0536276
0.059165
0.064633
0.0698465
0.0746464
0.0789076
0.082541
0.085492
0.0877367
0.0892768
0.0901354
0.0903533
0.0899876
0.0891064
0.0877513
0.0859691
0.0838115
0.0813331
0.0785883
0.0756302
0.0725101
0.0692752
0.0659695
0.0626327
0.0593008
0.0560038
0.0527672
0.0496112
0.0465528
0.0436028
0.0407689
0.0380563
0.0354674
0.0330036
0.0306657
0.0284563
0.0263724
0.0244081
0.0225595
0.0208283
0.0192018
0.0176571
0.0162175
0.0148459
0.0136848
0.0303831
0.0300934
0.0300404
0.0300971
0.0301725
0.0302075
0.0301672
0.0300332
0.0297985
0.0294629
0.0290305
0.0285075
0.0279019
0.0272224
0.0264787
0.0256818
0.0248437
0.0239784
0.0231027
0.0222371
0.021407
0.0206441
0.019987
0.0194826
0.0191853
0.0191577
0.019469
0.0201932
0.0214061
0.0231784
0.0255675
0.0286047
0.032284
0.0365531
0.0413122
0.0464196
0.051706
0.0569908
0.0620989
0.0668738
0.0711869
0.0749407
0.07807
0.080539
0.0823382
0.0834805
0.083998
0.0839399
0.0833641
0.0823091
0.0808197
0.0789454
0.0767391
0.0742539
0.0715423
0.0686552
0.06564
0.062541
0.0593986
0.0562492
0.0531235
0.0500475
0.0470421
0.0441246
0.0413064
0.0385957
0.0359982
0.0335172
0.0311548
0.0289125
0.0267924
0.024793
0.0229105
0.0211399
0.0194785
0.0179197
0.0164508
0.0150795
0.0137886
0.0126345
0.0306424
0.0294875
0.0286191
0.0279433
0.0273842
0.0268851
0.0264059
0.0259199
0.02541
0.0248659
0.0242822
0.0236567
0.0229893
0.0222822
0.0215392
0.0207658
0.0199705
0.0191641
0.0183617
0.0175826
0.0168511
0.016197
0.0156556
0.015267
0.0150764
0.0151336
0.0154928
0.0162128
0.017355
0.0189803
0.0211421
0.0238764
0.0271914
0.0310576
0.0354038
0.0401191
0.0450621
0.0500743
0.0549947
0.0596727
0.0639782
0.0678069
0.0710828
0.0737578
0.0758099
0.0772401
0.0780696
0.0783385
0.0780938
0.0773684
0.0762029
0.0746435
0.0727403
0.0705444
0.0681073
0.0654791
0.0627073
0.0598362
0.0569065
0.0539552
0.0510139
0.0481088
0.0452618
0.0424906
0.0398072
0.0372207
0.0347373
0.0323612
0.0300952
0.0279417
0.0259027
0.0239779
0.0221642
0.0204564
0.0188499
0.0173416
0.0159226
0.014595
0.0133483
0.0122046
0.031893
0.0300499
0.0285221
0.0272369
0.0261305
0.0251509
0.0242571
0.023419
0.0226142
0.021827
0.0210464
0.0202651
0.0194787
0.0186852
0.017885
0.0170812
0.0162802
0.0154914
0.0147288
0.0140104
0.0133583
0.0127981
0.0123585
0.0120704
0.0119667
0.0120831
0.0124588
0.0131376
0.0141674
0.0155989
0.0174803
0.0198503
0.0227285
0.0261066
0.0299417
0.034155
0.0386368
0.0432556
0.0478697
0.0523396
0.0565381
0.0603568
0.063711
0.0665409
0.0688112
0.0705099
0.0716456
0.0722478
0.0723511
0.0719806
0.0711702
0.069961
0.0683989
0.066532
0.0644095
0.0620802
0.0595908
0.056985
0.054304
0.051585
0.0488597
0.0461553
0.0434941