/*--------------------------------*- C++ -*----------------------------------*\
| =========                 |                                                 |
| \\      /  F ield         | OpenFOAM: The Open Source CFD Toolbox           |
|  \\    /   O peration     | Version:  2.4.0                                 |
|   \\  /    A nd           | Web:      www.OpenFOAM.org                      |
|    \\/     M anipulation  |                                                 |
\*---------------------------------------------------------------------------*/
FoamFile
{
    version     2.0;
    format      ascii;
    class       volScalarField;
    location    "3.8";
    object      epsilon;
}
// * * * * * * * * * * * * * * * * * * * * * * * * * * * * * * * * * * * * * //

dimensions      [0 2 -3 0 0 0 0];

internalField   nonuniform List<scalar> 
6000
(
1.43565
0.154219
0.00815867
0.00905402
0.0067658
0.00719139
0.00644033
0.00628684
0.00581225
0.00594746
0.00674177
0.00962955
0.0139588
0.0200667
0.0252571
0.0269566
0.0255328
0.0134477
0.00365846
0.0158764
0.0499841
0.0839715
0.107444
0.128469
0.145992
0.161978
0.176217
0.18922
0.200962
0.211589
0.221368
0.230497
0.238798
0.246367
0.253378
0.259937
0.266194
0.272273
0.277883
0.283245
0.288362
0.293469
0.298463
0.303569
0.309241
0.313644
0.322618
0.317444
0.33132
0.342575
0.357762
0.387235
0.392059
0.451802
0.472676
0.578891
0.622866
0.802688
0.907895
1.36738
0.543506
0.160691
0.0127274
0.00249012
0.00226526
0.00232776
0.00217362
0.00210367
0.00203415
0.00217568
0.00265349
0.00386719
0.00575423
0.00823056
0.0106513
0.0118414
0.012232
0.00697527
0.00280865
0.0110635
0.0267188
0.0394613
0.0485
0.0566048
0.0634384
0.0696088
0.0750656
0.0799568
0.0843286
0.0882215
0.0917376
0.0949379
0.0977959
0.100372
0.102751
0.105011
0.10726
0.109444
0.111533
0.113612
0.115731
0.117938
0.120349
0.12289
0.125983
0.128746
0.133521
0.133075
0.14014
0.142446
0.146665
0.149906
0.151412
0.160585
0.167645
0.181809
0.197126
0.215554
0.252403
0.298856
0.392252
0.154511
0.0250848
0.00250634
0.00174295
0.00160843
0.00148332
0.00141262
0.00138587
0.0015056
0.00189766
0.00280297
0.00422809
0.00607897
0.0079527
0.00905181
0.00959393
0.00576636
0.00302318
0.0109047
0.0223234
0.0310702
0.037588
0.0433813
0.0482694
0.0526618
0.0565242
0.0599681
0.0630235
0.0657365
0.0681659
0.0703471
0.0722877
0.0740359
0.0756511
0.0771853
0.0786943
0.0801557
0.0815811
0.0830197
0.0845219
0.086107
0.0879044
0.0897969
0.0922005
0.0943564
0.0980309
0.0982211
0.103719
0.104465
0.106781
0.106135
0.106381
0.108368
0.110961
0.113783
0.118834
0.120604
0.131764
0.139482
0.350122
0.155796
0.0384396
0.00465682
0.00195589
0.00155329
0.00136737
0.0012634
0.00123438
0.00133361
0.00168448
0.0024753
0.0037157
0.00531976
0.00697712
0.00801393
0.00850729
0.00529558
0.00337037
0.0111882
0.0208306
0.028053
0.0336878
0.038647
0.0428434
0.0465959
0.0498888
0.0528175
0.0554066
0.057703
0.0597503
0.0615762
0.0631994
0.0646616
0.0660081
0.06728
0.068516
0.0697096
0.0708844
0.0720732
0.0733238
0.0746452
0.0761629
0.0777518
0.0798209
0.0816523
0.0847883
0.0852094
0.0900003
0.0902799
0.0919553
0.0901625
0.0898871
0.089574
0.0904804
0.0902253
0.0918611
0.0897371
0.0939961
0.0935041
0.339201
0.156725
0.0492522
0.00895098
0.00259931
0.00173688
0.0014382
0.00128169
0.00123558
0.00131366
0.00163467
0.00236368
0.00350529
0.0049826
0.0065364
0.00751176
0.00791031
0.00506025
0.00371127
0.0115497
0.0201456
0.0266409
0.0319003
0.0364893
0.040385
0.0438538
0.0468963
0.0495987
0.0519845
0.0540997
0.055981
0.0576536
0.0591415
0.0604814
0.06171
0.0628626
0.0639699
0.0650357
0.0660877
0.0671495
0.0682665
0.0694418
0.0707954
0.0722025
0.0740651
0.0756804
0.0784948
0.0790378
0.0834051
0.08352
0.0848841
0.0826101
0.0820457
0.0805558
0.080639
0.0790543
0.0791629
0.0754931
0.0770402
0.0743052
0.336085
0.156355
0.0579119
0.0144
0.00376511
0.00210729
0.00162342
0.00138925
0.00131274
0.00136666
0.00166016
0.00234811
0.00342773
0.00483164
0.0063345
0.00724797
0.00753989
0.00494759
0.00402897
0.0118526
0.0197792
0.0259091
0.0310178
0.0354464
0.0392178
0.0425641
0.0454996
0.0481055
0.0504057
0.0524454
0.0542571
0.0558658
0.0572978
0.0585864
0.0597632
0.0608592
0.0619015
0.0629002
0.0638847
0.0648728
0.0659079
0.0669888
0.06823
0.0695103
0.071224
0.0726706
0.0752591
0.0758735
0.0799205
0.0799862
0.0811524
0.0786246
0.0778299
0.0755966
0.0751459
0.0728363
0.0720425
0.0675484
0.0678164
0.0641121
0.33498
0.155237
0.0646479
0.0202667
0.00564132
0.00268441
0.00191465
0.0015694
0.00144613
0.00147086
0.00173369
0.00238709
0.00342437
0.00478273
0.0062629
0.00712504
0.00731461
0.00492344
0.00431847
0.0120893
0.0195634
0.0255206
0.0305985
0.0349821
0.0387261
0.0420388
0.0449465
0.0475273
0.0498064
0.0518283
0.0536231
0.0552164
0.0566351
0.05791
0.0590696
0.0601424
0.061153
0.0621162
0.0630612
0.0640023
0.0649815
0.0659939
0.0671488
0.0683295
0.0699231
0.0712259
0.073635
0.0742848
0.0780474
0.0781088
0.0791209
0.0764305
0.0754175
0.0726403
0.0718003
0.0689807
0.0675972
0.0625843
0.0621174
0.0578558
0.334497
0.15333
0.0696416
0.026018
0.00832201
0.00352618
0.0023248
0.00182201
0.00162859
0.00161794
0.00184569
0.00246723
0.00346924
0.00479901
0.00627135
0.00709847
0.00721159
0.00497728
0.00458371
0.0122708
0.0194269
0.0253225
0.0304405
0.0348501
0.0386272
0.0419621
0.0448914
0.0474915
0.0497897
0.0518296
0.0536401
0.0552473
0.0566785
0.0579625
0.0591255
0.0601938
0.0611905
0.0621341
0.0630532
0.0639602
0.0648959
0.0658523
0.0669343
0.0680303
0.0695205
0.0706971
0.0729479
0.0736014
0.0770982
0.0771676
0.0780365
0.0752206
0.0739938
0.0707659
0.0696245
0.0663828
0.0645856
0.0592006
0.0582602
0.0536273
0.334279
0.151311
0.0731771
0.0313794
0.0116745
0.00471385
0.00287918
0.0021561
0.00186247
0.00180694
0.00199241
0.00258071
0.00355274
0.00486243
0.00633857
0.00715242
0.00720961
0.00510979
0.00483625
0.0124113
0.0193349
0.025235
0.0304375
0.0349191
0.0387692
0.0421637
0.0451481
0.0477979
0.0501422
0.0522246
0.0540729
0.0557141
0.0571751
0.0584831
0.059663
0.060739
0.0617334
0.0626675
0.0635687
0.0644483
0.0653467
0.0662525
0.0672662
0.0682811
0.0696713
0.0707229
0.0728242
0.0734538
0.0767003
0.0767722
0.0775017
0.0745695
0.0731302
0.0695029
0.0681147
0.064491
0.0623884
0.056714
0.0554521
0.0505507
0.334247
0.149387
0.075492
0.0361589
0.0154518
0.0063376
0.00361266
0.00258675
0.00215528
0.00203976
0.0021744
0.00272526
0.00366841
0.00496377
0.00645211
0.00728106
0.00731288
0.00532677
0.00509384
0.0125243
0.0192688
0.0252124
0.0305255
0.0351138
0.0390672
0.0425492
0.0456132
0.0483346
0.0507446
0.0528864
0.0547878
0.0564763
0.0579782
0.0593196
0.0605244
0.0616157
0.0626148
0.063545
0.0644325
0.0652878
0.0661514
0.0670088
0.0679558
0.0688913
0.0701837
0.0711124
0.0730578
0.0736351
0.0766255
0.0766868
0.0772796
0.0742289
0.0725775
0.0685845
0.0669834
0.062998
0.0606619
0.0547549
0.0532678
0.0481682
0.334305
0.147583
0.0768439
0.0402375
0.0194225
0.00843807
0.00456752
0.00313449
0.0025179
0.00232059
0.00239446
0.0029012
0.00381414
0.00509829
0.00660516
0.00748004
0.00751991
0.00563585
0.00537857
0.0126216
0.0192186
0.0252261
0.0306697
0.0353865
0.0394636
0.0430535
0.0462153
0.0490248
0.051515
0.0537292
0.055695
0.0574405
0.0589917
0.0603734
0.0616087
0.0627202
0.0637282
0.0646573
0.0655327
0.0663641
0.0671929
0.0680015
0.0688807
0.0697353
0.0709294
0.0717353
0.0735175
0.0740171
0.0767408
0.0767713
0.0772206
0.0740427
0.0721795
0.0678473
0.0660534
0.0617182
0.0591998
0.0531053
0.0514587
0.0462177
0.33446
0.146001
0.0773079
0.0435369
0.0233805
0.0109932
0.00578998
0.0038246
0.00296478
0.00265543
0.00265714
0.00311054
0.00398982
0.0052639
0.00679418
0.00774584
0.00782813
0.00604383
0.00571334
0.0127143
0.0191789
0.0252591
0.0308426
0.0357037
0.0399202
0.0436336
0.0469076
0.0498178
0.0523994
0.0546957
0.0567347
0.0585443
0.0601507
0.0615775
0.0628473
0.0639818
0.065001
0.0659301
0.066793
0.0675992
0.0683913
0.069149
0.0699576
0.070728
0.0718217
0.0725035
0.0741126
0.0745104
0.0769586
0.0769349
0.0772275
0.0739072
0.0718334
0.0671858
0.0652092
0.0605334
0.0578711
0.0516279
0.0498703
0.044538
0.334716
0.144696
0.0771969
0.0460365
0.0271353
0.0139252
0.00732344
0.004686
0.00351344
0.00305267
0.00296856
0.00335664
0.00419676
0.00546016
0.00701754
0.00807484
0.00823265
0.00655519
0.00611646
0.0128126
0.0191472
0.0252999
0.0310267
0.0360426
0.0404101
0.0442591
0.0476563
0.0506773
0.0533592
0.0557452
0.0578638
0.0597432
0.0614091
0.0628843
0.0641908
0.0653501
0.0663812
0.06731
0.0681591
0.0689375
0.0696901
0.0703935
0.0711273
0.0718088
0.0727991
0.0733549
0.0747797
0.0750533
0.0772168
0.0771131
0.0772374
0.0737507
0.0714689
0.066529
0.0643727
0.059365
0.056589
0.0502324
0.0484018
0.0430252
0.335027
0.143662
0.0768219
0.0477989
0.0305252
0.017122
0.00918942
0.00574955
0.00418329
0.00352585
0.00333513
0.00364411
0.00443735
0.00568782
0.00727483
0.00846305
0.00872632
0.007172
0.00660029
0.012926
0.0191231
0.0253406
0.0312094
0.0363863
0.0409131
0.0449071
0.0484365
0.0515763
0.0543654
0.0568471
0.0590504
0.0610035
0.0627321
0.0642579
0.0656026
0.0667872
0.0678302
0.0687575
0.0695907
0.0703381
0.0710472
0.0716922
0.0723462
0.0729332
0.0738163
0.0742443
0.0754729
0.0756014
0.0774725
0.0772614
0.0772045
0.0735224
0.0710369
0.065828
0.0634897
0.0581595
0.0552941
0.048857
0.0469851
0.0416093
0.335372
0.142925
0.0760675
0.0488358
0.0334127
0.0204476
0.0113857
0.00704533
0.00499692
0.00409075
0.00376487
0.00397875
0.004715
0.00594848
0.00756641
0.00890603
0.00929996
0.00789482
0.00717203
0.0130643
0.0191077
0.0253765
0.0313819
0.0367226
0.0414142
0.0455603
0.0492287
0.0524937
0.0553955
0.0579777
0.0602695
0.0622994
0.0640928
0.0656707
0.0670542
0.0682642
0.0693182
0.0702423
0.0710569
0.0717695
0.0724306
0.0730127
0.0735813
0.0740671
0.0748395
0.0751372
0.076159
0.0761225
0.0776961
0.0773436
0.0770961
0.0731868
0.070503
0.0650486
0.0625218
0.0568802
0.0539452
0.0474592
0.045573
0.0402416
0.335732
0.14246
0.0751666
0.0492398
0.0357125
0.0237548
0.0138864
0.00859845
0.00597894
0.00476575
0.00426762
0.00436772
0.00503406
0.00624451
0.00789321
0.00939906
0.00994474
0.00872114
0.00783497
0.0132369
0.0191032
0.0254051
0.031538
0.0370418
0.0419014
0.0462048
0.0500176
0.0534128
0.0564318
0.059118
0.0615014
0.0636103
0.06547
0.0671007
0.0685231
0.0697579
0.0708216
0.0717405
0.0725336
0.0732073
0.0738158
0.07433
0.0748073
0.0751849
0.0758428
0.0760074
0.0768137
0.0765931
0.0778669
0.0773446
0.0768873
0.0727222
0.0698433
0.0641676
0.0614409
0.0555026
0.0525136
0.0460088
0.0441327
0.038888
0.336085
0.142298
0.0742297
0.0491533
0.0373698
0.0268931
0.0166446
0.0104261
0.00715445
0.00557168
0.00485526
0.00481961
0.00539993
0.00657903
0.00825661
0.00993735
0.0106568
0.00964155
0.00858982
0.0134534
0.0191124
0.0254254
0.0316734
0.037337
0.0423655
0.0468296
0.0507907
0.05432
0.0574595
0.0602527
0.0627299
0.0649193
0.0668463
0.0685301
0.0699912
0.0712497
0.0723216
0.0732329
0.0740017
0.0746322
0.0751831
0.0756246
0.0760045
0.0762668
0.0768058
0.0768347
0.0774194
0.0769973
0.077967
0.0772437
0.0765614
0.0721137
0.0690444
0.0631663
0.0602261
0.0540116
0.050979
0.0444857
0.0426413
0.0375237
0.336418
0.142365
0.0733189
0.0488125
0.038441
0.0297127
0.0195903
0.0125341
0.00854689
0.00653002
0.00554333
0.00534434
0.00581914
0.00695591
0.00865867
0.010516
0.0114317
0.0106472
0.00943567
0.013723
0.0191402
0.0254379
0.0317855
0.0376028
0.0427992
0.0474257
0.0515378
0.0552041
0.0584667
0.0613689
0.0639415
0.0662124
0.0682072
0.0699442
0.0714433
0.0727246
0.0738028
0.0747041
0.0754456
0.0760288
0.0765173
0.0768811
0.0771577
0.077298
0.0777128
0.0776038
0.0779638
0.0773239
0.0779907
0.07703
0.0761076
0.0713521
0.0680996
0.0620308
0.0588615
0.0524003
0.0493275
0.042877
0.0410836
0.0361311
0.336721
0.142583
0.0725015
0.0481014
0.0389129
0.0320844
0.0226264
0.0149153
0.0101771
0.0076619
0.00635128
0.00595295
0.00629948
0.00737991
0.00910223
0.01113
0.0122653
0.0117299
0.0103707
0.0140547
0.0191929
0.0254444
0.0318733
0.0378354
0.0431966
0.0479857
0.0522505
0.0560558
0.0594432
0.0624559
0.0651249
0.067478
0.0695408
0.0713306
0.072867
0.0741697
0.0752523
0.0761414
0.0768528
0.0773848
0.0778061
0.0780874
0.0782551
0.0782665
0.0785523
0.0783034
0.0784376
0.0775654
0.0779306
0.0766966
0.0755196
0.070433
0.0670058
0.0607523
0.0573345
0.0506689
0.0475488
0.041177
0.0394499
0.0346979
0.336979
0.143025
0.0718285
0.0471834
0.0388185
0.0338978
0.0256269
0.0175482
0.0120607
0.00898849
0.0072999
0.00665886
0.00685017
0.00785675
0.00958921
0.0117765
0.0131537
0.0128822
0.0113926
0.0144567
0.0192765
0.0254479
0.0319368
0.0380325
0.0435534
0.048504
0.0529218
0.056867
0.0603805
0.0635046
0.0662706
0.068706
0.0708368
0.0726789
0.0742517
0.0755746
0.0766598
0.0775344
0.0782132
0.0786904
0.0790398
0.0792343
0.0792877
0.0791635
0.079316
0.0789254
0.0788343
0.0777156
0.0777821
0.0762389
0.0747949
0.0693562
0.0657633
0.0593261
0.0556458
0.0488125
0.0456354
0.0393862
0.0377348
0.0332157
0.33719
0.143601
0.0713412
0.0461468
0.0384262
0.0351299
0.0284586
0.0203921
0.0142055
0.0105309
0.00840921
0.00747825
0.00748198
0.00839334
0.0101214
0.0124536
0.0140938
0.0140977
0.012499
0.0149363
0.0193979
0.0254523
0.0319774
0.0381929
0.0438665
0.0489757
0.0535459
0.0576313
0.0612712
0.0645072
0.0673703
0.0698882
0.0720865
0.0739804
0.0755887
0.0769304
0.0780163
0.0788743
0.0795185
0.0799375
0.080211
0.0803147
0.0802488
0.079982
0.0799984
0.079464
0.0791492
0.0777738
0.0775447
0.0756551
0.0739335
0.0681247
0.0643744
0.0577505
0.0537995
0.0468299
0.0435917
0.0375006
0.035936
0.03168
0.337348
0.144284
0.0710209
0.04507
0.0376036
0.0356161
0.0309691
0.0233866
0.0166109
0.0123073
0.00969954
0.00842895
0.00820734
0.00899795
0.0107018
0.0131599
0.015083
0.0153709
0.0136875
0.0155
0.0195651
0.0254627
0.0319975
0.0383166
0.0441339
0.0493975
0.0541181
0.0583431
0.0621092
0.065457
0.0684172
0.0710171
0.0732826
0.0752276
0.0768704
0.0782298
0.0793147
0.0801542
0.0807618
0.0811201
0.0813138
0.0813232
0.0811335
0.0807178
0.0805954
0.0799141
0.079378
0.0777434
0.0772161
0.07495
0.0729378
0.0667442
0.0628437
0.0560265
0.0518016
0.044724
0.0414246
0.0355209
0.0340539
0.0300892
0.337458
0.145032
0.070965
0.0440295
0.036514
0.0354819
0.0328901
0.0264608
0.0192654
0.0143306
0.0111912
0.00952947
0.00904033
0.00968039
0.0113352
0.0138983
0.016113
0.0166995
0.014956
0.016154
0.0197864
0.0254849
0.0320007
0.0384046
0.0443547
0.0497667
0.0546348
0.058998
0.0628895
0.0663485
0.0694053
0.0720866
0.0744187
0.0764141
0.0780906
0.0794665
0.0805489
0.0813683
0.0819378
0.0822334
0.0823439
0.0822562
0.0819384
0.0813679
0.0811044
0.0802733
0.0795162
0.0776222
0.0767952
0.0741313
0.0718115
0.0652227
0.0611774
0.0541576
0.0496602
0.0425008
0.0391432
0.0334516
0.0320924
0.0284441
0.337516
0.14582
0.0710487
0.0430713
0.0352438
0.034972
0.034116
0.0294187
0.0221416
0.0166049
0.012902
0.010799
0.00999544
0.0104531
0.0120276
0.0146725
0.017177
0.0180813
0.0163028
0.0169039
0.0200706
0.0255261
0.0319915
0.0384592
0.0445289
0.0500819
0.0550933
0.0595922
0.0636078
0.0671771
0.0703296
0.0730916
0.0754895
0.0775345
0.0792439
0.0806354
0.0817139
0.0825119
0.0830421
0.0832737
0.0832982
0.083111
0.0826609
0.0819312
0.0815232
0.080541
0.0795647
0.0774125
0.0762819
0.0732065
0.0705592
0.0635708
0.0593824
0.0521493
0.0473851
0.0401697
0.0367591
0.0313009
0.0300578
0.0267476
0.337522
0.146618
0.0712819
0.0422279
0.0338949
0.033965
0.0346171
0.0318888
0.0251972
0.0191229
0.0148452
0.0122563
0.0110881
0.0113299
0.0127874
0.0154867
0.0182699
0.0195137
0.0177262
0.0177542
0.0204277
0.0255937
0.0319755
0.0384835
0.0446578
0.0503426
0.0554917
0.0601232
0.0642607
0.0679388
0.0711859
0.0740276
0.0764906
0.0785845
0.0803259
0.0817323
0.0828057
0.0835811
0.0840714
0.0842382
0.084175
0.0838856
0.0833002
0.0824071
0.0818511
0.0807178
0.0795246
0.0771171
0.0756772
0.0721836
0.0691856
0.0618004
0.0574669
0.050009
0.0449879
0.0377425
0.0342865
0.0290798
0.0279594
0.025005
0.337506
0.147398
0.0717196
0.0415316
0.0325367
0.0326976
0.0344973
0.0336443
0.0282867
0.0218604
0.0170259
0.0139188
0.0123351
0.0123229
0.0136263
0.0163455
0.0193877
0.0209947
0.0192252
0.0187071
0.0208703
0.0256961
0.0319594
0.0384818
0.0447434
0.0505491
0.0558293
0.060589
0.0648456
0.0686306
0.0719708
0.0748911
0.0774182
0.0795601
0.081333
0.0827536
0.0838211
0.084573
0.085023
0.0851253
0.0849729
0.084579
0.0838566
0.082796
0.0820878
0.080803
0.0793942
0.0767397
0.0749826
0.0710704
0.0676955
0.0599258
0.0554389
0.0477461
0.0424821
0.035234
0.0317419
0.0268027
0.0258091
0.0232235
0.337464
0.148143
0.0722887
0.0410006
0.0312145
0.0312931
0.0339115
0.0348606
0.0311055
0.0247694
0.0194388
0.0158003
0.0137548
0.0134416
0.0145598
0.0172541
0.0205275
0.0225172
0.0208052
0.0197648
0.0214092
0.0258435
0.0319509
0.0384597
0.044789
0.0507028
0.0561058
0.0609886
0.0653607
0.0692501
0.0726816
0.075679
0.0782692
0.0804585
0.0822622
0.0836967
0.0847576
0.0854854
0.085895
0.085934
0.0856909
0.085191
0.0843308
0.0830992
0.0822334
0.0808046
0.0791759
0.0762825
0.0741996
0.069875
0.0660926
0.0579625
0.0533067
0.0453717
0.039883
0.0326611
0.0291448
0.024487
0.0236213
0.0214127
0.337395
0.14883
0.0729797
0.0406302
0.02995
0.029794
0.0326398
0.0356163
0.033388
0.0277869
0.0220657
0.0179085
0.015363
0.0146978
0.0156031
0.0182186
0.0216896
0.0240772
0.0224663
0.0209322
0.022053
0.0260486
0.0319582
0.038423
0.0447987
0.050806
0.0563222
0.0613215
0.0658049
0.0697957
0.0733163
0.0763891
0.0790413
0.0812772
0.0831113
0.0845594
0.0856132
0.0863164
0.086686
0.0866639
0.0863283
0.0857224
0.0847241
0.0833186
0.0822906
0.0807212
0.0788731
0.0757482
0.0733294
0.0686055
0.0643802
0.0559278
0.0510786
0.0428986
0.0372078
0.0300433
0.0265174
0.0221529
0.0214124
0.0195848
0.337314
0.149448
0.0737545
0.0404576
0.0287972
0.0282212
0.0308714
0.0357115
0.0350657
0.0307584
0.0248693
0.0202417
0.0171727
0.0161039
0.0167696
0.0192481
0.0228767
0.0256715
0.0242055
0.0222157
0.0228079
0.0263257
0.0319908
0.0383795
0.0447777
0.0508619
0.0564801
0.0615884
0.0661778
0.0702665
0.0738735
0.0770197
0.0797328
0.0820143
0.0838784
0.0853401
0.0863865
0.087065
0.0873951
0.0873151
0.0868851
0.0861745
0.0850379
0.0834557
0.0822645
0.0805552
0.0784888
0.0751395
0.0723751
0.0672679
0.0625607
0.0538395
0.0487622
0.0403414
0.0344755
0.0274024
0.0238846
0.019824
0.0191998
0.0177563
0.337234
0.149986
0.0745834
0.0404893
0.0277876
0.026619
0.0289892
0.0352185
0.0362865
0.0334114
0.0277926
0.0227856
0.0191922
0.0176724
0.0180707
0.0203546
0.0240937
0.0272953
0.0260188
0.0236236
0.023678
0.0266913
0.0320593
0.0383375
0.044732
0.0508747
0.0565819
0.0617905
0.0664798
0.0706619
0.0743523
0.0775698
0.0803422
0.0826686
0.0845622
0.0860378
0.0870767
0.0877304
0.088022
0.0878874
0.0873622
0.0865484
0.0852743
0.0835132
0.0821562
0.0803093
0.0780265
0.0744594
0.0713424
0.0658649
0.0606491
0.0517017
0.046365
0.0377165
0.0317069
0.0247627
0.0212747
0.0175267
0.017003
0.0159469
0.337162
0.150439
0.0754407
0.0406368
0.0269511
0.0250395
0.02708
0.0339313
0.0370705
0.035521
0.0307729
0.0255105
0.0214227
0.019415
0.0195129
0.0215534
0.0253424
0.0289472
0.0278994
0.0251673
0.0246635
0.0271649
0.0321747
0.0383062
0.0446688
0.0508495
0.0566311
0.0619297
0.0667118
0.0709824
0.0747526
0.0780388
0.0808689
0.0832391
0.0851621
0.0866517
0.0876833
0.0883123
0.0885669
0.088381
0.0877607
0.0868456
0.0854353
0.0834963
0.0819689
0.0799864
0.0774894
0.0737107
0.0702365
0.0643989
0.0586578
0.0495202
0.0438946
0.0350422
0.0289247
0.0221509
0.0187186
0.0152898
0.0148546
0.0141707
0.337107
0.15081
0.0762894
0.040963
0.0262886
0.0235219
0.0251816
0.0318595
0.037233
0.0370943
0.0336178
0.028365
0.0238552
0.0213434
0.0210941
0.0228641
0.0266253
0.0306255
0.0298411
0.0268538
0.0257727
0.0277621
0.032348
0.0382961
0.0445963
0.0507921
0.0566317
0.0620088
0.0668755
0.0712289
0.0750746
0.0784267
0.0813126
0.0837257
0.0856775
0.0871816
0.0882062
0.0888107
0.0890301
0.0887962
0.0880821
0.0870678
0.0855218
0.0834062
0.081706
0.0795896
0.0768809
0.0728962
0.0690621
0.0628722
0.0565975
0.0473015
0.041359
0.0323387
0.0261535
0.0195959
0.0162504
0.0131445
0.0127909
0.0124453
0.337073
0.151095
0.077107
0.0414255
0.0258525
0.0221175
0.0233434
0.0292712
0.0368163
0.0383153
0.0360587
0.0312807
0.0264669
0.0234619
0.022812
0.0243042
0.0279464
0.032326
0.0318386
0.0286877
0.0270162
0.0284925
0.0325958
0.0383178
0.0445235
0.0507094
0.0565892
0.0620314
0.0669733
0.0714028
0.0753194
0.0787338
0.0816736
0.0841281
0.0861084
0.0876276
0.0886456
0.089226
0.0894122
0.0891338
0.0883277
0.0872168
0.0855388
0.0832459
0.081371
0.079122
0.076204
0.0720186
0.0678236
0.0612868
0.0544779
0.0450522
0.0387676
0.0296278
0.0234196
0.0171292
0.0139065
0.0111251
0.0108515
0.0107906
0.337076
0.151317
0.077863
0.0420188
0.0255569
0.0208468
0.0216061
0.0263184
0.0356395
0.0390751
0.0379814
0.0341591
0.0292182
0.0257646
0.0246683
0.0258793
0.0293152
0.0340411
0.0338892
0.0306701
0.0284056
0.0293639
0.0329365
0.0383837
0.0444604
0.0506094
0.0565087
0.0620019
0.0670081
0.0715061
0.0754883
0.0789612
0.0819523
0.084447
0.0864553
0.0879901
0.089002
0.0895588
0.089714
0.0893946
0.088499
0.0872929
0.0854876
0.0830183
0.0809674
0.0785865
0.0754619
0.0710802
0.0665245
0.0596443
0.0523075
0.0427776
0.0361312
0.0269332
0.0207513
0.0147841
0.011725
0.0092682
0.00907968
0.00922758
0.337097
0.151481
0.0785456
0.0426815
0.0255451
0.0197478
0.0200356
0.0236555
0.0332598
0.0391421
0.0394091
0.0368021
0.032051
0.0282343
0.0266603
0.0275908
0.0307427
0.0357587
0.0359938
0.0327962
0.0299534
0.0303818
0.0333909
0.038507
0.0444178
0.0505006
0.0563973
0.0619248
0.0669837
0.0715416
0.0755831
0.0791101
0.0821499
0.084683
0.0867186
0.0882697
0.0892763
0.0898098
0.0899364
0.0895794
0.0885967
0.0873008
0.08537
0.0827264
0.0804987
0.0779861
0.0746574
0.0700832
0.0651677
0.0579464
0.0500944
0.0404825
0.0334624
0.0242796
0.0181785
0.0125957
0.00974427
0.00761302
0.00750057
0.00779658
0.337144
0.151603
0.0791332
0.0434069
0.0256282
0.0188103
0.018617
0.0212786
0.0301066
0.0385849
0.040478
0.0389616
0.0348969
0.0308377
0.0287801
0.0294342
0.0322414
0.0374652
0.0381474
0.0350575
0.0316737
0.0315472
0.0339828
0.0387007
0.0444073
0.0503925
0.0562623
0.0618059
0.0669042
0.0715125
0.0756063
0.0791825
0.0822677
0.0848373
0.0868994
0.0884674
0.0894693
0.08998
0.0900803
0.0896887
0.0886235
0.0872409
0.0851881
0.0823729
0.0799679
0.0773234
0.0737929
0.0690293
0.0637557
0.0561945
0.0478461
0.0381703
0.0307766
0.0216926
0.0157336
0.0105993
0.00800115
0.00619747
0.00613965
0.00653932
0.337224
0.151696
0.0796206
0.0441629
0.0258538
0.0181086
0.0172377
0.0191698
0.0264906
0.0371444
0.0410165
0.0406204
0.0375997
0.0335214
0.0310125
0.031397
0.033825
0.0391456
0.0403394
0.0374397
0.0335807
0.0328586
0.0347385
0.0389784
0.044441
0.0502953
0.0561117
0.0616515
0.0667742
0.0714223
0.0755608
0.0791803
0.0823073
0.0849111
0.0869985
0.0885839
0.0895819
0.09007
0.0901464
0.089724
0.0885812
0.0871147
0.0849437
0.0819602
0.0793782
0.0766011
0.0728709
0.0679202
0.0622902
0.0543899
0.0455693
0.0358437
0.0280922
0.0191987
0.0134505
0.00882859
0.00652725
0.00505334
0.00502566
0.00549681
0.337324
0.151783
0.0800006
0.0449097
0.0262498
0.017666
0.0159773
0.0172862
0.0228419
0.0345901
0.0408368
0.0418756
0.0399377
0.0362124
0.0333337
0.0334559
0.0354995
0.0407879
0.0425575
0.0399183
0.0356809
0.0343324
0.0356667
0.0393595
0.0445323
0.0502198
0.0559544
0.0614685
0.0665991
0.0712749
0.0754495
0.0791062
0.0822709
0.0849063
0.0870177
0.0886209
0.0896158
0.0900821
0.0901373
0.0896871
0.0884703
0.0869237
0.0846386
0.0814906
0.0787323
0.0758215
0.0718935
0.0667569
0.0607726
0.0525336
0.0432707
0.0335052
0.0254305
0.0168241
0.0113643
0.00731285
0.00534394
0.0042004
0.00418438
0.00470937
0.337441
0.151876
0.0802714
0.0456186
0.0267439
0.0174339
0.014883
0.0156343
0.0197518
0.0309106
0.039912
0.0426848
0.0417494
0.038829
0.0357116
0.0355711
0.0372544
0.0423884
0.0447861
0.0424581
0.0379785
0.0359845
0.0367718
0.0398671
0.0446955
0.0501775
0.0557995
0.0612642
0.0663848
0.0710751
0.0752761
0.0789629
0.0821607
0.0848246
0.0869584
0.0885799
0.0895725
0.0900172
0.0900536
0.0895782
0.0882924
0.0866693
0.0842742
0.0809661
0.0780329
0.0749865
0.0708623
0.0655405
0.0592035
0.0506272
0.0409557
0.0311575
0.0228159
0.0145953
0.00950935
0.00607197
0.00445621
0.00363811
0.00362775
0.00421326
0.337564
0.151996
0.0804592
0.046269
0.0272964
0.0174554
0.0139837
0.0142471
0.0171189
0.0265789
0.0379029
0.0428332
0.0430568
0.0411806
0.0380972
0.0376943
0.0390693
0.04394
0.0470038
0.0450135
0.0404739
0.0378304
0.0380529
0.0405263
0.044944
0.0501802
0.0556567
0.0610463
0.0661374
0.0708277
0.0750444
0.0787534
0.0819792
0.0846681
0.0868224
0.0884622
0.0894532
0.0898767
0.0898963
0.0893984
0.0880485
0.0863528
0.0838518
0.0803883
0.0772821
0.0740979
0.0697788
0.0642714
0.0575834
0.0486717
0.0386296
0.0288046
0.0202758
0.0125386
0.00791546
0.00511111
0.00384806
0.00334781
0.0033418
0.00403365
0.337685
0.152151
0.0805669
0.0468414
0.0279066
0.0175774
0.0132625
0.013078
0.0149292
0.0219762
0.0347843
0.0422624
0.0439604
0.04303
0.0404265
0.0397851
0.0409021
0.0454295
0.0491797
0.0475495
0.0431451
0.0398845
0.0394991
0.0413665
0.0452915
0.0502398
0.055536
0.0608229
0.0658632
0.0705378
0.0747586
0.0784812
0.0817291
0.084439
0.0866113
0.0882695
0.0892596
0.089662
0.0896667
0.0891486
0.0877397
0.0859752
0.0833723
0.0797586
0.0764819
0.0731571
0.0686442
0.06295
0.0559123
0.0466688
0.0362968
0.0264527
0.0178395
0.0106795
0.00660172
0.0044162
0.00349961
0.00325341
0.00327394
0.00417284
0.337797
0.15234
0.0806199
0.0473097
0.0285315
0.0178535
0.0128057
0.0119944
0.0131265
0.0181184
0.0303964
0.0406734
0.044255
0.0443584
0.0425625
0.0417865
0.0427006
0.0468379
0.0512715
0.0500344
0.0459509
0.0421487
0.0411105
0.042405
0.0457532
0.0503692
0.0554478
0.0606023
0.065569
0.0702107
0.074423
0.0781497
0.0814132
0.0841398
0.0863271
0.0880033
0.088993
0.0893745
0.0893661
0.0888295
0.0873669
0.0855373
0.0828365
0.079078
0.0756339
0.0721652
0.0674593
0.0615761
0.0541899
0.0446202
0.0339613
0.0241108
0.0155375
0.00904114
0.0055702
0.00395589
0.0033554
0.00329366
0.00337445
0.00462292
0.337892
0.15257
0.0806307
0.0476816
0.0291445
0.0182582
0.0125927
0.0110826
0.0116531
0.0150359
0.0252481
0.0378038
0.0437908
0.0452694
0.0442901
0.0436239
0.0444016
0.0481419
0.053226
0.0524387
0.0488275
0.0446108
0.0428994
0.0436358
0.0463528
0.0505803
0.0554019
0.0603925
0.0652612
0.0698517
0.074042
0.0777624
0.0810344
0.0837726
0.0859718
0.0876653
0.0886549
0.0890155
0.0889952
0.0884423
0.0869307
0.0850397
0.0822446
0.0783472
0.0747392
0.071123
0.0662246
0.0601493
0.0524158
0.0425279
0.0316269
0.0217922
0.0134002
0.00764112
0.00480328
0.00370307
0.00334507
0.0034255
0.00364051
0.00535924
0.337966
0.152841
0.0806373
0.0479332
0.0297191
0.0187155
0.0126217
0.0103453
0.0104974
0.0125978
0.0198681
0.0337509
0.0423506
0.0455635
0.045528
0.0452128
0.0459341
0.0493143
0.0549744
0.0547341
0.0516898
0.047244
0.0448738
0.0450451
0.0471138
0.0508841
0.055408
0.0602016
0.0649465
0.0694661
0.0736197
0.0773227
0.0805956
0.08334
0.0855471
0.0872569
0.0882467
0.0885864
0.088555
0.0879874
0.0864317
0.0844828
0.0815968
0.0775665
0.0737986
0.0700309
0.0649401
0.058669
0.0505895
0.0403942
0.0292975
0.0195146
0.011456
0.00648682
0.00427041
0.00360343
0.00344251
0.003692
0.00407365
0.00632911
0.338011
0.15314
0.080658
0.0480838
0.0302263
0.0192246
0.0127512
0.00983294
0.00954494
0.0107222
0.0156297
0.0283071
0.0395322
0.0450646
0.0462609
0.0464177
0.0472231
0.050324
0.0564257
0.0568979
0.0544368
0.0499984
0.0470367
0.0466026
0.0480621
0.0512894
0.0554747
0.0600368
0.0646308
0.069059
0.0731604
0.076834
0.0800996
0.0828442
0.0850549
0.0867797
0.0877696
0.0880883
0.0880462
0.0874655
0.08587
0.0838665
0.0808929
0.0767359
0.0728127
0.0688889
0.0636059
0.0571342
0.0487102
0.0382216
0.0269779
0.0173005
0.00972917
0.00557225
0.00393721
0.00360209
0.00361031
0.00412278
0.00469152
0.00749278
0.338024
0.15346
0.0807059
0.0481618
0.0306491
0.0197401
0.0130367
0.00953316
0.00872169
0.00929231
0.0124118
0.0222465
0.0354299
0.043533
0.0462759
0.0471575
0.048178
0.0511252
0.0574862
0.0588666
0.0569742
0.0528044
0.0493676
0.0482948
0.0491963
0.0518084
0.0556099
0.0599046
0.0643197
0.0686349
0.0726679
0.0762996
0.0795489
0.0822872
0.0844969
0.0862348
0.0872247
0.0875223
0.0874697
0.0868768
0.0852457
0.0831909
0.0801323
0.075855
0.0717814
0.0676967
0.0622214
0.0555436
0.0467774
0.0360132
0.0246744
0.015177
0.00823619
0.00488083
0.00377024
0.00371073
0.00385217
0.00475489
0.00550755
0.00881154
0.338015
0.153783
0.0808093
0.0481623
0.0309742
0.0202441
0.0133968
0.00953631
0.00808496
0.00824306
0.0100212
0.0164628
0.0300621
0.0405865
0.0455282
0.0473397
0.0486841
0.0516127
0.0580964
0.0605316
0.0592217
0.0555704
0.0518148
0.0501151
0.0504871
0.0524578
0.0558185
0.0598098
0.0640175
0.0681976
0.0721453
0.0757219
0.0789457
0.0816709
0.0838743
0.0856234
0.0866128
0.0868889
0.0868259
0.0862213
0.0845584
0.0824552
0.079314
0.074923
0.0707044
0.0664537
0.0607857
0.053896
0.0447908
0.0337725
0.0223956
0.0131739
0.00698325
0.00438887
0.003716
0.00387739
0.00424954
0.00558736
0.006507
0.0102469
0.337988
0.154095
0.0809678
0.0481498
0.031192
0.0207052
0.0138122
0.00962637
0.00764272
0.00743235
0.00830883
0.0122928
0.0234739
0.0362212
0.0436124
0.0468521
0.0486833
0.051653
0.0581887
0.0617642
0.0611059
0.0581731
0.0543005
0.0520454
0.0518883
0.0532507
0.0561015
0.059755
0.0637272
0.0677498
0.0715952
0.0751032
0.0782918
0.0809968
0.0831884
0.0849461
0.0859343
0.0861886
0.086115
0.0854991
0.0838076
0.0816589
0.0784369
0.0739388
0.0695808
0.0651588
0.0592979
0.0521897
0.0427501
0.0315038
0.0201535
0.0113222
0.00596557
0.00406483
0.00374048
0.00420756
0.0048104
0.00658367
0.00765792
0.0117631
0.337937
0.154383
0.0811742
0.0481245
0.0313115
0.0210984
0.0142489
0.00984679
0.00743582
0.0067722
0.00710801
0.00935609
0.0167201
0.0305246
0.0402699
0.0454066
0.0481189
0.0511716
0.0577132
0.0624063
0.062564
0.0604493
0.0567277
0.0540468
0.0533437
0.0541862
0.0564572
0.0597397
0.0634497
0.067293
0.0710189
0.0744446
0.0775882
0.0802657
0.0824397
0.0842033
0.0851893
0.0854215
0.085337
0.0847094
0.0829924
0.0808006
0.0774994
0.0729012
0.0684095