/*--------------------------------*- C++ -*----------------------------------*\
| =========                 |                                                 |
| \\      /  F ield         | OpenFOAM: The Open Source CFD Toolbox           |
|  \\    /   O peration     | Version:  2.4.0                                 |
|   \\  /    A nd           | Web:      www.OpenFOAM.org                      |
|    \\/     M anipulation  |                                                 |
\*---------------------------------------------------------------------------*/
FoamFile
{
    version     2.0;
    format      ascii;
    class       volScalarField;
    location    "600";
    object      p;
}
// * * * * * * * * * * * * * * * * * * * * * * * * * * * * * * * * * * * * * //

dimensions      [0 2 -2 0 0 0 0];

internalField   nonuniform List<scalar> 
10000
(
0.00235309
0.00237167
0.00240487
0.00244894
0.00250232
0.00256353
0.00263175
0.00270653
0.00278737
0.00287463
0.00296768
0.00306811
0.00317379
0.00328973
0.00340523
0.00353912
0.00362565
0.0037497
0.00340157
0.00359877
0.00235295
0.00237152
0.0024047
0.00244873
0.00250206
0.0025632
0.00263131
0.00270596
0.00278661
0.0028736
0.00296631
0.0030662
0.00317143
0.00328644
0.0034035
0.00353995
0.0036626
0.00387967
0.00413554
0.00536176
0.0023527
0.00237125
0.00240438
0.00244834
0.00250157
0.00256258
0.00263051
0.00270489
0.0027852
0.00287169
0.00296375
0.00306269
0.00316683
0.00328025
0.00339701
0.0035328
0.0036682
0.00388415
0.00414487
0.00477609
0.0023523
0.00237082
0.00240387
0.00244773
0.00250081
0.0025616
0.00262924
0.00270322
0.00278298
0.00286871
0.00295975
0.00305723
0.00315957
0.00327031
0.00338472
0.00351541
0.00364854
0.00383062
0.00401017
0.00428494
0.00235175
0.00237021
0.00240317
0.00244688
0.00249974
0.00256024
0.00262747
0.0027009
0.0027799
0.00286459
0.00295423
0.00304972
0.00314952
0.00325645
0.00336651
0.00348856
0.00361141
0.0037584
0.00389004
0.00403933
0.00235103
0.00236943
0.00240226
0.00244577
0.00249836
0.00255847
0.00262518
0.0026979
0.00277594
0.00285929
0.00294714
0.00304013
0.00313667
0.00323877
0.00334284
0.0034543
0.00356393
0.00368255
0.00378574
0.00388416
0.00235013
0.00236845
0.00240112
0.00244439
0.00249663
0.00255628
0.00262235
0.00269418
0.00277104
0.00285277
0.00293846
0.00302845
0.00312108
0.00321753
0.00331443
0.00341448
0.00351015
0.00360541
0.00368496
0.0037502
0.00234904
0.00236726
0.00239974
0.00244272
0.00249455
0.00255363
0.00261892
0.00268971
0.00276517
0.002845
0.00292818
0.00301471
0.00310287
0.00319306
0.00328207
0.00337069
0.00345279
0.00352883
0.00358914
0.00363269
0.00234774
0.00236584
0.0023981
0.00244074
0.00249208
0.00255049
0.00261489
0.00268446
0.00275831
0.00283596
0.00291629
0.00299898
0.00308222
0.00316578
0.0032466
0.00332424
0.00339382
0.00345436
0.00350001
0.00352984
0.00234622
0.00236419
0.00239618
0.00243842
0.0024892
0.00254684
0.00261021
0.0026784
0.00275042
0.00282564
0.00290282
0.00298135
0.00305936
0.00313611
0.00320876
0.00327619
0.00333466
0.00338286
0.00341752
0.0034384
0.00234446
0.00236228
0.00239397
0.00243575
0.00248589
0.00254267
0.00260486
0.00267151
0.0027415
0.00281406
0.00288782
0.00296196
0.00303453
0.00310448
0.00316922
0.00322739
0.00327621
0.0033146
0.00334099
0.00335577
0.00234246
0.0023601
0.00239144
0.00243272
0.00248214
0.00253793
0.00259883
0.00266376
0.00273153
0.00280122
0.00287136
0.00294092
0.00300799
0.00307129
0.00312855
0.00317844
0.00321902
0.00324961
0.00326972
0.00328018
0.00234019
0.00235763
0.00238859
0.00242929
0.0024779
0.00253261
0.00259208
0.00265515
0.00272053
0.00278716
0.00285352
0.00291841
0.00297998
0.0030369
0.00308721
0.0031298
0.00316339
0.00318774
0.00320305
0.00321035
0.00233763
0.00235485
0.00238539
0.00242545
0.00247317
0.0025267
0.00258461
0.00264566
0.00270849
0.00277191
0.00283437
0.00289458
0.00295076
0.00300162
0.00304558
0.00308176
0.00310947
0.00312882
0.00314039
0.00314533
0.00233477
0.00235175
0.00238181
0.00242117
0.00246793
0.00252016
0.00257639
0.0026353
0.00269543
0.00275554
0.00281403
0.00286957
0.00292054
0.00296574
0.00300393
0.00303455
0.00305731
0.00307261
0.00308125
0.00308438
0.0023316
0.00234831
0.00237785
0.00241645
0.00246214
0.00251298
0.00256742
0.00262405
0.00268139
0.00273809
0.00279258
0.00284355
0.00288954
0.00292949
0.0029625
0.00298828
0.00300688
0.00301888
0.00302519
0.00302692
0.00232808
0.0023445
0.00237348
0.00241125
0.00245581
0.00250515
0.00255769
0.00261194
0.00266637
0.00271962
0.00277014
0.00281667
0.00285793
0.00289305
0.00292144
0.00294304
0.00295813
0.00296743
0.00297186
0.00297247
0.00232422
0.00234032
0.00236869
0.00240556
0.0024489
0.00249666
0.00254719
0.00259897
0.00265043
0.0027002
0.00274681
0.00278906
0.00282588
0.00285659
0.00288086
0.00289884
0.00291098
0.00291805
0.00292096
0.00292066
0.00231997
0.00233573
0.00236345
0.00239936
0.0024414
0.00248748
0.00253593
0.00258515
0.00263361
0.00267991
0.00272268
0.00276085
0.00279352
0.00282023
0.00284086
0.00285571
0.00286534
0.00287055
0.00287221
0.00287117
0.00231534
0.00233073
0.00235774
0.00239263
0.0024333
0.00247763
0.0025239
0.00257051
0.00261593
0.0026588
0.00269786
0.00273215
0.00276099
0.00278407
0.00280147
0.00281361
0.00282111
0.00282476
0.00282539
0.00282376
0.00231029
0.00232528
0.00235155
0.00238536
0.00242458
0.00246708
0.00251112
0.00255508
0.00259745
0.00263696
0.00267243
0.00270307
0.00272836
0.00274818
0.00276273
0.00277252
0.0027782
0.00278055
0.00278032
0.00277819
0.00230481
0.00231938
0.00234486
0.00237753
0.00241524
0.00245584
0.00249759
0.00253887
0.00257823
0.00261444
0.00264649
0.00267371
0.00269574
0.00271262
0.00272464
0.0027324
0.00273653
0.00273777
0.00273681
0.00273427
0.00229887
0.00231301
0.00233765
0.00236912
0.00240526
0.00244391
0.00248332
0.00252192
0.00255829
0.00259132
0.0026201
0.00264413
0.00266318
0.00267742
0.00268722
0.0026932
0.002696
0.00269631
0.00269474
0.00269186
0.00229247
0.00230614
0.0023299
0.00236012
0.00239464
0.00243129
0.00246834
0.00250426
0.00253771
0.00256765
0.00259335
0.0026144
0.00263074
0.00264261
0.00265045
0.00265489
0.00265654
0.00265605
0.00265397
0.00265079
0.00228558
0.00229875
0.0023216
0.00235053
0.00238337
0.00241798
0.00245267
0.00248592
0.00251651
0.00254351
0.00256629
0.0025846
0.00259847
0.00260821
0.00261432
0.00261742
0.00261808
0.00261689
0.00261438
0.00261097
0.00227817
0.00229084
0.00231273
0.00234032
0.00237144
0.002404
0.00243631
0.00246694
0.00249476
0.00251894
0.00253899
0.00255476
0.00256638
0.00257423
0.00257881
0.00258073
0.00258053
0.00257876
0.00257588
0.00257226
0.00227024
0.00228237
0.00230328
0.00232949
0.00235887
0.00238934
0.00241929
0.00244735
0.00247249
0.00249399
0.00251149
0.00252492
0.00253451
0.00254067
0.0025439
0.00254479
0.00254385
0.00254157
0.00253837
0.00253458
0.00226177
0.00227334
0.00229323
0.00231804
0.00234564
0.00237403
0.00240164
0.00242719
0.00244975
0.00246872
0.00248384
0.00249513
0.00250288
0.00250752
0.00250955
0.00250954
0.00250796
0.00250524
0.00250177
0.00249785
0.00225273
0.00226373
0.00228258
0.00230595
0.00233176
0.00235807
0.00238338
0.00240649
0.00242659
0.00244317
0.00245607
0.00246541
0.00247149
0.00247478
0.00247576
0.00247495
0.00247281
0.00246972
0.00246602
0.00246197
0.00224311
0.00225353
0.00227131
0.00229322
0.00231724
0.00234149
0.00236453
0.00238529
0.00240303
0.00241737
0.00242823
0.00243577
0.00244036
0.00244243
0.00244247
0.00244098
0.00243834
0.00243493
0.00243104
0.0024269
0.00223289
0.00224272
0.00225941
0.00227986
0.00230208
0.00232428
0.00234512
0.00236361
0.00237912
0.00239137
0.00240033
0.00240624
0.00240947
0.00241046
0.00240968
0.00240758
0.00240452
0.00240083
0.00239677
0.00239255
0.00222207
0.00223129
0.00224688
0.00226585
0.00228629
0.00230648
0.00232518
0.0023415
0.0023549
0.00236518
0.0023724
0.00237683
0.00237884
0.00237887
0.00237736
0.00237472
0.00237129
0.00236736
0.00236317
0.00235888
0.00221062
0.00221922
0.00223371
0.00225121
0.00226988
0.0022881
0.00230473
0.00231897
0.00233038
0.00233884
0.00234447
0.00234754
0.00234846
0.00234763
0.00234547
0.00234237
0.00233862
0.00233448
0.00233017
0.00232584
0.00219854
0.00220652
0.0022199
0.00223592
0.00225285
0.00226916
0.00228379
0.00229605
0.0023056
0.00231238
0.00231654
0.00231839
0.00231831
0.00231672
0.00231399
0.00231048
0.00230645
0.00230215
0.00229774
0.00229337
0.00218582
0.00219317
0.00220544
0.00222001
0.00223522
0.00224967
0.00226239
0.00227279
0.00228059
0.0022858
0.00228862
0.00228936
0.00228841
0.00228613
0.0022829
0.00227903
0.00227477
0.00227031
0.00226582
0.00226142
0.00217244
0.00217917
0.00219033
0.00220346
0.00221701
0.00222966
0.00224055
0.00224919
0.00225536
0.00225914
0.00226073
0.00226047
0.00225873
0.00225585
0.00225218
0.00224799
0.00224352
0.00223894
0.00223439
0.00222997
0.0021584
0.0021645
0.00217458
0.0021863
0.00219822
0.00220914
0.0022183
0.00222527
0.00222994
0.00223239
0.00223288
0.00223172
0.00222926
0.00222585
0.00222179
0.00221734
0.00221269
0.002208
0.00220341
0.00219898
0.00214369
0.00214918
0.00215818
0.00216852
0.00217887
0.00218813
0.00219565
0.00220107
0.00220434
0.00220558
0.00220506
0.00220308
0.0022
0.00219612
0.00219171
0.00218703
0.00218223
0.00217746
0.00217283
0.0021684
0.00212831
0.00213319
0.00214114
0.00215014
0.00215897
0.00216666
0.00217263
0.0021766
0.00217858
0.00217872
0.00217728
0.00217458
0.00217093
0.00216663
0.00216193
0.00215705
0.00215213
0.00214729
0.00214263
0.00213821
0.00211226
0.00211655
0.00212346
0.00213117
0.00213855
0.00214474
0.00214925
0.00215188
0.00215267
0.0021518
0.00214953
0.00214618
0.00214204
0.00213738
0.00213242
0.00212737
0.00212234
0.00211746
0.00211278
0.00210837
0.00209553
0.00209924
0.00210516
0.00211162
0.00211761
0.00212238
0.00212553
0.00212692
0.00212662
0.00212484
0.00212183
0.0021179
0.00211332
0.00210834
0.00210317
0.00209797
0.00209286
0.00208793
0.00208325
0.00207886
0.00207814
0.00208128
0.00208623
0.00209149
0.00209617
0.00209961
0.00210149
0.00210174
0.00210045
0.00209783
0.00209416
0.00208972
0.00208475
0.0020795
0.00207414
0.00206882
0.00206365
0.0020587
0.00205402
0.00204965
0.00206007
0.00206268
0.0020667
0.00207082
0.00207425
0.00207644
0.00207715
0.00207634
0.00207415
0.00207079
0.00206653
0.00206163
0.00205633
0.00205084
0.00204532
0.00203991
0.00203469
0.00202972
0.00202505
0.00202071
0.00204135
0.00204343
0.00204656
0.0020496
0.00205186
0.00205289
0.00205251
0.00205075
0.00204774
0.00204371
0.00203893
0.00203363
0.00202804
0.00202235
0.0020167
0.00201121
0.00200595
0.00200098
0.00199633
0.00199202
0.00202198
0.00202356
0.00202584
0.00202786
0.00202902
0.00202898
0.0020276
0.00202496
0.00202121
0.00201659
0.00201135
0.0020057
0.00199986
0.001994
0.00198825
0.0019827
0.00197742
0.00197246
0.00196783
0.00196356
0.00200196
0.00200306
0.00200455
0.00200561
0.00200575
0.00200471
0.00200243
0.00199899
0.00199459
0.00198944
0.00198379
0.00197784
0.00197179
0.00196579
0.00195996
0.00195437
0.00194908
0.00194413
0.00193954
0.0019353
0.00198131
0.00198197
0.0019827
0.00198286
0.00198206
0.00198011
0.001977
0.00197286
0.00196786
0.00196225
0.00195624
0.00195004
0.00194382
0.00193771
0.00193181
0.0019262
0.00192091
0.00191598
0.00191143
0.00190724
0.00196004
0.00196028
0.00196031
0.00195964
0.00195797
0.00195519
0.00195133
0.00194655
0.00194104
0.00193502
0.00192871
0.0019223
0.00191593
0.00190973
0.00190378
0.00189816
0.00189289
0.00188799
0.00188348
0.00187934
0.00193818
0.00193802
0.0019374
0.00193596
0.0019335
0.00192996
0.00192544
0.00192009
0.00191412
0.00190776
0.00190119
0.00189459
0.00188811
0.00188184
0.00187587
0.00187025
0.00186501
0.00186015
0.00185568
0.00185159
0.00191572
0.00191521
0.00191398
0.00191184
0.00190865
0.00190444
0.00189932
0.00189348
0.00188711
0.00188045
0.00187366
0.00186692
0.00186035
0.00185404
0.00184806
0.00184246
0.00183724
0.00183243
0.00182801
0.00182397
0.00189271
0.00189186
0.00189008
0.0018873
0.00188346
0.00187864
0.001873
0.00186672
0.00186001
0.00185309
0.00184613
0.00183928
0.00183264
0.00182631
0.00182034
0.00181476
0.00180958
0.00180482
0.00180045
0.00179647
0.00186915
0.001868
0.00186571
0.00186235
0.00185793
0.00185258
0.00184647
0.00183982
0.00183283
0.0018257
0.0018186
0.00181166
0.00180498
0.00179865
0.00179269
0.00178715
0.00178202
0.00177731
0.001773
0.00176908
0.00184506
0.00184364
0.0018409
0.00183702
0.00183208
0.00182626
0.00181976
0.00181278
0.00180556
0.00179826
0.00179105
0.00178405
0.00177736
0.00177103
0.00176511
0.00175961
0.00175454
0.00174988
0.00174564
0.00174178
0.00182048
0.00181881
0.00181566
0.00181132
0.00180594
0.00179971
0.00179286
0.00178562
0.0017782
0.00177077
0.00176349
0.00175646
0.00174976
0.00174346
0.00173758
0.00173213
0.00172712
0.00172253
0.00171836
0.00171456
0.00179542
0.00179353
0.00179002
0.00178528
0.0017795
0.00177293
0.0017658
0.00175834
0.00175076
0.00174324
0.00173591
0.00172887
0.00172219
0.00171593
0.0017101
0.00170471
0.00169977
0.00169525
0.00169114
0.00168742
0.0017699
0.00176782
0.001764
0.00175891
0.0017528
0.00174593
0.00173857
0.00173094
0.00172325
0.00171566
0.00170831
0.00170128
0.00169463
0.00168842
0.00168265
0.00167734
0.00167247
0.00166802
0.00166398
0.00166033
0.00174397
0.00174172
0.00173762
0.00173224
0.00172585
0.00171874
0.00171119
0.00170343
0.00169566
0.00168804
0.00168069
0.00167368
0.00166709
0.00166094
0.00165524
0.00165
0.00164521
0.00164084
0.00163687
0.00163329
0.00171763
0.00171525
0.00171092
0.00170528
0.00169866
0.00169136
0.00168367
0.00167582
0.00166801
0.00166038
0.00165305
0.00164609
0.00163956
0.00163348
0.00162786
0.0016227
0.00161799
0.0016137
0.00160981
0.0016063
0.00169093
0.00168843
0.0016839
0.00167806
0.00167126
0.00166381
0.00165602
0.00164812
0.00164028
0.00163267
0.00162538
0.00161849
0.00161203
0.00160603
0.0016005
0.00159543
0.0015908
0.00158659
0.00158278
0.00157934
0.00166388
0.00166128
0.0016566
0.0016506
0.00164366
0.00163611
0.00162825
0.00162032
0.0016125
0.00160493
0.0015977
0.00159088
0.0015845
0.0015786
0.00157316
0.00156818
0.00156364
0.00155952
0.00155579
0.00155242
0.00163652
0.00163385
0.00162904
0.00162292
0.00161588
0.00160826
0.00160037
0.00159245
0.00158466
0.00157715
0.00156999
0.00156326
0.00155698
0.00155118
0.00154583
0.00154095
0.0015365
0.00153247
0.00152882
0.00152553
0.00160888
0.00160615
0.00160125
0.00159504
0.00158793
0.00158029
0.0015724
0.00156451
0.00155678
0.00154934
0.00154228
0.00153564
0.00152947
0.00152377
0.00151853
0.00151374
0.00150939
0.00150545
0.00150188
0.00149867
0.00158097
0.00157821
0.00157324
0.00156698
0.00155985
0.0015522
0.00154434
0.00153651
0.00152885
0.00152151
0.00151455
0.00150802
0.00150196
0.00149637
0.00149124
0.00148656
0.0014823
0.00147845
0.00147497
0.00147183
0.00155284
0.00155006
0.00154505
0.00153877
0.00153164
0.00152402
0.00151621
0.00150845
0.0015009
0.00149366
0.00148681
0.00148041
0.00147446
0.00146898
0.00146396
0.00145939
0.00145523
0.00145147
0.00144808
0.00144502
0.00152452
0.00152172
0.0015167
0.00151043
0.00150332
0.00149575
0.00148803
0.00148036
0.00147292
0.0014658
0.00145908
0.0014528
0.00144697
0.00144162
0.00143671
0.00143224
0.00142819
0.00142452
0.00142121
0.00141823
0.00149602
0.00149323
0.00148822
0.00148197
0.00147492
0.00146743
0.0014598
0.00145225
0.00144492
0.00143793
0.00143135
0.0014252
0.0014195
0.00141427
0.00140948
0.00140512
0.00140117
0.0013976
0.00139437
0.00139148
0.00146739
0.00146462
0.00145963
0.00145343
0.00144645
0.00143905
0.00143154
0.00142411
0.00141693
0.00141008
0.00140363
0.00139762
0.00139206
0.00138695
0.00138228
0.00137803
0.00137418
0.0013707
0.00136757
0.00136475
0.00143864
0.0014359
0.00143095
0.00142482
0.00141794
0.00141065
0.00140327
0.00139598
0.00138894
0.00138224
0.00137594
0.00137007
0.00136464
0.00135966
0.00135512
0.00135098
0.00134723
0.00134385
0.0013408
0.00133806
0.00140982
0.00140711
0.00140222
0.00139618
0.0013894
0.00138225
0.001375
0.00136786
0.00136097
0.00135443
0.00134828
0.00134255
0.00133727
0.00133242
0.00132799
0.00132397
0.00132033
0.00131704
0.00131408
0.00131141
0.00138094
0.00137828
0.00137346
0.00136751
0.00136086
0.00135385
0.00134675
0.00133977
0.00133305
0.00132666
0.00132066
0.00131509
0.00130994
0.00130523
0.00130092
0.00129701
0.00129347
0.00129028
0.0012874
0.00128482
0.00135204
0.00134943
0.00134469
0.00133886
0.00133234
0.00132547
0.00131854
0.00131173
0.00130517
0.00129894
0.0012931
0.00128768
0.00128268
0.00127809
0.00127391
0.00127011
0.00126667
0.00126357
0.00126078
0.00125828
0.00132315
0.00132059
0.00131595
0.00131023
0.00130385
0.00129715
0.00129038
0.00128374
0.00127735
0.00127129
0.00126561
0.00126034
0.00125548
0.00125103
0.00124697
0.00124328
0.00123995
0.00123694
0.00123423
0.0012318
0.0012943
0.00129179
0.00128725
0.00128166
0.00127544
0.0012689
0.0012623
0.00125584
0.00124962
0.00124373
0.00123821
0.00123309
0.00122837
0.00122405
0.00122011
0.00121654
0.0012133
0.00121039
0.00120776
0.00120541
0.0012655
0.00126306
0.00125862
0.00125317
0.0012471
0.00124073
0.00123432
0.00122803
0.00122198
0.00121626
0.0012109
0.00120593
0.00120136
0.00119717
0.00119335
0.00118988
0.00118675
0.00118393
0.00118139
0.00117911
0.00123681
0.00123443
0.0012301
0.00122478
0.00121888
0.00121268
0.00120644
0.00120033
0.00119447
0.00118891
0.00118372
0.0011789
0.00117446
0.0011704
0.0011667
0.00116334
0.00116031
0.00115757
0.00115511
0.0011529
0.00120823
0.00120592
0.0012017
0.00119653
0.00119079
0.00118477
0.00117871
0.00117278
0.00116708
0.0011617
0.00115666
0.00115199
0.00114769
0.00114375
0.00114017
0.00113692
0.00113399
0.00113134
0.00112896
0.00112682
0.00117981
0.00117757
0.00117346
0.00116843
0.00116285
0.00115701
0.00115113
0.00114538
0.00113986
0.00113464
0.00112976
0.00112523
0.00112107
0.00111726
0.00111379
0.00111065
0.0011078
0.00110524
0.00110294
0.00110087
0.00115157
0.0011494
0.0011454
0.00114052
0.00113511
0.00112944
0.00112373
0.00111816
0.00111281
0.00110775
0.00110303
0.00109864
0.00109461
0.00109093
0.00108757
0.00108453
0.00108178
0.0010793
0.00107707
0.00107508
0.00112354
0.00112144
0.00111756
0.00111282
0.00110757
0.00110207
0.00109654
0.00109114
0.00108596
0.00108106
0.00107649
0.00107225
0.00106835
0.00106478
0.00106153
0.00105859
0.00105593
0.00105353
0.00105138
0.00104945
0.00109576
0.00109372
0.00108995
0.00108536
0.00108027
0.00107494
0.00106958
0.00106435
0.00105933
0.00105459
0.00105016
0.00104606
0.00104229
0.00103884
0.00103569
0.00103285
0.00103028
0.00102796
0.00102588
0.00102401
0.00106825
0.00106627
0.00106262
0.00105816
0.00105323
0.00104807
0.00104288
0.00103781
0.00103296
0.00102837
0.00102408
0.00102011
0.00101646
0.00101312
0.00101008
0.00100733
0.00100484
0.0010026
0.00100058
0.000998779
0.00104105
0.00103914
0.00103559
0.00103127
0.00102649
0.00102149
0.00101647
0.00101156
0.00100685
0.00100241
0.000998261
0.000994418
0.000990884
0.000987653
0.000984713
0.00098205
0.000979643
0.000977475
0.000975528
0.000973782
0.00101419
0.00101234
0.0010089
0.00100471
0.00100008
0.00099523
0.000990363
0.000985608
0.000981053
0.000976751
0.000972732
0.000969012
0.000965591
0.000962464
0.000959619
0.000957041
0.000954713
0.000952615
0.000950731
0.000949043
0.000987714
0.000985926
0.000982585
0.000978517
0.000974023
0.000969324
0.000964606
0.000959998
0.000955583
0.000951415
0.000947522
0.000943919
0.000940606
0.000937577
0.000934822
0.000932326
0.000930071
0.000928041
0.000926218
0.000924584
0.000961655
0.000959922
0.000956676
0.000952725
0.000948364
0.000943805
0.000939227
0.000934757
0.000930477
0.000926435
0.000922662
0.000919169
0.000915958
0.000913023
0.000910354
0.000907936
0.000905752
0.000903786
0.00090202
0.000900438
0.000936055
0.000934373
0.000931216
0.000927375
0.000923137
0.000918708
0.000914262
0.000909921
0.000905766
0.000901843
0.00089818
0.000894791
0.000891675
0.000888828
0.000886238
0.000883892
0.000881774
0.000879867
0.000878155
0.000876621
0.000910959
0.000909324
0.000906247
0.000902506
0.000898381
0.000894072
0.000889748
0.000885527
0.000881487
0.000877674
0.000874116
0.000870823
0.000867798
0.000865033
0.000862519
0.000860243
0.000858187
0.000856336
0.000854675
0.000853186
0.000886414
0.000884821
0.000881816
0.000878165
0.000874142
0.00086994
0.000865725
0.000861612
0.000857676
0.000853962
0.000850497
0.00084729
0.000844344
0.000841652
0.000839204
0.000836988
0.000834988
0.000833187
0.000831571
0.000830124
0.000862476
0.000860919
0.000857975
0.0008544
0.000850465
0.000846357
0.000842238
0.000838222
0.00083438
0.000830757
0.000827378
0.000824253
0.000821384
0.000818763
0.00081638
0.000814224
0.000812277
0.000810525
0.000808953
0.000807545
0.000839204
0.000837677
0.00083478
0.000831267
0.000827404
0.000823373
0.000819333
0.000815395
0.00081163
0.000808079
0.000804767
0.000801705
0.000798893
0.000796324
0.00079399
0.000791877
0.000789971
0.000788256
0.000786719
0.000785343
0.000816669
0.000815162
0.000812298
0.000808828
0.000805017
0.000801045
0.000797068
0.000793197
0.0007895
0.000786018
0.000782775
0.00077978
0.000777032
0.000774524
0.000772246
0.000770185
0.000768326
0.000766653
0.000765151
0.000763807
0.000794951
0.000793454
0.000790602
0.000787152
0.000783367
0.000779428
0.000775486
0.00077165
0.000767986
0.000764535
0.000761319
0.000758347
0.00075562
0.000753131
0.000750871
0.000748827
0.000746985
0.000745331
0.000743849
0.000742524
0.000774146
0.000772646
0.00076978
0.00076632
0.000762535
0.000758604
0.000754683
0.000750877
0.000747255
0.000743854
0.000740695
0.000737784
0.000735118
0.000732689
0.000730485
0.000728493
0.000726696
0.000725079
0.000723627
0.000722327
0.000754373
0.00075285
0.000749935
0.000746424
0.000742593
0.000738619
0.000734656
0.000730807
0.000727138
0.000723688
0.000720477
0.000717514
0.000714799
0.000712325
0.000710082
0.000708057
0.000706238
0.000704608
0.000703153
0.000701856
0.000735778
0.000734206
0.000731194
0.000727583
0.000723667
0.000719632
0.000715638
0.00071179
0.000708153
0.00070476
0.000701624
0.000698747
0.000696121
0.000693734
0.000691572
0.000689621
0.000687859
0.00068627
0.000684842
0.000683561
0.000718551
0.000716891
0.000713706
0.000709906
0.000705798
0.000701563
0.000697358
0.00069329
0.000689425
0.000685801
0.00068244
0.00067935
0.000676529
0.000673969
0.000671656
0.000669575
0.000667718
0.000666066
0.000664601
0.000663302
0.000702951
0.000701137
0.000697673
0.000693619
0.000689319
0.000684963
0.000680715
0.000676681
0.000672916
0.000669441
0.000666258
0.000663357
0.000660721
0.000658333
0.000656175
0.000654231
0.000652468
0.00065087
0.000649427
0.000648128
0.000689318
0.000687271
0.000683299
0.000678677
0.000673772
0.000668776
0.000663864
0.00065916
0.000654733
0.000650625
0.000646851
0.000643416
0.000640311
0.000637519
0.000635018
0.000632788
0.000630822
0.000629099
0.000627588
0.000626264
0.000678137
0.000675599
0.000671161
0.000666287
0.000661254
0.000656243
0.000651441
0.000646956
0.000642831
0.000639072
0.000635665
0.000632588
0.000629814
0.000627317
0.000625074
0.000623063
0.000621231
0.000619558
0.00061804
0.000616668
0.000671075
0.000666214
0.0006596
0.00065292
0.000646142
0.00063941
0.000632956
0.000626928
0.000621391
0.000616369
0.00061186
0.000607842
0.000604284
0.000601144
0.000598379
0.000595948
0.000593853
0.000592056
0.000590509
0.000589172
0.0032099
0.00430664
0.00441747
0.00426056
0.00410308
0.00392684
0.00374518
0.00357527
0.00342016
0.00327881
0.00315033
0.0030333
0.00292638
0.00282802
0.00273722
0.00265274
0.00257392
0.00249977
0.00242991
0.00236355
0.00230053
0.00224013
0.00218241
0.00212667
0.00207313
0.00202108
0.00197091
0.00192182
0.00187439
0.0018277
0.00178255
0.00173782
0.00169457
0.00165145
0.00160982
0.001568
0.00152776
0.00148701
0.00144798
0.00140807
0.00137011
0.00133084
0.00129385
0.00125503
0.00121894
0.0011804
0.00114517
0.00110671
0.00107233
0.00103378
0.00100027
0.000961416
0.000928826
0.00088946
0.000857877
0.000817759
0.000787306
0.000746172
0.000717013
0.000674566
0.000646907
0.000602817
0.000576911
0.000530809
0.000506963
0.000458437
0.000437021
0.000385608
0.000367079
0.000312243
0.000297205
0.000238283
0.000227632
0.000163681
0.000158992
8.84122e-05
9.31298e-05
1.25811e-05
3.82786e-05
-5.19698e-05
0.00688261
0.00541531
0.0044846
0.00402172
0.00374086
0.00353761
0.00338049
0.00325416
0.00314711
0.00305201
0.00296518
0.00288425
0.00280796
0.00273522
0.00266565
0.00259865
0.00253415
0.0024717
0.00241138
0.00235276
0.00229603
0.00224071
0.00218709
0.00213463
0.00208373
0.00203376
0.00198524
0.00193741
0.00189097
0.00184499
0.00180037
0.00175598
0.00171296
0.00166992
0.00162831
0.00158641
0.00154606
0.0015051
0.00146587
0.00142567
0.00138745
0.00134784
0.00131056
0.00127138
0.00123498
0.00119605
0.00116051
0.00112166
0.00108697
0.00104802
0.0010142
0.000974958
0.000942078
0.000902325
0.000870469
0.00082997
0.000799264
0.000757755
0.000728364
0.000685549
0.00065768
0.000613227
0.000587137
0.000540674
0.000516671
0.000467783
0.000446241
0.000394459
0.000375839
0.000320623
0.000305534
0.000246212
0.000235557
0.00017118
0.000166532
9.55157e-05
0.00010026
1.94723e-05
4.44181e-05
-4.57462e-05
0.00536701
0.00467204
0.00422648
0.00401508
0.00385509
0.00370977
0.00357665
0.00345385
0.00333936
0.00323184
0.00313076
0.00303552
0.00294571
0.0028607
0.00278017
0.00270351
0.00263053
0.00256066
0.00249382
0.00242947
0.00236765
0.00230783
0.00225016
0.00219408
0.00213988
0.00208691
0.00203563
0.00198528
0.00193649
0.00188833
0.00184168
0.00179538
0.00175057
0.00170584
0.00166265
0.00161924
0.00157746
0.00153514
0.00149463
0.0014532
0.00141383
0.0013731
0.00133478
0.00129456
0.00125723
0.00121735
0.00118097
0.00114123
0.00110579
0.00106602
0.00103153
0.000991527
0.000958049
0.000917582
0.000885198
0.000844027
0.000812861
0.000770716
0.000740928
0.000697507
0.000669305
0.000624269
0.000597907
0.00055088
0.000526665
0.000477225
0.000455531
0.000403205
0.000384492
0.000328733
0.000313611
0.000253744
0.000243112
0.000178187
0.000173612
0.000102054
0.000106883
2.56924e-05
5.00366e-05
-3.92225e-05
0.00452437
0.00431606
0.00412241
0.00397526
0.00383259
0.00369401
0.00356446
0.0034444
0.00333285
0.0032287
0.00313115
0.00303938
0.00295279
0.0028707
0.0027927
0.00271824
0.00264708
0.00257873
0.00251311
0.00244975
0.00238867
0.00232942
0.00227215
0.00221633
0.00216225
0.00210932
0.00205797
0.0020075
0.00195849
0.0019101
0.00186313
0.00181652
0.00177132
0.00172622
0.00168259
0.00163876
0.00159652
0.00155375
0.00151277
0.00147087
0.00143103
0.00138982
0.00135103
0.00131033
0.00127254
0.00123218
0.00119535
0.00115515
0.00111928
0.00107904
0.00104416
0.00100369
0.000969842
0.000928912
0.000896196
0.000854566
0.000823104
0.000780501
0.000750457
0.000706578
0.000678161
0.000632666
0.000606132
0.000558641
0.0005343
0.000484392
0.000462616
0.000409816
0.000391067
0.000334829
0.000319712
0.000259367
0.00024877
0.000183386
0.000178844
0.000106894
0.00011166
3.03293e-05
5.38533e-05
-3.45157e-05
0.00415655
0.00408313
0.00397633
0.00386451
0.00374688
0.00362944
0.00351655
0.00340939
0.00330794
0.00321182
0.00312066
0.00303402
0.00295155
0.00287281
0.00279753
0.0027253
0.00265596
0.00258913
0.00252473
0.00246239
0.00240213
0.00234356
0.0022868
0.00223142
0.00217765
0.00212497
0.00207376
0.00202339
0.0019744
0.00192602
0.00187896
0.00183227
0.00178692
0.00174168
0.00169784
0.00165382
0.00161134
0.00156835
0.00152708
0.00148494
0.00144479
0.00140331
0.00136421
0.00132323
0.00128512
0.00124447
0.00120732
0.00116681
0.00113064
0.00109009
0.00105491
0.00101412
0.000979993
0.000938745
0.000905765
0.00086381
0.000832108
0.000789173
0.000758917
0.000714697
0.0006861
0.000640252
0.000613573
0.000565717
0.000541268
0.000490981
0.000469137
0.000415944
0.000397164
0.000340523
0.000325407
0.000264659
0.000254078
0.000188315
0.000183765
0.000111522
0.000116139
3.48021e-05
5.73156e-05
-3.05172e-05
0.00395107
0.00391077
0.00383503
0.00374754
0.00365282
0.00355537
0.00345859
0.00336416
0.00327279
0.00318477
0.00310015
0.00301886
0.00294077
0.00286567
0.00279341
0.00272373
0.00265652
0.00259151
0.00252864
0.00246762
0.00240846
0.00235086
0.00229489
0.0022402
0.00218698
0.0021348
0.00208396
0.00203395
0.00198519
0.00193703
0.0018901
0.00184355
0.00179823
0.00175305
0.00170918
0.00166516
0.00162258
0.00157956
0.00153815
0.00149593
0.00145561
0.00141403
0.00137473
0.00133363
0.0012953
0.0012545
0.00121712
0.00117646
0.00114004
0.00109933
0.00106391
0.00102294
0.00098858
0.000947143
0.000913937
0.000871783
0.000839868
0.000796722
0.000766272
0.000721828
0.000693059
0.000646973
0.000620148
0.000572039
0.000547473
0.000496915
0.000474985
0.000421506
0.00040267
0.000345731
0.000330582
0.000269536
0.000258929
0.000192892
0.000188281
0.000115851
0.000120249
3.9006e-05
6.03962e-05
-2.71213e-05
0.00378739
0.00376349
0.00370989
0.00364233
0.00356578
0.00348412
0.00340047
0.00331681
0.00323427
0.00315351
0.00307491
0.00299864
0.00292475
0.0028532
0.00278395
0.00271685
0.00265183
0.00258872
0.00252748
0.00246789
0.00240995
0.00235342
0.00229837
0.00224451
0.00219197
0.00214043
0.0020901
0.00204056
0.00199216
0.00194437
0.00189769
0.0018514
0.00180624
0.00176125
0.00171745
0.00167357
0.001631
0.00158806
0.00154661
0.00150444
0.00146404
0.00142247
0.00138305
0.00134193
0.00130346
0.00126263
0.00122508
0.00118437
0.00114777
0.001107
0.00107138
0.00103034
0.000995772
0.000954255
0.000920841
0.000878596
0.000846477
0.000803228
0.000772583
0.000728023
0.000699073
0.000652857
0.000625867
0.000577613
0.000552903
0.000502185
0.000480132
0.000426478
0.000407542
0.000350415
0.000335183
0.000273948
0.000263259
0.000197057
0.000192324
0.000119812
0.000123922
4.28537e-05
6.30603e-05
-2.43116e-05
0.00365382
0.0036392
0.00360094
0.00354812
0.00348525
0.00341589
0.00334295
0.00326842
0.00319364
0.00311946
0.00304643
0.00297489
0.00290503
0.00283694
0.00277065
0.00270611
0.00264331
0.00258214
0.00252257
0.00246446
0.00240781
0.00235244
0.00229837
0.00224541
0.00219364
0.00214281
0.00209307
0.00204409
0.00199615
0.0019488
0.00190245
0.00185651
0.0018116
0.00176688
0.00172324
0.00167958
0.00163711
0.00159433
0.00155292
0.00151088
0.00147046
0.00142899
0.00138952
0.00134848
0.0013099
0.00126914
0.00123146
0.0011908
0.00115404
0.0011133
0.00107751
0.0010365
0.00100174
0.000960234
0.000926624
0.00088438
0.00085206
0.000808804
0.000777955
0.000733378