/*--------------------------------*- C++ -*----------------------------------*\
| =========                 |                                                 |
| \\      /  F ield         | OpenFOAM: The Open Source CFD Toolbox           |
|  \\    /   O peration     | Version:  2.4.0                                 |
|   \\  /    A nd           | Web:      www.OpenFOAM.org                      |
|    \\/     M anipulation  |                                                 |
\*---------------------------------------------------------------------------*/
FoamFile
{
    version     2.0;
    format      ascii;
    class       volScalarField;
    location    "0.09";
    object      k;
}
// * * * * * * * * * * * * * * * * * * * * * * * * * * * * * * * * * * * * * //

dimensions      [0 2 -2 0 0 0 0];

internalField   nonuniform List<scalar> 
6000
(
0.00509769
0.00643157
0.00764579
0.00867312
0.00949274
0.0101097
0.010548
0.0108468
0.0110432
0.0111642
0.0112327
0.0112696
0.011289
0.0112985
0.0113026
0.0113043
0.0113051
0.0113054
0.0113055
0.0113055
0.0113054
0.0113054
0.0113053
0.0113053
0.0113052
0.0113051
0.011305
0.0113049
0.0113047
0.0113044
0.0113041
0.0113037
0.0113031
0.0113024
0.0113015
0.0113003
0.0112988
0.0112967
0.0112941
0.0112908
0.0112864
0.0112808
0.0112734
0.0112639
0.0112516
0.0112357
0.011215
0.0111883
0.0111536
0.0111086
0.0110503
0.0109746
0.0108761
0.0107477
0.0105791
0.0103556
0.0100538
0.00963229
0.00902
0.00793658
0.00354873
0.00343923
0.00338299
0.0033544
0.0033319
0.00330606
0.00327827
0.00325301
0.00323376
0.00322114
0.0032134
0.00320854
0.00320545
0.00320356
0.00320245
0.0032018
0.00320145
0.00320127
0.00320117
0.00320113
0.00320111
0.0032011
0.0032011
0.00320111
0.00320112
0.00320114
0.00320116
0.00320119
0.00320123
0.00320128
0.00320135
0.00320143
0.00320154
0.00320169
0.00320187
0.00320211
0.00320243
0.00320283
0.00320336
0.00320404
0.00320492
0.00320606
0.00320754
0.00320946
0.00321195
0.00321518
0.00321936
0.0032248
0.00323187
0.00324109
0.00325315
0.00326903
0.00329014
0.00331868
0.00335834
0.00341613
0.00350693
0.00366033
0.00397461
0.00471485
0.00348333
0.00325713
0.00306648
0.00290631
0.0027735
0.00266669
0.00258482
0.00252529
0.00248405
0.00245672
0.00243935
0.00242874
0.00242251
0.002419
0.00241709
0.00241608
0.00241557
0.00241532
0.0024152
0.00241515
0.00241512
0.00241511
0.00241511
0.00241511
0.00241511
0.00241511
0.00241511
0.00241512
0.00241512
0.00241513
0.00241514
0.00241515
0.00241516
0.00241518
0.0024152
0.00241523
0.00241527
0.00241532
0.00241538
0.00241546
0.00241557
0.00241572
0.0024159
0.00241615
0.00241647
0.0024169
0.00241747
0.00241824
0.00241928
0.00242071
0.0024227
0.0024255
0.00242954
0.00243552
0.00244465
0.00245917
0.00248427
0.00252877
0.00263999
0.002908
0.0034799
0.00324417
0.00304085
0.00286854
0.00272672
0.00261431
0.00252896
0.00246703
0.0024241
0.0023956
0.00237744
0.00236633
0.00235978
0.00235607
0.00235404
0.00235297
0.00235243
0.00235217
0.00235204
0.00235199
0.00235196
0.00235195
0.00235195
0.00235195
0.00235195
0.00235195
0.00235195
0.00235195
0.00235195
0.00235195
0.00235195
0.00235195
0.00235195
0.00235196
0.00235196
0.00235196
0.00235197
0.00235198
0.00235199
0.002352
0.00235202
0.00235204
0.00235207
0.00235212
0.00235217
0.00235225
0.00235236
0.00235252
0.00235274
0.00235307
0.00235356
0.00235431
0.00235548
0.00235734
0.00236041
0.00236562
0.00237502
0.00239245
0.00242948
0.00253005
0.00347973
0.00324335
0.00303891
0.00286538
0.00272256
0.00260956
0.00252399
0.00246201
0.00241905
0.00239051
0.0023723
0.00236113
0.00235454
0.00235079
0.00234875
0.00234767
0.00234712
0.00234686
0.00234673
0.00234667
0.00234665
0.00234664
0.00234663
0.00234663
0.00234663
0.00234663
0.00234663
0.00234663
0.00234663
0.00234663
0.00234663
0.00234663
0.00234663
0.00234663
0.00234663
0.00234663
0.00234663
0.00234663
0.00234663
0.00234664
0.00234664
0.00234665
0.00234665
0.00234666
0.00234668
0.00234671
0.00234675
0.00234681
0.00234692
0.00234709
0.00234737
0.00234783
0.0023486
0.00234991
0.00235218
0.00235618
0.00236353
0.00237757
0.00240396
0.00246579
0.00347972
0.00324325
0.00303867
0.00286499
0.00272207
0.00260903
0.00252347
0.00246153
0.0024186
0.00239008
0.00237188
0.00236072
0.00235413
0.00235038
0.00234834
0.00234726
0.00234671
0.00234644
0.00234631
0.00234626
0.00234623
0.00234622
0.00234622
0.00234621
0.00234621
0.00234621
0.00234621
0.00234621
0.00234621
0.00234621
0.00234621
0.00234621
0.00234621
0.00234621
0.00234621
0.00234621
0.00234621
0.00234621
0.00234621
0.00234622
0.00234622
0.00234622
0.00234622
0.00234623
0.00234624
0.00234626
0.00234629
0.00234635
0.00234644
0.00234659
0.00234684
0.00234727
0.00234799
0.00234924
0.0023514
0.00235524
0.00236227
0.0023756
0.0024006
0.00245648
0.00347972
0.00324321
0.00303858
0.00286487
0.00272193
0.00260889
0.00252333
0.00246142
0.00241852
0.00239002
0.00237184
0.00236068
0.0023541
0.00235035
0.00234831
0.00234723
0.00234668
0.00234641
0.00234629
0.00234623
0.0023462
0.00234619
0.00234619
0.00234618
0.00234618
0.00234618
0.00234618
0.00234618
0.00234618
0.00234618
0.00234618
0.00234618
0.00234618
0.00234618
0.00234618
0.00234618
0.00234618
0.00234618
0.00234618
0.00234619
0.00234619
0.00234619
0.00234619
0.0023462
0.00234621
0.00234623
0.00234626
0.00234631
0.0023464
0.00234655
0.0023468
0.00234722
0.00234794
0.00234917
0.0023513
0.00235505
0.00236181
0.00237439
0.00239735
0.00244831
0.00347971
0.00324318
0.00303852
0.00286478
0.00272182
0.00260878
0.00252324
0.00246135
0.00241847
0.00238999
0.00237182
0.00236067
0.00235409
0.00235035
0.0023483
0.00234722
0.00234668
0.00234641
0.00234628
0.00234623
0.0023462
0.00234619
0.00234618
0.00234618
0.00234618
0.00234618
0.00234618
0.00234618
0.00234618
0.00234618
0.00234618
0.00234618
0.00234618
0.00234618
0.00234618
0.00234618
0.00234618
0.00234618
0.00234618
0.00234618
0.00234619
0.00234619
0.00234619
0.0023462
0.00234621
0.00234623
0.00234626
0.00234631
0.0023464
0.00234655
0.0023468
0.00234722
0.00234793
0.00234915
0.00235125
0.0023549
0.00236139
0.00237319
0.00239386
0.00243795
0.00347971
0.00324316
0.00303847
0.00286471
0.00272174
0.00260869
0.00252317
0.00246129
0.00241843
0.00238996
0.0023718
0.00236066
0.00235408
0.00235035
0.0023483
0.00234722
0.00234668
0.00234641
0.00234628
0.00234623
0.0023462
0.00234619
0.00234618
0.00234618
0.00234618
0.00234618
0.00234618
0.00234618
0.00234618
0.00234618
0.00234618
0.00234618
0.00234618
0.00234618
0.00234618
0.00234618
0.00234618
0.00234618
0.00234618
0.00234618
0.00234618
0.00234619
0.00234619
0.0023462
0.00234621
0.00234623
0.00234626
0.00234631
0.0023464
0.00234655
0.00234679
0.00234721
0.00234792
0.00234913
0.0023512
0.00235476
0.00236098
0.00237202
0.00239067
0.00242803
0.00347971
0.00324315
0.00303843
0.00286465
0.00272167
0.00260862
0.0025231
0.00246124
0.00241839
0.00238994
0.00237179
0.00236065
0.00235408
0.00235034
0.0023483
0.00234722
0.00234668
0.00234641
0.00234628
0.00234623
0.0023462
0.00234619
0.00234618
0.00234618
0.00234618
0.00234618
0.00234618
0.00234618
0.00234618
0.00234618
0.00234618
0.00234618
0.00234618
0.00234618
0.00234618
0.00234618
0.00234618
0.00234618
0.00234618
0.00234618
0.00234618
0.00234619
0.00234619
0.0023462
0.00234621
0.00234623
0.00234626
0.00234631
0.0023464
0.00234654
0.00234679
0.00234721
0.00234792
0.00234911
0.00235114
0.00235462
0.00236058
0.00237092
0.00238784
0.00241954
0.00347971
0.00324314
0.0030384
0.0028646
0.00272161
0.00260856
0.00252305
0.00246119
0.00241836
0.00238992
0.00237178
0.00236065
0.00235408
0.00235034
0.0023483
0.00234722
0.00234668
0.00234641
0.00234628
0.00234623
0.0023462
0.00234619
0.00234618
0.00234618
0.00234618
0.00234618
0.00234618
0.00234618
0.00234618
0.00234618
0.00234618
0.00234618
0.00234618
0.00234618
0.00234618
0.00234618
0.00234618
0.00234618
0.00234618
0.00234618
0.00234618
0.00234619
0.00234619
0.0023462
0.00234621
0.00234623
0.00234626
0.00234631
0.0023464
0.00234654
0.00234679
0.00234721
0.00234791
0.00234909
0.00235109
0.00235448
0.0023602
0.00236989
0.00238533
0.0024125
0.00347971
0.00324313
0.00303838
0.00286456
0.00272156
0.00260851
0.002523
0.00246116
0.00241834
0.0023899
0.00237177
0.00236064
0.00235407
0.00235034
0.0023483
0.00234722
0.00234668
0.00234641
0.00234628
0.00234623
0.0023462
0.00234619
0.00234618
0.00234618
0.00234618
0.00234618
0.00234618
0.00234618
0.00234618
0.00234618
0.00234618
0.00234618
0.00234618
0.00234618
0.00234618
0.00234618
0.00234618
0.00234618
0.00234618
0.00234618
0.00234618
0.00234619
0.00234619
0.0023462
0.00234621
0.00234623
0.00234626
0.00234631
0.0023464
0.00234654
0.00234679
0.00234721
0.0023479
0.00234907
0.00235104
0.00235434
0.00235983
0.00236894
0.0023831
0.00240666
0.00347971
0.00324313
0.00303836
0.00286453
0.00272152
0.00260847
0.00252296
0.00246112
0.00241831
0.00238989
0.00237176
0.00236064
0.00235407
0.00235034
0.0023483
0.00234722
0.00234668
0.00234641
0.00234628
0.00234623
0.0023462
0.00234619
0.00234618
0.00234618
0.00234618
0.00234618
0.00234618
0.00234618
0.00234618
0.00234618
0.00234618
0.00234618
0.00234618
0.00234618
0.00234618
0.00234618
0.00234618
0.00234618
0.00234618
0.00234618
0.00234618
0.00234619
0.00234619
0.0023462
0.00234621
0.00234623
0.00234626
0.00234631
0.0023464
0.00234654
0.00234679
0.0023472
0.00234789
0.00234905
0.00235099
0.00235421
0.00235949
0.00236808
0.00238112
0.00240179
0.00347971
0.00324312
0.00303834
0.0028645
0.00272148
0.00260843
0.00252293
0.00246109
0.00241829
0.00238987
0.00237175
0.00236063
0.00235407
0.00235034
0.0023483
0.00234722
0.00234668
0.00234641
0.00234628
0.00234623
0.0023462
0.00234619
0.00234618
0.00234618
0.00234618
0.00234618
0.00234618
0.00234618
0.00234618
0.00234618
0.00234618
0.00234618
0.00234618
0.00234618
0.00234618
0.00234618
0.00234618
0.00234618
0.00234618
0.00234618
0.00234618
0.00234619
0.00234619
0.0023462
0.00234621
0.00234623
0.00234626
0.00234631
0.0023464
0.00234654
0.00234679
0.0023472
0.00234789
0.00234903
0.00235094
0.00235408
0.00235917
0.0023673
0.00237938
0.00239769
0.00347971
0.00324312
0.00303833
0.00286448
0.00272145
0.0026084
0.0025229
0.00246107
0.00241827
0.00238986
0.00237174
0.00236063
0.00235407
0.00235034
0.0023483
0.00234722
0.00234668
0.00234641
0.00234628
0.00234623
0.0023462
0.00234619
0.00234618
0.00234618
0.00234618
0.00234618
0.00234618
0.00234618
0.00234618
0.00234618
0.00234618
0.00234618
0.00234618
0.00234618
0.00234618
0.00234618
0.00234618
0.00234618
0.00234618
0.00234618
0.00234618
0.00234619
0.00234619
0.0023462
0.00234621
0.00234623
0.00234626
0.00234631
0.0023464
0.00234654
0.00234679
0.0023472
0.00234788
0.00234902
0.00235089
0.00235396
0.00235888
0.00236659
0.00237784
0.00239424
0.00347971
0.00324312
0.00303832
0.00286446
0.00272143
0.00260837
0.00252287
0.00246105
0.00241826
0.00238985
0.00237174
0.00236062
0.00235406
0.00235034
0.0023483
0.00234722
0.00234668
0.00234641
0.00234628
0.00234623
0.0023462
0.00234619
0.00234618
0.00234618
0.00234618
0.00234618
0.00234618
0.00234618
0.00234618
0.00234618
0.00234618
0.00234618
0.00234618
0.00234618
0.00234618
0.00234618
0.00234618
0.00234618
0.00234618
0.00234618
0.00234618
0.00234619
0.00234619
0.0023462
0.00234621
0.00234623
0.00234626
0.00234631
0.0023464
0.00234654
0.00234679
0.00234719
0.00234787
0.002349
0.00235085
0.00235385
0.00235861
0.00236596
0.00237649
0.00239132
0.00347971
0.00324311
0.00303831
0.00286444
0.00272141
0.00260835
0.00252285
0.00246103
0.00241825
0.00238984
0.00237173
0.00236062
0.00235406
0.00235034
0.0023483
0.00234722
0.00234668
0.00234641
0.00234628
0.00234623
0.0023462
0.00234619
0.00234618
0.00234618
0.00234618
0.00234618
0.00234618
0.00234618
0.00234618
0.00234618
0.00234618
0.00234618
0.00234618
0.00234618
0.00234618
0.00234618
0.00234618
0.00234618
0.00234618
0.00234618
0.00234618
0.00234619
0.00234619
0.0023462
0.00234621
0.00234623
0.00234626
0.00234631
0.0023464
0.00234654
0.00234679
0.00234719
0.00234787
0.00234898
0.00235081
0.00235375
0.00235837
0.00236539
0.00237531
0.00238885
0.00347971
0.00324311
0.00303831
0.00286443
0.00272139
0.00260833
0.00252283
0.00246102
0.00241824
0.00238984
0.00237173
0.00236062
0.00235406
0.00235033
0.0023483
0.00234722
0.00234668
0.00234641
0.00234628
0.00234623
0.0023462
0.00234619
0.00234618
0.00234618
0.00234618
0.00234618
0.00234618
0.00234618
0.00234618
0.00234618
0.00234618
0.00234618
0.00234618
0.00234618
0.00234618
0.00234618
0.00234618
0.00234618
0.00234618
0.00234618
0.00234618
0.00234619
0.00234619
0.0023462
0.00234621
0.00234623
0.00234626
0.00234631
0.0023464
0.00234654
0.00234678
0.00234719
0.00234786
0.00234897
0.00235077
0.00235366
0.00235815
0.0023649
0.00237428
0.00238676
0.00347971
0.00324311
0.0030383
0.00286442
0.00272138
0.00260831
0.00252282
0.002461
0.00241823
0.00238983
0.00237172
0.00236062
0.00235406
0.00235033
0.0023483
0.00234722
0.00234668
0.00234641
0.00234628
0.00234623
0.0023462
0.00234619
0.00234618
0.00234618
0.00234618
0.00234618
0.00234618
0.00234618
0.00234618
0.00234618
0.00234618
0.00234618
0.00234618
0.00234618
0.00234618
0.00234618
0.00234618
0.00234618
0.00234618
0.00234618
0.00234618
0.00234619
0.00234619
0.0023462
0.00234621
0.00234623
0.00234626
0.00234631
0.0023464
0.00234654
0.00234678
0.00234719
0.00234786
0.00234896
0.00235074
0.00235358
0.00235796
0.00236447
0.0023734
0.00238501
0.00347971
0.00324311
0.0030383
0.00286441
0.00272136
0.0026083
0.0025228
0.00246099
0.00241822
0.00238982
0.00237172
0.00236061
0.00235406
0.00235033
0.0023483
0.00234722
0.00234668
0.00234641
0.00234628
0.00234623
0.0023462
0.00234619
0.00234618
0.00234618
0.00234618
0.00234618
0.00234618
0.00234618
0.00234618
0.00234618
0.00234618
0.00234618
0.00234618
0.00234618
0.00234618
0.00234618
0.00234618
0.00234618
0.00234618
0.00234618
0.00234618
0.00234619
0.00234619
0.0023462
0.00234621
0.00234623
0.00234626
0.00234631
0.0023464
0.00234654
0.00234678
0.00234719
0.00234785
0.00234895
0.00235071
0.00235351
0.0023578
0.0023641
0.00237265
0.00238354
0.00347971
0.00324311
0.00303829
0.0028644
0.00272135
0.00260829
0.00252279
0.00246099
0.00241821
0.00238982
0.00237172
0.00236061
0.00235406
0.00235033
0.0023483
0.00234722
0.00234668
0.00234641
0.00234628
0.00234623
0.0023462
0.00234619
0.00234618
0.00234618
0.00234618
0.00234618
0.00234618
0.00234618
0.00234618
0.00234618
0.00234618
0.00234618
0.00234618
0.00234618
0.00234618
0.00234618
0.00234618
0.00234618
0.00234618
0.00234618
0.00234618
0.00234619
0.00234619
0.0023462
0.00234621
0.00234623
0.00234626
0.00234631
0.0023464
0.00234654
0.00234678
0.00234718
0.00234785
0.00234894
0.00235069
0.00235345
0.00235766
0.0023638
0.00237203
0.00238234
0.00347971
0.00324311
0.00303829
0.0028644
0.00272135
0.00260828
0.00252278
0.00246098
0.00241821
0.00238982
0.00237171
0.00236061
0.00235406
0.00235033
0.00234829
0.00234722
0.00234668
0.00234641
0.00234628
0.00234623
0.0023462
0.00234619
0.00234618
0.00234618
0.00234618
0.00234618
0.00234618
0.00234618
0.00234618
0.00234618
0.00234618
0.00234618
0.00234618
0.00234618
0.00234618
0.00234618
0.00234618
0.00234618
0.00234618
0.00234618
0.00234618
0.00234619
0.00234619
0.0023462
0.00234621
0.00234623
0.00234626
0.00234631
0.0023464
0.00234654
0.00234678
0.00234718
0.00234785
0.00234893
0.00235067
0.0023534
0.00235755
0.00236355
0.00237153
0.00238136
0.00347971
0.00324311
0.00303829
0.0028644
0.00272134
0.00260827
0.00252278
0.00246097
0.0024182
0.00238981
0.00237171
0.00236061
0.00235406
0.00235033
0.00234829
0.00234722
0.00234668
0.00234641
0.00234628
0.00234623
0.0023462
0.00234619
0.00234618
0.00234618
0.00234618
0.00234618
0.00234618
0.00234618
0.00234618
0.00234618
0.00234618
0.00234618
0.00234618
0.00234618
0.00234618
0.00234618
0.00234618
0.00234618
0.00234618
0.00234618
0.00234618
0.00234619
0.00234619
0.0023462
0.00234621
0.00234623
0.00234626
0.00234631
0.0023464
0.00234654
0.00234678
0.00234718
0.00234784
0.00234892
0.00235065
0.00235337
0.00235747
0.00236335
0.00237114
0.0023806
0.00347971
0.00324311
0.00303829
0.00286439
0.00272134
0.00260827
0.00252277
0.00246097
0.0024182
0.00238981
0.00237171
0.00236061
0.00235406
0.00235033
0.00234829
0.00234722
0.00234668
0.00234641
0.00234628
0.00234623
0.0023462
0.00234619
0.00234618
0.00234618
0.00234618
0.00234618
0.00234618
0.00234618
0.00234618
0.00234618
0.00234618
0.00234618
0.00234618
0.00234618
0.00234618
0.00234618
0.00234618
0.00234618
0.00234618
0.00234618
0.00234618
0.00234619
0.00234619
0.0023462
0.00234621
0.00234623
0.00234626
0.00234631
0.0023464
0.00234654
0.00234678
0.00234718
0.00234784
0.00234892
0.00235064
0.00235334
0.0023574
0.00236322
0.00237085
0.00238005
0.00347971
0.00324311
0.00303829
0.00286439
0.00272134
0.00260827
0.00252277
0.00246097
0.0024182
0.00238981
0.00237171
0.00236061
0.00235406
0.00235033
0.00234829
0.00234722
0.00234668
0.00234641
0.00234628
0.00234623
0.0023462
0.00234619
0.00234618
0.00234618
0.00234618
0.00234618
0.00234618
0.00234618
0.00234618
0.00234618
0.00234618
0.00234618
0.00234618
0.00234618
0.00234618
0.00234618
0.00234618
0.00234618
0.00234618
0.00234618
0.00234618
0.00234619
0.00234619
0.0023462
0.00234621
0.00234623
0.00234626
0.00234631
0.0023464
0.00234654
0.00234678
0.00234718
0.00234784
0.00234892
0.00235064
0.00235333
0.00235737
0.00236313
0.00237067
0.00237968
0.00347971
0.00324311
0.00303829
0.00286439
0.00272134
0.00260827
0.00252277
0.00246097
0.0024182
0.00238981
0.00237171
0.00236061
0.00235406
0.00235033
0.00234829
0.00234722
0.00234668
0.00234641
0.00234628
0.00234623
0.0023462
0.00234619
0.00234618
0.00234618
0.00234618
0.00234618
0.00234618
0.00234618
0.00234618
0.00234618
0.00234618
0.00234618
0.00234618
0.00234618
0.00234618
0.00234618
0.00234618
0.00234618
0.00234618
0.00234618
0.00234618
0.00234619
0.00234619
0.0023462
0.00234621
0.00234623
0.00234626
0.00234631
0.0023464
0.00234654
0.00234678
0.00234718
0.00234784
0.00234892
0.00235064
0.00235333
0.00235736
0.00236311
0.0023706
0.0023795
0.00347971
0.00324311
0.00303829
0.00286439
0.00272134
0.00260827
0.00252277
0.00246097
0.0024182
0.00238981
0.00237171
0.00236061
0.00235406
0.00235033
0.00234829
0.00234722
0.00234668
0.00234641
0.00234628
0.00234623
0.0023462
0.00234619
0.00234618
0.00234618
0.00234618
0.00234618
0.00234618
0.00234618
0.00234618
0.00234618
0.00234618
0.00234618
0.00234618
0.00234618
0.00234618
0.00234618
0.00234618
0.00234618
0.00234618
0.00234618
0.00234618
0.00234619
0.00234619
0.0023462
0.00234621
0.00234623
0.00234626
0.00234631
0.0023464
0.00234654
0.00234678
0.00234718
0.00234784
0.00234892
0.00235064
0.00235334
0.00235738
0.00236313
0.00237062
0.0023795
0.00347971
0.00324311
0.00303829
0.0028644
0.00272134
0.00260827
0.00252278
0.00246097
0.0024182
0.00238981
0.00237171
0.00236061
0.00235406
0.00235033
0.00234829
0.00234722
0.00234668
0.00234641
0.00234628
0.00234623
0.0023462
0.00234619
0.00234618
0.00234618
0.00234618
0.00234618
0.00234618
0.00234618
0.00234618
0.00234618
0.00234618
0.00234618
0.00234618
0.00234618
0.00234618
0.00234618
0.00234618
0.00234618
0.00234618
0.00234618
0.00234618
0.00234619
0.00234619
0.0023462
0.00234621
0.00234623
0.00234626
0.00234631
0.0023464
0.00234654
0.00234678
0.00234718
0.00234784
0.00234892
0.00235065
0.00235336
0.00235742
0.00236321
0.00237075
0.00237968
0.00347971
0.00324311
0.00303829
0.0028644
0.00272135
0.00260828
0.00252278
0.00246098
0.00241821
0.00238982
0.00237171
0.00236061
0.00235406
0.00235033
0.00234829
0.00234722
0.00234668
0.00234641
0.00234628
0.00234623
0.0023462
0.00234619
0.00234618
0.00234618
0.00234618
0.00234618
0.00234618
0.00234618
0.00234618
0.00234618
0.00234618
0.00234618
0.00234618
0.00234618
0.00234618
0.00234618
0.00234618
0.00234618
0.00234618
0.00234618
0.00234618
0.00234619
0.00234619
0.0023462
0.00234621
0.00234623
0.00234626
0.00234631
0.0023464
0.00234654
0.00234678
0.00234718
0.00234785
0.00234893
0.00235067
0.00235339
0.00235749
0.00236335
0.00237099
0.00238005
0.00347971
0.00324311
0.00303829
0.0028644
0.00272135
0.00260829
0.00252279
0.00246098
0.00241821
0.00238982
0.00237171
0.00236061
0.00235406
0.00235033
0.00234829
0.00234722
0.00234668
0.00234641
0.00234628
0.00234623
0.0023462
0.00234619
0.00234618
0.00234618
0.00234618
0.00234618
0.00234618
0.00234618
0.00234618
0.00234618
0.00234618
0.00234618
0.00234618
0.00234618
0.00234618
0.00234618
0.00234618
0.00234618
0.00234618
0.00234618
0.00234618
0.00234619
0.00234619
0.0023462
0.00234621
0.00234623
0.00234626
0.00234631
0.0023464
0.00234654
0.00234678
0.00234719
0.00234785
0.00234894
0.00235069
0.00235344
0.00235759
0.00236355
0.00237134
0.00238063
0.00347971
0.00324311
0.0030383
0.00286441
0.00272136
0.0026083
0.0025228
0.00246099
0.00241822
0.00238982
0.00237172
0.00236061
0.00235406
0.00235033
0.00234829
0.00234722
0.00234668
0.00234641
0.00234628
0.00234623
0.0023462
0.00234619
0.00234618
0.00234618
0.00234618
0.00234618
0.00234618
0.00234618
0.00234618
0.00234618
0.00234618
0.00234618
0.00234618
0.00234618
0.00234618
0.00234618
0.00234618
0.00234618
0.00234618
0.00234618
0.00234618
0.00234619
0.00234619
0.0023462
0.00234621
0.00234623
0.00234626
0.00234631
0.0023464
0.00234654
0.00234678
0.00234719
0.00234785
0.00234895
0.00235071
0.00235349
0.00235771
0.00236381
0.0023718
0.00238142
0.00347971
0.00324311
0.0030383
0.00286442
0.00272138
0.00260831
0.00252281
0.002461
0.00241822
0.00238983
0.00237172
0.00236061
0.00235406
0.00235033
0.0023483
0.00234722
0.00234668
0.00234641
0.00234628
0.00234623
0.0023462
0.00234619
0.00234618
0.00234618
0.00234618
0.00234618
0.00234618
0.00234618
0.00234618
0.00234618
0.00234618
0.00234618
0.00234618
0.00234618
0.00234618
0.00234618
0.00234618
0.00234618
0.00234618
0.00234618
0.00234618
0.00234619
0.00234619
0.0023462
0.00234621
0.00234623
0.00234626
0.00234631
0.0023464
0.00234654
0.00234678
0.00234719
0.00234786
0.00234896
0.00235074
0.00235356
0.00235787
0.00236413
0.00237239
0.00238245
0.00347971
0.00324311
0.00303831
0.00286443
0.00272139
0.00260833
0.00252283
0.00246102
0.00241823
0.00238983
0.00237172
0.00236062
0.00235406
0.00235033
0.0023483
0.00234722
0.00234668
0.00234641
0.00234628
0.00234623
0.0023462
0.00234619
0.00234618
0.00234618
0.00234618
0.00234618
0.00234618
0.00234618
0.00234618
0.00234618
0.00234618
0.00234618
0.00234618
0.00234618
0.00234618
0.00234618
0.00234618
0.00234618
0.00234618
0.00234618
0.00234618
0.00234619
0.00234619
0.0023462
0.00234621
0.00234623
0.00234626
0.00234631
0.0023464
0.00234654
0.00234679
0.00234719
0.00234786
0.00234897
0.00235077
0.00235364
0.00235805
0.00236452
0.00237311
0.00238375
0.00347971
0.00324311
0.00303831
0.00286444
0.00272141
0.00260835
0.00252285
0.00246103
0.00241824
0.00238984
0.00237173
0.00236062
0.00235406
0.00235033
0.0023483
0.00234722
0.00234668
0.00234641
0.00234628
0.00234623
0.0023462
0.00234619
0.00234618
0.00234618
0.00234618
0.00234618
0.00234618
0.00234618
0.00234618
0.00234618
0.00234618
0.00234618
0.00234618
0.00234618
0.00234618
0.00234618
0.00234618
0.00234618
0.00234618
0.00234618
0.00234618
0.00234619
0.00234619
0.0023462
0.00234621
0.00234623
0.00234626
0.00234631
0.0023464
0.00234654
0.00234679
0.00234719
0.00234787
0.00234899
0.00235081
0.00235374
0.00235826
0.00236498
0.00237398
0.00238535
0.00347971
0.00324312
0.00303832
0.00286446
0.00272143
0.00260837
0.00252287
0.00246105
0.00241826
0.00238985
0.00237173
0.00236062
0.00235406
0.00235034
0.0023483
0.00234722
0.00234668
0.00234641
0.00234628
0.00234623
0.0023462
0.00234619
0.00234618
0.00234618
0.00234618
0.00234618
0.00234618
0.00234618
0.00234618
0.00234618
0.00234618
0.00234618
0.00234618
0.00234618
0.00234618
0.00234618
0.00234618
0.00234618
0.00234618
0.00234618
0.00234618
0.00234619
0.00234619
0.0023462
0.00234621
0.00234623
0.00234626
0.00234631
0.0023464
0.00234654
0.00234679
0.0023472
0.00234788
0.002349
0.00235085
0.00235384
0.0023585
0.00236552
0.002375
0.0023873
0.00347971
0.00324312
0.00303833
0.00286448
0.00272145
0.0026084
0.00252289
0.00246107
0.00241827
0.00238986
0.00237174
0.00236063
0.00235406
0.00235034
0.0023483
0.00234722
0.00234668
0.00234641
0.00234628
0.00234623
0.0023462
0.00234619
0.00234618
0.00234618
0.00234618
0.00234618
0.00234618
0.00234618
0.00234618
0.00234618
0.00234618
0.00234618
0.00234618
0.00234618
0.00234618
0.00234618
0.00234618
0.00234618
0.00234618
0.00234618
0.00234618
0.00234619
0.00234619
0.0023462
0.00234621
0.00234623
0.00234626
0.00234631
0.0023464
0.00234654
0.00234679
0.0023472
0.00234788
0.00234902
0.0023509
0.00235396
0.00235877
0.00236614
0.00237619
0.00238967
0.00347971
0.00324312
0.00303834
0.0028645
0.00272148
0.00260843
0.00252292
0.00246109
0.00241829
0.00238987
0.00237175
0.00236063
0.00235407
0.00235034
0.0023483
0.00234722
0.00234668
0.00234641
0.00234628
0.00234623
0.0023462
0.00234619
0.00234618
0.00234618
0.00234618
0.00234618
0.00234618
0.00234618
0.00234618
0.00234618
0.00234618
0.00234618
0.00234618
0.00234618
0.00234618
0.00234618
0.00234618
0.00234618
0.00234618
0.00234618
0.00234618
0.00234619
0.00234619
0.0023462
0.00234621
0.00234623
0.00234626
0.00234631
0.0023464
0.00234654
0.00234679
0.0023472
0.00234789
0.00234904
0.00235095
0.00235408
0.00235907
0.00236685
0.00237757
0.00239255
0.00347971
0.00324313
0.00303836
0.00286453
0.00272152
0.00260847
0.00252296
0.00246112
0.00241831
0.00238988
0.00237175
0.00236063
0.00235407
0.00235034
0.0023483
0.00234722
0.00234668
0.00234641
0.00234628
0.00234623
0.0023462
0.00234619
0.00234618
0.00234618
0.00234618
0.00234618
0.00234618
0.00234618
0.00234618
0.00234618
0.00234618
0.00234618
0.00234618
0.00234618
0.00234618
0.00234618
0.00234618
0.00234618
0.00234618
0.00234618
0.00234618
0.00234619
0.00234619
0.0023462
0.00234621
0.00234623
0.00234626
0.00234631
0.0023464
0.00234654
0.00234679
0.0023472
0.0023479
0.00234906
0.002351
0.00235422
0.0023594
0.00236766
0.00237917
0.00239606
0.00347971
0.00324313
0.00303838
0.00286456
0.00272156
0.00260851
0.002523
0.00246115
0.00241833
0.0023899
0.00237176
0.00236064
0.00235407
0.00235034
0.0023483
0.00234722
0.00234668
0.00234641
0.00234628
0.00234623
0.0023462
0.00234619
0.00234618
0.00234618
0.00234618
0.00234618
0.00234618
0.00234618
0.00234618
0.00234618
0.00234618
0.00234618
0.00234618
0.00234618
0.00234618
0.00234618
0.00234618
0.00234618
0.00234618
0.00234618
0.00234618
0.00234619
0.00234619
0.0023462
0.00234621
0.00234623
0.00234626
0.00234631
0.0023464
0.00234654
0.00234679
0.00234721
0.00234791
0.00234908
0.00235105
0.00235436
0.00235976
0.00236858
0.00238101
0.00240036
0.00347971
0.00324314
0.0030384
0.0028646
0.00272161
0.00260856
0.00252304
0.00246119
0.00241836
0.00238992
0.00237177
0.00236064
0.00235407
0.00235034
0.0023483
0.00234722
0.00234668
0.00234641
0.00234628
0.00234623
0.0023462
0.00234619
0.00234618
0.00234618
0.00234618
0.00234618
0.00234618
0.00234618
0.00234618
0.00234618
0.00234618
0.00234618
0.00234618
0.00234618
0.00234618
0.00234618
0.00234618
0.00234618
0.00234618
0.00234618
0.00234618
0.00234619
0.00234619
0.0023462
0.00234621
0.00234623
0.00234626
0.00234631
0.0023464
0.00234654
0.00234679
0.00234721
0.00234791
0.0023491
0.00235111
0.00235452
0.00236015
0.00236962
0.00238312
0.00240567
0.00347971
0.00324315
0.00303843
0.00286465
0.00272167
0.00260862
0.0025231
0.00246123
0.00241839
0.00238994
0.00237179
0.00236065
0.00235408
0.00235034
0.0023483
0.00234722
0.00234668
0.00234641
0.00234628
0.00234623
0.0023462
0.00234619
0.00234618
0.00234618
0.00234618
0.00234618
0.00234618
0.00234618
0.00234618
0.00234618
0.00234618
0.00234618
0.00234618
0.00234618
0.00234618
0.00234618
0.00234618
0.00234618
0.00234618
0.00234618
0.00234618
0.00234619
0.00234619
0.0023462
0.00234621
0.00234623
0.00234626
0.00234631
0.0023464
0.00234654
0.00234679
0.00234721
0.00234792
0.00234912
0.00235117
0.00235467
0.00236057
0.00237078
0.00238556
0.00241231
0.00347971
0.00324316
0.00303847
0.00286471
0.00272174
0.00260869
0.00252316
0.00246128
0.00241843
0.00238996
0.0023718
0.00236066
0.00235408
0.00235035
0.0023483
0.00234722
0.00234668
0.00234641
0.00234628
0.00234623
0.0023462
0.00234619
0.00234618
0.00234618
0.00234618
0.00234618
0.00234618
0.00234618
0.00234618
0.00234618
0.00234618
0.00234618
0.00234618
0.00234618
0.00234618
0.00234618
0.00234618
0.00234618
0.00234618
0.00234618
0.00234618
0.00234619
0.00234619
0.0023462
0.00234621
0.00234623
0.00234626
0.00234631
0.0023464
0.00234655
0.00234679
0.00234722
0.00234793
0.00234914
0.00235122
0.00235483
0.00236102
0.00237207
0.00238837
0.00242075
0.00347971
0.00324318
0.00303852
0.00286478
0.00272182
0.00260878
0.00252324
0.00246134
0.00241847
0.00238999
0.00237182
0.00236067
0.00235409
0.00235035
0.0023483
0.00234722
0.00234668
0.00234641
0.00234628
0.00234623
0.0023462
0.00234619
0.00234618
0.00234618
0.00234618
0.00234618
0.00234618
0.00234618
0.00234618
0.00234618
0.00234618
0.00234618
0.00234618
0.00234618
0.00234618
0.00234618
0.00234618
0.00234618
0.00234618
0.00234618
0.00234618
0.00234619
0.00234619
0.0023462
0.00234621
0.00234623
0.00234626
0.00234631
0.0023464
0.00234655
0.0023468
0.00234722
0.00234794
0.00234916
0.00235128
0.00235499
0.0023615
0.0023735
0.00239166
0.00243171
0.00347972
0.00324321
0.00303858
0.00286487
0.00272193
0.00260888
0.00252333
0.00246141
0.00241852
0.00239002
0.00237184
0.00236068
0.00235409
0.00235035
0.00234831
0.00234723
0.00234668
0.00234641
0.00234629
0.00234623
0.0023462
0.00234619
0.00234619
0.00234618
0.00234618
0.00234618
0.00234618
0.00234618
0.00234618
0.00234618
0.00234618
0.00234618
0.00234618
0.00234618
0.00234618
0.00234618
0.00234618
0.00234618
0.00234618
0.00234619
0.00234619
0.00234619
0.00234619
0.0023462
0.00234621
0.00234623
0.00234626
0.00234631
0.0023464
0.00234655
0.0023468
0.00234722
0.00234794
0.00234918
0.00235133
0.00235515
0.002362
0.00237505
0.00239558
0.00244628
0.00347972
0.00324325
0.00303867
0.00286499
0.00272207
0.00260903
0.00252346
0.00246152
0.0024186
0.00239008
0.00237188
0.00236072
0.00235413
0.00235038
0.00234834
0.00234726
0.00234671
0.00234644
0.00234631
0.00234626
0.00234623
0.00234622
0.00234622
0.00234621
0.00234621
0.00234621
0.00234621
0.00234621
0.00234621
0.00234621
0.00234621
0.00234621
0.00234621
0.00234621
0.00234621
0.00234621
0.00234621
0.00234621