/*--------------------------------*- C++ -*----------------------------------*\
| =========                 |                                                 |
| \\      /  F ield         | OpenFOAM: The Open Source CFD Toolbox           |
|  \\    /   O peration     | Version:  2.4.0                                 |
|   \\  /    A nd           | Web:      www.OpenFOAM.org                      |
|    \\/     M anipulation  |                                                 |
\*---------------------------------------------------------------------------*/
FoamFile
{
    version     2.0;
    format      ascii;
    class       volScalarField;
    location    "15";
    object      nut;
}
// * * * * * * * * * * * * * * * * * * * * * * * * * * * * * * * * * * * * * //

dimensions      [0 2 -1 0 0 0 0];

internalField   nonuniform List<scalar> 
1800
(
0.0199531
0.0278234
0.031502
0.0335471
0.034853
0.035736
0.036341
0.0367605
0.0370612
0.0372888
0.0374728
0.0376317
0.0377772
0.0379164
0.0380535
0.0381911
0.0383304
0.0384722
0.0386169
0.0387648
0.00527032
0.0112207
0.015507
0.0182965
0.0200897
0.0212515
0.022002
0.0224806
0.0227806
0.0229646
0.0230751
0.0231408
0.0231805
0.0232066
0.023227
0.0232467
0.0232687
0.0232948
0.0233257
0.023362
0.000390877
0.00242279
0.00542583
0.00831448
0.0105916
0.0122342
0.0133728
0.0141423
0.0146489
0.0149709
0.0151652
0.015273
0.0153238
0.0153385
0.0153317
0.0153134
0.0152905
0.0152677
0.0152478
0.0152325
5.83873e-06
0.000128563
0.00079917
0.00212716
0.00385819
0.00559748
0.00708541
0.00824678
0.00910853
0.00972733
0.0101583
0.0104475
0.0106313
0.0107383
0.0107905
0.0108049
0.0107941
0.0107678
0.0107332
0.0106953
5.24108e-06
4.91097e-06
3.36167e-05
0.000191954
0.000607925
0.00135794
0.00237893
0.00350523
0.00457496
0.00549338
0.00623251
0.00680318
0.00723033
0.00754036
0.00775679
0.00789961
0.00798552
0.00802838
0.00803962
0.00802855
5.2359e-06
3.41497e-06
3.20173e-06
8.73788e-06
4.07413e-05
0.000140778
0.000366599
0.000769038
0.0013547
0.00207335
0.00284114
0.00357793
0.00423133
0.00477949
0.00522165
0.00556739
0.00582964
0.00602153
0.00615529
0.00624199
5.23579e-06
3.38559e-06
2.53671e-06
2.27689e-06
3.34405e-06
9.95791e-06
3.32915e-05
9.19951e-05
0.000213675
0.000429769
0.000761726
0.00120715
0.00173643
0.00230273
0.00285844
0.00336789
0.00381151
0.00418306
0.00448471
0.00472279
5.23578e-06
3.38613e-06
2.51788e-06
2.0604e-06
1.84969e-06
2.03387e-06
3.53032e-06
9.2672e-06
2.51768e-05
6.10119e-05
0.000131674
0.000256233
0.000453357
0.000733996
0.00109472
0.00151603
0.00196739
0.00241637
0.00283682
0.00321269
5.23578e-06
3.38774e-06
2.51982e-06
2.05423e-06
1.78185e-06
1.62871e-06
1.62163e-06
1.99178e-06
3.51928e-06
8.15059e-06
1.9502e-05
4.35568e-05
8.95617e-05
0.000170043
0.000299188
0.00048923
0.000745566
0.00106284
0.00142473
0.00180837
5.23578e-06
3.38965e-06
2.5231e-06
2.0578e-06
1.78229e-06
1.60829e-06
1.49906e-06
1.45525e-06
1.54304e-06
1.99483e-06
3.45172e-06
7.3345e-06
1.62149e-05
3.43788e-05
6.84924e-05
0.000127815
0.000223422
0.000365986
0.000562352
0.000812496
5.23578e-06
3.39174e-06
2.52682e-06
2.06248e-06
1.78724e-06
1.61197e-06
1.49509e-06
1.41697e-06
1.37361e-06
1.38534e-06
1.53114e-06
2.03829e-06
3.47263e-06
7.01879e-06
1.48149e-05
3.04448e-05
5.94532e-05
0.000109436
0.000189207
0.000306991
5.23577e-06
3.3939e-06
2.53071e-06
2.06752e-06
1.79292e-06
1.61783e-06
1.50035e-06
1.41913e-06
1.36312e-06
1.32854e-06
1.32171e-06
1.37244e-06
1.57081e-06
2.15544e-06
3.69052e-06
7.3299e-06
1.51618e-05
3.06412e-05
5.87859e-05
0.000105688
5.23576e-06
3.39599e-06
2.53453e-06
2.07253e-06
1.79867e-06
1.62396e-06
1.5065e-06
1.42484e-06
1.36728e-06
1.32741e-06
1.30252e-06
1.29454e-06
1.31584e-06
1.40618e-06
1.67675e-06
2.41361e-06
4.28084e-06
8.61813e-06
1.77344e-05
3.49589e-05
5.23575e-06
3.39791e-06
2.53804e-06
2.07716e-06
1.80403e-06
1.62971e-06
1.51235e-06
1.43047e-06
1.37233e-06
1.33126e-06
1.30348e-06
1.28731e-06
1.28348e-06
1.29789e-06
1.35023e-06
1.49875e-06
1.9055e-06
2.99044e-06
5.69103e-06
1.16699e-05
5.23573e-06
3.39953e-06
2.54102e-06
2.0811e-06
1.80859e-06
1.63459e-06
1.51726e-06
1.43514e-06
1.37643e-06
1.3344e-06
1.30512e-06
1.28642e-06
1.27745e-06
1.27889e-06
1.29432e-06
1.33531e-06
1.43668e-06
1.70891e-06
2.46613e-06
4.44362e-06
5.23572e-06
3.4008e-06
2.54334e-06
2.08418e-06
1.8122e-06
1.63855e-06
1.52145e-06
1.43947e-06
1.38089e-06
1.33902e-06
1.30993e-06
1.29141e-06
1.28237e-06
1.28264e-06
1.29314e-06
1.31697e-06
1.36259e-06
1.45976e-06
1.70678e-06
2.40993e-06
5.30093e-06
3.59856e-06
2.97911e-06
2.91344e-06
3.24915e-06
3.95602e-06
5.03518e-06
6.47675e-06
8.24201e-06
1.02633e-05
1.24542e-05
1.47221e-05
1.69778e-05
1.91414e-05
2.11429e-05
2.29221e-05
2.44204e-05
2.55195e-05
2.61018e-05
2.68584e-05
0.000382292
0.000386001
0.000389383
0.000392526
0.000395466
0.000398223
0.000400809
0.00040323
0.000405488
0.000407581
0.000409502
0.000411233
0.000412743
0.000413984
0.000414866
0.000415237
0.000414709
0.000412428
0.000405322
0.000387716
0.038916
0.0390705
0.039228
0.0393884
0.0395516
0.0234037
0.0234506
0.0235027
0.0235597
0.0236215
0.0152229
0.0152191
0.0152216
0.0152301
0.0152448
0.0106578
0.010623
0.0105925
0.0105673
0.010548
0.00800256
0.00796742
0.00792747
0.007886
0.00784559
0.00629137
0.00631179
0.00631021
0.00629232
0.0062629
0.00490521
0.00503996
0.00513436
0.0051948
0.00522696
0.00353735
0.00381049
0.00403485
0.004214
0.00435181
0.00219105
0.00255522
0.00288941
0.00318665
0.00344315
0.00110901
0.00143947
0.0017889
0.00214082
0.00247923
0.000468715
0.000677888
0.00093562
0.0012372
0.00156967
0.000177579
0.000281067
0.00042503
0.000618611
0.000865097
6.40983e-05
0.0001092
0.000177109
0.000278564
0.000424618
2.301e-05
4.15981e-05
7.10167e-05
0.000118281
0.000193095
8.78421e-06
1.63035e-05
2.8484e-05
4.90611e-05
8.41591e-05
4.13496e-06
7.1656e-06
1.2052e-05
2.04925e-05
3.56857e-05
2.67315e-05
2.61572e-05
2.60065e-05
2.66866e-05
2.98348e-05
0.000308618
0.000250371
0.000219246
0.000193141
0.000166554
0.0397176
0.0398863
0.040058
0.040233
0.0404116
0.0405948
0.0407842
0.0409829
0.041197
0.041437
0.0417079
0.0419085
0.041106
0.0377141
0.0134509
0.0236881
0.0237593
0.0238353
0.0239162
0.0240024
0.0240947
0.0241946
0.0243051
0.024432
0.0245838
0.0247526
0.0247901
0.0240029
0.0204005
0.00915263
0.0152656
0.0152925
0.0153255
0.0153648
0.0154106
0.0154637
0.0155253
0.0155982
0.0156867
0.0157947
0.0158989
0.0158329
0.0150491
0.0122613
0.00618912
0.0105354
0.0105296
0.010531
0.0105399
0.0105567
0.0105819
0.0106167
0.0106629
0.0107231
0.0107955
0.0108462
0.010722
0.01004
0.00815106
0.00432755
0.00780828
0.00777576
0.00774932
0.00773003
0.0077188
0.00771655
0.00772431
0.00774333
0.00777427
0.00781168
0.00782038
0.00768198
0.00715372
0.00592366
0.003186
0.0062261
0.00618554
0.00614432
0.00610511
0.00607019
0.00604157
0.00602103
0.00601008
0.00600898
0.00601212
0.00599129
0.00586572
0.00548346
0.00465957
0.00246785
0.00523608
0.00522709
0.00520453
0.00517256
0.00513496
0.00509526
0.00505671
0.00502223
0.00499362
0.00496829
0.00492814
0.00482197
0.00454783
0.0039463
0.00200218
0.0044525
0.00452065
0.00456081
0.00457739
0.00457466
0.00455689
0.00452842
0.00449365
0.00445649
0.00441824
0.00436984
0.0042796
0.00407122
0.00357316
0.00169257
0.00365804
0.00383267
0.00396964
0.00407194
0.0041428
0.00418584
0.00420515
0.00420538
0.00419138
0.00416674
0.00412809
0.00405503
0.00388362
0.00341808
0.00148336
0.00279183
0.00307147
0.00331497
0.00352126
0.00369058
0.00382425
0.00392462
0.00399497
0.00403922
0.00406081
0.00405828
0.00401615
0.0038738
0.00340498
0.0013412
0.00191534
0.00225767
0.00258408
0.00288562
0.00315633
0.00339276
0.00359362
0.00375924
0.00389096
0.00399004
0.00405387
0.00406716
0.00396495
0.003484
0.00124554
0.00115898
0.00148845
0.00183887
0.00219501
0.00254299
0.00287193
0.00317427
0.00344528
0.0036821
0.00388234
0.00404043
0.00413809
0.00410032
0.0036203
0.00118364
0.000622658
0.000875171
0.00117915
0.00152532
0.00189936
0.00228516
0.00266802
0.00303616
0.00338058
0.00369385
0.00396627
0.00417535
0.00423339
0.00378598
0.00114781
0.000305799
0.000466516
0.00068388
0.000962292
0.00129927
0.00168486
0.00210386
0.00253932
0.00297539
0.00339827
0.0037934
0.00413455
0.00432234
0.0039553
0.00113412
0.000141713
0.000231706
0.000366128
0.000557572
0.000815971
0.00114553
0.00154235
0.00199475
0.002486
0.00299802
0.00351202
0.00400031
0.00435598
0.00413703
0.00114629
6.23997e-05
0.000107746
0.000181901
0.000298248
0.00047221
0.000718773
0.00104867
0.00146486
0.00196136
0.0025254
0.00314028
0.00378308
0.0043474
0.00436729
0.00119431
3.83188e-05
5.66802e-05
9.17489e-05
0.000153513
0.000256033
0.000417534
0.000658507
0.000997695
0.00144747
0.00201189
0.00268821
0.00347118
0.00427025
0.00463685
0.001303
0.000142222
0.000123705
0.000115764
0.000125568
0.000164145
0.000247352
0.000395617
0.000633962
0.000990352
0.00149192
0.00216245
0.00303033
0.00404952
0.00487059
0.00150453
0.000653863
0.000374921
0.000322127
0.000277598
0.000245045
0.000757689
0.000802848
0.000755073
0.000631924
0.000528743
0.000786943
0.0014132
0.00153846
0.00145107
0.00132359
0.000767472
0.00100965
0.00131206
0.00157379
0.00162105
0.000661644
0.000899648
0.00108673
0.001255
0.00131871
0.000577739
0.000857654
0.000938156
0.0010098
0.00103599
0.000518989
0.000805535
0.000838254
0.000869595
0.00086621
0.000475375
0.000748874
0.000759178
0.000773496
0.000755637
0.000438469
0.000691053
0.000687272
0.000687508
0.000649446
0.000400244
0.000633062
0.000614462
0.000584257
0.00051792
0.000367228
0.000574759
0.000531475
0.000436973
0.000338679
0.000336835
0.000513632
0.000414373
0.000242604
0.000165163
0.000307608
0.000443544
0.000273639
0.000154824
0.000113061
0.000278745
0.000357422
0.000194525
0.000128389
9.93614e-05
0.000250525
0.000264978
0.000160504
0.000109258
8.21315e-05
0.000223366
0.000179965
0.000125446
7.90128e-05
6.4256e-05
0.000198349
0.00012109
7.21854e-05
4.3997e-05
4.85382e-05
3.25492e-05
3.55152e-05
3.49707e-05
3.11346e-05
2.70657e-05
0.000219825
0.00019691
0.000176596
0.000162295
0.000160826
0.000184036
0.00025116
0.000389127
0.000630886
0.00101679
0.00159688
0.00243807
0.00356309
0.0046368
0.00293226
0.000422559
0.000342564
0.000283068
0.000238807
0.000207715
0.000192045
0.000200404
0.000251715
0.000378921
0.000626959
0.00105238
0.00173489
0.00274327
0.00379695
0.00357006
0.00100473
0.00077407
0.000604155
0.000477256
0.000382761
0.00031453
0.000270948
0.000256719
0.00028704
0.000394216
0.000630841
0.0010645
0.00174791
0.002511
0.00275339
0.00137047
0.00116519
0.000970018
0.000795688
0.000647945
0.000527924
0.000435178
0.000370224
0.000337323
0.000348556
0.000429632
0.000621199
0.000951073
0.00133664
0.00156007
0.00132179
0.00129408
0.00119291
0.00105911
0.000917827
0.000783663
0.000665091
0.0005673
0.000494309
0.00045118
0.000446339
0.000492437
0.000597429
0.000733758
0.000841984
0.00106057
0.00115088
0.00118999
0.00115332
0.00108067
0.000990398
0.000895745
0.00080658
0.000730492
0.00067372
0.000642005
0.000640713
0.000672427
0.000731138
0.000803907
0.000872732
0.00093049
0.0010104
0.00106272
0.00107377
0.00105746
0.00102687
0.000991437
0.000959782
0.000940055
0.000940099
0.000967111
0.00102585
0.00111445
0.00122078
0.000771512
0.000767608
0.000815844
0.000868496
0.00092671
0.000961885
0.000989377
0.00101463
0.00104372
0.00108355
0.00114121
0.00122227
0.00132785
0.00145094
0.00157653
0.000659924
0.000645933
0.000655596
0.00068191
0.000720142
0.000757545
0.000800222
0.000850511
0.000911164
0.000985751
0.00107767
0.00118853
0.00131618
0.00145359
0.00159035
0.000499742
0.000498899
0.000476921
0.000481729
0.000494401
0.000511557
0.00053665
0.000573954
0.000627059
0.000699036
0.000791992
0.000906118
0.00103896
0.00118509
0.00133694
0.000323765
0.000313158
0.000287188
0.000270314
0.000262822
0.000262055
0.000267888
0.000282843
0.000310913
0.0003569
0.000426779
0.000523714
0.000646882
0.000791423
0.000949968
0.000158824
0.000150822
0.000136122
0.000121735
0.000110882
0.00010381
9.99577e-05
9.93752e-05
0.000102896
0.000112501
0.000133175
0.000173213
0.000242725
0.000346665
0.000483213
9.48716e-05
8.30147e-05
7.17895e-05
6.29185e-05
5.66637e-05
5.24303e-05
4.94294e-05
4.72011e-05
4.55937e-05
4.46875e-05
4.49684e-05
4.78306e-05
5.67041e-05
7.78197e-05
0.000119558
7.71342e-05
6.24258e-05
5.12275e-05
4.54104e-05
4.23081e-05
4.02002e-05
3.85383e-05
3.71734e-05
3.60031e-05
3.4989e-05
3.41539e-05
3.35433e-05
3.32609e-05
3.3714e-05
3.60136e-05
6.1942e-05
4.91613e-05
4.18853e-05
3.84352e-05
3.67961e-05
3.57997e-05
3.50971e-05
3.45574e-05
3.41055e-05
3.37185e-05
3.34055e-05
3.318e-05
3.30443e-05
3.29889e-05
3.30011e-05
5.78933e-05
4.79721e-05
4.20286e-05
3.89608e-05
3.74926e-05
3.67814e-05
3.63971e-05
3.61542e-05
3.59785e-05
3.58408e-05
3.57352e-05
3.56654e-05
3.56363e-05
3.56514e-05
3.57124e-05
6.18709e-05
5.68656e-05
5.24629e-05
5.06369e-05
4.93099e-05
4.8712e-05
4.84423e-05
4.83033e-05
4.82352e-05
4.82076e-05
4.82048e-05
4.82242e-05
4.82667e-05
4.83327e-05
4.84224e-05
4.71917e-05
4.627e-05
4.61312e-05
4.57923e-05
4.62573e-05
4.6649e-05
4.71059e-05
4.7639e-05
4.82019e-05
4.87782e-05
4.93698e-05
4.99766e-05
5.05957e-05
5.12247e-05
5.18627e-05
0.0010059
0.000937689
0.000878473
0.000826451
0.000780828
0.000741279
0.000707193
0.000678093
0.000653693
0.000632638
0.00060235
0.000583318
0.000568987
0.0005566
0.000544562
0.000534881
0.000525921
0.000517748
0.000514694
0.00054926
0.000571839
0.000575792
0.0005695
0.000557068
0.000541326
0.0005241
0.000506596
0.000489624
0.000473671
0.000459215
0.000446614
0.000436065
0.000427845
0.000421994
0.000418648
0.000418792
0.000375881
0.000412497
0.000398141
0.000390313
0.00303273
0.00280592
0.00261774
0.00242547
0.00227922
0.00217537
0.00210209
0.00205136
0.00201791
0.00199552
0.00196957
0.00196868
0.0019785
0.00199315
0.00200437
0.00195098
0.00188813
0.00193951
0.00216135
0.00237989
0.00242537
0.00244683
0.00244385
0.00241783
0.00237205
0.00231102
0.00223948
0.00216172
0.00208173
0.00200334
0.00192932
0.00186059
0.00179729
0.00173378
0.00167341
0.00152347
0.00107584
0.00103778
0.00101667
0.00102858
0.00269674
0.00263609
0.0025734
0.00249073
0.00240447
0.00232584
0.00225818
0.00220207
0.00215744
0.00212257
0.00208161
0.00206147
0.00205487
0.00205794
0.00206797
0.00206223
0.00205273
0.00209243
0.00223477
0.00244377
0.00252107
0.00258538
0.00262925
0.0026498
0.00264626
0.00262032
0.00257527
0.00251519
0.00244452
0.00236748
0.00228717
0.00220524
0.00212157
0.00203739
0.00195341
0.00180277
0.00153314
0.00143087
0.00132737
0.00128242
0.00163857
0.00169299
0.00175913
0.00181384
0.0018482
0.00186715
0.00187632
0.00187902
0.00187767
0.00187496
0.00187154
0.00186874
0.00186917
0.00187417
0.00188513
0.00189877
0.00191556
0.00195238
0.00203544
0.00216113
0.00221827
0.00227441
0.00232025
0.00235174
0.0023651
0.00235843
0.00233216
0.00228872
0.00223163
0.00216493
0.00209306
0.00202098
0.00195395
0.00189952
0.00186045
0.00185134
0.00172326
0.00165535
0.00159028
0.00155893
0.00091687
0.000991318
0.00108118
0.00117399
0.00125746
0.0013289
0.00138906
0.00143854
0.00147792
0.00150989
0.00155046
0.00157599
0.00159439
0.00161082
0.00162889
0.00165144
0.00167704
0.00170871
0.00175418
0.00180613
0.00182762
0.00185147
0.00187159
0.00188647
0.00189393
0.00189215
0.00188078
0.0018614
0.0018375
0.0018141
0.00179755
0.00179471
0.00181081
0.00184708
0.00189592
0.00203342
0.00195337
0.00191989
0.00190462
0.00190767
0.000882462
0.000961109
0.00103895
0.00111739
0.00119419
0.00126581
0.00132993
0.00138558
0.00143226
0.00147039
0.00151346
0.00154194
0.00156047
0.00157306
0.00158274
0.00158965
0.00159342
0.00159663
0.001602
0.00160454
0.00160152
0.00160244
0.00160621
0.00161279
0.00162252
0.00163603
0.00165442
0.00167942
0.00171343
0.0017593
0.00181983
0.00189662
0.00198807
0.00208703
0.00218236
0.00234685
0.0022842
0.00227413
0.00229142
0.00231368
0.00132684
0.00141665
0.00148998
0.00155661
0.00162034
0.00167879
0.0017296
0.00177258
0.00180788
0.00183387
0.00185245
0.00186532
0.00187047
0.00186819
0.00185963
0.00183775
0.00180612
0.0017748
0.00175006
0.00174024
0.001741
0.00174385
0.00175356
0.00177222
0.00179941
0.00183526
0.00187993
0.00193366
0.00199693
0.00207045
0.00215467
0.0022485
0.00234773
0.0024433
0.0025267
0.00263685
0.00258673
0.00258694
0.00261327
0.00263657
0.001691
0.00178787
0.00187149
0.00194943
0.00202329
0.00209028
0.00214835
0.00219742
0.00223753
0.00226619
0.00228651
0.00230114
0.00230652
0.00230256
0.00229023
0.00225736
0.00220696
0.00215709
0.00212311
0.00212604
0.00213995
0.0021552
0.00217446
0.00219782
0.00222695
0.0022609
0.00229977
0.00234387
0.00239396
0.00245078
0.0025143
0.00258259
0.00265103
0.00271191
0.00276053
0.00280072
0.00277143
0.00277541
0.00279649
0.00281191
0.00171952
0.00183877
0.00195017
0.00205623
0.002156
0.00224685
0.00232721
0.00239691
0.00245564
0.0025016
0.00254668
0.00258133
0.00260372
0.00261575
0.0026199
0.0026048
0.00256994
0.00253172
0.00250834
0.00252378
0.00253974
0.00255231
0.00256731
0.00258307
0.00259953
0.00261705
0.0026356
0.00265574
0.00267842
0.00270433
0.00273323
0.00276319
0.00279067
0.00281075
0.00282216
0.0028014
0.00279531
0.00280046
0.00280953
0.00281298
0.00148897
0.00163741
0.00178044
0.00191703
0.00204506
0.00216222
0.00226732
0.00236007
0.00244011
0.00250712
0.00258014
0.00263827
0.00268182
0.00271479
0.00274109
0.00275304
0.00274804
0.00273653
0.00273264
0.0027548
0.00276796
0.00277409
0.0027787
0.0027827
0.0027852
0.00278502
0.00278161
0.00277582
0.00276886
0.0027616
0.00275408
0.00274522
0.00273342
0.00271673
0.00269622
0.00262946
0.00264478
0.00264974
0.00264437
0.00263451
0.00111624
0.00128412
0.0014487
0.00160679
0.00175571
0.00189325
0.00201815
0.00212988
0.00222805
0.00231378
0.00240946
0.00248737
0.00254938
0.00260094
0.00264681
0.0026837
0.00270815
0.00272412
0.00273907
0.00276286
0.00277257
0.00277306
0.00276888
0.00276087
0.00274934
0.00273127
0.00270625
0.00267547
0.00264043
0.00260236
0.00256202
0.00251959
0.00247542
0.00242979
0.00238517
0.00228683
0.00232016
0.00232358
0.00230314
0.00228101
0.000643492
0.000814962
0.000987187
0.00115438
0.00131337
0.00146206
0.00159904
0.00172342
0.00183476
0.00193503
0.00204671
0.00213928
0.00221558
0.00228175
0.00234301
0.00240064
0.00245056
0.00249018
0.00251948
0.00253986
0.00254567
0.00254063
0.00252821
0.00250909
0.0024828
0.00244625
0.00240062
0.00234737
0.00228824
0.00222493
0.00215892
0.00209144
0.00202424
0.00195863
0.00189813
0.00178016
0.00182786
0.00182793
0.0017935
0.00176116
0.000189966
0.000291329
0.0004182
0.000561339
0.000711256
0.000860037
0.00100214
0.00113428
0.00125493
0.00136598
0.00148787
0.00159008
0.00167638
0.00175319
0.00182568
0.00189982
0.0019708
0.00202924
0.00206758
0.00208009
0.00208132
0.00207049
0.0020499
0.00201986
0.00197884
0.00192542
0.0018623
0.00179142
0.00171488
0.00163479
0.00155318
0.00147179
0.00139285
0.00131729
0.00124974
0.0011227
0.00117942
0.0011717
0.00112437
0.00108086
4.24449e-05
5.64345e-05
8.18749e-05
0.000122239
0.000179332
0.000252244
0.000337474
0.000430145
0.000525603
0.000622197
0.000736111
0.000835002
0.000922849
0.00100479
0.00108474
0.00117229
0.00126067
0.00133332
0.00137609
0.00137842
0.00137471
0.00135799
0.00132931
0.00128851
0.0012337
0.00116703
0.00109032
0.001007
0.000920035
0.000832239
0.000746172
0.000663961
0.000587962
0.000518976
0.000461241
0.000374726
0.00042607
0.000409797
0.000368538
0.00033403
3.31029e-05
3.3443e-05
3.43923e-05
3.65979e-05
4.09628e-05
4.8506e-05
6.01283e-05
7.63702e-05
9.72863e-05
0.000123042
0.000160666
0.000198655
0.000237183
0.000277481
0.000321047
0.000377098
0.000440904
0.000493934
0.000518362
0.000501792
0.000487832
0.000463505
0.000430094
0.00038805
0.000339767
0.000294254
0.000252088
0.000214078
0.000180801
0.000152517
0.000129194
0.000110538
9.61972e-05
8.54767e-05
7.84033e-05
7.05725e-05
7.86208e-05
7.59808e-05
7.26263e-05
7.12245e-05
3.58178e-05
3.59633e-05
3.61412e-05
3.63421e-05
3.65595e-05
3.6803e-05
3.71099e-05
3.75496e-05
3.82104e-05
3.92099e-05
4.09984e-05
4.32742e-05
4.60218e-05
4.93363e-05
5.34361e-05
6.0105e-05
6.9507e-05
7.77989e-05
7.97013e-05
7.24512e-05
6.79569e-05
6.21147e-05
5.58483e-05
5.07969e-05
4.79768e-05
4.67754e-05
4.66095e-05
4.70966e-05
4.79984e-05
4.91684e-05
5.05077e-05
5.19451e-05
5.34468e-05
5.49808e-05
5.66143e-05
5.85646e-05
5.96524e-05
6.13056e-05
6.31607e-05
6.47878e-05
4.85369e-05
4.86773e-05
4.88428e-05
4.90318e-05
4.92419e-05
4.94694e-05
4.97102e-05
4.99595e-05
5.0212e-05
5.04667e-05
5.0746e-05
5.10056e-05
5.12542e-05
5.14995e-05
5.17519e-05
5.19184e-05
5.20432e-05
5.22993e-05
5.28009e-05
5.36312e-05
5.42939e-05
5.4881e-05
5.53659e-05
5.58056e-05
5.62723e-05
5.68892e-05
5.77977e-05
5.90047e-05
6.04692e-05
6.21469e-05
6.40099e-05
6.60532e-05
6.82974e-05
7.07723e-05
7.35108e-05
7.62502e-05
7.98782e-05
8.36369e-05
8.702e-05
9.01795e-05
5.25247e-05
5.32003e-05
5.38759e-05
5.45497e-05
5.52202e-05
5.58863e-05
5.65473e-05
5.72021e-05
5.78505e-05
5.85114e-05
5.94911e-05
6.00441e-05
6.06525e-05
6.13282e-05
6.20805e-05
6.27952e-05
6.37138e-05
6.48829e-05
6.59881e-05
6.66225e-05
6.5996e-05
6.59131e-05
6.54934e-05
6.47563e-05
6.37272e-05
6.2427e-05
6.08811e-05
5.91316e-05
5.72345e-05
5.52533e-05
5.32551e-05
5.13073e-05
4.94781e-05
4.78251e-05
4.64265e-05
4.55306e-05
4.42322e-05
4.48552e-05
4.51047e-05
4.49637e-05
)
;

boundaryField
{
    inlet
    {
        type            calculated;
        value           uniform 9.96555e-06;
    }
    outlet
    {
        type            calculated;
        value           nonuniform List<scalar> 
18
(
0.000390313
0.00102858
0.00128242
0.00155893
0.00190767
0.00231368
0.00263657
0.00281191
0.00281298
0.00263451
0.00228101
0.00176116
0.00108086
0.00033403
7.12245e-05
6.47878e-05
9.01795e-05
4.49637e-05
)
;
    }
    centerline
    {
        type            symmetry;
    }
    fixedWalls
    {
        type            nutkWallFunction;
        Cmu             0.09;
        kappa           0.41;
        E               9.8;
        value           nonuniform List<scalar> 
156
(
4.09173e-05
4.12792e-05
4.1609e-05
4.19151e-05
4.22014e-05
4.24697e-05
4.2721e-05
4.29563e-05
4.31756e-05
4.33788e-05
4.35652e-05
4.3733e-05
4.38794e-05
4.39997e-05
4.40852e-05
4.41212e-05
4.40701e-05
4.38493e-05
4.31603e-05
4.1448e-05
6.67004e-05
7.60428e-05
7.86403e-05
7.68266e-05
6.70466e-05
5.92012e-05
5.36433e-05
4.9472e-05
4.59002e-05
4.2143e-05
3.88569e-05
3.57974e-05
3.28275e-05
2.98772e-05
2.69917e-05
2.42312e-05
2.17355e-05
3.77051e-06
3.77051e-06
4.2271e-06
4.22483e-06
3.7842e-06
3.27039e-06
5.85345e-06
5.73757e-06
5.72007e-06
5.68049e-06
5.73857e-06
5.7879e-06
5.8454e-06
5.91221e-06
5.98251e-06
6.05436e-06
6.12797e-06
6.20333e-06
6.28006e-06
6.35787e-06
6.43666e-06
6.51826e-06
6.60137e-06
6.68434e-06
6.76693e-06
6.84898e-06
6.93036e-06
7.01098e-06
7.0907e-06
7.16953e-06
7.24976e-06
7.36852e-06
7.43542e-06
7.50898e-06
7.59058e-06
7.68135e-06
7.76728e-06
7.87748e-06
8.01767e-06
8.15042e-06
8.22786e-06
8.15375e-06
8.14484e-06
8.09562e-06
8.00852e-06
7.88652e-06
7.73201e-06
7.54792e-06
7.33894e-06
7.1114e-06
6.87255e-06
6.63024e-06
6.39255e-06
6.16785e-06
5.96346e-06
5.78933e-06
5.67716e-06
5.51283e-06
5.58985e-06
5.61958e-06
5.60047e-06
9.81831e-05
9.21074e-05
8.67952e-05
8.20943e-05
7.79426e-05
7.43205e-05
7.11817e-05
6.84905e-05
6.62275e-05
6.42732e-05
6.1469e-05
5.97133e-05
5.84026e-05
5.72828e-05
5.62084e-05
5.53462e-05
5.45394e-05
5.38267e-05
5.36496e-05
5.70555e-05
5.9166e-05
5.94864e-05
5.88386e-05
5.76212e-05
5.60993e-05
5.4441e-05
5.27582e-05
5.1125e-05
4.95896e-05
4.81976e-05
4.69835e-05
4.59658e-05
4.5171e-05
4.46013e-05
4.42696e-05
4.41929e-05
4.00397e-05
4.35763e-05
4.21872e-05
4.14313e-05
0.00105952
0.000743199
0.000518742
0.000373638
0.00028229
0.0002235
0.000184641
0.000158392
0.000140427
0.000128091
0.000119719
0.000114255
0.000111059
0.000109799
0.000110803
0.000114934
0.000124319
0.000141622
)
;
    }
    frontAndBack
    {
        type            empty;
    }
}


// ************************************************************************* //
