/*--------------------------------*- C++ -*----------------------------------*\
| =========                 |                                                 |
| \\      /  F ield         | OpenFOAM: The Open Source CFD Toolbox           |
|  \\    /   O peration     | Version:  2.4.0                                 |
|   \\  /    A nd           | Web:      www.OpenFOAM.org                      |
|    \\/     M anipulation  |                                                 |
\*---------------------------------------------------------------------------*/
FoamFile
{
    version     2.0;
    format      ascii;
    class       volScalarField;
    location    "3.73";
    object      k;
}
// * * * * * * * * * * * * * * * * * * * * * * * * * * * * * * * * * * * * * //

dimensions      [0 2 -2 0 0 0 0];

internalField   nonuniform List<scalar> 
6000
(
0.168225
0.0132684
0.000979935
0.00362056
0.00250621
0.00292826
0.00242551
0.00239714
0.00213355
0.00206113
0.00192893
0.00189287
0.00186259
0.00190022
0.00196698
0.00207685
0.0022038
0.00234863
0.00250723
0.00269562
0.00293135
0.00323603
0.00362398
0.00410198
0.00466638
0.00530544
0.00600135
0.00673348
0.00747999
0.00821845
0.00892524
0.00957467
0.0101378
0.0105815
0.010868
0.010953
0.0107929
0.0103453
0.00957778
0.00848299
0.00710781
0.00556334
0.00400373
0.00541139
0.00771432
0.0106197
0.0140128
0.0177722
0.0216473
0.0256479
0.0293996
0.0334419
0.0368105
0.0416119
0.0444304
0.0523826
0.0535022
0.070879
0.0663855
0.106537
0.0762051
0.0101499
0.000945508
0.00240474
0.00171445
0.00192343
0.00161096
0.0015729
0.00140692
0.00135237
0.00126836
0.00124149
0.00122176
0.00124296
0.00128348
0.00134993
0.00142786
0.0015176
0.00161793
0.0017385
0.00188981
0.0020835
0.00232617
0.00261922
0.00295796
0.00333368
0.00373531
0.00415146
0.00457134
0.00498497
0.00538286
0.00575548
0.00609276
0.00638372
0.00661522
0.00677311
0.00684372
0.00681525
0.00668123
0.00644676
0.00613868
0.00579655
0.0053835
0.00590456
0.00671334
0.00776155
0.00902096
0.0104511
0.0119612
0.0135571
0.0151048
0.0168043
0.0183118
0.0204069
0.0218538
0.0253085
0.026344
0.0336994
0.0329849
0.0494394
0.0412218
0.00802936
0.000974076
0.00168782
0.00122368
0.00131393
0.00110899
0.00106977
0.000961469
0.000921072
0.000867692
0.00085046
0.000841333
0.000859229
0.000892104
0.000943318
0.00100513
0.00107832
0.00116369
0.00126841
0.00140022
0.00156678
0.00177192
0.0020153
0.00229243
0.00259633
0.00291902
0.00325294
0.00359169
0.00393017
0.00426447
0.00459163
0.00490947
0.00521647
0.0055102
0.0057881
0.00604986
0.00629721
0.00653502
0.00677274
0.00702324
0.00727647
0.00736676
0.00751295
0.00762679
0.00777012
0.00798294
0.00828168
0.00865219
0.00910504
0.00959668
0.010199
0.0107904
0.0116557
0.0123544
0.0138747
0.0145882
0.0178373
0.0181396
0.0251956
0.0260623
0.00677388
0.00107127
0.00126672
0.000916496
0.00093507
0.000791291
0.000753476
0.000680234
0.000650838
0.000617949
0.000609932
0.000611053
0.000632298
0.000667246
0.000718047
0.00078113
0.000858075
0.000951307
0.00106727
0.00121303
0.00139508
0.0016166
0.00187698
0.00217212
0.0024958
0.00284114
0.00320181
0.00357279
0.00395057
0.00433319
0.00472017
0.00511237
0.00551199
0.00591782
0.006331
0.00675517
0.00719434
0.00765309
0.00813561
0.00863995
0.00912432
0.00938331
0.009447
0.00932482
0.00909004
0.00880682
0.0085246
0.0082749
0.00808598
0.00796106
0.00793226
0.00796493
0.00815716
0.00836564
0.00893503
0.00930547
0.0107096
0.0111335
0.0142112
0.0187963
0.006092
0.0012326
0.00103253
0.000727025
0.000696823
0.000586877
0.000550457
0.000498906
0.000478059
0.000459681
0.00046042
0.000471617
0.000500069
0.000542859
0.000601974
0.000676616
0.000769275
0.000883649
0.00102632
0.00120467
0.00142532
0.00169177
0.00200366
0.00235703
0.00274565
0.00316247
0.00360086
0.00405548
0.00452262
0.00500026
0.00548803
0.00598697
0.00649871
0.00701777
0.00754721
0.00808927
0.00864551
0.00921665
0.00980144
0.0103906
0.0109296
0.0112322
0.0113098
0.0111503
0.0108083
0.0103404
0.00979849
0.00923023
0.00867635
0.00816763
0.00773209
0.00737645
0.00713423
0.00697559
0.0069997
0.00705309
0.00753544
0.00779415
0.00908922
0.0150489
0.00576621
0.00144857
0.000925211
0.000617348
0.000548207
0.000455004
0.000418826
0.000380721
0.000366557
0.000359113
0.000368326
0.00038971
0.000427937
0.000482412
0.000555477
0.000648248
0.000764023
0.000907427
0.00108547
0.00130619
0.00157691
0.00190176
0.00228063
0.00270938
0.0031811
0.0036877
0.00422136
0.00477548
0.00534519
0.00592729
0.00652028
0.00712398
0.00773559
0.00834792
0.00896378
0.00958298
0.0102045
0.0108263
0.0114447
0.012049
0.0125796
0.0128894
0.0129876
0.0128383
0.0124812
0.0119622
0.0113264
0.0106208
0.00988642
0.0091635
0.00848124
0.0078663
0.00733362
0.00689749
0.00657234
0.00635197
0.00631826
0.00633795
0.00678431
0.0130162
0.00565588
0.00170793
0.000910146
0.000565567
0.00045963
0.000371614
0.00033398
0.000303966
0.000295042
0.000296352
0.000313928
0.000345812
0.000395679
0.00046456
0.000555329
0.000670391
0.000813588
0.000990084
0.0012073
0.00147405
0.00179854
0.00218567
0.0026355
0.00314342
0.00370147
0.00430011
0.00492988
0.00558251
0.00625146
0.00693196
0.00762085
0.0083166
0.00900936
0.009695
0.0103741
0.0110446
0.0117035
0.0123476
0.0129726
0.0135676
0.0140706
0.0143745
0.0144769
0.0143334
0.0139741
0.0134386
0.0127673
0.0120044
0.0111882
0.01036
0.00954693
0.00878195
0.00807311
0.00744919
0.00689978
0.00646705
0.00612196
0.00591307
0.00592479
0.0118779
0.0056721
0.00199853
0.000965775
0.000559527
0.00041372
0.000322227
0.000281106
0.000255459
0.000250597
0.000259275
0.000285203
0.000327969
0.000390849
0.000476021
0.000586858
0.000726515
0.000899045
0.00110981
0.00136663
0.00167918
0.00205677
0.00250513
0.00302449
0.00360965
0.00425141
0.00493856
0.00565975
0.00640485
0.00716548
0.00793511
0.0087089
0.00948285
0.010243
0.0109874
0.0117148
0.0124213
0.0131031
0.0137562
0.0143764
0.0149511
0.0154209
0.0157092
0.0157984
0.0156456
0.0152752
0.0147234
0.0140278
0.0132314
0.0123712
0.0114883
0.010608
0.0097644
0.00896097
0.00822819
0.00754778
0.00697324
0.00644229
0.00605325
0.00582533
0.0112303
0.00575863
0.00230771
0.00107812
0.000591467
0.000400412
0.000298085
0.000251151
0.000227032
0.000225179
0.000240264
0.000274541
0.00032852
0.000405353
0.000507991
0.00064013
0.000805222
0.00100725
0.00125161
0.00154663
0.00190305
0.00233145
0.00283844
0.00342442
0.00408349
0.00480505
0.00557605
0.00638313
0.00721421
0.008059
0.00890929
0.00975864
0.0105994
0.0114169
0.0122099
0.0129751
0.0137077
0.0144033
0.0150573
0.0156661
0.0162124
0.0166466
0.0169097
0.0169716
0.0167957
0.0164031
0.0158276
0.0151055
0.0142793
0.0133855
0.0124658
0.0115448
0.0106573
0.00980423
0.00901487
0.00826661
0.00761182
0.00698018
0.00647182
0.00610533
0.0108621
0.00588005
0.00262298
0.00123614
0.000656599
0.000414236
0.000294
0.00023858
0.000213571
0.000213685
0.000234399
0.00027695
0.000342341
0.000433674
0.000554344
0.000708154
0.000898511
0.00112919
0.00140567
0.00173697
0.00213508
0.00261191
0.00317496
0.00382467
0.00455435
0.00535184
0.00620219
0.00708992
0.008001
0.00892331
0.009847
0.0107643
0.0116628
0.0125298
0.0133631
0.0141582
0.0149094
0.0156115
0.0162601
0.016851
0.0173629
0.0177585
0.0179873
0.0180111
0.0178015
0.0173776
0.0167716
0.016019
0.015162
0.0142369
0.0132859
0.0123338
0.0114161
0.0105334
0.00971433
0.0089334
0.00823964
0.00756167
0.00698821
0.00654061
0.010657
0.00601452
0.0029329
0.00142967
0.000751543
0.000452493
0.000307131
0.000240102
0.000211899
0.000212855
0.000238447
0.000289073
0.000365901
0.000471939
0.000610752
0.000786041
0.00100097
0.00125912
0.00156618
0.00193203
0.00236999
0.00289325
0.00351011
0.00422094
0.00501812
0.00588786
0.00681324
0.00777671
0.00876234
0.00975622
0.0107469
0.0117255
0.0126743
0.013584
0.0144507
0.0152689
0.016032
0.0167344
0.0173719
0.0179375
0.0184106
0.0187634
0.0189495
0.0189271
0.0186759
0.018214
0.0175729
0.016787
0.0158982
0.0149427
0.0139629
0.0129838
0.0120416
0.0111374
0.0103003
0.00950319
0.00879275
0.00809857
0.00749808
0.00700312
0.0105488
0.00614915
0.00322791
0.00164862
0.000873898
0.000513288
0.000336264
0.000253934
0.000220135
0.000220645
0.000250287
0.000308636
0.000396749
0.000517444
0.000674221
0.000870535
0.00110923
0.00139374
0.00173012
0.0021292
0.00260556
0.00317359
0.00384222
0.00461164
0.00547324
0.00641157
0.00740776
0.00844222
0.00949723
0.0105571
0.0116091
0.012642
0.0136352
0.0145816
0.0154755
0.0163105
0.0170795
0.0177764
0.0183966
0.0189293
0.0193601
0.0196651
0.0198012
0.0197264
0.0194277
0.0189234
0.0182441
0.0174236
0.0165033
0.0155189
0.0145129
0.0135099
0.0125468
0.0116253
0.0107755
0.00996916
0.0092524
0.00855615
0.00795099
0.00742809
0.0104985
0.00627692
0.00350087
0.00188278
0.00102086
0.000595213
0.000381419
0.000279364
0.000237305
0.000235855
0.000268575
0.000334127
0.00043322
0.000568351
0.000742783
0.000959621
0.00122136
0.00153141
0.0018962
0.00232752
0.0028411
0.00345236
0.00417075
0.00499617
0.005919
0.00692214
0.00798486
0.00908561
0.010205
0.0113256
0.0124333
0.013514
0.0145464
0.0155236
0.0164389
0.0172849
0.018054
0.0187396
0.0193353
0.0198296
0.0202139
0.020466
0.0205457
0.0204134
0.020063
0.0195131
0.0187939
0.0179388
0.0169885
0.0159779
0.0149488
0.0139257
0.0129454
0.0120099
0.0111507
0.0103387
0.0096204
0.0089278
0.0083294
0.00778957
0.0104827
0.00639447
0.00374728
0.00212226
0.0011887
0.000697399
0.000442701
0.000316487
0.000263109
0.000257905
0.000292535
0.000364602
0.000474236
0.000623483
0.000815231
0.00105217
0.00133645
0.00167146
0.00206406
0.00252685
0.00307657
0.00372952
0.00449555
0.0053742
0.00635488
0.00741887
0.00854372
0.009706
0.0108847
0.0120609
0.0132192
0.0143416
0.0154077
0.0164102
0.0173413
0.0181928
0.0189564
0.0196247
0.0201882
0.02064
0.0209731
0.0211674
0.0211851
0.0209913
0.0205858
0.0199881
0.0192285
0.0183397
0.0173615
0.0163281
0.0152802
0.0142415
0.0132483
0.0123029
0.0114373
0.0106225
0.00990537
0.00921877
0.00863248
0.00808225
0.010487
0.00650071
0.00396507
0.00235804
0.00137259
0.000818888
0.000520018
0.000366059
0.000297785
0.000286696
0.00032183
0.000399542
0.000519161
0.000682145
0.000890888
0.00114762
0.00145411
0.00181379
0.00223378
0.00272739
0.0033122
0.0040052
0.00481657
0.00574545
0.00678033
0.00790102
0.00908344
0.0103024
0.0115355
0.0127621
0.0139659
0.0151239
0.0162186
0.0172411
0.0181826
0.019034
0.0197866
0.0204301
0.0209562
0.0213609
0.0216384
0.0217699
0.0217209
0.0214622
0.0209989
0.0203519
0.0195517
0.0186308
0.0176278
0.0165758
0.0155139
0.0144648
0.0134638
0.0125129
0.0116447
0.0108302
0.0101167
0.00943753
0.00886599
0.00830983
0.0105025
0.00659579
0.00415421
0.00258248
0.00156672
0.00095801
0.000613322
0.000428917
0.000342024
0.000322523
0.000356477
0.000438765
0.000567686
0.000743977
0.000969421
0.00124574
0.00157431
0.0019585
0.00240562
0.00292945
0.00354823
0.00427951
0.00513371
0.00610959
0.00719481
0.00836783
0.00960313
0.0108739
0.0121562
0.0134282
0.0146714
0.0158601
0.0169782
0.0180155
0.0189621
0.0198081
0.0205432
0.0211553
0.0216395
0.0219927
0.0222099
0.022274
0.0221541
0.0218275
0.0213042
0.0206069
0.0197666
0.0188155
0.0177912
0.0167251
0.0156546
0.014601
0.0135977
0.0126468
0.0117803
0.0109695
0.0102626
0.00959235
0.00903727
0.00847886
0.0105238
0.00668052
0.00431619
0.00278976
0.00176466
0.00111213
0.000722545
0.000505454
0.000396926
0.00036603
0.000396784
0.00048235
0.000619745
0.000808846
0.00105071
0.00134649
0.00169711
0.00210582
0.00257986
0.00313334
0.0037849
0.00455254
0.00544687
0.00646628
0.00759777
0.00881857
0.0101019
0.0114193
0.0127459
0.0140579
0.0153348
0.0165494
0.0176858
0.0187326
0.0196789
0.020514
0.0212241
0.0218002
0.0222381
0.0225353
0.0226876
0.02268
0.0224856
0.0220885
0.0215033
0.0207549
0.0198752
0.0188962
0.0178542
0.0167792
0.0157059
0.0146538
0.0136545
0.0127092
0.0118494
0.0110466
0.0103495
0.00969018
0.00915316
0.00859599
0.0105474
0.00675593
0.00445351
0.00297598
0.00195988
0.00127754
0.000846979
0.000595973
0.000463596
0.000418174
0.000443334
0.000530602
0.000675459
0.000876779
0.00113474
0.00144992
0.00182262
0.00225593
0.00275678
0.00333931
0.0040224
0.00482434
0.00575594
0.00681524
0.00798874
0.00925262
0.010579
0.011938
0.0133037
0.0146506
0.0159553
0.0171907
0.0183402
0.0193915
0.0203324
0.0211491
0.0218292
0.0223648
0.0227519
0.0229885
0.0230716
0.0229882
0.0227161
0.0222461
0.0215974
0.0207975
0.0198792
0.0188748
0.0178193
0.0167404
0.0156704
0.0146264
0.0136375
0.012704
0.0118563
0.0110658
0.0103822
0.00973654
0.00921935
0.00866703
0.0105712
0.00682311
0.00456917
0.00313917
0.00214631
0.00144962
0.000985051
0.000700666
0.000542718
0.000480213
0.00049696
0.000584032
0.000735108
0.000947921
0.00122161
0.00155608
0.00195094
0.00240897
0.00293654
0.00354754
0.00426087
0.00509496
0.00606083
0.00715624
0.00836735
0.00966948
0.0110339
0.0124292
0.0138287
0.0152055
0.0165321
0.0177833
0.0189409
0.0199915
0.02092
0.0217126
0.0223583
0.0228491
0.0231809
0.0233526
0.0233621
0.0231992
0.0228464
0.0223014
0.0215879
0.0207361
0.0197804
0.0187533
0.0176882
0.0166109
0.0155503
0.014521
0.0135492
0.0126339
0.0118039
0.0110308
0.0103647
0.00973578
0.00924045
0.00869672
0.0105941
0.00688305
0.00466636
0.00327903
0.00231885
0.00162307
0.00113419
0.000819131
0.000634851
0.00055334
0.000558751
0.000643353
0.00079912
0.00102252
0.00131143
0.00166507
0.00208212
0.00256503
0.00311924
0.00375815
0.00450039
0.00536443
0.0063615
0.00748914
0.00873337
0.0100688
0.011466
0.0128925
0.0143205
0.0157214
0.0170647
0.0183266
0.0194873
0.0205302
0.0214404
0.0222046
0.0228114
0.0232529
0.0235252
0.0236275
0.0235594
0.0233135
0.0228774
0.0222556
0.021476
0.0205724
0.0195806
0.0185334
0.017463
0.0163927
0.0153478
0.01434
0.0133921
0.0125014
0.011695
0.0109443
0.0103
0.00969135
0.00922016
0.00868892
0.0106153
0.00693661
0.00474816
0.00339657
0.00247367
0.00179239
0.00129082
0.000950178
0.000740228
0.000638472
0.000630045
0.000709482
0.000868076
0.00110091
0.00140439
0.00177695
0.00221618
0.00272408
0.00330489
0.00397117
0.00474101
0.00563278
0.00665797
0.00781392
0.00908671
0.0104505
0.0118753
0.0133275
0.0147788
0.0161978
0.0175528
0.0188203
0.0199769
0.0210065
0.0218938
0.0226251
0.0231887
0.0235764
0.0237848
0.0238137
0.0236641
0.0233319
0.0228103
0.0221099
0.0212635
0.0203082
0.0192817
0.0182174
0.0171459
0.016088
0.0150651
0.0140855
0.0131682
0.0123087
0.0115317
0.0108088
0.0101907
0.00960609
0.0091615
0.00864678
0.0106345
0.00698454
0.00481734
0.00349375
0.00260844
0.00195232
0.00145052
0.00109168
0.000858483
0.00073615
0.000712306
0.000783542
0.000942716
0.00118353
0.00150071
0.00189181
0.00235306
0.00288603
0.00349337
0.00418651
0.00498273
0.00590007
0.0069503
0.00813065
0.00942742
0.0108146
0.0122617
0.0137342
0.0152035
0.0166346
0.0179961
0.0192616
0.0204088
0.0214205
0.0222805
0.0229744
0.0234902
0.02382
0.0239601
0.0239115
0.0236769
0.0232555
0.0226462
0.021866
0.0209523
0.0199457
0.0188864
0.017808
0.0167397
0.0156995
0.0147047
0.0137599
0.0128798
0.012058
0.0113164
0.0106265
0.010039
0.00948244
0.00906707
0.00857295
0.0106516
0.00702746
0.00487635
0.00357308
0.00272229
0.00209833
0.00160831
0.00124052
0.000988463
0.000846457
0.000806366
0.000867275
0.00102395
0.00127096
0.00160067
0.00200972
0.00249267
0.00305067
0.00368447
0.00440402
0.00522545
0.00616628
0.00723859
0.00843947
0.00975568
0.0111612
0.0126253
0.0141128
0.0155946
0.0170311
0.0183918
0.0196503
0.0207833
0.0217724
0.0226004
0.0232525
0.0237163
0.0239837
0.0240516
0.0239216
0.0235986
0.0230853
0.0223866
0.0215257
0.0205446
0.0194877
0.0183975
0.0173083
0.0162475
0.0152303
0.0142696
0.0133659
0.0125296
0.0117518
0.0110512
0.0103995
0.00984711
0.00932264
0.00893919
0.00846978
0.0106666
0.00706588
0.00492722
0.00363734
0.00281563
0.00222694
0.00175909
0.0013927
0.00112809
0.00096883
0.000912558
0.000961879
0.00111354
0.00136384
0.00170461
0.00213077
0.00263488
0.00321773
0.00387783
0.00462337
0.00546899
0.0064314
0.00752293
0.0087406
0.0100717
0.0114907
0.0129665
0.0144634
0.0159497
0.0173855
0.0187402
0.0199868
0.0211008
0.0220625
0.0228541
0.0234599
0.0238674
0.0240682
0.0240598
0.0238448
0.0234302
0.0228228
0.0220335
0.0210913
0.0200432
0.0189375
0.0178189
0.0167223
0.0156734
0.0146843
0.0137633
0.0129069
0.0121204
0.0113926
0.0107385
0.0101302
0.00961717
0.00912883
0.00878006
0.0083394
0.0106796
0.00710024
0.00497156
0.00368928
0.00288991
0.00233601
0.00189805
0.00154351
0.00127432
0.00110189
0.00103066
0.00106776
0.00121287
0.00146402
0.00181294
0.00225505
0.0027795
0.00338681
0.00407296
0.00484412
0.00571303
0.00669526
0.00780337
0.00903426
0.0103759
0.0118035
0.0132843
0.0147837
0.0162684
0.017698
0.0190417
0.0202713
0.0213615
0.0222913
0.0230418
0.0235969
0.0239437
0.0240739
0.0239853
0.0236819
0.0231729
0.0224696
0.0215888
0.0205655
0.0194515
0.0182989
0.0171549
0.0160547
0.0150221
0.0140662
0.0131903
0.0123867
0.0116557
0.0109834
0.010381
0.00982085
0.00935148
0.0089032
0.00859183
0.00818387
0.0106909
0.00713094
0.00501069
0.00373145
0.00294731
0.00242472
0.00202112
0.00168795
0.00142318
0.00124333
0.00115974
0.00118484
0.00132227
0.0015725
0.00192782
0.00238282
0.00292631
0.00355742
0.00426922
0.00506559
0.00595704
0.0069576
0.00807987
0.00932062
0.0106677
0.0120971
0.0135775
0.0150738
0.0165508
0.017969
0.0192966
0.0205043
0.0215658
0.0224589
0.0231638
0.0236638
0.0239456
0.0240011
0.0238287
0.0234338
0.0228281
0.0220275
0.0210549
0.0199515
0.0187734
0.0175769
0.0164111
0.0153113
0.0142996
0.0133815
0.0125557
0.0118101
0.0111397
0.0105279
0.00998169
0.00947433
0.00905252
0.00864804
0.00837673
0.00800524
0.0107005
0.00715832
0.00504556
0.00376612
0.00299041
0.00249352
0.00212535
0.00182108
0.00156999
0.00138985
0.00129795
0.00131241
0.00144164
0.00168938
0.00204925
0.00251545
0.00307647
0.00372932
0.00446579
0.00528693
0.00620028
0.00721789
0.00835114
0.00959734
0.0109452
0.0123716
0.0138461
0.0153337
0.0167975
0.018199
0.0195053
0.0206861
0.021714
0.0225656
0.0232204
0.0236609
0.0238736
0.0238505
0.0235908
0.0231015
0.0223973
0.0214986
0.0204348
0.0192529
0.0180137
0.016777
0.0155937
0.0144991
0.0135128
0.0126371
0.0118659
0.0111826
0.0105772
0.0100303
0.00954421
0.00909371
0.00872306
0.00836584
0.0081371
0.00780562
0.0107087
0.0071827
0.00507694
0.00379515
0.00302193
0.00254389
0.00220907
0.00193852
0.00170965
0.00153726
0.00144252
0.00144893
0.0015703
0.00181436
0.00217697
0.00265249
0.00322923
0.00390231
0.00466221
0.00550699
0.006441
0.00747386
0.00861547
0.00986367
0.0112081
0.0126266
0.0140901
0.0155633
0.0170085
0.0183881
0.019668
0.0208168
0.0218062
0.0226117
0.0232118
0.0235883
0.0237278
0.0236224
0.0232723
0.0226862
0.0218821
0.0208853
0.0197317
0.0184741
0.0171778
0.0159058
0.0147102
0.0136259
0.0126699
0.0118409
0.0111281
0.0105107
0.00997391
0.00949526
0.00907254
0.00868258
0.00836622
0.00805935
0.0078755
0.0075872
0.0107156
0.00720436
0.00510537
0.00382007
0.0030445
0.0025781
0.00227197
0.00203684
0.0018371
0.00168065
0.00158965
0.00159193
0.0017068
0.00194661
0.00231034
0.00279319
0.00338362
0.00407511
0.00485683
0.00572393
0.00667731
0.00772378
0.00887149
0.0101186
0.0114556
0.0128619
0.0143094
0.0157624
0.0171839
0.0185364
0.0197847
0.0208965
0.0218426
0.0225971
0.0231379
0.0234462
0.0235084
0.0233172
0.0228737
0.022189
0.0212843
0.0201904
0.0189495
0.0176202
0.0162722
0.014971
0.0137695
0.0127013
0.0117804
0.0110021
0.0103508
0.00980218
0.00933642
0.00892855
0.00857166
0.00824503
0.0079855
0.00773161
0.00759468
0.00735236
0.0107215
0.00722358
0.00513125
0.00384205
0.00306052
0.00259884
0.00231496
0.00211388
0.00194777
0.00181476
0.00173471
0.00173794
0.00184879
0.00208457
0.00244819
0.00293642
0.00353832
0.0042461
0.00504773
0.00593556
0.00690696
0.00796554
0.00911738
0.0103606
0.0116866
0.0130764
0.014503
0.0159307
0.0173235
0.0186436
0.0198552
0.0209251
0.0218227
0.0225216
0.0229985
0.0232344
0.0232155
0.0229352
0.022396
0.0216113
0.0206062
0.0194171
0.0180926
0.0166972
0.0153044
0.0139817
0.0127817
0.0117361
0.0108555
0.0101313
0.00954411
0.00906574
0.00867239
0.00833659
0.00804729
0.00778571
0.00758488
0.00738602
0.00729768
0.00710395
0.0107263
0.00724061
0.00515488
0.00386193
0.00307204
0.00260898
0.00233999
0.00216884
0.00203798
0.00193438
0.00187245
0.00188255
0.00199297
0.00222586
0.00258866
0.00308053
0.00369163
0.00441333
0.00523264
0.00613933
0.00712726
0.00819657
0.00935086
0.0105878
0.0118998
0.0132692
0.0146699
0.0160676
0.0174266
0.0187093
0.0198791
0.0209019
0.0217463
0.0223847
0.0227933
0.0229526
0.022849
0.0224766
0.0218397
0.0209545
0.0198502
0.0185691
0.0171664
0.0157122
0.0142833
0.0129482
0.0117585
0.0107426
0.0099075
0.00924076
0.00871902
0.00831136
0.00799045
0.00772669
0.00750561
0.00730988
0.0071688
0.00702636
0.00698785
0.00684516
0.0107304
0.00725568
0.0051765
0.00388031
0.00308071
0.00261134
0.00234973
0.00220234
0.00210535
0.00203485
0.00199737
0.00202061
0.00213507
0.00236715
0.00272913
0.00322321
0.0038413
0.00457441
0.0054089
0.00633229
0.00733507
0.00841373
0.00956903
0.0107978
0.0120928
0.0134383
0.0148087
0.0161718
0.0174923
0.0187325
0.0198555
0.0208262
0.0216124
0.0221857
0.0225216
0.0226003
0.0224086
0.0219417
0.0212058
0.0202203
0.0190192
0.0176508
0.0161771
0.0146733
0.0132189
0.0118824
0.0107129
0.0097348
0.00895046
0.00834374
0.00788802
0.00755019
0.00730028
0.00710704
0.00695353
0.00682338
0.00674221
0.00665683
0.00666888
0.00657912
0.0107337
0.00726902
0.0051963
0.00389758
0.00308782
0.00260844
0.00234724
0.00221618
0.00214896
0.0021125
0.00210419
0.00214652
0.00227002
0.00250423
0.0028661
0.00336144
0.00398446
0.00472641
0.00557336
0.00651099
0.00752672
0.00861332
0.00976837
0.0109872
0.012263
0.013581
0.0149174
0.0162417
0.017519
0.0187119
0.0197831
0.0206967
0.02142
0.0219236
0.0221825
0.0221769
0.0218942
0.0213308
0.0204953
0.019411
0.0181169
0.0166676
0.015132
0.0135901
0.0121229
0.0107978
0.00965969
0.00872789
0.0079996
0.00745495
0.00706467
0.00679438
0.00661248
0.00648667
0.00639873
0.00633269
0.00631058
0.00628204
0.00634478
0.00630925
0.0107365
0.00728082
0.00521443
0.003914
0.0030943
0.00260247
0.00233567
0.00221309
0.0021694
0.00216505
0.00218836
0.00225467
0.00239221
0.00263207
0.00299525
0.0034914
0.00411757
0.00486583
0.00572236
0.00667152
0.00769802
0.00879102
0.00994465
0.0111523
0.0124068
0.0136944
0.0149934
0.0162749
0.0175046
0.0186455
0.01966
0.0205119
0.0211674
0.0215969
0.0217748
0.0216815
0.0213052
0.020644
0.0197095
0.0185291
0.0171474
0.0156259
0.0140399
0.0124736
0.0110086
0.00970933
0.0086149
0.00773834
0.00707115
0.00658989
0.00626336
0.0060569
0.00593844
0.00587532
0.00584961
0.0058449
0.0058799
0.00590706
0.00601993
0.00603925
0.0107388
0.00729127
0.00523103
0.0039297
0.00310077
0.00259518
0.00231805
0.0021964
0.0021686
0.00219181
0.00224652
0.00233993
0.00249589
0.00274508
0.00311152
0.00360853
0.00423639
0.00498854
0.0058517
0.00680943
0.00784423
0.00894189
0.0100929
0.0112881
0.0125196
0.0137745
0.0150333
0.0162683
0.0174464
0.0185308
0.019484
0.0202694
0.0208528
0.0212039
0.021297
0.0211131
0.0206413
0.019882
0.0188501
0.0175778
0.0161161
0.0145332
0.0129109
0.0113366
0.0098909
0.00863323
0.00759555
0.00678324
0.0061818
0.00576439
0.00549881
0.0053511
0.00529002
0.00528322
0.00531506
0.00536759
0.00545659
0.00553733
0.00569905
0.00577312
0.0107407
0.00730054
0.00524623
0.00394475
0.0031076
0.00258788
0.00229704
0.00216965
0.00214958
0.00219369
0.00227684
0.00239822
0.00257565
0.00283751
0.00320935
0.00370767
0.00433607
0.00508982
0.00595663
0.00691977
0.0079601
0.00906039
0.0102076
0.0113892
0.0125962
0.0138168
0.0150328
0.0162182
0.0173408
0.0183647
0.0192522
0.0199667
0.0204737
0.0207425
0.0207477
0.0204707
0.0199023
0.0190456
0.0179195
0.0165616
0.0150295
0.0133989
0.0117571
0.0101935
0.00878595
0.00758684
0.00661913
0.00587969
0.00534784
0.00499387
0.00478536
0.00469019
0.00467912
0.00472077
0.00480441
0.0049087
0.00504743
0.00517864
0.00538715
0.00551512
0.0107422
0.00730877
0.00526014
0.00395916
0.00311498
0.00258152
0.00227486
0.00213631
0.00211604
0.00217309
0.00227928
0.00242687
0.00262695
0.00290388
0.00328307
0.00378328
0.00441127
0.00516447
0.00603193
0.00699715
0.00803994
0.00914049
0.0102823
0.0114493
0.0126308
0.0138157
0.0149869
0.0161199
0.0171837
0.0181432
0.0189611
0.0196007
0.0200273
0.0202105
0.020125
0.0197534
0.0190884
0.0181363
0.0169208
0.0154857
0.0138959
0.012234
0.0105922
0.00906046
0.0077112
0.0065878
0.00570269
0.00504369
0.0045842
0.00429222
0.0041361
0.00408643
0.00411712
0.00419948
0.00432703
0.00447633
0.00465944
0.00483703
0.00508951
0.00526972
0.0107434
0.00731611
0.00527288
0.00397294
0.00312295
0.00257665
0.00225324
0.00209954
0.00207202
0.00213358
0.00225553
0.00242506
0.00264668
0.00293955
0.0033273
0.00382982
0.00445647
0.005207
0.00607208
0.00703588
0.0080777
0.00917577
0.0103104
0.0114615
0.0126167
0.0137648
0.0148897
0.0159681
0.0169703
0.017862
0.0186067
0.0191678
0.0195108
0.0196054
0.0194273
0.0189603
0.0181999
0.0171563
0.0158585
0.0143572
0.0127251
0.0110514
0.00943199
0.00795477
0.00668446
0.00565317
0.00486176
0.00428904
0.00390318
0.00367082
0.00356183
0.00355029
0.00361412
0.00372933
0.00389183
0.00407845
0.00429965
0.00451868
0.00481153
0.00504155
0.0107444
0.00732266
0.00528455
0.00398609
0.00313147
0.00257359
0.00223343
0.002062
0.00202147
0.00207946
0.00220881
0.00239386
0.00263349
0.00294122
0.00333757
0.00384219
0.00446636
0.00521196
0.00607149
0.00703015
0.00806724
0.00915961
0.0102848
0.0114185
0.0125466
0.0136573
0.0147347
0.0157567
0.0166949
0.0175162
0.0181846
0.0186641
0.0189208
0.0189249
0.0186531
0.0180914
0.0172384
0.0161089
0.0147384
0.013185
0.0115292
0.0098663
0.00829374
0.00689459
0.00572308
0.00479826
0.00410907
0.00362606
0.00331341
0.00313739
0.00307013
0.00308958
0.00317826
0.00331819
0.00350676
0.0037225
0.00397486
0.00422969
0.00455869
0.00483529
0.0107452
0.00732853
0.00529526
0.00399861
0.00314045
0.00257241
0.00221622
0.00202579
0.00196801
0.00201531
0.0021435
0.00233615
0.00258809
0.00290746
0.0033108
0.00381633
0.00443629
0.00517436
0.0060249
0.00697436
0.00800255
0.00908547
0.0101984
0.011313
0.0124132
0.0134857
0.0145148
0.0154791
0.0163517
0.0171003
0.0176901
0.0180858
0.0182543
0.0181667
0.0178015
0.0171472
0.0162063
0.0149992
0.0135684
0.0119802
0.0103227
0.00869589
0.00719595
0.00589789
0.00484272
0.00403533
0.00345338
0.00306069
0.00281904
0.00269542
0.00266471
0.00270886
0.00281507
0.00297211
0.00317837
0.00341507
0.00369141
0.00397595
0.00433632
0.0046556
0.0107458
0.00733382
0.00530511
0.00401049
0.00314975
0.00257305
0.00220203
0.00199241
0.00191468
0.00194562
0.00206468
0.00225637
0.00251322
0.00283892
0.0032458
0.00374969
0.00436282
0.00509016
0.00592778
0.00686357
0.00787816
0.00894727
0.0100445
0.0111378
0.0122089
0.0132426
0.0142228
0.0151287
0.0159343
0.0166088
0.0171185
0.017429
0.0175083
0.0173292
0.0168723
0.0161293
0.0151076
0.0138339
0.0123587
0.0107566
0.00912262
0.007559
0.00615742
0.0049812
0.00405597
0.00337247
0.00289874
0.00259406
0.0024196
0.00234409
0.00234537
0.00240918
0.00252719
0.00269494
0.00291149
0.00316156
0.00345482
0.00376284
0.00414948
0.00450694
0.0107463
0.00733861
0.00531418
0.00402174
0.00315925
0.00257532
0.00219102
0.00196287
0.00186387
0.00187439
0.00197758
0.00215994
0.00241338
0.00273846
0.0031436
0.00364174
0.00424427
0.00495684
0.00577694
0.00669397
0.00768963
0.00873984
0.0098171
0.0108863
0.0119266
0.0129207
0.0138516
0.0146987
0.0154368
0.0160365
0.0164652
0.0166901
0.0166807
0.0164117
0.0158666
0.0150413
0.0139486
0.0126226
0.0111223
0.00953071
0.00794789
0.00647537
0.00519604
0.00415822
0.00337117
0.0028129
0.00244437
0.00222287
0.00211065
0.0020789
0.00210846
0.00218842
0.00231444
0.0024881
0.00270899
0.00296589
0.0032696
0.00359506
0.00400276
0.00439343
0.0107467
0.00734296
0.00532255
0.0040324
0.00316884
0.00257903
0.00218309
0.00193767
0.00181729
0.00180498
0.00188714
0.00205278
0.00229445
0.00261094
0.00300755
0.00349433
0.0040812
0.00477391
0.00557107
0.00646347
0.00743412
0.00845953
0.00951162
0.010553
0.0115603
0.0125137
0.0133948
0.014183
0.0148537
0.0153786
0.0157267
0.0158668
0.0157705
0.015415
0.0147875
0.0138887
0.0127379
0.0113776
0.00987542
0.00832172
0.00681924
0.00546447
0.00432721
0.00343846
0.00279173
0.00235498
0.0020853
0.00194038
0.00188487
0.00189287
0.00194796
0.00204207
0.00217443
0.00235083
0.00257178
0.00283036
0.00313901
0.00347636
0.00390007
0.00431871
0.010747
0.00734694
0.00533032
0.00404247
0.0031784
0.00258391
0.00217802
0.00191697
0.00177601
0.00173991
0.00179766
0.00194072
0.00216302
0.00246277
0.00284319
0.00331176
0.00387672
0.00454342
0.00531126
0.00617233
0.00711102
0.00810477
0.00912552
0.0101346
0.0111057
0.0120167
0.0128474
0.0135767
0.0141805
0.0146315
0.0149004
0.0149581
0.0147784
0.014342
0.0136403
0.0126799
0.0114878
0.0101149
0.00863738
0.00715115
0.00575778
0.00454383
0.00356234
0.00282634
0.00231603
0.00199299
0.00181358
0.00173781
0.00173355
0.00177783
0.00185664
0.00196419
0.00210322
0.00228049
0.00249897
0.00275568
0.00306497
0.00340943
0.0038445
0.00428575
0.0107473
0.00735061
0.00533753
0.00405199
0.00318786
0.00258972
0.00217548
0.00190065
0.00174056
0.00168095
0.00171258
0.00182901
0.00202574
0.00230129
0.00265773
0.0031006
0.00363652
0.00427021
0.0050015
0.00582368
0.00672257
0.00767686
0.00865897
0.00962997
0.0105608
0.011427
0.0122065
0.0128771
0.0134149
0.0137938
0.0139861
0.0139651
0.0137076
0.0131982
0.0124336
0.0114272
0.010214
0.00885396
0.00743045
0.00604174
0.0047834
0.0037273
0.00290761
0.002321
0.00193822
0.00171837
0.0016197
0.00160575
0.00164782
0.00172565
0.00182716
0.00194843
0.00209503
0.0022731
0.00248819
0.00274102
0.00304801
0.00339576
0.00383816
0.00429672
0.0107475
0.007354
0.00534427
0.004061
0.00319714
0.00259625
0.00217513
0.0018884
0.00171103
0.00162909
0.00163439
0.00172197
0.0018888
0.00213406
0.00245944
0.00286922
0.00336867
0.00396184
0.00464881
0.00542389
0.00627441
0.00718052
0.00811566
0.00904168
0.00992714
0.0107453
0.011472
0.012084
0.0125573
0.0128666
0.0129863
0.0128921
0.0125646
0.011993
0.01118
0.0101467
0.00893662
0.0076179
0.0062789
0.00501577
0.00391274
0.00302347
0.00236354
0.00191692
0.00164948
0.00152121
0.00149399
0.0015353
0.00161965
0.00172903
0.00185283
0.00198871
0.00214414
0.00232397