/*--------------------------------*- C++ -*----------------------------------*\
| =========                 |                                                 |
| \\      /  F ield         | OpenFOAM: The Open Source CFD Toolbox           |
|  \\    /   O peration     | Version:  2.4.0                                 |
|   \\  /    A nd           | Web:      www.OpenFOAM.org                      |
|    \\/     M anipulation  |                                                 |
\*---------------------------------------------------------------------------*/
FoamFile
{
    version     2.0;
    format      ascii;
    class       surfaceScalarField;
    location    "2.58";
    object      phi;
}
// * * * * * * * * * * * * * * * * * * * * * * * * * * * * * * * * * * * * * //

dimensions      [0 3 -1 0 0 0 0];

internalField   nonuniform List<scalar> 
11840
(
7.82978e-07
9.21702e-06
-9.31089e-07
1.71407e-06
6.50239e-07
-1.58133e-06
1.34514e-07
5.15725e-07
-1.90976e-07
3.2549e-07
-1.99633e-07
8.65725e-09
-1.38671e-07
-6.09619e-08
-2.00673e-07
6.20021e-08
-4.55981e-07
2.55308e-07
-8.59812e-07
4.0383e-07
-1.21631e-06
3.56498e-07
-9.6581e-07
-2.50499e-07
4.83792e-07
-1.4496e-06
3.41737e-06
-2.93358e-06
7.00602e-06
-3.58865e-06
8.29539e-06
-1.28937e-06
6.45845e-06
1.83695e-06
4.26797e-06
2.19047e-06
4.07856e-06
1.89419e-07
3.63915e-06
4.39407e-07
-4.02356e-08
3.67938e-06
-5.81275e-06
5.77252e-06
-1.11148e-05
5.30207e-06
-1.46311e-05
3.51624e-06
-1.66104e-05
1.97938e-06
-1.75198e-05
9.09376e-07
-1.76005e-05
8.0697e-08
-1.70854e-05
-5.15101e-07
-1.61209e-05
-9.64521e-07
-1.47346e-05
-1.38633e-06
-1.29613e-05
-1.77324e-06
-1.08333e-05
-2.12805e-06
-8.3951e-06
-2.43817e-06
-5.72166e-06
-2.67345e-06
-2.93168e-06
-2.78997e-06
-1.96239e-07
-2.73544e-06
2.33764e-06
-2.53388e-06
4.46511e-06
-2.12747e-06
6.07781e-06
-1.6127e-06
7.12066e-06
-1.04285e-06
7.57575e-06
-4.55095e-07
7.49888e-06
7.68713e-08
7.10915e-06
3.89733e-07
6.67008e-06
4.39072e-07
6.31066e-06
3.59419e-07
6.05169e-06
2.58964e-07
5.87609e-06
1.75604e-07
5.76641e-06
1.09677e-07
5.71076e-06
5.5653e-08
5.69963e-06
1.11313e-08
5.72968e-06
-3.00495e-08
5.80057e-06
-7.08891e-08
5.90419e-06
-1.03627e-07
6.03313e-06
-1.28941e-07
6.16769e-06
-1.34559e-07
6.32699e-06
-1.59298e-07
6.43727e-06
-1.10282e-07
6.6868e-06
-2.49526e-07
6.64763e-06
3.91744e-08
-7.37359e-07
2.45187e-06
1.67652e-05
-5.02135e-07
4.66807e-06
3.48651e-07
-2.43212e-06
-9.87818e-08
9.63158e-07
-2.7011e-07
4.96818e-07
-3.25991e-07
6.45381e-08
-2.69152e-07
-1.17801e-07
-3.68912e-07
1.61762e-07
-6.80047e-07
5.66444e-07
-1.12164e-06
8.45424e-07
-1.44462e-06
6.79473e-07
-1.16504e-06
-5.30075e-07
2.6571e-07
-2.88035e-06
3.13136e-06
-5.79923e-06
6.67044e-06
-7.12774e-06
8.80548e-06
-3.42441e-06
8.29697e-06
2.34546e-06
6.27364e-06
4.21381e-06
5.00805e-06
1.455e-06
2.53774e-06
2.90972e-06
-3.87494e-06
1.00921e-05
-1.12553e-05
1.31529e-05
-1.57286e-05
9.77532e-06
-1.76577e-05
5.44531e-06
-1.84135e-05
2.73527e-06
-1.85681e-05
1.06393e-06
-1.83164e-05
-1.71028e-07
-1.76493e-05
-1.18222e-06
-1.65398e-05
-2.07397e-06
-1.50247e-05
-2.90146e-06
-1.3133e-05
-3.66493e-06
-1.08971e-05
-4.36397e-06
-8.3644e-06
-4.97084e-06
-5.61459e-06
-5.42326e-06
-2.76734e-06
-5.63722e-06
3.13469e-08
-5.53413e-06
2.62074e-06
-5.12327e-06
4.85767e-06
-4.3644e-06
6.63838e-06
-3.39342e-06
7.90137e-06
-2.30584e-06
8.6504e-06
-1.20412e-06
8.95151e-06
-2.24241e-07
8.88544e-06
4.55803e-07
8.56257e-06
7.61944e-07
8.14265e-06
7.79332e-07
7.74638e-06
6.55235e-07
7.42919e-06
4.92793e-07
7.20135e-06
3.37524e-07
7.05745e-06
1.99554e-07
6.99269e-06
7.58865e-08
6.99874e-06
-3.60973e-08
7.06089e-06
-1.33036e-07
7.1629e-06
-2.05638e-07
7.29275e-06
-2.58797e-07
7.43372e-06
-2.75522e-07
7.59253e-06
-3.1811e-07
7.7208e-06
-2.38549e-07
7.94888e-06
-4.7761e-07
8.01835e-06
-3.02983e-08
-1.39764e-06
3.60753e-06
2.31576e-05
1.96979e-08
8.25591e-06
4.17624e-08
-2.45418e-06
-3.13755e-07
1.31868e-06
-3.23299e-07
5.06363e-07
-3.98919e-07
1.40158e-07
-3.5679e-07
-1.5993e-07
-4.74744e-07
2.79716e-07
-7.94237e-07
8.85937e-07
-1.24531e-06
1.2965e-06
-1.56926e-06
1.00342e-06
-1.31939e-06
-7.79944e-07
4.31154e-08
-4.24286e-06
2.77519e-06
-8.5313e-06
6.20818e-06
-1.05607e-05
8.41767e-06
-5.6339e-06
8.30473e-06
2.45839e-06
6.66421e-06
5.85433e-06
4.8373e-06
3.28191e-06
6.19828e-07
7.12719e-06
-6.88435e-06
1.75962e-05
-1.31744e-05
1.9443e-05
-1.61187e-05
1.27196e-05
-1.74573e-05
6.78388e-06
-1.81812e-05
3.45919e-06
-1.84029e-05
1.28566e-06
-1.8164e-05
-4.09975e-07
-1.74738e-05
-1.87243e-06
-1.6348e-05
-3.19979e-06
-1.48209e-05
-4.42853e-06
-1.29205e-05
-5.56536e-06
-1.06784e-05
-6.60608e-06
-8.14253e-06
-7.50666e-06
-5.3937e-06
-8.1721e-06
-2.55058e-06
-8.48034e-06
2.43528e-07
-8.32824e-06
2.82768e-06
-7.70742e-06
5.0663e-06
-6.60301e-06
6.86308e-06
-5.1902e-06
8.16854e-06
-3.6113e-06
8.98599e-06
-2.02156e-06
9.37514e-06
-6.13394e-07
9.41767e-06
4.13274e-07
9.21354e-06
9.66073e-07
8.87654e-06
1.11633e-06
8.51203e-06
1.01975e-06
8.19005e-06
8.1477e-07
7.94261e-06
5.84965e-07
7.77788e-06
3.64281e-07
7.69384e-06
1.59927e-07
7.68179e-06
-2.40466e-08
7.72876e-06
-1.80011e-07
7.82126e-06
-2.9813e-07
7.94725e-06
-3.84786e-07
8.08909e-06
-4.17366e-07
8.25175e-06
-4.80776e-07
8.38747e-06
-3.74268e-07
8.61448e-06
-7.0462e-07
8.70309e-06
-1.18908e-07
-2.00432e-06
4.52879e-06
2.86288e-05
7.55589e-07
1.20291e-05
-2.50643e-07
-1.44795e-06
-4.63691e-07
1.53172e-06
-3.64821e-07
4.07493e-07
-4.54076e-07
2.29412e-07
-4.29428e-07
-1.84578e-07
-5.5825e-07
4.08538e-07
-8.79401e-07
1.20709e-06
-1.33654e-06
1.75364e-06
-1.67482e-06
1.3417e-06
-1.47445e-06
-9.8031e-07
-2.24616e-07
-5.4927e-06
2.38024e-06
-1.11362e-05
5.7228e-06
-1.39033e-05
7.94754e-06
-7.85864e-06
7.98164e-06
2.42429e-06
6.53027e-06
7.30571e-06
4.15407e-06
5.6581e-06
-1.34288e-06
1.26241e-05
-8.79223e-06
2.50456e-05
-1.365e-05
2.43008e-05
-1.57839e-05
1.48535e-05
-1.70874e-05
8.08745e-06
-1.78598e-05
4.23158e-06
-1.81077e-05
1.53357e-06
-1.78706e-05
-6.47082e-07
-1.71757e-05
-2.56738e-06
-1.60506e-05
-4.32484e-06
-1.45264e-05
-5.95275e-06
-1.26305e-05
-7.46125e-06
-1.03941e-05
-8.84245e-06
-7.86519e-06
-1.00356e-05
-5.12468e-06
-1.09126e-05
-2.29106e-06
-1.1314e-05
4.9037e-07
-1.11097e-05
3.05631e-06
-1.02734e-05
5.27328e-06
-8.81998e-06
7.05089e-06
-6.9678e-06
8.34837e-06
-4.90879e-06
9.17323e-06
-2.84641e-06
9.57789e-06
-1.01806e-06
9.6475e-06
3.43664e-07
9.48378e-06
1.12979e-06
9.19083e-06
1.40928e-06
8.85789e-06
1.3527e-06
8.547e-06
1.12565e-06
8.29316e-06
8.38811e-07
8.11185e-06
5.45593e-07
8.0066e-06
2.65172e-07
7.97322e-06
9.33157e-09
8.00414e-06
-2.10928e-07
8.08508e-06
-3.79065e-07
8.20374e-06
-5.03453e-07
8.3423e-06
-5.55927e-07
8.50264e-06
-6.41111e-07
8.64242e-06
-5.14049e-07
8.86118e-06
-9.23377e-07
8.96701e-06
-2.24737e-07
-2.5263e-06
5.30459e-06
3.33242e-05
1.48831e-06
1.58454e-05
-2.65939e-07
3.06304e-07
-5.51464e-07
1.81725e-06
-4.02032e-07
2.58061e-07
-5.00384e-07
3.27764e-07
-4.9307e-07
-1.91892e-07
-6.29282e-07
5.44749e-07
-9.50558e-07
1.52836e-06
-1.41327e-06
2.21635e-06
-1.77394e-06
1.70237e-06
-1.63429e-06
-1.11996e-06
-5.09258e-07
-6.61773e-06
1.94533e-06
-1.35908e-05
5.1961e-06
-1.7154e-05
7.43865e-06
-1.01012e-05
7.55684e-06
2.3061e-06
6.18199e-06
8.68056e-06
3.22905e-06
8.61105e-06
-3.03376e-06
1.88869e-05
-9.87634e-06
3.18882e-05
-1.35873e-05
2.80117e-05
-1.53937e-05
1.66598e-05
-1.67217e-05
9.41552e-06
-1.75e-05
5.00986e-06
-1.77485e-05
1.78203e-06
-1.7508e-05
-8.87534e-07
-1.68116e-05
-3.26384e-06
-1.56893e-05
-5.44713e-06
-1.41702e-05
-7.47178e-06
-1.22815e-05
-9.34997e-06
-1.00537e-05
-1.10703e-05
-7.53413e-06
-1.25551e-05
-4.80404e-06
-1.36427e-05
-1.98229e-06
-1.41357e-05
7.81969e-07
-1.38739e-05
3.32282e-06
-1.28142e-05
5.50862e-06
-1.10058e-05
7.25339e-06
-8.71258e-06
8.52428e-06
-6.17968e-06
9.3342e-06
-3.65633e-06
9.73227e-06
-1.41614e-06
9.79825e-06
2.77691e-07
9.63349e-06
1.29455e-06
9.34323e-06
1.69954e-06
9.01441e-06
1.68151e-06
8.70469e-06
1.43537e-06
8.44642e-06
1.09709e-06
8.25576e-06
7.36249e-07
8.13926e-06
3.81675e-07
8.096e-06
5.25831e-08
8.11729e-06
-2.32217e-07
8.1917e-06
-4.5347e-07
8.30559e-06
-6.1734e-07
8.4427e-06
-6.93042e-07
8.59861e-06
-7.97021e-07
8.74651e-06
-6.61947e-07
8.94228e-06
-1.11915e-06
9.08699e-06
-3.69445e-07
-2.93779e-06
5.9752e-06
3.7349e-05
2.2371e-06
1.95835e-05
-6.08087e-08
2.60422e-06
-5.81897e-07
2.33834e-06
-4.36181e-07
1.12346e-07
-5.39523e-07
4.31106e-07
-5.48401e-07
-1.83014e-07
-6.90293e-07
6.86641e-07
-1.01096e-06
1.84903e-06
-1.47931e-06
2.68471e-06
-1.86693e-06
2.08998e-06
-1.79505e-06
-1.19184e-06
-7.98248e-07
-7.61453e-06
1.47933e-06
-1.58683e-05
4.62682e-06
-2.03015e-05
6.89187e-06
-1.23662e-05
7.07753e-06
2.12043e-06
5.71635e-06
1.00417e-05
2.21391e-06
1.21135e-05
-4.41249e-06
2.55133e-05
-1.04243e-05
3.79e-05
-1.33238e-05
3.09112e-05
-1.5015e-05
1.8351e-05
-1.63344e-05
1.0735e-05
-1.70967e-05
5.77209e-06
-1.73352e-05
2.02054e-06
-1.70886e-05
-1.13409e-06
-1.63907e-05
-3.96173e-06
-1.52713e-05
-6.56655e-06
-1.37583e-05
-8.98483e-06
-1.18781e-05
-1.12302e-05
-9.66044e-06
-1.32879e-05
-7.15213e-06
-1.50635e-05
-4.43427e-06
-1.63606e-05
-1.62679e-06
-1.69432e-05
1.11669e-06
-1.66174e-05
3.6282e-06
-1.53257e-05
5.77747e-06
-1.3155e-05
7.4814e-06
-1.04165e-05
8.7144e-06
-7.41268e-06
9.49721e-06
-4.43915e-06
9.87889e-06
-1.79782e-06
9.93164e-06
2.24947e-07
9.75172e-06
1.47447e-06
9.44567e-06
2.00559e-06
9.10401e-06
2.02317e-06
8.78544e-06
1.75393e-06
8.52079e-06
1.36174e-06
8.32465e-06
9.32394e-07
8.20283e-06
5.03491e-07
8.15441e-06
1.00998e-07
8.1725e-06
-2.50302e-07
8.24457e-06
-5.25541e-07
8.3565e-06
-7.29269e-07
8.49372e-06
-8.30262e-07
8.64605e-06
-9.49346e-07
8.80198e-06
-8.17882e-07
8.97486e-06
-1.29203e-06
9.15856e-06
-5.53148e-07
-3.25294e-06
6.56022e-06
4.07888e-05
2.97053e-06
2.31732e-05
2.34865e-07
5.33988e-06
-5.3655e-07
3.10975e-06
-4.65351e-07
4.11463e-08
-5.71311e-07
5.37066e-07
-5.94726e-07
-1.59599e-07
-7.41312e-07
8.33227e-07
-1.06057e-06
2.16828e-06
-1.53424e-06
3.15839e-06
-1.95082e-06
2.50656e-06
-1.95082e-06
-1.19183e-06
-1.08701e-06
-8.47834e-06
9.9527e-07
-1.79506e-05
4.02422e-06
-2.33305e-05
6.31241e-06
-1.46544e-05
6.55985e-06
1.87299e-06
5.17061e-06
1.1431e-05
1.18705e-06
1.60971e-05
-5.49785e-06
3.21982e-05
-1.06399e-05
4.3042e-05
-1.29864e-05
3.32577e-05
-1.46312e-05
1.99958e-05
-1.59144e-05
1.20182e-05
-1.66501e-05
6.50781e-06
-1.68733e-05
2.24373e-06
-1.66188e-05
-1.38856e-06
-1.5919e-05
-4.66155e-06
-1.48024e-05
-7.68315e-06
-1.32959e-05
-1.04913e-05
-1.14254e-05
-1.31007e-05
-9.21954e-06
-1.54937e-05
-6.7242e-06
-1.75588e-05
-4.02037e-06
-1.90644e-05
-1.22948e-06
-1.97341e-05
1.49036e-06
-1.93373e-05
3.96979e-06
-1.78051e-05
6.07931e-06
-1.52646e-05
7.73713e-06
-1.20743e-05
8.9238e-06
-8.59935e-06
9.66972e-06
-5.18506e-06
1.0028e-05
-2.15613e-06
1.00644e-05
1.8859e-07
9.86601e-06
1.67285e-06
9.53765e-06
2.33395e-06
9.17486e-06
2.38596e-06
8.84098e-06
2.08781e-06
8.56732e-06
1.6354e-06
8.36641e-06
1.1333e-06
8.24203e-06
6.27869e-07
8.19213e-06
1.50903e-07
8.20895e-06
-2.67121e-07
8.28039e-06
-5.9698e-07
8.39172e-06
-8.40596e-07
8.52952e-06
-9.68069e-07
8.6798e-06
-1.09962e-06
8.84136e-06
-9.79442e-07
8.99883e-06
-1.4495e-06
9.20836e-06
-7.62681e-07
-3.5004e-06
7.07108e-06
4.37177e-05
3.68278e-06
2.65615e-05
6.58691e-07
8.36398e-06
-4.0897e-07
4.17741e-06
-4.83958e-07
1.16134e-07
-5.94933e-07
6.48041e-07
-6.31004e-07
-1.23527e-07
-7.81419e-07
9.83641e-07
-1.09814e-06
2.485e-06
-1.57608e-06
3.63632e-06
-2.02159e-06
2.95207e-06
-2.09515e-06
-1.11827e-06
-1.36749e-06
-9.20601e-06
5.08275e-07
-1.98264e-05
3.40192e-06
-2.62241e-05
5.70796e-06
-1.69605e-05
6.01296e-06
1.56799e-06
4.55959e-06
1.28844e-05
1.91531e-07
2.04651e-05
-6.32623e-06
3.8716e-05
-1.06491e-05
4.73649e-05
-1.26212e-05
3.52298e-05
-1.42285e-05
2.16031e-05
-1.54597e-05
1.32494e-05
-1.61632e-05
7.21135e-06
-1.6368e-05
2.44849e-06
-1.61044e-05
-1.65215e-06
-1.54022e-05
-5.36373e-06
-1.42884e-05
-8.79696e-06
-1.2789e-05
-1.19907e-05
-1.09292e-05
-1.49605e-05
-8.73658e-06
-1.76864e-05
-6.2558e-06
-2.00396e-05
-3.56763e-06
-2.17526e-05
-7.95423e-07
-2.25063e-05
1.89847e-06
-2.20311e-05
4.34402e-06
-2.02507e-05
6.4118e-06
-1.73323e-05
8.02005e-06
-1.36826e-05
9.15402e-06
-9.73333e-06
9.85426e-06
-5.8853e-06
1.01821e-05
-2.484e-06
1.02e-05
1.70745e-07
9.98386e-06
1.88896e-06
9.6324e-06
2.68541e-06
9.24481e-06
2.77355e-06
8.89112e-06
2.44151e-06
8.60543e-06
1.92109e-06
8.39883e-06
1.33991e-06
8.27233e-06
7.54373e-07
8.22185e-06
2.0138e-07
8.23863e-06
-2.83903e-07
8.31026e-06
-6.68611e-07
8.42159e-06
-9.51922e-07
8.55992e-06
-1.1064e-06
8.70907e-06
-1.24878e-06
8.87386e-06
-1.14423e-06
9.02215e-06
-1.59779e-06
9.24529e-06
-9.8582e-07
-3.7034e-06
7.51638e-06
4.62014e-05
4.3675e-06
2.97103e-05
1.18394e-06
1.15475e-05
-2.11338e-07
5.57269e-06
-4.82622e-07
3.87418e-07
-6.09177e-07
7.74596e-07
-6.56234e-07
-7.64707e-08
-8.09359e-07
1.13677e-06
-1.12194e-06
2.79759e-06
-1.60231e-06
4.11669e-06
-2.07504e-06
3.4248e-06
-2.22176e-06
-9.71545e-07
-1.63174e-06
-9.79604e-06
3.57682e-08
-2.14939e-05
2.77265e-06
-2.8961e-05
5.08474e-06
-1.92726e-05
5.4433e-06
1.20943e-06
3.88775e-06
1.44399e-05
-7.65168e-07
2.5118e-05
-6.92673e-06
4.48776e-05
-1.05255e-05
5.09636e-05
-1.22411e-05
3.69454e-05
-1.38008e-05
2.31629e-05
-1.4972e-05
1.44206e-05
-1.56401e-05
7.87947e-06
-1.58247e-05
2.63302e-06
-1.55512e-05
-1.92561e-06
-1.48463e-05
-6.06862e-06
-1.37353e-05
-9.90798e-06
-1.22434e-05
-1.34826e-05
-1.03951e-05
-1.68088e-05
-8.21685e-06
-1.98646e-05
-5.75197e-06
-2.25044e-05
-3.08084e-06
-2.44237e-05
-3.29128e-07
-2.5258e-05
2.33687e-06
-2.46971e-05
4.74733e-06
-2.26612e-05
6.77203e-06
-1.9357e-05
8.32854e-06
-1.52391e-05
9.40521e-06
-1.081e-05
1.00522e-05
-6.53226e-06
1.0342e-05
-2.77386e-06
1.03383e-05
1.7445e-07
1.01061e-05
2.12113e-06
9.7338e-06
3.05775e-06
9.32086e-06
3.18649e-06
8.94447e-06
2.81791e-06
8.64375e-06
2.22181e-06
8.42971e-06
1.55395e-06
8.30061e-06
8.83471e-07
8.24977e-06
2.5222e-07
8.26688e-06
-3.01009e-07
8.33889e-06
-7.40629e-07
8.45033e-06
-1.06335e-06
8.58887e-06
-1.24494e-06
8.73724e-06
-1.39715e-06
8.90349e-06
-1.31048e-06
9.04634e-06
-1.74064e-06
9.27525e-06
-1.21473e-06
-3.87622e-06
7.90381e-06
4.82975e-05
5.01879e-06
3.25954e-05
1.77472e-06
1.47916e-05
5.19208e-08
7.29549e-06
-4.51859e-07
8.91198e-07
-6.12283e-07
9.3502e-07
-6.69623e-07
-1.91306e-08
-8.23895e-07
1.29104e-06
-1.13018e-06
3.10387e-06
-1.61041e-06
4.59691e-06
-2.10724e-06
3.92163e-06
-2.32503e-06
-7.53754e-07
-1.87282e-06
-1.02482e-05
-4.20381e-07
-2.29463e-05
2.14379e-06
-3.15252e-05
4.44461e-06
-2.15734e-05
4.85545e-06
7.98589e-07
3.17553e-06
1.61198e-05
-1.63894e-06
2.99325e-05
-7.33522e-06
5.05738e-05
-1.03131e-05
5.39415e-05
-1.18478e-05
3.84801e-05
-1.33468e-05
2.46619e-05
-1.44542e-05
1.5528e-05
-1.50851e-05
8.51035e-06
-1.52484e-05
2.7963e-06
-1.49646e-05
-2.20944e-06
-1.42567e-05
-6.77646e-06
-1.31484e-05
-1.10163e-05
-1.16643e-05
-1.49668e-05
-9.82806e-06
-1.8645e-05
-7.66506e-06
-2.20276e-05
-5.21715e-06
-2.49524e-05
-2.56413e-06
-2.70767e-05
1.65276e-07
-2.79874e-05
2.80188e-06
-2.73337e-05
5.17641e-06
-2.50357e-05
7.15709e-06
-2.13377e-05
8.66046e-06
-1.67425e-05
9.67671e-06
-1.18262e-05
1.02642e-05
-7.11974e-06
1.05084e-05
-3.01811e-06
1.04788e-05
2.04075e-07
1.02317e-05
2.36827e-06
9.84204e-06
3.44738e-06
9.4056e-06
3.62293e-06
9.00535e-06
3.21815e-06
8.68709e-06
2.54007e-06
8.46352e-06
1.77752e-06
8.33075e-06
1.01624e-06
8.2792e-06
3.03771e-07
8.29655e-06
-3.18356e-07
8.36882e-06
-8.12904e-07
8.48016e-06
-1.17469e-06
8.61845e-06
-1.38323e-06
8.76597e-06
-1.54467e-06
8.93235e-06
-1.47686e-06
9.07172e-06
-1.88001e-06
9.30155e-06
-1.44456e-06
-4.02735e-06
8.24034e-06
5.00572e-05
5.63204e-06
3.52037e-05
2.41007e-06
1.80136e-05
4.29222e-07
9.27634e-06
-3.81827e-07
1.70225e-06
-6.01498e-07
1.15469e-06
-6.70596e-07
4.99672e-08
-8.24039e-07
1.44448e-06
-1.12126e-06
3.4011e-06
-1.59811e-06
5.07377e-06
-2.11485e-06
4.43837e-06
-2.40026e-06
-4.68345e-07
-2.08505e-06
-1.05635e-05
-8.44177e-07
-2.41872e-05
1.51652e-06
-3.38859e-05
3.78527e-06
-2.38421e-05
4.25267e-06
3.31189e-07
2.44413e-06
1.79284e-05
-2.42383e-06
3.48004e-05
-7.58663e-06
5.57366e-05
-1.00394e-05
5.63942e-05
-1.14398e-05
3.98806e-05
-1.2867e-05
2.6089e-05
-1.39095e-05
1.65705e-05
-1.45022e-05
9.10308e-06
-1.46437e-05
2.93783e-06
-1.43493e-05
-2.5039e-06
-1.36383e-05
-7.48744e-06
-1.25326e-05
-1.21219e-05
-1.10563e-05
-1.64431e-05
-9.23248e-06
-2.04688e-05
-7.08531e-06
-2.41748e-05
-4.65514e-06
-2.73825e-05
-2.02117e-06
-2.97107e-05
6.84437e-07
-3.0693e-05
3.29041e-06
-2.99397e-05
5.62832e-06
-2.73736e-05
7.5642e-06
-2.32736e-05
9.01349e-06
-1.81918e-05
9.96733e-06
-1.27801e-05
1.04906e-05
-7.64304e-06
1.06822e-05
-3.20969e-06
1.06212e-05
2.65073e-07
1.03589e-05
2.6306e-06
9.95575e-06
3.85051e-06
9.49932e-06
4.07936e-06
9.0759e-06
3.64157e-06
8.7385e-06
2.87747e-06
8.50337e-06
2.01265e-06
8.36551e-06
1.15409e-06
8.31249e-06
3.56789e-07
8.32966e-06
-3.35519e-07
8.4018e-06
-8.85043e-07
8.51261e-06
-1.28551e-06
8.65005e-06
-1.52066e-06
8.79634e-06
-1.69095e-06
8.96173e-06
-1.64225e-06
9.09852e-06
-2.0168e-06
9.32609e-06
-1.67213e-06
-4.16203e-06
8.53216e-06
5.15251e-05
6.20396e-06
3.75319e-05
3.06797e-06
2.11496e-05
8.61999e-07
1.14823e-05
-2.47918e-07
2.81216e-06
-5.72092e-07
1.47887e-06
-6.5867e-07
1.36544e-07
-8.09198e-07
1.59501e-06
-1.09398e-06
3.68588e-06
-1.56368e-06
5.54347e-06
-2.09535e-06
4.97003e-06
-2.44386e-06
-1.19833e-07
-2.26367e-06
-1.07436e-05
-1.23358e-06
-2.52173e-05
8.88302e-07
-3.60078e-05
3.10424e-06
-2.60581e-05
3.63762e-06
-2.02186e-07
1.71e-06
1.9856e-05
-3.11536e-06
3.96258e-05
-7.71068e-06
6.0332e-05
-9.72176e-06
5.84053e-05
-1.10156e-05
4.11744e-05
-1.2363e-05
2.74365e-05
-1.33408e-05
1.75482e-05
-1.3895e-05
9.65735e-06
-1.40146e-05
3.05742e-06
-1.37094e-05
-2.80911e-06
-1.29952e-05
-8.20168e-06
-1.1892e-05
-1.3225e-05
-1.04234e-05
-1.79118e-05
-8.61218e-06
-2.22801e-05
-6.48118e-06
-2.63058e-05
-4.06926e-06
-2.97944e-05
-1.45524e-06
-3.23247e-05
1.22533e-06
-3.33736e-05
3.79978e-06
-3.25142e-05
6.10044e-06
-2.96743e-05
7.9908e-06
-2.5164e-05
9.38531e-06
-1.95863e-05
1.02755e-05
-1.36703e-05
1.07313e-05
-8.09882e-06
1.0864e-05
-3.34243e-06
1.07656e-05
3.63472e-07
1.04864e-05
2.90978e-06
1.0073e-05
4.26394e-06
9.60106e-06
4.55133e-06
9.15674e-06
4.08589e-06
8.79983e-06
3.23438e-06
8.55151e-06
2.26096e-06
8.40701e-06
1.29859e-06
8.35147e-06
4.12334e-07
8.36773e-06
-3.51787e-07
8.43913e-06
-9.56435e-07
8.5488e-06
-1.39518e-06
8.68467e-06
-1.65653e-06
8.82916e-06
-1.83545e-06
8.99254e-06
-1.80564e-06
9.12702e-06
-2.15128e-06
9.35007e-06
-1.89519e-06
-4.2836e-06
8.78483e-06
5.27402e-05
6.73261e-06
3.95841e-05
3.73243e-06
2.41498e-05
1.35505e-06
1.38597e-05
-3.54068e-08
4.20262e-06
-5.16172e-07
1.95963e-06
-6.33152e-07
2.53524e-07
-7.7923e-07
1.74109e-06
-1.04771e-06
3.95436e-06
-1.50602e-06
6.00179e-06
-2.04711e-06
5.51112e-06
-2.45343e-06
2.86485e-07
-2.40518e-06
-1.07919e-05
-1.58683e-06
-2.60356e-05
2.55766e-07
-3.78504e-05
2.40463e-06
-2.82069e-05
3.01275e-06
-8.1031e-07
9.85269e-07
2.18835e-05
-3.71368e-06
4.43248e-05
-7.73146e-06
6.43497e-05
-9.37153e-06
6.00454e-05
-1.05741e-05
4.23769e-05
-1.18369e-05
2.86993e-05
-1.27509e-05
1.84622e-05
-1.32668e-05
1.01732e-05
-1.33645e-05
3.15512e-06
-1.30485e-05
-3.12507e-06
-1.2331e-05
-8.91923e-06
-1.12302e-05
-1.43258e-05
-9.7692e-06
-1.93728e-05
-7.97051e-06
-2.40787e-05
-5.85583e-06
-2.84205e-05
-3.46247e-06
-3.21878e-05
-8.69246e-07
-3.49179e-05
1.78519e-06
-3.6028e-05
4.32755e-06
-3.50565e-05
6.59036e-06
-3.19371e-05
8.43455e-06
-2.70081e-05
9.77367e-06
-2.09254e-05
1.05995e-05
-1.4496e-05
1.09855e-05
-8.48483e-06
1.10543e-05
-3.41131e-06
1.09124e-05
5.05365e-07
1.06135e-05
3.20871e-06
1.01919e-05
4.6855e-06
9.70915e-06
5.03412e-06
9.24746e-06
4.54759e-06
8.87188e-06
3.60995e-06
8.60941e-06
2.52344e-06
8.45681e-06
1.45119e-06
8.3975e-06
4.71644e-07
8.41193e-06
-3.66216e-07
8.48178e-06
-1.02628e-06
8.58955e-06
-1.50296e-06
8.72304e-06
-1.79002e-06
8.86503e-06
-1.97743e-06
9.02545e-06
-1.96605e-06
9.15744e-06
-2.28327e-06
9.3743e-06
-2.11204e-06
-4.39418e-06
9.00333e-06
5.37369e-05
7.21724e-06
4.13702e-05
4.39132e-06
2.69757e-05
1.89865e-06
1.63524e-05
2.21689e-07
5.87958e-06
-4.22106e-07
2.60343e-06
-5.92609e-07
4.24027e-07
-7.34373e-07
1.88285e-06
-9.82393e-07
4.20238e-06
-1.42477e-06
6.44416e-06
-1.96952e-06
6.05587e-06
-2.42782e-06
7.44783e-07
-2.50751e-06
-1.07122e-05
-1.9021e-06
-2.6641e-05
-3.5153e-07
-3.94009e-05
1.69832e-06
-3.02568e-05
2.37944e-06
-1.49144e-06
2.8493e-07
2.3978e-05
-4.22051e-06
4.88302e-05
-7.66787e-06
6.77971e-05
-8.99578e-06
6.13733e-05
-1.01148e-05
4.34959e-05
-1.12906e-05
2.98752e-05
-1.21423e-05
1.93139e-05
-1.26202e-05
1.06511e-05
-1.26962e-05
3.23113e-06
-1.23696e-05
-3.45168e-06
-1.16487e-05
-9.64007e-06
-1.05503e-05
-1.54242e-05
-9.09671e-06
-2.08264e-05
-7.31043e-06
-2.5865e-05
-5.21207e-06
-3.05188e-05
-2.83739e-06
-3.45625e-05
-2.65606e-07
-3.74897e-05
2.36148e-06
-3.86551e-05
4.87142e-06
-3.75665e-05
7.09584e-06
-3.41615e-05
8.89325e-06
-2.88055e-05
1.01765e-05
-2.22086e-05
1.09373e-05
-1.52569e-05
1.12522e-05
-8.79967e-06
1.12533e-05
-3.41244e-06
1.10622e-05
6.9649e-07
1.07396e-05
3.53126e-06
1.03109e-05
5.11429e-06
9.82162e-06
5.52336e-06
9.34685e-06
5.02236e-06
8.95461e-06
4.0022e-06
8.67779e-06
2.80025e-06
8.51591e-06
1.61307e-06
8.45154e-06
5.36011e-07
8.46303e-06
-3.77707e-07
8.53039e-06
-1.09364e-06
8.63541e-06
-1.60798e-06
8.76568e-06
-1.92028e-06
8.90438e-06
-2.11614e-06
9.06091e-06
-2.12258e-06
9.19001e-06
-2.41238e-06
9.39934e-06
-2.32136e-06
-4.4951e-06
9.19219e-06
5.45447e-05
7.65811e-06
4.29042e-05
5.03508e-06
2.95987e-05
2.48346e-06
1.8904e-05
5.62587e-07
7.80046e-06
-2.79134e-07
3.44515e-06
-5.34302e-07
6.79195e-07
-6.75082e-07
2.02363e-06
-8.98608e-07
4.4259e-06
-1.32026e-06
6.86582e-06
-1.86285e-06
6.59845e-06
-2.36698e-06
1.24891e-06
-2.56979e-06
-1.05094e-05
-2.17768e-06
-2.70331e-05
-9.16678e-07
-4.06619e-05
1.0031e-06
-3.21766e-05
1.7343e-06
-2.22263e-06
-4.24849e-07
2.61371e-05
-4.63602e-06
5.30414e-05
-7.53454e-06
7.06956e-05
-8.59894e-06
6.24377e-05
-9.63774e-06
4.45347e-05
-1.07261e-05
3.09635e-05
-1.15172e-05
2.0105e-05
-1.19575e-05
1.10914e-05
-1.20122e-05
3.28575e-06
-1.16751e-05
-3.78874e-06
-1.09511e-05
-1.03641e-05
-9.85487e-06
-1.65204e-05
-8.40859e-06
-2.22726e-05
-6.63454e-06
-2.76391e-05
-4.55241e-06
-3.2601e-05
-2.19641e-06
-3.69185e-05
3.52653e-07
-4.00388e-05
2.95193e-06
-4.12544e-05
5.42927e-06
-4.00438e-05
7.6148e-06
-3.6347e-05
9.36486e-06
-3.05556e-05
1.05916e-05
-2.34354e-05
1.12873e-05
-1.59526e-05
1.15302e-05
-9.04257e-06
1.14608e-05
-3.34301e-06
1.12153e-05
9.41949e-07
1.08647e-05
3.88184e-06
1.04284e-05
5.55062e-06
9.93644e-06
6.01533e-06
9.45324e-06
5.50555e-06
9.04722e-06
4.40822e-06
8.75666e-06
3.09081e-06
8.58471e-06
1.78503e-06
8.51406e-06
6.06661e-07
8.52143e-06
-3.85082e-07
8.58528e-06
-1.1575e-06
8.68663e-06
-1.70932e-06
8.81281e-06
-2.04646e-06
8.94742e-06
-2.25075e-06
9.0992e-06
-2.27436e-06
9.22486e-06
-2.53804e-06
9.4256e-06
-2.5221e-06
-4.58713e-06
9.35545e-06
5.51893e-05
8.05636e-06
4.42033e-05
5.65608e-06
3.1999e-05
3.09922e-06
2.14608e-05
9.81749e-07
9.91793e-06
-8.34669e-08
4.51036e-06
-4.53756e-07
1.04948e-06
-6.01724e-07
2.1716e-06
-7.97452e-07
4.62163e-06
-1.19352e-06
7.26188e-06
-1.72815e-06
7.13309e-06
-2.2718e-06
1.79256e-06
-2.59184e-06
-1.01894e-05
-2.41051e-06
-2.72145e-05
-1.43932e-06
-4.16331e-05
3.26238e-07
-3.39421e-05
1.077e-06
-2.97339e-06
-1.10082e-06
2.8315e-05
-4.96073e-06
5.69013e-05
-7.34281e-06
7.30777e-05
-8.18372e-06
6.32786e-05
-9.14336e-06
4.54943e-05
-1.01451e-05
3.19653e-05
-1.08773e-05
2.08372e-05
-1.12808e-05
1.14949e-05
-1.13144e-05
3.31935e-06
-1.09672e-05
-4.13599e-06
-1.02402e-05
-1.10911e-05
-9.14625e-06
-1.76143e-05
-7.70715e-06
-2.37117e-05
-5.94516e-06
-2.94011e-05
-3.87907e-06
-3.4667e-05
-1.54185e-06
-3.92557e-05
9.83832e-07
-4.25644e-05
3.55457e-06
-4.38251e-05
5.99909e-06
-4.24883e-05
8.14525e-06
-3.84932e-05
9.84746e-06
-3.22578e-05
1.10174e-05
-2.46053e-05
1.16476e-05
-1.65828e-05
1.18182e-05
-9.21313e-06
1.16762e-05
-3.20109e-06
1.13721e-05
1.24605e-06
1.09889e-05
4.26507e-06
1.05437e-05
5.99587e-06
1.00517e-05
6.50725e-06
9.5647e-06
5.99259e-06
9.14842e-06
4.8245e-06
8.84546e-06
3.39376e-06
8.6631e-06
1.96739e-06
8.58511e-06
6.84655e-07
8.58719e-06
-3.87169e-07
8.64647e-06
-1.21678e-06
8.74321e-06
-1.80606e-06
8.86446e-06
-2.16771e-06
8.99421e-06
-2.38049e-06
9.14046e-06
-2.42062e-06
9.26204e-06
-2.65962e-06
9.45335e-06
-2.71341e-06
-4.67065e-06
9.49675e-06
5.56925e-05
8.41373e-06
4.52864e-05
6.24828e-06
3.41644e-05
3.73527e-06
2.39738e-05
1.46972e-06
1.21835e-05
1.85101e-07
5.79498e-06
-3.44534e-07
1.57912e-06
-5.14141e-07
2.34121e-06
-6.8043e-07
4.78792e-06
-1.04608e-06
7.62753e-06
-1.56713e-06
7.65415e-06
-2.14384e-06
2.36927e-06
-2.57402e-06
-9.75917e-06
-2.59695e-06
-2.71915e-05
-1.90412e-06
-4.2326e-05
-3.18383e-07
-3.55278e-05
4.09427e-07
-3.7012e-06
-1.73557e-06
3.046e-05
-5.19794e-06
6.03636e-05
-7.10145e-06
7.49812e-05
-7.75178e-06
6.39289e-05
-8.63222e-06
4.63748e-05
-9.54912e-06
3.28821e-05
-1.02244e-05
2.15125e-05
-1.05917e-05
1.18623e-05
-1.06047e-05
3.33236e-06
-1.02476e-05
-4.49313e-06
-9.5178e-06
-1.18209e-05
-8.42633e-06
-1.87058e-05
-6.9944e-06
-2.51437e-05
-5.24432e-06
-3.11511e-05
-3.19408e-06
-3.67173e-05
-8.75859e-07
-4.15739e-05
1.62578e-06
-4.50661e-05
4.1676e-06
-4.63669e-05
6.57901e-06
-4.48997e-05
8.68529e-06
-4.05995e-05
1.03392e-05
-3.39117e-05
1.14519e-05
-2.5718e-05
1.20165e-05
-1.71474e-05
1.21146e-05
-9.31124e-06
1.1899e-05
-2.98553e-06
1.15328e-05
1.61223e-06
1.11124e-05
4.68548e-06
1.0656e-05
6.4523e-06
1.01659e-05
6.99735e-06
9.67923e-06
6.47926e-06
9.25655e-06
5.24719e-06
8.94315e-06
3.70715e-06
8.75055e-06
2.16e-06
8.6644e-06
7.70807e-07
8.6601e-06
-3.82869e-07
8.71376e-06
-1.27044e-06
8.80497e-06
-1.89727e-06
8.92048e-06
-2.28322e-06
9.04462e-06
-2.50463e-06
9.18465e-06
-2.56065e-06
9.3015e-06
-2.77647e-06
9.48272e-06
-2.89463e-06
-4.74581e-06
9.61934e-06
5.60732e-05
8.73252e-06
4.61732e-05
6.80707e-06
3.60899e-05
4.38118e-06
2.63997e-05
2.01516e-06
1.45495e-05
5.19456e-07
7.29069e-06
-1.95659e-07
2.29423e-06
-4.11053e-07
2.5566e-06
-5.49262e-07
4.92613e-06
-8.79889e-07
7.95816e-06
-1.38191e-06
8.15617e-06
-1.98505e-06
2.9724e-06
-2.51707e-06
-9.22715e-06
-2.73476e-06
-2.69739e-05
-2.30964e-06
-4.27511e-05
-9.34366e-07
-3.69031e-05
-2.92518e-07
-4.34305e-06
-2.3215e-06
3.24889e-05
-5.352e-06
6.33941e-05
-6.81734e-06
7.64466e-05
-7.30412e-06
6.44157e-05
-8.10507e-06
4.71757e-05
-8.93962e-06
3.37167e-05
-9.55963e-06
2.21325e-05
-9.8916e-06
1.21943e-05
-9.88444e-06
3.32519e-06
-9.51776e-06
-4.85981e-06
-8.78557e-06
-1.25531e-05
-7.69675e-06
-1.97946e-05
-6.27205e-06
-2.65684e-05
-4.53379e-06
-3.28894e-05
-2.49923e-06
-3.87518e-05
-2.00006e-07
-4.38732e-05
2.27658e-06
-4.75427e-05
4.78934e-06
-4.88797e-05
7.16721e-06
-4.72776e-05
9.23307e-06
-4.26653e-05
1.08382e-05
-3.55168e-05
1.18934e-05
-2.67732e-05
1.23923e-05
-1.76462e-05
1.2418e-05
-9.337e-06
1.21282e-05
-2.69571e-06
1.16973e-05
2.04313e-06
1.12355e-05
5.14726e-06
1.07651e-05
6.92278e-06
1.02775e-05
7.48488e-06
9.79488e-06
6.96192e-06
9.36976e-06
5.6723e-06
9.04837e-06
4.02854e-06
8.84617e-06
2.3622e-06
8.75135e-06
8.65625e-07
8.73971e-06
-3.71224e-07
8.78676e-06
-1.31749e-06
8.87156e-06
-1.98207e-06
8.98057e-06
-2.39223e-06
9.09842e-06
-2.62248e-06
9.23161e-06
-2.69383e-06
9.34313e-06
-2.88799e-06
9.51374e-06
-3.06525e-06
-4.81255e-06
9.72609e-06
5.63471e-05
9.0154e-06
4.68839e-05
7.32912e-06
3.77762e-05
5.02719e-06
2.87017e-05
2.6065e-06
1.69702e-05
9.16528e-07
8.98066e-06
9.36909e-09
3.20139e-06
-2.89357e-07
2.85533e-06
-4.05616e-07
5.04239e-06
-6.97173e-07
8.24971e-06
-1.17488e-06
8.63388e-06
-1.79763e-06
3.59515e-06
-2.42216e-06
-8.60262e-06
-2.82326e-06
-2.65728e-05
-2.65866e-06
-4.29157e-05
-1.54104e-06
-3.80207e-05
-1.01256e-06
-4.87153e-06
-2.84849e-06
3.43249e-05
-5.42756e-06
6.59732e-05
-6.49594e-06
7.7515e-05
-6.84142e-06
6.47612e-05
-7.56272e-06
4.7897e-05
-8.3178e-06
3.44718e-05
-8.88434e-06
2.2699e-05
-9.18174e-06
1.24917e-05
-9.15486e-06
3.29831e-06
-8.77899e-06
-5.23568e-06
-8.04474e-06
-1.32873e-05
-6.9589e-06
-2.08805e-05
-5.5416e-06
-2.79857e-05
-3.81514e-06
-3.46159e-05
-1.79613e-06
-4.07709e-05
4.82786e-07
-4.61521e-05
2.93452e-06
-4.99944e-05
5.41817e-06
-5.13634e-05
7.76197e-06
-4.96214e-05
9.78683e-06
-4.46902e-05
1.13428e-05
-3.70728e-05
1.23403e-05
-2.77707e-05
1.27734e-05
-1.80794e-05
1.27271e-05
-9.2906e-06
1.23628e-05
-2.3315e-06
1.18654e-05
2.54058e-06
1.13585e-05
5.65414e-06
1.08708e-05
7.41053e-06
1.03856e-05
7.97e-06
9.90987e-06
7.43768e-06
9.48615e-06
6.09602e-06
9.15954e-06
4.35515e-06
8.94884e-06
2.57291e-06
8.84518e-06
9.69281e-07
8.82543e-06
-3.51472e-07
8.86497e-06
-1.35703e-06
8.94255e-06
-2.05965e-06
9.04435e-06
-2.49404e-06
9.15531e-06
-2.73343e-06
9.28111e-06
-2.81963e-06
9.38674e-06
-2.99362e-06
9.54636e-06
-3.22487e-06
-4.87079e-06
9.81953e-06
5.65275e-05
9.26527e-06
4.74381e-05
7.81227e-06
3.92292e-05
5.66434e-06
3.08496e-05
3.23302e-06
1.94015e-05
1.37509e-06
1.08386e-05
2.48975e-07
4.32751e-06
-1.43513e-07
3.24782e-06
-2.5071e-07
5.14959e-06
-5.00252e-07
8.49925e-06
-9.48543e-07
9.08217e-06
-1.58386e-06
4.23047e-06
-2.29081e-06
-7.89567e-06
-2.86281e-06
-2.60008e-05
-2.9509e-06
-4.28276e-05
-2.11966e-06
-3.8852e-05
-1.69863e-06
-5.29256e-06
-3.30651e-06
3.59327e-05
-5.42931e-06
6.8096e-05
-6.14159e-06
7.82272e-05
-6.36414e-06
6.49837e-05
-7.006e-06
4.85389e-05
-7.68475e-06
3.51505e-05
-8.19957e-06
2.32139e-05
-8.46319e-06
1.27553e-05
-8.41703e-06
3.25215e-06
-8.03233e-06
-5.62038e-06
-7.29642e-06
-1.40232e-05
-6.21393e-06
-2.1963e-05
-4.80431e-06
-2.93953e-05
-3.08975e-06
-3.63304e-05
-1.08635e-06
-4.27743e-05
1.17199e-06
-4.84104e-05
3.59818e-06
-5.24206e-05
6.05255e-06
-5.38177e-05
8.36163e-06
-5.19305e-05
1.03448e-05
-4.66734e-05
1.18513e-05
-3.85793e-05
1.2791e-05
-2.87104e-05
1.31585e-05
-1.84468e-05
1.30402e-05
-9.17237e-06
1.26018e-05
-1.89308e-06
1.20366e-05
3.10577e-06
1.14815e-05
6.20927e-06
1.09731e-05
7.91895e-06
1.04894e-05
8.45369e-06
1.00226e-05
7.90445e-06