/*--------------------------------*- C++ -*----------------------------------*\
| =========                 |                                                 |
| \\      /  F ield         | OpenFOAM: The Open Source CFD Toolbox           |
|  \\    /   O peration     | Version:  2.4.0                                 |
|   \\  /    A nd           | Web:      www.OpenFOAM.org                      |
|    \\/     M anipulation  |                                                 |
\*---------------------------------------------------------------------------*/
FoamFile
{
    version     2.0;
    format      ascii;
    class       surfaceScalarField;
    location    "50";
    object      phi;
}
// * * * * * * * * * * * * * * * * * * * * * * * * * * * * * * * * * * * * * //

dimensions      [0 3 -1 0 0 0 0];

internalField   nonuniform List<scalar> 
46742
(
2.36557e-06
7.47995e-08
2.28821e-06
7.73655e-08
2.21422e-06
7.39858e-08
2.14286e-06
7.13583e-08
2.0745e-06
6.8367e-08
2.00982e-06
6.46769e-08
1.94882e-06
6.09959e-08
1.89142e-06
5.74074e-08
1.83755e-06
5.38625e-08
1.78709e-06
5.04627e-08
1.73996e-06
4.7134e-08
1.69602e-06
4.39361e-08
1.65521e-06
4.08131e-08
1.61738e-06
3.78286e-08
1.58246e-06
3.49232e-08
1.55028e-06
3.218e-08
1.52067e-06
2.96041e-08
1.4933e-06
2.73743e-08
1.46806e-06
2.52327e-08
1.44484e-06
2.32228e-08
1.42372e-06
2.11195e-08
1.40457e-06
1.91532e-08
1.38797e-06
1.66009e-08
1.37407e-06
1.38932e-08
6.72067e-09
1.36735e-06
2.63672e-06
6.45075e-08
2.63473e-06
7.93511e-08
2.62881e-06
7.99122e-08
2.61977e-06
8.03969e-08
2.60743e-06
8.07099e-08
2.59285e-06
7.92527e-08
2.57665e-06
7.71989e-08
2.55923e-06
7.48249e-08
2.5409e-06
7.219e-08
2.52198e-06
6.93883e-08
2.50267e-06
6.64346e-08
2.48322e-06
6.33948e-08
2.46374e-06
6.02861e-08
2.44441e-06
5.71586e-08
2.42533e-06
5.4002e-08
2.40659e-06
5.09202e-08
2.38835e-06
4.7849e-08
2.37077e-06
4.49558e-08
2.35393e-06
4.20737e-08
2.33792e-06
3.9231e-08
2.32278e-06
3.62615e-08
2.30875e-06
3.31753e-08
2.29588e-06
2.94698e-08
2.28495e-06
2.48249e-08
1.76233e-08
2.27405e-06
2.83833e-06
5.28442e-08
2.84437e-06
7.33107e-08
2.84734e-06
7.6944e-08
2.84902e-06
7.87095e-08
2.84961e-06
8.01249e-08
2.84915e-06
7.97116e-08
2.84791e-06
7.8436e-08
2.84596e-06
7.67787e-08
2.84334e-06
7.48098e-08
2.84014e-06
7.25861e-08
2.83642e-06
7.01555e-08
2.83224e-06
6.75712e-08
2.82764e-06
6.48867e-08
2.82268e-06
6.2123e-08
2.81739e-06
5.92897e-08
2.81186e-06
5.64548e-08
2.80612e-06
5.35819e-08
2.80033e-06
5.07465e-08
2.79453e-06
4.7876e-08
2.78882e-06
4.49465e-08
2.78325e-06
4.18288e-08
2.77796e-06
3.84614e-08
2.77296e-06
3.4468e-08
2.76813e-06
2.96539e-08
2.3276e-08
2.76248e-06
3.05195e-06
4.30628e-08
3.059e-06
6.62624e-08
3.0634e-06
7.25455e-08
3.06669e-06
7.5421e-08
3.06948e-06
7.7335e-08
3.07166e-06
7.75278e-08
3.07339e-06
7.67017e-08
3.07479e-06
7.53864e-08
3.07588e-06
7.37176e-08
3.0767e-06
7.17641e-08
3.07727e-06
6.95814e-08
3.07762e-06
6.72258e-08
3.07776e-06
6.47502e-08
3.07772e-06
6.21624e-08
3.0775e-06
5.95017e-08
3.07715e-06
5.68092e-08
3.07666e-06
5.40695e-08
3.0761e-06
5.13107e-08
3.07548e-06
4.84895e-08
3.07487e-06
4.55625e-08
3.07427e-06
4.24313e-08
3.07372e-06
3.90122e-08
3.07312e-06
3.50633e-08
3.07227e-06
3.05019e-08
2.50081e-08
3.07054e-06
3.28216e-06
3.50074e-08
3.28924e-06
5.91838e-08
3.29421e-06
6.75762e-08
3.2981e-06
7.15277e-08
3.30154e-06
7.38963e-08
3.3045e-06
7.45715e-08
3.30707e-06
7.4129e-08
3.30937e-06
7.30878e-08
3.31145e-06
7.16331e-08
3.31336e-06
6.98572e-08
3.31511e-06
6.78308e-08
3.31672e-06
6.56174e-08
3.3182e-06
6.32668e-08
3.31957e-06
6.07968e-08
3.32082e-06
5.82433e-08
3.322e-06
5.56366e-08
3.3231e-06
5.29705e-08
3.32415e-06
5.02558e-08
3.32518e-06
4.7463e-08
3.32619e-06
4.45477e-08
3.32719e-06
4.14335e-08
3.32815e-06
3.80485e-08
3.32897e-06
3.42511e-08
3.32943e-06
3.00346e-08
2.5317e-08
3.32912e-06
3.53029e-06
2.8439e-08
3.53713e-06
5.23423e-08
3.54244e-06
6.22681e-08
3.54675e-06
6.72128e-08
3.55058e-06
7.00677e-08
3.55397e-06
7.11833e-08
3.55699e-06
7.11056e-08
3.55975e-06
7.03299e-08
3.56231e-06
6.90768e-08
3.5647e-06
6.74668e-08
3.56694e-06
6.5585e-08
3.56907e-06
6.34965e-08
3.57108e-06
6.12528e-08
3.57299e-06
5.88816e-08
3.57482e-06
5.64156e-08
3.57658e-06
5.38792e-08
3.57828e-06
5.12734e-08
3.57993e-06
4.86016e-08
3.58155e-06
4.58424e-08
3.58314e-06
4.29589e-08
3.58468e-06
3.98951e-08
3.58613e-06
3.66014e-08
3.58737e-06
3.30064e-08
3.58825e-06
2.9151e-08
2.50389e-08
3.58853e-06
3.79765e-06
2.31569e-08
3.80408e-06
4.59165e-08
3.80955e-06
5.67942e-08
3.8142e-06
6.25589e-08
3.81837e-06
6.59016e-08
3.82211e-06
6.74424e-08
3.82549e-06
6.77245e-08
3.8286e-06
6.72206e-08
3.8315e-06
6.61777e-08
3.83423e-06
6.47386e-08
3.83681e-06
6.30019e-08
3.83927e-06
6.1039e-08
3.84162e-06
5.8904e-08
3.84387e-06
5.66316e-08
3.84603e-06
5.42531e-08
3.84812e-06
5.17907e-08
3.85014e-06
4.92515e-08
3.85211e-06
4.66359e-08
3.85402e-06
4.39287e-08
3.85588e-06
4.11034e-08
3.85765e-06
3.81235e-08
3.85929e-06
3.49631e-08
3.8607e-06
3.1595e-08
3.86177e-06
2.80828e-08
2.44541e-08
3.86235e-06
4.0857e-06
1.89564e-08
4.09158e-06
4.00379e-08
4.09704e-06
5.13361e-08
4.10192e-06
5.76772e-08
4.10637e-06
6.14471e-08
4.11043e-06
6.33833e-08
4.11414e-06
6.40127e-08
4.11758e-06
6.3785e-08
4.12079e-06
6.2963e-08
4.12383e-06
6.1706e-08
4.1267e-06
6.01241e-08
4.12945e-06
5.82957e-08
4.13207e-06
5.62785e-08
4.13459e-06
5.41124e-08
4.13702e-06
5.18293e-08
4.13935e-06
4.94515e-08
4.14162e-06
4.69899e-08
4.14381e-06
4.44464e-08
4.14592e-06
4.18125e-08
4.14795e-06
3.9073e-08
4.14987e-06
3.62078e-08
4.15162e-06
3.32112e-08
4.15314e-06
3.00789e-08
4.15433e-06
2.68853e-08
2.36626e-08
4.15512e-06
4.39599e-06
1.56396e-08
4.40125e-06
3.47715e-08
4.40655e-06
4.60433e-08
4.41152e-06
5.27038e-08
4.41618e-06
5.67897e-08
4.4205e-06
5.90591e-08
4.42451e-06
6.00031e-08
4.42825e-06
6.00427e-08
4.43177e-06
5.94446e-08
4.4351e-06
5.8378e-08
4.43826e-06
5.69607e-08
4.44128e-06
5.52772e-08
4.44417e-06
5.3389e-08
4.44694e-06
5.13404e-08
4.44961e-06
4.91643e-08
4.45218e-06
4.68849e-08
4.45465e-06
4.45162e-08
4.45703e-06
4.20641e-08
4.45932e-06
3.95264e-08
4.46149e-06
3.68987e-08
4.46353e-06
3.41735e-08
4.46538e-06
3.13604e-08
4.46699e-06
2.84658e-08
4.4683e-06
2.55703e-08
2.26962e-08
4.46927e-06
3.16567e-06
1.37841e-08
3.16887e-06
3.15663e-08
3.17234e-06
4.25745e-08
3.1757e-06
4.93445e-08
3.17891e-06
5.35815e-08
3.18195e-06
5.60236e-08
3.1848e-06
5.71507e-08
3.18748e-06
5.73572e-08
3.19002e-06
5.69051e-08
3.19243e-06
5.59668e-08
3.19473e-06
5.46635e-08
3.19693e-06
5.30824e-08
3.19903e-06
5.1287e-08
3.20104e-06
4.93239e-08
3.20298e-06
4.72276e-08
3.20484e-06
4.5023e-08
3.20663e-06
4.27266e-08
3.20835e-06
4.03473e-08
3.20999e-06
3.78873e-08
3.21154e-06
3.53482e-08
3.21298e-06
3.27292e-08
3.2143e-06
3.00474e-08
3.21545e-06
2.73146e-08
3.21641e-06
2.46097e-08
2.19471e-08
3.21716e-06
3.52152e-06
1.2107e-08
3.52462e-06
2.84672e-08
3.52812e-06
3.90758e-08
3.53162e-06
4.58444e-08
3.53502e-06
5.01734e-08
3.5383e-06
5.27529e-08
3.54141e-06
5.40408e-08
3.54436e-06
5.44043e-08
3.54717e-06
5.40963e-08
3.54984e-06
5.32892e-08
3.5524e-06
5.21056e-08
3.55485e-06
5.06342e-08
3.5572e-06
4.89404e-08
3.55945e-06
4.70723e-08
3.56161e-06
4.5066e-08
3.56369e-06
4.29478e-08
3.56568e-06
4.0736e-08
3.56758e-06
3.84431e-08
3.56939e-06
3.60754e-08
3.5711e-06
3.364e-08
3.57269e-06
3.11421e-08
3.57413e-06
2.8605e-08
3.5754e-06
2.60422e-08
3.57648e-06
2.35289e-08
2.10723e-08
3.57736e-06
3.91744e-06
1.05998e-08
3.92042e-06
2.54914e-08
3.92391e-06
3.55867e-08
3.92751e-06
4.22435e-08
3.93108e-06
4.65961e-08
3.93457e-06
4.92694e-08
3.93792e-06
5.0688e-08
3.94113e-06
5.11907e-08
3.94421e-06
5.10186e-08
3.94716e-06
5.03406e-08
3.94999e-06
4.92786e-08
3.9527e-06
4.79219e-08
3.9553e-06
4.63366e-08
3.9578e-06
4.45722e-08
3.9602e-06
4.26659e-08
3.96251e-06
4.06456e-08
3.96471e-06
3.85315e-08
3.96681e-06
3.63392e-08
3.96881e-06
3.40789e-08
3.97069e-06
3.17628e-08
3.97243e-06
2.94008e-08
3.97401e-06
2.70199e-08
3.97542e-06
2.46342e-08
3.97664e-06
2.23129e-08
2.0057e-08
3.97765e-06
4.35795e-06
9.25028e-09
4.36079e-06
2.26548e-08
4.36424e-06
3.21337e-08
4.36791e-06
3.85768e-08
4.37162e-06
4.28815e-08
4.37529e-06
4.55994e-08
4.37887e-06
4.71128e-08
4.38233e-06
4.7731e-08
4.38566e-06
4.76808e-08
4.38888e-06
4.71248e-08
4.39198e-06
4.61824e-08
4.39495e-06
4.49421e-08
4.39782e-06
4.34701e-08
4.40058e-06
4.18165e-08
4.40322e-06
4.00193e-08
4.40576e-06
3.81078e-08
4.40819e-06
3.61042e-08
4.4105e-06
3.40265e-08
4.41269e-06
3.18886e-08
4.41475e-06
2.97066e-08
4.41665e-06
2.74938e-08
4.4184e-06
2.5279e-08
4.41995e-06
2.30759e-08
4.42132e-06
2.09461e-08
1.8886e-08
4.42249e-06
4.84806e-06
8.04148e-09
4.85075e-06
1.99672e-08
4.85415e-06
2.87385e-08
4.85785e-06
3.48734e-08
4.86167e-06
3.90586e-08
4.8655e-06
4.1768e-08
4.86928e-06
4.3337e-08
4.87297e-06
4.40433e-08
4.87655e-06
4.4097e-08
4.88002e-06
4.36522e-08
4.88338e-06
4.28241e-08
4.88663e-06
4.16992e-08
4.88975e-06
4.03429e-08
4.89276e-06
3.88052e-08
4.89566e-06
3.71249e-08
4.89843e-06
3.5332e-08
4.90109e-06
3.34505e-08
4.90361e-06
3.15006e-08
4.906e-06
2.94989e-08
4.90825e-06
2.74643e-08
4.91033e-06
2.54122e-08
4.91223e-06
2.33712e-08
4.91396e-06
2.13542e-08
4.91549e-06
1.94147e-08
1.75458e-08
4.91683e-06
5.39337e-06
6.95302e-09
5.3959e-06
1.74323e-08
5.39922e-06
2.54185e-08
5.40294e-06
3.11573e-08
5.40684e-06
3.5152e-08
5.41082e-06
3.77976e-08
5.41477e-06
3.93802e-08
5.41867e-06
4.01446e-08
5.42249e-06
4.02819e-08
5.4262e-06
3.99353e-08
5.42981e-06
3.92142e-08
5.43331e-06
3.82017e-08
5.43669e-06
3.69619e-08
5.43995e-06
3.55442e-08
5.44309e-06
3.39872e-08
5.4461e-06
3.23217e-08
5.44898e-06
3.05728e-08
5.45172e-06
2.87623e-08
5.45431e-06
2.69088e-08
5.45674e-06
2.50325e-08
5.459e-06
2.315e-08
5.46108e-06
2.12883e-08
5.46298e-06
1.94591e-08
5.46468e-06
1.77075e-08
1.60255e-08
5.46621e-06
6.00007e-06
5.96308e-09
6.00245e-06
1.50479e-08
6.00569e-06
2.21864e-08
6.0094e-06
2.74477e-08
6.01337e-06
3.11823e-08
6.01746e-06
3.37067e-08
6.02158e-06
3.52583e-08
6.02567e-06
3.60489e-08
6.02971e-06
3.62477e-08
6.03366e-06
3.59849e-08
6.03751e-06
3.53623e-08
6.04125e-06
3.44587e-08
6.04488e-06
3.33356e-08
6.04838e-06
3.20411e-08
6.05176e-06
3.06131e-08
6.055e-06
2.90828e-08
6.05809e-06
2.74758e-08
6.06104e-06
2.58149e-08
6.06383e-06
2.41196e-08
6.06645e-06
2.24103e-08
6.0689e-06
2.07039e-08
6.07116e-06
1.90248e-08
6.07324e-06
1.73834e-08
6.07513e-06
1.58166e-08
1.4317e-08
6.07684e-06
6.67508e-06
5.04964e-09
6.67732e-06
1.28057e-08
6.68046e-06
1.905e-08
6.68415e-06
2.37591e-08
6.68816e-06
2.71654e-08
6.69236e-06
2.95097e-08
6.69663e-06
3.09852e-08
6.70091e-06
3.17676e-08
6.70516e-06
3.20034e-08
6.70933e-06
3.18085e-08
6.71342e-06
3.1275e-08
6.7174e-06
3.04759e-08
6.72127e-06
2.9469e-08
6.72501e-06
2.83004e-08
6.72862e-06
2.70071e-08
6.73208e-06
2.56194e-08
6.73539e-06
2.41628e-08
6.73855e-06
2.26603e-08
6.74154e-06
2.11313e-08
6.74435e-06
1.95959e-08
6.74699e-06
1.80701e-08
6.74944e-06
1.65752e-08
6.7517e-06
1.51205e-08
6.75378e-06
1.37353e-08
1.24138e-08
6.75568e-06
7.42608e-06
4.19267e-09
7.4282e-06
1.06864e-08
7.43124e-06
1.60099e-08
7.43489e-06
2.01024e-08
7.43894e-06
2.31146e-08
7.44323e-06
2.52207e-08
7.44765e-06
2.65718e-08
7.4521e-06
2.73089e-08
7.45655e-06
2.75546e-08
7.46095e-06
2.74092e-08
7.46527e-06
2.69537e-08
7.4695e-06
2.62538e-08
7.4736e-06
2.53621e-08
7.47758e-06
2.43219e-08
7.48142e-06
2.31681e-08
7.48511e-06
2.19297e-08
7.48864e-06
2.06312e-08
7.49201e-06
1.92947e-08
7.4952e-06
1.7939e-08
7.49821e-06
1.65827e-08
7.50104e-06
1.52406e-08
7.50369e-06
1.39307e-08
7.50615e-06
1.26613e-08
7.50843e-06
1.14546e-08
1.03076e-08
7.51053e-06
8.2616e-06
3.37956e-09
8.26362e-06
8.66498e-09
8.26658e-06
1.3052e-08
8.27021e-06
1.64793e-08
8.27428e-06
1.90373e-08
8.27866e-06
2.08479e-08
8.2832e-06
2.20251e-08
8.28783e-06
2.26776e-08
8.29248e-06
2.29038e-08
8.29711e-06
2.2787e-08
8.30166e-06
2.23962e-08
8.30613e-06
2.17882e-08
8.31048e-06
2.10096e-08
8.3147e-06
2.0099e-08
8.31878e-06
1.90886e-08
8.32271e-06
1.8005e-08
8.32647e-06
1.68711e-08
8.33006e-06
1.57069e-08
8.33347e-06
1.45301e-08
8.33669e-06
1.3357e-08
8.33973e-06
1.22009e-08
8.34259e-06
1.10764e-08
8.34526e-06
9.99088e-09
8.34775e-06
8.96065e-09
7.98524e-09
8.35007e-06
9.19117e-06
2.59819e-09
9.19312e-06
6.71591e-09
9.19601e-06
1.01561e-08
9.19962e-06
1.28761e-08
9.20373e-06
1.49269e-08
9.20819e-06
1.6389e-08
9.21287e-06
1.73439e-08
9.21767e-06
1.78717e-08
9.22253e-06
1.80473e-08
9.22738e-06
1.79366e-08
9.23218e-06
1.75952e-08
9.2369e-06
1.707e-08
9.24151e-06
1.64004e-08
9.24599e-06
1.56192e-08
9.25032e-06
1.47546e-08
9.2545e-06
1.38298e-08
9.25851e-06
1.2865e-08
9.26233e-06
1.18781e-08
9.26598e-06
1.08842e-08
9.26944e-06
9.89738e-09
9.27271e-06
8.9289e-09
9.2758e-06
7.99029e-09
9.2787e-06
7.08786e-09
9.28143e-06
6.23301e-09
5.42758e-09
9.28399e-06
1.02254e-05
1.83753e-09
1.02273e-05
4.80883e-09
1.02301e-05
7.28983e-09
1.02337e-05
9.26486e-09
1.02379e-05
1.07604e-08
1.02425e-05
1.1825e-08
1.02473e-05
1.2512e-08
1.02523e-05
1.28762e-08
1.02574e-05
1.29704e-08
1.02625e-05
1.28426e-08
1.02675e-05
1.25344e-08
1.02725e-05
1.20818e-08
1.02774e-05
1.15156e-08
1.02822e-05
1.08621e-08
1.02868e-05
1.01439e-08
1.02912e-05
9.38028e-09
1.02955e-05
8.58811e-09
1.02996e-05
7.78172e-09
1.03035e-05
6.97379e-09
1.03072e-05
6.17552e-09
1.03108e-05
5.39602e-09
1.03141e-05
4.64391e-09
1.03173e-05
3.92446e-09
1.03203e-05
3.24503e-09
2.60921e-09
1.03231e-05
1.13759e-05
1.09278e-09
1.13778e-05
2.90158e-09
1.13807e-05
4.40221e-09
1.13844e-05
5.59483e-09
1.13887e-05
6.49018e-09
1.13934e-05
7.11203e-09
1.13984e-05
7.48963e-09
1.14036e-05
7.65459e-09
1.1409e-05
7.63873e-09
1.14143e-05
7.47204e-09
1.14197e-05
7.18164e-09
1.1425e-05
6.79162e-09
1.14302e-05
6.32326e-09
1.14352e-05
5.79519e-09
1.14401e-05
5.22371e-09
1.14449e-05
4.623e-09
1.14495e-05
4.0057e-09
1.14539e-05
3.38259e-09
1.14581e-05
2.76314e-09
1.14621e-05
2.15556e-09
1.14659e-05
1.56671e-09
1.14696e-05
1.00243e-09
1.1473e-05
4.66935e-10
1.14763e-05
-3.56855e-11
-5.00745e-10
1.14794e-05
1.2656e-05
3.50372e-10
1.2658e-05
9.38448e-10
1.26609e-05
1.41653e-09
1.26648e-05
1.78129e-09
1.26692e-05
2.03071e-09
1.26742e-05
2.16792e-09
1.26795e-05
2.19967e-09
1.2685e-05
2.13534e-09
1.26906e-05
1.98598e-09
1.26963e-05
1.76333e-09
1.2702e-05
1.47911e-09
1.27077e-05
1.14468e-09
1.27132e-05
7.70815e-10
1.27187e-05
3.67566e-10
1.27239e-05
-5.58057e-11
1.27291e-05
-4.90965e-10
1.2734e-05
-9.30224e-10
1.27387e-05
-1.36663e-09
1.27433e-05
-1.79423e-09
1.27477e-05
-2.2079e-09
1.27518e-05
-2.6032e-09
1.27558e-05
-2.97678e-09
1.27596e-05
-3.32563e-09
1.27632e-05
-3.64827e-09
-3.93962e-09
1.27667e-05
1.29239e-05
-3.71485e-10
1.29259e-05
-9.96629e-10
1.29288e-05
-1.52942e-09
1.29326e-05
-1.98389e-09
1.2937e-05
-2.37492e-09
1.29419e-05
-2.71936e-09
1.29471e-05
-3.03252e-09
1.29526e-05
-3.32678e-09
1.29582e-05
-3.6114e-09
1.29638e-05
-3.89264e-09
1.29695e-05
-4.17404e-09
1.29751e-05
-4.45698e-09
1.29806e-05
-4.74118e-09
1.2986e-05
-5.02522e-09
1.29912e-05
-5.30689e-09
1.29963e-05
-5.58382e-09
1.30012e-05
-5.85308e-09
1.3006e-05
-6.11158e-09
1.30106e-05
-6.35669e-09
1.30149e-05
-6.58619e-09
1.30191e-05
-6.79789e-09
1.30231e-05
-6.99054e-09
1.3027e-05
-7.16237e-09
1.30306e-05
-7.31372e-09
-7.43973e-09
1.30341e-05
1.19119e-05
-1.05701e-09
1.19137e-05
-2.80879e-09
1.19164e-05
-4.27791e-09
1.19199e-05
-5.48157e-09
1.1924e-05
-6.44982e-09
1.19285e-05
-7.22238e-09
1.19333e-05
-7.83749e-09
1.19383e-05
-8.32899e-09
1.19434e-05
-8.7258e-09
1.19486e-05
-9.0512e-09
1.19537e-05
-9.32291e-09
1.19588e-05
-9.5539e-09
1.19639e-05
-9.75339e-09
1.19688e-05
-9.92764e-09
1.19735e-05
-1.00807e-08
1.19782e-05
-1.02156e-08
1.19826e-05
-1.03331e-08
1.1987e-05
-1.04337e-08
1.19911e-05
-1.05175e-08
1.19951e-05
-1.05848e-08
1.1999e-05
-1.06351e-08
1.20026e-05
-1.06688e-08
1.20062e-05
-1.06852e-08
1.20095e-05
-1.06859e-08
-1.06665e-08
1.20128e-05
1.09791e-05
-1.75115e-09
1.09809e-05
-4.58355e-09
1.09836e-05
-6.94863e-09
1.09869e-05
-8.84949e-09
1.09908e-05
-1.03391e-08
1.09951e-05
-1.14872e-08
1.09996e-05
-1.23582e-08
1.10043e-05
-1.30088e-08
1.1009e-05
-1.34882e-08
1.10138e-05
-1.38365e-08
1.10186e-05
-1.40847e-08
1.10233e-05
-1.42565e-08
1.10279e-05
-1.43696e-08
1.10324e-05
-1.4437e-08
1.10368e-05
-1.44685e-08
1.10411e-05
-1.44709e-08
1.10452e-05
-1.44485e-08
1.10492e-05
-1.44048e-08
1.1053e-05
-1.43422e-08
1.10567e-05
-1.42628e-08
1.10602e-05
-1.41677e-08
1.10636e-05
-1.40586e-08
1.10668e-05
-1.39355e-08
1.10699e-05
-1.38008e-08
-1.36509e-08
1.10729e-05
1.01194e-05
-2.47664e-09
1.01212e-05
-6.39142e-09
1.01239e-05
-9.63563e-09
1.01273e-05
-1.21899e-08
1.01311e-05
-1.4146e-08
1.01352e-05
-1.56151e-08
1.01395e-05
-1.66921e-08
1.0144e-05
-1.74593e-08
1.01485e-05
-1.79875e-08
1.0153e-05
-1.83333e-08
1.01574e-05
-1.85403e-08
1.01618e-05
-1.86417e-08
1.01661e-05
-1.86628e-08
1.01703e-05
-1.86227e-08
1.01744e-05
-1.85354e-08
1.01783e-05
-1.84108e-08
1.01821e-05
-1.82562e-08
1.01858e-05
-1.80776e-08
1.01893e-05
-1.78793e-08
1.01927e-05
-1.76647e-08
1.0196e-05
-1.74362e-08
1.01991e-05
-1.71962e-08
1.02021e-05
-1.69456e-08
1.0205e-05
-1.66873e-08
-1.64182e-08
1.02078e-05
9.32707e-06
-3.25086e-09
9.32898e-06
-8.30039e-09
9.33177e-06
-1.24185e-08
9.33516e-06
-1.55812e-08
9.33895e-06
-1.79445e-08
9.34302e-06
-1.96754e-08
9.34723e-06
-2.09043e-08
9.35151e-06
-2.17424e-08
9.35581e-06
-2.2283e-08
9.36007e-06
-2.25987e-08
9.36428e-06
-2.27448e-08
9.3684e-06
-2.2763e-08
9.37242e-06
-2.2685e-08
9.37633e-06
-2.25345e-08
9.38012e-06
-2.23283e-08
9.38379e-06
-2.20795e-08
9.38733e-06
-2.1798e-08
9.39075e-06
-2.14914e-08
9.39403e-06
-2.11652e-08
9.39719e-06
-2.0824e-08
9.40023e-06
-2.0471e-08
9.40314e-06
-2.01093e-08
9.40593e-06
-1.97404e-08
9.40861e-06
-1.93675e-08
-1.89881e-08
9.41118e-06
8.59681e-06
-4.10333e-09
8.59888e-06
-1.03785e-08
8.60183e-06
-1.53665e-08
8.60534e-06
-1.90849e-08
8.60918e-06
-2.17865e-08
8.61322e-06
-2.37132e-08
8.61735e-06
-2.50358e-08
8.6215e-06
-2.58968e-08
8.62563e-06
-2.64127e-08
8.6297e-06
-2.66705e-08
8.63369e-06
-2.67357e-08
8.63759e-06
-2.66573e-08
8.64137e-06
-2.64716e-08
8.64504e-06
-2.62055e-08
8.6486e-06
-2.58792e-08
8.65202e-06
-2.55079e-08
8.65533e-06
-2.51029e-08
8.65851e-06
-2.46729e-08
8.66157e-06
-2.42246e-08
8.66451e-06
-2.37631e-08
8.66733e-06
-2.32924e-08
8.67004e-06
-2.2816e-08
8.67263e-06
-2.2336e-08
8.67512e-06
-2.18555e-08
-2.13729e-08
8.67751e-06
7.92377e-06
-5.07374e-09
7.9261e-06
-1.27053e-08
7.92928e-06
-1.85485e-08
7.93294e-06
-2.27448e-08
7.93686e-06
-2.57025e-08
7.9409e-06
-2.77541e-08
7.94497e-06
-2.91102e-08
7.94902e-06
-2.9946e-08
7.95301e-06
-3.03994e-08
7.95691e-06
-3.05706e-08
7.96071e-06
-3.05341e-08
7.96439e-06
-3.03445e-08
7.96796e-06
-3.00416e-08
7.97141e-06
-2.9655e-08
7.97474e-06
-2.92065e-08
7.97794e-06
-2.87128e-08
7.98103e-06
-2.8186e-08
7.98399e-06
-2.76357e-08
7.98683e-06
-2.70692e-08
7.98956e-06
-2.64922e-08
7.99218e-06
-2.5909e-08
7.99469e-06
-2.53234e-08
7.99709e-06
-2.4738e-08
7.99939e-06
-2.41556e-08
-2.35757e-08
8.00159e-06
7.30352e-06
-6.22768e-09
7.30618e-06
-1.53705e-08
7.30965e-06
-2.20187e-08
7.3135e-06
-2.65881e-08
7.31751e-06
-2.97112e-08
7.32156e-06
-3.18099e-08
7.32559e-06
-3.31359e-08
7.32954e-06
-3.38951e-08
7.33338e-06
-3.42466e-08
7.33711e-06
-3.43027e-08
7.34072e-06
-3.41437e-08
7.34421e-06
-3.38282e-08
7.34756e-06
-3.33984e-08
7.35079e-06
-3.28852e-08
7.3539e-06
-3.23115e-08
7.35688e-06
-3.16945e-08
7.35974e-06
-3.1047e-08
7.36249e-06
-3.03788e-08
7.36511e-06
-2.96975e-08
7.36763e-06
-2.90091e-08
7.37004e-06
-2.83182e-08
7.37234e-06
-2.76286e-08
7.37455e-06
-2.69431e-08
7.37666e-06
-2.62644e-08
-2.55928e-08
7.37868e-06
6.73194e-06
-7.65766e-09
6.73504e-06
-1.84661e-08
6.73884e-06
-2.58226e-08
6.74289e-06
-3.0632e-08
6.74699e-06
-3.3816e-08
6.75106e-06
-3.58754e-08
6.75502e-06
-3.70996e-08
6.75885e-06
-3.77277e-08
6.76254e-06
-3.7937e-08
6.76609e-06
-3.78483e-08
6.76949e-06
-3.75461e-08
6.77275e-06
-3.70906e-08
6.77588e-06
-3.65249e-08
6.77888e-06
-3.58802e-08
6.78174e-06
-3.51794e-08
6.78449e-06
-3.44396e-08
6.78711e-06
-3.36735e-08
6.78963e-06
-3.2891e-08
6.79203e-06
-3.20995e-08
6.79432e-06
-3.13049e-08
6.79652e-06
-3.0512e-08
6.79861e-06
-2.97243e-08
6.80062e-06
-2.8945e-08
6.80253e-06
-2.81764e-08
-2.74193e-08
6.80435e-06
6.20528e-06
-9.49159e-09
6.20891e-06
-2.20935e-08
6.21307e-06
-2.9992e-08
6.21731e-06
-3.48703e-08
6.22149e-06
-3.7991e-08
6.22553e-06
-3.99124e-08
6.22938e-06
-4.09572e-08
6.23305e-06
-4.1398e-08
6.23654e-06
-4.14261e-08
6.23986e-06
-4.11663e-08
6.24302e-06
-4.07041e-08
6.24603e-06
-4.00988e-08
6.24889e-06
-3.93927e-08
6.25163e-06
-3.86157e-08
6.25424e-06
-3.77899e-08
6.25673e-06
-3.69313e-08
6.25911e-06
-3.6052e-08
6.26138e-06
-3.51612e-08
6.26355e-06
-3.42661e-08
6.26561e-06
-3.33724e-08
6.26759e-06
-3.24846e-08
6.26947e-06
-3.16063e-08
6.27126e-06
-3.07404e-08
6.27298e-06
-2.98892e-08
-2.90538e-08
6.27461e-06
5.72006e-06
-1.19059e-08
5.72433e-06
-2.63544e-08
5.72886e-06
-3.45261e-08
5.73324e-06
-3.92506e-08
5.73741e-06
-4.21626e-08
5.74134e-06
-4.38403e-08
5.74501e-06
-4.46308e-08
5.74845e-06
-4.48358e-08
5.75168e-06
-4.46534e-08
5.75472e-06
-4.42066e-08
5.75759e-06
-4.35774e-08
5.76031e-06
-4.28213e-08
5.7629e-06
-4.19775e-08
5.76536e-06
-4.10734e-08
5.7677e-06
-4.01294e-08
5.76992e-06
-3.91597e-08
5.77205e-06
-3.81754e-08
5.77407e-06
-3.71849e-08
5.776e-06
-3.61947e-08
5.77784e-06
-3.521e-08
5.77959e-06
-3.42355e-08
5.78126e-06
-3.32742e-08
5.78285e-06
-3.23294e-08
5.78436e-06
-3.14028e-08
-3.0496e-08
5.7858e-06
5.27313e-06
-1.51372e-08
5.2781e-06
-3.13218e-08
5.28293e-06
-3.93551e-08
5.28733e-06
-4.36518e-08
5.29137e-06
-4.6208e-08
5.29508e-06
-4.75509e-08
5.29848e-06
-4.80311e-08
5.30162e-06
-4.79721e-08
5.30453e-06
-4.75674e-08
5.30726e-06
-4.69318e-08
5.30982e-06
-4.61395e-08
5.31224e-06
-4.52395e-08
5.31453e-06
-4.42667e-08
5.3167e-06
-4.32446e-08
5.31876e-06
-4.2192e-08
5.32072e-06
-4.11203e-08
5.32259e-06
-4.00403e-08
5.32436e-06
-3.89587e-08
5.32605e-06
-3.78819e-08
5.32765e-06
-3.68143e-08
5.32918e-06
-3.57604e-08
5.33063e-06
-3.47235e-08
5.33201e-06
-3.37065e-08
5.33331e-06
-3.27104e-08
-3.17386e-08
5.33456e-06
4.86156e-06
-1.94813e-08
4.86722e-06
-3.69869e-08
4.87218e-06
-4.43105e-08
4.87642e-06
-4.78966e-08
4.88021e-06
-4.99924e-08
4.8836e-06
-5.0947e-08
4.88666e-06
-5.10899e-08
4.88945e-06
-5.07592e-08
4.89201e-06
-5.01346e-08
4.8944e-06
-4.93177e-08
4.89663e-06
-4.83713e-08
4.89873e-06
-4.73366e-08
4.90071e-06
-4.6245e-08
4.90258e-06
-4.51136e-08
4.90434e-06
-4.39593e-08
4.90602e-06
-4.27926e-08
4.9076e-06
-4.16237e-08
4.9091e-06
-4.0458e-08
4.91052e-06
-3.93011e-08
4.91186e-06
-3.81571e-08
4.91313e-06
-3.70287e-08
4.91433e-06
-3.59225e-08
4.91546e-06
-3.48374e-08
4.91652e-06
-3.37761e-08
-3.27448e-08
4.91753e-06
4.48262e-06
-2.52634e-08
4.48886e-06
-4.32209e-08
4.4937e-06
-4.91496e-08
4.49761e-06
-5.18095e-08
4.50103e-06
-5.3409e-08
4.50403e-06
-5.39527e-08
4.50669e-06
-5.37487e-08
4.50907e-06
-5.31431e-08
4.51124e-06
-5.22997e-08
4.51323e-06
-5.13068e-08
4.51507e-06
-5.02107e-08
4.51678e-06
-4.90455e-08
4.51837e-06
-4.78384e-08
4.51986e-06
-4.66007e-08
4.52125e-06
-4.53497e-08
4.52255e-06
-4.40905e-08
4.52376e-06
-4.2835e-08
4.52489e-06
-4.15865e-08
4.52593e-06
-4.03498e-08
4.52691e-06
-3.91308e-08
4.52781e-06
-3.79263e-08
4.52864e-06
-3.67534e-08
4.5294e-06
-3.55999e-08
4.5301e-06
-3.44733e-08
-3.33862e-08
4.53074e-06
4.13382e-06
-3.2826e-08
4.14037e-06
-4.97699e-08
4.14482e-06
-5.35959e-08
4.14822e-06
-5.52179e-08
4.15112e-06
-5.63038e-08
4.15356e-06
-5.63913e-08
4.15563e-06
-5.58178e-08
4.15741e-06
-5.4922e-08
4.15895e-06
-5.38421e-08
4.1603e-06
-5.26602e-08
4.16149e-06
-5.1399e-08
4.16253e-06
-5.00845e-08
4.16343e-06
-4.87434e-08
4.16421e-06
-4.73787e-08
4.16488e-06
-4.60142e-08
4.16543e-06
-4.46448e-08
4.16589e-06
-4.32888e-08
4.16624e-06
-4.19433e-08
4.16651e-06
-4.0615e-08
4.16668e-06
-3.93083e-08
4.16678e-06
-3.80199e-08
4.16679e-06
-3.67669e-08
4.16674e-06
-3.55445e-08
4.16661e-06
-3.4347e-08
-3.3202e-08
4.16643e-06
3.81283e-06
-4.25215e-08
3.81898e-06
-5.59219e-08
3.82244e-06
-5.70615e-08
3.82482e-06
-5.75979e-08
3.82653e-06
-5.80116e-08
3.82757e-06
-5.74284e-08
3.82805e-06
-5.63041e-08
3.82812e-06
-5.49901e-08
3.82786e-06
-5.35805e-08
3.8273e-06
-5.20967e-08
3.82646e-06
-5.05631e-08
3.82538e-06
-4.90016e-08
3.82408e-06
-4.7443e-08
3.82257e-06
-4.58733e-08
3.82089e-06
-4.43327e-08
3.81904e-06
-4.27916e-08
3.81704e-06
-4.12893e-08
3.8149e-06
-3.9801e-08
3.81263e-06
-3.8349e-08
3.81025e-06
-3.69242e-08
3.80776e-06
-3.55341e-08
3.80517e-06
-3.41808e-08
3.8025e-06
-3.28699e-08
3.79975e-06
-3.15949e-08
-3.03818e-08
3.79693e-06
3.51612e-06
-5.33322e-08
3.51716e-06
-5.69692e-08
3.51506e-06
-5.49632e-08
3.51157e-06
-5.41028e-08
3.50624e-06
-5.2682e-08
3.4995e-06
-5.06863e-08
3.49175e-06
-4.85517e-08
3.48318e-06
-4.64284e-08
3.47394e-06
-4.43406e-08
3.46417e-06
-4.23266e-08
3.45399e-06
-4.03832e-08
3.4435e-06
-3.85022e-08
3.43277e-06
-3.67152e-08
3.42186e-06
-3.49687e-08
3.41086e-06
-3.3334e-08
3.39979e-06
-3.17216e-08
3.38872e-06
-3.02187e-08
3.37766e-06
-2.87411e-08
3.36667e-06
-2.73528e-08
3.35575e-06
-2.60019e-08
3.34493e-06
-2.47227e-08
3.33424e-06
-2.34873e-08
3.32369e-06
-2.23164e-08
3.31329e-06
-2.11976e-08
-2.01167e-08
3.30302e-06
3.17747e-06
3.1205e-06
3.06554e-06
3.01144e-06
2.95875e-06
2.90807e-06
2.85952e-06
2.81309e-06
2.76875e-06
2.72642e-06
2.68604e-06
2.64754e-06
2.61082e-06
2.57585e-06
2.54252e-06
2.5108e-06
2.48058e-06
2.45184e-06
2.42448e-06
2.39848e-06
2.37376e-06
2.35027e-06
2.32795e-06
2.30676e-06
2.28664e-06
-1.94386e-09
1.94729e-09
-1.56803e-09
-3.71067e-10
5.08333e-09
-6.6466e-09
1.90495e-08
-1.39619e-08
3.89931e-08
-1.99399e-08
6.24168e-08
-2.34203e-08
8.69852e-08
-2.45651e-08
1.10883e-07
-2.38944e-08
1.32835e-07
-2.19485e-08
1.52119e-07
-1.92806e-08
1.68306e-07
-1.61837e-08
1.81203e-07
-1.28928e-08
1.90781e-07
-9.57392e-09
1.97118e-07
-6.33251e-09
2.00341e-07
-3.21864e-09
2.00706e-07
-3.60139e-10
1.98507e-07
2.2034e-09
1.93972e-07
4.5405e-09
1.87349e-07
6.62849e-09
1.78924e-07
8.4297e-09
1.69035e-07
9.89368e-09
1.58081e-07
1.09591e-08
1.46506e-07
1.15801e-08
1.34788e-07
1.17236e-08
1.23435e-07
1.13578e-08
1.12972e-07
1.04677e-08
1.03913e-07
9.06445e-09
9.67278e-08
7.19058e-09
9.1773e-08
4.96027e-09
8.92102e-08
2.56858e-09
8.88839e-08
3.32078e-10
9.02698e-08
-1.37978e-09
9.27388e-08
-2.46279e-09
9.56139e-08
-2.86869e-09
9.85348e-08
-2.91442e-09
1.01689e-07
-3.14731e-09
1.0527e-07
-3.57438e-09
1.08775e-07
-3.49746e-09
1.11535e-07
-2.75321e-09
1.13975e-07
-2.43335e-09
1.16674e-07
-2.69095e-09
1.17632e-07
-9.51578e-10
1.13997e-07
3.64173e-09
1.03333e-07
1.06695e-08
8.31928e-08
2.01451e-08
5.26873e-08
3.05112e-08
1.25437e-08
4.01487e-08
-3.55786e-08
4.81257e-08
-8.92177e-08
5.36403e-08
-1.4613e-07
5.69125e-08
-2.04453e-07
5.8322e-08
-2.62303e-07
5.78491e-08
-3.18109e-07
5.58041e-08
-3.71219e-07
5.31079e-08
-4.21473e-07
5.02513e-08
-4.68943e-07
4.74674e-08
-5.13803e-07
4.48573e-08
-5.56267e-07
4.24611e-08
-5.96558e-07
4.0289e-08
-6.34897e-07
3.83356e-08
-6.71488e-07
3.65882e-08
-7.06521e-07
3.50306e-08
-7.40169e-07
3.36459e-08
-7.72589e-07
3.24176e-08
-8.03921e-07
3.1329e-08
-8.34285e-07
3.03619e-08
-8.63787e-07
2.95001e-08
-8.9252e-07
2.87306e-08
-9.20564e-07
2.80424e-08
-9.47992e-07
2.74259e-08
-9.74866e-07
2.68728e-08
-1.00124e-06
2.63761e-08
-1.02718e-06
2.59294e-08
-1.0527e-06
2.55252e-08
-1.07786e-06
2.5159e-08
-1.10269e-06
2.48273e-08
-1.12722e-06
2.45261e-08
-1.15145e-06
2.42323e-08
-1.1754e-06
2.39496e-08
-1.1991e-06
2.3693e-08
-1.22255e-06
2.34521e-08
-1.24577e-06
2.3223e-08
-1.26878e-06
2.30025e-08
-1.29157e-06
2.27879e-08
-1.31414e-06
2.2577e-08
-1.33651e-06
2.23679e-08
-1.35867e-06
2.21588e-08
-1.38062e-06
2.19483e-08
-1.40235e-06
2.17348e-08
-1.42387e-06
2.15172e-08
-1.44517e-06
2.12942e-08
-1.46623e-06
2.1065e-08
-1.48706e-06
2.08284e-08
-1.50764e-06
2.05835e-08
-1.52797e-06
2.03292e-08
-1.54803e-06
2.00642e-08
-1.56782e-06
1.97871e-08
-1.58732e-06
1.94961e-08
-1.60651e-06
1.91962e-08
-1.6254e-06
1.88908e-08
-1.64398e-06
1.85806e-08
-1.66225e-06
1.82663e-08
-1.68018e-06
1.79368e-08
-1.69778e-06
1.75953e-08
-1.71502e-06
1.72438e-08
-1.7319e-06
1.68834e-08
-1.74842e-06
1.65148e-08
-1.76456e-06
1.61386e-08
-1.78031e-06
1.57553e-08
-1.79568e-06
1.53654e-08
-1.81065e-06
1.49694e-08
-1.82521e-06
1.45677e-08
-1.83937e-06
1.41608e-08
-1.85312e-06
1.3749e-08
-1.86645e-06
1.33327e-08
-1.87937e-06
1.29123e-08
-1.89185e-06
1.24879e-08
-1.90391e-06
1.20598e-08
-1.91554e-06
1.16281e-08
-1.92673e-06
1.11931e-08
-1.93749e-06
1.07548e-08
-1.9478e-06
1.03132e-08
-1.95767e-06
9.86843e-09
-1.96709e-06
9.42041e-09
-1.97606e-06
8.96915e-09
-1.98458e-06
8.5146e-09
-1.99263e-06
8.05672e-09
-2.00023e-06
7.59551e-09
-2.00736e-06
7.1312e-09
-2.01402e-06
6.66422e-09
-2.02022e-06
6.19457e-09
-2.02594e-06
5.72228e-09
-2.03119e-06
5.24776e-09
-2.03596e-06
4.77325e-09
-2.04027e-06
4.30606e-09
-2.04412e-06
3.85585e-09
-2.04754e-06
3.41787e-09
-2.05052e-06
2.98262e-09
-2.05307e-06
2.54878e-09
-2.05519e-06
2.1149e-09
-2.05687e-06
1.68055e-09
-2.05811e-06
1.24585e-09
-2.05892e-06
8.11052e-10
-2.0593e-06
3.77283e-10
-2.05925e-06
-5.17817e-11
-2.05879e-06
-4.63977e-10
-2.05797e-06
-8.16012e-10
-2.05674e-06
-1.23233e-09
-2.05504e-06
-1.69531e-09
-2.05287e-06
-2.17227e-09
-2.05025e-06
-2.62051e-09
-2.04719e-06
-3.06572e-09
-2.04368e-06
-3.50386e-09
-2.03974e-06
-3.94283e-09
-2.03536e-06
-4.37885e-09
-2.03055e-06
-4.81513e-09
-2.0253e-06
-5.24948e-09
-2.01961e-06
-5.68342e-09
-2.0135e-06
-6.11567e-09
-2.00695e-06
-6.54696e-09
-1.99998e-06
-6.97669e-09
-1.99257e-06
-7.40507e-09
-1.98474e-06
-7.83183e-09
-1.97648e-06
-8.25698e-09
-1.9678e-06
-8.68037e-09
-1.9587e-06
-9.10188e-09
-1.94918e-06
-9.52151e-09
-1.93924e-06
-9.93907e-09
-1.92889e-06
-1.03545e-08
-1.91812e-06
-1.07677e-08
-1.90694e-06
-1.11787e-08
-1.89535e-06
-1.15872e-08
-1.88336e-06
-1.19935e-08
-1.87096e-06
-1.23969e-08
-1.85817e-06
-1.27981e-08
-1.84497e-06
-1.31962e-08
-1.83138e-06
-1.3592e-08
-1.81739e-06
-1.39847e-08
-1.80302e-06
-1.43747e-08
-1.78826e-06
-1.47617e-08
-1.77311e-06
-1.51457e-08
-1.75759e-06
-1.55267e-08
-1.74168e-06
-1.59042e-08
-1.7254e-06
-1.62781e-08
-1.70876e-06
-1.66472e-08
-1.69175e-06
-1.70101e-08