/*--------------------------------*- C++ -*----------------------------------*\
| =========                 |                                                 |
| \\      /  F ield         | OpenFOAM: The Open Source CFD Toolbox           |
|  \\    /   O peration     | Version:  2.4.0                                 |
|   \\  /    A nd           | Web:      www.OpenFOAM.org                      |
|    \\/     M anipulation  |                                                 |
\*---------------------------------------------------------------------------*/
FoamFile
{
    version     2.0;
    format      ascii;
    class       volVectorField;
    location    "2.8";
    object      U;
}
// * * * * * * * * * * * * * * * * * * * * * * * * * * * * * * * * * * * * * //

dimensions      [0 1 -1 0 0 0 0];

internalField   nonuniform List<vector> 
5625
(
(0.789567 -0.0902619 -5.97543e-18)
(0.12309 -0.0276394 -5.04866e-18)
(0.0349319 -0.0059954 0)
(-0.0251313 0.00610205 0)
(-0.0517091 0.0106494 0)
(-0.0597861 0.012169 0)
(-0.0685851 0.0134614 5.42445e-18)
(-0.072995 0.013986 2.63704e-18)
(-0.0781715 0.014445 2.56545e-18)
(-0.0816512 0.0146137 0)
(-0.0853268 0.0146986 2.4344e-18)
(-0.0881803 0.0146223 -2.37331e-18)
(-0.0907095 0.0144432 -2.31836e-18)
(-0.0929304 0.0142122 0)
(-0.0952032 0.0139694 0)
(-0.0976771 0.0137619 0)
(-0.100736 0.0136299 0)
(-0.104552 0.0136006 0)
(-0.109389 0.0136917 2.08149e-18)
(-0.115349 0.0138535 2.04969e-18)
(-0.122493 0.0140548 -1.00932e-18)
(-0.130746 0.0142633 0)
(-0.140005 0.0144426 -9.78881e-19)
(-0.150108 0.0145543 -9.63789e-19)
(-0.16088 0.0145642 0)
(-0.172131 0.0144447 -9.33501e-19)
(-0.183679 0.0141772 0)
(-0.195337 0.0137323 0)
(-0.207064 0.0130524 0)
(-0.218059 0.0121302 4.36549e-19)
(-0.228444 0.0110393 0)
(-0.238107 0.00978539 0)
(-0.246945 0.00841716 0)
(-0.254925 0.0069619 4.04077e-19)
(-0.262207 0.00538739 -3.99938e-19)
(-0.268559 0.0036774 0)
(-0.273713 0.00187759 4.95915e-20)
(-0.277558 2.91243e-05 0)
(-0.279977 -0.00183328 -4.99056e-20)
(-0.280951 -0.00366329 -1.02706e-19)
(-0.279757 -0.0059192 4.25061e-19)
(-0.276627 -0.00782588 -4.33001e-19)
(-0.2714 -0.00965649 0)
(-0.263924 -0.0113317 0)
(-0.253983 -0.0128138 0)
(-0.241373 -0.0140413 -4.89282e-19)
(-0.225822 -0.0149677 1.02177e-18)
(-0.207092 -0.0155072 0)
(-0.184786 -0.0156144 -2.24936e-18)
(-0.158699 -0.015181 1.1865e-18)
(-0.128061 -0.0141024 1.25231e-18)
(-0.0935108 -0.0123435 1.32454e-18)
(-0.0529522 -0.00956424 1.40106e-18)
(-0.00994515 -0.00597652 0)
(0.0406669 -0.000934301 1.55926e-18)
(0.0894149 0.00470187 -3.26777e-18)
(0.146602 0.0119137 -3.40968e-18)
(0.196837 0.0193386 0)
(0.255858 0.0283591 6.45947e-21)
(0.30257 0.0369983 3.67758e-18)
(0.357264 0.0469857 0)
(0.394925 0.055902 -3.7123e-18)
(0.439038 0.0657623 0)
(0.461626 0.0736673 0)
(0.491045 0.0823385 3.63779e-18)
(0.498716 0.0872679 0)
(0.517465 0.0935711 -3.52188e-18)
(0.518524 0.0969392 3.4519e-18)
(0.538349 0.103732 0)
(0.542902 0.108132 3.21206e-18)
(0.573835 0.117013 -3.03224e-18)
(0.586049 0.124237 0)
(0.638594 0.135319 0)
(0.655004 0.146969 0)
(0.804635 0.178632 2.05683e-18)
(0.826315 -0.128731 0)
(0.276595 -0.0265214 0)
(0.126058 -0.00991532 0)
(0.0241205 0.0033261 2.70135e-18)
(-0.0245509 0.00875989 -2.6617e-18)
(-0.0429037 0.0109839 -2.59365e-18)
(-0.0566701 0.0127485 3.98038e-23)
(-0.0642777 0.0136346 -7.85864e-23)
(-0.0712648 0.0142978 -2.3966e-18)
(-0.0761203 0.0146237 2.33626e-18)
(-0.0806271 0.0147898 0)
(-0.0840915 0.0147649 2.22737e-18)
(-0.087162 0.0146245 4.35824e-18)
(-0.0897604 0.01444 0)
(-0.0922371 0.0142463 0)
(-0.094766 0.0141048 2.05648e-18)
(-0.0977261 0.0140551 0)
(-0.101339 0.0141224 0)
(-0.105885 0.01432 0)
(-0.111514 0.0146208 -2.89098e-18)
(-0.118308 0.0149783 1.89742e-18)
(-0.126216 0.0153467 -9.33958e-19)
(-0.135142 0.0156814 -5.96462e-22)
(-0.14493 0.0159386 9.03063e-19)
(-0.155406 0.0160792 0)
(-0.166376 0.0160727 0)
(-0.177643 0.0158993 0)
(-0.188984 0.0155327 0)
(-0.200233 0.014916 0)
(-0.21106 0.0140491 -4.07577e-19)
(-0.221475 0.0129954 4.01616e-19)
(-0.231287 0.0117438 0)
(-0.240411 0.0103235 -3.90811e-19)
(-0.248728 0.00876302 -3.86483e-19)
(-0.256141 0.00705 1.91566e-19)
(-0.262428 0.00516524 -9.52369e-20)
(-0.267473 0.00313685 -4.74764e-20)
(-0.271132 0.00100566 0)
(-0.273255 -0.00120296 4.76991e-20)
(-0.273717 -0.00354726 1.92464e-19)
(-0.272279 -0.0058015 -1.95036e-19)
(-0.268908 -0.00810186 3.96724e-19)
(-0.263368 -0.010331 4.05318e-19)
(-0.255518 -0.0124476 0)
(-0.245145 -0.0144103 -4.29682e-19)
(-0.23204 -0.0161567 4.46356e-19)
(-0.215936 -0.0176369 0)
(-0.196597 -0.018762 -9.69487e-19)
(-0.173645 -0.0194807 2.0358e-18)
(-0.146838 -0.0196843 0)
(-0.115555 -0.019233 -1.12933e-18)
(-0.0800802 -0.0180781 -1.19076e-18)
(-0.039128 -0.0158457 -4.38303e-21)
(0.00526062 -0.0126832 0)
(0.056032 -0.00791351 -1.39483e-18)
(0.107085 -0.00214246 4.38276e-18)
(0.164369 0.00533663 0)
(0.217686 0.0135598 -3.15157e-18)
(0.277143 0.0234566 1.297e-20)
(0.327539 0.0336639 3.31792e-18)
(0.383226 0.0451534 0)
(0.425159 0.0562447 1.28917e-20)
(0.471918 0.0682254 0)
(0.500378 0.0787434 0)
(0.534981 0.0890719 0)
(0.550492 0.0975021 3.39938e-18)
(0.575411 0.105664 3.37902e-18)
(0.58468 0.112787 0)
(0.608606 0.119735 3.23156e-18)
(0.620448 0.127752 0)
(0.653732 0.135412 5.8735e-18)
(0.673177 0.146839 0)
(0.727747 0.158901 -2.29275e-18)
(0.755108 0.172396 0)
(0.868047 0.193777 -1.83099e-18)
(0.856579 -0.0991655 0)
(0.377575 -0.0262769 0)
(0.199258 -0.0102097 0)
(0.0733889 0.0020063 2.79396e-21)
(0.00442941 0.00716229 2.49272e-18)
(-0.0244787 0.00959722 4.82916e-18)
(-0.0432007 0.0115899 7.19993e-22)
(-0.0538143 0.0127156 -2.27618e-18)
(-0.0624915 0.0135285 -2.21657e-18)
(-0.0685726 0.0139768 -2.16064e-18)
(-0.0738576 0.0142135 0)
(-0.0779269 0.0142398 -2.06082e-18)
(-0.0814356 0.0141443 -2.01655e-18)
(-0.0843406 0.014 0)
(-0.0869853 0.013857 -1.93933e-18)
(-0.0895397 0.0137912 7.05617e-23)
(-0.0923719 0.013846 0)
(-0.0957299 0.0140483 -1.84303e-18)
(-0.0999017 0.0144008 0)
(-0.105068 0.0148797 1.78551e-18)
(-0.111339 0.0154292 4.55411e-22)
(-0.118695 0.0159888 -5.59298e-22)
(-0.127059 0.0165037 8.48548e-19)
(-0.136291 0.0169224 0)
(-0.146226 0.0172009 0)
(-0.156678 0.0173044 0)
(-0.167451 0.0172094 0)
(-0.178324 0.0168851 0)
(-0.189129 0.0162773 3.78949e-19)
(-0.199654 0.0154082 0)
(-0.209833 0.0143374 -3.65108e-19)
(-0.219475 0.0130494 3.59582e-19)
(-0.228474 0.0115694 -2.98307e-22)
(-0.236675 0.00992103 1.74857e-19)
(-0.243934 0.00808231 0)
(-0.250069 0.00604081 8.59295e-20)
(-0.254977 0.0038321 4.27868e-20)
(-0.258511 0.00149253 0)
(-0.260517 -0.000954576 -1.95258e-23)
(-0.260865 -0.00351192 -8.6446e-20)
(-0.259406 -0.00611582 0)
(-0.256013 -0.00869712 -1.77852e-19)
(-0.250476 -0.011247 -5.70745e-22)
(-0.242641 -0.0137143 -3.72161e-19)
(-0.232298 -0.0160603 3.84401e-19)
(-0.21924 -0.0182257 0)
(-0.203201 -0.0201632 -4.12848e-19)
(-0.183945 -0.0217877 2.44329e-21)
(-0.161106 -0.0230526 -1.80608e-18)
(-0.134421 -0.0238538 0)
(-0.103341 -0.0240361 0)
(-0.0679745 -0.0235388 0)
(-0.0274012 -0.0219572 -1.10479e-18)
(0.0170829 -0.0193868 0)
(0.0673107 -0.0151118 0)
(0.118833 -0.00959651 -2.56276e-18)
(0.175372 -0.00226392 2.67076e-18)
(0.229471 0.00609158 1.22648e-20)
(0.288111 0.0161949 2.87633e-18)
(0.339564 0.0270138 -1.24304e-20)
(0.394498 0.039044 -2.99523e-18)
(0.437775 0.0510818 3.05054e-18)
(0.484126 0.0638449 0)
(0.514514 0.0754704 0)
(0.54945 0.086638 0)
(0.567896 0.0963352 -3.15384e-18)
(0.59445 0.105003 0)
(0.606374 0.11283 0)
(0.632753 0.119562 -9.87157e-21)
(0.647276 0.128317 0)
(0.682302 0.135096 -2.80191e-18)
(0.704581 0.147769 0)
(0.760192 0.156044 2.18465e-18)
(0.790553 0.172709 0)
(0.89793 0.192409 0)
(0.884208 -0.0646652 0)
(0.456173 -0.02009 1.9645e-18)
(0.266495 -0.00692269 0)
(0.124435 0.00270152 -2.44898e-18)
(0.0369403 0.00675723 -2.39004e-18)
(-0.00365708 0.00879885 -2.29631e-18)
(-0.0282146 0.0107716 -2.21461e-18)
(-0.0422542 0.0119878 0)
(-0.0528717 0.0128923 4.16276e-18)
(-0.0602991 0.0134162 0)
(-0.0664546 0.0137052 0)
(-0.0711927 0.0137681 0)
(-0.0751717 0.0137013 0)
(-0.0784058 0.0135824 0)
(-0.0812473 0.0134749 -6.6216e-23)
(-0.0838624 0.0134647 1.03166e-22)
(-0.086604 0.0136038 -1.74879e-18)
(-0.0897382 0.0139225 -2.9498e-22)
(-0.0935598 0.0144222 8.46511e-19)
(-0.0982763 0.0150736 -1.66557e-18)
(-0.104027 0.0158091 -8.1872e-19)
(-0.110824 0.016556 1.60923e-18)
(-0.118613 0.0172502 0)
(-0.127276 0.0178328 0)
(-0.136659 0.0182537 0)
(-0.146583 0.0184746 -7.43473e-19)
(-0.156859 0.018468 0)
(-0.167275 0.0182019 0)
(-0.177668 0.0176264 -3.48498e-19)
(-0.187865 0.0167703 0)
(-0.197759 0.0156887 3.35312e-19)
(-0.207164 0.0143648 3.00666e-22)
(-0.215955 0.0128234 3.23869e-19)
(-0.223963 0.0110837 0)
(-0.231033 0.00912266 0)
(-0.237007 0.00693347 0)
(-0.241775 0.00455299 0)
(-0.245194 0.00201433 0)
(-0.247112 -0.000658226 -3.8996e-20)
(-0.247402 -0.00346578 0)
(-0.245936 -0.00635357 0)
(-0.242547 -0.0092439 0)
(-0.237046 -0.012132 -3.29409e-19)
(-0.229268 -0.0149702 6.31129e-22)
(-0.219006 -0.0177225 0)
(-0.206053 -0.0203328 0)
(-0.190148 -0.0227561 7.48031e-19)
(-0.171052 -0.0249121 7.81217e-19)
(-0.148414 -0.026759 2.42387e-21)
(-0.121952 -0.0281981 8.54596e-19)
(-0.0911656 -0.0290589 0)
(-0.0560523 -0.02927 0)
(-0.0158997 -0.0283911 0)
(0.0284365 -0.0264761 -1.04417e-18)
(0.0780853 -0.0227008 0)
(0.129638 -0.0174693 2.30862e-18)
(0.18541 -0.0102412 -3.61906e-18)
(0.239698 -0.00176798 2.50833e-18)
(0.297451 0.008637 0)
(0.34923 0.0200679 -1.04591e-20)
(0.403195 0.0327801 2.71728e-18)
(0.446895 0.045768 0)
(0.492325 0.0594621 0)
(0.523352 0.0722621 0)
(0.557645 0.0843331 -2.8536e-18)
(0.57708 0.0950179 0)
(0.603648 0.104251 -2.89219e-18)
(0.61652 0.11243 2.88623e-18)
(0.643262 0.119379 -2.84332e-18)
(0.658848 0.128064 0)
(0.694396 0.135067 2.59582e-18)
(0.717695 0.147189 0)
(0.773486 0.154598 0)
(0.80456 0.17191 0)
(0.915115 0.18864 -8.21892e-19)
(0.904306 -0.0379908 -9.68867e-19)
(0.521272 -0.0117311 -1.89736e-18)
(0.329347 -0.0016072 0)
(0.177407 0.00500908 0)
(0.073628 0.00742743 2.32056e-18)
(0.0205267 0.00858055 0)
(-0.0109566 0.0102569 0)
(-0.0290766 0.0114214 0)
(-0.0420505 0.0123534 -1.98933e-18)
(-0.0510669 0.0129157 0)
(-0.0582635 0.0132381 0)
(-0.0637815 0.0133244 -1.8318e-18)
(-0.0683145 0.0132749 -1.78874e-18)
(-0.0719409 0.0131702 0)
(-0.0750279 0.0130863 1.71597e-18)
(-0.0777525 0.0131179 -1.68368e-18)
(-0.0804478 0.0133263 1.65378e-18)
(-0.0833932 0.0137472 1.62585e-18)
(-0.0868908 0.0143825 -7.99513e-19)
(-0.0911731 0.0151978 1.57263e-18)
(-0.0964085 0.0161146 0)
(-0.102644 0.0170477 4.22453e-22)
(-0.10985 0.0179232 -7.44194e-19)
(-0.117931 0.0186739 7.28977e-19)
(-0.126749 0.0192436 7.13375e-19)
(-0.136135 0.0195889 6.96986e-19)
(-0.145907 0.0196786 6.81974e-19)
(-0.15586 0.0194802 -6.66658e-19)
(-0.165838 0.0189486 0)
(-0.175683 0.0181143 0)
(-0.185259 0.0170273 -3.12154e-19)
(-0.194386 0.0156707 2.35881e-22)
(-0.202927 0.0140687 -3.01326e-19)
(-0.210706 0.012237 0)
(-0.217565 0.0101542 0)
(-0.223361 0.00781878 0)
(-0.227977 0.00526735 0)
(-0.231273 0.00253023 0)
(-0.233101 -0.000367516 0)
(-0.233335 -0.00342488 0)
(-0.23185 -0.00659045 0)
(-0.228463 -0.00979367 0)
(-0.222992 -0.0130248 3.04093e-19)
(-0.215271 -0.0162393 5.71475e-22)
(-0.205093 -0.0194037 0)
(-0.19225 -0.0224653 0)
(-0.176486 -0.0253813 -3.46195e-19)
(-0.157566 -0.0280765 0)
(-0.135146 -0.0305138 7.55738e-19)
(-0.108936 -0.0326 -7.92835e-19)
(-0.0784643 -0.0341515 0)
(-0.0436571 -0.0350834 0)
(-0.00393165 -0.0349252 9.19361e-19)
(0.0401403 -0.0336811 3.20105e-21)
(0.0892225 -0.0304227 -1.01832e-18)
(0.14061 -0.0254965 -2.13852e-18)
(0.19565 -0.0183747 1.1187e-18)
(0.249863 -0.0098102 -2.31539e-18)
(0.306765 0.00091174 0)
(0.35855 0.01293 -8.57516e-21)
(0.411539 0.0263573 0)
(0.455262 0.0402699 2.55016e-18)
(0.499662 0.0549316 0)
(0.53079 0.068806 0)
(0.564191 0.0816759 5.30188e-18)
(0.583912 0.0931113 0)
(0.610037 0.10279 2.69351e-18)
(0.623274 0.111238 -2.68957e-18)
(0.649914 0.118032 0)
(0.665974 0.126647 0)
(0.701816 0.132836 -2.4164e-18)
(0.725587 0.14496 0)
(0.781568 0.151627 0)
(0.812838 0.16828 -1.22556e-18)
(0.924485 0.183459 8.19673e-19)
(0.919764 -0.0157314 9.73955e-19)
(0.576199 -0.0022398 0)
(0.38791 0.00493812 0)
(0.231174 0.00865614 0)
(0.114048 0.00911729 -2.27647e-18)
(0.0483442 0.00900647 0)
(0.00898757 0.0100881 0)
(-0.0139447 0.0110377 -1.9978e-18)
(-0.029769 0.0119174 0)
(-0.0406803 0.0124758 0)
(-0.0491318 0.0128095 0)
(-0.0555704 0.0129052 3.52395e-18)
(-0.0607667 0.0128618 -1.73075e-22)
(-0.0648719 0.0127608 0)
(-0.0682696 0.0126885 0)
(-0.071162 0.0127477 1.61135e-18)
(-0.0738644 0.0130093 0)
(-0.0766637 0.0135152 0)
(-0.0798704 0.0142695 7.63251e-19)
(-0.0837397 0.0152351 -1.4999e-18)
(-0.0884697 0.0163233 0)
(-0.0941423 0.0174372 3.73269e-22)
(-0.100758 0.0184922 7.07723e-19)
(-0.108245 0.0194124 4.90293e-22)
(-0.116483 0.0201344 5.30989e-22)
(-0.125314 0.0206097 0)
(-0.134566 0.0208025 -6.4572e-19)
(-0.144042 0.0206803 9.46041e-19)
(-0.153587 0.0202023 -3.08192e-19)
(-0.16305 0.0193978 3.0126e-19)
(-0.172277 0.018312 0)
(-0.181091 0.0169286 -2.88866e-19)
(-0.189348 0.0152702 2.83776e-19)
(-0.196868 0.0133503 1.3977e-19)
(-0.203494 0.011151 0)
(-0.209091 0.00867488 0)
(-0.213537 0.00595773 0)
(-0.216693 0.00302778 0)
(-0.218417 -8.91688e-05 0)
(-0.218583 -0.00338993 0)
(-0.217063 -0.00682648 0)
(-0.213666 -0.0103373 -1.39947e-19)
(-0.208215 -0.0139065 -2.86058e-19)
(-0.200541 -0.0174926 2.93379e-19)
(-0.190439 -0.0210642 0)
(-0.177701 -0.0245718 -3.12306e-19)
(-0.162075 -0.0279746 0)
(-0.143329 -0.0312022 3.38731e-19)
(-0.121131 -0.0342231 0)
(-0.0951815 -0.0369487 0)
(-0.0650348 -0.039185 0)
(-0.0305633 -0.0408308 0)
(0.00872715 -0.0413923 -8.70153e-19)
(0.0524604 -0.040816 9.16141e-19)
(0.100989 -0.0380774 2.86833e-21)
(0.152094 -0.0334604 2.02088e-18)
(0.20643 -0.026444 -1.0541e-18)
(0.260412 -0.0178018 2.19648e-18)
(0.316502 -0.00675741 0)
(0.368099 0.0058295 -7.3205e-21)
(0.42013 0.0199835 2.3741e-18)
(0.463638 0.0347911 -2.41868e-18)
(0.506971 0.0504241 0)
(0.537885 0.0653015 0)
(0.570279 0.0789436 -8.14797e-21)
(0.58992 0.0910391 0)
(0.615385 0.101126 0)
(0.62873 0.109735 0)
(0.655077 0.116372 0)
(0.671396 0.124745 0)
(0.707306 0.130502 0)
(0.731432 0.142203 1.98428e-18)
(0.787605 0.148249 -1.65887e-18)
(0.818906 0.164093 1.11301e-18)
(0.930035 0.177762 0)
(0.932251 0.00405516 0)
(0.622913 0.00788097 0)
(0.44245 0.0122941 -2.206e-18)
(0.284393 0.0134168 0)
(0.157599 0.0117851 2.24032e-18)
(0.079706 0.0101572 -2.1409e-18)
(0.0318207 0.0103399 0)
(0.00337441 0.0108889 -1.09475e-21)
(-0.0158248 0.0116149 0)
(-0.028975 0.0121151 0)
(-0.0389244 0.0124302 0)
(-0.0464494 0.0125176 -1.7105e-18)
(-0.0524372 0.0124672 -2.28996e-22)
(-0.0571227 0.0123581 0)
(-0.0609136 0.0122854 0)
(-0.0640399 0.0123576 -1.55549e-18)
(-0.0668119 0.0126555 -7.62357e-19)
(-0.069517 0.0132281 -7.4803e-19)
(-0.0724735 0.0140836 -7.34296e-19)
(-0.0759586 0.0151836 1.4421e-18)
(-0.0801995 0.0164315 0)
(-0.0853141 0.0177185 -6.93449e-19)
(-0.0913345 0.0189496 6.79334e-19)
(-0.0982162 0.0200392 -6.63881e-19)
(-0.105858 0.020916 -6.48456e-19)
(-0.114117 0.0215257 0)
(-0.122829 0.0218278 -6.17976e-19)
(-0.131806 0.021789 -6.02668e-19)
(-0.140895 0.0213723 2.93978e-19)
(-0.149945 0.0206041 -5.7455e-19)
(-0.158792 0.0195257 2.81081e-19)
(-0.167262 0.0181214 0)
(-0.175203 0.0164118 0)
(-0.182437 0.0144094 -1.32968e-19)
(-0.188807 0.0121003 1.31239e-19)
(-0.194183 0.00949035 0)
(-0.198438 0.00661438 0)
(-0.201437 0.00349922 0)
(-0.203039 0.000171248 0)
(-0.20312 -0.00336442 0)
(-0.201546 -0.00706523 -1.30922e-19)
(-0.198125 -0.0108757 1.33133e-19)
(-0.192681 -0.0147754 0)
(-0.185042 -0.0187252 0)
(-0.175004 -0.022696 -2.86788e-19)
(-0.162361 -0.0266411 2.97596e-19)
(-0.146865 -0.030521 0)
(-0.128288 -0.0342702 -7.80157e-22)
(-0.106308 -0.0378631 0)
(-0.0806219 -0.0412159 0)
(-0.050802 -0.0441259 0)
(-0.016684 -0.0464742 0)
(0.0221633 -0.0477499 -8.29424e-19)
(0.0655072 -0.0478346 0)
(0.113491 -0.0456145 1.84535e-18)
(0.164234 -0.0413033 -1.93636e-18)
(0.217886 -0.0343895 1.01351e-18)
(0.271531 -0.0256754 1.05024e-18)
(0.326841 -0.0143041 1.08654e-18)
(0.378115 -0.00115719 -2.23721e-18)
(0.429203 0.0137315 -2.285e-18)
(0.472328 0.0294147 0)
(0.514568 0.0460196 0)
(0.545048 0.0618531 0)
(0.576352 0.0762526 -2.39311e-18)
(0.595675 0.0889428 -2.40261e-18)
(0.620338 0.099405 2.40646e-18)
(0.633626 0.108103 0)
(0.659581 0.114572 0)
(0.67605 0.12263 0)
(0.711926 0.127998 -2.10989e-18)
(0.736322 0.139139 -1.86796e-18)
(0.792654 0.144673 1.24826e-20)
(0.82398 0.159548 0)
(0.933891 0.17185 -7.73235e-19)
(0.942653 0.0220231 0)
(0.662601 0.0181109 0)
(0.492859 0.0201373 2.17555e-18)
(0.336111 0.0190465 0)
(0.203469 0.0154037 2.21298e-18)
(0.114321 0.0120868 2.1135e-18)
(0.05761 0.0110994 0)
(0.0230477 0.0110451 1.92619e-18)
(-5.10735e-05 0.0114936 0)
(-0.015809 0.0118658 0)
(-0.0275218 0.0121225 0)
(-0.0363193 0.0121779 0)
(-0.0432401 0.0121041 1.62547e-18)
(-0.0486195 0.0119734 0)
(-0.0528998 0.0118865 1.54632e-18)
(-0.0563354 0.0119565 0)
(-0.0592476 0.0122735 7.40121e-19)
(-0.0619194 0.0128936 7.2528e-19)
(-0.0646757 0.0138311 -7.11465e-19)
(-0.0678138 0.0150485 -1.39554e-18)
(-0.0715894 0.0164426 6.84252e-19)
(-0.0761569 0.0178937 -6.70302e-19)
(-0.0815821 0.0192959 -6.55498e-19)
(-0.0878497 0.0205537 -6.4097e-19)
(-0.0948808 0.0215871 -6.25714e-19)
(-0.102549 0.0223348 0)
(-0.1107 0.0227517 5.94607e-19)
(-0.119155 0.022803 2.89873e-19)
(-0.127762 0.0224542 -2.82956e-19)
(-0.136369 0.0217283 2.76036e-19)
(-0.144807 0.0206631 -2.69858e-19)
(-0.152903 0.0192435 2.64405e-19)
(-0.1605 0.0174884 -1.29719e-19)
(-0.167423 0.0154096 0)
(-0.173515 0.0129976 -1.25846e-19)
(-0.178648 0.0102609 0)
(-0.182693 0.00723321 3.09117e-20)
(-0.185515 0.00394066 0)
(-0.186978 0.000410056 -3.0851e-20)
(-0.186956 -0.00335237 0)
(-0.185311 -0.00731016 1.25572e-19)
(-0.181851 -0.0114125 0)
(-0.1764 -0.0156348 0)
(-0.168784 -0.0199406 0)
(-0.158799 -0.0243025 5.50408e-19)
(-0.14624 -0.0286765 0)
(-0.130863 -0.0330241 2.96332e-19)
(-0.112445 -0.0372837 -6.19902e-19)
(-0.0906759 -0.0414368 6.49015e-19)
(-0.0652508 -0.0454038 0)
(-0.035755 -0.0489757 0)
(-0.00200094 -0.0520142 0)
(0.036396 -0.0539965 8.02408e-19)
(0.0793169 -0.0547355 8.43952e-19)
(0.126764 -0.0530304 -8.93137e-19)
(0.177086 -0.0490188 1.87341e-18)
(0.230069 -0.0422032 9.78534e-19)
(0.283299 -0.0334186 -1.02023e-18)
(0.337853 -0.0217144 -1.05597e-18)
(0.388706 -0.00800755 0)
(0.43886 0.00762631 0)
(0.481477 0.0241777 0)
(0.522598 0.0417599 0)
(0.552474 0.0585227 0)
(0.582613 0.0736681 0)
(0.601437 0.0869011 7.09416e-21)
(0.625181 0.0977082 -2.32349e-18)
(0.638285 0.106435 0)
(0.663779 0.112723 0)
(0.680328 0.120412 0)
(0.716095 0.125392 2.01514e-18)
(0.740701 0.135903 0)
(0.797145 0.140993 1.09715e-20)
(0.828495 0.154836 0)
(0.936994 0.165909 7.69858e-19)
(0.951444 0.0383259 0)
(0.696676 0.0282338 -1.70559e-18)
(0.538834 0.0281891 0)
(0.386127 0.0254011 0)
(0.250537 0.0199126 1.40072e-21)
(0.151876 0.0148138 2.09916e-18)
(0.086312 0.0124524 0)
(0.0451808 0.0115805 0)
(0.0176895 0.0116095 -1.82649e-18)
(-0.00105441 0.0117677 0)
(-0.0148121 0.0119148 0)
(-0.0250854 0.0119073 -1.64364e-18)
(-0.0330922 0.0117894 0)
(-0.0392903 0.0116208 0)
(-0.0441656 0.0115043 -1.51341e-18)
(-0.0479991 0.0115558 0)
(-0.0511286 0.0118739 0)
(-0.0538378 0.0125217 7.07386e-19)
(-0.0564531 0.0135208 6.92739e-19)
(-0.0592907 0.0148371 1.35768e-18)
(-0.0626336 0.0163622 -6.64782e-19)
(-0.0666723 0.0179666 6.50648e-19)
(-0.0715082 0.0195337 -6.36525e-19)
(-0.0771575 0.0209572 -4.04911e-22)
(-0.0835663 0.0221477 -4.31856e-22)
(-0.0906261 0.0230367 0)
(-0.0981958 0.0235731 0)
(-0.106106 0.0237204 2.8077e-19)
(-0.114206 0.0234455 2.73523e-19)
(-0.122342 0.0227674 0)
(-0.130342 0.021721 2.60973e-19)
(-0.138037 0.0202918 -2.55308e-19)
(-0.145266 0.0184969 1.25221e-19)
(-0.151853 0.0163483 1.23163e-19)
(-0.157647 0.0138402 0)
(-0.162517 0.0109837 6.0061e-20)
(-0.166334 0.00781125 -5.96355e-20)
(-0.168962 0.00434882 0)
(-0.170268 0.000623569 5.95097e-20)
(-0.170127 -0.00335797 -5.98205e-20)
(-0.168395 -0.00756548 0)
(-0.164882 -0.011952 -1.22764e-19)
(-0.159412 -0.0164898 0)
(-0.151806 -0.0211444 0)
(-0.141863 -0.0258901 -5.30986e-19)
(-0.129377 -0.0306849 0)
(-0.114107 -0.035491 -2.86825e-19)
(-0.0958394 -0.0402505 7.40669e-22)
(-0.0742721 -0.0449521 -9.43039e-19)
(-0.0491006 -0.0495208 0)
(-0.0199217 -0.0537422 0)
(0.0134635 -0.0574577 0)
(0.0514058 -0.0601384 7.77038e-19)
(0.0938817 -0.0615253 -8.22746e-19)
(0.140797 -0.060331 -8.66877e-19)
(0.190657 -0.0566115 -1.82513e-18)
(0.242979 -0.049889 -9.56707e-19)
(0.29574 -0.0410331 0)
(0.349557 -0.0289891 0)
(0.399915 -0.0147166 -1.05561e-18)
(0.449141 0.0016747 0)
(0.491151 0.0190959 -2.18493e-18)
(0.531126 0.0376646 0)
(0.560262 0.055341 0)
(0.589164 0.0712204 -2.24097e-18)
(0.607341 0.0849543 6.84559e-21)
(0.630062 0.0960744 0)
(0.642876 0.104776 -2.22535e-18)
(0.667849 0.110861 0)
(0.684422 0.11814 0)
(0.720018 0.122726 1.92525e-18)
(0.744786 0.132559 0)
(0.801295 0.137246 1.38181e-18)
(0.83266 0.150038 0)
(0.939753 0.160017 0)
(0.958925 0.0530988 0)
(0.726255 0.0380887 3.40185e-18)
(0.580495 0.0363127 0)
(0.434094 0.0322491 0)
(0.297602 0.0251788 -2.15911e-18)
(0.19203 0.0183349 -2.08595e-18)
(0.117788 0.0144643 0)
(0.0698163 0.0125664 -1.8902e-18)
(0.0375034 0.0120218 3.61704e-18)
(0.0154019 0.0118654 0)
(-0.000690625 0.01184 0)
(-0.0126555 0.0117307 3.24301e-18)
(-0.0219123 0.0115427 0)
(-0.0290631 0.011317 0)
(-0.0346463 0.0111532 0)
(-0.0389785 0.0111687 0)
(-0.0424099 0.0114689 0)
(-0.045236 0.0121239 -1.38579e-18)
(-0.0477793 0.0131631 0)
(-0.0503725 0.014558 -6.63258e-19)
(-0.0533244 0.0161971 -6.4924e-19)
(-0.0568612 0.0179423 -6.34937e-19)
(-0.0611209 0.019666 6.20048e-19)
(-0.0661534 0.0212513 1.21078e-18)
(-0.0719324 0.0225985 1.18066e-18)
(-0.0783701 0.0236308 -5.75445e-19)
(-0.0853401 0.024291 0)
(-0.092683 0.0245396 -2.72791e-19)
(-0.100252 0.024344 0)
(-0.107892 0.0237188 0)
(-0.115429 0.0226968 -5.06732e-19)
(-0.122698 0.0212638 0)
(-0.129534 0.0194349 0)
(-0.135766 0.017223 1.8234e-23)
(-0.141243 0.0146257 0)
(-0.145832 0.0116561 -5.82368e-20)
(-0.149404 0.00834574 2.89045e-20)
(-0.151823 0.00472058 0)
(-0.152957 0.000808181 -2.88386e-20)
(-0.152681 -0.00338519 5.8011e-20)
(-0.150849 -0.00783533 0)
(-0.147272 -0.012499 1.85071e-22)
(-0.14177 -0.0173453 0)
(-0.134165 -0.022342 0)
(-0.124253 -0.0274647 5.14706e-19)
(-0.111829 -0.0326731 0)
(-0.0966571 -0.0379295 0)
(-0.0785283 -0.0431787 2.91166e-19)
(-0.0571528 -0.0484174 8.05372e-22)
(-0.0322251 -0.0535758 6.42159e-19)
(-0.00335313 -0.0584338 0)
(0.0296635 -0.0628126 -7.16692e-19)
(0.0671508 -0.0661824 -7.60437e-19)
(0.109169 -0.0682111 8.01636e-19)
(0.155557 -0.0675225 1.69818e-18)
(0.204924 -0.0640868 8.94864e-19)
(0.25659 -0.0574527 0)
(0.308843 -0.0485241 0)
(0.361938 -0.036133 0)
(0.411747 -0.0212853 1.03928e-18)
(0.460046 -0.00412302 -1.05813e-18)
(0.501373 0.0141754 6.68876e-21)
(0.540174 0.0337426 0)
(0.568459 0.0523244 0)
(0.596056 0.068927 2.19944e-18)
(0.613459 0.0831268 2.20472e-18)
(0.635061 0.0945269 0)
(0.647495 0.10315 2.17518e-18)
(0.67189 0.10901 0)
(0.688438 0.115839 -2.01061e-18)
(0.723806 0.120025 -1.86942e-18)
(0.748693 0.129142 0)
(0.805221 0.13345 -1.31477e-18)
(0.836593 0.145196 0)
(0.942355 0.1542 -7.34372e-19)
(0.965334 0.0665063 0)
(0.752034 0.0475006 -1.69958e-18)
(0.618074 0.0443893 0)
(0.479634 0.0393542 2.18162e-18)
(0.343991 0.031087 0)
(0.234128 0.0226215 0)
(0.151847 0.0171649 0)
(0.0969343 0.0140697 3.75624e-18)
(0.0594631 0.0127898 -1.79511e-18)
(0.0336562 0.0122065 -1.72411e-18)
(0.0149388 0.0119345 0)
(0.00105872 0.0116755 -1.60458e-18)
(-0.00962185 0.0113859 -1.55528e-18)
(-0.0178653 0.0110803 0)
(-0.024277 0.0108495 7.3449e-19)
(-0.0292164 0.01081 0)
(-0.0330441 0.0110722 0)
(-0.0360741 0.0117128 6.81317e-19)
(-0.0386241 0.0127694 0)
(-0.0410388 0.0142211 6.5088e-19)
(-0.0436513 0.0159554 6.35909e-19)
(-0.0467221 0.0178265 6.21276e-19)
(-0.0504266 0.019697 6.0692e-19)
(-0.0548505 0.0214385 -1.18374e-18)
(-0.0599974 0.0229405 -5.7666e-19)
(-0.0658031 0.0241172 5.61657e-19)
(-0.0721579 0.0249044 0)
(-0.0789145 0.025259 2.66448e-19)
(-0.0859309 0.0251476 0)
(-0.0930504 0.0245803 2.53076e-19)
(-0.100103 0.0235882 2.46947e-19)
(-0.106924 0.0221571 -2.41651e-19)
(-0.113348 0.0203003 0)
(-0.119206 0.0180316 1.66981e-23)
(-0.124348 0.015352 -1.14641e-19)
(-0.128641 0.0122758 0)
(-0.131953 0.00883416 -2.81104e-20)
(-0.134149 0.0050531 0)
(-0.135098 0.000960624 2.80215e-20)
(-0.134675 -0.00343757 0)
(-0.132731 -0.00812344 1.1385e-19)
(-0.129081 -0.0130574 1.82825e-22)
(-0.123538 -0.0182062 0)
(-0.115923 -0.0235386 2.42378e-19)
(-0.106034 -0.029032 -2.50666e-19)
(-0.0936649 -0.0346476 -2.59432e-19)
(-0.0785798 -0.0403465 2.70387e-19)
(-0.0605799 -0.046076 0)
(-0.0393855 -0.0518413 5.95547e-19)
(-0.0146903 -0.0575779 -6.28593e-19)
(0.0138874 -0.0630593 0)
(0.0465406 -0.0680868 7.03195e-19)
(0.0835764 -0.0721358 -7.4276e-19)
(0.125131 -0.0748003 -1.57484e-18)
(0.170996 -0.0746117 -8.34944e-19)
(0.21985 -0.0714514 -8.77466e-19)
(0.270862 -0.0649013 0)
(0.322578 -0.0558982 -9.59192e-19)
(0.374965 -0.0431523 0)
(0.424186 -0.0277169 0)
(0.471557 -0.00976941 1.04631e-18)
(0.512142 0.00941822 2.11874e-18)
(0.549742 0.0299979 0)
(0.577084 0.0494833 0)
(0.603308 0.0667995 2.15409e-18)
(0.61983 0.0814358 0)
(0.640224 0.0930813 2.15312e-18)
(0.6522 0.101574 0)
(0.675962 0.107183 0)
(0.692439 0.113526 1.96964e-18)
(0.727525 0.117305 1.81332e-18)
(0.752494 0.125673 0)
(0.808996 0.129619 2.54734e-18)
(0.840368 0.140332 -7.94942e-19)
(0.944892 0.14846 7.3277e-19)
(0.970854 0.0787075 0)
(0.774647 0.0564432 0)
(0.65165 0.0522496 -2.07019e-18)
(0.522631 0.0466118 -5.25242e-21)
(0.389491 0.0375224 0)
(0.277227 0.0276021 0)
(0.188312 0.0205622 0)
(0.126456 0.0161487 1.79742e-21)
(0.0836029 0.01397 -1.78751e-18)
(0.0537853 0.0128397 3.42653e-18)
(0.0321624 0.012237 0)
(0.0161408 0.0117723 -1.59275e-18)
(0.00385636 0.0113435 1.54137e-18)
(-0.00562496 0.0109311 0)
(-0.0129918 0.0106112 2.20657e-22)
(-0.018652 0.0104958 0)
(-0.0229804 0.010699 0)
(-0.0263079 0.0113028 -6.72457e-19)
(-0.0289524 0.012353 -6.56207e-19)
(-0.0312644 0.013838 -1.28104e-18)
(-0.0335991 0.0156465 0)
(-0.0362495 0.0176267 0)
(-0.0394288 0.0196317 -1.19089e-18)
(-0.0432598 0.0215219 5.80288e-19)
(-0.0477785 0.0231753 0)
(-0.0529471 0.0244964 0)
(-0.0586753 0.025413 0)
(-0.0648295 0.0258775 -2.60694e-19)
(-0.0712743 0.0258548 2.54058e-19)
(-0.0778538 0.0253502 1.62144e-22)
(-0.0844005 0.0243934 -2.41679e-19)
(-0.0907544 0.02297 2.3617e-19)
(-0.096749 0.0210914 0)
(-0.102217 0.0187725 -2.27334e-19)
(-0.10701 0.0160171 1.11974e-19)
(-0.110994 0.012841 0)
(-0.114034 0.00927442 2.74505e-20)
(-0.115996 0.00534394 0)
(-0.116749 0.00107809 -2.73629e-20)
(-0.116167 -0.00351813 0)
(-0.114105 -0.00843306 -1.11189e-19)
(-0.110372 -0.0136311 2.257e-19)
(-0.104779 -0.0190764 0)
(-0.0971489 -0.0247388 -2.36938e-19)
(-0.0872763 -0.0305972 2.44094e-19)
(-0.0749533 -0.0366142 5.98686e-22)
(-0.0599467 -0.0427487 -2.64773e-19)
(-0.0420663 -0.0489498 -2.76641e-19)
(-0.0210424 -0.0552319 -8.0424e-22)
(0.00343248 -0.0615359 0)
(0.0317309 -0.0676277 0)
(0.0640301 -0.0732889 0)
(0.100622 -0.0780063 1.46178e-18)
(0.141712 -0.0813008 7.7592e-19)
(0.187059 -0.0816066 -8.20072e-19)
(0.235386 -0.0787124 1.73345e-18)
(0.285744 -0.072241 9.08937e-19)
(0.336906 -0.0631621 9.50754e-19)
(0.388598 -0.0500541 0)
(0.437201 -0.0340163 0)
(0.483645 -0.0152684 0)
(0.52344 0.00482375 0)
(0.559814 0.026432 0)
(0.586134 0.0468241 0)
(0.610924 0.0648458 -4.25382e-18)
(0.62647 0.0798932 2.12519e-18)
(0.645572 0.0917491 -2.12633e-18)
(0.65703 0.100061 2.09132e-18)
(0.680099 0.105391 -2.02907e-18)
(0.696463 0.111215 0)
(0.731217 0.114578 -1.78178e-18)
(0.756234 0.122165 1.53058e-18)
(0.812667 0.12576 -2.47614e-18)
(0.844031 0.135458 7.76897e-19)
(0.94741 0.142794 0)
(0.975622 0.0898395 0)
(0.794633 0.0649156 -1.69276e-18)
(0.681518 0.0598166 2.07475e-18)
(0.562791 0.0538781 -4.34901e-18)
(0.4338 0.0443072 -2.14163e-18)
(0.320442 0.0331734 0)
(0.226884 0.0246518 0)
(0.158264 0.0188378 -1.86752e-18)
(0.109917 0.015615 -1.54279e-21)
(0.0758426 0.0138135 -1.70551e-18)
(0.0510539 0.0127884 0)
(0.0326677 0.0120536 1.58278e-18)
(0.0185966 0.0114417 0)
(0.00772784 0.0108914 0)
(-0.000724305 0.0104579 -7.21135e-19)
(-0.00722292 0.010244 -7.01567e-19)
(-0.0121633 0.0103659 0)
(-0.0158892 0.0109096 6.65176e-19)
(-0.0187243 0.0119283 6.48346e-19)
(-0.0210191 0.0134215 -2.842e-22)
(-0.0231476 0.0152813 -6.1677e-19)
(-0.0254333 0.0173514 0)
(-0.0281266 0.0194765 5.85835e-19)
(-0.0313887 0.0215059 0)
(-0.0352904 0.0233056 -2.78028e-19)
(-0.0398228 0.0247695 0)
(-0.0449175 0.0258169 2.63251e-19)
(-0.0504572 0.0263945 0)
(-0.0563151 0.0264644 -2.4918e-19)
(-0.0623376 0.0260269 -4.85773e-19)
(-0.0683617 0.0251109 2.3691e-19)
(-0.0742322 0.023701 1.15831e-19)
(-0.079782 0.0218067 -1.13438e-19)
(-0.0848464 0.0194441 -1.7866e-23)
(-0.0892771 0.0166196 0)
(-0.0929402 0.01335 -5.41665e-20)
(-0.0956991 0.00966481 0)
(-0.0974181 0.00559114 0)
(-0.0979651 0.00115827 0)
(-0.0972174 -0.00362937 5.37554e-20)
(-0.0950295 -0.00876697 0)
(-0.0912078 -0.0142233 -1.7657e-22)
(-0.0855596 -0.0199596 1.12604e-19)
(-0.0779075 -0.0259466 -1.15639e-19)
(-0.0680461 -0.0321649 -2.3934e-19)
(-0.0557641 -0.0385783 4.96375e-19)
(-0.0408287 -0.0451424 -2.58624e-19)
(-0.023059 -0.051807 5.42865e-19)
(-0.00219578 -0.058597 -2.86049e-19)
(0.0220714 -0.0654587 0)
(0.0501072 -0.0721484 0)
(0.0820655 -0.0784277 -6.76813e-19)
(0.118225 -0.0838027 -7.21096e-19)
(0.158852 -0.0877214 7.63109e-19)
(0.203688 -0.0885132 1.62214e-18)
(0.251479 -0.0858733 -2.49442e-21)
(0.301185 -0.0794774 -9.02913e-19)
(0.351784 -0.0703225 0)
(0.402794 -0.0568448 0)
(0.45076 -0.0401888 0)
(0.496275 -0.0206246 0)
(0.535243 0.00039045 0)
(0.570364 0.0230448 0)
(0.595597 0.044351 0)
(0.618893 0.0630716 2.10583e-18)
(0.633382 0.0785081 -2.10564e-18)
(0.651113 0.0905382 0)
(0.662006 0.0986182 -2.06973e-18)
(0.684325 0.103642 5.15384e-21)
(0.700535 0.108914 0)
(0.734907 0.111851 0)
(0.759943 0.11863 -3.00793e-18)
(0.816268 0.121879 1.21351e-18)
(0.847615 0.130582 0)