/*--------------------------------*- C++ -*----------------------------------*\
| =========                 |                                                 |
| \\      /  F ield         | OpenFOAM: The Open Source CFD Toolbox           |
|  \\    /   O peration     | Version:  2.4.0                                 |
|   \\  /    A nd           | Web:      www.OpenFOAM.org                      |
|    \\/     M anipulation  |                                                 |
\*---------------------------------------------------------------------------*/
FoamFile
{
    version     2.0;
    format      ascii;
    class       volScalarField;
    location    "1.37";
    object      p;
}
// * * * * * * * * * * * * * * * * * * * * * * * * * * * * * * * * * * * * * //

dimensions      [0 2 -2 0 0 0 0];

internalField   nonuniform List<scalar> 
6000
(
0.295236
0.289822
0.287328
0.286461
0.285578
0.284488
0.283404
0.282402
0.281459
0.280553
0.279678
0.278835
0.278024
0.27724
0.27648
0.27574
0.275017
0.274308
0.273612
0.272927
0.27225
0.271581
0.270919
0.270263
0.269613
0.268969
0.26833
0.267699
0.267074
0.266459
0.265854
0.265262
0.264685
0.264128
0.263595
0.263092
0.262626
0.262207
0.261846
0.261559
0.261365
0.261287
0.261355
0.261608
0.262095
0.262874
0.264024
0.265639
0.267839
0.270772
0.27462
0.279603
0.285985
0.294061
0.304172
0.31656
0.331629
0.348627
0.369208
0.383898
0.291297
0.289038
0.287282
0.286456
0.285643
0.284627
0.283574
0.282576
0.281627
0.280708
0.279819
0.278961
0.278136
0.27734
0.276569
0.275819
0.275088
0.274372
0.27367
0.272979
0.272298
0.271624
0.270958
0.270299
0.269645
0.268998
0.268357
0.267722
0.267096
0.266479
0.265872
0.265278
0.2647
0.264142
0.263608
0.263103
0.262636
0.262216
0.261854
0.261565
0.261368
0.261287
0.261352
0.261601
0.262081
0.262854
0.263994
0.265598
0.267784
0.270699
0.274524
0.279478
0.285824
0.293856
0.303918
0.316258
0.331308
0.348308
0.36919
0.383731
0.291145
0.289532
0.287595
0.286485
0.285608
0.28459
0.283527
0.282522
0.281575
0.280664
0.279783
0.278933
0.278116
0.277326
0.27656
0.275815
0.275088
0.274376
0.273677
0.272989
0.27231
0.271639
0.270975
0.270317
0.269665
0.269019
0.268378
0.267745
0.267119
0.266502
0.265895
0.2653
0.264722
0.264162
0.263626
0.26312
0.26265
0.262227
0.261861
0.261568
0.261367
0.26128
0.261337
0.261577
0.262047
0.262805
0.263928
0.265509
0.267665
0.270542
0.274317
0.279206
0.285464
0.293378
0.303281
0.315409
0.330179
0.346824
0.367353
0.381249
0.290492
0.289096
0.287354
0.286281
0.285463
0.284514
0.283494
0.282516
0.28159
0.280694
0.279822
0.278976
0.278159
0.277367
0.276598
0.275849
0.275117
0.274401
0.273697
0.273004
0.272322
0.271647
0.27098
0.27032
0.269666
0.269018
0.268377
0.267743
0.267117
0.266499
0.265892
0.265298
0.26472
0.26416
0.263624
0.263117
0.262646
0.262221
0.261852
0.261555
0.261347
0.261253
0.2613
0.261526
0.261977
0.262713
0.263806
0.265349
0.267457
0.27027
0.273964
0.278745
0.284864
0.292593
0.302249
0.314048
0.328372
0.344445
0.364125
0.377126
0.289935
0.288851
0.287351
0.286278
0.285441
0.284509
0.283504
0.282531
0.281607
0.280713
0.279841
0.278995
0.278177
0.277384
0.276614
0.275864
0.275131
0.274413
0.273708
0.273015
0.272331
0.271656
0.270988
0.270327
0.269673
0.269024
0.268383
0.267748
0.26712
0.266502
0.265894
0.265298
0.264718
0.264156
0.263618
0.263108
0.262633
0.262203
0.261829
0.261525
0.261308
0.261202
0.261234
0.261442
0.26187
0.262575
0.26363
0.265123
0.267166
0.269896
0.273481
0.278121
0.284054
0.29154
0.300875
0.312255
0.326018
0.341396
0.360005
0.372106
0.289466
0.288611
0.287285
0.286209
0.285359
0.284455
0.283479
0.282521
0.281607
0.28072
0.279854
0.279012
0.278196
0.277404
0.276634
0.275882
0.275148
0.274429
0.273723
0.273028
0.272342
0.271665
0.270996
0.270334
0.269678
0.269029
0.268386
0.26775
0.267122
0.266503
0.265894
0.265297
0.264715
0.264152
0.263611
0.263097
0.262619
0.262184
0.261803
0.261491
0.261263
0.261143
0.261158
0.261343
0.261742
0.26241
0.263417
0.264849
0.266812
0.26944
0.272892
0.277359
0.283066
0.290256
0.299201
0.310075
0.323167
0.337733
0.355125
0.366403
0.289062
0.28837
0.287194
0.286144
0.285294
0.284417
0.283467
0.282522
0.281614
0.280733
0.279872
0.279031
0.278216
0.277424
0.276652
0.2759
0.275164
0.274443
0.273735
0.273039
0.272352
0.271674
0.271003
0.27034
0.269683
0.269033
0.26839
0.267753
0.267124
0.266503
0.265893
0.265295
0.264711
0.264146
0.263602
0.263085
0.262602
0.262162
0.261773
0.261451
0.261212
0.261077
0.261072
0.261232
0.261599
0.262226
0.263179
0.264542
0.266418
0.26893
0.272233
0.276505
0.281957
0.288811
0.297313
0.307608
0.319936
0.333578
0.349627
0.360161
0.28871
0.288136
0.287093
0.286084
0.285236
0.284377
0.28345
0.282518
0.281617
0.280742
0.279885
0.279047
0.278233
0.277441
0.276669
0.275916
0.275179
0.274456
0.273747
0.273049
0.272361
0.271682
0.27101
0.270346
0.269688
0.269037
0.268393
0.267755
0.267125
0.266503
0.265892
0.265292
0.264706
0.264138
0.263591
0.263071
0.262583
0.262136
0.26174
0.261407
0.261155
0.261003
0.260976
0.261109
0.26144
0.262022
0.262917
0.264206
0.265984
0.268373
0.271515
0.275578
0.280756
0.287252
0.295282
0.304961
0.31647
0.329119
0.343741
0.353555
0.2884
0.287916
0.286988
0.286023
0.28518
0.284337
0.283432
0.282513
0.28162
0.28075
0.279897
0.279062
0.278249
0.277457
0.276685
0.275931
0.275193
0.274469
0.273759
0.273059
0.27237
0.27169
0.271017
0.270352
0.269693
0.269041
0.268395
0.267757
0.267125
0.266503
0.26589
0.265288
0.264701
0.26413
0.26358
0.263055
0.262562
0.262108
0.261703
0.261359
0.261092
0.260921
0.260871
0.260974
0.261267
0.261799
0.262632
0.263839
0.265515
0.26777
0.27074
0.274581
0.279471
0.285593
0.293136
0.302184
0.312859
0.324499
0.337678
0.346723
0.288126
0.287711
0.28688
0.285961
0.285127
0.284297
0.283413
0.282508
0.281622
0.280757
0.279908
0.279076
0.278264
0.277472
0.2767
0.275945
0.275206
0.274481
0.273769
0.273069
0.272378
0.271697
0.271023
0.270357
0.269697
0.269044
0.268398
0.267758
0.267126
0.266502
0.265887
0.265284
0.264694
0.26412
0.263566
0.263037
0.262538
0.262076
0.261662
0.261306
0.261023
0.260833
0.260758
0.260828
0.261079
0.261559
0.262324
0.263446
0.265011
0.267124
0.269912
0.273519
0.278107
0.283842
0.290884
0.299293
0.309136
0.319784
0.331562
0.339747
0.287883
0.287521
0.286772
0.2859
0.285077
0.28426
0.283393
0.282502
0.281623
0.280763
0.279918
0.279089
0.278278
0.277486
0.276714
0.275958
0.275218
0.274492
0.273779
0.273077
0.272386
0.271703
0.271029
0.270361
0.269701
0.269047
0.268399
0.267759
0.267125
0.2665
0.265884
0.265278
0.264686
0.264109
0.263552
0.263017
0.262512
0.262042
0.261617
0.261248
0.260949
0.260738
0.260636
0.260671
0.260879
0.261303
0.261996
0.263026
0.264474
0.266438
0.269034
0.272396
0.276671
0.282006
0.288536
0.2963
0.305318
0.314997
0.325444
0.332696
0.287667
0.287347
0.286666
0.285839
0.28503
0.284224
0.283374
0.282496
0.281624
0.280769
0.279927
0.2791
0.27829
0.277499
0.276726
0.27597
0.275229
0.274502
0.273788
0.273086
0.272393
0.271709
0.271034
0.270365
0.269704
0.269049
0.268401
0.267759
0.267124
0.266497
0.26588
0.265272
0.264677
0.264097
0.263535
0.262996
0.262484
0.262006
0.26157
0.261187
0.26087
0.260636
0.260506
0.260505
0.260666
0.26103
0.261648
0.262581
0.263906
0.265713
0.26811
0.271217
0.275167
0.28009
0.2861
0.293214
0.301415
0.310145
0.31934
0.325629
0.287474
0.287188
0.286565
0.285779
0.284986
0.284191
0.283354
0.282489
0.281624
0.280773
0.279935
0.27911
0.278302
0.277511
0.276738
0.275981
0.275239
0.274512
0.273797
0.273093
0.272399
0.271715
0.271038
0.270369
0.269707
0.269051
0.268401
0.267759
0.267123
0.266495
0.265875
0.265265
0.264668
0.264084
0.263518
0.262973
0.262454
0.261967
0.261519
0.261122
0.260787
0.260529
0.260368
0.260329
0.260441
0.260743
0.261281
0.262114
0.26331
0.264953
0.267142
0.269985
0.273601
0.278103
0.283583
0.290045
0.297438
0.30524
0.31326
0.318593
0.287304
0.287043
0.286469
0.285721
0.284945
0.28416
0.283336
0.282481
0.281624
0.280777
0.279942
0.279119
0.278312
0.277522
0.276748
0.275991
0.275249
0.274521
0.273805
0.2731
0.272405
0.27172
0.271042
0.270372
0.269709
0.269052
0.268402
0.267758
0.267121
0.266491
0.26587
0.265258
0.264657
0.26407
0.263499
0.262948
0.262422
0.261925
0.261466
0.261053
0.260698
0.260416
0.260223
0.260144
0.260205
0.260442
0.260898
0.261625
0.262687
0.264161
0.266133
0.268704
0.271977
0.276049
0.280994
0.286802
0.293397
0.300291
0.307207
0.311617
0.287152
0.286914
0.28638
0.285666
0.284907
0.284131
0.283318
0.282474
0.281623
0.28078
0.279948
0.279128
0.278321
0.277531
0.276758
0.276001
0.275258
0.274528
0.273812
0.273106
0.272411
0.271724
0.271046
0.270375
0.269711
0.269053
0.268402
0.267757
0.267118
0.266487
0.265864
0.265249
0.264646
0.264055
0.263479
0.262922
0.262388
0.261881
0.26141
0.260981
0.260606
0.260297
0.260072
0.259951
0.259959
0.260128
0.260498
0.261116
0.262039
0.263337
0.265088
0.267379
0.270301
0.273935
0.27834
0.283491
0.289299
0.295305
0.301182
0.304714
0.287018
0.286797
0.286297
0.285615
0.284871
0.284104
0.283301
0.282467
0.281622
0.280783
0.279953
0.279135
0.27833
0.27754
0.276767
0.276009
0.275265
0.274536
0.273818
0.273112
0.272416
0.271728
0.271049
0.270377
0.269713
0.269054
0.268402
0.267755
0.267116
0.266483
0.265857
0.26524
0.264634
0.264039
0.263458
0.262895
0.262352
0.261836
0.261351
0.260906
0.26051
0.260174
0.259915
0.25975
0.259703
0.259802
0.260083
0.260588
0.261369
0.262486
0.264009
0.266013
0.268577
0.271767
0.275626
0.280122
0.285151
0.290289
0.295185
0.297887
0.286901
0.286694
0.286223
0.285567
0.284839
0.28408
0.283286
0.28246
0.281621
0.280785
0.279958
0.279141
0.278337
0.277548
0.276775
0.276016
0.275272
0.274542
0.273824
0.273117
0.27242
0.271732
0.271052
0.270379
0.269714
0.269054
0.268401
0.267753
0.267112
0.266478
0.26585
0.265231
0.264621
0.264022
0.263436
0.262866
0.262315
0.261788
0.26129
0.260828
0.26041
0.260047
0.259752
0.259543
0.259439
0.259466
0.259655
0.260045
0.260679
0.261611
0.2629
0.264611
0.26681
0.26955
0.27286
0.2767
0.280959
0.285248
0.289214
0.291132
0.286799
0.286604
0.286156
0.285523
0.284809
0.284059
0.283272
0.282453
0.281619
0.280787
0.279962
0.279147
0.278344
0.277555
0.276781
0.276023
0.275279
0.274547
0.273829
0.273121
0.272423
0.271735
0.271054
0.270381
0.269714
0.269054
0.2684
0.267751
0.267108
0.266472
0.265843
0.265221
0.264607
0.264004
0.263413
0.262836
0.262277
0.261739
0.261227
0.260747
0.260307
0.259915
0.259584
0.259329
0.259167
0.25912
0.259216
0.259486
0.25997
0.260712
0.261764
0.263177
0.265006
0.267291
0.270048
0.273232
0.27673
0.280186
0.283264
0.284441
0.286711
0.286526
0.286097
0.285485
0.284783
0.28404
0.28326
0.282447
0.281618
0.280788
0.279965
0.279151
0.278349
0.277561
0.276787
0.276029
0.275284
0.274552
0.273833
0.273125
0.272426
0.271737
0.271056
0.270382
0.269715
0.269053
0.268398
0.267748
0.267104
0.266466
0.265835
0.26521
0.264593
0.263986
0.263389
0.262806
0.262237
0.261688
0.261162
0.260664
0.260201
0.25978
0.259412
0.25911
0.258888
0.258766
0.258765
0.258915
0.259246
0.259795
0.260604
0.261715
0.263169
0.264994
0.267196
0.269723
0.272467
0.275105
0.277332
0.277805
0.286637
0.286459
0.286047
0.285451
0.28476
0.284023
0.283249
0.282441
0.281617
0.280789
0.279968
0.279155
0.278354
0.277566
0.276792
0.276033
0.275288
0.274556
0.273836
0.273128
0.272429
0.271739
0.271057
0.270382
0.269714
0.269052
0.268396
0.267745
0.2671
0.26646
0.265826
0.265199
0.264579
0.263967
0.263365
0.262774
0.262197
0.261636
0.261095
0.260579
0.260092
0.259642
0.259236
0.258886
0.258603
0.258404
0.258306
0.258332
0.258507
0.258861
0.259424
0.260229
0.261304
0.262665
0.264309
0.266179
0.268173
0.270006
0.271411
0.27121
0.286576
0.286405
0.286004
0.285422
0.284741
0.28401
0.28324
0.282437
0.281615
0.28079
0.27997
0.279159
0.278358
0.27757
0.276796
0.276037
0.275292
0.27456
0.273839
0.27313
0.272431
0.27174
0.271058
0.270383
0.269714
0.269051
0.268394
0.267742
0.267095
0.266453
0.265817
0.265187
0.264563
0.263947
0.263339
0.262741
0.262155
0.261583
0.261027
0.260492
0.259981
0.259501
0.259057
0.258658
0.258314
0.258036
0.257839
0.25774
0.257758
0.257913
0.258228
0.258723
0.259415
0.26031
0.261392
0.262606
0.263854
0.264888
0.265493
0.264644
0.286528
0.286361
0.285971
0.285399
0.284726
0.283999
0.283232
0.282433
0.281614
0.280791
0.279972
0.279161
0.278361
0.277573
0.2768
0.27604
0.275295
0.274562
0.273842
0.273132
0.272432
0.271741
0.271058
0.270382
0.269713
0.269049
0.268391
0.267738
0.26709
0.266446
0.265808
0.265175
0.264548
0.263927
0.263313
0.262708
0.262112
0.261528
0.260958
0.260404
0.259869
0.259358
0.258875
0.258427
0.25802
0.257664
0.257367
0.257141
0.256999
0.256954
0.257018
0.257201
0.257509
0.257933
0.258452
0.259007
0.25951
0.259752
0.259573
0.258091
0.286492
0.286329
0.285945
0.285382
0.284714
0.28399
0.283227
0.28243
0.281613
0.280791
0.279973
0.279163
0.278363
0.277576
0.276802
0.276043
0.275297
0.274564
0.273843
0.273133
0.272433
0.271742
0.271058
0.270382
0.269712
0.269047
0.268388
0.267734
0.267084
0.266439
0.265798
0.265162
0.264532
0.263906
0.263287
0.262674
0.262069
0.261473
0.260888
0.260314
0.259755
0.259213
0.258691
0.258193
0.257724
0.257287
0.256889
0.256536
0.256234
0.255987
0.255799
0.255668
0.255588
0.255541
0.255494
0.255388
0.255145
0.254596
0.25364
0.251535
0.286469
0.286307
0.285928
0.28537
0.284706
0.283985
0.283223
0.282428
0.281613
0.280792
0.279974
0.279164
0.278364
0.277577
0.276804
0.276044
0.275298
0.274565
0.273844
0.273134
0.272433
0.271741
0.271058
0.270381
0.26971
0.269045
0.268385
0.267729
0.267078
0.266431
0.265788
0.26515
0.264515
0.263885
0.26326
0.26264
0.262025
0.261417
0.260816
0.260224
0.25964
0.259067
0.258506
0.257958
0.257425
0.256908
0.256409
0.255928
0.255464
0.255015
0.254573
0.254128
0.253659
0.253137
0.252522
0.251752
0.250761
0.249418
0.247687
0.244961
0.286457
0.286296
0.28592
0.285364
0.284702
0.283982
0.283221
0.282427
0.281613
0.280792
0.279974
0.279165
0.278365
0.277578
0.276804
0.276045
0.275299
0.274565
0.273844
0.273133
0.272433
0.271741
0.271057
0.270379
0.269708
0.269042
0.268381
0.267724
0.267072
0.266423
0.265778
0.265137
0.264498
0.263864
0.263233
0.262605
0.261981
0.261361
0.260745
0.260133
0.259525
0.25892
0.258319
0.257721
0.257125
0.256528
0.255927
0.255318
0.254693
0.254041
0.253345
0.252584
0.251725
0.250728
0.249542
0.248104
0.24636
0.244216
0.241704
0.238351
0.286457
0.286296
0.28592
0.285364
0.284702
0.283982
0.283221
0.282427
0.281613
0.280792
0.279974
0.279165
0.278365
0.277578
0.276804
0.276044
0.275298
0.274565
0.273843
0.273133
0.272432
0.27174
0.271055
0.270377
0.269705
0.269039
0.268377
0.267719
0.267066
0.266415
0.265768
0.265123
0.264481
0.263842
0.263205
0.26257
0.261937
0.261304
0.260673
0.260041
0.259409
0.258773
0.258133
0.257485
0.256825
0.256147
0.255445
0.254708
0.253922
0.253067
0.252118
0.251041
0.249793
0.248319
0.24656
0.24445
0.241943
0.238987
0.235681
0.231688
0.286469
0.286307
0.285928
0.28537
0.284706
0.283985
0.283223
0.282428
0.281613
0.280792
0.279974
0.279164
0.278364
0.277577
0.276803
0.276043
0.275297
0.274564
0.273842
0.273131
0.27243
0.271738
0.271053
0.270375
0.269703
0.269035
0.268373
0.267714
0.267059
0.266407
0.265757
0.26511
0.264464
0.26382
0.263177
0.262535
0.261892
0.261248
0.260601
0.25995
0.259293
0.258626
0.257947
0.257248
0.256525
0.255768
0.254965
0.2541
0.253153
0.252097
0.250895
0.249504
0.247866
0.245915
0.243581
0.240792
0.237513
0.233728
0.229607
0.224952
0.286492
0.286328
0.285945
0.285382
0.284714
0.28399
0.283227
0.28243
0.281613
0.280791
0.279973
0.279162
0.278362
0.277575
0.276801
0.276041
0.275295
0.274562
0.27384
0.273129
0.272428
0.271736
0.271051
0.270372
0.269699
0.269032
0.268368
0.267708
0.267052
0.266398
0.265746
0.265096
0.264447
0.263798
0.26315
0.2625
0.261847
0.261191
0.260529
0.259859
0.259178
0.25848
0.257761
0.257014
0.256228
0.255391
0.254488
0.253496
0.25239
0.251133
0.249681
0.247976
0.24595
0.243522
0.240609
0.237136
0.233072
0.228437
0.223472
0.218123
0.286528
0.286361
0.285971
0.285399
0.284726
0.283999
0.283232
0.282433
0.281614
0.280791
0.279971
0.27916
0.27836
0.277572
0.276798
0.276039
0.275292
0.274559
0.273838
0.273127
0.272426
0.271733
0.271048
0.270369
0.269696
0.269028
0.268363
0.267703
0.267045
0.266389
0.265735
0.265082
0.264429
0.263776
0.263122
0.262465
0.261803
0.261135
0.260458
0.259769
0.259063
0.258335
0.257577
0.256781
0.255933
0.255018
0.254015
0.252898
0.251634
0.250179
0.248478
0.246462
0.244049
0.241145
0.237652
0.233487
0.228622
0.223113
0.217265
0.211182
0.286576
0.286404
0.286004
0.285422
0.284741
0.28401
0.283239
0.282437
0.281615
0.28079
0.27997
0.279158
0.278357
0.277568
0.276795
0.276035
0.275289
0.274556
0.273834
0.273124
0.272423
0.27173
0.271045
0.270366
0.269692
0.269023
0.268358
0.267697
0.267037
0.26638
0.265724
0.265068
0.264412
0.263754
0.263094
0.26243
0.261759
0.261079
0.260387
0.25968
0.25895
0.258192
0.257396
0.256551
0.255642
0.254649
0.253548
0.252308
0.250888
0.249237
0.24729
0.244966
0.242169
0.23879
0.234715
0.22985
0.224168
0.217751
0.210974
0.204105
0.286637
0.286459
0.286046
0.285451
0.28476
0.284023
0.283248
0.282441
0.281616
0.280789
0.279967
0.279154
0.278352
0.277564
0.27679
0.27603
0.275285
0.274552
0.27383
0.27312
0.272419
0.271726
0.271041
0.270362
0.269688
0.269019
0.268353
0.26769
0.26703
0.266371
0.265713
0.265054
0.264395
0.263733
0.263067
0.262395
0.261715
0.261024
0.260318
0.259591
0.258838
0.25805
0.257217
0.256324
0.255355
0.254286
0.253089
0.251728
0.250154
0.24831
0.24612
0.243492
0.240315
0.236462
0.231805
0.226232
0.219711
0.212353
0.204588
0.19687
0.286711
0.286525
0.286097
0.285484
0.284783
0.284039
0.283259
0.282446
0.281617
0.280788
0.279964
0.27915
0.278348
0.277559
0.276785
0.276025
0.27528
0.274547
0.273826
0.273116
0.272415
0.271722
0.271037
0.270358
0.269684
0.269014
0.268348
0.267684
0.267022
0.266362
0.265701
0.26504
0.264377
0.263711
0.26304
0.262361
0.261672
0.26097
0.260249
0.259505
0.258729
0.257912
0.257041
0.256102
0.255074
0.25393
0.252639
0.251158
0.249435
0.247401
0.244973
0.242045
0.238492
0.234169
0.228928
0.222639
0.215258
0.206915
0.198094
0.189451
0.286799
0.286604
0.286156
0.285523
0.284809
0.284058
0.283272
0.282452
0.281619
0.280786
0.279961
0.279145
0.278342
0.277553
0.276778
0.276019
0.275274
0.274541
0.273821
0.273111
0.27241
0.271718
0.271032
0.270353
0.269679
0.269009
0.268342
0.267677
0.267015
0.266353
0.26569
0.265027
0.26436
0.26369
0.263013
0.262327
0.26163
0.260916
0.260182
0.259419
0.258621
0.257776
0.25687
0.255885
0.254799
0.253583
0.252199
0.250602
0.248732
0.246513
0.243851
0.240629
0.236705
0.231917
0.226091
0.219078
0.210813
0.20144
0.191481
0.181823
0.286901
0.286694
0.286222
0.285567
0.284838
0.28408
0.283286
0.282459
0.28162
0.280784
0.279957
0.27914
0.278335
0.277545
0.276771
0.276012
0.275267
0.274535
0.273815
0.273105
0.272405
0.271713
0.271028
0.270348
0.269674
0.269003
0.268336
0.267671
0.267007
0.266343
0.265679
0.265013
0.264343
0.263669
0.262987
0.262294
0.261588
0.260864
0.260116
0.259336
0.258516
0.257643
0.256702
0.255673
0.254531
0.253244
0.251771
0.250061
0.248048
0.245648
0.242758
0.239248
0.23496
0.229712
0.223303
0.215559
0.206384
0.195929
0.184736
0.173957
0.287018
0.286797
0.286297
0.285614
0.284871
0.284104
0.283301
0.282466
0.281621
0.280782
0.279952
0.279133
0.278327
0.277537
0.276763
0.276004
0.275259
0.274528
0.273808
0.273099
0.272399
0.271707
0.271022
0.270343
0.269669
0.268998
0.26833
0.267664
0.266999
0.266334
0.265668
0.264999
0.264327
0.263648
0.262961
0.262262
0.261548
0.260813
0.260052
0.259256
0.258414
0.257515
0.25654
0.255468
0.254272
0.252916
0.251356
0.249536
0.247384
0.24481
0.241698
0.237908
0.233263
0.22756
0.220572
0.21209
0.201979
0.190386
0.177849
0.165824
0.287152
0.286913
0.286379
0.285666
0.284906
0.28413
0.283318
0.282473
0.281622
0.280779
0.279947
0.279126
0.278319
0.277528
0.276754
0.275995
0.275251
0.27452
0.273801
0.273092
0.272393
0.271701
0.271017
0.270338
0.269663
0.268992
0.268324
0.267657
0.266991
0.266325
0.265657
0.264986
0.26431
0.263628
0.262936
0.262231
0.261508
0.260764
0.25999
0.259177
0.258316
0.25739
0.256383
0.25527
0.254021
0.252599
0.250956
0.24903
0.246744
0.244
0.240674
0.236611
0.231619
0.22547
0.217906
0.208681
0.197607
0.184816
0.170808
0.157393
0.287303
0.287043
0.286469
0.285721
0.284945
0.284159
0.283335
0.28248
0.281623
0.280776
0.27994
0.279117
0.278309
0.277518
0.276744
0.275986
0.275242
0.274511
0.273793
0.273085
0.272386
0.271695
0.271011
0.270332
0.269657
0.268986
0.268317
0.26765
0.266983
0.266315
0.265646
0.264973
0.264294
0.263608
0.262911
0.2622
0.26147
0.260716
0.25993
0.259102
0.258221
0.257271
0.256232
0.255079
0.25378
0.252295
0.250571
0.248544
0.246129
0.243223
0.23969
0.235363
0.230033
0.223448
0.215316
0.205345
0.193281
0.179229
0.163604
0.148632
0.287474
0.287187
0.286565
0.285779
0.284986
0.28419
0.283354
0.282488
0.281623
0.280772
0.279933
0.279108
0.278299
0.277507
0.276733
0.275975
0.275232
0.274502
0.273784
0.273077
0.272379
0.271688
0.271004
0.270326
0.269651
0.26898
0.268311
0.267643
0.266975
0.266306
0.265635
0.26496
0.264278
0.263589
0.262887
0.262171
0.261434
0.26067
0.259872
0.25903
0.25813
0.257156
0.256087
0.254897
0.25355
0.252004
0.250203
0.248079
0.245541
0.242479
0.238747
0.234167
0.228511
0.221502
0.212811
0.202094
0.189017
0.173636
0.156229
0.139507
0.287666
0.287346
0.286666
0.285838
0.28503
0.284224
0.283373
0.282495
0.281623
0.280767
0.279925
0.279098
0.278287
0.277495
0.276721
0.275964
0.275221
0.274492
0.273775
0.273068
0.272371
0.271681
0.270997
0.270319
0.269645
0.268973
0.268304
0.267636
0.266967
0.266297
0.265624
0.264947
0.264263
0.26357
0.262864
0.262142
0.261398
0.260626
0.259817
0.25896
0.258043
0.257046
0.255949
0.254723
0.253331
0.251727
0.249854
0.247636
0.244982
0.241771
0.237851
0.233028
0.227059
0.219641
0.210401
0.198943
0.18483
0.168054
0.148678
0.129984
0.287882
0.287521
0.286771
0.285899
0.285077
0.284259
0.283392
0.282501
0.281622
0.280762
0.279916
0.279086
0.278274
0.277482
0.276708
0.275951
0.275209
0.274481
0.273765
0.273059
0.272362
0.271673
0.27099
0.270312
0.269638
0.268967
0.268297
0.267629
0.266959
0.266288
0.265614
0.264935
0.264248
0.263552
0.262842
0.262115
0.261365
0.260584
0.259764
0.258895
0.25796
0.256943
0.255819
0.254559
0.253124
0.251466
0.249523
0.247219
0.244454
0.241102
0.237003
0.231951
0.225683
0.21787
0.208098
0.195907
0.180742
0.162505
0.14095
0.120027
0.288125
0.28771
0.286879
0.285961
0.285126
0.284297
0.283412
0.282507
0.281621
0.280756
0.279906
0.279074
0.278261
0.277468
0.276694
0.275938
0.275197
0.274469
0.273754
0.27305
0.272354
0.271665
0.270983
0.270305
0.269631
0.26896
0.268291
0.267621
0.266951
0.266279
0.265604
0.264923
0.264234
0.263535
0.262821
0.262089
0.261333
0.260544
0.259715
0.258832
0.257882
0.256845
0.255696
0.254404
0.252929
0.25122
0.249213
0.246826
0.243958
0.240475
0.236207
0.230938
0.224387
0.2162
0.205915
0.193005
0.176777
0.157016
0.133052
0.109602
0.288399
0.287916
0.286987
0.286022
0.285179
0.284336
0.283431
0.282512
0.281619
0.280749
0.279895
0.27906
0.278246
0.277453
0.276679
0.275923
0.275183
0.274457
0.273743
0.273039
0.272344
0.271657
0.270975
0.270298
0.269624
0.268953
0.268284
0.267614
0.266944
0.266271
0.265594
0.264911
0.26422
0.263518
0.262801
0.262065
0.261302
0.260507
0.259668
0.258774
0.257809
0.256754
0.255581
0.25426
0.252748
0.250991
0.248924
0.246461
0.243496
0.23989
0.235465
0.229994
0.223179
0.214637
0.203863
0.190256
0.172963
0.151625
0.125
0.0986739
0.28871
0.288136
0.287093
0.286083
0.285235
0.284376
0.283449
0.282517
0.281616
0.28074
0.279883
0.279044
0.278229
0.277436
0.276663
0.275908
0.275169
0.274444
0.273731
0.273028
0.272335
0.271648
0.270967
0.27029
0.269617
0.268946
0.268277
0.267607
0.266936
0.266262
0.265584
0.2649
0.264207
0.263503
0.262783
0.262042
0.261274
0.260472
0.259624
0.25872
0.257741
0.256669
0.255475
0.254127
0.25258
0.25078
0.248657
0.246124
0.24307
0.239351
0.234781
0.229123
0.222062
0.213191
0.201955
0.18768
0.169334
0.146375
0.116824
0.0872075
0.289062
0.288369
0.287193
0.286144
0.285294
0.284416
0.283466
0.282521
0.281613
0.280732
0.279869
0.279029
0.278212
0.277419
0.276646
0.275892
0.275154
0.27443
0.273718
0.273017
0.272324
0.271639
0.270958
0.270283
0.26961
0.268939
0.26827
0.2676
0.266928
0.266254
0.265575
0.26489
0.264195
0.263488
0.262765
0.26202
0.261248
0.260439
0.259584
0.25867
0.257679
0.256591
0.255378
0.254005
0.252428
0.250588
0.248414
0.245817
0.242682
0.23886
0.234158
0.22833
0.221044
0.21187
0.200208
0.185304
0.165933
0.141329
0.108585
0.0751706
0.289466
0.288611
0.287285
0.286209
0.285358
0.284455
0.283478
0.28252
0.281605
0.280718
0.279852
0.279009
0.278192
0.277399
0.276627
0.275874
0.275138
0.274415
0.273705
0.273005
0.272314
0.271629
0.27095
0.270275
0.269603
0.268932
0.268263
0.267593
0.266921
0.266246
0.265566
0.26488
0.264183
0.263474
0.262748
0.262
0.261223
0.260409
0.259548
0.258624
0.257623
0.256521
0.25529
0.253895
0.25229
0.250415
0.248195
0.245541
0.242333
0.238419
0.2336
0.227618
0.220131
0.210685
0.198635
0.18315
0.162807
0.136558
0.100374
0.0625487
0.289935
0.288851
0.287351
0.286277
0.28544
0.284508
0.283503
0.28253
0.281606
0.280711
0.279839
0.278992
0.278173
0.277379
0.276607
0.275855
0.27512
0.274399
0.273691
0.272992
0.272302
0.271619
0.270941
0.270266
0.269595
0.268925
0.268256
0.267586
0.266914
0.266239
0.265558
0.26487
0.264173
0.263462
0.262733
0.261982
0.261201
0.260382
0.259514
0.258583
0.257572
0.256458
0.255212
0.253798
0.252168
0.250262
0.248002
0.245298
0.242027
0.238031
0.233109
0.226993
0.21933
0.209644
0.197251
0.181247
0.160006
0.132149
0.0923247
0.0493128
0.290492
0.289096
0.287354
0.286281
0.285463
0.284513
0.283493
0.282515
0.281589
0.280693
0.27982
0.278973
0.278155
0.277362
0.276592
0.275841
0.275106
0.274387
0.273679
0.272981
0.272292
0.271609
0.270932
0.270258
0.269587
0.268917
0.268248
0.267578
0.266906
0.26623
0.265549
0.264861
0.264163
0.26345
0.26272
0.261967
0.261183
0.26036
0.259486
0.258549
0.257529
0.256404
0.255145
0.253715
0.252064
0.250132
0.247838
0.245092
0.241767
0.237704
0.232696
0.22647
0.218661
0.208777
0.1961
0.179658
0.157643
0.128288
0.0847418
0.0353575
0.291145
0.289532
0.287594
0.286485
0.285608
0.28459
0.283526
0.28252
0.281573
0.280662
0.27978
0.27893
0.278112
0.277321
0.276554
0.275807
0.275077
0.274362
0.273659
0.272965
0.27228
0.2716
0.270925
0.270254
0.269584
0.268916
0.268247
0.267577
0.266904
0.266228
0.265546
0.264855
0.264155
0.26344
0.262707
0.26195
0.261162
0.260334
0.259455
0.258511
0.257484
0.256351
0.255082
0.253639
0.251972
0.250019
0.247705
0.244928
0.241565
0.237454
0.232386
0.226081
0.218168
0.208141
0.195256
0.178488
0.155883
0.125275
0.0782308
0.0204989
0.291297
0.289038
0.287281
0.286456
0.285643
0.284627
0.283574
0.282575
0.281625
0.280706
0.279816
0.278958
0.278132
0.277335
0.276562
0.27581
0.275077
0.274358
0.273652
0.272955
0.272267
0.271585
0.270908
0.270235
0.269564
0.268894
0.268224
0.267553
0.266879
0.266202
0.265519
0.264829
0.264128
0.263412
0.262679
0.261921
0.261133
0.260304
0.259424
0.258478
0.257448
0.256311
0.255038
0.253589
0.251915
0.249951
0.247623
0.244829
0.241445
0.237307
0.232204
0.225854
0.217881
0.207769
0.194762
0.177793
0.154829
0.123338
0.0736117
0.00505929
0.295236
0.289822
0.287328
0.28646
0.285577
0.284488
0.283403
0.2824
0.281457
0.280551
0.279675
0.278832
0.27802
0.277235
0.276473
0.275731
0.275006
0.274294
0.273594
0.272903
0.27222
0.271542
0.270869
0.270199
0.269531
0.268864
0.268197
0.267528
0.266856
0.266181
0.265499
0.26481
0.264109
0.263394
0.262661
0.261903
0.261114
0.260285
0.259403
0.258456
0.257424
0.256285
0.25501
0.253564
0.251893
0.249928
0.247597
0.244799
0.24141
0.237265
0.232153
0.225792
0.217802
0.207666
0.194619
0.177582
0.154484
0.122632
0.0714656
-0.00545923
0.440289
0.361065
0.301958
0.272444
0.251764
0.232252
0.215905
0.204185
0.19617
0.190487
0.1865
0.183894
0.182585
0.182571
0.183985
0.187365
0.19332
0.204944
0.204706
0.178896
0.161244
0.152333
0.144863
0.135881
0.125241
0.112534
0.0962142
0.0736384
0.0406672
-0.0109767
-0.0999135
-0.283846
-0.712924
-0.755351
-0.338654
-0.370024
-0.318234
-0.288077
-0.244348
-0.202917
-0.162321
-0.126107
-0.0951494
-0.0699349
-0.0501354
-0.0350315
-0.0237782
-0.0155453
-0.00960235
-0.00535413
-0.00234023
-0.000217165
0.00126366
0.00227849
0.00294724
0.00335836
0.00354648
0.00360517
0.00330481
0.00287104
0.435798
0.354976
0.296772
0.269228
0.249357
0.230232
0.214325
0.20303
0.195313
0.189901
0.186129
0.183659
0.182464
0.182545
0.184047
0.187517
0.193475
0.203143
0.201026
0.176718
0.159783
0.151277
0.143913
0.134861
0.124093
0.111164
0.0944401
0.0711767
0.0370283
-0.0166578
-0.108768
-0.285214
-0.608183
-0.681005
-0.357774
-0.370976
-0.322803
-0.292767
-0.24966
-0.208371
-0.167652
-0.131069
-0.0995735
-0.0737477
-0.0533406
-0.037679
-0.0259396
-0.0172983
-0.0110208
-0.0065031
-0.00327403
-0.000979724
0.000637524
0.0017617
0.00251839
0.00300216
0.00324742
0.00336378
0.00306458
0.00285133
0.428337
0.350465
0.293916
0.26752
0.24803
0.229167
0.213584
0.202559
0.19504
0.18974
0.185911
0.183512
0.182379
0.182506
0.184037
0.187467
0.192992
0.200841
0.197989
0.175847
0.159401
0.150914
0.14352
0.134422
0.123602
0.110576
0.0936648
0.0700799
0.0353928
-0.0189736
-0.110666
-0.270376
-0.526272
-0.608301
-0.370985
-0.369025
-0.323933
-0.294933
-0.252555
-0.211677
-0.171124
-0.134444
-0.102701
-0.0765282
-0.0557441
-0.0397176
-0.0276475
-0.0187194
-0.0122004
-0.00748291
-0.00409045
-0.00166316
6.22847e-05
0.00127488
0.00210382
0.00264822
0.00294103
0.00310921
0.00281182
0.00284377
0.419108
0.345858
0.290636
0.264988
0.246023
0.227581
0.212382
0.201663
0.194349
0.189168
0.185548
0.183271
0.182208
0.182376
0.183909
0.187211
0.192202
0.198479
0.194962
0.174549
0.158627
0.150216
0.142896
0.133848
0.123037
0.109967
0.0929335
0.0691249
0.034119
-0.0204001
-0.109588
-0.25487
-0.458735
-0.54992
-0.378717
-0.365263
-0.324517
-0.295983
-0.254825
-0.214225
-0.173853
-0.137102
-0.10518
-0.0787424
-0.0576674
-0.0413575
-0.0290294
-0.0198767
-0.0131679
-0.00829284
-0.00477087
-0.00223754
-0.000425232
0.000858886
0.00174678
0.00234114
0.00267383
0.00288709
0.0026073
0.00282254
0.408642
0.34074
0.2871
0.262138
0.243831
0.225928
0.211165
0.200784
0.193718
0.188735