/*--------------------------------*- C++ -*----------------------------------*\
| =========                 |                                                 |
| \\      /  F ield         | OpenFOAM: The Open Source CFD Toolbox           |
|  \\    /   O peration     | Version:  2.4.0                                 |
|   \\  /    A nd           | Web:      www.OpenFOAM.org                      |
|    \\/     M anipulation  |                                                 |
\*---------------------------------------------------------------------------*/
FoamFile
{
    version     2.0;
    format      ascii;
    class       volScalarField;
    location    "180";
    object      epsilon;
}
// * * * * * * * * * * * * * * * * * * * * * * * * * * * * * * * * * * * * * //

dimensions      [0 2 -3 0 0 0 0];

internalField   nonuniform List<scalar> 
6000
(
61.3779
3.06658
0.156999
0.0681188
0.176303
0.123079
0.124691
0.096289
0.0865439
0.0722548
0.065152
0.0576
0.0529407
0.0489073
0.0473124
0.0477602
0.0506749
0.0548994
0.0589748
0.060841
0.0593474
0.0548786
0.0495644
0.0463128
0.0478512
0.0569473
0.077218
0.113059
0.167762
0.240771
0.324895
0.407158
0.472754
0.509623
0.510462
0.472506
0.400429
0.304588
0.200939
0.107483
0.0412121
0.0373419
0.0977205
0.194543
0.323366
0.478791
0.655897
0.853193
1.06912
1.31434
1.58626
1.93415
2.31507
2.93682
3.496
4.94325
5.57044
10.001
9.34891
29.3704
19.597
1.87142
0.122473
0.0418058
0.0925615
0.0658965
0.0649242
0.0506002
0.0450714
0.0377533
0.0338723
0.0299442
0.027431
0.0253072
0.0243652
0.0244082
0.0255713
0.0272902
0.0288959
0.029523
0.0287289
0.0267118
0.0243908
0.0230286
0.0238321
0.0279647
0.0367288
0.0514038
0.0725288
0.0991481
0.128286
0.155608
0.176742
0.188418
0.1887
0.17689
0.154035
0.122637
0.0868459
0.0518403
0.0238144
0.0229322
0.049547
0.0883034
0.136927
0.193659
0.257237
0.327649
0.404957
0.493086
0.592098
0.718101
0.859783
1.08251
1.2982
1.80053
2.08133
3.55431
3.56274
9.79254
7.67374
1.15373
0.10353
0.0283373
0.0517202
0.0372873
0.0357386
0.0280595
0.0247899
0.0208399
0.0186343
0.0165011
0.0151053
0.0139625
0.0134362
0.0134242
0.01396
0.0147489
0.0154574
0.0156932
0.0152791
0.0143332
0.0132955
0.0127731
0.0133666
0.0156296
0.0200902
0.0271225
0.0366586
0.0479879
0.0597295
0.070227
0.0780426
0.0822329
0.0823597
0.0782273
0.0700794
0.0585278
0.0446378
0.0298373
0.0164746
0.0167601
0.0297538
0.0469628
0.0672342
0.0900785
0.115288
0.143102
0.173796
0.208962
0.249007
0.29973
0.35823
0.447015
0.53904
0.733269
0.867156
1.4121
1.50605
3.64676
3.57176
0.750624
0.0921872
0.0218178
0.0308881
0.022284
0.0207296
0.0163487
0.0143312
0.0120963
0.0108026
0.00960744
0.00882142
0.00820557
0.00793341
0.00794957
0.00825312
0.00867983
0.00905033
0.00917355
0.00897626
0.00853631
0.00808916
0.00796476
0.00850269
0.0100009
0.0126953
0.016671
0.0217428
0.0274242
0.0330005
0.0377569
0.041177
0.0429812
0.0431686
0.0415986
0.0383335
0.0335138
0.0273996
0.0203419
0.0133424
0.0140025
0.0208896
0.0293571
0.0387269
0.0488609
0.0598048
0.0717865
0.0850509
0.10032
0.117939
0.140193
0.16648
0.205176
0.247794
0.330098
0.397558
0.618286
0.695608
1.49201
1.92778
0.521958
0.0851895
0.0192667
0.0199549
0.014129
0.0126747
0.00999592
0.00869064
0.00736845
0.00659027
0.00590801
0.0054675
0.00514493
0.00502622
0.00508009
0.00529539
0.0055745
0.00581328
0.00591121
0.00583827
0.00565179
0.0054962
0.00557761
0.00611167
0.00727525
0.00917745
0.0118005
0.0149539
0.0182967
0.0214204
0.0239828
0.0257897
0.0267827
0.0270339
0.0264415
0.0250232
0.0228053
0.019831
0.0161022
0.0121795
0.0128357
0.0166774
0.0211814
0.0259371
0.0308899
0.0361009
0.0417207
0.0479191
0.0550558
0.0633762
0.0738658
0.0865288
0.104715
0.125823
0.163578
0.199227
0.295979
0.34749
0.664252
1.18202
0.387666
0.0808856
0.0190364
0.0142377
0.0096057
0.00820707
0.006427
0.00553271
0.00471333
0.00423532
0.00384375
0.00360458
0.00344965
0.00342305
0.00350638
0.00368657
0.00390144
0.00408581
0.00418313
0.00418383
0.00413567
0.00414071
0.00434438
0.00489549
0.00590569
0.0074206
0.00938198
0.0116174
0.0138805
0.0159227
0.0175721
0.0187635
0.0195156
0.0198702
0.0197512
0.0191575
0.0180808
0.0164971
0.0142949
0.0119531
0.0124448
0.0146254
0.0171136
0.019669
0.02227
0.0249584
0.0278191
0.0309531
0.0345457
0.0387567
0.0440474
0.0505501
0.0597026
0.0708026
0.0894138
0.109097
0.154687
0.187043
0.32105
0.808441
0.30558
0.0782863
0.0201682
0.0114532
0.0071224
0.00568192
0.00437119
0.00371185
0.00317553
0.00287545
0.00265291
0.00253337
0.00247629
0.00250507
0.00260831
0.00277352
0.00295839
0.00311967
0.00322468
0.00327531
0.00331461
0.00342248
0.00371094
0.00428866
0.00522915
0.00654355
0.00815894
0.00992736
0.0116703
0.0132336
0.0145296
0.0155382
0.0162845
0.016754
0.0168896
0.0166813
0.016113
0.0151418
0.0136608
0.0121589
0.0124343
0.0136328
0.0149892
0.0163656
0.0177593
0.0192007
0.0207375
0.0224271
0.0243648
0.0266492
0.0295089
0.0330757
0.0380084
0.0442099
0.0540524
0.0654342
0.0884842
0.108626
0.169006
0.606163
0.253518
0.0767671
0.0220761
0.0104208
0.00586903
0.00426702
0.00317647
0.00264248
0.00226511
0.00207056
0.00194787
0.0019006
0.00190215
0.00196509
0.00208176
0.0022409
0.00241236
0.00256659
0.00268536
0.00277734
0.002882
0.00306609
0.00342092
0.00403083
0.00494659
0.00616132
0.00760112
0.00914433
0.0106621
0.0120543
0.013266
0.014277
0.0150831
0.0156325
0.0158856
0.015833
0.015462
0.0147265
0.0136043
0.0125492
0.0126041
0.0131773
0.013843
0.0145228
0.0152235
0.0159697
0.0167914
0.0177226
0.0188129
0.0201226
0.0217684
0.0238555
0.0267017
0.0303918
0.0359785
0.0429115
0.0554242
0.0681802
0.0972758
0.489933
0.219491
0.0759382
0.0243849
0.0104957
0.00540505
0.00353246
0.00249943
0.00201593
0.0017227
0.00158891
0.00152551
0.00152291
0.00156118
0.00164663
0.00177356
0.00193218
0.00210052
0.00225849
0.00239705
0.00252837
0.00268838
0.00293546
0.00334761
0.0039952
0.00491622
0.00609625
0.00746761
0.00893206
0.0103927
0.0117733
0.0130203
0.0140946
0.0149501
0.0155304
0.0158093
0.0157831
0.0154453
0.014761
0.0138268
0.0129972
0.0128484
0.0129982
0.0132123
0.0134473
0.0137136
0.0140314
0.0144215
0.0149064
0.0155131
0.0162795
0.0172665
0.0185529
0.0202976
0.0226278
0.0260208
0.0304795
0.0377651
0.0461059
0.0611132
0.42011
0.196762
0.0755626
0.0268482
0.0112843
0.00547996
0.00325522
0.00215737
0.00166665
0.00140833
0.00130596
0.00127735
0.00130324
0.0013661
0.00146804
0.0016044
0.00176697
0.00193984
0.00210966
0.00227326
0.00244414
0.00265474
0.00295824
0.00342447
0.00411663
0.00506673
0.0062592
0.00763483
0.00911221
0.0106102
0.0120557
0.0133806
0.0145195
0.0153948
0.0159603
0.0162014
0.0161223
0.0157223
0.015008
0.0141699
0.0134361
0.0131082
0.012958
0.0128609
0.012795
0.0127709
0.0128048
0.012912
0.013108
0.0134089
0.0138397
0.0144334
0.0152481
0.0163654
0.0179092
0.0200944
0.0231078
0.0276322
0.0332892
0.0415271
0.37677
0.181374
0.0754993
0.029306
0.012524
0.00594584
0.00330508
0.00205387
0.00150574
0.00124593
0.00115409
0.00114462
0.00118927
0.00126997
0.0013855
0.00153173
0.00170211
0.0018854
0.00207319
0.00226594
0.00247723
0.00273656
0.00309394
0.00361481
0.0043597
0.00535919
0.00659976
0.00802957
0.00957616
0.0111614
0.0127029
0.0141116
0.0152926
0.0161543
0.0166645
0.0168203
0.0166343
0.0161136
0.0153465
0.0145449
0.0138298
0.0133491
0.0129793
0.0126601
0.0123824
0.0121559
0.0119929
0.0119042
0.011901
0.0119932
0.0121985
0.0125352
0.0130471
0.0137769
0.0148322
0.0163046
0.0184243
0.0213927
0.0253611
0.0301261
0.349221
0.170899
0.0756632
0.0316594
0.0140284
0.00669871
0.0036005
0.00213965
0.00148638
0.00119451
0.00109649
0.00109516
0.00115225
0.00124687
0.00137469
0.00153179
0.00171321
0.00191147
0.00212173
0.00234674
0.00259966
0.00290771
0.00331901
0.0038974
0.00470371
0.00576982
0.00708532
0.00860274
0.0102512
0.0119467
0.0135906
0.0150707
0.0162625
0.0170769
0.0174959
0.017528
0.0171952
0.0165286
0.0157065
0.0149001
0.0141592
0.0135496
0.0130161
0.012535
0.012105
0.0117341
0.0114312
0.0112031
0.0110578
0.0110012
0.0110461
0.0112034
0.0115067
0.0119787
0.0127094
0.0137315
0.0152667
0.0173015
0.0201648
0.0230409
0.331412
0.163787
0.0760008
0.033854
0.0156621
0.00765602
0.00409038
0.00237961
0.00158501
0.00123261
0.00111335
0.0011113
0.00117625
0.00128229
0.00142185
0.00159094
0.001786
0.00200264
0.00223869
0.00249842
0.00279446
0.00315234
0.00361913
0.00425908
0.00513519
0.00628208
0.00769193
0.0093181
0.0110852
0.0128971
0.0146356
0.0161651
0.0173331
0.0180676
0.0183628
0.0182394
0.0177295
0.0169252
0.0160448
0.0152052
0.0144139
0.0136967
0.0130394
0.0124393
0.0118991
0.0114248
0.0110219
0.0106942
0.0104464
0.0102817
0.0102097
0.0102366
0.0103894
0.01068
0.0111831
0.0119032
0.0130371
0.014479
0.016593
0.0183905
0.319766
0.159012
0.0764748
0.0358667
0.017328
0.00874757
0.00473308
0.00274763
0.00178998
0.0013499
0.00119451
0.00118359
0.0012525
0.00136814
0.00151921
0.00170125
0.00191196
0.00214953
0.00241385
0.00271032
0.00305107
0.00346047
0.00398508
0.0046909
0.00564419
0.00688275
0.00840006
0.0101467
0.0120377
0.0139614
0.0157782
0.0173291
0.0184385
0.0190619
0.0192044
0.0188988
0.0182009
0.0172789
0.0163343
0.0154426
0.0145891
0.013782
0.0130306
0.0123432
0.0117239
0.0111766
0.0107036
0.0103057
0.0099848
0.00974206
0.00958431
0.00951528
0.00955679
0.00971527
0.010053
0.0105608
0.0114089
0.0124556
0.0140473
0.0152033
0.312095
0.155874
0.0770561
0.0376949
0.018959
0.00991303
0.00549017
0.00322498
0.00208881
0.00154223
0.00133534
0.00130734
0.00137653
0.00150019
0.00166257
0.00185831
0.00208611
0.00234648
0.00264091
0.00297573
0.00336274
0.00382551
0.00441038
0.00518599
0.00622233
0.00756012
0.00919244
0.0110637
0.0130757
0.0150991
0.0169722
0.0185099
0.0195306
0.0200138
0.019978
0.0194695
0.0185996
0.0175736
0.0165585
0.015603
0.014683
0.0138009
0.0129777
0.0122268
0.0115522
0.0109553
0.0104353
0.00999019
0.00961932
0.00932174
0.00910224
0.00896283
0.00892174
0.00898231
0.00919732
0.0095513
0.0101906
0.0109633
0.0121835
0.0129439
0.307025
0.153889
0.0777201
0.0393481
0.0205119
0.011102
0.00632461
0.00379215
0.00247048
0.00180629
0.00153427
0.00148062
0.00154631
0.00167649
0.00184993
0.00205983
0.00230567
0.0025901
0.00291594
0.00329036
0.00372493
0.00424275
0.00489001
0.00573844
0.0068618
0.00830306
0.010053
0.012047
0.0141709
0.0162767
0.0181805
0.0196693
0.0205726
0.0208891
0.0206525
0.0199396
0.0189215
0.0177986
0.0167082
0.0156827
0.0146963
0.0137512
0.0128732
0.012077
0.0113656
0.0107375
0.0101891
0.00971519
0.00931288
0.00897922
0.00871716
0.00852747
0.00842578
0.00841369
0.00853693
0.0087771
0.00926139
0.00983845
0.0107901
0.0112978
0.303674
0.152713
0.0784446
0.0408422
0.0219623
0.0122744
0.00720131
0.00442752
0.00292435
0.00213574
0.00179083
0.00170279
0.00176117
0.0018964
0.00208061
0.00230486
0.00256921
0.00287842
0.00323646
0.00365131
0.00413438
0.00470852
0.00541967
0.00634278
0.00755501
0.00910066
0.0109664
0.0130762
0.0152979
0.0174651
0.0193718
0.020777
0.0215353
0.0216618
0.0212105
0.0203125
0.0191638
0.0179481
0.0167792
0.0156812
0.0146312
0.0136329
0.0127131
0.0118857
0.0111517
0.0105071
0.00994499
0.00945754
0.00903914
0.00868496
0.00839619
0.00817258
0.0080278
0.00796254
0.00801726
0.00817248
0.00854038
0.00897455
0.00972965
0.0100703
0.301465
0.1521
0.0792097
0.0421954
0.0232993
0.013401
0.00808866
0.00510776
0.00343695
0.00252443
0.00210149
0.00197325
0.00202068
0.00215973
0.00235451
0.00259312
0.00287603
0.00321027
0.00360079
0.00405645
0.00458853
0.00521974
0.00599549
0.00699374
0.00829448
0.00994225
0.0119181
0.0141325
0.0164341
0.0186389
0.0205187
0.0218073
0.0223954
0.0223121
0.0216539
0.020592
0.0193253
0.0180194
0.0167711
0.0156009
0.0144912
0.0134477
0.0124961
0.0116481
0.0109028
0.0102531
0.0096893
0.00920068
0.008779
0.00841739
0.00811526
0.00787141
0.00769791
0.00759501
0.00759923
0.007691
0.00797096
0.00829898
0.00890828
0.00913471
0.30002
0.151876
0.0799978
0.0434253
0.0245215
0.0144621
0.00895998
0.00580909
0.00399199
0.00296336
0.00246135
0.0022899
0.00232374
0.00246602
0.00267153
0.00292455
0.00322577
0.0035848
0.00400763
0.00450404
0.00508519
0.00577362
0.00661379
0.00768622
0.00907289
0.0108175
0.0128939
0.0151981
0.0175587
0.0197755
0.021597
0.0227385
0.0231334
0.0228365
0.0219897
0.0207816
0.0194064
0.0180128
0.0166858
0.0154457
0.0142809
0.013199
0.0122231
0.0113627
0.0106144
0.00996862
0.0094126
0.00893287
0.00851852
0.00816052
0.00785639
0.00760391
0.00741376
0.00728594
0.00725403
0.00729885
0.00751222
0.00776044
0.00826016
0.00840603
0.299084
0.151914
0.0807934
0.0445481
0.0256336
0.0154466
0.00979454
0.00650906
0.00457122
0.00344048
0.0028633
0.00264843
0.00266796
0.00281357
0.00303091
0.00329877
0.00361792
0.00400117
0.00445568
0.00499235
0.0056222
0.00636744
0.00727106
0.0084153
0.0098832
0.0117164
0.0138809
0.0162568
0.0186529
0.0208543
0.0225844
0.0235516
0.0237403
0.0232413
0.0222241
0.0208848
0.0194086
0.0179304
0.0165272
0.0152208
0.0140058
0.012891
0.0118969
0.0110301
0.0102852
0.00964997
0.009109
0.00864612
0.00824774
0.00790256
0.00760608
0.00735492
0.00715836
0.00701629
0.0069599
0.00697081
0.00713388
0.00732171
0.00773797
0.0078255
0.298488
0.152124
0.0815836
0.0455778
0.0266438
0.01635
0.0105778
0.00718814
0.00515582
0.00394119
0.00329737
0.00304206
0.00304876
0.00319967
0.00343036
0.00371454
0.00405148
0.00445822
0.00494338
0.00551944
0.00619728
0.00699839
0.00796382
0.0091763
0.0107188
0.01263
0.0148669
0.0172937
0.0196998
0.0218567
0.0234604
0.0242332
0.0242196
0.0235338
0.0223631
0.0209051
0.0193348
0.0177758
0.0163001
0.0149321
0.0136719
0.0125292
0.0115216
0.0106531
0.00991611
0.00929618
0.00877555
0.00833551
0.00795987
0.007635
0.00735425
0.00711286
0.00691868
0.00677139
0.00670021
0.00668771
0.0068132
0.00695529
0.0073072
0.00735169
0.298118
0.15244
0.0823579
0.046526
0.027562
0.0171731
0.0113009
0.0078308
0.00572798
0.00444938
0.00375101
0.0034613
0.00345867
0.00361892
0.00386711
0.00416907
0.00452444
0.00495407
0.00546862
0.00608287
0.00680771
0.00766338
0.00868854
0.00996475
0.0115737
0.0135498
0.015841
0.0182952
0.0206836
0.0227619
0.0242075
0.024785
0.0245778
0.0237209
0.0224123
0.0208466
0.0191887
0.0175536
0.0160103
0.014586
0.0132857
0.0121197
0.0111025
0.0102357
0.00950986
0.00890846
0.0084117
0.00799869
0.00765078
0.00735206
0.00709359
0.00686906
0.00668471
0.00653992
0.00646207
0.00643481
0.00653284
0.00664054
0.00694236
0.00695482
0.297897
0.152817
0.0831078
0.0474023
0.0283981
0.0179199
0.0119603
0.00842608
0.0062723
0.00494884
0.00420988
0.00389417
0.00388755
0.00406287
0.00433451
0.00465876
0.00503459
0.00548582
0.00602842
0.00667945
0.00745012
0.00835882
0.00944146
0.0107763
0.0124423
0.0144684
0.0167912
0.0192443
0.0215856
0.0235579
0.024825
0.0252112
0.0248216
0.0238095
0.0223769
0.0207135
0.0189745
0.0172688
0.0156635
0.0141888
0.0128538
0.0116688
0.0106456
0.00978333
0.00907074
0.00848979
0.00801896
0.00763551
0.00731865
0.00705028
0.00681914
0.00661721
0.00644892
0.00631317
0.00623551
0.00620073
0.00627946
0.00636183
0.00662438
0.0066132
0.297772
0.153224
0.0838272
0.0482145
0.029162
0.0185965
0.012556
0.00896754
0.00677681
0.00542463
0.00465906
0.00432695
0.00432288
0.00452024
0.00482308
0.00517626
0.00557626
0.00604986
0.00661956
0.00730575
0.00812064
0.00908009
0.010217
0.0116037
0.0133152
0.0153736
0.0177048
0.0201296
0.0223966
0.02424
0.0253172
0.0255177
0.0249586
0.0238063
0.0222625
0.0205104
0.0186971
0.0169267
0.0152656
0.0137469
0.0123827
0.0111832
0.0101573
0.00930189
0.0086041
0.00804456
0.00760047
0.00724766
0.0069636
0.00672821
0.00652797
0.00635304
0.00620583
0.00608454
0.00601285
0.00597664
0.00604281
0.00610721
0.00633896
0.0063108
0.297709
0.153639
0.0845118
0.048969
0.0298625
0.0192099
0.0130911
0.00945274
0.00723336
0.00586434
0.0050843
0.00474517
0.00475043
0.00497724
0.00532041
0.00571134
0.0061413
0.00663946
0.00723582
0.00795555
0.00881284
0.0098207
0.0110084
0.0124398
0.0141841
0.0162563
0.0185724
0.020943
0.0231113
0.0248068
0.0256894
0.0257115
0.0249962
0.0237176
0.0220742
0.0202419
0.0183609
0.0165323
0.0148223
0.0132663
0.0118787
0.0106693
0.00964408
0.00879783
0.008116
0.00757819
0.00716067
0.00683837
0.00658743
0.00638615
0.00621893
0.00607403
0.00595173
0.00584928
0.00578833
0.0057558
0.005815
0.00586755
0.00607528
0.0060357
0.297685
0.154046
0.0851587
0.0496707
0.0305073
0.0197674
0.0135704
0.00988252
0.00763771
0.00625882
0.00547328
0.00513492
0.00515531
0.00541831
0.00581132
0.00625069
0.00671879
0.0072456
0.00786915
0.00862109
0.00951896
0.010573
0.011808
0.0132767
0.015041
0.0171084
0.0193865
0.0216787
0.0237274
0.0252597
0.0259479
0.0258003
0.0249418
0.0235498
0.021817
0.0199124
0.0179708
0.0160908
0.0143389
0.0127525
0.0113477
0.0101333
0.00911245
0.00827765
0.00761284
0.00709669
0.00670494
0.00641204
0.00619333
0.00602594
0.00589243
0.00577929
0.00568449
0.00560418
0.00555778
0.00553317
0.00559007
0.00563593
0.00582522
0.00577901
0.297683
0.154438
0.0857666
0.0503242
0.031103
0.0202761
0.014
0.0102601
0.00798905
0.00660257
0.00581654
0.00548399
0.00552323
0.00582718
0.00627865
0.00677809
0.00729478
0.00785658
0.00850935
0.0092928
0.0102296
0.011328
0.012607
0.0141062
0.0158782
0.0179228
0.0201412
0.0223336
0.0242452
0.0256018
0.0260998
0.0257921
0.0248028
0.0233087
0.0214958
0.0195265
0.017531
0.0156066
0.0138202
0.0122107
0.0107952
0.00958096
0.00856846
0.00774769
0.00710105
0.0066064
0.00623922
0.00597392
0.00578557
0.00565063
0.00555025
0.00546928
0.0054034
0.00534743
0.00531846
0.00530518
0.00536366
0.00540719
0.00558271
0.0055341
0.297694
0.154808
0.0863351
0.0509328
0.0316554
0.0207425
0.014386
0.0105905
0.00828936
0.00689358
0.00610804
0.00578294
0.00584175
0.00618822
0.00670428
0.00727502
0.00785237
0.00845791
0.00914381
0.0099591
0.0109335
0.012075
0.0133952
0.014919
0.0166875
0.018693
0.0208326
0.0229066
0.0246669
0.025837
0.0261528
0.0256948
0.024586
0.0229999
0.0211152
0.019088
0.0170454
0.0150837
0.0132705
0.0116454
0.010226
0.00901762
0.0080178
0.00721396
0.00658687
0.00611364
0.00576969
0.00552977
0.0053692
0.00526431
0.00519531
0.0051457
0.00510896
0.00507848
0.00506887
0.00506954
0.00513275
0.00517765
0.00534336
0.00529613
0.297712
0.155153
0.0868646
0.0515
0.0321691
0.0211723
0.0147345
0.0108792
0.00854272
0.00713293
0.00634522
0.0060257
0.00610138
0.0064879
0.00707062
0.00772167
0.00837222
0.00903227
0.00975735
0.0106062
0.0116175
0.012801
0.0141607
0.0157046
0.0174607
0.0194131
0.0214574
0.0233981
0.0249963
0.0259716
0.0261148
0.025516
0.0242977
0.0226283
0.020679
0.0186005
0.0165175
0.0145259
0.0126937
0.0110608
0.00964452
0.00844808
0.00746563
0.00668197
0.00607614
0.00562448
0.0053025
0.00508557
0.00494974
0.00487175
0.00483141
0.00481128
0.00480279
0.00479785
0.00480864
0.0048251
0.00489552
0.00494483
0.00510412
0.00506164
0.297731
0.155472
0.0873565
0.0520283
0.0326481
0.0215703
0.0150512
0.0111324
0.0087545
0.00732414
0.00652878
0.00620984
0.00629628
0.006716
0.00736224
0.00809846
0.00883346
0.00955996
0.0103323
0.0112179
0.0122663
0.0134913
0.0148892
0.0164512
0.0181884
0.0200771
0.0220133
0.0238093
0.0252375
0.0260148
0.0259936
0.0252626
0.0239436
0.0221983
0.0201907
0.0180671
0.0159504
0.0139363
0.0120931
0.0104606
0.00905491
0.00787669
0.00691663
0.00615671
0.00557415
0.00514452
0.00484345
0.00464719
0.00453287
0.00447816
0.00446304
0.00446956
0.0044874
0.00450703
0.00453834
0.0045717
0.00465115
0.00470735
0.00486309
0.00482831
0.297751
0.155766
0.0878122
0.0525205
0.0330957
0.0219408
0.0153412
0.0113559
0.00893074
0.00747242
0.0066621
0.00633635
0.00642459
0.00686655
0.00756736
0.00838772
0.00921505
0.0100197
0.0108487
0.0117761
0.0128624
0.0141289
0.0155644
0.0171449
0.0188601
0.0206782
0.0224978
0.0241418
0.0253944
0.0259751
0.0257961
0.0249408
0.0235282
0.0217132
0.019653
0.0174903
0.0153465
0.0133177
0.0114719
0.00984824
0.00846085
0.00730743
0.00637501
0.00564262
0.00508561
0.00467875
0.00439786
0.00422016
0.00412415
0.00408889
0.00409504
0.00412467
0.00416603
0.0042083
0.00425943
0.00431008
0.00439977
0.00446472
0.00461929
0.00459475
0.297768
0.156035
0.0882337
0.052979
0.0335147
0.0222872
0.0156089
0.0115552
0.00907762
0.007584
0.00675059
0.00640915
0.00648827
0.00693822
0.00767904
0.00857554
0.00949756
0.0103897
0.0112853
0.0122606
0.013387
0.014695
0.0161688
0.01777
0.0194637
0.0212088
0.0229075
0.0243963
0.0254693
0.0258583
0.0255279
0.024555
0.0230551
0.0211757
0.0190681
0.0168719
0.0147081
0.0126727
0.0108331
0.00922692
0.00786586
0.006744
0.00584457
0.00514362
0.00461462
0.00423154
0.00397039
0.00380947
0.0037288
0.00370916
0.0037324
0.00378109
0.00384246
0.00390457
0.00397405
0.00404176
0.00414231
0.00421728
0.0043726
0.0043604
0.297784
0.156281
0.0886231
0.0534059
0.0339073
0.0226123
0.015858
0.011735
0.00920103
0.00766548
0.00680087
0.00643439
0.00649255
0.00693423
0.00769592
0.00865328
0.00966512
0.0106498
0.0116206
0.0126505
0.0138195
0.0151693
0.0166827
0.0183083
0.0199848
0.0216592
0.0232379
0.0245717
0.0254615
0.0256676
0.0251927
0.0241086
0.0225265
0.0205872
0.018437
0.0162134
0.0140369
0.0120035
0.0101794
0.00859991
0.00727336
0.00618989
0.0053288
0.00466317
0.00416465
0.0038065
0.00356497
0.00341939
0.00335146
0.00334384
0.00337999
0.00344342
0.00352076
0.00359983
0.00368569
0.00376896
0.00388038
0.00396605
0.00412356
0.00412532
0.297797
0.156505
0.0889828
0.0538036
0.0342758
0.0229186
0.0160916
0.0118996
0.00930636
0.00772336
0.00682018
0.00641965
0.00644514
0.00686172
0.00762217
0.00861864
0.00970725
0.010783
0.0118344
0.0129246
0.0141391
0.0155307
0.0170855
0.01874
0.0204067
0.0220177
0.023482
0.0246647
0.0253691
0.0254043
0.0247923
0.0236027
0.021943
0.0199482
0.0177603
0.0155157
0.0133347
0.0113127
0.00951395
0.00797055
0.00668681
0.0056485
0.00483091
0.00420428
0.00373862
0.00340658
0.00318472
0.00305343
0.00299603
0.00299722
0.00304231
0.00311615
0.00320512
0.00329816
0.00339785
0.00349462
0.00361619
0.00371263
0.0038733
0.00389015
0.297807
0.15671
0.0893149
0.0541739
0.0346218
0.0232079
0.0163121
0.0120523
0.00939832
0.00776368
0.00681574
0.0063732
0.00635535
0.00673079
0.00746693
0.00847605
0.00962032
0.0107774
0.0119096
0.0130637
0.0143255
0.0157584
0.0173554
0.0190427
0.0207101
0.0222694
0.0236299
0.0246679
0.025191
0.0250672
0.0243259
0.0230368
0.021304
0.019258
0.017038
0.0147797
0.0126032
0.0106028
0.00883991
0.00734238
0.00610977
0.00512316
0.0043539
0.00376961
0.00333892
0.00303407
0.00283204
0.00271425
0.00266563
0.00267289
0.00272335
0.00280344
0.00289975
0.00300354
0.00311414
0.00322219
0.0033524
0.00345911
0.00362345
0.00365603
0.297815
0.156897
0.0896218
0.0545191
0.0349469
0.0234817
0.0165215
0.012196
0.00948087
0.00779178
0.00679434
0.00630329
0.00623315
0.00655339
0.00724318
0.00823614
0.00940831
0.0106286
0.0118344
0.0130518
0.0143607
0.0158327
0.0174711
0.0191936
0.0208737
0.0223966
0.0236677
0.0245688
0.024923
0.0246525
0.0237907
0.0224083
0.0206073
0.0185151
0.0162696
0.014006
0.0118444
0.00987685
0.00816097
0.00671929
0.00554596
0.00461718
0.00390057
0.00336146
0.00296743
0.00269063
0.00250856
0.00240371
0.00236253
0.00237363
0.00242639
0.00250897
0.00260927
0.00271988
0.00283821
0.00295499
0.00309189
0.00320788
0.00337599
0.00342442
0.29782
0.157068
0.0899056
0.0548408
0.0352527
0.0237413
0.0167212
0.0123329
0.00955723
0.00781224
0.00676205
0.00621769
0.00608842
0.0063422
0.00696635
0.00791468
0.00908271
0.0103401
0.0116043
0.0128782
0.0142306
0.015737
0.0174126
0.0191711
0.0208743
0.0223782
0.023577
0.0243509
0.0245566
0.0241535
0.0231812
0.0217125
0.0198492
0.0177173
0.0154543
0.0131958
0.0110608
0.00913854
0.00748134
0.00610552
0.00499926
0.00413386
0.00347351
0.00298175
0.00262557
0.00237734
0.00221526
0.00212292
0.00208816
0.00210139
0.00215394
0.00223574
0.00233692
0.00245074
0.00257357
0.00269636
0.00283758
0.0029616
0.00313317
0.00319714
0.297824
0.157225
0.0901685
0.0551411
0.0355404
0.0239878
0.0169125
0.0124645
0.00962993
0.00782878
0.00672406
0.00612331
0.00593031
0.00610958
0.00665276
0.00753083
0.00866152
0.00992399
0.0112233
0.0125399
0.013927
0.0154596
0.0171638
0.0189561
0.020688
0.02219
0.0233336
0.0239988
0.0240796
0.0235605
0.0224895
0.0209434
0.0190254
0.0168621
0.0145918
0.0123506
0.0102558
0.00839229
0.00680588
0.00550573
0.0044737
0.00367637
0.00307506
0.00263208
0.00231433
0.00209477
0.00195252
0.00187228
0.0018432
0.0018573
0.00190773
0.00198604
0.00208542
0.00219922
0.00232344
0.00244945
0.00259282
0.00272304
0.00289743
0.00297618
0.297827
0.157369
0.0904125
0.0554216
0.0358113
0.0242221
0.0170962
0.0125922
0.00970089
0.00784433
0.00668459
0.00602602
0.00576687
0.0058668
0.00631831
0.00710527
0.0081674
0.00939993
0.0107043
0.0120425
0.0134495
0.0149954
0.0167152
0.0185343
0.0202951
0.0218069
0.0229144
0.023497
0.023478
0.0228618
0.021706
0.0200935
0.0181309
0.0159472
0.0136825
0.0114732
0.00943387
0.00764353
0.00614012
0.0049249
0.00397334
0.00324774
0.00270724
0.0023136
0.00203421
0.00184299
0.00172017
0.0016516
0.00162766
0.00164177
0.00168871
0.00176148
0.00185691
0.00196787
0.00209063
0.00221718
0.00236065
0.00249495
0.00267126
0.00276367
0.297828
0.157502
0.0906395
0.0556839
0.0360666
0.0244449
0.0172729
0.0127167
0.00977148
0.0078611
0.00664697
0.00593054
0.00560476
0.00562354
0.00597734
0.00665827
0.00762542
0.00879368
0.0100691
0.0114011
0.012807
0.014348
0.0160656
0.0178978
0.0196822
0.0212102
0.0223007
0.0228287
0.0227363
0.0220442
0.0208203
0.0191551
0.017161
0.0149711
0.0127281
0.0105678
0.00860091
0.00689875
0.00549023
0.00436825
0.00350214
0.00285067
0.00237164
0.00202704
0.0017853
0.00162166
0.00151762
0.00146023
0.00144099
0.00145457
0.00149714
0.00156362
0.0016529
0.00175861
0.00187743
0.00200207
0.00214372
0.00227994
0.00245713
0.00256182
0.297827
0.157625
0.0908511
0.0559297
0.0363073
0.024657
0.0174431
0.0128387
0.00984263
0.00788064
0.00661363
0.00584051
0.00544924
0.00538763
0.00564196
0.00620822
0.00706067
0.00813437
0.00934631
0.0106403
0.0120184
0.0135312
0.0152231
0.0170481
0.0188439
0.020389
0.0214786
0.0219781
0.0218392
0.0210943
0.0198217
0.0181212
0.0161126
0.0139344
0.0117323
0.00964074
0.0077644
0.0061655
0.00486288
0.00384102
0.0030638
0.00248743
0.00206938
0.00177266
0.00156727
0.00143004
0.00134393
0.00129714
0.00128225
0.00129498
0.00133271
0.0013924
0.00147413
0.00157279
0.00168563
0.00180624
0.00194434
0.00208035
0.00225741
0.0023728
0.297827
0.15774
0.0910491
0.0561605
0.0365347
0.024859
0.0176073
0.0129584
0.0099149
0.00790398
0.00658629
0.00575854
0.00530419
0.00516498
0.00532167
0.0057705
0.00649612
0.00745174
0.0085687
0.00979173
0.0111122
0.0125691
0.0142074
0.0159978
0.0177847
0.0193405
0.0204395
0.020933
0.0207735
0.0200007
0.0187019
0.0169869
0.0149847
0.0128403
0.0107016
0.00870046
0.00693351
0.00545225
0.00426498
0.00334825
0.00266152
0.00215971
0.00180103
0.00155024
0.00137938
0.00126712
0.00119789
0.00116108
0.00115022
0.00116197
0.00119471
0.0012474
0.0013208
0.00141115
0.00151648
0.00163135
0.00176444
0.00189855
0.00207432
0.00219873
0.297825
0.157847
0.091235
0.0563776
0.0367496
0.0250516
0.0177657
0.0130762
0.00998856
0.00793171
0.00656601
0.00568636
0.00517227
0.00495972
0.00502334
0.00535696
0.00595108
0.00677336
0.00777025
0.00889218
0.0101244
0.0114958
0.0130494
0.0147723
0.016522
0.0180728
0.0191834
0.0196877
0.0195316
0.0187561
0.017456
0.0157513
0.0137808
0.0116959
0.00964604
0.00775812
0.00611895
0.0047681
0.00370338
0.00289444
0.00229782
0.00186853
0.00156656
0.0013591
0.00122057
0.00113161
0.00107816
0.00105069
0.00104359
0.00105433
0.00108217
0.00112796
0.0011927
0.001274
0.00137078
0.00147863
0.00160558
0.00173657
0.0019099
0.00204161
0.297823
0.157949
0.0914102
0.0565824
0.0369531
0.0252352
0.0179185
0.0131919
0.0100637
0.00796405
0.00655334
0.00562497
0.00505505
0.00477437
0.0047514
0.00497584
0.00544028
0.00612257
0.00698272
0.00797942
0.00909591
0.010353
0.0117904
0.0134095
0.015087
0.0166079
0.0177224
0.0182467
0.0181136
0.0173603
0.0160857
0.0144194
0.0125094
0.010513
0.00857912
0.00682732
0.00533268
0.00412233
0.0031844
0.0024833
0.00197437
0.00161414
0.00136535
0.00119815
0.00108953
0.00102215
0.000983337
0.000964587
0.000961034
0.000970865
0.000994114
0.00103329
0.0010894
0.00116133
0.00124898
0.00134897
0.001469
0.00159595
0.00176589
0.00190329
0.29782
0.158045
0.0915759
0.0567761
0.0371462
0.0254105
0.0180661
0.0133057
0.0101402
0.00800097
0.00654843
0.00557476
0.00495326
0.0046102
0.0045082
0.00463206
0.00497367
0.00551706
0.00623298
0.00708871
0.00806835
0.00918674
0.0104794
0.0119588
0.0135255
0.0149834
0.0160838
0.0166279
0.0165317
0.0158231
0.0146017
0.013004
0.0111862
0.00930912
0.00751833
0.00592372
0.0045872
0.00352373
0.00271338
0.0021174
0.00169183
0.00139604
0.00119627
0.00106597
0.000984794
0.000937297
0.000912114
0.000901565
0.000901421
0.000910507
0.0009298
0.000962651
0.00101037
0.00107298
0.0011513
0.00124298
0.00135565
0.00147792
0.00164382
0.00178546
0.297818
0.158136
0.0917334
0.0569599
0.0373297
0.0255781
0.0182085
0.0134175
0.0102179
0.00804226
0.0065511
0.00553567
0.00486697
0.00446741
0.00429443
0.00432772
0.0045568
0.00496857
0.00554124
0.00624962
0.00707991
0.00804264
0.00916859
0.0104772
0.0118952
0.0132524
0.0143116
0.0148655
0.0148126
0.0141673
0.0130257
0.0115278
0.00983451
0.00810703
0.00648434
0.00506415
0.00389465
0.0029799
0.00229422
0.00179802
0.00144986
0.00121301
0.00105774
0.000960947
0.000904848
0.000875748
0.000863356
0.000860651
0.000863896
0.000872508
0.000888533
0.00091547
0.000955224
0.00100879
0.00107787
0.00116113
0.00126632
0.00138356
0.00154513
0.00168966
0.297815
0.158224
0.0918837
0.0571349
0.0375045
0.0257384
0.018346
0.0135272
0.0102965
0.00808757
0.00656096
0.0055073
0.00479571
0.00434545
0.00410952
0.00406278
0.00419151
0.00448316
0.00492049
0.00548389
0.00616175
0.00696129
0.00790801
0.0090236
0.0102616
0.0114807
0.012466
0.013011
0.0129996
0.0124308
0.0113924
0.0100235
0.00848509
0.00693425
0.00549973
0.00426524
0.00326575
0.0024966
0.00192906
0.00152506
0.00124713
0.00106325
0.000947908
0.000881384
0.000848278
0.000836388
0.000836242
0.000841255
0.000848031
0.000856563
0.000869958
0.000891538
0.000923848
0.000968787
0.00102892
0.00110389
0.0012017
0.0013138
0.00147118
0.00161728
0.297812
0.158309
0.0920279
0.0573021
0.0376714
0.025892
0.0184789
0.0136348
0.0103758
0.00813645
0.00657749