/*--------------------------------*- C++ -*----------------------------------*\
| =========                 |                                                 |
| \\      /  F ield         | OpenFOAM: The Open Source CFD Toolbox           |
|  \\    /   O peration     | Version:  2.4.0                                 |
|   \\  /    A nd           | Web:      www.OpenFOAM.org                      |
|    \\/     M anipulation  |                                                 |
\*---------------------------------------------------------------------------*/
FoamFile
{
    version     2.0;
    format      ascii;
    class       volScalarField;
    location    "1.25";
    object      p;
}
// * * * * * * * * * * * * * * * * * * * * * * * * * * * * * * * * * * * * * //

dimensions      [0 2 -2 0 0 0 0];

internalField   nonuniform List<scalar> 
6000
(
0.225057
0.219643
0.217149
0.216281
0.215398
0.214309
0.213225
0.212222
0.21128
0.210373
0.209498
0.208656
0.207845
0.207061
0.206301
0.205561
0.204837
0.204129
0.203433
0.202747
0.202071
0.201402
0.20074
0.200083
0.199433
0.198789
0.19815
0.197518
0.196893
0.196277
0.195672
0.195079
0.194502
0.193943
0.193409
0.192904
0.192436
0.192013
0.191649
0.191357
0.191157
0.191071
0.19113
0.191371
0.191841
0.192601
0.193726
0.19531
0.19747
0.200354
0.204141
0.209048
0.215339
0.223307
0.233294
0.245548
0.260486
0.277386
0.297916
0.312747
0.221118
0.218859
0.217102
0.216277
0.215464
0.214448
0.213395
0.212397
0.211447
0.210529
0.209639
0.208782
0.207957
0.207161
0.20639
0.20564
0.204908
0.204193
0.203491
0.2028
0.202118
0.201445
0.200778
0.200119
0.199465
0.198818
0.198176
0.197542
0.196915
0.196297
0.19569
0.195096
0.194517
0.193957
0.193422
0.192915
0.192446
0.192023
0.191657
0.191363
0.19116
0.191071
0.191127
0.191363
0.191828
0.192581
0.193697
0.195269
0.197416
0.200282
0.204046
0.208925
0.21518
0.223104
0.233041
0.245245
0.260159
0.277054
0.297877
0.312534
0.220966
0.219353
0.217415
0.216306
0.215429
0.214411
0.213347
0.212342
0.211395
0.210484
0.209603
0.208754
0.207936
0.207147
0.206381
0.205636
0.204909
0.204197
0.203498
0.202809
0.20213
0.201459
0.200795
0.200137
0.199485
0.198838
0.198198
0.197564
0.196938
0.19632
0.195713
0.195118
0.194538
0.193977
0.19344
0.192932
0.19246
0.192034
0.191664
0.191367
0.191159
0.191065
0.191113
0.19134
0.191794
0.192533
0.193632
0.195182
0.197299
0.200128
0.203843
0.208657
0.214826
0.222634
0.232414
0.244407
0.259041
0.275577
0.29603
0.310004
0.220313
0.218917
0.217175
0.216102
0.215284
0.214334
0.213314
0.212337
0.211411
0.210515
0.209643
0.208797
0.20798
0.207188
0.206419
0.20567
0.204938
0.204221
0.203517
0.202825
0.202142
0.201467
0.2008
0.20014
0.199486
0.198838
0.198197
0.197562
0.196936
0.196318
0.195711
0.195116
0.194536
0.193976
0.193438
0.192929
0.192456
0.192028
0.191656
0.191354
0.19114
0.191038
0.191076
0.19129
0.191726
0.192443
0.193512
0.195025
0.197094
0.19986
0.203495
0.208204
0.214235
0.221861
0.231397
0.243065
0.257254
0.273216
0.292807
0.305845
0.219756
0.218672
0.217172
0.216099
0.215261
0.21433
0.213325
0.212352
0.211428
0.210534
0.209662
0.208816
0.207997
0.207205
0.206434
0.205684
0.204951
0.204233
0.203529
0.202835
0.202152
0.201476
0.200808
0.200147
0.199493
0.198844
0.198202
0.197567
0.196939
0.196321
0.195712
0.195116
0.194535
0.193972
0.193432
0.19292
0.192443
0.192011
0.191633
0.191324
0.191102
0.190988
0.191012
0.191207
0.191621
0.192307
0.193338
0.194802
0.196808
0.199492
0.203019
0.20759
0.213438
0.220824
0.230043
0.241295
0.254926
0.27019
0.288699
0.300804
0.219287
0.218432
0.217106
0.21603
0.21518
0.214276
0.2133
0.212342
0.211427
0.210541
0.209675
0.208833
0.208016
0.207224
0.206454
0.205703
0.204969
0.204249
0.203543
0.202848
0.202163
0.201486
0.200817
0.200154
0.199498
0.198849
0.198206
0.19757
0.196941
0.196322
0.195712
0.195115
0.194532
0.193967
0.193425
0.19291
0.19243
0.191992
0.191608
0.19129
0.191057
0.19093
0.190936
0.19111
0.191495
0.192145
0.193129
0.194532
0.19646
0.199043
0.20244
0.20684
0.212465
0.219559
0.228392
0.239143
0.252107
0.266557
0.283839
0.295094
0.218883
0.21819
0.217015
0.215965
0.215115
0.214237
0.213288
0.212342
0.211435
0.210554
0.209692
0.208852
0.208036
0.207244
0.206473
0.20572
0.204984
0.204264
0.203556
0.202859
0.202172
0.201494
0.200824
0.20016
0.199503
0.198853
0.198209
0.197572
0.196943
0.196322
0.195711
0.195113
0.194528
0.193961
0.193416
0.192898
0.192413
0.19197
0.191578
0.191252
0.191007
0.190865
0.190852
0.191001
0.191354
0.191963
0.192895
0.194231
0.196071
0.198542
0.201792
0.206
0.211373
0.218136
0.226532
0.23671
0.248913
0.26244
0.27837
0.28886
0.21853
0.217957
0.216914
0.215904
0.215056
0.214198
0.213271
0.212339
0.211438
0.210563
0.209705
0.208868
0.208053
0.207261
0.20649
0.205736
0.204999
0.204277
0.203568
0.20287
0.202182
0.201502
0.200831
0.200166
0.199509
0.198857
0.198212
0.197575
0.196944
0.196322
0.19571
0.19511
0.194523
0.193954
0.193406
0.192884
0.192394
0.191945
0.191545
0.191209
0.190951
0.190792
0.190758
0.190879
0.191197
0.191762
0.192637
0.193899
0.195645
0.197993
0.201085
0.205086
0.210191
0.2166
0.224531
0.234099
0.24549
0.258026
0.272525
0.282277
0.21822
0.217737
0.216808
0.215844
0.215
0.214157
0.213252
0.212334
0.211441
0.210571
0.209718
0.208883
0.20807
0.207278
0.206506
0.205751
0.205013
0.20429
0.203579
0.20288
0.20219
0.20151
0.200837
0.200172
0.199513
0.198861
0.198215
0.197576
0.196945
0.196322
0.195708
0.195106
0.194518
0.193946
0.193395
0.192868
0.192373
0.191917
0.191508
0.191161
0.190889
0.190712
0.190654
0.190746
0.191027
0.191543
0.192356
0.193538
0.195183
0.197399
0.200321
0.204105
0.208925
0.214966
0.222415
0.231359
0.241923
0.253455
0.266512
0.275478
0.217946
0.217531
0.2167
0.215782
0.214948
0.214118
0.213233
0.212329
0.211443
0.210578
0.209729
0.208897
0.208085
0.207293
0.20652
0.205765
0.205026
0.204302
0.20359
0.202889
0.202199
0.201517
0.200843
0.200177
0.199517
0.198864
0.198217
0.197577
0.196945
0.196321
0.195706
0.195102
0.194511
0.193936
0.193381
0.192851
0.19235
0.191886
0.191468
0.191109
0.190821
0.190625
0.190542
0.190603
0.190842
0.191307
0.192053
0.193151
0.194686
0.196763
0.199506
0.203059
0.207582
0.21324
0.220195
0.228507
0.238246
0.248791
0.260451
0.268545
0.217703
0.217342
0.216592
0.21572
0.214898
0.214081
0.213214
0.212323
0.211444
0.210584
0.209739
0.208909
0.208098
0.207307
0.206534
0.205778
0.205038
0.204313
0.2036
0.202898
0.202206
0.201524
0.200849
0.200181
0.199521
0.198867
0.198219
0.197578
0.196945
0.196319
0.195702
0.195097
0.194503
0.193926
0.193367
0.192831
0.192324
0.191852
0.191425
0.191052
0.190749
0.190531
0.190422
0.190449
0.190645
0.191054
0.19173
0.192737
0.194157
0.196087
0.198641
0.201952
0.206167
0.21143
0.217879
0.225553
0.234474
0.244056
0.25439
0.261546
0.217487
0.217167
0.216487
0.215659
0.214851
0.214045
0.213194
0.212316
0.211445
0.210589
0.209748
0.208921
0.208111
0.20732
0.206547
0.205791
0.20505
0.204323
0.203609
0.202906
0.202213
0.20153
0.200854
0.200186
0.199524
0.198869
0.19822
0.197579
0.196944
0.196317
0.195698
0.195091
0.194495
0.193914
0.193351
0.19281
0.192296
0.191816
0.191378
0.190992
0.190671
0.190431
0.190294
0.190284
0.190435
0.190786
0.191387
0.192299
0.193598
0.195373
0.19773
0.20079
0.204685
0.209542
0.215477
0.222508
0.230619
0.239258
0.248347
0.254539
0.217295
0.217008
0.216386
0.2156
0.214807
0.214012
0.213175
0.212309
0.211445
0.210594
0.209756
0.208931
0.208122
0.207332
0.206558
0.205802
0.20506
0.204332
0.203617
0.202914
0.20222
0.201535
0.200859
0.200189
0.199527
0.198871
0.198221
0.197578
0.196942
0.196314
0.195694
0.195084
0.194485
0.193901
0.193334
0.192788
0.192267
0.191778
0.191328
0.190928
0.190588
0.190326
0.190159
0.190111
0.190214
0.190503
0.191026
0.191839
0.193011
0.194625
0.196777
0.199576
0.203141
0.207583
0.212995
0.219381
0.226692
0.234409
0.24233
0.24757
0.217124
0.216864
0.21629
0.215542
0.214766
0.21398
0.213157
0.212302
0.211444
0.210598
0.209763
0.20894
0.208133
0.207342
0.206569
0.205812
0.20507
0.204341
0.203625
0.20292
0.202226
0.20154
0.200863
0.200193
0.199529
0.198872
0.198222
0.197578
0.19694
0.19631
0.195689
0.195076
0.194475
0.193887
0.193316
0.192763
0.192235
0.191737
0.191276
0.19086
0.190502
0.190214
0.190016
0.189929
0.189981
0.190206
0.190648
0.191357
0.192397
0.193844
0.195783
0.198314
0.201541
0.205558
0.210441
0.21618
0.2227
0.229517
0.236343
0.240667
0.216973
0.216734
0.2162
0.215487
0.214727
0.213951
0.213139
0.212295
0.211444
0.210601
0.209769
0.208948
0.208142
0.207352
0.206579
0.205821
0.205078
0.204349
0.203632
0.202927
0.202231
0.201545
0.200866
0.200195
0.199531
0.198874
0.198222
0.197577
0.196938
0.196307
0.195683
0.195068
0.194464
0.193872
0.193296
0.192738
0.192202
0.191694
0.19122
0.190789
0.19041
0.190098
0.189867
0.189739
0.189738
0.189897
0.190254
0.190855
0.191759
0.193032
0.194753
0.197008
0.199888
0.203474
0.207823
0.212913
0.218654
0.22459
0.230387
0.233841
0.216839
0.216618
0.216118
0.215435
0.214692
0.213925
0.213122
0.212287
0.211442
0.210603
0.209774
0.208955
0.20815
0.207361
0.206587
0.205829
0.205086
0.204356
0.203639
0.202932
0.202236
0.201549
0.20087
0.200198
0.199533
0.198874
0.198222
0.197575
0.196935
0.196302
0.195676
0.195059
0.194452
0.193857
0.193275
0.192711
0.192167
0.191649
0.191163
0.190715
0.190316
0.189976
0.189712
0.189541
0.189487
0.189576
0.189845
0.190336
0.191099
0.192194
0.19369
0.195662
0.198189
0.201336
0.205146
0.209588
0.214559
0.219635
0.224461
0.227095
0.216722
0.216515
0.216043
0.215388
0.214659
0.213901
0.213107
0.21228
0.211441
0.210606
0.209779
0.208962
0.208158
0.207369
0.206595
0.205837
0.205093
0.204362
0.203644
0.202937
0.20224
0.201552
0.200872
0.2002
0.199534
0.198874
0.198221
0.197573
0.196932
0.196297
0.19567
0.19505
0.19444
0.19384
0.193254
0.192683
0.192131
0.191602
0.191102
0.190638
0.190217
0.189851
0.189552
0.189337
0.189226
0.189245
0.189424
0.1898
0.190418
0.191331
0.192597
0.194281
0.196447
0.19915
0.202418
0.206212
0.210421
0.214658
0.218563
0.220425
0.216619
0.216424
0.215976
0.215344
0.21463
0.213879
0.213093
0.212274
0.21144
0.210607
0.209783
0.208967
0.208164
0.207375
0.206602
0.205843
0.205099
0.204368
0.203649
0.202942
0.202244
0.201555
0.200875
0.200201
0.199535
0.198874
0.19822
0.197571
0.196928
0.196292
0.195662
0.19504
0.194426
0.193823
0.193231
0.192653
0.192093
0.191554
0.19104
0.190558
0.190116
0.189721
0.189387
0.189126
0.188958
0.188904
0.188991
0.18925
0.18972
0.190446
0.191477
0.192867
0.194669
0.196922
0.199645
0.20279
0.206247
0.20966
0.212689
0.213822
0.216532
0.216346
0.215918
0.215305
0.214604
0.21386
0.21308
0.212268
0.211439
0.210609
0.209786
0.208972
0.20817
0.207381
0.206608
0.205849
0.205104
0.204373
0.203654
0.202945
0.202247
0.201558
0.200876
0.200202
0.199535
0.198874
0.198218
0.197568
0.196924
0.196286
0.195654
0.195029
0.194412
0.193805
0.193207
0.192623
0.192054
0.191504
0.190976
0.190477
0.190011
0.189588
0.189217
0.18891
0.188684
0.188555
0.188547
0.188687
0.189006
0.189541
0.190334
0.191426
0.192857
0.194657
0.196831
0.199329
0.20204
0.204646
0.206835
0.207276
0.216458
0.21628
0.215867
0.215271
0.214581
0.213844
0.213069
0.212262
0.211437
0.21061
0.209789
0.208976
0.208174
0.207386
0.206613
0.205854
0.205109
0.204377
0.203657
0.202948
0.202249
0.20156
0.200878
0.200203
0.199535
0.198873
0.198216
0.197565
0.19692
0.19628
0.195646
0.195018
0.194398
0.193786
0.193183
0.192592
0.192014
0.191452
0.190911
0.190393
0.189904
0.189452
0.189044
0.18869
0.188403
0.188198
0.188094
0.188112
0.188278
0.188621
0.189171
0.189961
0.191018
0.192361
0.193984
0.195833
0.197805
0.199614
0.200993
0.200775
0.216397
0.216225
0.215825
0.215243
0.214562
0.21383
0.21306
0.212257
0.211436
0.210611
0.209791
0.208979
0.208178
0.207391
0.206617
0.205858
0.205113
0.20438
0.20366
0.202951
0.202251
0.201561
0.200878
0.200203
0.199534
0.198871
0.198214
0.197562
0.196915
0.196273
0.195637
0.195007
0.194383
0.193766
0.193158
0.19256
0.191973
0.1914
0.190843
0.190307
0.189795
0.189313
0.188867
0.188465
0.188118
0.187836
0.187634
0.187529
0.18754
0.187686
0.187991
0.188476
0.189157
0.190038
0.191108
0.192308
0.193544
0.194567
0.195158
0.194303
0.216349
0.216182
0.215791
0.21522
0.214546
0.213819
0.213053
0.212254
0.211435
0.210612
0.209793
0.208982
0.208181
0.207394
0.20662
0.205861
0.205115
0.204383
0.203662
0.202952
0.202253
0.201562
0.200879
0.200203
0.199533
0.19887
0.198211
0.197558
0.19691
0.196267
0.195628
0.194995
0.194368
0.193746
0.193133
0.192527
0.191931
0.191346
0.190775
0.19022
0.189684
0.189172
0.188688
0.188237
0.187828
0.187469
0.187168
0.186939
0.186792
0.186741
0.186799
0.186976
0.187277
0.187695
0.188208
0.188759
0.18926
0.189502
0.189321
0.187848
0.216313
0.216149
0.215766
0.215203
0.214535
0.213811
0.213047
0.212251
0.211434
0.210612
0.209794
0.208984
0.208184
0.207396
0.206623
0.205863
0.205118
0.204385
0.203664
0.202954
0.202253
0.201562
0.200879
0.200202
0.199532
0.198868
0.198209
0.197554
0.196904
0.196259
0.195619
0.194983
0.194352
0.193726
0.193107
0.192494
0.191888
0.191292
0.190706
0.190132
0.189572
0.189029
0.188506
0.188007
0.187536
0.187098
0.186698
0.186343
0.186038
0.185788
0.185597
0.185465
0.185383
0.185336
0.185291
0.18519
0.184955
0.184418
0.183474
0.181392
0.216289
0.216128
0.215749
0.215191
0.214527
0.213806
0.213044
0.212249
0.211434
0.210612
0.209795
0.208985
0.208185
0.207398
0.206624
0.205865
0.205119
0.204386
0.203664
0.202954
0.202254
0.201562
0.200878
0.200201
0.199531
0.198865
0.198205
0.19755
0.196899
0.196252
0.195609
0.19497
0.194335
0.193705
0.19308
0.19246
0.191845
0.191237
0.190636
0.190043
0.189459
0.188885
0.188324
0.187775
0.187241
0.186724
0.186224
0.185743
0.185279
0.18483
0.184389
0.183946
0.183481
0.182966
0.182361
0.181605
0.180632
0.179313
0.177608
0.17492
0.216277
0.216117
0.215741
0.215185
0.214523
0.213803
0.213042
0.212248
0.211433
0.210613
0.209795
0.208985
0.208186
0.207398
0.206625
0.205865
0.205119
0.204386
0.203665
0.202954
0.202253
0.201561
0.200877
0.2002
0.199528
0.198863
0.198202
0.197545
0.196893
0.196244
0.195599
0.194957
0.194319
0.193684
0.193053
0.192425
0.191802
0.191181
0.190565
0.189953
0.189345
0.188741
0.18814
0.187542
0.186946
0.186349
0.185749
0.185142
0.184518
0.183869
0.183179
0.182424
0.181575
0.180591
0.179423
0.178008
0.176293
0.174186
0.171713
0.168414
0.216277
0.216117
0.215741
0.215185
0.214523
0.213803
0.213042
0.212248
0.211433
0.210612
0.209795
0.208985
0.208186
0.207398
0.206625
0.205865
0.205119
0.204386
0.203664
0.202953
0.202252
0.20156
0.200876
0.200198
0.199526
0.19886
0.198198
0.19754
0.196886
0.196236
0.195588
0.194944
0.194302
0.193663
0.193026
0.192391
0.191758
0.191126
0.190495
0.189863
0.189231
0.188596
0.187956
0.187309
0.18665
0.185974
0.185275
0.18454
0.183758
0.18291
0.181969
0.180903
0.179669
0.178216
0.176482
0.174405
0.171939
0.169032
0.165781
0.161857
0.216289
0.216128
0.215749
0.215191
0.214527
0.213805
0.213044
0.212249
0.211433
0.210612
0.209794
0.208984
0.208185
0.207397
0.206624
0.205864
0.205118
0.204384
0.203663
0.202952
0.202251
0.201559
0.200874
0.200196
0.199523
0.198856
0.198194
0.197535
0.19688
0.196227
0.195578
0.194931
0.194285
0.193641
0.192999
0.192356
0.191714
0.19107
0.190424
0.189773
0.189117
0.188451
0.187772
0.187076
0.186355
0.185601
0.184801
0.183941
0.183001
0.181953
0.180763
0.179387
0.17777
0.175845
0.173545
0.170799
0.167573
0.163851
0.159799
0.155229
0.216313
0.216149
0.215766
0.215202
0.214535
0.213811
0.213047
0.212251
0.211434
0.210612
0.209794
0.208983
0.208183
0.207395
0.206622
0.205862
0.205116
0.204382
0.203661
0.20295
0.202249
0.201556
0.200871
0.200193
0.19952
0.198852
0.198189
0.197529
0.196873
0.196219
0.195567
0.194917
0.194268
0.19362
0.192971
0.192322
0.19167
0.191014
0.190353
0.189684
0.189003
0.188307
0.18759
0.186845
0.186062
0.185229
0.184331
0.183346
0.182249
0.181003
0.179566
0.177881
0.17588
0.173486
0.170615
0.167195
0.163196
0.158639
0.153758
0.148512
0.216349
0.216182
0.215791
0.21522
0.214546
0.213819
0.213053
0.212253
0.211435
0.210611
0.209792
0.208981
0.208181
0.207393
0.206619
0.205859
0.205113
0.20438
0.203658
0.202948
0.202246
0.201554
0.200869
0.20019
0.199517
0.198848
0.198184
0.197524
0.196866
0.19621
0.195556
0.194903
0.194251
0.193598
0.192944
0.192287
0.191626
0.190959
0.190283
0.189595
0.18889
0.188164
0.187409
0.186615
0.185771
0.184861
0.183865
0.182757
0.181503
0.180062
0.17838
0.176388
0.174006
0.171142
0.1677
0.163598
0.158811
0.153393
0.147647
0.141684
0.216397
0.216225
0.215825
0.215243
0.214562
0.21383
0.21306
0.212257
0.211436
0.21061
0.20979
0.208978
0.208177
0.207389
0.206615
0.205856
0.20511
0.204376
0.203655
0.202944
0.202243
0.201551
0.200865
0.200186
0.199513
0.198844
0.198179
0.197518
0.196858
0.196201
0.195545
0.19489
0.194234
0.193577
0.192917
0.192253
0.191582
0.190904
0.190213
0.189506
0.188779
0.188023
0.18723
0.186388
0.185484
0.184497
0.183405
0.182175
0.180768
0.179134
0.177208
0.174913
0.172153
0.16882
0.164805
0.160013
0.154421
0.148112
0.141454
0.134723
0.216458
0.21628
0.215867
0.215271
0.214581
0.213844
0.213069
0.212262
0.211437
0.210609
0.209788
0.208975
0.208173
0.207385
0.206611
0.205851
0.205105
0.204372
0.203651
0.202941
0.20224
0.201547
0.200862
0.200183
0.199509
0.19884
0.198174
0.197511
0.196851
0.196192
0.195534
0.194876
0.194217
0.193555
0.19289
0.192219
0.191539
0.190849
0.190144
0.189419
0.188669
0.187883
0.187053
0.186165
0.185201
0.18414
0.182952
0.181602
0.180045
0.17822
0.176055
0.17346
0.170325
0.166526
0.161935
0.156447
0.15003
0.142794
0.135166
0.127607
0.216532
0.216346
0.215918
0.215305
0.214604
0.21386
0.21308
0.212267
0.211438
0.210608
0.209785
0.208971
0.208168
0.207379
0.206605
0.205846
0.2051
0.204367
0.203647
0.202936
0.202236
0.201543
0.200858
0.200178
0.199504
0.198835
0.198169
0.197505
0.196844
0.196183
0.195523
0.194862
0.1942
0.193534
0.192863
0.192185
0.191497
0.190796
0.190077
0.189334
0.18856
0.187746
0.18688
0.185946
0.184924
0.183789
0.182508
0.181041
0.179335
0.177324
0.174924
0.172033
0.168527
0.164265
0.159099
0.152906
0.145641
0.137439
0.128774
0.120311
0.216619
0.216424
0.215976
0.215344
0.21463
0.213879
0.213092
0.212273
0.211439
0.210607
0.209781
0.208966
0.208162
0.207373
0.206599
0.20584
0.205094
0.204362
0.203641
0.202931
0.202231
0.201538
0.200853
0.200174
0.1995
0.19883
0.198163
0.197499
0.196836
0.196174
0.195512
0.194849
0.194183
0.193513
0.192836
0.192152
0.191455
0.190743
0.19001
0.18925
0.188454
0.187613
0.186711
0.185732
0.184653
0.183446
0.182075
0.180493
0.178642
0.176448
0.173818
0.170637
0.166766
0.162044
0.156303
0.149396
0.141262
0.132046
0.122264
0.112809
0.216721
0.216515
0.216043
0.215387
0.214659
0.213901
0.213106
0.21228
0.211441
0.210605
0.209777
0.20896
0.208156
0.207366
0.206592
0.205833
0.205088
0.204355
0.203635
0.202926
0.202226
0.201533
0.200848
0.200169
0.199495
0.198824
0.198157
0.197492
0.196828
0.196165
0.195501
0.194835
0.194166
0.193492
0.19281
0.192119
0.191414
0.190692
0.189945
0.189168
0.188351
0.187482
0.186546
0.185523
0.184389
0.183113
0.181653
0.179959
0.177968
0.175596
0.172741
0.169276
0.165045
0.15987
0.153555
0.145928
0.136897
0.126619
0.115625
0.105074
0.216839
0.216618
0.216118
0.215435
0.214692
0.213924
0.213122
0.212287
0.211442
0.210602
0.209773
0.208954
0.208148
0.207358
0.206584
0.205825
0.20508
0.204348
0.203629
0.20292
0.20222
0.201528
0.200843
0.200164
0.19949
0.198819
0.198151
0.197485
0.19682
0.196156
0.19549
0.194822
0.194149
0.193471
0.192785
0.192087
0.191374
0.190641
0.189882
0.189089
0.188251
0.187355
0.186386
0.185321
0.184134
0.182789
0.181244
0.179442
0.177314
0.174769
0.171696
0.167954
0.163372
0.157749
0.150862
0.142508
0.132557
0.121159
0.108845
0.097076
0.216973
0.216734
0.2162
0.215487
0.214727
0.213951
0.213138
0.212294
0.211443
0.2106
0.209767
0.208946
0.20814
0.207349
0.206575
0.205816
0.205072
0.204341
0.203621
0.202913
0.202214
0.201522
0.200837
0.200158
0.199484
0.198813
0.198145
0.197478
0.196813
0.196147
0.195479
0.194808
0.194133
0.193451
0.19276
0.192056
0.191336
0.190593
0.189821
0.189011
0.188153
0.187233
0.186231
0.185125
0.183887
0.182477
0.180849
0.178943
0.176682
0.173971
0.170686
0.166675
0.16175
0.155688
0.148235
0.139149
0.128249
0.115673
0.101913
0.0887849
0.217124
0.216864
0.21629
0.215542
0.214765
0.21398
0.213156
0.212301
0.211443
0.210596
0.209761
0.208938
0.20813
0.207339
0.206565
0.205806
0.205062
0.204332
0.203613
0.202906
0.202207
0.201516
0.200831
0.200153
0.199478
0.198807
0.198139
0.197471
0.196805
0.196137
0.195468
0.194795
0.194117
0.193432
0.192736
0.192026
0.191298
0.190546
0.189762
0.188937
0.18806
0.187114
0.186082
0.184937
0.183649
0.182177
0.18047
0.178463
0.176076
0.173204
0.169715
0.165444
0.160187
0.153695
0.145681
0.13586
0.123987
0.11017
0.0948208
0.0801688
0.217295
0.217008
0.216385
0.215599
0.214807
0.214011
0.213174
0.212308
0.211444
0.210592
0.209754
0.208929
0.208119
0.207328
0.206554
0.205796
0.205052
0.204323
0.203605
0.202898
0.202199
0.201509
0.200825
0.200146
0.199472
0.198801
0.198132
0.197464
0.196797
0.196128
0.195457
0.194783
0.194102
0.193413
0.192713
0.191997
0.191262
0.1905
0.189705
0.188866
0.18797
0.187001
0.185939
0.184758
0.183422
0.18189
0.180107
0.178005
0.175496
0.17247
0.168786
0.164266
0.158686
0.151776
0.143211
0.132656
0.119784
0.104661
0.0875593
0.0711947
0.217487
0.217167
0.216487
0.215659
0.214851
0.214044
0.213194
0.212315
0.211443
0.210588
0.209746
0.208918
0.208108
0.207316
0.206542
0.205784
0.205042
0.204313
0.203596
0.202889
0.202192
0.201502
0.200818
0.20014
0.199466
0.198795
0.198125
0.197457
0.196789
0.196119
0.195447
0.19477
0.194087
0.193395
0.19269
0.191969
0.191227
0.190457
0.18965
0.188797
0.187884
0.186893
0.185804
0.184586
0.183206
0.181617
0.179762
0.177569
0.174945
0.171772
0.167902
0.163143
0.157254
0.14994
0.140835
0.12955
0.115658
0.0991622
0.0801239
0.0618286
0.217703
0.217341
0.216592
0.21572
0.214897
0.21408
0.213213
0.212322
0.211443
0.210583
0.209737
0.208907
0.208095
0.207303
0.206529
0.205772
0.20503
0.204302
0.203586
0.20288
0.202183
0.201494
0.200811
0.200133
0.199459
0.198788
0.198119
0.19745
0.196781
0.19611
0.195437
0.194758
0.194072
0.193377
0.192668
0.191942
0.191194
0.190415
0.189599
0.188732
0.187803
0.186791
0.185675
0.184424
0.183002
0.181359
0.179436
0.177157
0.174424
0.171113
0.167066
0.16208
0.155897
0.148195
0.138565
0.126557
0.111629
0.0936957
0.072514
0.0520357
0.217946
0.217531
0.2167
0.215782
0.214947
0.214117
0.213233
0.212328
0.211441
0.210577
0.209727
0.208894
0.208081
0.207289
0.206515
0.205758
0.205017
0.20429
0.203575
0.20287
0.202174
0.201486
0.200804
0.200126
0.199453
0.198781
0.198112
0.197443
0.196773
0.196102
0.195427
0.194746
0.194058
0.19336
0.192647
0.191917
0.191162
0.190376
0.18955
0.188671
0.187726
0.186695
0.185554
0.184272
0.18281
0.181117
0.17913
0.17677
0.173935
0.170494
0.166281
0.161081
0.15462
0.146547
0.136412
0.123696
0.107721
0.0882886
0.0647357
0.0417815
0.21822
0.217736
0.216808
0.215843
0.215
0.214157
0.213252
0.212333
0.211439
0.210569
0.209716
0.20888
0.208066
0.207273
0.2065
0.205744
0.205004
0.204278
0.203564
0.20286
0.202165
0.201478
0.200796
0.200119
0.199446
0.198775
0.198105
0.197436
0.196766
0.196093
0.195417
0.194735
0.194045
0.193344
0.192628
0.191893
0.191132
0.190339
0.189504
0.188614
0.187654
0.186605
0.185441
0.18413
0.182631
0.180891
0.178845
0.17641
0.173479
0.169917
0.165549
0.16015
0.153427
0.145006
0.134388
0.120985
0.103961
0.0829761
0.0568046
0.031032
0.21853
0.217957
0.216914
0.215904
0.215056
0.214197
0.21327
0.212338
0.211437
0.210561
0.209703
0.208865
0.20805
0.207257
0.206484
0.205729
0.204989
0.204264
0.203552
0.202849
0.202155
0.201469
0.200788
0.200111
0.199438
0.198768
0.198098
0.197429
0.196758
0.196085
0.195407
0.194724
0.194032
0.193328
0.192609
0.19187
0.191104
0.190304
0.189461
0.18856
0.187587
0.186521
0.185336
0.183999
0.182466
0.180683
0.178582
0.176078
0.173059
0.169386
0.164875
0.159291
0.152326
0.143579
0.132507
0.118446
0.100384
0.077803
0.0487514
0.0197522
0.218883
0.21819
0.217014
0.215965
0.215114
0.214237
0.213287
0.212341
0.211433
0.210552
0.20969
0.208849
0.208033
0.207239
0.206467
0.205712
0.204974
0.204251
0.203539
0.202838
0.202145
0.201459
0.200779
0.200104
0.199431
0.198761
0.198091
0.197421
0.19675
0.196076
0.195398
0.194713
0.194019
0.193314
0.192592
0.191849
0.191078
0.190272
0.189421
0.188511
0.187526
0.186444
0.18524
0.183879
0.182315
0.180493
0.178342
0.175775
0.172676
0.168901
0.16426
0.158508
0.151322
0.142277
0.130783
0.116101
0.0970305
0.0728292
0.0406346
0.00791042
0.219286
0.218432
0.217105
0.216029
0.215179
0.214275
0.213299
0.21234
0.211426
0.210539
0.209673
0.20883
0.208013
0.20722
0.206448
0.205695
0.204958
0.204236
0.203526
0.202826
0.202135
0.20145
0.200771
0.200096
0.199424
0.198754
0.198084
0.197414
0.196743
0.196069
0.195389
0.194703
0.194008
0.1933
0.192575
0.191829
0.191054
0.190243
0.189385
0.188466
0.18747
0.186375
0.185153
0.18377
0.182179
0.180323
0.178127
0.175503
0.172333
0.168466
0.163709
0.157806
0.150422
0.141107
0.129231
0.113978
0.0939468
0.0681258
0.0325454
-0.00450778
0.219755
0.218671
0.217172
0.216098
0.215261
0.214329
0.213324
0.21235
0.211427
0.210532
0.209659
0.208813
0.207993
0.2072
0.206428
0.205676
0.204941
0.20422
0.203511
0.202813
0.202123
0.20144
0.200762
0.200087
0.199416
0.198747
0.198077
0.197408
0.196736
0.196061
0.195381
0.194694
0.193997
0.193287
0.19256
0.191811
0.191032
0.190216
0.189352
0.188425
0.187419
0.186312
0.185076
0.183674
0.182059
0.180172
0.177936
0.175263
0.17203
0.168084
0.163224
0.15719
0.149631
0.14008
0.127866
0.1121
0.0911844
0.0637794
0.0246141
-0.017532
0.220312
0.218916
0.217174
0.216101
0.215283
0.214334
0.213313
0.212335
0.21141
0.210513
0.20964
0.208794
0.207976
0.207183
0.206412
0.205661
0.204927
0.204207
0.2035
0.202802
0.202113
0.20143
0.200753
0.200079
0.199408
0.198738
0.198069
0.1974
0.196728
0.196053
0.195373
0.194685
0.193987
0.193276
0.192547
0.191796
0.191014
0.190194
0.189324
0.188391
0.187377
0.18626
0.18501
0.183592
0.181957
0.180044
0.177775
0.175059
0.171774
0.167761
0.162817
0.156673
0.148971
0.139225
0.12673
0.110532
0.0888537
0.0599723
0.0171447
-0.0312655
0.220965
0.219352
0.217415
0.216305
0.215429
0.21441
0.213346
0.212341
0.211394
0.210483
0.209601
0.208751
0.207932
0.207142
0.206374
0.205628
0.204898
0.204183
0.20348
0.202786
0.202101
0.201421
0.200746
0.200075
0.199405
0.198737
0.198068
0.197399
0.196727
0.196051
0.195369
0.194679
0.193979
0.193266
0.192534
0.191779
0.190993
0.190168
0.189293
0.188354
0.187333
0.186207
0.184948
0.183517
0.181866
0.179932
0.177643
0.174897
0.171574
0.167515
0.162511
0.15629
0.148485
0.138597
0.125898
0.109378
0.0871188
0.0570024
0.0107352
-0.045884
0.221117
0.218858
0.217102
0.216276
0.215463
0.214447
0.213394
0.212396
0.211446
0.210527
0.209637
0.208779
0.207953
0.207156
0.206383
0.205631
0.204897
0.204179
0.203472
0.202776
0.202088
0.201406
0.200729
0.200056
0.199385
0.198715
0.198045
0.197374
0.196701
0.196025
0.195342
0.194653
0.193952
0.193238
0.192506
0.191751
0.190964
0.190139
0.189262
0.188321
0.187297
0.186167
0.184904
0.183468
0.181809
0.179865
0.177562
0.1748
0.171456
0.16737
0.162332
0.156066
0.148201
0.138231
0.12541
0.108692
0.0860788
0.0550938
0.00619175
-0.0610623
0.225057
0.219642
0.217149
0.216281
0.215398
0.214308
0.213224
0.212221
0.211278
0.210371
0.209496
0.208652
0.20784
0.207056
0.206294
0.205552
0.204826
0.204115
0.203415
0.202724
0.20204
0.201363
0.20069
0.20002
0.199352
0.198685
0.198018
0.19735
0.196678
0.196003
0.195322
0.194633
0.193934
0.19322
0.192488
0.191732
0.190946
0.190119
0.189242
0.188299
0.187273
0.186141
0.184876
0.183443
0.181787
0.179843
0.177536
0.17477
0.171421
0.167328
0.162282
0.156004
0.148123
0.138128
0.125269
0.108484
0.0857391
0.0543992
0.00408303
-0.0713917
0.369382
0.287743
0.227768
0.199029
0.179726
0.161868
0.147427
0.137753
0.131719
0.127929
0.125603
0.124453
0.12431
0.125034
0.126595
0.129094
0.13289
0.138595
0.146912
0.140563
0.120993
0.0949431
0.0650458
0.0313319
-0.00653723
-0.0488837
-0.0963513
-0.149984
-0.211044
-0.280362
-0.355977
-0.432084
-0.499158
-0.533408
-0.521983
-0.46597
-0.383718
-0.301571
-0.226058
-0.15366
-0.0892387
-0.0377668
0.001666
0.0247868
0.0235866
0.0192987
0.0176784
0.0162534
0.0139821
0.0116541
0.00975746
0.00822136
0.00690255
0.00575415
0.00476674
0.00392143
0.00321821
0.00262311
0.00234624
0.00119238
0.364737
0.281759
0.222843
0.196119
0.177621
0.160118
0.146052
0.136701
0.130922
0.127356
0.125109
0.124012
0.1239
0.124636
0.126199
0.128692
0.132463
0.137835
0.144205
0.136796
0.116597
0.0903574
0.0606104
0.0273096
-0.00983791
-0.0510531
-0.0968474
-0.148075
-0.205422
-0.268275
-0.334198
-0.396645
-0.450084
-0.48172
-0.478831
-0.439208
-0.376831
-0.307718
-0.235249
-0.162536
-0.0969708
-0.0436339
-0.00270571
0.0218702
0.0221111
0.0185532
0.0170975
0.0158177
0.013716
0.0114876
0.00963609
0.00812962
0.00683587
0.00570649
0.00473223
0.0038952
0.00319805
0.00259493
0.0022945
0.00114798
0.357109
0.277385
0.220205
0.194611
0.176465
0.159187
0.145398
0.136281
0.130642
0.126947
0.124715
0.123623
0.123492
0.124195
0.125711
0.128132
0.131736
0.13651
0.141519
0.133718
0.113705
0.0877558
0.0584094
0.0256659
-0.0106842
-0.0507465
-0.0948674
-0.143615
-0.197251
-0.254895
-0.314226
-0.370337
-0.420483
-0.449506
-0.445134
-0.413574
-0.362054
-0.301297
-0.23469
-0.164945
-0.0997627
-0.0464825
-0.00543161
0.0197721
0.0208484
0.0178226
0.0165376
0.0153923
0.0134329
0.0112871
0.00947576
0.00799963
0.00673268
0.0056238
0.00466407
0.00383641
0.00314527
0.00253597
0.00221343
0.00115385
0.347743
0.272925
0.217154
0.192299
0.174658
0.157765
0.144299
0.135402
0.129846
0.12632
0.124167
0.123088
0.122937
0.123597
0.125043
0.127349
0.130695
0.13482
0.138451
0.130206
0.110267
0.0845545
0.0556494
0.0236009
-0.0117347
-0.0503564
-0.0924484
-0.138327
-0.187938
-0.240162
-0.292578
-0.340602
-0.381502
-0.405978
-0.406746
-0.384211
-0.342802
-0.290619
-0.231807
-0.167238
-0.103593
-0.0497447
-0.00800262
0.0178544
0.0196658
0.0171537
0.0160629
0.0150401
0.0132076
0.0111378
0.0093611
0.00790888
0.00666272
0.00556918
0.00461941
0.00379712
0.00310774
0.00249066
0.00214863
0.00112349
0.337176
0.267968
0.213864
0.189681
0.17267
0.15627
0.143174