/*--------------------------------*- C++ -*----------------------------------*\
| =========                 |                                                 |
| \\      /  F ield         | OpenFOAM: The Open Source CFD Toolbox           |
|  \\    /   O peration     | Version:  2.4.0                                 |
|   \\  /    A nd           | Web:      www.OpenFOAM.org                      |
|    \\/     M anipulation  |                                                 |
\*---------------------------------------------------------------------------*/
FoamFile
{
    version     2.0;
    format      ascii;
    class       volScalarField;
    location    "0.53";
    object      epsilon;
}
// * * * * * * * * * * * * * * * * * * * * * * * * * * * * * * * * * * * * * //

dimensions      [0 2 -3 0 0 0 0];

internalField   nonuniform List<scalar> 
6000
(
0.0973386
0.138493
0.180973
0.220958
0.255595
0.283297
0.303641
0.31708
0.3246
0.327405
0.326694
0.323533
0.318799
0.313181
0.307191
0.301195
0.295446
0.290101
0.285246
0.280908
0.277069
0.27368
0.270671
0.267968
0.265499
0.263206
0.261048
0.258998
0.257041
0.255171
0.253389
0.251694
0.250092
0.248588
0.247189
0.245901
0.244729
0.243674
0.242728
0.241876
0.241093
0.240343
0.239584
0.238766
0.237829
0.236708
0.235324
0.233586
0.231382
0.228572
0.224983
0.22039
0.214512
0.206984
0.19736
0.18503
0.169531
0.149762
0.127905
0.0987971
0.0250664
0.0270522
0.0301033
0.0338733
0.0379298
0.0418883
0.0455266
0.0487644
0.0516074
0.0541105
0.0563511
0.0584091
0.0603543
0.0622398
0.0641005
0.0659525
0.067796
0.0696181
0.0713967
0.0731047
0.0747143
0.0761996
0.0775395
0.0787178
0.0797231
0.0805486
0.0811908
0.0816498
0.0819283
0.0820321
0.081969
0.081749
0.081384
0.0808892
0.0802838
0.0795932
0.0788493
0.0780897
0.0773549
0.0766844
0.0761127
0.0756659
0.0753605
0.0752049
0.0752016
0.0753517
0.0756596
0.0761373
0.0768093
0.077717
0.0789249
0.0805302
0.082678
0.0855894
0.0896105
0.0953114
0.103644
0.116304
0.135771
0.182969
0.0219104
0.0195999
0.0179097
0.0167133
0.0158961
0.0153458
0.0149701
0.0147039
0.0145052
0.0143502
0.0142293
0.0141418
0.0140924
0.0140881
0.0141359
0.0142416
0.0144096
0.014642
0.0149389
0.0152986
0.0157168
0.0161872
0.0167015
0.0172492
0.0178183
0.0183962
0.0189699
0.0195271
0.0200566
0.0205485
0.0209946
0.0213879
0.0217224
0.0219929
0.0221955
0.0223276
0.0223897
0.0223859
0.0223256
0.0222226
0.0220951
0.0219629
0.0218458
0.0217612
0.0217237
0.0217448
0.0218344
0.0220031
0.0222649
0.0226407
0.023163
0.0238827
0.02488
0.0262846
0.028315
0.0313511
0.036105
0.0438891
0.0576104
0.0872893
0.0217582
0.0190981
0.0169124
0.0151094
0.0136187
0.0123813
0.011348
0.0104782
0.00973936
0.00910546
0.00855634
0.00807671
0.00765521
0.00728348
0.00695547
0.00666679
0.00641425
0.00619548
0.00600872
0.00585254
0.00572568
0.00562687
0.00555461
0.00550706
0.00548196
0.00547658
0.00548788
0.0055126
0.00554745
0.00558925
0.00563505
0.00568202
0.00572744
0.00576854
0.00580243
0.00582627
0.00583767
0.00583523
0.0058191
0.00579134
0.00575589
0.00571813
0.00568427
0.00566059
0.00565303
0.00566705
0.00570788
0.00578125
0.00589433
0.00605721
0.0062848
0.00659995
0.00703868
0.0076595
0.00856325
0.00992836
0.0121156
0.0157896
0.0228197
0.0370267
0.0217509
0.019066
0.0168344
0.0149634
0.0133833
0.0120402
0.0108917
0.00990393
0.00904965
0.00830679
0.00765732
0.00708653
0.00658237
0.00613495
0.0057362
0.00537944
0.0050592
0.00477095
0.00451093
0.00427603
0.00406364
0.00387155
0.00369787
0.00354091
0.00339914
0.00327114
0.00315557
0.00305118
0.00295681
0.0028714
0.00279403
0.00272385
0.0026601
0.002602
0.00254879
0.00249964
0.00245381
0.00241068
0.00236991
0.00233151
0.00229592
0.0022639
0.00223647
0.00221481
0.00220012
0.0021937
0.00219695
0.0022116
0.00224004
0.00228575
0.00235414
0.00245379
0.00259877
0.00281289
0.00313885
0.00365539
0.00452939
0.00608072
0.00929002
0.0157808
0.0217506
0.0190635
0.0168276
0.0149497
0.0133592
0.0120023
0.0108367
0.00982909
0.0089531
0.00818745
0.00751492
0.00692141
0.00639533
0.00592709
0.00550871
0.00513348
0.0047958
0.00449091
0.00421479
0.00396403
0.00373569
0.00352728
0.00333664
0.00316191
0.00300148
0.00285393
0.00271803
0.00259269
0.002477
0.00237015
0.00227146
0.00218036
0.00209636
0.00201903
0.001948
0.00188291
0.00182344
0.00176929
0.00172022
0.00167607
0.00163672
0.00160211
0.00157221
0.00154703
0.00152658
0.00151093
0.00150019
0.00149462
0.0014947
0.00150134
0.00151611
0.00154177
0.00158314
0.00164891
0.00175552
0.00193517
0.00225965
0.00287946
0.00426732
0.0072429
0.0217505
0.019063
0.0168264
0.0149476
0.0133559
0.0119972
0.0108293
0.00981883
0.00893942
0.00816985
0.007493
0.00689487
0.00636398
0.00589083
0.00546753
0.00508745
0.00474502
0.00443551
0.00415492
0.00389982
0.00366728
0.00345475
0.00326006
0.00308132
0.00291689
0.00276535
0.00262547
0.00249618
0.00237657
0.00226586
0.00216338
0.00206858
0.001981
0.00190024
0.00182596
0.00175787
0.00169573
0.00163928
0.00158831
0.00154262
0.00150199
0.00146623
0.00143512
0.00140841
0.00138588
0.00136728
0.00135238
0.00134101
0.00133308
0.00132866
0.00132807
0.00133212
0.00134237
0.00136193
0.00139697
0.00146021
0.0015811
0.00182789
0.00241656
0.00379887
0.0217505
0.0190628
0.0168258
0.0149465
0.0133545
0.0119955
0.0108272
0.00981625
0.00893631
0.00816615
0.00748859
0.00688968
0.00635793
0.00588386
0.00545958
0.00507847
0.00473498
0.00442441
0.00414274
0.00388658
0.00365297
0.0034394
0.00324368
0.00306394
0.00289853
0.00274603
0.00260522
0.00247504
0.00235457
0.00224304
0.00213979
0.00204425
0.00195597
0.00187456
0.00179968
0.00173105
0.00166842
0.00161156
0.00156025
0.00151426
0.00147337
0.00143734
0.0014059
0.00137877
0.00135564
0.00133619
0.00132012
0.00130712
0.00129695
0.00128943
0.0012845
0.00128232
0.00128342
0.00128896
0.00130142
0.00132608
0.00137509
0.0014792
0.00173314
0.00238543
0.0217505
0.0190626
0.0168253
0.0149458
0.0133535
0.0119943
0.0108258
0.00981472
0.00893466
0.00816437
0.0074867
0.00688766
0.00635578
0.00588157
0.00545713
0.00507585
0.00473219
0.00442142
0.00413956
0.00388319
0.00364938
0.0034356
0.00323967
0.00305972
0.0028941
0.0027414
0.0026004
0.00247004
0.0023494
0.00223771
0.0021343
0.00203864
0.00195024
0.00186872
0.00179376
0.00172506
0.00166238
0.00160549
0.00155417
0.00150818
0.0014673
0.00143126
0.00139978
0.00137257
0.00134931
0.00132967
0.0013133
0.00129988
0.00128911
0.00128074
0.00127461
0.00127067
0.0012691
0.00127043
0.00127583
0.00128783
0.00131187
0.00136234
0.00148006
0.00179804
0.0217505
0.0190624
0.0168249
0.0149451
0.0133527
0.0119933
0.0108247
0.00981349
0.00893335
0.00816301
0.00748529
0.00688623
0.00635432
0.00588009
0.00545564
0.00507436
0.00473068
0.00441991
0.00413804
0.00388165
0.00364782
0.00343403
0.00323808
0.00305811
0.00289248
0.00273976
0.00259874
0.00246836
0.00234771
0.00223602
0.00213261
0.00203694
0.00194855
0.00186705
0.0017921
0.00172343
0.00166078
0.00160394
0.00155266
0.00150672
0.00146588
0.00142989
0.00139845
0.00137126
0.001348
0.00132833
0.00131191
0.0012984
0.00128749
0.00127891
0.00127246
0.00126804
0.00126572
0.0012658
0.00126902
0.00127687
0.00129222
0.00132251
0.00138553
0.00155135
0.0217504
0.0190623
0.0168246
0.0149446
0.013352
0.0119925
0.0108237
0.00981245
0.00893224
0.00816185
0.0074841
0.00688502
0.00635311
0.00587888
0.00545444
0.00507316
0.0047295
0.00441875
0.00413689
0.00388053
0.00364672
0.00343294
0.00323702
0.00305706
0.00289145
0.00273875
0.00259776
0.0024674
0.00234677
0.00223509
0.00213171
0.00203607
0.00194771
0.00186624
0.00179132
0.00172269
0.00166009
0.00160329
0.00155206
0.00150617
0.00146539
0.00142944
0.00139805
0.0013709
0.00134767
0.00132802
0.0013116
0.00129809
0.00128716
0.00127854
0.00127201
0.00126747
0.00126494
0.00126465
0.00126718
0.00127361
0.00128585
0.00130832
0.00134922
0.00144578
0.0217504
0.0190622
0.0168243
0.0149442
0.0133514
0.0119917
0.0108229
0.00981155
0.00893128
0.00816084
0.00748307
0.00688397
0.00635206
0.00587783
0.00545339
0.00507213
0.00472849
0.00441775
0.00413592
0.00387958
0.00364579
0.00343203
0.00323613
0.0030562
0.00289061
0.00273794
0.00259696
0.00246663
0.00234602
0.00223437
0.00213102
0.00203541
0.00194708
0.00186564
0.00179076
0.00172216
0.0016596
0.00160284
0.00155166
0.00150582
0.00146508
0.00142918
0.00139782
0.00137071
0.00134751
0.00132789
0.0013115
0.001298
0.00128707
0.00127845
0.00127191
0.00126734
0.00126475
0.00126434
0.00126661
0.0012725
0.00128349
0.00130267
0.00133423
0.00139869
0.0217504
0.0190622
0.0168241
0.0149439
0.0133509
0.0119911
0.0108222
0.00981078
0.00893045
0.00815998
0.00748218
0.00688306
0.00635114
0.00587692
0.00545249
0.00507124
0.00472761
0.00441688
0.00413507
0.00387874
0.00364498
0.00343124
0.00323536
0.00305546
0.00288988
0.00273723
0.00259628
0.00246597
0.00234538
0.00223376
0.00213043
0.00203485
0.00194654
0.00186513
0.00179028
0.00172172
0.0016592
0.00160247
0.00155133
0.00150553
0.00146483
0.00142896
0.00139765
0.00137057
0.0013474
0.0013278
0.00131143
0.00129794
0.00128703
0.00127842
0.00127189
0.00126731
0.00126469
0.00126423
0.00126638
0.00127199
0.00128236
0.00129989
0.00132711
0.00137594
0.0217504
0.0190621
0.0168239
0.0149436
0.0133505
0.0119906
0.0108216
0.00981011
0.00892973
0.00815922
0.0074814
0.00688227
0.00635034
0.00587612
0.00545169
0.00507045
0.00472683
0.00441612
0.00413432
0.00387802
0.00364427
0.00343055
0.00323469
0.0030548
0.00288925
0.00273662
0.00259568
0.00246539
0.00234483
0.00223322
0.00212991
0.00203435
0.00194607
0.00186469
0.00178987
0.00172134
0.00165884
0.00160215
0.00155104
0.00150528
0.00146461
0.00142878
0.0013975
0.00137045
0.0013473
0.00132773
0.00131138
0.00129791
0.00128701
0.0012784
0.00127187
0.00126729
0.00126466
0.00126417
0.00126623
0.00127165
0.00128161
0.00129812
0.00132294
0.0013635
0.0217504
0.0190621
0.0168238
0.0149433
0.0133502
0.0119902
0.0108211
0.00980954
0.00892911
0.00815856
0.00748072
0.00688158
0.00634964
0.00587542
0.00545099
0.00506976
0.00472615
0.00441546
0.00413367
0.00387738
0.00364364
0.00342994
0.0032341
0.00305423
0.00288869
0.00273608
0.00259516
0.00246488
0.00234434
0.00223275
0.00212946
0.00203392
0.00194567
0.00186431
0.00178951
0.00172101
0.00165854
0.00160188
0.00155079
0.00150506
0.00146443
0.00142862
0.00139737
0.00137034
0.00134722
0.00132767
0.00131133
0.00129788
0.00128699
0.00127839
0.00127187
0.00126729
0.00126464
0.00126412
0.00126611
0.00127138
0.00128101
0.00129674
0.00131998
0.00135561
0.0217504
0.019062
0.0168237
0.0149431
0.0133499
0.0119898
0.0108206
0.00980904
0.00892857
0.00815799
0.00748013
0.00688097
0.00634903
0.0058748
0.00545039
0.00506916
0.00472556
0.00441487
0.0041331
0.00387682
0.0036431
0.00342941
0.00323358
0.00305372
0.0028882
0.0027356
0.0025947
0.00246444
0.00234391
0.00223234
0.00212907
0.00203355
0.00194531
0.00186397
0.0017892
0.00172072
0.00165827
0.00160164
0.00155058
0.00150487
0.00146427
0.00142849
0.00139726
0.00137026
0.00134716
0.00132762
0.0013113
0.00129786
0.00128698
0.00127839
0.00127186
0.00126728
0.00126463
0.00126407
0.00126601
0.00127113
0.00128048
0.00129558
0.0013176
0.00134992
0.0217504
0.019062
0.0168236
0.0149429
0.0133496
0.0119895
0.0108202
0.00980861
0.00892811
0.0081575
0.00747962
0.00688045
0.0063485
0.00587427
0.00544986
0.00506864
0.00472504
0.00441437
0.0041326
0.00387633
0.00364262
0.00342895
0.00323313
0.00305329
0.00288778
0.00273519
0.0025943
0.00246406
0.00234354
0.00223199
0.00212873
0.00203323
0.001945
0.00186368
0.00178893
0.00172047
0.00165804
0.00160143
0.0015504
0.00150471
0.00146413
0.00142838
0.00139717
0.00137019
0.00134711
0.00132758
0.00131127
0.00129784
0.00128697
0.00127839
0.00127187
0.00126728
0.00126462
0.00126404
0.00126591
0.00127092
0.00128001
0.00129457
0.00131558
0.00134545
0.0217504
0.019062
0.0168235
0.0149428
0.0133494
0.0119892
0.0108199
0.00980825
0.00892771
0.00815708
0.00747918
0.00688
0.00634805
0.00587382
0.0054494
0.00506819
0.0047246
0.00441393
0.00413217
0.00387591
0.00364221
0.00342855
0.00323274
0.00305291
0.00288741
0.00273484
0.00259396
0.00246372
0.00234322
0.00223168
0.00212844
0.00203295
0.00194474
0.00186343
0.0017887
0.00172025
0.00165785
0.00160126
0.00155024
0.00150458
0.00146402
0.00142828
0.00139709
0.00137013
0.00134706
0.00132756
0.00131126
0.00129783
0.00128697
0.00127839
0.00127187
0.00126728
0.00126461
0.00126401
0.00126583
0.00127073
0.0012796
0.00129368
0.00131383
0.00134178
0.0217504
0.019062
0.0168235
0.0149427
0.0133492
0.011989
0.0108197
0.00980794
0.00892738
0.00815673
0.00747881
0.00687962
0.00634766
0.00587343
0.00544902
0.0050678
0.00472422
0.00441356
0.00413181
0.00387556
0.00364187
0.00342821
0.00323241
0.00305259
0.0028871
0.00273453
0.00259367
0.00246344
0.00234295
0.00223142
0.00212819
0.00203271
0.00194452
0.00186322
0.0017885
0.00172007
0.00165768
0.00160111
0.00155011
0.00150447
0.00146392
0.00142821
0.00139703
0.00137008
0.00134703
0.00132754
0.00131125
0.00129783
0.00128697
0.0012784
0.00127188
0.00126729
0.00126461
0.00126398
0.00126576
0.00127056
0.00127924
0.00129291
0.00131232
0.00133871
0.0217504
0.019062
0.0168234
0.0149426
0.0133491
0.0119888
0.0108194
0.00980768
0.0089271
0.00815643
0.0074785
0.0068793
0.00634734
0.0058731
0.00544869
0.00506748
0.0047239
0.00441324
0.0041315
0.00387526
0.00364157
0.00342792
0.00323214
0.00305232
0.00288684
0.00273428
0.00259342
0.0024632
0.00234272
0.0022312
0.00212798
0.00203251
0.00194433
0.00186305
0.00178834
0.00171992
0.00165755
0.00160099
0.00155001
0.00150438
0.00146385
0.00142815
0.00139698
0.00137005
0.00134701
0.00132752
0.00131124
0.00129784
0.00128698
0.00127841
0.00127189
0.0012673
0.00126461
0.00126397
0.00126571
0.00127042
0.00127893
0.00129226
0.00131104
0.00133615
0.0217504
0.019062
0.0168234
0.0149425
0.013349
0.0119887
0.0108192
0.00980748
0.00892687
0.00815618
0.00747824
0.00687904
0.00634707
0.00587284
0.00544843
0.00506722
0.00472364
0.00441299
0.00413125
0.00387501
0.00364133
0.00342769
0.00323191
0.0030521
0.00288662
0.00273407
0.00259322
0.00246301
0.00234254
0.00223102
0.00212781
0.00203235
0.00194418
0.0018629
0.00178821
0.0017198
0.00165744
0.00160089
0.00154992
0.0015043
0.00146379
0.0014281
0.00139695
0.00137003
0.001347
0.00132752
0.00131125
0.00129785
0.001287
0.00127842
0.00127191
0.00126731
0.00126462
0.00126396
0.00126566
0.00127031
0.00127868
0.00129172
0.00130998
0.00133405
0.0217504
0.0190619
0.0168234
0.0149424
0.0133489
0.0119885
0.0108191
0.00980731
0.00892669
0.00815599
0.00747804
0.00687884
0.00634687
0.00587263
0.00544822
0.00506701
0.00472344
0.00441279
0.00413105
0.00387482
0.00364114
0.00342751
0.00323173
0.00305192
0.00288645
0.00273391
0.00259306
0.00246286
0.00234239
0.00223088
0.00212767
0.00203222
0.00194406
0.00186279
0.0017881
0.00171971
0.00165735
0.00160081
0.00154986
0.00150425
0.00146374
0.00142807
0.00139693
0.00137001
0.00134699
0.00132752
0.00131126
0.00129786
0.00128701
0.00127844
0.00127193
0.00126733
0.00126463
0.00126395
0.00126563
0.00127022
0.00127848
0.00129129
0.00130913
0.00133236
0.0217504
0.0190619
0.0168233
0.0149424
0.0133488
0.0119885
0.010819
0.00980719
0.00892656
0.00815585
0.0074779
0.00687868
0.00634671
0.00587247
0.00544806
0.00506685
0.00472328
0.00441264
0.00413091
0.00387467
0.003641
0.00342737
0.0032316
0.00305179
0.00288633
0.00273379
0.00259295
0.00246275
0.00234228
0.00223078
0.00212758
0.00203213
0.00194397
0.00186271
0.00178803
0.00171964
0.00165729
0.00160076
0.00154982
0.00150422
0.00146372
0.00142805
0.00139692
0.00137001
0.001347
0.00132753
0.00131127
0.00129788
0.00128703
0.00127846
0.00127195
0.00126735
0.00126464
0.00126395
0.00126561
0.00127016
0.00127833
0.00129097
0.00130848
0.00133106
0.0217504
0.0190619
0.0168233
0.0149424
0.0133488
0.0119884
0.0108189
0.00980711
0.00892647
0.00815576
0.0074778
0.00687858
0.00634661
0.00587237
0.00544796
0.00506675
0.00472318
0.00441254
0.00413081
0.00387458
0.00364091
0.00342728
0.00323151
0.00305171
0.00288625
0.00273371
0.00259287
0.00246267
0.00234221
0.00223071
0.00212751
0.00203207
0.00194391
0.00186266
0.00178798
0.0017196
0.00165726
0.00160073
0.00154979
0.0015042
0.00146371
0.00142804
0.00139692
0.00137002
0.00134701
0.00132755
0.00131129
0.0012979
0.00128706
0.00127849
0.00127197
0.00126737
0.00126465
0.00126396
0.0012656
0.00127012
0.00127824
0.00129075
0.00130804
0.00133013
0.0217504
0.0190619
0.0168233
0.0149423
0.0133488
0.0119884
0.0108189
0.00980707
0.00892643
0.00815571
0.00747775
0.00687853
0.00634656
0.00587232
0.00544791
0.0050667
0.00472313
0.00441249
0.00413076
0.00387453
0.00364086
0.00342724
0.00323146
0.00305167
0.00288621
0.00273367
0.00259283
0.00246264
0.00234218
0.00223068
0.00212748
0.00203204
0.00194389
0.00186264
0.00178796
0.00171958
0.00165725
0.00160072
0.00154979
0.0015042
0.00146371
0.00142805
0.00139693
0.00137003
0.00134703
0.00132757
0.00131131
0.00129792
0.00128708
0.00127851
0.001272
0.00126739
0.00126467
0.00126397
0.0012656
0.00127011
0.00127819
0.00129065
0.00130779
0.00132956
0.0217504
0.0190619
0.0168233
0.0149423
0.0133488
0.0119884
0.0108189
0.00980707
0.00892643
0.00815571
0.00747775
0.00687853
0.00634656
0.00587232
0.00544791
0.0050667
0.00472313
0.00441249
0.00413076
0.00387453
0.00364086
0.00342724
0.00323147
0.00305167
0.00288621
0.00273367
0.00259283
0.00246264
0.00234218
0.00223068
0.00212749
0.00203205
0.00194389
0.00186264
0.00178797
0.00171959
0.00165726
0.00160074
0.0015498
0.00150421
0.00146373
0.00142807
0.00139695
0.00137006
0.00134705
0.0013276
0.00131134
0.00129795
0.00128711
0.00127854
0.00127202
0.00126742
0.0012647
0.00126399
0.00126562
0.00127012
0.00127821
0.00129065
0.00130775
0.00132936
0.0217504
0.0190619
0.0168233
0.0149424
0.0133488
0.0119884
0.0108189
0.00980711
0.00892647
0.00815576
0.0074778
0.00687858
0.00634661
0.00587237
0.00544796
0.00506675
0.00472318
0.00441254
0.00413081
0.00387458
0.00364091
0.00342728
0.00323151
0.00305171
0.00288625
0.00273371
0.00259287
0.00246268
0.00234222
0.00223072
0.00212752
0.00203208
0.00194393
0.00186268
0.001788
0.00171962
0.00165729
0.00160077
0.00154983
0.00150425
0.00146376
0.00142811
0.00139699
0.00137009
0.00134709
0.00132763
0.00131138
0.00129799
0.00128714
0.00127857
0.00127205
0.00126744
0.00126472
0.00126402
0.00126565
0.00127016
0.00127827
0.00129076
0.00130791
0.00132952
0.0217504
0.0190619
0.0168233
0.0149424
0.0133488
0.0119885
0.010819
0.00980719
0.00892656
0.00815585
0.0074779
0.00687868
0.00634671
0.00587247
0.00544806
0.00506686
0.00472328
0.00441264
0.00413091
0.00387468
0.00364101
0.00342737
0.0032316
0.0030518
0.00288634
0.0027338
0.00259295
0.00246276
0.00234229
0.00223079
0.0021276
0.00203215
0.001944
0.00186274
0.00178807
0.00171968
0.00165735
0.00160082
0.00154989
0.0015043
0.00146381
0.00142815
0.00139703
0.00137014
0.00134713
0.00132767
0.00131142
0.00129802
0.00128718
0.00127861
0.00127208
0.00126747
0.00126475
0.00126405
0.00126569
0.00127023
0.0012784
0.00129099
0.00130828
0.00133005
0.0217504
0.0190619
0.0168234
0.0149424
0.0133489
0.0119885
0.0108191
0.00980731
0.00892669
0.00815599
0.00747804
0.00687884
0.00634687
0.00587263
0.00544822
0.00506701
0.00472344
0.00441279
0.00413106
0.00387482
0.00364115
0.00342751
0.00323173
0.00305193
0.00288646
0.00273392
0.00259308
0.00246287
0.00234241
0.0022309
0.0021277
0.00203225
0.00194409
0.00186284
0.00178816
0.00171977
0.00165743
0.0016009
0.00154996
0.00150436
0.00146387
0.00142821
0.00139709
0.00137019
0.00134718
0.00132772
0.00131146
0.00129806
0.00128722
0.00127864
0.00127211
0.0012675
0.00126478
0.00126408
0.00126574
0.00127032
0.00127857
0.00129133
0.00130887
0.00133096
0.0217504
0.019062
0.0168234
0.0149425
0.013349
0.0119887
0.0108192
0.00980748
0.00892687
0.00815618
0.00747824
0.00687904
0.00634708
0.00587284
0.00544843
0.00506722
0.00472364
0.00441299
0.00413126
0.00387502
0.00364134
0.0034277
0.00323192
0.00305211
0.00288663
0.00273409
0.00259324
0.00246303
0.00234256
0.00223105
0.00212784
0.00203239
0.00194422
0.00186296
0.00178827
0.00171988
0.00165753
0.001601
0.00155005
0.00150445
0.00146395
0.00142828
0.00139715
0.00137025
0.00134723
0.00132777
0.0013115
0.00129811
0.00128726
0.00127868
0.00127215
0.00126753
0.00126481
0.00126412
0.0012658
0.00127043
0.0012788
0.00129179
0.00130968
0.00133229
0.0217504
0.019062
0.0168234
0.0149426
0.0133491
0.0119888
0.0108194
0.00980768
0.0089271
0.00815643
0.0074785
0.0068793
0.00634734
0.00587311
0.00544869
0.00506748
0.0047239
0.00441325
0.00413151
0.00387526
0.00364158
0.00342793
0.00323215
0.00305233
0.00288685
0.0027343
0.00259344
0.00246323
0.00234275
0.00223123
0.00212802
0.00203256
0.00194439
0.00186312
0.00178842
0.00172002
0.00165766
0.00160112
0.00155016
0.00150455
0.00146404
0.00142837
0.00139723
0.00137032
0.0013473
0.00132782
0.00131156
0.00129815
0.0012873
0.00127871
0.00127218
0.00126757
0.00126485
0.00126416
0.00126587
0.00127057
0.00127909
0.00129237
0.00131073
0.00133407
0.0217504
0.019062
0.0168235
0.0149427
0.0133492
0.011989
0.0108197
0.00980794
0.00892738
0.00815673
0.00747881
0.00687962
0.00634766
0.00587343
0.00544902
0.0050678
0.00472422
0.00441356
0.00413181
0.00387556
0.00364187
0.00342822
0.00323242
0.0030526
0.00288712
0.00273455
0.00259369
0.00246347
0.00234298
0.00223146
0.00212824
0.00203277
0.00194458
0.0018633
0.0017886
0.00172019
0.00165782
0.00160126
0.00155029
0.00150467
0.00146415
0.00142847
0.00139732
0.0013704
0.00134737
0.00132789
0.00131161
0.0012982
0.00128734
0.00127875
0.00127222
0.0012676
0.00126488
0.00126421
0.00126595
0.00127074
0.00127944
0.00129308
0.00131203
0.00133634
0.0217504
0.019062
0.0168235
0.0149428
0.0133494
0.0119892
0.0108199
0.00980825
0.00892771
0.00815708
0.00747918
0.00688
0.00634805
0.00587382
0.00544941
0.00506819
0.0047246
0.00441393
0.00413218
0.00387592
0.00364222
0.00342856
0.00323276
0.00305293
0.00288743
0.00273486
0.00259399
0.00246376
0.00234326
0.00223172
0.00212849
0.00203301
0.00194482
0.00186353
0.00178881
0.00172038
0.001658
0.00160143
0.00155045
0.00150482
0.00146428
0.00142858
0.00139742
0.00137048
0.00134744
0.00132795
0.00131167
0.00129825
0.00128739
0.00127879
0.00127225
0.00126763
0.00126492
0.00126426
0.00126604
0.00127093
0.00127984
0.00129393
0.0013136
0.00133917
0.0217504
0.019062
0.0168236
0.0149429
0.0133496
0.0119895
0.0108202
0.00980861
0.00892811
0.0081575
0.00747962
0.00688045
0.00634851
0.00587428
0.00544986
0.00506864
0.00472505
0.00441437
0.00413261
0.00387634
0.00364263
0.00342896
0.00323315
0.0030533
0.0028878
0.00273522
0.00259433
0.00246409
0.00234358
0.00223204
0.00212879
0.0020333
0.00194509
0.00186379
0.00178905
0.00172061
0.00165822
0.00160163
0.00155063
0.00150498
0.00146443
0.00142871
0.00139753
0.00137058
0.00134753
0.00132803
0.00131173
0.00129831
0.00128743
0.00127883
0.00127229
0.00126767
0.00126496
0.00126432
0.00126614
0.00127115
0.00128031
0.00129493
0.00131546
0.00134262
0.0217504
0.019062
0.0168237
0.0149431
0.0133499
0.0119898
0.0108206
0.00980904
0.00892857
0.008158
0.00748013
0.00688097
0.00634903
0.00587481
0.00545039
0.00506916
0.00472556
0.00441488
0.00413311
0.00387683
0.00364311
0.00342943
0.0032336
0.00305374
0.00288823
0.00273563
0.00259473
0.00246448
0.00234396
0.0022324
0.00212914
0.00203363
0.00194541
0.00186409
0.00178934
0.00172088
0.00165846
0.00160186
0.00155084
0.00150517
0.0014646
0.00142886
0.00139766
0.00137069
0.00134762
0.00132811
0.0013118
0.00129836
0.00128748
0.00127888
0.00127233
0.0012677
0.001265
0.00126437
0.00126625
0.00127138
0.00128083
0.00129608
0.00131764
0.00134682
0.0217504
0.0190621
0.0168238
0.0149433
0.0133502
0.0119902
0.0108211
0.00980954
0.00892911
0.00815857
0.00748072
0.00688158
0.00634964
0.00587542
0.005451
0.00506977
0.00472616
0.00441546
0.00413368
0.00387739
0.00364366
0.00342996
0.00323412
0.00305425
0.00288872
0.00273611
0.0025952
0.00246493
0.00234439
0.00223281
0.00212954
0.00203401
0.00194577
0.00186443
0.00178966
0.00172118
0.00165875
0.00160212
0.00155108
0.00150538
0.00146478
0.00142902
0.0013978
0.00137082
0.00134773
0.00132819
0.00131187
0.00129842
0.00128753
0.00127892
0.00127237
0.00126774
0.00126504
0.00126443
0.00126637
0.00127164
0.00128141
0.0012974
0.00132017
0.00135189
0.0217504
0.0190621
0.0168239
0.0149436
0.0133505
0.0119906
0.0108216
0.00981011
0.00892974
0.00815922
0.0074814
0.00688227
0.00635034
0.00587612
0.00545169
0.00507046
0.00472684
0.00441613
0.00413433
0.00387803
0.00364428
0.00343057
0.00323471
0.00305482
0.00288928
0.00273665
0.00259572
0.00246544
0.00234488
0.00223329
0.00213
0.00203445
0.00194619
0.00186483
0.00179004
0.00172153
0.00165907
0.00160242
0.00155135
0.00150562
0.001465
0.00142921
0.00139796
0.00137095
0.00134784
0.00132829
0.00131195
0.00129849
0.00128759
0.00127896
0.00127241
0.00126778
0.00126508
0.0012645
0.00126649
0.00127193
0.00128206
0.00129891
0.00132309
0.00135802
0.0217504
0.0190622
0.0168241
0.0149439
0.0133509
0.0119911
0.0108222
0.00981078
0.00893045
0.00815998
0.00748218
0.00688307
0.00635115
0.00587692
0.00545249
0.00507124
0.00472761
0.00441689
0.00413508
0.00387876
0.00364499
0.00343126
0.00323538
0.00305548
0.00288991
0.00273727
0.00259632
0.00246602
0.00234544
0.00223383
0.00213052
0.00203495
0.00194667
0.00186528
0.00179046
0.00172193
0.00165944
0.00160276
0.00155165
0.0015059
0.00146524
0.00142942
0.00139814
0.0013711
0.00134797
0.00132839
0.00131203
0.00129856
0.00128764
0.00127901
0.00127244
0.00126781
0.00126512
0.00126456
0.00126662
0.00127222
0.00128276
0.0013006
0.00132643
0.00136546
0.0217504
0.0190622
0.0168243
0.0149442
0.0133514
0.0119917
0.0108229
0.00981155
0.00893128
0.00816085
0.00748307
0.00688398
0.00635206
0.00587784
0.0054534
0.00507214
0.0047285
0.00441776
0.00413593
0.00387959
0.0036458
0.00343205
0.00323615
0.00305623
0.00289064
0.00273798
0.00259701
0.00246668
0.00234609
0.00223445
0.00213111
0.00203552
0.00194721
0.0018658
0.00179095
0.00172239
0.00165986
0.00160314
0.001552
0.00150621
0.00146552
0.00142966
0.00139835
0.00137127
0.0013481
0.0013285
0.00131213
0.00129863
0.0012877
0.00127906
0.00127248
0.00126785
0.00126516
0.00126462
0.00126674
0.00127254
0.00128352
0.00130251
0.00133025
0.00137454
0.0217504
0.0190623
0.0168246
0.0149446
0.013352
0.0119925
0.0108237
0.00981245
0.00893224
0.00816185
0.0074841
0.00688502
0.00635311
0.00587889
0.00545444
0.00507317
0.00472951
0.00441876
0.00413691
0.00388054
0.00364673
0.00343296
0.00323704
0.00305709
0.00289148
0.00273879
0.0025978
0.00246745
0.00234683
0.00223517
0.00213181
0.00203619
0.00194785
0.0018664
0.00179152
0.00172292
0.00166036
0.0016036
0.00155242
0.00150658
0.00146584
0.00142994
0.00139859
0.00137147
0.00134827
0.00132864
0.00131223
0.00129872
0.00128777
0.00127911
0.00127253
0.00126789
0.0012652
0.00126468
0.00126687
0.00127286
0.00128432
0.00130463
0.00133459
0.00138574
0.0217505
0.0190624
0.0168249
0.0149451
0.0133527
0.0119933
0.0108247
0.0098135
0.00893335
0.00816301
0.00748529
0.00688623
0.00635433
0.0058801
0.00545565
0.00507436
0.00473069
0.00441992
0.00413805
0.00388167
0.00364784
0.00343405
0.00323811
0.00305814
0.00289251
0.0027398
0.00259879
0.00246842
0.00234778
0.0022361
0.00213271
0.00203706
0.0019487
0.00186722
0.0017923
0.00172367
0.00166106
0.00160425
0.00155302
0.00150713
0.00146633
0.00143037
0.00139896
0.0013718
0.00134856
0.00132889
0.00131245
0.00129891
0.00128794
0.00127926
0.00127266
0.00126801
0.00126531
0.00126479
0.00126704
0.00127321
0.00128518
0.00130697
0.00133952
0.00139974
0.0217505
0.0190626
0.0168253
0.0149458
0.0133535
0.0119943
0.0108258
0.00981473
0.00893466
0.00816437
0.0074867
0.00688767
0.00635579
0.00588157
0.00545713
0.00507586
0.00473219
0.00442143
0.00413958
0.00388321
0.00364939
0.00343562
0.0032397
0.00305975
0.00289413
0.00274144
0.00260045
0.00247009
0.00234946
0.00223779
0.0021344
0.00203875
0.00195037
0.00186888
0.00179394
0.00172527
0.00166262
0.00160576
0.00155447
0.0015085
0.00146763
0.00143159
0.00140011
0.00137288
0.00134957
0.00132986
0.00131338
0.00129979
0.00128879
0.00128007
0.00127342
0.00126872
0.00126596
0.0012654
0.00126763
0.00127391
0.00128635
0.00130972
0.00134522
0.00141757
0.0217505
0.0190628
0.0168258
0.0149465
0.0133545
0.0119955
0.0108272
0.00981625
0.00893632
0.00816615
0.0074886
0.00688969
0.00635794
0.00588387
0.00545958
0.00507848
0.00473499
0.00442442
0.00414276
0.00388659
0.00365298
0.00343941
0.0032437
0.00306396
0.00289855
0.00274606
0.00260526
0.00247508
0.00235462
0.00224309
0.00213984
0.00204431
0.00195604
0.00187462
0.00179974
0.0017311
0.00166845
0.00161156
0.0015602
0.00151413
0.00147313
0.00143695
0.00140535
0.00137802
0.00135463
0.00133483
0.00131828
0.00130461
0.0012935
0.00128465
0.00127785
0.00127294
0.00126993
0.00126908
0.001271
0.00127704
0.00128957
0.00131423
0.00135278
0.00144132
0.0217505
0.019063
0.0168264
0.0149476
0.0133559
0.0119972
0.0108293
0.00981883
0.00893942
0.00816986
0.007493
0.00689487
0.00636398
0.00589084
0.00546754
0.00508746
0.00474502
0.00443552
0.00415493
0.00389983
0.00366728
0.00345475
0.00326006
0.00308131
0.00291688
0.00276533
0.00262544
0.00249613
0.0023765
0.00226576
0.00216324
0.00206839
0.00198074
0.00189988
0.00182548
0.00175723
0.00169487
0.00163813
0.0015868
0.00154062
0.00149938
0.0014629
0.00143104
0.00140351
0.00137993
0.00135995
0.00134316
0.0013292
0.0013177
0.00130836
0.0013009
0.00129516
0.00129112
0.00128899
0.00128941
0.00129374
0.00130465
0.00132864
0.00136866
0.00147743
0.0217506
0.0190635
0.0168276
0.0149497
0.0133592
0.0120023
0.0108367
0.00982909
0.0089531
0.00818746
0.00751492
0.00692141
0.00639533
0.0059271
0.00550871
0.00513348
0.00479579
0.0044909
0.00421478
0.003964
0.00373565
0.00352722
0.00333655
0.0031618
0.00300132
0.00285371
0.00271773
0.0025923
0.00247648
0.00236945
0.00227054
0.00217916
0.00209479
0.00201699
0.00194535
0.00187948
0.00181901
0.0017636
0.00171295
0.0016668
0.00162494
0.00158746
0.00155477
0.00152647
0.00150211
0.00148122
0.00146333
0.00144798
0.00143473
0.00142316
0.00141292
0.00140371
0.00139538
0.00138799
0.00138204
0.00137872
0.00138086
0.00139542
0.0014274
0.00155326
0.0217509
0.019066
0.0168344
0.0149634
0.0133833
0.0120402
0.0108917
0.00990393
0.00904965
0.00830678
0.00765732
0.00708652
0.00658235
0.00613494
0.00573617
0.0053794
0.00505915
0.00477087
0.00451082
0.00427587
0.00406342
0.00387126
0.00369747
0.00354037
0.00339841
0.00327016