/*--------------------------------*- C++ -*----------------------------------*\
| =========                 |                                                 |
| \\      /  F ield         | OpenFOAM: The Open Source CFD Toolbox           |
|  \\    /   O peration     | Version:  2.4.0                                 |
|   \\  /    A nd           | Web:      www.OpenFOAM.org                      |
|    \\/     M anipulation  |                                                 |
\*---------------------------------------------------------------------------*/
FoamFile
{
    version     2.0;
    format      ascii;
    class       volScalarField;
    location    "0.53";
    object      p;
}
// * * * * * * * * * * * * * * * * * * * * * * * * * * * * * * * * * * * * * //

dimensions      [0 2 -2 0 0 0 0];

internalField   nonuniform List<scalar> 
6000
(
0.266724
0.26131
0.258816
0.257948
0.257065
0.255976
0.254891
0.253888
0.252945
0.252037
0.251161
0.250317
0.249505
0.248721
0.247961
0.247224
0.246506
0.245807
0.245124
0.244455
0.243796
0.243145
0.242499
0.241856
0.241214
0.240575
0.239941
0.239314
0.238697
0.238092
0.237501
0.236928
0.236374
0.235843
0.235339
0.234869
0.23444
0.234062
0.233748
0.233511
0.233369
0.233342
0.233456
0.233745
0.234253
0.235035
0.236167
0.237744
0.239886
0.24275
0.246529
0.251471
0.257884
0.266143
0.276711
0.290035
0.306724
0.326358
0.350275
0.369036
0.262785
0.260526
0.258769
0.257944
0.257131
0.256115
0.255062
0.254063
0.253113
0.252194
0.251303
0.250445
0.249619
0.248823
0.248052
0.247305
0.246579
0.245872
0.245181
0.244504
0.243838
0.24318
0.242528
0.24188
0.241235
0.240594
0.239958
0.239329
0.23871
0.238104
0.237512
0.236937
0.236382
0.235849
0.235344
0.234872
0.234441
0.234061
0.233744
0.233505
0.233359
0.233329
0.233439
0.233723
0.234224
0.234998
0.23612
0.237683
0.239808
0.242648
0.246398
0.251299
0.257658
0.265842
0.27631
0.289502
0.306046
0.325559
0.349746
0.368532
0.262633
0.26102
0.259082
0.257973
0.257096
0.256078
0.255014
0.254008
0.253061
0.25215
0.251268
0.250418
0.249599
0.24881
0.248045
0.247303
0.246581
0.245877
0.245188
0.244513
0.243848
0.243192
0.242541
0.241893
0.241249
0.240608
0.239972
0.239343
0.238724
0.238117
0.237524
0.236947
0.23639
0.235855
0.235347
0.234873
0.234439
0.234056
0.233736
0.233493
0.233343
0.233307
0.23341
0.233686
0.234177
0.234939
0.236044
0.237585
0.23968
0.242481
0.246178
0.251006
0.257263
0.265301
0.275556
0.288435
0.304526
0.323428
0.346948
0.365193
0.26198
0.260584
0.258842
0.257769
0.256951
0.256001
0.254981
0.254003
0.253077
0.252181
0.251307
0.250461
0.249644
0.248853
0.248085
0.247339
0.246612
0.245904
0.24521
0.244531
0.243862
0.243202
0.242547
0.241898
0.241252
0.24061
0.239974
0.239346
0.238727
0.23812
0.237528
0.236951
0.236394
0.235859
0.235351
0.234876
0.234441
0.234055
0.233732
0.233483
0.233326
0.23328
0.233372
0.233634
0.234107
0.234846
0.235923
0.237428
0.239477
0.242217
0.245831
0.25055
0.256655
0.264483
0.274435
0.28688
0.302334
0.320362
0.342595
0.359978
0.261423
0.260339
0.258839
0.257766
0.256928
0.255996
0.254991
0.254018
0.253094
0.252199
0.251327
0.250481
0.249662
0.24887
0.248102
0.247355
0.246627
0.245918
0.245223
0.244542
0.243872
0.24321
0.242555
0.241905
0.241259
0.240617
0.239982
0.239354
0.238735
0.238128
0.237535
0.236958
0.2364
0.235865
0.235355
0.234878
0.234441
0.234052
0.233723
0.233468
0.233302
0.233246
0.233324
0.233568
0.234019
0.234731
0.235773
0.237234
0.239225
0.241889
0.245403
0.249986
0.255906
0.263477
0.273065
0.284993
0.299698
0.316719
0.337417
0.353844
0.260954
0.260099
0.258773
0.257697
0.256847
0.255943
0.254966
0.254008
0.253094
0.252207
0.251341
0.250498
0.249682
0.248891
0.248123
0.247376
0.246647
0.245935
0.245239
0.244556
0.243884
0.24322
0.242564
0.241912
0.241265
0.240624
0.239988
0.23936
0.238741
0.238134
0.237541
0.236964
0.236405
0.235868
0.235357
0.234878
0.234438
0.234046
0.233712
0.233449
0.233274
0.233205
0.233266
0.23349
0.233916
0.234596
0.235598
0.237006
0.238931
0.241507
0.244905
0.249334
0.255046
0.262329
0.271516
0.28288
0.296776
0.31272
0.331761
0.347066
0.26055
0.259858
0.258682
0.257632
0.256782
0.255904
0.254954
0.254009
0.253101
0.25222
0.251358
0.250518
0.249703
0.248912
0.248143
0.247394
0.246664
0.245951
0.245253
0.244568
0.243894
0.243229
0.242571
0.241918
0.241271
0.240629
0.239993
0.239365
0.238747
0.238139
0.237546
0.236968
0.236408
0.23587
0.235357
0.234876
0.234432
0.234035
0.233695
0.233424
0.233237
0.233154
0.233198
0.233399
0.233797
0.234441
0.235397
0.236746
0.238594
0.241072
0.244341
0.248598
0.254079
0.261051
0.26981
0.280582
0.293645
0.308495
0.325848
0.339842
0.260198
0.259624
0.258581
0.257572
0.256723
0.255865
0.254938
0.254005
0.253105
0.252229
0.251372
0.250535
0.249721
0.24893
0.248161
0.247412
0.24668
0.245966
0.245266
0.24458
0.243904
0.243237
0.242578
0.241925
0.241277
0.240634
0.239998
0.23937
0.238751
0.238144
0.23755
0.236971
0.23641
0.23587
0.235355
0.234871
0.234424
0.234021
0.233674
0.233393
0.233195
0.233096
0.23312
0.233296
0.233662
0.234266
0.235171
0.236455
0.238219
0.240587
0.243713
0.247782
0.253014
0.259652
0.267958
0.278119
0.290335
0.304097
0.319801
0.332381
0.259888
0.259404
0.258476
0.257511
0.256668
0.255824
0.254919
0.254001
0.253108
0.252238
0.251385
0.250551
0.249738
0.248948
0.248178
0.247428
0.246696
0.24598
0.245279
0.244591
0.243914
0.243245
0.242585
0.24193
0.241282
0.240639
0.240003
0.239375
0.238756
0.238148
0.237553
0.236973
0.236411
0.235869
0.235352
0.234864
0.234412
0.234004
0.233649
0.233358
0.233147
0.233031
0.233033
0.233182
0.233513
0.234074
0.234922
0.236135
0.237807
0.240056
0.243027
0.246893
0.251858
0.258142
0.265975
0.275507
0.28687
0.299554
0.313682
0.32483
0.259614
0.259198
0.258367
0.257449
0.256615
0.255785
0.2549
0.253996
0.25311
0.252245
0.251397
0.250565
0.249754
0.248964
0.248194
0.247443
0.24671
0.245993
0.245291
0.244601
0.243922
0.243253
0.242591
0.241936
0.241287
0.240643
0.240007
0.239378
0.238759
0.238151
0.237555
0.236974
0.23641
0.235866
0.235346
0.234855
0.234399
0.233984
0.23362
0.233319
0.233093
0.232959
0.232938
0.233057
0.233351
0.233864
0.234652
0.235787
0.23736
0.23948
0.242285
0.245935
0.250618
0.25653
0.263873
0.272763
0.283272
0.29489
0.307528
0.317281
0.259371
0.259009
0.25826
0.257388
0.256565
0.255748
0.254881
0.25399
0.253111
0.252252
0.251407
0.250578
0.249768
0.248979
0.248209
0.247458
0.246723
0.246005
0.245302
0.244611
0.243931
0.24326
0.242597
0.241941
0.241291
0.240647
0.240011
0.239382
0.238762
0.238153
0.237556
0.236974
0.236408
0.235862
0.235339
0.234844
0.234382
0.233961
0.233588
0.233275
0.233033
0.23288
0.232834
0.232922
0.233176
0.233638
0.234361
0.235414
0.23688
0.238864
0.241492
0.244913
0.249298
0.254824
0.261663
0.269901
0.279559
0.29013
0.301363
0.309791
0.259155
0.258835
0.258154
0.257327
0.256518
0.255712
0.254862
0.253984
0.253112
0.252257
0.251416
0.25059
0.249781
0.248992
0.248223
0.247471
0.246736
0.246017
0.245312
0.244619
0.243938
0.243266
0.242602
0.241945
0.241295
0.240651
0.240014
0.239384
0.238764
0.238154
0.237556
0.236973
0.236405
0.235857
0.235331
0.234831
0.234364
0.233935
0.233553
0.233227
0.232969
0.232795
0.232723
0.232777
0.232988
0.233396
0.234051
0.235015
0.236368
0.238207
0.240649
0.24383
0.247905
0.253031
0.259354
0.266932
0.275745
0.285292
0.295206
0.302393
0.258962
0.258676
0.258053
0.257267
0.256474
0.255679
0.254842
0.253977
0.253112
0.252262
0.251424
0.2506
0.249793
0.249005
0.248235
0.247483
0.246747
0.246027
0.245321
0.244628
0.243945
0.243272
0.242607
0.24195
0.241298
0.240654
0.240016
0.239386
0.238765
0.238155
0.237556
0.236971
0.236401
0.23585
0.235321
0.234817
0.234343
0.233906
0.233514
0.233174
0.2329
0.232704
0.232604
0.232623
0.232789
0.23314
0.233722
0.234594
0.235828
0.237515
0.239761
0.242692
0.246445
0.251159
0.256954
0.263867
0.271844
0.280392
0.28907
0.295104
0.258792
0.258531
0.257957
0.257209
0.256433
0.255648
0.254824
0.253969
0.253112
0.252266
0.251432
0.25061
0.249804
0.249016
0.248247
0.247494
0.246758
0.246037
0.24533
0.244635
0.243952
0.243278
0.242612
0.241953
0.241302
0.240656
0.240018
0.239388
0.238766
0.238155
0.237555
0.236968
0.236396
0.235842
0.235309
0.2348
0.23432
0.233875
0.233472
0.233118
0.232826
0.232607
0.232478
0.23246
0.232579
0.23287
0.233376
0.23415
0.23526
0.236788
0.23883
0.241501
0.244921
0.249212
0.254473
0.260718
0.267868
0.275443
0.28296
0.287929
0.25864
0.258401
0.257868
0.257154
0.256395
0.255619
0.254806
0.253962
0.253111
0.252269
0.251438
0.250619
0.249814
0.249027
0.248257
0.247504
0.246767
0.246045
0.245337
0.244642
0.243958
0.243283
0.242616
0.241957
0.241304
0.240659
0.24002
0.239389
0.238766
0.238154
0.237553
0.236964
0.23639
0.235833
0.235296
0.234782
0.234295
0.233841
0.233427
0.233059
0.232748
0.232505
0.232346
0.232289
0.23236
0.232588
0.233014
0.233686
0.234667
0.236029
0.23786
0.240262
0.243341
0.2472
0.251918
0.257493
0.263826
0.270455
0.27688
0.280866
0.258506
0.258285
0.257785
0.257103
0.256359
0.255592
0.25479
0.253955
0.253111
0.252272
0.251444
0.250626
0.249823
0.249036
0.248266
0.247513
0.246776
0.246053
0.245345
0.244648
0.243963
0.243287
0.24262
0.24196
0.241307
0.24066
0.240021
0.239389
0.238766
0.238152
0.23755
0.236959
0.236383
0.235823
0.235281
0.234762
0.234268
0.233805
0.233379
0.232996
0.232666
0.232398
0.232208
0.232111
0.23213
0.232294
0.232637
0.233204
0.23405
0.235241
0.236855
0.238979
0.241708
0.245127
0.249297
0.254201
0.259727
0.265436
0.270832
0.273909
0.258389
0.258182
0.257711
0.257055
0.256327
0.255568
0.254774
0.253948
0.25311
0.252275
0.251448
0.250633
0.249831
0.249044
0.248275
0.247521
0.246783
0.24606
0.245351
0.244654
0.243968
0.243291
0.242623
0.241962
0.241308
0.240661
0.240022
0.239389
0.238765
0.23815
0.237546
0.236954
0.236375
0.235811
0.235266
0.23474
0.23424
0.233767
0.233329
0.232931
0.23258
0.232287
0.232064
0.231926
0.231892
0.231989
0.232247
0.232705
0.233413
0.234428
0.235817
0.237658
0.240029
0.243
0.246617
0.25085
0.25558
0.260392
0.264814
0.267046
0.258287
0.258092
0.257644
0.257011
0.256297
0.255547
0.25476
0.253942
0.253108
0.252277
0.251453
0.250639
0.249838
0.249052
0.248282
0.247528
0.24679
0.246066
0.245356
0.244658
0.243972
0.243294
0.242625
0.241964
0.24131
0.240662
0.240022
0.239389
0.238764
0.238148
0.237542
0.236947
0.236366
0.235799
0.235249
0.234718
0.234209
0.233727
0.233276
0.232862
0.232491
0.232172
0.231915
0.231734
0.231647
0.231675
0.231845
0.232191
0.232757
0.23359
0.23475
0.236301
0.238308
0.240826
0.243885
0.247447
0.251389
0.255328
0.258823
0.260267
0.258199
0.258014
0.257585
0.256973
0.256271
0.255528
0.254748
0.253936
0.253107
0.252278
0.251456
0.250644
0.249843
0.249058
0.248288
0.247534
0.246796
0.246072
0.245361
0.244663
0.243975
0.243297
0.242628
0.241966
0.241311
0.240663
0.240021
0.239388
0.238762
0.238144
0.237537
0.23694
0.236356
0.235785
0.23523
0.234694
0.234178
0.233686
0.233222
0.232791
0.232399
0.232053
0.231762
0.231538
0.231395
0.231352
0.231432
0.231664
0.232084
0.232732
0.233659
0.234914
0.236551
0.23861
0.241108
0.244
0.247162
0.250245
0.252854
0.253557
0.258125
0.257947
0.257535
0.256939
0.256249
0.255512
0.254737
0.25393
0.253106
0.252279
0.251459
0.250648
0.249848
0.249063
0.248294
0.24754
0.246801
0.246076
0.245365
0.244666
0.243978
0.243299
0.242629
0.241967
0.241311
0.240663
0.240021
0.239386
0.238759
0.23814
0.237531
0.236932
0.236345
0.235771
0.235211
0.234668
0.234144
0.233642
0.233165
0.232718
0.232304
0.231931
0.231605
0.231336
0.231137
0.231021
0.23101
0.231125
0.231396
0.231857
0.232545
0.2335
0.234762
0.236358
0.238292
0.240513
0.242903
0.245146
0.246901
0.246902
0.258064
0.257892
0.257492
0.25691
0.256229
0.255498
0.254728
0.253926
0.253105
0.25228
0.251461
0.250651
0.249853
0.249068
0.248298
0.247544
0.246805
0.24608
0.245368
0.244669
0.24398
0.243301
0.24263
0.241967
0.241311
0.240662
0.240019
0.239384
0.238756
0.238136
0.237525
0.236924
0.236334
0.235756
0.235191
0.234642
0.23411
0.233597
0.233107
0.232642
0.232207
0.231806
0.231444
0.23113
0.230873
0.230685
0.23058
0.230577
0.230697
0.230967
0.231413
0.232065
0.232948
0.234077
0.235444
0.236994
0.238616
0.240031
0.240957
0.240285
0.258016
0.257849
0.257459
0.256887
0.256214
0.255487
0.254721
0.253922
0.253104
0.252281
0.251463
0.250654
0.249856
0.249071
0.248302
0.247547
0.246808
0.246083
0.245371
0.244671
0.243982
0.243302
0.242631
0.241967
0.241311
0.240661
0.240018
0.239381
0.238752
0.238131
0.237518
0.236915
0.236321
0.235739
0.23517
0.234614
0.234074
0.233551
0.233047
0.232565
0.232108
0.231679
0.231281
0.230921
0.230606
0.230343
0.230144
0.23002
0.229988
0.230064
0.230267
0.230612
0.231113
0.231772
0.232569
0.233447
0.234304
0.234899
0.235015
0.233692
0.25798
0.257817
0.257433
0.25687
0.256202
0.255479
0.254715
0.253919
0.253103
0.252282
0.251465
0.250656
0.249858
0.249074
0.248304
0.24755
0.24681
0.246085
0.245373
0.244672
0.243983
0.243303
0.242631
0.241967
0.24131
0.24066
0.240016
0.239378
0.238748
0.238125
0.237511
0.236905
0.236308
0.235723
0.235148
0.234586
0.234037
0.233504
0.232986
0.232487
0.232007
0.231549
0.231116
0.23071
0.230335
0.229998
0.229703
0.229458
0.229272
0.229153
0.229109
0.229146
0.229263
0.229448
0.229674
0.229878
0.22997
0.22975
0.229066
0.227104
0.257957
0.257795
0.257416
0.256858
0.256194
0.255473
0.254712
0.253917
0.253102
0.252282
0.251466
0.250657
0.24986
0.249075
0.248306
0.247551
0.246812
0.246086
0.245374
0.244673
0.243983
0.243303
0.242631
0.241966
0.241309
0.240658
0.240013
0.239375
0.238743
0.238119
0.237503
0.236894
0.236295
0.235705
0.235125
0.234557
0.234
0.233456
0.232924
0.232407
0.231905
0.231419
0.230949
0.230496
0.230063
0.22965
0.229259
0.228892
0.228551
0.228236
0.227945
0.227671
0.227402
0.227112
0.226763
0.226292
0.225617
0.224581
0.223101
0.220506
0.257945
0.257784
0.257408
0.256852
0.25619
0.25547
0.25471
0.253916
0.253102
0.252282
0.251466
0.250658
0.24986
0.249076
0.248307
0.247552
0.246812
0.246087
0.245374
0.244673
0.243983
0.243302
0.24263
0.241965
0.241307
0.240656
0.24001
0.239371
0.238738
0.238113
0.237494
0.236883
0.236281
0.235687
0.235102
0.234527
0.233962
0.233406
0.232862
0.232327
0.231802
0.231287
0.23078
0.230281
0.229788
0.2293
0.228813
0.228324
0.227828
0.227316
0.226777
0.226192
0.225535
0.224768
0.223843
0.222693
0.221248
0.219391
0.217111
0.213879
0.257945
0.257784
0.257408
0.256852
0.25619
0.25547
0.25471
0.253916
0.253102
0.252282
0.251466
0.250658
0.24986
0.249076
0.248306
0.247552
0.246812
0.246086
0.245373
0.244672
0.243982
0.243301
0.242629
0.241964
0.241305
0.240653
0.240007
0.239367
0.238733
0.238106
0.237485
0.236872
0.236266
0.235668
0.235078
0.234496
0.233923
0.233357
0.232798
0.232246
0.231699
0.231155
0.230612
0.230066
0.229514
0.22895
0.228367
0.227755
0.227104
0.226396
0.225609
0.224713
0.223668
0.222424
0.22092
0.219087
0.216865
0.214176
0.211085
0.207205
0.257957
0.257795
0.257416
0.256858
0.256194
0.255473
0.254711
0.253917
0.253102
0.252282
0.251465
0.250657
0.249859
0.249075
0.248305
0.247551
0.246811
0.246085
0.245372
0.244671
0.243981
0.2433
0.242627
0.241962
0.241303
0.24065
0.240003
0.239362
0.238727
0.238098
0.237476
0.23686
0.236251
0.235649
0.235054
0.234466
0.233883
0.233307
0.232734
0.232165
0.231595
0.231023
0.230443
0.229851
0.22924
0.228601
0.227922
0.227189
0.226383
0.225479
0.224445
0.223238
0.221805
0.220083
0.217999
0.215478
0.21247
0.208936
0.205014
0.200464
0.25798
0.257816
0.257433
0.25687
0.256202
0.255479
0.254715
0.253919
0.253103
0.252281
0.251464
0.250656
0.249858
0.249073
0.248303
0.247549
0.246809
0.246083
0.24537
0.244669
0.243979
0.243298
0.242625
0.241959
0.2413
0.240647
0.239999
0.239357
0.238721
0.23809
0.237466
0.236848
0.236236
0.23563
0.235029
0.234434
0.233844
0.233256
0.23267
0.232083
0.231492
0.230891
0.230275
0.229637
0.228967
0.228253
0.227479
0.226626
0.225666
0.224568
0.223288
0.221772
0.219953
0.217753
0.215087
0.211872
0.208065
0.203667
0.198887
0.193637
0.258016
0.257849
0.257459
0.256887
0.256214
0.255487
0.254721
0.253922
0.253103
0.252281
0.251463
0.250653
0.249855
0.24907
0.2483
0.247546
0.246806
0.24608
0.245368
0.244667
0.243976
0.243295
0.242622
0.241956
0.241297
0.240643
0.239994
0.239351
0.238714
0.238082
0.237456
0.236835
0.23622
0.23561
0.235004
0.234403
0.233804
0.233206
0.232606
0.232002
0.231389
0.23076
0.230109
0.229425
0.228697
0.22791
0.227042
0.226068
0.224957
0.223666
0.222142
0.220319
0.218116
0.21544
0.212189
0.208274
0.203655
0.198367
0.192691
0.186701
0.258064
0.257892
0.257492
0.25691
0.256229
0.255498
0.254728
0.253925
0.253104
0.25228
0.251461
0.250651
0.249852
0.249067
0.248297
0.247542
0.246802
0.246077
0.245364
0.244663
0.243973
0.243292
0.242619
0.241953
0.241293
0.240639
0.23999
0.239346
0.238707
0.238073
0.237445
0.236822
0.236204
0.235589
0.234979
0.234371
0.233764
0.233155
0.232543
0.231921
0.231286
0.23063
0.229944
0.229216
0.228431
0.22757
0.226609
0.225518
0.224257
0.222775
0.221011
0.218884
0.2163
0.213148
0.209312
0.20469
0.199242
0.193034
0.186416
0.179635
0.258125
0.257947
0.257534
0.256939
0.256248
0.255511
0.254737
0.25393
0.253105
0.252279
0.251458
0.250647
0.249847
0.249062
0.248292
0.247537
0.246798
0.246072
0.24536
0.24466
0.24397
0.243289
0.242616
0.241949
0.241289
0.240634
0.239984
0.239339
0.2387
0.238065
0.237434
0.236809
0.236187
0.235569
0.234953
0.234339
0.233724
0.233105
0.232479
0.231842
0.231185
0.230502
0.229781
0.229009
0.228168
0.227236
0.226184
0.224977
0.223568
0.2219
0.219898
0.217472
0.21451
0.210885
0.206463
0.201126
0.19483
0.187667
0.18005
0.172415
0.258199
0.258013
0.257585
0.256972
0.256271
0.255528
0.254748
0.253935
0.253107
0.252277
0.251455
0.250643
0.249842
0.249056
0.248286
0.247532
0.246792
0.246067
0.245355
0.244655
0.243965
0.243285
0.242612
0.241945
0.241285
0.240629
0.239979
0.239333
0.238692
0.238055
0.237423
0.236795
0.23617
0.235548
0.234928
0.234307
0.233684
0.233055
0.232417
0.231763
0.231086
0.230376
0.229622
0.228807
0.227911
0.226909
0.225768
0.224447
0.222894
0.221042
0.218808
0.216086
0.212752
0.208657
0.203649
0.19759
0.190424
0.182266
0.173581
0.165017
0.258287
0.258092
0.257644
0.257011
0.256297
0.255547
0.25476
0.253941
0.253108
0.252276
0.251452
0.250637
0.249836
0.24905
0.248279
0.247525
0.246786
0.246061
0.24535
0.24465
0.24396
0.24328
0.242607
0.241941
0.24128
0.240624
0.239973
0.239326
0.238684
0.238046
0.237412
0.236781
0.236153
0.235528
0.234902
0.234276
0.233645
0.233006
0.232355
0.231685
0.230988
0.230253
0.229466
0.228609
0.22766
0.22659
0.225362
0.223931
0.222237
0.220206
0.217743
0.214732
0.21103
0.206471
0.200877
0.19409
0.186031
0.176831
0.166997
0.157412
0.258389
0.258182
0.25771
0.257055
0.256326
0.255568
0.254774
0.253948
0.253109
0.252274
0.251447
0.250632
0.249829
0.249042
0.248272
0.247518
0.246779
0.246054
0.245343
0.244644
0.243955
0.243275
0.242602
0.241936
0.241275
0.240619
0.239967
0.239319
0.238676
0.238036
0.2374
0.236767
0.236136
0.235507
0.234877
0.234244
0.233606
0.232958
0.232295
0.231609
0.230893
0.230132
0.229313
0.228416
0.227415
0.226279
0.224967
0.223428
0.221598
0.219392
0.216707
0.213414
0.209351
0.204334
0.198157
0.190633
0.181657
0.171365
0.160286
0.149573
0.258506
0.258285
0.257785
0.257102
0.256359
0.255592
0.254789
0.253954
0.25311
0.252271
0.251442
0.250625
0.249821
0.249034
0.248263
0.247509
0.246771
0.246047
0.245336
0.244637
0.243949
0.243269
0.242597
0.241931
0.24127
0.240613
0.23996
0.239312
0.238667
0.238026
0.237388
0.236753
0.236119
0.235486
0.234851
0.234213
0.233567
0.23291
0.232235
0.231535
0.2308
0.230015
0.229166
0.228229
0.227179
0.225979
0.224585
0.222943
0.220979
0.218605
0.215705
0.212136
0.207721
0.202253
0.195496
0.187231
0.177311
0.16587
0.153437
0.14147
0.25864
0.258401
0.257867
0.257154
0.256394
0.255618
0.254806
0.253962
0.253111
0.252268
0.251437
0.250617
0.249812
0.249024
0.248254
0.2475
0.246762
0.246038
0.245328
0.24463
0.243943
0.243263
0.242591
0.241925
0.241264
0.240607
0.239954
0.239304
0.238658
0.238016
0.237376
0.236739
0.236102
0.235465
0.234826
0.234182
0.233529
0.232863
0.232177
0.231463
0.230709
0.229902
0.229023
0.228049
0.22695
0.225689
0.224218
0.222475
0.220384
0.217847
0.214738
0.210903
0.206146
0.200234
0.192903
0.183893
0.173004
0.160354
0.146439
0.133072
0.258791
0.258531
0.257957
0.257209
0.256433
0.255647
0.254823
0.253969
0.253111
0.252265
0.25143
0.250608
0.249802
0.249014
0.248243
0.247489
0.246752
0.246029
0.24532
0.244623
0.243935
0.243257
0.242585
0.241919
0.241258
0.240601
0.239947
0.239296
0.238649
0.238005
0.237364
0.236724
0.236085
0.235445
0.234801
0.234152
0.233492
0.232818
0.232121
0.231393
0.230622
0.229793
0.228886
0.227876
0.226731
0.225412
0.223865
0.222027
0.219814
0.21712
0.213812
0.209719
0.20463
0.198287
0.190389
0.180632
0.168748
0.154826
0.139281
0.124344
0.258962
0.258675
0.258053
0.257267
0.256474
0.255678
0.254842
0.253976
0.253111
0.252261
0.251423
0.250599
0.249791
0.249002
0.248231
0.247478
0.246741
0.246019
0.24531
0.244614
0.243928
0.24325
0.242579
0.241913
0.241252
0.240594
0.23994
0.239288
0.23864
0.237995
0.237352
0.23671
0.236068
0.235424
0.234777
0.234122
0.233456
0.232773
0.232067
0.231326
0.230539
0.229688
0.228754
0.22771
0.226523
0.225147
0.223529
0.2216
0.21927
0.216428
0.212928
0.208589
0.20318
0.196418
0.187964
0.177461
0.164559
0.149297
0.131958
0.115252
0.259154
0.258834
0.258154
0.257326
0.256518
0.255712
0.254861
0.253983
0.253111
0.252256
0.251415
0.250588
0.249779
0.248989
0.248218
0.247465
0.246729
0.246008
0.2453
0.244605
0.24392
0.243243
0.242572
0.241907
0.241245
0.240587
0.239932
0.23928
0.238631
0.237984
0.237339
0.236695
0.236051
0.235404
0.234753
0.234093
0.233421
0.232731
0.232014
0.231261
0.230458
0.229588
0.228629
0.227553
0.226324
0.224896
0.223211
0.221196
0.218756
0.215772
0.212091
0.207517
0.201802
0.194636
0.185638
0.174395
0.160455
0.143786
0.124463
0.105759
0.25937
0.259008
0.258259
0.257387
0.256565
0.255747
0.25488
0.253989
0.25311
0.25225
0.251405
0.250576
0.249765
0.248975
0.248205
0.247452
0.246716
0.245996
0.24529
0.244595
0.243911
0.243235
0.242565
0.2419
0.241238
0.24058
0.239925
0.239272
0.238621
0.237973
0.237327
0.236681
0.236034
0.235384
0.234729
0.234064
0.233387
0.232689
0.231964
0.231199
0.230382
0.229494
0.228511
0.227405
0.226138
0.22466
0.222912
0.220816
0.218272
0.215155
0.211303
0.206507
0.200501
0.192949
0.183424
0.171451
0.156456
0.138313
0.116796
0.095828
0.259613
0.259198
0.258367
0.257449
0.256614
0.255785
0.2549
0.253995
0.253109
0.252244
0.251395
0.250563
0.249751
0.24896
0.24819
0.247437
0.246703
0.245983
0.245278
0.244585
0.243902
0.243227
0.242557
0.241893
0.241231
0.240573
0.239917
0.239263
0.238611
0.237962
0.237314
0.236666
0.236017
0.235364
0.234705
0.234037
0.233353
0.232649
0.231915
0.231141
0.23031
0.229404
0.2284
0.227266
0.225963
0.22444
0.222633
0.220461
0.217821
0.21458
0.210567
0.205564
0.199284
0.191365
0.181334
0.168647
0.152587
0.132909
0.108964
0.0854194
0.259887
0.259404
0.258475
0.25751
0.256667
0.255824
0.254919
0.254
0.253106
0.252237
0.251383
0.250548
0.249735
0.248944
0.248174
0.247422
0.246688
0.24597
0.245266
0.244574
0.243892
0.243218
0.24255
0.241885
0.241224
0.240565
0.239909
0.239254
0.238602
0.237951
0.237301
0.236652
0.236
0.235345
0.234683
0.23401
0.233322
0.232611
0.23187
0.231085
0.230242
0.22932
0.228296
0.227137
0.225801
0.224236
0.222375
0.220133
0.217404
0.214048
0.209887
0.20469
0.198155
0.189891
0.17938
0.166002
0.148879
0.127608
0.100982
0.0744916
0.260197
0.259624
0.258581
0.257571
0.256723
0.255864
0.254937
0.254004
0.253103
0.252228
0.25137
0.250533
0.249718
0.248926
0.248156
0.247405
0.246672
0.245955
0.245253
0.244562
0.243882
0.243209
0.242541
0.241878
0.241217
0.240558
0.2399
0.239245
0.238592
0.23794
0.237289
0.236637
0.235984
0.235326
0.234661
0.233984
0.233291
0.232575
0.231826
0.231033
0.230178
0.229243
0.2282
0.227018
0.225652
0.224049
0.222138
0.219833
0.217022
0.213562
0.209265
0.203891
0.19712
0.188538
0.177576
0.163537
0.145364
0.122458
0.0928808
0.0629954
0.26055
0.259857
0.258681
0.257632
0.256782
0.255904
0.254954
0.254008
0.2531
0.252219
0.251357
0.250516
0.2497
0.248908
0.248138
0.247388
0.246656
0.24594
0.245239
0.24455
0.243871
0.243199
0.242533
0.24187
0.241209
0.24055
0.239892
0.239236
0.238581
0.237928
0.237276
0.236623
0.235967
0.235307
0.234639
0.233959
0.233261
0.23254
0.231785
0.230984
0.23012
0.229171
0.228112
0.226909
0.225517
0.223879
0.221925
0.219563
0.216678
0.213123
0.208704
0.203169
0.196185
0.187312
0.175934
0.161276
0.142084
0.117517
0.0847125
0.0508672
0.260954
0.260099
0.258773
0.257697
0.256846
0.255942
0.254966
0.254007
0.253092
0.252205
0.251339
0.250496
0.249679
0.248887
0.248118
0.247369
0.246638
0.245924
0.245225
0.244538
0.24386
0.24319
0.242525
0.241862
0.241202
0.240542
0.239884
0.239227
0.238571
0.237917
0.237263
0.236609
0.235952
0.235289
0.234618
0.233935
0.233234
0.232508
0.231747
0.230939
0.230066
0.229106
0.228033
0.226812
0.225397
0.223729
0.221735
0.219323
0.216374
0.212735
0.208207
0.202531
0.195358
0.186224
0.174472
0.159245
0.139087
0.11286
0.0765701
0.0380414
0.261422
0.260338
0.258839
0.257765
0.256928
0.255996
0.254991
0.254017
0.253093
0.252198
0.251325
0.250478
0.249659
0.248866
0.248097
0.247348
0.246619
0.245906
0.245209
0.244523
0.243848
0.243179
0.242515
0.241854
0.241194
0.240534
0.239875
0.239217
0.238561
0.237906
0.237251
0.236595
0.235936
0.235271
0.234598
0.233911
0.233207
0.232477
0.231711
0.230897
0.230017
0.229047
0.227962
0.226727
0.225292
0.223599
0.221572
0.219116
0.216111
0.2124
0.20778
0.201981
0.194645
0.185286
0.173208
0.157478
0.136434
0.10859
0.0686098
0.0244972
0.26198
0.260584
0.258841
0.257768
0.25695
0.256001
0.25498
0.254002
0.253076
0.252179
0.251305
0.250459
0.24964
0.248848
0.248079
0.247332
0.246603
0.245892
0.245195
0.244512
0.243837
0.24317
0.242507
0.241846
0.241185
0.240525
0.239866
0.239207
0.238549
0.237893
0.237237
0.23658
0.23592
0.235254
0.234578
0.233889
0.233182
0.232448
0.231679
0.23086
0.229974
0.228997
0.227902
0.226654
0.225203
0.223489
0.221434
0.218943
0.215892
0.212121
0.207423
0.201522
0.19405
0.184504
0.172152
0.155993
0.13418
0.104813
0.0610373
0.0101626
0.262633
0.26102
0.259082
0.257972
0.257096
0.256077
0.255013
0.254007
0.25306
0.252148
0.251266
0.250415
0.249596
0.248805
0.24804
0.247296
0.246572
0.245865
0.245173
0.244493
0.243823
0.24316
0.242499
0.24184
0.241181
0.240522
0.239862
0.239202
0.238543
0.237886
0.237228
0.23657
0.235908
0.235239
0.234562
0.23387
0.23316
0.232423
0.231651
0.230829
0.229938
0.228955
0.227854
0.226597
0.225134
0.223403
0.221327
0.218807
0.215719
0.211901
0.207141
0.201161
0.193582
0.183887
0.17132
0.154818
0.132385
0.101675
0.0541912
-0.00537763
0.262785
0.260525
0.258769
0.257943
0.25713
0.256114
0.255061
0.254062
0.253112
0.252192
0.251301
0.250442
0.249616
0.248818
0.248047
0.247298
0.24657
0.24586
0.245166
0.244484
0.243813
0.243148
0.242487
0.241827
0.241167
0.240506
0.239846
0.239186
0.238528
0.23787
0.237214
0.236556
0.235895
0.235227
0.23455
0.233859
0.233149
0.232412
0.23164
0.230816
0.229921
0.228934
0.227828
0.226564
0.225092
0.22335
0.22126
0.218721
0.215609
0.211761
0.206961
0.200929
0.193279
0.183486
0.170776
0.154041
0.131196
0.0994722
0.0489866
-0.0220587
0.266724
0.26131
0.258816
0.257948
0.257065
0.255975
0.254891
0.253887
0.252943
0.252036
0.251159
0.250315
0.249502
0.248716
0.247955
0.247216
0.246496
0.245795
0.245108
0.244435
0.243771
0.243113
0.242457
0.241802
0.241146
0.240487
0.239829
0.23917
0.238513
0.237857
0.237201
0.236544
0.235884
0.235218
0.234541
0.233851
0.233141
0.232405
0.231633
0.230812
0.229918
0.22893
0.227821
0.226555
0.22508
0.223334
0.221238
0.218694
0.215574
0.211715
0.206903
0.200852
0.193178
0.183351
0.170587
0.153761
0.130744
0.0985896
0.0464604
-0.0336948
0.435356
0.341984
0.274862
0.243975
0.223937
0.204828
0.188572
0.177065
0.169476
0.164244
0.160607
0.158251
0.157163
0.157379
0.159102
0.162989
0.169932
0.183491
0.183525
0.155311
0.13684
0.128358
0.121664
0.113513
0.10379
0.092192
0.0772331
0.056248
0.025055
-0.0249705
-0.112832
-0.300543
-0.745388
-0.795776
-0.358756
-0.381926
-0.305447
-0.248766
-0.183105
-0.123372
-0.0700249
-0.0278129
0.000341242
0.0151536
0.0206536
0.0211178
0.0193785
0.0168887
0.0143065
0.0119245
0.00984683
0.008081
0.00660168
0.00537386
0.00435748
0.00351439
0.00281563
0.00226963
0.00197535
0.000883315
0.429872
0.335494
0.269307
0.240664
0.221586
0.202871
0.187038
0.175961
0.168669
0.163703
0.160258
0.158034
0.157054
0.157355
0.159159
0.163118
0.170052
0.181362
0.179321
0.153036
0.135398
0.127356
0.120801
0.112597
0.102764
0.0909748
0.0756505
0.054024
0.0217026
-0.0302926
-0.121222
-0.300194
-0.632061
-0.713085
-0.380249
-0.385093
-0.313199
-0.256605
-0.191323
-0.131313
-0.0772396
-0.0336344
-0.0038203
0.0125206
0.0191453
0.0203222
0.0189973
0.0167353
0.0142819
0.0119666
0.00991471
0.00815312
0.00666758
0.00542973
0.00440368
0.00355267
0.00284759
0.00226428
0.00188858
0.000842539
0.419222
0.33029
0.266445
0.23902
0.220356
0.201895
0.186373
0.175558
0.168455
0.163576
0.160056
0.157901
0.156973
0.157311
0.159126
0.163007
0.169394
0.178422
0.175608
0.152224
0.135147
0.127066
0.120483
0.112242
0.102368
0.0905075
0.0750348
0.0531444
0.0203678
-0.0321259
-0.122175
-0.283032
-0.541959
-0.631237
-0.394081
-0.382315
-0.315879
-0.260646
-0.196354
-0.136464
-0.0821724
-0.0377907
-0.00692287
0.0104407
0.017849
0.0195458
0.0185433
0.0164758
0.0141352
0.0118809
0.00986108
0.00811604
0.00663778
0.00540164
0.0043743
0.00352042
0.0028087
0.00221237
0.00175665
0.000884968
0.405646
0.324824
0.263083
0.236232
0.218113
0.200159
0.185073
0.17459
0.167698
0.162945
0.15968
0.157657
0.156799
0.15717
0.158964
0.162657
0.168377
0.175438
0.171882
0.150831
0.13438
0.126322
0.119836
0.111687
0.101859
0.0899911
0.0744405
0.0523832
0.0193687
-0.0331062
-0.120291
-0.26577
-0.468398
-0.564249
-0.399865
-0.377053
-0.317466
-0.263203
-0.200477
-0.140826
-0.0864619
-0.0415151
-0.00980164
0.00842678
0.0165344
0.0187228
0.018043
0.0161811
0.0139671
0.0117892
0.00981458
0.00809461
0.0066283
0.00539572
0.00436692
0.0035083
0.00278761
0.00217499
0.00165042
0.000868054
0.390828
0.318847
0.259577
0.233258
0.215825
0.19851
0.183913
0.173792
0.167163
0.162629
0.159468
0.157449
0.156631