/*--------------------------------*- C++ -*----------------------------------*\
| =========                 |                                                 |
| \\      /  F ield         | OpenFOAM: The Open Source CFD Toolbox           |
|  \\    /   O peration     | Version:  2.4.0                                 |
|   \\  /    A nd           | Web:      www.OpenFOAM.org                      |
|    \\/     M anipulation  |                                                 |
\*---------------------------------------------------------------------------*/
FoamFile
{
    version     2.0;
    format      ascii;
    class       volScalarField;
    location    "5.07";
    object      k;
}
// * * * * * * * * * * * * * * * * * * * * * * * * * * * * * * * * * * * * * //

dimensions      [0 2 -2 0 0 0 0];

internalField   nonuniform List<scalar> 
6000
(
0.0117122
0.00656263
0.00175501
0.000444964
0.000122705
0.000319204
0.000254315
0.00040468
0.000466991
0.000616799
0.000739352
0.000888009
0.0010081
0.00111588
0.00118827
0.00123958
0.00128682
0.00138206
0.00156783
0.00184097
0.00216627
0.00251241
0.00284411
0.00315956
0.00346031
0.00374822
0.00402471
0.00429073
0.0045468
0.00479457
0.00503218
0.00525939
0.00547552
0.00567975
0.00587108
0.0060486
0.0062112
0.0063583
0.00648865
0.00660262
0.0066984
0.00677835
0.00683948
0.006886
0.0069625
0.00718284
0.00738774
0.00763242
0.00784414
0.00814477
0.00836727
0.00877894
0.00900689
0.00963275
0.00984178
0.0108837
0.0110119
0.0129171
0.0129269
0.0174878
0.0120372
0.0117112
0.0020894
0.000676022
0.000137549
0.000281534
0.000379267
0.000534775
0.000701202
0.000920535
0.0011431
0.00139078
0.00161759
0.00183141
0.00200144
0.00213456
0.00225278
0.00244037
0.00278498
0.00330305
0.00392555
0.00457483
0.00520877
0.00581986
0.00640903
0.00697922
0.00753325
0.00807345
0.00860149
0.00911636
0.00961779
0.0101073
0.0105843
0.0110477
0.011496
0.0119279
0.0123415
0.0127354
0.0131076
0.0134577
0.0137834
0.0140866
0.0143646
0.014622
0.0148643
0.0151188
0.015352
0.0155922
0.0158069
0.0160617
0.0162707
0.0165824
0.0167948
0.0172321
0.0174526
0.0181319
0.0183371
0.0195026
0.0199715
0.0227406
0.011568
0.0151653
0.0028827
0.000648313
0.000188006
0.000334562
0.000480163
0.000669025
0.000887737
0.00116382
0.00145042
0.00176229
0.00204983
0.00231609
0.00253106
0.0027038
0.00286673
0.00312036
0.00356872
0.00422731
0.0050092
0.00582126
0.00661593
0.00738265
0.00812181
0.00883663
0.00953038
0.0102059
0.0108656
0.011508
0.0121344
0.0127455
0.0133408
0.013919
0.0144784
0.0150174
0.0155338
0.0160259
0.0164912
0.016929
0.017337
0.0177164
0.0180661
0.0183889
0.0186869
0.0189806
0.0192534
0.0195219
0.0197722
0.0200452
0.0202935
0.0206125
0.0208806
0.0213093
0.0216244
0.0222686
0.0226628
0.0237289
0.0245425
0.0271961
0.0114637
0.0160709
0.00401182
0.000532794
0.000236581
0.000385614
0.000557358
0.000775716
0.00103229
0.00135189
0.00168611
0.00204382
0.00237412
0.00267644
0.00292394
0.00312811
0.00332916
0.00363593
0.00415935
0.0049131
0.00580197
0.00672513
0.00763064
0.00850511
0.00934809
0.0101627
0.0109526
0.0117207
0.01247
0.0131991
0.0139099
0.0146027
0.015277
0.0159315
0.0165645
0.0171739
0.0177575
0.0183132
0.0188385
0.0193322
0.0197921
0.0202189
0.0206126
0.0209738
0.0213049
0.0216231
0.0219213
0.0222074
0.022481
0.0227649
0.0230406
0.0233636
0.0236739
0.0240968
0.0244877
0.0251095
0.0256625
0.026664
0.0278122
0.0303274
0.0113762
0.0157663
0.00532573
0.000483581
0.000280833
0.000429915
0.000621287
0.000865073
0.00115268
0.00150828
0.00188167
0.00227689
0.00264245
0.00297523
0.00325131
0.00348435
0.00371985
0.00407122
0.0046531
0.00547894
0.0064499
0.00746012
0.00845361
0.00941414
0.0103402
0.0112347
0.0121013
0.0129433
0.0137637
0.0145616
0.015339
0.0160963
0.0168327
0.0175471
0.0182376
0.0189021
0.0195381
0.0201432
0.0207149
0.0212516
0.0217512
0.0222136
0.0226404
0.0230285
0.0233831
0.0237184
0.0240336
0.0243308
0.0246194
0.0249088
0.0252025
0.0255257
0.0258658
0.0262817
0.0267303
0.0273325
0.0280089
0.0289609
0.0303758
0.032743
0.0113033
0.0149415
0.00672866
0.000608711
0.00032324
0.000469135
0.000676992
0.000943093
0.00125755
0.00164432
0.00205183
0.00248007
0.0028772
0.00323815
0.00354145
0.00380239
0.00406992
0.00445968
0.00508869
0.00597194
0.00700978
0.00809278
0.00916093
0.0101951
0.0111924
0.0121554
0.0130878
0.0139931
0.0148743
0.015731
0.0165652
0.0173771
0.0181663
0.0189315
0.0196708
0.0203818
0.021062
0.0217089
0.0223195
0.022892
0.0234244
0.0239163
0.0243697
0.0247783
0.025151
0.0254988
0.0258259
0.02613
0.0264279
0.0267195
0.0270244
0.0273454
0.0277062
0.0281145
0.0286072
0.0291921
0.0299664
0.0308787
0.032499
0.0347213
0.0112435
0.013942
0.00776365
0.00114007
0.000372087
0.000505197
0.000727287
0.00101317
0.00135149
0.00176601
0.00220429
0.00266279
0.00308954
0.00347779
0.00380804
0.00409661
0.00439442
0.00481777
0.00548541
0.00641538
0.00750938
0.00865533
0.00978918
0.0108887
0.0119495
0.0129738
0.013965
0.0149267
0.0158621
0.0167711
0.0176555
0.018516
0.019352
0.0201621
0.0209445
0.0216967
0.0224159
0.0230994
0.0237442
0.024348
0.0249089
0.0254261
0.0259015
0.0263266
0.0267138
0.027071
0.0274062
0.0277144
0.0280177
0.0283089
0.0286201
0.028937
0.0293117
0.029712
0.0302382
0.0308081
0.0316611
0.0325406
0.0343214
0.0364012
0.0111888
0.0129397
0.00846435
0.00207395
0.000448265
0.000540225
0.000774097
0.00107748
0.00143733
0.00187695
0.00234357
0.00283051
0.0032858
0.00370121
0.00405868
0.00437501
0.00470184
0.00515491
0.00585441
0.00682271
0.00796457
0.00916601
0.0103589
0.0115178
0.0126367
0.013717
0.014762
0.0157753
0.0167603
0.0177168
0.0186471
0.0195518
0.0204302
0.0212812
0.0221027
0.0228922
0.0236467
0.0243634
0.0250389
0.0256708
0.0262571
0.0267967
0.0272902
0.0277292
0.0281282
0.0284926
0.0288331
0.0291433
0.0294488
0.0297376
0.0300513
0.0303627
0.0307459
0.0311379
0.0316893
0.0322457
0.0331623
0.0340144
0.0359204
0.0378605
0.011136
0.0120146
0.0088804
0.0031989
0.000597153
0.000577185
0.000819071
0.00113768
0.00151701
0.00197955
0.00247261
0.0029867
0.00346997
0.00391276
0.00429805
0.00464252
0.00499746
0.00547715
0.00620293
0.00720261
0.00838547
0.00963632
0.010883
0.0120966
0.0132693
0.0144017
0.0154967
0.016558
0.017589
0.0185897
0.0195625
0.020508
0.0214257
0.0223144
0.023172
0.0239959
0.0247829
0.02553
0.0262336
0.0268911
0.0275004
0.0280601
0.0285685
0.0290196
0.0294282
0.0297979
0.0301416
0.0304519
0.0307572
0.0310421
0.031355
0.0316598
0.0320471
0.0324303
0.0330001
0.0335443
0.0345121
0.0353406
0.0373436
0.0391469
0.0110858
0.0111982
0.00905986
0.00433697
0.000907375
0.000621176
0.00086397
0.00119521
0.00159206
0.0020756
0.00259352
0.00313379
0.00364474
0.00411536
0.00452925
0.00490241
0.00528489
0.00578864
0.00653604
0.00756116
0.00877908
0.0100741
0.0113702
0.0126347
0.0138578
0.015039
0.0161811
0.0172876
0.0183618
0.0194039
0.0204164
0.0214001
0.0223545
0.0232784
0.0241697
0.0250255
0.0258428
0.026618
0.0273477
0.0280286
0.028659
0.0292363
0.0297574
0.0302191
0.0306355
0.0310091
0.0313543
0.0316632
0.0319661
0.0322456
0.0325552
0.0328522
0.03324
0.0336139
0.0341964
0.0347291
0.0357381
0.0365456
0.0386222
0.0402921
0.0110393
0.0104972
0.00905258
0.00534231
0.00148524
0.000682054
0.000911067
0.00125154
0.00166382
0.00216657
0.00270794
0.00327357
0.00381206
0.00431106
0.00475445
0.005157
0.00556669
0.00609246
0.00685753
0.00790292
0.00915059
0.0104852
0.0118267
0.0131388
0.0144093
0.0156369
0.0168236
0.0179728
0.0190878
0.020169
0.0212191
0.0222387
0.0232277
0.0241846
0.0251074
0.0259933
0.0268387
0.0276403
0.0283941
0.0290968
0.0297466
0.030339
0.0308713
0.0313421
0.0317648
0.032141
0.0324861
0.0327923
0.0330911
0.033364
0.0336681
0.0339561
0.0343414
0.0347053
0.0352959
0.0358174
0.0368588
0.0376472
0.0397777
0.0413181
0.010997
0.00990563
0.00890715
0.00615898
0.00223583
0.000779156
0.000963747
0.00130837
0.00173363
0.0022538
0.00281725
0.00340751
0.00397344
0.00450141
0.00497524
0.005408
0.00584484
0.00639103
0.00717042
0.00823147
0.00950407
0.0108739
0.0122573
0.0136139
0.0149294
0.0162009
0.0174301
0.01862
0.0197738
0.0208922
0.0219778
0.0230315
0.024053
0.0250412
0.0259937
0.0269077
0.0277796
0.0286057
0.0293821
0.030105
0.0307724
0.0313776
0.03192
0.0323987
0.0328264
0.033204
0.0335477
0.03385
0.0341432
0.0344082
0.034705
0.0349829
0.0353631
0.0357164
0.0363109
0.0368213
0.0378876
0.0386581
0.040826
0.042241
0.010959
0.00941223
0.00866737
0.00676721
0.00306653
0.000952159
0.00102756
0.0013679
0.00180292
0.00233861
0.00292271
0.00353686
0.00413012
0.00468763
0.00519286
0.00565675
0.00612088
0.00668628
0.00747718
0.00854979
0.00984283
0.0112438
0.0126657
0.0140642
0.0154223
0.0167356
0.0180053
0.0192341
0.0204249
0.0215786
0.022698
0.023784
0.0248364
0.0258539
0.0268344
0.0277749
0.0286716
0.0295208
0.0303181
0.0310598
0.0317428
0.0323592
0.0329106
0.0333961
0.0338275
0.0342055
0.0345466
0.0348439
0.0351302
0.0353863
0.0356742
0.035941
0.0363137
0.0366556
0.0372505
0.0377496
0.0388343
0.0395876
0.0417786
0.0430729
0.010925
0.00900406
0.00837006
0.00717213
0.0038794
0.00128298
0.00111219
0.00143319
0.00187343
0.0024224
0.00302558
0.00366282
0.00428322
0.00487077
0.00540834
0.00590432
0.0063961
0.00697989
0.00777993
0.00886043
0.0101697
0.0115979
0.013055
0.0144927
0.0158912
0.0172444
0.0185528
0.0198189
0.0210449
0.0222323
0.0233839
0.0245005
0.0255821
0.0266275
0.0276343
0.0285997
0.0295196
0.0303903
0.0312071
0.0319661
0.0326625
0.0332889
0.0338483
0.0343394
0.0347734
0.0351508
0.0354883
0.0357797
0.0360579
0.0363042
0.0365816
0.0368363
0.0371997
0.0375293
0.0381215
0.038609
0.0397063
0.0404427
0.0426446
0.043823
0.010895
0.0086684
0.00804442
0.00739337
0.00463069
0.0018029
0.00123427
0.00150874
0.00194731
0.00250679
0.00312718
0.00378656
0.00443379
0.00505177
0.00562254
0.00615164
0.00667162
0.0072733
0.00808055
0.00916565
0.0104872
0.0119389
0.013428
0.0149023
0.0163389
0.0177302
0.0190756
0.0203773
0.0216371
0.0228566
0.0240387
0.0251844
0.0262936
0.0273652
0.0283968
0.0293854
0.0303271
0.0312178
0.0320527
0.0328273
0.033535
0.0341706
0.0347369
0.0352326
0.0356682
0.036044
0.036377
0.0366615
0.0369306
0.037166
0.0374318
0.0376736
0.0380258
0.0383423
0.038929
0.0394045
0.0405092
0.0412288
0.0434311
0.044499
0.0108685
0.00839361
0.00771238
0.00745812
0.00528528
0.00247644
0.00142218
0.00160144
0.00202746
0.00259373
0.00322898
0.00390934
0.00458289
0.00523154
0.00583629
0.00639952
0.00694843
0.00756781
0.00838075
0.0094675
0.0107975
0.012269
0.0137869
0.0152952
0.0167679
0.0181955
0.0195762
0.0209119
0.0222038
0.023454
0.0246651
0.0258383
0.0269736
0.0280697
0.0291246
0.030135
0.0310968
0.032006
0.0328575
0.0336454
0.0343632
0.035007
0.0355792
0.0360785
0.0365147
0.0368881
0.0372156
0.0374924
0.0377515
0.0379752
0.0382282
0.0384561
0.0387957
0.0390983
0.0396771
0.0401399
0.0412475
0.0419501
0.0441441
0.0451067
0.0108453
0.00816946
0.00738952
0.00739675
0.00581799
0.00322643
0.00172489
0.00172208
0.00211788
0.00268568
0.00333274
0.00403258
0.00473167
0.00541102
0.00605036
0.00664874
0.00722743
0.00786463
0.00868211
0.00976789
0.0111029
0.0125904
0.014134
0.0156737
0.0171803
0.0186422
0.0200566
0.0214248
0.0227473
0.0240266
0.0252653
0.0264644
0.0276241
0.0287433
0.0298198
0.0308503
0.0318308
0.0327569
0.0336234
0.0344224
0.0351492
0.0358002
0.0363773
0.0368792
0.037315
0.0376852
0.0380065
0.0382747
0.038523
0.0387342
0.0389734
0.0391867
0.0395123
0.0398001
0.0403689
0.0408183
0.0419247
0.0426101
0.044788
0.0456511
0.0108249
0.00798717
0.00708612
0.00723966
0.00621511
0.00398292
0.00217198
0.00188735
0.00222424
0.00278581
0.00344054
0.0041579
0.00488139
0.00559123
0.00626559
0.00690006
0.0075095
0.00816491
0.00898612
0.0100686
0.0114052
0.0129052
0.0144712
0.0160396
0.0175779
0.0190722
0.0205186
0.0219177
0.0232694
0.0245762
0.0258409
0.0270644
0.028247
0.0293876
0.0304841
0.0315332
0.0325307
0.0334723
0.0343513
0.03516
0.0358948
0.0365518
0.0371328
0.0376363
0.0380708
0.0384369
0.0387512
0.0390103
0.0392469
0.0394449
0.0396694
0.0398673
0.0401777
0.0404501
0.0410068
0.0414423
0.0425437
0.0432114
0.045367
0.0461363
0.0108072
0.00783934
0.00680833
0.00701525
0.00647388
0.0046922
0.00274929
0.00212228
0.0023548
0.00289835
0.00355499
0.00428724
0.00503354
0.00577332
0.00648285
0.00715424
0.00779548
0.00846974
0.00929421
0.0103715
0.0117064
0.0132153
0.0148004
0.0163947
0.0179624
0.0194873
0.0209639
0.0223923
0.0237716
0.0251044
0.0263935
0.0276398
0.0288437
0.0300041
0.0311189
0.0321849
0.0331977
0.0341529
0.0350421
0.0358593
0.0366009
0.0372629
0.0378468
0.0383508
0.0387832
0.0391444
0.0394511
0.0397002
0.0399246
0.0401088
0.0403179
0.0404997
0.0407938
0.0410499
0.0415929
0.0420137
0.0431069
0.0437566
0.0458844
0.0465657
0.0107918
0.00771978
0.00655915
0.00674849
0.00660078
0.00531441
0.00340952
0.0024591
0.00252155
0.003029
0.00367941
0.00442295
0.00518983
0.00595859
0.00670315
0.0074121
0.00808621
0.00878018
0.00960776
0.0106781
0.0120083
0.0135226
0.0151235
0.0167409
0.0183356
0.019889
0.0213941
0.02285
0.0242553
0.0256125
0.0269244
0.0281919
0.0294154
0.0305939
0.0317252
0.0328065
0.033833
0.0347989
0.0356969
0.0365213
0.0372685
0.0379344
0.0385201
0.0390237
0.0394531
0.0398087
0.040107
0.0403456
0.040557
0.0407268
0.0409198
0.0410849
0.0413619
0.0416011
0.0421288
0.0425341
0.0436162
0.0442474
0.046343
0.0469423
0.0107784
0.00762337
0.00633936
0.00646025
0.00660939
0.00582229
0.00410265
0.00291746
0.00274172
0.00318545
0.00381807
0.00456792
0.00535234
0.00614862
0.00692764
0.00767456
0.00838257
0.00909728
0.00992815
0.0109902
0.0123129
0.013829
0.0154423
0.0170798
0.018699
0.0202788
0.0218104
0.023292
0.0247217
0.0261017
0.0274349
0.0287217
0.0299631
0.0311579
0.0323041
0.0333987
0.0344365
0.0354111
0.0363164
0.0371466
0.0378983
0.0385669
0.0391533
0.0396555
0.040081
0.0404302
0.0407196
0.040947
0.041145
0.0412999
0.0414762
0.041624
0.041883
0.0421047
0.0426157
0.043005
0.0440733
0.0446857
0.0467453
0.0472685
0.0107668
0.00754587
0.00614822
0.00616706
0.00651801
0.00619996
0.00478178
0.00348861
0.00303903
0.0033781
0.00397653
0.00472574
0.00552358
0.00634523
0.00715764
0.00794262
0.00868545
0.00942207
0.0102567
0.0113094
0.0126219
0.0141363
0.0157585
0.017413
0.0190541
0.020658
0.0222142
0.0237197
0.0251721
0.0265732
0.0279257
0.0292303
0.0304877
0.031697
0.0328561
0.0339621
0.0350084
0.0359901
0.0369011
0.0377359
0.0384905
0.0391606
0.0397466
0.0402465
0.0406672
0.0410094
0.0412892
0.0415049
0.041689
0.0418285
0.0419877
0.0421178
0.042358
0.0425616
0.0430548
0.0434274
0.0444796
0.0450728
0.0470935
0.0475466
0.0107568
0.0074838
0.005984
0.00588134
0.0063475
0.00644179
0.00540599
0.00413945
0.00343569
0.00362061
0.00416202
0.0049009
0.00570659
0.00655063
0.00739472
0.00821743
0.00899582
0.0097556
0.0105947
0.0116373
0.0129372
0.0144465
0.0160739
0.0177421
0.0194025
0.021028
0.0226067
0.0241342
0.0256074
0.0270277
0.0283979
0.0297183
0.0309899
0.0322118
0.033382
0.0344962
0.0355492
0.0365363
0.0374515
0.0382892
0.0390456
0.0397159
0.0403004
0.0407969
0.041212
0.0415465
0.0418161
0.0420197
0.0421894
0.0423131
0.0424547
0.0425667
0.0427877
0.0429727
0.0434469
0.0438024
0.0448363
0.0454101
0.0473896
0.0477785
0.0107481
0.00743431
0.00584442
0.00561179
0.00611921
0.00655112
0.00594186
0.00482648
0.00393871
0.0039307
0.00438395
0.00509895
0.00590509
0.00676744
0.00764076
0.00850029
0.0093147
0.0100989
0.0109434
0.0119755
0.0132605
0.0147613
0.0163903
0.0180689
0.0197454
0.0213902
0.0229891
0.0245365
0.0260286
0.0274663
0.0288522
0.0301865
0.0314704
0.0327029
0.033881
0.0350014
0.0360594
0.03705
0.0379678
0.0388069
0.0395635
0.0402328
0.0408146
0.0413067
0.0417155
0.0420415
0.0423003
0.0424914
0.0426464
0.042754
0.0428777
0.0429713
0.0431725
0.0433385
0.0437929
0.0441306
0.0451444
0.0456986
0.0476352
0.0479659
0.0107405
0.00739507
0.00572696
0.00536396
0.0058534
0.00653874
0.00636448
0.0055048
0.00453557
0.00432444
0.00465514
0.00532677
0.00612359
0.00699879
0.00789791
0.00879272
0.00964321
0.010453
0.0113042
0.0123255
0.0135937
0.0150826
0.0167095
0.0183949
0.0200845
0.0217458
0.0233626
0.0249276
0.0264367
0.0278897
0.0292894
0.0306355
0.0319297
0.0331697
0.0343536
0.0354782
0.0365391
0.0375315
0.0384501
0.0392891
0.0400444
0.0407112
0.0412892
0.041776
0.0421775
0.0424944
0.042742
0.0429201
0.0430601
0.0431513
0.0432569
0.0433318
0.0435129
0.0436596
0.0440933
0.0444128
0.045405
0.0459396
0.0478319
0.0481102
0.010734
0.00736416
0.00562901
0.00514088
0.00556805
0.00642106
0.00665817
0.00613299
0.00519771
0.0048092
0.00498945
0.00559413
0.00636755
0.00724836
0.00816875
0.00909644
0.00998255
0.010819
0.0116781
0.012689
0.0139385
0.0154124
0.0170333
0.0187218
0.0204212
0.0220961
0.0237282
0.0253085
0.0268323
0.0282985
0.02971
0.0310658
0.0323671
0.0336124
0.0348
0.0359267
0.0369886
0.0379809
0.0388984
0.0397355
0.040488
0.041151
0.041724
0.0422044
0.0425979
0.042905
0.043141
0.0433057
0.0434305
0.0435051
0.0435924
0.0436484
0.0438091
0.0439363
0.0443487
0.0446497
0.0456188
0.0461338
0.047981
0.0482128
0.0107283
0.00734003
0.00554807
0.00494363
0.0052782
0.00621813
0.00681659
0.00667546
0.0058869
0.00538091
0.00539799
0.00591083
0.00664531
0.00752063
0.00845625
0.00941341
0.010334
0.0111978
0.0120663
0.0130673
0.0142967
0.0157524
0.0173633
0.019051
0.0207568
0.0224422
0.024087
0.0256801
0.0272163
0.0286936
0.0301139
0.0314768
0.032783
0.0340315
0.0352206
0.0363473
0.037408
0.0383982
0.0393128
0.0401462
0.0408943
0.0415521
0.0421188
0.0425918
0.0429764
0.0432732
0.0434971
0.0436482
0.0437575
0.0438154
0.0438843
0.0439214
0.0440616
0.044169
0.0445596
0.0448419
0.0457867
0.0462822
0.048084
0.0482749
0.0107234
0.00732139
0.00548181
0.00477188
0.00499563
0.00595163
0.00684234
0.00710403
0.00656148
0.00602223
0.00588706
0.0062861
0.00696397
0.00782229
0.00876465
0.00974582
0.0106991
0.0115906
0.01247
0.0134618
0.01467
0.0161043
0.0177014
0.0193843
0.0210926
0.0227854
0.0244399
0.0260431
0.0275888
0.0290744
0.0305013
0.0318689
0.0331778
0.0344272
0.0356154
0.0367399
0.0377973
0.0387832
0.0396929
0.0405208
0.0412629
0.041914
0.0424732
0.0429379
0.0433128
0.0435987
0.04381
0.0439472
0.0440409
0.0440822
0.0441326
0.0441509
0.0442704
0.044358
0.0447265
0.0449897
0.0459094
0.0463855
0.0481418
0.0482975
0.0107191
0.00730719
0.00542808
0.00462435
0.00472891
0.00564306
0.00674592
0.00739893
0.00718091
0.0067044
0.00645471
0.00672747
0.00733078
0.00815869
0.00909879
0.0100977
0.0110792
0.0119982
0.0128899
0.0138737
0.01506
0.0164701
0.0180492
0.019723
0.0214298
0.0231262
0.0247873
0.0263976
0.0279501
0.0294416
0.0308726
0.0322425
0.0335517
0.0347995
0.0359845
0.0371045
0.0381563
0.0391358
0.0400385
0.0408591
0.0415935
0.0422365
0.042787
0.0432422
0.0436067
0.043881
0.0440795
0.0442026
0.0442807
0.0443052
0.0443373
0.0443368
0.0444356
0.0445035
0.0448495
0.0450938
0.0459874
0.0464447
0.0481556
0.0482816
0.0107153
0.00729659
0.00538498
0.00449919
0.00448373
0.00531229
0.00654415
0.00754959
0.00770875
0.0073912
0.00708847
0.00723854
0.00775226
0.00853527
0.00946268
0.0104719
0.0114771
0.0124219
0.0133268
0.0143038
0.0154674
0.0168506
0.0184079
0.0200683
0.0217693
0.0234656
0.0251299
0.0267443
0.0283008
0.0297954
0.031228
0.0325977
0.0339047
0.0351485
0.0363279
0.0374409
0.0384848
0.0394557
0.0403494
0.0411607
0.0418856
0.042519
0.0430595
0.0435043
0.0438577
0.0441199
0.0443052
0.0444141
0.0444765
0.0444845
0.0444984
0.0444793
0.0445576
0.0446058
0.0449293
0.0451545
0.0460215
0.0464603
0.0481264
0.048228
0.0107121
0.00728888
0.00535084
0.00439421
0.00426327
0.00497641
0.00625817
0.00755481
0.00811482
0.00804332
0.0077654
0.00781642
0.00823279
0.00895698
0.00986031
0.0108712
0.0118944
0.0128627
0.0137812
0.0147523
0.015893
0.0172471
0.0187787
0.0204213
0.0221123
0.0238045
0.0254685
0.0270837
0.0286413
0.0301363
0.0315677
0.0329346
0.0342368
0.035474
0.0366453
0.0377489
0.0387825
0.0397425
0.040625
0.0414251
0.0421388
0.0427611
0.0432904
0.0437237
0.0440652
0.0443149
0.0444867
0.0445813
0.0446281
0.0446197
0.0446156
0.0445782
0.0446362
0.0446651
0.0449659
0.0451722
0.0460122
0.0464331
0.0480552
0.0481377
0.0107092
0.00728347
0.00532419
0.00430711
0.00406877
0.0046492
0.00591132
0.00742243
0.00837691
0.00862194
0.00845418
0.00844999
0.00877291
0.00942744
0.0102952
0.0112982
0.0123331
0.0133215
0.0142531
0.0152194
0.0163372
0.0176601
0.0191625
0.020783
0.0224597
0.0241437
0.0258035
0.0274163
0.0289718
0.0304643
0.0318918
0.033253
0.0345479
0.0357759
0.0369364
0.0380281
0.0390488
0.0399956
0.0408648
0.0416517
0.0423524
0.042962
0.0434789
0.0438998
0.0442287
0.0444655
0.0446236
0.0447038
0.0447352
0.0447106
0.044689
0.0446336
0.0446717
0.0446815
0.0449597
0.0451473
0.04596
0.0463637
0.0479427
0.0480113
0.0107068
0.0072799
0.00530377
0.00423564
0.00389998
0.00434088
0.00552704
0.0071682
0.00848205
0.00909167
0.00911828
0.00911937
0.00936756
0.00994778
0.0107697
0.0117552
0.0127943
0.0137987
0.0147428
0.0157049
0.0168001
0.0180902
0.01956
0.0211542
0.0228121
0.0244838
0.0261355
0.0277423
0.0292925
0.0307794
0.0322
0.0335529
0.0348375
0.0360536
0.0372007
0.0382778
0.0392833
0.0402145
0.0410681
0.0418397
0.0425257
0.0431212
0.0436244
0.044032
0.0443476
0.044571
0.0447154
0.0447813
0.0447975
0.0447571
0.0447183
0.0446455
0.0446639
0.0446552
0.044911
0.0450803
0.0458656
0.0462528
0.0477897
0.0478495
0.0107046
0.00727778
0.00528849
0.00417765
0.00375563
0.00405828
0.00512704
0.00681401
0.00842729
0.00942291
0.00971926
0.00979688
0.0100048
0.0105153
0.0112847
0.0122434
0.0132791
0.0142947
0.0152496
0.0162083
0.0172813
0.0185374
0.0199716
0.0215353
0.0231701
0.0248251
0.0264646
0.0280617
0.0296032
0.0310813
0.0324921
0.0338336
0.0351051
0.0363066
0.0374376
0.0384975
0.0394852
0.0403983
0.0412341
0.0419885
0.042658
0.0432379
0.0437262
0.0441196
0.0444213
0.0446311
0.0447615
0.0448133
0.0448146
0.0447589
0.0447033
0.0446136
0.0446131
0.0445863
0.04482
0.0449714
0.0457293
0.046101
0.0475972
0.047653
0.0107027
0.00727679
0.00527742
0.00413118
0.00363381
0.00380527
0.00473
0.00638575
0.00821973
0.00959387
0.0102198
0.0104492
0.0106653
0.0111224
0.0118378
0.0127625
0.0137875
0.014809
0.0157729
0.0167284
0.0177799
0.0190011
0.0203971
0.0219265
0.0235337
0.0251677
0.0267907
0.0283743
0.0299036
0.0313695
0.0327673
0.0340945
0.0353501
0.036534
0.0376462
0.0386863
0.0396535
0.0405462
0.041362
0.0420971
0.0427484
0.0433111
0.0437834
0.0441617
0.044449
0.0446449
0.0447614
0.0447993
0.0447861
0.0447156
0.044644
0.0445381
0.0445191
0.0444749
0.0446871
0.0448211
0.0455518
0.0459089
0.0473657
0.0474223
0.010701
0.00727668
0.00526979
0.00409445
0.00353225
0.00358327
0.00435066
0.00591075
0.00787583
0.00959223
0.0105862
0.0110397
0.0113231
0.0117555
0.0124232
0.0133102
0.014318
0.0153403
0.0163109
0.0172635
0.0182943
0.0194803
0.0208358
0.0223273
0.0239026
0.0255112
0.0271135
0.0286797
0.0301931
0.0316434
0.033025
0.0343348
0.0355715
0.036735
0.0378255
0.038843
0.0397873
0.0406571
0.0414506
0.0421645
0.0427958
0.04334
0.0437951
0.0441576
0.0444301
0.0446118
0.0447145
0.0447388
0.0447116
0.0446269
0.04454
0.0444187
0.0443821
0.0443212
0.0445123
0.0446297
0.0453334
0.0456771
0.0470961
0.0471581
0.0106995
0.00727723
0.00526492
0.00406591
0.00344859
0.00339187
0.00399962
0.00541547
0.00741977
0.00941626
0.0107911
0.0115314
0.0119468
0.012395
0.0130306
0.0138811
0.0148677
0.0158863
0.0168611
0.017811
0.0188221
0.0199731
0.0212865
0.0227368
0.0242761
0.025855
0.0274322
0.0289769
0.0304707
0.031902
0.0332641
0.0345532
0.035768
0.0369082
0.0379743
0.0389665
0.0398852
0.0407298
0.0414988
0.0421895
0.0427991
0.0433235
0.0437604
0.0441063
0.0443635
0.0445311
0.0446202
0.0446313
0.0445907
0.0444926
0.0443912
0.0442553
0.0442019
0.0441253
0.044296
0.0443975
0.0450748
0.0454062
0.0467889
0.0468608
0.0106983
0.00727828
0.00526224
0.00404417
0.00338047
0.00322937
0.00368346
0.00492342
0.00688115
0.00907524
0.0108155
0.0118896
0.0125019
0.0130153
0.0136445
0.0144664
0.0154311
0.0164427
0.0174199
0.0183673
0.0193601
0.0204767
0.0217468
0.0231532
0.0246528
0.0261978
0.0277457
0.0292647
0.0307351
0.0321438
0.033483
0.0347484
0.0359383
0.0370522
0.038091
0.0390553
0.0399459
0.0407628
0.0415052
0.0421707
0.0427571
0.0432603
0.0436781
0.0440069
0.0442485
0.0444019
0.0444778
0.0444762
0.044423
0.0443123
0.0441973
0.044048
0.0439787
0.0438873
0.0440384
0.0441248
0.0447763
0.0450966
0.0464448
0.046531
0.0106971
0.0072797
0.00526131
0.00402804
0.00332569
0.00309331
0.00340526
0.00445371
0.00629212
0.00858891
0.0106503
0.0120842
0.0129526
0.0135867
0.0142441
0.0150531
0.0159996
0.0170035
0.017982
0.0189275
0.0199038
0.0209873
0.0222139
0.0235742
0.0250307
0.0265377
0.028052
0.0295414
0.0309846
0.032367
0.03368
0.0349185
0.0360804
0.0371652
0.0381738
0.0391075
0.0399676
0.0407545
0.0414682
0.0421068
0.0426685
0.0431492
0.0435471
0.0438582
0.0440841
0.0442235
0.0442864
0.0442729
0.0442078
0.0440856
0.0439581
0.0437964
0.0437124
0.0436073
0.0437398
0.0438122
0.0444385
0.0447491
0.0460645
0.0461691
0.0106961
0.00728137
0.00526171
0.00401651
0.00328222
0.00298081
0.00316536
0.00402028
0.00568436
0.00798592
0.0102983
0.0120921
0.0132645
0.0140761
0.0148043
0.0156237
0.0165617
0.0175602
0.0185405
0.0194855
0.0204477
0.0215001
0.0226836
0.0239964
0.0254069
0.0268722
0.028349
0.0298048
0.0312169
0.0325696
0.033853
0.0350614
0.0361922
0.037245
0.0382209
0.0391214
0.0399484
0.0407031
0.0413861
0.0419961
0.0425315
0.0429889
0.043366
0.043659
0.0438692
0.0439949
0.0440455
0.0440208
0.0439448
0.0438122
0.0436734
0.0435006
0.0434031
0.0432855
0.0434003
0.0434598
0.0440618
0.0443641
0.0456485
0.0457757
0.0106952
0.00728321
0.00526314
0.0040087
0.00324825
0.0028889
0.00296207
0.0036319
0.00508637
0.00730121
0.00977406
0.0118997
0.0134069
0.0144494
0.0152958
0.0161567
0.0171019
0.0181014
0.0190863
0.0200333
0.0209846
0.0220088
0.0231506
0.0244153
0.0257777
0.0271979
0.0286335
0.0300521
0.0314294
0.0327488
0.0339993
0.0351744
0.0362712
0.0372893
0.0382296
0.0390945
0.0398862
0.0406066
0.041257
0.0418367
0.0423447
0.0427776
0.0431335
0.0434082
0.0436028
0.0437151
0.0437541
0.0437191
0.0436334
0.0434916
0.0433428
0.0431603
0.0430506
0.0429219
0.0430203
0.0430681
0.0436467
0.0439422
0.0451975
0.0453511
0.0106945
0.00728517
0.00526534
0.00400387
0.00322219
0.00281469
0.00279243
0.0032926
0.00452132
0.00657272
0.00910366
0.011505
0.0133555
0.0146737
0.0156872
0.0166265
0.017601
0.0186127
0.0196078
0.020561
0.0215058
0.0225058
0.0236082
0.0248253
0.0261381
0.0275106
0.0289019
0.0302796
0.0316187
0.0329014
0.0341157
0.0352546
0.0363146
0.0372951
0.0381975
0.0390242
0.0397784
0.0404626
0.0410786
0.0416267
0.0421061
0.0425138
0.0428479
0.0431044
0.0432836
0.0433831
0.0434113
0.0433673
0.0432731
0.0431235
0.0429662
0.0427756
0.0426551
0.0425168
0.0426
0.0426374
0.0431937
0.043484
0.044712
0.0448958
0.0106938
0.00728717
0.00526808
0.0040014
0.00320264
0.00275548
0.00265279
0.00300264
0.00400588
0.00583762
0.00832277
0.0109182
0.0130947
0.0147193
0.0159463
0.0170048
0.0180365
0.0190766
0.0200909
0.0210568
0.0220008
0.0229817
0.0240485
0.0252196
0.0264824
0.0278052
0.0291494
0.0304831
0.0317808
0.0330236
0.0341988
0.0352986
0.036319
0.0372594
0.0381214
0.0389078
0.0396225
0.0402685
0.0408487
0.0413638
0.0418136
0.0421956
0.0425078
0.042746
0.0429103
0.0429979
0.0430164
0.0429645
0.0428632
0.0427075
0.0425433
0.0423461
0.0422165
0.0420702
0.0421396
0.0421681
0.0427033
0.04299
0.0441926
0.0444103
0.0106932
0.00728919
0.00527121
0.00400078
0.00318842
0.00270885
0.00253925
0.00275952
0.00355001
0.00512884
0.00747352
0.0101631
0.0126198
0.0145623
0.0160421
0.0172617
0.018383
0.0194724
0.020519
0.0215064
0.0224572
0.0234256
0.0244618
0.0255897
0.0268033
0.0280755
0.0293706
0.0306577
0.0319111
0.0331111
0.0342443
0.0353022
0.0362805
0.0371785
0.0379979
0.038742
0.0394153
0.0400216
0.0405646
0.0410457
0.0414653
0.0418211
0.0421113
0.0423316
0.0424817
0.0425583
0.0425683
0.0425099
0.0424033
0.0422431
0.0420738
0.0418719
0.0417349
0.0415823
0.0416394
0.0416606
0.0421759
0.0424607
0.0436398
0.0438949
0.0106927
0.0072912
0.00527458
0.00400156
0.0031785
0.00267267
0.002448
0.00255897
0.00315755
0.00447238
0.00660037
0.00927513
0.0119392
0.0141872
0.015947
0.017367
0.0186128
0.019777
0.0208725
0.0218933
0.0228604
0.0238247
0.0248369
0.025926
0.0270924
0.028314
0.0295588
0.0307973
0.032004
0.0331588
0.0342475
0.0352611
0.0361951
0.0370484
0.0378232
0.0385232
0.0391535
0.0397188
0.0402235
0.0406698
0.0410586
0.0413881
0.0416565
0.0418595
0.0419963
0.0420631
0.042066
0.0420029
0.0418926
0.0417299
0.0415574
0.0413528
0.0412103
0.0410533
0.0410997
0.0411152
0.0416121
0.0418968
0.0430542
0.0433502
0.0106922
0.00729318
0.0052781
0.00400341
0.00317202
0.00264507
0.00237552
0.0023959
0.00282749
0.0038858
0.00574553
0.00829944
0.0110753
0.0135896
0.0156392
0.0172923
0.0186978
0.019965
0.0211298
0.0221987
0.0231942
0.0241645
0.025161
0.0262171
0.0273399
0.0285122
0.0297065
0.0308952
0.0320534
0.0331609
0.034203
0.0351702
0.0360578
0.0368647
0.0375932
0.0382476
0.0388335
0.0393567
0.0398223
0.0402332
0.040591
0.0408944
0.0411415
0.041328
0.0414525
0.041511
0.0415086
0.0414426
0.0413306
0.0411674
0.0409939
0.0407887
0.0406427
0.0404832
0.0405207
0.0405324
0.0410123
0.0412987
0.0424365
0.0427764
0.0106918
0.0072951
0.00528169
0.00400604
0.00316826
0.00262447
0.00231862
0.00226497
0.00255541
0.00337809
0.00494468
0.00728639
0.0100645
0.0127781
0.0151056
0.0170132
0.0186104
0.0200104
0.0212676
0.0224022
0.0234402
0.0244286
0.0254194
0.0264503
0.0275345
0.0286603
0.029805
0.0309436
0.0320522
0.033111
0.0341048
0.035024
0.0358635
0.0366225
0.0373033
0.0379109
0.0384515
0.0389318
0.0393577
0.039733
0.04006
0.0403376
0.0405642
0.0407352
0.040849
0.0409008
0.0408949
0.0408281
0.0407166
0.0405553
0.0403829
0.0401794
0.0400321
0.0398724
0.0399029
0.0399126
0.0403772
0.0406671
0.0417871
0.042174
0.0106915
0.00729696
0.00528528
0.00400923
0.00316661
0.00260952
0.00227453
0.00216105
0.00233492
0.00295075
0.00422392
0.00628642
0.00895457
0.0117762
0.0143439
0.0165114
0.0183256
0.0198868
0.0212612
0.0224813
0.0235783
0.024599
0.0255961
0.0266112
0.0276635
0.0287471
0.0298445
0.0309338
0.0319927
0.0330018
0.0339463
0.0348163
0.0356066
0.0363165
0.0369486
0.0375085
0.0380032
0.0384402
0.0388262
0.039166
0.0394625
0.0397152
0.0399223
0.0400793