/*--------------------------------*- C++ -*----------------------------------*\
| =========                 |                                                 |
| \\      /  F ield         | OpenFOAM: The Open Source CFD Toolbox           |
|  \\    /   O peration     | Version:  2.4.0                                 |
|   \\  /    A nd           | Web:      www.OpenFOAM.org                      |
|    \\/     M anipulation  |                                                 |
\*---------------------------------------------------------------------------*/
FoamFile
{
    version     2.0;
    format      ascii;
    class       volScalarField;
    location    "5.1";
    object      k;
}
// * * * * * * * * * * * * * * * * * * * * * * * * * * * * * * * * * * * * * //

dimensions      [0 2 -2 0 0 0 0];

internalField   nonuniform List<scalar> 
6000
(
0.0117122
0.00656263
0.00175501
0.000444963
0.000122706
0.000319176
0.000254322
0.000404554
0.00046638
0.000615172
0.000736196
0.000883001
0.00100108
0.00110707
0.00117872
0.00123184
0.00128512
0.00138941
0.00158083
0.00185151
0.00216864
0.00250411
0.00282599
0.00313293
0.00342624
0.00370759
0.00397825
0.00423911
0.00449063
0.00473449
0.00496895
0.00519371
0.00540816
0.0056115
0.00580273
0.00598094
0.00614496
0.00629414
0.00642712
0.00654412
0.00664319
0.00672644
0.00679082
0.00684005
0.00692719
0.00715133
0.00736025
0.00760825
0.00782343
0.00812613
0.00835139
0.00876362
0.00899386
0.0096187
0.00983001
0.0108692
0.011
0.0129007
0.0129134
0.0174627
0.0120372
0.0117112
0.0020894
0.000676018
0.000137535
0.000281436
0.000378954
0.000533982
0.000699371
0.000916918
0.00113703
0.00138175
0.00160537
0.00181594
0.00198363
0.00211788
0.00224444
0.00244686
0.00280293
0.00331916
0.00392754
0.00455782
0.00517334
0.0057679
0.00634229
0.00689919
0.00744115
0.00797041
0.00848852
0.00899492
0.009489
0.00997247
0.0104448
0.0109051
0.0113519
0.0117839
0.0121993
0.0125966
0.0129736
0.0133298
0.0136626
0.0139734
0.0142594
0.0145244
0.014775
0.0150352
0.0152734
0.0155175
0.0157351
0.0159913
0.016201
0.0165119
0.0167232
0.0171582
0.0173768
0.0180531
0.0182555
0.0194198
0.0198861
0.0226546
0.011568
0.0151652
0.0028827
0.000648309
0.000187979
0.000334412
0.000479704
0.00066792
0.000885266
0.00115903
0.00144246
0.00175054
0.00203411
0.00229654
0.00250909
0.00268378
0.00285717
0.00312863
0.00359026
0.00424571
0.00500982
0.00579856
0.00657051
0.00731673
0.00803751
0.00873576
0.00941449
0.0100764
0.0107236
0.0113554
0.0119724
0.0125759
0.0131651
0.0137391
0.0142964
0.0148353
0.0153536
0.0158494
0.0163205
0.0167656
0.0171822
0.017571
0.0179305
0.0182629
0.0185707
0.0188714
0.0191503
0.0194237
0.0196773
0.0199522
0.0202011
0.0205193
0.0207858
0.0212121
0.0215241
0.0221659
0.0225548
0.0236226
0.0244295
0.0270886
0.0114637
0.0160709
0.00401182
0.000532787
0.000236538
0.000385424
0.000556792
0.00077438
0.00102933
0.00134619
0.00167668
0.00202998
0.0023558
0.00265406
0.0028993
0.0031062
0.00331907
0.00364519
0.00418251
0.00493216
0.0058011
0.00669829
0.00757832
0.00842965
0.00925183
0.0100477
0.0108205
0.0115732
0.0123084
0.0130252
0.0137253
0.0144091
0.0150764
0.0157259
0.016356
0.0169649
0.0175503
0.01811
0.0186415
0.0191432
0.0196126
0.0200498
0.0204546
0.0208267
0.0211684
0.021495
0.0218002
0.0220918
0.0223692
0.0226555
0.0229318
0.0232543
0.0235627
0.0239836
0.0243709
0.0249911
0.0255388
0.0265431
0.0276832
0.0302083
0.0113762
0.0157663
0.00532572
0.000483566
0.000280772
0.000429685
0.000620625
0.000863534
0.00114931
0.00150181
0.00187101
0.00226135
0.00262205
0.00295062
0.00322463
0.00346095
0.00370913
0.0040807
0.00467683
0.00549807
0.00644777
0.00743019
0.00839614
0.0093315
0.0102349
0.0111089
0.0119568
0.0127818
0.0135868
0.0143712
0.0151367
0.0158839
0.0166123
0.0173209
0.018008
0.0186715
0.019309
0.0199181
0.0204962
0.0210412
0.0215509
0.0220247
0.0224634
0.0228634
0.0232293
0.0235739
0.0238969
0.0242003
0.0244931
0.0247853
0.0250798
0.0254028
0.025741
0.0261553
0.0266002
0.0272015
0.0278726
0.0288289
0.030236
0.032616
0.0113033
0.0149415
0.00672865
0.00060868
0.000323162
0.000468861
0.000676239
0.000941368
0.00125382
0.0016372
0.00204014
0.00246309
0.00285506
0.00321168
0.00351304
0.00377762
0.00405831
0.00446873
0.0051123
0.00599083
0.00700667
0.00806055
0.00909954
0.0101068
0.0110799
0.012021
0.0129333
0.0138203
0.014685
0.0155269
0.0163481
0.017149
0.0179293
0.0186879
0.019423
0.0201325
0.0208139
0.0214646
0.0220816
0.0226627
0.0232057
0.0237094
0.0241756
0.0245966
0.0249814
0.0253393
0.0256747
0.0259857
0.0262883
0.0265831
0.0268891
0.0272102
0.0275692
0.0279763
0.0284654
0.0290502
0.0298195
0.0307373
0.0323505
0.0345884
0.0112435
0.013942
0.00776365
0.00114001
0.000371988
0.000504875
0.000726443
0.00101127
0.00134745
0.00175834
0.00219172
0.00264459
0.0030659
0.00344972
0.00377808
0.00407047
0.00438164
0.00482584
0.00550837
0.00643386
0.00750556
0.00862146
0.00972483
0.010796
0.0118313
0.0128323
0.0138022
0.0147445
0.0156623
0.0165554
0.0174259
0.0182743
0.0191004
0.0199031
0.0206806
0.0214307
0.0221506
0.0228377
0.0234887
0.0241013
0.024673
0.0252026
0.0256913
0.0261294
0.0265291
0.0268972
0.0272414
0.027557
0.0278654
0.0281602
0.0284729
0.0287904
0.0291635
0.0295631
0.0300859
0.0306564
0.0315047
0.0323912
0.0341655
0.0362637
0.0111888
0.0129397
0.00846434
0.00207389
0.000448146
0.000539849
0.000773164
0.00107543
0.00143301
0.0018688
0.00233024
0.00281126
0.00326087
0.00367171
0.00402728
0.00434744
0.00468759
0.00516153
0.00587629
0.00684065
0.00796027
0.00913104
0.0102924
0.0114218
0.0125139
0.0135697
0.0145923
0.0155852
0.0165515
0.0174912
0.0184065
0.0192982
0.0201659
0.0210085
0.0218244
0.0226111
0.0233658
0.0240856
0.0247672
0.0254078
0.0260051
0.0265574
0.0270647
0.0275171
0.0279291
0.028305
0.0286551
0.0289732
0.0292843
0.0295772
0.0298926
0.0302052
0.0305871
0.0309789
0.0315272
0.0320851
0.0329975
0.0338579
0.0357584
0.0377194
0.011136
0.0120146
0.0088804
0.00319883
0.000597019
0.000576749
0.000818048
0.00113548
0.00151245
0.00197099
0.00245864
0.00296656
0.00344392
0.00388201
0.0042653
0.00461346
0.00498147
0.00548188
0.00622334
0.00721988
0.00838089
0.00960074
0.0108151
0.0119981
0.0131429
0.0142497
0.0153214
0.0163613
0.0173726
0.0183555
0.0193124
0.0202439
0.02115
0.0220294
0.0228805
0.0237009
0.0244875
0.0252373
0.0259467
0.0266127
0.0272331
0.0278057
0.0283281
0.0287931
0.0292151
0.0295969
0.0299507
0.0302694
0.0305808
0.0308702
0.0311854
0.0314916
0.0318782
0.0322617
0.032829
0.0333754
0.0343398
0.0351778
0.0371765
0.039003
0.0110858
0.0111982
0.00905986
0.00433692
0.000907242
0.00062067
0.000862853
0.00119287
0.00158729
0.00206671
0.00257902
0.00311289
0.00361773
0.00408348
0.00449521
0.00487179
0.00526691
0.0057911
0.00655463
0.00757762
0.00877437
0.0100384
0.0113014
0.0125345
0.0137287
0.0148834
0.0160012
0.0170853
0.018139
0.0191623
0.020158
0.0211268
0.0220686
0.0229823
0.0238662
0.0247178
0.0255339
0.0263113
0.0270463
0.0277357
0.028377
0.0289674
0.0295027
0.0299785
0.0304087
0.0307948
0.0311506
0.0314684
0.0317779
0.0320625
0.0323748
0.0326737
0.0330613
0.0334361
0.0340167
0.0345524
0.0355589
0.0363771
0.0384509
0.0401462
0.0110393
0.0104972
0.00905257
0.00534226
0.00148513
0.000681465
0.00090985
0.00124906
0.00165888
0.00215742
0.00269302
0.00325205
0.00378423
0.00427819
0.00471918
0.00512474
0.00554649
0.00609231
0.00687396
0.0079184
0.00914587
0.0104496
0.0117576
0.0130375
0.0142783
0.0154785
0.01664
0.017766
0.0188596
0.0199212
0.0209535
0.0219573
0.0229327
0.0238785
0.0247931
0.0256737
0.0265173
0.0273204
0.0280791
0.0287899
0.0294505
0.0300561
0.0306026
0.0310878
0.0315245
0.0319137
0.0322699
0.0325854
0.0328914
0.0331697
0.0334771
0.0337675
0.0341531
0.0345187
0.0351081
0.0356335
0.0366733
0.0374738
0.039603
0.0411707
0.010997
0.00990564
0.00890715
0.00615894
0.00223574
0.000778469
0.000962423
0.00130576
0.00172854
0.00224444
0.00280199
0.0033855
0.00394493
0.00446766
0.0049388
0.00537406
0.00582221
0.00638794
0.00718436
0.00824581
0.0094994
0.0108387
0.0121884
0.0135123
0.0147973
0.0160406
0.0172438
0.0184097
0.0195413
0.0206391
0.021706
0.022743
0.02375
0.0247261
0.0256694
0.0265773
0.0274465
0.0282735
0.0290541
0.0297848
0.0304628
0.0310811
0.0316377
0.0321309
0.0325729
0.0329638
0.033319
0.0336311
0.033932
0.034203
0.0345036
0.0347845
0.0351656
0.0355212
0.0361153
0.0366305
0.0376964
0.0384802
0.0406485
0.0420928
0.010959
0.00941224
0.00866738
0.00676718
0.00306646
0.000951375
0.00102612
0.00136517
0.00179772
0.0023291
0.00290722
0.00351448
0.00410108
0.00465314
0.00515533
0.00562108
0.00609566
0.00667998
0.00748832
0.00856279
0.00983824
0.0112094
0.0125974
0.0139627
0.0152896
0.0165741
0.0178171
0.0190211
0.0201889
0.0213213
0.0224211
0.0234895
0.0245264
0.0255309
0.0265012
0.0274346
0.0283278
0.0291769
0.029978
0.0307269
0.0314203
0.0320496
0.032615
0.0331151
0.0335609
0.0339525
0.0343056
0.0346132
0.0349076
0.0351702
0.0354624
0.0357328
0.0361073
0.0364521
0.0370475
0.0375524
0.0386378
0.0394058
0.0415989
0.0429243
0.010925
0.00900406
0.00837006
0.00717211
0.00387935
0.00128215
0.00111062
0.00143033
0.00186812
0.0024128
0.00300994
0.00364018
0.00425378
0.00483566
0.00536979
0.00586692
0.00636815
0.00697011
0.00778798
0.00887188
0.0101652
0.0115644
0.0129878
0.0143919
0.0157587
0.0170825
0.0183635
0.019604
0.0208064
0.0219718
0.0231029
0.0242009
0.0252661
0.0262974
0.027293
0.0282504
0.0291658
0.0300356
0.0308555
0.0316211
0.0323275
0.0329665
0.0335398
0.0340455
0.0344941
0.0348853
0.0352351
0.0355372
0.035824
0.0360772
0.0363595
0.0366186
0.0369844
0.0373177
0.0379114
0.0384057
0.039505
0.0402575
0.0424634
0.0436747
0.010895
0.0086684
0.00804442
0.00739335
0.00463065
0.00180211
0.00123257
0.00150575
0.00194193
0.00249715
0.00311147
0.00376377
0.00440407
0.00501617
0.00558307
0.00611251
0.00664083
0.00725982
0.00808523
0.00917531
0.0104827
0.0119064
0.0133622
0.0148027
0.0162072
0.0175685
0.018886
0.0201615
0.0213969
0.0225936
0.0237545
0.0248807
0.0259725
0.0270291
0.0280484
0.029028
0.0299642
0.0308531
0.0316902
0.0324708
0.0331881
0.0338358
0.0344157
0.034926
0.0353762
0.0357661
0.0361117
0.0364072
0.0366854
0.0369283
0.0371996
0.0374463
0.0378018
0.0381229
0.0387122
0.0391954
0.0403035
0.0410406
0.043249
0.0443513
0.0108685
0.00839361
0.00771239
0.00745811
0.00528524
0.00247573
0.00142037
0.00159831
0.00202202
0.00258409
0.0032133
0.00388653
0.00455304
0.00519559
0.005796
0.00635871
0.00691472
0.00755045
0.00838178
0.00947513
0.0107929
0.0122377
0.0137228
0.0151973
0.0166375
0.0180346
0.0193869
0.0206959
0.0219629
0.0231895
0.0243786
0.0255315
0.0266484
0.0277285
0.0287701
0.0297703
0.0307256
0.031632
0.0324849
0.0332782
0.0340049
0.0346602
0.0352458
0.0357594
0.0362102
0.0365979
0.0369383
0.0372265
0.0374951
0.0377268
0.037986
0.0382195
0.0385632
0.0388713
0.0394537
0.0399254
0.0410378
0.0417594
0.0439614
0.0449602
0.0108453
0.00816946
0.00738953
0.00739674
0.00581795
0.00322581
0.00172306
0.0017188
0.00211239
0.00267609
0.00331715
0.00400985
0.00470181
0.00537487
0.00600939
0.00660631
0.00719079
0.00784324
0.00867923
0.00977323
0.011098
0.0125604
0.0140718
0.0155778
0.0170517
0.0184828
0.0198683
0.0212094
0.0225064
0.0237614
0.0249774
0.0261553
0.0272958
0.028398
0.02946
0.0304794
0.0314522
0.0323745
0.0332415
0.0340451
0.03478
0.0354419
0.036032
0.036548
0.0369984
0.0373828
0.0377173
0.0379973
0.0382555
0.0384753
0.0387212
0.0389409
0.0392714
0.0395657
0.0401392
0.0405988
0.0417114
0.0424172
0.0446054
0.0455061
0.0108249
0.00798717
0.00708613
0.00723966
0.00621507
0.00398239
0.00217022
0.00188393
0.00221873
0.00277632
0.00342513
0.00413536
0.00485166
0.00555503
0.00622408
0.00685611
0.00746992
0.00813936
0.00897909
0.0100714
0.0113999
0.0128765
0.0144111
0.015946
0.0174516
0.018915
0.0203321
0.0217036
0.0230292
0.0243113
0.0255525
0.026754
0.0279165
0.0290391
0.0301201
0.0311568
0.0321456
0.0330822
0.0339608
0.0347732
0.0355152
0.0361824
0.0367759
0.0372932
0.0377422
0.0381226
0.0384503
0.0387213
0.0389684
0.0391754
0.0394074
0.0396124
0.0399286
0.0402084
0.0407711
0.0412178
0.0423272
0.0430168
0.0451848
0.0459931
0.0108072
0.00783934
0.00680833
0.00701525
0.00647385
0.00469175
0.00274765
0.00211877
0.00234926
0.00288901
0.00353984
0.004265
0.00500406
0.00573722
0.00644098
0.0071089
0.00775302
0.00843995
0.00928282
0.0103714
0.0117005
0.0131878
0.0147426
0.0163039
0.017839
0.0193327
0.0207798
0.0221802
0.023533
0.0248405
0.0261055
0.0273291
0.0285119
0.0296533
0.0307515
0.031804
0.032807
0.0337561
0.0346439
0.0354636
0.0362115
0.036883
0.0374788
0.0379963
0.0384429
0.0388184
0.0391385
0.0394
0.0396351
0.0398288
0.0400461
0.0402357
0.0405366
0.0408011
0.0413513
0.0417847
0.0428875
0.0435606
0.045703
0.0464248
0.0107918
0.00771979
0.00655915
0.0067485
0.00660076
0.00531402
0.003408
0.00245558
0.00251601
0.00301983
0.0036646
0.00440111
0.00516076
0.00592277
0.00666109
0.00736556
0.00804097
0.00874612
0.00959183
0.010675
0.0120017
0.0134963
0.0150681
0.0166531
0.0182153
0.0197375
0.0212129
0.0226405
0.024019
0.0253504
0.0266377
0.0278817
0.0290833
0.0302417
0.0313554
0.032422
0.0334375
0.0343963
0.0352916
0.0361174
0.0368699
0.0375444
0.0381413
0.038658
0.0391013
0.0394711
0.039783
0.0400341
0.0402567
0.0404365
0.0406383
0.040812
0.0410966
0.0413453
0.0418815
0.0423008
0.0433941
0.0440505
0.0461628
0.046804
0.0107784
0.00762337
0.00633937
0.00646025
0.00660937
0.00582196
0.00410124
0.00291402
0.00273621
0.00317651
0.00380367
0.0045466
0.00532381
0.00611325
0.00688559
0.00762701
0.00833469
0.00905897
0.0099075
0.0109836
0.0123052
0.0138037
0.0153893
0.0169951
0.0185822
0.0201308
0.0216327
0.0230859
0.0244884
0.0258423
0.0271501
0.0284129
0.0296316
0.0308054
0.0319328
0.0330116
0.0340373
0.0350036
0.0359048
0.0367353
0.0374911
0.0381673
0.0387642
0.0392789
0.039718
0.0400813
0.0403842
0.0406244
0.0408339
0.0409993
0.0411851
0.0413423
0.0416099
0.0418421
0.042363
0.0427676
0.0438489
0.0444881
0.0465668
0.0471332
0.0107668
0.00754587
0.00614822
0.00616707
0.006518
0.00619969
0.0047805
0.0034853
0.0030336
0.00336943
0.00396262
0.00470506
0.00549573
0.00631049
0.00711583
0.0078943
0.00863513
0.00937958
0.0102312
0.0112992
0.0126128
0.0141119
0.015708
0.0173317
0.0189412
0.0205141
0.0220405
0.0235176
0.0249425
0.026317
0.0276438
0.0289236
0.0301576
0.031345
0.0324843
0.0335733
0.0346064
0.0355784
0.0364841
0.0373177
0.0380753
0.0387521
0.0393477
0.0398595
0.0402934
0.0406494
0.0409427
0.0411713
0.0413672
0.0415177
0.041687
0.0418273
0.0420772
0.0422925
0.0427968
0.0431862
0.0442531
0.0448749
0.046917
0.0474146
0.0107568
0.0074838
0.005984
0.00588135
0.0063475
0.00644157
0.00540484
0.00413632
0.0034304
0.00361226
0.00414868
0.00488096
0.00567958
0.00651671
0.00735339
0.00816861
0.00894331
0.00970904
0.0105643
0.0116231
0.0129264
0.0144228
0.0160258
0.0176644
0.0192936
0.0208885
0.0224375
0.0239365
0.0253821
0.0267757
0.0281197
0.0294147
0.0306623
0.0318613
0.0330106
0.0341068
0.0351452
0.0361213
0.0370298
0.037865
0.0386231
0.0392989
0.0398921
0.0403998
0.0408276
0.0411756
0.0414586
0.0416752
0.0418571
0.0419922
0.0421446
0.0422676
0.0424993
0.0426971
0.0431839
0.0435575
0.044608
0.0452121
0.0472154
0.0476501
0.0107481
0.00743431
0.00584443
0.0056118
0.00611922
0.00655094
0.00594083
0.00482354
0.0039336
0.00392271
0.00437126
0.00507989
0.00587905
0.00673452
0.00760014
0.00845127
0.00926029
0.0100485
0.0109081
0.0119571
0.0132477
0.014738
0.0163446
0.0179947
0.0196409
0.0212554
0.0228249
0.0243438
0.0258083
0.027219
0.0285784
0.0298868
0.031146
0.0323547
0.0335111
0.0346123
0.0356543
0.0366326
0.0375422
0.0383774
0.0391343
0.0398079
0.0403974
0.0408999
0.0413208
0.0416599
0.0419321
0.0421362
0.0423036
0.0424231
0.0425582
0.0426636
0.0428766
0.0430565
0.0435249
0.0438824
0.0449147
0.0455009
0.0474636
0.0478414
0.0107405
0.00739507
0.00572696
0.00536397
0.00585341
0.0065386
0.00636358
0.00550208
0.00453066
0.00431685
0.00464315
0.0053087
0.00609867
0.00696707
0.00785827
0.00874382
0.00958725
0.010399
0.0112639
0.0123028
0.0135786
0.0150595
0.016666
0.0183243
0.0199844
0.021616
0.0232037
0.0247404
0.0262218
0.0276478
0.0290206
0.0303405
0.0316094
0.0328249
0.0339861
0.0350903
0.036134
0.0371126
0.0380214
0.0388549
0.0396091
0.040279
0.0408635
0.0413598
0.0417728
0.0421024
0.0423632
0.0425543
0.042707
0.0428105
0.0429281
0.0430156
0.0432095
0.0433714
0.0438206
0.0441614
0.045174
0.0457424
0.0476632
0.0479899
0.010734
0.00736416
0.00562901
0.00514089
0.00556807
0.00642096
0.00665739
0.00613048
0.00519302
0.00480202
0.00497823
0.0055771
0.00634388
0.00721804
0.00813034
0.00904801
0.00992544
0.0107616
0.011633
0.0126617
0.0139209
0.0153891
0.0169917
0.0186547
0.0203256
0.0219716
0.0235749
0.0251273
0.0266235
0.0280626
0.029447
0.0307763
0.0320517
0.0332719
0.0344358
0.0355411
0.0365843
0.0375613
0.0384675
0.0392976
0.0400474
0.0407121
0.0412904
0.0417794
0.0421836
0.0425029
0.0427517
0.0429295
0.0430671
0.0431545
0.0432544
0.0433239
0.0434985
0.043642
0.0440714
0.0443953
0.0453867
0.0459374
0.0478155
0.0480969
0.0107283
0.00734003
0.00554808
0.00494364
0.00527822
0.00621806
0.00681593
0.00667319
0.00588243
0.00537413
0.00538758
0.00589498
0.00662306
0.00749182
0.00841933
0.00936581
0.0102762
0.0111376
0.0120167
0.0130354
0.0142761
0.0157286
0.0173235
0.0189874
0.0206658
0.0223231
0.0239397
0.0255052
0.027014
0.0284642
0.0298574
0.0311935
0.0324734
0.0336961
0.0348605
0.0359647
0.0370054
0.0379787
0.0388804
0.0397051
0.040449
0.041107
0.0416778
0.0421583
0.0425528
0.0428612
0.0430976
0.0432616
0.0433839
0.0434551
0.0435372
0.0435886
0.0437437
0.0438687
0.0442779
0.0445846
0.0455538
0.0460868
0.0479219
0.0481636
0.0107234
0.00732139
0.00548181
0.00477189
0.00499565
0.00595158
0.0068418
0.00710199
0.00655726
0.00601581
0.00587746
0.00627149
0.00694327
0.00779517
0.00872941
0.00969944
0.010641
0.0115278
0.0124159
0.0134251
0.0146462
0.0160798
0.0176631
0.019324
0.0210063
0.0226719
0.0242989
0.0258748
0.0273934
0.0288522
0.030252
0.0315926
0.0328747
0.0340976
0.0352604
0.0363612
0.0373972
0.0383648
0.0392599
0.0400774
0.0408136
0.0414634
0.0420254
0.0424963
0.0428803
0.043177
0.0434005
0.0435505
0.0436574
0.0437121
0.0437765
0.0438099
0.0439453
0.0440519
0.0444404
0.0447298
0.0456758
0.0461914
0.0479834
0.0481911
0.0107191
0.00730719
0.00542808
0.00462436
0.00472893
0.00564304
0.00674548
0.00739713
0.00717695
0.0066983
0.00644586
0.00671416
0.00731174
0.00813341
0.00906543
0.0100529
0.0110214
0.0119335
0.0128318
0.0138324
0.0150326
0.0164443
0.0180121
0.0196659
0.0213481
0.0230183
0.0246527
0.0262363
0.0277621
0.0292269
0.0306309
0.0319737
0.0332558
0.0344766
0.0356354
0.0367306
0.0377596
0.0387192
0.0396057
0.0404142
0.0411409
0.0417809
0.0423327
0.0427929
0.0431655
0.04345
0.0436602
0.0437959
0.0438872
0.0439256
0.0439722
0.0439877
0.0441036
0.0441917
0.0445593
0.0448313
0.0457533
0.046252
0.0480011
0.0481803
0.0107153
0.00729659
0.00538499
0.0044992
0.00448375
0.00531228
0.00654381
0.00754801
0.00770507
0.00738539
0.00708027
0.00722648
0.00773494
0.00851197
0.0094314
0.0104289
0.01142
0.0123559
0.0132652
0.0142578
0.0154363
0.0168233
0.0183717
0.0200141
0.0216922
0.0233634
0.0250019
0.0265902
0.0281205
0.0295888
0.0309946
0.0323371
0.0336167
0.034833
0.0359854
0.0370726
0.0380924
0.0390418
0.0399175
0.0407149
0.0414304
0.042059
0.0425993
0.0430478
0.0434081
0.0436798
0.0438762
0.0439975
0.0440732
0.0440953
0.0441243
0.044122
0.0442185
0.0442883
0.0446349
0.0448896
0.045787
0.0462692
0.0479759
0.048132
0.0107121
0.00728888
0.00535084
0.00439421
0.00426329
0.00497641
0.00625791
0.00755347
0.00811145
0.00803779
0.00775774
0.00780552
0.0082172
0.00893574
0.00983126
0.0108303
0.0118386
0.012796
0.0137165
0.0147019
0.015858
0.0172178
0.018743
0.0203698
0.0220396
0.023708
0.0253471
0.0269371
0.028469
0.0299381
0.031343
0.0326827
0.0339574
0.0351667
0.0363102
0.0373869
0.0383951
0.0393321
0.0401948
0.0409791
0.0416815
0.0422973
0.0428247
0.0432603
0.0436075
0.0438658
0.0440483
0.0441549
0.0442151
0.0442211
0.0442328
0.044213
0.0442903
0.044342
0.0446675
0.044905
0.0457775
0.0462438
0.0479089
0.0480471
0.0107092
0.00728347
0.00532419
0.00430712
0.00406879
0.00464921
0.00591113
0.00742131
0.00837387
0.0086167
0.00844695
0.00844009
0.00875897
0.0094083
0.0102685
0.0112597
0.0122789
0.0132547
0.014186
0.015165
0.0162983
0.0176287
0.019127
0.0207339
0.0223912
0.0240528
0.0256888
0.0272772
0.0288078
0.0302748
0.0316761
0.0330104
0.0342775
0.0354773
0.0366094
0.0376732
0.0386672
0.0395894
0.0404371
0.0412063
0.0418938
0.042495
0.0430082
0.0434299
0.0437633
0.0440077
0.0441758
0.0442678
0.0443125
0.0443027
0.0442973
0.0442604
0.0443189
0.0443529
0.0446574
0.044878
0.0457253
0.0461763
0.0478007
0.0479263
0.0107068
0.0072799
0.00530377
0.00423564
0.0039
0.00434089
0.0055269
0.00716728
0.00847935
0.00908675
0.00911141
0.00911028
0.00935512
0.00993069
0.0107455
0.0117193
0.0127423
0.0137325
0.0146737
0.0156468
0.0167574
0.0180564
0.0195243
0.0211072
0.0227476
0.0243984
0.0260274
0.0276108
0.0291368
0.0305988
0.0319937
0.0333198
0.0345768
0.0357643
0.0368825
0.0379307
0.0389083
0.0398133
0.0406435
0.0413956
0.0420663
0.0426514
0.0431491
0.0435559
0.0438747
0.0441048
0.0442584
0.0443358
0.0443652
0.0443399
0.0443178
0.0442643
0.0443043
0.0443211
0.0446049
0.0448089
0.0456308
0.0460675
0.0476523
0.0477703
0.0107046
0.00727778
0.00528849
0.00417765
0.00375565
0.0040583
0.00512696
0.00681328
0.00842493
0.00941833
0.00971271
0.00978844
0.00999363
0.0105002
0.0112629
0.0122102
0.0132296
0.0142296
0.0151795
0.016147
0.0172348
0.018501
0.0199354
0.02149
0.0231092
0.0247449
0.0263631
0.0279378
0.029456
0.0309099
0.0322954
0.0336105
0.0348545
0.0360272
0.0371287
0.0381589
0.0391173
0.0400028
0.0408134
0.0415462
0.0421984
0.0427659
0.0432468
0.0436377
0.0439412
0.0441565
0.0442955
0.0443583
0.0443727
0.0443323
0.0442941
0.0442246
0.0442467
0.0442468
0.0445101
0.0446981
0.0454947
0.0459178
0.0474644
0.0475797
0.0107027
0.00727679
0.00527742
0.00413118
0.00363382
0.0038053
0.00472995
0.00638517
0.00821771
0.00958967
0.0102135
0.0104412
0.0106552
0.011109
0.0118184
0.0127322
0.0137408
0.0147456
0.0157022
0.0166645
0.0177298
0.018962
0.0203601
0.0218826
0.0234762
0.0250925
0.0266956
0.0282579
0.0297649
0.0312074
0.0325806
0.0338818
0.0351099
0.036265
0.0373471
0.0383567
0.0392935
0.040157
0.0409458
0.0416573
0.0422891
0.0428374
0.0433003
0.0436743
0.043962
0.0441622
0.0442864
0.0443349
0.0443347
0.0442797
0.044226
0.0441411
0.044146
0.04413
0.0443734
0.0445458
0.0453173
0.0457279
0.0472376
0.047355
0.010701
0.00727668
0.00526979
0.00409446
0.00353226
0.0035833
0.00435064
0.00591031
0.00787412
0.00958843
0.0105803
0.0110321
0.0113138
0.0117437
0.0124061
0.0132828
0.0142745
0.0152792
0.0162405
0.0171975
0.018241
0.0194384
0.0207977
0.0222844
0.0238481
0.0254408
0.0270247
0.0285707
0.0300628
0.0314906
0.0328483
0.0341325
0.0353421
0.0364767
0.0375368
0.038523
0.0394357
0.0402748
0.0410395
0.0417277
0.0423374
0.042865
0.0433087
0.043665
0.0439362
0.0441211
0.0442307
0.0442651
0.0442508
0.0441818
0.0441133
0.0440138
0.0440022
0.043971
0.044195
0.0443525
0.0450992
0.0454984
0.0469728
0.0470968
0.0106995
0.00727723
0.00526492
0.00406591
0.0034486
0.00339189
0.00399962
0.00541515
0.00741837
0.00941289
0.0107856
0.0115242
0.0119382
0.0123843
0.0130155
0.0138566
0.0148275
0.015828
0.0167917
0.0177436
0.018766
0.0199285
0.021247
0.0226945
0.0242243
0.025789
0.0273493
0.0288751
0.0303487
0.0317585
0.0330974
0.0343617
0.0355496
0.0366609
0.0376963
0.0386565
0.0395426
0.0403549
0.0410933
0.0417563
0.0423421
0.0428475
0.0432709
0.0436088
0.0438631
0.0440325
0.0441276
0.0441482
0.0441204
0.0440382
0.0439557
0.0438426
0.0438153
0.0437697
0.043975
0.0441185
0.0448409
0.0452298
0.0466704
0.0468057
0.0106983
0.00727828
0.00526224
0.00404417
0.00338048
0.00322939
0.00368347
0.0049232
0.00688003
0.0090723
0.0108103
0.0118827
0.0124937
0.0130057
0.0136312
0.0144446
0.0153942
0.0163876
0.0173521
0.0182991
0.0193015
0.0204294
0.0217059
0.0231113
0.0246033
0.0261359
0.0276684
0.02917
0.0306213
0.0320094
0.0333264
0.0345676
0.035731
0.0368162
0.037824
0.0387557
0.0396127
0.0403959
0.0411059
0.0417416
0.0423019
0.0427839
0.0431859
0.0435046
0.0437417
0.0438955
0.0439763
0.0439838
0.0439431
0.0438485
0.043753
0.0436273
0.0435853
0.0435264
0.0437138
0.043844
0.0445427
0.0449226
0.0463312
0.0464821
0.0106971
0.0072797
0.00526131
0.00402804
0.0033257
0.00309333
0.00340528
0.00445356
0.00629124
0.00858639
0.0106456
0.0120776
0.0129448
0.0135777
0.0142323
0.0150337
0.0159662
0.016952
0.0179165
0.0188594
0.0198434
0.0209377
0.0221714
0.0235324
0.0249831
0.0264796
0.0279801
0.0294535
0.0308788
0.0322418
0.0335334
0.0347485
0.0358844
0.0369407
0.0379183
0.0388188
0.0396442
0.040396
0.0410754
0.0416821
0.0422154
0.0426726
0.0430524
0.0433514
0.043571
0.0437094
0.0437763
0.0437711
0.0437183
0.0436124
0.043505
0.0433677
0.0433122
0.043241
0.0434114
0.0435295
0.0442052
0.0445775
0.0459557
0.0461265
0.0106961
0.00728137
0.00526171
0.00401651
0.00328223
0.00298083
0.00316538
0.00402019
0.0056837
0.00798381
0.0102941
0.0120859
0.013257
0.0140677
0.0147936
0.0156066
0.0165316
0.0175124
0.0184778
0.019418
0.020386
0.0214483
0.0226395
0.0239543
0.0253609
0.0268174
0.028282
0.0297233
0.0311189
0.0324532
0.0337163
0.034902
0.0360075
0.0370321
0.0379769
0.0388437
0.0396351
0.0403534
0.0410003
0.0415762
0.042081
0.0425123
0.0428691
0.0431479
0.0433499
0.043473
0.0435265
0.0435096
0.0434457
0.0433295
0.0432113
0.0430639
0.042996
0.0429138
0.0430683
0.0431753
0.0438288
0.0441949
0.0455445
0.0457393
0.0106952
0.00728321
0.00526314
0.0040087
0.00324826
0.00288892
0.00296209
0.00363184
0.00508588
0.00729949
0.00977036
0.011894
0.0133998
0.0144415
0.0152861
0.0161415
0.017075
0.0180575
0.0190268
0.0199672
0.0209222
0.0219552
0.0231049
0.0243728
0.0257328
0.027146
0.0285711
0.0299766
0.0313388
0.0326411
0.0338723
0.0350257
0.0360979
0.0370881
0.0379973
0.0388281
0.0395833
0.0402659
0.0408785
0.041422
0.0418969
0.0423014
0.0426345
0.0428927
0.0430772
0.0431855
0.0432263
0.0431984
0.0431245
0.0429994
0.0428718
0.0427155
0.0426366
0.0425448
0.0426845
0.0427818
0.043414
0.0437754
0.0450983
0.045321
0.0106945
0.00728517
0.00526534
0.00400387
0.00322219
0.0028147
0.00279246
0.00329258
0.00452097
0.00657135
0.00910046
0.0114997
0.0133487
0.0146661
0.0156783
0.016613
0.0175771
0.0185727
0.0195519
0.0204969
0.0214433
0.0224508
0.0235611
0.0247823
0.0260942
0.0274613
0.0288437
0.0302098
0.0315352
0.0328021
0.0339983
0.0351164
0.0361525
0.0371056
0.037977
0.0387693
0.0394861
0.0401312
0.0407076
0.0412173
0.0416613
0.0420381
0.042347
0.0425846
0.0427518
0.0428458
0.0428746
0.0428369
0.0427543
0.0426216
0.042486
0.0423225
0.0422341
0.0421342
0.0422604
0.0423492
0.0429613
0.0433194
0.0446176
0.0448719
0.0106938
0.00728717
0.00526808
0.00400141
0.00320265
0.00275549
0.00265281
0.00300264
0.00400564
0.00583655
0.00832007
0.0109135
0.0130883
0.014712
0.015938
0.0169928
0.0180153
0.0190404
0.0200389
0.0209951
0.0219388
0.0229258
0.024
0.0251759
0.0264391
0.0277581
0.029095
0.0304187
0.0317041
0.0329324
0.0340907
0.0351707
0.036168
0.0370815
0.0379126
0.0386644
0.0393409
0.0399466
0.0404855
0.04096
0.041372
0.0417205
0.042005
0.0422221
0.0423723
0.0424527
0.0424706
0.0424243
0.0423344
0.0421957
0.0420539
0.0418848
0.0417885
0.0416821
0.0417962
0.041878
0.042471
0.0428277
0.0441028
0.0443926
0.0106932
0.00728919
0.00527121
0.00400078
0.00318842
0.00270886
0.00253927
0.00275952
0.00354985
0.00512803
0.0074713
0.0101589
0.0126138
0.0145553
0.0160343
0.0172509
0.0183642
0.0194399
0.0204709
0.0214476
0.0223962
0.0233692
0.0244123
0.0255453
0.0267605
0.0280302
0.0293195
0.0305982
0.0318407
0.0330276
0.0341452
0.0351844
0.0361405
0.0370122
0.0378009
0.0385101
0.0391445
0.0397093
0.0402092
0.0406476
0.0410269
0.0413467
0.0416066
0.0418034
0.0419373
0.0420051
0.0420133
0.0419598
0.0418643
0.0417213
0.0415749
0.0414021
0.0412997
0.0411885
0.0412921
0.0413685
0.0419438
0.0423006
0.0435547
0.0438834
0.0106927
0.0072912
0.00527458
0.00400156
0.0031785
0.00267267
0.00244802
0.00255899
0.00315745
0.00447179
0.00659859
0.00927151
0.0119338
0.0141806
0.0159396
0.0173572
0.0185962
0.0197479
0.0208284
0.0218378
0.0228011
0.0237683
0.0247866
0.025881
0.0270499
0.0282703
0.0295108
0.0307423
0.0319396
0.0330827
0.0341571
0.0351531
0.0360658
0.0368935
0.0376379
0.0383028
0.0388936
0.0394161
0.039876
0.0402775
0.0406235
0.0409144
0.0411499
0.0413269
0.0414454
0.0415017
0.0415016
0.0414426
0.0413432
0.0411979
0.041049
0.0408744
0.0407678
0.0406537
0.0407484
0.040821
0.04138
0.0417388
0.0429737
0.0433447
0.0106922
0.00729318
0.00527811
0.00400341
0.00317202
0.00264508
0.00237553
0.00239592
0.00282743
0.00388538
0.00574413
0.00829638
0.0110705
0.0135835
0.0156323
0.0172834
0.0186831
0.0199392
0.0210898
0.0221468
0.0231369
0.0241086
0.0251101
0.0261716
0.0272975
0.0284698
0.0296612
0.0308444
0.0319947
0.0330919
0.0341209
0.0350718
0.035939
0.036721
0.0374195
0.0380386
0.0385845
0.0390637
0.0394828
0.0398467
0.0401593
0.0404213
0.0406329
0.0407909
0.0408949
0.0409412
0.0409344
0.0408719
0.0407705
0.040625
0.0404757
0.0403016
0.0401927
0.0400779
0.0401654
0.0402361
0.0407802
0.0411427
0.0423603
0.042777
0.0106918
0.0072951
0.00528169
0.00400604
0.00316826
0.00262448
0.00231863
0.00226499
0.00255538
0.0033778
0.00494362
0.00728388
0.0100602
0.0127725
0.0150991
0.017005
0.0185974
0.0199875
0.0212314
0.0223539
0.0233853
0.0243736
0.0253684
0.0264043
0.0274921
0.028619
0.0297621
0.0308967
0.0319988
0.0330487
0.0340308
0.0349349
0.0357551
0.0364898
0.037141
0.0377133
0.0382133
0.0386484
0.0390261
0.0393523
0.0396315
0.0398651
0.0400534
0.0401934
0.0402844
0.0403222
0.0403107
0.0402466
0.0401456
0.0400023
0.0398548
0.0396834
0.0395746
0.039461
0.0395434
0.039614
0.0401448
0.040513
0.0417152
0.0421805
0.0106915
0.00729696
0.00528528
0.00400923
0.00316661
0.00260952
0.00227455
0.00216107
0.00233491
0.00295055
0.00422314
0.00628441
0.00895093
0.0117711
0.0143379
0.016504
0.0183141
0.0198667
0.0212287
0.0224368
0.0235262
0.0245453
0.0255453
0.026565
0.0276212
0.0287068
0.0298038
0.0308904
0.0319443
0.0329459
0.0338801
0.0347362
0.0355083
0.0361947
0.0367977
0.0373222
0.0377757
0.0381664
0.0385025
0.0387911
0.0390373