/*--------------------------------*- C++ -*----------------------------------*\
| =========                 |                                                 |
| \\      /  F ield         | OpenFOAM: The Open Source CFD Toolbox           |
|  \\    /   O peration     | Version:  2.4.0                                 |
|   \\  /    A nd           | Web:      www.OpenFOAM.org                      |
|    \\/     M anipulation  |                                                 |
\*---------------------------------------------------------------------------*/
FoamFile
{
    version     2.0;
    format      ascii;
    class       volVectorField;
    location    "0.26";
    object      U;
}
// * * * * * * * * * * * * * * * * * * * * * * * * * * * * * * * * * * * * * //

dimensions      [0 1 -1 0 0 0 0];

internalField   nonuniform List<vector> 
2320
(
(1.00002 -1.99436e-05 0)
(1.00017 -5.79553e-05 0)
(1.00047 -9.92772e-05 0)
(1.00096 -0.000152912 0)
(1.0017 -0.00022752 0)
(1.00279 -0.00032853 0)
(1.00434 -0.000459002 0)
(1.00647 -0.000625071 0)
(1.00935 -0.000842714 0)
(1.01323 -0.00113994 0)
(1.0185 -0.00155227 0)
(1.02568 -0.00211662 0)
(1.03547 -0.00287087 0)
(1.0487 -0.0038608 0)
(1.06643 -0.00514902 0)
(1.08998 -0.00681865 0)
(1.12108 -0.00896967 0)
(1.16186 -0.0117075 0)
(1.21488 -0.0151277 0)
(1.283 -0.0192942 0)
(1.00002 -5.93286e-05 0)
(1.00016 -0.000172416 0)
(1.00046 -0.000295354 0)
(1.00094 -0.000454941 0)
(1.00166 -0.000676979 0)
(1.00272 -0.000977647 0)
(1.00423 -0.00136603 0)
(1.00632 -0.00186035 0)
(1.00913 -0.00250822 0)
(1.01291 -0.00339321 0)
(1.01806 -0.00462136 0)
(1.02508 -0.00630291 0)
(1.03465 -0.00855111 0)
(1.0476 -0.0115031 0)
(1.06496 -0.0153469 0)
(1.08806 -0.020333 0)
(1.11861 -0.0267632 0)
(1.15874 -0.0349574 0)
(1.21103 -0.0452079 0)
(1.2784 -0.0577132 0)
(1.00002 -9.72468e-05 0)
(1.00015 -0.000282626 0)
(1.00044 -0.000484164 0)
(1.00089 -0.000745806 0)
(1.00158 -0.0011099 0)
(1.00259 -0.00160302 0)
(1.00403 -0.00224007 0)
(1.00601 -0.00305104 0)
(1.00868 -0.00411422 0)
(1.01229 -0.00556714 0)
(1.01719 -0.00758447 0)
(1.0239 -0.0103482 0)
(1.03304 -0.0140458 0)
(1.04543 -0.0189056 0)
(1.06208 -0.0252419 0)
(1.08428 -0.0334743 0)
(1.11374 -0.0441128 0)
(1.15259 -0.0577009 0)
(1.20344 -0.0747445 0)
(1.2693 -0.0955937 0)
(1.00002 -0.000132791 0)
(1.00014 -0.000385949 0)
(1.0004 -0.000661198 0)
(1.00082 -0.00101857 0)
(1.00146 -0.00151596 0)
(1.00239 -0.0021897 0)
(1.00372 -0.00306032 0)
(1.00555 -0.00416902 0)
(1.00803 -0.00562326 0)
(1.01137 -0.00761177 0)
(1.01592 -0.0103746 0)
(1.02215 -0.0141624 0)
(1.03067 -0.0192355 0)
(1.04223 -0.0259126 0)
(1.05781 -0.0346348 0)
(1.07868 -0.045994 0)
(1.1065 -0.0607175 0)
(1.14341 -0.0795869 0)
(1.19208 -0.103353 0)
(1.25563 -0.132547 0)
(1.00001 -0.000165094 0)
(1.00013 -0.000479858 0)
(1.00036 -0.000822119 0)
(1.00074 -0.00126655 0)
(1.0013 -0.00188521 0)
(1.00214 -0.00272341 0)
(1.00333 -0.00380689 0)
(1.00497 -0.00518731 0)
(1.00718 -0.00699913 0)
(1.01018 -0.00947848 0)
(1.01427 -0.0129261 0)
(1.01988 -0.0176577 0)
(1.02757 -0.0240032 0)
(1.03805 -0.0323702 0)
(1.05223 -0.0433275 0)
(1.07132 -0.0576419 0)
(1.09696 -0.0762708 0)
(1.13126 -0.100253 0)
(1.17696 -0.130633 0)
(1.23736 -0.16817 0)
(1.00001 -0.000193362 0)
(1.00011 -0.000562046 0)
(1.00031 -0.000962979 0)
(1.00063 -0.00148368 0)
(1.00112 -0.00220863 0)
(1.00183 -0.00319111 0)
(1.00285 -0.00446157 0)
(1.00425 -0.00608116 0)
(1.00616 -0.00820861 0)
(1.00874 -0.0111225 0)
(1.01227 -0.0151786 0)
(1.01713 -0.0207518 0)
(1.02381 -0.0282384 0)
(1.03296 -0.0381319 0)
(1.04541 -0.0511285 0)
(1.0623 -0.0681709 0)
(1.08521 -0.0904642 0)
(1.11623 -0.119322 0)
(1.15811 -0.156159 0)
(1.21449 -0.202021 0)
(1.00001 -0.000216899 0)
(1.00009 -0.000630492 0)
(1.00025 -0.00108031 0)
(1.00051 -0.0016646 0)
(1.0009 -0.00247827 0)
(1.00148 -0.00358129 0)
(1.0023 -0.00500826 0)
(1.00344 -0.00682862 0)
(1.00499 -0.00922198 0)
(1.00709 -0.0125036 0)
(1.00997 -0.0170769 0)
(1.01395 -0.0233696 0)
(1.01946 -0.0318388 0)
(1.02705 -0.0430597 0)
(1.03747 -0.0578541 0)
(1.05176 -0.0773377 0)
(1.07139 -0.102986 0)
(1.09841 -0.136388 0)
(1.13561 -0.179492 0)
(1.18698 -0.23354 0)
(1.00001 -0.000235123 0)
(1.00006 -0.000683498 0)
(1.00018 -0.00117121 0)
(1.00037 -0.00180484 0)
(1.00066 -0.00268741 0)
(1.00109 -0.00388424 0)
(1.0017 -0.00543333 0)
(1.00254 -0.00741097 0)
(1.00369 -0.0100138 0)
(1.00525 -0.0135869 0)
(1.00741 -0.0185729 0)
(1.01042 -0.0254443 0)
(1.01461 -0.0347125 0)
(1.02044 -0.0470275 0)
(1.02856 -0.0633322 0)
(1.03985 -0.0849072 0)
(1.0557 -0.11352 0)
(1.07795 -0.151032 0)
(1.10965 -0.200135 0)
(1.15449 -0.261999 0)
(1 -0.000247578 0)
(1.00004 -0.000719744 0)
(1.00011 -0.0012334 0)
(1.00023 -0.00190087 0)
(1.00041 -0.00283081 0)
(1.00067 -0.00409232 0)
(1.00105 -0.00572599 0)
(1.00157 -0.00781331 0)
(1.00229 -0.0105636 0)
(1.00328 -0.0143439 0)
(1.00466 -0.0196268 0)
(1.00661 -0.0269199 0)
(1.00936 -0.0367808 0)
(1.01327 -0.0499242 0)
(1.01884 -0.0674063 0)
(1.02678 -0.0906573 0)
(1.03835 -0.121748 0)
(1.05506 -0.16283 0)
(1.08039 -0.217427 0)
(1.1165 -0.286792 0)
(1 -0.00025395 0)
(1.00001 -0.000738311 0)
(1.00004 -0.00126531 0)
(1.00008 -0.00195025 0)
(1.00014 -0.00290478 0)
(1.00024 -0.00420012 0)
(1.00037 -0.00587855 0)
(1.00056 -0.0080249 0)
(1.00083 -0.0108563 0)
(1.00122 -0.0147535 0)
(1.00178 -0.0202082 0)
(1.0026 -0.0277525 0)
(1.00383 -0.03798 0)
(1.00568 -0.0516568 0)
(1.0085 -0.0699423 0)
(1.0128 -0.0943815 0)
(1.01961 -0.127372 0)
(1.03016 -0.171316 0)
(1.04771 -0.230591 0)
(1.07368 -0.307759 0)
(0.999999 -0.000254074 0)
(0.999988 -0.000738714 0)
(0.999965 -0.00126609 0)
(0.999928 -0.00195166 0)
(0.999873 -0.00290733 0)
(0.999794 -0.00420469 0)
(0.999684 -0.00588671 0)
(0.999537 -0.00803955 0)
(0.999349 -0.010883 0)
(0.999114 -0.0148023 0)
(0.998829 -0.0202972 0)
(0.998497 -0.0279118 0)
(0.998148 -0.038265 0)
(0.997842 -0.0521549 0)
(0.997783 -0.0708365 0)
(0.998203 -0.0958906 0)
(0.999816 -0.130163 0)
(1.00378 -0.175849 0)
(1.01121 -0.239157 0)
(1.02869 -0.32423 0)
(0.999995 -0.000247937 0)
(0.999961 -0.000720914 0)
(0.999891 -0.00123567 0)
(0.999778 -0.00190496 0)
(0.999607 -0.0028382 0)
(0.999357 -0.00410558 0)
(0.999003 -0.00574966 0)
(0.99852 -0.00785583 0)
(0.997875 -0.010641 0)
(0.997021 -0.0144857 0)
(0.99589 -0.0198853 0)
(0.99439 -0.027383 0)
(0.992442 -0.0376107 0)
(0.989939 -0.051374 0)
(0.986928 -0.0700236 0)
(0.983294 -0.0950283 0)
(0.979459 -0.129982 0)
(0.976355 -0.175552 0)
(0.971316 -0.243299 0)
(0.983751 -0.332469 0)
(0.999993 -0.000235682 0)
(0.999936 -0.00068532 0)
(0.99982 -0.00117474 0)
(0.999632 -0.00181121 0)
(0.999349 -0.00269892 0)
(0.998934 -0.0039049 0)
(0.998345 -0.00547021 0)
(0.997535 -0.00747721 0)
(0.996447 -0.0101345 0)
(0.994989 -0.0138079 0)
(0.993031 -0.0189762 0)
(0.990385 -0.0261676 0)
(0.986857 -0.036014 0)
(0.982159 -0.0492999 0)
(0.976224 -0.0674797 0)
(0.968393 -0.0917092 0)
(0.959306 -0.126786 0)
(0.947926 -0.169563 0)
(0.930743 -0.243529 0)
(0.936515 -0.323802 0)
(0.99999 -0.000217603 0)
(0.999913 -0.000632784 0)
(0.999754 -0.00108475 0)
(0.999496 -0.00167263 0)
(0.999107 -0.00249276 0)
(0.998537 -0.00360732 0)
(0.997726 -0.00505474 0)
(0.996609 -0.0069121 0)
(0.995101 -0.00937415 0)
(0.993072 -0.0127824 0)
(0.990327 -0.0175864 0)
(0.986582 -0.0242845 0)
(0.981539 -0.0334942 0)
(0.974696 -0.0459514 0)
(0.965968 -0.0632178 0)
(0.953802 -0.0859603 0)
(0.940341 -0.120613 0)
(0.918366 -0.157614 0)
(0.895235 -0.240404 0)
(0.879783 -0.286728 0)
(0.999987 -0.00019414 0)
(0.999891 -0.000564585 0)
(0.999693 -0.000967898 0)
(0.999372 -0.00149257 0)
(0.998887 -0.00222469 0)
(0.998175 -0.00321995 0)
(0.997162 -0.00451309 0)
(0.995764 -0.00617372 0)
(0.993873 -0.00837737 0)
(0.991319 -0.0114319 0)
(0.987848 -0.015745 0)
(0.983084 -0.0217706 0)
(0.976631 -0.0300937 0)
(0.967743 -0.041381 0)
(0.956444 -0.0572763 0)
(0.939811 -0.0779266 0)
(0.923494 -0.111553 0)
(0.887623 -0.14061 0)
(0.872869 -0.235217 0)
(0.807065 -0.214491 0)
(0.999985 -0.000165867 0)
(0.999872 -0.00048239 0)
(0.99964 -0.000827032 0)
(0.999263 -0.00127544 0)
(0.998694 -0.00190126 0)
(0.997859 -0.00275225 0)
(0.996668 -0.00385842 0)
(0.995023 -0.00527989 0)
(0.992794 -0.00716798 0)
(0.989777 -0.0097881 0)
(0.985664 -0.013494 0)
(0.979988 -0.0186811 0)
(0.972271 -0.0258788 0)
(0.961496 -0.0356734 0)
(0.947899 -0.0497085 0)
(0.926729 -0.0678177 0)
(0.909176 -0.0995867 0)
(0.855742 -0.120694 0)
(0.870457 -0.230203 0)
(0.716589 -0.116155 0)
(0.999983 -0.000133484 0)
(0.999857 -0.000388221 0)
(0.999596 -0.00066561 0)
(0.999173 -0.00102657 0)
(0.998534 -0.00153042 0)
(0.997595 -0.00221572 0)
(0.996256 -0.00310683 0)
(0.994405 -0.00425258 0)
(0.991894 -0.00577566 0)
(0.988488 -0.00789134 0)
(0.983834 -0.0108879 0)
(0.977386 -0.0150897 0)
(0.968591 -0.0209423 0)
(0.956159 -0.0289472 0)
(0.940536 -0.0405897 0)
(0.914992 -0.0558039 0)
(0.896798 -0.0843805 0)
(0.823525 -0.100251 0)
(0.884836 -0.226812 0)
(0.605411 -0.0249244 0)
(0.999982 -9.779e-05 0)
(0.999845 -0.000284421 0)
(0.999562 -0.000487642 0)
(0.999103 -0.000752102 0)
(0.99841 -0.00112131 0)
(0.997391 -0.00162359 0)
(0.995937 -0.00227691 0)
(0.993926 -0.00311728 0)
(0.991196 -0.00423507 0)
(0.987488 -0.00578903 0)
(0.982412 -0.00799211 0)
(0.975359 -0.011087 0)
(0.965707 -0.0154063 0)
(0.951944 -0.0213594 0)
(0.93455 -0.0300624 0)
(0.905262 -0.0419482 0)
(0.884862 -0.0651522 0)
(0.794022 -0.0802178 0)
(0.893026 -0.222129 0)
(0.455266 0.12267 0)
(0.999981 -5.96676e-05 0)
(0.999837 -0.000173582 0)
(0.999539 -0.000297622 0)
(0.999055 -0.000459032 0)
(0.998325 -0.000684368 0)
(0.997251 -0.000990944 0)
(0.995719 -0.00138979 0)
(0.9936 -0.001903 0)
(0.99072 -0.00258588 0)
(0.986805 -0.00353581 0)
(0.981439 -0.00488297 0)
(0.973971 -0.00677965 0)
(0.963718 -0.00942251 0)
(0.949048 -0.0131149 0)
(0.930186 -0.0184084 0)
(0.898433 -0.0263571 0)
(0.872327 -0.0408109 0)
(0.771393 -0.0597076 0)
(0.868165 -0.179789 0)
(0.301756 0.0375226 0)
(0.99998 -2.00563e-05 0)
(0.999832 -5.83658e-05 0)
(0.999527 -0.000100084 0)
(0.999031 -0.000154366 0)
(0.998281 -0.000230132 0)
(0.99718 -0.000333201 0)
(0.995608 -0.000467298 0)
(0.993432 -0.000639885 0)
(0.990476 -0.000869571 0)
(0.986455 -0.00118919 0)
(0.980939 -0.00164243 0)
(0.97326 -0.00228152 0)
(0.96268 -0.0031706 0)
(0.947608 -0.00442203 0)
(0.927669 -0.00620499 0)
(0.895662 -0.00890453 0)
(0.860038 -0.014535 0)
(0.764512 -0.0193665 0)
(0.746497 -0.103582 0)
(0.0224101 0.297665 0)
(1.36929 -0.024212 0)
(1.47666 -0.0298097 0)
(1.60762 -0.0359262 0)
(1.76386 -0.0423495 0)
(1.94621 -0.0488639 0)
(2.15446 -0.0551742 0)
(2.38695 -0.0607586 0)
(2.63958 -0.0648706 0)
(1.36395 -0.0724924 0)
(1.47072 -0.0893342 0)
(1.60124 -0.107744 0)
(1.75726 -0.127076 0)
(1.93962 -0.146691 0)
(2.14834 -0.165736 0)
(2.38208 -0.182672 0)
(2.63683 -0.195238 0)
(1.35341 -0.120295 0)
(1.45897 -0.148503 0)
(1.58866 -0.179332 0)
(1.74419 -0.211681 0)
(1.92674 -0.244637 0)
(2.1368 -0.276962 0)
(2.37279 -0.305967 0)
(2.63 -0.327575 0)
(1.33754 -0.167278 0)
(1.44126 -0.207059 0)
(1.56958 -0.250499 0)
(1.7247 -0.296207 0)
(1.90809 -0.34323 0)
(2.11868 -0.389462 0)
(2.35325 -0.430357 0)
(2.60885 -0.460352 0)
(1.31626 -0.213081 0)
(1.41732 -0.264706 0)
(1.54414 -0.321235 0)
(1.69961 -0.381067 0)
(1.88144 -0.441979 0)
(2.08504 -0.500185 0)
(2.31402 -0.551486 0)
(2.57892 -0.591866 0)
(1.28932 -0.257243 0)
(1.387 -0.321314 0)
(1.51343 -0.391947 0)
(1.66665 -0.465044 0)
(1.83667 -0.535998 0)
(2.03193 -0.605446 0)
(2.28488 -0.676261 0)
(2.61614 -0.742929 0)
(1.25625 -0.299343 0)
(1.35133 -0.377308 0)
(1.4764 -0.461476 0)
(1.61564 -0.542523 0)
(1.773 -0.623662 0)
(2.0056 -0.723025 0)
(2.36238 -0.842236 0)
(2.82208 -0.952951 0)
(1.21734 -0.339488 0)
(1.31115 -0.432329 0)
(1.42408 -0.524371 0)
(1.54332 -0.612209 0)
(1.73912 -0.729154 0)
(2.10252 -0.899419 0)
(2.61511 -1.08473 0)
(3.1742 -1.22265 0)
(1.17438 -0.37788 0)
(1.2612 -0.482237 0)
(1.34727 -0.577224 0)
(1.48833 -0.697685 0)
(1.82402 -0.90195 0)
(2.36535 -1.16236 0)
(2.97399 -1.38142 0)
(3.5156 -1.49545 0)
(1.12749 -0.412308 0)
(1.18893 -0.521185 0)
(1.26509 -0.636014 0)
(1.53033 -0.848107 0)
(2.06476 -1.16852 0)
(2.71438 -1.47858 0)
(3.28759 -1.66497 0)
(3.69898 -1.70838 0)
(1.06933 -0.436867 0)
(1.09105 -0.553446 0)
(1.24048 -0.743841 0)
(1.71801 -1.09747 0)
(2.39463 -1.49732 0)
(3.01653 -1.77925 0)
(3.44202 -1.87618 0)
(3.67962 -1.83574 0)
(0.98617 -0.447092 0)
(0.998261 -0.606475 0)
(1.33916 -0.946269 0)
(2.01358 -1.42788 0)
(2.69966 -1.82216 0)
(3.17481 -2.00624 0)
(3.40987 -1.99396 0)
(3.50795 -1.89513 0)
(0.871526 -0.450166 0)
(0.975041 -0.729065 0)
(1.56615 -1.25176 0)
(2.32467 -1.78129 0)
(2.88741 -2.08141 0)
(3.15988 -2.13578 0)
(3.23588 -2.03626 0)
(3.27626 -1.93041 0)
(0.744811 -0.473226 0)
(1.0734 -0.963106 0)
(1.86246 -1.62258 0)
(2.55948 -2.09178 0)
(2.91603 -2.24091 0)
(3.00213 -2.18018 0)
(2.9988 -2.04387 0)
(3.06258 -1.98645 0)
(0.659331 -0.561865 0)
(1.28742 -1.30653 0)
(2.14484 -1.99453 0)
(2.65837 -2.31011 0)
(2.79678 -2.30079 0)
(2.76726 -2.17591 0)
(2.77009 -2.05599 0)
(2.89494 -2.08559 0)
(0.675259 -0.75766 0)
(1.56361 -1.7104 0)
(2.33874 -2.3024 0)
(2.60563 -2.41744 0)
(2.58229 -2.29096 0)
(2.52435 -2.16477 0)
(2.5854 -2.09131 0)
(2.75063 -2.2151 0)
(0.809662 -1.07293 0)
(1.83262 -2.1107 0)
(2.39586 -2.50304 0)
(2.4294 -2.42951 0)
(2.34201 -2.2569 0)
(2.31647 -2.177 0)
(2.44318 -2.14883 0)
(2.58854 -2.3407 0)
(1.03226 -1.50419 0)
(2.02747 -2.45737 0)
(2.30325 -2.58768 0)
(2.19162 -2.38914 0)
(2.13027 -2.2386 0)
(2.14851 -2.22065 0)
(2.32143 -2.21917 0)
(2.38227 -2.45283 0)
(1.2874 -2.0606 0)
(2.09395 -2.70449 0)
(2.09243 -2.57868 0)
(1.9659 -2.34518 0)
(1.96379 -2.24958 0)
(2.00001 -2.27563 0)
(2.18286 -2.27836 0)
(2.10597 -2.57943 0)
(1.51383 -2.65953 0)
(2.01244 -2.79674 0)
(1.83927 -2.52239 0)
(1.80288 -2.32465 0)
(1.82655 -2.27127 0)
(1.85345 -2.30199 0)
(1.97659 -2.27818 0)
(1.7004 -2.65758 0)
(2.90503 -0.0666886 0)
(3.17266 -0.0654895 0)
(3.42924 -0.0608129 0)
(3.66037 -0.0525675 0)
(3.85202 -0.0410696 0)
(3.99221 -0.0270627 0)
(4.0726 -0.0117134 0)
(4.08998 0.00357578 0)
(4.04697 0.0173955 0)
(3.95183 0.0285641 0)
(3.81711 0.0364347 0)
(3.65707 0.0409543 0)
(3.48528 0.0424919 0)
(3.31309 0.0415947 0)
(3.1493 0.0387784 0)
(3.00076 0.0343818 0)
(2.8733 0.0285297 0)
(2.7726 0.0212497 0)
(2.70414 0.0127057 0)
(2.67214 0.00340085 0)
(2.67804 -0.0058322 0)
(2.7199 -0.0142417 0)
(2.7933 -0.0214851 0)
(2.8936 -0.0276516 0)
(3.01975 -0.0352939 0)
(3.18062 -0.0421342 0)
(3.4077 -0.0870531 0)
(3.78244 -0.0855814 0)
(2.90503 -0.200894 0)
(3.17571 -0.197394 0)
(3.43543 -0.183336 0)
(3.66962 -0.158452 0)
(3.86402 -0.123682 0)
(4.00629 -0.0812494 0)
(4.08773 -0.0346937 0)
(4.10481 0.0116227 0)
(4.06011 0.0533353 0)
(3.96226 0.0869086 0)
(3.82438 0.110454 0)
(3.66124 0.12386 0)
(3.48667 0.128272 0)
(3.31199 0.125379 0)
(3.14584 0.116766 0)
(2.99485 0.103465 0)
(2.86484 0.0858393 0)
(2.76174 0.0639507 0)
(2.69153 0.0382833 0)
(2.65873 0.0103232 0)
(2.66475 -0.0174533 0)
(2.7076 -0.0427861 0)
(2.78229 -0.0643926 0)
(2.88363 -0.0831584 0)
(3.00736 -0.102979 0)
(3.16198 -0.133563 0)
(3.34271 -0.20211 0)
(3.59421 -0.374215 0)
(2.9007 -0.337397 0)
(3.17452 -0.331762 0)
(3.43851 -0.308458 0)
(3.67787 -0.267042 0)
(3.87751 -0.208931 0)
(4.02403 -0.137666 0)
(4.10798 -0.0590438 0)
(4.12534 0.0195043 0)
(4.0783 0.0902203 0)
(3.97605 0.146933 0)
(3.83265 0.186476 0)
(3.66376 0.2088 0)
(3.48367 0.216007 0)
(3.30379 0.211088 0)
(3.13253 0.196772 0)
(2.97637 0.174719 0)
(2.84135 0.145328 0)
(2.7342 0.108481 0)
(2.66184 0.0649571 0)
(2.62944 0.0174852 0)
(2.63828 -0.0297371 0)
(2.68561 -0.0725926 0)
(2.76488 -0.108704 0)
(2.86849 -0.139029 0)
(2.99009 -0.17014 0)
(3.12948 -0.213504 0)
(3.27919 -0.302838 0)
(3.44273 -0.468487 0)
(2.88211 -0.474123 0)
(3.16516 -0.466847 0)
(3.4434 -0.434989 0)
(3.69786 -0.377281 0)
(3.90919 -0.295362 0)
(4.06123 -0.194388 0)
(4.14396 -0.0828862 0)
(4.15505 0.0286877 0)
(4.09905 0.129275 0)
(3.9869 0.209813 0)
(3.834 0.265697 0)
(3.65673 0.296969 0)
(3.46953 0.306837 0)
(3.28359 0.299746 0)
(3.1071 0.279597 0)
(2.94659 0.248514 0)
(2.80884 0.206678 0)
(2.70176 0.15365 0)
(2.63325 0.0906532 0)
(2.60852 0.0219742 0)
(2.62774 -0.0459529 0)
(2.68509 -0.106519 0)
(2.77071 -0.155963 0)
(2.87467 -0.195658 0)
(2.98925 -0.233462 0)
(3.11037 -0.283127 0)
(3.22962 -0.370793 0)
(3.33488 -0.519475 0)
(2.88242 -0.614657 0)
(3.20983 -0.610513 0)
(3.5338 -0.571779 0)
(3.82481 -0.495688 0)
(4.05765 -0.384985 0)
(4.21388 -0.248092 0)
(4.28325 -0.0987406 0)
(4.26759 0.0480162 0)
(4.17882 0.17825 0)
(4.03446 0.281081 0)
(3.85473 0.351433 0)
(3.65795 0.389943 0)
(3.45815 0.401106 0)
(3.26513 0.390785 0)
(3.08586 0.363828 0)
(2.92662 0.322479 0)
(2.79487 0.266447 0)
(2.69921 0.195078 0)
(2.64698 0.110527 0)
(2.64091 0.0193511 0)
(2.6768 -0.0689489 0)
(2.74389 -0.144849 0)
(2.8299 -0.203969 0)
(2.92497 -0.248848 0)
(3.0225 -0.288774 0)
(3.11799 -0.338068 0)
(3.20307 -0.417804 0)
(3.26215 -0.547156 0)
(3.00879 -0.787464 0)
(3.41994 -0.78997 0)
(3.80566 -0.739799 0)
(4.13415 -0.636459 0)
(4.38449 -0.486294 0)
(4.54157 -0.301653 0)
(4.59459 -0.102405 0)
(4.54364 0.0887693 0)
(4.40253 0.252197 0)
(4.19775 0.375462 0)
(3.96111 0.455098 0)
(3.71963 0.494791 0)
(3.49062 0.501943 0)
(3.28284 0.48428 0)
(3.10069 0.447211 0)
(2.94839 0.392498 0)
(2.83211 0.319161 0)
(2.7586 0.22681 0)
(2.73126 0.11954 0)
(2.74665 0.00715325 0)
(2.79424 -0.0973522 0)
(2.86044 -0.183074 0)
(2.93403 -0.246561 0)
(3.00823 -0.292256 0)
(3.07912 -0.330646 0)
(3.1431 -0.37582 0)
(3.1925 -0.44495 0)
(3.2125 -0.552225 0)
(3.31654 -1.01692 0)
(3.78175 -1.01127 0)
(4.18175 -0.933682 0)
(4.50447 -0.792044 0)
(4.74656 -0.596338 0)
(4.90105 -0.359605 0)
(4.95681 -0.103194 0)
(4.90137 0.14389 0)
(4.73565 0.352255 0)
(4.48345 0.502521 0)
(4.18526 0.590402 0)
(3.88303 0.624269 0)
(3.60681 0.618039 0)
(3.37117 0.584177 0)
(3.18017 0.529736 0)
(3.03469 0.455991 0)
(2.93624 0.36135 0)
(2.88557 0.246354 0)
(2.87846 0.117869 0)
(2.90414 -0.0109265 0)
(2.94796 -0.124915 0)
(2.99753 -0.214242 0)
(3.04596 -0.277666 0)
(3.09079 -0.321502 0)
(3.13083 -0.356697 0)
(3.16322 -0.396286 0)
(3.1806 -0.454072 0)
(3.1695 -0.540494 0)
(3.68728 -1.27307 0)
(4.11189 -1.2308 0)
(4.44781 -1.11125 0)
(4.71326 -0.930165 0)
(4.92212 -0.696006 0)
(5.0713 -0.417453 0)
(5.14733 -0.112084 0)
(5.12793 0.190787 0)
(4.99712 0.453642 0)
(4.76074 0.644596 0)
(4.45083 0.750843 0)
(4.11553 0.780853 0)
(3.80043 0.755628 0)
(3.53461 0.69612 0)
(3.32936 0.614775 0)
(3.18512 0.514704 0)
(3.09772 0.39496 0)
(3.05937 0.257693 0)
(3.05728 0.112327 0)
(3.07513 -0.026078 0)
(3.09822 -0.143162 0)
(3.11837 -0.231704 0)
(3.13393 -0.293114 0)
(3.14643 -0.334889 0)
(3.15661 -0.367411 0)
(3.16174 -0.401893 0)
(3.1542 -0.449231 0)
(3.12135 -0.517175 0)
(3.93473 -1.49299 0)
(4.24137 -1.39737 0)
(4.47568 -1.23875 0)
(4.67719 -1.0321 0)
(4.8615 -0.775745 0)
(5.0144 -0.46958 0)
(5.10966 -0.129025 0)
(5.12783 0.217379 0)
(5.0533 0.530257 0)
(4.88 0.768447 0)
(4.62111 0.906355 0)
(4.31238 0.944563 0)
(4.00124 0.905603 0)
(3.72839 0.818579 0)
(3.51653 0.704719 0)
(3.37094 0.573097 0)
(3.28501 0.42629 0)
(3.24447 0.268962 0)
(3.23071 0.112006 0)
(3.22563 -0.0300937 0)
(3.21754 -0.145956 0)
(3.20327 -0.231944 0)
(3.18545 -0.291764 0)
(3.16808 -0.333133 0)
(3.15275 -0.364941 0)
(3.13644 -0.396046 0)
(3.11109 -0.434751 0)
(3.06463 -0.48696 0)
(3.9663 -1.63803 0)
(4.15185 -1.4993 0)
(4.31999 -1.32514 0)
(4.51053 -1.11736 0)
(4.71873 -0.854503 0)
(4.90178 -0.524877 0)
(5.01079 -0.149069 0)
(5.02975 0.234499 0)
(4.96521 0.584457 0)
(4.82777 0.860302 0)
(4.62731 1.03072 0)
(4.38065 1.08654 0)
(4.11823 1.045 0)
(3.87571 0.937971 0)
(3.67973 0.794624 0)
(3.54056 0.632507 0)
(3.45301 0.460581 0)
(3.40146 0.287063 0)
(3.3668 0.123295 0)
(3.33332 -0.0187538 0)
(3.29378 -0.1318 0)
(3.24909 -0.215718 0)
(3.20412 -0.275706 0)
(3.16351 -0.318883 0)
(3.12863 -0.352131 0)
(3.09609 -0.381794 0)
(3.05786 -0.413903 0)
(3.00273 -0.453128 0)
(3.81923 -1.71625 0)
(3.95055 -1.56853 0)
(4.13333 -1.41377 0)
(4.38207 -1.22898 0)
(4.65628 -0.966211 0)
(4.88502 -0.604501 0)
(5.00869 -0.175674 0)
(5.00592 0.260058 0)
(4.89597 0.646297 0)
(4.72202 0.944225 0)
(4.52187 1.1302 0)
(4.31344 1.19639 0)
(4.10724 1.15565 0)
(3.91772 1.03725 0)
(3.76018 0.873326 0)
(3.64218 0.688216 0)
(3.55965 0.497606 0)
(3.49953 0.313423 0)
(3.44677 0.146807 0)
(3.39094 0.00648558 0)
(3.32924 -0.104087 0)
(3.26492 -0.187422 0)
(3.20314 -0.249307 0)
(3.14768 -0.295782 0)
(3.09906 -0.331701 0)
(3.05379 -0.361161 0)
(3.00472 -0.388351 0)
(2.94231 -0.417115 0)
(3.60031 -1.76814 0)
(3.76343 -1.65207 0)
(4.01689 -1.54344 0)
(4.3298 -1.38892 0)
(4.63692 -1.11802 0)
(4.87305 -0.712318 0)
(5.00128 -0.217998 0)
(4.99888 0.288068 0)
(4.86457 0.728392 0)
(4.64072 1.05004 0)
(4.39468 1.23516 0)
(4.17475 1.29134 0)
(3.99484 1.2399 0)
(3.85126 1.10985 0)
(3.73894 0.932118 0)
(3.65341 0.733131 0)
(3.58727 0.532296 0)
(3.52992 0.343653 0)
(3.47159 0.177451 0)
(3.40732 0.0395793 0)
(3.33775 -0.0693223 0)
(3.26683 -0.153137 0)
(3.19881 -0.217496 0)
(3.13597 -0.26724 0)
(3.07788 -0.305564 0)
(3.02139 -0.334916 0)
(2.96112 -0.358195 0)
(2.89018 -0.378717 0)
(3.40564 -1.83692 0)
(3.64175 -1.77435 0)
(3.93176 -1.70702 0)
(4.20822 -1.56102 0)
(4.43322 -1.26158 0)
(4.59523 -0.808771 0)
(4.69618 -0.262231 0)
(4.72653 0.302996 0)
(4.65384 0.804769 0)
(4.47098 1.16662 0)
(4.22885 1.35579 0)
(4.00093 1.39096 0)
(3.82914 1.31347 0)
(3.71479 1.16277 0)
(3.64125 0.970955 0)
(3.59121 0.763327 0)
(3.55072 0.558839 0)
(3.50918 0.370814 0)
(3.46015 0.207659 0)
(3.40211 0.0729785 0)
(3.3376 -0.0342593 0)
(3.27053 -0.118337 0)
(3.20386 -0.184214 0)
(3.13845 -0.235621 0)
(3.07317 -0.274658 0)
(3.00566 -0.302899 0)
(2.93289 -0.3226 0)
(2.85127 -0.336792 0)
(3.27058 -1.94369 0)
(3.53652 -1.91578 0)
(3.72896 -1.84176 0)
(3.8069 -1.66409 0)
(3.83989 -1.32554 0)
(3.87746 -0.843923 0)
(3.92584 -0.281318 0)
(3.99291 0.300797 0)
(4.04184 0.838749 0)
(4.00915 1.24468 0)
(3.88614 1.45607 0)
(3.73117 1.48196 0)
(3.60588 1.37828 0)
(3.53199 1.20199 0)
(3.49926 0.993407 0)
(3.48759 0.778367 0)
(3.47951 0.573482 0)
(3.46357 0.389196 0)
(3.43459 0.231167 0)
(3.39262 0.100925 0)
(3.34082 -0.00354801 0)
(3.28297 -0.0863218 0)
(3.22115 -0.151569 0)
(3.15523 -0.202037 0)
(3.08383 -0.239282 0)
(3.00564 -0.264773 0)
(2.92005 -0.280769 0)
(2.8268 -0.290238 0)
(3.16752 -2.07334 0)
(3.33601 -2.01258 0)
(3.25474 -1.85651 0)
(3.02036 -1.63244 0)
(2.8623 -1.28941 0)
(2.80317 -0.823225 0)
(2.80174 -0.283445 0)
(2.87491 0.274524 0)
(3.02462 0.809161 0)
(3.1715 1.24078 0)
(3.24667 1.48312 0)
(3.25953 1.52107 0)
(3.25826 1.40896 0)
(3.27394 1.2163 0)
(3.30897 0.995119 0)
(3.35075 0.775527 0)
(3.38522 0.573081 0)
(3.40288 0.395201 0)
(3.40025 0.244581 0)
(3.37885 0.12081 0)
(3.34269 0.0211649 0)
(3.29561 -0.058042 0)
(3.2394 -0.120074 0)
(3.17373 -0.166865 0)
(3.09753 -0.199839 0)
(3.0107 -0.220945 0)
(2.91468 -0.232958 0)
(2.81183 -0.238981 0)
(3.03745 -2.15762 0)
(2.92259 -1.9695 0)
(2.45878 -1.6841 0)
(1.93528 -1.47922 0)
(1.68573 -1.20261 0)
(1.55666 -0.782405 0)
(1.50699 -0.281609 0)
(1.55183 0.226479 0)
(1.74177 0.72149 0)
(2.02361 1.14464 0)
(2.29942 1.40548 0)
(2.52697 1.46671 0)
(2.71467 1.36807 0)
(2.87887 1.17912 0)
(3.02489 0.959716 0)
(3.14833 0.745112 0)
(3.24274 0.551692 0)
(3.30442 0.385037 0)
(3.33418 0.245482 0)
(3.33676 0.13111 0)
(3.31814 0.0388298 0)
(3.28281 -0.0343614 0)
(3.23299 -0.0905673 0)
(3.16908 -0.131197 0)
(3.0911 -0.157906 0)
(3.00032 -0.173418 0)
(2.89964 -0.181224 0)
(2.79278 -0.184613 0)
(2.82761 -2.07732 0)
(2.21266 -1.70608 0)
(1.45063 -1.34313 0)
(0.747237 -1.27843 0)
(0.430988 -1.07855 0)
(0.170489 -0.686636 0)
(0.0667574 -0.225349 0)
(0.074598 0.202532 0)
(0.294949 0.613897 0)
(0.677636 0.983462 0)
(1.11945 1.229 0)
(1.55559 1.30342 0)
(1.95442 1.22966 0)
(2.30243 1.06438 0)
(2.59465 0.866549 0)
(2.82801 0.672893 0)
(3.00252 0.500403 0)
(3.12168 0.353511 0)
(3.19284 0.231128 0)
(3.22555 0.130709 0)
(3.22868 0.0495159 0)
(3.20822 -0.0145961 0)
(3.16763 -0.0627418 0)
(3.109 -0.0957664 0)
(3.03433 -0.115516 0)
(2.94642 -0.125343 0)
(2.84897 -0.129242 0)
(2.74586 -0.130529 0)
(2.516 -1.76173 0)
(1.17513 -1.24156 0)
(0.458084 -0.949573 0)
(-0.418797 -1.03645 0)
(-0.91273 -0.86181 0)
(-1.31601 -0.533359 0)
(-1.47374 -0.170435 0)
(-1.45564 0.165417 0)
(-1.21889 0.480215 0)
(-0.773059 0.765469 0)
(-0.200483 0.965926 0)
(0.422295 1.03914 0)
(1.01922 0.990253 0)
(1.55175 0.861277 0)
(2.00058 0.702348 0)
(2.3577 0.546371 0)
(2.62612 0.408827 0)
(2.81514 0.29203 0)
(2.9383 0.193986 0)
(3.00976 0.112683 0)
(3.04085 0.046604 0)
(3.03947 -0.00500819 0)
(3.01134 -0.0420746 0)
(2.96134 -0.0653576 0)
(2.89423 -0.0770595 0)
(2.81478 -0.080881 0)
(2.72728 -0.0808423 0)
(2.63508 -0.0799181 0)
(2.1316 -1.35307 0)
(-0.0929471 -0.714367 0)
(-0.342066 -0.603167 0)
(-1.48191 -0.669875 0)
(-2.18953 -0.573978 0)
(-2.72483 -0.366487 0)
(-2.96309 -0.12963 0)
(-2.9559 0.0952802 0)
(-2.69887 0.305592 0)
(-2.19914 0.492488 0)
(-1.52192 0.628382 0)
(-0.758558 0.685476 0)
(-0.00218031 0.657183 0)
(0.691281 0.573925 0)
(1.28286 0.469277 0)
(1.7596 0.365528 0)
(2.12444 0.276056 0)
(2.38865 0.200253 0)
(2.56959 0.135557 0)
(2.68404 0.080926 0)
(2.74496 0.0361145 0)
(2.76163 0.00131247 0)
(2.74202 -0.0231068 0)
(2.69626 -0.0371345 0)
(2.63436 -0.0425444 0)
(2.56414 -0.042395 0)
(2.49058 -0.0398935 0)
(2.41614 -0.0373402 0)
(1.80657 -0.984518 0)
(-1.08397 -0.235403 0)
(-0.914839 -0.209102 0)
(-2.21293 -0.233244 0)
(-3.0941 -0.195495 0)
(-3.79245 -0.119112 0)
(-4.14008 -0.0341207 0)
(-4.17081 0.0454585 0)
(-3.9037 0.119466 0)
(-3.37291 0.183915 0)
(-2.63501 0.230302 0)
(-1.78574 0.248957 0)
(-0.92275 0.238773 0)
(-0.115379 0.208934 0)
(0.579134 0.165916 0)
(1.14944 0.124055 0)
(1.5926 0.0902875 0)
(1.91575 0.0622928 0)
(2.13765 0.0382817 0)
(2.27651 0.0182136 0)
(2.34626 0.00286144 0)
(2.36138 -0.00705364 0)
(2.33869 -0.0119114 0)
(2.29397 -0.0125717 0)
(2.24058 -0.0107676 0)
(2.18772 -0.00820983 0)
(2.13962 -0.00610129 0)
(2.0965 -0.00500389 0)
(4.18351 -0.781493 0)
(4.00489 -1.42925 0)
(3.45753 -1.90951 0)
(2.78521 -2.17573 0)
(2.1488 -2.25147 0)
(1.52852 -2.21784 0)
(0.981343 -2.0422 0)
(-0.179452 -1.97909 0)
(3.69982 -0.937298 0)
(3.50323 -1.37501 0)
(3.12864 -1.68049 0)
(2.66994 -1.89105 0)
(2.15557 -1.96901 0)
(1.5962 -1.92328 0)
(1.06844 -1.73048 0)
(0.30867 -1.58572 0)
(3.51548 -0.820444 0)
(3.37616 -1.17862 0)
(3.05686 -1.46764 0)
(2.6357 -1.65771 0)
(2.16098 -1.71705 0)
(1.65644 -1.65698 0)
(1.17288 -1.46606 0)
(0.545558 -1.2118 0)
(3.36212 -0.788787 0)
(3.23058 -1.08815 0)
(2.94955 -1.31729 0)
(2.5789 -1.4529 0)
(2.16231 -1.48779 0)
(1.72035 -1.42086 0)
(1.29238 -1.2323 0)
(0.804902 -0.957378 0)
(3.25391 -0.750632 0)
(3.12602 -0.978439 0)
(2.87631 -1.15836 0)
(2.54632 -1.26492 0)
(2.17563 -1.28645 0)
(1.78571 -1.21503 0)
(1.41193 -1.03387 0)
(1.02435 -0.759164 0)
(3.17424 -0.707552 0)
(3.04346 -0.882234 0)
(2.81581 -1.0237 0)
(2.5202 -1.10315 0)
(2.19029 -1.10904 0)
(1.84769 -1.03452 0)
(1.52462 -0.864418 0)
(1.21305 -0.608978 0)
(3.10867 -0.659172 0)
(2.97544 -0.790874 0)
(2.76592 -0.898192 0)
(2.50027 -0.955424 0)
(2.20646 -0.950938 0)
(1.90577 -0.8774 0)
(1.62739 -0.721602 0)
(1.37463 -0.492413 0)
(3.04652 -0.606807 0)
(2.91402 -0.70463 0)
(2.72109 -0.784288 0)
(2.4825 -0.824 0)
(2.2214 -0.81197 0)
(1.95799 -0.741152 0)
(1.71842 -0.600937 0)
(1.51131 -0.399571 0)
(2.98309 -0.553168 0)
(2.85492 -0.624003 0)
(2.67839 -0.680887 0)
(2.46485 -0.706263 0)
(2.2336 -0.689118 0)
(2.00339 -0.622834 0)
(1.79735 -0.498881 0)
(1.62647 -0.324689 0)
(2.91875 -0.500304 0)
(2.79698 -0.549416 0)
(2.63636 -0.587682 0)
(2.44598 -0.601558 0)
(2.24206 -0.581264 0)
(2.04153 -0.520576 0)
(1.86459 -0.412557 0)
(1.72286 -0.263544 0)
(2.85681 -0.448973 0)
(2.74129 -0.480708 0)
(2.59517 -0.503991 0)
(2.42585 -0.508812 0)
(2.24678 -0.486854 0)
(2.07276 -0.432325 0)
(1.92105 -0.339425 0)
(1.803 -0.213247 0)
(2.80156 -0.398655 0)
(2.69037 -0.416982 0)
(2.55645 -0.428748 0)
(2.40566 -0.426889 0)
(2.24877 -0.404548 0)
(2.09808 -0.3564 0)
(1.96808 -0.277492 0)
(1.8693 -0.171742 0)
(2.75703 -0.348059 0)
(2.64749 -0.356848 0)
(2.52292 -0.360577 0)
(2.38766 -0.354426 0)
(2.24977 -0.332835 0)
(2.11891 -0.291061 0)
(2.0071 -0.224918 0)
(1.92398 -0.137427 0)
(2.72537 -0.29588 0)
(2.61528 -0.298845 0)
(2.4972 -0.297917 0)
(2.37405 -0.289767 0)
(2.25129 -0.269928 0)
(2.13627 -0.234456 0)
(2.03906 -0.180007 0)
(1.9687 -0.109096 0)
(2.70417 -0.241565 0)
(2.59295 -0.24188 0)
(2.47917 -0.239185 0)
(2.36457 -0.230976 0)
(2.25266 -0.213752 0)
(2.14941 -0.184633 0)
(2.06339 -0.141211 0)
(2.00373 -0.0858043 0)
(2.68301 -0.185821 0)
(2.5724 -0.185584 0)
(2.46202 -0.183035 0)
(2.35313 -0.176087 0)
(2.24854 -0.16221 0)
(2.15393 -0.139753 0)
(2.07653 -0.107197 0)
(2.02619 -0.0666054 0)
(2.64019 -0.131015 0)
(2.53389 -0.13089 0)
(2.42816 -0.129079 0)
(2.32468 -0.12394 0)
(2.22672 -0.114003 0)
(2.14016 -0.0986556 0)
(2.0703 -0.0769619 0)
(2.02757 -0.050095 0)
(2.54034 -0.0794117 0)
(2.44445 -0.0791628 0)
(2.34882 -0.0782014 0)
(2.25582 -0.0754647 0)
(2.16894 -0.070255 0)
(2.09307 -0.0622586 0)
(2.03103 -0.0506913 0)
(1.99276 -0.0352918 0)
(2.3417 -0.0357005 0)
(2.26753 -0.0348593 0)
(2.19423 -0.0342294 0)
(2.12317 -0.0332646 0)
(2.05627 -0.0316595 0)
(1.99622 -0.0290469 0)
(1.94423 -0.0248983 0)
(1.90846 -0.0176926 0)
(2.05652 -0.00494263 0)
(2.01758 -0.00562083 0)
(1.97841 -0.00663733 0)
(1.93882 -0.00761325 0)
(1.89933 -0.00825767 0)
(1.8612 -0.00826923 0)
(1.82569 -0.00754018 0)
(1.79741 -0.00525408 0)
(-0.899616 -0.687203 0)
(0.238348 -0.0989597 0)
(0.761626 0.314187 0)
(1.1621 0.591059 6.1176e-17)
(1.54022 0.728816 5.23815e-18)
(2.01271 0.719205 0)
(2.32123 0.605874 4.03203e-17)
(2.43597 0.513755 2.11891e-18)
(2.47983 0.468111 2.82831e-17)
(2.55423 0.43817 2.66963e-17)
(2.6487 0.420516 0)
(2.74451 0.410186 2.16697e-17)
(2.83739 0.405754 -9.06534e-19)
(2.93005 0.405728 1.73527e-17)
(3.02466 0.409454 2.09387e-19)
(3.12046 0.415629 -2.27048e-19)
(3.22427 0.426284 -5.14298e-18)
(3.32284 0.428568 3.3115e-18)
(3.50027 0.458752 5.48203e-20)
(3.45906 0.193033 5.85367e-21)
(-0.0729521 -0.854033 0)
(0.527283 -0.118171 0)
(0.913667 0.434437 -2.81185e-18)