/*--------------------------------*- C++ -*----------------------------------*\
| =========                 |                                                 |
| \\      /  F ield         | OpenFOAM: The Open Source CFD Toolbox           |
|  \\    /   O peration     | Version:  2.4.0                                 |
|   \\  /    A nd           | Web:      www.OpenFOAM.org                      |
|    \\/     M anipulation  |                                                 |
\*---------------------------------------------------------------------------*/
FoamFile
{
    version     2.0;
    format      ascii;
    class       volScalarField;
    location    "4.82";
    object      p;
}
// * * * * * * * * * * * * * * * * * * * * * * * * * * * * * * * * * * * * * //

dimensions      [0 2 -2 0 0 0 0];

internalField   nonuniform List<scalar> 
6000
(
-0.123222
0.233605
0.190874
0.210759
0.203373
0.208197
0.205175
0.207182
0.205865
0.206575
0.205876
0.205989
0.205666
0.205826
0.206048
0.206585
0.207145
0.207752
0.208302
0.2087
0.208962
0.209391
0.21017
0.211342
0.212928
0.214939
0.217387
0.220279
0.223617
0.22739
0.231581
0.236162
0.241088
0.246308
0.251757
0.257367
0.263058
0.268762
0.274389
0.27989
0.285157
0.290194
0.294826
0.299194
0.302909
0.306438
0.308873
0.311382
0.311823
0.313229
0.31015
0.310775
0.300556
0.302282
0.275893
0.286077
0.219512
0.263397
0.0868947
0.245613
-0.096883
0.23019
0.190947
0.210606
0.203394
0.208183
0.205187
0.207181
0.205883
0.206594
0.205904
0.206014
0.205682
0.205825
0.206025
0.206544
0.207117
0.207766
0.208357
0.208774
0.209024
0.209429
0.210188
0.211343
0.212913
0.214909
0.217343
0.22022
0.223538
0.227304
0.231487
0.236057
0.240975
0.246185
0.251625
0.257226
0.262908
0.268601
0.274217
0.279703
0.284955
0.289973
0.294583
0.298925
0.302609
0.306101
0.308502
0.310963
0.311364
0.312697
0.309572
0.310079
0.29982
0.301337
0.274946
0.28472
0.218345
0.261262
0.085505
0.241799
-0.079995
0.226736
0.190975
0.210514
0.203402
0.208177
0.205193
0.207189
0.2059
0.206622
0.205936
0.206051
0.205708
0.205834
0.20601
0.206522
0.207105
0.207793
0.208431
0.20887
0.209114
0.209498
0.210236
0.211372
0.212926
0.214905
0.217322
0.220182
0.223487
0.227228
0.231389
0.23594
0.240837
0.246027
0.251447
0.257028
0.26269
0.268362
0.273956
0.27942
0.284646
0.289638
0.294215
0.298524
0.302167
0.305616
0.307965
0.310378
0.310714
0.311987
0.308775
0.309207
0.29883
0.300251
0.273707
0.283322
0.216747
0.259332
0.0833316
0.238489
-0.067772
0.222883
0.191186
0.21043
0.203402
0.208171
0.205197
0.2072
0.205915
0.206653
0.205967
0.206088
0.205733
0.205845
0.205998
0.2065
0.207096
0.207822
0.208498
0.208954
0.209194
0.209563
0.210284
0.211403
0.212938
0.214901
0.217299
0.22014
0.223427
0.227148
0.231288
0.235817
0.240693
0.245863
0.251261
0.256821
0.262462
0.268112
0.273683
0.279123
0.284322
0.289286
0.293829
0.298104
0.301704
0.30511
0.3074
0.309764
0.310024
0.311241
0.30792
0.308294
0.297752
0.299123
0.272324
0.281908
0.214914
0.257467
0.0806741
0.23547
-0.0559646
0.218757
0.191569
0.210349
0.2034
0.208163
0.205201
0.20721
0.205928
0.20668
0.205993
0.206121
0.205755
0.205855
0.205989
0.206483
0.20709
0.207846
0.20855
0.209019
0.209256
0.209616
0.210322
0.211425
0.212945
0.214891
0.217272
0.220096
0.223364
0.227067
0.231189
0.2357
0.240557
0.245708
0.251088
0.256629
0.262251
0.267882
0.273432
0.27885
0.284023
0.288961
0.293473
0.297714
0.301274
0.304639
0.306871
0.309185
0.309368
0.31053
0.307094
0.307413
0.296695
0.298027
0.270937
0.280528
0.213036
0.255656
0.0780089
0.232698
-0.0443797
0.21452
0.192077
0.210253
0.203406
0.20815
0.205206
0.207219
0.205939
0.206704
0.206016
0.206149
0.205774
0.205864
0.205982
0.206469
0.207084
0.207864
0.208589
0.209068
0.209304
0.209657
0.210352
0.211441
0.212946
0.214876
0.217242
0.22005
0.223301
0.226988
0.231094
0.235588
0.24043
0.245565
0.25093
0.256455
0.26206
0.267674
0.273205
0.278604
0.283753
0.288667
0.293149
0.297359
0.30088
0.304205
0.306382
0.308647
0.308753
0.30986
0.306313
0.306577
0.295683
0.296976
0.269594
0.279193
0.211194
0.253895
0.0754144
0.230131
-0.0336388
0.210273
0.192616
0.210129
0.203426
0.208134
0.20521
0.207225
0.205949
0.206724
0.206035
0.206174
0.205789
0.205873
0.205976
0.206458
0.20708
0.207877
0.208618
0.209104
0.209342
0.209692
0.210376
0.211453
0.212944
0.21486
0.217211
0.220004
0.22324
0.226913
0.231004
0.235484
0.240312
0.245434
0.250785
0.256297
0.261887
0.267487
0.273
0.27838
0.283508
0.288398
0.292852
0.297032
0.300516
0.303801
0.305926
0.308142
0.308174
0.309227
0.305571
0.305781
0.294715
0.29597
0.2683
0.277908
0.209409
0.252192
0.0729227
0.227757
-0.0237989
0.206088
0.193115
0.209986
0.203452
0.208114
0.205216
0.207231
0.205958
0.206742
0.206051
0.206195
0.205803
0.20588
0.205971
0.206449
0.207076
0.207886
0.208639
0.209132
0.209373
0.209721
0.210397
0.211462
0.21294
0.214842
0.217179
0.219958
0.223181
0.22684
0.230918
0.235386
0.240202
0.245312
0.250652
0.256152
0.26173
0.267316
0.272815
0.278178
0.283285
0.288153
0.292579
0.29673
0.300177
0.303425
0.305498
0.307667
0.307627
0.308628
0.304865
0.305022
0.293787
0.295006
0.267053
0.276672
0.207684
0.25055
0.0705466
0.225561
-0.01463
0.202027
0.193522
0.20984
0.203473
0.208096
0.205223
0.207235
0.205967
0.206758
0.206066
0.206214
0.205815
0.205886
0.205966
0.206441
0.207071
0.207892
0.208653
0.209152
0.209397
0.209746
0.210415
0.211469
0.212934
0.214823
0.217147
0.219913
0.223123
0.22677
0.230837
0.235294
0.2401
0.2452
0.250531
0.256021
0.261588
0.267162
0.272647
0.277994
0.283082
0.287929
0.292329
0.296451
0.299863
0.303073
0.305096
0.30722
0.30711
0.308059
0.304193
0.304298
0.292899
0.294083
0.265854
0.275483
0.206021
0.248967
0.068292
0.223526
-0.00597735
0.198132
0.193817
0.209691
0.203489
0.208079
0.205231
0.207238
0.205976
0.206772
0.20608
0.206231
0.205825
0.205892
0.205962
0.206434
0.207067
0.207896
0.208663
0.209167
0.209417
0.209767
0.21043
0.211474
0.212927
0.214804
0.217115
0.219869
0.223067
0.226703
0.23076
0.235208
0.240005
0.245098
0.25042
0.255902
0.26146
0.267024
0.272496
0.277828
0.282899
0.287724
0.292099
0.296193
0.299571
0.302745
0.30472
0.306798
0.306621
0.307519
0.303552
0.303607
0.292049
0.293197
0.264702
0.274338
0.204421
0.247441
0.0661607
0.221632
0.00221153
0.194423
0.193992
0.209521
0.203527
0.208064
0.205243
0.20724
0.205985
0.206786
0.206092
0.206247
0.205834
0.205896
0.205957
0.206427
0.207062
0.207897
0.208668
0.209177
0.209434
0.209786
0.210443
0.211478
0.21292
0.214785
0.217084
0.219827
0.223014
0.22664
0.230688
0.235128
0.239918
0.245004
0.25032
0.255796
0.261346
0.2669
0.27236
0.277679
0.282732
0.287538
0.291888
0.295955
0.299299
0.302438
0.304366
0.3064
0.306157
0.307006
0.302941
0.302947
0.291234
0.292347
0.263595
0.273235
0.202884
0.245967
0.0641516
0.21986
0.00996539
0.190915
0.194052
0.209327
0.203595
0.208049
0.205258
0.207243
0.205995
0.206798
0.206104
0.206261
0.205843
0.2059
0.205953
0.20642
0.207057
0.207897
0.20867
0.209183
0.209447
0.209803
0.210456
0.211481
0.212912
0.214766
0.217054
0.219786
0.222963
0.22658
0.23062
0.235054
0.239838
0.244919
0.25023
0.2557
0.261244
0.26679
0.27224
0.277546
0.282583
0.287369
0.291695
0.295735
0.299047
0.30215
0.304033
0.306024
0.305717
0.306517
0.302358
0.302314
0.290454
0.291529
0.262531
0.272169
0.201409
0.244541
0.062262
0.218195
0.0173194
0.187619
0.194005
0.209099
0.203695
0.208027
0.205279
0.207245
0.206006
0.20681
0.206116
0.206274
0.20585
0.205903
0.205948
0.206413
0.207052
0.207896
0.20867
0.209187
0.209459
0.209819
0.210467
0.211485
0.212905
0.214748
0.217025
0.219746
0.222915
0.226524
0.230557
0.234985
0.239765
0.244842
0.250149
0.255615
0.261154
0.266693
0.272133
0.277428
0.282448
0.287216
0.291519
0.295532
0.298812
0.301881
0.303719
0.305668
0.305298
0.306051
0.301801
0.301708
0.289705
0.290741
0.261509
0.271138
0.199995
0.24316
0.0604883
0.216622
0.0243086
0.184539
0.193859
0.208831
0.203828
0.207989
0.205305
0.20725
0.206018
0.206822
0.206128
0.206286
0.205857
0.205906
0.205943
0.206405
0.207047
0.207894
0.208669
0.209189
0.209469
0.209833
0.210479
0.211488
0.212899
0.214731
0.216998
0.219709
0.222869
0.226471
0.230498
0.234922
0.239698
0.244773
0.250078
0.255541
0.261075
0.266608
0.27204
0.277323
0.282328
0.287077
0.291358
0.295345
0.298592
0.301627
0.303422
0.305329
0.304899
0.305604
0.301267
0.301124
0.288985
0.289981
0.260526
0.270139
0.19864
0.24182
0.0588263
0.215128
0.0309607
0.181677
0.193625
0.208521
0.203975
0.207949
0.205335
0.207257
0.206033
0.206834
0.206141
0.206298
0.205865
0.205908
0.205939
0.206398
0.207041
0.207892
0.208667
0.209191
0.209478
0.209848
0.21049
0.211492
0.212894
0.214715
0.216972
0.219674
0.222826
0.226421
0.230444
0.234864
0.239639
0.244712
0.250015
0.255476
0.261007
0.266535
0.271959
0.277231
0.282222
0.286953
0.29121
0.295171
0.298388
0.301389
0.303142
0.305007
0.304519
0.305176
0.300754
0.300562
0.288293
0.289244
0.25958
0.269169
0.197342
0.240517
0.0572719
0.213702
0.0372975
0.179033
0.193317
0.208166
0.204123
0.207917
0.205363
0.207267
0.206051
0.206848
0.206155
0.20631
0.205872
0.205911
0.205934
0.206391
0.207035
0.207889
0.208664
0.209192
0.209487
0.209862
0.210502
0.211498
0.212889
0.214701
0.216948
0.219642
0.222786
0.226376
0.230394
0.234812
0.239586
0.244659
0.249962
0.255422
0.26095
0.266474
0.27189
0.277151
0.282128
0.286841
0.291076
0.295011
0.298197
0.301164
0.302876
0.3047
0.304155
0.304765
0.300262
0.300019
0.287627
0.288531
0.25867
0.268225
0.196099
0.239248
0.0558207
0.212332
0.0433375
0.176602
0.192946
0.207769
0.204263
0.207891
0.205392
0.207282
0.206073
0.206862
0.20617
0.206323
0.20588
0.205914
0.20593
0.206385
0.207029
0.207886
0.208661
0.209193
0.209497
0.209877
0.210516
0.211504
0.212887
0.214689
0.216927
0.219613
0.22275
0.226334
0.23035
0.234766
0.239539
0.244613
0.249916
0.255376
0.260903
0.266423
0.271832
0.277083
0.282046
0.286741
0.290955
0.294864
0.29802
0.300952
0.302623
0.304406
0.303806
0.304369
0.299788
0.299493
0.286984
0.287837
0.257794
0.267305
0.194909
0.238009
0.0544686
0.21101
0.0490972
0.174379
0.192525
0.207335
0.204389
0.207872
0.205423
0.207302
0.2061
0.20688
0.206188
0.206337
0.20589
0.205917
0.205927
0.206378
0.207023
0.207883
0.20866
0.209195
0.209508
0.209893
0.21053
0.211513
0.212887
0.214679
0.216908
0.219586
0.222717
0.226297
0.23031
0.234726
0.239499
0.244574
0.249879
0.25534
0.260865
0.266382
0.271785
0.277026
0.281975
0.286653
0.290845
0.294728
0.297854
0.300752
0.302383
0.304126
0.303472
0.303987
0.299332
0.298984
0.286364
0.287163
0.256949
0.266407
0.19377
0.236799
0.0532116
0.209728
0.0545916
0.172357
0.192067
0.206869
0.204497
0.20786
0.205466
0.207321
0.206133
0.2069
0.206209
0.206353
0.205901
0.205922
0.205924
0.206372
0.207018
0.207881
0.208659
0.209199
0.20952
0.209911
0.210547
0.211523
0.212889
0.214672
0.216893
0.219563
0.222688
0.226264
0.230275
0.234691
0.239466
0.244543
0.24985
0.255312
0.260838
0.266352
0.271749
0.276981
0.281916
0.286576
0.290746
0.294603
0.297699
0.300564
0.302155
0.303857
0.303151
0.303618
0.298891
0.29849
0.285765
0.286506
0.256135
0.265528
0.192682
0.235615
0.0520458
0.208478
0.0598342
0.170528
0.191582
0.206376
0.204583
0.207848
0.205527
0.207335
0.206172
0.206924
0.206233
0.20637
0.205913
0.205928
0.205924
0.206367
0.207013
0.207879
0.208659
0.209205
0.209535
0.209931
0.210565
0.211536
0.212893
0.214668
0.21688
0.219543
0.222663
0.226236
0.230246
0.234662
0.23944
0.24452
0.24983
0.255294
0.26082
0.266332
0.271723
0.276946
0.281867
0.28651
0.290658
0.294489
0.297555
0.300386
0.301939
0.303599
0.302842
0.303262
0.298465
0.298009
0.285186
0.285864
0.255351
0.264668
0.191641
0.234453
0.0509676
0.207254
0.0648377
0.168885
0.191083
0.205863
0.204644
0.207835
0.205606
0.207347
0.206215
0.206954
0.206262
0.206391
0.205929
0.205936
0.205924
0.206363
0.207009
0.207878
0.208662
0.209214
0.209552
0.209954
0.210587
0.211552
0.212901
0.214668
0.216872
0.219528
0.222642
0.226213
0.230222
0.23464
0.23942
0.244504
0.249818
0.255285
0.260811
0.266321
0.271707
0.276921
0.281829
0.286454
0.29058
0.294385
0.297421
0.300218
0.301732
0.303351
0.302545
0.302916
0.298054
0.297541
0.284626
0.285237
0.254594
0.263824
0.190647
0.233312
0.0499735
0.206049
0.0696134
0.167417
0.190577
0.205337
0.204679
0.207818
0.205698
0.207359
0.206264
0.206989
0.206297
0.206416
0.205948
0.205947
0.205928
0.206361
0.207006
0.207877
0.208665
0.209225
0.209572
0.20998
0.210612
0.211571
0.212913
0.214671
0.216867
0.219516
0.222627
0.226195
0.230204
0.234624
0.239408
0.244496
0.249814
0.255285
0.260813
0.266321
0.271702
0.276906
0.281801
0.286408
0.290513
0.294291
0.297297
0.300059
0.301536
0.303113
0.302259
0.302581
0.297656
0.297085
0.284084
0.284624
0.253865
0.262996
0.189698
0.23219
0.0490604
0.204859
0.0741727
0.166116
0.190072
0.204804
0.204687
0.207794
0.205802
0.207378
0.206313
0.20703
0.206338
0.206445
0.205972
0.205961
0.205934
0.206361
0.207004
0.207879
0.208671
0.209239
0.209597
0.210009
0.21064
0.211594
0.212928
0.214678
0.216867
0.21951
0.222616
0.226182
0.230192
0.234615
0.239403
0.244497
0.24982
0.255294
0.260823
0.26633
0.271706
0.276901
0.281783
0.286372
0.290454
0.294206
0.297182
0.29991
0.301349
0.302885
0.301984
0.302256
0.297271
0.29664
0.28356
0.284023
0.253162
0.262182
0.188793
0.231085
0.0482252
0.203679
0.0785258
0.164972
0.189577
0.20427
0.204671
0.207763
0.205914
0.207406
0.206365
0.207074
0.206386
0.20648
0.206
0.205979
0.205944
0.206364
0.207005
0.207881
0.20868
0.209256
0.209625
0.210043
0.210673
0.211622
0.212949
0.21469
0.216871
0.219509
0.222611
0.226176
0.230187
0.234613
0.239406
0.244505
0.249833
0.255312
0.260843
0.266349
0.271721
0.276907
0.281775
0.286345
0.290406
0.294131
0.297077
0.299769
0.301171
0.302665
0.301718
0.30194
0.296898
0.296205
0.283052
0.283434
0.252484
0.261381
0.187932
0.229996
0.0474651
0.202504
0.0826828
0.163975
0.189096
0.203739
0.204632
0.207723
0.206033
0.207441
0.206423
0.207121
0.206441
0.206521
0.206035
0.206002
0.205958
0.206371
0.207008
0.207886
0.20869
0.209277
0.209657
0.210081
0.210711
0.211655
0.212974
0.214707
0.216881
0.219513
0.222612
0.226176
0.230189
0.234618
0.239417
0.244522
0.249856
0.255339
0.260873
0.266378
0.271745
0.276922
0.281776
0.286328
0.290367
0.294064
0.29698
0.299637
0.301003
0.302454
0.301463
0.301634
0.296537
0.295781
0.28256
0.282856
0.25183
0.260592
0.187112
0.22892
0.0467774
0.201332
0.0866534
0.163117
0.188634
0.203218
0.204573
0.207674
0.206155
0.207485
0.206491
0.20717
0.206504
0.20657
0.206077
0.206031
0.205978
0.206382
0.207015
0.207894
0.208703
0.209302
0.209694
0.210125
0.210754
0.211693
0.213004
0.21473
0.216897
0.219523
0.222619
0.226183
0.230197
0.234631
0.239435
0.244547
0.249888
0.255376
0.260913
0.266417
0.271779
0.276947
0.281788
0.286321
0.290336
0.294006
0.296892
0.299514
0.300843
0.302251
0.301216
0.301335
0.296187
0.295365
0.282084
0.282289
0.251201
0.259815
0.186333
0.227858
0.0461597
0.200157
0.0904469
0.162388
0.188194
0.202711
0.204498
0.207619
0.20628
0.207536
0.20657
0.207221
0.206571
0.206625
0.206126
0.206068
0.206005
0.206398
0.207026
0.207904
0.20872
0.209331
0.209736
0.210173
0.210802
0.211737
0.213041
0.214759
0.216919
0.21954
0.222633
0.226196
0.230214
0.234652
0.239463
0.244582
0.24993
0.255423
0.260963
0.266466
0.271823
0.276982
0.281808
0.286323
0.290315
0.293957
0.296813
0.299399
0.300691
0.302056
0.300979
0.301046
0.295848
0.294959
0.281623
0.281732
0.250595
0.259049
0.185595
0.226806
0.0456096
0.198979
0.094072
0.161778
0.18778
0.20222
0.20441
0.207557
0.206404
0.207595
0.206662
0.207277
0.206644
0.206688
0.206185
0.206112
0.206039
0.206421
0.207042
0.207918
0.20874
0.209363
0.209783
0.210228
0.210857
0.211787
0.213085
0.214795
0.216948
0.219564
0.222654
0.226218
0.230238
0.234682
0.239499
0.244626
0.249981
0.25548
0.261022
0.266526
0.271878
0.277026
0.281839
0.286334
0.290303
0.293916
0.296742
0.299291
0.300548
0.301869
0.300751
0.300764
0.29552
0.294562
0.281176
0.281184
0.250012
0.258293
0.184895
0.225764
0.0451249
0.197793
0.0975374
0.16128
0.187394
0.20175
0.204313
0.207492
0.206527
0.20766
0.206766
0.207338
0.206721
0.206758
0.206252
0.206165
0.206082
0.206451
0.207064
0.207937
0.208763
0.2094
0.209834
0.210288
0.210919
0.211844
0.213135
0.214838
0.216984
0.219595
0.222683
0.226248
0.230271
0.23472
0.239545
0.244679
0.250042
0.255547
0.261092
0.266595
0.271942
0.277081
0.281879
0.286354
0.2903
0.293884
0.29668
0.299192
0.300413
0.30169
0.300532
0.300491
0.295203
0.294173
0.280744
0.280646
0.249451
0.257546
0.184234
0.224732
0.0447036
0.196597
0.100851
0.160886
0.187036
0.201302
0.204209
0.207424
0.206648
0.207732
0.206882
0.207408
0.206804
0.206834
0.206328
0.206228
0.206134
0.206491
0.207094
0.207961
0.208791
0.209441
0.209891
0.210354
0.210987
0.211909
0.213193
0.214889
0.217029
0.219635
0.222721
0.226286
0.230313
0.234768
0.2396
0.244743
0.250113
0.255624
0.261173
0.266675
0.272017
0.277146
0.281929
0.286384
0.290306
0.293861
0.296626
0.299101
0.300286
0.301519
0.300321
0.300225
0.294896
0.293793
0.280327
0.280117
0.248913
0.25681
0.183611
0.223708
0.0443438
0.19539
0.104021
0.160586
0.186708
0.200879
0.204104
0.207358
0.206767
0.207809
0.20701
0.207488
0.206894
0.206915
0.206413
0.206301
0.206197
0.206539
0.207132
0.207992
0.208825
0.209487
0.209953
0.210427
0.211062
0.211982
0.21326
0.214948
0.217081
0.219683
0.222767
0.226333
0.230364
0.234825
0.239665
0.244816
0.250195
0.255712
0.261264
0.266765
0.272103
0.277221
0.281989
0.286423
0.290321
0.293847
0.29658
0.299018
0.300168
0.301355
0.300119
0.299968
0.2946
0.293421
0.279923
0.279596
0.248396
0.256082
0.183025
0.222692
0.0440438
0.19417
0.107054
0.160375
0.18641
0.200481
0.203998
0.207294
0.206885
0.207891
0.207149
0.207579
0.206994
0.207002
0.206507
0.206384
0.206271
0.206599
0.20718
0.208031
0.208864
0.209537
0.210019
0.210505
0.211145
0.212062
0.213335
0.215017
0.217143
0.219741
0.222823
0.22639
0.230425
0.234893
0.239741
0.244901
0.250287
0.255811
0.261366
0.266867
0.272199
0.277306
0.282059
0.286472
0.290346
0.29384
0.296543
0.298943
0.300058
0.301199
0.299926
0.299718
0.294313
0.293057
0.279534
0.279085
0.247901
0.255363
0.182476
0.221683
0.0438018
0.192934
0.109958
0.160244
0.186142
0.200109
0.203895
0.207235
0.207003
0.207979
0.207298
0.207682
0.207105
0.207097
0.206608
0.206477
0.206357
0.20667
0.207238
0.208079
0.208911
0.209593
0.210091
0.21059
0.211235
0.212152
0.213419
0.215094
0.217215
0.219808
0.222889
0.226458
0.230496
0.234971
0.239827
0.244996
0.250391
0.255921
0.261479
0.266979
0.272305
0.277401
0.282138
0.28653
0.290379
0.293843
0.296515
0.298876
0.299956
0.301051
0.299742
0.299476
0.294037
0.292702
0.279158
0.278582
0.247427
0.254653
0.181962
0.220679
0.0436163
0.191681
0.11274
0.160188
0.185904
0.199764
0.203798
0.207182
0.207122
0.208074
0.207457
0.207797
0.207228
0.207199
0.206719
0.206581
0.206455
0.206754
0.207308
0.208137
0.208965
0.209655
0.210169
0.210681
0.211333
0.212249
0.213512
0.215181
0.217296
0.219886
0.222965
0.226535
0.230579
0.23506
0.239925
0.245103
0.250506
0.256042
0.261604
0.267102
0.272423
0.277507
0.282228
0.286597
0.290421
0.293854
0.296495
0.298817
0.299862
0.300911
0.299566
0.299242
0.293772
0.292354
0.278796
0.278088
0.246974
0.253951
0.181484
0.219682
0.0434858
0.19041
0.115404
0.160199
0.185696
0.199447
0.203708
0.207138
0.207244
0.208176
0.207625
0.207925
0.207365
0.207312
0.206838
0.206695
0.206566
0.206851
0.207391
0.208205
0.209028
0.209724
0.210253
0.210779
0.211439
0.212356
0.213616
0.215279
0.217388
0.219974
0.223053
0.226625
0.230673
0.235161
0.240035
0.245222
0.250633
0.256176
0.26174
0.267237
0.272551
0.277624
0.282328
0.286675
0.290473
0.293875
0.296483
0.298767
0.299777
0.300779
0.299399
0.299016
0.293517
0.292016
0.278448
0.277603
0.246543
0.253258
0.181042
0.21869
0.0434089
0.18912
0.117958
0.160274
0.185516
0.199157
0.203626
0.207103
0.207369
0.208286
0.207801
0.208066
0.207516
0.207437
0.206967
0.206819
0.206688
0.206962
0.207487
0.208286
0.209101
0.209801
0.210344
0.210884
0.211552
0.212471
0.213729
0.215387
0.217491
0.220074
0.223152
0.226726
0.230778
0.235274
0.240157
0.245353
0.250772
0.256321
0.261889
0.267383
0.272691
0.277751
0.282438
0.286762
0.290534
0.293904
0.29648
0.298725
0.2997
0.300655
0.299241
0.298798
0.293272
0.291685
0.278114
0.277126
0.246132
0.252573
0.180634
0.217702
0.0433844
0.18781
0.120407
0.160405
0.185365
0.198893
0.203555
0.207079
0.207499
0.208406
0.207986
0.20822
0.207683
0.207576
0.207109
0.206954
0.206824
0.207086
0.207598
0.20838
0.209185
0.209887
0.210441
0.210995
0.211673
0.212596
0.213852
0.215506
0.217606
0.220186
0.223263
0.226839
0.230896
0.2354
0.240291
0.245496
0.250924
0.256478
0.262049
0.267541
0.272842
0.277889
0.282558
0.286859
0.290605
0.293942
0.296487
0.298691
0.299632
0.30054
0.299093
0.298589
0.293038
0.291364
0.277794
0.276658
0.245742
0.251897
0.18026
0.21672
0.043411
0.186479
0.122757
0.160588
0.185242
0.198656
0.203494
0.207067
0.207635
0.208538
0.208181
0.208386
0.207865
0.20773
0.207263
0.2071
0.206972
0.207224
0.207723
0.208487
0.209281
0.209982
0.210547
0.211114
0.211802
0.21273
0.213985
0.215636
0.217732
0.22031
0.223386
0.226965
0.231027
0.235538
0.240438
0.245653
0.251089
0.256649
0.262221
0.267711
0.273004
0.278038
0.282689
0.286965
0.290685
0.293989
0.296502
0.298666
0.299573
0.300432
0.298953
0.298388
0.292814
0.291051
0.277487
0.2762
0.245373
0.251229
0.17992
0.215741
0.0434877
0.185126
0.125011
0.160818
0.185145
0.198444
0.203445
0.207066
0.207778
0.208682
0.208385
0.208566
0.208063
0.207901
0.207433
0.20726
0.207133
0.207376
0.207863
0.208609
0.20939
0.210088
0.210662
0.211241
0.21194
0.212873
0.214129
0.215778
0.217871
0.220446
0.223523
0.227104
0.231172
0.23569
0.240598
0.245822
0.251266
0.256832
0.262406
0.267893
0.273178
0.278198
0.282831
0.287082
0.290775
0.294046
0.296526
0.298649
0.299523
0.300333
0.298823
0.298196
0.292601
0.290747
0.277195
0.27575
0.245024
0.25057
0.179613
0.214767
0.0436132
0.183751
0.127175
0.161091
0.185075
0.198258
0.203408
0.207078
0.207928
0.208838
0.208602
0.208759
0.208277
0.20809
0.20762
0.207435
0.207307
0.207543
0.208018
0.208747
0.209513
0.210206
0.210787
0.211377
0.212086
0.213026
0.214284
0.215931
0.218022
0.220596
0.223673
0.227256
0.23133
0.235855
0.240773
0.246005
0.251457
0.257028
0.262603
0.268087
0.273363
0.278369
0.282983
0.287209
0.290874
0.294111
0.296559
0.298642
0.299482
0.300243
0.298703
0.298012
0.2924
0.290452
0.276916
0.27531
0.244696
0.24992
0.17934
0.213796
0.0437867
0.182352
0.129253
0.161403
0.18503
0.198097
0.203383
0.207103
0.208086
0.209008
0.20883
0.208967
0.208506
0.208297
0.207825
0.207626
0.207497
0.207724
0.208189
0.2089
0.209651
0.210338
0.210922
0.211522
0.212242
0.213189
0.21445
0.216097
0.218186
0.220759
0.223837
0.227423
0.231502
0.236035
0.240961
0.246202
0.251661
0.257237
0.262814
0.268294
0.273561
0.278551
0.283145
0.287346
0.290983
0.294186
0.296601
0.298643
0.299449
0.300162
0.298592
0.297838
0.292209
0.290167
0.276652
0.27488
0.244389
0.249278
0.1791
0.21283
0.0440071
0.180931
0.131249
0.16175
0.18501
0.19796
0.203372
0.207141
0.208253
0.209191
0.209072
0.209191
0.208751
0.208522
0.208049
0.207834
0.207703
0.207921
0.208375
0.209069
0.209804
0.210483
0.21107
0.211678
0.212408
0.213362
0.214627
0.216274
0.218364
0.220936
0.224015
0.227604
0.231689
0.236229
0.241163
0.246413
0.25188
0.25746
0.263037
0.268512
0.27377
0.278745
0.283319
0.287494
0.291102
0.294271
0.296653
0.298654
0.299427
0.30009
0.298491
0.297673
0.29203
0.289891
0.276403
0.274459
0.244103
0.248646
0.178892
0.211867
0.0442736
0.179485
0.133167
0.162128
0.185015
0.197847
0.203373
0.207191
0.208427
0.209388
0.209326
0.209432
0.209012
0.208766
0.208294
0.208063
0.207927
0.208135
0.208578
0.209254
0.209974
0.210643
0.211231
0.211846
0.212584
0.213546
0.214815
0.216465
0.218554
0.221127
0.224207
0.227801
0.23189
0.236438
0.241381
0.246639
0.252112
0.257696
0.263273
0.268744
0.273991
0.27895
0.283503
0.287651
0.291231
0.294365
0.296715
0.298674
0.299414
0.300028
0.2984
0.297518
0.291862
0.289625
0.276168
0.274049
0.243837
0.248023
0.178717
0.210908
0.0445853
0.178016
0.13501
0.162535
0.185042
0.197756
0.203387
0.207254
0.208611
0.209597
0.209594
0.209691
0.20929
0.20903
0.20856
0.208313
0.20817
0.208366
0.208798
0.209457
0.210161
0.210819
0.211406
0.212026
0.212772
0.213742
0.215016
0.216668
0.218759
0.221333
0.224415
0.228012
0.232107
0.236662
0.241613
0.246879
0.252358
0.257946
0.263523
0.268987
0.274224
0.279166
0.283698
0.287819
0.29137
0.294469
0.296786
0.298703
0.29941
0.299975
0.29832
0.297372
0.291706
0.28937
0.275947
0.273649
0.243592
0.247409
0.178574
0.209953
0.0449415
0.176523
0.136782
0.162966
0.185092
0.197688
0.203414
0.20733
0.208803
0.20982
0.209875
0.209967
0.209586
0.209313
0.208847
0.208585
0.208435
0.208617
0.209037
0.209678
0.210365
0.211013
0.211597
0.21222
0.212973
0.21395
0.215229
0.216884
0.218978
0.221553
0.224638
0.228239
0.23234
0.236902
0.241861
0.247134
0.252619
0.258209
0.263785
0.269244
0.274469
0.279394
0.283904
0.287998
0.291519
0.294583
0.296866
0.298742
0.299417
0.299931
0.29825
0.297237
0.291562
0.289125
0.275742
0.273259
0.243368
0.246805
0.178463
0.209002
0.0453414
0.175006
0.138487
0.163419
0.185163
0.197643
0.203454
0.207418
0.209003
0.210054
0.210169
0.210262
0.209901
0.209616
0.209155
0.20888
0.208722
0.208888
0.209294
0.209918
0.210589
0.211224
0.211804
0.21243
0.213188
0.214171
0.215456
0.217115
0.219211
0.221789
0.224877
0.228482
0.232589
0.237157
0.242124
0.247404
0.252895
0.258487
0.264061
0.269513
0.274726
0.279633
0.284121
0.288187
0.291679
0.294707
0.296957
0.298791
0.299433
0.299898
0.298191
0.297112
0.291431
0.288891
0.275552
0.272881
0.243165
0.246211
0.178384
0.208054
0.0457843
0.173464
0.140126
0.163892
0.185256
0.197618
0.203508
0.207518
0.209212
0.210301
0.210475
0.210574
0.210234
0.20994
0.209485
0.209199
0.209033
0.209182
0.209572
0.210177
0.210831
0.211455
0.21203
0.212656
0.213419
0.214407
0.215697
0.21736
0.21946
0.222041
0.225132
0.228742
0.232854
0.237429
0.242403
0.247689
0.253185
0.258779
0.26435
0.269795
0.274995
0.279883
0.284349
0.288386
0.291848
0.29484
0.297058
0.29885
0.29946
0.299875
0.298143
0.296998
0.291312
0.288668
0.275377
0.272514
0.242983
0.245628
0.178336
0.207111
0.0462695
0.171899
0.141703
0.164382
0.185368
0.197614
0.203575
0.207631
0.209429
0.210559
0.210792
0.210902
0.210587
0.210286
0.209837
0.209542
0.209368
0.2095
0.209873
0.210457
0.211094
0.211705
0.212275
0.2129
0.213665
0.214659
0.215954
0.217621
0.219725
0.222309
0.225404
0.229018
0.233136
0.237718
0.242698
0.24799
0.25349
0.259084
0.264653
0.270089
0.275276
0.280145
0.284587
0.288596
0.292028
0.294984
0.297168
0.298919
0.299498
0.299862
0.298107
0.296894
0.291205
0.288456
0.275217
0.272159
0.242822
0.245055
0.178319
0.206173
0.0467966
0.17031
0.143221
0.164887
0.1855
0.197631
0.203655
0.207755
0.209654
0.210827
0.21112
0.211247
0.210958
0.210654
0.210212
0.209909
0.209728
0.209842
0.210197
0.21076
0.211379
0.211977
0.212541
0.213163
0.213931
0.214928
0.216227
0.217899
0.220006
0.222595
0.225693
0.229312
0.233435
0.238023
0.243009
0.248306
0.253809
0.259404
0.264969
0.270396
0.275569
0.280418
0.284837
0.288816
0.292218
0.295138
0.297289
0.298998
0.299546
0.29986
0.298082
0.296802
0.291112
0.288256
0.275073
0.271816
0.242682
0.244494
0.178334
0.205239
0.0473648
0.168698
0.144682
0.165405
0.185651
0.197668
0.203748
0.207892
0.209888
0.211106
0.211458
0.211605
0.211347
0.211045
0.21061
0.2103
0.210114
0.210211
0.210546
0.211086
0.211687
0.212271
0.212828
0.213448
0.214215
0.215215
0.216518
0.218194
0.220306
0.222898
0.226001
0.229624
0.233752
0.238345
0.243337
0.248639
0.254144
0.259738
0.265298
0.270715
0.275873
0.280703
0.285097
0.289047
0.292418
0.295302
0.297421
0.299088
0.299605
0.299869
0.298068
0.296722
0.291032
0.288069
0.274946
0.271485
0.242563
0.243943
0.17838
0.20431
0.0479737
0.167062
0.146088
0.165934
0.185819
0.197724
0.203854
0.20804
0.21013
0.211395
0.211806
0.211978
0.211751
0.211456
0.211031
0.210716
0.210526
0.210606
0.210921
0.211438
0.212019
0.21259
0.213139
0.213755
0.214522
0.215523
0.216829
0.218509
0.220624
0.22322
0.226327
0.229955
0.234088
0.238686
0.243682
0.248987
0.254494
0.260086
0.26564
0.271046
0.27619
0.280998
0.285367
0.289288
0.292628
0.295477
0.297563
0.299188
0.299675
0.29989
0.298067
0.296653
0.290965
0.287894
0.274834
0.271167
0.242465
0.243405
0.178456
0.203386
0.0486228
0.165404
0.147441
0.166472
0.186005
0.197798
0.203974
0.208201
0.210381
0.211693
0.212164
0.212363
0.21217
0.211887
0.211475
0.211157
0.210963
0.211028
0.211323
0.211816
0.212377
0.212933
0.213474
0.214085
0.214851
0.215852
0.217161
0.218844
0.220962
0.223562
0.226673
0.230304
0.234442
0.239044
0.244044
0.249352
0.254859
0.260448
0.265995
0.27139
0.276517
0.281304
0.285649
0.28954
0.292849
0.295662
0.297715
0.299299
0.299756
0.299922
0.298078
0.296597
0.290912
0.287732
0.274739
0.270862
0.242389
0.242879
0.178563
0.202468
0.0493115
0.163723
0.148745
0.167017
0.186207
0.197891
0.204106
0.208373
0.21064
0.212001
0.21253
0.212759
0.212603
0.212336
0.211941
0.211623
0.211427
0.211477
0.211753
0.212222
0.212762
0.213302
0.213835
0.214441
0.215204
0.216206
0.217515
0.219201
0.221322
0.223925
0.22704
0.230675
0.234815
0.239421
0.244423
0.249732
0.255239
0.260824
0.266364
0.271746
0.276856
0.281621
0.285941
0.289801
0.29308
0.295857
0.297878
0.299421
0.299849
0.299965
0.298102
0.296553
0.290874
0.287583
0.27466
0.270571
0.242335
0.242365
0.178701
0.201556
0.0500396
0.16202
0.15
0.167569
0.186424
0.198001
0.204252
0.208557
0.210907
0.212318
0.212904
0.213166
0.213048
0.212802
0.212427
0.212114
0.211916
0.211953
0.212211
0.212656
0.213175
0.2137
0.214224
0.214824
0.215584
0.216584
0.217894
0.219581
0.221705
0.224311
0.227428
0.231066
0.235209
0.239817
0.244821
0.25013
0.255634
0.261214
0.266745
0.272114
0.277206
0.281949
0.286243
0.290073
0.293322
0.296063
0.298052
0.299555
0.299953
0.300021
0.298138
0.296522
0.290849
0.287447
0.274598
0.270293
0.242302
0.241865
0.17887
0.20065
0.0508066
0.160297
0.151208
0.168125
0.186657
0.198129
0.20441
0.208753
0.211183
0.212644
0.213287
0.213583
0.213504
0.213282
0.212931
0.212627
0.212431
0.212456
0.212697
0.213119
0.213617
0.214127
0.214641
0.215235
0.215991
0.216989
0.218299
0.219987