/*--------------------------------*- C++ -*----------------------------------*\
| =========                 |                                                 |
| \\      /  F ield         | OpenFOAM: The Open Source CFD Toolbox           |
|  \\    /   O peration     | Version:  2.4.0                                 |
|   \\  /    A nd           | Web:      www.OpenFOAM.org                      |
|    \\/     M anipulation  |                                                 |
\*---------------------------------------------------------------------------*/
FoamFile
{
    version     2.0;
    format      ascii;
    class       volScalarField;
    location    "3.16";
    object      p;
}
// * * * * * * * * * * * * * * * * * * * * * * * * * * * * * * * * * * * * * //

dimensions      [0 2 -2 0 0 0 0];

internalField   nonuniform List<scalar> 
6000
(
0.0405199
0.269678
0.266626
0.289966
0.295418
0.303112
0.306162
0.309791
0.311742
0.313837
0.315237
0.31663
0.317711
0.31878
0.319772
0.320851
0.322014
0.323296
0.324616
0.325888
0.326991
0.327823
0.328313
0.328482
0.328471
0.328529
0.328964
0.330099
0.332241
0.335674
0.340657
0.34742
0.356155
0.36699
0.379961
0.394917
0.411457
0.428847
0.446063
0.46187
0.474741
0.48354
0.487678
0.486944
0.4816
0.472328
0.459952
0.445391
0.429173
0.412054
0.393638
0.375038
0.353463
0.333338
0.303746
0.283401
0.231295
0.220721
0.101408
0.14146
0.0555392
0.267893
0.266669
0.289818
0.295335
0.303025
0.306106
0.309738
0.311703
0.313802
0.315211
0.316609
0.317696
0.318768
0.31976
0.320837
0.321997
0.323275
0.324595
0.325874
0.32699
0.327836
0.328341
0.328525
0.328524
0.328586
0.32902
0.33015
0.332286
0.335713
0.34069
0.347449
0.356182
0.36702
0.379983
0.394929
0.411454
0.428817
0.445991
0.461739
0.474596
0.483399
0.487518
0.486752
0.481374
0.472068
0.45966
0.445058
0.428853
0.411733
0.393314
0.374682
0.353093
0.33287
0.303289
0.282702
0.230729
0.219563
0.100743
0.139376
0.0693839
0.265817
0.266766
0.2897
0.295263
0.302958
0.306056
0.309696
0.31167
0.313774
0.315188
0.31659
0.317682
0.318756
0.319748
0.320822
0.321979
0.323255
0.324578
0.325863
0.326991
0.327854
0.328378
0.328577
0.328585
0.328648
0.329077
0.330198
0.332323
0.335738
0.340703
0.34745
0.356172
0.366997
0.379948
0.394876
0.411377
0.428701
0.445818
0.46148
0.474324
0.483155
0.487284
0.486507
0.481109
0.471783
0.459363
0.444766
0.428544
0.411417
0.39299
0.374338
0.352729
0.332447
0.302836
0.282097
0.230132
0.218539
0.0999497
0.137523
0.0808526
0.263639
0.266905
0.289609
0.295209
0.302903
0.306014
0.30966
0.31164
0.313749
0.315168
0.316574
0.317669
0.318744
0.319736
0.320807
0.32196
0.323234
0.32456
0.325853
0.326995
0.327878
0.32842
0.328633
0.328647
0.328707
0.329126
0.330232
0.332339
0.335735
0.340681
0.347409
0.356108
0.366909
0.379834
0.39473
0.41119
0.428462
0.445516
0.461084
0.473903
0.482764
0.486938
0.486181
0.480785
0.471456
0.459032
0.444435
0.428215
0.411089
0.392661
0.373997
0.352371
0.332041
0.302398
0.281531
0.229555
0.217609
0.0991675
0.135973
0.0908401
0.261467
0.267067
0.289542
0.295172
0.302857
0.305979
0.309627
0.311614
0.313726
0.315149
0.316559
0.317656
0.318733
0.319723
0.32079
0.321939
0.323212
0.324541
0.325845
0.327004
0.327907
0.32847
0.328697
0.328713
0.328765
0.329168
0.330253
0.332336
0.335706
0.340624
0.34732
0.355984
0.366744
0.379624
0.394468
0.41087
0.428084
0.445084
0.460577
0.473341
0.482203
0.486422
0.485707
0.480341
0.471031
0.458623
0.444039
0.427837
0.410725
0.392306
0.373639
0.352003
0.331633
0.301963
0.280974
0.22899
0.216716
0.0984066
0.134617
0.0999105
0.259367
0.267236
0.289498
0.295149
0.302819
0.30595
0.309598
0.31159
0.313705
0.315132
0.316545
0.317645
0.318721
0.319709
0.320771
0.321916
0.323187
0.32452
0.325837
0.327017
0.327945
0.32853
0.328769
0.328785
0.328824
0.329206
0.330264
0.332317
0.335653
0.340532
0.347183
0.355797
0.366501
0.379317
0.394095
0.410434
0.427596
0.444565
0.460016
0.472697
0.481513
0.485746
0.485065
0.479739
0.470469
0.4581
0.443553
0.427387
0.410306
0.391912
0.373254
0.351618
0.331215
0.301522
0.280419
0.228425
0.215842
0.0976576
0.133394
0.108235
0.257381
0.267408
0.289473
0.295141
0.302788
0.305926
0.309574
0.31157
0.313686
0.315116
0.316532
0.317634
0.318709
0.319694
0.32075
0.321889
0.323159
0.324499
0.325831
0.327035
0.327992
0.3286
0.328849
0.32886
0.328883
0.329238
0.330265
0.332282
0.335576
0.340408
0.347005
0.355557
0.366192
0.378937
0.393646
0.409927
0.427055
0.444014
0.459443
0.472029
0.480769
0.484972
0.484295
0.478997
0.469771
0.457453
0.442963
0.426854
0.409823
0.39147
0.372837
0.351213
0.330786
0.301075
0.279866
0.227856
0.214984
0.0969162
0.132283
0.1159
0.25553
0.267582
0.289451
0.295157
0.302765
0.305909
0.309553
0.311552
0.313669
0.315102
0.31652
0.317623
0.318698
0.319677
0.320727
0.32186
0.323129
0.324476
0.325828
0.32706
0.328047
0.328677
0.328934
0.328937
0.328938
0.329264
0.330255
0.33223
0.335478
0.340255
0.346792
0.355276
0.36584
0.378514
0.39316
0.409396
0.426505
0.443462
0.458872
0.471367
0.480023
0.484165
0.483458
0.478161
0.468965
0.456699
0.442273
0.426235
0.409274
0.390979
0.372387
0.350786
0.330349
0.300621
0.279317
0.227285
0.214145
0.0961801
0.131274
0.123005
0.253828
0.267755
0.289436
0.295185
0.302751
0.305899
0.309536
0.311537
0.313654
0.31509
0.316509
0.317614
0.318686
0.319661
0.320703
0.321828
0.323096
0.324454
0.325828
0.327091
0.328108
0.328759
0.329021
0.329011
0.328986
0.329278
0.330231
0.332162
0.335359
0.34008
0.346553
0.354971
0.365465
0.378074
0.392665
0.408865
0.425962
0.442916
0.458304
0.470722
0.479297
0.483364
0.482602
0.47728
0.468092
0.455865
0.441502
0.425541
0.408661
0.39044
0.371905
0.350341
0.329905
0.300165
0.278775
0.22671
0.213325
0.0954465
0.130354
0.129648
0.252279
0.267925
0.289426
0.295224
0.302745
0.305895
0.309523
0.311526
0.313642
0.31508
0.3165
0.317606
0.318676
0.319643
0.320676
0.321795
0.323063
0.324432
0.325831
0.327127
0.328175
0.328845
0.329107
0.32908
0.329026
0.329282
0.330192
0.332077
0.335223
0.339887
0.346299
0.35465
0.365079
0.377628
0.39217
0.408339
0.425425
0.442373
0.457735
0.470088
0.478591
0.482579
0.481748
0.476383
0.467184
0.45498
0.440671
0.424786
0.407993
0.389858
0.371394
0.34988
0.329458
0.29971
0.278244
0.226136
0.212527
0.0947135
0.129511
0.135907
0.250889
0.268086
0.289414
0.295273
0.302746
0.305897
0.309515
0.311518
0.313632
0.315071
0.316493
0.317599
0.318665
0.319626
0.320649
0.321759
0.323028
0.324412
0.325838
0.327168
0.328246
0.328933
0.329192
0.329144
0.329058
0.329274
0.330142
0.33198
0.335074
0.339682
0.346033
0.35432
0.364687
0.377179
0.391676
0.407816
0.424889
0.441827
0.45716
0.469461
0.477898
0.481805
0.480899
0.475479
0.466255
0.454062
0.439797
0.423984
0.407282
0.38924
0.370859
0.349406
0.32901
0.299262
0.277728
0.22557
0.211753
0.0939821
0.128737
0.141843
0.249659
0.268236
0.289399
0.295331
0.302755
0.305905
0.30951
0.311513
0.313624
0.315065
0.316488
0.317593
0.318656
0.319608
0.320621
0.321724
0.322994
0.324393
0.325848
0.327212
0.328322
0.329023
0.329275
0.329203
0.329082
0.329259
0.330083
0.331874
0.334916
0.339469
0.345759
0.353985
0.364292
0.376728
0.391181
0.407292
0.424349
0.441273
0.456578
0.468833
0.477207
0.481034
0.48005
0.474568
0.465312
0.453121
0.438894
0.423148
0.406536
0.388593
0.370305
0.348924
0.328567
0.298824
0.277233
0.225016
0.211012
0.0932567
0.128026
0.147504
0.24859
0.268373
0.289376
0.295397
0.302768
0.30592
0.30951
0.311512
0.313619
0.315061
0.316484
0.31759
0.318648
0.319592
0.320593
0.321688
0.322959
0.324375
0.32586
0.327261
0.328401
0.329115
0.329358
0.32926
0.329103
0.329239
0.330019
0.331762
0.334754
0.33925
0.345481
0.353646
0.363893
0.376275
0.390683
0.406764
0.423803
0.440708
0.455983
0.468196
0.476508
0.480255
0.47919
0.473645
0.464352
0.452159
0.437965
0.422285
0.405763
0.387923
0.369735
0.348437
0.32813
0.298401
0.276762
0.224483
0.210308
0.0925441
0.127378
0.152928
0.247682
0.268494
0.289345
0.295467
0.302787
0.305941
0.309514
0.311514
0.313617
0.31506
0.316483
0.317588
0.318642
0.319577
0.320567
0.321652
0.322926
0.324358
0.325875
0.327313
0.328483
0.329208
0.329441
0.329316
0.329122
0.329217
0.329953
0.331649
0.334589
0.33903
0.345201
0.353305
0.363492
0.375819
0.390183
0.406231
0.423249
0.440131
0.455372
0.467543
0.475794
0.479458
0.478311
0.4727
0.46337
0.451174
0.437014
0.4214
0.404969
0.387236
0.369155
0.34795
0.327703
0.297995
0.276319
0.223975
0.209645
0.0918514
0.126791
0.158141
0.246933
0.268602
0.289303
0.295541
0.30281
0.305967
0.309522
0.31152
0.313618
0.315061
0.316484
0.317589
0.318638
0.319564
0.320541
0.321617
0.322893
0.324343
0.325892
0.327369
0.328568
0.329304
0.329525
0.329373
0.329143
0.329197
0.329889
0.331537
0.334425
0.338809
0.344921
0.352963
0.363091
0.375363
0.38968
0.405692
0.422684
0.439538
0.454743
0.46687
0.475055
0.478634
0.477404
0.471726
0.462359
0.450163
0.436038
0.420493
0.404158
0.386536
0.368569
0.347463
0.327287
0.297609
0.275906
0.223496
0.209029
0.0911849
0.126265
0.163168
0.24634
0.268699
0.289249
0.295615
0.302836
0.305999
0.309534
0.31153
0.313621
0.315064
0.316487
0.317592
0.318637
0.319552
0.320517
0.321584
0.322861
0.324329
0.325912
0.327427
0.328656
0.329402
0.329612
0.329432
0.329166
0.32918
0.329827
0.331428
0.334264
0.338591
0.344643
0.352623
0.36269
0.374906
0.389174
0.405148
0.42211
0.43893
0.454094
0.466172
0.474285
0.477775
0.476459
0.470715
0.461313
0.44912
0.435036
0.419565
0.403329
0.385825
0.367978
0.346982
0.326885
0.297245
0.275525
0.223049
0.208461
0.0905494
0.1258
0.168025
0.245899
0.26879
0.289182
0.295689
0.302864
0.306037
0.309549
0.311543
0.313628
0.315071
0.316493
0.317597
0.318637
0.319543
0.320495
0.321551
0.32283
0.324317
0.325933
0.327487
0.328747
0.329503
0.329703
0.329496
0.329195
0.329168
0.329772
0.331323
0.334107
0.338377
0.344368
0.352287
0.362292
0.37445
0.388667
0.404599
0.421526
0.438306
0.453422
0.465443
0.473477
0.476873
0.475468
0.469659
0.460226
0.448041
0.434004
0.418614
0.402485
0.385106
0.367386
0.346507
0.326498
0.296904
0.275176
0.222637
0.207942
0.0899484
0.125395
0.172725
0.245604
0.268879
0.289103
0.295759
0.302893
0.306079
0.309568
0.31156
0.313637
0.315079
0.316501
0.317605
0.31864
0.319536
0.320475
0.321521
0.3228
0.324306
0.325956
0.32755
0.32884
0.329607
0.329797
0.329565
0.329229
0.329163
0.329723
0.331226
0.333957
0.33817
0.344099
0.351956
0.361899
0.373997
0.388161
0.404048
0.420932
0.437665
0.452725
0.46468
0.472627
0.475921
0.474425
0.468551
0.45909
0.44692
0.432939
0.417638
0.401625
0.384378
0.366794
0.34604
0.326128
0.296588
0.274861
0.22226
0.207473
0.0893842
0.125047
0.177279
0.24545
0.268972
0.289012
0.295824
0.302921
0.306125
0.309591
0.31158
0.313649
0.315091
0.316511
0.317615
0.318646
0.319533
0.320458
0.321494
0.322773
0.324296
0.325981
0.327614
0.328935
0.329714
0.329895
0.329639
0.329271
0.329166
0.329682
0.331138
0.333816
0.33797
0.343838
0.351632
0.361512
0.373549
0.387658
0.403495
0.420331
0.437008
0.452001
0.463879
0.471728
0.474914
0.473322
0.467384
0.457901
0.445753
0.431836
0.416635
0.400747
0.383643
0.366203
0.345582
0.325776
0.296297
0.274581
0.22192
0.207054
0.0888581
0.124755
0.181695
0.245429
0.269076
0.288912
0.295882
0.302949
0.306175
0.309617
0.311605
0.313664
0.315105
0.316524
0.317628
0.318655
0.319532
0.320444
0.321469
0.322748
0.324289
0.326007
0.327679
0.329032
0.329824
0.329998
0.329721
0.329321
0.329179
0.329652
0.33106
0.333684
0.337781
0.343587
0.351317
0.361133
0.373109
0.387159
0.402942
0.419722
0.436334
0.451249
0.463038
0.470776
0.473845
0.472155
0.466152
0.456652
0.444535
0.430693
0.415603
0.399851
0.382899
0.365613
0.345136
0.325444
0.296034
0.274336
0.221619
0.206686
0.0883709
0.124516
0.185981
0.245534
0.269194
0.288805
0.295933
0.302974
0.306227
0.309645
0.311633
0.313682
0.315122
0.31654
0.317644
0.318667
0.319536
0.320435
0.321448
0.322726
0.324283
0.326034
0.327746
0.32913
0.329936
0.330105
0.329809
0.329381
0.329201
0.329633
0.330993
0.333564
0.337603
0.343348
0.351015
0.360766
0.372678
0.386667
0.40239
0.419108
0.435643
0.450468
0.462153
0.469767
0.47271
0.470916
0.464851
0.455339
0.443262
0.429505
0.414539
0.398935
0.382147
0.365025
0.3447
0.325131
0.295799
0.274127
0.221356
0.206368
0.0879227
0.12433
0.190142
0.245756
0.269332
0.288696
0.295975
0.302995
0.306283
0.309677
0.311665
0.313703
0.315142
0.316558
0.317662
0.318682
0.319543
0.32043
0.321432
0.322708
0.32428
0.326063
0.327814
0.329229
0.33005
0.330218
0.329905
0.329449
0.329235
0.329625
0.330938
0.333457
0.337438
0.343122
0.350725
0.360412
0.372259
0.386185
0.401844
0.418489
0.434937
0.449657
0.461221
0.468698
0.471504
0.469601
0.463475
0.453957
0.441929
0.428271
0.413441
0.397998
0.381386
0.364438
0.344277
0.32484
0.295592
0.273954
0.221134
0.206101
0.0875135
0.124193
0.194186
0.246088
0.269494
0.288587
0.296008
0.303013
0.30634
0.309712
0.311701
0.313727
0.315165
0.316578
0.317683
0.3187
0.319555
0.320429
0.32142
0.322694
0.32428
0.326093
0.327882
0.329329
0.330167
0.330335
0.330008
0.329528
0.329281
0.329631
0.330897
0.333364
0.337288
0.342912
0.350452
0.360074
0.371855
0.385714
0.401303
0.417868
0.434215
0.448814
0.460241
0.467563
0.470222
0.468207
0.46202
0.452503
0.440535
0.426987
0.412307
0.397039
0.380615
0.363854
0.343865
0.324569
0.295414
0.273819
0.220951
0.205883
0.0871428
0.124105
0.198116
0.246521
0.269682
0.288482
0.296033
0.303026
0.306398
0.30975
0.311741
0.313755
0.315192
0.316601
0.317707
0.318722
0.319571
0.320435
0.321414
0.322685
0.324283
0.326125
0.327951
0.32943
0.330287
0.330457
0.330119
0.329616
0.329339
0.32965
0.330872
0.333287
0.337155
0.342719
0.350197
0.359753
0.371467
0.385257
0.40077
0.417245
0.433478
0.447939
0.459209
0.466362
0.468862
0.466729
0.460483
0.450973
0.439076
0.425652
0.411136
0.396056
0.379834
0.363271
0.343465
0.324321
0.295266
0.273721
0.220808
0.205716
0.0868101
0.124063
0.201937
0.247047
0.269899
0.288385
0.296051
0.303035
0.306457
0.30979
0.311786
0.313787
0.315222
0.316627
0.317734
0.318747
0.319592
0.320446
0.321415
0.322681
0.324289
0.326159
0.32802
0.329531
0.330408
0.330584
0.330237
0.329715
0.329409
0.329684
0.330862
0.333227
0.337041
0.342546
0.349962
0.359453
0.371099
0.384817
0.400247
0.416622
0.432726
0.447031
0.458125
0.465091
0.467421
0.465165
0.458862
0.449366
0.437551
0.424264
0.409926
0.395049
0.379042
0.362689
0.343078
0.324094
0.295147
0.273661
0.220706
0.205598
0.0865146
0.124066
0.205655
0.24766
0.270147
0.288301
0.296064
0.303039
0.306516
0.309833
0.311835
0.313823
0.315256
0.316657
0.317764
0.318777
0.319617
0.320463
0.321423
0.322684
0.3243
0.326194
0.32809
0.329634
0.330532
0.330715
0.330363
0.329825
0.329492
0.329733
0.330868
0.333186
0.336946
0.342395
0.349749
0.359176
0.370753
0.384395
0.399737
0.416
0.431959
0.446089
0.456987
0.463749
0.465898
0.463515
0.457156
0.447681
0.435958
0.422821
0.408676
0.394017
0.378239
0.36211
0.342703
0.32389
0.295058
0.273639
0.220645
0.20553
0.0862555
0.124115
0.209275
0.248351
0.270426
0.288231
0.296074
0.303039
0.306574
0.309879
0.311889
0.313863
0.315295
0.31669
0.317798
0.318809
0.319648
0.320488
0.321438
0.322694
0.324317
0.326233
0.328161
0.329737
0.330658
0.330851
0.330497
0.329945
0.32959
0.329798
0.330893
0.333164
0.336873
0.342266
0.349561
0.358923
0.370431
0.383995
0.399241
0.41538
0.431179
0.445112
0.455794
0.462336
0.464293
0.461778
0.455365
0.445918
0.434298
0.421325
0.407387
0.392961
0.377425
0.361532
0.342341
0.323709
0.294999
0.273655
0.220624
0.205511
0.0860317
0.124207
0.2128
0.249113
0.270736
0.288178
0.296083
0.303035
0.306631
0.309927
0.311947
0.313909
0.315339
0.316728
0.317835
0.318847
0.319685
0.320519
0.321462
0.322712
0.324339
0.326275
0.328234
0.329841
0.330786
0.330991
0.330638
0.330077
0.329701
0.329879
0.330937
0.333164
0.336824
0.342163
0.349399
0.358698
0.370136
0.383617
0.398761
0.414765
0.430385
0.444102
0.454546
0.460851
0.462607
0.459956
0.453491
0.444079
0.432572
0.419776
0.406059
0.391879
0.376599
0.360955
0.341991
0.32355
0.29497
0.273711
0.220644
0.205542
0.0858423
0.124342
0.216235
0.249941
0.271076
0.288145
0.296094
0.30303
0.306688
0.309978
0.312011
0.31396
0.315388
0.31677
0.317878
0.318888
0.319727
0.320557
0.321494
0.322738
0.324369
0.32632
0.328308
0.329946
0.330916
0.331136
0.330788
0.33022
0.329827
0.329978
0.331001
0.333186
0.3368
0.342087
0.349266
0.358503
0.369869
0.383266
0.3983
0.414154
0.429577
0.443058
0.453245
0.459297
0.460842
0.458052
0.451538
0.442167
0.430784
0.418175
0.404693
0.390774
0.375763
0.360381
0.341653
0.323415
0.294972
0.273805
0.220703
0.205621
0.0856861
0.124519
0.219586
0.250828
0.271447
0.288134
0.296107
0.303025
0.306745
0.310031
0.31208
0.314017
0.315444
0.316818
0.317926
0.318935
0.319775
0.320603
0.321535
0.322775
0.324407
0.326371
0.328384
0.330052
0.331048
0.331287
0.330946
0.330375
0.329967
0.330095
0.331086
0.333233
0.336802
0.34204
0.349165
0.35834
0.369635
0.382943
0.397859
0.41355
0.428758
0.441979
0.45189
0.457675
0.459001
0.456072
0.449512
0.440188
0.428936
0.416527
0.403291
0.389645
0.374916
0.359809
0.341329
0.323304
0.295004
0.273939
0.220803
0.20575
0.0855619
0.12474
0.222856
0.251768
0.271846
0.288144
0.296127
0.303021
0.306802
0.310088
0.312154
0.314081
0.315507
0.316873
0.317979
0.318988
0.31983
0.320657
0.321586
0.322821
0.324453
0.326428
0.328462
0.33016
0.331183
0.331441
0.331112
0.330542
0.330124
0.330231
0.331193
0.333305
0.336833
0.342024
0.349096
0.358211
0.369434
0.38265
0.397439
0.412954
0.427927
0.440869
0.450483
0.455989
0.457091
0.454022
0.447417
0.438147
0.427035
0.414835
0.401855
0.388496
0.37406
0.359239
0.341017
0.323216
0.295065
0.274112
0.220941
0.205928
0.0854683
0.125003
0.22605
0.252757
0.272273
0.288177
0.296153
0.303019
0.30686
0.310149
0.312235
0.314153
0.315578
0.316935
0.31804
0.319047
0.319891
0.32072
0.321648
0.322879
0.324509
0.326491
0.328544
0.330268
0.331319
0.331601
0.331287
0.330721
0.330296
0.330387
0.331324
0.333403
0.336893
0.342042
0.349064
0.35812
0.36927
0.38239
0.397043
0.412367
0.427085
0.439727
0.449029
0.454244
0.455117
0.451907
0.445263
0.436053
0.425088
0.413104
0.400391
0.387328
0.373195
0.358673
0.340718
0.323152
0.295157
0.274324
0.221119
0.206155
0.085404
0.125308
0.229173
0.253788
0.272725
0.288233
0.296188
0.303022
0.30692
0.310214
0.312322
0.314233
0.315658
0.317006
0.318109
0.319114
0.319961
0.320792
0.32172
0.322948
0.324576
0.326562
0.32863
0.330379
0.331458
0.331766
0.33147
0.330912
0.330485
0.330563
0.331479
0.33353
0.336986
0.342094
0.349069
0.358068
0.369146
0.382165
0.396673
0.411789
0.426233
0.438555
0.447529
0.452446
0.453086
0.449737
0.443058
0.433913
0.423101
0.411342
0.398903
0.386144
0.372324
0.358112
0.340432
0.323112
0.295278
0.274576
0.221335
0.206431
0.0853677
0.125656
0.23223
0.254858
0.2732
0.288312
0.296232
0.303031
0.306983
0.310284
0.312416
0.314322
0.315748
0.317087
0.318187
0.31919
0.32004
0.320874
0.321804
0.32303
0.324656
0.326643
0.328722
0.330492
0.3316
0.331936
0.331662
0.331117
0.330691
0.330761
0.33166
0.333687
0.337113
0.342184
0.349115
0.358058
0.369063
0.381977
0.39633
0.411222
0.425373
0.437357
0.445989
0.450599
0.451006
0.44752
0.44081
0.431736
0.421083
0.409555
0.397395
0.384949
0.371449
0.357556
0.34016
0.323097
0.295428
0.274868
0.221588
0.206755
0.0853582
0.126046
0.235223
0.255961
0.273698
0.288413
0.296287
0.303046
0.307051
0.31036
0.312519
0.314421
0.315848
0.317178
0.318275
0.319275
0.320128
0.320966
0.3219
0.323125
0.324748
0.326734
0.32882
0.330609
0.331744
0.332111
0.331863
0.331334
0.330915
0.330981
0.331868
0.333875
0.337275
0.342314
0.349203
0.358094
0.369024
0.381829
0.396015
0.410666
0.424504
0.436134
0.444413
0.448711
0.448884
0.445265
0.438528
0.429531
0.419043
0.40775
0.395874
0.383746
0.370572
0.357007
0.339902
0.323106
0.295607
0.2752
0.221879
0.207128
0.085374
0.126478
0.238159
0.257095
0.274217
0.288536
0.296354
0.30307
0.307124
0.310442
0.312629
0.31453
0.315961
0.317282
0.318376
0.319372
0.320227
0.321069
0.322008
0.323234
0.324854
0.326836
0.328926
0.33073
0.331893
0.332291
0.332072
0.331565
0.331157
0.331224
0.332104
0.334096
0.337475
0.342485
0.349337
0.358177
0.369032
0.381722
0.39573
0.410123
0.423631
0.43489
0.442806
0.446789
0.446729
0.44298
0.436223
0.427308
0.41699
0.405936
0.394347
0.38254
0.369697
0.356466
0.339658
0.323139
0.295815
0.275571
0.222205
0.20755
0.0854135
0.126952
0.241041
0.258256
0.274753
0.288681
0.296432
0.303103
0.307203
0.310533
0.312749
0.314652
0.316086
0.317399
0.318489
0.319482
0.320339
0.321186
0.32213
0.323358
0.324975
0.326952
0.329042
0.330858
0.332045
0.332477
0.332291
0.33181
0.331418
0.331492
0.332369
0.334352
0.337714
0.342701
0.34952
0.35831
0.36909
0.381658
0.395475
0.409594
0.422753
0.433629
0.441174
0.444839
0.444548
0.440675
0.433904
0.425077
0.414933
0.40412
0.39282
0.381336
0.368825
0.355935
0.339429
0.323197
0.29605
0.275981
0.222567
0.208019
0.0854753
0.127469
0.243873
0.259439
0.275307
0.288845
0.296522
0.303146
0.307289
0.310632
0.312879
0.314785
0.316225
0.317532
0.318618
0.319606
0.320466
0.321317
0.322268
0.323498
0.325112
0.327083
0.32917
0.330994
0.332204
0.332669
0.332519
0.332069
0.331699
0.331785
0.332665
0.334645
0.337995
0.342963
0.349753
0.358496
0.369199
0.381639
0.395252
0.409079
0.421873
0.432354
0.439523
0.44287
0.442351
0.438359
0.43158
0.422848
0.412881
0.402311
0.391299
0.380139
0.367962
0.355417
0.339215
0.32328
0.296313
0.276431
0.222962
0.208537
0.0855576
0.128028
0.24666
0.260641
0.275876
0.289028
0.296623
0.303199
0.307382
0.31074
0.313019
0.314932
0.31638
0.31768
0.318763
0.319746
0.320608
0.321464
0.322421
0.323655
0.325266
0.32723
0.329311
0.33114
0.332371
0.332869
0.332757
0.332342
0.332
0.332104
0.332994
0.334975
0.338321
0.343275
0.35004
0.358739
0.369363
0.381667
0.395062
0.40858
0.420995
0.43107
0.437858
0.440888
0.440146
0.436042
0.429263
0.420629
0.410843
0.400516
0.389791
0.378954
0.367109
0.354912
0.339018
0.323388
0.296603
0.276919
0.223391
0.209103
0.085659
0.128629
0.249405
0.261861
0.276458
0.289229
0.296736
0.303262
0.307484
0.310858
0.313171
0.315094
0.31655
0.317846
0.318926
0.319905
0.320768
0.321628
0.322593
0.32383
0.325439
0.327394
0.329467
0.331299
0.332548
0.333079
0.333007
0.332632
0.332322
0.332451
0.333357
0.335346
0.338693
0.34364
0.350384
0.35904
0.369583
0.381742
0.394904
0.408097
0.420119
0.429782
0.436185
0.4389
0.437941
0.433733
0.42696
0.418432
0.408828
0.398745
0.388303
0.377786
0.36627
0.354423
0.338837
0.323519
0.296918
0.277444
0.223851
0.209716
0.0857777
0.129274
0.252112
0.263094
0.277052
0.289446
0.296861
0.303336
0.307594
0.310986
0.313334
0.315269
0.316738
0.318031
0.319109
0.320084
0.320948
0.321812
0.322784
0.324025
0.325632
0.327578
0.329641
0.331472
0.332737
0.3333
0.333271
0.332939
0.332668
0.332827
0.333756
0.33576
0.339115
0.34406
0.350788
0.359404
0.369862
0.381866
0.394779
0.407631
0.419249
0.428492
0.43451
0.436913
0.435744
0.431441
0.424684
0.416266
0.406845
0.397003
0.386841
0.37664
0.365449
0.353951
0.338674
0.323675
0.297259
0.278007
0.224342
0.210376
0.0859121
0.129961
0.254785
0.264337
0.277656
0.28968
0.296996
0.30342
0.307713
0.311124
0.313509
0.31546
0.316943
0.318235
0.319313
0.320284
0.32115
0.322018
0.322996
0.324242
0.325846
0.327782
0.329835
0.331663
0.332941
0.333537
0.333551
0.333266
0.333039
0.333235
0.334193
0.33622
0.339589
0.344539
0.351255
0.359832
0.370201
0.382038
0.394688
0.407185
0.418388
0.427206
0.432839
0.434934
0.433565
0.429177
0.422443
0.41414
0.404903
0.395299
0.38541
0.37552
0.364648
0.353499
0.338528
0.323855
0.297623
0.278606
0.224861
0.211081
0.0860606
0.13069
0.257428
0.265589
0.278269
0.289928
0.297141
0.303515
0.307841
0.311272
0.313696
0.315666
0.317166
0.318461
0.31954
0.320508
0.321375
0.322248
0.323233
0.324482
0.326083
0.328009
0.33005
0.331873
0.333164
0.333791
0.33385
0.333615
0.333437
0.333676
0.334672
0.336728
0.340119
0.34508
0.351789
0.360327
0.370601
0.382258
0.39463
0.406758
0.417538
0.425927
0.431176
0.432971
0.431411
0.426948
0.420247
0.412063
0.403009
0.393639
0.384017
0.37443
0.363872
0.353067
0.338401
0.324059
0.298011
0.27924
0.225408
0.211832
0.0862216
0.131462
0.260044
0.266847
0.278889
0.290189
0.297296
0.303619
0.307978
0.311431
0.313895
0.315888
0.317407
0.318708
0.31979
0.320757
0.321627
0.322504
0.323495
0.324747
0.326345
0.32826
0.330288
0.332106
0.333409
0.334066
0.334172
0.333991
0.333866
0.334156
0.335195
0.337289
0.340709
0.345687
0.352394
0.360891
0.371062
0.382527
0.394605
0.406352
0.4167
0.424658
0.429527
0.43103
0.42929
0.424766
0.418105
0.410043
0.401171
0.392028
0.382665
0.373374
0.363121
0.352658
0.338292
0.324285
0.29842
0.279908
0.225982
0.212627
0.0863934
0.132276
0.262636
0.268107
0.279515
0.290463
0.29746
0.303734
0.308123
0.3116
0.314106
0.316124
0.317667
0.318977
0.320064
0.321033
0.321906
0.322788
0.323785
0.32504
0.326635
0.328539
0.330553
0.332364
0.333678
0.334367
0.33452
0.334396
0.33433
0.334676
0.335767
0.337906
0.341363
0.346365
0.353071
0.361525
0.371584
0.382843
0.394613
0.405968
0.415878
0.423404
0.427897
0.429118
0.427212
0.422638
0.416026
0.408089
0.399395
0.390472
0.381358
0.372355
0.362398
0.352272
0.338202
0.324534
0.29885
0.280608
0.226579
0.213464
0.0865745
0.133131
0.26521
0.269369
0.280145
0.290748
0.297633
0.303858
0.308277
0.311779
0.314328
0.316376
0.317945
0.319268
0.320364
0.321336
0.322215
0.323102
0.324106
0.325364
0.326954
0.328846
0.330845
0.332651
0.333975
0.334696
0.334899
0.334835
0.334833
0.335242
0.336392
0.338584
0.342084
0.347115
0.353824
0.362231
0.372167
0.383205
0.394653
0.405605
0.415073
0.422168
0.426291
0.427241
0.425183
0.420573
0.414019
0.406208
0.397686
0.388976
0.380101
0.371375
0.361705
0.35191
0.338131
0.324804
0.2993
0.281338
0.227199
0.214343
0.0867635
0.134027
0.267767
0.270628
0.280779
0.291043
0.297814
0.303991
0.30844
0.311968
0.314562
0.316642
0.318241
0.31958
0.320689
0.321668
0.322554
0.323448
0.324459
0.32572
0.327305
0.329184
0.331169
0.332968
0.334304
0.335058
0.335313
0.335313
0.33538
0.335858
0.337074
0.339326
0.342878
0.347943
0.354653
0.363007
0.372808
0.383611
0.394724
0.405265
0.414286
0.420952
0.424713
0.425407
0.423213
0.41858
0.412089
0.404404
0.396049
0.387542
0.378896
0.370438
0.361045
0.351574
0.338079
0.325094
0.299767
0.282097
0.22784
0.215261
0.0869589
0.134961
0.270311
0.271884
0.281413
0.291348
0.298003
0.304133
0.308611
0.312167
0.314806
0.316921
0.318553
0.319914
0.321039
0.322028
0.322924
0.323828
0.324847
0.326111
0.327691
0.329557
0.331527
0.333319
0.334667
0.335456
0.335766
0.335834
0.335976
0.336529
0.337819
0.340139
0.343749
0.348851
0.355561
0.363853
0.373505
0.384059
0.394826
0.404947
0.41352
0.41976
0.423169
0.423621
0.421308
0.416666
0.410245
0.402683
0.394487
0.386173
0.377744
0.369543
0.360416
0.351264
0.338046
0.325404
0.30025
0.282883
0.2285
0.216216
0.0871595
0.135933
0.272846
0.273134
0.282049
0.29166
0.298199
0.304283
0.308789
0.312374
0.31506
0.317213
0.318882
0.320268
0.321414
0.322417
0.323326
0.324241
0.32527
0.326538
0.328114
0.329966
0.331921
0.333707
0.335068
0.335894
0.336262
0.336402
0.336625
0.337261
0.338631
0.341026
0.344698
0.349839
0.356545
0.364766
0.374257
0.384547
0.394955
0.404651
0.412775
0.418595
0.421663
0.42189
0.419476
0.414836
0.408489
0.401049
0.393003
0.38487
0.376646
0.368692
0.359822
0.350979
0.338032
0.325733
0.300748
0.283692
0.229176
0.217207
0.0873639
0.13694
0.275375
0.274375
0.282683
0.29198
0.298401
0.304442
0.308976
0.312591
0.315324
0.317518
0.319226
0.320641
0.321811
0.322833
0.323759
0.324689
0.32573
0.327003
0.328575
0.330414
0.332354
0.334134
0.335511
0.336376
0.336806
0.337023
0.337332
0.338057
0.339515
0.341991
0.34573
0.350909
0.357605
0.365743
0.375057
0.385071
0.395112
0.404378
0.412052
0.417458
0.4202
0.42022
0.417722
0.413096
0.406827
0.399503
0.391597
0.383635
0.375604
0.367885
0.359261
0.350721
0.338036
0.326078
0.30126
0.284524
0.229868
0.21823
0.0875711
0.137982
0.277901
0.275605
0.283314
0.292307
0.298609
0.304608
0.30917
0.312816
0.315598
0.317835
0.319585
0.321033
0.322232
0.323276
0.324223
0.325171
0.326227
0.327507
0.329076
0.330904
0.332829
0.334605
0.335998
0.336905
0.3374
0.3377
0.338101
0.338922
0.340474
0.343037
0.346844
0.352059
0.358736
0.366779
0.375904
0.385629
0.395295
0.404126
0.411353
0.416353
0.418784
0.418617
0.416052
0.411451
0.405261
0.398046
0.390271
0.382467
0.374617
0.367123
0.358734
0.350489
0.338058
0.32644
0.301783
0.285375
0.230573
0.219284
0.0877802
0.139054
0.280427
0.276822
0.283942
0.292638
0.298822
0.304782
0.309371
0.313049
0.315881
0.318162
0.319957
0.321441
0.322673
0.323744
0.324716
0.325686
0.32676
0.32805
0.329618
0.331435
0.333348
0.335121
0.336532
0.337484
0.338049
0.338436
0.338935
0.339858
0.34151
0.344163
0.34804
0.353285
0.359934
0.367869
0.376792
0.386218
0.395501
0.403896
0.410678
0.415283
0.417419
0.417085
0.414471
0.409903
0.403791
0.396679
0.389022
0.381364
0.373684
0.366405
0.358241
0.350283
0.338098
0.326816
0.302316
0.286243
0.231289
0.220365
0.0879903
0.140155
0.282958
0.278024
0.284565
0.292975
0.29904
0.304962
0.309579
0.313291
0.316172
0.3185
0.320341
0.321865
0.323133
0.324236
0.325237
0.326234
0.327328
0.328631
0.330201
0.33201
0.333912
0.335684
0.337115
0.338116
0.338754
0.339234
0.339837
0.340868
0.342625
0.34537
0.349313
0.354584
0.361194
0.369008
0.377717
0.386835
0.39573
0.403687
0.410029
0.41425
0.416109
0.415628
0.41298
0.408454
0.402418
0.3954
0.38785
0.380326
0.372804
0.36573
0.357782
0.350102
0.338154
0.327207
0.302858
0.287125
0.232013
0.221471
0.0882007
0.141282
0.285495
0.279207
0.285182
0.293314
0.299263
0.30515
0.309795
0.31354
0.316471
0.318847
0.320738
0.322304
0.323612
0.32475
0.325785
0.326811
0.327931
0.32925
0.330825
0.332629
0.334523
0.336296
0.337751
0.338802
0.339518
0.340095
0.340807
0.341951
0.343816
0.346654
0.350661
0.355948
0.362508
0.37019
0.378675
0.387477
0.395979
0.403498
0.409405
0.413255
0.414858
0.414249
0.411583
0.407103
0.40114
0.394207
0.386752
0.379351
0.371976
0.365097
0.357354
0.349945
0.338227
0.327609
0.303407
0.288019
0.232745
0.222598
0.0884111
0.142431
0.288044
0.280371
0.285791
0.293657
0.299489
0.305344
0.310017
0.313797
0.316779
0.319204
0.321145
0.322756
0.324107
0.325284
0.326356
0.327416
0.328565
0.329903
0.331487
0.333289
0.335179
0.336957
0.338438
0.339544
0.340341
0.34102
0.341845
0.343105
0.34508
0.34801
0.352076