/*--------------------------------*- C++ -*----------------------------------*\
| =========                 |                                                 |
| \\      /  F ield         | OpenFOAM: The Open Source CFD Toolbox           |
|  \\    /   O peration     | Version:  2.4.0                                 |
|   \\  /    A nd           | Web:      www.OpenFOAM.org                      |
|    \\/     M anipulation  |                                                 |
\*---------------------------------------------------------------------------*/
FoamFile
{
    version     2.0;
    format      ascii;
    class       surfaceScalarField;
    location    "3.16";
    object      phi;
}
// * * * * * * * * * * * * * * * * * * * * * * * * * * * * * * * * * * * * * //

dimensions      [0 3 -1 0 0 0 0];

internalField   nonuniform List<scalar> 
11840
(
7.85176e-07
9.21482e-06
-2.0229e-08
8.05405e-07
-4.80043e-08
2.77753e-08
-7.30352e-08
2.50309e-08
-8.38386e-08
1.08034e-08
-8.53369e-08
1.49827e-09
-8.94307e-08
4.09385e-09
-8.91137e-08
-3.17023e-10
-9.16896e-08
2.57591e-09
-9.23933e-08
7.03716e-10
-9.54292e-08
3.03593e-09
-9.8781e-08
3.35174e-09
-1.04874e-07
6.09329e-09
-1.1239e-07
7.5154e-09
-1.21186e-07
8.79665e-09
-1.28811e-07
7.62499e-09
-1.33807e-07
4.99531e-09
-1.35404e-07
1.59786e-09
-1.35448e-07
4.36933e-11
-1.37373e-07
1.92508e-09
-1.45793e-07
8.41949e-09
-1.65466e-07
1.96736e-08
-2.00588e-07
3.51216e-08
-2.53239e-07
5.26507e-08
-3.22581e-07
6.93419e-08
-4.05166e-07
8.25856e-08
-4.96142e-07
9.0976e-08
-5.90379e-07
9.42366e-08
-6.83037e-07
9.26584e-08
-7.69522e-07
8.64846e-08
-8.45133e-07
7.56113e-08
-9.04641e-07
5.95077e-08
-9.41955e-07
3.7314e-08
-9.50146e-07
8.19134e-09
-9.21205e-07
-2.89416e-08
-8.47503e-07
-7.37021e-08
-7.23304e-07
-1.24198e-07
-5.47627e-07
-1.75677e-07
-3.25596e-07
-2.22031e-07
-7.46875e-08
-2.50909e-07
1.799e-07
-2.54587e-07
4.25324e-07
-2.45424e-07
6.49456e-07
-2.24132e-07
8.36906e-07
-1.8745e-07
9.77013e-07
-1.40107e-07
1.0664e-06
-8.93906e-08
1.10763e-06
-4.12224e-08
1.1091e-06
-1.47131e-09
1.07975e-06
2.93472e-08
1.03267e-06
4.70823e-08
9.73883e-07
5.87846e-08
9.19298e-07
5.4585e-08
8.61328e-07
5.79702e-08
8.28463e-07
3.28644e-08
7.80728e-07
4.77349e-08
7.89809e-07
-9.08059e-09
7.39863e-07
4.9946e-08
8.15994e-07
-7.61312e-08
7.2911e-07
8.68843e-08
-2.63062e-07
1.91827e-06
1.72966e-05
1.02523e-07
2.62115e-06
-7.40858e-08
2.04384e-07
-1.77775e-07
1.2872e-07
-2.09826e-07
4.28541e-08
-2.27621e-07
1.9294e-08
-2.38448e-07
1.49209e-08
-2.43804e-07
5.03856e-09
-2.50523e-07
9.29462e-09
-2.55622e-07
5.80261e-09
-2.64025e-07
1.14395e-08
-2.75031e-07
1.43578e-08
-2.9189e-07
2.29521e-08
-3.12924e-07
2.85495e-08
-3.35976e-07
3.18484e-08
-3.55349e-07
2.69976e-08
-3.66927e-07
1.65738e-08
-3.70035e-07
4.70567e-09
-3.70486e-07
4.94808e-10
-3.78762e-07
1.0201e-08
-4.07913e-07
3.7571e-08
-4.70609e-07
8.23692e-08
-5.76096e-07
1.40609e-07
-7.26609e-07
2.03164e-07
-9.16207e-07
2.58939e-07
-1.13291e-06
2.99293e-07
-1.36246e-06
3.20525e-07
-1.59114e-06
3.22912e-07
-1.80681e-06
3.08327e-07
-1.99846e-06
2.78137e-07
-2.15518e-06
2.32332e-07
-2.26512e-06
1.69445e-07
-2.31484e-06
8.70376e-08
-2.28905e-06
-1.75972e-08
-2.1715e-06
-1.46494e-07
-1.94668e-06
-2.98521e-07
-1.60385e-06
-4.67027e-07
-1.14213e-06
-6.37405e-07
-5.75425e-07
-7.88731e-07
4.74737e-08
-8.73807e-07
6.67632e-07
-8.74745e-07
1.25702e-06
-8.34812e-07
1.78832e-06
-7.5543e-07
2.22978e-06
-6.28914e-07
2.56025e-06
-4.70572e-07
2.7729e-06
-3.02045e-07
2.87361e-06
-1.41928e-07
2.87892e-06
-6.78313e-09
2.81079e-06
9.74787e-08
2.69529e-06
1.62575e-07
2.55303e-06
2.0105e-07
2.41073e-06
1.96881e-07
2.27281e-06
1.9589e-07
2.1709e-06
1.34772e-07
2.07449e-06
1.4415e-07
2.04948e-06
1.59255e-08
1.98878e-06
1.10648e-07
2.07091e-06
-1.58259e-07
1.99771e-06
1.60088e-07
-6.79851e-07
2.91743e-06
2.43791e-05
3.96968e-07
5.14161e-06
-4.00461e-08
6.41398e-07
-2.39093e-07
3.27767e-07
-3.02513e-07
1.06274e-07
-3.44664e-07
6.14456e-08
-3.65258e-07
3.5515e-08
-3.79979e-07
1.97596e-08
-3.92089e-07
2.14047e-08
-4.03344e-07
1.7057e-08
-4.17673e-07
2.57693e-08
-4.36976e-07
3.36602e-08
-4.6428e-07
5.02557e-08
-4.97988e-07
6.22583e-08
-5.33528e-07
6.73883e-08
-5.62614e-07
5.60834e-08
-5.79058e-07
3.30182e-08
-5.83203e-07
8.85032e-09
-5.8532e-07
2.6115e-09
-6.032e-07
2.80817e-08
-6.57825e-07
9.21955e-08
-7.68385e-07
1.9293e-07
-9.46821e-07
3.19044e-07
-1.19277e-06
4.49116e-07
-1.49307e-06
5.59236e-07
-1.82632e-06
6.32543e-07
-2.16909e-06
6.63296e-07
-2.50002e-06
6.53838e-07
-2.80085e-06
6.09156e-07
-3.05542e-06
5.32709e-07
-3.24803e-06
4.24945e-07
-3.36203e-06
2.83445e-07
-3.37905e-06
1.04059e-07
-3.27912e-06
-1.17527e-07
-3.0422e-06
-3.83419e-07
-2.65112e-06
-6.89595e-07
-2.09691e-06
-1.02124e-06
-1.38599e-06
-1.34833e-06
-5.50023e-07
-1.62469e-06
3.40791e-07
-1.76462e-06
1.23081e-06
-1.76476e-06
2.08781e-06
-1.69182e-06
2.86473e-06
-1.53234e-06
3.51576e-06
-1.27995e-06
4.01009e-06
-9.64903e-07
4.33544e-06
-6.27392e-07
4.49703e-06
-3.03516e-07
4.51526e-06
-2.50147e-08
4.42009e-06
1.92644e-07
4.24764e-06
3.35023e-07
4.03208e-06
4.16616e-07
3.8079e-06
4.21054e-07
3.59566e-06
4.08138e-07
3.4227e-06
3.07724e-07
3.28241e-06
2.84443e-07
3.21088e-06
8.74539e-08
3.15128e-06
1.70247e-07
3.20731e-06
-2.14285e-07
3.184e-06
1.83394e-07
-1.13812e-06
3.80925e-06
3.05699e-05
8.13906e-07
8.13695e-06
5.31081e-08
1.4022e-06
-2.5281e-07
6.33685e-07
-3.61841e-07
2.15305e-07
-4.3425e-07
1.33854e-07
-4.69563e-07
7.08281e-08
-4.96305e-07
4.65015e-08
-5.15974e-07
4.10738e-08
-5.34614e-07
3.56973e-08
-5.55804e-07
4.6959e-08
-5.83676e-07
6.15323e-08
-6.21163e-07
8.77422e-08
-6.66513e-07
1.07609e-07
-7.13e-07
1.13875e-07
-7.50172e-07
9.32553e-08
-7.70541e-07
5.33872e-08
-7.76051e-07
1.43599e-08
-7.81657e-07
8.21776e-09
-8.12042e-07
5.84672e-08
-8.95141e-07
1.75294e-07
-1.0548e-06
3.5259e-07
-1.30306e-06
5.67307e-07
-1.63441e-06
7.80465e-07
-2.02689e-06
9.51709e-07
-2.44956e-06
1.05522e-06
-2.87095e-06
1.08468e-06
-3.26376e-06
1.04665e-06
-3.60557e-06
9.5097e-07
-3.87712e-06
8.04258e-07
-4.06017e-06
6.07993e-07
-4.13597e-06
3.59242e-07
-4.08462e-06
5.27108e-08
-3.88582e-06
-3.16323e-07
-3.52083e-06
-7.48409e-07
-2.97613e-06
-1.23429e-06
-2.24949e-06
-1.74788e-06
-1.35809e-06
-2.23973e-06
-3.48743e-07
-2.63404e-06
7.14167e-07
-2.82753e-06
1.79569e-06
-2.84629e-06
2.85427e-06
-2.7504e-06
3.82267e-06
-2.50074e-06
4.6438e-06
-2.10107e-06
5.27867e-06
-1.59978e-06
5.70885e-06
-1.05757e-06
5.93606e-06
-5.30723e-07
5.98032e-06
-6.92716e-08
5.87527e-06
2.97695e-07
5.6635e-06
5.46791e-07
5.38923e-06
6.90884e-07
5.09513e-06
7.15155e-07
4.81434e-06
6.88929e-07
4.57572e-06
5.46347e-07
4.38819e-06
4.71967e-07
4.27285e-06
2.02796e-07
4.2021e-06
2.41002e-07
4.23531e-06
-2.47503e-07
4.24502e-06
1.73688e-07
-1.60074e-06
4.61572e-06
3.59542e-05
1.32504e-06
1.14276e-05
2.13426e-07
2.51381e-06
-2.17747e-07
1.06486e-06
-3.86613e-07
3.84171e-07
-4.95546e-07
2.42787e-07
-5.50636e-07
1.25919e-07
-5.92224e-07
8.80895e-08
-6.21657e-07
7.0506e-08
-6.48959e-07
6.29996e-08
-6.77882e-07
7.58826e-08
-7.14514e-07
9.81637e-08
-7.61804e-07
1.35033e-07
-8.17747e-07
1.63552e-07
-8.73812e-07
1.69939e-07
-9.17879e-07
1.37322e-07
-9.4183e-07
7.73383e-08
-9.4952e-07
2.205e-08
-9.60349e-07
1.90473e-08
-1.00504e-06
1.03162e-07
-1.11707e-06
2.87318e-07
-1.32278e-06
5.58305e-07
-1.63175e-06
8.76275e-07
-2.0312e-06
1.17991e-06
-2.48969e-06
1.4102e-06
-2.96774e-06
1.53327e-06
-3.42792e-06
1.54486e-06
-3.83967e-06
1.4584e-06
-4.17912e-06
1.29042e-06
-4.42661e-06
1.05175e-06
-4.5642e-06
7.45578e-07
-4.57415e-06
3.69191e-07
-4.43866e-06
-8.2777e-08
-4.1406e-06
-6.14377e-07
-3.66546e-06
-1.22355e-06
-3.00518e-06
-1.89457e-06
-2.16386e-06
-2.5892e-06
-1.16495e-06
-3.23865e-06
-5.76549e-08
-3.74133e-06
1.11198e-06
-3.99717e-06
2.32311e-06
-4.05742e-06
3.52189e-06
-3.94917e-06
4.63067e-06
-3.60953e-06
5.58515e-06
-3.05555e-06
6.3394e-06
-2.35404e-06
6.86819e-06
-1.58635e-06
7.16741e-06
-8.29952e-07
7.2531e-06
-1.54953e-07
7.15829e-06
3.92503e-07
6.9284e-06
7.76683e-07
6.61407e-06
1.00521e-06
6.26534e-06
1.06389e-06
5.92522e-06
1.02904e-06
5.62779e-06
8.43786e-07
5.39212e-06
7.07636e-07
5.23501e-06
3.599e-07
5.1431e-06
3.32915e-07
5.15483e-06
-2.59228e-07
5.18081e-06
1.47705e-07
-2.04188e-06
5.34724e-06
4.06069e-05
1.90293e-06
1.48719e-05
4.48942e-07
3.9678e-06
-1.32755e-07
1.64655e-06
-3.7566e-07
6.27076e-07
-5.27716e-07
3.94843e-07
-6.07778e-07
2.05981e-07
-6.67225e-07
1.47536e-07
-7.08678e-07
1.11959e-07
-7.4597e-07
1.00292e-07
-7.83452e-07
1.13365e-07
-8.28956e-07
1.43667e-07
-8.85574e-07
1.91651e-07
-9.51064e-07
2.29042e-07
-1.01551e-06
2.34387e-07
-1.06565e-06
1.87463e-07
-1.09324e-06
1.04929e-07
-1.10405e-06
3.28578e-08
-1.1213e-06
3.62972e-08
-1.18059e-06
1.62449e-07
-1.31922e-06
4.25955e-07
-1.56387e-06
8.02953e-07
-1.91936e-06
1.23176e-06
-2.36443e-06
1.62498e-06
-2.85872e-06
1.90449e-06
-3.35644e-06
2.03099e-06
-3.81744e-06
2.00586e-06
-4.21123e-06
1.85219e-06
-4.51553e-06
1.59473e-06
-4.71296e-06
1.24918e-06
-4.78825e-06
8.20869e-07
-4.72676e-06
3.07701e-07
-4.51425e-06
-2.95291e-07
-4.13708e-06
-9.91548e-07
-3.58416e-06
-1.77646e-06
-2.85079e-06
-2.62794e-06
-1.94354e-06
-3.49645e-06
-8.86242e-07
-4.29595e-06
2.76906e-07
-4.90448e-06
1.51593e-06
-5.2362e-06
2.80992e-06
-5.3514e-06
4.09636e-06
-5.23562e-06
5.29705e-06
-4.81022e-06
6.34629e-06
-4.10479e-06
7.19456e-06
-3.20231e-06
7.81091e-06
-2.2027e-06
8.18447e-06
-1.20352e-06
8.32453e-06
-2.95014e-07
8.25956e-06
4.57476e-07
8.0337e-06
1.00254e-06
7.70029e-06
1.33863e-06
7.31473e-06
1.44945e-06
6.9277e-06
1.41607e-06
6.5801e-06
1.19138e-06
6.2983e-06
9.8943e-07
6.10143e-06
5.56773e-07
5.98163e-06
4.52718e-07
5.97138e-06
-2.48982e-07
5.99942e-06
1.19665e-07
-2.44482e-06
6.00932e-06
4.45976e-05
2.52466e-06
1.83566e-05
7.58047e-07
5.73441e-06
-1.04964e-09
2.40565e-06
-3.27805e-07
9.53831e-07
-5.29847e-07
5.96885e-07
-6.4025e-07
3.16385e-07
-7.20771e-07
2.28057e-07
-7.76581e-07
1.6777e-07
-8.25256e-07
1.48966e-07
-8.72088e-07
1.60197e-07
-9.26514e-07
1.98093e-07
-9.91906e-07
2.57042e-07
-1.06592e-06
3.03052e-07
-1.1377e-06
3.06176e-07
-1.19337e-06
2.43124e-07
-1.22485e-06
1.36418e-07
-1.2396e-06
4.75991e-08
-1.26377e-06
6.04752e-08
-1.33651e-06
2.35181e-07
-1.4972e-06
5.86646e-07
-1.77077e-06
1.07653e-06
-2.15579e-06
1.61678e-06
-2.62254e-06
2.09172e-06
-3.12374e-06
2.4057e-06
-3.6107e-06
2.51795e-06
-4.04417e-06
2.43933e-06
-4.39675e-06
2.20477e-06
-4.64987e-06
1.84784e-06
-4.78961e-06
1.38892e-06
-4.80385e-06
8.3511e-07
-4.68086e-06
1.84709e-07
-4.40878e-06
-5.67375e-07
-3.97585e-06
-1.42448e-06
-3.37263e-06
-2.37968e-06
-2.59547e-06
-3.4051e-06
-1.65082e-06
-4.4411e-06
-5.60419e-07
-5.38635e-06
6.38665e-07
-6.10357e-06
1.92388e-06
-6.52141e-06
3.26804e-06
-6.69556e-06
4.604e-06
-6.57158e-06
5.85751e-06
-6.06373e-06
6.9654e-06
-5.21267e-06
7.87837e-06
-4.11528e-06
8.56303e-06
-2.88736e-06
9.00353e-06
-1.64401e-06
9.20223e-06
-4.9371e-07
9.18054e-06
4.79162e-07
8.97751e-06
1.20557e-06
8.64515e-06
1.67098e-06
8.24128e-06
1.85332e-06
7.82184e-06
1.83552e-06
7.43446e-06
1.57876e-06
7.11149e-06
1.31239e-06
6.87754e-06
7.90729e-07
6.7266e-06
6.03658e-07
6.69304e-06
-2.1542e-07
6.71224e-06
1.00458e-07
-2.79979e-06
6.60581e-06
4.79918e-05
3.17123e-06
2.17912e-05
1.13709e-06
7.76855e-06
1.95116e-07
3.34763e-06
-2.41782e-07
1.39073e-06
-5.00904e-07
8.56006e-07
-6.47227e-07
4.62708e-07
-7.52257e-07
3.33087e-07
-8.24869e-07
2.40382e-07
-8.86405e-07
2.10502e-07
-9.4337e-07
2.17162e-07
-1.00673e-06
2.61454e-07
-1.08029e-06
3.30601e-07
-1.16182e-06
3.8458e-07
-1.24004e-06
3.84397e-07
-1.30086e-06
3.03945e-07
-1.33661e-06
1.72167e-07
-1.35594e-06
6.69307e-08
-1.38701e-06
9.1543e-08
-1.47103e-06
3.19205e-07
-1.64781e-06
7.6342e-07
-1.93897e-06
1.36769e-06
-2.33633e-06
2.01415e-06
-2.8031e-06
2.55849e-06
-3.28817e-06
2.89077e-06
-3.7435e-06
2.97327e-06
-4.13359e-06
2.82942e-06
-4.43562e-06
2.5068e-06
-4.63494e-06
2.04716e-06
-4.72061e-06
1.47459e-06
-4.68267e-06
7.97165e-07
-4.51098e-06
1.30241e-08
-4.19463e-06
-8.83724e-07
-3.72257e-06
-1.89654e-06
-3.08597e-06
-3.01628e-06
-2.28115e-06
-4.20992e-06
-1.31357e-06
-5.40868e-06
-2.02323e-07
-6.4976e-06
1.02181e-06
-7.3277e-06
2.33777e-06
-7.83736e-06
3.71019e-06
-8.06798e-06
5.07057e-06
-7.93196e-06
6.34966e-06
-7.34282e-06
7.4881e-06
-6.35112e-06
8.43895e-06
-5.06612e-06
9.16924e-06
-3.61765e-06
9.66114e-06
-2.13591e-06
9.91233e-06
-7.44903e-07
9.93745e-06
4.5404e-07
9.7684e-06
1.37462e-06
9.45257e-06
1.98681e-06
9.04668e-06
2.25921e-06
8.60927e-06
2.27293e-06
8.19321e-06
1.99483e-06
7.83614e-06
1.66947e-06
7.56877e-06
1.05809e-06
7.38659e-06
7.85844e-07
7.32839e-06
-1.57222e-07
7.33136e-06
9.74898e-08
-3.10187e-06
7.14029e-06
5.08515e-05
3.8268e-06
2.51047e-05
1.57928e-06
1.00161e-05
4.40513e-07
4.48639e-06
-1.15667e-07
1.94691e-06
-4.39704e-07
1.18004e-06
-6.27777e-07
6.50781e-07
-7.60978e-07
4.66287e-07
-8.52977e-07
3.32381e-07
-9.2896e-07
2.86484e-07
-9.96867e-07
2.8507e-07
-1.06917e-06
3.33761e-07
-1.15029e-06
4.11713e-07
-1.23839e-06
4.72683e-07
-1.32227e-06
4.68276e-07
-1.38807e-06
3.69744e-07
-1.42854e-06
2.12643e-07
-1.45305e-06
9.1433e-08
-1.49062e-06
1.29113e-07
-1.58314e-06
4.11728e-07
-1.76935e-06
9.49633e-07
-2.06677e-06
1.6651e-06
-2.46106e-06
2.40845e-06
-2.91067e-06
3.0081e-06
-3.36387e-06
3.34398e-06
-3.77602e-06
3.38542e-06
-4.11664e-06
3.17003e-06
-4.36729e-06
2.75745e-06
-4.51635e-06
2.19622e-06
-4.55467e-06
1.51292e-06
-4.47335e-06
7.15838e-07
-4.26281e-06
-1.97509e-07
-3.91233e-06
-1.2342e-06
-3.41114e-06
-2.39773e-06
-2.75058e-06
-3.67683e-06
-1.92658e-06
-5.03393e-06
-9.4343e-07
-6.39183e-06
1.82231e-07
-7.62326e-06
1.42438e-06
-8.56985e-06
2.75993e-06
-9.17291e-06
4.146e-06
-9.45405e-06
5.51472e-06
-9.30068e-06
6.80151e-06
-8.62962e-06
7.95086e-06
-7.50047e-06
8.91878e-06
-6.03404e-06
9.67426e-06
-4.37313e-06
1.01998e-05
-2.66141e-06
1.0491e-05
-1.03611e-06
1.05578e-05
3.87217e-07
1.04253e-05
1.50713e-06
1.01345e-05
2.27757e-06
9.73834e-06
2.65539e-06
9.29511e-06
2.71616e-06
8.86065e-06
2.42929e-06
8.47716e-06
2.05296e-06
8.18071e-06
1.35453e-06
7.96937e-06
9.97189e-07
7.88573e-06
-7.35853e-08
7.86822e-06
1.14999e-07
-3.34925e-06
7.61655e-06
5.32349e-05
4.4782e-06
2.8243e-05
2.07579e-06
1.24185e-05
7.4075e-07
5.82143e-06
5.2594e-08
2.63507e-06
-3.44926e-07
1.57756e-06
-5.80853e-07
8.86708e-07
-7.4611e-07
6.31545e-07
-8.60253e-07
4.46524e-07
-9.5241e-07
3.78641e-07
-1.03214e-06
3.64802e-07
-1.11346e-06
4.15077e-07
-1.20156e-06
4.99812e-07
-1.29541e-06
5.6653e-07
-1.38435e-06
5.57221e-07
-1.45515e-06
4.40546e-07
-1.50095e-06
2.58444e-07
-1.53117e-06
1.21644e-07
-1.57458e-06
1.72524e-07
-1.6724e-06
5.09556e-07
-1.86129e-06
1.13852e-06
-2.15454e-06
1.95835e-06
-2.53308e-06
2.78699e-06
-2.95319e-06
3.4282e-06
-3.36517e-06
3.75596e-06
-3.72917e-06
3.74943e-06
-4.01964e-06
3.4605e-06
-4.22158e-06
2.9594e-06
-4.32523e-06
2.29987e-06
-4.32228e-06
1.50997e-06
-4.20417e-06
5.97727e-07
-3.96131e-06
-4.40365e-07
-3.58295e-06
-1.61257e-06
-3.05847e-06
-2.9222e-06
-2.37919e-06
-4.35612e-06
-1.54055e-06
-5.87257e-06
-5.45808e-07
-7.38657e-06
5.90493e-07
-8.75956e-06
1.8454e-06
-9.82475e-06
3.19225e-06
-1.05198e-05
4.58214e-06
-1.08439e-05
5.94876e-06
-1.06673e-05
7.23156e-06
-9.91241e-06
8.37844e-06
-8.64734e-06
9.3484e-06
-7.00401e-06
1.01129e-05
-5.13765e-06
1.0656e-05
-3.20449e-06
1.09732e-05
-1.35333e-06
1.1072e-05
2.884e-07
1.09723e-05
1.60687e-06
1.07088e-05
2.54108e-06
1.03288e-05
3.03537e-06
9.88837e-06
3.15661e-06
9.44386e-06
2.8738e-06
9.04097e-06
2.45584e-06
8.71979e-06
1.67571e-06
8.48236e-06
1.23462e-06
8.37306e-06
3.57148e-08
8.33323e-06
1.54825e-07
-3.54202e-06
8.03868e-06
5.51963e-05
5.1147e-06
3.1167e-05
2.61651e-06
1.49167e-05
1.0954e-06
7.34254e-06
2.6438e-07
3.46608e-06
-2.15136e-07
2.05708e-06
-5.05287e-07
1.17686e-06
-7.06702e-07
8.3296e-07
-8.45955e-07
5.85777e-07
-9.56187e-07
4.88874e-07
-1.04876e-06
4.57372e-07
-1.13927e-06
5.05585e-07
-1.23392e-06
5.94462e-07
-1.33285e-06
6.65469e-07
-1.42649e-06
6.5086e-07
-1.50253e-06
5.1658e-07
-1.55434e-06
3.10257e-07
-1.59069e-06
1.57994e-07
-1.63901e-06
2.20847e-07
-1.73874e-06
6.09279e-07
-1.92383e-06
1.32361e-06
-2.20392e-06
2.23844e-06
-2.55695e-06
3.14003e-06
-2.9394e-06
3.81064e-06
-3.30531e-06
4.12187e-06
-3.61997e-06
4.06409e-06
-3.86197e-06
3.7025e-06
-4.01868e-06
3.1161e-06
-4.08127e-06
2.36246e-06
-4.04169e-06
1.47038e-06
-3.89133e-06
4.47376e-07
-3.62039e-06
-7.1131e-07
-3.21801e-06
-2.01494e-06
-2.67372e-06
-3.46649e-06
-1.97869e-06
-5.05115e-06
-1.12793e-06
-6.72333e-06
-1.23825e-07
-8.39068e-06
1.02063e-06
-9.90402e-06
2.28413e-06
-1.10882e-05
3.63605e-06
-1.18717e-05
5.02305e-06
-1.22309e-05
6.38066e-06
-1.20249e-05
7.65159e-06
-1.11833e-05
8.78677e-06
-9.78252e-06
9.74803e-06
-7.96527e-06
1.05094e-05
-5.89907e-06
1.10571e-05
-3.75211e-06
1.13875e-05
-1.68376e-06
1.15074e-05
1.68482e-07
1.14333e-05
1.68094e-06
1.11948e-05
2.77964e-06
1.08332e-05
3.39699e-06
1.04006e-05
3.58917e-06
9.95211e-06
3.32229e-06
9.53557e-06
2.87238e-06
9.19358e-06
2.0177e-06
8.93318e-06
1.49502e-06
8.79837e-06
1.70525e-07
8.73584e-06
2.17357e-07
-3.6815e-06
8.41091e-06
5.67854e-05
5.72778e-06
3.38501e-05
3.19064e-06
1.74538e-05
1.50248e-06
9.0307e-06
5.2259e-07
4.44597e-06
-4.89881e-08
2.62866e-06
-3.99795e-07
1.52767e-06
-6.4167e-07
1.07483e-06
-8.09234e-07
7.53342e-07
-9.39654e-07
6.19294e-07
-1.04627e-06
5.63984e-07
-1.14634e-06
6.05662e-07
-1.24731e-06
6.95431e-07
-1.35092e-06
7.69076e-07
-1.4491e-06
7.4904e-07
-1.53073e-06
5.98207e-07
-1.5892e-06
3.68734e-07
-1.63193e-06
2.00719e-07
-1.684e-06
2.7292e-07
-1.78221e-06
7.07491e-07
-1.95767e-06
1.49907e-06
-2.21722e-06
2.49799e-06
-2.53764e-06
3.46045e-06
-2.87743e-06
4.15043e-06
-3.19528e-06
4.43972e-06
-3.46128e-06
4.33009e-06
-3.65723e-06
3.89845e-06
-3.77197e-06
3.23084e-06
-3.79702e-06
2.38751e-06
-3.72422e-06
1.39758e-06
-3.54474e-06
2.67903e-07
-3.24849e-06
-1.00757e-06
-2.82455e-06
-2.43888e-06
-2.26251e-06
-4.02853e-06
-1.55343e-06
-5.76024e-06
-6.9193e-07
-7.58483e-06
3.20205e-07
-9.40281e-06
1.47108e-06
-1.10549e-05
2.73984e-06
-1.2357e-05
4.09219e-06
-1.3224e-05
5.47165e-06
-1.36104e-05
6.81549e-06
-1.33688e-05
8.06908e-06
-1.24369e-05
9.186e-06
-1.08994e-05
1.01307e-05
-8.91e-06
1.08799e-05
-6.64825e-06
1.14219e-05
-4.29405e-06
1.17547e-05
-2.01662e-06
1.18855e-05
3.77034e-08
1.18289e-05
1.73752e-06
1.16105e-05
2.99801e-06
1.12664e-05
3.74115e-06
1.0844e-05
4.01154e-06
1.03955e-05
3.77077e-06
9.9697e-06
3.29821e-06
9.6103e-06
2.3771e-06
9.32967e-06
1.77565e-06
9.16987e-06
3.30334e-07
9.08482e-06
3.02403e-07
-3.76984e-06
8.73751e-06
5.80478e-05
6.31096e-06
3.62767e-05
3.78729e-06
1.99775e-05
1.95847e-06
1.08595e-05
8.28407e-07
5.57604e-06
1.56212e-07
3.30085e-06
-2.62956e-07
1.94684e-06
-5.49776e-07
1.36165e-06
-7.49126e-07
9.52692e-07
-9.02093e-07
7.7226e-07
-1.0242e-06
6.86096e-07
-1.13449e-06
7.15945e-07
-1.24181e-06
8.02749e-07
-1.3499e-06
8.77173e-07
-1.45264e-06
8.51776e-07
-1.54024e-06
6.85807e-07
-1.60589e-06
4.34384e-07
-1.655e-06
2.49833e-07
-1.70954e-06
3.27458e-07
-1.80305e-06
8.00997e-07
-1.96386e-06
1.65988e-06
-2.19708e-06
2.73121e-06
-2.47996e-06
3.74333e-06
-2.77435e-06
4.44482e-06
-3.04382e-06
4.70919e-06
-3.26266e-06
4.54893e-06
-3.41505e-06
4.05084e-06
-3.49061e-06
3.3064e-06
-3.48086e-06
2.37776e-06
-3.37735e-06
1.29407e-06
-3.17094e-06
6.14931e-08
-2.85124e-06
-1.32727e-06
-2.40731e-06
-2.88281e-06
-1.82878e-06
-4.60706e-06
-1.10656e-06
-6.48246e-06
-2.35035e-07
-8.45635e-06
7.84376e-07
-1.04222e-05
1.94035e-06
-1.22109e-05
3.21176e-06
-1.36284e-05
4.56107e-06
-1.45733e-05
5.92971e-06
-1.4979e-05
7.25644e-06
-1.46955e-05
8.48874e-06
-1.36692e-05
9.58256e-06
-1.19933e-05
1.05049e-05
-9.83234e-06
1.12349e-05
-7.37827e-06
1.17632e-05
-4.82235e-06
1.20898e-05
-2.34318e-06
1.22225e-05
-9.50221e-08
1.21754e-05
1.78457e-06
1.19715e-05
3.20198e-06
1.1642e-05
4.07059e-06
1.12301e-05
4.42351e-06
1.07839e-05
4.21694e-06
1.03519e-05
3.73015e-06
9.97803e-06
2.75102e-06
9.67948e-06
2.0742e-06
9.49556e-06
5.14249e-07
9.38831e-06
4.09651e-07
-3.80985e-06
9.02273e-06
5.90251e-05
6.85954e-06
3.84399e-05
4.39591e-06
2.24411e-05
2.45831e-06
1.27971e-05
1.18235e-06
6.852e-06
4.01457e-07
4.08174e-06
-9.29901e-08
2.44128e-06
-4.29615e-07
1.69828e-06
-6.6452e-07
1.1876e-06
-8.42664e-07
9.50405e-07
-9.82036e-07
8.25468e-07
-1.10347e-06
8.37382e-07
-1.21747e-06
9.16741e-07
-1.33009e-06
9.89801e-07
-1.43748e-06
9.59166e-07
-1.53135e-06
7.79677e-07
-1.60448e-06
5.07511e-07
-1.65981e-06
3.05164e-07
-1.71554e-06
3.83189e-07
-1.80155e-06
8.87004e-07
-1.94364e-06
1.80198e-06
-2.14622e-06
2.93379e-06
-2.38837e-06
3.98548e-06
-2.6361e-06
4.69254e-06
-2.8578e-06
4.93089e-06
-3.03128e-06
4.72241e-06
-3.14239e-06
4.16195e-06
-3.18111e-06
3.34513e-06
-3.13872e-06
2.33537e-06
-3.0064e-06
1.16174e-06
-2.77462e-06
-1.70285e-07
-2.43275e-06
-1.66914e-06
-1.96984e-06
-3.34571e-06
-1.37553e-06
-5.20138e-06
-6.4062e-07
-7.21736e-06
2.4063e-07
-9.3376e-06
1.26689e-06
-1.14485e-05
2.427e-06
-1.3371e-05
3.69905e-06
-1.49005e-05
5.04276e-06
-1.59171e-05
6.39822e-06
-1.63345e-05
7.70537e-06
-1.60026e-05
8.91342e-06
-1.48773e-05
9.98046e-06
-1.30603e-05
1.08759e-05
-1.07278e-05
1.15814e-05
-8.08374e-06
1.20898e-05
-5.33075e-06
1.2403e-05
-2.65639e-06
1.25302e-05
-2.22208e-07
1.24855e-05
1.82928e-06
1.229e-05
3.39747e-06
1.19716e-05
4.38901e-06
1.15688e-05
4.82623e-06
1.1126e-05
4.65978e-06
1.06901e-05
4.16601e-06
1.03041e-05
3.13702e-06
9.98966e-06
2.38868e-06
9.78282e-06
7.2108e-07
9.65373e-06
5.3875e-07
-3.80472e-06
9.27067e-06
5.97545e-05
7.37041e-06
4.03401e-05
5.00665e-06
2.48049e-05
2.99569e-06
1.48081e-05
1.58383e-06
8.26385e-06
6.88588e-07
4.97699e-06
1.11961e-07
3.01791e-06
-2.7961e-07
2.08985e-06
-5.54131e-07
1.46212e-06
-7.60365e-07
1.15664e-06
-9.19091e-07
9.84195e-07
-1.05298e-06
9.71266e-07
-1.17427e-06
1.03804e-06
-1.29167e-06
1.1072e-06
-1.40383e-06
1.07133e-06
-1.50413e-06
8.79973e-07
-1.58483e-06
5.88215e-07
-1.6461e-06
3.66432e-07
-1.7019e-06
4.38988e-07
-1.77815e-06
9.63248e-07
-1.8984e-06
1.92223e-06
-2.06732e-06
3.10271e-06
-2.26685e-06
4.18502e-06
-2.46766e-06
4.89335e-06
-2.64267e-06
5.1059e-06
-2.77261e-06
4.85236e-06
-2.84448e-06
4.23382e-06
-2.8483e-06
3.34895e-06
-2.77499e-06
2.26206e-06
-2.61531e-06
1.00206e-06
-2.35932e-06
-4.26274e-07
-1.99618e-06
-2.03229e-06
-1.51495e-06
-3.82695e-06
-9.05216e-07
-5.81111e-06
-1.57759e-07
-7.96482e-06
7.33161e-07
-1.02285e-05
1.76607e-06
-1.24814e-05
2.92962e-06
-1.45345e-05
4.2008e-06
-1.61717e-05
5.53703e-06
-1.72533e-05
6.87754e-06
-1.7675e-05
8.16322e-06
-1.72883e-05
9.34469e-06
-1.60587e-05
1.0382e-05
-1.40977e-05
1.12471e-05
-1.15928e-05
1.19237e-05
-8.76043e-06
1.24073e-05
-5.81429e-06
1.27015e-05
-2.95062e-06
1.2817e-05
-3.37671e-07
1.27683e-05
1.87793e-06
1.25757e-05
3.59005e-06
1.22643e-05
4.70042e-06
1.18689e-05
5.22166e-06
1.14295e-05
5.09922e-06
1.09911e-05
4.60437e-06
1.0595e-05
3.5331e-06
1.02664e-05
2.71734e-06
1.0038e-05
9.49402e-07
9.88753e-06
6.89267e-07
-3.75791e-06
9.48528e-06
6.02692e-05
7.84179e-06
4.19836e-05
5.61058e-06
2.70361e-05
3.56324e-06
1.68554e-05
2.03107e-06
9.79603e-06
1.01903e-06
5.98903e-06
3.53967e-07
3.68297e-06
-9.80642e-08
2.54188e-06
-4.16498e-07
1.78055e-06
-6.53991e-07
1.39413e-06
-8.3451e-07
1.16471e-06
-9.82488e-07
1.11924e-06
-1.11203e-06
1.16758e-06
-1.2346e-06
1.22977e-06
-1.35167e-06
1.1884e-06
-1.4584e-06
9.86701e-07
-1.54661e-06
6.76424e-07
-1.6135e-06
4.33325e-07
-1.6685e-06
4.93985e-07
-1.73333e-06
1.02808e-06
-1.82957e-06
2.01847e-06
-1.96289e-06
3.23603e-06
-2.11891e-06
4.34104e-06
-2.27317e-06
5.04761e-06
-2.40282e-06
5.23554e-06
-2.49097e-06
4.94051e-06
-2.52538e-06
4.26822e-06
-2.49593e-06
3.3195e-06
-2.3931e-06
2.15923e-06
-2.2072e-06
8.16163e-07
-1.92788e-06
-7.05595e-07
-1.54409e-06
-2.41607e-06
-1.04493e-06
-4.32611e-06
-4.19933e-07
-6.4361e-06
3.40136e-07
-8.72489e-06
1.24082e-06
-1.11292e-05
2.28032e-06
-1.35209e-05
3.44686e-06
-1.5701e-05
4.71605e-06
-1.74409e-05
6.04339e-06
-1.85806e-05
7.36758e-06
-1.89992e-05
8.63023e-06
-1.8551e-05
9.78319e-06
-1.72117e-05
1.07885e-05
-1.5103e-05
1.16202e-05
-1.24245e-05
1.22648e-05
-9.40497e-06
1.27195e-05
-6.26905e-06
1.29902e-05
-3.22132e-06
1.30889e-05
-4.36353e-07
1.3031e-05
1.93583e-06
1.28363e-05
3.78477e-06
1.25279e-05
5.00883e-06
1.21373e-05
5.61222e-06
1.17007e-05
5.53585e-06
1.12606e-05
5.04446e-06
1.08561e-05
3.9376e-06
1.05148e-05
3.05864e-06
1.02666e-05
1.19764e-06
1.00952e-05
8.60651e-07
-3.67284e-06
9.67029e-06
6.05989e-05
8.27307e-06
4.33808e-05
6.19993e-06
2.91092e-05
4.15296e-06
1.89024e-05
2.52095e-06
1.1428e-05
1.39356e-06
7.11642e-06
6.35061e-07
4.44147e-06
1.1696e-07
3.05998e-06
-2.49994e-07
2.14751e-06
-5.22126e-07
1.66626e-06
-7.27209e-07
1.3698e-06
-8.91282e-07
1.28332e-06
-1.03032e-06
1.30662e-06
-1.15867e-06
1.35812e-06
-1.28075e-06
1.31048e-06
-1.3938e-06
1.09974e-06
-1.48931e-06
7.71937e-07
-1.56155e-06
5.05563e-07
-1.61519e-06
5.47631e-07
-1.66761e-06
1.0805e-06
-1.73854e-06
2.0894e-06
-1.83527e-06
3.33275e-06
-1.94763e-06
4.4534e-06
-2.05613e-06
5.15612e-06
-2.14182e-06
5.32123e-06
-2.18981e-06
4.9885e-06
-2.18832e-06
4.26673e-06
-2.12697e-06
3.25816e-06
-1.99576e-06
2.02802e-06
-1.78455e-06
6.04952e-07
-1.48257e-06
-1.00757e-06
-1.07862e-06
-2.82002e-06
-5.61747e-07
-4.84298e-06
7.8535e-08
-7.07639e-06
8.51378e-07
-9.49773e-06
1.762e-06
-1.20398e-05
2.80817e-06
-1.45671e-05
3.97742e-06
-1.68703e-05
5.24381e-06
-1.87073e-05
6.56116e-06
-1.9898e-05
7.86785e-06
-2.03059e-05
9.10609e-06
-1.97892e-05
1.02289e-05
-1.83345e-05
1.12002e-05
-1.60743e-05
1.19963e-05
-1.32207e-05
1.2606e-05
-1.00147e-05
1.30288e-05
-6.69188e-06
1.32724e-05
-3.4649e-06
1.33502e-05
-5.14155e-07
1.32786e-05
2.0074e-06
1.30774e-05
3.98603e-06
1.27682e-05
5.318e-06
1.23799e-05
6.00049e-06
1.19451e-05
5.9707e-06
1.15036e-05
5.486e-06
1.10919e-05
4.34926e-06
1.07393e-05
3.41121e-06
1.04728e-05
1.46418e-06
1.02812e-05
1.05221e-06
-3.55286e-06
9.82922e-06
6.07697e-05
8.66456e-06
4.45455e-05
6.7681e-06
3.10057e-05
4.7565e-06
2.0914e-05
3.0491e-06
1.31354e-05
1.81209e-06
8.35342e-06
9.56904e-07
5.29666e-06
3.67342e-07
3.64954e-06
-5.27704e-08
2.56762e-06
-3.63156e-07
1.97665e-06
-5.9587e-07
1.60251e-06
-7.78379e-07
1.46582e-06
-9.28508e-07
1.45675e-06
-1.06342e-06
1.49303e-06
-1.19068e-06
1.43774e-06
-1.30983e-06
1.21889e-06
-1.41237e-06
8.74471e-07
-1.48974e-06
5.82941e-07
-1.54184e-06
5.99726e-07
-1.58148e-06
1.12013e-06
-1.62663e-06
2.13455e-06
-1.68655e-06
3.39268e-06
-1.75566e-06
4.52251e-06
-1.81947e-06
5.21993e-06
-1.86262e-06
5.36437e-06
-1.87192e-06
4.99781e-06
-1.8359e-06
4.23071e-06
-1.74385e-06
3.1661e-06
-1.58523e-06
1.8694e-06
-1.34944e-06
3.69166e-07
-1.02533e-06
-1.33168e-06
-6.01532e-07
-3.24383e-06
-6.70546e-08
-5.37746e-06
5.88623e-07
-7.73206e-06
1.37445e-06
-1.02836e-05
2.29525e-06
-1.29606e-05
3.34826e-06
-1.56201e-05
4.52006e-06
-1.80421e-05
5.78304e-06
-1.99702e-05
7.0895e-06
-2.12044e-05
8.3776e-06
-2.1594e-05
9.59011e-06
-2.10017e-05
1.06812e-05
-1.94256e-05
1.16167e-05
-1.70098e-05
1.23753e-05
-1.39792e-05
1.2948e-05
-1.05874e-05
1.33365e-05
-7.08035e-06
1.35501e-05
-3.67853e-06
1.36038e-05
-5.67813e-07
1.35149e-05
2.0963e-06
1.33033e-05
4.19762e-06
1.29899e-05
5.63137e-06
1.26014e-05
6.38903e-06
1.2167e-05
6.40506e-06
1.17239e-05
5.92907e-06
1.13061e-05
4.76712e-06
1.09434e-05
3.77387e-06
1.06602e-05
1.7474e-06
1.04493e-05
1.26314e-06
-3.40111e-06
9.96532e-06
6.08043e-05
9.01733e-06
4.54935e-05
7.30975e-06
3.27133e-05
5.36554e-06
2.28582e-05
3.61e-06
1.4891e-05
2.27354e-06
9.68988e-06
1.32071e-06
6.24948e-06
6.54906e-07
4.31535e-06
1.7708e-07
3.04544e-06
-1.75304e-07
2.32903e-06
-4.38959e-07
1.86617e-06
-6.42551e-07
1.66942e-06
-8.05685e-07
1.61988e-06
-9.48198e-07
1.63555e-06
-1.08088e-06
1.57043e-06
-1.2059e-06
1.34391e-06
-1.31513e-06
9.83695e-07
-1.39753e-06
6.65346e-07
-1.44823e-06
6.5042e-07
-1.47534e-06
1.14724e-06
-1.49499e-06
2.1542e-06
-1.51858e-06
3.41626e-06
-1.5453e-06
4.54923e-06
-1.56565e-06
5.24028e-06
-1.56766e-06
5.36639e-06
-1.53965e-06
4.96979e-06
-1.4703e-06
4.16137e-06
-1.34854e-06
3.04434e-06
-1.16333e-06
1.68418e-06
-9.03578e-07
1.09414e-07
-5.57758e-07
-1.6775e-06
-1.14336e-07
-3.68725e-06
4.37739e-07
-5.92953e-06
1.10896e-06
-8.40328e-06
1.90801e-06
-1.10826e-05
2.83928e-06
-1.38919e-05
3.89935e-06
-1.66802e-05
5.07363e-06
-1.92164e-05
6.33268e-06
-2.12293e-05
7.62739e-06
-2.24992e-05
8.89578e-06
-2.28624e-05
1.00812e-05
-2.21871e-05
1.1139e-05
-2.04834e-05
1.20372e-05
-1.79079e-05
1.27566e-05
-1.46987e-05
1.32906e-05
-1.11214e-05
1.36429e-05
-7.43261e-06
1.38244e-05
-3.86006e-06
1.38514e-05
-5.94798e-07
1.37423e-05
2.20544e-06
1.35172e-05
4.42266e-06
1.31967e-05
5.95194e-06
1.28054e-05
6.78028e-06
1.23701e-05
6.84032e-06
1.19252e-05
6.37405e-06
1.15018e-05
5.1905e-06
1.113e-05
4.14563e-06
1.08317e-05
2.04577e-06
1.06022e-05
1.49256e-06
-3.2205e-06
1.00816e-05
6.07227e-05
9.33305e-06
4.6242e-05
7.82077e-06
3.42256e-05
5.97204e-06
2.47069e-05
4.19717e-06
1.66658e-05
2.77563e-06
1.11114e-05
1.72708e-06
7.29803e-06
9.81395e-07
5.06103e-06
4.41637e-07
3.5852e-06
4.33063e-08
2.72736e-06
-2.54754e-07
2.16423e-06
-4.82333e-07
1.897e-06
-6.60727e-07
1.79828e-06
-8.12149e-07
1.78697e-06
-9.5066e-07
1.70894e-06
-1.08133e-06
1.47458e-06
-1.1969e-06
1.09927e-06
-1.28431e-06
7.52752e-07
-1.33407e-06
7.00181e-07
-1.34947e-06
1.16264e-06
-1.34458e-06
2.14931e-06
-1.3329e-06
3.40458e-06
-1.31847e-06
4.53481e-06
-1.29674e-06
5.21854e-06
-1.25899e-06
5.32864e-06
-1.1949e-06
4.90569e-06
-1.0933e-06
4.05977e-06
-9.42719e-07
2.89377e-06
-7.31611e-07
1.47307e-06
-4.48394e-07
-1.73803e-07
-8.11812e-08
-2.04471e-06
3.81721e-07
-4.15015e-06
9.51425e-07
-6.49924e-06
1.63834e-06
-9.0902e-06
2.45089e-06
-1.18952e-05
3.39296e-06
-1.48339e-05
4.46033e-06
-1.77475e-05
5.63703e-06
-2.03931e-05
6.89167e-06
-2.24839e-05
8.17374e-06
-2.37812e-05
9.42116e-06
-2.41098e-05
1.0578e-05
-2.33439e-05
1.1601e-05
-2.15064e-05
1.24602e-05
-1.87672e-05
1.31391e-05
-1.53776e-05
1.36332e-05
-1.16155e-05
1.39479e-05
-7.74731e-06
1.40958e-05
-4.00796e-06
1.40943e-05
-5.93253e-07
1.39626e-05
2.33705e-06
1.37216e-05
4.66373e-06
1.33912e-05
6.28228e-06
1.2995e-05
7.17648e-06
1.25574e-05
7.27793e-06