/*--------------------------------*- C++ -*----------------------------------*\
| =========                 |                                                 |
| \\      /  F ield         | OpenFOAM: The Open Source CFD Toolbox           |
|  \\    /   O peration     | Version:  2.4.0                                 |
|   \\  /    A nd           | Web:      www.OpenFOAM.org                      |
|    \\/     M anipulation  |                                                 |
\*---------------------------------------------------------------------------*/
FoamFile
{
    version     2.0;
    format      ascii;
    class       volScalarField;
    location    "60";
    object      sigmaEq;
}
// * * * * * * * * * * * * * * * * * * * * * * * * * * * * * * * * * * * * * //

dimensions      [1 -1 -2 0 0 0 0];

internalField   nonuniform List<scalar> 
1000
(
10586.3
11669.9
13224.3
14205.2
14704.6
14886.2
14869.3
14732.7
14535.9
14271.6
13523.2
13246.4
14036.7
14641.3
14942.1
15011.3
14927.7
14751.2
14528.8
14244.5
16360.8
14816.4
14782.7
14942.2
15000.2
14933.4
14773.1
14554.6
14310.4
14025.8
19024.6
16320
15454.1
15124.9
14905.3
14681.3
14433.6
14169.1
13902.3
13616.8
21447.6
17705.9
16043.4
15210.4
14690.9
14293.1
13947.8
13631.7
13340.4
13053.9
23568.8
18929.5
16544
15223.3
14398.5
13817.6
13367.4
12995.3
12677.9
12390
25335.3
19953.9
16951
15190
14075.3
13313.9
12757.3
12327.7
11983.5
11693.2
26699.4
20749.5
17261
15136
13770.3
12846.5
12191.8
11708.2
11338.8
11045.5
27616.4
21292.8
17468.4
15080.9
13527.8
12479.6
11748.1
11221.8
10832.9
10537.6
28072.9
21569.2
17549.5
15014.1
13358
12241.7
11468.3
10919.6
10522.1
10230.7
10351.9
6629.02
4600.82
3659.98
3359.24
3424.38
3679.74
4021
4391.34
4761.53
10042.3
6501.81
4976.25
4470.67
4408.37
4538.22
4757.19
5017.75
5293.42
5570.31
9131.97
6336.9
5657.64
5707.06
5903.92
6109.76
6304.12
6488.22
6663.63
6836.53
7771.89
6171.61
6517.99
7077.32
7489.17
7762.16
7944.77
8073.32
8169.51
8255.19
6034.19
6108.31
7473.2
8448.01
9027.12
9352.41
9526.29
9611.35
9644.08
9657.72
4025.65
6275.42
8470.23
9747.59
10445.6
10805.1
10967.5
11014.8
10994.3
10946.9
2128.58
6771.3
9476
10934.2
11700.3
12072.9
12217.6
12228.9
12161.9
12061.5
2381.24
7620.74
10468
11983
12764
13126.3
13244.7
13219.8
13110.7
12962.8
4789.06
8775.16
11430.7
12880.1
13621.6
13949.2
14032.1
13970.1
13823.4
13634
7634.94
10153.9
12352.9
13620.6
14267.9
14535.7
14574.4
14476.2
14299.9
14100.4
5104.11
5413.18
5693.81
5946.72
6171.97
6369.88
6540.93
6685.68
6804.57
6897.87
6965.53
7007.21
7022.16
7009.28
6967.03
6893.5
6786.66
6645.22
6471.54
6295.26
5786.15
5961.61
6139.45
6311.85
6473.15
6619.82
6749.52
6860.68
6952.12
7022.85
7071.9
7098.18
7100.45
7077.22
7026.78
6947.3
6836.84
6693.1
6511.4
6302.97
6900.54
6900.81
6928.23
6973.9
7029.11
7087.37
7143.55
7193.54
7234.01
7262.18
7275.63
7272.12
7249.5
7205.58
7138.15
7044.81
6922.91
6768.88
6577.55
6364.85
8183.29
8020.64
7897.45
7808.93
7746.04
7701.59
7669.24
7643.36
7619.05
7592.03
7558.51
7515.12
7458.71
7386.28
7294.9
7181.54
7042.97
6875.55
6675.57
6461.25
9473.91
9178.64
8924.06
8713.48
8538.68
8393.09
8270.51
8164.95
8070.84
7983.01
7896.8
7807.93
7712.45
7606.68
7487.07
7350.17
7192.63
7011.25
6803.48
6587.8
10676.6
10285.1
9925.77
9613.77
9342.26
9106.02
8899.85
8718.31
8555.9
8407.26
8267.33
8131.36
7994.93
7853.87
7704.35
7542.77
7365.89
7171.1
6956.79
6741.19
11730.8
11282
10847.9
10458.9
10110.2
9798.38
9520.02
9270.79
9045.91
8840.38
8649.24
8467.66
8291.09
8115.24
7936.22
7750.52
7555.32
7348.63
7129.91
6917.35
12597.4
12130.7
11653.2
11213.2
10808.6
10438.9
10102.4
9796.59
9517.82
9262.03
9024.62
8801.23
8587.36
8379.03
8172.42
7964.54
7753
7536.85
7316.73
7111.45
13250.2
12800.1
12308.9
11843.6
11405.9
10997.5
10619.5
10270.8
9949.44
9652.42
9376.21
9116.87
8870.61
8633.68
8402.96
8175.83
7950.99
7728.47
7511.31
7317.97
13698
13266.5
12779.6
12312.5
11865.7
11441
11040.5
10665.4
10315.2
9988.61
9683.19
9396.07
9124.22
8864.66
8614.94
8373.33
8139.54
7915.4
7706.23
7532.26
14002.4
13488.4
13014.9
12560.1
12120.3
11697.7
11294.6
10912.7
10552.6
10213.8
9894.89
9594.08
9309.12
9038.09
8779.35
8532.35
8297.85
8079.22
7884.01
7732.62
13677.4
13367.6
12979.2
12579.3
12178.7
11784.5
11401.1
11032.1
10679.2
10343.3
10024.4
9721.68
9434.19
9161.08
8901.93
8657.24
8429.06
8222.09
8045.06
7917.34
13341.6
13128.9
12825.6
12488.6
12135.3
11777.4
11422
11074.1
10736.9
10412.4
10101.5
9804.56
9521.81
9253.43
9000.08
8763.36
8546.45
8354.98
8198.82
8095.12
12994.1
12843.9
12606.8
12328.6
12024
11705.8
11382.7
11060.8
10744.5
10436.7
10139.2
9853.58
9580.78
9322.02
9078.92
8854.04
8651.45
8477.7
8342.71
8261.65
12636.3
12533.6
12348.3
12120.7
11862.1
11583.9
11294.9
11002
10710.1
10422.9
10143.2
9872.99
9614.31
9369.11
9139.84
8929.83
8743.84
8588.72
8474.73
8414.86
12274.7
12209.4
12066.5
11881.9
11664.8
11424.6
11169.8
10907.1
10641.7
10377.8
10118.7
9867.2
9625.82
9397.23
9184.51
8991.55
8823.52
8687.62
8593.6
8552.78
11915.7
11879.9
11772.1
11624.2
11443.8
11239
11017.1
10784.6
10546.6
10307.6
10071.2
9840.59
9618.81
9409.01
9214.73
9040.26
8890.99
8773.9
8698.65
8674.62
11564.4
11551.6
11472.8
11356.3
11208.4
11035.9
10845.2
10642.1
10431.7
10218.3
10005.7
9797.34
9596.63
9407.03
9232.38
9077.14
8946.71
8847.99
8789.7
8779.73
11224.3
11229.1
11174.4
11084.8
10965.6
10822.3
10660.8
10486
10302.6
10114.9
9926.61
9741.27
9562.42
9393.75
9239.23
9103.41
8991.56
8909.98
8866.96
8868.59
10897.4
10915.5
10880.9
10814.5
10720.6
10604
10469.5
10321.7
10164.6
10002.2
9838.12
9675.89
9519.08
9371.45
9237.03
9120.29
9026.24
8960.82
8931
8941.63
10584.5
10612.8
10595
10548.7
10477.5
10385.3
10276.1
10153.7
10021.9
9884.14
9743.85
9604.4
9469.3
9342.28
9227.38
9128.96
9051.76
9000.91
8982.71
9000.31
10285.5
10321.9
10318.6
10290.2
10239.5
10169.7
10084.1
9985.91
9878.29
9764.34
9647.11
9529.75
9415.61
9308.33
9211.9
9130.58
9068.85
9031.43
9023.08
9045.84
9999.82
10043.3
10053
10040.9
10009.2
9960.35
9896.95
9821.68
9737.16
9646.04
9550.97
9454.77
9360.53
9271.71
9192.21
9126.34
9078.51
9052.78
9053.33
9080.29
9726.88
9777.19
9799.28
9802.65
9788.9
9759.85
9717.55
9664.09
9601.62
9532.28
9458.34
9382.21
9306.61
9234.69
9170.21
9117.55
9081.38
9066.02
9074.38
9105.24
9466.07
9523.99
9558.62
9577.27
9580.98
9571.03
9548.9
9516.21
9474.64
9425.95
9371.99
9314.76
9256.49
9199.86
9148.26
9106.08
9078.6
9071
9087
9123.04
9217.41
9284.6
9332.78
9367.2
9388.35
9397.04
9394.27
9381.25
9359.31
9329.91
9294.57
9254.94
9212.75
9170.05
9129.45
9094.81
9071.85
9068.44
9090.7
9135.2
8981.82
9060.93
9124.52
9175.79
9214.77
9241.78
9257.49
9262.82
9258.89
9246.99
9228.5
9204.85
9177.49
9147.8
9117.31
9088.31
9065.67
9059.33
9084.32
9143.92
8761.79
8856.49
8938.19
9007.95
9065.33
9110.3
9143.34
9165.22
9177.05
9180.11
9175.9
9165.92
9151.64
9134.23
9114.38
9092.09
9068.69
9052.9
9068.93
9148.91
8562.43
8677.58
8780.84
8871.01
8947.3
9009.55
9058.15
9093.96
9118.24
9132.58
9138.76
9138.75
9134.44
9127.58
9119.1
9108.36
9092.9
9072.4
9067.28
9150.3
8396.9
8537.69
8665.18
8776.71
8871.39
8949.06
9010.19
9055.93
9087.92
9108.24
9119.27
9123.64
9124.04
9123.25
9123.95
9128.78
9139.29
9154.26
9165.65
9131.71
10006.9
10286.4
10761.8
11373.6
12037.6
12678.4
13233.7
13655.8
13911.6
13980.9
9816.68
10058.5
10481.8
11036.7
11651.9
12262.9
12815.6
13267.2
13586.6
13710.5
9656.37
9865.49
10237.6
10732.4
11289.8
11854.8
12380.6
12829.8
13172.7
13337.9
9519.91
9701.34
10027.4
10466.6
10968.5
11486.2
11979.5
12415.2
12764.8
12960.7
9400.25
9557.78
9842.68
10230.5
10679.3
11149.5
11606.1
12020.2
12364.8
12580
9291.42
9428.25
9676.67
10017.8
10416.9
10840.5
11258.6
11645.7
11977.4
12201.2
9188.59
9307.58
9523.99
9823.34
10176.8
10556.2
10935.7
11293.1
11606.3
11830.3
9087.94
9191.59
9380.15
9642.53
9954.81
10293.1
10635.3
10962
11253.7
11471.6
8986.25
9076.81
9241.28
9471.27
9746.79
10047.6
10354.8
10651.3
10920.1
11127.7
8880.77
8960.2
9103.98
9305.82
9548.93
9816.12
10091
10358.9
10604.8
10799.8
8768.9
8838.95
8965.09
9142.7
9357.56
9594.99
9840.84
10082.2
10306
10487.5
8648.1
8710.34
8821.62
8978.61
9169.17
9380.68
9600.87
9818.43
10021.9
10190.1
8515.7
8571.61
8670.58
8810.31
8980.32
9169.71
9367.79
9564.59
9750.04
9906.07
8368.83
8419.81
8508.88
8634.49
8787.54
8958.63
9138.35
9317.83
9488.14
9633.96
8204.18
8251.73
8333.2
8447.66
8587.28
8743.95
8909.33
9075.36
9234.01
9372.33
8018.02
8063.77
8139.81
8245.92
8375.69
8522.1
8677.6
8834.64
8985.83
9120.26
7806.09
7851.86
7924.21
8024.72
8148.53
8289.39
8440.11
8593.44
8742.35
8877.61
7564.36
7610.73
7680.35
7778.41
7901.06
8042.01
8194.05
8350.07
8503.18
8645.55
7291.89
7331.42
7399.3
7500.05
7628.07
7776.2
7937.1
8103.69
8269.25
8427.34
7008.23
7006.5
7079.82
7191.85
7333.02
7496.34
7674.87
7861.43
8049.22
8234.27
)
;

boundaryField
{
    left
    {
        type            symmetryPlane;
    }
    right
    {
        type            calculated;
        value           nonuniform List<scalar> 
30
(
6284.62
6286.95
6348.97
6446.01
6573.04
6726.86
6903.58
7098.44
7305.78
7521.88
7723.5
7909.61
8088.68
8256.49
8410.77
8549.79
8672.5
8778.5
8867.97
8941.67
9000.76
9046.8
9081.58
9107.11
9125.5
9139.06
9150.16
9159.63
9161.7
9107.2
)
;
    }
    down
    {
        type            symmetryPlane;
    }
    up
    {
        type            calculated;
        value           nonuniform List<scalar> 
30
(
7002
6997.25
7070.7
7183.13
7324.61
7488.22
7667.05
7853.97
8042.17
8228.06
8391.4
8532.83
8661
8773.14
8868.39
8946.55
9008.14
9054.27
9086.61
9107.24
9118.57
9123.23
9123.97
9123.54
9124.8
9130.74
9143.47
9161.74
9173.19
9114.07
)
;
    }
    hole
    {
        type            calculated;
        value           nonuniform List<scalar> 
20
(
10615.5
13666.7
16602.7
19352.9
21851.2
24037
25856.2
27260
28201.7
28673.2
10564.4
10250.9
9300.59
7869.62
6018.71
3801.51
1273.14
1504.35
4459.26
7521.59
)
;
    }
    frontAndBack
    {
        type            empty;
    }
}


// ************************************************************************* //
