/*--------------------------------*- C++ -*----------------------------------*\
| =========                 |                                                 |
| \\      /  F ield         | OpenFOAM: The Open Source CFD Toolbox           |
|  \\    /   O peration     | Version:  2.4.0                                 |
|   \\  /    A nd           | Web:      www.OpenFOAM.org                      |
|    \\/     M anipulation  |                                                 |
\*---------------------------------------------------------------------------*/
FoamFile
{
    version     2.0;
    format      ascii;
    class       surfaceScalarField;
    location    "1.51";
    object      phi;
}
// * * * * * * * * * * * * * * * * * * * * * * * * * * * * * * * * * * * * * //

dimensions      [0 3 -1 0 0 0 0];

internalField   nonuniform List<scalar> 
11830
(
2.94679e-06
5.32099e-08
2.8769e-06
6.98929e-08
2.80965e-06
6.72439e-08
2.74328e-06
6.63695e-08
2.67869e-06
6.45922e-08
2.61757e-06
6.11211e-08
2.56084e-06
5.67299e-08
2.5088e-06
5.20451e-08
2.46148e-06
4.73189e-08
2.41878e-06
4.26992e-08
2.38047e-06
3.83088e-08
2.34624e-06
3.42322e-08
2.31572e-06
3.05147e-08
2.28855e-06
2.71726e-08
2.26435e-06
2.42029e-08
2.24276e-06
2.15906e-08
2.22344e-06
1.93129e-08
2.2061e-06
1.73432e-08
2.19045e-06
1.56531e-08
2.17623e-06
1.42138e-08
2.16324e-06
1.29971e-08
2.15126e-06
1.19757e-08
2.14014e-06
1.11239e-08
2.12972e-06
1.04174e-08
2.11988e-06
9.83442e-09
2.11053e-06
9.35503e-09
2.10157e-06
8.96126e-09
2.09293e-06
8.63786e-09
2.08456e-06
8.37215e-09
2.0764e-06
8.1541e-09
2.06843e-06
7.97635e-09
2.06059e-06
7.83425e-09
2.05287e-06
7.72578e-09
2.04522e-06
7.65167e-09
2.0376e-06
7.61539e-09
2.02998e-06
7.62345e-09
2.02229e-06
7.6856e-09
2.01448e-06
7.81537e-09
2.00645e-06
8.0307e-09
1.99809e-06
8.35492e-09
1.98927e-06
8.81799e-09
1.97981e-06
9.45819e-09
1.96949e-06
1.03244e-08
1.95801e-06
1.1479e-08
1.94501e-06
1.30021e-08
1.93001e-06
1.49962e-08
1.91242e-06
1.75938e-08
1.89145e-06
2.09658e-08
1.86612e-06
2.53348e-08
1.83513e-06
3.09912e-08
1.79681e-06
3.83157e-08
1.749e-06
4.78089e-08
1.68888e-06
6.0125e-08
1.61276e-06
7.61155e-08
1.51597e-06
9.67874e-08
1.39253e-06
1.23448e-07
1.23629e-06
1.56235e-07
1.03884e-06
1.97453e-07
7.94855e-07
2.43984e-07
2.37058e-07
5.57797e-07
3.02862e-06
2.45862e-08
3.05191e-06
4.66057e-08
3.06774e-06
5.14104e-08
3.07746e-06
5.66559e-08
3.08094e-06
6.11138e-08
3.07874e-06
6.33213e-08
3.07162e-06
6.38417e-08
3.06034e-06
6.3328e-08
3.0456e-06
6.20613e-08
3.02807e-06
6.02266e-08
3.00837e-06
5.80108e-08
2.98703e-06
5.55751e-08
2.9645e-06
5.30399e-08
2.94118e-06
5.04905e-08
2.9174e-06
4.7985e-08
2.89343e-06
4.5561e-08
2.8695e-06
4.32407e-08
2.84581e-06
4.10356e-08
2.82251e-06
3.895e-08
2.79974e-06
3.69837e-08
2.77761e-06
3.51341e-08
2.75619e-06
3.33973e-08
2.73554e-06
3.17689e-08
2.71571e-06
3.02449e-08
2.69673e-06
2.88219e-08
2.67858e-06
2.74969e-08
2.66128e-06
2.62669e-08
2.64479e-06
2.51293e-08
2.62908e-06
2.40822e-08
2.61411e-06
2.31241e-08
2.59983e-06
2.22543e-08
2.58619e-06
2.1473e-08
2.57313e-06
2.07823e-08
2.5606e-06
2.01857e-08
2.54852e-06
1.96895e-08
2.53684e-06
1.93035e-08
2.52549e-06
1.90414e-08
2.51438e-06
1.89224e-08
2.50344e-06
1.89726e-08
2.49257e-06
1.92267e-08
2.48166e-06
1.97302e-08
2.47057e-06
2.05424e-08
2.45916e-06
2.17407e-08
2.44721e-06
2.3425e-08
2.43449e-06
2.5725e-08
2.42067e-06
2.88091e-08
2.40537e-06
3.28962e-08
2.38806e-06
3.82732e-08
2.36808e-06
4.5317e-08
2.34455e-06
5.45278e-08
2.31629e-06
6.65752e-08
2.28173e-06
8.23616e-08
2.23873e-06
1.03127e-07
2.1843e-06
1.30542e-07
2.11411e-06
1.66987e-07
2.02224e-06
2.15318e-07
1.89836e-06
2.80114e-07
1.7343e-06
3.61507e-07
1.49477e-06
4.83515e-07
5.19894e-07
1.21193e-06
3.00532e-06
1.92658e-08
3.01285e-06
3.90794e-08
3.01981e-06
4.44436e-08
3.02758e-06
4.88871e-08
3.03534e-06
5.33531e-08
3.0425e-06
5.61649e-08
3.04882e-06
5.75192e-08
3.05413e-06
5.80212e-08
3.05826e-06
5.79252e-08
3.06115e-06
5.73394e-08
3.06277e-06
5.63932e-08
3.06313e-06
5.52134e-08
3.06227e-06
5.39e-08
3.06024e-06
5.25258e-08
3.05708e-06
5.11426e-08
3.05285e-06
4.97855e-08
3.04762e-06
4.84766e-08
3.04143e-06
4.72278e-08
3.03433e-06
4.60433e-08
3.02639e-06
4.4922e-08
3.01767e-06
4.38597e-08
3.00822e-06
4.28496e-08
2.9981e-06
4.1884e-08
2.98739e-06
4.09555e-08
2.97615e-06
4.00574e-08
2.96447e-06
3.91841e-08
2.9524e-06
3.83311e-08
2.94004e-06
3.74958e-08
2.92744e-06
3.66778e-08
2.91469e-06
3.58789e-08
2.90184e-06
3.51037e-08
2.88895e-06
3.43594e-08
2.87608e-06
3.36566e-08
2.86325e-06
3.30093e-08
2.85051e-06
3.24357e-08
2.83785e-06
3.19588e-08
2.82529e-06
3.16073e-08
2.81279e-06
3.14172e-08
2.80033e-06
3.14333e-08
2.78785e-06
3.17116e-08
2.77525e-06
3.23225e-08
2.76244e-06
3.33546e-08
2.74926e-06
3.49205e-08
2.73552e-06
3.71632e-08
2.72098e-06
4.02658e-08
2.70533e-06
4.44635e-08
2.68816e-06
5.00598e-08
2.66899e-06
5.74486e-08
2.64716e-06
6.71439e-08
2.62187e-06
7.98214e-08
2.59207e-06
9.63776e-08
2.55642e-06
1.18007e-07
2.51321e-06
1.4634e-07
2.46021e-06
1.8354e-07
2.39441e-06
2.32785e-07
2.31206e-06
2.97664e-07
2.20639e-06
3.85793e-07
2.07192e-06
4.95972e-07
1.88211e-06
6.73329e-07
7.63545e-07
1.63846e-06
3.00342e-06
1.5846e-08
3.00771e-06
3.47898e-08
3.01095e-06
4.12032e-08
3.01456e-06
4.52804e-08
3.01853e-06
4.93835e-08
3.0226e-06
5.20915e-08
3.02675e-06
5.33726e-08
3.03092e-06
5.3844e-08
3.03504e-06
5.38101e-08
3.03901e-06
5.33722e-08
3.04276e-06
5.2636e-08
3.04626e-06
5.17143e-08
3.04947e-06
5.06969e-08
3.05234e-06
4.96464e-08
3.05488e-06
4.86067e-08
3.05706e-06
4.76072e-08
3.05887e-06
4.66663e-08
3.0603e-06
4.57938e-08
3.06135e-06
4.4993e-08
3.06201e-06
4.42627e-08
3.06227e-06
4.35988e-08
3.06213e-06
4.29953e-08
3.06157e-06
4.24452e-08
3.06058e-06
4.19417e-08
3.05916e-06
4.14784e-08
3.05729e-06
4.10496e-08
3.05497e-06
4.06506e-08
3.05219e-06
4.0278e-08
3.04894e-06
3.99303e-08
3.04521e-06
3.96081e-08
3.041e-06
3.93143e-08
3.0363e-06
3.90548e-08
3.03112e-06
3.8839e-08
3.02545e-06
3.86803e-08
3.01929e-06
3.85971e-08
3.01263e-06
3.86139e-08
3.00548e-06
3.8763e-08
2.99781e-06
3.90857e-08
2.98961e-06
3.96358e-08
2.98084e-06
4.04815e-08
2.97145e-06
4.17103e-08
2.96137e-06
4.34339e-08
2.9505e-06
4.57948e-08
2.93868e-06
4.89756e-08
2.92574e-06
5.32098e-08
2.91141e-06
5.87977e-08
2.89534e-06
6.6126e-08
2.87709e-06
7.56947e-08
2.85608e-06
8.81536e-08
2.83155e-06
1.04351e-07
2.80253e-06
1.25404e-07
2.76775e-06
1.52787e-07
2.7256e-06
1.88488e-07
2.67404e-06
2.35097e-07
2.61044e-06
2.96387e-07
2.53171e-06
3.76391e-07
2.43316e-06
4.84349e-07
2.31142e-06
6.17705e-07
2.15297e-06
8.3178e-07
9.6617e-07
1.95035e-06
3.00258e-06
1.32661e-08
3.00624e-06
3.11331e-08
3.00912e-06
3.83159e-08
3.01204e-06
4.2368e-08
3.01515e-06
4.62694e-08
3.01826e-06
4.89867e-08
3.02133e-06
5.02965e-08
3.02441e-06
5.07623e-08
3.02749e-06
5.07332e-08
3.03054e-06
5.03229e-08
3.03355e-06
4.96283e-08
3.0365e-06
4.8759e-08
3.03939e-06
4.78048e-08
3.04221e-06
4.68276e-08
3.04495e-06
4.58696e-08
3.0476e-06
4.4959e-08
3.05015e-06
4.41134e-08
3.0526e-06
4.33421e-08
3.05495e-06
4.2648e-08
3.05718e-06
4.20299e-08
3.0593e-06
4.14837e-08
3.06129e-06
4.10037e-08
3.06315e-06
4.05836e-08
3.06487e-06
4.02171e-08
3.06645e-06
3.98985e-08
3.06788e-06
3.96232e-08
3.06914e-06
3.93874e-08
3.07023e-06
3.91891e-08
3.07113e-06
3.90283e-08
3.07183e-06
3.8907e-08
3.07232e-06
3.88301e-08
3.07257e-06
3.88056e-08
3.07256e-06
3.88453e-08
3.07228e-06
3.89657e-08
3.07169e-06
3.91888e-08
3.07076e-06
3.95438e-08
3.06945e-06
4.00686e-08
3.06772e-06
4.08121e-08
3.06552e-06
4.18372e-08
3.06278e-06
4.32242e-08
3.05941e-06
4.50763e-08
3.05532e-06
4.75251e-08
3.05038e-06
5.07394e-08
3.04442e-06
5.49353e-08
3.03724e-06
6.03902e-08
3.02857e-06
6.74611e-08
3.01809e-06
7.66079e-08
3.00536e-06
8.84257e-08
2.98983e-06
1.03687e-07
2.97078e-06
1.23398e-07
2.9473e-06
1.48881e-07
2.91822e-06
1.81871e-07
2.88202e-06
2.2469e-07
2.83678e-06
2.8034e-07
2.78003e-06
3.53138e-07
2.70883e-06
4.47585e-07
2.61921e-06
5.73973e-07
2.50803e-06
7.28879e-07
2.36893e-06
9.70883e-07
1.13848e-06
2.19662e-06
3.00198e-06
1.12875e-08
3.00526e-06
2.78521e-08
3.00808e-06
3.54906e-08
3.01084e-06
3.96176e-08
3.01376e-06
4.33429e-08
3.01668e-06
4.60644e-08
3.01954e-06
4.74444e-08
3.02234e-06
4.79545e-08
3.02511e-06
4.79677e-08
3.02782e-06
4.76129e-08
3.03047e-06
4.69774e-08
3.03306e-06
4.61648e-08
3.03561e-06
4.5264e-08
3.0381e-06
4.4337e-08
3.04054e-06
4.34255e-08
3.04294e-06
4.25581e-08
3.0453e-06
4.17529e-08
3.04762e-06
4.102e-08
3.04991e-06
4.03632e-08
3.05216e-06
3.97818e-08
3.05437e-06
3.92727e-08
3.05654e-06
3.8831e-08
3.05867e-06
3.8451e-08
3.06076e-06
3.81273e-08
3.06281e-06
3.78547e-08
3.0648e-06
3.76294e-08
3.06674e-06
3.74485e-08
3.06862e-06
3.7311e-08
3.07043e-06
3.72176e-08
3.07216e-06
3.71719e-08
3.07381e-06
3.71799e-08
3.07537e-06
3.72516e-08
3.07681e-06
3.74008e-08
3.07813e-06
3.76467e-08
3.0793e-06
3.80147e-08
3.08031e-06
3.85381e-08
3.08112e-06
3.92601e-08
3.08169e-06
4.02362e-08
3.08199e-06
4.1538e-08
3.08196e-06
4.32566e-08
3.08153e-06
4.55089e-08
3.08061e-06
4.84445e-08
3.07909e-06
5.22549e-08
3.07684e-06
5.71855e-08
3.07368e-06
6.35514e-08
3.06939e-06
7.1758e-08
3.06367e-06
8.23284e-08
3.05615e-06
9.59386e-08
3.04637e-06
1.13467e-07
3.03371e-06
1.36057e-07
3.01739e-06
1.65209e-07
2.99636e-06
2.02893e-07
2.96932e-06
2.51737e-07
2.93453e-06
3.15132e-07
2.88974e-06
3.97918e-07
2.83217e-06
5.05156e-07
2.75809e-06
6.48055e-07
2.66385e-06
8.2312e-07
2.54542e-06
1.08931e-06
1.28539e-06
2.39851e-06
3.00156e-06
9.72687e-09
3.00449e-06
2.49214e-08
3.00722e-06
3.27657e-08
3.00985e-06
3.69819e-08
3.01266e-06
4.05328e-08
3.01551e-06
4.32136e-08
3.01831e-06
4.46493e-08
3.02105e-06
4.52081e-08
3.02375e-06
4.52689e-08
3.02639e-06
4.49763e-08
3.02896e-06
4.44105e-08
3.03145e-06
4.36665e-08
3.03389e-06
4.28304e-08
3.03626e-06
4.19631e-08
3.03858e-06
4.11057e-08
3.04085e-06
4.02861e-08
3.04308e-06
3.95227e-08
3.04528e-06
3.8826e-08
3.04744e-06
3.82005e-08
3.04958e-06
3.76466e-08
3.05169e-06
3.7162e-08
3.05378e-06
3.67425e-08
3.05584e-06
3.63836e-08
3.05789e-06
3.60806e-08
3.05992e-06
3.58292e-08
3.06192e-06
3.56264e-08
3.0639e-06
3.54703e-08
3.06585e-06
3.53607e-08
3.06776e-06
3.52995e-08
3.06965e-06
3.52913e-08
3.07148e-06
3.53436e-08
3.07327e-06
3.54678e-08
3.07499e-06
3.56798e-08
3.07663e-06
3.6001e-08
3.07819e-06
3.64599e-08
3.07963e-06
3.70935e-08
3.08094e-06
3.79496e-08
3.08209e-06
3.90896e-08
3.08303e-06
4.05925e-08
3.08373e-06
4.25588e-08
3.08412e-06
4.51175e-08
3.08413e-06
4.84332e-08
3.08367e-06
5.27166e-08
3.08262e-06
5.82375e-08
3.08083e-06
6.53419e-08
3.07811e-06
7.44743e-08
3.07424e-06
8.6207e-08
3.0689e-06
1.01279e-07
3.06172e-06
1.20647e-07
3.05222e-06
1.45554e-07
3.0398e-06
1.77628e-07
3.02369e-06
2.18998e-07
3.00293e-06
2.72502e-07
2.97626e-06
3.41799e-07
2.94207e-06
4.32115e-07
2.89823e-06
5.48989e-07
2.84185e-06
7.0444e-07
2.76926e-06
8.95712e-07
2.6775e-06
1.18107e-06
1.40631e-06
2.55659e-06
3.00126e-06
8.46463e-09
3.00387e-06
2.23159e-08
3.00647e-06
3.01585e-08
3.00902e-06
3.4438e-08
3.01173e-06
3.78228e-08
3.01452e-06
4.0427e-08
3.01727e-06
4.18958e-08
3.01998e-06
4.2498e-08
3.02265e-06
4.26011e-08
3.02526e-06
4.2365e-08
3.0278e-06
4.18661e-08
3.03028e-06
4.11903e-08
3.03269e-06
4.04202e-08
3.03504e-06
3.96154e-08
3.03733e-06
3.88156e-08
3.03956e-06
3.80479e-08
3.04176e-06
3.73305e-08
3.04391e-06
3.66742e-08
3.04603e-06
3.60839e-08
3.04811e-06
3.55605e-08
3.05017e-06
3.51024e-08
3.05221e-06
3.47065e-08
3.05422e-06
3.43686e-08
3.05622e-06
3.4085e-08
3.05819e-06
3.38523e-08
3.06015e-06
3.36682e-08
3.06209e-06
3.35317e-08
3.06401e-06
3.34435e-08
3.0659e-06
3.34066e-08
3.06777e-06
3.34266e-08
3.0696e-06
3.35124e-08
3.07139e-06
3.3677e-08
3.07313e-06
3.3938e-08
3.07481e-06
3.43193e-08
3.07642e-06
3.48521e-08
3.07794e-06
3.55769e-08
3.07934e-06
3.6546e-08
3.0806e-06
3.78265e-08
3.08169e-06
3.95042e-08
3.08256e-06
4.16886e-08
3.08316e-06
4.45199e-08
3.08342e-06
4.81768e-08
3.08324e-06
5.28879e-08
3.08254e-06
5.89454e-08
3.08115e-06
6.67233e-08
3.07893e-06
7.67013e-08
3.07564e-06
8.94953e-08
3.07102e-06
1.05898e-07
3.06474e-06
1.26931e-07
3.05637e-06
1.53917e-07
3.04543e-06
1.88575e-07
3.03128e-06
2.3314e-07
3.01322e-06
2.90566e-07
2.99038e-06
3.64635e-07
2.96179e-06
4.60715e-07
2.92626e-06
5.84512e-07
2.88241e-06
7.48296e-07
2.82777e-06
9.50345e-07
2.76234e-06
1.2465e-06
1.50099e-06
2.66766e-06
3.00104e-06
7.42183e-09
3.00336e-06
1.9998e-08
3.00584e-06
2.76745e-08
3.00831e-06
3.19734e-08
3.01093e-06
3.52026e-08
3.01365e-06
3.77057e-08
3.01636e-06
3.91839e-08
3.01904e-06
3.98211e-08
3.02168e-06
3.99601e-08
3.02427e-06
3.9773e-08
3.0268e-06
3.93351e-08
3.02927e-06
3.87239e-08
3.03167e-06
3.80173e-08
3.03402e-06
3.72735e-08
3.0363e-06
3.65308e-08
3.03853e-06
3.58155e-08
3.04072e-06
3.51452e-08
3.04286e-06
3.45307e-08
3.04497e-06
3.39773e-08
3.04704e-06
3.34865e-08
3.04909e-06
3.30571e-08
3.05111e-06
3.26865e-08
3.0531e-06
3.23716e-08
3.05508e-06
3.21091e-08
3.05704e-06
3.18964e-08
3.05897e-06
3.1732e-08
3.06089e-06
3.16156e-08
3.06278e-06
3.15488e-08
3.06465e-06
3.15356e-08
3.0665e-06
3.15826e-08
3.06831e-06
3.17e-08
3.07008e-06
3.19023e-08
3.07181e-06
3.22089e-08
3.07349e-06
3.26458e-08
3.07509e-06
3.3247e-08
3.07661e-06
3.40564e-08
3.07803e-06
3.51305e-08
3.07931e-06
3.65417e-08
3.08044e-06
3.83826e-08
3.08135e-06
4.07712e-08
3.08201e-06
4.38585e-08
3.08235e-06
4.78365e-08
3.08229e-06
5.29509e-08
3.08172e-06
5.9515e-08
3.08052e-06
6.79297e-08
3.07851e-06
7.87076e-08
3.0755e-06
9.25055e-08
3.07123e-06
1.10166e-07
3.06539e-06
1.32771e-07
3.05759e-06
1.61713e-07
3.04738e-06
1.98792e-07
3.03419e-06
2.46327e-07
3.01741e-06
3.07351e-07
2.99634e-06
3.85702e-07
2.97031e-06
4.8674e-07
2.9387e-06
6.1612e-07
2.90132e-06
7.85683e-07
2.857e-06
9.94657e-07
2.81003e-06
1.29347e-06
1.57313e-06
2.73788e-06
3.00088e-06
6.54325e-09
3.00295e-06
1.79273e-08
3.00531e-06
2.53152e-08
3.0077e-06
2.9582e-08
3.01024e-06
3.26628e-08
3.0129e-06
3.50478e-08
3.01557e-06
3.65128e-08
3.01821e-06
3.71751e-08
3.02083e-06
3.73439e-08
3.0234e-06
3.71989e-08
3.02592e-06
3.68162e-08
3.02838e-06
3.62654e-08
3.03078e-06
3.56195e-08
3.03312e-06
3.49345e-08
3.0354e-06
3.42475e-08
3.03763e-06
3.35836e-08
3.03982e-06
3.296e-08
3.04196e-06
3.23874e-08
3.04407e-06
3.18714e-08
3.04614e-06
3.14137e-08
3.04818e-06
3.10137e-08
3.0502e-06
3.06694e-08
3.0522e-06
3.03783e-08
3.05417e-06
3.01378e-08
3.05612e-06
2.9946e-08
3.05805e-06
2.98019e-08
3.05996e-06
2.97063e-08
3.06184e-06
2.96614e-08
3.06371e-06
2.96721e-08
3.06554e-06
2.9746e-08
3.06735e-06
2.98947e-08
3.06912e-06
3.01338e-08
3.07084e-06
3.04847e-08
3.07251e-06
3.09753e-08
3.07412e-06
3.16423e-08
3.07564e-06
3.25327e-08
3.07706e-06
3.37072e-08
3.07836e-06
3.52432e-08
3.07951e-06
3.72398e-08
3.08045e-06
3.98231e-08
3.08116e-06
4.3154e-08
3.08156e-06
4.74377e-08
3.08157e-06
5.29358e-08
3.0811e-06
5.9982e-08
3.08003e-06
6.90023e-08
3.0782e-06
8.05405e-08
3.07541e-06
9.52919e-08
3.07143e-06
1.14146e-07
3.06596e-06
1.38241e-07
3.05864e-06
1.69035e-07
3.04903e-06
2.08401e-07
3.03662e-06
2.58733e-07
3.02084e-06
3.23131e-07
3.00107e-06
4.05472e-07
2.97676e-06
5.11055e-07
2.94744e-06
6.45442e-07
2.91347e-06
8.1965e-07
2.87426e-06
1.03387e-06
2.83701e-06
1.33072e-06
1.62873e-06
2.78142e-06
3.00075e-06
5.78932e-09
3.00261e-06
1.60665e-08
3.00485e-06
2.30786e-08
3.00717e-06
2.72604e-08
3.00964e-06
3.01947e-08
3.01224e-06
3.24501e-08
3.01487e-06
3.38814e-08
3.01749e-06
3.45579e-08
3.02008e-06
3.47509e-08
3.02264e-06
3.46418e-08
3.02515e-06
3.43087e-08
3.0276e-06
3.38145e-08
3.02999e-06
3.32263e-08
3.03233e-06
3.25978e-08
3.03461e-06
3.19649e-08
3.03684e-06
3.13515e-08
3.03903e-06
3.0774e-08
3.04117e-06
3.02431e-08
3.04328e-06
2.97643e-08
3.04535e-06
2.93398e-08
3.0474e-06
2.89694e-08
3.04941e-06
2.86517e-08
3.05141e-06
2.83847e-08
3.05338e-06
2.81665e-08
3.05533e-06
2.79958e-08
3.05726e-06
2.78724e-08
3.05917e-06
2.77976e-08
3.06105e-06
2.77746e-08
3.06292e-06
2.78091e-08
3.06475e-06
2.79097e-08
3.06656e-06
2.8089e-08
3.06833e-06
2.83641e-08
3.07006e-06
2.87579e-08
3.07173e-06
2.93005e-08
3.07334e-06
3.00307e-08
3.07488e-06
3.09989e-08
3.07631e-06
3.22696e-08
3.07763e-06
3.39249e-08
3.0788e-06
3.60699e-08
3.07979e-06
3.88386e-08
3.08054e-06
4.24015e-08
3.081e-06
4.69759e-08
3.0811e-06
5.28386e-08
3.08074e-06
6.03423e-08
3.0798e-06
6.99367e-08
3.07815e-06
8.21952e-08
3.07559e-06
9.78493e-08
3.0719e-06
1.17832e-07
3.06681e-06
1.43334e-07
3.05997e-06
1.75873e-07
3.05099e-06
2.1739e-07
3.03937e-06
2.70346e-07
3.02461e-06
3.37898e-07
3.00612e-06
4.23955e-07
2.98344e-06
5.33739e-07
2.95614e-06
6.72737e-07
2.92477e-06
8.51026e-07
2.88882e-06
1.06982e-06
2.85612e-06
1.36343e-06
1.67306e-06
2.81179e-06
3.00066e-06
5.13134e-09
3.00234e-06
1.43826e-08
3.00446e-06
2.09594e-08
3.00672e-06
2.50055e-08
3.00912e-06
2.77903e-08
3.01166e-06
2.99085e-08
3.01425e-06
3.12885e-08
3.01684e-06
3.1968e-08
3.01942e-06
3.21793e-08
3.02196e-06
3.21007e-08
3.02445e-06
3.1812e-08
3.0269e-06
3.13705e-08
3.02929e-06
3.08373e-08
3.03162e-06
3.02633e-08
3.0339e-06
2.9683e-08
3.03614e-06
2.9119e-08
3.03832e-06
2.85871e-08
3.04047e-06
2.80974e-08
3.04258e-06
2.76557e-08
3.04465e-06
2.72644e-08
3.0467e-06
2.69237e-08
3.04872e-06
2.66327e-08
3.05071e-06
2.639e-08
3.05268e-06
2.61942e-08
3.05464e-06
2.60446e-08
3.05657e-06
2.59419e-08
3.05848e-06
2.58878e-08
3.06036e-06
2.58864e-08
3.06223e-06
2.59442e-08
3.06407e-06
2.60709e-08
3.06588e-06
2.628e-08
3.06765e-06
2.65898e-08
3.06938e-06
2.7025e-08
3.07107e-06
2.76173e-08
3.07269e-06
2.84081e-08
3.07424e-06
2.94506e-08
3.0757e-06
3.08127e-08
3.07704e-06
3.25814e-08
3.07824e-06
3.48674e-08
3.07927e-06
3.78118e-08
3.08008e-06
4.15943e-08
3.08061e-06
4.64434e-08
3.0808e-06
5.26504e-08
3.08055e-06
6.05859e-08
3.07977e-06
7.07216e-08
3.0783e-06
8.36585e-08
3.07599e-06
1.00162e-07
3.07262e-06
1.21204e-07
3.06793e-06
1.48026e-07
3.0616e-06
1.822e-07
3.05326e-06
2.25726e-07
3.04248e-06
2.81128e-07
3.02877e-06
3.51609e-07
3.01162e-06
4.41103e-07
2.99062e-06
5.54742e-07
2.9654e-06
6.97956e-07
2.93653e-06
8.79902e-07
2.90363e-06
1.10272e-06
2.87364e-06
1.39341e-06
1.70957e-06
2.83713e-06
3.00058e-06
4.54822e-09
3.00212e-06
1.28475e-08
3.00413e-06
1.89498e-08
3.00632e-06
2.28146e-08
3.00867e-06
2.54429e-08
3.01116e-06
2.74186e-08
3.01371e-06
2.87325e-08
3.01628e-06
2.94037e-08
3.01883e-06
2.96275e-08
3.02135e-06
2.95744e-08
3.02384e-06
2.93255e-08
3.02628e-06
2.8933e-08
3.02866e-06
2.84522e-08
3.031e-06
2.79308e-08
3.03328e-06
2.74016e-08
3.03551e-06
2.6886e-08
3.0377e-06
2.6399e-08
3.03985e-06
2.59502e-08
3.04196e-06
2.55455e-08
3.04403e-06
2.51873e-08
3.04608e-06
2.48764e-08
3.0481e-06
2.46122e-08
3.0501e-06
2.43937e-08
3.05207e-06
2.42204e-08
3.05402e-06
2.4092e-08
3.05596e-06
2.40098e-08
3.05787e-06
2.39762e-08
3.05976e-06
2.39961e-08
3.06162e-06
2.40767e-08
3.06347e-06
2.42286e-08
3.06528e-06
2.44664e-08
3.06706e-06
2.48097e-08
3.0688e-06
2.52844e-08
3.07049e-06
2.59241e-08
3.07213e-06
2.67725e-08
3.0737e-06
2.78852e-08
3.07517e-06
2.93339e-08
3.07655e-06
3.12096e-08
3.07779e-06
3.36284e-08
3.07886e-06
3.67383e-08
3.07973e-06
4.07271e-08
3.08033e-06
4.58344e-08
3.08062e-06
5.23644e-08
3.0805e-06
6.07043e-08
3.07988e-06
7.13467e-08
3.07862e-06
8.49179e-08
3.07657e-06
1.02214e-07
3.07352e-06
1.24246e-07
3.06925e-06
1.52296e-07
3.06346e-06
1.8799e-07
3.05581e-06
2.3338e-07
3.04589e-06
2.91045e-07
3.03328e-06
3.64226e-07
3.01751e-06
4.56874e-07
2.99822e-06
5.7403e-07
2.97512e-06
7.21052e-07
2.94875e-06
9.06269e-07
2.91897e-06
1.1325e-06
2.89146e-06
1.42092e-06
1.74022e-06
2.8608e-06
3.00052e-06
4.02423e-09
3.00193e-06
1.1437e-08
3.00384e-06
1.70407e-08
3.00597e-06
2.06846e-08
3.00827e-06
2.31469e-08
3.01071e-06
2.49759e-08
3.01323e-06
2.62114e-08
3.01577e-06
2.68637e-08
3.01831e-06
2.70941e-08
3.02082e-06
2.7062e-08
3.0233e-06
2.68484e-08
3.02573e-06
2.65015e-08
3.02811e-06
2.60706e-08
3.03044e-06
2.55999e-08
3.03272e-06
2.51205e-08
3.03495e-06
2.46525e-08
3.03714e-06
2.42098e-08
3.03929e-06
2.38016e-08
3.0414e-06
2.34336e-08
3.04348e-06
2.31086e-08
3.04553e-06
2.28274e-08
3.04755e-06
2.259e-08
3.04955e-06
2.23959e-08
3.05153e-06
2.2245e-08
3.05348e-06
2.21377e-08
3.05542e-06
2.20758e-08
3.05733e-06
2.20625e-08
3.05922e-06
2.21033e-08
3.06109e-06
2.22061e-08
3.06294e-06
2.23824e-08
3.06476e-06
2.26478e-08
3.06654e-06
2.3023e-08
3.06829e-06
2.35352e-08
3.07e-06
2.42199e-08
3.07165e-06
2.51225e-08
3.07323e-06
2.63015e-08
3.07473e-06
2.78315e-08
3.07614e-06
2.98075e-08
3.07741e-06
3.23506e-08
3.07854e-06
3.56149e-08
3.07947e-06
3.97964e-08
3.08016e-06
4.51441e-08
3.08055e-06
5.19747e-08
3.08056e-06
6.06907e-08
3.0801e-06
7.18036e-08
3.07906e-06
8.5963e-08
3.07728e-06
1.03993e-07
3.07459e-06
1.2694e-07
3.07076e-06
1.56126e-07
3.06553e-06
1.9322e-07
3.05858e-06
2.40326e-07
3.04956e-06
3.00068e-07
3.03807e-06
3.75719e-07
3.0237e-06
4.71241e-07
3.00615e-06
5.91581e-07
2.98518e-06
7.42018e-07
2.9613e-06
9.30148e-07
2.9346e-06
1.1592e-06
2.90968e-06
1.44584e-06
1.76618e-06
2.88373e-06
3.00048e-06
3.54738e-09
3.00178e-06
1.01307e-08
3.0036e-06
1.52224e-08
3.00567e-06
1.86121e-08
3.00792e-06
2.08972e-08
3.01032e-06
2.25758e-08
3.01281e-06
2.37229e-08
3.01533e-06
2.43462e-08
3.01785e-06
2.45774e-08
3.02035e-06
2.45623e-08
3.02281e-06
2.43802e-08
3.02524e-06
2.40756e-08
3.02762e-06
2.36923e-08
3.02995e-06
2.32707e-08
3.03223e-06
2.28399e-08
3.03446e-06
2.24185e-08
3.03665e-06
2.20195e-08
3.0388e-06
2.16515e-08
3.04092e-06
2.13201e-08
3.043e-06
2.10282e-08
3.04505e-06
2.07767e-08
3.04707e-06
2.05661e-08
3.04907e-06
2.03964e-08
3.05105e-06
2.02679e-08
3.053e-06
2.01816e-08
3.05494e-06
2.01398e-08
3.05686e-06
2.01465e-08
3.05875e-06
2.02076e-08
3.06063e-06
2.0332e-08
3.06248e-06
2.05318e-08
3.0643e-06
2.08236e-08
3.06609e-06
2.12291e-08
3.06785e-06
2.17769e-08
3.06957e-06
2.25038e-08
3.07123e-06
2.34574e-08
3.07284e-06
2.46983e-08
3.07436e-06
2.6304e-08
3.0758e-06
2.83733e-08
3.07712e-06
3.10318e-08
3.07829e-06
3.44393e-08
3.07929e-06
3.87989e-08
3.08007e-06
4.43687e-08
3.08056e-06
5.14766e-08
3.08072e-06
6.0539e-08
3.08043e-06
7.20848e-08
3.07961e-06
8.67847e-08
3.07812e-06
1.05489e-07
3.07578e-06
1.29274e-07
3.07241e-06
1.59498e-07
3.06776e-06
1.97872e-07
3.06154e-06
2.46541e-07
3.05344e-06
3.08171e-07
3.0431e-06
3.86062e-07
3.03016e-06
4.84181e-07
3.01435e-06
6.07386e-07
2.99551e-06
7.60862e-07
2.97408e-06
9.51575e-07
2.95034e-06
1.18295e-06
2.92806e-06
1.46812e-06
1.78822e-06
2.90602e-06
3.00044e-06
3.10843e-09
3.00166e-06
8.91156e-09
3.0034e-06
1.34849e-08
3.00541e-06
1.65931e-08
3.00762e-06
1.86891e-08
3.00998e-06
2.02138e-08
3.01244e-06
2.12645e-08
3.01494e-06
2.18497e-08
3.01744e-06
2.20761e-08
3.01993e-06
2.20742e-08
3.02239e-06
2.192e-08
3.02481e-06
2.16549e-08
3.02719e-06
2.1317e-08
3.02951e-06
2.09429e-08
3.03179e-06
2.05595e-08
3.03403e-06
2.0184e-08
3.03622e-06
1.98281e-08
3.03837e-06
1.95001e-08
3.04049e-06
1.92051e-08
3.04257e-06
1.89461e-08
3.04462e-06
1.87244e-08
3.04665e-06
1.85406e-08
3.04865e-06
1.83952e-08
3.05063e-06
1.8289e-08
3.05258e-06
1.82236e-08
3.05452e-06
1.82017e-08
3.05644e-06
1.8228e-08
3.05834e-06
1.8309e-08
3.06022e-06
1.84542e-08
3.06207e-06
1.86765e-08
3.0639e-06
1.89934e-08
3.0657e-06
1.94276e-08
3.06747e-06
2.00088e-08
3.0692e-06
2.07753e-08
3.07088e-06
2.17762e-08
3.07251e-06
2.30745e-08
3.07406e-06
2.47503e-08
3.07553e-06
2.69056e-08
3.07689e-06
2.96702e-08
3.07812e-06
3.32091e-08
3.07919e-06
3.77319e-08
3.08005e-06
4.35048e-08
3.08066e-06
5.08659e-08
3.08096e-06
6.02441e-08
3.08086e-06
7.21838e-08
3.08027e-06
8.73749e-08
3.07906e-06
1.06691e-07
3.0771e-06
1.31235e-07
3.0742e-06
1.62399e-07
3.07015e-06
2.01928e-07
3.06468e-06
2.52006e-07
3.05752e-06
3.15335e-07
3.04834e-06
3.95236e-07
3.03685e-06
4.95678e-07
3.0228e-06
6.21436e-07
3.00606e-06
7.776e-07
2.98704e-06
9.70593e-07
2.96611e-06
1.20387e-06
2.94643e-06
1.48781e-06
1.80696e-06
2.92768e-06
3.00041e-06
2.70007e-09
3.00156e-06
7.76489e-09
3.00322e-06
1.18183e-08
3.00519e-06
1.46231e-08
3.00736e-06
1.65184e-08
3.00969e-06
1.78856e-08
3.01212e-06
1.88332e-08
3.0146e-06
1.93724e-08
3.01709e-06
1.95887e-08
3.01956e-06
1.95965e-08
3.02202e-06
1.94673e-08
3.02443e-06
1.92388e-08
3.02681e-06
1.89444e-08
3.02913e-06
1.86164e-08
3.03141e-06
1.82794e-08
3.03365e-06
1.7949e-08
3.03584e-06
1.76358e-08
3.03799e-06
1.73473e-08
3.04011e-06
1.70886e-08
3.04219e-06
1.68625e-08
3.04425e-06
1.66704e-08
3.04627e-06
1.65134e-08
3.04828e-06
1.63923e-08
3.05026e-06
1.63083e-08
3.05222e-06
1.62635e-08
3.05416e-06
1.62614e-08
3.05608e-06
1.63068e-08
3.05798e-06
1.64071e-08
3.05986e-06
1.65724e-08
3.06172e-06
1.68163e-08
3.06356e-06
1.7157e-08
3.06537e-06
1.76181e-08
3.06715e-06
1.82305e-08
3.06889e-06
1.90336e-08
3.07059e-06
2.00783e-08
3.07223e-06
2.14294e-08
3.07381e-06
2.31693e-08
3.07531e-06
2.54031e-08
3.07672e-06
2.82642e-08
3.07801e-06
3.19224e-08
3.07915e-06
3.6593e-08
3.0801e-06
4.25494e-08
3.08083e-06
5.01387e-08
3.08127e-06
5.98011e-08
3.08136e-06
7.20948e-08
3.08101e-06
8.77265e-08
3.08011e-06
1.0759e-07
3.07853e-06
1.32813e-07
3.07612e-06
1.64815e-07
3.07267e-06
2.05374e-07
3.06797e-06
2.56705e-07
3.06177e-06
3.21541e-07
3.05378e-06
4.03222e-07
3.04374e-06
5.05716e-07
3.03145e-06
6.33727e-07
3.0168e-06
7.92249e-07
3.00015e-06
9.87246e-07
2.98191e-06
1.22212e-06
2.9647e-06
1.50502e-06
1.8229e-06
2.94876e-06
3.00038e-06
2.31647e-09
3.00147e-06
6.67831e-09
3.00308e-06
1.02134e-08
3.005e-06
1.26973e-08
3.00714e-06
1.43809e-08
3.00944e-06
1.55871e-08
3.01184e-06
1.64264e-08
3.0143e-06
1.69126e-08
3.01678e-06
1.71136e-08
3.01925e-06
1.71281e-08
3.02169e-06
1.70212e-08
3.02411e-06
1.6827e-08
3.02648e-06
1.65742e-08
3.0288e-06
1.62911e-08
3.03108e-06
1.59995e-08
3.03332e-06
1.57135e-08
3.03551e-06
1.54425e-08
3.03766e-06
1.51934e-08
3.03978e-06
1.49707e-08
3.04187e-06
1.47774e-08
3.04392e-06
1.46149e-08
3.04595e-06
1.44846e-08
3.04796e-06
1.43876e-08
3.04994e-06
1.43258e-08
3.0519e-06
1.43015e-08
3.05384e-06
1.43187e-08
3.05577e-06
1.43829e-08
3.05767e-06
1.45019e-08
3.05956e-06
1.46865e-08
3.06142e-06
1.49509e-08
3.06327e-06
1.5314e-08
3.06508e-06
1.58003e-08
3.06687e-06
1.64415e-08
3.06863e-06
1.72784e-08
3.07034e-06
1.83631e-08
3.07201e-06
1.97621e-08
3.07362e-06
2.15601e-08
3.07516e-06
2.38646e-08
3.07661e-06
2.68125e-08
3.07795e-06
3.05774e-08
3.07917e-06
3.53798e-08
3.08022e-06
4.14996e-08
3.08106e-06
4.92916e-08
3.08166e-06
5.92059e-08
3.08194e-06
7.18126e-08
3.08184e-06
8.7833e-08
3.08125e-06
1.08179e-07
3.08006e-06
1.33998e-07
3.07814e-06
1.66735e-07
3.07532e-06
2.08195e-07
3.0714e-06
2.60621e-07
3.06617e-06
3.26772e-07
3.05939e-06
4.10005e-07
3.05082e-06
5.14285e-07
3.04029e-06
6.44256e-07
3.02771e-06
8.04826e-07
3.01339e-06
1.00157e-06
2.99771e-06
1.23779e-06
2.98286e-06
1.51987e-06
1.83642e-06
2.96934e-06
3.00036e-06
1.95284e-09
3.0014e-06
5.64116e-09
3.00295e-06
8.66109e-09
3.00484e-06
1.08105e-08
3.00695e-06
1.22725e-08
3.00922e-06
1.33142e-08
3.01161e-06
1.40409e-08
3.01405e-06
1.44682e-08
3.01652e-06
1.46496e-08
3.01898e-06
1.46678e-08
3.02142e-06
1.45809e-08
3.02382e-06
1.4419e-08
3.02619e-06
1.42062e-08
3.02852e-06
1.39668e-08
3.0308e-06
1.37198e-08
3.03303e-06
1.34776e-08
3.03523e-06
1.32484e-08
3.03738e-06
1.30383e-08
3.0395e-06
1.28516e-08
3.04159e-06
1.26909e-08
3.04364e-06
1.25579e-08
3.04567e-06
1.24542e-08
3.04768e-06
1.23814e-08
3.04966e-06
1.23414e-08
3.05163e-06
1.23374e-08
3.05357e-06
1.23736e-08
3.0555e-06
1.24561e-08
3.05741e-06
1.25933e-08
3.0593e-06
1.27963e-08
3.06117e-06
1.30801e-08
3.06302e-06
1.34642e-08
3.06485e-06
1.39738e-08
3.06665e-06
1.46416e-08
3.06842e-06
1.55092e-08
3.07015e-06
1.663e-08
3.07184e-06
1.80721e-08
3.07348e-06
1.99218e-08
3.07505e-06
2.22891e-08
3.07655e-06
2.53136e-08
3.07796e-06
2.91725e-08
3.07925e-06
3.40906e-08
3.08039e-06
4.03531e-08
3.08136e-06
4.83218e-08
3.08211e-06
5.84548e-08
3.08259e-06
7.13326e-08
3.08274e-06
8.7689e-08
3.08247e-06
1.0845e-07
3.08168e-06
1.34783e-07
3.08027e-06
1.68151e-07
3.07808e-06
2.10381e-07
3.07496e-06
2.63743e-07
3.07071e-06
3.31016e-07
3.06515e-06
4.1557e-07
3.05806e-06
5.21374e-07
3.0493e-06
6.53021e-07
3.03878e-06
8.15345e-07
3.02673e-06
1.01361e-06
3.01353e-06
1.251e-06
3.00092e-06
1.53248e-06
1.84783e-06
2.98951e-06
3.00035e-06
1.60518e-09
3.00134e-06
4.64417e-09
3.00285e-06
7.15282e-09
3.00471e-06
8.95733e-09
3.00679e-06
1.01891e-08
3.00904e-06
1.1063e-08
3.01141e-06
1.16737e-08
3.01384e-06
1.20372e-08
3.01629e-06
1.21949e-08
3.01875e-06
1.22145e-08
3.02118e-06
1.21457e-08
3.02359e-06
1.20142e-08
3.02595e-06
1.18401e-08
3.02828e-06
1.16433e-08
3.03056e-06
1.14402e-08
3.03279e-06
1.12413e-08
3.03499e-06
1.10535e-08
3.03714e-06
1.08823e-08
3.03926e-06
1.07313e-08
3.04135e-06
1.06031e-08
3.04341e-06
1.04995e-08
3.04544e-06
1.04224e-08
3.04745e-06
1.03735e-08
3.04944e-06
1.03553e-08
3.0514e-06
1.03713e-08
3.05335e-06
1.04262e-08
3.05528e-06
1.05265e-08
3.05719e-06
1.06811e-08
3.05909e-06
1.09017e-08
3.06096e-06
1.12038e-08
3.06282e-06
1.16074e-08
3.06465e-06
1.21384e-08
3.06647e-06
1.28303e-08
3.06825e-06
1.37255e-08
3.07e-06
1.48786e-08
3.07171e-06
1.63586e-08
3.07338e-06
1.82538e-08
3.075e-06
2.06758e-08
3.07654e-06
2.37666e-08
3.07801e-06
2.77064e-08
3.07938e-06
3.27236e-08
3.08062e-06
3.91079e-08
3.08172e-06
4.72266e-08
3.08263e-06
5.75447e-08
3.08331e-06
7.06511e-08
3.08371e-06
8.72896e-08
3.08376e-06
1.08399e-07
3.08338e-06
1.3516e-07
3.08248e-06
1.69052e-07
3.08094e-06
2.11923e-07
3.07862e-06
2.66058e-07
3.07538e-06
3.34259e-07
3.07104e-06
4.19907e-07
3.06544e-06
5.26974e-07
3.05845e-06
6.60017e-07
3.04997e-06
8.23819e-07
3.04018e-06
1.0234e-06
3.02936e-06
1.26183e-06
3.0189e-06
1.54294e-06
1.85737e-06
3.00936e-06
3.00034e-06
1.27009e-09
3.0013e-06
3.67916e-09
3.00277e-06
5.68052e-09
3.0046e-06
7.13237e-09
3.00666e-06
8.12668e-09
3.00889e-06
8.82984e-09
3.01124e-06
9.32178e-09
3.01366e-06
9.61749e-09
3.01611e-06
9.74824e-09
3.01856e-06
9.76709e-09
3.02099e-06
9.71462e-09
3.02339e-06
9.61213e-09
3.02576e-06
9.47544e-09
3.02808e-06
9.3206e-09
3.03036e-06
9.16076e-09
3.0326e-06
9.00461e-09
3.03479e-06
8.85799e-09
3.03695e-06
8.7253e-09
3.03907e-06
8.60986e-09
3.04116e-06
8.51408e-09
3.04322e-06
8.43988e-09
3.04525e-06
8.38913e-09
3.04726e-06
8.36404e-09
3.04925e-06
8.36744e-09
3.05122e-06
8.40315e-09
3.05317e-06