/*--------------------------------*- C++ -*----------------------------------*\
| =========                 |                                                 |
| \\      /  F ield         | OpenFOAM: The Open Source CFD Toolbox           |
|  \\    /   O peration     | Version:  2.4.0                                 |
|   \\  /    A nd           | Web:      www.OpenFOAM.org                      |
|    \\/     M anipulation  |                                                 |
\*---------------------------------------------------------------------------*/
FoamFile
{
    version     2.0;
    format      ascii;
    class       volVectorField;
    location    "6.21";
    object      U;
}
// * * * * * * * * * * * * * * * * * * * * * * * * * * * * * * * * * * * * * //

dimensions      [0 1 -1 0 0 0 0];

internalField   nonuniform List<vector> 
6000
(
(0.513515 -0.0430708 -6.53047e-18)
(-0.317798 0.0668567 0)
(0.111668 -0.027356 9.72201e-18)
(0.00932422 -0.00185881 0)
(0.00588542 4.90003e-05 0)
(-0.0291532 0.00566765 0)
(-0.0148252 0.00317833 4.16986e-18)
(-0.0317997 0.00580738 1.25452e-23)
(-0.030737 0.00576691 0)
(-0.0424646 0.00718646 0)
(-0.0467778 0.00778905 3.50872e-18)
(-0.0557322 0.00853199 -6.77814e-18)
(-0.061638 0.00907592 0)
(-0.0699004 0.00960402 0)
(-0.0778031 0.0101362 -1.54449e-18)
(-0.0869453 0.0105559 0)
(-0.0958276 0.0108365 0)
(-0.104656 0.0109021 -1.43888e-18)
(-0.112876 0.0107749 -1.41203e-18)
(-0.120563 0.0104478 0)
(-0.127492 0.00994223 1.37043e-18)
(-0.133574 0.00927854 6.77643e-19)
(-0.139157 0.00850991 -6.7193e-19)
(-0.144216 0.00762607 0)
(-0.14871 0.00663816 0)
(-0.152595 0.00555704 0)
(-0.155818 0.00439654 3.33507e-19)
(-0.158323 0.00317166 -3.35154e-19)
(-0.160042 0.00190098 0)
(-0.160873 0.000603448 0)
(-0.160665 -0.000756969 4.32245e-20)
(-0.159445 -0.00209565 0)
(-0.157188 -0.00338545 3.57931e-19)
(-0.153815 -0.00460804 -3.6563e-19)
(-0.149251 -0.00573494 0)
(-0.143417 -0.00673594 0)
(-0.136237 -0.00757637 7.91691e-19)
(-0.127628 -0.00822229 0)
(-0.117519 -0.00863125 8.44422e-19)
(-0.105815 -0.00876898 0)
(-0.0924674 -0.00857943 0)
(-0.0773297 -0.0080369 1.88703e-18)
(-0.0604601 -0.00705846 -3.92656e-18)
(-0.0414984 -0.0056392 0)
(-0.020959 -0.00367385 0)
(0.00234136 -0.00112681 2.22223e-18)
(0.0264973 0.00205918 0)
(0.0544629 0.0059261 0)
(0.0824833 0.010599 -4.96913e-18)
(0.11623 0.0160726 -5.15926e-18)
(0.147888 0.022553 -5.30621e-18)
(0.189351 0.0300092 -5.86609e-21)
(0.223543 0.0386477 5.549e-18)
(0.276835 0.0486996 0)
(0.310318 0.0598032 -9.42823e-21)
(0.384877 0.0738414 -5.88686e-18)
(0.407789 0.0866138 4.92136e-18)
(0.527933 0.108981 5.85849e-18)
(0.514321 0.118678 1.73191e-20)
(0.756636 0.165005 0)
(0.726768 -0.108553 4.99729e-18)
(-0.209421 0.0626907 5.68728e-18)
(0.0917929 -0.0316505 -4.71627e-18)
(-0.0217999 0.00859796 -5.03452e-18)
(0.00492344 0.00143472 0)
(-0.0421418 0.0089956 0)
(-0.0240129 0.00514674 -4.10331e-18)
(-0.0428116 0.00825494 7.86885e-18)
(-0.0415226 0.00821145 0)
(-0.0533527 0.00950225 0)
(-0.0578457 0.0101787 -3.41433e-18)
(-0.0664657 0.0107131 3.28962e-18)
(-0.0726451 0.0113285 1.5864e-18)
(-0.0807894 0.0117961 0)
(-0.088741 0.0123535 1.48966e-18)
(-0.0974611 0.0126717 0)
(-0.105814 0.012836 0)
(-0.113894 0.0127363 0)
(-0.121365 0.0124527 0)
(-0.12829 0.0119641 0)
(-0.134591 0.011312 1.25582e-22)
(-0.140316 0.0105271 0)
(-0.145522 0.00963862 -6.36323e-19)
(-0.150155 0.00862802 0)
(-0.154173 0.00750754 0)
(-0.157532 0.00628784 3.13333e-19)
(-0.160178 0.0049836 -3.13441e-19)
(-0.162059 0.00360906 3.62083e-23)
(-0.163114 0.00217875 1.58066e-19)
(-0.163291 0.000709029 0)
(-0.162576 -0.000766311 -4.02941e-20)
(-0.160873 -0.00223805 -1.63333e-19)
(-0.158088 -0.00367112 -1.10073e-22)
(-0.154146 -0.00503952 3.38381e-19)
(-0.148971 -0.00631201 -3.45497e-19)
(-0.142484 -0.00745603 0)
(-0.134608 -0.00843345 0)
(-0.125259 -0.00920815 0)
(-0.114366 -0.00973255 0)
(-0.101833 -0.00997148 0)
(-0.0876136 -0.00986066 -1.64144e-18)
(-0.0715575 -0.00937665 0)
(-0.0537269 -0.00842421 1.76185e-18)
(-0.0337598 -0.00700203 1.82513e-18)
(-0.0121423 -0.00499495 0)
(0.0122086 -0.00236974 0)
(0.0377423 0.000959798 0)
(0.0670064 0.00498048 0)
(0.0967548 0.00994785 4.3424e-18)
(0.132058 0.0156806 0)
(0.16592 0.022682 0)
(0.20926 0.0304922 -4.73584e-18)
(0.246385 0.0400189 -4.7696e-18)
(0.30194 0.0504586 0)
(0.339555 0.0630711 -9.44557e-18)
(0.416641 0.0773399 0)
(0.447572 0.0932619 -8.26492e-18)
(0.568501 0.114891 -4.80977e-18)
(0.574339 0.131598 1.93702e-18)
(0.81238 0.173494 4.60167e-18)
(0.798659 -0.091348 -3.36048e-19)
(-0.0780464 0.0481045 -5.31531e-18)
(0.0670421 -0.0277274 0)
(-0.0537356 0.0168142 4.99369e-18)
(0.00171472 0.00276152 0)
(-0.0466683 0.0104404 0)
(-0.0278063 0.00624642 0)
(-0.0461998 0.00923807 -3.83208e-18)
(-0.0447824 0.00939657 0)
(-0.0560949 0.0104747 -3.45003e-18)
(-0.0604126 0.0112304 0)
(-0.0687205 0.0116389 0)
(-0.074751 0.0123078 -1.51935e-18)
(-0.0826053 0.0127605 0)
(-0.0901993 0.013332 0)
(-0.0984555 0.0135979 0)
(-0.106335 0.0136963 0)
(-0.113965 0.0135112 0)
(-0.121032 0.0131493 0)
(-0.127611 0.0125851 1.24349e-18)
(-0.133638 0.0118676 -1.22014e-18)
(-0.139154 0.0110237 0)
(-0.144141 0.0100744 -6.60762e-23)
(-0.148555 0.00899915 -5.86804e-19)
(-0.152354 0.00781074 0)
(-0.155492 0.00651917 -5.79521e-19)
(-0.157917 0.00513917 0)
(-0.159577 0.00368488 2.89279e-19)
(-0.160417 0.00217167 -1.451e-19)
(-0.160385 0.00061468 0)
(-0.159442 -0.000945305 0)
(-0.157498 -0.00250038 1.48736e-19)
(-0.154468 -0.00402378 -1.09694e-22)
(-0.150278 -0.0054868 0)
(-0.14485 -0.00685718 6.2349e-19)
(-0.138107 -0.00810163 0)
(-0.129972 -0.00918095 6.50485e-19)
(-0.12036 -0.0100584 0)
(-0.109202 -0.010685 0)
(-0.0964 -0.0110252 0)
(-0.0819093 -0.0110123 1.44927e-18)
(-0.0655781 -0.0106235 0)
(-0.0474669 -0.00976011 0)
(-0.0272224 -0.00842092 -1.5892e-18)
(-0.00528851 -0.00648699 0)
(0.0193252 -0.00393127 0)
(0.0453179 -0.000641851 1.73681e-18)
(0.0749152 0.00331103 -1.79008e-18)
(0.105248 0.00828251 -1.83798e-18)
(0.140903 0.0139422 0)
(0.175544 0.0210276 0)
(0.219225 0.028712 0)
(0.257469 0.0384865 3.94155e-18)
(0.313283 0.0486179 4.02788e-18)
(0.352639 0.0618366 3.86537e-18)
(0.429698 0.0752713 0)
(0.463388 0.092669 3.32396e-18)
(0.583563 0.112027 7.63143e-18)
(0.594071 0.131913 0)
(0.827129 0.16678 -3.53356e-18)
(0.836489 -0.0599332 -2.63411e-19)
(0.0437153 0.0395667 4.88521e-18)
(0.0473214 -0.0205494 -4.58195e-18)
(-0.0749388 0.0221066 0)
(-0.000981107 0.00320611 0)
(-0.0483913 0.0113791 0)
(-0.0297066 0.00688964 0)
(-0.0474433 0.00986667 0)
(-0.0459839 0.010149 0)
(-0.0568235 0.011134 3.33031e-18)
(-0.0610116 0.0119311 3.16568e-18)
(-0.06908 0.0122936 0)
(-0.0749749 0.013001 0)
(-0.0825705 0.0134713 0)
(-0.0898518 0.0140622 1.35325e-18)
(-0.0977348 0.0143081 0)
(-0.105254 0.0143675 1.26815e-18)
(-0.112551 0.0141293 -1.23129e-18)
(-0.119326 0.0137142 0)
(-0.12565 0.0130981 -1.16957e-18)
(-0.13146 0.0123336 0)
(-0.136784 0.0114438 -5.62246e-19)
(-0.141578 0.0104455 1.10732e-18)
(-0.145803 0.00931765 5.4673e-19)
(-0.149416 0.00807293 0)
(-0.15237 0.00672073 2.68795e-19)
(-0.154616 0.00527577 0)
(-0.1561 0.00375217 2.67156e-19)
(-0.15677 0.00216606 0)
(-0.156572 0.000536637 0)
(-0.155455 -0.00111276 0)
(-0.153335 -0.0027576 1.3607e-19)
(-0.150131 -0.00437533 -5.50262e-19)
(-0.145769 -0.00593765 0)
(-0.140173 -0.00741179 -2.8318e-19)
(-0.133264 -0.00876393 0)
(-0.124966 -0.00995412 -5.87857e-19)
(-0.115195 -0.0109451 0)
(-0.103882 -0.0116867 0)
(-0.0909273 -0.0121428 0)
(-0.0762874 -0.0122458 1.29133e-18)
(-0.0598112 -0.0119711 0)
(-0.0415552 -0.0112208 1.3623e-18)
(-0.0211766 -0.009988 -1.40025e-18)
(0.000921194 -0.00815776 0)
(0.02565 -0.00570262 -1.47489e-18)
(0.0518852 -0.00249762 -3.02916e-18)
(0.081608 0.00136415 1.5558e-18)
(0.11225 0.00627349 3.17726e-18)
(0.148002 0.0118461 -3.24592e-18)
(0.183069 0.0189076 -3.28807e-18)
(0.226779 0.0264864 0)
(0.265671 0.0363123 -3.33707e-18)
(0.321356 0.0462518 -3.38681e-18)
(0.361794 0.0596941 -3.1964e-18)
(0.438358 0.0726602 0)
(0.473913 0.090669 0)
(0.592726 0.108791 -3.07997e-18)
(0.606852 0.129793 0)
(0.834057 0.160206 2.69644e-18)
(0.861509 -0.0344711 -2.46469e-19)
(0.15319 0.0356391 -8.98707e-20)
(0.0542647 -0.0147656 4.54123e-18)
(-0.0862736 0.0249949 4.94056e-18)
(-0.00333484 0.00312042 0)
(-0.0490713 0.0121115 -4.19637e-18)
(-0.0307259 0.00732215 0)
(-0.0478304 0.0103634 0)
(-0.0463208 0.0107128 0)
(-0.0567428 0.0116758 3.22612e-18)
(-0.0608138 0.0124918 -3.05718e-18)
(-0.0686737 0.0128451 0)
(-0.0744366 0.0135807 0)
(-0.0817887 0.0140793 0)
(-0.0887812 0.0146888 -1.29561e-18)
(-0.0963306 0.0149264 0)
(-0.103534 0.014957 -1.2091e-18)
(-0.110542 0.0146784 1.17138e-18)
(-0.117061 0.0142199 0)
(-0.123159 0.0135612 0)
(-0.128767 0.0127561 5.41324e-19)
(-0.133905 0.0118247 5.30443e-19)
(-0.138515 0.0107809 -1.04275e-18)
(-0.14256 0.00960389 -5.13904e-19)
(-0.145998 0.00830592 0)
(-0.148783 0.00689592 2.51718e-19)
(-0.150862 0.00538852 0)
(-0.152186 0.0037978 -2.49328e-19)
(-0.152701 0.00213999 1.2455e-19)
(-0.152353 0.000434208 0)
(-0.151083 -0.00129775 0)
(-0.148811 -0.00303218 -2.52131e-19)
(-0.14546 -0.00474517 2.54413e-19)
(-0.140956 -0.00640815 0)
(-0.135224 -0.00798796 -2.60619e-19)
(-0.128183 -0.00945032 0)
(-0.11976 -0.0107547 5.38629e-19)
(-0.109869 -0.0118631 0)
(-0.0984412 -0.0127247 0)
(-0.0853785 -0.0133024 0)
(-0.0706364 -0.0135281 -1.17391e-18)
(-0.0540647 -0.0133749 -1.20122e-18)
(-0.0357163 -0.0127469 -1.2321e-18)
(-0.015258 -0.0116299 1.5365e-21)
(0.00694386 -0.00991595 -1.29112e-18)
(0.0317319 -0.00757289 1.3223e-18)
(0.0581176 -0.00447316 2.70221e-18)
(0.0878872 -0.000713953 0)
(0.118722 0.00410236 -1.40778e-18)
(0.15448 0.00958024 2.86788e-18)
(0.189823 0.016566 2.89239e-18)
(0.233459 0.0240475 0)
(0.272799 0.0338279 0)
(0.328242 0.0436321 0)
(0.369477 0.0570986 2.74937e-18)
(0.445442 0.0697833 0)
(0.482463 0.0879682 0)
(0.599841 0.10536 2.54941e-18)
(0.617022 0.126557 -9.18371e-19)
(0.838685 0.153866 -2.20384e-18)
(0.880293 -0.0137334 -2.2801e-19)
(0.250946 0.0348615 -4.49805e-18)
(0.0816147 -0.0099031 0)
(-0.0885368 0.0268301 -4.91847e-18)
(-0.00563455 0.00281696 -4.4278e-18)
(-0.0492527 0.0127194 2.78872e-22)
(-0.0312144 0.0076221 0)
(-0.0477557 0.0107862 0)
(-0.046167 0.0111613 0)
(-0.0562136 0.0121465 -3.13747e-18)
(-0.0601651 0.0129689 0)
(-0.0678323 0.0133325 0)
(-0.0734605 0.0140887 1.35029e-18)
(-0.0805777 0.0146178 0)
(-0.0872936 0.0152434 0)
(-0.0945298 0.0154784 0)
(-0.101438 0.0154862 0)
(-0.108177 0.0151749 -1.12163e-18)
(-0.114456 0.0146793 0)
(-0.120338 0.0139836 1.05719e-18)
(-0.12575 0.0131419 -5.15466e-19)
(-0.130702 0.0121717 -5.04341e-19)
(-0.13513 0.0110847 9.89743e-19)
(-0.139 0.00986093 9.74013e-19)
(-0.142267 0.00851195 0)
(-0.144886 0.00704628 -2.37847e-19)
(-0.146805 0.00547847 0)
(-0.147974 0.00382255 0)
(-0.148341 0.00209464 -2.34391e-19)
(-0.147848 0.000313523 0)
(-0.146434 -0.00149963 0)
(-0.144023 -0.00332229 2.36164e-19)
(-0.140538 -0.00512956 0)
(-0.135907 -0.00689244 0)
(-0.130053 -0.00857745 2.43081e-19)
(-0.122899 -0.0101499 0)
(-0.114368 -0.0115686 -5.00773e-19)
(-0.104377 -0.0127949 0)
(-0.092857 -0.0137775 0)
(-0.0797092 -0.0144781 0)
(-0.0648898 -0.0148285 0)
(-0.0482491 -0.0147989 1.10683e-18)
(-0.0298361 -0.0142965 1.1306e-18)
(-0.00932749 -0.0132989 1.28313e-21)
(0.0129451 -0.0117063 1.18201e-18)
(0.0377618 -0.0094801 1.20437e-18)
(0.0642447 -0.00649571 -1.22975e-18)
(0.0940201 -0.00284452 0)
(0.124979 0.0018633 -1.26989e-18)
(0.160698 0.00724254 1.28878e-18)
(0.19623 0.0141259 -2.58842e-18)
(0.239746 0.0215141 0)
(0.279416 0.0311973 0)
(0.334578 0.0408963 -2.57686e-18)
(0.376441 0.0542775 -2.40457e-18)
(0.451788 0.0667846 2.44254e-18)
(0.490033 0.0849058 1.94567e-18)
(0.60601 0.10185 -2.20703e-18)
(0.625852 0.122764 7.84821e-19)
(0.842364 0.147795 0)
(0.895361 0.00501041 -2.04971e-19)
(0.337845 0.0365281 0)
(0.120461 -0.00464256 4.3347e-18)
(-0.0789876 0.0276352 4.85536e-18)
(-0.00784639 0.0025813 -5.03866e-22)
(-0.0491359 0.0132168 4.09613e-18)
(-0.0313185 0.00782564 0)
(-0.0473758 0.0111544 0)
(-0.0456758 0.0115271 0)
(-0.0553812 0.0125635 1.53182e-18)
(-0.0592049 0.0133862 1.4441e-18)
(-0.0666889 0.0137715 0)
(-0.0721778 0.0145424 -1.30986e-18)
(-0.0790657 0.0151011 1.25589e-18)
(-0.0855124 0.0157402 0)
(-0.0924474 0.0159757 0)
(-0.0990709 0.0159651 0)
(-0.10555 0.0156266 -1.0489e-22)
(-0.111597 0.0150985 0)
(-0.117267 0.0143697 -2.02904e-18)
(-0.122482 0.0134941 4.94007e-19)
(-0.127247 0.0124871 4.82596e-19)
(-0.131493 0.0113589 1.14166e-23)
(-0.135187 0.0100901 -4.64796e-19)
(-0.138284 0.00869194 0)
(-0.140738 0.0071724 0)
(-0.142499 0.00554598 0)
(-0.143515 0.00382662 1.11556e-19)
(-0.143735 0.00203028 2.22395e-19)
(-0.1431 0.000175255 0)
(-0.141548 -0.00171787 0)
(-0.139002 -0.00362716 -2.23271e-19)
(-0.135391 -0.00552714 -1.12294e-19)
(-0.13064 -0.00738848 0)
(-0.124674 -0.0091774 0)
(-0.117415 -0.0108587 0)
(-0.108787 -0.0123908 0)
(-0.0987084 -0.0137344 0)
(-0.0871088 -0.0148375 0)
(-0.0738904 -0.0156606 0)
(-0.059009 -0.0161359 0)
(-0.042316 -0.0162302 0)
(-0.0238567 -0.0158542 -9.80136e-22)
(-0.00331634 -0.0149779 1.07557e-18)
(0.019004 -0.0135087 0)
(0.0438292 -0.011402 -2.23121e-18)
(0.0703726 -0.00853827 -1.13406e-18)
(0.100128 -0.00499837 0)
(0.131165 -0.000407754 1.16875e-18)
(0.166818 0.00486985 -1.18296e-18)
(0.202478 0.0116353 2.36871e-18)
(0.245849 0.018931 -2.37626e-18)
(0.285767 0.0284873 0)
(0.340632 0.0380958 7.47756e-21)
(0.383004 0.0513286 2.16684e-18)
(0.457744 0.0637137 -4.37409e-18)
(0.497036 0.081634 -1.3304e-20)
(0.611673 0.098286 -1.93224e-18)
(0.633865 0.118659 6.51101e-19)
(0.845586 0.141944 1.58553e-18)
(0.907669 0.0223009 -9.94343e-19)
(0.414784 0.0400893 0)
(0.166656 0.00130997 9.93818e-21)
(-0.0574145 0.027805 -3.28473e-21)
(-0.0094084 0.00263652 4.45579e-18)
(-0.0487932 0.0136122 4.07173e-18)
(-0.0311042 0.00795162 0)
(-0.0467617 0.0114772 3.44557e-18)
(-0.0449208 0.0118274 0)
(-0.0543143 0.012936 -1.50093e-18)
(-0.0580002 0.0137559 6.02495e-23)
(-0.0653071 0.0141705 -1.3399e-18)
(-0.0706517 0.0149513 0)
(-0.0773148 0.0155376 -2.4426e-18)
(-0.0834973 0.0161875 0)
(-0.0901391 0.0164257 0)
(-0.0964842 0.0163999 0)
(-0.102707 0.0160386 1.04408e-18)
(-0.108523 0.0154817 0)
(-0.113982 0.0147228 9.78587e-19)
(-0.119 0.0138154 -9.51834e-19)
(-0.123574 0.0127732 0)
(-0.127636 0.0116053 3.39043e-24)
(-0.131153 0.0102931 0)
(-0.134078 0.00884726 0)
(-0.136367 0.00727543 -2.16955e-19)
(-0.137968 0.00559198 0)
(-0.138832 0.00381077 -2.13389e-19)
(-0.138904 0.0019475 -1.06259e-19)
(-0.138128 1.99859e-05 -2.65082e-20)
(-0.136438 -0.00195184 2.65137e-20)
(-0.133761 -0.00394622 1.06371e-19)
(-0.130027 -0.00593735 2.13792e-19)
(-0.12516 -0.00789564 0)
(-0.119086 -0.009787 2.17376e-19)
(-0.111728 -0.0115758 0)
(-0.103011 -0.0132201 0)
(-0.0928518 -0.0146797 0)
(-0.0811814 -0.0159024 4.59855e-19)
(-0.067902 -0.0168471 0)
(-0.0529695 -0.0174468 0)
(-0.0362361 -0.0176648 9.71829e-19)
(-0.0177435 -0.0174153 -9.91555e-19)
(0.00281516 -0.016661 0)
(0.0251656 -0.0153163 0)
(0.049984 -0.0133307 1.04551e-18)
(0.0765603 -0.0105906 1.06156e-18)
(0.106277 -0.0071641 -1.07582e-18)
(0.137356 -0.00269606 0)
(0.172925 0.00247772 0)
(0.208666 0.00911553 0)
(0.251878 0.0163186 5.0916e-21)
(0.291979 0.025729 0)
(0.346544 0.0352552 2.13944e-18)
(0.389332 0.0482996 0)
(0.46348 0.0605963 1.99215e-18)
(0.503682 0.0782293 -1.56158e-18)
(0.617043 0.094685 3.48391e-18)
(0.641322 0.114366 -5.83663e-19)
(0.848569 0.136283 -1.41896e-18)
(0.917704 0.0379332 1.7098e-19)
(0.482643 0.0450087 -3.91983e-18)
(0.217438 0.00792145 -4.09417e-18)
(-0.0268417 0.0281211 -3.27489e-21)
(-0.00912723 0.00313677 -4.46998e-18)
(-0.0482082 0.0139341 -4.06699e-18)
(-0.0305956 0.00801134 0)
(-0.0459457 0.0117597 -3.40767e-18)
(-0.0439388 0.0120721 0)
(-0.053048 0.0132694 -1.47562e-18)
(-0.0565859 0.014085 -1.38455e-18)
(-0.0637201 0.0145345 1.31174e-18)
(-0.0689156 0.0153212 -1.24699e-18)
(-0.075358 0.0159324 1.1919e-18)
(-0.0812802 0.0165906 -1.14149e-18)
(-0.0876346 0.0168328 1.09553e-18)
(-0.0937045 0.0167949 0)
(-0.0996731 0.0164143 0)
(-0.105258 0.0158315 0)
(-0.110504 0.0150449 4.74071e-19)
(-0.11532 0.0141075 4.60586e-19)
(-0.119701 0.0130315 0)
(-0.123576 0.0118251 -4.39024e-19)
(-0.126913 0.0104709 0)
(-0.129664 0.00897876 0)
(-0.131785 0.00735603 2.09015e-19)
(-0.133225 0.00561696 -2.06813e-19)
(-0.133933 0.00377531 1.0263e-19)
(-0.133857 0.0018465 0)
(-0.132938 -0.000152187 5.09193e-20)
(-0.131111 -0.00220137 -5.08903e-20)
(-0.128304 -0.00427936 0)
(-0.124448 -0.00636011 -1.02428e-19)
(-0.119467 -0.00841381 2.06131e-19)
(-0.113289 -0.0104061 -2.08005e-19)
(-0.105835 -0.012301 0)
(-0.0970329 -0.0140559 0)
(-0.0867982 -0.0156302 0)
(-0.0750632 -0.0169713 -4.38586e-19)
(-0.0617299 -0.0180368 0)
(-0.0467545 -0.0187599 0)
(-0.0299896 -0.0191009 -9.24326e-19)
(-0.0114737 -0.0189774 0)
(0.00909237 -0.0183456 9.57285e-19)
(0.0314582 -0.0171259 -9.72427e-19)
(0.0562572 -0.0152622 0)
(0.0828441 -0.0126476 1.00092e-18)
(0.112507 -0.00933574 2.02918e-18)
(0.1436 -0.00499382 -1.02149e-18)
(0.179069 7.44325e-05 0)
(0.214854 0.0065779 0)
(0.257894 0.0136878 1.02936e-18)
(0.298128 0.0229391 0)
(0.352389 0.0323878 1.98069e-18)
(0.395519 0.0452162 0)
(0.469093 0.0574464 1.82834e-18)
(0.51009 0.0747326 1.41697e-18)
(0.622236 0.0910565 -1.59447e-18)
(0.648375 0.109948 0)
(0.851425 0.130791 1.26913e-18)
(0.925876 0.0519134 2.87803e-19)
(0.542265 0.0508363 7.39885e-20)
(0.270639 0.0150788 4.00278e-18)
(0.0107469 0.0290702 -3.44161e-21)
(-0.00584803 0.00416823 -5.92221e-22)
(-0.047257 0.0142356 0)
(-0.0297891 0.00801376 0)
(-0.0449376 0.0120049 0)
(-0.0427467 0.0122671 -1.55571e-18)
(-0.0515993 0.0135669 2.90997e-18)
(-0.0549797 0.0143776 0)
(-0.0619452 0.0148665 1.2883e-18)
(-0.0669874 0.0156555 -5.35334e-23)
(-0.073213 0.016289 -1.16701e-18)
(-0.0788785 0.016953 -5.85394e-23)
(-0.0849503 0.0172 -1.06981e-18)
(-0.0907468 0.0171522 0)
(-0.0964613 0.0167556 0)
(-0.101814 0.0161495 0)
(-0.106843 0.0153373 -4.61022e-19)
(-0.111454 0.0143713 0)
(-0.115638 0.0132627 4.35833e-19)
(-0.119323 0.0120191 4.25809e-19)
(-0.122475 0.010624 -4.1732e-19)
(-0.125049 0.00908681 0)
(-0.126999 0.00741444 0)
(-0.128274 0.00562105 2.00034e-19)
(-0.128825 0.00372028 0)
(-0.128598 0.00172723 9.86313e-20)
(-0.127534 -0.000341347 -2.45774e-20)
(-0.125569 -0.00246653 2.45476e-20)
(-0.122632 -0.00462665 -9.82885e-20)
(-0.118653 -0.00679548 0)
(-0.11356 -0.00894303 -1.98516e-19)
(-0.107278 -0.0110347 0)
(-0.0997315 -0.0130341 0)
(-0.0908465 -0.0148983 4.08885e-19)
(-0.0805401 -0.0165858 0)
(-0.0687451 -0.0180439 0)
(-0.0553633 -0.0192287 0)
(-0.0403514 -0.0200742 0)
(-0.0235625 -0.0205374 0)
(-0.00503152 -0.0205392 0)
(0.0155327 -0.0200298 -1.82911e-18)
(0.0379012 -0.0189351 9.28536e-19)
(0.0626697 -0.0171936 9.41127e-19)
(0.0892482 -0.0147054 -1.90622e-18)
(0.118844 -0.0115092 -9.64733e-19)
(0.149926 -0.00729578 9.70481e-19)
(0.185283 -0.00233446 -9.74687e-19)
(0.22108 0.00402988 0)
(0.26394 0.0110455 2.01924e-21)
(0.304262 0.0201283 -1.8734e-18)
(0.358218 0.029502 -1.86364e-18)
(0.401625 0.0420943 -1.69937e-18)
(0.474643 0.0542727 -3.41515e-18)
(0.516335 0.0711691 -1.32026e-18)
(0.627321 0.0874066 1.46426e-18)
(0.65512 0.105447 4.5392e-19)
(0.85422 0.125449 -1.17234e-18)
(0.932556 0.0644439 -1.49131e-19)
(0.594456 0.0572283 3.74249e-18)
(0.324567 0.0226567 2.39019e-21)
(0.0544994 0.0307204 -3.8211e-21)
(0.00145999 0.00607221 4.40298e-18)
(-0.0456495 0.0145868 4.1123e-18)
(-0.0286525 0.00797018 -3.67045e-18)
(-0.0437305 0.0122151 1.68239e-18)
(-0.0413477 0.0124163 -4.82259e-23)
(-0.049974 0.0138305 -1.43868e-18)
(-0.053189 0.014636 -1.34393e-18)
(-0.0599903 0.0151683 -1.2687e-18)
(-0.0648757 0.0159565 2.40414e-18)
(-0.0708887 0.0166095 -5.59862e-23)
(-0.0763012 0.0172767 1.09433e-18)
(-0.0820946 0.0175291 0)
(-0.0876189 0.0174736 1.00476e-18)
(-0.0930784 0.0170635 0)
(-0.0981954 0.0164365 -9.30647e-19)
(-0.103005 0.0156005 -4.49847e-19)
(-0.107407 0.0146071 -4.36293e-19)
(-0.11139 0.0134671 -3.08102e-24)
(-0.114879 0.0121874 -4.14507e-19)
(-0.117844 0.0107526 4.05972e-19)
(-0.120237 0.00917147 0)
(-0.122012 0.00745065 -1.96502e-19)
(-0.12312 0.00560416 0)
(-0.12351 0.00364554 0)
(-0.123128 0.00158951 -9.56919e-20)
(-0.121918 -0.000547685 0)
(-0.119812 -0.00274749 0)
(-0.116743 -0.00498825 9.52065e-20)
(-0.112642 -0.00724362 0)
(-0.107435 -0.00948343 0)
(-0.101051 -0.0116729 1.93407e-19)
(-0.0934121 -0.0137751 0)
(-0.0844464 -0.0157469 -3.95048e-19)
(-0.0740711 -0.0175461 0)
(-0.0622195 -0.0191197 4.05677e-19)
(-0.0487936 -0.0204224 0)
(-0.0337505 -0.021389 0)
(-0.0169439 -0.0219733 0)
(0.00159493 -0.0220994 0)
(0.022149 -0.0217121 8.79038e-19)
(0.0445086 -0.0207421 0)
(0.0692366 -0.0191228 -1.80626e-18)
(0.09579 -0.0167614 9.13588e-19)
(0.125307 -0.0136814 -9.21992e-19)
(0.156357 -0.00959812 9.25964e-19)
(0.19159 -0.00474495 9.31302e-19)
(0.227371 0.00147675 0)
(0.27004 0.00839701 9.20636e-19)
(0.310413 0.017304 2.669e-18)
(0.364062 0.0266038 -1.75855e-18)
(0.40769 0.0389449 1.60812e-18)
(0.480168 0.0510808 1.60938e-18)
(0.522467 0.0675558 0)
(0.632341 0.0837394 -1.37484e-18)
(0.661622 0.100889 -8.37565e-19)
(0.856994 0.120245 0)
(0.938054 0.0757275 3.09665e-19)
(0.639969 0.0639188 0)
(0.377895 0.0305321 1.19572e-22)
(0.102592 0.0332366 -4.31718e-21)
(0.015588 0.00843694 -4.32591e-18)
(-0.0428129 0.0150904 -8.29954e-18)
(-0.0271138 0.0079008 7.37604e-18)
(-0.0423013 0.0123924 -1.67944e-18)
(-0.0397337 0.0125224 1.5341e-18)
(-0.0481694 0.0140617 0)
(-0.0512142 0.0148617 -3.90273e-23)
(-0.0578563 0.0154409 0)
(-0.0625828 0.0162256 -2.36993e-18)
(-0.068388 0.0168955 1.12787e-18)
(-0.0735515 0.0175636 0)
(-0.0790707 0.0178216 0)
(-0.0843237 0.0177599 -9.85698e-19)
(-0.0895273 0.0173387 0)
(-0.094406 0.0166928 9.11417e-19)
(-0.0989917 0.0158348 4.40209e-19)
(-0.103181 0.0148153 -1.80483e-25)
(-0.106958 0.0136448 -4.1488e-19)
(-0.110248 0.0123301 -4.04766e-19)
(-0.113021 0.0108567 0)
(-0.115228 0.00923266 0)
(-0.116825 0.00746453 1.91586e-19)
(-0.117761 0.00556611 0)
(-0.117987 0.00355085 9.37481e-20)
(-0.117448 0.00143308 -9.31464e-20)
(-0.116087 -0.000771454 2.31792e-20)
(-0.113839 -0.00304451 -2.31272e-20)
(-0.110637 -0.00536443 9.25322e-20)
(-0.106411 -0.00770476 -9.2776e-20)
(-0.101091 -0.0100352 1.86462e-19)
(-0.0946032 -0.0123208 -1.87837e-19)
(-0.0868729 -0.0145241 0)
(-0.0778277 -0.0166019 0)
(-0.0673855 -0.0185111 0)
(-0.0554802 -0.0201985 -1.73417e-22)
(-0.042014 -0.0216176 3.98976e-19)
(-0.0269442 -0.0227038 0)
(-0.0101253 -0.023408 0)
(0.00841478 -0.0236573 0)
(0.028951 -0.0233915 0)
(0.0512911 -0.0225456 0)
(0.0759691 -0.0210482 7.35076e-22)
(0.102482 -0.0188137 0)
(0.131911 -0.0158501 1.77565e-18)
(0.162908 -0.011898 -1.78121e-18)
(0.198006 -0.00715406 -8.92674e-19)
(0.233745 -0.00107762 0)
(0.276216 0.00574586 0)
(0.316604 0.0144717 -1.69806e-18)
(0.369945 0.0236974 4.34479e-21)
(0.413744 0.0357757 -1.52176e-18)
(0.485693 0.0478751 1.51993e-18)
(0.528522 0.0639046 1.15458e-18)
(0.637326 0.0800582 -1.28679e-18)
(0.667928 0.0962922 7.70515e-19)
(0.859772 0.115165 1.0084e-18)
(0.942622 0.0859137 1.31892e-19)
(0.679512 0.0706987 -3.47263e-18)
(0.429607 0.0385901 -7.52827e-18)
(0.153574 0.0366732 -4.94428e-21)
(0.0366284 0.0112319 4.23485e-18)
(-0.0377012 0.0158817 4.17853e-18)
(-0.0250343 0.00784494 -1.85807e-18)
(-0.0406075 0.0125402 0)
(-0.037886 0.0125875 0)
(-0.0461752 0.0142613 1.41782e-18)
(-0.049049 0.0150555 1.31819e-18)
(-0.0555394 0.015685 0)
(-0.0601062 0.0164638 1.17088e-18)
(-0.0657094 0.0171482 0)
(-0.0706286 0.0178147 0)
(-0.075878 0.0180783 0)
(-0.0808608 0.0180118 0)
(-0.0858074 0.0175817 9.30164e-19)
(-0.0904449 0.0169189 4.47454e-19)
(-0.0948033 0.0160403 -4.31917e-19)
(-0.0987747 0.0149958 2.25633e-24)
(-0.102341 0.0137959 0)
(-0.105429 0.0124471 3.96391e-19)
(-0.108005 0.0109361 0)
(-0.110023 0.00927023 0)
(-0.111437 0.00745586 1.87314e-19)
(-0.112197 0.00550667 -1.84966e-19)
(-0.112254 0.00343593 -9.16078e-20)
(-0.111555 0.00125765 9.09897e-20)
(-0.110041 -0.00101295 -4.52599e-20)
(-0.107648 -0.00335789 4.51412e-20)
(-0.10431 -0.00575546 -9.02831e-20)
(-0.0999583 -0.00817919 9.04893e-20)
(-0.0945227 -0.0105986 -5.30416e-23)
(-0.0879317 -0.0129786 -1.82962e-19)
(-0.0801099 -0.0152814 0)
(-0.0709861 -0.0174633 0)
(-0.0604784 -0.0194808 0)
(-0.0485217 -0.0212803 -7.65093e-19)
(-0.0350183 -0.0228142 -3.88164e-19)
(-0.019926 -0.0240185 0)
(-0.00309997 -0.0248413 0)
(0.0154354 -0.0252124 -8.11601e-19)
(0.0359464 -0.0250673 0)
(0.0582573 -0.0243446 0)
(0.0828762 -0.0229686 1.68765e-18)
(0.109336 -0.0208606 -8.51208e-19)
(0.138664 -0.0180137 -1.71728e-18)
(0.169592 -0.0141935 1.0167e-21)
(0.204544 -0.00955958 1.72401e-18)
(0.240219 -0.00363034 8.51582e-19)
(0.282481 0.0030949 0)
(0.322853 0.0116353 8.16259e-19)
(0.375882 0.020786 1.6109e-18)
(0.419807 0.0325926 1.45971e-18)
(0.491238 0.0446586 -1.45562e-18)
(0.534525 0.0602246 -1.10254e-18)
(0.642296 0.0763656 1.22686e-18)
(0.674074 0.0916705 -3.61544e-19)
(0.862573 0.110199 -9.58174e-19)
(0.946468 0.0951243 1.24652e-19)
(0.713749 0.0774083 3.44281e-18)
(0.478945 0.0467201 3.66056e-21)
(0.20627 0.0409822 -5.6497e-21)
(0.0636784 0.0147317 0)
(-0.0286749 0.0168942 0)
(-0.0221643 0.00787053 2.51708e-22)
(-0.0385794 0.0126654 0)
(-0.0357737 0.0126139 0)
(-0.0439736 0.0144302 4.67642e-23)
(-0.0466819 0.0152179 0)
(-0.0530309 0.0159011 0)
(-0.0574394 0.0166719 1.1596e-18)
(-0.0628475 0.0173686 0)
(-0.067528 0.0180312 0)
(-0.0725128 0.0183001 0)
(-0.0772271 0.0182299 0)
(-0.0819158 0.0177927 2.03121e-23)
(-0.0863096 0.0171147 -4.4035e-19)
(-0.090437 0.016217 8.49549e-19)
(-0.0941865 0.0151485 3.78915e-24)
(-0.0975383 0.0139202 3.99303e-19)
(-0.100418 0.0125383 0)
(-0.102794 0.0109906 3.80485e-19)
(-0.104618 0.00928394 0)
(-0.105845 0.0074244 -1.83661e-19)
(-0.106426 0.00542553 2.2938e-23)
(-0.106311 0.00330049 0)
(-0.105447 0.00106288 0)
(-0.103777 -0.00127251 4.30472e-24)
(-0.101236 -0.00368794 -4.77559e-24)
(-0.0977594 -0.00616169 4.41522e-20)
(-0.0932802 -0.00866723 0)
(-0.0877281 -0.011174 -1.77749e-19)
(-0.0810327 -0.0136466 1.78883e-19)
(-0.0731192 -0.0160471 0)
(-0.0639171 -0.0183314 -3.64297e-19)
(-0.0533452 -0.0204553 0)
(-0.0413391 -0.0223653 1.41439e-22)
(-0.0278015 -0.0240122 0)
(-0.0126904 -0.0253328 3.84215e-19)
(0.00413809 -0.0262728 3.89899e-19)
(0.0226628 -0.0267643 4.13786e-22)
(0.0431417 -0.0267389 -8.01416e-19)
(0.065414 -0.0261385 0)
(0.089965 -0.0248832 -6.01992e-22)
(0.116358 -0.0229012 8.2808e-19)
(0.145576 -0.0201709 7.94635e-22)
(0.176418 -0.0164827 8.35272e-19)
(0.211213 -0.0119597 -1.05912e-21)
(0.246802 -0.00617917 -1.25735e-21)
(0.288846 0.000446299 0)
(0.329174 0.00879795 0)
(0.381886 0.0178722 0)
(0.425896 0.0293999 0)
(0.496815 0.041434 0)
(0.540495 0.0565224 1.04618e-18)
(0.647266 0.072664 0)
(0.680087 0.087034 0)
(0.865409 0.105339 -9.03534e-19)
(0.94976 0.103472 -4.75017e-19)
(0.7433 0.0839323 0)
(0.525369 0.0548155 5.15158e-21)
(0.259688 0.0460578 -6.37645e-21)
(0.0961328 0.0189876 0)
(-0.0143929 0.0181771 2.06993e-18)
(-0.0180877 0.00806476 -1.89604e-18)
(-0.0361063 0.0127821 0)
(-0.0333505 0.012605 0)
(-0.0415377 0.0145694 -1.41109e-18)
(-0.0440949 0.0153492 0)
(-0.0503172 0.0160893 0)
(-0.0545717 0.0168504 -1.15079e-18)
(-0.0597934 0.0175574 0)
(-0.0642422 0.0182137 -1.03637e-18)
(-0.0689686 0.0184875 0)
(-0.0734167 0.0184145 0)
(-0.0778476 0.0179719 1.78409e-23)
(-0.0819954 0.0172803 0)
(-0.0858885 0.0163648 -4.1865e-19)
(-0.0894122 0.0152734 4.04959e-19)
(-0.0925455 0.0140175 -7.86193e-19)
(-0.0952135 0.0126035 3.82885e-19)
(-0.0973845 0.0110201 -3.74227e-19)
(-0.09901 0.00927355 0)
(-0.100046 0.00736987 -1.80468e-19)
(-0.100443 0.00532241 3.56183e-19)
(-0.100153 0.00314419 0)
(-0.099121 0.000848456 -4.37394e-20)
(-0.0972909 -0.00155047 2.17445e-20)
(-0.0945994 -0.00403501 -2.1674e-20)
(-0.0909823 -0.00658344 -4.33169e-20)
(-0.0863734 -0.0091692 0)
(-0.0807032 -0.0117616 -1.74206e-19)
(-0.0739024 -0.0143252 1.75269e-19)
(-0.0658967 -0.0168215 0)
(-0.0566168 -0.0192064 3.5697e-19)
(-0.0459817 -0.0214349 0)
(-0.0339282 -0.0234534 3.65669e-19)
(-0.0203589 -0.0252115 0)
(-0.00523252 -0.0266469 -3.76058e-19)
(0.0115938 -0.0277025 -3.81411e-19)
(0.030102 -0.0283128 3.74471e-22)
(0.0505421 -0.0284059 7.83373e-19)
(0.072767 -0.0279267 0)
(0.0972413 -0.0267912 -8.0139e-19)
(0.123555 -0.0249345 0)
(0.152653 -0.0223206 8.13226e-19)
(0.183394 -0.0187646 0)
(0.21802 -0.0143532 -8.13539e-19)
(0.253503 -0.00872233 -1.60387e-18)
(0.295319 -0.00219819 0)
(0.335577 0.00596207 0)
(0.387967 0.0149578 0)
(0.432023 0.0262013 6.75098e-19)
(0.502435 0.0382033 0)
(0.546449 0.0528035 -5.74526e-21)
(0.652247 0.0689555 0)
(0.685989 0.0823904 3.11317e-19)
(0.868289 0.100578 8.68934e-19)
(0.952639 0.111063 0)
(0.768741 0.0901918 3.24337e-18)
(0.568516 0.0627766 3.59418e-18)
(0.312963 0.051765 -7.07237e-21)
(0.133244 0.0239476 0)
(0.00548926 0.0198577 -2.03974e-18)
(-0.0122162 0.0085212 0)
(-0.0330124 0.0129152 1.71564e-18)
(-0.0305497 0.0125664 1.54144e-18)
(-0.0388295 0.0146805 1.41282e-18)
(-0.0412634 0.0154501 1.30324e-18)
(-0.0473801 0.0162501 1.21819e-18)
(-0.0514885 0.0169998 0)
(-0.0565348 0.0177154 0)
(-0.0607607 0.018363 1.02765e-18)
(-0.0652361 0.0186411 0)
(-0.0694218 0.018566 0)
(-0.0735954 0.0181194 -8.94018e-19)
(-0.0774957 0.0174156 0)
(-0.0811519 0.0164835 -4.13432e-19)
(-0.0844465 0.0153702 0)
(-0.0873575 0.0140877 3.87771e-19)
(-0.0898099 0.0126425 -3.77528e-19)
(-0.091772 0.0110242 0)
(-0.0931954 0.00923882 0)
(-0.0940368 0.007292 1.76384e-23)
(-0.0942464 0.00519701 -1.75342e-19)
(-0.0937761 0.00296674 0)
(-0.092573 0.000614036 4.30426e-20)
(-0.0905799 -0.00184716 2.13843e-20)
(-0.0877349 -0.00439945 -2.13088e-20)
(-0.0839747 -0.00702106 0)
(-0.079234 -0.00968545 0)
(-0.0734443 -0.0123619 4.20748e-23)
(-0.066537 -0.0150146 -4.48387e-23)
(-0.0584389 -0.017605 0)
(-0.0490813 -0.0200886 0)
(-0.0383841 -0.0224197 3.5438e-19)
(-0.0262847 -0.0245449 0)
(-0.0126865 -0.0264124 0)
(0.0024519 -0.0279606 0)
(0.0192716 -0.0291303 0)
(0.0377576 -0.0298578 7.5766e-19)
(0.0581523 -0.030068 7.67103e-19)
(0.0803211 -0.0297089 0)
(0.10471 -0.0286922 0)
(0.130934 -0.0269599 7.89706e-19)
(0.159901 -0.0244621 0)
(0.190525 -0.0210381 0)