/*--------------------------------*- C++ -*----------------------------------*\
| =========                 |                                                 |
| \\      /  F ield         | OpenFOAM: The Open Source CFD Toolbox           |
|  \\    /   O peration     | Version:  2.4.0                                 |
|   \\  /    A nd           | Web:      www.OpenFOAM.org                      |
|    \\/     M anipulation  |                                                 |
\*---------------------------------------------------------------------------*/
FoamFile
{
    version     2.0;
    format      ascii;
    class       volScalarField;
    location    "400";
    object      p;
}
// * * * * * * * * * * * * * * * * * * * * * * * * * * * * * * * * * * * * * //

dimensions      [0 2 -2 0 0 0 0];

internalField   nonuniform List<scalar> 
23567
(
-4.04578
-4.86733
-5.23165
-5.35837
-5.49094
-5.62593
-5.74074
-5.84181
-5.93736
-6.02838
-6.11574
-6.19954
-6.28109
-6.3598
-6.4366
-6.51065
-6.58322
-6.65325
-6.72688
-6.80254
-6.88291
-6.96767
-7.06553
-7.17443
-7.31032
-4.24864
-4.89168
-5.2262
-5.35369
-5.48568
-5.61976
-5.73564
-5.83772
-5.93377
-6.02502
-6.11224
-6.19573
-6.27671
-6.35483
-6.43088
-6.50435
-6.577
-6.64792
-6.72146
-6.7967
-6.87607
-6.95995
-7.05434
-7.15619
-7.26808
-4.42635
-4.90516
-5.22559
-5.36495
-5.49687
-5.62825
-5.74195
-5.84227
-5.93648
-6.026
-6.11149
-6.19343
-6.27288
-6.34969
-6.42439
-6.49701
-6.56908
-6.64019
-6.71258
-6.78636
-6.86347
-6.94401
-7.03096
-7.11884
-7.20002
-4.59622
-4.94758
-5.23929
-5.38256
-5.50848
-5.63484
-5.74507
-5.84379
-5.93679
-6.02529
-6.1099
-6.19113
-6.26979
-6.34605
-6.42016
-6.4924
-6.56371
-6.63408
-6.70494
-6.77693
-6.85111
-6.92723
-7.00596
-7.08131
-7.14633
-4.74213
-5.00304
-5.2601
-5.40222
-5.52404
-5.64464
-5.75212
-5.84948
-5.94107
-6.02817
-6.11144
-6.19144
-6.26868
-6.34363
-6.41651
-6.48759
-6.55754
-6.62659
-6.69569
-6.76539
-6.83608
-6.90727
-6.97822
-7.04394
-7.0986
-4.86536
-5.06139
-5.28546
-5.42421
-5.54194
-5.65698
-5.76135
-5.85673
-5.94652
-6.03194
-6.11369
-6.1923
-6.26825
-6.34194
-6.4136
-6.48347
-6.55209
-6.61973
-6.68696
-6.75408
-6.82114
-6.88742
-6.9516
-7.00974
-7.05721
-4.97391
-5.12055
-5.31393
-5.44739
-5.56053
-5.67033
-5.7714
-5.86457
-5.95247
-6.03621
-6.1164
-6.19359
-6.26818
-6.34053
-6.41084
-6.47935
-6.54645
-6.61239
-6.67747
-6.7418
-6.80517
-6.86674
-6.92505
-6.97718
-7.01976
-5.07214
-5.18104
-5.34569
-5.47173
-5.57962
-5.68416
-5.78169
-5.87242
-5.95831
-6.04027
-6.11887
-6.19458
-6.26774
-6.33866
-6.40754
-6.47457
-6.54001
-6.60406
-6.66684
-6.7283
-6.78808
-6.84533
-6.89867
-6.94609
-6.98517
-5.16192
-5.24244
-5.38097
-5.49767
-5.59965
-5.69873
-5.79237
-5.88032
-5.96394
-6.04395
-6.12081
-6.1949
-6.26652
-6.33591
-6.40325
-6.46867
-6.53235
-6.59438
-6.65479
-6.7134
-6.76977
-6.82316
-6.87233
-6.91604
-6.95253
-5.23082
-5.29354
-5.41296
-5.52074
-5.61725
-5.71161
-5.80171
-5.88704
-5.96854
-6.04673
-6.12199
-6.1946
-6.26481
-6.33282
-6.39877
-6.46275
-6.52485
-6.58514
-6.64354
-6.69984
-6.75358
-6.80414
-6.85042
-6.89168
-6.9265
-5.28497
-5.33608
-5.44082
-5.54107
-5.63282
-5.72303
-5.80999
-5.89295
-5.97251
-6.04904
-6.12283
-6.1941
-6.26304
-6.32981
-6.39451
-6.45721
-6.51794
-6.57671
-6.63342
-6.68783
-6.73949
-6.78788
-6.83206
-6.87154
-6.9052
-5.33884
-5.38033
-5.47113
-5.5635
-5.65006
-5.73578
-5.81927
-5.89955
-5.97689
-6.05154
-6.12366
-6.1934
-6.2609
-6.32627
-6.38957
-6.45083
-6.51006
-6.5672
-6.62213
-6.67461
-6.7242
-6.77051
-6.81274
-6.85062
-6.88324
-5.39213
-5.42577
-5.50375
-5.58797
-5.66899
-5.74991
-5.82962
-5.90692
-5.98178
-6.05429
-6.12452
-6.19254
-6.25842
-6.32222
-6.38396
-6.44363
-6.50121
-6.55662
-6.60969
-6.66021
-6.70779
-6.75211
-6.79256
-6.829
-6.86072
-5.44448
-5.47184
-5.53834
-5.61433
-5.68955
-5.76546
-5.84109
-5.91511
-5.98722
-6.05736
-6.12547
-6.19157
-6.25564
-6.31769
-6.37771
-6.43566
-6.49147
-6.54504
-6.5962
-6.64476
-6.69038
-6.73283
-6.77164
-6.8068
-6.83772
-5.49553
-5.51798
-5.57439
-5.6423
-5.71159
-5.78234
-5.85364
-5.92412
-5.99323
-6.06075
-6.12654
-6.19051
-6.25259
-6.31273
-6.37088
-6.42696
-6.48089
-6.53255
-6.58177
-6.62839
-6.67214
-6.71284
-6.75016
-6.78416
-6.81437
-5.54494
-5.56358
-5.6113
-5.67148
-5.73482
-5.80035
-5.86715
-5.93387
-5.99977
-6.06446
-6.12772
-6.18938
-6.24929
-6.30737
-6.36351
-6.41761
-6.46957
-6.51927
-6.56655
-6.61128
-6.65323
-6.6923
-6.72826
-6.76122
-6.79079
-5.59226
-5.60796
-5.64834
-5.70132
-5.75883
-5.81917
-5.88139
-5.94421
-6.00672
-6.06841
-6.12896
-6.18813
-6.24573
-6.30161
-6.35563
-6.40767
-6.4576
-6.50532
-6.55069
-6.59358
-6.63384
-6.67141
-6.70612
-6.73813
-6.76712
-5.63696
-5.65035
-5.68463
-5.73113
-5.78304
-5.83834
-5.89604
-5.95489
-6.01389
-6.07245
-6.13016
-6.18672
-6.24189
-6.29546
-6.34728
-6.3972
-6.44509
-6.49084
-6.53434
-6.57548
-6.61415
-6.65034
-6.68392
-6.71506
-6.74352
-5.67833
-5.68985
-5.71921
-5.76005
-5.80674
-5.85727
-5.9106
-5.9655
-6.02097
-6.07634
-6.13114
-6.18502
-6.23768
-6.2889
-6.33849
-6.38627
-6.43213
-6.47596
-6.51766
-6.55715
-6.59436
-6.62928
-6.66184
-6.69218
-6.72015
-5.71551
-5.72554
-5.75095
-5.78697
-5.82902
-5.87517
-5.92438
-5.9755
-6.02752
-6.07974
-6.13165
-6.18284
-6.233
-6.28187
-6.32924
-6.37494
-6.41882
-6.46082
-6.50082
-6.53878
-6.57464
-6.60841
-6.64004
-6.66968
-6.69719
-5.74741
-5.75625
-5.77856
-5.81065
-5.84871
-5.89101
-5.93651
-5.98414
-6.03294
-6.08218
-6.13131
-6.17992
-6.22766
-6.27426
-6.31951
-6.36322
-6.40525
-6.44553
-6.48397
-6.52053
-6.55518
-6.58792
-6.61874
-6.64774
-6.67485
-5.77267
-5.78052
-5.80049
-5.82956
-5.86443
-5.90353
-5.94589
-5.99051
-6.03646
-6.08301
-6.12963
-6.17588
-6.2214
-6.26592
-6.30921
-6.35111
-6.39145
-6.43019
-6.46724
-6.50257
-6.53615
-6.56799
-6.5981
-6.62656
-6.65333
-5.78939
-5.79645
-5.81484
-5.84187
-5.87446
-5.91119
-5.95116
-5.99343
-6.0371
-6.08146
-6.12599
-6.17024
-6.21387
-6.2566
-6.29821
-6.33854
-6.37745
-6.41486
-6.45073
-6.48502
-6.51772
-6.54882
-6.57836
-6.60637
-6.63288
-5.79463
-5.80137
-5.81908
-5.84517
-5.87664
-5.91212
-5.95075
-5.99162
-6.03386
-6.07679
-6.1199
-6.16275
-6.20502
-6.24645
-6.28683
-6.32599
-6.36382
-6.40026
-6.43525
-6.46878
-6.50082
-6.53139
-6.56051
-6.58821
-6.61454
-5.78774
-5.79467
-5.81266
-5.83899
-5.87061
-5.90608
-5.94455
-5.98512
-6.02693
-6.06933
-6.11182
-6.15401
-6.19558
-6.2363
-6.27597
-6.31446
-6.35164
-6.38749
-6.42196
-6.45502
-6.48668
-6.51693
-6.54583
-6.57337
-6.59963
-5.77104
-5.77859
-5.79773
-5.82541
-5.85828
-5.89481
-5.93412
-5.9753
-6.01751
-6.06012
-6.10267
-6.14479
-6.18621
-6.22671
-6.26612
-6.30431
-6.34122
-6.3768
-6.41103
-6.44387
-6.47535
-6.50547
-6.53428
-6.56177
-6.58805
-5.7464
-5.75485
-5.77606
-5.80618
-5.84131
-5.87979
-5.92075
-5.96326
-6.00651
-6.04989
-6.09299
-6.13549
-6.17714
-6.21776
-6.25722
-6.29541
-6.3323
-6.36784
-6.40201
-6.43481
-6.46626
-6.49637
-6.52519
-6.55271
-6.57907
-5.71503
-5.72471
-5.749
-5.78271
-5.82105
-5.86224
-5.90551
-5.94993
-5.99468
-6.03923
-6.08323
-6.1264
-6.16856
-6.20955
-6.24927
-6.28766
-6.32469
-6.36034
-6.39459
-6.42747
-6.45899
-6.48916
-6.51806
-6.54567
-6.57213
-5.67761
-5.68907
-5.71773
-5.75625
-5.79866
-5.84322
-5.88932
-5.93605
-5.98264
-6.02863
-6.07375
-6.1178
-6.16062
-6.20213
-6.24226
-6.28097
-6.31826
-6.35411
-6.38854
-6.42156
-6.45321
-6.48351
-6.51252
-6.54025
-6.56683
-5.63457
-5.64855
-5.68329
-5.72793
-5.77512
-5.82359
-5.87294
-5.92227
-5.97088
-6.01846
-6.06483
-6.10985
-6.15344
-6.19555
-6.23617
-6.27527
-6.31287
-6.34898
-6.38363
-6.41684
-6.44867
-6.47912
-6.50828
-6.53613
-6.56285
-5.58604
-5.60378
-5.64669
-5.69877
-5.75129
-5.80405
-5.85694
-5.90902
-5.95975
-6.00898
-6.05663
-6.10266
-6.14705
-6.1898
-6.23093
-6.27045
-6.30839
-6.3448
-6.37969
-6.41312
-6.44513
-6.47575
-6.50506
-6.53305
-6.5599
-5.53185
-5.55529
-5.60899
-5.6697
-5.7279
-5.78521
-5.84179
-5.89665
-5.94948
-6.00033
-6.04925
-6.09626
-6.14143
-6.1848
-6.22643
-6.26637
-6.30466
-6.34136
-6.37651
-6.41015
-6.44235
-6.47314
-6.5026
-6.53073
-6.5577
-5.47154
-5.50362
-5.57134
-5.64158
-5.70555
-5.76752
-5.82781
-5.88536
-5.94018
-5.99255
-6.04264
-6.09056
-6.13645
-6.1804
-6.2225
-6.26283
-6.30146
-6.33844
-6.37383
-6.40769
-6.44007
-6.47102
-6.50063
-6.52889
-6.55596
-5.40436
-5.44947
-5.53498
-5.61512
-5.68462
-5.75127
-5.81512
-5.87515
-5.93178
-5.98551
-6.03664
-6.08537
-6.13189
-6.17636
-6.21889
-6.25957
-6.29851
-6.33575
-6.37138
-6.40544
-6.43801
-6.46913
-6.49887
-6.52726
-6.55443
-5.32929
-5.39386
-5.50116
-5.59074
-5.66525
-5.73644
-5.80361
-5.86583
-5.92403
-5.97894
-6.03096
-6.08039
-6.12748
-6.17241
-6.21532
-6.25634
-6.29557
-6.33308
-6.36895
-6.40323
-6.43599
-6.46729
-6.49719
-6.52573
-6.553
-5.24498
-5.33792
-5.47082
-5.56838
-5.64715
-5.7227
-5.7929
-5.85703
-5.91658
-5.97252
-6.02533
-6.07539
-6.12299
-6.16835
-6.21166
-6.25303
-6.29256
-6.33035
-6.36648
-6.40101
-6.43398
-6.46549
-6.49557
-6.5243
-6.55169
-5.14894
-5.28196
-5.4441
-5.54761
-5.6299
-5.70967
-5.78271
-5.84864
-5.90947
-5.96639
-6.02001
-6.07074
-6.1189
-6.16476
-6.2085
-6.25026
-6.29013
-6.32824
-6.36464
-6.39944
-6.43265
-6.46435
-6.49459
-6.52348
-6.55091
-5.03492
-5.22582
-5.42105
-5.52863
-5.61426
-5.69835
-5.77383
-5.84113
-5.90298
-5.96063
-6.01482
-6.06606
-6.1147
-6.16102
-6.20518
-6.24735
-6.28763
-6.32613
-6.36291
-6.39805
-6.43161
-6.46372
-6.49427
-6.52343
-6.55105
-4.89475
-5.17632
-5.40257
-5.51043
-5.60033
-5.69045
-5.76925
-5.83788
-5.90099
-5.95971
-6.01456
-6.06623
-6.11515
-6.16169
-6.20599
-6.24828
-6.28863
-6.32722
-6.36405
-6.39926
-6.43286
-6.46501
-6.49552
-6.52467
-6.55212
-4.73224
-5.15985
-5.40212
-5.50052
-5.58848
-5.68124
-5.76114
-5.83001
-5.89376
-5.95354
-6.00935
-6.06193
-6.11166
-6.15901
-6.20401
-6.247
-6.28796
-6.32716
-6.36453
-6.4003
-6.43436
-6.46696
-6.49784
-6.52741
-6.55487
-4.53677
-5.13267
-5.407
-5.50503
-5.59485
-5.69016
-5.76978
-5.83782
-5.90075
-5.9598
-6.01488
-6.06691
-6.1162
-6.16326
-6.20804
-6.25096
-6.29187
-6.33116
-6.3686
-6.40456
-6.43878
-6.47162
-6.50271
-6.53247
-6.56039
-7.58446
-7.58454
-7.58454
-7.58447
-7.58433
-7.58408
-7.58363
-7.58294
-7.582
-7.58089
-7.57976
-7.57879
-7.57812
-7.57793
-7.57825
-7.57906
-7.58029
-7.58183
-7.58353
-7.58528
-7.58695
-7.58847
-7.58978
-7.59081
-7.59154
-7.592
-7.59224
-7.59233
-7.59231
-7.59224
-7.59217
-7.59206
-7.59186
-7.59156
-7.59117
-7.59072
-7.59023
-7.58972
-7.58921
-7.5887
-7.58821
-7.58776
-7.58741
-7.58723
-7.58732
-7.58777
-7.58859
-7.58973
-7.5911
-7.5926
-7.59411
-7.59557
-7.59695
-7.59826
-7.59965
-7.60129
-7.60349
-7.60633
-7.60943
-7.61226
-7.61422
-7.61503
-7.61507
-7.61575
-7.62019
-7.63274
-7.65486
-7.68477
-7.72072
-7.761
-7.80416
-7.84905
-7.89479
-7.94071
-7.98635
-8.03138
-8.07559
-8.11882
-8.16099
-8.20208
-8.24208
-8.28101
-8.31883
-8.35554
-8.39118
-8.42579
-8.45941
-8.49207
-8.52377
-8.55454
-8.58436
-8.61323
-8.64114
-8.66807
-8.69399
-8.71888
-8.74268
-8.76534
-8.78682
-8.80708
-8.82606
-8.84375
-8.86009
-8.875
-8.88843
-8.9003
-8.91054
-8.91911
-8.92594
-8.93097
-8.93413
-8.93538
-8.93465
-8.9319
-8.92705
-8.92007
-8.91091
-8.89951
-8.88582
-8.86981
-8.85143
-8.83063
-8.80739
-8.78165
-8.75338
-8.72256
-8.68914
-8.6531
-8.61441
-8.57304
-8.52897
-8.48218
-8.43265
-8.38039
-8.3254
-8.26767
-8.2071
-8.14365
-8.07735
-8.00819
-7.93622
-7.86148
-7.78387
-7.70319
-7.61966
-7.53364
-7.44499
-7.35354
-7.25937
-7.16247
-7.06291
-6.9607
-6.85591
-6.74854
-6.63867
-6.52633
-6.41156
-6.29442
-6.17497
-6.05326
-5.92935
-5.8033
-5.67518
-5.54504
-5.41296
-5.279
-5.14323
-5.00571
-4.86653
-4.72574
-4.58342
-4.43963
-4.29444
-4.14794
-4.00017
-3.85121
-3.70112
-3.54998
-3.39783
-3.24475
-3.09078
-2.936
-2.78045
-2.6242
-2.4673
-2.30981
-2.15178
-1.9932
-1.83403
-1.67431
-1.51412
-1.35349
-1.19244
-1.03099
-0.869162
-0.706959
-0.544392
-0.381463
-0.218173
-0.0545216
0.109497
0.273891
0.43867
0.603845
0.76943
0.935438
1.10189
1.26878
1.43614
1.60399
1.77241
1.94139
2.11092
2.28103
2.4517
2.62296
2.79481
2.96725
3.14028
3.31391
3.48812
3.66291
3.83826
4.01417
4.1906
4.36755
4.54496
4.72282
4.90108
5.0797
5.25861
5.43775
5.61706
5.79646
5.97586
6.15518
6.33431
6.51314
6.69156
6.86945
7.04666
7.22306
7.39848
7.57276
7.74573
7.9172
8.08699
8.2549
8.42079
8.58442
8.74582
8.90482
9.06384
9.21097
-7.5848
-7.58486
-7.58492
-7.58498
-7.58498
-7.58488
-7.58458
-7.58399
-7.58314
-7.58214
-7.58114
-7.58034
-7.5799
-7.57992
-7.58044
-7.58141
-7.58274
-7.58433
-7.58604
-7.58775
-7.58937
-7.59082
-7.59202
-7.59293
-7.59354
-7.59386
-7.59395
-7.59384
-7.59358
-7.59322
-7.59276
-7.59224
-7.59168
-7.59111
-7.59055
-7.59004
-7.58958
-7.58916
-7.58875
-7.58836
-7.58799
-7.58767
-7.58744
-7.58739
-7.58758
-7.58811
-7.58909
-7.5904
-7.59186
-7.5933
-7.59457
-7.59567
-7.59665
-7.5976
-7.59849
-7.59926
-7.60007
-7.60093
-7.6021
-7.60482
-7.6096
-7.61436
-7.61824
-7.62392
-7.63431
-7.65077
-7.6739
-7.70348
-7.73833
-7.7771
-7.81857
-7.86171
-7.90569
-7.94992
-7.99398
-8.03757
-8.08046
-8.1225
-8.16357
-8.20362
-8.24262
-8.28058
-8.31754
-8.35355
-8.38859
-8.4227
-8.45588
-8.48814
-8.5195
-8.54995
-8.57949
-8.60811
-8.6358
-8.66253
-8.68827
-8.713
-8.73667
-8.75926
-8.78071
-8.80097
-8.82
-8.83773
-8.85408
-8.86901
-8.88245
-8.89435
-8.90464
-8.91326
-8.92015
-8.92526
-8.92852
-8.92987
-8.92926
-8.92663
-8.92193
-8.91511
-8.90611
-8.89488
-8.88139
-8.86558
-8.84741
-8.82683
-8.80382
-8.77833
-8.75032
-8.71976
-8.68662
-8.65087
-8.61247
-8.57141
-8.52767
-8.48121
-8.43201
-8.38008
-8.32539
-8.26792
-8.20763
-8.1445
-8.07853
-8.00972
-7.9381
-7.86367
-7.78638
-7.70614
-7.62304
-7.53734
-7.44898
-7.35787
-7.26405
-7.16751
-7.0683
-6.96644
-6.86198
-6.75496
-6.64542
-6.5334
-6.41895
-6.30213
-6.18298
-6.06157
-5.93795
-5.81219
-5.68434
-5.55447
-5.42264
-5.28893
-5.15339
-5.01611
-4.87714
-4.73656
-4.59444
-4.45084
-4.30584
-4.1595
-4.0119
-3.86309
-3.71315
-3.56214
-3.41012
-3.25715
-3.10329
-2.94859
-2.79311
-2.63689
-2.47997
-2.32238
-2.16417
-2.00543
-1.84623
-1.68656
-1.52642
-1.36584
-1.20484
-1.04344
-0.881663
-0.719509
-0.556991
-0.394112
-0.230874
-0.0672756
0.0966876
0.261022
0.425738
0.590846
0.756359
0.922291
1.08866
1.25548
1.42277
1.59056
1.75891
1.92781
2.09726
2.26727
2.43786
2.60902
2.78077
2.95311
3.12604
3.29956
3.47366
3.64833
3.82357
3.99936
4.17567
4.35249
4.52978
4.70751
4.88565
5.06413
5.24291
5.42193
5.60111
5.78038
5.95966
6.13886
6.31787
6.49659
6.67491
6.85271
7.02984
7.20617
7.38154
7.5558
7.72878
7.9003
8.07019
8.23826
8.40441
8.56837
8.73046
8.88974
9.05072
9.19663
-7.58549
-7.58552
-7.58557
-7.58564
-7.58567
-7.58557
-7.5853
-7.58484
-7.58428
-7.58373
-7.58333
-7.58328
-7.58363
-7.5844
-7.58554
-7.58698
-7.58863
-7.59039
-7.59214
-7.59378
-7.59525
-7.59648
-7.59742
-7.59803
-7.5983
-7.59825
-7.5979
-7.5973
-7.59649
-7.59552
-7.59445
-7.59333
-7.59221
-7.59111
-7.59007
-7.58911
-7.58824
-7.58747
-7.58679
-7.58619
-7.58571
-7.58543
-7.58541
-7.58574
-7.58644
-7.58747
-7.58875
-7.59015
-7.59158
-7.59295
-7.59397
-7.59444
-7.59445
-7.59423
-7.59394
-7.59404
-7.59527
-7.59792
-7.60214
-7.60855
-7.61714
-7.62672
-7.63712
-7.64977
-7.66626
-7.68732
-7.71278
-7.74231
-7.77532
-7.81116
-7.84914
-7.88861
-7.92898
-7.96979
-8.01067
-8.05133
-8.09152
-8.1311
-8.16996
-8.20805
-8.24532
-8.28174
-8.31734
-8.35213
-8.38611
-8.41928
-8.45163
-8.48316
-8.51386
-8.54374
-8.57277
-8.60095
-8.62825
-8.65464
-8.6801
-8.70459
-8.72809
-8.75055
-8.77193
-8.79217
-8.81116
-8.82883
-8.84511
-8.85998
-8.87338
-8.88525
-8.89554
-8.90418
-8.91112
-8.91629
-8.91963
-8.92109
-8.9206
-8.91811
-8.91357
-8.90693
-8.89812
-8.88712
-8.87385
-8.85829
-8.84039
-8.8201
-8.79739
-8.77222
-8.74454
-8.71433
-8.68155
-8.64617
-8.60816
-8.5675
-8.52417
-8.47813
-8.42937
-8.37787
-8.32362
-8.26659
-8.20675
-8.14409
-8.07861
-8.01029
-7.93916
-7.86522
-7.78842
-7.7087
-7.62622
-7.54109
-7.45322
-7.36263
-7.26931
-7.17328
-7.07458
-6.97323
-6.86928
-6.76276
-6.65371
-6.54218
-6.42821
-6.31185
-6.19317
-6.07221
-5.94903
-5.8237
-5.69627
-5.5668
-5.43538
-5.30205
-5.16689
-5.02997
-4.89135
-4.7511
-4.6093
-4.46602
-4.32132
-4.17526
-4.02793
-3.87939
-3.72969
-3.57892
-3.42712
-3.27437
-3.12071
-2.96621
-2.81092
-2.65489
-2.49817
-2.34079
-2.1828
-2.02426
-1.86521
-1.70566
-1.54565
-1.3852
-1.22433
-1.06305
-0.90139
-0.739356
-0.576956
-0.414196
-0.251079
-0.0876029
0.0762354
0.240442
0.405026
0.569997
0.735369
0.901155
1.06737
1.23404
1.40118
1.56882
1.73701
1.90573
2.075
2.24483
2.41523
2.58619
2.75774
2.92987
3.10259
3.2759
3.44978
3.62423
3.79924
3.97479
4.15087
4.32744
4.50448
4.68196
4.85984
5.03806
5.21658
5.39533
5.57424
5.75325
5.93226
6.11118
6.28992
6.46838
6.64643
6.82397
7.00085
7.17694
7.35209
7.52615
7.69895
7.87034
8.04016
8.20823
8.37451
8.53868
8.70139
8.8606
9.02388
9.16703
-7.58614
-7.58611
-7.58608
-7.58602
-7.58593
-7.5858
-7.58566
-7.5856
-7.58565
-7.58597
-7.58663
-7.58767
-7.58904
-7.59067
-7.59246
-7.59435
-7.59628
-7.59815
-7.59988
-7.60139
-7.60262
-7.60351
-7.60407
-7.60431
-7.6042
-7.60375
-7.60297
-7.60189
-7.60054
-7.59895
-7.59718
-7.59528
-7.59329
-7.59131
-7.58937
-7.58755
-7.58588
-7.58442
-7.58321
-7.58227
-7.5817
-7.58156
-7.58187
-7.58265
-7.58383
-7.58534
-7.587
-7.58858
-7.58988
-7.59069
-7.59072
-7.5901
-7.5893
-7.58902
-7.59036
-7.59393
-7.59927
-7.60585
-7.61369
-7.62337
-7.63527
-7.64909
-7.6646
-7.68209
-7.70205
-7.7249
-7.75076
-7.77956
-7.81099
-7.84467
-7.8801
-7.9168
-7.95431
-7.99223
-8.03022
-8.068
-8.10542
-8.14243
-8.17894
-8.2149
-8.25027
-8.28499
-8.31906
-8.35246
-8.3852
-8.41725
-8.44861
-8.47927
-8.5092
-8.53839
-8.56683
-8.59447
-8.6213
-8.64728
-8.67237
-8.69653
-8.71969
-8.74182
-8.76287
-8.78279
-8.80154
-8.81907
-8.83532
-8.85021
-8.86366
-8.87561
-8.88599
-8.89476
-8.90183
-8.90716
-8.91067
-8.91232
-8.91204
-8.90978
-8.90548
-8.89909
-8.89056
-8.87984
-8.86688
-8.85163
-8.83406
-8.81412
-8.79177
-8.76697
-8.73969
-8.70988
-8.67751
-8.64256
-8.60499
-8.56478
-8.5219
-8.47633
-8.42804
-8.37702
-8.32325
-8.2667
-8.20736
-8.14521
-8.08025
-8.01247
-7.94189
-7.86849
-7.79223
-7.71308
-7.63119
-7.5466
-7.45926
-7.36919
-7.2764
-7.1809
-7.08273
-6.98191
-6.87848
-6.77247
-6.66393
-6.5529
-6.43943
-6.32356
-6.20535
-6.08486
-5.96214
-5.83725
-5.71026
-5.58122
-5.4502
-5.31728
-5.18251
-5.04596
-4.90771
-4.76782
-4.62637
-4.48341
-4.33902
-4.19328
-4.04624
-3.89798
-3.74856
-3.59804
-3.4465
-3.29398
-3.14055
-2.98627
-2.83119
-2.67536
-2.51883
-2.36165
-2.20386
-2.0455
-1.88663
-1.72725
-1.5674
-1.40711
-1.2464
-1.08529
-0.923785
-0.761911
-0.599672
-0.437074
-0.274121
-0.110811
0.0528577
0.216891
0.381298
0.546089
0.711275
0.876873
1.0429
1.20937
1.37632
1.54376
1.71173
1.88023
2.04927
2.21886
2.38901
2.55973
2.73103
2.90291
3.07537
3.24841
3.42203
3.59621
3.77095
3.94623
4.12202
4.29831
4.47507
4.65225
4.82984
5.00777
5.18599
5.36445
5.54307
5.72178
5.90049
6.07912
6.25758
6.43574
6.61352
6.79078
6.96739
7.14323
7.31814
7.49198
7.6646
7.83583
8.00555
8.17358
8.33991
8.50411
8.66723
8.82598
8.99092
9.12988
-7.58687
-7.58678
-7.58663
-7.58645
-7.58631
-7.58634
-7.58665
-7.58732
-7.58843
-7.58997
-7.59188
-7.59403
-7.5963
-7.59862
-7.60092
-7.60311
-7.60509
-7.60682
-7.60831
-7.60953
-7.61045
-7.61104
-7.61128
-7.61116
-7.61067
-7.6098
-7.60858
-7.60702
-7.60515
-7.60299
-7.60059
-7.59799
-7.59523
-7.59239
-7.58956
-7.5868
-7.5842
-7.58186
-7.57991
-7.57853
-7.57787
-7.57798
-7.57872
-7.5799
-7.58131
-7.58283
-7.58422
-7.58516
-7.58559
-7.58558
-7.58525
-7.58598
-7.58885
-7.59306
-7.59789
-7.60377
-7.61163
-7.62171
-7.63368
-7.64736
-7.66259
-7.67925
-7.69743
-7.71735
-7.73923
-7.76326
-7.78946
-7.81766
-7.84759
-7.8789
-7.91129
-7.94455
-7.97849
-8.01293
-8.04766
-8.08254
-8.1174
-8.1521
-8.18652
-8.2206
-8.25426
-8.28747
-8.32019
-8.35239
-8.38405
-8.41515
-8.44566
-8.47557
-8.50485
-8.53346
-8.56139
-8.58861
-8.61506
-8.64073
-8.66556
-8.68951
-8.71253
-8.73456
-8.75555
-8.77545
-8.79419
-8.81171
-8.82796
-8.84286
-8.85635
-8.86836
-8.87883
-8.8877
-8.89489
-8.90035
-8.90402
-8.90583
-8.90573
-8.90367
-8.89958
-8.89341
-8.88512
-8.87465
-8.86196
-8.847
-8.82972
-8.81009
-8.78806
-8.76359
-8.73665
-8.7072
-8.6752
-8.64063
-8.60345
-8.56364
-8.52116
-8.47601
-8.42814
-8.37754
-8.3242
-8.26809
-8.20919
-8.1475
-8.08301
-8.0157
-7.94559
-7.87267
-7.79689
-7.71825
-7.63686
-7.55274
-7.46586
-7.37625
-7.28392
-7.18889
-7.09117
-6.99081
-6.88783
-6.78227
-6.67417
-6.56357
-6.45052
-6.33507
-6.21728
-6.09719
-5.97486
-5.85035
-5.72373
-5.59506
-5.4644
-5.33182
-5.19739
-5.06118
-4.92324
-4.78366
-4.64251
-4.49984
-4.35574
-4.21027
-4.06349
-3.91549
-3.76631
-3.61604
-3.46472
-3.31243
-3.15922
-3.00515
-2.85027
-2.69465
-2.53831
-2.38132
-2.22373
-2.06556
-1.90687
-1.74767
-1.58801
-1.4279
-1.26737
-1.10644
-0.945124
-0.783437
-0.621387
-0.458981
-0.296222
-0.13311
0.0303572
0.194186
0.358384
0.522963
0.687934
0.853312
1.01912
1.18537
1.35208
1.51929
1.68702
1.85526
2.02405
2.19338
2.36326
2.53372
2.70474
2.87635
3.04854
3.2213
3.39465
3.56855
3.74301
3.91801
4.09353
4.26954
4.44601
4.62292
4.80023
4.97788
5.15583
5.33402
5.51237
5.69082
5.86927
6.04765
6.22585
6.40378
6.58132
6.75836
6.93476
7.1104
7.28513
7.45881
7.63129
7.80242
7.97208
8.14008
8.30644
8.47062
8.63395
8.79204
8.95796
9.09197
-7.58797
-7.5878
-7.58755
-7.58732
-7.58736
-7.58792
-7.58913
-7.59097
-7.59332
-7.59606
-7.59898
-7.60188
-7.60463
-7.60717
-7.6095
-7.61162
-7.6135
-7.61513
-7.61647
-7.61747
-7.61812
-7.6184
-7.61829
-7.61779
-7.61688
-7.61557
-7.61388
-7.61181
-7.60939
-7.60666
-7.60364
-7.60037
-7.59692
-7.59334
-7.58975
-7.58624
-7.58296
-7.5801
-7.57789
-7.57649
-7.57593
-7.57606
-7.57667
-7.57754
-7.57841
-7.57914
-7.57972
-7.58011
-7.58088
-7.58309
-7.58682
-7.59099
-7.59575
-7.60193
-7.61005
-7.61999
-7.63159
-7.64475
-7.65937
-7.67542
-7.69286
-7.71168
-7.73187
-7.75338
-7.77614
-7.80013
-7.82536
-7.85188
-7.87969
-7.9087
-7.93876
-7.96969
-8.00128
-8.03338
-8.0658
-8.09842
-8.13112
-8.16378
-8.19632
-8.22865
-8.26073
-8.2925
-8.32391
-8.35494
-8.38555
-8.4157
-8.44538
-8.47454
-8.50315
-8.53119
-8.55862
-8.58539
-8.61148
-8.63682
-8.66138
-8.68511
-8.70795
-8.72984
-8.75073
-8.77056
-8.78926
-8.80677
-8.82303
-8.83796
-8.8515
-8.86357
-8.87413
-8.88309
-8.8904
-8.89598
-8.89979
-8.90175
-8.90182
-8.89993
-8.89602
-8.89006
-8.88197
-8.87173
-8.85927
-8.84455
-8.82753
-8.80816
-8.78641
-8.76223
-8.73558
-8.70644
-8.67476
-8.64051
-8.60367
-8.56419
-8.52207
-8.47726
-8.42975
-8.37951
-8.32654
-8.2708
-8.21228
-8.15097
-8.08687
-8.01995
-7.95023
-7.8777
-7.80232
-7.7241
-7.64312
-7.55938
-7.47289
-7.38365
-7.29169
-7.19703
-7.09968
-6.99968
-6.89706
-6.79186
-6.6841
-6.57385
-6.46114
-6.34602
-6.22855
-6.10878
-5.98676
-5.86256
-5.73623
-5.60785
-5.47747
-5.34517
-5.211
-5.07504
-4.93737
-4.79803
-4.65712
-4.51469
-4.37082
-4.22557
-4.07901
-3.93122
-3.78225
-3.63218
-3.48106
-3.32896
-3.17595
-3.02207
-2.86738
-2.71194
-2.55579
-2.39899
-2.24158
-2.0836
-1.92509
-1.76609
-1.60661
-1.4467
-1.28637
-1.12564
-0.964523
-0.803042
-0.641203
-0.479011
-0.316471
-0.153582
0.00965934
0.173257
0.337221
0.501561
0.66629
0.831424
0.996979
1.16298
1.32944
1.49639
1.66384
1.83182
2.00032
2.16937
2.33898
2.50915
2.67989
2.85122
3.02312
3.19561
3.36867
3.5423
3.71649
3.89121
4.06646
4.2422
4.41841
4.59505
4.7721
4.9495
5.1272
5.30515
5.48327
5.66149
5.83972
6.01789
6.19589
6.37361
6.55097
6.72783
6.90407
7.07956
7.25416
7.42773
7.60013
7.7712
7.94082
8.1088
8.27517
8.43926
8.60263
8.75994
8.92658
9.05541
-7.58964
-7.58935
-7.58903
-7.58896
-7.58962
-7.59118
-7.59354
-7.59652
-7.59989
-7.60332
-7.60656
-7.60958
-7.6124
-7.61502
-7.61739
-7.6195
-7.6213
-7.62277
-7.6239
-7.62466
-7.62504
-7.62502
-7.62459
-7.62376
-7.6225
-7.62083
-7.61875
-7.61628
-7.61344
-7.61025
-7.60675
-7.60299
-7.59902
-7.59493
-7.59085
-7.58694
-7.58339
-7.58045
-7.57828
-7.5769
-7.57618
-7.57584
-7.57569
-7.57561
-7.57563
-7.57584
-7.57685
-7.57947
-7.58336
-7.58766
-7.59259
-7.59901
-7.6072
-7.61703
-7.62833
-7.64104
-7.65512
-7.67057
-7.68735
-7.70538
-7.72445
-7.7443
-7.76484
-7.78616
-7.80845
-7.8318
-7.85626
-7.88182
-7.9084
-7.93591
-7.96426
-7.99332
-8.02297
-8.05309
-8.08356
-8.11427
-8.14513
-8.17604
-8.20694
-8.23776
-8.26843
-8.29892
-8.32916
-8.35913
-8.38878
-8.41808
-8.44699
-8.47547
-8.50348
-8.531
-8.55797
-8.58435
-8.6101
-8.63516
-8.65949
-8.68303
-8.70572
-8.7275
-8.74832
-8.76809
-8.78677
-8.80428
-8.82055
-8.83552
-8.84911
-8.86125
-8.87189
-8.88094
-8.88835
-8.89405
-8.89798
-8.90008
-8.90028
-8.89854
-8.8948
-8.889
-8.88109
-8.87103
-8.85876
-8.84425
-8.82744
-8.80829
-8.78677
-8.76282
-8.73643
-8.70753
-8.67612
-8.64214
-8.60556
-8.56637
-8.52452
-8.48
-8.43278
-8.38284
-8.33016
-8.27472
-8.2165
-8.1555
-8.0917
-8.0251
-7.95568
-7.88346
-7.80839
-7.7305
-7.64983
-7.56639
-7.48019
-7.39124
-7.29956
-7.20518
-7.1081
-7.00837
-6.90602
-6.80108
-6.69358
-6.58358
-6.47112
-6.35624
-6.239
-6.11946
-5.99766
-5.87368
-5.74757
-5.61939
-5.48922
-5.35711
-5.22314
-5.08738
-4.94988
-4.81074
-4.67
-4.52775
-4.38405
-4.23897
-4.09259
-3.94496
-3.79616
-3.64625
-3.4953
-3.34337
-3.19052
-3.03681
-2.8823
-2.72703
-2.57106
-2.41444
-2.25721
-2.09941
-1.9411
-1.78228
-1.62301
-1.4633
-1.30317
-1.14266
-0.981763
-0.820508
-0.658899
-0.496944
-0.334645
-0.172002
-0.00901241
0.15433
0.318033
0.482108
0.646569
0.811432
0.976714
1.14243
1.30862
1.47528
1.64244
1.81012
1.97833
2.14709
2.31639
2.48627
2.65672
2.82775
2.99937
3.17157
3.34435
3.5177
3.69161
3.86607
4.04104
4.21652
4.39248
4.56888
4.74568
4.92285
5.10033
5.27806
5.45598
5.634
5.81204
5.99002
6.16785
6.34542
6.52262
6.69935
6.87546
7.05085
7.22537
7.39887
7.57121
7.74225
7.91185
8.0798
8.24616
8.4101
8.57344
8.72991
8.89721
9.02099
-7.59199
-7.59158
-7.59126
-7.59178
-7.59343
-7.59603
-7.59935
-7.60307
-7.60674
-7.6102
-7.61348
-7.61657
-7.61942
-7.62201
-7.62431
-7.62629
-7.62794
-7.62924
-7.63017
-7.63072
-7.63087
-7.63062
-7.62995
-7.62885
-7.62733
-7.62538
-7.62303
-7.62027
-7.61714
-7.61365
-7.60985
-7.6058
-7.60155
-7.59723
-7.593
-7.58906
-7.5856
-7.58281
-7.58073
-7.57914
-7.57776
-7.57652
-7.57555
-7.5749
-7.57515
-7.57715
-7.58049
-7.5844
-7.58913
-7.5954
-7.60339
-7.61292
-7.62382
-7.63605
-7.64958
-7.66446
-7.6806
-7.69779
-7.71573
-7.7342
-7.75326
-7.77302
-7.79354
-7.81489
-7.83707
-7.86009
-7.88397
-7.90869
-7.93422
-7.9605
-7.98745
-8.01501
-8.04309
-8.0716
-8.10047
-8.12961
-8.15895
-8.18842
-8.21794
-8.24747
-8.27695
-8.30633
-8.33556
-8.36461
-8.39343
-8.42197
-8.45021
-8.4781
-8.50559
-8.53265
-8.55923
-8.58527
-8.61074
-8.63557
-8.65971
-8.6831
-8.70568
-8.72738
-8.74814
-8.76789
-8.78657
-8.80409
-8.82039
-8.8354
-8.84905
-8.86127
-8.87198
-8.88112
-8.88862
-8.89442
-8.89846
-8.90067
-8.90099
-8.89937
-8.89576
-8.8901
-8.88233
-8.87242
-8.86031
-8.84596
-8.82932
-8.81035
-8.78901
-8.76525
-8.73905
-8.71036
-8.67915
-8.64537
-8.60901
-8.57004
-8.52841
-8.48411
-8.43711
-8.3874
-8.33494
-8.27973
-8.22174
-8.16097
-8.0974
-8.03102
-7.96184
-7.88983
-7.81499
-7.73734
-7.65689
-7.57366
-7.48766
-7.39892
-7.30743
-7.21323
-7.11635
-7.0168
-6.91462
-6.80984
-6.70252
-6.59268
-6.48037
-6.36565
-6.24856
-6.12915
-6.0075
-5.88365
-5.75767
-5.62962
-5.49958
-5.3676
-5.23375
-5.09811
-4.96074
-4.82171
-4.6811
-4.53897
-4.39539
-4.25043
-4.10417
-3.95667
-3.808
-3.65822
-3.50741
-3.35561
-3.20291
-3.04934
-2.89498
-2.73987
-2.58406
-2.42761
-2.27056
-2.11296
-1.95483
-1.79621
-1.63714
-1.47764
-1.31774
-1.15745
-0.996797
-0.835784
-0.674426
-0.512727
-0.350691
-0.188318
-0.0256038
0.137458
0.300876
0.464662
0.62883
0.793396
0.958379
1.1238
1.28967
1.45603
1.62288
1.79025
1.95814
2.12658
2.29558
2.46515
2.63529
2.80602
2.97735
3.14926
3.32176
3.49483
3.66847
3.84265
4.01737
4.1926
4.36831
4.54448
4.72106
4.89802
5.0753
5.25284
5.43057
5.60843
5.78631
5.96414
6.14182
6.31926
6.49636
6.67298
6.84902
7.02435
7.19882
7.37229
7.54462
7.71565
7.88525
8.05318
8.21951
8.38329
8.54654
8.7022
8.87017
8.98923
-7.595
-7.59447
-7.59442
-7.59582
-7.59835
-7.60168
-7.60548
-7.60923
-7.6128
-7.61622
-7.61947
-7.62248
-7.62523
-7.6277
-7.62988
-7.63174
-7.63325
-7.63441
-7.6352
-7.63559
-7.63557
-7.63515
-7.6343
-7.63302
-7.63132
-7.6292
-7.62666
-7.62374
-7.62044
-7.6168
-7.61287
-7.60871
-7.60442
-7.60015
-7.59608
-7.59238
-7.58919
-7.58661
-7.5844
-7.58219
-7.58004
-7.57823
-7.57727
-7.57797
-7.58007
-7.58294
-7.58684
-7.59234
-7.59959
-7.60839
-7.61855
-7.63003
-7.64284
-7.657
-7.67238
-7.68868
-7.70556
-7.72293
-7.74089
-7.75949
-7.77876
-7.79869
-7.81928
-7.84054
-7.86248
-7.8851
-7.90842
-7.93241
-7.95706
-7.98233
-8.00818
-8.03455
-8.06139
-8.08865
-8.11624
-8.14413
-8.17225
-8.20053
-8.22893
-8.2574
-8.28589
-8.31435
-8.34274
-8.37101
-8.39913
-8.42705
-8.45473
-8.48212
-8.50919
-8.53587
-8.56213
-8.58791
-8.61316
-8.63781
-8.66181
-8.6851
-8.70761
-8.72927
-8.75001
-8.76976
-8.78845
-8.80601
-8.82236
-8.83743
-8.85114
-8.86343
-8.87422
-8.88344
-8.89102
-8.89691
-8.90104
-8.90334
-8.90376
-8.90224
-8.89873
-8.89317
-8.88552
-8.87572
-8.86373
-8.8495
-8.83299
-8.81415
-8.79295
-8.76933
-8.74328
-8.71474
-8.68367
-8.65006
-8.61385
-8.57503
-8.53357
-8.48943
-8.44259
-8.39303
-8.34074
-8.28568
-8.22785
-8.16723
-8.10382
-8.0376
-7.96857
-7.8967
-7.82201
-7.7445
-7.66419
-7.58109
-7.49522
-7.40658
-7.31521
-7.22111
-7.12432
-7.02486
-6.92277
-6.81808
-6.71084
-6.60107
-6.48884
-6.37418
-6.25716
-6.13782
-6.01622
-5.89243
-5.76651
-5.63852
-5.50853
-5.3766
-5.24281
-5.10723
-4.96992
-4.83096
-4.69041
-4.54835
-4.40484
-4.25996
-4.11378
-3.96636
-3.81778
-3.66811
-3.5174
-3.36571
-3.21313
-3.05969
-2.90546
-2.7505
-2.59485
-2.43856
-2.28169
-2.12426
-1.96633
-1.80792
-1.64906
-1.48978
-1.33011
-1.17007
-1.00966
-0.848912
-0.687823
-0.526401
-0.36465
-0.202569
-0.0401534
0.122604
0.285713
0.449185
0.613036
0.777282
0.941942
1.10704
1.27258
1.43861
1.60513
1.77217
1.93973
2.10784
2.27651
2.44576
2.61559
2.78601
2.95704
3.12866
3.30087
3.47366
3.64703
3.82096
3.99542
4.17041
4.3459
4.52184
4.69822
4.87499
5.05209
5.22946
5.40704
5.58475
5.7625
5.9402
6.11778
6.29513
6.47215
6.64873
6.82473
7.00004
7.1745
7.34798
7.52033
7.69138
7.86101
8.02894
8.19525
8.35888
8.52204
8.67695
8.84561
8.9604
-7.59839
-7.59782
-7.59836
-7.60043
-7.60345