/*--------------------------------*- C++ -*----------------------------------*\
| =========                 |                                                 |
| \\      /  F ield         | OpenFOAM: The Open Source CFD Toolbox           |
|  \\    /   O peration     | Version:  2.4.0                                 |
|   \\  /    A nd           | Web:      www.OpenFOAM.org                      |
|    \\/     M anipulation  |                                                 |
\*---------------------------------------------------------------------------*/
FoamFile
{
    version     2.0;
    format      ascii;
    class       volScalarField;
    location    "1";
    object      epsilon;
}
// * * * * * * * * * * * * * * * * * * * * * * * * * * * * * * * * * * * * * //

dimensions      [0 2 -3 0 0 0 0];

internalField   nonuniform List<scalar> 
6000
(
0.995102
0.364695
0.0428686
0.0078522
0.015569
0.0251222
0.023573
0.0261837
0.0648288
0.0892162
0.0857132
0.0634482
0.0395988
0.0228366
0.0123888
0.00660175
0.00371261
0.00248567
0.00257541
0.0039363
0.00552302
0.00725235
0.00904883
0.0108256
0.0124972
0.0139982
0.0152988
0.0164073
0.017359
0.0181995
0.0189728
0.0197165
0.0204624
0.021239
0.0220735
0.0229924
0.0240229
0.0251936
0.0265362
0.0280867
0.0298876
0.0319906
0.034459
0.0373726
0.0408326
0.0449689
0.0499514
0.0560047
0.0634297
0.0726371
0.0841934
0.0989056
0.117913
0.142974
0.176469
0.223115
0.286722
0.387348
0.511318
0.788436
0.558135
0.332912
0.0206307
0.00727964
0.00602476
0.013921
0.03086
0.0456197
0.0339452
0.0218398
0.0129064
0.00683764
0.0047762
0.00325852
0.00218235
0.00155498
0.0012735
0.00123667
0.00140321
0.00166007
0.00195869
0.00230502
0.00270305
0.00314754
0.00361786
0.00407953
0.00449601
0.00484403
0.00512089
0.00533931
0.00551684
0.00566828
0.00580411
0.00593239
0.00606071
0.00619697
0.00634915
0.00652495
0.00673176
0.00697708
0.00726891
0.00761645
0.00803061
0.0085248
0.00911575
0.00982485
0.0106797
0.0117166
0.0129834
0.0145444
0.0164878
0.0189361
0.0220648
0.0261241
0.0315037
0.038738
0.0489614
0.0630559
0.0857052
0.119853
0.416999
0.390795
0.0272776
0.00510553
0.00630989
0.0179344
0.0318107
0.024647
0.0130805
0.00729923
0.00403334
0.00295564
0.0026954
0.00220301
0.00162276
0.00123544
0.00105781
0.00101002
0.00103101
0.00107424
0.0011305
0.00120197
0.00129419
0.00141213
0.00155522
0.00171372
0.00187038
0.00200784
0.0021165
0.00219661
0.00225437
0.00229675
0.00232893
0.00235441
0.00237612
0.00239708
0.00242044
0.00244917
0.00248593
0.00253308
0.00259281
0.00266741
0.00275944
0.00287193
0.0030086
0.00317408
0.00337428
0.00361681
0.00391149
0.00427135
0.00471402
0.00526325
0.00595303
0.00682824
0.00796533
0.0094393
0.011511
0.0140755
0.0185406
0.0226431
0.367812
0.390007
0.0469241
0.00367829
0.00603831
0.0163665
0.0210647
0.012752
0.00681833
0.00401025
0.00287092
0.00280536
0.00280688
0.0023675
0.00170591
0.00123614
0.0010085
0.0009178
0.000888236
0.000880678
0.000879815
0.000882
0.000888273
0.000902468
0.000928431
0.000966657
0.00101257
0.0010583
0.00109689
0.00112536
0.00114452
0.00115682
0.00116447
0.00116901
0.00117157
0.0011733
0.00117543
0.00117916
0.00118558
0.00119558
0.00120992
0.00122931
0.00125451
0.00128635
0.00132585
0.00137426
0.00143315
0.00150447
0.00159075
0.00169524
0.00182223
0.00197738
0.00216878
0.00240647
0.00270849
0.00308763
0.00361485
0.0042062
0.00531861
0.00589333
0.34351
0.364838
0.0693074
0.00332344
0.00465596
0.0107853
0.0124436
0.00768586
0.00468687
0.00325735
0.00300621
0.00328242
0.00335675
0.00283236
0.00197599
0.00134049
0.00102388
0.000888223
0.000833168
0.000809079
0.00079314
0.000777371
0.000759127
0.000739925
0.000723748
0.000714347
0.000712802
0.000716997
0.000723315
0.000728893
0.000732608
0.000734596
0.000735362
0.000735316
0.000734759
0.000734021
0.000733522
0.000733731
0.000735086
0.000737964
0.00074268
0.000749515
0.000758753
0.000770709
0.000785757
0.000804353
0.000827059
0.000854578
0.000887792
0.000927839
0.000976244
0.00103495
0.00110671
0.00119494
0.00130572
0.00144284
0.00163156
0.00183828
0.00222976
0.00242338
0.329928
0.332716
0.092678
0.00445426
0.00335866
0.00653385
0.00781039
0.00558569
0.00394269
0.00329629
0.00348002
0.00392577
0.00404179
0.0034286
0.00236255
0.00152172
0.00108686
0.000894833
0.000813977
0.000777857
0.000755917
0.000736236
0.000712818
0.000684613
0.000654466
0.000626877
0.000605334
0.000590749
0.000581798
0.0005764
0.000572923
0.000570482
0.000568665
0.000567255
0.000566124
0.000565238
0.000564666
0.000564548
0.000565047
0.000566321
0.000568512
0.000571753
0.000576182
0.000581955
0.000589263
0.000598336
0.000609462
0.000623003
0.00063942
0.00065929
0.00068335
0.000712631
0.000748574
0.000792802
0.000848658
0.000917637
0.00101305
0.00111971
0.00132374
0.00146107
0.321718
0.301178
0.110291
0.00907782
0.00293133
0.00451129
0.00566379
0.00473072
0.00379532
0.00363177
0.00405514
0.00460788
0.00476195
0.0040879
0.00283979
0.00177773
0.00119774
0.000932623
0.000817669
0.000764895
0.000735914
0.000714678
0.000691822
0.000663423
0.000630457
0.000597014
0.000567521
0.00054453
0.000528217
0.000517276
0.000510096
0.000505388
0.000502284
0.000500222
0.000498846
0.000497949
0.000497442
0.000497315
0.000497606
0.000498372
0.000499675
0.000501589
0.000504193
0.000507586
0.00051189
0.000517254
0.00052387
0.000531971
0.000541863
0.000553972
0.000568849
0.000587167
0.000609918
0.000638238
0.000674617
0.000720148
0.000784457
0.00085762
0.00100298
0.00112395
0.316244
0.273147
0.122623
0.0175485
0.00320128
0.00387417
0.00479032
0.00444483
0.00394528
0.0040835
0.00464007
0.00526251
0.00545173
0.00474081
0.00336303
0.00209547
0.00135419
0.00100082
0.000842321
0.000765636
0.000725126
0.000700283
0.000678373
0.000652403
0.000620951
0.000586965
0.000555014
0.000528559
0.000508778
0.000495024
0.000485874
0.000479927
0.000476103
0.000473657
0.000472105
0.000471154
0.00047064
0.000470487
0.000470672
0.000471202
0.000472103
0.000473414
0.000475188
0.000477494
0.00048042
0.000484079
0.000488614
0.000494216
0.000501121
0.000509659
0.000520284
0.000533556
0.000550298
0.000571482
0.000599174
0.000634535
0.000685707
0.000745298
0.000868703
0.000982162
0.312267
0.249424
0.130487
0.0285051
0.00396883
0.00393481
0.0045538
0.00445908
0.00425705
0.00457774
0.00520433
0.00587436
0.00608918
0.00533939
0.00387896
0.00245048
0.00154846
0.00109764
0.000887422
0.000779758
0.000722547
0.000690521
0.000667734
0.00064413
0.000615531
0.000583184
0.000551261
0.000523696
0.000502389
0.000487226
0.000477025
0.000470393
0.000466161
0.000463485
0.000461814
0.000460806
0.000460262
0.000460075
0.000460194
0.000460602
0.000461307
0.000462332
0.000463715
0.000465512
0.000467794
0.000470656
0.000474223
0.00047866
0.000484187
0.00049107
0.000499682
0.000510535
0.00052438
0.000542138
0.000565651
0.000596036
0.000640924
0.000693857
0.000807405
0.000916123
0.309225
0.229889
0.134579
0.0407624
0.00539878
0.00433894
0.00465336
0.00465858
0.0046654
0.00509072
0.00575719
0.00647011
0.0066945
0.00587368
0.00434323
0.00281163
0.00176823
0.00121961
0.000951039
0.000806802
0.000728382
0.000685477
0.000659209
0.00063673
0.000610979
0.000581046
0.000550244
0.000522672
0.000500772
0.000484898
0.00047411
0.000467078
0.000462602
0.000459788
0.00045804
0.000456989
0.000456417
0.000456203
0.000456284
0.000456631
0.000457244
0.000458137
0.000459343
0.000460908
0.000462897
0.000465394
0.00046851
0.000472388
0.000477228
0.000483289
0.00049092
0.000500589
0.000513002
0.000529025
0.000550434
0.000578303
0.000620054
0.000669579
0.000778091
0.00088349
0.306834
0.214061
0.135641
0.052865
0.00840102
0.00492691
0.00495318
0.00498917
0.00514075
0.00562641
0.00633132
0.00709707
0.00730978
0.00636764
0.00473558
0.0031478
0.00199812
0.00136285
0.00102957
0.000845196
0.000742378
0.000685515
0.000653121
0.00063005
0.000606501
0.000579113
0.000549905
0.000522851
0.000500806
0.000484552
0.000473396
0.000466096
0.000461452
0.000458542
0.000456739
0.000455655
0.000455061
0.000454827
0.000454885
0.000455203
0.000455773
0.00045661
0.000457739
0.000459206
0.000461069
0.000463409
0.000466329
0.000469967
0.000474508
0.000480196
0.000487367
0.000496473
0.000508193
0.000523367
0.000543729
0.000570339
0.000610492
0.000658238
0.000763968
0.00086678
0.304918
0.201363
0.134425
0.0636436
0.0130588
0.00563967
0.00539463
0.00542395
0.0056736
0.00620344
0.00696701
0.00780107
0.00797478
0.00685892
0.00506445
0.00343588
0.0022261
0.00151752
0.00111815
0.000892369
0.000763525
0.000690621
0.00064985
0.000624371
0.00060206
0.000577013
0.000549588
0.000523325
0.000501366
0.000484893
0.00047347
0.000465958
0.000461176
0.000458183
0.000456332
0.000455219
0.000454604
0.000454354
0.000454397
0.000454698
0.00045525
0.000456062
0.000457161
0.000458588
0.000460402
0.000462679
0.00046552
0.00046906
0.000473477
0.000479009
0.000485983
0.000494842
0.000506252
0.000521039
0.000540911
0.000566926
0.000606295
0.000653141
0.000757141
0.000857835
0.303359
0.191238
0.131629
0.0724858
0.0189817
0.0064871
0.00595396
0.00595035
0.00626607
0.00684614
0.00770108
0.00861413
0.00871296
0.00737787
0.00535816
0.00366788
0.00244277
0.00167207
0.00121139
0.000945177
0.000790214
0.000700314
0.000649554
0.000620007
0.000597826
0.000574713
0.000549103
0.000523794
0.000502062
0.00048546
0.000473818
0.000466117
0.000461205
0.000458133
0.000456235
0.000455092
0.000454457
0.000454191
0.000454221
0.000454512
0.000455053
0.000455854
0.000456941
0.000458353
0.00046015
0.000462405
0.000465218
0.000468724
0.000473096
0.00047857
0.00048547
0.000494234
0.000505523
0.000520154
0.000539823
0.000565586
0.000604597
0.000651023
0.00075376
0.000852645
0.302078
0.183198
0.127852
0.0791319
0.0257402
0.00760152
0.00662229
0.00656428
0.00692662
0.00757885
0.00856165
0.00955181
0.00952954
0.00793727
0.00564821
0.00385267
0.0026394
0.00181724
0.00130399
0.00100035
0.000820507
0.000713731
0.000652123
0.000617175
0.000594005
0.000572287
0.000548414
0.00052416
0.000502758
0.000486088
0.000474257
0.000466378
0.000461339
0.000458187
0.00045624
0.000455066
0.00045441
0.000454129
0.000454147
0.000454428
0.000454962
0.000455757
0.000456839
0.000458247
0.000460038
0.000462287
0.000465094
0.00046859
0.000472951
0.00047841
0.00048529
0.000494028
0.000505282
0.000519866
0.000539472
0.000565154
0.000604023
0.000650275
0.000751976
0.000849242
0.301017
0.176833
0.123573
0.0835969
0.0327704
0.00925378
0.00739587
0.00726682
0.00766649
0.00842281
0.00956697
0.010616
0.0104161
0.00853348
0.00595538
0.00402078
0.00280153
0.00194586
0.00139126
0.00105488
0.000852428
0.000729787
0.000657212
0.000615959
0.000590779
0.000569838
0.000547537
0.000524393
0.000503405
0.00048672
0.000474723
0.000466673
0.000461507
0.000458273
0.000456277
0.000455071
0.000454393
0.000454096
0.000454102
0.000454375
0.000454904
0.000455695
0.000456774
0.000458181
0.000459971
0.00046222
0.000465028
0.000468525
0.000472887
0.000478348
0.000485231
0.000493971
0.000505227
0.000519813
0.000539419
0.000565099
0.000603929
0.000650126
0.000750904
0.000846669
0.300133
0.171805
0.119148
0.0860753
0.0397079
0.0115679
0.00827099
0.00806183
0.00849741
0.0093949
0.0107267
0.0117991
0.0113566
0.00915297
0.00628533
0.00419358
0.00293466
0.00205452
0.00146968
0.00110627
0.00088419
0.00074734
0.000664312
0.000616312
0.000588281
0.000567476
0.00054651
0.000524488
0.000503986
0.000487335
0.000475191
0.000466977
0.000461684
0.000458368
0.000456321
0.000455083
0.000454384
0.000454071
0.000454066
0.000454331
0.000454854
0.000455642
0.00045672
0.000458126
0.000459918
0.000462169
0.00046498
0.000468481
0.000472849
0.000478318
0.000485211
0.000493965
0.000505238
0.000519846
0.000539479
0.000565192
0.000604026
0.000650217
0.000750132
0.000844481
0.299394
0.167842
0.11483
0.0868643
0.0461641
0.0145882
0.00926541
0.00895405
0.0094301
0.0105074
0.0120434
0.0130877
0.0123319
0.00977878
0.0066319
0.00438656
0.00304891
0.00214359
0.00153721
0.00115272
0.000914344
0.00076532
0.000672833
0.000618079
0.000586586
0.000565301
0.000545378
0.000524451
0.000504492
0.00048792
0.000475654
0.000467282
0.000461864
0.000458463
0.000456365
0.000455095
0.000454374
0.000454046
0.00045403
0.000454288
0.000454806
0.000455591
0.000456668
0.000458075
0.000459868
0.000462122
0.000464937
0.000468444
0.00047282
0.000478299
0.000485205
0.000493975
0.00050527
0.000519907
0.000539576
0.000565336
0.000604189
0.00065039
0.000749479
0.000842479
0.298774
0.164726
0.110781
0.0863061
0.0518016
0.018259
0.0104246
0.00994788
0.0104732
0.0117678
0.0135145
0.0144639
0.0133222
0.0103946
0.00699024
0.00459798
0.00315391
0.00221626
0.0015934
0.00119318
0.000941851
0.00078283
0.000682176
0.000621026
0.000585712
0.000563399
0.000544193
0.000524294
0.000504919
0.000488473
0.000476106
0.000467585
0.000462041
0.000458557
0.000456406
0.000455105
0.000454362
0.00045402
0.000453994
0.000454244
0.000454757
0.000455541
0.000456617
0.000458024
0.000459819
0.000462076
0.000464896
0.000468409
0.000472792
0.000478281
0.000485201
0.000493989
0.000505308
0.000519976
0.000539683
0.000565492
0.000604368
0.000650582
0.000748871
0.000840584
0.298253
0.162283
0.107098
0.0847447
0.0563785
0.0224681
0.0117887
0.0110471
0.0116325
0.0131797
0.0151324
0.0159069
0.014308
0.0109863
0.0073573
0.00481881
0.00325629
0.00227695
0.0016391
0.00122729
0.000966093
0.000799195
0.000691798
0.000624879
0.000585626
0.000561833
0.000543006
0.000524034
0.000505269
0.000488988
0.000476544
0.000467882
0.000462216
0.000458647
0.000456444
0.000455111
0.000454348
0.000453991
0.000453955
0.000454199
0.000454708
0.000455489
0.000456565
0.000457974
0.000459771
0.000462031
0.000464855
0.000468374
0.000472765
0.000478265
0.000485198
0.000494003
0.000505345
0.000520044
0.00053979
0.000565648
0.000604545
0.000650766
0.000748284
0.000838768
0.297813
0.160374
0.103827
0.0824975
0.0597653
0.0270431
0.0134006
0.012254
0.0129099
0.0147417
0.0168851
0.0173918
0.0152706
0.0115421
0.00772569
0.00504238
0.00335885
0.0023298
0.00167598
0.00125531
0.000986833
0.000813973
0.000701247
0.000629354
0.000586253
0.000560647
0.000541866
0.000523692
0.000505542
0.000489464
0.000476967
0.000468174
0.000462388
0.000458734
0.000456478
0.000455113
0.000454331
0.00045396
0.000453915
0.000454152
0.000454658
0.000455438
0.000456513
0.000457923
0.000459722
0.000461986
0.000464814
0.000468339
0.000472738
0.000478248
0.000485194
0.000494017
0.000505382
0.00052011
0.000539894
0.000565798
0.000604714
0.000650935
0.00074771
0.000837022
0.297441
0.158888
0.100978
0.0798384
0.0619402
0.0317681
0.015304
0.0135634
0.0143027
0.0164479
0.0187552
0.0188904
0.0161916
0.0120539
0.00808909
0.0052607
0.00346121
0.00237784
0.001706
0.00127792
0.00100414
0.000826937
0.000710184
0.000634182
0.000587494
0.000559858
0.000540818
0.000523289
0.000505745
0.0004899
0.000477372
0.000468458
0.000462555
0.000458817
0.000456508
0.000455112
0.00045431
0.000453927
0.000453873
0.000454104
0.000454607
0.000455385
0.000456461
0.000457872
0.000459673
0.00046194
0.000464773
0.000468304
0.000472711
0.00047823
0.000485189
0.000494029
0.000505416
0.000520173
0.000539993
0.000565942
0.000604873
0.000651089
0.000747148
0.000835346
0.297127
0.15774
0.098537
0.0769906
0.0629715
0.0364029
0.0175269
0.0149745
0.0157947
0.0182856
0.0207174
0.0203704
0.017054
0.0125188
0.00844175
0.00546575
0.00356093
0.00242269
0.00173095
0.00129598
0.00101829
0.000838039
0.000718384
0.000639131
0.000589231
0.000559468
0.000539898
0.00052285
0.000505882
0.000490294
0.000477758
0.000468734
0.000462718
0.000458896
0.000456535
0.000455107
0.000454286
0.000453891
0.000453829
0.000454055
0.000454555
0.000455332
0.000456408
0.00045782
0.000459624
0.000461895
0.000464732
0.000468269
0.000472684
0.000478213
0.000485184
0.000494041
0.000505449
0.000520234
0.000540088
0.00056608
0.000605022
0.000651227
0.0007466
0.000833741
0.29686
0.156858
0.0964765
0.0741255
0.0629941
0.0407055
0.0200714
0.0164844
0.017368
0.0202305
0.0227334
0.0217958
0.017841
0.0129651
0.00875413
0.00565043
0.00365474
0.00246474
0.00175221
0.00131041
0.0010297
0.000847368
0.000725727
0.000644015
0.000591344
0.000559457
0.000539137
0.000522397
0.000505961
0.000490648
0.000478125
0.000469002
0.000462876
0.000458971
0.000456557
0.000455099
0.00045426
0.000453853
0.000453783
0.000454005
0.000454502
0.000455278
0.000456355
0.000457769
0.000459576
0.00046185
0.000464692
0.000468234
0.000472656
0.000478195
0.000485179
0.000494051
0.000505479
0.000520292
0.000540179
0.000566211
0.000605162
0.000651351
0.000746068
0.000832206
0.296633
0.156188
0.0947607
0.0713675
0.0621837
0.0444562
0.0229077
0.0180925
0.0190238
0.0222163
0.0247385
0.023123
0.0185348
0.0133973
0.00902048
0.00580956
0.0037393
0.00250353
0.00177067
0.00132203
0.00103883
0.0008551
0.00073218
0.000648697
0.000593721
0.000559795
0.000538554
0.000521955
0.000505993
0.000490962
0.000478471
0.000469259
0.000463028
0.000459042
0.000456576
0.000455087
0.00045423
0.000453813
0.000453736
0.000453953
0.000454448
0.000455224
0.000456301
0.000457718
0.000459527
0.000461805
0.000464651
0.0004682
0.000472629
0.000478176
0.000485172
0.00049406
0.000505509
0.000520347
0.000540265
0.000566335
0.000605294
0.000651462
0.000745551
0.000830741
0.29644
0.155686
0.0933506
0.0687996
0.0607336
0.0474803
0.0259714
0.0198013
0.0207285
0.024219
0.0266151
0.0242912
0.0191807
0.0137807
0.00923709
0.00593955
0.00381175
0.0025382
0.00178679
0.00133151
0.00104614
0.000861462
0.000737776
0.000653088
0.000596261
0.000560443
0.000538162
0.000521544
0.000505987
0.00049124
0.000478797
0.000469507
0.000463175
0.000459109
0.000456591
0.000455072
0.000454197
0.00045377
0.000453687
0.0004539
0.000454393
0.000455169
0.000456248
0.000457666
0.000459478
0.00046176
0.000464611
0.000468165
0.000472601
0.000478158
0.000485166
0.000494068
0.000505536
0.0005204
0.000540348
0.000566454
0.000605417
0.000651562
0.000745052
0.000829345
0.296275
0.155319
0.0922071
0.066472
0.0588345
0.0496643
0.0291651
0.0216142
0.0224435
0.026179
0.0282892
0.0253169
0.0197706
0.014091
0.0094014
0.00603817
0.00386986
0.00256772
0.00180071
0.00133934
0.00105205
0.0008667
0.000742595
0.000657141
0.000598877
0.000561356
0.000537967
0.000521183
0.000505954
0.000491482
0.000479101
0.000469745
0.000463317
0.000459172
0.000456602
0.000455053
0.000454162
0.000453725
0.000453636
0.000453846
0.000454338
0.000455114
0.000456194
0.000457615
0.00045943
0.000461715
0.000464571
0.000468131
0.000472574
0.000478139
0.000485158
0.000494075
0.000505562
0.000520449
0.000540427
0.000566567
0.000605532
0.000651651
0.000744571
0.000828016
0.296134
0.155057
0.0912929
0.0644085
0.0566614
0.0509635
0.0323648
0.0235332
0.0241312
0.0280266
0.029748
0.0262015
0.020258
0.0143232
0.00951241
0.00610443
0.0039122
0.00259119
0.00181237
0.00134587
0.0010569
0.000871055
0.000746744
0.000660845
0.000601505
0.000562488
0.000537966
0.000520888
0.000505904
0.000491694
0.000479386
0.000469972
0.000463453
0.000459231
0.00045661
0.000455031
0.000454124
0.000453677
0.000453583
0.000453791
0.000454282
0.000455058
0.00045614
0.000457563
0.000459382
0.000461671
0.000464531
0.000468096
0.000472546
0.000478121
0.00048515
0.000494081
0.000505586
0.000520497
0.000540501
0.000566674
0.00060564
0.00065173
0.000744107
0.000826754
0.296012
0.15488
0.0905736
0.062614
0.0543636
0.0514001
0.0354281
0.0255531
0.0257607
0.0296962
0.0309731
0.0269249
0.0206308
0.0144755
0.00957025
0.00613832
0.00393804
0.00260793
0.00182162
0.0013513
0.00106098
0.000874745
0.000750342
0.000664216
0.000604096
0.000563796
0.000538152
0.000520671
0.000505849
0.000491879
0.00047965
0.000470188
0.000463582
0.000459285
0.000456614
0.000455005
0.000454082
0.000453628
0.000453529
0.000453735
0.000454225
0.000455003
0.000456086
0.000457512
0.000459333
0.000461626
0.000464491
0.000468062
0.000472519
0.000478102
0.000485142
0.000494086
0.000505608
0.000520541
0.000540572
0.000566775
0.000605741
0.000651801
0.000743661
0.000825557
0.295907
0.154769
0.0900187
0.0610804
0.0520615
0.0510527
0.038206
0.0276572
0.0273132
0.0311352
0.0319421
0.0274688
0.0208846
0.0145477
0.00957604
0.00614065
0.00394727
0.00261754
0.00182831
0.00135577
0.00106449
0.000877964
0.000753514
0.000667287
0.000606619
0.00056524
0.000538513
0.000520543
0.000505798
0.00049204
0.000479896
0.000470394
0.000463706
0.000459336
0.000456614
0.000454977
0.000454039
0.000453576
0.000453474
0.000453678
0.000454168
0.000454947
0.000456032
0.00045746
0.000459286
0.000461583
0.000464452
0.000468029
0.000472492
0.000478083
0.000485133
0.000494091
0.000505629
0.000520583
0.000540639
0.000566871
0.000605835
0.000651863
0.000743233
0.000824423
0.295816
0.154711
0.089601
0.0597905
0.0498458
0.0500417
0.0405569
0.0298125
0.0287827
0.0323114
0.0326378
0.0278243
0.0210193
0.0145413
0.00953173
0.00611289
0.00394035
0.00261993
0.00183235
0.00135934
0.00106762
0.000880874
0.000756373
0.000670105
0.000609058
0.000566784
0.000539035
0.000520509
0.000505761
0.000492184
0.000480124
0.000470589
0.000463824
0.000459382
0.000456612
0.000454945
0.000453993
0.000453523
0.000453417
0.000453619
0.00045411
0.00045489
0.000455978
0.000457409
0.000459238
0.000461539
0.000464413
0.000467995
0.000472465
0.000478064
0.000485124
0.000494094
0.000505648
0.000520623
0.000540702
0.000566961
0.000605922
0.000651918
0.000742823
0.000823351
0.295737
0.154695
0.0892973
0.0587225
0.0477798
0.0485113
0.0423606
0.0319674
0.0301741
0.0332189
0.0330581
0.0279955
0.0210394
0.0144593
0.00944
0.006057
0.00391817
0.00261525
0.00183372
0.00136209
0.00107048
0.000883608
0.000759026
0.00067272
0.000611406
0.000568399
0.000539702
0.000520573
0.000505748
0.000492315
0.000480336
0.000470773
0.000463935
0.000459425
0.000456606
0.000454911
0.000453944
0.000453468
0.000453359
0.000453561
0.000454052
0.000454834
0.000455924
0.000457359
0.000459191
0.000461496
0.000464375
0.000467962
0.000472438
0.000478044
0.000485114
0.000494096
0.000505666
0.00052066
0.000540762
0.000567045
0.000606002
0.000651966
0.00074243
0.000822339
0.295669
0.15471
0.0890874
0.0578522
0.0459032
0.0466135
0.0435315
0.0340513
0.0314979
0.0338787
0.0332228
0.0279996
0.0209528
0.0143058
0.00930405
0.00597535
0.00388197
0.00260391
0.00183252
0.00136407
0.00107316
0.000886271
0.000761565
0.000675187
0.000613669
0.000570061
0.000540496
0.000520737
0.000505764
0.000492437
0.000480533
0.000470948
0.000464041
0.000459463
0.000456597
0.000454875
0.000453893
0.000453411
0.000453299
0.000453501
0.000453994
0.000454777
0.000455871
0.000457308
0.000459144
0.000461453
0.000464337
0.000467929
0.000472411
0.000478025
0.000485104
0.000494098
0.000505682
0.000520694
0.000540817
0.000567125
0.000606077
0.000652008
0.000742057
0.000821388
0.295609
0.15475
0.0889544
0.0571551
0.0442362
0.0444937
0.0440282
0.0359776
0.032763
0.0343341
0.0331755
0.0278659
0.0207701
0.0140854
0.0091275
0.00587056
0.00383322
0.00258652
0.00182892
0.00136534
0.00107573
0.000888945
0.000764065
0.000677555
0.000615858
0.000571752
0.000541402
0.000520999
0.000505817
0.000492555
0.000480718
0.000471113
0.000464141
0.000459498
0.000456585
0.000454836
0.000453841
0.000453352
0.000453239
0.000453441
0.000453935
0.000454721
0.000455817
0.000457258
0.000459098
0.000461411
0.000464299
0.000467897
0.000472385
0.000478006
0.000485094
0.000494098
0.000505696
0.000520726
0.000540869
0.000567199
0.000606145
0.000652044
0.000741701
0.000820494
0.295556
0.154808
0.0888838
0.0566076
0.0427844
0.0422811
0.0438574
0.0376487
0.0339701
0.0346422
0.0329778
0.0276306
0.0205026
0.0138032
0.00891422
0.00574549
0.00377361
0.00256383
0.00182316
0.00136599
0.00107825
0.000891693
0.000766591
0.000679872
0.000617985
0.00057346
0.000542403
0.000521356
0.000505912
0.000492675
0.000480892
0.000471269
0.000464236
0.00045953
0.000456571
0.000454794
0.000453786
0.000453292
0.000453178
0.00045338
0.000453876
0.000454664
0.000455764
0.000457209
0.000459052
0.00046137
0.000464262
0.000467865
0.000472359
0.000477987
0.000485083
0.000494098
0.000505709
0.000520756
0.000540918
0.000567268
0.000606208
0.000652076
0.000741364
0.000819659
0.29551
0.154879
0.0888633
0.0561876
0.0415424
0.0400824
0.043072
0.0389651
0.0351047
0.0348617
0.0326994
0.0273301
0.0201598
0.0134636
0.00866817
0.00560311
0.00370493
0.00253669
0.00181558
0.00136612
0.00108077
0.000894562
0.00076919
0.000682178
0.000620069
0.000575176
0.000543483
0.000521803
0.000506053
0.0004928
0.000481058
0.000471418
0.000464325
0.000459558
0.000456554
0.000454751
0.00045373
0.000453231
0.000453116
0.000453319
0.000453817
0.000454608
0.000455711
0.000457159
0.000459007
0.000461329
0.000464226
0.000467834
0.000472333
0.000477968
0.000485072
0.000494097
0.000505721
0.000520783
0.000540963
0.000567332
0.000606266
0.000652103
0.000741044
0.000818879
0.295469
0.15496
0.0888826
0.0558754
0.0404978
0.0379794
0.0417628
0.0398356
0.0361339
0.0350414
0.0324044
0.0269926
0.0197471
0.0130705
0.00839345
0.00544648
0.00362906
0.00250603
0.00180654
0.00136586
0.00108335
0.000897585
0.000771901
0.000684508
0.000622126
0.000576894
0.000544631
0.000522335
0.000506243
0.000492934
0.000481217
0.000471558
0.000464409
0.000459583
0.000456535
0.000454706
0.000453672
0.000453168
0.000453053
0.000453257
0.000453758
0.000454552
0.000455658
0.000457111
0.000458963
0.000461289
0.00046419
0.000467803
0.000472308
0.000477949
0.000485061
0.000494095
0.000505731
0.000520808
0.000541004
0.000567391
0.000606318
0.000652125
0.000740744
0.000818156
0.295434
0.155046
0.0889332
0.0556531
0.0396335
0.0360298
0.0400461
0.0401901
0.0370043
0.0352089
0.0321389
0.026631
0.0192644
0.0126272
0.00809422
0.00527877
0.00354792
0.00247284
0.00179644
0.00136534
0.00108601
0.000900787
0.00077475
0.000686889
0.000624173
0.000578612
0.000545833
0.000522946
0.000506483
0.000493082
0.000481372
0.000471692
0.000464488
0.000459605
0.000456514
0.000454659
0.000453613
0.000453105
0.000452989
0.000453196
0.000453699
0.000454497
0.000455607
0.000457063
0.000458919
0.000461249
0.000464155
0.000467773
0.000472283
0.00047793
0.000485049
0.000494093
0.000505739
0.00052083
0.000541042
0.000567445
0.000606365
0.000652145
0.000740461
0.000817488
0.295402
0.155136
0.0890076
0.0555054
0.0389305
0.0342692
0.0380504
0.03999
0.0376457
0.0353633
0.0319197
0.0262374
0.0187056
0.0121365
0.0077749
0.00510322
0.00346342
0.00243807
0.00178568
0.00136469
0.0010888
0.000904181
0.000777754
0.000689343
0.000626225
0.000580331
0.000547081
0.000523629
0.000506774
0.000493246
0.000481525
0.000471821
0.000464563
0.000459624
0.000456492
0.000454611
0.000453553
0.000453041
0.000452925
0.000453134
0.00045364
0.000454441
0.000455555
0.000457016
0.000458876
0.00046121
0.000464121
0.000467743
0.000472259
0.000477911
0.000485037
0.00049409
0.000505746
0.00052085
0.000541076
0.000567494
0.000606408
0.000652161
0.000740197
0.000816873
0.295375
0.155228
0.0890997
0.0554188
0.0383689
0.0327153
0.0359028
0.0392361
0.0379773
0.0354712
0.0317283
0.0257826
0.0180607
0.0116017
0.00744028
0.00492313
0.00337747
0.00240267
0.00177467
0.00136406
0.00109175
0.000907776
0.000780921
0.000691885
0.000628295
0.00058205
0.000548365
0.000524378
0.000507117
0.00049343
0.000481679
0.000471945
0.000464634
0.00045964
0.000456467
0.000454562
0.000453492
0.000452976
0.000452861
0.000453072
0.000453581
0.000454387
0.000455504
0.000456969
0.000458833
0.000461172
0.000464087
0.000467714
0.000472234
0.000477893
0.000485026
0.000494086
0.000505752
0.000520868
0.000541107
0.000567539
0.000606446
0.000652174
0.000739952
0.000816313
0.29535
0.155319
0.0892045
0.0553816
0.0379296
0.0313712
0.0337182
0.0379713
0.0379197
0.0354684
0.0315093
0.0252189
0.0173188
0.0110274
0.00709569
0.00474188
0.00329188
0.00236752
0.00176379
0.00136357
0.00109489
0.000911575
0.000784255
0.000694524
0.000630394
0.000583773
0.000549678
0.000525184
0.00050751
0.000493635
0.000481835
0.000472065
0.000464701
0.000459654
0.000456441
0.000454512
0.000453431
0.000452911
0.000452797
0.000453011
0.000453523
0.000454333
0.000455454
0.000456923
0.000458792
0.000461135
0.000464054
0.000467685
0.000472211
0.000477875
0.000485014
0.000494081
0.000505757
0.000520883
0.000541134
0.000567579
0.000606479
0.000652185
0.000739725
0.000815806
0.295329
0.155409
0.0893177
0.0553841
0.0375944
0.0302299
0.0315917
0.0362763
0.0374093
0.0352663
0.0311753
0.0244891
0.0164722
0.0104208
0.00674713
0.00456286
0.00320835
0.00233342
0.00175335
0.00136333
0.00109825
0.000915573
0.000787753
0.000697266
0.00063253
0.000585502
0.000551015
0.000526043
0.000507952
0.000493865
0.000481995
0.000472183
0.000464766
0.000459666
0.000456414
0.000454462
0.000453369
0.000452846
0.000452733
0.000452949
0.000453466
0.000454279
0.000455405
0.000456878
0.000458751
0.000461099
0.000464022
0.000467658
0.000472188
0.000477857
0.000485001
0.000494076
0.00050576
0.000520897
0.000541159
0.000567615
0.000606509
0.000652194
0.000739516
0.000815351
0.29531
0.155497
0.089436
0.0554176
0.037347
0.0292775
0.0295954
0.0342599
0.0364129
0.0347664
0.030619
0.0235386
0.0155214
0.00979206
0.00640119
0.00438936
0.00312841
0.00230103
0.00174363
0.00136343
0.00110184
0.000919762
0.000791406
0.000700112
0.000634709
0.000587238
0.00055237
0.000526947
0.000508441
0.00049412
0.000482162
0.0004723
0.000464828
0.000459677
0.000456386
0.00045441
0.000453306
0.000452781
0.000452668
0.000452888
0.000453409
0.000454226
0.000455357
0.000456834
0.000458712
0.000461063
0.000463991
0.000467631
0.000472165
0.000477839
0.000484989
0.00049407
0.000505761
0.000520907
0.000541179
0.000567646
0.000606534
0.000652201
0.000739326
0.000814949
0.295293
0.155582
0.0895566
0.055475
0.0371726
0.0284958
0.0277781
0.0320458
0.0349398
0.0338793
0.029733
0.0223314
0.0144794
0.00915476
0.00606483
0.00422443
0.00305334
0.00227089
0.00173485
0.00136395
0.00110566
0.00092413
0.000795204
0.000703057
0.000636934
0.000588985
0.00055374
0.000527891
0.000508976
0.000494401
0.000482336
0.000472416
0.000464888
0.000459686
0.000456358
0.000454359
0.000453244
0.000452716
0.000452605
0.000452828
0.000453353
0.000454175
0.00045531
0.000456791
0.000458673
0.000461029
0.000463961
0.000467605
0.000472144
0.000477822
0.000484977
0.000494063
0.000505762
0.000520916
0.000541197
0.000567673
0.000606555
0.000652206
0.000739154
0.000814598
0.295278
0.155664
0.0896774
0.0555503
0.0370583
0.027865
0.0261667
0.0297575
0.0330461