/*--------------------------------*- C++ -*----------------------------------*\
| =========                 |                                                 |
| \\      /  F ield         | OpenFOAM: The Open Source CFD Toolbox           |
|  \\    /   O peration     | Version:  2.4.0                                 |
|   \\  /    A nd           | Web:      www.OpenFOAM.org                      |
|    \\/     M anipulation  |                                                 |
\*---------------------------------------------------------------------------*/
FoamFile
{
    version     2.0;
    format      ascii;
    class       volScalarField;
    location    "0.24";
    object      p;
}
// * * * * * * * * * * * * * * * * * * * * * * * * * * * * * * * * * * * * * //

dimensions      [0 2 -2 0 0 0 0];

internalField   nonuniform List<scalar> 
6000
(
0.263173
0.257756
0.255256
0.254376
0.253473
0.252359
0.251249
0.250231
0.2493
0.248453
0.247689
0.246998
0.246351
0.245716
0.24507
0.244408
0.243736
0.243066
0.24241
0.241773
0.241153
0.240545
0.239943
0.239342
0.238739
0.238134
0.237529
0.236925
0.236323
0.235726
0.235133
0.234548
0.233973
0.23341
0.232862
0.232335
0.231834
0.231367
0.230944
0.230576
0.23028
0.230078
0.229994
0.230064
0.230332
0.230854
0.231703
0.232972
0.234782
0.237287
0.240685
0.245235
0.25127
0.259225
0.269684
0.28338
0.301362
0.324433
0.354276
0.385866
0.259234
0.256973
0.255211
0.254377
0.25355
0.25252
0.251454
0.250452
0.249522
0.248659
0.247865
0.247134
0.246446
0.245777
0.245107
0.244432
0.243754
0.243081
0.242422
0.241782
0.241159
0.240548
0.239944
0.239342
0.238739
0.238134
0.237529
0.236925
0.236323
0.235725
0.235132
0.234547
0.233971
0.233408
0.23286
0.232332
0.23183
0.231362
0.230937
0.230567
0.230269
0.230063
0.229976
0.230041
0.230302
0.230815
0.231652
0.232906
0.234696
0.237175
0.240539
0.245041
0.25101
0.258871
0.269188
0.282661
0.300307
0.322844
0.352437
0.383363
0.259083
0.257468
0.255526
0.254408
0.253521
0.25249
0.251415
0.250408
0.249481
0.248622
0.247831
0.247102
0.246416
0.245751
0.245088
0.244419
0.243747
0.24308
0.242424
0.241785
0.241162
0.240551
0.239946
0.239343
0.238739
0.238134
0.237528
0.236924
0.236322
0.235724
0.235131
0.234546
0.23397
0.233406
0.232857
0.232328
0.231826
0.231356
0.230929
0.230557
0.230256
0.230046
0.229954
0.230012
0.230265
0.230767
0.23159
0.232826
0.234591
0.237036
0.240355
0.244795
0.250675
0.258403
0.268513
0.281644
0.298708
0.320203
0.348264
0.377241
0.25843
0.257033
0.255286
0.254207
0.25338
0.252421
0.251394
0.25042
0.249519
0.248678
0.247894
0.247163
0.24647
0.245795
0.245124
0.24445
0.243775
0.243106
0.242448
0.241806
0.241178
0.240562
0.239953
0.239347
0.238741
0.238134
0.237528
0.236924
0.236321
0.235723
0.23513
0.234544
0.233967
0.233402
0.232853
0.232323
0.231818
0.231347
0.230917
0.230542
0.230237
0.230021
0.229921
0.22997
0.23021
0.230697
0.231499
0.232707
0.234437
0.236836
0.240093
0.244448
0.25021
0.257768
0.267622
0.280348
0.296739
0.317106
0.343151
0.369436
0.257874
0.256788
0.255286
0.254207
0.253362
0.252423
0.251415
0.25045
0.249554
0.248713
0.247925
0.247185
0.246483
0.245802
0.245128
0.244454
0.243781
0.243113
0.242457
0.241815
0.241186
0.240568
0.239957
0.239349
0.238742
0.238135
0.237528
0.236923
0.23632
0.235721
0.235128
0.234541
0.233964
0.233398
0.232847
0.232316
0.231809
0.231335
0.230902
0.230523
0.230212
0.229989
0.22988
0.229917
0.230141
0.230608
0.231384
0.232559
0.234244
0.236585
0.239764
0.244014
0.249633
0.256987
0.266541
0.278809
0.294468
0.313679
0.337644
0.361099
0.257406
0.25655
0.255221
0.254141
0.253285
0.252377
0.251401
0.250453
0.249568
0.248735
0.24795
0.247209
0.246504
0.245819
0.245142
0.244467
0.243794
0.243127
0.24247
0.241827
0.241196
0.240576
0.239962
0.239352
0.238743
0.238135
0.237528
0.236922
0.236319
0.23572
0.235126
0.234538
0.23396
0.233393
0.232841
0.232307
0.231798
0.231321
0.230884
0.230499
0.230181
0.22995
0.229829
0.229852
0.230057
0.230499
0.231244
0.232377
0.234009
0.236279
0.239365
0.243491
0.24894
0.256057
0.26527
0.277032
0.291905
0.30992
0.331819
0.352525
0.257003
0.256309
0.255131
0.254079
0.253225
0.252346
0.251399
0.250467
0.24959
0.248762
0.247978
0.247235
0.246524
0.245834
0.245154
0.244477
0.243803
0.243136
0.24248
0.241836
0.241204
0.240582
0.239966
0.239354
0.238744
0.238135
0.237527
0.236921
0.236317
0.235718
0.235123
0.234535
0.233955
0.233387
0.232833
0.232297
0.231785
0.231304
0.230862
0.230471
0.230146
0.229904
0.22977
0.229775
0.229959
0.230372
0.23108
0.232166
0.233735
0.235924
0.238902
0.242885
0.24814
0.25499
0.263824
0.275036
0.28908
0.305867
0.325747
0.343873
0.256651
0.256077
0.255033
0.254021
0.253171
0.252312
0.251391
0.250475
0.249606
0.248784
0.248001
0.247256
0.246542
0.245848
0.245165
0.244487
0.243813
0.243146
0.24249
0.241845
0.241211
0.240587
0.23997
0.239357
0.238745
0.238135
0.237527
0.23692
0.236316
0.235715
0.23512
0.234531
0.23395
0.23338
0.232824
0.232286
0.231771
0.231285
0.230838
0.23044
0.230105
0.229852
0.229703
0.229689
0.229847
0.230228
0.230894
0.231925
0.233424
0.23552
0.238377
0.2422
0.247239
0.253795
0.262218
0.272845
0.286029
0.301577
0.319518
0.335276
0.256342
0.255858
0.254929
0.253963
0.253119
0.252278
0.251381
0.250481
0.24962
0.248803
0.248023
0.247276
0.246559
0.245862
0.245176
0.244496
0.243822
0.243156
0.242499
0.241853
0.241218
0.240593
0.239974
0.239359
0.238746
0.238135
0.237526
0.236918
0.236314
0.235713
0.235116
0.234526
0.233944
0.233372
0.232814
0.232273
0.231754
0.231264
0.230811
0.230405
0.23006
0.229793
0.229628
0.229592
0.229723
0.230067
0.230686
0.231657
0.233077
0.235071
0.237794
0.24144
0.246243
0.25248
0.260464
0.270478
0.282781
0.297096
0.313198
0.326809
0.256069
0.255654
0.254823
0.253904
0.253071
0.252245
0.25137
0.250485
0.249633
0.248821
0.248042
0.247295
0.246575
0.245875
0.245186
0.244506
0.243831
0.243164
0.242507
0.241861
0.241225
0.240598
0.239977
0.239361
0.238747
0.238135
0.237525
0.236917
0.236312
0.23571
0.235112
0.234521
0.233937
0.233364
0.232803
0.232259
0.231736
0.231241
0.230781
0.230366
0.23001
0.229729
0.229545
0.229485
0.229585
0.22989
0.230458
0.231362
0.232696
0.234578
0.237154
0.240608
0.245157
0.251053
0.258573
0.26795
0.279363
0.292462
0.306835
0.318511
0.255827
0.255465
0.254716
0.253845
0.253025
0.252213
0.251358
0.250488
0.249644
0.248836
0.248059
0.247311
0.246589
0.245887
0.245196
0.244514
0.24384
0.243173
0.242515
0.241868
0.241231
0.240602
0.23998
0.239363
0.238748
0.238135
0.237524
0.236915
0.236309
0.235706
0.235108
0.234516
0.23393
0.233355
0.232791
0.232244
0.231716
0.231215
0.230748
0.230324
0.229956
0.229659
0.229455
0.229369
0.229436
0.229697
0.230209
0.231041
0.232282
0.234042
0.236461
0.239708
0.243985
0.24952
0.256555
0.265278
0.275796
0.287705
0.30046
0.310397
0.255612
0.255293
0.254613
0.253787
0.252982
0.252183
0.251345
0.25049
0.249654
0.24885
0.248075
0.247327
0.246603
0.245898
0.245206
0.244523
0.243847
0.24318
0.242522
0.241875
0.241237
0.240607
0.239983
0.239364
0.238748
0.238135
0.237523
0.236914
0.236307
0.235703
0.235104
0.23451
0.233923
0.233345
0.232779
0.232227
0.231695
0.231188
0.230713
0.230279
0.229897
0.229584
0.229358
0.229244
0.229275
0.22949
0.229941
0.230696
0.231836
0.233467
0.235718
0.238745
0.242734
0.247889
0.254422
0.262477
0.272101
0.282853
0.294098
0.302474
0.255421
0.255135
0.254513
0.253729
0.252941
0.252154
0.251332
0.25049
0.249662
0.248862
0.248089
0.247341
0.246615
0.245908
0.245215
0.244531
0.243855
0.243187
0.242529
0.241881
0.241242
0.240611
0.239986
0.239366
0.238749
0.238134
0.237522
0.236912
0.236304
0.235699
0.235099
0.234503
0.233914
0.233334
0.232765
0.23221
0.231673
0.231159
0.230675
0.23023
0.229835
0.229504
0.229254
0.229111
0.229103
0.229268
0.229656
0.230328
0.231361
0.232854
0.234926
0.237721
0.241408
0.246169
0.252183
0.25956
0.268296
0.277925
0.287763
0.294737
0.255251
0.254992
0.254419
0.253674
0.252903
0.252127
0.251319
0.25049
0.249669
0.248872
0.248101
0.247353
0.246627
0.245918
0.245223
0.244538
0.243861
0.243194
0.242535
0.241886
0.241246
0.240614
0.239988
0.239367
0.238749
0.238134
0.237521
0.23691
0.236301
0.235695
0.235093
0.234496
0.233906
0.233323
0.23275
0.232191
0.231648
0.231128
0.230635
0.230179
0.229769
0.229418
0.229145
0.228969
0.22892
0.229033
0.229353
0.229938
0.230859
0.232206
0.23409
0.236642
0.240013
0.244365
0.249848
0.25654
0.264396
0.272939
0.281465
0.287176
0.255101
0.254863
0.254331
0.253621
0.252868
0.252102
0.251307
0.250488
0.249674
0.248881
0.248112
0.247364
0.246637
0.245927
0.245231
0.244545
0.243868
0.243199
0.242541
0.241891
0.24125
0.240617
0.23999
0.239368
0.238749
0.238133
0.237519
0.236907
0.236298
0.235691
0.235088
0.234489
0.233897
0.233311
0.232735
0.232171
0.231623
0.231095
0.230593
0.230125
0.229699
0.229329
0.229029
0.22882
0.228729
0.228786
0.229035
0.229528
0.230331
0.231526
0.233213
0.235511
0.238555
0.242485
0.247426
0.253428
0.260415
0.267909
0.275209
0.279778
0.254968
0.254748
0.25425
0.253572
0.252835
0.25208
0.251295
0.250486
0.249679
0.248889
0.248122
0.247374
0.246646
0.245935
0.245237
0.244551
0.243873
0.243205
0.242545
0.241895
0.241254
0.24062
0.239992
0.239369
0.238749
0.238132
0.237518
0.236905
0.236294
0.235687
0.235082
0.234482
0.233887
0.233299
0.232719
0.232151
0.231597
0.231061
0.230549
0.230068
0.229626
0.229235
0.228908
0.228665
0.228528
0.228528
0.228702
0.229099
0.229779
0.230815
0.232297
0.234332
0.237039
0.240536
0.244927
0.250236
0.256364
0.262844
0.268997
0.272529
0.254851
0.254646
0.254177
0.253526
0.252805
0.252059
0.251283
0.250484
0.249683
0.248896
0.24813
0.247383
0.246654
0.245942
0.245244
0.244556
0.243878
0.243209
0.24255
0.241899
0.241257
0.240622
0.239994
0.23937
0.238749
0.238131
0.237516
0.236902
0.236291
0.235682
0.235076
0.234474
0.233877
0.233286
0.232702
0.232129
0.231569
0.231026
0.230504
0.230009
0.22955
0.229137
0.228782
0.228503
0.228319
0.228259
0.228356
0.228654
0.229205
0.230076
0.231347
0.233111
0.23547
0.238526
0.242359
0.246973
0.252255
0.257752
0.262827
0.265412
0.25475
0.254556
0.254111
0.253484
0.252778
0.25204
0.251273
0.250482
0.249686
0.248902
0.248137
0.247391
0.246662
0.245949
0.245249
0.244561
0.243883
0.243214
0.242554
0.241903
0.24126
0.240624
0.239995
0.23937
0.238749
0.23813
0.237514
0.2369
0.236287
0.235677
0.23507
0.234466
0.233867
0.233272
0.232685
0.232107
0.23154
0.230989
0.230456
0.229948
0.229472
0.229036
0.228652
0.228335
0.228103
0.227981
0.227998
0.228193
0.228612
0.229313
0.230366
0.231851
0.233855
0.236461
0.239729
0.243648
0.248095
0.25264
0.256695
0.258408
0.254663
0.254479
0.254053
0.253446
0.252754
0.252024
0.251264
0.250479
0.249688
0.248908
0.248144
0.247397
0.246668
0.245954
0.245254
0.244565
0.243887
0.243217
0.242557
0.241905
0.241262
0.240626
0.239996
0.23937
0.238748
0.238129
0.237512
0.236897
0.236284
0.235673
0.235064
0.234458
0.233856
0.233259
0.232668
0.232084
0.231511
0.230951
0.230407
0.229885
0.229391
0.228932
0.228518
0.228162
0.227881
0.227695
0.22763
0.227718
0.228002
0.228528
0.229358
0.230558
0.232199
0.234348
0.237047
0.24027
0.243891
0.24751
0.250598
0.251501
0.25459
0.254413
0.254004
0.253414
0.252733
0.25201
0.251256
0.250477
0.24969
0.248912
0.248149
0.247403
0.246673
0.245959
0.245258
0.244569
0.24389
0.24322
0.24256
0.241908
0.241264
0.240627
0.239996
0.23937
0.238748
0.238128
0.23751
0.236894
0.23628
0.235667
0.235057
0.234449
0.233845
0.233244
0.232649
0.232061
0.231481
0.230912
0.230357
0.229821
0.229308
0.228825
0.22838
0.227985
0.227653
0.227401
0.227252
0.227232
0.227376
0.227724
0.228326
0.229234
0.230507
0.232193
0.234318
0.236846
0.239651
0.242366
0.244528
0.244671
0.25453
0.254359
0.253962
0.253387
0.252715
0.251998
0.251249
0.250475
0.249692
0.248915
0.248153
0.247407
0.246678
0.245963
0.245262
0.244572
0.243893
0.243223
0.242562
0.24191
0.241265
0.240628
0.239997
0.23937
0.238747
0.238126
0.237508
0.236891
0.236276
0.235662
0.23505
0.234441
0.233834
0.23323
0.232631
0.232037
0.23145
0.230872
0.230306
0.229755
0.229223
0.228716
0.22824
0.227804
0.22742
0.227101
0.226866
0.226736
0.226738
0.226904
0.227273
0.227886
0.228785
0.230002
0.23155
0.233383
0.235378
0.237207
0.238477
0.2379
0.254482
0.254316
0.253929
0.253364
0.252701
0.251989
0.251243
0.250473
0.249693
0.248918
0.248156
0.247411
0.246681
0.245966
0.245264
0.244575
0.243895
0.243225
0.242564
0.241911
0.241266
0.240629
0.239997
0.23937
0.238746
0.238125
0.237506
0.236888
0.236272
0.235657
0.235044
0.234432
0.233822
0.233215
0.232612
0.232012
0.231419
0.230832
0.230254
0.229688
0.229137
0.228604
0.228097
0.22762
0.227183
0.226796
0.226473
0.226231
0.226089
0.226071
0.226204
0.226517
0.227038
0.227783
0.22875
0.229887
0.231078
0.232034
0.232437
0.23117
0.254446
0.254284
0.253904
0.253348
0.25269
0.251981
0.251239
0.250472
0.249694
0.24892
0.248159
0.247414
0.246684
0.245968
0.245266
0.244576
0.243896
0.243226
0.242565
0.241912
0.241267
0.240629
0.239997
0.239369
0.238745
0.238123
0.237503
0.236885
0.236268
0.235652
0.235037
0.234423
0.233811
0.2332
0.232593
0.231988
0.231387
0.230791
0.230201
0.22962
0.229049
0.228492
0.227952
0.227433
0.226943
0.226487
0.226076
0.22572
0.225432
0.225227
0.225122
0.225133
0.225271
0.225541
0.225925
0.226365
0.226754
0.226846
0.2264
0.224462
0.254423
0.254263
0.253888
0.253336
0.252683
0.251977
0.251236
0.250471
0.249694
0.248921
0.248161
0.247415
0.246685
0.24597
0.245268
0.244577
0.243897
0.243227
0.242566
0.241913
0.241267
0.240629
0.239996
0.239368
0.238744
0.238121
0.237501
0.236882
0.236264
0.235646
0.23503
0.234414
0.233799
0.233185
0.232573
0.231963
0.231355
0.23075
0.230148
0.229552
0.228961
0.228378
0.227806
0.227245
0.226701
0.226176
0.225675
0.225204
0.224769
0.224376
0.224031
0.223737
0.223491
0.223282
0.22308
0.222822
0.22241
0.221641
0.220354
0.217755
0.254411
0.254252
0.25388
0.253331
0.252679
0.251974
0.251235
0.25047
0.249694
0.248922
0.248161
0.247416
0.246686
0.245971
0.245268
0.244578
0.243898
0.243227
0.242566
0.241913
0.241267
0.240629
0.239996
0.239367
0.238742
0.238119
0.237498
0.236878
0.236259
0.235641
0.235023
0.234405
0.233787
0.23317
0.232554
0.231938
0.231323
0.230708
0.230095
0.229483
0.228873
0.228264
0.227659
0.227056
0.226457
0.225863
0.225272
0.224686
0.224103
0.223521
0.222935
0.222334
0.221703
0.221013
0.220223
0.219264
0.218049
0.216418
0.214291
0.211031
0.254411
0.254252
0.25388
0.253331
0.252679
0.251974
0.251235
0.25047
0.249694
0.248922
0.248161
0.247416
0.246686
0.24597
0.245268
0.244578
0.243898
0.243227
0.242565
0.241912
0.241267
0.240628
0.239995
0.239366
0.238741
0.238117
0.237496
0.236875
0.236255
0.235635
0.235015
0.234396
0.233776
0.233155
0.232534
0.231913
0.23129
0.230667
0.230041
0.229414
0.228784
0.22815
0.227512
0.226867
0.226214
0.225549
0.224869
0.224167
0.223436
0.222665
0.221837
0.220929
0.219912
0.21874
0.21736
0.215696
0.213673
0.211173
0.208198
0.204269
0.254423
0.254263
0.253888
0.253336
0.252683
0.251977
0.251236
0.250471
0.249694
0.248921
0.24816
0.247415
0.246685
0.24597
0.245267
0.244577
0.243897
0.243226
0.242564
0.241911
0.241266
0.240627
0.239994
0.239365
0.238739
0.238115
0.237493
0.236872
0.236251
0.23563
0.235008
0.234387
0.233764
0.23314
0.232515
0.231888
0.231258
0.230625
0.229988
0.229345
0.228695
0.228036
0.227365
0.226678
0.22597
0.225236
0.224466
0.22365
0.222771
0.221811
0.220741
0.219527
0.218123
0.216469
0.214496
0.212124
0.209286
0.205905
0.202066
0.197449
0.254446
0.254284
0.253904
0.253348
0.25269
0.251981
0.251239
0.250472
0.249693
0.24892
0.248159
0.247413
0.246683
0.245968
0.245266
0.244576
0.243895
0.243225
0.242563
0.24191
0.241264
0.240625
0.239992
0.239363
0.238737
0.238113
0.23749
0.236868
0.236246
0.235624
0.235001
0.234377
0.233752
0.233125
0.232496
0.231863
0.231226
0.230584
0.229935
0.229277
0.228607
0.227923
0.227219
0.22649
0.225729
0.224925
0.224066
0.223135
0.22211
0.220961
0.219652
0.218132
0.216342
0.214206
0.211639
0.208554
0.204889
0.20061
0.195881
0.190548
0.254482
0.254316
0.253929
0.253364
0.252701
0.251988
0.251243
0.250473
0.249693
0.248918
0.248156
0.24741
0.24668
0.245965
0.245264
0.244573
0.243893
0.243223
0.242561
0.241908
0.241263
0.240624
0.23999
0.239361
0.238735
0.238111
0.237488
0.236865
0.236242
0.235619
0.234994
0.234368
0.233741
0.23311
0.232476
0.231838
0.231194
0.230543
0.229882
0.229209
0.22852
0.22781
0.227074
0.226304
0.225489
0.224617
0.22367
0.222625
0.221455
0.22012
0.218572
0.216749
0.214575
0.211958
0.208796
0.204991
0.200487
0.195287
0.189633
0.183545
0.25453
0.254359
0.253962
0.253386
0.252715
0.251998
0.251249
0.250475
0.249692
0.248915
0.248153
0.247407
0.246677
0.245962
0.245261
0.244571
0.243891
0.24322
0.242559
0.241906
0.24126
0.240622
0.239988
0.239359
0.238733
0.238109
0.237485
0.236862
0.236238
0.235613
0.234987
0.23436
0.233729
0.233096
0.232458
0.231814
0.231163
0.230503
0.22983
0.229142
0.228434
0.2277
0.226932
0.226121
0.225253
0.224313
0.223279
0.222123
0.220808
0.219289
0.217506
0.215383
0.212827
0.20973
0.205972
0.201442
0.196084
0.189934
0.183309
0.176415
0.25459
0.254413
0.254004
0.253414
0.252733
0.25201
0.251256
0.250477
0.24969
0.248911
0.248148
0.247402
0.246672
0.245958
0.245257
0.244567
0.243888
0.243217
0.242556
0.241903
0.241258
0.240619
0.239986
0.239357
0.238731
0.238106
0.237482
0.236858
0.236234
0.235608
0.234981
0.234351
0.233718
0.233081
0.232439
0.23179
0.231132
0.230463
0.229779
0.229076
0.228349
0.227591
0.226792
0.22594
0.225021
0.224015
0.222895
0.221628
0.220173
0.218472
0.216457
0.214037
0.211105
0.20753
0.203176
0.197914
0.191683
0.184548
0.176896
0.169133
0.254663
0.254479
0.254053
0.253446
0.252754
0.252024
0.251264
0.250479
0.249688
0.248907
0.248143
0.247396
0.246667
0.245953
0.245253
0.244563
0.243884
0.243214
0.242553
0.2419
0.241255
0.240617
0.239984
0.239355
0.238729
0.238104
0.23748
0.236855
0.23623
0.235603
0.234974
0.234342
0.233707
0.233067
0.232421
0.231767
0.231102
0.230424
0.229729
0.229012
0.228267
0.227484
0.226655
0.225764
0.224794
0.223722
0.222519
0.221145
0.219551
0.217673
0.215429
0.212718
0.209413
0.205365
0.200415
0.194414
0.187289
0.17913
0.170381
0.161672
0.25475
0.254556
0.254111
0.253484
0.252778
0.25204
0.251273
0.250481
0.249686
0.248902
0.248137
0.24739
0.24666
0.245947
0.245247
0.244559
0.24388
0.24321
0.242549
0.241896
0.241252
0.240614
0.239981
0.239353
0.238726
0.238101
0.237477
0.236852
0.236226
0.235598
0.234967
0.234334
0.233696
0.233053
0.232403
0.231744
0.231073
0.230386
0.229681
0.22895
0.228186
0.227381
0.226521
0.225592
0.224573
0.223438
0.222153
0.220674
0.218945
0.216893
0.214427
0.211429
0.207757
0.203242
0.197697
0.190951
0.182909
0.17368
0.163753
0.154005
0.254851
0.254646
0.254177
0.253525
0.252805
0.252059
0.251283
0.250484
0.249682
0.248896
0.248129
0.247382
0.246653
0.245941
0.245242
0.244554
0.243875
0.243205
0.242544
0.241892
0.241248
0.24061
0.239978
0.23935
0.238724
0.238099
0.237474
0.236848
0.236222
0.235593
0.234961
0.234326
0.233686
0.23304
0.232386
0.231722
0.231044
0.23035
0.229633
0.228889
0.228108
0.22728
0.226392
0.225426
0.224359
0.223162
0.221797
0.220216
0.218356
0.216136
0.213452
0.210175
0.206144
0.201167
0.19503
0.187533
0.178551
0.168199
0.156997
0.1461
0.254968
0.254748
0.25425
0.253571
0.252835
0.252079
0.251294
0.250486
0.249678
0.248889
0.248121
0.247373
0.246645
0.245933
0.245235
0.244548
0.24387
0.2432
0.242539
0.241887
0.241244
0.240607
0.239975
0.239347
0.238721
0.238096
0.237471
0.236845
0.236218
0.235588
0.234955
0.234318
0.233676
0.233027
0.232369
0.2317
0.231017
0.230314
0.229588
0.22883
0.228033
0.227183
0.226267
0.225265
0.224152
0.222895
0.221454
0.219775
0.217788
0.215405
0.21251
0.208962
0.204579
0.199148
0.192424
0.184171
0.174223
0.162692
0.150103
0.137927
0.255101
0.254863
0.254331
0.253621
0.252868
0.252102
0.251306
0.250488
0.249674
0.248881
0.248111
0.247363
0.246635
0.245925
0.245228
0.244541
0.243864
0.243194
0.242534
0.241882
0.241239
0.240603
0.239972
0.239344
0.238719
0.238094
0.237469
0.236842
0.236214
0.235583
0.234949
0.234311
0.233666
0.233015
0.232353
0.23168
0.23099
0.230281
0.229544
0.228774
0.22796
0.22709
0.226147
0.22511
0.223953
0.22264
0.221125
0.219351
0.217242
0.214701
0.211604
0.207793
0.203069
0.197194
0.189888
0.180875
0.169936
0.157165
0.143057
0.129451
0.255251
0.254992
0.254419
0.253674
0.252903
0.252127
0.251319
0.250489
0.249668
0.248871
0.2481
0.247352
0.246625
0.245916
0.24522
0.244535
0.243857
0.243188
0.242528
0.241877
0.241234
0.240599
0.239968
0.239342
0.238716
0.238092
0.237466
0.236839
0.236211
0.235579
0.234944
0.234303
0.233657
0.233003
0.232338
0.23166
0.230965
0.230248
0.229503
0.22872
0.227891
0.227001
0.226032
0.224963
0.223763
0.222395
0.220811
0.218946
0.216721
0.214029
0.210737
0.206673
0.201619
0.195311
0.187432
0.17766
0.165703
0.151627
0.13585
0.120636
0.255421
0.255135
0.254513
0.253729
0.252941
0.252154
0.251332
0.25049
0.249661
0.248861
0.248088
0.247339
0.246614
0.245906
0.245212
0.244527
0.24385
0.243181
0.242521
0.241871
0.241229
0.240594
0.239965
0.239338
0.238714
0.238089
0.237464
0.236837
0.236207
0.235575
0.234938
0.234297
0.233648
0.232992
0.232324
0.231642
0.230941
0.230217
0.229463
0.228669
0.227825
0.226916
0.225924
0.224823
0.223583
0.222163
0.220512
0.218562
0.216225
0.213391
0.209913
0.205607
0.200236
0.193508
0.185067
0.174537
0.16154
0.14609
0.128473
0.111445
0.255612
0.255292
0.254612
0.253786
0.252981
0.252182
0.251345
0.250489
0.249653
0.248849
0.248074
0.247325
0.246601
0.245896
0.245203
0.244519
0.243842
0.243174
0.242514
0.241864
0.241223
0.240589
0.239961
0.239335
0.238711
0.238087
0.237461
0.236834
0.236204
0.235571
0.234933
0.23429
0.23364
0.232981
0.23231
0.231624
0.230919
0.230188
0.229426
0.228621
0.227764
0.226837
0.225821
0.224691
0.223413
0.221945
0.220231
0.218199
0.215758
0.212788
0.209135
0.204598
0.198925
0.191793
0.182806
0.171524
0.157466
0.140572
0.12092
0.101836
0.255827
0.255465
0.254716
0.253845
0.253024
0.252213
0.251358
0.250488
0.249644
0.248835
0.248058
0.24731
0.246587
0.245884
0.245193
0.24451
0.243834
0.243166
0.242507
0.241857
0.241217
0.240584
0.239957
0.239332
0.238708
0.238084
0.237459
0.236831
0.236201
0.235567
0.234928
0.234284
0.233633
0.232971
0.232297
0.231608
0.230898
0.230161
0.229391
0.228577
0.227706
0.226762
0.225726
0.224568
0.223255
0.221741
0.219968
0.21786
0.215321
0.212224
0.208405
0.203652
0.197692
0.190176
0.180658
0.168637
0.153503
0.135096
0.113191
0.0917679
0.256069
0.255654
0.254822
0.253904
0.25307
0.252245
0.25137
0.250485
0.249633
0.24882
0.248041
0.247293
0.246573
0.245872
0.245183
0.244501
0.243826
0.243157
0.242498
0.241849
0.24121
0.240579
0.239952
0.239329
0.238706
0.238082
0.237457
0.236829
0.236198
0.235563
0.234924
0.234279
0.233625
0.232962
0.232286
0.231593
0.230878
0.230136
0.229358
0.228535
0.227652
0.226694
0.225637
0.224454
0.223107
0.221551
0.219724
0.217546
0.214916
0.211701
0.207728
0.202773
0.196543
0.188663
0.178638
0.165894
0.149675
0.12969
0.10529
0.0811961
0.256342
0.255858
0.254929
0.253963
0.253119
0.252278
0.251381
0.25048
0.24962
0.248802
0.248021
0.247275
0.246557
0.245859
0.245173
0.244492
0.243817
0.243149
0.24249
0.241841
0.241203
0.240573
0.239948
0.239325
0.238703
0.23808
0.237455
0.236827
0.236195
0.23556
0.23492
0.234274
0.233619
0.232954
0.232275
0.231579
0.23086
0.230113
0.229329
0.228497
0.227603
0.22663
0.225555
0.224349
0.222972
0.221377
0.2195
0.217258
0.214544
0.21122
0.207106
0.201964
0.195484
0.187263
0.176758
0.163316
0.146015
0.124393
0.0972332
0.0700721
0.256651
0.256077
0.255032
0.254021
0.253171
0.252312
0.251391
0.250474
0.249605
0.248783
0.248
0.247254
0.24654
0.245845
0.245161
0.244482
0.243807
0.243139
0.24248
0.241832
0.241195
0.240567
0.239943
0.239322
0.238701
0.238078
0.237453
0.236825
0.236193
0.235557
0.234916
0.234269
0.233613
0.232946
0.232265
0.231566
0.230844
0.230092
0.229302
0.228462
0.227559
0.226573
0.225481
0.224254
0.22285
0.22122
0.219297
0.216996
0.214207
0.210785
0.206541
0.201229
0.19452
0.185985
0.175031
0.160925
0.142555
0.119251
0.0890487
0.0583372
0.257003
0.256309
0.255131
0.254078
0.253225
0.252345
0.251398
0.250466
0.249589
0.248761
0.247977
0.247233
0.246522
0.245832
0.24515
0.244472
0.243797
0.243129
0.24247
0.241823
0.241187
0.24056
0.239938
0.239319
0.238698
0.238076
0.237451
0.236823
0.236191
0.235555
0.234913
0.234265
0.233608
0.232939
0.232256
0.231555
0.23083
0.230074
0.229278
0.228431
0.227519
0.226522
0.225416
0.224169
0.222741
0.221079
0.219116
0.216763
0.213906
0.210395
0.206036
0.200571
0.193657
0.184836
0.173471
0.158743
0.139338
0.114323
0.0807871
0.0459116
0.257406
0.25655
0.255221
0.25414
0.253285
0.252377
0.2514
0.250453
0.249567
0.248734
0.247948
0.247207
0.246501
0.245816
0.245138
0.244462
0.243787
0.243119
0.24246
0.241813
0.241179
0.240554
0.239934
0.239315
0.238696
0.238074
0.237449
0.236821
0.236189
0.235553
0.23491
0.234261
0.233603
0.232933
0.232249
0.231545
0.230817
0.230057
0.229257
0.228404
0.227484
0.226477
0.225358
0.224095
0.222645
0.220956
0.218957
0.216559
0.213642
0.210054
0.205594
0.199994
0.192898
0.183825
0.17209
0.156794
0.136408
0.109681
0.0725321
0.0326979
0.257874
0.256788
0.255285
0.254206
0.253362
0.252423
0.251415
0.250449
0.249553
0.248712
0.247923
0.247184
0.246481
0.245799
0.245124
0.244449
0.243774
0.243105
0.242446
0.241801
0.241169
0.240546
0.239928
0.239312
0.238694
0.238073
0.237448
0.23682
0.236188
0.235551
0.234908
0.234258
0.233599
0.232928
0.232242
0.231537
0.230806
0.230043
0.229239
0.228381
0.227454
0.226439
0.225309
0.224031
0.222564
0.220851
0.218822
0.216385
0.213417
0.209764
0.205217
0.199502
0.19225
0.182959
0.170904
0.155105
0.13382
0.105421
0.064419
0.0185985
0.25843
0.257032
0.255286
0.254207
0.25338
0.25242
0.251393
0.250419
0.249518
0.248677
0.247893
0.247161
0.246467
0.245792
0.24512
0.244445
0.243769
0.243098
0.242437
0.241792
0.24116
0.240539
0.239924
0.239309
0.238692
0.238071
0.237447
0.236819
0.236186
0.235549
0.234906
0.234256
0.233596
0.232924
0.232237
0.23153
0.230797
0.230032
0.229224
0.228362
0.22743
0.226408
0.225269
0.22398
0.222498
0.220766
0.218712
0.216243
0.213235
0.209527
0.20491
0.199102
0.191722
0.182252
0.169931
0.15371
0.131646
0.101671
0.0566767
0.00344927
0.259083
0.257468
0.255525
0.254408
0.253521
0.25249
0.251414
0.250408
0.24948
0.248621
0.24783
0.2471
0.246414
0.245748
0.245084
0.244414
0.243741
0.243071
0.242413
0.241771
0.241144
0.240527
0.239916
0.239304
0.238689
0.23807
0.237446
0.236818
0.236185
0.235548
0.234904
0.234254
0.233593
0.232921
0.232233
0.231525
0.230791
0.230023
0.229213
0.228348
0.227412
0.226384
0.225238
0.223941
0.222447
0.220701
0.218629
0.216135
0.213095
0.209347
0.204676
0.198796
0.191319
0.181712
0.169187
0.152635
0.129953
0.0985908
0.0496672
-0.013216
0.259234
0.256973
0.255211
0.254376
0.25355
0.252519
0.251453
0.250451
0.249521
0.248658
0.247864
0.247132
0.246444
0.245773
0.245103
0.244427
0.243747
0.243073
0.242411
0.241768
0.241141
0.240525
0.239914
0.239303
0.238689
0.238069
0.237446
0.236817
0.236185
0.235547
0.234903
0.234252
0.233592
0.232919
0.23223
0.231521
0.230786
0.230017
0.229205
0.228338
0.227399
0.226367
0.225216
0.223912
0.222411
0.220654
0.218568
0.216057
0.212995
0.209218
0.204508
0.198578
0.191031
0.181326
0.168656
0.151864
0.12875
0.0962876
0.0440193
-0.0318098
0.263173
0.257756
0.255255
0.254376
0.253473
0.252359
0.251249
0.25023
0.2493
0.248452
0.247687
0.246996
0.246348
0.245713
0.245066
0.244403
0.243729
0.243058
0.242399
0.241758
0.241134
0.240521
0.239913
0.239303
0.238689
0.23807
0.237446
0.236817
0.236184
0.235547
0.234903
0.234252
0.233591
0.232918
0.232229
0.231519
0.230784
0.230014
0.229202
0.228333
0.227392
0.226359
0.225206
0.223899
0.222394
0.220633
0.218541
0.216022
0.212949
0.209159
0.204431
0.198477
0.190898
0.181146
0.168408
0.151501
0.128178
0.0951861
0.0409328
-0.0459012
0.466649
0.33776
0.259829
0.23232
0.215042
0.19656
0.180497
0.169429
0.162221
0.157208
0.15359
0.151245
0.150155
0.150351
0.152081
0.156077
0.163638
0.178719
0.17841
0.147742
0.128793
0.120756
0.114509
0.10684
0.097812
0.087174
0.0734249
0.0538559
0.0241879
-0.0247309
-0.113106
-0.311948
-0.793463
-0.886001
-0.397379
-0.330216
-0.159378
-0.0638777
-0.0141473
0.00428123
0.0107479
0.0140101
0.0155567
0.0158124
0.0154757
0.0149101
0.0141
0.0129818
0.0116166
0.0101211
0.00868336
0.00744454
0.00635601
0.00536243
0.00445488
0.00364244
0.00297922
0.00244578
0.00248018
0.00036856
0.454288
0.330697
0.254527
0.229085
0.212785
0.194655
0.178969
0.168286
0.161489
0.156723
0.153272
0.151053
0.150058
0.150327
0.152102
0.156121
0.163542
0.175664
0.17322
0.145353
0.127402
0.119767
0.113668
0.105975
0.096869
0.0860763
0.0720041
0.0518434
0.0210928
-0.0297201
-0.121236
-0.308672
-0.662465
-0.782536
-0.429639
-0.344017
-0.177429
-0.0727172
-0.0194066
0.00151144
0.00925139
0.0130809
0.0149679
0.0154577
0.0152704
0.0148093
0.0140938
0.0130641
0.0117491
0.0102691
0.00884036
0.00758798
0.00647616
0.00546395
0.00454142
0.00370865
0.00302422
0.00240931
0.00231332
0.000367666
0.434238
0.325522
0.252777
0.227762
0.211743
0.193877
0.17851
0.168113
0.161374
0.156516
0.153131
0.150969
0.150015
0.150307
0.152082
0.156004
0.16276
0.172261
0.169032
0.14473
0.127305
0.119548
0.113412
0.105684
0.0965391
0.0856783
0.0714652
0.0510525
0.0198672
-0.0314189
-0.121771
-0.288853
-0.561962
-0.680205
-0.438746
-0.342567
-0.187035
-0.0788801
-0.0232887
-0.00069602
0.00803043
0.0123461
0.0145117
0.0151693
0.0150721
0.0146659
0.0139943
0.0130018
0.0117174
0.0102852
0.00887446
0.00761973
0.00650711
0.00549372
0.00456769
0.00372696
0.00302521
0.00237219
0.00215606
0.000453188
0.4138
0.320281
0.250391
0.225077
0.209454
0.192127
0.177163
0.167012
0.16046
0.156068
0.152819
0.150754
0.149868
0.150195
0.151952
0.155679
0.161687
0.169006
0.165015
0.143256
0.126484
0.118726
0.112687
0.105061
0.0959684
0.0851023
0.0708082
0.0502224
0.0187931
-0.0324576
-0.119657
-0.269782
-0.480559
-0.595354
-0.431872
-0.332966
-0.191939
-0.0843196
-0.0273422
-0.00330633
0.00651325
0.0114573
0.0139835
0.0148514
0.0148646
0.01452
0.0138987
0.0129614
0.0117388
0.0103645
0.00899796
0.00772026
0.00660085
0.0055743
0.00463284
0.00377346
0.0030465
0.00235476
0.00202594
0.00050978
0.395204
0.314525
0.247819
0.222437
0.207374
0.190709
0.176212
0.16643
0.160204