/*--------------------------------*- C++ -*----------------------------------*\
| =========                 |                                                 |
| \\      /  F ield         | OpenFOAM: The Open Source CFD Toolbox           |
|  \\    /   O peration     | Version:  2.4.0                                 |
|   \\  /    A nd           | Web:      www.OpenFOAM.org                      |
|    \\/     M anipulation  |                                                 |
\*---------------------------------------------------------------------------*/
FoamFile
{
    version     2.0;
    format      ascii;
    class       volScalarField;
    location    "0.79";
    object      nut;
}
// * * * * * * * * * * * * * * * * * * * * * * * * * * * * * * * * * * * * * //

dimensions      [0 2 -1 0 0 0 0];

internalField   nonuniform List<scalar> 
6000
(
2.40581e-05
2.70589e-05
2.95827e-05
3.16182e-05
3.31908e-05
3.4349e-05
3.51522e-05
3.56632e-05
3.59428e-05
3.60457e-05
3.60189e-05
3.59013e-05
3.57236e-05
3.55096e-05
3.52774e-05
3.50399e-05
3.48065e-05
3.45833e-05
3.43744e-05
3.41818e-05
3.40064e-05
3.3848e-05
3.37058e-05
3.35785e-05
3.34644e-05
3.33617e-05
3.32685e-05
3.31829e-05
3.31033e-05
3.3028e-05
3.29557e-05
3.28853e-05
3.28158e-05
3.27466e-05
3.26772e-05
3.26074e-05
3.2537e-05
3.24656e-05
3.23931e-05
3.23191e-05
3.22432e-05
3.21645e-05
3.20821e-05
3.19948e-05
3.19007e-05
3.17976e-05
3.16826e-05
3.15516e-05
3.13998e-05
3.12204e-05
3.1005e-05
3.07423e-05
3.04176e-05
3.00109e-05
2.94975e-05
2.88404e-05
2.80102e-05
2.69222e-05
2.57077e-05
2.39367e-05
4.52336e-05
3.94809e-05
3.46735e-05
3.09934e-05
2.83843e-05
2.66578e-05
2.56033e-05
2.50492e-05
2.48725e-05
2.49878e-05
2.53361e-05
2.58759e-05
2.65767e-05
2.74152e-05
2.83717e-05
2.94286e-05
3.05691e-05
3.17764e-05
3.30334e-05
3.43229e-05
3.56277e-05
3.69308e-05
3.82163e-05
3.94695e-05
4.06775e-05
4.18298e-05
4.29183e-05
4.39373e-05
4.48843e-05
4.57589e-05
4.65631e-05
4.73006e-05
4.79762e-05
4.85957e-05
4.91647e-05
4.96887e-05
5.01725e-05
5.06205e-05
5.1036e-05
5.14217e-05
5.178e-05
5.21125e-05
5.24207e-05
5.27056e-05
5.29683e-05
5.321e-05
5.34322e-05
5.36373e-05
5.38288e-05
5.40128e-05
5.41993e-05
5.44048e-05
5.46562e-05
5.4999e-05
5.55068e-05
5.63057e-05
5.75995e-05
5.97267e-05
6.2947e-05
7.12479e-05
4.98371e-05
4.86949e-05
4.7185e-05
4.5293e-05
4.30833e-05
4.06954e-05
3.82785e-05
3.59526e-05
3.37986e-05
3.18622e-05
3.01626e-05
2.8702e-05
2.74736e-05
2.64664e-05
2.56684e-05
2.5068e-05
2.46546e-05
2.44188e-05
2.43521e-05
2.44467e-05
2.46951e-05
2.50897e-05
2.56224e-05
2.62848e-05
2.70673e-05
2.79596e-05
2.89503e-05
3.00272e-05
3.11774e-05
3.23874e-05
3.36437e-05
3.49328e-05
3.62419e-05
3.75588e-05
3.88725e-05
4.01728e-05
4.14509e-05
4.26989e-05
4.39099e-05
4.50779e-05
4.61977e-05
4.72647e-05
4.82749e-05
4.92244e-05
5.01099e-05
5.09279e-05
5.16746e-05
5.23464e-05
5.29392e-05
5.34491e-05
5.38728e-05
5.42094e-05
5.44632e-05
5.46518e-05
5.48171e-05
5.50609e-05
5.55791e-05
5.68562e-05
5.94528e-05
6.72569e-05
5.00841e-05
4.95483e-05
4.89992e-05
4.84047e-05
4.7734e-05
4.69673e-05
4.60975e-05
4.51293e-05
4.40764e-05
4.29588e-05
4.1798e-05
4.06146e-05
3.94269e-05
3.82496e-05
3.70946e-05
3.59715e-05
3.48877e-05
3.38496e-05
3.28631e-05
3.19336e-05
3.10669e-05
3.02691e-05
2.95463e-05
2.8905e-05
2.83516e-05
2.78921e-05
2.75319e-05
2.72757e-05
2.7127e-05
2.70878e-05
2.7159e-05
2.73398e-05
2.76279e-05
2.80198e-05
2.85103e-05
2.90932e-05
2.9761e-05
3.05055e-05
3.13172e-05
3.21864e-05
3.31026e-05
3.4055e-05
3.50328e-05
3.60254e-05
3.70226e-05
3.80147e-05
3.89932e-05
3.99505e-05
4.08804e-05
4.17784e-05
4.26417e-05
4.34702e-05
4.42672e-05
4.50423e-05
4.58158e-05
4.66358e-05
4.75937e-05
4.89797e-05
5.12072e-05
5.68644e-05
5.00958e-05
4.96032e-05
4.91474e-05
4.87183e-05
4.83056e-05
4.7899e-05
4.74892e-05
4.70678e-05
4.66287e-05
4.61673e-05
4.56816e-05
4.51709e-05
4.46362e-05
4.40793e-05
4.35024e-05
4.29084e-05
4.22996e-05
4.16789e-05
4.10484e-05
4.04105e-05
3.97669e-05
3.91197e-05
3.84705e-05
3.78211e-05
3.71736e-05
3.65301e-05
3.5893e-05
3.52653e-05
3.46503e-05
3.4052e-05
3.34747e-05
3.29234e-05
3.24034e-05
3.192e-05
3.14787e-05
3.10847e-05
3.07426e-05
3.04565e-05
3.02291e-05
3.00626e-05
2.99576e-05
2.99137e-05
2.99295e-05
3.00023e-05
3.0129e-05
3.0306e-05
3.05297e-05
3.07974e-05
3.11076e-05
3.14609e-05
3.18618e-05
3.23195e-05
3.28505e-05
3.34815e-05
3.42528e-05
3.52264e-05
3.6492e-05
3.82302e-05
4.0714e-05
4.52754e-05
5.00963e-05
4.96062e-05
4.91573e-05
4.87436e-05
4.83595e-05
4.80003e-05
4.76612e-05
4.73381e-05
4.70267e-05
4.67236e-05
4.64253e-05
4.61292e-05
4.58328e-05
4.55343e-05
4.52321e-05
4.49252e-05
4.46128e-05
4.42943e-05
4.39695e-05
4.36382e-05
4.33004e-05
4.29561e-05
4.26056e-05
4.2249e-05
4.18865e-05
4.15183e-05
4.11447e-05
4.07659e-05
4.03822e-05
3.99937e-05
3.96009e-05
3.92041e-05
3.88037e-05
3.84002e-05
3.79944e-05
3.75869e-05
3.71786e-05
3.67705e-05
3.63633e-05
3.5958e-05
3.55553e-05
3.51554e-05
3.47584e-05
3.43635e-05
3.39694e-05
3.35735e-05
3.31726e-05
3.27624e-05
3.23378e-05
3.18943e-05
3.14289e-05
3.09431e-05
3.04479e-05
2.99713e-05
2.95683e-05
2.93388e-05
2.94333e-05
3.01059e-05
3.1665e-05
3.49343e-05
5.00962e-05
4.96062e-05
4.91577e-05
4.8745e-05
4.83636e-05
4.80093e-05
4.7679e-05
4.73694e-05
4.70779e-05
4.68021e-05
4.65397e-05
4.62889e-05
4.60476e-05
4.58144e-05
4.55877e-05
4.53662e-05
4.51486e-05
4.4934e-05
4.47215e-05
4.45102e-05
4.42995e-05
4.40887e-05
4.38775e-05
4.36653e-05
4.3452e-05
4.32371e-05
4.30205e-05
4.2802e-05
4.25816e-05
4.2359e-05
4.21343e-05
4.19074e-05
4.16782e-05
4.14468e-05
4.12131e-05
4.0977e-05
4.07385e-05
4.04975e-05
4.02539e-05
4.00072e-05
3.9757e-05
3.95026e-05
3.92429e-05
3.89759e-05
3.86992e-05
3.84088e-05
3.8099e-05
3.77614e-05
3.73838e-05
3.69486e-05
3.64312e-05
3.57973e-05
3.50022e-05
3.39943e-05
3.2728e-05
3.12078e-05
2.9536e-05
2.80767e-05
2.72784e-05
2.82205e-05
5.00962e-05
4.96061e-05
4.91575e-05
4.87448e-05
4.83634e-05
4.80095e-05
4.76799e-05
4.73719e-05
4.70829e-05
4.6811e-05
4.65544e-05
4.63113e-05
4.60804e-05
4.58603e-05
4.565e-05
4.54483e-05
4.52542e-05
4.50669e-05
4.48856e-05
4.47096e-05
4.45381e-05
4.43705e-05
4.42063e-05
4.4045e-05
4.38862e-05
4.37293e-05
4.35742e-05
4.34204e-05
4.32676e-05
4.31157e-05
4.29644e-05
4.28136e-05
4.26631e-05
4.25127e-05
4.23624e-05
4.2212e-05
4.20616e-05
4.19111e-05
4.17604e-05
4.16094e-05
4.14582e-05
4.13065e-05
4.11541e-05
4.10007e-05
4.08456e-05
4.06877e-05
4.05251e-05
4.03546e-05
4.01711e-05
3.99661e-05
3.97252e-05
3.9424e-05
3.90208e-05
3.84438e-05
3.7572e-05
3.62229e-05
3.41598e-05
3.13615e-05
2.808e-05
2.60349e-05
5.00962e-05
4.9606e-05
4.91573e-05
4.87444e-05
4.8363e-05
4.8009e-05
4.76794e-05
4.73714e-05
4.70827e-05
4.68112e-05
4.65552e-05
4.63133e-05
4.6084e-05
4.58662e-05
4.56588e-05
4.5461e-05
4.52719e-05
4.50907e-05
4.49167e-05
4.47493e-05
4.45879e-05
4.44321e-05
4.42812e-05
4.41349e-05
4.39927e-05
4.38543e-05
4.37194e-05
4.35875e-05
4.34584e-05
4.33319e-05
4.32076e-05
4.30854e-05
4.29651e-05
4.28464e-05
4.27293e-05
4.26136e-05
4.24992e-05
4.23861e-05
4.22742e-05
4.21635e-05
4.20542e-05
4.19462e-05
4.18399e-05
4.17354e-05
4.1633e-05
4.15328e-05
4.14351e-05
4.13396e-05
4.12457e-05
4.11518e-05
4.10545e-05
4.09463e-05
4.08123e-05
4.06212e-05
4.03052e-05
3.97201e-05
3.85555e-05
3.6338e-05
3.23905e-05
2.79408e-05
5.00962e-05
4.96059e-05
4.91571e-05
4.87442e-05
4.83626e-05
4.80085e-05
4.76788e-05
4.73707e-05
4.70819e-05
4.68104e-05
4.65545e-05
4.63126e-05
4.60835e-05
4.5866e-05
4.56591e-05
4.54619e-05
4.52736e-05
4.50936e-05
4.49211e-05
4.47555e-05
4.45964e-05
4.44433e-05
4.42957e-05
4.41533e-05
4.40156e-05
4.38823e-05
4.37531e-05
4.36278e-05
4.35059e-05
4.33874e-05
4.32719e-05
4.31593e-05
4.30493e-05
4.29418e-05
4.28366e-05
4.27336e-05
4.26327e-05
4.25338e-05
4.2437e-05
4.23421e-05
4.22494e-05
4.21591e-05
4.20714e-05
4.19868e-05
4.19058e-05
4.18292e-05
4.17577e-05
4.16923e-05
4.1634e-05
4.15838e-05
4.15424e-05
4.15099e-05
4.14846e-05
4.14595e-05
4.1414e-05
4.129e-05
4.09186e-05
3.99005e-05
3.71887e-05
3.23984e-05
5.00962e-05
4.96059e-05
4.9157e-05
4.8744e-05
4.83623e-05
4.80081e-05
4.76783e-05
4.73702e-05
4.70813e-05
4.68097e-05
4.65537e-05
4.63117e-05
4.60826e-05
4.58651e-05
4.56582e-05
4.54611e-05
4.52729e-05
4.5093e-05
4.49207e-05
4.47555e-05
4.45968e-05
4.44443e-05
4.42974e-05
4.41558e-05
4.40191e-05
4.38871e-05
4.37594e-05
4.36358e-05
4.35159e-05
4.33996e-05
4.32867e-05
4.31769e-05
4.30702e-05
4.29662e-05
4.28649e-05
4.27661e-05
4.26698e-05
4.25758e-05
4.24843e-05
4.23952e-05
4.23087e-05
4.2225e-05
4.21446e-05
4.20678e-05
4.19954e-05
4.19282e-05
4.18674e-05
4.18143e-05
4.17705e-05
4.17379e-05
4.17188e-05
4.17159e-05
4.17323e-05
4.17705e-05
4.183e-05
4.18986e-05
4.19143e-05
4.16819e-05
4.04571e-05
3.7108e-05
5.00962e-05
4.96058e-05
4.91569e-05
4.87438e-05
4.8362e-05
4.80078e-05
4.76779e-05
4.73697e-05
4.70807e-05
4.6809e-05
4.65529e-05
4.63109e-05
4.60817e-05
4.58642e-05
4.56573e-05
4.54601e-05
4.52719e-05
4.5092e-05
4.49197e-05
4.47545e-05
4.45959e-05
4.44434e-05
4.42966e-05
4.41552e-05
4.40187e-05
4.3887e-05
4.37596e-05
4.36363e-05
4.35169e-05
4.34012e-05
4.3289e-05
4.318e-05
4.3074e-05
4.29711e-05
4.28709e-05
4.27734e-05
4.26784e-05
4.25861e-05
4.24963e-05
4.24091e-05
4.23247e-05
4.22434e-05
4.21655e-05
4.20916e-05
4.20224e-05
4.19589e-05
4.19023e-05
4.18541e-05
4.18162e-05
4.17909e-05
4.1781e-05
4.17901e-05
4.18231e-05
4.18859e-05
4.19855e-05
4.21275e-05
4.23e-05
4.24351e-05
4.21448e-05
4.04945e-05
5.00962e-05
4.96058e-05
4.91568e-05
4.87436e-05
4.83618e-05
4.80075e-05
4.76776e-05
4.73692e-05
4.70802e-05
4.68085e-05
4.65523e-05
4.63103e-05
4.6081e-05
4.58634e-05
4.56564e-05
4.54592e-05
4.5271e-05
4.5091e-05
4.49187e-05
4.47535e-05
4.45949e-05
4.44424e-05
4.42956e-05
4.41542e-05
4.40177e-05
4.3886e-05
4.37586e-05
4.36354e-05
4.35161e-05
4.34005e-05
4.32884e-05
4.31796e-05
4.30739e-05
4.29711e-05
4.28712e-05
4.2774e-05
4.26795e-05
4.25876e-05
4.24983e-05
4.24117e-05
4.2328e-05
4.22474e-05
4.21704e-05
4.20975e-05
4.20294e-05
4.19673e-05
4.19123e-05
4.1866e-05
4.18304e-05
4.1808e-05
4.18018e-05
4.1816e-05
4.18557e-05
4.19283e-05
4.20434e-05
4.22129e-05
4.24447e-05
4.27294e-05
4.28949e-05
4.24028e-05
5.00962e-05
4.96058e-05
4.91567e-05
4.87435e-05
4.83616e-05
4.80073e-05
4.76773e-05
4.73689e-05
4.70798e-05
4.6808e-05
4.65518e-05
4.63097e-05
4.60804e-05
4.58627e-05
4.56557e-05
4.54585e-05
4.52702e-05
4.50902e-05
4.49179e-05
4.47526e-05
4.4594e-05
4.44414e-05
4.42946e-05
4.41532e-05
4.40167e-05
4.3885e-05
4.37576e-05
4.36344e-05
4.35151e-05
4.33995e-05
4.32874e-05
4.31786e-05
4.30729e-05
4.29702e-05
4.28703e-05
4.27732e-05
4.26788e-05
4.2587e-05
4.24978e-05
4.24114e-05
4.23279e-05
4.22475e-05
4.21708e-05
4.20982e-05
4.20306e-05
4.19689e-05
4.19145e-05
4.1869e-05
4.18344e-05
4.18131e-05
4.18085e-05
4.18246e-05
4.18671e-05
4.19435e-05
4.20643e-05
4.22437e-05
4.24966e-05
4.28365e-05
4.31979e-05
4.33253e-05
5.00962e-05
4.96058e-05
4.91567e-05
4.87434e-05
4.83615e-05
4.80071e-05
4.7677e-05
4.73686e-05
4.70794e-05
4.68076e-05
4.65513e-05
4.63092e-05
4.60798e-05
4.58621e-05
4.56551e-05
4.54578e-05
4.52695e-05
4.50895e-05
4.49171e-05
4.47519e-05
4.45932e-05
4.44406e-05
4.42938e-05
4.41523e-05
4.40158e-05
4.3884e-05
4.37567e-05
4.36334e-05
4.35141e-05
4.33985e-05
4.32864e-05
4.31776e-05
4.30719e-05
4.29692e-05
4.28693e-05
4.27722e-05
4.26778e-05
4.2586e-05
4.24969e-05
4.24105e-05
4.2327e-05
4.22468e-05
4.21701e-05
4.20977e-05
4.20302e-05
4.19688e-05
4.19146e-05
4.18694e-05
4.18352e-05
4.18145e-05
4.18105e-05
4.18275e-05
4.1871e-05
4.19488e-05
4.20715e-05
4.22537e-05
4.25127e-05
4.28698e-05
4.33069e-05
4.37222e-05
5.00962e-05
4.96058e-05
4.91566e-05
4.87433e-05
4.83614e-05
4.80069e-05
4.76768e-05
4.73683e-05
4.70791e-05
4.68072e-05
4.6551e-05
4.63088e-05
4.60794e-05
4.58616e-05
4.56546e-05
4.54573e-05
4.52689e-05
4.50889e-05
4.49165e-05
4.47512e-05
4.45925e-05
4.44399e-05
4.42931e-05
4.41516e-05
4.40151e-05
4.38833e-05
4.37559e-05
4.36326e-05
4.35133e-05
4.33977e-05
4.32855e-05
4.31767e-05
4.3071e-05
4.29683e-05
4.28684e-05
4.27713e-05
4.26769e-05
4.25851e-05
4.2496e-05
4.24096e-05
4.23261e-05
4.22459e-05
4.21693e-05
4.20969e-05
4.20295e-05
4.19682e-05
4.19143e-05
4.18693e-05
4.18353e-05
4.18149e-05
4.18112e-05
4.18286e-05
4.18725e-05
4.19508e-05
4.20738e-05
4.22561e-05
4.25154e-05
4.28746e-05
4.33356e-05
4.38691e-05
5.00962e-05
4.96057e-05
4.91566e-05
4.87433e-05
4.83613e-05
4.80068e-05
4.76766e-05
4.73681e-05
4.70789e-05
4.68069e-05
4.65506e-05
4.63084e-05
4.6079e-05
4.58612e-05
4.56541e-05
4.54568e-05
4.52684e-05
4.50884e-05
4.49159e-05
4.47506e-05
4.45919e-05
4.44393e-05
4.42924e-05
4.41509e-05
4.40144e-05
4.38826e-05
4.37552e-05
4.36319e-05
4.35126e-05
4.33969e-05
4.32848e-05
4.31759e-05
4.30702e-05
4.29675e-05
4.28676e-05
4.27705e-05
4.2676e-05
4.25843e-05
4.24951e-05
4.24088e-05
4.23253e-05
4.22451e-05
4.21686e-05
4.20962e-05
4.20289e-05
4.19677e-05
4.19139e-05
4.1869e-05
4.18352e-05
4.1815e-05
4.18116e-05
4.18292e-05
4.18734e-05
4.19517e-05
4.20745e-05
4.22558e-05
4.25133e-05
4.28691e-05
4.33327e-05
4.39051e-05
5.00962e-05
4.96057e-05
4.91566e-05
4.87432e-05
4.83612e-05
4.80067e-05
4.76765e-05
4.73679e-05
4.70786e-05
4.68067e-05
4.65503e-05
4.63081e-05
4.60786e-05
4.58608e-05
4.56537e-05
4.54564e-05
4.5268e-05
4.50879e-05
4.49155e-05
4.47501e-05
4.45914e-05
4.44388e-05
4.42919e-05
4.41504e-05
4.40138e-05
4.3882e-05
4.37546e-05
4.36313e-05
4.3512e-05
4.33963e-05
4.32841e-05
4.31753e-05
4.30695e-05
4.29668e-05
4.28669e-05
4.27698e-05
4.26754e-05
4.25836e-05
4.24945e-05
4.24081e-05
4.23247e-05
4.22445e-05
4.2168e-05
4.20957e-05
4.20285e-05
4.19673e-05
4.19136e-05
4.18689e-05
4.18353e-05
4.18153e-05
4.18121e-05
4.18298e-05
4.18741e-05
4.19523e-05
4.20747e-05
4.22549e-05
4.25098e-05
4.28605e-05
4.33186e-05
4.38956e-05
5.00961e-05
4.96057e-05
4.91565e-05
4.87432e-05
4.83611e-05
4.80065e-05
4.76763e-05
4.73677e-05
4.70784e-05
4.68065e-05
4.65501e-05
4.63078e-05
4.60783e-05
4.58605e-05
4.56534e-05
4.5456e-05
4.52676e-05
4.50875e-05
4.49151e-05
4.47497e-05
4.4591e-05
4.44383e-05
4.42914e-05
4.41499e-05
4.40134e-05
4.38815e-05
4.37541e-05
4.36308e-05
4.35114e-05
4.33958e-05
4.32836e-05
4.31747e-05
4.3069e-05
4.29662e-05
4.28664e-05
4.27692e-05
4.26748e-05
4.2583e-05
4.24939e-05
4.24076e-05
4.23242e-05
4.2244e-05
4.21675e-05
4.20953e-05
4.20281e-05
4.19671e-05
4.19135e-05
4.18689e-05
4.18354e-05
4.18156e-05
4.18126e-05
4.18305e-05
4.18749e-05
4.1953e-05
4.2075e-05
4.2254e-05
4.25063e-05
4.28516e-05
4.33018e-05
4.38698e-05
5.00961e-05
4.96057e-05
4.91565e-05
4.87431e-05
4.8361e-05
4.80065e-05
4.76762e-05
4.73676e-05
4.70783e-05
4.68063e-05
4.65499e-05
4.63076e-05
4.60781e-05
4.58603e-05
4.56531e-05
4.54557e-05
4.52673e-05
4.50872e-05
4.49147e-05
4.47494e-05
4.45906e-05
4.4438e-05
4.42911e-05
4.41495e-05
4.4013e-05
4.38811e-05
4.37537e-05
4.36304e-05
4.3511e-05
4.33953e-05
4.32831e-05
4.31743e-05
4.30685e-05
4.29658e-05
4.28659e-05
4.27688e-05
4.26743e-05
4.25825e-05
4.24934e-05
4.24071e-05
4.23237e-05
4.22436e-05
4.21672e-05
4.2095e-05
4.20279e-05
4.19669e-05
4.19134e-05
4.1869e-05
4.18357e-05
4.1816e-05
4.18132e-05
4.18312e-05
4.18757e-05
4.19538e-05
4.20753e-05
4.22532e-05
4.25033e-05
4.28437e-05
4.32855e-05
4.38404e-05
5.00961e-05
4.96057e-05
4.91565e-05
4.87431e-05
4.8361e-05
4.80064e-05
4.76761e-05
4.73675e-05
4.70781e-05
4.68061e-05
4.65497e-05
4.63074e-05
4.60779e-05
4.58601e-05
4.56529e-05
4.54555e-05
4.52671e-05
4.50869e-05
4.49145e-05
4.47491e-05
4.45903e-05
4.44377e-05
4.42908e-05
4.41492e-05
4.40126e-05
4.38808e-05
4.37533e-05
4.363e-05
4.35107e-05
4.3395e-05
4.32828e-05
4.31739e-05
4.30682e-05
4.29654e-05
4.28655e-05
4.27684e-05
4.2674e-05
4.25822e-05
4.24931e-05
4.24068e-05
4.23234e-05
4.22433e-05
4.21669e-05
4.20948e-05
4.20278e-05
4.19669e-05
4.19135e-05
4.18692e-05
4.1836e-05
4.18165e-05
4.18138e-05
4.18321e-05
4.18766e-05
4.19547e-05
4.20759e-05
4.22529e-05
4.25009e-05
4.2837e-05
4.32714e-05
4.38128e-05
5.00961e-05
4.96057e-05
4.91565e-05
4.87431e-05
4.83609e-05
4.80063e-05
4.76761e-05
4.73674e-05
4.7078e-05
4.6806e-05
4.65496e-05
4.63073e-05
4.60777e-05
4.58599e-05
4.56527e-05
4.54553e-05
4.52669e-05
4.50867e-05
4.49143e-05
4.47489e-05
4.45901e-05
4.44374e-05
4.42905e-05
4.41489e-05
4.40124e-05
4.38805e-05
4.37531e-05
4.36298e-05
4.35104e-05
4.33947e-05
4.32825e-05
4.31736e-05
4.30679e-05
4.29651e-05
4.28652e-05
4.27681e-05
4.26737e-05
4.25819e-05
4.24928e-05
4.24065e-05
4.23232e-05
4.22431e-05
4.21668e-05
4.20947e-05
4.20278e-05
4.1967e-05
4.19137e-05
4.18695e-05
4.18365e-05
4.18171e-05
4.18146e-05
4.1833e-05
4.18776e-05
4.19557e-05
4.20766e-05
4.22528e-05
4.24992e-05
4.28317e-05
4.32597e-05
4.37893e-05
5.00961e-05
4.96057e-05
4.91565e-05
4.87431e-05
4.83609e-05
4.80063e-05
4.7676e-05
4.73673e-05
4.7078e-05
4.68059e-05
4.65495e-05
4.63072e-05
4.60776e-05
4.58598e-05
4.56526e-05
4.54552e-05
4.52667e-05
4.50866e-05
4.49141e-05
4.47487e-05
4.45899e-05
4.44373e-05
4.42903e-05
4.41488e-05
4.40122e-05
4.38803e-05
4.37529e-05
4.36296e-05
4.35102e-05
4.33945e-05
4.32823e-05
4.31734e-05
4.30677e-05
4.29649e-05
4.2865e-05
4.27679e-05
4.26735e-05
4.25817e-05
4.24927e-05
4.24064e-05
4.23231e-05
4.2243e-05
4.21667e-05
4.20947e-05
4.20278e-05
4.19671e-05
4.19139e-05
4.18699e-05
4.1837e-05
4.18178e-05
4.18154e-05
4.1834e-05
4.18787e-05
4.19568e-05
4.20775e-05
4.22532e-05
4.24982e-05
4.2828e-05
4.32509e-05
4.37705e-05
5.00961e-05
4.96057e-05
4.91565e-05
4.8743e-05
4.83609e-05
4.80063e-05
4.7676e-05
4.73673e-05
4.70779e-05
4.68059e-05
4.65494e-05
4.63071e-05
4.60776e-05
4.58597e-05
4.56525e-05
4.54551e-05
4.52666e-05
4.50865e-05
4.4914e-05
4.47486e-05
4.45898e-05
4.44372e-05
4.42902e-05
4.41486e-05
4.40121e-05
4.38802e-05
4.37527e-05
4.36294e-05
4.35101e-05
4.33944e-05
4.32822e-05
4.31733e-05
4.30675e-05
4.29648e-05
4.28649e-05
4.27678e-05
4.26734e-05
4.25816e-05
4.24926e-05
4.24063e-05
4.2323e-05
4.2243e-05
4.21668e-05
4.20948e-05
4.2028e-05
4.19674e-05
4.19143e-05
4.18703e-05
4.18376e-05
4.18185e-05
4.18163e-05
4.1835e-05
4.18799e-05
4.19579e-05
4.20786e-05
4.22539e-05
4.24981e-05
4.28259e-05
4.3245e-05
4.37569e-05
5.00961e-05
4.96057e-05
4.91565e-05
4.8743e-05
4.83609e-05
4.80063e-05
4.7676e-05
4.73673e-05
4.70779e-05
4.68058e-05
4.65494e-05
4.63071e-05
4.60775e-05
4.58597e-05
4.56525e-05
4.5455e-05
4.52666e-05
4.50864e-05
4.49139e-05
4.47486e-05
4.45898e-05
4.44371e-05
4.42902e-05
4.41486e-05
4.4012e-05
4.38801e-05
4.37527e-05
4.36294e-05
4.351e-05
4.33943e-05
4.32821e-05
4.31732e-05
4.30675e-05
4.29647e-05
4.28649e-05
4.27678e-05
4.26734e-05
4.25816e-05
4.24926e-05
4.24063e-05
4.23231e-05
4.22431e-05
4.21669e-05
4.2095e-05
4.20282e-05
4.19677e-05
4.19147e-05
4.18709e-05
4.18382e-05
4.18193e-05
4.18173e-05
4.18361e-05
4.18811e-05
4.19592e-05
4.20798e-05
4.2255e-05
4.24986e-05
4.28253e-05
4.32419e-05
4.37486e-05
5.00961e-05
4.96057e-05
4.91565e-05
4.8743e-05
4.83609e-05
4.80063e-05
4.7676e-05
4.73673e-05
4.70779e-05
4.68058e-05
4.65494e-05
4.63071e-05
4.60775e-05
4.58597e-05
4.56525e-05
4.5455e-05
4.52666e-05
4.50864e-05
4.49139e-05
4.47486e-05
4.45898e-05
4.44371e-05
4.42902e-05
4.41486e-05
4.4012e-05
4.38801e-05
4.37527e-05
4.36294e-05
4.351e-05
4.33943e-05
4.32821e-05
4.31732e-05
4.30675e-05
4.29648e-05
4.28649e-05
4.27678e-05
4.26734e-05
4.25817e-05
4.24927e-05
4.24065e-05
4.23232e-05
4.22433e-05
4.21671e-05
4.20952e-05
4.20286e-05
4.19681e-05
4.19152e-05
4.18715e-05
4.1839e-05
4.18202e-05
4.18183e-05
4.18372e-05
4.18823e-05
4.19606e-05
4.20813e-05
4.22564e-05
4.25e-05
4.28263e-05
4.32418e-05
4.37455e-05
5.00961e-05
4.96057e-05
4.91565e-05
4.8743e-05
4.83609e-05
4.80063e-05
4.7676e-05
4.73673e-05
4.70779e-05
4.68059e-05
4.65494e-05
4.63071e-05
4.60776e-05
4.58597e-05
4.56525e-05
4.54551e-05
4.52666e-05
4.50865e-05
4.4914e-05
4.47486e-05
4.45898e-05
4.44372e-05
4.42902e-05
4.41486e-05
4.40121e-05
4.38802e-05
4.37528e-05
4.36295e-05
4.35101e-05
4.33944e-05
4.32822e-05
4.31733e-05
4.30676e-05
4.29649e-05
4.2865e-05
4.27679e-05
4.26735e-05
4.25818e-05
4.24928e-05
4.24066e-05
4.23234e-05
4.22435e-05
4.21674e-05
4.20956e-05
4.2029e-05
4.19686e-05
4.19157e-05
4.18721e-05
4.18397e-05
4.18211e-05
4.18193e-05
4.18384e-05
4.18837e-05
4.1962e-05
4.20829e-05
4.22582e-05
4.25021e-05
4.28289e-05
4.32448e-05
4.37478e-05
5.00961e-05
4.96057e-05
4.91565e-05
4.87431e-05
4.83609e-05
4.80063e-05
4.7676e-05
4.73673e-05
4.7078e-05
4.68059e-05
4.65495e-05
4.63072e-05
4.60776e-05
4.58598e-05
4.56526e-05
4.54552e-05
4.52667e-05
4.50866e-05
4.49141e-05
4.47487e-05
4.45899e-05
4.44373e-05
4.42903e-05
4.41488e-05
4.40122e-05
4.38803e-05
4.37529e-05
4.36296e-05
4.35102e-05
4.33945e-05
4.32824e-05
4.31735e-05
4.30678e-05
4.2965e-05
4.28652e-05
4.27681e-05
4.26737e-05
4.25821e-05
4.24931e-05
4.24069e-05
4.23237e-05
4.22439e-05
4.21678e-05
4.2096e-05
4.20294e-05
4.19691e-05
4.19164e-05
4.18729e-05
4.18406e-05
4.18221e-05
4.18204e-05
4.18396e-05
4.1885e-05
4.19636e-05
4.20846e-05
4.22603e-05
4.2505e-05
4.28332e-05
4.32509e-05
4.37557e-05
5.00961e-05
4.96057e-05
4.91565e-05
4.87431e-05
4.83609e-05
4.80063e-05
4.76761e-05
4.73674e-05
4.7078e-05
4.6806e-05
4.65496e-05
4.63073e-05
4.60778e-05
4.58599e-05
4.56527e-05
4.54553e-05
4.52669e-05
4.50867e-05
4.49143e-05
4.47489e-05
4.45901e-05
4.44374e-05
4.42905e-05
4.4149e-05
4.40124e-05
4.38805e-05
4.37531e-05
4.36298e-05
4.35104e-05
4.33948e-05
4.32826e-05
4.31737e-05
4.3068e-05
4.29653e-05
4.28655e-05
4.27684e-05
4.2674e-05
4.25824e-05
4.24934e-05
4.24073e-05
4.23241e-05
4.22443e-05
4.21682e-05
4.20965e-05
4.203e-05
4.19698e-05
4.19171e-05
4.18737e-05
4.18415e-05
4.18231e-05
4.18216e-05
4.18409e-05
4.18864e-05
4.19652e-05
4.20865e-05
4.22629e-05
4.25088e-05
4.28391e-05
4.32602e-05
4.37695e-05
5.00961e-05
4.96057e-05
4.91565e-05
4.87431e-05
4.8361e-05
4.80064e-05
4.76761e-05
4.73675e-05
4.70782e-05
4.68061e-05
4.65497e-05
4.63074e-05
4.60779e-05
4.58601e-05
4.56529e-05
4.54555e-05
4.52671e-05
4.50869e-05
4.49145e-05
4.47491e-05
4.45903e-05
4.44377e-05
4.42908e-05
4.41492e-05
4.40127e-05
4.38808e-05
4.37534e-05
4.36301e-05
4.35107e-05
4.33951e-05
4.32829e-05
4.3174e-05
4.30683e-05
4.29656e-05
4.28658e-05
4.27687e-05
4.26744e-05
4.25828e-05
4.24938e-05
4.24077e-05
4.23246e-05
4.22448e-05
4.21688e-05
4.20971e-05
4.20307e-05
4.19705e-05
4.19179e-05
4.18746e-05
4.18425e-05
4.18242e-05
4.18227e-05
4.18422e-05
4.18879e-05
4.19668e-05
4.20886e-05
4.22658e-05
4.25133e-05
4.28469e-05
4.32728e-05
4.37896e-05
5.00961e-05
4.96057e-05
4.91565e-05
4.87431e-05
4.8361e-05
4.80065e-05
4.76762e-05
4.73676e-05
4.70783e-05
4.68063e-05
4.65499e-05
4.63076e-05
4.60781e-05
4.58603e-05
4.56531e-05
4.54557e-05
4.52673e-05
4.50872e-05
4.49147e-05
4.47494e-05
4.45906e-05
4.4438e-05
4.42911e-05
4.41495e-05
4.4013e-05
4.38811e-05
4.37537e-05
4.36304e-05
4.35111e-05
4.33954e-05
4.32833e-05
4.31744e-05
4.30687e-05
4.2966e-05
4.28662e-05
4.27692e-05
4.26749e-05
4.25832e-05
4.24943e-05
4.24082e-05
4.23252e-05
4.22454e-05
4.21694e-05
4.20978e-05
4.20314e-05
4.19713e-05
4.19188e-05
4.18755e-05
4.18435e-05
4.18253e-05
4.1824e-05
4.18436e-05
4.18894e-05
4.19686e-05
4.20908e-05
4.2269e-05
4.25187e-05
4.28565e-05
4.32891e-05
4.38164e-05
5.00961e-05
4.96057e-05
4.91565e-05
4.87432e-05
4.83611e-05
4.80065e-05
4.76763e-05
4.73677e-05
4.70784e-05
4.68065e-05
4.65501e-05
4.63078e-05
4.60783e-05
4.58605e-05
4.56534e-05
4.5456e-05
4.52676e-05
4.50875e-05
4.49151e-05
4.47497e-05
4.4591e-05
4.44384e-05
4.42915e-05
4.41499e-05
4.40134e-05
4.38816e-05
4.37541e-05
4.36309e-05
4.35115e-05
4.33959e-05
4.32837e-05
4.31749e-05
4.30692e-05
4.29665e-05
4.28668e-05
4.27697e-05
4.26754e-05
4.25838e-05
4.24949e-05
4.24089e-05
4.23258e-05
4.22461e-05
4.21701e-05
4.20986e-05
4.20322e-05
4.19722e-05
4.19197e-05
4.18765e-05
4.18446e-05
4.18265e-05
4.18253e-05
4.1845e-05
4.18909e-05
4.19704e-05
4.20932e-05
4.22726e-05
4.25249e-05
4.28681e-05
4.33092e-05
4.38508e-05
5.00962e-05
4.96057e-05
4.91566e-05
4.87432e-05
4.83612e-05
4.80067e-05
4.76765e-05
4.73679e-05
4.70786e-05
4.68067e-05
4.65503e-05
4.63081e-05
4.60786e-05
4.58609e-05
4.56537e-05
4.54564e-05
4.5268e-05
4.50879e-05
4.49155e-05
4.47501e-05
4.45914e-05
4.44388e-05
4.42919e-05
4.41504e-05
4.40139e-05
4.3882e-05
4.37546e-05
4.36314e-05
4.35121e-05
4.33964e-05
4.32843e-05
4.31755e-05
4.30698e-05
4.29672e-05
4.28674e-05
4.27704e-05
4.26761e-05
4.25845e-05
4.24956e-05
4.24096e-05
4.23266e-05
4.22469e-05
4.2171e-05
4.20995e-05
4.20332e-05
4.19732e-05
4.19208e-05
4.18777e-05
4.18458e-05
4.18278e-05
4.18266e-05
4.18464e-05
4.18925e-05
4.19722e-05
4.20957e-05
4.22766e-05
4.2532e-05
4.28818e-05
4.33333e-05
4.38935e-05
5.00962e-05
4.96057e-05
4.91566e-05
4.87433e-05
4.83613e-05
4.80068e-05
4.76766e-05
4.73681e-05
4.70789e-05
4.68069e-05
4.65506e-05
4.63084e-05
4.6079e-05
4.58612e-05
4.56541e-05
4.54568e-05
4.52684e-05
4.50884e-05
4.4916e-05
4.47506e-05
4.45919e-05
4.44393e-05
4.42925e-05
4.41509e-05
4.40144e-05
4.38826e-05
4.37552e-05
4.3632e-05
4.35127e-05
4.33971e-05
4.3285e-05
4.31762e-05
4.30705e-05
4.29679e-05
4.28681e-05
4.27711e-05
4.26769e-05
4.25853e-05
4.24965e-05
4.24105e-05
4.23275e-05
4.22478e-05
4.21719e-05
4.21005e-05
4.20342e-05
4.19743e-05
4.19219e-05
4.18789e-05
4.18471e-05
4.18291e-05
4.1828e-05
4.18479e-05
4.18942e-05
4.19742e-05
4.20983e-05
4.22809e-05
4.254e-05
4.28976e-05
4.33619e-05
4.39458e-05
5.00962e-05
4.96058e-05
4.91566e-05
4.87433e-05
4.83614e-05
4.80069e-05
4.76768e-05
4.73683e-05
4.70791e-05
4.68072e-05
4.6551e-05
4.63088e-05
4.60794e-05
4.58617e-05
4.56546e-05
4.54573e-05
4.52689e-05
4.50889e-05
4.49165e-05
4.47512e-05
4.45925e-05
4.44399e-05
4.42931e-05
4.41516e-05
4.40151e-05
4.38833e-05
4.37559e-05
4.36327e-05
4.35134e-05
4.33978e-05
4.32857e-05
4.31769e-05
4.30713e-05
4.29687e-05
4.2869e-05
4.2772e-05
4.26778e-05
4.25862e-05
4.24974e-05
4.24114e-05
4.23285e-05
4.22489e-05
4.2173e-05
4.21016e-05
4.20354e-05
4.19755e-05
4.19232e-05
4.18802e-05
4.18484e-05
4.18305e-05
4.18295e-05
4.18495e-05
4.18958e-05
4.19761e-05
4.2101e-05
4.22855e-05
4.25488e-05
4.29157e-05
4.33952e-05
4.40091e-05
5.00962e-05
4.96058e-05
4.91567e-05
4.87434e-05
4.83615e-05
4.80071e-05
4.7677e-05
4.73686e-05
4.70794e-05
4.68076e-05
4.65513e-05
4.63092e-05
4.60798e-05
4.58622e-05
4.56551e-05
4.54578e-05
4.52695e-05
4.50895e-05
4.49171e-05
4.47519e-05
4.45932e-05
4.44406e-05
4.42938e-05
4.41523e-05
4.40159e-05
4.38841e-05
4.37568e-05
4.36336e-05
4.35143e-05
4.33987e-05
4.32866e-05
4.31779e-05
4.30723e-05
4.29697e-05
4.28699e-05
4.2773e-05
4.26788e-05
4.25873e-05
4.24985e-05
4.24126e-05
4.23296e-05
4.225e-05
4.21742e-05
4.21028e-05
4.20367e-05
4.19768e-05
4.19245e-05
4.18815e-05
4.18498e-05
4.18319e-05
4.18309e-05
4.18509e-05
4.18974e-05
4.19781e-05
4.21037e-05
4.22904e-05
4.25584e-05
4.29363e-05
4.34336e-05
4.40853e-05
5.00962e-05
4.96058e-05
4.91567e-05
4.87435e-05
4.83616e-05
4.80073e-05
4.76773e-05
4.73689e-05
4.70798e-05
4.6808e-05
4.65518e-05
4.63097e-05
4.60804e-05
4.58627e-05
4.56557e-05
4.54585e-05
4.52702e-05
4.50902e-05
4.49179e-05
4.47526e-05
4.4594e-05
4.44415e-05
4.42947e-05
4.41532e-05
4.40168e-05
4.3885e-05
4.37577e-05
4.36345e-05
4.35153e-05
4.33997e-05
4.32876e-05
4.31789e-05
4.30733e-05
4.29707e-05
4.2871e-05
4.27741e-05
4.26799e-05
4.25884e-05
4.24996e-05
4.24137e-05
4.23307e-05
4.22511e-05
4.21753e-05
4.21039e-05
4.20378e-05
4.19779e-05
4.19256e-05
4.18826e-05
4.18509e-05
4.1833e-05
4.1832e-05
4.1852e-05
4.18986e-05
4.19795e-05
4.21061e-05
4.22951e-05
4.25685e-05
4.29592e-05
4.34774e-05
4.41768e-05
5.00962e-05
4.96058e-05
4.91568e-05
4.87436e-05
4.83618e-05
4.80075e-05
4.76776e-05
4.73692e-05
4.70802e-05
4.68085e-05
4.65523e-05
4.63103e-05
4.6081e-05
4.58634e-05
4.56564e-05
4.54592e-05
4.5271e-05
4.50911e-05
4.49187e-05
4.47535e-05
4.45949e-05
4.44424e-05
4.42956e-05
4.41542e-05
4.40178e-05
4.38861e-05
4.37587e-05
4.36356e-05
4.35163e-05
4.34008e-05
4.32887e-05
4.31799e-05
4.30743e-05
4.29717e-05
4.2872e-05
4.2775e-05
4.26807e-05
4.25892e-05
4.25003e-05
4.24143e-05
4.23312e-05
4.22516e-05
4.21756e-05
4.21041e-05
4.20378e-05
4.19778e-05
4.19254e-05
4.18822e-05
4.18504e-05
4.18324e-05
4.18313e-05
4.18513e-05
4.18979e-05
4.19792e-05
4.21068e-05
4.22984e-05
4.25779e-05
4.29837e-05
4.35264e-05
4.42862e-05
5.00962e-05
4.96058e-05
4.91569e-05
4.87438e-05
4.8362e-05
4.80078e-05
4.76779e-05
4.73697e-05
4.70807e-05
4.6809e-05
4.65529e-05
4.63109e-05
4.60817e-05
4.58642e-05
4.56573e-05
4.54601e-05
4.52719e-05
4.5092e-05
4.49197e-05
4.47545e-05
4.45959e-05
4.44435e-05
4.42967e-05
4.41553e-05
4.40188e-05
4.38871e-05
4.37597e-05
4.36365e-05
4.35171e-05
4.34015e-05
4.32893e-05
4.31804e-05
4.30746e-05
4.29717e-05
4.28717e-05
4.27745e-05
4.26799e-05
4.25879e-05
4.24987e-05
4.24122e-05
4.23288e-05
4.22486e-05
4.21722e-05
4.21002e-05
4.20334e-05
4.19729e-05
4.192e-05
4.18764e-05
4.18441e-05
4.18257e-05
4.18243e-05
4.18442e-05
4.18909e-05
4.19726e-05
4.21013e-05
4.22962e-05
4.25829e-05
4.30066e-05
4.35783e-05
4.44158e-05
5.00962e-05
4.96059e-05
4.9157e-05
4.8744e-05
4.83623e-05
4.80081e-05
4.76783e-05
4.73702e-05
4.70813e-05
4.68097e-05
4.65537e-05
4.63117e-05
4.60826e-05
4.58651e-05
4.56582e-05
4.54611e-05
4.52729e-05
4.5093e-05
4.49207e-05
4.47555e-05
4.45969e-05
4.44443e-05
4.42974e-05
4.41559e-05
4.40192e-05
4.38872e-05
4.37595e-05
4.36359e-05
4.35161e-05
4.33999e-05
4.32871e-05
4.31774e-05
4.30708e-05
4.2967e-05
4.2866e-05
4.27676e-05
4.26717e-05
4.25785e-05
4.24878e-05
4.23998e-05
4.23148e-05
4.2233e-05
4.21551e-05
4.20815e-05
4.20131e-05
4.19511e-05
4.18967e-05
4.18517e-05
4.18182e-05
4.17988e-05
4.17967e-05
4.18162e-05
4.1863e-05
4.19455e-05
4.20763e-05
4.22756e-05
4.25716e-05
4.30178e-05
4.36252e-05
4.45642e-05
5.00962e-05
4.96059e-05
4.91571e-05
4.87442e-05
4.83626e-05
4.80085e-05
4.76788e-05
4.73707e-05
4.70819e-05
4.68104e-05
4.65545e-05
4.63126e-05
4.60835e-05
4.5866e-05
4.56591e-05
4.54619e-05
4.52737e-05
4.50936e-05
4.49211e-05
4.47555e-05
4.45965e-05
4.44434e-05
4.42958e-05
4.41533e-05
4.40157e-05
4.38824e-05
4.37533e-05
4.3628e-05
4.35063e-05
4.33878e-05
4.32725e-05
4.31601e-05
4.30504e-05
4.29432e-05
4.28386e-05
4.27362e-05
4.26362e-05
4.25386e-05
4.24433e-05
4.23507e-05
4.22609e-05
4.21745e-05
4.20919e-05
4.20139e-05
4.19413e-05
4.18752e-05
4.1817e-05
4.17685e-05
4.17321e-05