/*--------------------------------*- C++ -*----------------------------------*\
| =========                 |                                                 |
| \\      /  F ield         | OpenFOAM: The Open Source CFD Toolbox           |
|  \\    /   O peration     | Version:  2.4.0                                 |
|   \\  /    A nd           | Web:      www.OpenFOAM.org                      |
|    \\/     M anipulation  |                                                 |
\*---------------------------------------------------------------------------*/
FoamFile
{
    version     2.0;
    format      ascii;
    class       volScalarField;
    location    "10";
    object      k;
}
// * * * * * * * * * * * * * * * * * * * * * * * * * * * * * * * * * * * * * //

dimensions      [0 2 -2 0 0 0 0];

internalField   nonuniform List<scalar> 
10000
(
0.102869
0.0785676
0.0552986
0.0417651
0.0327289
0.027878
0.0252773
0.0239778
0.0235505
0.0237275
0.0243194
0.0251729
0.0261637
0.0272063
0.0282783
0.0294142
0.030536
0.0314673
0.0319137
0.031239
0.0997097
0.0781614
0.0551083
0.0418611
0.0327954
0.0279085
0.025282
0.0239535
0.0234931
0.0236304
0.0241724
0.0249595
0.025856
0.0267574
0.0276171
0.0284566
0.0292163
0.0297483
0.0298055
0.0290816
0.0935873
0.0760582
0.0543413
0.0413269
0.0325466
0.0275221
0.0248023
0.0233785
0.0228077
0.0228174
0.02321
0.0238197
0.0244994
0.0251253
0.0256265
0.0260086
0.0262319
0.0261752
0.0256766
0.0246412
0.0851678
0.0718836
0.0526518
0.0399469
0.0316469
0.0265386
0.0237247
0.0221842
0.0214641
0.0212945
0.0214769
0.021843
0.0222415
0.0225412
0.0226615
0.0225973
0.0223249
0.0217643
0.0208543
0.0196579
0.0753325
0.0657709
0.049967
0.0378948
0.0301936
0.0250874
0.0222001
0.0205412
0.0196544
0.0192789
0.019222
0.0193193
0.0194245
0.0194125
0.0192048
0.0187912
0.0181622
0.0172854
0.0161771
0.0149725
0.0649165
0.058222
0.046289
0.0352557
0.0282813
0.0232868
0.020366
0.0186053
0.0175574
0.016975
0.01668
0.0165197
0.0163609
0.0160932
0.0156488
0.0150172
0.0142053
0.0132259
0.0121444
0.0111056
0.0546889
0.0499986
0.0418222
0.0321525
0.0260293
0.0212686
0.0183691
0.0165398
0.0153584
0.0145938
0.014091
0.0137151
0.0133511
0.0129081
0.012333
0.0116207
0.0107951
0.00990236
0.00902659
0.00827987
0.0452884
0.0419147
0.0369319
0.0287797
0.0235868
0.0191778
0.0163641
0.0145123
0.0132432
0.0123435
0.011686
0.0111583
0.0106655
0.0101369
0.00953524
0.00886392
0.00815722
0.0074716
0.00687654
0.0064336
0.037174
0.034663
0.03205
0.0253845
0.0211226
0.0171582
0.0144958
0.0126741
0.0113718
0.0103986
0.00965264
0.00904555
0.00850271
0.00797087
0.00742536
0.0068737
0.00634751
0.00589035
0.00554216
0.00532522
0.0305929
0.0286993
0.0275799
0.0222204
0.018804
0.0153329
0.0128755
0.0111335
0.00985115
0.00886395
0.00809152
0.00746823
0.00693658
0.00645556
0.00600639
0.00559307
0.005235
0.00495642
0.00477448
0.00469242
0.0255725
0.0241856
0.0238124
0.0194899
0.0167661
0.0137833
0.0115612
0.0099343
0.00871076
0.00775271
0.00699657
0.00639563
0.00590565
0.00549258
0.00513805
0.00483907
0.00460288
0.00443989
0.00435521
0.00434482
0.0219528
0.021014
0.0208725
0.0172985
0.0150844
0.0125383
0.0105531
0.00905678
0.00791159
0.00700484
0.00628453
0.00571909
0.00527445
0.00492086
0.0046386
0.00441886
0.00426096
0.00416763
0.00413796
0.00416459
0.0194656
0.0189183
0.0187267
0.0156482
0.0137686
0.0115796
0.00980997
0.00844188
0.0073782
0.00652811
0.00584736
0.00531525
0.00490641
0.00459495
0.0043606
0.0041912
0.00408179
0.00403084
0.00403368
0.00408032
0.0178215
0.0176011
0.0172431
0.0144684
0.0127793
0.0108611
0.00927266
0.00801938
0.00703069
0.00623449
0.00558963
0.00508352
0.00469843
0.00441291
0.00420752
0.00406884
0.00398976
0.00396602
0.0039898
0.00404851
0.0167687
0.0168121
0.0162615
0.0136599
0.0120551
0.0103283
0.00888303
0.00772677
0.00680279
0.00605434
0.00544083
0.00495412
0.00458332
0.00431198
0.00412275
0.00400242
0.00394284
0.00393759
0.00397609
0.00404304
0.0161142
0.016368
0.0156387
0.0131276
0.011534
0.00993218
0.00859417
0.00751683
0.00664706
0.00593936
0.00535427
0.00488311
0.00452097
0.0042565
0.00407545
0.0039657
0.00391872
0.00392639
0.0039756
0.00404866
0.0157203
0.0161449
0.0152643
0.0127943
0.0111644
0.00963521
0.00837276
0.00735766
0.00653298
0.00586003
0.00530113
0.00484453
0.00448881
0.00422741
0.00404973
0.00394544
0.00390612
0.00392245
0.00397918
0.00405671
0.0154928
0.0160619
0.0150603
0.012604
0.010909
0.0094119
0.00819798
0.00722993
0.00644253
0.00579953
0.0052654
0.00482401
0.00447475
0.00421492
0.00403781
0.00393532
0.00389968
0.00392082
0.00398212
0.0040625
0.0153687
0.0160679
0.0149743
0.0125179
0.0107421
0.00924659
0.00805833
0.00712324
0.0063661
0.00574882
0.00523852
0.00481388
0.00447235
0.00421412
0.00403601
0.00393254
0.00389704
0.00391943
0.00398233
0.0040637
0.0153058
0.0161305
0.014972
0.0125102
0.0106472
0.00913093
0.0079491
0.00703359
0.00629986
0.00570447
0.00521635
0.00481007
0.00447813
0.00422242
0.00404264
0.003936
0.00389749
0.0039177
0.00397919
0.00405955
0.0152756
0.0162291
0.0150307
0.0125635
0.0106137
0.0090609
0.00786945
0.00696099
0.00624373
0.0056665
0.00519813
0.00481029
0.00449003
0.00423838
0.00405684
0.00394536
0.00390112
0.00391591
0.00397305
0.00405026
0.0152586
0.0163503
0.0151356
0.0126662
0.0106345
0.00903494
0.00782093
0.00690797
0.00619995
0.00563665
0.00518477
0.00481415
0.00450718
0.00426113
0.00407814
0.00396071
0.00390838
0.00391488
0.0039648
0.00403662
0.0152406
0.0164851
0.0152762
0.0128099
0.0107042
0.0090521
0.00780562
0.00687796
0.00617147
0.00561712
0.00517755
0.00482247
0.00452953
0.0042901
0.00410621
0.00398215
0.00391993
0.00391559
0.00395563
0.00401982
0.015211
0.0166265
0.015445
0.0129886
0.0108181
0.00911154
0.00782555
0.00687455
0.00616147
0.00561052
0.00517897
0.00483657
0.00455693
0.00432469
0.00414059
0.00400966
0.00393631
0.00391907
0.00394683
0.00400117
0.0151616
0.0167688
0.0156362
0.0131972
0.0109721
0.00921163
0.00788175
0.0069005
0.00617301
0.00561965
0.00519203
0.00485858
0.00458949
0.00436453
0.00418081
0.00404318
0.00395791
0.00392621
0.00393964
0.00398211
0.0150855
0.0169069
0.0158449
0.0134318
0.011162
0.00935026
0.0079744
0.00695776
0.00620897
0.00564732
0.00521912
0.00488991
0.00462796
0.00440968
0.00422652
0.00408245
0.00398498
0.00393777
0.00393523
0.00396398
0.0149776
0.0170356
0.0160663
0.0136885
0.0113837
0.00952455
0.0081024
0.00704703
0.00627135
0.00569583
0.00526215
0.00493214
0.00467363
0.00446024
0.00427728
0.00412719
0.00401761
0.00395428
0.00393454
0.003948
0.0148332
0.0171497
0.0162962
0.0139637
0.0116336
0.00973142
0.008264
0.00716808
0.00636126
0.00576671
0.00532272
0.00498737
0.0047282
0.00451624
0.00433292
0.00417709
0.00405571
0.00397606
0.0039383
0.00393517
0.0146493
0.0172441
0.0165299
0.014254
0.0119078
0.00996736
0.00845658
0.00731953
0.00647868
0.00586055
0.00540189
0.00505715
0.00479273
0.00457853
0.00439368
0.00423189
0.00409903
0.0040032
0.003947
0.00392636
0.0144234
0.0173132
0.0167626
0.0145558
0.0122027
0.010229
0.00867736
0.00749947
0.0066228
0.00597733
0.00550004
0.00514221
0.00486825
0.0046482
0.00445939
0.00429109
0.00414715
0.00403559
0.00396094
0.00392222
0.0141544
0.0173517
0.0169892
0.0148652
0.0125148
0.010513
0.00892315
0.00770536
0.00679201
0.00611636
0.00561688
0.00524255
0.00495558
0.00472605
0.00453005
0.0043546
0.00419981
0.00407307
0.00398029
0.00392326
0.0138422
0.0173545
0.017204
0.0151784
0.0128406
0.010816
0.00919097
0.00793456
0.00698428
0.00627644
0.00575168
0.00535779
0.00505476
0.00481223
0.0046063
0.00442235
0.0042566
0.00411535
0.00400503
0.00392979
0.013488
0.0173164
0.0174015
0.0154909
0.0131765
0.0111347
0.00947761
0.0081841
0.00719705
0.00645571
0.0059031
0.00548701
0.00516538
0.00490711
0.00468863
0.00449401
0.00431732
0.00416219
0.00403508
0.00394198
0.0130939
0.017233
0.0175757
0.0157983
0.0135189
0.0114662
0.00978019
0.00845121
0.00742777
0.00665207
0.00606948
0.00562874
0.00528653
0.00501056
0.00477733
0.00457031
0.00438209
0.00421344
0.00407033
0.0039599
0.0126634
0.0171004
0.0177206
0.0160954
0.013864
0.011807
0.0100957
0.00873305
0.00767383
0.00686335
0.00624917
0.00578171
0.00541719
0.00512208
0.0048724
0.0046515
0.0044506
0.00426892
0.00411054
0.00398346
0.0122008
0.0169155
0.0178301
0.0163773
0.0142077
0.012154
0.0104213
0.00902707
0.00793285
0.00708746
0.00644063
0.00594472
0.00555637
0.005241
0.00497386
0.00473793
0.00452361
0.00432869
0.00415572
0.00401265
0.0117116
0.0166762
0.0178986
0.0166384
0.0145457
0.0125039
0.0107543
0.00933064
0.00820247
0.00732237
0.00664229
0.00611663
0.00570313
0.00536663
0.00508136
0.00482967
0.00460131
0.00439287
0.00420579
0.00404735
0.0112016
0.0163815
0.0179205
0.0168731
0.0148735
0.012853
0.0110916
0.00964138
0.00848057
0.00756623
0.00685269
0.00629635
0.00585646
0.00549796
0.00519395
0.00492612
0.00468336
0.00446132
0.00426024
0.00408709
0.0106776
0.0160316
0.017891
0.0170758
0.0151863
0.0131978
0.0114304
0.00995674
0.00876497
0.00781715
0.00707026
0.00648262
0.00601528
0.00563371
0.00531037
0.005026
0.00476875
0.00453317
0.00431847
0.00413111
0.0101464
0.0156281
0.017806
0.0172409
0.0154792
0.0135343
0.0117677
0.0102743
0.00905357
0.00807328
0.00729339
0.00667415
0.00617841
0.00577267
0.00542919
0.00512787
0.00485606
0.00460721
0.00437942
0.00417853
0.00961509
0.015174
0.0176621
0.017363
0.0157472
0.0138585
0.0121002
0.0105914
0.00934417
0.00833271
0.00752038
0.00686958
0.00634482
0.00591393
0.00554946
0.00523074
0.00494424
0.00468239
0.00444211
0.00422848
0.00909008
0.0146734
0.0174572
0.0174374
0.0159854
0.0141665
0.0124249
0.0109056
0.00963465
0.00859364
0.00774975
0.00706767
0.00651371
0.00605695
0.00567072
0.00533405
0.00503274
0.00475811
0.00450596
0.00428043
0.00857812
0.0141319
0.0171906
0.0174596
0.0161889
0.0144539
0.0127383
0.0112141
0.00992285
0.00885426
0.00797998
0.00726732
0.00668434
0.00620144
0.00579279
0.0054377
0.00512133
0.00483409
0.00457059
0.004334
0.00808438
0.013556
0.0168626
0.0174261
0.0163531
0.0147168
0.0130372
0.0115145
0.0102067
0.00911286
0.00820968
0.00746741
0.00685596
0.00634704
0.00591577
0.0055419
0.00521028
0.0049105
0.00463603
0.00438905
0.00761415
0.0129535
0.0164754
0.0173343
0.0164741
0.0149511
0.0133183
0.011804
0.010484
0.0093677
0.00843745
0.0076668
0.00702773
0.00649335
0.00603975
0.00564718
0.00530036
0.00498822
0.00470312
0.00444623
0.00717084
0.0123323
0.0160324
0.0171829
0.0165481
0.0151533
0.0135786
0.0120803
0.0107529
0.00961718
0.00866189
0.00786437
0.00719876
0.0066398
0.00616453
0.00575378
0.00539216
0.00506803
0.00477271
0.00450636
0.00675782
0.0117012
0.0155387
0.0169715
0.0165723
0.0153199
0.0138149
0.0123407
0.0110114
0.00985969
0.00888169
0.00805895
0.00736811
0.00678556
0.00628955
0.00586136
0.0054856
0.00515001
0.00484497
0.0045696
0.00637641
0.0110684
0.0150003
0.0167012
0.0165447
0.0154478
0.0140244
0.0125831
0.0112576
0.0100937
0.0090956
0.00824942
0.00753475
0.00692978
0.006414
0.00596925
0.00558016
0.00523382
0.00491965
0.00463576
0.0060279
0.0104424
0.0144244
0.0163741
0.0164641
0.0155347
0.0142047
0.0128051
0.0114898
0.010318
0.00930245
0.00843477
0.00769771
0.00707153
0.006537
0.00607664
0.00567507
0.00531884
0.0049963
0.00470452
0.00571177
0.00983045
0.013819
0.0159939
0.0163301
0.0155785
0.0143533
0.0130049
0.0117063
0.0105311
0.00950119
0.00861407
0.00785609
0.00720987
0.00665758
0.00618249
0.0057693
0.005404
0.00507392
0.00477499
0.00542762
0.00923956
0.0131925
0.015565
0.0161434
0.0155778
0.0144684
0.0131806
0.0119058
0.0107319
0.00969093
0.00878653
0.00800916
0.00734398
0.00677481
0.00628576
0.00586169
0.00548812
0.00515131
0.00484603
0.00517363
0.00867509
0.0125535
0.015093
0.0159058
0.0155321
0.0145484
0.0133306
0.0120868
0.0109195
0.00987089
0.00895155
0.00815638
0.00747337
0.00688818
0.00638589
0.00595167
0.00557056
0.00522784
0.00491699
0.00494829
0.00814189
0.0119107
0.0145845
0.0156198
0.0154412
0.0145922
0.0134535
0.0122482
0.0110928
0.0100404
0.00910871
0.00829746
0.00759787
0.00699759
0.00648286
0.00603923
0.00565138
0.00530355
0.00498793
0.00474909
0.00764306
0.0112721
0.0140464
0.0152891
0.015306
0.0145992
0.0135483
0.012389
0.0112512
0.010199
0.0092577
0.00843233
0.00771753
0.00710321
0.00657691
0.00612466
0.00573085
0.00537868
0.00505901
0.00457403
0.00718112
0.0106457
0.0134866
0.0149182
0.015128
0.0145691
0.0136142
0.0125082
0.0113939
0.0103461
0.00939828
0.0085609
0.00783244
0.00720521
0.00666826
0.00620818
0.00580911
0.00545327
0.00513015
0.00442048
0.00675698
0.0100383
0.0129127
0.0145123
0.0149097
0.0145025
0.0136507
0.0126052
0.0115204
0.0104814
0.00953018
0.00868308
0.00794259
0.00730369
0.00675701
0.00628985
0.00588617
0.00552723
0.00520116
0.00428633
0.00637107
0.00945591
0.0123327
0.0140775
0.014654
0.0144002
0.0136577
0.0126796
0.01163
0.0106044
0.00965317
0.00879876
0.00804796
0.00739862
0.00684315
0.00636963
0.00596191
0.00560038
0.00527182
0.0041691
0.00602238
0.00890322
0.0117541
0.01362
0.0143649
0.014264
0.0136355
0.012731
0.0117224
0.0107149
0.00976705
0.00890782
0.00814851
0.00749002
0.00692668
0.00644748
0.00603626
0.00567253
0.00534184
0.00406687
0.00570959
0.00838387
0.0111836
0.0131463
0.0140464
0.0140958
0.0135847
0.0127594
0.0117973
0.0108124
0.00987156
0.00901014
0.00824417
0.00757784
0.00700751
0.00652323
0.0061089
0.00574328
0.00541072
0.00397758
0.00543044
0.00789986
0.010627
0.0126625
0.013703
0.013898
0.0135061
0.0127647
0.0118544
0.0108967
0.00996642
0.0091055
0.00833482
0.00766199
0.00708556
0.00659675
0.00617961
0.00581229
0.00547803
0.00389965
0.00518255
0.00745224
0.010089
0.0121741
0.013339
0.013673
0.0134007
0.0127471
0.0118933
0.0109673
0.0100512
0.00919361
0.00842032
0.0077425
0.00716102
0.00666832
0.00624872
0.00587981
0.00554384
0.00383144
0.00496301
0.00704074
0.00957326
0.0116863
0.0129588
0.0134236
0.0132698
0.0127068
0.0119138
0.0110237
0.0101255
0.00927403
0.00850025
0.00781901
0.00723357
0.00673769
0.00631597
0.00594556
0.00560784
0.00377168
0.00476912
0.00666455
0.00908237
0.0112035
0.0125669
0.0131527
0.0131147
0.0126441
0.0119157
0.0110656
0.0101887
0.0093462
0.00857399
0.00789069
0.00730213
0.0068035
0.00637992
0.00600824
0.00566911
0.00371912
0.00459804
0.00632218
0.0086182
0.0107299
0.0121672
0.0128636
0.0129374
0.0125599
0.0118991
0.0110926
0.0102406
0.00940979
0.00864122
0.00795728
0.00736646
0.00686559
0.00644043
0.00606774
0.00572763
0.00367281
0.00444731
0.0060119
0.00818197
0.0102688
0.011764
0.0125595
0.0127399
0.0124552
0.0118643
0.0111047
0.0102808
0.00946456
0.00870182
0.00801885
0.00742693
0.00692452
0.00649815
0.00612455
0.00578342
0.0036318
0.00431451
0.00573169
0.00777423
0.00982308
0.011361
0.0122437
0.0125245
0.0123311
0.0118117
0.011102
0.0103093
0.00951029
0.00875562
0.00807532
0.00748341
0.0069801
0.00655274
0.00617819
0.00583593
0.00359539
0.00419755
0.00547944
0.00739502
0.00939506
0.0109615
0.0119196
0.0122934
0.0121889
0.0117419
0.0110843
0.0103256
0.00954656
0.00880216
0.00812615
0.00753532
0.00703166
0.00660344
0.00622788
0.00588438
0.00356293
0.00409451
0.00525291
0.00704388
0.00898636
0.0105685
0.0115901
0.0120493
0.0120303
0.0116554
0.0110519
0.0103296
0.00957297
0.00884096
0.00817087
0.00758221
0.00707876
0.00664983
0.00627317
0.00592836
0.00353391
0.00400366
0.00504975
0.00671962
0.00859768
0.0101842
0.011258
0.0117943
0.0118566
0.0115532
0.0110048
0.0103211
0.00958917
0.00887157
0.00820906
0.0076238
0.00712144
0.00669234
0.00631489
0.00596895
0.0035078
0.00392333
0.00486751
0.00642071
0.0082291
0.00980979
0.0109252
0.0115302
0.0116692
0.0114358
0.0109434
0.0103002
0.009595
0.00889368
0.00824017
0.00765922
0.00715842
0.00672938
0.00635128
0.00600441
0.00348415
0.003852
0.00470384
0.00614528
0.00787999
0.00944606
0.0105931
0.0112585
0.011469
0.0113037
0.0108676
0.0102665
0.00959022
0.00890728
0.00826454
0.00768923
0.00719077
0.00676206
0.00638327
0.00603538
0.00346258
0.00378843
0.0045567
0.00589172
0.00754998
0.00909366
0.010263
0.0109805
0.011257
0.0111574
0.0107776
0.0102198
0.00957423
0.00891162
0.0082814
0.00771309
0.00721787
0.00678989
0.00641038
0.00606124
0.00344285
0.00373163
0.00442434
0.00565846
0.00723846
0.00875309
0.00993633
0.0106979
0.0110347
0.0109979
0.0106739
0.0101603
0.00954697
0.00890625
0.00828988
0.0077296
0.00723833
0.00681159
0.00643175
0.00608177
0.00342477
0.00368079
0.00430529
0.00544426
0.00694518
0.0084251
0.00961458
0.0104127
0.0108039
0.0108267
0.0105575
0.0100887
0.00950902
0.00889168
0.00829048
0.00773924
0.00725267
0.00682774
0.0064481
0.00609788
0.00340817
0.00363522
0.00419817
0.00524782
0.00666966
0.00811017
0.00929907
0.0101264
0.0105661
0.0106448
0.0104291
0.0100054
0.00946052
0.00886813
0.00828358
0.00774254
0.00726139
0.0068386
0.00645924
0.00610884
0.0033929
0.0035943
0.00410182
0.00506797
0.00641149
0.00780871
0.0089909
0.00984058
0.0103229
0.0104535
0.0102892
0.00991041
0.00940116
0.00883511
0.00826869
0.0077391
0.00726417
0.00684382
0.0064647
0.00611392
0.00337882
0.00355749
0.00401507
0.00490338
0.00616996
0.0075209
0.00869102
0.00955675
0.0100757
0.0102541
0.0101391
0.00980468
0.00933154
0.00879274
0.00824549
0.00772828
0.00726033
0.00684301
0.00646456
0.00611371
0.00336579
0.00352432
0.00393694
0.00475296
0.00594451
0.00724688
0.00840037
0.00927643
0.00982659
0.0100486
0.00998068
0.00968981
0.00925302
0.00874219
0.0082149
0.00771076
0.00725035
0.0068365
0.00645913
0.00610865
0.00335372
0.00349434
0.00386649
0.00461549
0.00573431
0.0069865
0.0081195
0.00900083
0.00957694
0.00983835
0.0098149
0.00956654
0.00916617
0.00868396
0.00817753
0.00768726
0.00723497
0.00682487
0.00644869
0.00609865
0.00334249
0.00346717
0.00380287
0.00448988
0.00553855
0.00673951
0.00784873
0.00873072
0.00932779
0.00962437
0.00964258
0.0094354
0.00907123
0.00861812
0.00813331
0.00765769
0.00721412
0.00680822
0.00643346
0.00608404
0.00333204
0.0034425
0.00374532
0.00437504
0.00535631
0.00650541
0.00758803
0.00846655
0.00907995
0.00940762
0.00946463
0.00929716
0.0089688
0.00854508
0.00808243
0.00762203
0.00718764
0.00678625
0.00641319
0.00606468
0.00332237
0.0034201
0.00369326
0.0042701
0.00518686
0.00628383
0.00733746
0.00820887
0.00883433
0.00918914
0.0092821
0.00915279
0.00885977
0.00846561
0.00802557
0.00758085
0.00715598
0.00675933
0.00638812
0.00604069
0.00331338
0.00339973
0.00364612
0.00417424
0.00502942
0.00607439
0.0070972
0.0079584
0.00859208
0.00897031
0.00909639
0.0090036
0.00874526
0.00838071
0.00796359
0.00753489
0.00711975
0.00672791
0.00635856
0.00601225
0.00330504
0.00338118
0.00360341
0.00408671
0.00488343
0.00587691
0.0068674
0.00771574
0.00835417
0.00875223
0.00890845
0.00885026
0.00862579
0.00829075
0.00789689
0.00748461
0.00707948
0.0066925
0.00632491
0.00597948
0.00329733
0.0033643
0.00356472
0.00400683
0.00474823
0.00569107
0.00664826
0.00748158
0.00812172
0.00853621
0.0087196
0.00869391
0.00850211
0.00819617
0.00782568
0.0074302
0.00703553
0.00665383
0.00628827
0.00594385
0.00329017
0.00334891
0.00352967
0.00393403
0.00462333
0.00551678
0.00644012
0.00725675
0.00789603
0.00832398
0.00853181
0.00853649
0.00837597
0.00809836
0.00775091
0.00737221
0.00698818
0.00661204
0.00624888
0.00590588
0.00328354
0.0033349
0.00349793
0.00386776
0.00450816
0.00535374
0.00624312
0.0070419
0.00767827
0.00811708
0.00834679
0.00837987
0.00824937
0.0079994
0.00767466
0.00731258
0.00693916
0.00656861
0.00620793
0.00586649
0.00327736
0.00332206
0.00346915
0.00380745
0.00440211
0.00520154
0.00605713
0.00683725
0.00746905
0.00791646
0.00816577
0.00822541
0.0081237
0.00790072
0.0075984
0.0072528
0.00688981
0.00652465
0.00616618
0.00582605
0.00327159
0.00331029
0.00344304
0.00375261
0.0043046
0.00505974
0.00588202
0.00664304
0.00726902
0.00772311
0.00798983
0.00807405
0.00799971
0.00780284
0.00752248
0.00719313
0.00684043
0.00648048
0.00612403
0.00578503
0.00326624
0.00329954
0.00341938
0.0037028
0.00421512
0.00492789
0.00571743
0.0064591
0.00707828
0.00753735
0.00781942
0.00792634
0.00787793
0.00770627
0.00744741
0.00713421
0.00679189
0.00643733
0.00608304
0.00574524
0.00326129
0.00328973
0.00339798
0.00365765
0.00413318
0.00480562
0.00556326
0.00628569
0.00689756
0.00736039
0.0076562
0.00778418
0.00776031
0.00761281
0.00737475
0.00707723
0.00674502
0.00639567
0.00604342
0.00570674
0.00325675
0.00328085
0.0033787
0.00361683
0.00405834
0.00469256
0.00541928
0.00612274
0.00672702
0.00719278
0.00750104
0.00764867
0.00764811
0.00752382
0.00730588
0.00702357
0.00670114
0.00635681
0.00600647
0.00567075
0.00325261
0.00327282
0.00336136
0.00357998
0.00399008
0.00458819
0.0052851
0.0059701
0.00656693
0.00703519
0.00735498
0.00752112
0.00754279
0.00744088
0.00724243
0.00697488
0.00666185
0.00632218
0.00597334
0.00563816
0.00324886
0.00326562
0.00334583
0.00354683
0.00392807
0.00449219
0.00516047
0.00582758
0.00641713
0.00688758
0.00721809
0.00740169
0.00744457
0.00736418
0.00718462
0.00693147
0.00662768
0.00629263
0.00594532
0.00561057
0.00324552
0.00325925
0.00333203
0.00351716
0.00387195
0.00440428
0.00504536
0.00569552
0.00627841
0.00675124
0.00709218
0.0072926
0.00735593
0.0072964
0.00713528
0.00689621
0.00660144
0.00627077
0.00592466
0.00558997
0.00324264
0.00325371
0.0033199
0.00349083
0.00382159
0.00432441
0.00493992
0.00557451
0.00615223
0.00662882
0.00698111
0.00719868
0.00728228
0.00724303
0.00709955
0.00687376
0.00658732
0.00626053
0.00591525
0.00558008
0.00324026
0.00324906
0.00330943
0.00346779
0.00377709
0.00425324
0.00484565
0.00546687
0.00604128
0.00652282
0.00688698
0.00712187
0.00722586
0.00720701
0.00708113
0.00686824
0.00658941
0.0062654
0.00591958
0.00558265
0.00323834
0.00324517
0.00330038
0.00344726
0.00373676
0.00418811
0.00475946
0.00537101
0.00594966
0.00644813
0.00683889
0.00710605
0.00724338
0.00725468
0.00715248
0.00695509
0.00668332
0.00635909
0.00600803
0.00566316
0.00323682
0.00324117
0.00329036
0.00342537
0.00369722
0.00413392
0.00470709
0.00534346
0.00597024
0.00654269
0.00703537
0.00742553
0.00768665
0.00780585
0.00778523
0.00763785
0.00738416
0.00705076
0.00667051
0.00628494
0.00323539
0.00323608
0.00327801
0.00340281
0.00366011
0.00409585
0.00471434
0.00548151
0.00636024
0.00733201
0.0084051
0.00968369
0.0105334
0.0112179
0.011739
0.0118804
0.0116789
0.0113484
0.0109051
0.010404
0.0281396
0.0260569
0.0249086
0.0242912
0.0240645
0.0242619
0.0250136
0.0264386
0.0285521
0.0312454
0.034331
0.0376016
0.0408749
0.0440571
0.0472189
0.050207
0.0529413
0.0553889
0.0575462
0.0594264
0.0610507
0.0624433
0.0636277
0.0646251
0.0654538
0.0661288
0.0666626
0.0670649
0.067344
0.0675068
0.0675675
0.0675273
0.0673867
0.0671487
0.066815
0.0663882
0.0658688
0.0652615
0.064568
0.0637937
0.0629407
0.0620188
0.061026
0.059962
0.0588285
0.0576419
0.0563999
0.0550932
0.0537234
0.0523183
0.0509009
0.0494869
0.0480729
0.0466427
0.0451911
0.0439166
0.0427418
0.0416004
0.0404606
0.0393329
0.0382391
0.0371422
0.0360212
0.0349026
0.0338355
0.0328176
0.0318311
0.0308264
0.0297729
0.028717
0.0277076
0.0267141
0.025742
0.0248499
0.0238974
0.0228394
0.0216832
0.02107
0.0209713
0.0204953
0.0272342
0.0250999
0.0232581
0.0219795
0.0214916
0.0220632
0.0239247
0.0271441
0.0315762
0.0369173
0.0428012
0.048878
0.0548575
0.0605301
0.0657702
0.0705038
0.074705
0.0783841
0.0815743
0.0843202
0.0866699
0.0886694
0.0903595
0.0917749
0.0929434
0.0938869
0.0946216
0.0951601
0.0955115
0.0956838
0.0956715
0.0954947
0.095157
0.0946605
0.0940078
0.0932014
0.0922414
0.0911335
0.089882
0.0884939
0.0869729
0.0853293
0.0835665
0.0816789
0.0796708
0.0775606
0.0753587
0.0730444
0.0706253
0.0681518
0.065676
0.0632252
0.0607825
0.0583128
0.0558048
0.0533113
0.0508714
0.0484545
0.0460461
0.0437021
0.0414792
0.039321
0.0371887
0.0351673
0.0333631
0.0317742
0.0303269
0.0288556
0.0273045
0.0257367
0.0243372
0.0230994
0.0219566
0.0209157
0.0199469
0.0191499
0.018304
0.0174793
0.0170729
0.0161866
0.0230848
0.0215316
0.020281
0.0196197
0.0198675
0.0213684
0.024371
0.0289071
0.034771
0.0415941
0.0489516
0.0564459
0.0637561
0.0706559
0.077009
0.0827503
0.0878681
0.0923858
0.096348
0.0998083
0.102822
0.105439
0.107705
0.109657
0.111325
0.11273
0.113888
0.114811
0.115508
0.115985
0.116244
0.116284
0.116117
0.115747
0.115178
0.114415
0.113457
0.112314
0.110988
0.10949
0.107822
0.105996
0.104006
0.101853
0.0995472
0.0971097
0.0945341
0.0918049
0.0889448
0.0860198
0.083082
0.080157
0.0772168
0.0742169
0.0711611
0.0681169
0.0651341
0.0621538
0.0591787
0.0563035
0.0535831
0.0509015
0.0482427
0.045737
0.0435109
0.0415286
0.0396965
0.0377851
0.035738
0.0336867
0.0318918
0.0303038
0.0287742
0.0274074
0.0261183
0.0249801
0.0237649
0.0226112
0.0221672
0.0211621
0.0183015
0.017075
0.0162149
0.0159759
0.0166644
0.0186008
0.0220109
0.0269236
0.0331488
0.0403377
0.0480783
0.0559777
0.0637142
0.0710574
0.0778659
0.0840709
0.0896574
0.0946462
0.099079
0.103007
0.106482
0.109555
0.112267
0.114655
0.116746
0.11856
0.12011
0.121405
0.122452
0.123256
0.123818
0.124139
0.124222
0.124075
0.123704
0.123116
0.122312
0.121301
0.120086
0.118677
0.117077
0.115295
0.113318
0.111152
0.108816
0.106326
0.103658
0.100806
0.0978113
0.0947442
0.0916465
0.0885392
0.085391
0.0821537
0.0788538
0.0755875
0.072392
0.0691765
0.0659715
0.0629125
0.0600242
0.0571329
0.0542703
0.0516174
0.0492708
0.0471544
0.0451719
0.0430711
0.0407988
0.0385546
0.036657
0.034975
0.0332492
0.0317141
0.0303738
0.0291402
0.0277244
0.0261916
0.0257489
0.0246299
0.0138192
0.0128683
0.0122787
0.0122277
0.0129391
0.0146734
0.0176577
0.0219869
0.0275678
0.034143
0.0413649
0.0488755
0.0563632
0.0635909
0.070401
0.0767052
0.0824689
0.087695
0.09241
0.0966526
0.100466
0.103892
0.106968
0.109724
0.112184
0.114362
0.116268
0.117908
0.119285
0.120402
0.121261
0.121861
0.122206
0.122304
0.122165
0.121796
0.1212
0.120387
0.119358
0.118122
0.116681
0.115044
0.11319
0.111134
0.108896
0.106489
0.103872
0.101055
0.0980882
0.0950396
0.0919387
0.0888092
0.0856232
0.0823367
0.0789978
0.07572
0.0725247
0.0692971
0.0660951
0.0630764
0.0602352
0.0573582
0.0545254
0.0519387
0.0496602
0.0475845
0.045628
0.0435479
0.0412897
0.0390946
0.0372974
0.0357098
0.0339818
0.0324604
0.0312376
0.0300355
0.0286404
0.0268382
0.0264772
0.0255237
0.0102284
0.00957909
0.00922933
0.0092587
0.00977829
0.0109519
0.0129819
0.01604
0.02018
0.0253012
0.0311803
0.0375362
0.0440922
0.0506142
0.0569275
0.0629165
0.068516
0.0736995
0.0784672
0.0828362
0.0868321
0.0904826
0.093814
0.0968478
0.099599
0.102075
0.10428
0.106215
0.10788
0.109274
0.110399
0.111255
0.111844
0.112182
0.112278
0.112138
0.111769
0.111177
0.110364
0.109337
0.108098
0.106652
0.104981
0.1031
0.10103
0.0987807
0.0963074
0.0936262
0.0907961
0.0878734
0.0848821
0.0818524
0.0787672
0.0755928
0.0723895
0.0692737
0.0662545
0.0632077
0.060205
0.0574059
0.0547877
0.0521249
0.0495217
0.0471749
0.0451243
0.0432497
0.0414819
0.039617
0.0375921
0.0356498
0.0341091
0.0327675
0.0312204
0.0298709
0.0288787
0.0278067
0.0266305
0.0247376
0.0245432
0.0239864
0.00772708
0.00737772
0.00724192
0.00733399
0.00768465
0.00835823
0.00946559
0.0111554
0.0135686
0.0167738
0.0207287
0.0252934
0.0302758
0.0354787
0.0407294
0.0458941
0.0508787
0.0556251
0.0601024
0.0643003
0.0682202
0.0718704
0.0752606
0.0783986
0.0812873
0.083925
0.0863072
0.0884292
0.0902872
0.0918772
0.0931972
0.0942426
0.095031
0.0955742
0.0958803
0.0959536
0.0958007
0.0954265
0.094833
0.0940223
0.0929997
0.0917674
0.090313
0.088649
0.086798
0.0847641
0.0825121
0.0800593
0.0774685
0.0747814
0.0720258
0.0692351
0.0664082
0.0635231
0.0606382
0.0578606
0.0551941
0.052522
0.0499073
0.0474971
0.0452674
0.0430092
0.0408135
0.0388634
0.0371865
0.0356605
0.0342205
0.0327248
0.0310986
0.0295505
0.0283677
0.0273658
0.0261285
0.0250518
0.0243477
0.0234989
0.0226336
0.0208423
0.0208535
0.0207146
0.00616095
0.00604138
0.0060596
0.00620426
0.00647276
0.00687785
0.00745473
0.00826605
0.00939914
0.0109492
0.0129893
0.0155417
0.0185664
0.0219735
0.025648
0.0294733
0.0333485
0.0371942
0.0409538
0.0445896
0.0480779
0.0514041
0.0545584
0.0575314
0.0603125
0.0628885
0.0652463
0.0673746
0.0692639
0.0709046
0.0722892
0.0734161
0.0743196
0.0749982
0.0754563
0.0756946
0.0757202
0.0755344
0.0751408
0.0745369
0.073732
0.072725
0.0715135
0.0701047
0.0685224
0.0667685
0.0648241
0.0627059
0.0604756
0.058161
0.0557991
0.0534179
0.0510319
0.0486295
0.0462563
0.0439982
0.0418611
0.0397466
0.0376927
0.0358215
0.0341181
0.0324068
0.0307463
0.0292983
0.0280855
0.026992
0.0259541
0.0248919
0.0237218
0.0226214
0.0218211
0.0211649
0.0202726
0.0195058
0.0190758
0.0184861
0.0179401
0.0164014
0.0166467
0.0167681
0.00523693
0.00525786
0.0053688
0.00555095
0.00579037
0.00608195
0.00643165
0.0068574
0.00738918
0.0080677
0.00894014
0.0100523
0.0114384
0.0131122
0.0150629
0.0172576
0.0196483
0.0221811
0.0248031
0.0274672
0.0301333
0.0327681
0.0353429
0.0378319
0.04021
0.0424533
0.0445391
0.0464486
0.0481637
0.0496664
0.0509445
0.0520341
0.0529418
0.0536592
0.0541862
0.054519
0.0546645
0.05462
0.0543924
0.0539743
0.0533802
0.0526052
0.0516609
0.0505447
0.0492844
0.0478794
0.0463349
0.044658
0.0429105
0.0411052
0.039291
0.0374819
0.0357029
0.033946
0.0322416
0.0306501
0.0291749
0.0277342
0.0263431
0.0250982
0.0239799
0.0228484
0.0217427
0.0208075
0.0200475
0.0193658
0.0187093
0.01803
0.0172581
0.016553
0.0160837
0.0156904
0.0150876
0.014604
0.0143889
0.0140591
0.0136808
0.0124983
0.0130053
0.013102
0.00470438
0.0047977
0.00495651
0.00516067
0.00539196
0.00563891
0.00589832
0.00617432
0.00647664
0.00681941
0.00722021
0.00769896
0.00827644
0.0089722
0.00980216
0.0107765
0.0118981
0.0131622
0.0145569
0.0160648
0.0176643
0.0193308
0.0210377
0.0227564
0.0244571
0.0261097
0.0276841
0.0291531
0.0304893
0.0316708
0.0327241
0.0336563
0.0344581
0.0351182
0.0356318
0.0359928
0.0362056
0.0362672
0.0361843
0.035951
0.0355834
0.0350787
0.0344529
0.0337041
0.0328616
0.0319277
0.0309143
0.0298261
0.0287185
0.0275973
0.0265014
0.0254315
0.0243924
0.0233729
0.0224024
0.0215173
0.0206849
0.0198352
0.0190068
0.0182782
0.017584
0.0168326
0.0160936
0.0154885
0.0149933
0.0145457
0.0141311
0.0136522
0.0131031
0.0126345
0.0123489
0.0120556
0.0116224
0.0113347
0.0112177
0.0110812
0.0107782
0.00990336
0.0106551
0.0105353
0.0044046
0.00452828
0.00470463
0.00491514
0.00514095
0.00536829
0.00559033
0.00580631
0.00601956
0.00623596
0.00646305
0.00670963
0.00698538