/*--------------------------------*- C++ -*----------------------------------*\
| =========                 |                                                 |
| \\      /  F ield         | OpenFOAM: The Open Source CFD Toolbox           |
|  \\    /   O peration     | Version:  2.4.0                                 |
|   \\  /    A nd           | Web:      www.OpenFOAM.org                      |
|    \\/     M anipulation  |                                                 |
\*---------------------------------------------------------------------------*/
FoamFile
{
    version     2.0;
    format      ascii;
    class       volVectorField;
    location    "2.7";
    object      U;
}
// * * * * * * * * * * * * * * * * * * * * * * * * * * * * * * * * * * * * * //

dimensions      [0 1 -1 0 0 0 0];

internalField   nonuniform List<vector> 
5625
(
(0.789567 -0.0902614 -5.85891e-18)
(0.123083 -0.0276375 -5.1755e-18)
(0.0349208 -0.00599268 0)
(-0.0251381 0.00610349 0)
(-0.0517126 0.0106502 0)
(-0.059787 0.012169 0)
(-0.0685809 0.0134603 5.52223e-18)
(-0.0729878 0.0139841 2.68389e-18)
(-0.0781532 0.0144401 2.61046e-18)
(-0.0816055 0.0146019 0)
(-0.0852201 0.0146753 2.47633e-18)
(-0.0880053 0.0145905 -2.41439e-18)
(-0.0904902 0.0144102 -2.35956e-18)
(-0.0927252 0.0141863 0)
(-0.095096 0.0139748 0)
(-0.0978371 0.0138289 0)
(-0.101375 0.0137946 0)
(-0.105898 0.013904 0)
(-0.1117 0.0141328 2.11204e-18)
(-0.11888 0.014443 2.07772e-18)
(-0.127488 0.0148054 -1.02178e-18)
(-0.137421 0.0151761 0)
(-0.14854 0.0155073 -9.87416e-19)
(-0.160626 0.0157494 -9.69973e-19)
(-0.173446 0.0158605 0)
(-0.186747 0.0158056 -9.34317e-19)
(-0.200279 0.0155598 0)
(-0.213796 0.01509 0)
(-0.227246 0.0143205 0)
(-0.239588 0.0132705 4.31088e-19)
(-0.251127 0.0120403 0)
(-0.261689 0.0106469 0)
(-0.271133 0.0091355 0)
(-0.279454 0.00754537 3.93959e-19)
(-0.28703 0.00578217 -3.9037e-19)
(-0.293179 0.00389009 0)
(-0.297806 0.0019278 4.85e-20)
(-0.300778 -6.07343e-05 0)
(-0.302054 -0.00198641 -5.01622e-20)
(-0.300849 -0.00448782 -1.03929e-19)
(-0.297379 -0.00657457 4.24143e-19)
(-0.291521 -0.00858806 -4.35067e-19)
(-0.2831 -0.0104427 0)
(-0.271897 -0.0120886 0)
(-0.257662 -0.0134773 0)
(-0.240149 -0.0145287 -5.08341e-19)
(-0.219013 -0.0151977 1.07079e-18)
(-0.19396 -0.0153821 0)
(-0.16438 -0.0149994 -2.39277e-18)
(-0.130449 -0.0139692 1.26946e-18)
(-0.0906758 -0.012044 1.34496e-18)
(-0.0476022 -0.00936732 1.42474e-18)
(0.0026422 -0.00517851 1.50567e-18)
(0.052216 -0.000393797 0)
(0.109239 0.00591743 1.65409e-18)
(0.159521 0.0125074 -3.42856e-18)
(0.217517 0.0205194 -3.53235e-18)
(0.262851 0.0281952 0)
(0.315429 0.0370079 5.40856e-21)
(0.350643 0.0448638 3.6707e-18)
(0.391645 0.0534122 0)
(0.411867 0.0601814 -3.66402e-18)
(0.438773 0.0675429 0)
(0.445751 0.0723782 0)
(0.463703 0.0780774 3.61269e-18)
(0.46492 0.0810993 0)
(0.483631 0.087246 -3.54518e-18)
(0.487351 0.0910786 3.49016e-18)
(0.51355 0.0987235 0)
(0.522728 0.104402 3.29741e-18)
(0.562029 0.113648 -3.12913e-18)
(0.577965 0.122532 0)
(0.637638 0.134528 0)
(0.656294 0.147386 0)
(0.811716 0.179887 2.15519e-18)
(0.826315 -0.12873 0)
(0.276589 -0.026519 0)
(0.126046 -0.00991257 0)
(0.0241102 0.00332804 2.7545e-18)
(-0.0245586 0.0087607 -2.71185e-18)
(-0.0429089 0.0109842 -2.64133e-18)
(-0.0566708 0.0127478 3.9745e-23)
(-0.0642756 0.0136327 -7.90495e-23)
(-0.0712533 0.0142921 -2.43866e-18)
(-0.076085 0.0146089 2.37684e-18)
(-0.0805381 0.0147616 0)
(-0.0839343 0.0147267 2.26538e-18)
(-0.086946 0.014585 4.43211e-18)
(-0.0895174 0.0144144 0)
(-0.092069 0.0142627 0)
(-0.094828 0.0142004 2.09032e-18)
(-0.0982357 0.0142685 0)
(-0.102549 0.0144952 0)
(-0.108083 0.0148792 0)
(-0.114985 0.0153806 -2.93145e-18)
(-0.123319 0.0159486 1.92172e-18)
(-0.132999 0.0165254 -9.44588e-19)
(-0.143884 0.0170531 -7.60918e-22)
(-0.155757 0.0174744 9.09603e-19)
(-0.168381 0.0177413 0)
(-0.181494 0.0178157 0)
(-0.194834 0.017673 0)
(-0.208114 0.0172874 0)
(-0.221132 0.0165867 0)
(-0.233492 0.0155919 -4.03635e-19)
(-0.245237 0.0143821 3.96671e-19)
(-0.256134 0.012947 0)
(-0.266085 0.0113163 -3.84313e-19)
(-0.274924 0.00953553 -3.79622e-19)
(-0.282531 0.00757177 1.88137e-19)
(-0.288629 0.00539709 -9.35735e-20)
(-0.293112 0.00308966 -4.67222e-20)
(-0.295794 0.00067621 0)
(-0.296537 -0.00188738 4.72445e-20)
(-0.295087 -0.00438012 1.91588e-19)
(-0.291405 -0.00694688 -1.95369e-19)
(-0.285251 -0.00944001 4.00101e-19)
(-0.276462 -0.0118254 4.11881e-19)
(-0.264826 -0.0140473 0)
(-0.25009 -0.0160556 -4.44183e-19)
(-0.232012 -0.0177659 4.65659e-19)
(-0.210255 -0.0191275 0)
(-0.184522 -0.0200399 -1.02765e-18)
(-0.15428 -0.0203961 2.17352e-18)
(-0.11952 -0.0200994 0)
(-0.0792644 -0.0188492 -1.21808e-18)
(-0.0350078 -0.0167253 -1.28784e-18)
(0.0153958 -0.01294 -4.93244e-21)
(0.0669705 -0.00818152 0)
(0.124082 -0.00166185 -1.50148e-18)
(0.177359 0.00569358 4.67966e-18)
(0.23567 0.0146005 0)
(0.284697 0.0238236 -3.29891e-18)
(0.338211 0.0341509 1.05682e-20)
(0.377814 0.0442064 3.40873e-18)
(0.421356 0.0548461 0)
(0.447352 0.0641743 9.26817e-21)
(0.478616 0.0732248 0)
(0.492502 0.0803442 0)
(0.51463 0.0874819 0)
(0.522884 0.093487 3.45711e-18)
(0.543685 0.0996196 3.44229e-18)
(0.553834 0.106124 0)
(0.58118 0.112821 3.30493e-18)
(0.596972 0.121653 0)
(0.637912 0.13136 6.05905e-18)
(0.661256 0.143459 0)
(0.722908 0.157062 -2.37877e-18)
(0.753255 0.171239 0)
(0.873338 0.194358 -1.9144e-18)
(0.856578 -0.0991646 0)
(0.37757 -0.0262743 0)
(0.199245 -0.0102066 0)
(0.073376 0.00200881 2.79419e-21)
(0.0044186 0.00716329 2.53967e-18)
(-0.0244874 0.00959788 4.91791e-18)
(-0.0432053 0.0115895 7.19917e-22)
(-0.0538164 0.0127137 -2.31664e-18)
(-0.0624861 0.0135218 -2.25547e-18)
(-0.0685475 0.0139588 -2.19816e-18)
(-0.0737867 0.0141799 0)
(-0.0777889 0.0141955 -2.09589e-18)
(-0.0812307 0.0140997 -2.05064e-18)
(-0.0840916 0.0139751 0)
(-0.0867801 0.0138908 -1.97163e-18)
(-0.0895197 0.0139287 1.28539e-22)
(-0.0927459 0.0141338 0)
(-0.0967508 0.0145298 -1.87215e-18)
(-0.10186 0.0151137 0)
(-0.10826 0.0158463 1.81102e-18)
(-0.116041 0.0166552 5.91144e-22)
(-0.125145 0.0174656 -7.10675e-22)
(-0.135448 0.018207 8.56936e-19)
(-0.146751 0.0188125 0)
(-0.158824 0.0192278 0)
(-0.171414 0.0194104 0)
(-0.184262 0.0193321 0)
(-0.19709 0.0189641 0)
(-0.209693 0.0182416 3.76857e-19)
(-0.22183 0.0172157 0)
(-0.233407 0.0159548 -3.6112e-19)
(-0.244207 0.0144351 3.54891e-19)
(-0.254095 0.0126918 -2.77742e-22)
(-0.262858 0.0107587 1.7212e-19)
(-0.270314 0.00859307 0)
(-0.276294 0.0061923 8.46709e-20)
(-0.280669 0.00362755 4.2243e-20)
(-0.283256 0.000925054 0)
(-0.283916 -0.00192074 -3.85498e-23)
(-0.282491 -0.00483218 -8.63822e-20)
(-0.278842 -0.00773027 0)
(-0.272751 -0.010604 -1.80158e-19)
(-0.264043 -0.0134031 -7.78808e-22)
(-0.252507 -0.0160757 -3.83154e-19)
(-0.237893 -0.0185749 3.99546e-19)
(-0.219957 -0.0208197 0)
(-0.19837 -0.0227646 -4.36566e-19)
(-0.172828 -0.024316 3.02841e-21)
(-0.142835 -0.0253612 -1.94012e-18)
(-0.108279 -0.0257938 0)
(-0.0684244 -0.0252705 0)
(-0.0242292 -0.0238286 0)
(0.0256201 -0.0205976 -1.21041e-18)
(0.0774884 -0.0161745 0)
(0.133851 -0.00979049 0)
(0.187835 -0.00226534 -2.78898e-18)
(0.245288 0.00693675 2.88853e-18)
(0.295356 0.0168262 1.03202e-20)
(0.348094 0.0277651 3.05778e-18)
(0.389103 0.0388351 -9.50032e-21)
(0.432276 0.0503277 -3.16e-18)
(0.460192 0.0607926 3.212e-18)
(0.491724 0.0706505 0)
(0.508151 0.0789568 0)
(0.531497 0.0866242 0)
(0.541839 0.0931676 -3.29295e-18)
(0.564289 0.0992363 0)
(0.57637 0.106148 0)
(0.604841 0.112473 -8.91426e-21)
(0.622721 0.12171 0)
(0.664535 0.129713 -2.8849e-18)
(0.690393 0.143263 0)
(0.752965 0.153285 2.2589e-18)
(0.7863 0.171029 0)
(0.901775 0.192351 0)
(0.884208 -0.0646641 0)
(0.45617 -0.020087 2.01632e-18)
(0.266482 -0.00691932 0)
(0.12442 0.00270446 -2.49711e-18)
(0.0369266 0.00675857 -2.43497e-18)
(-0.00366902 0.00879982 -2.3385e-18)
(-0.0282229 0.0107715 -2.25453e-18)
(-0.0422601 0.0119861 0)
(-0.0528716 0.0128849 4.23581e-18)
(-0.0602831 0.0133958 0)
(-0.0663999 0.0136669 0)
(-0.0710745 0.0137174 0)
(-0.0749816 0.0136503 0)
(-0.0781596 0.0135563 0)
(-0.0810172 0.01352 -9.1699e-23)
(-0.0837743 0.0136346 1.54516e-22)
(-0.0868536 0.0139543 -1.7771e-18)
(-0.090571 0.014505 -4.20272e-22)
(-0.0952639 0.0152805 8.59446e-19)
(-0.101151 0.0162324 -1.68954e-18)
(-0.108357 0.0172719 -8.2953e-19)
(-0.116854 0.0183089 1.6283e-18)
(-0.12654 0.0192613 0)
(-0.137236 0.0200524 0)
(-0.148727 0.0206217 0)
(-0.160769 0.0209223 -7.45909e-19)
(-0.17311 0.0209224 0)
(-0.185485 0.0205943 0)
(-0.197691 0.0198802 -3.46695e-19)
(-0.209536 0.0188379 0)
(-0.220861 0.0175289 3.31949e-19)
(-0.23145 0.0159291 2.9199e-22)
(-0.241149 0.0140726 3.1957e-19)
(-0.249739 0.0119856 0)
(-0.25703 0.00963227 0)
(-0.262887 0.00701804 0)
(-0.267171 0.00420886 0)
(-0.269699 0.00123218 0)
(-0.270337 -0.00191517 -3.88926e-20)
(-0.268947 -0.0051662 0)
(-0.26535 -0.008431 0)
(-0.259349 -0.011703 0)
(-0.250759 -0.0149372 -3.379e-19)
(-0.23937 -0.018085 8.3393e-22)
(-0.224935 -0.0211024 0)
(-0.207212 -0.0239128 0)
(-0.185878 -0.0264762 7.96263e-19)
(-0.160626 -0.0287075 8.39012e-19)
(-0.13098 -0.0304878 2.92944e-21)
(-0.096765 -0.0317006 9.3088e-19)
(-0.0573803 -0.0319593 0)
(-0.0134491 -0.0312595 0)
(0.0358152 -0.0286196 0)
(0.0875839 -0.0245481 -1.15995e-18)
(0.143166 -0.0182581 0)
(0.197269 -0.0105647 2.55127e-18)
(0.253804 -0.000965583 -3.97903e-18)
(0.304173 0.0095973 2.73844e-18)
(0.355935 0.0212991 0)
(0.397383 0.0333924 -8.4242e-21)
(0.439683 0.0458836 2.92748e-18)
(0.468223 0.0575258 0)
(0.49921 0.0682971 0)
(0.516478 0.0777499 0)
(0.539783 0.0858707 -3.07003e-18)
(0.550911 0.0926926 0)
(0.573625 0.0989355 -3.07403e-18)
(0.58649 0.105775 3.03968e-18)
(0.615336 0.112234 -2.9773e-18)
(0.633951 0.12103 0)
(0.67586 0.128613 2.6695e-18)
(0.702615 0.14208 0)
(0.765475 0.151091 0)
(0.799391 0.169551 0)
(0.917849 0.187899 -8.56251e-19)
(0.904305 -0.0379895 -9.22984e-19)
(0.52127 -0.0117279 -1.94741e-18)
(0.329336 -0.0016034 0)
(0.177391 0.00501247 0)
(0.0736118 0.00742917 2.36418e-18)
(0.0205114 0.00858185 0)
(-0.0109686 0.0102571 0)
(-0.0290865 0.0114199 0)
(-0.0420557 0.0123457 -2.02424e-18)
(-0.0510595 0.0128933 0)
(-0.0582241 0.0131956 0)
(-0.0636843 0.0132673 -1.86287e-18)
(-0.0681427 0.0132167 -1.81882e-18)
(-0.0717025 0.0131409 0)
(-0.0747803 0.0131387 1.74446e-18)
(-0.0776044 0.0133143 -1.71127e-18)
(-0.0805784 0.0137321 1.68051e-18)
(-0.0840365 0.0144227 1.65162e-18)
(-0.0883282 0.0153778 -8.11767e-19)
(-0.0937048 0.0165404 1.59557e-18)
(-0.100323 0.0178063 0)
(-0.108194 0.0190697 5.33943e-22)
(-0.117239 0.0202361 -7.51983e-19)
(-0.127306 0.0212188 7.35124e-19)
(-0.138191 0.0219499 7.17747e-19)
(-0.149665 0.0223777 6.99395e-19)
(-0.161483 0.0224666 6.82614e-19)
(-0.17339 0.0221902 -6.65475e-19)
(-0.185186 0.0214981 0)
(-0.196691 0.0204478 0)
(-0.207714 0.0190947 -3.09338e-19)
(-0.218038 0.0174166 2.1574e-22)
(-0.227498 0.0154463 -2.97737e-19)
(-0.235875 0.013205 0)
(-0.242983 0.0106667 0)
(-0.248694 0.0078416 0)
(-0.252868 0.00478994 0)
(-0.255328 0.00154051 0)
(-0.255937 -0.00190709 0)
(-0.254559 -0.00548968 0)
(-0.251003 -0.00912393 0)
(-0.245078 -0.0127988 0)
(-0.236596 -0.016473 3.13161e-19)
(-0.22535 -0.0201008 7.53091e-22)
(-0.211094 -0.0236417 0)
(-0.193589 -0.0270234 0)
(-0.172521 -0.030212 -3.70941e-19)
(-0.147581 -0.0331306 0)
(-0.118308 -0.0356574 8.24332e-19)
(-0.0844802 -0.0376613 -8.70989e-19)
(-0.0455822 -0.0387204 0)
(-0.00200962 -0.0387754 0)
(0.0466664 -0.0367421 1.02929e-18)
(0.0981573 -0.0330369 3.26758e-21)
(0.152979 -0.0268468 -1.14267e-18)
(0.206931 -0.0190058 -2.39278e-18)
(0.262575 -0.00899698 1.2462e-18)
(0.312902 0.00221708 -2.56504e-18)
(0.363676 0.0147127 0)
(0.405128 0.0278027 -7.28862e-21)
(0.446437 0.0413267 0)
(0.475049 0.0540559 2.7934e-18)
(0.505235 0.0656705 0)
(0.522764 0.0757622 0)
(0.545665 0.0843863 5.7894e-18)
(0.557084 0.0914901 0)
(0.579709 0.0976255 2.89894e-18)
(0.592938 0.104406 -2.8666e-18)
(0.622015 0.110287 0)
(0.640993 0.11902 0)
(0.682946 0.126085 -2.48453e-18)
(0.710151 0.139247 0)
(0.773237 0.147615 0)
(0.80731 0.165196 -1.2348e-18)
(0.926535 0.182171 8.53405e-19)
(0.919763 -0.0157299 9.27831e-19)
(0.576197 -0.00223628 0)
(0.387899 0.0049424 0)
(0.231157 0.00866002 0)
(0.114029 0.00911947 -2.31918e-18)
(0.0483257 0.00900815 0)
(0.00897183 0.0100886 0)
(-0.0139587 0.0110365 -2.03328e-18)
(-0.0297795 0.0119096 0)
(-0.0406816 0.0124521 0)
(-0.0491074 0.0127635 0)
(-0.0554951 0.0128421 3.58372e-18)
(-0.0606169 0.0127959 -1.7249e-22)
(-0.0646468 0.0127263 0)
(-0.068011 0.0127441 0)
(-0.0709617 0.0129638 1.63771e-18)
(-0.0738819 0.0134608 0)
(-0.0771181 0.0142717 0)
(-0.0810329 0.0153885 7.75103e-19)
(-0.0859077 0.0167475 -1.52207e-18)
(-0.0919357 0.01823 0)
(-0.0991652 0.0197147 4.67991e-22)
(-0.107551 0.0210943 7.15277e-19)
(-0.116964 0.0222715 5.8803e-22)
(-0.12722 0.0231697 6.23032e-22)
(-0.138101 0.0237321 0)
(-0.149373 0.023919 -6.46595e-19)
(-0.160787 0.0237048 9.44903e-19)
(-0.172145 0.0230459 -3.0706e-19)
(-0.183266 0.0219965 2.99464e-19)
(-0.193942 0.0206061 0)
(-0.203958 0.0188555 -2.86164e-19)
(-0.213137 0.0167761 2.80859e-19)
(-0.221266 0.0143865 1.38273e-19)
(-0.228165 0.0116701 0)
(-0.233703 0.00864118 0)
(-0.237742 0.00535447 0)
(-0.240111 0.00183979 0)
(-0.24067 -0.00190049 0)
(-0.23928 -0.00580579 0)
(-0.235744 -0.00980212 0)
(-0.229876 -0.013873 -1.43377e-19)
(-0.221485 -0.01798 -2.95928e-19)
(-0.210365 -0.0220803 3.06512e-19)
(-0.196274 -0.0261362 0)
(-0.178979 -0.0300798 -3.32994e-19)
(-0.158173 -0.0338832 0)
(-0.133551 -0.0374784 3.68465e-19)
(-0.104658 -0.0407424 0)
(-0.0712431 -0.0435283 0)
(-0.0328438 -0.0453854 0)
(0.010306 -0.0461905 0)
(0.0583906 -0.0447646 -9.82664e-19)
(0.109493 -0.0414244 1.03783e-18)
(0.163572 -0.035336 2.86237e-21)
(0.217206 -0.0273569 2.2841e-18)
(0.271984 -0.0169356 -1.18749e-18)
(0.322052 -0.00508864 2.45844e-18)
(0.37184 0.00820918 0)
(0.413032 0.0222625 -6.48645e-21)
(0.453292 0.0368193 2.62486e-18)
(0.481644 0.0505662 -2.67395e-18)
(0.510899 0.0629836 0)
(0.528338 0.0737132 0)
(0.550654 0.0827711 -6.51222e-21)
(0.562143 0.0900447 0)
(0.584515 0.0960761 0)
(0.597946 0.102667 0)
(0.627086 0.108236 0)
(0.64635 0.116623 0)
(0.688327 0.123228 0)
(0.715855 0.135915 2.03617e-18)
(0.779141 0.143741 -1.69734e-18)
(0.813203 0.160494 1.11052e-18)
(0.93165 0.176032 0)
(0.93225 0.00405673 0)
(0.622912 0.00788473 0)
(0.442441 0.012299 -2.25301e-18)
(0.284376 0.0134213 0)
(0.157579 0.0117878 2.28235e-18)
(0.0796844 0.0101593 -2.18009e-18)
(0.0318012 0.0103408 0)
(0.00335625 0.0108881 -1.09478e-21)
(-0.0158406 0.0116072 0)
(-0.0289849 0.0120907 0)
(-0.0389149 0.0123816 0)
(-0.0463966 0.012449 -1.73953e-18)
(-0.0523127 0.0123935 -2.29657e-22)
(-0.0569166 0.0123167 0)
(-0.0606511 0.01234 0)
(-0.0637961 0.0125865 -1.58081e-18)
(-0.0667243 0.0131427 -7.7465e-19)
(-0.0697866 0.0140528 -7.59949e-19)
(-0.0733582 0.0153112 -7.45691e-19)
(-0.0777496 0.0168496 1.46363e-18)
(-0.0831912 0.0185367 0)
(-0.0897721 0.0202356 -7.02246e-19)
(-0.0974814 0.0218259 6.86923e-19)
(-0.106219 0.0231986 -6.69918e-19)
(-0.11582 0.0242682 -6.52915e-19)
(-0.126082 0.0249714 0)
(-0.136779 0.0252642 -6.19243e-19)
(-0.147671 0.0251214 -6.02376e-19)
(-0.158556 0.0245045 2.93134e-19)
(-0.169252 0.0234634 -5.71677e-19)
(-0.179542 0.022043 2.79156e-19)
(-0.189209 0.0202263 0)
(-0.198072 0.0180444 0)
(-0.205922 0.0155145 -1.31776e-19)
(-0.212583 0.0126285 1.30123e-19)
(-0.217921 0.00940425 0)
(-0.221799 0.00589202 0)
(-0.22405 0.00212211 0)
(-0.224534 -0.00190068 0)
(-0.223108 -0.00612016 0)
(-0.219569 -0.0104685 -1.33392e-19)
(-0.213735 -0.0149253 1.36884e-19)
(-0.205414 -0.0194548 0)
(-0.194401 -0.0240167 0)
(-0.180459 -0.0285755 -3.03804e-19)
(-0.163358 -0.0330672 3.18837e-19)
(-0.142804 -0.0374703 0)
(-0.118495 -0.0417263 -9.84172e-22)
(-0.0899816 -0.045713 0)
(-0.0569936 -0.0492666 0)
(-0.0191044 -0.0519136 0)
(0.0235757 -0.0534607 0)
(0.0710655 -0.0526382 -9.43606e-19)
(0.121705 -0.0496568 0)
(0.175054 -0.0436684 2.10613e-18)
(0.228252 -0.0355547 -2.20633e-18)
(0.282182 -0.0247188 1.15092e-18)
(0.331836 -0.01225 1.18627e-18)
(0.38064 0.00185475 1.21918e-18)
(0.42138 0.0168502 -2.49652e-18)
(0.46054 0.0324382 -2.5442e-18)
(0.488392 0.0471546 0)
(0.516615 0.0603521 0)
(0.533726 0.0716751 0)
(0.555324 0.0811258 -2.65504e-18)
(0.566732 0.0885034 -2.64961e-18)
(0.58876 0.0944192 2.62839e-18)
(0.602303 0.100764 0)
(0.631412 0.106033 0)
(0.650905 0.114002 0)
(0.692899 0.120185 -2.17242e-18)
(0.720688 0.132302 -1.91321e-18)
(0.784135 0.13968 1.31097e-20)
(0.818188 0.155478 0)
(0.9352 0.169716 -8.03827e-19)
(0.942652 0.0220247 0)
(0.662601 0.0181149 0)
(0.49285 0.0201427 2.22192e-18)
(0.336094 0.0190516 0)
(0.203446 0.0154069 2.25443e-18)
(0.114296 0.0120894 2.15219e-18)
(0.0575868 0.0111007 0)
(0.0230253 0.0110448 1.96037e-18)
(-7.22187e-05 0.0114864 0)
(-0.0158272 0.0118412 0)
(-0.027527 0.0120721 0)
(-0.0362893 0.0121046 0)
(-0.043144 0.0120229 1.65265e-18)
(-0.048438 0.0119237 0)
(-0.0526418 0.0119365 1.57172e-18)
(-0.0560581 0.0121916 0)
(-0.0590658 0.0127864 7.51942e-19)
(-0.0620125 0.0137732 7.36729e-19)
(-0.0652853 0.0151516 -7.22531e-19)
(-0.0692219 0.0168509 -1.41646e-18)
(-0.0740898 0.0187287 6.9397e-19)
(-0.0800211 0.0206331 -6.79036e-19)
(-0.0870425 0.0224303 -6.62952e-19)
(-0.095085 0.0239988 -6.47113e-19)
(-0.104008 0.0252431 -6.30356e-19)
(-0.113624 0.0260929 0)
(-0.123716 0.026499 5.96127e-19)
(-0.134053 0.0264357 2.89919e-19)
(-0.144432 0.0258683 -2.82357e-19)
(-0.154664 0.0248425 2.74895e-19)
(-0.16453 0.0233988 -2.68285e-19)
(-0.173815 0.0215226 2.62494e-19)
(-0.182329 0.0192452 -1.28684e-19)
(-0.189871 0.0165837 0)
(-0.196267 0.0135367 -1.24979e-19)
(-0.20138 0.0101257 0)
(-0.205071 0.00639753 3.08394e-20)
(-0.207181 0.00238257 0)
(-0.207566 -0.00191279 -3.10666e-20)
(-0.20608 -0.0064375 0)
(-0.202517 -0.0111282 1.28276e-19)
(-0.196696 -0.0159612 0)
(-0.188425 -0.0209029 0)
(-0.1775 -0.0259154 0)
(-0.163687 -0.0309652 5.85006e-19)
(-0.146763 -0.0359911 0)
(-0.126446 -0.0409784 3.21949e-19)
(-0.102438 -0.0458785 -6.80777e-19)
(-0.0743001 -0.0505723 7.19885e-19)
(-0.0417447 -0.0548777 0)
(-0.00437424 -0.058305 0)
(0.0378032 -0.0605866 0)
(0.0846957 -0.0603623 9.18063e-19)
(0.134821 -0.0577314 9.69287e-19)
(0.187446 -0.0518375 -1.02543e-18)
(0.240127 -0.0435874 2.14819e-18)
(0.293219 -0.0323319 1.11905e-18)
(0.342345 -0.0192429 -1.15963e-18)
(0.390161 -0.00432336 -1.19219e-18)
(0.430303 0.0116049 0)
(0.468315 0.0282265 0)
(0.495476 0.043881 0)
(0.522571 0.0578392 0)
(0.53917 0.0697056 0)
(0.559934 0.0795162 0)
(0.571138 0.086944 5.61465e-21)
(0.592755 0.0927264 -2.5459e-18)
(0.606347 0.0987836 0)
(0.635352 0.103743 0)
(0.655031 0.111255 0)
(0.69703 0.117039 2.07612e-18)
(0.725039 0.128526 0)
(0.788606 0.135522 1.15458e-20)
(0.822653 0.150312 0)
(0.938059 0.163392 8.004e-19)
(0.951443 0.0383276 0)
(0.696677 0.028238 -1.7527e-18)
(0.538827 0.0281951 0)
(0.386111 0.0254069 0)
(0.250514 0.0199165 1.40115e-21)
(0.151849 0.014817 2.13751e-18)
(0.086285 0.0124543 0)
(0.0451541 0.0115807 0)
(0.0176631 0.0116028 -1.85849e-18)
(-0.00108057 0.0117435 0)
(-0.0148314 0.0118635 0)
(-0.0250781 0.0118304 -1.67156e-18)
(-0.0330267 0.0117011 0)
(-0.0391389 0.0115618 0)
(-0.0439216 0.0115464 -1.53808e-18)
(-0.0476995 0.0117907 0)
(-0.0508665 0.0124027 0)
(-0.0537676 0.0134429 7.18456e-19)
(-0.0567971 0.014918 7.03371e-19)
(-0.0603184 0.0167578 1.37792e-18)
(-0.0646356 0.0188106 -6.74165e-19)
(-0.069925 0.0209102 6.59124e-19)
(-0.0762534 0.022909 -6.43945e-19)
(-0.0835865 0.0246725 -4.68642e-22)
(-0.0918098 0.026094 -4.87999e-22)
(-0.100753 0.0270951 0)
(-0.110212 0.0276212 0)
(-0.119963 0.0276449 2.80965e-19)
(-0.129803 0.0271341 2.73105e-19)
(-0.139537 0.02613 0)
(-0.148946 0.0246701 2.59604e-19)
(-0.157816 0.0227414 -2.53692e-19)
(-0.165953 0.0203759 1.24348e-19)
(-0.173162 0.017591 1.22279e-19)
(-0.179268 0.0143917 0)
(-0.184133 0.0108022 5.97914e-20)
(-0.187615 0.00686715 -5.95681e-20)
(-0.189561 0.00261681 0)
(-0.189826 -0.00194178 6.00116e-20)
(-0.188259 -0.00676308 -6.06881e-20)
(-0.184653 -0.0117873 0)
(-0.178826 -0.0169873 -1.26659e-19)
(-0.170587 -0.0223319 0)
(-0.159732 -0.0277851 0)
(-0.14603 -0.0333148 -5.65636e-19)
(-0.129264 -0.0388619 0)
(-0.109168 -0.0444183 -3.1264e-19)
(-0.0854475 -0.0499462 9.67539e-22)
(-0.0576733 -0.0553308 -1.04992e-18)
(-0.0255501 -0.060372 0)
(0.0112976 -0.0645685 0)
(0.052951 -0.0675778 0)
(0.0992447 -0.0679457 8.93126e-19)
(0.148819 -0.0656567 -9.49227e-19)
(0.200727 -0.0598503 -1.00028e-18)
(0.25283 -0.0514595 -2.10318e-18)
(0.305091 -0.0397772 -1.09927e-18)
(0.353606 -0.0260636 0)
(0.400427 -0.0103187 0)
(0.43986 0.00654314 -1.19124e-18)
(0.476676 0.0242057 0)
(0.502993 0.0407783 -2.45923e-18)
(0.528868 0.0554766 0)
(0.544798 0.0678399 0)
(0.56462 0.077977 -2.51252e-18)
(0.575514 0.0854043 5.33827e-21)
(0.59666 0.09103 0)
(0.610249 0.0967643 -2.41786e-18)
(0.639087 0.101399 0)
(0.658914 0.108428 0)
(0.700901 0.113826 1.98456e-18)
(0.729099 0.124642 0)
(0.792747 0.131299 1.40322e-18)
(0.826785 0.145073 0)
(0.940609 0.157134 0)
(0.958924 0.0531006 0)
(0.726255 0.0380931 3.49613e-18)
(0.580489 0.0363192 0)
(0.434078 0.0322557 0)
(0.297579 0.0251835 -2.19953e-18)
(0.192 0.0183388 -2.12405e-18)
(0.117757 0.0144667 0)
(0.0697854 0.0125672 -1.92367e-18)
(0.0374719 0.0120159 3.68041e-18)
(0.0153681 0.0118421 0)
(-0.00072339 0.0117888 0)
(-0.0126707 0.0116511 3.29813e-18)
(-0.0218788 0.0114481 0)
(-0.0289468 0.0112482 0)
(-0.0344264 0.0111847 0)
(-0.0386698 0.0113977 0)
(-0.0420841 0.0120043 0)
(-0.0450206 0.0130734 -1.40709e-18)
(-0.0478738 0.0146206 0)
(-0.051031 0.0165786 -6.72978e-19)
(-0.0548315 0.0187885 -6.58359e-19)
(-0.059496 0.0210709 -6.43227e-19)
(-0.065134 0.0232644 6.27235e-19)
(-0.0717489 0.0252206 1.22276e-18)
(-0.079255 0.0268207 1.18996e-18)
(-0.0875034 0.0279774 -5.7871e-19)
(-0.0963027 0.0286293 0)
(-0.105439 0.0287469 -2.73071e-19)
(-0.114708 0.0282992 0)
(-0.123912 0.0273234 0)
(-0.132835 0.0258544 -5.04326e-19)
(-0.141262 0.0238802 0)
(-0.148998 0.021434 0)
(-0.15585 0.0185342 -1.5553e-23)
(-0.161646 0.0151909 0)
(-0.166242 0.011431 -5.80296e-20)
(-0.169496 0.0072975 2.88943e-20)
(-0.171259 0.00282089 0)
(-0.171386 -0.00199211 -2.91084e-20)
(-0.169721 -0.0071018 5.8927e-20)
(-0.166056 -0.0124513 0)
(-0.160207 -0.0180101 2.64005e-22)
(-0.151984 -0.023749 0)
(-0.141184 -0.029634 0)
(-0.127575 -0.0356336 5.4914e-19)
(-0.110951 -0.0416897 0)
(-0.0910563 -0.0478008 0)
(-0.0676077 -0.0539405 3.21573e-19)
(-0.0401831 -0.0599995 1.05321e-21)
(-0.00848566 -0.0657593 7.23711e-19)
(0.0278406 -0.0707132 0)
(0.0689579 -0.0744431 -8.20979e-19)
(0.114653 -0.0753972 -8.77134e-19)
(0.163652 -0.0734414 9.28453e-19)
(0.214846 -0.0677148 1.96675e-18)
(0.266329 -0.0591774 1.03502e-18)
(0.317766 -0.0470601 0)
(0.365607 -0.0327136 0)
(0.411427 -0.0161312 0)
(0.450067 0.00167237 1.17623e-18)
(0.485641 0.0203868 -1.19461e-18)
(0.510989 0.0378656 6.12283e-21)
(0.535554 0.0532838 0)
(0.550682 0.0661041 0)
(0.569458 0.0765319 2.47427e-18)
(0.57995 0.0839078 2.46087e-18)
(0.600566 0.08935 0)
(0.614106 0.0947291 2.36762e-18)
(0.642718 0.0990269 0)
(0.662658 0.105546 -2.11266e-18)
(0.704615 0.110564 -1.92715e-18)
(0.732971 0.12068 0)
(0.796665 0.127027 -1.33194e-18)
(0.83069 0.139799 0)
(0.943021 0.150962 -7.62179e-19)
(0.965333 0.0665081 0)
(0.752035 0.0475052 -1.74684e-18)
(0.618069 0.0443964 0)
(0.479619 0.0393616 2.22469e-18)
(0.343967 0.0310925 0)
(0.234097 0.0226262 0)
(0.151813 0.017168 0)
(0.0968991 0.0140712 3.82271e-18)
(0.0594264 0.0127849 -1.82655e-18)
(0.0336154 0.0121844 -1.75401e-18)
(0.0148936 0.011884 0)
(0.00102188 0.0115946 -1.63188e-18)
(-0.00962077 0.011286 -1.58136e-18)
(-0.0177883 0.0110017 0)
(-0.0240903 0.0108682 7.46364e-19)
(-0.0289136 0.0110279 0)
(-0.0326732 0.0116054 0)
(-0.0357357 0.0126781 6.91576e-19)
(-0.0384913 0.0142709 0)
(-0.0413474 0.0163228 6.60242e-19)
(-0.0446764 0.0186698 6.44603e-19)
(-0.0487435 0.0211205 6.29197e-19)
(-0.0537025 0.0234997 6.13927e-19)
(-0.0595973 0.0256445 -1.1954e-18)
(-0.0663744 0.0274234 -5.81194e-19)
(-0.073909 0.0287389 5.6486e-19)
(-0.0820254 0.029522 0)
(-0.0905203 0.0297399 2.66767e-19)
(-0.0991911 0.0293615 0)
(-0.107838 0.0284203 2.52332e-19)
(-0.116249 0.0269495 2.45841e-19)
(-0.124209 0.0249371 -2.40241e-19)
(-0.131522 0.0224178 0)
(-0.137998 0.0194113 -1.68578e-23)
(-0.143464 0.0159321 -1.13999e-19)
(-0.147775 0.0120095 0)
(-0.150785 0.00768571 -2.80927e-20)
(-0.152349 0.00299143 0)
(-0.152323 -0.00206755 2.82739e-20)
(-0.150547 -0.00745795 0)
(-0.146808 -0.0131251 1.16559e-19)
(-0.140925 -0.019035 2.62022e-22)
(-0.132706 -0.0251606 0)
(-0.121947 -0.0314695 2.55808e-19)
(-0.108419 -0.0379301 -2.67775e-19)
(-0.091919 -0.0444839 -2.80279e-19)
(-0.072209 -0.0511362 2.9557e-19)
(-0.0490143 -0.0578722 0)
(-0.0219212 -0.064589 6.65969e-19)
(0.0093621 -0.0710497 -7.10301e-19)
(0.0451738 -0.0767479 0)
(0.0857506 -0.0811912 8.07883e-19)
(0.130848 -0.0827252 -8.59129e-19)
(0.179258 -0.0810939 -1.82924e-18)
(0.22974 -0.0754388 -9.69901e-19)
(0.280576 -0.0667483 -1.01808e-18)
(0.331193 -0.0541873 0)
(0.378316 -0.0391972 -1.10365e-18)
(0.423131 -0.0217636 0)
(0.460913 -0.0030048 0)
(0.495204 0.016776 1.18306e-18)
(0.51948 0.0351553 2.39644e-18)
(0.542654 0.0512751 0)
(0.556863 0.0645172 0)
(0.574493 0.0751978 2.43589e-18)
(0.584502 0.0824713 0)
(0.604527 0.0877006 2.38477e-18)
(0.617975 0.0926936 0)
(0.646305 0.0966419 0)
(0.66633 0.102625 2.06926e-18)
(0.708234 0.107266 1.86955e-18)
(0.736721 0.116659 0)
(0.800425 0.122718 2.5765e-18)
(0.834435 0.13451 -7.70694e-19)
(0.945377 0.144878 7.60865e-19)
(0.970853 0.0787093 0)
(0.774647 0.056448 0)
(0.651647 0.0522572 -2.11535e-18)
(0.522618 0.04662 -5.25359e-21)
(0.389467 0.0375289 0)
(0.277194 0.0276076 0)
(0.188274 0.0205661 0)
(0.126416 0.016151 1.79797e-21)
(0.0835612 0.0139663 -1.81876e-18)
(0.0537377 0.0128193 3.48594e-18)
(0.0321058 0.0121883 0)
(0.0160836 0.0116912 -1.61986e-18)
(0.00382512 0.0112396 1.56728e-18)
(-0.00559056 0.0108433 0)
(-0.0128469 0.0106157 2.2995e-22)
(-0.0183706 0.0106983 0)
(-0.0225846 0.011222 0)
(-0.0258725 0.0122717 -6.82402e-19)
(-0.0286205 0.0138824 -6.6567e-19)
(-0.0312501 0.0160018 -1.29887e-18)
(-0.0341647 0.0184634 0)
(-0.0376727 0.0210653 0)
(-0.0419737 0.023619 -1.20424e-18)
(-0.0471545 0.0259467 5.85864e-19)
(-0.0531972 0.027903 0)
(-0.0600042 0.0293793 0)
(-0.0674184 0.0302981 0)
(-0.0752494 0.0306222 -2.61009e-19)
(-0.0832982 0.0303191 2.53812e-19)
(-0.0913634 0.029419 1.40593e-22)
(-0.0992387 0.0279537 -2.40563e-19)
(-0.106712 0.0259105 2.34829e-19)
(-0.113583 0.0233258 0)
(-0.119666 0.0202207 -2.25878e-19)
(-0.124787 0.0166137 1.11375e-19)
(-0.128799 0.0125359 0)
(-0.131553 0.0080295 2.7442e-20)
(-0.132905 0.00312573 0)
(-0.132715 -0.0021712 -2.762e-20)
(-0.130817 -0.00783509 0)
(-0.126994 -0.0138128 -1.13915e-19)
(-0.121066 -0.0200667 2.33353e-19)
(-0.112842 -0.0265718 0)
(-0.102115 -0.0332977 -2.5032e-19)
(-0.0886542 -0.0402117 2.60737e-19)
(-0.0722647 -0.0472533 8.09562e-22)
(-0.0527228 -0.0544341 -2.89858e-19)
(-0.0297638 -0.061752 -3.06196e-19)
(-0.00298166 -0.0691104 -1.071e-21)
(0.0279037 -0.0762536 0)
(0.0632131 -0.0826822 0)
(0.103251 -0.0878308 0)
(0.147757 -0.0899382 1.69464e-18)
(0.195568 -0.0886229 9.03411e-19)
(0.245341 -0.0830313 -9.55161e-19)
(0.295511 -0.0741812 2.01572e-18)
(0.345313 -0.0611668 1.05397e-18)
(0.391689 -0.04552 1.09588e-18)
(0.435495 -0.0272209 0)
(0.472372 -0.00748864 0)
(0.505342 0.0133759 0)
(0.528461 0.0326559 0)
(0.550166 0.0494607 0)
(0.563359 0.0630936 0)
(0.579747 0.0739878 -4.82798e-18)
(0.589211 0.0811074 2.39467e-18)
(0.60858 0.0860927 -2.36186e-18)
(0.621894 0.0906694 2.29109e-18)
(0.649889 0.0942541 -2.1848e-18)
(0.669969 0.099675 0)
(0.711798 0.10394 -1.83703e-18)
(0.74039 0.112593 1.55948e-18)
(0.804073 0.118379 -2.50127e-18)
(0.838063 0.129218 7.51099e-19)
(0.947723 0.138877 0)
(0.975621 0.0898413 0)
(0.794633 0.0649205 -1.74043e-18)
(0.681516 0.0598245 2.12e-18)
(0.562779 0.0538872 -4.43519e-18)
(0.433777 0.0443147 -2.18173e-18)
(0.320409 0.0331799 0)
(0.226844 0.0246565 0)
(0.15822 0.018841 -1.9005e-18)
(0.10987 0.0156125 -1.54346e-21)
(0.0757887 0.0137951 -1.73507e-18)
(0.0509869 0.012742 0)
(0.0325917 0.0119736 1.60975e-18)
(0.0185339 0.0113354 0)
(0.00771786 0.0107956 0)
(-0.00062837 0.0104476 -7.32769e-19)
(-0.00697774 0.0104278 -7.12511e-19)
(-0.0117645 0.0108717 0)
(-0.0153852 0.0118708 6.74794e-19)
(-0.018226 0.0134701 6.57391e-19)
(-0.0207155 0.0156286 -3.22022e-22)
(-0.0232849 0.0181798 -6.24645e-19)
(-0.0262835 0.0209133 0)
(-0.0299579 0.0236277 5.92126e-19)
(-0.0344397 0.0261305 0)
(-0.0397498 0.0282612 -2.80118e-19)
(-0.0458214 0.0298991 0)
(-0.052519 0.0309572 2.64113e-19)
(-0.0596674 0.0313928 0)
(-0.0670736 0.0311706 -2.48914e-19)
(-0.0745364 0.030318 -4.84291e-19)
(-0.0818569 0.0288657 2.35804e-19)
(-0.0888247 0.0267991 1.15127e-19)
(-0.0952389 0.0241567 -1.12666e-19)
(-0.100914 0.0209612 1.44888e-23)
(-0.105679 0.0172343 0)
(-0.109381 0.0130087 -5.39392e-20)
(-0.111868 0.00832714 0)
(-0.112999 0.0032217 0)
(-0.112636 -0.00230556 0)
(-0.110606 -0.00823608 5.45639e-20)
(-0.106692 -0.0145177 0)
(-0.100714 -0.0211089 -2.54973e-22)
(-0.0924773 -0.0279873 1.17581e-19)
(-0.0817753 -0.0351241 -1.22101e-19)
(-0.0683718 -0.042485 -2.55869e-19)
(-0.0520801 -0.0500056 5.36983e-19)
(-0.0326911 -0.0577035 -2.83112e-19)
(-0.00994996 -0.06559 6.0147e-19)
(0.0165439 -0.0735743 -3.20697e-19)
(0.0470515 -0.0813815 0)
(0.0818752 -0.0885258 0)
(0.121383 -0.0943714 -7.80519e-19)
(0.165305 -0.0970457 -8.37557e-19)
(0.212512 -0.0960376 8.90381e-19)
(0.261578 -0.0905001 1.8934e-18)
(0.311071 -0.0814831 -2.81104e-21)
(0.360066 -0.0680063 -1.04825e-18)
(0.405677 -0.0516883 0)
(0.448471 -0.0325081 0)
(0.484407 -0.0117812 0)
(0.516021 0.0101872 0)
(0.537915 0.0303726 0)
(0.558081 0.0478477 0)
(0.570173 0.0618437 0)
(0.585228 0.0729113 2.3983e-18)
(0.594103 0.0798259 -2.38074e-18)
(0.612746 0.0845349 0)
(0.625886 0.088665 -2.27413e-18)
(0.653498 0.0918713 4.39179e-21)
(0.673606 0.0967054 0)
(0.715335 0.100593 0)
(0.744008 0.10849 -3.06555e-18)
(0.807637 0.114014 1.22512e-18)
(0.841605 0.123929 0)
(0.950081 0.132954 0)
(0.979749 0.100018 0)
(0.812417 0.0729376 3.49514e-18)