/*--------------------------------*- C++ -*----------------------------------*\
| =========                 |                                                 |
| \\      /  F ield         | OpenFOAM: The Open Source CFD Toolbox           |
|  \\    /   O peration     | Version:  2.4.0                                 |
|   \\  /    A nd           | Web:      www.OpenFOAM.org                      |
|    \\/     M anipulation  |                                                 |
\*---------------------------------------------------------------------------*/
FoamFile
{
    version     2.0;
    format      ascii;
    class       surfaceScalarField;
    location    "0.51";
    object      phi;
}
// * * * * * * * * * * * * * * * * * * * * * * * * * * * * * * * * * * * * * //

dimensions      [0 3 -1 0 0 0 0];

internalField   nonuniform List<scalar> 
11830
(
2.94679e-06
5.32097e-08
2.8769e-06
6.98924e-08
2.80966e-06
6.72426e-08
2.74329e-06
6.6367e-08
2.6787e-06
6.45873e-08
2.61759e-06
6.11118e-08
2.56088e-06
5.67128e-08
2.50886e-06
5.20145e-08
2.4616e-06
4.72654e-08
2.41899e-06
4.26082e-08
2.38083e-06
3.81583e-08
2.34684e-06
3.39911e-08
2.3167e-06
3.01417e-08
2.29008e-06
2.66182e-08
2.26666e-06
2.34146e-08
2.24614e-06
2.05231e-08
2.2282e-06
1.79431e-08
2.21251e-06
1.56846e-08
2.19875e-06
1.37652e-08
2.18655e-06
1.21991e-08
2.17557e-06
1.09834e-08
2.16548e-06
1.0087e-08
2.15603e-06
9.44889e-09
2.14704e-06
8.98716e-09
2.13843e-06
8.6165e-09
2.13016e-06
8.26573e-09
2.12227e-06
7.8891e-09
2.1148e-06
7.46829e-09
2.1078e-06
7.00566e-09
2.10128e-06
6.51365e-09
2.09528e-06
6.00544e-09
2.08979e-06
5.49023e-09
2.08481e-06
4.97374e-09
2.08035e-06
4.46221e-09
2.07639e-06
3.9672e-09
2.07288e-06
3.5088e-09
2.06976e-06
3.11603e-09
2.06694e-06
2.82433e-09
2.06426e-06
2.67139e-09
2.06157e-06
2.6933e-09
2.05865e-06
2.92237e-09
2.05526e-06
3.38815e-09
2.05114e-06
4.12164e-09
2.04598e-06
5.16172e-09
2.03941e-06
6.56302e-09
2.03101e-06
8.40448e-09
2.02021e-06
1.07984e-08
2.00631e-06
1.3901e-08
1.98838e-06
1.79271e-08
1.96521e-06
2.31717e-08
1.93517e-06
3.00428e-08
1.89605e-06
3.91157e-08
1.84484e-06
5.12182e-08
1.77727e-06
6.75676e-08
1.68733e-06
8.99389e-08
1.56644e-06
1.2089e-07
1.40335e-06
1.63089e-07
1.18485e-06
2.18501e-07
8.92564e-07
2.92284e-07
2.67733e-07
6.24831e-07
3.02862e-06
2.45861e-08
3.05191e-06
4.66053e-08
3.06774e-06
5.14094e-08
3.07746e-06
5.66538e-08
3.08093e-06
6.11095e-08
3.07873e-06
6.33132e-08
3.07162e-06
6.38267e-08
3.06033e-06
6.33007e-08
3.04559e-06
6.20133e-08
3.02805e-06
6.01439e-08
3.00834e-06
5.78728e-08
2.98697e-06
5.53517e-08
2.96443e-06
5.26904e-08
2.94108e-06
4.99634e-08
2.91727e-06
4.72211e-08
2.8933e-06
4.44998e-08
2.86941e-06
4.18314e-08
2.84585e-06
3.92486e-08
2.82282e-06
3.67871e-08
2.80054e-06
3.44808e-08
2.77917e-06
3.23548e-08
2.75884e-06
3.04178e-08
2.73963e-06
2.86582e-08
2.72157e-06
2.70467e-08
2.70464e-06
2.55444e-08
2.6888e-06
2.41125e-08
2.67396e-06
2.27207e-08
2.66008e-06
2.13525e-08
2.64708e-06
2.0004e-08
2.63492e-06
1.86788e-08
2.62354e-06
1.73797e-08
2.61293e-06
1.61018e-08
2.60308e-06
1.48289e-08
2.594e-06
1.35383e-08
2.58575e-06
1.22123e-08
2.57841e-06
1.08546e-08
2.57202e-06
9.50324e-09
2.56661e-06
8.23501e-09
2.56213e-06
7.15678e-09
2.55843e-06
6.38764e-09
2.55531e-06
6.03853e-09
2.5525e-06
6.1986e-09
2.54969e-06
6.93349e-09
2.54656e-06
8.29616e-09
2.54277e-06
1.03464e-08
2.538e-06
1.31747e-08
2.53188e-06
1.69265e-08
2.52395e-06
2.18254e-08
2.51368e-06
2.81995e-08
2.50034e-06
3.65162e-08
2.48294e-06
4.74384e-08
2.46014e-06
6.19133e-08
2.43002e-06
8.1338e-08
2.3898e-06
1.07787e-07
2.33514e-06
1.44601e-07
2.25961e-06
1.96423e-07
2.15033e-06
2.72363e-07
1.99491e-06
3.73926e-07
1.73939e-06
5.47804e-07
5.72072e-07
1.43505e-06
3.00532e-06
1.92657e-08
3.01285e-06
3.90788e-08
3.01981e-06
4.44424e-08
3.02758e-06
4.88846e-08
3.03534e-06
5.33485e-08
3.0425e-06
5.61564e-08
3.04882e-06
5.7504e-08
3.05413e-06
5.79943e-08
3.05826e-06
5.78786e-08
3.06115e-06
5.72605e-08
3.06276e-06
5.6263e-08
3.06311e-06
5.50044e-08
3.06222e-06
5.35747e-08
3.06015e-06
5.2036e-08
3.05694e-06
5.04315e-08
3.05265e-06
4.87924e-08
3.04733e-06
4.71446e-08
3.04107e-06
4.55125e-08
3.03394e-06
4.39202e-08
3.02603e-06
4.23883e-08
3.01745e-06
4.09283e-08
3.00833e-06
3.95376e-08
2.99879e-06
3.81983e-08
2.98896e-06
3.68797e-08
2.97896e-06
3.55475e-08
2.9689e-06
3.41712e-08
2.95889e-06
3.27319e-08
2.94901e-06
3.12258e-08
2.93936e-06
2.96635e-08
2.92997e-06
2.80639e-08
2.9209e-06
2.64451e-08
2.91219e-06
2.48135e-08
2.90387e-06
2.31562e-08
2.89596e-06
2.14433e-08
2.88853e-06
1.96419e-08
2.88165e-06
1.774e-08
2.87538e-06
1.57717e-08
2.86978e-06
1.38314e-08
2.86487e-06
1.20688e-08
2.86059e-06
1.06673e-08
2.85682e-06
9.81252e-09
2.85335e-06
9.66642e-09
2.84992e-06
1.03559e-08
2.84624e-06
1.19801e-08
2.84195e-06
1.46333e-08
2.83669e-06
1.84375e-08
2.83004e-06
2.35783e-08
2.82152e-06
3.03411e-08
2.81057e-06
3.91495e-08
2.79648e-06
5.06116e-08
2.77833e-06
6.55897e-08
2.75494e-06
8.53043e-08
2.72474e-06
1.11534e-07
2.68568e-06
1.46848e-07
2.63487e-06
1.95409e-07
2.56874e-06
2.62556e-07
2.48027e-06
3.6083e-07
2.3643e-06
4.899e-07
2.18675e-06
7.25349e-07
8.16204e-07
1.94262e-06
3.00342e-06
1.58458e-08
3.00771e-06
3.47892e-08
3.01095e-06
4.12018e-08
3.01456e-06
4.52776e-08
3.01853e-06
4.93782e-08
3.0226e-06
5.2082e-08
3.02675e-06
5.33558e-08
3.03093e-06
5.38151e-08
3.03505e-06
5.37614e-08
3.03902e-06
5.32915e-08
3.04277e-06
5.25053e-08
3.04627e-06
5.15083e-08
3.04946e-06
5.03811e-08
3.05232e-06
4.91774e-08
3.05482e-06
4.79334e-08
3.05694e-06
4.66752e-08
3.05866e-06
4.54242e-08
3.05997e-06
4.42001e-08
3.06087e-06
4.30216e-08
3.06135e-06
4.19038e-08
3.06143e-06
4.08527e-08
3.0611e-06
3.98615e-08
3.06039e-06
3.89086e-08
3.05931e-06
3.79613e-08
3.05788e-06
3.69828e-08
3.05611e-06
3.59401e-08
3.05403e-06
3.48112e-08
3.05167e-06
3.35892e-08
3.04905e-06
3.22824e-08
3.0462e-06
3.09106e-08
3.04315e-06
2.9497e-08
3.03991e-06
2.80565e-08
3.03647e-06
2.65865e-08
3.03286e-06
2.50623e-08
3.02905e-06
2.34466e-08
3.02508e-06
2.17109e-08
3.02099e-06
1.98645e-08
3.01684e-06
1.79767e-08
3.01273e-06
1.61846e-08
3.00871e-06
1.46802e-08
3.00484e-06
1.36843e-08
3.00109e-06
1.34176e-08
2.99737e-06
1.40803e-08
2.9935e-06
1.58496e-08
2.98924e-06
1.8894e-08
2.98427e-06
2.34031e-08
2.97822e-06
2.96265e-08
2.97064e-06
3.79192e-08
2.961e-06
4.87926e-08
2.94864e-06
6.29752e-08
2.93273e-06
8.14978e-08
2.91222e-06
1.05813e-07
2.88573e-06
1.38023e-07
2.85147e-06
1.8111e-07
2.80702e-06
2.39854e-07
2.7495e-06
3.20085e-07
2.67435e-06
4.35979e-07
2.57824e-06
5.86007e-07
2.44946e-06
8.54123e-07
1.00681e-06
2.25885e-06
3.00258e-06
1.32659e-08
3.00624e-06
3.11323e-08
3.00912e-06
3.83142e-08
3.01204e-06
4.23647e-08
3.01515e-06
4.62634e-08
3.01826e-06
4.89761e-08
3.02134e-06
5.02782e-08
3.02442e-06
5.07315e-08
3.0275e-06
5.06819e-08
3.03055e-06
5.02394e-08
3.03356e-06
4.94952e-08
3.03652e-06
4.85523e-08
3.03941e-06
4.74923e-08
3.04221e-06
4.63693e-08
3.04493e-06
4.5219e-08
3.04754e-06
4.4067e-08
3.05003e-06
4.29339e-08
3.05239e-06
4.18378e-08
3.05462e-06
4.07953e-08
3.0567e-06
3.98187e-08
3.05864e-06
3.89125e-08
3.06043e-06
3.8069e-08
3.06207e-06
3.72678e-08
3.06356e-06
3.64786e-08
3.06487e-06
3.5667e-08
3.06601e-06
3.48023e-08
3.06696e-06
3.3863e-08
3.06771e-06
3.28412e-08
3.06825e-06
3.17431e-08
3.06857e-06
3.05868e-08
3.06867e-06
2.93964e-08
3.06853e-06
2.81931e-08
3.06814e-06
2.69845e-08
3.06744e-06
2.57586e-08
3.0664e-06
2.44855e-08
3.06498e-06
2.31326e-08
3.06315e-06
2.16892e-08
3.06094e-06
2.01929e-08
3.05838e-06
1.8746e-08
3.05554e-06
1.75168e-08
3.0525e-06
1.67247e-08
3.0493e-06
1.66167e-08
3.04593e-06
1.74455e-08
3.04233e-06
1.94579e-08
3.03832e-06
2.28995e-08
3.03369e-06
2.80372e-08
3.02812e-06
3.51952e-08
3.02123e-06
4.48042e-08
3.01257e-06
5.74594e-08
3.00155e-06
7.39927e-08
2.98748e-06
9.55697e-08
2.96947e-06
1.2382e-07
2.94642e-06
1.61078e-07
2.91691e-06
2.10613e-07
2.87918e-06
2.77586e-07
2.83108e-06
3.68183e-07
2.76986e-06
4.97204e-07
2.69199e-06
6.63873e-07
2.59719e-06
9.48927e-07
1.15707e-06
2.44693e-06
3.00198e-06
1.12872e-08
3.00526e-06
2.78512e-08
3.00809e-06
3.54887e-08
3.01084e-06
3.96139e-08
3.01376e-06
4.33364e-08
3.01669e-06
4.6053e-08
3.01954e-06
4.7425e-08
3.02235e-06
4.7922e-08
3.02512e-06
4.79144e-08
3.02783e-06
4.75272e-08
3.03048e-06
4.68426e-08
3.03308e-06
4.5958e-08
3.03561e-06
4.4955e-08
3.03809e-06
4.38884e-08
3.04052e-06
4.27946e-08
3.04289e-06
4.16999e-08
3.04519e-06
4.06255e-08
3.04744e-06
3.95893e-08
3.04963e-06
3.8607e-08
3.05176e-06
3.76902e-08
3.05383e-06
3.68425e-08
3.05584e-06
3.60571e-08
3.05779e-06
3.53157e-08
3.05968e-06
3.45912e-08
3.06149e-06
3.38531e-08
3.06322e-06
3.30739e-08
3.06485e-06
3.22345e-08
3.06636e-06
3.13277e-08
3.06775e-06
3.03591e-08
3.06899e-06
2.93454e-08
3.07008e-06
2.83107e-08
3.07099e-06
2.72798e-08
3.07171e-06
2.62687e-08
3.07219e-06
2.52776e-08
3.07238e-06
2.42889e-08
3.07224e-06
2.3276e-08
3.07171e-06
2.22225e-08
3.07075e-06
2.11471e-08
3.06937e-06
2.01247e-08
3.06759e-06
1.92974e-08
3.06545e-06
1.88705e-08
3.06297e-06
1.90975e-08
3.06015e-06
2.02601e-08
3.05695e-06
2.2655e-08
3.05326e-06
2.6591e-08
3.04889e-06
3.24055e-08
3.04359e-06
4.04968e-08
3.03702e-06
5.13728e-08
3.02877e-06
6.57135e-08
3.01831e-06
8.44498e-08
3.00501e-06
1.08868e-07
2.98809e-06
1.40744e-07
2.96658e-06
1.82591e-07
2.93932e-06
2.37868e-07
2.90498e-06
3.11926e-07
2.86206e-06
4.11102e-07
2.80933e-06
5.49936e-07
2.74399e-06
7.29215e-07
2.67174e-06
1.02117e-06
1.27497e-06
2.55384e-06
3.00156e-06
9.72659e-09
3.00449e-06
2.49204e-08
3.00722e-06
3.27636e-08
3.00985e-06
3.69779e-08
3.01266e-06
4.05258e-08
3.01551e-06
4.32015e-08
3.01831e-06
4.46289e-08
3.02106e-06
4.51744e-08
3.02376e-06
4.52142e-08
3.0264e-06
4.48894e-08
3.02896e-06
4.42754e-08
3.03146e-06
4.34612e-08
3.03389e-06
4.25265e-08
3.03625e-06
4.15261e-08
3.03855e-06
4.04959e-08
3.04079e-06
3.94622e-08
3.04297e-06
3.84461e-08
3.04509e-06
3.74653e-08
3.04716e-06
3.65348e-08
3.04919e-06
3.56653e-08
3.05117e-06
3.48603e-08
3.05311e-06
3.41138e-08
3.05502e-06
3.34096e-08
3.05689e-06
3.2724e-08
3.05871e-06
3.20299e-08
3.06048e-06
3.13035e-08
3.06219e-06
3.05282e-08
3.06382e-06
2.9698e-08
3.06536e-06
2.88184e-08
3.0668e-06
2.79055e-08
3.06812e-06
2.69831e-08
3.06933e-06
2.6078e-08
3.07038e-06
2.52121e-08
3.07126e-06
2.43957e-08
3.07193e-06
2.36233e-08
3.07233e-06
2.28783e-08
3.0724e-06
2.21472e-08
3.07211e-06
2.14415e-08
3.07141e-06
2.08206e-08
3.0703e-06
2.04071e-08
3.06878e-06
2.03924e-08
3.06685e-06
2.10284e-08
3.0645e-06
2.26133e-08
3.06167e-06
2.54778e-08
3.05829e-06
2.99804e-08
3.05417e-06
3.6519e-08
3.04911e-06
4.55606e-08
3.04279e-06
5.76881e-08
3.03484e-06
7.36662e-08
3.02477e-06
9.45227e-08
3.01198e-06
1.21659e-07
2.99573e-06
1.56986e-07
2.97516e-06
2.03168e-07
2.9492e-06
2.6382e-07
2.91675e-06
3.44381e-07
2.87659e-06
4.51265e-07
2.82827e-06
5.98251e-07
2.76975e-06
7.87736e-07
2.70967e-06
1.08126e-06
1.36838e-06
2.61626e-06
3.00126e-06
8.46433e-09
3.00387e-06
2.23149e-08
3.00648e-06
3.01562e-08
3.00902e-06
3.44338e-08
3.01173e-06
3.78154e-08
3.01452e-06
4.04144e-08
3.01727e-06
4.18747e-08
3.01998e-06
4.24635e-08
3.02265e-06
4.25457e-08
3.02526e-06
4.22778e-08
3.02781e-06
4.17317e-08
3.03028e-06
4.09881e-08
3.03268e-06
4.01235e-08
3.03502e-06
3.91919e-08
3.03728e-06
3.82289e-08
3.03949e-06
3.726e-08
3.04163e-06
3.63059e-08
3.04371e-06
3.53837e-08
3.04573e-06
3.45076e-08
3.04771e-06
3.36874e-08
3.04965e-06
3.29263e-08
3.05154e-06
3.22191e-08
3.0534e-06
3.15514e-08
3.05522e-06
3.09022e-08
3.057e-06
3.0248e-08
3.05874e-06
2.95677e-08
3.06042e-06
2.88473e-08
3.06204e-06
2.8082e-08
3.06358e-06
2.72774e-08
3.06503e-06
2.64492e-08
3.06639e-06
2.56209e-08
3.06765e-06
2.48202e-08
3.06879e-06
2.40734e-08
3.06979e-06
2.33984e-08
3.07061e-06
2.28e-08
3.07122e-06
2.22722e-08
3.07156e-06
2.18081e-08
3.07158e-06
2.14191e-08
3.07124e-06
2.11569e-08
3.07052e-06
2.11328e-08
3.06938e-06
2.15277e-08
3.06782e-06
2.2591e-08
3.0658e-06
2.46312e-08
3.06328e-06
2.80039e-08
3.06015e-06
3.31075e-08
3.05628e-06
4.03918e-08
3.05145e-06
5.03853e-08
3.0454e-06
6.37424e-08
3.03775e-06
8.13088e-08
3.02807e-06
1.04206e-07
3.01579e-06
1.33944e-07
3.00021e-06
1.72561e-07
2.98052e-06
2.22854e-07
2.95578e-06
2.88568e-07
2.92497e-06
3.75187e-07
2.88706e-06
4.89175e-07
2.84192e-06
6.43396e-07
2.78798e-06
8.41673e-07
2.73429e-06
1.13495e-06
1.44405e-06
2.65861e-06
3.00104e-06
7.42151e-09
3.00336e-06
1.99969e-08
3.00584e-06
2.76721e-08
3.00831e-06
3.1969e-08
3.01093e-06
3.51949e-08
3.01365e-06
3.76927e-08
3.01636e-06
3.91624e-08
3.01904e-06
3.97863e-08
3.02168e-06
3.99045e-08
3.02427e-06
3.96863e-08
3.0268e-06
3.92026e-08
3.02927e-06
3.85261e-08
3.03166e-06
3.77294e-08
3.03399e-06
3.68655e-08
3.03625e-06
3.59691e-08
3.03844e-06
3.50652e-08
3.04057e-06
3.41737e-08
3.04264e-06
3.3311e-08
3.04466e-06
3.24905e-08
3.04663e-06
3.17211e-08
3.04855e-06
3.10059e-08
3.05043e-06
3.03401e-08
3.05227e-06
2.97111e-08
3.05407e-06
2.91003e-08
3.05583e-06
2.84871e-08
3.05755e-06
2.78533e-08
3.05921e-06
2.71867e-08
3.0608e-06
2.64838e-08
3.06233e-06
2.57506e-08
3.06378e-06
2.50021e-08
3.06514e-06
2.42616e-08
3.0664e-06
2.35575e-08
3.06755e-06
2.29189e-08
3.06858e-06
2.23696e-08
3.06946e-06
2.19231e-08
3.07015e-06
2.15828e-08
3.07061e-06
2.13495e-08
3.07079e-06
2.12378e-08
3.07065e-06
2.12971e-08
3.07015e-06
2.16325e-08
3.06926e-06
2.24186e-08
3.06795e-06
2.39037e-08
3.06617e-06
2.6404e-08
3.06388e-06
3.02954e-08
3.06098e-06
3.6009e-08
3.05733e-06
4.40397e-08
3.05275e-06
5.4972e-08
3.04696e-06
6.95261e-08
3.03965e-06
8.86245e-08
3.03037e-06
1.13478e-07
3.01862e-06
1.45698e-07
3.00374e-06
1.87438e-07
2.98499e-06
2.41611e-07
2.96148e-06
3.12075e-07
2.93235e-06
4.04319e-07
2.89669e-06
5.2483e-07
2.85454e-06
6.85551e-07
2.80479e-06
8.91419e-07
2.75558e-06
1.18416e-06
1.50669e-06
2.69294e-06
3.00088e-06
6.54292e-09
3.00295e-06
1.79261e-08
3.00531e-06
2.53127e-08
3.0077e-06
2.95776e-08
3.01024e-06
3.2655e-08
3.0129e-06
3.50346e-08
3.01557e-06
3.64912e-08
3.01822e-06
3.71402e-08
3.02083e-06
3.72888e-08
3.0234e-06
3.71136e-08
3.02592e-06
3.66867e-08
3.02837e-06
3.60736e-08
3.03076e-06
3.53421e-08
3.03308e-06
3.45438e-08
3.03534e-06
3.37126e-08
3.03753e-06
3.28726e-08
3.03966e-06
3.20429e-08
3.04173e-06
3.12394e-08
3.04375e-06
3.04743e-08
3.04571e-06
2.97561e-08
3.04763e-06
2.90874e-08
3.04951e-06
2.84642e-08
3.05134e-06
2.78753e-08
3.05314e-06
2.73044e-08
3.05489e-06
2.67335e-08
3.0566e-06
2.61468e-08
3.05825e-06
2.55341e-08
3.05984e-06
2.48929e-08
3.06137e-06
2.42295e-08
3.06281e-06
2.35588e-08
3.06417e-06
2.29035e-08
3.06543e-06
2.22925e-08
3.06659e-06
2.17571e-08
3.06764e-06
2.13256e-08
3.06854e-06
2.10187e-08
3.06928e-06
2.08479e-08
3.0698e-06
2.08216e-08
3.07008e-06
2.09591e-08
3.07007e-06
2.13106e-08
3.06972e-06
2.19788e-08
3.06901e-06
2.31353e-08
3.06788e-06
2.50283e-08
3.0663e-06
2.79815e-08
3.06421e-06
3.23875e-08
3.06152e-06
3.8706e-08
3.05808e-06
4.74711e-08
3.05374e-06
5.9318e-08
3.04824e-06
7.5028e-08
3.04127e-06
9.55952e-08
3.03243e-06
1.22314e-07
3.02124e-06
1.5689e-07
3.00709e-06
2.01582e-07
2.9893e-06
2.59404e-07
2.96707e-06
3.34302e-07
2.93964e-06
4.31747e-07
2.90627e-06
5.58205e-07
2.86708e-06
7.24742e-07
2.82147e-06
9.37031e-07
2.7764e-06
1.22922e-06
1.5593e-06
2.7238e-06
3.00075e-06
5.78898e-09
3.00261e-06
1.60653e-08
3.00485e-06
2.30761e-08
3.00717e-06
2.72558e-08
3.00964e-06
3.01868e-08
3.01224e-06
3.24369e-08
3.01487e-06
3.38599e-08
3.01749e-06
3.45235e-08
3.02008e-06
3.46967e-08
3.02263e-06
3.45586e-08
3.02514e-06
3.41832e-08
3.02758e-06
3.36297e-08
3.02996e-06
3.29608e-08
3.03228e-06
3.2226e-08
3.03453e-06
3.14584e-08
3.03673e-06
3.06812e-08
3.03886e-06
2.99125e-08
3.04093e-06
2.91672e-08
3.04295e-06
2.84571e-08
3.04491e-06
2.77899e-08
3.04683e-06
2.7168e-08
3.04871e-06
2.6588e-08
3.05054e-06
2.604e-08
3.05234e-06
2.551e-08
3.05409e-06
2.49821e-08
3.05579e-06
2.44429e-08
3.05744e-06
2.3884e-08
3.05903e-06
2.33038e-08
3.06055e-06
2.2709e-08
3.062e-06
2.21143e-08
3.06336e-06
2.15422e-08
3.06463e-06
2.10218e-08
3.0658e-06
2.0586e-08
3.06686e-06
2.02669e-08
3.06779e-06
2.00907e-08
3.06856e-06
2.00764e-08
3.06914e-06
2.02395e-08
3.06949e-06
2.06046e-08
3.06958e-06
2.12248e-08
3.06936e-06
2.22027e-08
3.06878e-06
2.37093e-08
3.06782e-06
2.59943e-08
3.06641e-06
2.93878e-08
3.0645e-06
3.42974e-08
3.062e-06
4.12072e-08
3.05878e-06
5.06867e-08
3.05468e-06
6.34167e-08
3.04948e-06
8.02346e-08
3.04287e-06
1.02201e-07
3.0345e-06
1.30689e-07
3.0239e-06
1.6749e-07
3.01052e-06
2.14958e-07
2.99373e-06
2.76194e-07
2.97282e-06
3.55212e-07
2.94712e-06
4.57446e-07
2.91603e-06
5.89299e-07
2.87976e-06
7.61015e-07
2.83814e-06
9.78647e-07
2.79717e-06
1.2702e-06
1.60388e-06
2.75258e-06
3.00066e-06
5.131e-09
3.00234e-06
1.43814e-08
3.00446e-06
2.09569e-08
3.00672e-06
2.50009e-08
3.00912e-06
2.77825e-08
3.01166e-06
2.98955e-08
3.01425e-06
3.12673e-08
3.01684e-06
3.19343e-08
3.01941e-06
3.21267e-08
3.02195e-06
3.20202e-08
3.02444e-06
3.16915e-08
3.02688e-06
3.1194e-08
3.02926e-06
3.0585e-08
3.03157e-06
2.99118e-08
3.03382e-06
2.92064e-08
3.03601e-06
2.84907e-08
3.03814e-06
2.77819e-08
3.04022e-06
2.70943e-08
3.04223e-06
2.64387e-08
3.0442e-06
2.58222e-08
3.04612e-06
2.52472e-08
3.048e-06
2.47108e-08
3.04984e-06
2.42044e-08
3.05163e-06
2.37158e-08
3.05338e-06
2.32315e-08
3.05508e-06
2.274e-08
3.05673e-06
2.22344e-08
3.05832e-06
2.17143e-08
3.05984e-06
2.11868e-08
3.06129e-06
2.06663e-08
3.06266e-06
2.01753e-08
3.06394e-06
1.97431e-08
3.06512e-06
1.94037e-08
3.06619e-06
1.9192e-08
3.06715e-06
1.91393e-08
3.06795e-06
1.92706e-08
3.06858e-06
1.96083e-08
3.069e-06
2.0183e-08
3.06918e-06
2.10516e-08
3.06906e-06
2.23186e-08
3.06862e-06
2.41561e-08
3.06779e-06
2.68159e-08
3.06655e-06
3.06344e-08
3.06481e-06
3.60323e-08
3.0625e-06
4.3515e-08
3.05951e-06
5.36832e-08
3.05567e-06
6.7259e-08
3.05077e-06
8.51314e-08
3.04455e-06
1.08423e-07
3.03666e-06
1.38577e-07
3.02668e-06
1.77467e-07
3.01411e-06
2.27529e-07
2.99836e-06
2.91942e-07
2.9788e-06
3.7477e-07
2.95486e-06
4.81392e-07
2.92604e-06
6.18117e-07
2.89263e-06
7.94425e-07
2.85481e-06
1.01647e-06
2.81779e-06
1.30722e-06
1.6419e-06
2.77976e-06
3.00058e-06
4.54789e-09
3.00212e-06
1.28463e-08
3.00413e-06
1.89473e-08
3.00632e-06
2.28101e-08
3.00867e-06
2.54353e-08
3.01116e-06
2.74059e-08
3.01371e-06
2.87119e-08
3.01627e-06
2.93711e-08
3.01882e-06
2.95769e-08
3.02135e-06
2.94974e-08
3.02383e-06
2.92107e-08
3.02626e-06
2.87658e-08
3.02863e-06
2.82143e-08
3.03094e-06
2.76009e-08
3.03319e-06
2.69561e-08
3.03538e-06
2.63008e-08
3.03751e-06
2.56512e-08
3.03958e-06
2.50205e-08
3.0416e-06
2.44189e-08
3.04357e-06
2.38529e-08
3.04549e-06
2.33249e-08
3.04737e-06
2.28324e-08
3.04921e-06
2.23681e-08
3.051e-06
2.19214e-08
3.05275e-06
2.1481e-08
3.05446e-06
2.10371e-08
3.05611e-06
2.05845e-08
3.0577e-06
2.01236e-08
3.05922e-06
1.9662e-08
3.06067e-06
1.92141e-08
3.06205e-06
1.88021e-08
3.06333e-06
1.84555e-08
3.06453e-06
1.82092e-08
3.06562e-06
1.81003e-08
3.0666e-06
1.81642e-08
3.06743e-06
1.84314e-08
3.06811e-06
1.89307e-08
3.0686e-06
1.96989e-08
3.06885e-06
2.07975e-08
3.06883e-06
2.23346e-08
3.06851e-06
2.44843e-08
3.06782e-06
2.75013e-08
3.06673e-06
3.17279e-08
3.06516e-06
3.75957e-08
3.06305e-06
4.5629e-08
3.06028e-06
5.64559e-08
3.0567e-06
7.08357e-08
3.05213e-06
8.97043e-08
3.04631e-06
1.14241e-07
3.03893e-06
1.45954e-07
3.02961e-06
1.86792e-07
3.01787e-06
2.39264e-07
3.0032e-06
3.06612e-07
2.98503e-06
3.92942e-07
2.96286e-06
5.03565e-07
2.93631e-06
6.44668e-07
2.9057e-06
8.25031e-07
2.87147e-06
1.0507e-06
2.83818e-06
1.3405e-06
1.67451e-06
2.80558e-06
3.00052e-06
4.0239e-09
3.00193e-06
1.14358e-08
3.00384e-06
1.70383e-08
3.00597e-06
2.06802e-08
3.00827e-06
2.31395e-08
3.01071e-06
2.49636e-08
3.01323e-06
2.61916e-08
3.01577e-06
2.68325e-08
3.0183e-06
2.70459e-08
3.02081e-06
2.6989e-08
3.02328e-06
2.67402e-08
3.0257e-06
2.63446e-08
3.02807e-06
2.58483e-08
3.03038e-06
2.52929e-08
3.03262e-06
2.47075e-08
3.03481e-06
2.41116e-08
3.03694e-06
2.35202e-08
3.03902e-06
2.29458e-08
3.04104e-06
2.23977e-08
3.04301e-06
2.1882e-08
3.04494e-06
2.1401e-08
3.04681e-06
2.09526e-08
3.04865e-06
2.05308e-08
3.05045e-06
2.01265e-08
3.0522e-06
1.97302e-08
3.0539e-06
1.93339e-08
3.05555e-06
1.89338e-08
3.05714e-06
1.85313e-08
3.05867e-06
1.81342e-08
3.06013e-06
1.77571e-08
3.06151e-06
1.74221e-08
3.06281e-06
1.71586e-08
3.06401e-06
1.7002e-08
3.06512e-06
1.69915e-08
3.06612e-06
1.71654e-08
3.06699e-06
1.75595e-08
3.06771e-06
1.82086e-08
3.06826e-06
1.91554e-08
3.06859e-06
2.04674e-08
3.06867e-06
2.22565e-08
3.06845e-06
2.47002e-08
3.0679e-06
2.80563e-08
3.06695e-06
3.26722e-08
3.06556e-06
3.89892e-08
3.06364e-06
4.75475e-08
3.0611e-06
5.89994e-08
3.05779e-06
7.41373e-08
3.05356e-06
9.39397e-08
3.04816e-06
1.19637e-07
3.04132e-06
1.52799e-07
3.03267e-06
1.95438e-07
3.0218e-06
2.50131e-07
3.00824e-06
3.20175e-07
2.99148e-06
4.097e-07
2.9711e-06
5.23949e-07
2.9468e-06
6.68968e-07
2.91894e-06
8.52896e-07
2.8881e-06
1.08153e-06
2.85831e-06
1.3703e-06
1.70259e-06
2.83022e-06
3.00048e-06
3.54706e-09
3.00178e-06
1.01296e-08
3.0036e-06
1.52201e-08
3.00567e-06
1.86079e-08
3.00792e-06
2.08901e-08
3.01032e-06
2.25641e-08
3.01281e-06
2.37042e-08
3.01533e-06
2.43167e-08
3.01784e-06
2.45321e-08
3.02033e-06
2.44939e-08
3.0228e-06
2.42792e-08
3.02521e-06
2.39298e-08
3.02757e-06
2.34866e-08
3.02988e-06
2.29876e-08
3.03212e-06
2.24602e-08
3.03431e-06
2.19227e-08
3.03644e-06
2.13889e-08
3.03852e-06
2.08701e-08
3.04054e-06
2.03751e-08
3.04252e-06
1.99095e-08
3.04444e-06
1.94755e-08
3.04632e-06
1.90715e-08
3.04816e-06
1.86925e-08
3.04996e-06
1.83309e-08
3.05171e-06
1.79788e-08
3.05341e-06
1.76301e-08
3.05506e-06
1.7282e-08
3.05666e-06
1.69369e-08
3.05819e-06
1.66031e-08
3.05965e-06
1.62952e-08
3.06104e-06
1.60351e-08
3.06234e-06
1.5852e-08
3.06356e-06
1.5782e-08
3.06469e-06
1.58654e-08
3.06571e-06
1.61433e-08
3.06662e-06
1.66559e-08
3.06738e-06
1.74436e-08
3.06798e-06
1.85556e-08
3.06838e-06
2.00651e-08
3.06855e-06
2.20892e-08
3.06844e-06
2.48088e-08
3.06801e-06
2.84852e-08
3.06721e-06
3.34705e-08
3.06599e-06
4.02138e-08
3.06427e-06
4.92689e-08
3.06196e-06
6.13089e-08
3.05894e-06
7.71555e-08
3.05506e-06
9.78253e-08
3.0501e-06
1.24596e-07
3.04381e-06
1.5909e-07
3.03586e-06
2.0338e-07
3.02589e-06
2.60103e-07
3.01347e-06
3.326e-07
2.99815e-06
4.2502e-07
2.97956e-06
5.42532e-07
2.9575e-06
6.91034e-07
2.93231e-06
8.78083e-07
2.90468e-06
1.10916e-06
2.87814e-06
1.39684e-06
1.72686e-06
2.85388e-06
3.00044e-06
3.10812e-09
3.00166e-06
8.91048e-09
3.0034e-06
1.34826e-08
3.00541e-06
1.65892e-08
3.00762e-06
1.86824e-08
3.00998e-06
2.02028e-08
3.01244e-06
2.12469e-08
3.01494e-06
2.18222e-08
3.01743e-06
2.2034e-08
3.01992e-06
2.20109e-08
3.02237e-06
2.1827e-08
3.02478e-06
2.1521e-08
3.02713e-06
2.11288e-08
3.02944e-06
2.06848e-08
3.03168e-06
2.02143e-08
3.03387e-06
1.97342e-08
3.036e-06
1.92571e-08
3.03808e-06
1.87935e-08
3.0401e-06
1.83512e-08
3.04208e-06
1.79355e-08
3.04401e-06
1.75485e-08
3.04589e-06
1.7189e-08
3.04773e-06
1.6853e-08
3.04952e-06
1.65343e-08
3.05128e-06
1.62267e-08
3.05298e-06
1.59253e-08
3.05463e-06
1.56288e-08
3.05623e-06
1.53403e-08
3.05777e-06
1.50685e-08
3.05923e-06
1.48281e-08
3.06063e-06
1.46408e-08
3.06194e-06
1.45358e-08
3.06318e-06
1.45491e-08
3.06432e-06
1.47221e-08
3.06536e-06
1.50982e-08
3.0663e-06
1.57213e-08
3.06711e-06
1.66373e-08
3.06776e-06
1.79017e-08
3.06823e-06
1.95939e-08
3.06848e-06
2.18364e-08
3.06848e-06
2.48142e-08
3.06817e-06
2.87919e-08
3.06752e-06
3.41253e-08
3.06646e-06
4.12702e-08
3.06494e-06
5.07912e-08
3.06287e-06
6.33795e-08
3.06014e-06
7.98822e-08
3.05662e-06
1.0135e-07
3.05211e-06
1.29102e-07
3.04639e-06
1.6481e-07
3.03917e-06
2.10598e-07
3.03012e-06
2.69156e-07
3.01886e-06
3.43864e-07
3.005e-06
4.3888e-07
2.98822e-06
5.59304e-07
2.96837e-06
7.10885e-07
2.9458e-06
9.00657e-07
2.92122e-06
1.13374e-06
2.8977e-06
1.42035e-06
1.74786e-06
2.8767e-06
3.00041e-06
2.69979e-09
3.00155e-06
7.76387e-09
3.00322e-06
1.18163e-08
3.00519e-06
1.46194e-08
3.00736e-06
1.65122e-08
3.00969e-06
1.78754e-08
3.01212e-06
1.88171e-08
3.01459e-06
1.93472e-08
3.01708e-06
1.95501e-08
3.01955e-06
1.95388e-08
3.02199e-06
1.93828e-08
3.0244e-06
1.91176e-08
3.02675e-06
1.87745e-08
3.02905e-06
1.8384e-08
3.0313e-06
1.79694e-08
3.03349e-06
1.75459e-08
3.03562e-06
1.7125e-08
3.03769e-06
1.6716e-08
3.03972e-06
1.63261e-08
3.0417e-06
1.59601e-08
3.04362e-06
1.562e-08
3.04551e-06
1.53051e-08
3.04735e-06
1.50123e-08
3.04915e-06
1.47368e-08
3.0509e-06
1.44736e-08
3.05261e-06
1.42194e-08
3.05426e-06
1.39739e-08
3.05586e-06
1.37411e-08
3.0574e-06
1.35301e-08
3.05887e-06
1.33557e-08
3.06027e-06
1.32393e-08
3.0616e-06
1.32098e-08
3.06284e-06
1.33033e-08
3.064e-06
1.35617e-08
3.06507e-06
1.40303e-08
3.06604e-06
1.47565e-08
3.06688e-06
1.57911e-08
3.06759e-06
1.71959e-08
3.06813e-06
1.90567e-08
3.06846e-06
2.15016e-08
3.06855e-06
2.472e-08
3.06837e-06
2.89794e-08
3.06785e-06
3.46388e-08
3.06696e-06
4.21588e-08
3.06564e-06
5.2113e-08
3.06382e-06
6.52073e-08
3.06139e-06
8.23107e-08
3.05823e-06
1.04503e-07
3.05419e-06
1.33142e-07
3.04906e-06
1.69941e-07
3.04259e-06
2.17071e-07
3.03448e-06
2.77268e-07
3.0244e-06
3.53944e-07
3.01201e-06
4.51265e-07
2.99705e-06
5.74262e-07
2.9794e-06
7.28541e-07
2.95938e-06
9.20679e-07
2.93769e-06
1.15543e-06
2.917e-06
1.44104e-06
1.76606e-06
2.8988e-06
3.00038e-06
2.31621e-09
3.00147e-06
6.67737e-09
3.00307e-06
1.02115e-08
3.005e-06
1.26939e-08
3.00714e-06
1.43752e-08
3.00943e-06
1.55778e-08
3.01184e-06
1.64117e-08
3.0143e-06
1.68898e-08
3.01677e-06
1.7079e-08
3.01923e-06
1.70764e-08
3.02167e-06
1.69456e-08
3.02407e-06
1.6719e-08
3.02642e-06
1.64233e-08
3.02872e-06
1.60852e-08
3.03096e-06
1.57254e-08
3.03315e-06
1.53578e-08
3.03528e-06
1.49925e-08
3.03736e-06
1.46376e-08
3.03939e-06
1.42998e-08
3.04136e-06
1.39833e-08
3.04329e-06
1.36901e-08
3.04518e-06
1.34199e-08
3.04702e-06
1.31705e-08
3.04882e-06
1.29381e-08
3.05057e-06
1.27194e-08
3.05228e-06
1.25121e-08
3.05394e-06
1.23172e-08
3.05554e-06
1.21393e-08
3.05708e-06
1.19879e-08
3.05856e-06
1.18778e-08
3.05997e-06
1.18304e-08
3.0613e-06
1.18741e-08
3.06256e-06
1.20446e-08
3.06374e-06
1.23844e-08
3.06483e-06
1.29401e-08
3.06582e-06
1.37623e-08
3.06671e-06
1.49064e-08
3.06746e-06
1.64403e-08
3.06806e-06
1.84562e-08
3.06848e-06
2.1088e-08
3.06867e-06
2.45293e-08
3.0686e-06
2.90506e-08
3.06822e-06
3.5013e-08
3.0675e-06
4.28803e-08
3.06638e-06
5.32329e-08
3.0648e-06
6.67886e-08
3.06268e-06
8.44348e-08
3.0599e-06
1.07277e-07
3.05634e-06
1.36704e-07
3.05181e-06
1.74469e-07
3.0461e-06
2.22783e-07
3.03895e-06
2.8442e-07
3.03007e-06
3.62822e-07
3.01918e-06
4.62158e-07
3.00604e-06
5.87399e-07
2.99056e-06
7.44023e-07
2.97303e-06
9.38207e-07
2.95411e-06
1.17435e-06
2.93605e-06
1.4591e-06
1.78181e-06
2.9203e-06
3.00036e-06
1.9526e-09
3.0014e-06
5.64031e-09
3.00295e-06
8.65937e-09
3.00484e-06
1.08074e-08
3.00695e-06
1.22674e-08
3.00922e-06
1.33059e-08
3.0116e-06
1.40279e-08
3.01404e-06
1.44481e-08
3.0165e-06
1.46191e-08
3.01896e-06
1.46225e-08
3.02139e-06
1.45148e-08
3.02378e-06
1.43248e-08
3.02613e-06
1.40749e-08
3.02843e-06
1.37881e-08
3.03067e-06
1.34823e-08
3.03286e-06
1.31699e-08
3.03499e-06
1.28595e-08
3.03707e-06
1.25585e-08
3.0391e-06
1.22724e-08
3.04108e-06
1.20052e-08
3.04301e-06
1.17588e-08
3.0449e-06
1.15334e-08
3.04674e-06
1.13274e-08
3.04854e-06
1.11383e-08
3.05029e-06
1.09639e-08
3.052e-06
1.08034e-08
3.05366e-06
1.06585e-08
3.05527e-06
1.05347e-08
3.05681e-06
1.04418e-08
3.0583e-06
1.03946e-08
3.05971e-06
1.04142e-08
3.06106e-06
1.05286e-08
3.06233e-06
1.07733e-08
3.06352e-06
1.11905e-08
3.06463e-06
1.18282e-08
3.06566e-06
1.27395e-08
3.06658e-06
1.39844e-08
3.06738e-06
1.56366e-08
3.06804e-06
1.77947e-08
3.06853e-06
2.05983e-08
3.06882e-06
2.42452e-08
3.06886e-06
2.90082e-08
3.06862e-06
3.52497e-08
3.06807e-06
4.34353e-08
3.06715e-06
5.415e-08
3.06582e-06
6.81206e-08
3.064e-06
8.62494e-08
3.06162e-06
1.09664e-07
3.05854e-06
1.39779e-07
3.05463e-06
1.78382e-07
3.04969e-06
2.27718e-07
3.04352e-06
2.90596e-07
3.03586e-06
3.70482e-07
3.02647e-06
4.71548e-07
3.01515e-06
5.98715e-07
3.00183e-06
7.57347e-07
2.98675e-06
9.5329e-07
2.97047e-06
1.19063e-06
2.9549e-06
1.47467e-06
1.79539e-06
2.94131e-06
3.00035e-06
1.60496e-09
3.00134e-06
4.64342e-09
3.00285e-06
7.15131e-09
3.00471e-06
8.95466e-09
3.00679e-06
1.01847e-08
3.00904e-06
1.10559e-08
3.0114e-06
1.16625e-08
3.01383e-06
1.20199e-08
3.01628e-06
1.21688e-08
3.01873e-06
1.21758e-08
3.02115e-06
1.20894e-08
3.02354e-06
1.19342e-08
3.02589e-06
1.17289e-08
3.02819e-06
1.14923e-08
3.03043e-06
1.12399e-08
3.03262e-06
1.09821e-08
3.03475e-06
1.07263e-08
3.03683e-06
1.04786e-08
3.03886e-06
1.0244e-08
3.04084e-06
1.00259e-08
3.04277e-06
9.82637e-09
3.04466e-06
9.6457e-09
3.0465e-06
9.48315e-09
3.0483e-06
9.33733e-09
3.05006e-06
9.20718e-09
3.05177e-06
9.09303e-09
3.05343e-06
8.99766e-09
3.05504e-06
8.92715e-09
3.05659e-06
8.89159e-09
3.05808e-06
8.90588e-09
3.0595e-06
8.99074e-09
3.06086e-06
9.17366e-09
3.06214e-06
9.4895e-09
3.06335e-06
9.98038e-09
3.06448e-06
1.06951e-08
3.06553e-06
1.1689e-08
3.06649e-06
1.30265e-08
3.06734e-06
1.47867e-08
3.06806e-06
1.70746e-08
3.06862e-06
2.00353e-08
3.069e-06
2.38704e-08
3.06915e-06
2.88547e-08
3.06905e-06
3.53508e-08
3.06866e-06
4.38248e-08
3.06795e-06
5.48638e-08
3.06687e-06
6.9201e-08
3.06537e-06
8.77504e-08
3.06337e-06
1.11656e-07
3.06079e-06
1.42358e-07
3.05751e-06
1.81669e-07
3.05336e-06
2.31865e-07
3.04818e-06
2.95783e-07
3.04175e-06
3.76909e-07
3.03387e-06
4.79424e-07
3.02438e-06
6.08205e-07
3.0132e-06
7.68531e-07
3.00052e-06
9.65973e-07
2.98679e-06
1.20435e-06
2.97356e-06
1.4879e-06
1.80705e-06
2.96191e-06
3.00034e-06
1.2699e-09
3.0013e-06
3.67852e-09
3.00277e-06
5.67923e-09
3.0046e-06
7.13012e-09
3.00666e-06
8.12295e-09
3.00889e-06
8.82387e-09
3.01124e-06
9.31245e-09
3.01366e-06
9.60319e-09
3.0161e-06
9.72671e-09
3.01854e-06
9.73529e-09
3.02096e-06
9.66857e-09
3.02335e-06
9.54683e-09
3.02569e-06
9.38484e-09
3.02799e-06
9.19776e-09
3.03023e-06
8.9981e-09
3.03242e-06
8.79436e-09
3.03455e-06
8.59265e-09
3.03663e-06
8.39804e-09
3.03866e-06
8.21471e-09
3.04064e-06
8.04568e-09
3.04257e-06
7.89278e-09
3.04446e-06
7.75681e-09
3.04631e-06
7.63772e-09
3.04811e-06
7.53511e-09
3.04987e-06
7.44907e-09
3.05158e-06
7.38102e-09