/*--------------------------------*- C++ -*----------------------------------*\
| =========                 |                                                 |
| \\      /  F ield         | OpenFOAM: The Open Source CFD Toolbox           |
|  \\    /   O peration     | Version:  2.4.0                                 |
|   \\  /    A nd           | Web:      www.OpenFOAM.org                      |
|    \\/     M anipulation  |                                                 |
\*---------------------------------------------------------------------------*/
FoamFile
{
    version     2.0;
    format      ascii;
    class       volScalarField;
    location    "2.63";
    object      k;
}
// * * * * * * * * * * * * * * * * * * * * * * * * * * * * * * * * * * * * * //

dimensions      [0 2 -2 0 0 0 0];

internalField   nonuniform List<scalar> 
6000
(
0.0117116
0.0065701
0.00176207
0.000432193
0.000142252
0.000317618
0.000184907
0.000300017
0.000406496
0.000715446
0.00109862
0.00157219
0.00220644
0.00349127
0.00448768
0.00451885
0.00403981
0.00293978
0.00197159
0.00196612
0.00279877
0.00360685
0.00537096
0.0068551
0.00774478
0.00814328
0.008208
0.00805887
0.00778905
0.0074305
0.00700098
0.00650817
0.00594972
0.00531371
0.0045816
0.00373384
0.0028469
0.00253797
0.00227667
0.0021199
0.00209911
0.00216985
0.00221922
0.0022146
0.00218745
0.00217306
0.00218911
0.00224115
0.00233142
0.0024627
0.00263711
0.00286025
0.0031461
0.00351207
0.00397155
0.00456337
0.00527821
0.0063001
0.00732853
0.0094742
0.0120369
0.0117322
0.00208607
0.000695325
0.000179365
0.000303045
0.000396666
0.000531536
0.000794988
0.00123656
0.00188363
0.00285254
0.0043269
0.0067729
0.00762368
0.00634518
0.00458543
0.00374782
0.00313924
0.0031615
0.00742781
0.00980338
0.00775689
0.00685405
0.00707361
0.00754293
0.00803791
0.00850189
0.00887003
0.00915129
0.00933849
0.00941384
0.00934162
0.00906333
0.00849995
0.00755652
0.00618779
0.00503248
0.00393648
0.00297505
0.00221027
0.00166381
0.00135372
0.00122471
0.0011808
0.00115373
0.00111885
0.00108134
0.00105315
0.00104249
0.00105412
0.00108738
0.00114253
0.00122255
0.0013336
0.00147877
0.00167762
0.00191241
0.00226417
0.00266824
0.0115677
0.0151792
0.00287658
0.000666253
0.000247915
0.000367754
0.000520905
0.000691139
0.00103464
0.00157805
0.00238112
0.00357207
0.0053678
0.00822457
0.00925469
0.00764281
0.00563433
0.00420781
0.00349291
0.00469213
0.0105244
0.00930457
0.00721354
0.0077064
0.00862283
0.00939513
0.0100614
0.0106508
0.0111318
0.0115088
0.0117745
0.0119083
0.0118667
0.0115755
0.0109323
0.0098086
0.00815678
0.00667356
0.00522431
0.00391426
0.00283073
0.00200516
0.00141674
0.00104126
0.000817133
0.000686502
0.000608402
0.00055999
0.000530251
0.00051357
0.000505814
0.000505445
0.00051184
0.000525976
0.000550128
0.000583629
0.000634756
0.000688422
0.000785516
0.00084319
0.0114634
0.0160782
0.00399517
0.000562232
0.000310156
0.00042609
0.00061054
0.000812751
0.00121157
0.00183207
0.0027387
0.00405731
0.00601367
0.00898343
0.0101327
0.00836927
0.00630903
0.0047925
0.00412765
0.00644537
0.0115129
0.00859104
0.00790137
0.00917725
0.010288
0.0111597
0.0119016
0.0125453
0.0130667
0.0134692
0.0137475
0.0138824
0.0138282
0.0135034
0.0127921
0.0115398
0.0097261
0.00803601
0.00634238
0.00477936
0.00345907
0.00242972
0.00167797
0.00116587
0.000831692
0.000620009
0.000489001
0.000409522
0.000362331
0.000335077
0.000320028
0.000313745
0.000314153
0.000319907
0.000330731
0.000345809
0.000367117
0.000391184
0.000429844
0.000473324
0.0113761
0.0157698
0.0053083
0.00053145
0.000364403
0.000476919
0.000681195
0.000912321
0.00135289
0.00203338
0.00301256
0.00440786
0.00643146
0.00933819
0.0105242
0.00871044
0.00669894
0.00527837
0.00486599
0.0081778
0.0113561
0.0084023
0.00897619
0.0106059
0.0118434
0.0128082
0.0136174
0.0142979
0.0148332
0.0152294
0.0154854
0.0155868
0.0154911
0.0151151
0.0143372
0.0129804
0.0110824
0.00925463
0.00738208
0.00561866
0.00409668
0.00288543
0.00198638
0.00135988
0.000940427
0.000666746
0.000493098
0.000386472
0.000323457
0.000288116
0.000270324
0.00026431
0.000266752
0.000275348
0.00028905
0.000307077
0.000330685
0.000359085
0.000403042
0.000469585
0.0113032
0.0149429
0.0067065
0.000674321
0.000413738
0.000522529
0.00073955
0.000996446
0.00146933
0.00219661
0.00322559
0.00466022
0.00668434
0.00942061
0.0105608
0.00876394
0.00687743
0.00564175
0.00562333
0.00955021
0.0108567
0.00865165
0.010105
0.0119746
0.0133432
0.0144075
0.0152767
0.0159776
0.016502
0.0168612
0.0170605
0.017094
0.0169265
0.0164787
0.0156286
0.01418
0.0122619
0.0103457
0.00834825
0.00642976
0.00473694
0.00336031
0.00232012
0.00158336
0.0010828
0.000751479
0.000538399
0.000406275
0.000327934
0.000284322
0.000262946
0.000256319
0.000260088
0.000271367
0.000288792
0.000311369
0.000341212
0.00037627
0.000435653
0.000516443
0.0112434
0.0139426
0.00774112
0.00120675
0.000467443
0.000565182
0.000790038
0.00106931
0.00156722
0.0023304
0.00339111
0.00483595
0.00681392
0.00932644
0.0103525
0.0086111
0.00689698
0.00589924
0.00636617
0.0104874
0.010396
0.00916673
0.0112214
0.0133057
0.0148174
0.0159831
0.016902
0.0176044
0.0180927
0.0183846
0.0184942
0.0184267
0.0181583
0.0176176
0.0166871
0.0151605
0.013265
0.0113033
0.00922918
0.00719879
0.0053668
0.00384302
0.00266954
0.00182526
0.00124434
0.000855332
0.00060214
0.00044344
0.000348568
0.000295443
0.000269296
0.000260918
0.000264838
0.000277671
0.000297891
0.000324187
0.000359909
0.000400435
0.000475721
0.000563489
0.0111888
0.0129401
0.00844387
0.00212435
0.000547237
0.000607631
0.000836345
0.00113446
0.0016516
0.00244163
0.00351983
0.0049532
0.00685673
0.00913442
0.0100009
0.00832356
0.00680116
0.00607444
0.00707992
0.0110552
0.0100854
0.00981653
0.0123177
0.0146116
0.0162751
0.0175391
0.0184947
0.0191792
0.0196067
0.019803
0.0197924
0.0195939
0.0191978
0.0185439
0.017523
0.0159356
0.0140872
0.0121179
0.0100106
0.00791023
0.00597247
0.0043226
0.00302589
0.00207804
0.00141806
0.000971492
0.000677297
0.00049047
0.00037741
0.000313295
0.000281015
0.000269652
0.000272679
0.000286049
0.000307976
0.000336854
0.000377063
0.000421744
0.000509653
0.000600728
0.011136
0.012015
0.00886283
0.00322749
0.00069669
0.00065384
0.000881813
0.00119522
0.00172718
0.0025368
0.00362215
0.00503038
0.0068475
0.00890605
0.00959857
0.00795904
0.00662772
0.0061921
0.00775812
0.0113368
0.00993331
0.0105252
0.0133944
0.0158968
0.0177158
0.0190709
0.0200491
0.0206967
0.0210407
0.021116
0.0209584
0.0206022
0.0200547
0.0192692
0.018147
0.0165169
0.0147283
0.0127824
0.0106806
0.0085503
0.00654137
0.00478932
0.00338197
0.00233583
0.00159888
0.00109572
0.000760543
0.000544666
0.000412044
0.000335581
0.000295993
0.000280647
0.000281833
0.000294774
0.000317355
0.000347708
0.000390936
0.000438544
0.000535617
0.00062792
0.0110858
0.0111988
0.00904545
0.0043461
0.000997747
0.000710292
0.000929646
0.00125472
0.00179852
0.00262238
0.00370857
0.00508605
0.00681851
0.0086881
0.00921789
0.00755996
0.00640827
0.00627606
0.00839558
0.0114009
0.0099168
0.0112556
0.0144515
0.0171614
0.0191348
0.0205717
0.0215581
0.0221511
0.0223917
0.0223241
0.0219963
0.0214598
0.0207404
0.0198068
0.0185721
0.0169184
0.0151927
0.0132941
0.011231
0.00910812
0.00706272
0.00523463
0.00373175
0.00259409
0.00178294
0.00122474
0.000849463
0.000604489
0.000451526
0.000361678
0.00031379
0.000293562
0.00029207
0.000303731
0.000326021
0.000356822
0.000401673
0.000451057
0.000554015
0.000646211
0.0110394
0.010498
0.00904127
0.0053372
0.00155646
0.000788599
0.000983227
0.00131568
0.00186986
0.00270461
0.00378924
0.00513777
0.00679779
0.00851632
0.00890498
0.00716073
0.00616982
0.00634743
0.00898178
0.011302
0.0100085
0.0119907
0.0154883
0.0184031
0.0205265
0.0220347
0.0230157
0.0235385
0.0236584
0.0234293
0.0229122
0.0221765
0.0212682
0.0201724
0.0188146
0.0171568
0.0154891
0.0136545
0.0116577
0.00957587
0.00752768
0.005651
0.00406998
0.00284918
0.00196729
0.00135594
0.000941986
0.000668638
0.000495223
0.000391385
0.000334449
0.000308601
0.000303711
0.000313348
0.000334504
0.000364819
0.000410031
0.000460093
0.000566043
0.000657101
0.0109971
0.00990661
0.0088987
0.00614476
0.00228892
0.000909546
0.00104663
0.00138037
0.00194474
0.0027891
0.0038733
0.00520066
0.00680743
0.00841479
0.00868432
0.00680009
0.00593784
0.00642313
0.00947017
0.0111147
0.0101842
0.0127223
0.0165032
0.0196187
0.0218856
0.0234544
0.0244177
0.0248567
0.0248413
0.0244355
0.0237133
0.0227631
0.0216522
0.020383
0.0188929
0.0172507
0.0156294
0.0138693
0.0119602
0.00994873
0.00792934
0.00603189
0.00439194
0.00309799
0.00214964
0.00148724
0.00103629
0.000735823
0.000542461
0.000424498
0.000358067
0.000326045
0.000317162
0.000324129
0.000343416
0.000372417
0.000416878
0.00046659
0.000573072
0.000662095
0.0109591
0.00941333
0.00866142
0.0067481
0.0031038
0.00111097
0.00112573
0.00145067
0.00202567
0.00288034
0.00396802
0.00528615
0.00686256
0.00839731
0.00856405
0.00652618
0.00573703
0.00651558
0.00983538
0.0108964
0.0104238
0.0134461
0.0174947
0.0208051
0.0232076
0.0248269
0.0257614
0.026105
0.0259423
0.0253473
0.0244074
0.023231
0.0219071
0.020456
0.0188351
0.0172116
0.0156274
0.0139469
0.0121413
0.0102247
0.0082628
0.00637176
0.00469329
0.00333768
0.00232807
0.00161699
0.00113077
0.000804734
0.000592408
0.000460637
0.00038458
0.000346034
0.000332691
0.000336446
0.000353237
0.000380209
0.000422983
0.000471413
0.000576413
0.000662588
0.0109251
0.00900523
0.00836623
0.0071513
0.00390689
0.00146254
0.00123041
0.00152843
0.00211386
0.00298123
0.00407822
0.00540127
0.00697132
0.00846953
0.00855564
0.00636763
0.00558661
0.00663268
0.0100764
0.0106801
0.0107117
0.0141595
0.0184611
0.0219594
0.024489
0.0261495
0.0270456
0.0272839
0.0269638
0.0261698
0.0250025
0.0235909
0.0220469
0.0204081
0.0186678
0.0170535
0.0154986
0.0138985
0.0122066
0.0104042
0.00852505
0.00666622
0.00497018
0.0035656
0.00250088
0.00174386
0.0012241
0.000874091
0.00064408
0.000499182
0.000413665
0.000368446
0.000350306
0.000350411
0.000364193
0.000388549
0.000428885
0.000475238
0.000577183
0.000659792
0.0108951
0.0086696
0.00804231
0.00737297
0.00464902
0.00198955
0.00137693
0.00161621
0.00220933
0.00309289
0.00420602
0.00554851
0.00713564
0.00863106
0.00866454
0.00633617
0.0054944
0.00677788
0.0102009
0.0104846
0.0110362
0.0148604
0.019401
0.023079
0.025727
0.0274203
0.0282696
0.0283944
0.0279088
0.0269078
0.0255058
0.023853
0.0220848
0.0202549
0.018414
0.016793
0.0152595
0.013737
0.0121638
0.01049
0.00871494
0.00691203
0.00521924
0.00377927
0.00266652
0.00186672
0.00131515
0.000942709
0.000696399
0.000539302
0.000444733
0.000392869
0.000369721
0.000365842
0.000376216
0.000397504
0.000434844
0.000478491
0.000576228
0.00065468
0.0108686
0.00839479
0.00771164
0.00743955
0.00529585
0.00265704
0.00159165
0.00171844
0.00231113
0.00321466
0.00435081
0.00572624
0.00735235
0.00887713
0.00888914
0.00642748
0.00545413
0.00695127
0.0102157
0.0103204
0.011388
0.0155471
0.020313
0.0241617
0.0269197
0.028638
0.0294335
0.0294377
0.0287799
0.0275657
0.0259238
0.0240265
0.0220326
0.0200112
0.018094
0.0164468
0.0149266
0.0134764
0.0120226
0.0104868
0.00883305
0.00710718
0.00543776
0.00397635
0.00282355
0.00198465
0.00140304
0.00100956
0.000748287
0.000580027
0.000476978
0.000418644
0.000390393
0.000382296
0.000388975
0.000406876
0.000440842
0.000481341
0.000574101
0.000647963
0.0108453
0.0081706
0.00738982
0.00738079
0.00582257
0.00339406
0.00191725
0.00184304
0.00241812
0.00334439
0.00450964
0.00592949
0.00761455
0.00919999
0.00922363
0.00662658
0.00544857
0.00715284
0.0101201
0.0101934
0.0117604
0.0162184
0.0211955
0.0252056
0.0280651
0.0298017
0.0305372
0.030415
0.0295795
0.0281475
0.0262624
0.0241193
0.0219009
0.0196954
0.0177207
0.0160306
0.0145161
0.0131313
0.0117941
0.010401
0.00888148
0.00725083
0.00562307
0.00415472
0.00297061
0.00209682
0.00148708
0.00107379
0.000798748
0.000620347
0.000509471
0.000444944
0.000411599
0.000399149
0.000401951
0.00041627
0.000446647
0.00048373
0.000571077
0.000640092
0.010825
0.00798825
0.00708718
0.00722668
0.00621554
0.00413203
0.00238232
0.00200379
0.00252989
0.00347893
0.00467773
0.00615087
0.00791268
0.00958976
0.00966028
0.00692345
0.00545378
0.00732538
0.00994494
0.010107
0.0121478
0.0168731
0.0220473
0.0262088
0.0291617
0.0309106
0.0315807
0.0313271
0.0303095
0.0286562
0.0265261
0.0241383
0.0216987
0.0193303
0.0172996
0.0155583
0.0140431
0.0127163
0.01149
0.0102402
0.00886372
0.00734328
0.00577315
0.00431269
0.00310653
0.00220252
0.00156675
0.00113478
0.000846941
0.000659307
0.000541258
0.000470878
0.000432532
0.000415688
0.00041453
0.000425183
0.000451889
0.000485448
0.00056721
0.000631298
0.0108073
0.00784034
0.00680991
0.00700527
0.00647183
0.00482082
0.00297177
0.00222339
0.00264822
0.00361488
0.00484921
0.00638146
0.00823543
0.010035
0.0101912
0.00731222
0.00547122
0.00741368
0.0097249
0.0100635
0.012546
0.0175101
0.0228671
0.0271697
0.030208
0.0319636
0.0325637
0.0321745
0.0309713
0.0290942
0.0267189
0.0240892
0.0214337
0.0189334
0.0168382
0.015042
0.0135217
0.0122457
0.0111227
0.0100132
0.00878441
0.00738584
0.00588786
0.00444905
0.00323028
0.00230113
0.00164163
0.00119206
0.000892215
0.000696084
0.000571451
0.000495575
0.000452389
0.000431196
0.000426086
0.000433088
0.000456147
0.000486203
0.00056241
0.000621649
0.0107919
0.0077207
0.00656106
0.00674133
0.00659765
0.00542287
0.00363545
0.00253701
0.00277894
0.00374953
0.00501779
0.00661166
0.00857042
0.010523
0.0108088
0.00779542
0.00548196
0.00741748
0.00948848
0.0100642
0.0129511
0.0181285
0.0236534
0.0280864
0.0312024
0.0329597
0.0334856
0.0329573
0.0315655
0.0294632
0.0268437
0.0239767
0.0211127
0.0185186
0.0163441
0.0144924
0.0129645
0.0117328
0.0107046
0.00972921
0.00864916
0.00738077
0.00596738
0.00456297
0.003341
0.0023921
0.00171144
0.00124537
0.000934122
0.00073004
0.000599299
0.000518264
0.000470444
0.000445021
0.00043605
0.000439499
0.000459023
0.000485698
0.000556517
0.000611117
0.0107785
0.00762419
0.00634145
0.00645558
0.00660626
0.00591233
0.0043242
0.00297146
0.00293449
0.00388199
0.00517766
0.00683189
0.00890464
0.0110398
0.0115053
0.00838189
0.0055039
0.0073544
0.00925904
0.0101096
0.01336
0.0187273
0.0244049
0.0289574
0.0321431
0.0338974
0.0343454
0.0336748
0.0320923
0.0297642
0.0269028
0.0238051
0.0207538
0.0180847
0.0158241
0.0139186
0.0123827
0.0111901
0.0102475
0.00939814
0.00846434
0.00733112
0.00601246
0.00465401
0.00343805
0.00247499
0.00177595
0.00129454
0.000972414
0.000760746
0.000624237
0.000538328
0.000486101
0.000456628
0.000443957
0.000444023
0.000460189
0.000483679
0.000549372
0.000599639
0.0107669
0.0075466
0.00615037
0.00616451
0.00651568
0.00627405
0.00499271
0.00352719
0.00313763
0.00401456
0.00532428
0.0070332
0.00922486
0.0115704
0.0122716
0.00908287
0.00557615
0.00725185
0.00905554
0.0102001
0.01377
0.0193054
0.02512
0.0297807
0.0330284
0.034775
0.0351417
0.0343261
0.0325512
0.0299976
0.026898
0.0235773
0.0203745
0.0176298
0.0152837
0.0133285
0.011786
0.0106288
0.00976308
0.00902978
0.00823685
0.00724061
0.00602443
0.00472213
0.00352097
0.00254942
0.001835
0.00133956
0.00100701
0.000787984
0.000645914
0.000555346
0.000498936
0.000465633
0.000449482
0.000446391
0.000459426
0.000479976
0.000540861
0.000587162
0.0107568
0.00748445
0.00598612
0.00588051
0.00634645
0.00650266
0.00560191
0.00417454
0.00341545
0.00415714
0.00545551
0.00720793
0.00951801
0.0120985
0.0130965
0.00990789
0.00574363
0.00714088
0.00889312
0.0103354
0.0141785
0.0198617
0.0257971
0.0305543
0.033856
0.0355906
0.0358727
0.0349099
0.0329414
0.0301633
0.0268306
0.0232963
0.0199876
0.0171548
0.0147276
0.0127287
0.0111828
0.0100589
0.0092619
0.00863382
0.0079739
0.00711347
0.00600517
0.00476768
0.00358952
0.00261514
0.00188847
0.00138044
0.00103798
0.000811732
0.000664199
0.000569111
0.000508722
0.000471831
0.000452456
0.000446473
0.000456638
0.000474522
0.000530943
0.000573678
0.0107481
0.00743488
0.00584646
0.00561228
0.00611967
0.00660146
0.00612024
0.0048686
0.00378906
0.00432105
0.0055797
0.00735023
0.00977164
0.012607
0.0139659
0.0108618
0.00604762
0.00705189
0.00878347
0.0105147
0.0145834
0.020395
0.0264345
0.0312763
0.0346237
0.0363419
0.0365361
0.0354241
0.0332614
0.030261
0.0267017
0.0229782
0.0195888
0.0166616
0.0141602
0.0121249
0.0105804
0.00948905
0.00875367
0.00821956
0.00768287
0.0069543
0.00595696
0.0047914
0.00364373
0.002672
0.00193631
0.00141727
0.00106547
0.000832131
0.00067916
0.00057963
0.000515435
0.000475201
0.000452876
0.000444286
0.000451854
0.000467358
0.00051967
0.000559244
0.0107405
0.00739556
0.00572887
0.00536542
0.00585539
0.00658098
0.00652448
0.00556062
0.00426875
0.00451983
0.00570463
0.00746506
0.00997446
0.0130781
0.0148625
0.0119429
0.00652085
0.00701229
0.00873542
0.0107365
0.0149829
0.020904
0.0270304
0.0319443
0.0353289
0.037026
0.0371293
0.0358664
0.0335097
0.0302899
0.026512
0.0226409
0.0191716
0.016152
0.0135851
0.0115222
0.00998487
0.00892686
0.00824702
0.00779568
0.00737103
0.00676788
0.0058825
0.00479439
0.00368382
0.00271998
0.00197852
0.00145016
0.00108972
0.000849446
0.000691041
0.000587107
0.000519247
0.000475902
0.000450901
0.000439985
0.00044523
0.000458629
0.000507178
0.000543978
0.010734
0.00736458
0.00563077
0.005143
0.00557145
0.00645726
0.00680031
0.00620517
0.00484645
0.00477012
0.00583654
0.00756868
0.0101169
0.0134934
0.015766
0.0131428
0.00718506
0.00704566
0.00875536
0.010999
0.0153753
0.0213873
0.0275828
0.032556
0.0359687
0.03764
0.0376494
0.0362344
0.0336841
0.0302494
0.0262656
0.022294
0.0187337
0.0156282
0.0130057
0.0109247
0.00940159
0.00837865
0.00774945
0.00737014
0.00704543
0.00655906
0.00578482
0.00477807
0.00371025
0.00275915
0.00201513
0.00147925
0.00111098
0.000864018
0.00070021
0.000591902
0.000520496
0.000474251
0.000446827
0.00043385
0.000437025
0.000448569
0.000493681
0.000528061
0.0107283
0.00734039
0.00554967
0.00494616
0.00528277
0.00624994
0.00694235
0.00676373
0.00549435
0.00508876
0.0059847
0.00766662
0.0102082
0.0138349
0.0166532
0.0144463
0.00804997
0.00717186
0.00884771
0.0112997
0.0157596
0.0218437
0.0280898
0.0331087
0.03654
0.0381806
0.0380929
0.036525
0.0337824
0.0301385
0.0259844
0.0219267
0.0182747
0.0150923
0.012425
0.0103363
0.00883495
0.00784975
0.00726734
0.00695001
0.00671273
0.00633243
0.00566728
0.00474418
0.00372371
0.00278974
0.00204623
0.00150468
0.00112951
0.000876225
0.000707113
0.000594487
0.000519645
0.000470687
0.000441064
0.000426255
0.000427581
0.000437485
0.000479455
0.000511721
0.0107234
0.00732169
0.00548323
0.00477463
0.0050011
0.00598027
0.00695374
0.00720642
0.00617021
0.00548802
0.00616102
0.00776416
0.0102707
0.0140857
0.0174982
0.015833
0.00911377
0.00740757
0.00901518
0.011636
0.0161353
0.0222722
0.0285493
0.0335995
0.0370393
0.0386438
0.0384561
0.0367349
0.0338024
0.0299588
0.0256826
0.0215336
0.0177952
0.0145464
0.0118459
0.00976036
0.00828869
0.00734449
0.00680598
0.00654145
0.00637906
0.00609449
0.00553372
0.0046947
0.00372502
0.00281205
0.00207196
0.00152659
0.00114556
0.000886441
0.000712223
0.000595385
0.000517227
0.00046572
0.000434086
0.000417632
0.000417289
0.000425723
0.00046481
0.000495214
0.0107191
0.00730745
0.00542934
0.00462716
0.00473499
0.00566939
0.00684517
0.00751286
0.00682563
0.00596978
0.00637896
0.00786875
0.0103245
0.0142392
0.0182731
0.0172777
0.0103648
0.00776679
0.00925919
0.0120055
0.0165029
0.0226721
0.0289589
0.0340253
0.0374628
0.0390254
0.0387349
0.0368609
0.0337416
0.0297321
0.0253506
0.0211122
0.0172961
0.0139928
0.0112712
0.00919977
0.00776591
0.00686633
0.00636961
0.00614965
0.00604992
0.00585133
0.0053877
0.00463163
0.00371518
0.00282649
0.0020925
0.00154512
0.00115935
0.000895008
0.00071599
0.00059512
0.000513787
0.000459882
0.000426388
0.000408431
0.000406557
0.000413644
0.000450066
0.000478804
0.0107154
0.0072968
0.00538609
0.00450194
0.00449013
0.00533681
0.00663332
0.00767249
0.00741354
0.00652105
0.00665144
0.00798964
0.010373
0.014311
0.0189486
0.0187515
0.0117841
0.00826111
0.00958017
0.0124065
0.0168648
0.0230435
0.0293163
0.0343824
0.037806
0.0393205
0.0389248
0.0368992
0.0336087
0.0294647
0.0249833
0.0206622
0.0167793
0.0134336
0.0107034
0.00865714
0.00726919
0.00641797
0.00596152
0.00577883
0.0057301
0.00560646
0.00523243
0.00455705
0.00369523
0.00283353
0.00210807
0.00156043
0.00117107
0.000902214
0.000718811
0.000594165
0.000509833
0.000453673
0.000418441
0.000399083
0.000395773
0.000401594
0.000435533
0.000462746
0.0107121
0.00728905
0.0053518
0.00439683
0.00426975
0.00499941
0.00633904
0.00768442
0.00789341
0.00711309
0.0069876
0.00813714
0.0104215
0.0143242
0.0194942
0.0202221
0.0133481
0.00889995
0.00997824
0.0128385
0.0172267
0.0233878
0.029619
0.0346664
0.0380638
0.0395235
0.0390207
0.0368517
0.0334161
0.0291518
0.0245784
0.0201839
0.0162464
0.0128712
0.0101449
0.00813477
0.00680055
0.00600138
0.0055841
0.00543229
0.00542367
0.00536369
0.00507105
0.00447303
0.00366633
0.00283375
0.00211895
0.00157267
0.00118088
0.000908287
0.000721003
0.000592908
0.00050579
0.000447518
0.00041065
0.000389958
0.000385277
0.000389877
0.000421482
0.000447266
0.0107093
0.00728362
0.00532501
0.00430954
0.00407513
0.00467078
0.00598524
0.00755677
0.00823449
0.00770496
0.00738883
0.0083214
0.0104772
0.0143136
0.0198797
0.0216533
0.0150305
0.00969056
0.0104541
0.0133043
0.0176014
0.0237085
0.0298641
0.0348721
0.0382302
0.0396282
0.0390233
0.0367263
0.0331623
0.0287907
0.0241349
0.0196787
0.0156996
0.0123079
0.00959786
0.00763462
0.0063616
0.00561797
0.00523901
0.00511248
0.00513395
0.00512651
0.00490651
0.00438162
0.00362968
0.00282775
0.00212545
0.00158201
0.00118891
0.000913391
0.000722793
0.000591635
0.000501979
0.000441744
0.000403327
0.000381351
0.000375338
0.00037874
0.000408133
0.000432549
0.0107068
0.00728002
0.00530447
0.00423786
0.00390606
0.00436104
0.00559494
0.00730543
0.00841744
0.00824986
0.00784512
0.0085504
0.0105476
0.0142828
0.0201083
0.0230052
0.0168038
0.0106379
0.0110102
0.0138114
0.017988
0.0239969
0.0300522
0.0350014
0.0383059
0.0396368
0.0389359
0.0365246
0.0328469
0.0283803
0.0236534
0.0191485
0.0151413
0.0117459
0.00906448
0.00715838
0.00595353
0.00526859
0.00492725
0.00482109
0.00486355
0.00489795
0.00474154
0.00428482
0.0035865
0.0028162
0.00212789
0.00158863
0.00119526
0.000917633
0.000724324
0.000590525
0.000498608
0.000436567
0.000396683
0.000373461
0.000366145
0.000368359
0.000395647
0.000418731
0.0107046
0.00727788
0.00528908
0.00417964
0.00376133
0.00407697
0.00518951
0.00695231
0.00843485
0.00870202
0.00833339
0.00882748
0.0106397
0.0142362
0.020191
0.0242329
0.0186393
0.0117435
0.0116525
0.0143668
0.018373
0.0242524
0.0301848
0.0350561
0.0382939
0.0395529
0.0387616
0.0362478
0.0324699
0.0279208
0.0231353
0.0185954
0.0145736
0.0111875
0.00854664
0.00670747
0.00557716
0.0049537
0.00464927
0.00455915
0.00461441
0.00468053
0.00457861
0.00418453
0.00353802
0.0027998
0.00212665
0.00159271
0.00120003
0.000921077
0.000725664
0.000589663
0.000495776
0.000432094
0.000390831
0.000366399
0.000357808
0.00035884
0.000384121
0.000405895
0.0107027
0.00727687
0.00527792
0.00413294
0.00363904
0.00382242
0.00478732
0.00652316
0.0082909
0.00902246
0.0088188
0.00914845
0.0107585
0.0141792
0.0201503
0.0252854
0.0205066
0.0130038
0.0123914
0.0149569
0.0187568
0.0244754
0.0302636
0.0350388
0.0381974
0.0393801
0.0385032
0.0358976
0.0320321
0.027413
0.0225826
0.018022
0.0139991
0.0106349
0.00804612
0.00628301
0.005233
0.00467339
0.00440511
0.00432713
0.0043879
0.00447629
0.00441989
0.00408255
0.00348545
0.00277924
0.00212211
0.00159444
0.00120331
0.000923753
0.000726821
0.000589056
0.000493494
0.000428344
0.000385794
0.000360196
0.000350364
0.000350226
0.000373594
0.000394077
0.010701
0.00727674
0.0052702
0.00409599
0.00353699
0.00359884
0.00440297
0.00604524
0.00800019
0.00918308
0.00925885
0.00949948
0.0109051
0.0141168
0.0200241
0.026108
0.0223709
0.0144066
0.0132422
0.0155642
0.0191396
0.0246666
0.0302905
0.0349519
0.0380199
0.0391218
0.0381635
0.0354759
0.0315349
0.026859
0.0219978
0.0174311
0.0134203
0.01009
0.00756447
0.0058859
0.00492132
0.00442752
0.00419452
0.00412509
0.00418484
0.00428683
0.00426724
0.00398049
0.00342995
0.00275525
0.00211467
0.00159404
0.00120519
0.000925673
0.000727768
0.000588655
0.000491708
0.000425269
0.000381532
0.000354822
0.000343789
0.000342504
0.000364055
0.000383271
0.0106995
0.00727728
0.00526525
0.00406724
0.00345282
0.00340586
0.00404696
0.00554494
0.00758585
0.00916889
0.00960928
0.00985635
0.0110749
0.0140521
0.0198197
0.02668
0.024191
0.0159294
0.0142005
0.016185
0.0195208
0.0248271
0.0302676
0.0347984
0.0377646
0.0387816
0.0377455
0.0349848
0.0309802
0.026261
0.0213839
0.0168256
0.0128394
0.00955495
0.00710308
0.00551679
0.00464214
0.00421573
0.00401703
0.00395279
0.00400567
0.00411333
0.00412225
0.00387983
0.00337258
0.0027285
0.00210473
0.00159172
0.00120574
0.000926841
0.000728453
0.00058838
0.000490325
0.000422773
0.000377958
0.000350201
0.000338021
0.000335624
0.000355457
0.000373437
0.0106983
0.00727832
0.00526252
0.00404531
0.0033842
0.0032418
0.00372588
0.0050459
0.00707709
0.00897879
0.00983004
0.0101858
0.0112562
0.0139842
0.0195444
0.0269913
0.0259151
0.0175396
0.0152538
0.0168207
0.0198998
0.0249585
0.0301973
0.0345812
0.0374352
0.0383631
0.0372523
0.034427
0.0303708
0.0256221
0.0207441
0.0162083
0.012259
0.00903146
0.00666312
0.00517614
0.00439536
0.00403758
0.00387207
0.0038098
0.00385052
0.00395663
0.0039862
0.00378185
0.00331437
0.00269967
0.00209269
0.0015877
0.00120508
0.000927263
0.000728822
0.000588137
0.000489231
0.000420742
0.000374963
0.000346233
0.000332971
0.000329508
0.000347728
0.000364512
0.0106971
0.00727973
0.00526153
0.00402901
0.00332894
0.00310424
0.00344288
0.00456749
0.00650625
0.00862493
0.00989044
0.0104491
0.0114291
0.0139076
0.0192042
0.0270464
0.027476
0.0191961
0.0163923
0.0174736
0.0202758
0.0250624
0.030082
0.0343036
0.0370353
0.0378699
0.0366872
0.0338056
0.0297095
0.0249456
0.020082
0.0155822
0.0116812
0.00852127
0.00624559
0.0048642
0.00418075
0.00389261
0.00375908
0.0036956
0.00371929
0.00381726
0.00386009
0.00368764
0.00325622
0.00266937
0.00207894
0.0015822
0.0012033
0.000926955
0.000728823
0.000587833
0.000488312
0.000419054
0.000372427
0.000342808
0.000328536
0.000324066
0.000340778
0.000356418
0.0106961
0.00728139
0.0052619
0.00401733
0.00328503
0.00299034
0.00319836
0.00412408
0.0059058
0.00813092
0.00977273
0.0106067
0.011567
0.0138134
0.018803
0.0268672
0.0287901
0.0208809
0.0175931
0.0181454
0.0206482
0.0251404
0.0299241
0.0339689
0.0365687
0.037306
0.0360538
0.0331239
0.029
0.0242353
0.0194011
0.0149502
0.0111082
0.00802591
0.00585128
0.0045811
0.00399801
0.00378034
0.00367755
0.0036097
0.00361179
0.00369552
0.00374466
0.00359812
0.00319891
0.00263819
0.00206384
0.00157544
0.00120052
0.000925941
0.000728417
0.000587386
0.000487461
0.000417593
0.000370235
0.000339815
0.000324613
0.000319202
0.000334515
0.000349071
0.0106952
0.00728323
0.0052633
0.00400939
0.00325066
0.00289713
0.00299072
0.00372491
0.00530554
0.00752902
0.00947398
0.0106238
0.011638
0.0136858
0.0183414
0.0264737
0.0297982
0.0225659
0.0188305
0.0188355
0.021016
0.0251942
0.0297263
0.0335806
0.0360392
0.0366753
0.0353562
0.0323858
0.0282461
0.0234952
0.0187051
0.0143151
0.0105419
0.00754673
0.00548082
0.00432686
0.00384685
0.00370041
0.00362712
0.00355169
0.00352778
0.00359152
0.00364043
0.00351402
0.00314315
0.00260665
0.00204777
0.00156765
0.00119685
0.000924261
0.000727582
0.000586732
0.000486589
0.000416258
0.000368284
0.000337152
0.000321103
0.000314824
0.000328846
0.000342385
0.0106945
0.00728518
0.00526546
0.00400444
0.00322424
0.00282173
0.00281706
0.00337455
0.00473039
0.00685663
0.00900631
0.010475
0.0116088
0.0135044
0.0178163
0.0258819
0.0304899
0.0241832
0.0200769
0.0195409
0.0213784
0.0252253
0.029491
0.0331421
0.035451
0.0359821
0.0345985
0.0315956
0.0274523
0.0227297
0.0179976
0.0136794
0.00998422
0.00708495
0.00513466
0.00410139
0.00372702
0.00365259
0.00360764
0.00352137
0.00346711
0.00350524
0.00354774
0.00343591
0.00308954
0.00257523
0.00203104
0.00155904
0.00119242
0.000921965
0.000726313
0.000585824
0.000485624
0.000414965
0.000366483
0.000334731
0.00031792
0.000310847
0.000323684
0.000336279
0.0106938
0.00728718
0.00526818
0.00400188
0.00320437
0.00276146
0.00267376
0.00307372
0.00419905
0.00615232
0.00839535
0.0101481
0.0114489
0.0132451
0.0172207
0.0251054
0.0308548
0.0256736
0.0213045
0.0202558
0.0217336
0.0252346
0.0292208
0.032657
0.0348081
0.0352309
0.0337854
0.0307579
0.0266231
0.0219431
0.0172824
0.0130457
0.00943683
0.00664158
0.00481311
0.00390461
0.00363835
0.0036368
0.00361917
0.00351877
0.00342977
0.00343662
0.00346678
0.00336424
0.00303859
0.00254437
0.00201398
0.00154981
0.00118735
0.000919114
0.000724619
0.000584638
0.000484517
0.000413649
0.000364762
0.000332477
0.000314986
0.000307196
0.000318952
0.000330677
0.0106932
0.0072892
0.00527129
0.00400117
0.00318987
0.0027139
0.00255695
0.00282028
0.00372354
0.00545207
0.00767729
0.00964606
0.0111351
0.0128836
0.016544
0.0241551
0.0308854
0.0269857
0.0224856
0.0209713
0.0220793
0.025223
0.0289179
0.0321287
0.0341147
0.0344262
0.0329216
0.0298777
0.0257635
0.0211402
0.0165628
0.0124162
0.00890124
0.00621748
0.00451637
0.00373641
0.00358076
0.00365316
0.00366206
0.00354422
0.0034159
0.00338556
0.00339769
0.00329939
0.00299073
0.00251445
0.00199685
0.00154017
0.00118177
0.000915779
0.000722527
0.000583164
0.000483234
0.000412264
0.000363065
0.00033033
0.000312241
0.000303809
0.000314582
0.000325515
0.0106927
0.00729121
0.00527465
0.00400189
0.00317971
0.0026769
0.00246284
0.00261027
0.00330963
0.00478614
0.00689466
0.00898761
0.0106554
0.0123986
0.0157729
0.0230404
0.0305776
0.0280739
0.0235931
0.0216761
0.0224126
0.0251909
0.0285846
0.0315608
0.0333754
0.0335731
0.0320125
0.0289603
0.0248788
0.0203253
0.0158421
0.0117928
0.00837877
0.00581336
0.00424454
0.00359673
0.00355433
0.00370202
0.00373692
0.00359833
0.00342547
0.00335204
0.00334058
0.00324164
0.00294634
0.00248579
0.00197993
0.00153028
0.0011758
0.000912035
0.000720073
0.000581408
0.000481763
0.00041078
0.000361354
0.000328247
0.000309636
0.000300634
0.000310518
0.000320734
0.0106922
0.00729318
0.00527817
0.00400369
0.00317302
0.0026486
0.00238786
0.00243871
0.00295794