/*--------------------------------*- C++ -*----------------------------------*\
| =========                 |                                                 |
| \\      /  F ield         | OpenFOAM: The Open Source CFD Toolbox           |
|  \\    /   O peration     | Version:  2.4.0                                 |
|   \\  /    A nd           | Web:      www.OpenFOAM.org                      |
|    \\/     M anipulation  |                                                 |
\*---------------------------------------------------------------------------*/
FoamFile
{
    version     2.0;
    format      ascii;
    class       surfaceScalarField;
    location    "0.24";
    object      phi;
}
// * * * * * * * * * * * * * * * * * * * * * * * * * * * * * * * * * * * * * //

dimensions      [0 3 -1 0 0 0 0];

internalField   nonuniform List<scalar> 
4456
(
2.50023e-06
-2.29962e-10
2.501e-06
-7.65597e-10
2.50236e-06
-1.36457e-09
2.50435e-06
-1.98666e-09
2.50702e-06
-2.6699e-09
2.51062e-06
-3.60065e-09
2.51565e-06
-5.03737e-09
2.52281e-06
-7.15613e-09
2.53282e-06
-1.00085e-08
2.54647e-06
-1.36483e-08
2.56476e-06
-1.82898e-08
2.58912e-06
-2.43614e-08
2.62158e-06
-3.24568e-08
2.66485e-06
-4.32756e-08
2.72246e-06
-5.7605e-08
2.79877e-06
-7.63186e-08
2.89911e-06
-1.00338e-07
3.02962e-06
-1.30505e-07
3.19695e-06
-1.67327e-07
-2.10576e-07
3.40752e-06
2.50022e-06
-4.53869e-10
2.50097e-06
-1.51198e-09
2.5023e-06
-2.69553e-09
2.50424e-06
-3.92463e-09
2.50684e-06
-5.27414e-09
2.51036e-06
-7.11273e-09
2.51527e-06
-9.95184e-09
2.52225e-06
-1.414e-08
2.53202e-06
-1.97794e-08
2.54535e-06
-2.6977e-08
2.56322e-06
-3.61592e-08
2.58704e-06
-4.81774e-08
2.6188e-06
-6.42137e-08
2.66118e-06
-8.56649e-08
2.71769e-06
-1.1411e-07
2.79269e-06
-1.51315e-07
2.89151e-06
-1.9916e-07
3.0204e-06
-2.59393e-07
3.1862e-06
-3.3313e-07
-4.20013e-07
3.39564e-06
2.50021e-06
-6.66671e-10
2.50092e-06
-2.22139e-09
2.50219e-06
-3.9607e-09
2.50403e-06
-5.76708e-09
2.50651e-06
-7.75055e-09
2.50985e-06
-1.04533e-08
2.51452e-06
-1.46278e-08
2.52117e-06
-2.07871e-08
2.53047e-06
-2.90832e-08
2.54317e-06
-3.96765e-08
2.56021e-06
-5.32005e-08
2.58296e-06
-7.09184e-08
2.61333e-06
-9.45882e-08
2.65396e-06
-1.26298e-07
2.70828e-06
-1.68426e-07
2.78063e-06
-2.23663e-07
2.87639e-06
-2.94925e-07
3.002e-06
-3.84997e-07
3.16467e-06
-4.95807e-07
-6.27093e-07
3.37175e-06
2.5002e-06
-8.63146e-10
2.50085e-06
-2.87647e-09
2.50202e-06
-5.12914e-09
2.50372e-06
-7.46906e-09
2.50601e-06
-1.00389e-08
2.5091e-06
-1.35415e-08
2.51342e-06
-1.89525e-08
2.51957e-06
-2.69382e-08
2.52819e-06
-3.76984e-08
2.53996e-06
-5.14471e-08
2.55578e-06
-6.90171e-08
2.57692e-06
-9.20661e-08
2.60524e-06
-1.22908e-07
2.64325e-06
-1.64308e-07
2.69428e-06
-2.19456e-07
2.76263e-06
-2.92008e-07
2.85373e-06
-3.8603e-07
2.97427e-06
-5.05533e-07
3.13205e-06
-6.53589e-07
-8.30409e-07
3.33537e-06
2.50018e-06
-1.03847e-09
2.50076e-06
-3.46114e-09
2.5018e-06
-6.17222e-09
2.50332e-06
-8.98891e-09
2.50537e-06
-1.20833e-08
2.50813e-06
-1.63022e-08
2.512e-06
-2.28212e-08
2.5175e-06
-3.24447e-08
2.52522e-06
-4.54177e-08
2.53578e-06
-6.20074e-08
2.55e-06
-8.32348e-08
2.56906e-06
-1.11127e-07
2.59468e-06
-1.48525e-07
2.62922e-06
-1.98852e-07
2.67588e-06
-2.66112e-07
2.73885e-06
-3.54976e-07
2.82362e-06
-4.70801e-07
2.93715e-06
-6.19064e-07
3.08804e-06
-8.04476e-07
-1.02828e-06
3.2859e-06
2.50015e-06
-1.18833e-09
2.50065e-06
-3.96103e-09
2.50154e-06
-7.06432e-09
2.50284e-06
-1.02893e-08
2.50459e-06
-1.38336e-08
2.50696e-06
-1.86676e-08
2.51028e-06
-2.6139e-08
2.515e-06
-3.71718e-08
2.52164e-06
-5.20526e-08
2.53073e-06
-7.11006e-08
2.54301e-06
-9.55093e-08
2.55952e-06
-1.27644e-07
2.58183e-06
-1.70831e-07
2.6121e-06
-2.29121e-07
2.65331e-06
-3.07326e-07
2.70951e-06
-4.11176e-07
2.78619e-06
-5.47479e-07
2.89057e-06
-7.2344e-07
3.03227e-06
-9.46176e-07
-1.21847e-06
3.22246e-06
2.50012e-06
-1.30903e-09
2.50052e-06
-4.3638e-09
2.50124e-06
-7.78341e-09
2.50229e-06
-1.13382e-08
2.5037e-06
-1.52465e-08
2.50562e-06
-2.05792e-08
2.5083e-06
-2.88238e-08
2.51213e-06
-4.10023e-08
2.51752e-06
-5.74384e-08
2.52492e-06
-7.85001e-08
2.53494e-06
-1.05534e-07
2.5485e-06
-1.41202e-07
2.56693e-06
-1.89266e-07
2.59217e-06
-2.54353e-07
2.6269e-06
-3.42064e-07
2.67494e-06
-4.59209e-07
2.74167e-06
-6.14209e-07
2.83449e-06
-8.16265e-07
2.96431e-06
-1.076e-06
-1.39779e-06
3.14363e-06
2.50009e-06
-1.39757e-09
2.50038e-06
-4.65946e-09
2.50091e-06
-8.31165e-09
2.50168e-06
-1.21093e-08
2.50272e-06
-1.62868e-08
2.50413e-06
-2.19891e-08
2.50612e-06
-3.08078e-08
2.50895e-06
-4.3839e-08
2.51295e-06
-6.14376e-08
2.51847e-06
-8.40157e-08
2.52598e-06
-1.13049e-07
2.53623e-06
-1.51443e-07
2.55029e-06
-2.03333e-07
2.56979e-06
-2.73854e-07
2.59708e-06
-3.69347e-07
2.63556e-06
-4.97691e-07
2.69039e-06
-6.6904e-07
2.76902e-06
-8.94899e-07
2.88359e-06
-1.19057e-06
-1.56188e-06
3.04768e-06
2.50005e-06
-1.45176e-09
2.50024e-06
-4.84064e-09
2.50056e-06
-8.63581e-09
2.50103e-06
-1.25835e-08
2.50167e-06
-1.69279e-08
2.50255e-06
-2.2861e-08
2.50378e-06
-3.20396e-08
2.50555e-06
-4.56078e-08
2.50805e-06
-6.39444e-08
2.51154e-06
-8.74987e-08
2.51633e-06
-1.17845e-07
2.52297e-06
-1.58076e-07
2.53225e-06
-2.12616e-07
2.54541e-06
-2.87017e-07
2.56435e-06
-3.88287e-07
2.59194e-06
-5.25281e-07
2.63289e-06
-7.09983e-07
2.69441e-06
-9.56425e-07
2.78941e-06
-1.28557e-06
-1.70559e-06
2.93312e-06
2.50002e-06
-1.47021e-09
2.50008e-06
-4.90276e-09
2.50019e-06
-8.74763e-09
2.50036e-06
-1.27483e-08
2.50058e-06
-1.71533e-08
2.50089e-06
-2.3172e-08
2.50134e-06
-3.2486e-08
2.50199e-06
-4.62596e-08
2.50293e-06
-6.48875e-08
2.50428e-06
-8.88469e-08
2.50621e-06
-1.19776e-07
2.50902e-06
-1.60884e-07
2.5132e-06
-2.16794e-07
2.51953e-06
-2.93348e-07
2.52937e-06
-3.98128e-07
2.54482e-06
-5.40729e-07
2.56996e-06
-7.3512e-07
2.61106e-06
-9.9753e-07
2.68133e-06
-1.35584e-06
-1.82302e-06
2.79876e-06
2.49998e-06
-1.45245e-09
2.49992e-06
-4.84414e-09
2.49982e-06
-8.64405e-09
2.49967e-06
-1.25993e-08
2.49947e-06
-1.69564e-08
2.49921e-06
-2.29123e-08
2.49886e-06
-3.21323e-08
2.49837e-06
-4.57724e-08
2.49772e-06
-6.42332e-08
2.49688e-06
-8.80086e-08
2.49587e-06
-1.18762e-07
2.49472e-06
-1.5974e-07
2.49359e-06
-2.15658e-07
2.49274e-06
-2.92496e-07
2.4929e-06
-3.98292e-07
2.49513e-06
-5.42963e-07
2.50276e-06
-7.42743e-07
2.51962e-06
-1.0144e-06
2.56002e-06
-1.39624e-06
-1.90448e-06
2.64149e-06
2.49995e-06
-1.39889e-09
2.49977e-06
-4.6661e-09
2.49945e-06
-8.32733e-09
2.49899e-06
-1.21394e-08
2.49838e-06
-1.63409e-08
2.49755e-06
-2.20866e-08
2.4964e-06
-3.0984e-08
2.49478e-06
-4.4152e-08
2.49254e-06
-6.1987e-08
2.48951e-06
-8.49856e-08
2.48554e-06
-1.14794e-07
2.48041e-06
-1.54611e-07
2.47388e-06
-2.09127e-07
2.46567e-06
-2.84285e-07
2.45581e-06
-3.88427e-07
2.44405e-06
-5.3121e-07
2.43285e-06
-7.3154e-07
2.42118e-06
-1.00272e-06
2.4281e-06
-1.40316e-06
-1.92809e-06
2.4517e-06
2.49991e-06
-1.31081e-09
2.49962e-06
-4.3729e-09
2.4991e-06
-7.80499e-09
2.49834e-06
-1.13796e-08
2.49732e-06
-1.5321e-08
2.49594e-06
-2.07133e-08
2.49403e-06
-2.90661e-08
2.49131e-06
-4.14329e-08
2.48751e-06
-5.81944e-08
2.48236e-06
-7.98353e-08
2.47551e-06
-1.07938e-07
2.46646e-06
-1.45565e-07
2.45459e-06
-1.97259e-07
2.43905e-06
-2.68737e-07
2.41907e-06
-3.68454e-07
2.393e-06
-5.05141e-07
2.36233e-06
-7.00869e-07
2.31792e-06
-9.58307e-07
2.29026e-06
-1.37551e-06
-1.85039e-06
2.21257e-06
2.49988e-06
-1.19037e-09
2.49948e-06
-3.97168e-09
2.49876e-06
-7.08969e-09
2.49772e-06
-1.0338e-08
2.49632e-06
-1.39211e-08
2.49443e-06
-1.88251e-08
2.49179e-06
-2.64236e-08
2.48804e-06
-3.76776e-08
2.48278e-06
-5.29411e-08
2.47562e-06
-7.26703e-08
2.46602e-06
-9.83371e-08
2.45323e-06
-1.3278e-07
2.43623e-06
-1.80257e-07
2.41358e-06
-2.46087e-07
2.38373e-06
-3.38606e-07
2.3436e-06
-4.65006e-07
2.29376e-06
-6.51035e-07
2.21451e-06
-8.79051e-07
2.15353e-06
-1.31453e-06
-1.61174e-06
1.91488e-06
2.49985e-06
-1.04052e-09
2.49935e-06
-3.47227e-09
2.49846e-06
-6.1989e-09
2.49716e-06
-9.0402e-09
2.49542e-06
-1.21753e-08
2.49306e-06
-1.64675e-08
2.48975e-06
-2.31199e-08
2.48505e-06
-3.29759e-08
2.47846e-06
-4.63514e-08
2.46945e-06
-6.36579e-08
2.45732e-06
-8.621e-08
2.44108e-06
-1.16536e-07
2.41929e-06
-1.58471e-07
2.38999e-06
-2.16782e-07
2.3508e-06
-2.99421e-07
2.2975e-06
-4.11703e-07
2.22978e-06
-5.83316e-07
2.11911e-06
-7.6838e-07
2.03182e-06
-1.22724e-06
-1.17432e-06
1.59441e-06
2.49982e-06
-8.64966e-10
2.49924e-06
-2.88697e-09
2.49819e-06
-5.15452e-09
2.49667e-06
-7.5179e-09
2.49462e-06
-1.01264e-08
2.49185e-06
-1.36985e-08
2.48797e-06
-1.92359e-08
2.48244e-06
-2.74427e-08
2.47467e-06
-3.85858e-08
2.46403e-06
-5.30167e-08
2.44967e-06
-7.18479e-08
2.43035e-06
-9.72168e-08
2.40428e-06
-1.324e-07
2.36897e-06
-1.81471e-07
2.32122e-06
-2.51679e-07
2.25618e-06
-3.46661e-07
2.17218e-06
-4.99315e-07
2.04026e-06
-6.36462e-07
1.94515e-06
-1.13212e-06
-5.88307e-07
1.35913e-06
2.4998e-06
-6.68022e-10
2.49915e-06
-2.23022e-09
2.49797e-06
-3.98231e-09
2.49626e-06
-5.80872e-09
2.49396e-06
-7.82494e-09
2.49085e-06
-1.05864e-08
2.48648e-06
-1.4868e-08
2.48026e-06
-2.12152e-08
2.47151e-06
-2.98374e-08
2.4595e-06
-4.10115e-08
2.44326e-06
-5.5609e-08
2.42135e-06
-7.5305e-08
2.39163e-06
-1.02682e-07
2.35116e-06
-1.40998e-07
2.29581e-06
-1.9633e-07
2.22067e-06
-2.71523e-07
2.12114e-06
-3.99778e-07
1.98159e-06
-4.96919e-07
1.8839e-06
-1.03443e-06
-5.17949e-09
1.30077e-06
2.49979e-06
-4.54594e-10
2.49907e-06
-1.51829e-09
2.4978e-06
-2.71127e-09
2.49595e-06
-3.95498e-09
2.49345e-06
-5.32811e-09
2.49008e-06
-7.20886e-09
2.48533e-06
-1.01253e-08
2.47857e-06
-1.445e-08
2.46906e-06
-2.03267e-08
2.45599e-06
-2.7947e-08
2.43829e-06
-3.79092e-08
2.41436e-06
-5.13682e-08
2.38177e-06
-7.00956e-08
2.33719e-06
-9.64179e-08
2.27543e-06
-1.34575e-07
2.19157e-06
-1.87662e-07
2.07524e-06
-2.83443e-07
1.94068e-06
-3.6236e-07
1.78828e-06
-8.82031e-07
3.94049e-07
1.38906e-06
2.49978e-06
-2.30175e-10
2.49903e-06
-7.68833e-10
2.49769e-06
-1.37284e-09
2.49574e-06
-2.00267e-09
2.49311e-06
-2.69818e-09
2.48955e-06
-3.65072e-09
2.48455e-06
-5.12775e-09
2.47742e-06
-7.31828e-09
2.46739e-06
-1.02959e-08
2.4536e-06
-1.41584e-08
2.4349e-06
-1.92097e-08
2.40957e-06
-2.60417e-08
2.37502e-06
-3.55412e-08
2.32757e-06
-4.8974e-08
2.26127e-06
-6.82669e-08
2.1698e-06
-9.61996e-08
2.03419e-06
-1.47828e-07
1.88563e-06
-2.13803e-07
1.65497e-06
-6.51372e-07
5.01353e-07
1.54767e-06
2.49977e-06
2.499e-06
2.49763e-06
2.49563e-06
2.49293e-06
2.48928e-06
2.48415e-06
2.47683e-06
2.46653e-06
2.45238e-06
2.43317e-06
2.40712e-06
2.37158e-06
2.32261e-06
2.25434e-06
2.15814e-06
2.01031e-06
1.79651e-06
1.14514e-06
1.64649e-06
3.66633e-06
-2.58809e-07
3.9753e-06
-3.0897e-07
4.33171e-06
-3.56409e-07
4.72802e-06
-3.96315e-07
5.15347e-06
-4.25445e-07
5.59605e-06
-4.42578e-07
6.04384e-06
-4.47793e-07
-4.4161e-07
6.48545e-06
3.65407e-06
-5.17242e-07
3.96375e-06
-6.18649e-07
4.32191e-06
-7.1457e-07
4.72066e-06
-7.95062e-07
5.14887e-06
-8.53662e-07
5.59454e-06
-8.88245e-07
6.04586e-06
-8.99117e-07
-8.87025e-07
6.49128e-06
3.62942e-06
-7.74914e-07
3.94061e-06
-9.29838e-07
4.30234e-06
-1.0763e-06
4.70609e-06
-1.19881e-06
5.14052e-06
-1.28809e-06
5.5935e-06
-1.34122e-06
6.05182e-06
-1.35744e-06
-1.33651e-06
6.5013e-06
3.59176e-06
-1.03131e-06
3.90515e-06
-1.24323e-06
4.27236e-06
-1.44351e-06
4.68461e-06
-1.61106e-06
5.12977e-06
-1.73325e-06
5.59231e-06
-1.80377e-06
6.05382e-06
-1.81895e-06
-1.78189e-06
6.49921e-06
3.54018e-06
-1.28559e-06
3.85646e-06
-1.5595e-06
4.23217e-06
-1.81922e-06
4.65756e-06
-2.03644e-06
5.1146e-06
-2.1903e-06
5.58008e-06
-2.26925e-06
6.03654e-06
-2.27541e-06
-2.2321e-06
6.48675e-06
3.47329e-06
-1.53641e-06
3.79408e-06
-1.8803e-06
4.18273e-06
-2.20787e-06
4.62229e-06
-2.476e-06
5.08333e-06
-2.65134e-06
5.54538e-06
-2.7313e-06
6.0178e-06
-2.74783e-06
-2.75512e-06
6.54082e-06
3.38971e-06
-1.78249e-06
3.71833e-06
-2.20892e-06
4.12154e-06
-2.61108e-06
4.56744e-06
-2.9219e-06
5.02628e-06
-3.11017e-06
5.5115e-06
-3.21653e-06
6.07718e-06
-3.31351e-06
-3.45615e-06
6.77821e-06
3.28866e-06
-2.02347e-06
3.62713e-06
-2.54739e-06
4.03762e-06
-3.02157e-06
4.48147e-06
-3.36575e-06
4.96277e-06
-3.59146e-06
5.54914e-06
-3.80291e-06
6.30577e-06
-4.07014e-06
-4.3892e-06
7.23882e-06
3.16854e-06
-2.25889e-06
3.51087e-06
-2.88972e-06
3.916e-06
-3.42669e-06
4.37641e-06
-3.82617e-06
4.95713e-06
-4.17219e-06
5.74268e-06
-4.58845e-06
6.73095e-06
-5.05841e-06
-5.49983e-06
7.84159e-06
3.02269e-06
-2.48282e-06
3.35278e-06
-3.21981e-06
3.76144e-06
-3.83536e-06
4.31716e-06
-4.38189e-06
5.10684e-06
-4.96186e-06
6.13607e-06
-5.61768e-06
7.28479e-06
-6.20714e-06
-6.64442e-06
8.42938e-06
2.83592e-06
-2.67725e-06
3.14878e-06
-3.53267e-06
3.63905e-06
-4.32563e-06
4.42299e-06
-5.16583e-06
5.48244e-06
-6.02132e-06
6.67633e-06
-6.81157e-06
7.8152e-06
-7.346e-06
-7.67078e-06
8.84156e-06
2.59372e-06
-2.81927e-06
2.95094e-06
-3.88988e-06
3.68391e-06
-5.0586e-06
4.78961e-06
-6.27153e-06
6.03809e-06
-7.2698e-06
7.20468e-06
-7.97817e-06
8.15391e-06
-8.29523e-06
-8.51598e-06
8.9991e-06
2.31725e-06
-2.92395e-06
2.8906e-06
-4.46324e-06
4.01534e-06
-6.18334e-06
5.37641e-06
-7.63259e-06
6.60068e-06
-8.49407e-06
7.54098e-06
-8.91847e-06
8.21423e-06
-8.96848e-06
-9.24977e-06
8.94802e-06
2.10347e-06
-3.11255e-06
3.11055e-06
-5.47032e-06
4.61259e-06
-7.68537e-06
6.00017e-06
-9.02018e-06
6.9726e-06
-9.4665e-06
7.58746e-06
-9.53332e-06
8.02764e-06
-9.40866e-06
-1.00281e-05
8.80595e-06
2.10342e-06
-3.62156e-06
3.63995e-06
-7.00685e-06
5.2996e-06
-9.34502e-06
6.44561e-06
-1.01662e-05
7.03818e-06
-1.00591e-05
7.35876e-06
-9.8539e-06
7.69002e-06
-9.73992e-06
-1.09876e-05
8.6495e-06
2.42292e-06
-4.68535e-06
4.34511e-06
-8.92904e-06
5.84491e-06
-1.08448e-05
6.57018e-06
-1.08915e-05
6.79853e-06
-1.02874e-05
6.94751e-06
-1.00029e-05
7.28398e-06
-1.00764e-05
-1.21399e-05
8.43634e-06
3.03345e-06
-6.41803e-06
5.0012e-06
-1.08968e-05
6.06567e-06
-1.19093e-05
6.34856e-06
-1.11743e-05
6.34874e-06
-1.02876e-05
6.47265e-06
-1.01268e-05
6.85555e-06
-1.04593e-05
-1.3314e-05
8.02968e-06
3.75473e-06
-8.7837e-06
5.38609e-06
-1.25281e-05
5.89696e-06
-1.24202e-05
5.87263e-06
-1.115e-05
5.81814e-06
-1.02331e-05
6.01111e-06
-1.03198e-05
6.42808e-06
-1.08763e-05
-1.42276e-05
7.34166e-06
4.3593e-06
-1.15953e-05
5.36223e-06
-1.35311e-05
5.42812e-06
-1.24861e-05
5.30529e-06
-1.10272e-05
5.29819e-06
-1.0226e-05
5.52392e-06
-1.05455e-05
5.93056e-06
-1.12829e-05
-1.48557e-05
6.55862e-06
4.64436e-06
-1.45932e-05
4.96956e-06
-1.38563e-05
4.86374e-06
-1.23802e-05
4.78513e-06
-1.09486e-05
4.81961e-06
-1.02605e-05
4.92774e-06
-1.06536e-05
5.08568e-06
-1.14408e-05
6.09675e-06
-1.58668e-05
6.90974e-06
-4.24288e-07
7.3048e-06
-3.9506e-07
7.65713e-06
-3.52335e-07
7.95239e-06
-2.95257e-07
8.178e-06
-2.25609e-07
8.32721e-06
-1.49209e-07
8.40277e-06
-7.55641e-08
8.41771e-06
-1.49384e-08
8.392e-06
2.57162e-08
8.34584e-06
4.61583e-08
8.29363e-06
5.22094e-08
8.24198e-06
5.1646e-08
8.19203e-06
4.9948e-08
8.14278e-06
4.92586e-08
8.09327e-06
4.95102e-08
8.04365e-06
4.9616e-08
7.99546e-06
4.81873e-08
7.95146e-06
4.40001e-08
7.91527e-06
3.61902e-08
7.89116e-06
2.41173e-08
7.88412e-06
7.03908e-09
7.90055e-06
-1.64343e-08
7.94948e-06
-4.89321e-08
8.04507e-06
-9.55878e-08
8.21493e-06
-1.69862e-07
8.51014e-06
-2.9521e-07
9.1593e-06
-6.49158e-07
-1.35162e-06
1.05109e-05
6.91895e-06
-8.51955e-07
7.31601e-06
-7.92128e-07
7.66851e-06
-7.0483e-07
7.96235e-06
-5.89101e-07
8.18551e-06
-4.48765e-07
8.33159e-06
-2.95287e-07
8.40366e-06
-1.47638e-07
8.41526e-06
-2.65345e-08
8.38722e-06
5.37541e-08
8.34027e-06
9.31027e-08
8.28865e-06
1.03835e-07
8.23835e-06
1.01942e-07
8.18991e-06
9.83912e-08
8.14188e-06
9.72837e-08
8.09312e-06
9.8274e-08
8.04374e-06
9.89994e-08
7.99536e-06
9.65664e-08
7.95085e-06
8.85078e-08
7.91389e-06
7.31446e-08
7.88872e-06
4.92894e-08
7.88021e-06
1.55494e-08
7.89439e-06
-3.06137e-08
7.93976e-06
-9.43013e-08
8.02927e-06
-1.85093e-07
8.18669e-06
-3.2729e-07
8.4557e-06
-5.64219e-07
8.8625e-06
-1.05596e-06
-1.90563e-06
9.41651e-06
6.92854e-06
-1.2792e-06
7.32213e-06
-1.18571e-06
7.67178e-06
-1.05449e-06
7.966e-06
-8.83318e-07
8.19156e-06
-6.74328e-07
8.33849e-06
-4.42217e-07
8.40743e-06
-2.16573e-07
8.41256e-06
-3.16604e-08
8.37813e-06
8.81776e-08
8.32764e-06
1.43593e-07
8.27595e-06
1.55523e-07
8.22801e-06
1.49884e-07
8.18283e-06
1.4357e-07
8.13776e-06
1.42352e-07
8.09096e-06
1.4508e-07
8.04237e-06
1.47588e-07
7.99379e-06
1.45145e-07
7.94835e-06
1.33953e-07
7.90988e-06
1.11606e-07
7.88263e-06
7.65428e-08
7.87121e-06
2.69689e-08
7.88108e-06
-4.04851e-08
7.91942e-06
-1.32641e-07
7.99656e-06
-2.62235e-07
8.12706e-06
-4.57787e-07
8.32873e-06
-7.65886e-07
8.58396e-06
-1.31119e-06
-2.20089e-06
8.87922e-06
6.92306e-06
-1.70305e-06
7.3265e-06
-1.58916e-06
7.70597e-06
-1.43395e-06
8.04345e-06
-1.2208e-06
8.3089e-06
-9.39781e-07
8.47607e-06
-6.09385e-07
8.53924e-06
-2.79743e-07
8.51789e-06
-1.03143e-08
8.44939e-06
1.56682e-07
8.36816e-06
2.24823e-07
8.29465e-06
2.29034e-07
8.23415e-06
2.10383e-07
8.18335e-06
1.94372e-07
8.13656e-06
1.89137e-07
8.08946e-06
1.92188e-07
8.04051e-06
1.96532e-07
7.99096e-06
1.94698e-07
7.94384e-06
1.81072e-07
7.90304e-06
1.52409e-07
7.87269e-06
1.06891e-07
7.85707e-06
4.25901e-08
7.86081e-06
-4.4224e-08
7.88936e-06
-1.61197e-07
7.94956e-06
-3.22436e-07
8.04769e-06
-5.5591e-07
8.18775e-06
-9.05948e-07
8.3405e-06
-1.46394e-06
-2.31073e-06
8.45034e-06
6.95091e-06
-2.16721e-06
7.44183e-06
-2.08008e-06
7.94098e-06
-1.9331e-06
8.39616e-06
-1.67598e-06
8.74282e-06
-1.28644e-06
8.93544e-06
-8.02005e-07
8.96834e-06
-3.12634e-07
8.87656e-06
8.14612e-08
8.72112e-06
3.12122e-07
8.55636e-06
3.89579e-07
8.41462e-06
3.70777e-07
8.30498e-06
3.20022e-07
8.22241e-06
2.76943e-07
8.15676e-06
2.54788e-07
8.09887e-06
2.50078e-07
8.04348e-06
2.51924e-07
7.98946e-06
2.4872e-07
7.93857e-06
2.31961e-07
7.894e-06
1.96976e-07
7.85939e-06
1.41504e-07
7.83837e-06
6.36089e-08
7.83453e-06
-4.03868e-08
7.8515e-06
-1.78168e-07
7.8927e-06
-3.63638e-07
7.95889e-06
-6.22094e-07
8.04486e-06
-9.91921e-07
8.11784e-06
-1.53691e-06
-2.31217e-06
8.11927e-06
7.14922e-06
-2.77561e-06
7.82895e-06
-2.7598e-06
8.51096e-06
-2.61512e-06
9.09906e-06
-2.26407e-06
9.50694e-06
-1.69433e-06
9.68852e-06
-9.83584e-07
9.65085e-06
-2.7497e-07
9.45049e-06
2.8182e-07
9.16965e-06
5.92962e-07
8.88448e-06
6.74758e-07
8.63999e-06
6.15266e-07
8.45104e-06
5.08967e-07
8.31225e-06
4.15733e-07
8.20929e-06
3.57749e-07
8.12756e-06
3.31813e-07
8.05694e-06
3.22539e-07
7.99279e-06
3.12869e-07
7.93456e-06
2.90194e-07
7.88395e-06
2.47582e-07
7.84353e-06
1.81925e-07
7.81592e-06
9.12202e-08
7.80344e-06
-2.79056e-08
7.8079e-06
-1.82627e-07
7.82986e-06
-3.85599e-07
7.86623e-06
-6.58466e-07
7.90657e-06
-1.03226e-06
7.92002e-06
-1.55036e-06
-2.24635e-06
7.8542e-06
7.61057e-06
-3.60797e-06
8.49519e-06
-3.64442e-06
9.31743e-06
-3.43735e-06
9.96888e-06
-2.91552e-06
1.03711e-05
-2.09653e-06
1.04922e-05
-1.10467e-06
1.03537e-05
-1.36509e-07
1.00295e-05
6.06042e-07
9.62065e-06
1.00179e-06
9.21696e-06
1.07845e-06
8.87238e-06
9.59849e-07
8.60583e-06
7.75518e-07
8.41141e-06
6.10144e-07
8.27075e-06
4.98416e-07
8.16389e-06
4.38668e-07
8.07613e-06
4.10296e-07
7.99965e-06
3.89349e-07
7.93196e-06
3.57886e-07
7.87352e-06
3.06024e-07
7.82589e-06
2.29557e-07
7.79064e-06
1.26467e-07
7.76879e-06
-6.05151e-09
7.76047e-06
-1.74315e-07
7.76396e-06
-3.89087e-07
7.77363e-06
-6.68138e-07
7.77671e-06
-1.03534e-06
7.74561e-06
-1.51926e-06
-2.13751e-06
7.63677e-06
8.26763e-06
-4.63678e-06
9.26678e-06
-4.64357e-06
1.01256e-05
-4.29615e-06
1.07609e-05
-3.55085e-06
1.11108e-05
-2.44644e-06
1.11489e-05
-1.14273e-06
1.09e-05
1.12327e-07
1.04536e-05
1.05249e-06
9.92882e-06
1.52657e-06
9.42616e-06
1.58111e-06
9.00395e-06
1.38206e-06
8.68212e-06
1.09735e-06
8.45276e-06
8.39497e-07
8.29253e-06
6.58648e-07
8.17528e-06
5.55919e-07
8.08107e-06
5.04502e-07
7.999e-06
4.71428e-07
7.92537e-06
4.3151e-07
7.8605e-06
3.70892e-07
7.80594e-06
2.84122e-07
7.76291e-06
1.69495e-07
7.73158e-06
2.52765e-08
7.71082e-06
-1.53554e-07
7.69725e-06
-3.7551e-07
7.68372e-06
-6.54614e-07
7.65684e-06
-1.00845e-06
7.5926e-06
-1.45502e-06
-2.00105e-06
7.45615e-06
8.94609e-06
-5.74128e-06
9.93838e-06
-5.63586e-06
1.07619e-05
-5.11965e-06
1.13648e-05
-4.15373e-06
1.16749e-05
-2.75655e-06
1.16422e-05
-1.11008e-06
1.12851e-05
4.69438e-07
1.07141e-05
1.6235e-06
1.00761e-05
2.16454e-06
9.48521e-06
2.17201e-06
9.00187e-06
1.8654e-06
8.6437e-06
1.45552e-06
8.399e-06
1.0842e-06
8.23891e-06
8.18735e-07
8.13045e-06
6.64387e-07
8.04707e-06
5.87881e-07
7.97332e-06
5.45178e-07
7.90369e-06
5.01142e-07
7.83864e-06
4.35941e-07
7.78065e-06
3.42113e-07
7.73164e-06
2.18496e-07
7.69199e-06
6.4926e-08
7.65989e-06
-1.21454e-07
7.63119e-06
-3.46802e-07
7.59803e-06
-6.21459e-07
7.54739e-06
-9.57813e-07
7.45879e-06
-1.36642e-06
-1.84706e-06
7.3048e-06
9.47392e-06
-6.78582e-06
1.0398e-05
-6.55991e-06
1.12114e-05
-5.93312e-06
1.18536e-05
-4.79585e-06
1.21878e-05
-3.09081e-06
1.2111e-05
-1.03326e-06
1.16361e-05
9.444e-07
1.09145e-05
2.34505e-06
1.01404e-05
2.93866e-06
9.44989e-06
2.86251e-06
8.90461e-06
2.41068e-06
8.51485e-06
1.84528e-06
8.26145e-06
1.3376e-06
8.10957e-06
9.70613e-07
8.02023e-06
7.53729e-07
7.96025e-06
6.4786e-07
7.90815e-06
5.97274e-07
7.85464e-06
5.54656e-07
7.79902e-06
4.9156e-07
7.74439e-06
3.96736e-07
7.69392e-06
2.68971e-07
7.64883e-06
1.10012e-07
7.60773e-06
-8.03517e-08
7.56644e-06
-3.05511e-07
7.51724e-06
-5.72256e-07
7.44812e-06
-8.88691e-07
7.34188e-06
-1.26018e-06
-1.68238e-06
7.1772e-06
9.76782e-06
-7.71208e-06
1.06803e-05
-7.47236e-06
1.16045e-05
-6.85736e-06
1.23964e-05
-5.58773e-06
1.28161e-05
-3.51055e-06
1.27066e-05
-9.23697e-07
1.20854e-05
1.56553e-06
1.11686e-05
3.26188e-06
1.02158e-05
3.8915e-06
9.39725e-06
3.68102e-06
8.77624e-06
3.03168e-06
8.34908e-06
2.27244e-06
8.08283e-06
1.60385e-06
7.93475e-06
1.11869e-06
7.86158e-06
8.26902e-07
7.8258e-06
6.83631e-07
7.8005e-06
6.22584e-07
7.77118e-06
5.83967e-07
7.7339e-06
5.28845e-07
7.69066e-06
4.39972e-07
7.64505e-06
3.14589e-07
7.59932e-06
1.55736e-07
7.55294e-06
-3.39733e-08
7.50254e-06
-2.55107e-07
7.44114e-06
-5.10856e-07
7.35824e-06
-8.05795e-07
7.23971e-06
-1.14165e-06
-1.51181e-06
7.06913e-06
9.87585e-06
-8.58883e-06
1.09174e-05
-8.51388e-06
1.20534e-05
-7.99334e-06
1.30096e-05
-6.54397e-06
1.34929e-05
-3.99388e-06
1.33472e-05
-7.78008e-07
1.25826e-05
2.33018e-06
1.14704e-05
4.37408e-06
1.0328e-05
5.03392e-06
9.36864e-06
4.64035e-06
8.66373e-06
3.73658e-06
8.19433e-06
2.74185e-06
7.9092e-06
1.88898e-06
7.75527e-06
1.27262e-06
7.68654e-06
8.95631e-07
7.6649e-06
7.05272e-07
7.66101e-06
6.26481e-07
7.65597e-06
5.88998e-07
7.64124e-06
5.43576e-07
7.61565e-06
4.65564e-07
7.58143e-06
3.48807e-07
7.54089e-06
1.96274e-07
7.49412e-06
1.2796e-08
7.43884e-06
-1.9982e-07
7.36928e-06
-4.41295e-07
7.27683e-06
-7.13347e-07
7.15025e-06
-1.01507e-06
-1.33874e-06
6.97719e-06
9.91696e-06
-9.55777e-06
1.1154e-05
-9.7509e-06
1.2388e-05
-9.2274e-06
1.3296e-05
-7.45198e-06
1.3695e-05
-4.39279e-06
1.35293e-05
-6.12397e-07
1.27377e-05
3.12179e-06
1.157e-05
5.54176e-06
1.0344e-05
6.25998e-06
9.3086e-06
5.67573e-06
8.55566e-06
4.48952e-06
8.06245e-06
3.23507e-06
7.76489e-06
2.18654e-06
7.60176e-06
1.43574e-06
7.52688e-06
9.70514e-07
7.5057e-06
7.26448e-07
7.51105e-06
6.21131e-07
7.52271e-06
5.77341e-07
7.52821e-06
5.38075e-07
7.52207e-06
4.71704e-07
7.50334e-06
3.67532e-07
7.47275e-06
2.26867e-07
7.43054e-06
5.50041e-08
7.37471e-06
-1.43987e-07
7.30113e-06
-3.67719e-07
7.20307e-06
-6.15287e-07
7.07194e-06
-8.83938e-07
-1.16556e-06
6.89876e-06
9.92757e-06
-1.06794e-05
1.11622e-05
-1.09855e-05
1.20652e-05
-1.01304e-05
1.25176e-05
-7.9044e-06
1.26263e-05
-4.50145e-06
1.24783e-05
-4.64413e-07
1.19123e-05
3.68776e-06
1.09997e-05
6.45444e-06
9.96263e-06
7.29701e-06
9.04372e-06
6.59464e-06
8.36157e-06
5.17168e-06
7.9122e-06
3.68444e-06
7.63785e-06
2.46089e-06
7.48075e-06
1.59284e-06
7.40121e-06
1.05006e-06
7.37323e-06
7.54425e-07
7.3767e-06
6.17666e-07
7.39444e-06
5.59597e-07
7.41287e-06
5.19646e-07
7.42289e-06
4.61679e-07
7.41967e-06
3.70755e-07
7.40114e-06
2.454e-07
7.36619e-06
8.99517e-08
7.31295e-06
-9.07442e-08
7.23823e-06
-2.93007e-07
7.13715e-06
-5.14201e-07
7.00362e-06
-7.50411e-07
-9.93652e-07
6.83171e-06
9.75175e-06
-1.17816e-05
1.04833e-05
-1.1717e-05
1.04766e-05
-1.01237e-05
1.0132e-05
-7.55984e-06
9.85283e-06
-4.22227e-06
9.76068e-06
-3.72264e-07
9.68686e-06
3.76158e-06
9.37685e-06
6.76445e-06
8.87631e-06
7.79755e-06
8.35331e-06
7.11763e-06
7.93602e-06
5.58897e-06
7.65253e-06
3.96794e-06
7.47379e-06
2.63963e-06
7.36389e-06
1.70274e-06
7.3011e-06
1.11285e-06
7.27431e-06
7.81214e-07
7.27478e-06
6.17197e-07
7.2925e-06
5.41879e-07
7.3164e-06
4.95748e-07
7.33623e-06
4.41842e-07
7.34426e-06
3.6273e-07
7.33552e-06
2.54136e-07
7.30706e-06
1.18411e-07
7.25658e-06
-4.02634e-08
7.18159e-06
-2.18013e-07
7.07875e-06
-4.11368e-07
6.94435e-06
-6.16008e-07
-8.24541e-07
6.77524e-06
9.09406e-06
-1.24394e-05
8.7233e-06
-1.13463e-05
7.49929e-06
-8.8997e-06
6.44579e-06
-6.50634e-06
5.88954e-06
-3.66603e-06
5.88857e-06
-3.71292e-07
6.32346e-06
3.32669e-06
6.74878e-06
6.33913e-06
7.00237e-06
7.54396e-06
7.10936e-06
7.01064e-06
7.15262e-06
5.5457e-06
7.17585e-06
3.94471e-06
7.18695e-06
2.62852e-06
7.1864e-06
1.70329e-06
7.18173e-06
1.11752e-06
7.18248e-06
7.80467e-07
7.19417e-06
6.05498e-07
7.2166e-06
5.19453e-07
7.24437e-06
4.67977e-07
7.26929e-06
4.16919e-07
7.2832e-06
3.48825e-07
7.27973e-06
2.57607e-07
7.25467e-06
1.43474e-07
7.20527e-06
9.13225e-09
7.12966e-06
-1.424e-07
7.02603e-06
-3.07738e-07
6.89289e-06
-4.82868e-07
-6.60926e-07
6.72927e-06
7.68976e-06
-1.20994e-05
5.87658e-06
-9.53309e-06
3.76911e-06
-6.79222e-06
2.49176e-06
-5.22899e-06
1.89394e-06
-3.06821e-06
1.85719e-06
-3.34544e-07
2.50214e-06
2.68175e-06
3.49033e-06
5.35094e-06
4.51182e-06
6.52246e-06
5.35063e-06
6.17183e-06
5.97322e-06
4.92311e-06
6.40755e-06
3.51038e-06
6.6903e-06
2.34577e-06
6.86197e-06
1.53162e-06
6.96426e-06
1.01523e-06
7.02944e-06
7.15287e-07
7.07813e-06
5.56805e-07
7.12087e-06
4.76713e-07
7.15987e-06
4.28979e-07
7.19177e-06
3.85016e-07
7.21094e-06
3.29663e-07
7.21191e-06
2.56636e-07
7.19059e-06
1.64791e-07
7.14445e-06
5.52754e-08
7.07215e-06
-7.01054e-08
6.97304e-06
-2.08623e-07
6.84626e-06
-3.56095e-07
-5.05208e-07
6.69055e-06
5.40484e-06
-1.01626e-05
2.43812e-06
-6.56638e-06
3.85536e-08
-4.39265e-06
-1.28241e-06
-3.90802e-06
-2.04898e-06
-2.30164e-06
-2.2014e-06
-1.82128e-07
-1.40231e-06
1.88265e-06
8.03267e-08
3.86831e-06
1.73101e-06
4.87178e-06
3.27703e-06
4.62582e-06
4.48071e-06
3.71943e-06
5.35013e-06
2.64096e-06
5.9348e-06
1.7611e-06
6.30985e-06
1.15657e-06
6.54789e-06
7.77198e-07
6.70261e-06
5.60563e-07
6.81008e-06
4.49341e-07
6.89202e-06
3.94774e-07
6.95864e-06
3.6236e-07
7.01219e-06
3.31461e-07
7.05062e-06
2.91234e-07
7.07032e-06
2.36936e-07
7.06777e-06
1.67342e-07
7.04012e-06
8.29198e-08
6.98527e-06
-1.52467e-08
6.90043e-06
-1.23787e-07
6.78206e-06
-2.37726e-07
-3.49823e-07
6.62668e-06
2.34439e-06
-5.94839e-06
-9.39492e-07
-3.2825e-06
-3.02567e-06
-2.30648e-06
-4.84137e-06
-2.09232e-06
-5.88643e-06
-1.25658e-06
-5.99642e-06
-7.2138e-08
-5.10811e-06
9.94345e-07
-3.27957e-06
2.03977e-06
-9.99471e-07
2.59169e-06
1.16426e-06
2.46208e-06
2.8536e-06
2.0301e-06
4.08233e-06
1.41222e-06
4.91138e-06
9.32054e-07
5.45114e-06
6.16808e-07
5.80258e-06
4.2576e-07
6.04114e-06
3.22006e-07
6.21838e-06
2.721e-07
6.36458e-06
2.48566e-07
6.49361e-06
2.33334e-07
6.60877e-06
2.16302e-07
6.70761e-06
1.92395e-07
6.78508e-06
1.59461e-07
6.83538e-06
1.17046e-07
6.85217e-06
6.61293e-08
6.82813e-06
8.79268e-09
6.75641e-06
-5.20692e-08
6.63337e-06
-1.14685e-07
-1.75063e-07
6.45861e-06
1.48363e-07
-3.13413e-06
-5.44061e-06
-7.53294e-06
-8.78952e-06
-8.86165e-06
-7.86731e-06
-5.82754e-06
-3.23586e-06
-7.73771e-07
1.25633e-06
2.66855e-06
3.6006e-06
4.21741e-06
4.64317e-06
4.96518e-06
5.23728e-06
5.48584e-06
5.71918e-06
5.93548e-06
6.12787e-06
6.28733e-06
6.40438e-06
6.47051e-06
6.4793e-06
6.42723e-06
6.31255e-06
6.13748e-06
1.00342e-05
-4.61434e-06
5.09111e-06
9.26797e-06
-7.13245e-06
7.89865e-06
7.69597e-06
-9.0292e-06
1.06012e-05
6.00985e-06
-1.02716e-05
1.19577e-05
4.488e-06
-1.06668e-05
1.21886e-05
2.95292e-06
-1.04298e-05
1.19648e-05
1.18389e-06
-9.42107e-06
1.11901e-05
-8.75776e-06
-1.96257e-06
1.19042e-05
8.95479e-06
-4.15262e-06
8.20426e-06
-6.38193e-06
7.15456e-06
-7.9795e-06
5.89967e-06
-9.01668e-06
4.57653e-06
-9.34364e-06
3.19313e-06
-9.04636e-06
1.84211e-06
-8.07006e-06
-6.94135e-06
2.56943e-08
8.60423e-06
-3.87763e-06
7.9271e-06
-5.7048e-06
6.99646e-06
-7.04886e-06
5.86273e-06
-7.88295e-06
4.65371e-06
-8.13462e-06
3.41812e-06
-7.81077e-06
2.1866e-06
-6.83854e-06
-5.43832e-06
6.8357e-07
8.19924e-06
-3.62654e-06
7.59105e-06
-5.09661e-06
6.76897e-06
-6.22678e-06
5.78777e-06
-6.90175e-06
4.73234e-06
-7.07918e-06
3.65635e-06
-6.73479e-06
2.60887e-06
-5.79105e-06
-4.34816e-06
1.51871e-06
7.87468e-06
-3.38194e-06
7.3392e-06
-4.56113e-06
6.61005e-06
-5.49763e-06
5.75118e-06
-6.04289e-06
4.82603e-06
-6.15403e-06
3.89003e-06
-5.79878e-06
3.00214e-06
-4.90317e-06
-3.5256e-06
2.17958e-06
7.60455e-06
-3.13229e-06
7.12597e-06
-4.08255e-06
6.47919e-06
-4.85085e-06
5.72565e-06
-5.28935e-06
4.91846e-06
-5.34683e-06
4.11119e-06
-4.99151e-06
3.36776e-06
-4.15974e-06
-2.90178e-06
2.74394e-06
7.38386e-06
-2.87939e-06
6.95204e-06
-3.65073e-06
6.37771e-06
-4.27653e-06
5.71457e-06
-4.6262e-06
5.01102e-06
-4.64329e-06
4.31751e-06
-4.29799e-06
3.69799e-06
-3.54023e-06
-2.41824e-06
3.21445e-06
7.20327e-06
-2.62652e-06
6.80949e-06
-3.25694e-06
6.29787e-06
-3.76491e-06
5.71326e-06
-4.04159e-06
5.10008e-06
-4.03011e-06
4.50553e-06
-3.70344e-06
3.98998e-06
-3.02468e-06
-2.03917e-06
3.61091e-06
7.05504e-06
-2.37676e-06
6.69334e-06
-2.89523e-06
6.23576e-06
-3.30733e-06
5.71902e-06
-3.52485e-06
5.18367e-06
-3.49476e-06
4.67411e-06
-3.19388e-06
4.24557e-06
-2.59614e-06
-1.74149e-06
3.94789e-06
6.93287e-06
-2.13244e-06
6.59878e-06
-2.56114e-06
6.18736e-06
-2.89591e-06
5.72883e-06
-3.06632e-06
5.2601e-06
-3.02604e-06
4.82323e-06
-2.757e-06
4.468e-06
-2.2409e-06
-1.50994e-06
4.23645e-06
6.83171e-06
-1.89502e-06
6.52162e-06
-2.25104e-06
6.14937e-06
-2.52367e-06
5.74038e-06
-2.65733e-06
5.32853e-06
-2.61419e-06
4.95391e-06
-2.38238e-06
4.66103e-06
-1.94803e-06
-1.33374e-06
4.48483e-06
6.74745e-06