/*--------------------------------*- C++ -*----------------------------------*\
| =========                 |                                                 |
| \\      /  F ield         | OpenFOAM: The Open Source CFD Toolbox           |
|  \\    /   O peration     | Version:  2.4.0                                 |
|   \\  /    A nd           | Web:      www.OpenFOAM.org                      |
|    \\/     M anipulation  |                                                 |
\*---------------------------------------------------------------------------*/
FoamFile
{
    version     2.0;
    format      ascii;
    class       volVectorField;
    location    "4.64";
    object      U;
}
// * * * * * * * * * * * * * * * * * * * * * * * * * * * * * * * * * * * * * //

dimensions      [0 1 -1 0 0 0 0];

internalField   nonuniform List<vector> 
6000
(
(0.165118 -0.00671293 1.28779e-18)
(-0.00974488 0.00185822 0)
(0.000829566 -0.000234426 7.22453e-18)
(-0.00663322 0.00128747 0)
(-0.00500581 0.000987411 0)
(-0.00607712 0.00114007 0)
(-0.00534511 0.000984315 4.00923e-18)
(-0.00551006 0.000962358 3.33596e-22)
(-0.00512815 0.000866933 0)
(-0.0051311 0.000822537 0)
(-0.00495905 0.000760711 3.91056e-18)
(-0.00498897 0.000723902 -7.74675e-18)
(-0.00499468 0.000688212 0)
(-0.0051353 0.000666709 0)
(-0.00531681 0.000650745 -1.87938e-18)
(-0.00560092 0.000641938 0)
(-0.00594507 0.000636296 0)
(-0.00637216 0.000632618 -1.83138e-18)
(-0.00686547 0.000628809 -1.81846e-18)
(-0.00743575 0.000623359 0)
(-0.00807761 0.000614613 1.79818e-18)
(-0.00879329 0.000600627 8.95526e-19)
(-0.00957528 0.000579335 -8.93042e-19)
(-0.0104153 0.000548531 0)
(-0.0112987 0.000506268 0)
(-0.0122097 0.00045091 0)
(-0.0131288 0.000381288 4.47646e-19)
(-0.0140343 0.000296733 -4.49634e-19)
(-0.0149009 0.00019723 0)
(-0.0157001 8.34979e-05 0)
(-0.0164001 -4.2881e-05 5.75423e-20)
(-0.0169659 -0.000179438 0)
(-0.0173594 -0.000322967 4.71815e-19)
(-0.0175403 -0.000469832 -4.78949e-19)
(-0.0174658 -0.000602611 0)
(-0.0170902 -0.000724161 0)
(-0.0163697 -0.000823446 1.01199e-18)
(-0.0152583 -0.000889529 0)
(-0.0137151 -0.000910225 1.05689e-18)
(-0.0116963 -0.000872689 0)
(-0.0091749 -0.000762869 0)
(-0.00612409 -0.000567788 2.26619e-18)
(-0.00255846 -0.000273363 -4.63603e-18)
(0.00140558 0.000122019 0)
(0.00536551 0.00058283 0)
(0.00951999 0.00111868 2.46467e-18)
(0.0137382 0.00173517 0)
(0.0182701 0.00244687 0)
(0.0226839 0.00323765 -5.1069e-18)
(0.0276166 0.00414259 -5.12823e-18)
(0.0319242 0.0050878 -5.10013e-18)
(0.0374277 0.00620947 -1.93412e-21)
(0.0410721 0.00725025 4.91618e-18)
(0.0479166 0.00868981 0)
(0.0497555 0.00966575 -3.20279e-21)
(0.06018 0.0117883 -4.30608e-18)
(0.0576009 0.012232 3.46272e-18)
(0.0771956 0.0161431 3.5024e-18)
(0.0651421 0.0151248 4.38711e-21)
(0.104265 0.0230039 0)
(0.360298 -0.016452 -1.79199e-18)
(0.00301995 0.00650526 4.28281e-18)
(0.0054945 -0.000894249 -4.33275e-18)
(-0.0149536 0.00337547 -4.59682e-18)
(-0.0124292 0.00257916 0)
(-0.0157714 0.00306002 0)
(-0.014284 0.00266564 -4.57709e-18)
(-0.0148823 0.00262613 9.06643e-18)
(-0.0140361 0.00238378 0)
(-0.0141042 0.00227157 0)
(-0.0137214 0.00211643 -4.33854e-18)
(-0.0138302 0.00202469 4.27442e-18)
(-0.013886 0.00193906 2.10528e-18)
(-0.0142823 0.00189058 0)
(-0.0147942 0.00185776 2.04738e-18)
(-0.01557 0.00184339 0)
(-0.0165057 0.00183702 0)
(-0.0176533 0.00183515 0)
(-0.0189711 0.00183239 0)
(-0.020482 0.00182466 0)
(-0.0221707 0.00180723 -9.65196e-24)
(-0.024038 0.00177436 0)
(-0.02606 0.00171991 -9.53408e-19)
(-0.0282094 0.00163738 0)
(-0.0304434 0.00152127 0)
(-0.0327157 0.00136719 4.74609e-19)
(-0.0349725 0.00117209 -4.75464e-19)
(-0.0371544 0.000934383 -4.83122e-24)
(-0.0391944 0.000654265 2.39875e-19)
(-0.0410191 0.000333977 0)
(-0.0425483 -2.18786e-05 -6.09657e-20)
(-0.043695 -0.000406243 -2.46609e-19)
(-0.0443663 -0.00080961 1.09998e-23)
(-0.0444626 -0.00121978 5.07306e-19)
(-0.0438821 -0.00160647 -5.1594e-19)
(-0.0425175 -0.00196229 0)
(-0.0402615 -0.00226049 0)
(-0.0370036 -0.00247282 0)
(-0.0326428 -0.00256716 0)
(-0.0270713 -0.0025093 0)
(-0.0202202 -0.00226052 -2.34881e-18)
(-0.0120284 -0.00178348 0)
(-0.00257553 -0.00103025 2.45284e-18)
(0.00772163 1.97814e-05 2.50789e-18)
(0.0179491 0.00126622 0)
(0.0286534 0.00270195 0)
(0.0395169 0.00434695 0)
(0.0510634 0.0062331 0)
(0.062354 0.00832748 5.55767e-18)
(0.0747532 0.010704 0)
(0.0858252 0.0132034 0)
(0.0994431 0.0161205 -5.60196e-18)
(0.109157 0.0188894 -5.48351e-18)
(0.125668 0.0225767 0)
(0.131705 0.0252672 -1.00796e-17)
(0.155969 0.0305537 0)
(0.152967 0.0321818 -8.01216e-18)
(0.197224 0.0415361 -4.07093e-18)
(0.174664 0.0400737 1.70824e-18)
(0.262911 0.0578897 2.83959e-18)
(0.500825 -0.0113664 -1.73809e-19)
(0.0412844 0.00905997 -4.24607e-18)
(0.0141283 -0.00129385 0)
(-0.0188672 0.0048336 4.60415e-18)
(-0.0175029 0.00374054 0)
(-0.0234487 0.00457217 0)
(-0.0218162 0.00403524 0)
(-0.0230072 0.00400991 -4.53874e-18)
(-0.0219511 0.00367505 0)
(-0.0221629 0.00351948 -4.40989e-18)
(-0.021685 0.00330726 0)
(-0.0219067 0.00318237 0)
(-0.0220556 0.0030732 -2.10648e-18)
(-0.0227067 0.00301749 0)
(-0.023543 0.00298756 0)
(-0.0247762 0.00298358 0)
(-0.0262571 0.00299116 0)
(-0.0280561 0.00300381 0)
(-0.0301119 0.00301422 0)
(-0.0324541 0.00301571 1.93927e-18)
(-0.0350573 0.00300075 -1.92486e-18)
(-0.0379164 0.00295936 0)
(-0.0409892 0.00288112 3.94656e-24)
(-0.0442266 0.00275502 -9.48736e-19)
(-0.0475562 0.00257214 0)
(-0.0509007 0.00232569 -9.46752e-19)
(-0.0541718 0.00201122 0)
(-0.0572737 0.0016267 4.7554e-19)
(-0.0601011 0.00117309 -2.38949e-19)
(-0.0625401 0.000654621 0)
(-0.0644686 7.93384e-05 0)
(-0.0657571 -0.000540771 2.45255e-19)
(-0.066269 -0.00118937 -4.63758e-24)
(-0.0658602 -0.00184454 0)
(-0.0643863 -0.00247887 1.02338e-18)
(-0.0616995 -0.00306234 0)
(-0.0576542 -0.0035576 1.06067e-18)
(-0.0521066 -0.00392327 0)
(-0.0449312 -0.00411219 0)
(-0.0360061 -0.0040747 0)
(-0.0252808 -0.00375352 2.29326e-18)
(-0.0127445 -0.00309181 0)
(0.00135896 -0.00200931 0)
(0.0164492 -0.000463195 -2.40676e-18)
(0.0317545 0.00142278 0)
(0.0479506 0.00360958 0)
(0.0645469 0.00613844 2.62863e-18)
(0.0821728 0.00903684 -2.68801e-18)
(0.0995634 0.0122802 -2.73219e-18)
(0.118481 0.0159268 0)
(0.135726 0.0198256 0)
(0.156359 0.0242634 0)
(0.171947 0.0286479 5.44296e-18)
(0.196516 0.0341473 5.36873e-18)
(0.207439 0.0386133 5.02651e-18)
(0.24252 0.0462082 0)
(0.241798 0.0496367 4.00644e-18)
(0.304177 0.0624302 8.15669e-18)
(0.277981 0.0623405 0)
(0.402784 0.0855037 -2.85858e-18)
(0.60505 0.000253074 -1.44287e-19)
(0.0970013 0.0110029 4.12162e-18)
(0.0279089 -0.00122873 -4.32121e-18)
(-0.0183207 0.005843 0)
(-0.0200965 0.00456411 0)
(-0.0290463 0.0057715 0)
(-0.0278718 0.00514345 0)
(-0.0298417 0.00516811 0)
(-0.0288274 0.00477371 0)
(-0.0292731 0.00460086 4.41266e-18)
(-0.028814 0.00435345 4.34336e-18)
(-0.0291866 0.00421541 0)
(-0.0294682 0.0041006 0)
(-0.0303715 0.00405438 0)
(-0.0315199 0.00404226 2.04724e-18)
(-0.0331692 0.00406171 0)
(-0.0351381 0.00409439 1.99576e-18)
(-0.0375062 0.0041313 -1.97336e-18)
(-0.0401964 0.00416357 0)
(-0.0432386 0.00418227 -1.93551e-18)
(-0.0465961 0.0041769 0)
(-0.0502526 0.00413307 -9.53643e-19)
(-0.0541457 0.00403576 1.897e-18)
(-0.0582012 0.00386944 9.44694e-19)
(-0.0623173 0.00362215 0)
(-0.0663859 0.00328534 4.70643e-19)
(-0.070287 0.00285379 0)
(-0.0738926 0.00232573 4.71944e-19)
(-0.077065 0.00170343 0)
(-0.079659 0.000993576 0)
(-0.0815222 0.000207829 0)
(-0.0824962 -0.000637153 2.42263e-19)
(-0.0824176 -0.00151912 -9.79667e-19)
(-0.0811196 -0.00240924 0)
(-0.0784397 -0.00327395 -5.02623e-19)
(-0.0742158 -0.00407262 0)
(-0.0682966 -0.00475852 -1.03633e-18)
(-0.0605407 -0.00528034 0)
(-0.0508386 -0.00558 0)
(-0.0391003 -0.00559667 0)
(-0.0253352 -0.0052594 2.19985e-18)
(-0.0096126 -0.00449445 0)
(0.00769641 -0.0031974 2.23287e-18)
(0.02613 -0.00131661 -2.26836e-18)
(0.0453518 0.00102144 0)
(0.0659413 0.00377095 -2.43717e-18)
(0.0872937 0.00700014 -5.03239e-18)
(0.110041 0.0107335 2.58832e-18)
(0.132733 0.0149557 5.28709e-18)
(0.157266 0.0196975 -5.37786e-18)
(0.18008 0.0248357 -5.41503e-18)
(0.206727 0.0305913 0)
(0.227903 0.0364545 -5.355e-18)
(0.259108 0.0434655 -5.29934e-18)
(0.275332 0.0496482 -4.95868e-18)
(0.318602 0.0589839 0)
(0.322222 0.0643705 0)
(0.397026 0.0793416 -4.05593e-18)
(0.372683 0.0813796 0)
(0.522536 0.106869 2.79643e-18)
(0.684216 0.0143663 -1.25457e-19)
(0.162887 0.0131456 -3.18914e-20)
(0.0478772 -0.000609471 4.29535e-18)
(-0.0132686 0.00653788 4.59758e-18)
(-0.020091 0.00513259 0)
(-0.0325177 0.00670651 -4.63648e-18)
(-0.032391 0.00602328 0)
(-0.0353563 0.00612383 0)
(-0.0346301 0.0056967 0)
(-0.0354123 0.00552773 4.4136e-18)
(-0.0350823 0.00526445 -4.34425e-18)
(-0.0356474 0.00513018 0)
(-0.036097 0.00502508 0)
(-0.0372478 0.00500222 0)
(-0.0386891 0.00501986 -2.04568e-18)
(-0.040706 0.00507261 0)
(-0.0430947 0.00513808 -1.99259e-18)
(-0.0459363 0.0052052 1.96917e-18)
(-0.0491397 0.00526374 0)
(-0.0527287 0.00530276 0)
(-0.0566529 0.00530871 9.55884e-19)
(-0.0608804 0.00526266 9.48592e-19)
(-0.0653263 0.00514499 -1.8849e-18)
(-0.0698908 0.00493604 -9.37538e-19)
(-0.0744445 0.00462147 0)
(-0.0788527 0.0041919 4.6581e-19)
(-0.08297 0.00364229 0)
(-0.0866453 0.00297197 -4.65634e-19)
(-0.0897204 0.00218526 2.3331e-19)
(-0.0920329 0.00129176 0)
(-0.0934169 0.000306885 0)
(-0.0937048 -0.000748328 -4.742e-19)
(-0.0927281 -0.00184653 4.78129e-19)
(-0.0903227 -0.0029536 0)
(-0.0863299 -0.00402927 -4.87618e-19)
(-0.0805979 -0.00502705 0)
(-0.072992 -0.00589343 9.98296e-19)
(-0.0633935 -0.00657024 0)
(-0.0517228 -0.00699202 0)
(-0.0379262 -0.00708969 0)
(-0.022057 -0.00678151 -2.08279e-18)
(-0.00422187 -0.00597775 -2.09117e-18)
(0.0151863 -0.00455955 -2.09431e-18)
(0.0359381 -0.00247859 1.35663e-21)
(0.0580399 0.000142483 -2.20076e-18)
(0.0819181 0.00326997 2.28714e-18)
(0.106939 0.00699846 4.7353e-18)
(0.133719 0.0113597 0)
(0.160761 0.0163522 -2.51112e-18)
(0.189948 0.021987 5.13668e-18)
(0.217637 0.0281735 5.1985e-18)
(0.24941 0.0350509 0)
(0.275815 0.0422311 0)
(0.312575 0.0505183 0)
(0.334263 0.0583063 4.85051e-18)
(0.383824 0.0689811 0)
(0.393054 0.0763499 0)
(0.476135 0.0926136 3.97854e-18)
(0.457219 0.0971158 -1.6427e-18)
(0.623108 0.122915 -2.77419e-18)
(0.745567 0.0291091 -1.1221e-19)
(0.233429 0.015999 -3.94818e-18)
(0.0745845 0.000577037 0)
(-0.00363396 0.00707566 -4.58757e-18)
(-0.0173749 0.00552704 -4.61173e-18)
(-0.0338131 0.00742488 5.12985e-22)
(-0.035316 0.00670822 0)
(-0.039523 0.00690103 0)
(-0.0393276 0.00646145 0)
(-0.0405613 0.0063129 -4.41422e-18)
(-0.0404679 0.00604966 0)
(-0.0412707 0.00593279 0)
(-0.0419197 0.00584995 2.10498e-18)
(-0.0433109 0.00586123 0)
(-0.0450188 0.00591744 0)
(-0.0473471 0.00600997 0)
(-0.0500762 0.00611232 0)
(-0.0532828 0.00621156 -1.96235e-18)
(-0.0568614 0.00629631 0)
(-0.0608251 0.00635384 1.91792e-18)
(-0.0651074 0.00636751 -9.49313e-19)
(-0.0696583 0.00631407 -9.40626e-19)
(-0.0743712 0.00616965 1.86602e-18)
(-0.0791244 0.00591126 1.85296e-18)
(-0.0837677 0.00552327 0)
(-0.088149 0.00499657 -4.58458e-19)
(-0.0921097 0.00432736 0)
(-0.0954892 0.0035169 0)
(-0.0981246 0.00257207 -4.56e-19)
(-0.0998524 0.00150553 0)
(-0.10051 0.000336178 0)
(-0.0999378 -0.000911226 4.59584e-19)
(-0.0979782 -0.00220573 0)
(-0.0944812 -0.00350914 0)
(-0.0893006 -0.00477705 4.68038e-19)
(-0.0823008 -0.00595909 0)
(-0.0733647 -0.0069973 -9.5183e-19)
(-0.0623918 -0.00782879 0)
(-0.0493212 -0.00838274 0)
(-0.0341164 -0.00858303 0)
(-0.0168442 -0.00833829 0)
(0.0023902 -0.00754333 1.96462e-18)
(0.0232354 -0.00607314 1.96299e-18)
(0.0456604 -0.0038909 1.38908e-21)
(0.069844 -0.00111271 2.05706e-18)
(0.0960831 0.00224904 2.13159e-18)
(0.123763 0.00630604 -2.20975e-18)
(0.153488 0.0111017 0)
(0.183814 0.0166493 -2.34866e-18)
(0.216566 0.0229539 2.41005e-18)
(0.248211 0.0299591 -4.89734e-18)
(0.284143 0.0377366 0)
(0.315179 0.0460224 0)
(0.356576 0.0553691 -4.92856e-18)
(0.38359 0.064594 -4.65787e-18)
(0.438164 0.0763261 4.60133e-18)
(0.453595 0.0855953 3.78167e-18)
(0.54229 0.102584 -3.89507e-18)
(0.530737 0.109603 1.61579e-18)
(0.70626 0.134479 0)
(0.793858 0.0436828 -1.01241e-19)
(0.304755 0.019788 0)
(0.107951 0.00233436 4.22286e-18)
(0.0107045 0.00761719 4.57129e-18)
(-0.0118461 0.0058256 -6.11569e-23)
(-0.0328741 0.00797394 4.63582e-18)
(-0.036587 0.00723182 0)
(-0.0423108 0.00752404 0)
(-0.0428883 0.0070855 0)
(-0.0447011 0.00696955 2.20673e-18)
(-0.0449506 0.0067184 2.17122e-18)
(-0.0460399 0.00662927 0)
(-0.0469161 0.00657808 -2.10314e-18)
(-0.0485382 0.00663104 2.07041e-18)
(-0.0504799 0.00673137 0)
(-0.0530565 0.00686669 0)
(-0.0560372 0.0070064 0)
(-0.0594901 0.00713582 5.55329e-23)
(-0.0632959 0.00724269 0)
(-0.067454 0.00731276 -3.80472e-18)
(-0.0718827 0.00732666 9.39853e-19)
(-0.0765156 0.00725737 9.29421e-19)
(-0.0812303 0.00707758 -2.56603e-23)
(-0.0858914 0.0067621 -9.11299e-19)
(-0.0903392 0.00629513 0)
(-0.094417 0.00566892 0)
(-0.0979654 0.00488158 0)
(-0.100828 0.00393666 2.22002e-19)
(-0.102847 0.00284352 4.42626e-19)
(-0.103869 0.00161745 0)
(-0.103744 0.000279997 0)
(-0.102322 -0.00114151 -4.42262e-19)
(-0.099463 -0.00261361 -2.2152e-19)
(-0.0950252 -0.00409595 0)
(-0.0888737 -0.00554162 0)
(-0.0808837 -0.0068974 0)
(-0.0709484 -0.00810212 0)
(-0.0589761 -0.00908916 0)
(-0.0449129 -0.00978306 0)
(-0.0287264 -0.0101009 0)
(-0.0104806 -0.0099424 0)
(0.00973669 -0.00918823 0)
(0.0316383 -0.00771341 -1.10247e-21)
(0.0553242 -0.00549787 1.87364e-18)
(0.0810266 -0.0026498 0)
(0.10895 0.00084505 -3.98743e-18)
(0.138515 0.00510615 -2.05883e-18)
(0.170305 0.0101881 0)
(0.202974 0.0161136 2.18915e-18)
(0.238271 0.0228913 -2.24798e-18)
(0.272877 0.0304905 4.57629e-18)
(0.311924 0.0389414 -4.64691e-18)
(0.346725 0.0480844 0)
(0.391788 0.0582635 9.3447e-21)
(0.423587 0.0686861 4.42335e-18)
(0.482169 0.0812459 -8.77685e-18)
(0.503772 0.0922196 -1.32003e-20)
(0.596448 0.10959 -3.73173e-18)
(0.592988 0.118973 1.54051e-18)
(0.773887 0.142271 2.59852e-18)
(0.832279 0.0576525 3.10644e-18)
(0.374283 0.0245388 0)
(0.147335 0.00468033 2.61619e-21)
(0.029883 0.00828491 -2.76083e-22)
(-0.0034081 0.0061313 4.59861e-18)
(-0.0296297 0.008402 4.63214e-18)
(-0.0361394 0.00762895 0)
(-0.0436826 0.00801824 4.54411e-18)
(-0.0452785 0.0075872 0)
(-0.0478106 0.00751163 -2.20618e-18)
(-0.0485098 0.00728047 -9.43688e-23)
(-0.0499385 0.00722606 -2.13551e-18)
(-0.0510675 0.00721247 0)
(-0.0529092 0.0073114 -4.13253e-18)
(-0.0550473 0.00745804 0)
(-0.0578045 0.00763592 0)
(-0.0609436 0.00781025 0)
(-0.0645228 0.00796491 1.93876e-18)
(-0.0684111 0.00808711 0)
(-0.0725957 0.00816168 1.88177e-18)
(-0.0769838 0.00816715 -1.85524e-18)
(-0.0814986 0.00807359 0)
(-0.0860106 0.00785127 -2.72656e-23)
(-0.0903808 0.00747379 0)
(-0.0944506 0.00692605 0)
(-0.0980678 0.00620216 -4.3722e-19)
(-0.101081 0.00530221 0)
(-0.103342 0.00423177 -4.30417e-19)
(-0.104705 0.00300211 -2.1399e-19)
(-0.105027 0.0016304 -5.32682e-20)
(-0.104167 0.000139928 5.31268e-20)
(-0.101989 -0.00144045 2.12208e-19)
(-0.0983588 -0.00307566 4.24195e-19)
(-0.0931417 -0.00472433 0)
(-0.0862095 -0.00633767 4.25688e-19)
(-0.0774436 -0.0078601 0)
(-0.0667422 -0.00922774 0)
(-0.0540169 -0.0103705 0)
(-0.0392157 -0.0112086 8.67925e-19)
(-0.0223044 -0.0116526 0)
(-0.00333894 -0.0115939 0)
(0.0176163 -0.0109016 1.75475e-18)
(0.0403398 -0.00945478 -1.7579e-18)
(0.0650067 -0.00725173 0)
(0.0918372 -0.0043918 0)
(0.120975 -0.000832372 1.87625e-18)
(0.15188 0.00354761 1.93178e-18)
(0.185106 0.00881235 -1.98638e-18)
(0.21941 0.014988 0)
(0.256461 0.0220909 0)
(0.293177 0.0301036 0)
(0.334418 0.039037 7.78832e-21)
(0.372063 0.0488028 0)
(0.419822 0.0595998 4.34734e-18)
(0.455563 0.0709434 0)
(0.517196 0.0841231 4.13203e-18)
(0.544395 0.0965053 -3.43163e-18)
(0.639924 0.114046 7.09794e-18)
(0.644391 0.125472 -1.47808e-18)
(0.827908 0.146945 -2.50011e-18)
(0.863048 0.0707554 8.43664e-20)
(0.440375 0.0301507 -3.63083e-18)
(0.191701 0.00763761 -4.1179e-18)
(0.0539151 0.00919045 -1.83427e-22)
(0.00811387 0.00653483 -4.5863e-18)
(-0.0239975 0.00875933 -4.62717e-18)
(-0.0339033 0.00793584 0)
(-0.0435933 0.00840955 -4.54234e-18)
(-0.0464598 0.00798545 0)
(-0.0498646 0.00795349 -2.20497e-18)
(-0.0511234 0.007746 -2.1686e-18)
(-0.0529494 0.00772992 2.13307e-18)
(-0.0543568 0.00775645 -2.09641e-18)
(-0.0564074 0.00790246 2.06066e-18)
(-0.0587031 0.00809462 -2.02479e-18)
(-0.0615747 0.00831218 1.98973e-18)
(-0.0647832 0.00851624 0)
(-0.0683798 0.00868972 0)
(-0.0722264 0.00881987 0)
(-0.0763023 0.00889132 9.284e-19)
(-0.0805094 0.00888123 9.13184e-19)
(-0.0847676 0.00875762 0)
(-0.0889478 0.0084891 -8.85063e-19)
(-0.092915 0.00804871 0)
(-0.0965173 0.00742233 0)
(-0.0996117 0.00660585 4.25199e-19)
(-0.102056 0.00560103 -4.20588e-19)
(-0.103713 0.00441488 2.08344e-19)
(-0.104445 0.00305998 0)
(-0.104117 0.00155468 1.02721e-19)
(-0.102598 -7.65777e-05 -1.02263e-19)
(-0.0997591 -0.00180406 0)
(-0.0954686 -0.00359192 -2.03401e-19)
(-0.0895966 -0.00539786 4.06599e-19)
(-0.0820194 -0.00717145 -4.07221e-19)
(-0.0726219 -0.00885502 0)
(-0.0613049 -0.0103822 0)
(-0.0479815 -0.0116795 0)
(-0.0325992 -0.0126632 -8.28215e-19)
(-0.0151208 -0.0132374 0)
(0.00440801 -0.0132865 0)
(0.0259473 -0.012671 -1.67588e-18)
(0.049334 -0.0112756 0)
(0.07478 -0.00911582 1.69611e-18)
(0.102463 -0.00628151 -1.73246e-18)
(0.132488 -0.00270298 0)
(0.164353 0.00173884 1.8214e-18)
(0.198581 0.00711646 3.73839e-18)
(0.234024 0.0134545 -1.91061e-18)
(0.272266 0.0207793 0)
(0.310454 0.0290747 0)
(0.353186 0.0383482 2.01989e-18)
(0.392891 0.0485487 0)
(0.442522 0.0597889 4.03412e-18)
(0.481312 0.0717948 0)
(0.545117 0.0854155 3.8413e-18)
(0.577012 0.0988685 3.19495e-18)
(0.674484 0.116439 -3.33694e-18)
(0.686091 0.129481 0)
(0.870408 0.149136 2.34198e-18)
(0.887777 0.0828571 -3.35781e-18)
(0.502059 0.036456 2.00232e-20)
(0.239807 0.0112173 4.06367e-18)
(0.0826954 0.010444 -1.6292e-22)
(0.0229036 0.00710297 -6.61974e-22)
(-0.0158804 0.00909833 0)
(-0.0298028 0.00819018 0)
(-0.0419892 0.00872442 0)
(-0.046389 0.00829976 -2.23622e-18)
(-0.0508336 0.00830989 4.40687e-18)
(-0.0527676 0.00812558 0)
(-0.0550555 0.00814804 2.12967e-18)
(-0.0567696 0.00821397 6.36645e-23)
(-0.0590221 0.00840535 -2.05342e-18)
(-0.0614411 0.00863985 5.82381e-23)
(-0.0643691 0.00889261 -1.97673e-18)
(-0.0675726 0.00912077 0)
(-0.0711003 0.00930691 0)
(-0.074813 0.0094388 0)
(-0.0786869 0.00950154 -9.14579e-19)
(-0.0826238 0.00947148 0)
(-0.0865451 0.00931519 8.81242e-19)
(-0.0903269 0.009 8.65937e-19)
(-0.0938412 0.00849861 -8.51698e-19)
(-0.0969455 0.00779781 0)
(-0.0995061 0.00689499 0)
(-0.10139 0.00579312 4.08233e-19)
(-0.102468 0.00450017 0)
(-0.10261 0.00302954 1.99958e-19)
(-0.101689 0.00140037 -4.96168e-20)
(-0.0995777 -0.000362155 4.93271e-20)
(-0.0961516 -0.00222783 -1.96291e-19)
(-0.0912818 -0.00416039 0)
(-0.0848416 -0.00611651 -3.90986e-19)
(-0.0767106 -0.00804429 0)
(-0.0667763 -0.00988409 0)
(-0.054941 -0.0115671 7.8657e-19)
(-0.0411188 -0.0130169 0)
(-0.0252563 -0.0141455 0)
(-0.00731259 -0.0148517 0)
(0.0126771 -0.0150138 0)
(0.0346959 -0.0144858 0)
(0.0586296 -0.0131593 0)
(0.0847017 -0.0110634 -3.2609e-18)
(0.113035 -0.00827844 1.6607e-18)
(0.143714 -0.00471069 1.69506e-18)
(0.17627 -0.000244989 -3.46548e-18)
(0.211196 0.00519856 -1.7718e-18)
(0.24743 0.0116396 1.80607e-18)
(0.286472 0.0191155 -1.8374e-18)
(0.325676 0.027602 0)
(0.369398 0.0371152 3.60225e-21)
(0.410563 0.0476113 -3.74335e-18)
(0.461444 0.0591649 -3.76647e-18)
(0.502509 0.0716223 -3.57859e-18)
(0.56777 0.0855445 -7.15568e-18)
(0.603404 0.0997514 -2.98538e-18)
(0.702076 0.117261 3.09179e-18)
(0.719719 0.131461 1.26859e-18)
(0.903621 0.149448 -2.20234e-18)
(0.907675 0.0939141 -7.31332e-20)
(0.558821 0.043262 3.49156e-18)
(0.290356 0.0154066 2.24796e-21)
(0.115959 0.0121281 -2.02971e-22)
(0.0411413 0.00790417 4.54559e-18)
(-0.00517014 0.00947217 4.60673e-18)
(-0.0237568 0.00843118 -4.5754e-18)
(-0.038807 0.00898974 2.26737e-18)
(-0.0450165 0.00855036 4.42844e-23)
(-0.0506828 0.00859608 -2.20137e-18)
(-0.053416 0.00843038 -2.16352e-18)
(-0.0562395 0.00848834 -2.12561e-18)
(-0.058295 0.00858999 4.17081e-18)
(-0.0607507 0.00882282 5.39266e-23)
(-0.063269 0.00909492 2.00334e-18)
(-0.0662107 0.00937784 0)
(-0.0693554 0.00962488 1.92019e-18)
(-0.0727556 0.00981878 0)
(-0.0762758 0.00994809 -1.83918e-18)
(-0.0798928 0.0099988 -9.00208e-19)
(-0.0835114 0.00994668 -8.81608e-19)
(-0.0870569 0.00975721 -2.78823e-23)
(-0.0904125 0.0093966 -8.47364e-19)
(-0.093459 0.00883726 8.31943e-19)
(-0.0960632 0.00806671 0)
(-0.0981001 0.0070835 -4.02515e-19)
(-0.0994449 0.00589146 0)
(-0.0999748 0.00449918 0)
(-0.099566 0.00292056 -1.93956e-19)
(-0.098096 0.00117529 0)
(-0.0954427 -0.000710976 0)
(-0.0914832 -0.00270785 1.89832e-19)
(-0.0860907 -0.00477864 0)
(-0.0791416 -0.00687901 0)
(-0.0705184 -0.00895564 3.7751e-19)
(-0.0601106 -0.010947 0)
(-0.0478223 -0.0127822 -7.59095e-19)
(-0.0335678 -0.0143815 0)
(-0.0172929 -0.0156537 7.66539e-19)
(0.00104631 -0.0164922 0)
(0.0214254 -0.0167704 0)
(0.0438475 -0.016338 0)
(0.0682377 -0.0150933 0)
(0.0948159 -0.0130751 1.57581e-18)
(0.12365 -0.0103541 0)
(0.154809 -0.00681664 -3.25787e-18)
(0.187861 -0.00235236 1.65972e-18)
(0.223267 0.00312543 -1.68862e-18)
(0.260041 0.00962884 1.71512e-18)
(0.299609 0.0172073 1.74373e-18)
(0.339502 0.0258214 0)
(0.383861 0.0355039 1.77493e-18)
(0.426044 0.0461958 5.27658e-18)
(0.477726 0.0579698 -3.51536e-18)
(0.520459 0.0707187 3.34967e-18)
(0.586635 0.084841 3.33774e-18)
(0.625164 0.0995375 0)
(0.724465 0.116931 -2.88636e-18)
(0.747008 0.131872 -2.35564e-18)
(0.9297 0.148403 0)
(0.92368 0.10394 3.58527e-18)
(0.610463 0.0503781 0)
(0.342113 0.0201649 2.03172e-21)
(0.153276 0.0142995 -2.8328e-22)
(0.0629716 0.00899955 -4.51909e-18)
(0.00825511 0.00993973 -9.18409e-18)
(-0.0156785 0.00869968 9.13771e-18)
(-0.0339739 0.00923297 -2.26474e-18)
(-0.0422862 0.00875835 2.23212e-18)
(-0.0493717 0.00882803 0)
(-0.0530395 0.00867238 4.36039e-23)
(-0.0564842 0.0087598 0)
(-0.0589265 0.00889095 -4.15695e-18)
(-0.061599 0.00915958 2.03525e-18)
(-0.0642069 0.00946371 0)
(-0.0671382 0.00977187 0)
(-0.0701929 0.0100335 -1.90098e-18)
(-0.0734326 0.0102317 0)
(-0.0767292 0.0103557 1.81385e-18)
(-0.0800623 0.0103925 8.86186e-19)
(-0.0833411 0.0103176 2.60008e-23)
(-0.0864963 0.0100953 -8.47597e-19)
(-0.089419 0.00969108 -8.2998e-19)
(-0.0919988 0.00907691 0)
(-0.0941117 0.00824085 0)
(-0.0956407 0.0071824 3.92732e-19)
(-0.0964681 0.00590596 0)
(-0.0964769 0.00442048 1.9083e-19)
(-0.0955482 0.00274019 -1.88672e-19)
(-0.0935636 0.000885146 4.67309e-20)
(-0.0904047 -0.00111873 -4.63564e-20)
(-0.0859496 -0.00324102 1.84236e-19)
(-0.0800739 -0.00544455 -1.83455e-19)
(-0.0726572 -0.00768394 3.66115e-19)
(-0.0635843 -0.00990456 -3.66128e-19)
(-0.052747 -0.0120431 0)
(-0.0400507 -0.0140266 0)
(-0.0254105 -0.0157723 0)
(-0.0087715 -0.0171859 -2.48762e-22)
(0.00991314 -0.018156 7.47285e-19)
(0.0306291 -0.0185524 0)
(0.0533956 -0.0182215 0)
(0.078169 -0.0170678 0)
(0.105156 -0.0151362 0)
(0.134374 -0.0124879 0)
(0.165884 -0.00899342 1.2351e-21)
(0.199283 -0.00454747 0)
(0.235008 0.000942922 3.24534e-18)
(0.272138 0.00748079 -3.2862e-18)
(0.312031 0.0151279 -1.6616e-18)
(0.352374 0.0238248 0)
(0.397116 0.033627 0)
(0.439994 0.0444434 -3.3214e-18)
(0.492157 0.0563716 8.18783e-21)
(0.536096 0.0692937 -3.13262e-18)
(0.6028 0.0835443 3.1108e-18)
(0.643539 0.0985239 2.57325e-18)
(0.743054 0.115773 -2.66983e-18)
(0.769489 0.131107 2.16908e-18)
(0.950474 0.146412 1.88227e-18)
(0.936534 0.11298 6.54477e-20)
(0.656998 0.05763 -3.35013e-18)
(0.393965 0.0254256 -7.78164e-18)
(0.194068 0.0169903 -3.94027e-22)
(0.088461 0.010443 4.48666e-18)
(0.024534 0.0105587 4.5721e-18)
(-0.00547618 0.00904006 -2.27905e-18)
(-0.0274065 0.00948212 0)
(-0.0381348 0.00894586 0)
(-0.0468533 0.00902253 2.19586e-18)
(-0.0516056 0.0088646 2.15653e-18)
(-0.0557715 0.00897257 0)
(-0.0586597 0.00912481 2.0711e-18)
(-0.0615779 0.00942229 0)
(-0.0642824 0.00975236 0)
(-0.0671976 0.0100811 0)
(-0.0701504 0.0103538 0)
(-0.0732166 0.0105537 1.83511e-18)
(-0.0762778 0.0106707 8.94813e-19)
(-0.0793179 0.0106926 -8.7298e-19)
(-0.082251 0.0105944 2.49743e-23)
(-0.0850142 0.0103399 0)
(-0.0875068 0.00989368 8.14295e-19)
(-0.0896275 0.00922736 0)
(-0.0912609 0.00832939 0)
(-0.0922979 0.00719999 3.84056e-19)
(-0.092627 0.00584393 -3.77953e-19)
(-0.0921364 0.00427032 -1.86358e-19)
(-0.0907115 0.00249359 1.84144e-19)
(-0.0882377 0.000534077 -9.11694e-20)
(-0.0845994 -0.00158228 9.03655e-20)
(-0.0796756 -0.00382505 -1.7952e-19)
(-0.0733451 -0.00615647 1.78706e-19)
(-0.0654899 -0.00853017 -7.37365e-23)
(-0.0559978 -0.0108902 -3.5636e-19)
(-0.0447624 -0.0131718 0)
(-0.0316907 -0.0152996 0)
(-0.0166988 -0.0171885 0)
(0.000268765 -0.0187409 -1.44732e-18)
(0.0192613 -0.0198414 -7.27633e-19)
(0.0402734 -0.0203567 0)
(0.0633368 -0.0201314 0)
(0.0884323 -0.0190753 -1.47827e-18)
(0.115749 -0.0172356 0)
(0.145259 -0.0146649 0)
(0.177017 -0.0112212 3.05591e-18)
(0.21065 -0.00680484 -1.54716e-18)
(0.24657 -0.00131672 -3.13505e-18)
(0.283916 0.00523607 1.869e-21)
(0.323983 0.0129278 3.19402e-18)
(0.364597 0.0216755 1.59857e-18)
(0.409536 0.0315617 0)
(0.452866 0.0424507 1.58085e-18)
(0.505278 0.0544854 3.14325e-18)
(0.550075 0.0674938 2.96558e-18)
(0.617028 0.081822 -2.93558e-18)
(0.659444 0.0969277 -2.42055e-18)
(0.75888 0.114022 2.50464e-18)
(0.788378 0.129476 -1.00748e-18)
(0.967367 0.143775 -1.7583e-18)
(0.946832 0.121097 6.24692e-20)
(0.698582 0.0648678 3.31094e-18)
(0.444963 0.0311017 -1.57266e-21)
(0.237647 0.0202089 -5.30439e-22)
(0.117571 0.0122791 0)
(0.0437842 0.011388 0)
(0.0069717 0.00949508 1.72138e-22)
(-0.01901 0.00976631 0)
(-0.0324904 0.00913619 0)
(-0.0430728 0.00919725 -6.99284e-24)
(-0.0490761 0.0090211 0)
(-0.0540798 0.00913802 0)
(-0.057489 0.00930095 2.06371e-18)
(-0.0606982 0.00961914 0)
(-0.0635224 0.00996855 0)
(-0.0664321 0.0103134 0)
(-0.0692868 0.0105939 0)
(-0.0721807 0.0107936 -3.58063e-23)
(-0.0750072 0.0109019 -8.83737e-19)
(-0.0777556 0.0109078 1.72203e-18)
(-0.080346 0.0107859 2.3289e-23)
(-0.082722 0.0104996 8.19186e-19)
(-0.0847918 0.0100126 0)
(-0.0864632 0.00929624 7.8294e-19)
(-0.0876294 0.0083393 0)
(-0.0881885 0.0071425 -3.76537e-19)
(-0.0880351 0.00571079 2.86039e-23)
(-0.0870623 0.00405331 0)
(-0.0851594 0.00218458 0)
(-0.0822154 0.000125094 5.49612e-24)
(-0.0781168 -0.00209934 -6.22909e-24)
(-0.0727442 -0.00445824 8.7722e-20)
(-0.0659794 -0.00691319 0)
(-0.0577074 -0.00941684 -3.48395e-19)
(-0.0478182 -0.0119121 3.48252e-19)
(-0.0362079 -0.0143325 0)
(-0.0227853 -0.0166008 -6.99787e-19)
(-0.00746717 -0.0186293 0)
(0.00980167 -0.0203177 2.08421e-22)
(0.0290729 -0.0215469 0)
(0.0503483 -0.022181 7.14682e-19)
(0.0736692 -0.0220641 7.18849e-19)
(0.0990348 -0.0211097 6.40166e-22)
(0.126614 -0.0193646 -1.45767e-18)
(0.156341 -0.0168735 0)
(0.188267 -0.0134854 -1.05149e-21)
(0.222043 -0.00910581 1.50691e-18)
(0.258061 -0.00363018 1.47723e-21)
(0.295512 0.00292375 1.53398e-18)
(0.335637 0.0106426 -2.0262e-21)
(0.376383 0.0194179 -2.35033e-21)
(0.421377 0.0293616 0)
(0.464975 0.0402853 0)
(0.51746 0.0523911 0)
(0.562852 0.0654212 0)
(0.62985 0.0797906 0)
(0.673534 0.0949038 2.26736e-18)
(0.772687 0.111842 0)
(0.804592 0.127209 0)
(0.981427 0.140703 -1.6286e-18)
(0.95506 0.128365 -1.92474e-18)
(0.735465 0.0719682 0)
(0.494326 0.0370938 -1.38066e-21)
(0.283257 0.0239402 -6.86813e-22)
(0.150142 0.0145417 0)
(0.0660925 0.0124851 2.26071e-18)
(0.0218023 0.0101065 -2.26429e-18)
(-0.00867817 0.0101157 0)
(-0.0252716 0.00935394 0)
(-0.0379649 0.00937072 -2.18966e-18)
(-0.0454045 0.00915696 0)
(-0.0513805 0.00926854 0)
(-0.055403 0.0094298 -2.05686e-18)
(-0.0589651 0.0097593 0)
(-0.0619477 0.0101208 -1.9534e-18)
(-0.0648762 0.0104769 0)
(-0.0676483 0.0107619 0)
(-0.0703811 0.0109591 -2.78997e-23)
(-0.0729816 0.0110572 0)
(-0.0754464 0.0110459 -8.50398e-19)
(-0.0777019 0.0108995 8.28224e-19)
(-0.0796993 0.0105812 -1.61486e-18)
(-0.0813558 0.0100542 7.88107e-19)
(-0.0825883 0.00928956 -7.70412e-19)
(-0.083299 0.00827601 0)
(-0.0833929 0.00701473 -3.69986e-19)
(-0.0827704 0.00551069 7.27402e-19)
(-0.0813293 0.00377296 0)
(-0.0789628 0.00181603 -8.84336e-20)
(-0.0755632 -0.000339552 4.37406e-20)
(-0.0710187 -0.00266822 -4.33187e-20)
(-0.0652122 -0.00513933 -8.60099e-20)
(-0.0580288 -0.00771379 0)
(-0.049356 -0.0103433 -3.41398e-19)
(-0.0390869 -0.0129697 3.41245e-19)
(-0.0271194 -0.0155249 0)
(-0.0133644 -0.01793 6.86124e-19)
(0.00225991 -0.0200946 0)
(0.0198088 -0.0219158 6.9277e-19)
(0.0393351 -0.0232714 0)
(0.0608465 -0.0240237 -7.01e-19)
(0.0843916 -0.0240163 -7.05458e-19)
(0.109982 -0.023166 6.0205e-22)
(0.137767 -0.0215165 1.431e-18)
(0.16765 -0.0191052 0)
(0.199677 -0.0157748 -1.45892e-18)
(0.233522 -0.0114365 0)
(0.26956 -0.00598022 1.48514e-18)
(0.307029 0.000565135 0)
(0.347118 0.00829833 -1.49895e-18)
(0.387885 0.017084 -2.98494e-18)
(0.432822 0.0270653 0)
(0.476541 0.037995 0)
(0.528969 0.0501451 0)
(0.574748 0.0631481 1.34206e-18)
(0.641641 0.0775317 0)
(0.686273 0.0925629 -1.01778e-20)
(0.785001 0.109349 0)
(0.818797 0.124473 8.55769e-19)
(0.993408 0.13734 1.53461e-18)
(0.961618 0.13486 0)
(0.767956 0.0788344 3.22249e-18)
(0.541443 0.0432966 3.7405e-18)
(0.330117 0.0281471 -8.5456e-22)
(0.185891 0.0172515 0)
(0.091502 0.0139015 -2.2454e-18)
(0.0391528 0.0109162 0)
(0.0037032 0.0105631 2.24758e-18)
(-0.0163885 0.00962508 2.22039e-18)
(-0.0314535 0.00956232 2.18665e-18)
(-0.0405338 0.00928822 2.14562e-18)
(-0.0476345 0.00937738 2.10083e-18)
(-0.0523808 0.00952261 0)
(-0.0563742 0.00985255 0)
(-0.0595678 0.0102177 1.94328e-18)
(-0.0625514 0.0105795 0)
(-0.0652659 0.0108653 0)
(-0.0678563 0.0110576 -1.78109e-18)
(-0.0702455 0.0111434 0)
(-0.0724392 0.0111133 -8.41145e-19)
(-0.0743713 0.0109412 0)
(-0.0760011 0.0105906 7.97236e-19)
(-0.0772552 0.010024 -7.77571e-19)
(-0.0780601 0.00921212 0)
(-0.0783265 0.00814384 0)
(-0.0779668 0.00682048 2.13825e-23)
(-0.0768869 0.00524692 -3.58044e-19)
(-0.0749894 0.00343201 0)
(-0.0721708 0.00139018 8.70125e-20)
(-0.0683274 -0.000858123 4.30014e-20)
(-0.0633482 -0.00328759 -4.25779e-20)
(-0.0571197 -0.00586734 0)
(-0.0495298 -0.0085576 0)
(-0.040469 -0.0113092 5.85449e-23)