/*--------------------------------*- C++ -*----------------------------------*\
| =========                 |                                                 |
| \\      /  F ield         | OpenFOAM: The Open Source CFD Toolbox           |
|  \\    /   O peration     | Version:  2.4.0                                 |
|   \\  /    A nd           | Web:      www.OpenFOAM.org                      |
|    \\/     M anipulation  |                                                 |
\*---------------------------------------------------------------------------*/
FoamFile
{
    version     2.0;
    format      ascii;
    class       volScalarField;
    location    "260";
    object      nut;
}
// * * * * * * * * * * * * * * * * * * * * * * * * * * * * * * * * * * * * * //

dimensions      [0 2 -1 0 0 0 0];

internalField   nonuniform List<scalar> 
10000
(
0.0012422
0.00124166
0.00124119
0.00124078
0.00124043
0.00124013
0.00123988
0.00123967
0.00123951
0.0012394
0.00123933
0.00123931
0.00123934
0.00123937
0.00123907
0.00123626
0.00121921
0.00113138
0.000776749
0.000177398
0.0012422
0.00124166
0.00124119
0.00124078
0.00124043
0.00124013
0.00123988
0.00123967
0.00123951
0.0012394
0.00123933
0.00123931
0.00123934
0.00123938
0.00123913
0.00123684
0.0012237
0.00116349
0.000951488
0.000504285
0.0012422
0.00124166
0.00124119
0.00124078
0.00124043
0.00124013
0.00123988
0.00123967
0.00123951
0.00123939
0.00123932
0.0012393
0.00123933
0.00123938
0.00123922
0.00123763
0.00122911
0.00119428
0.00108476
0.000843294
0.0012422
0.00124166
0.00124119
0.00124078
0.00124043
0.00124013
0.00123988
0.00123967
0.00123951
0.00123939
0.00123931
0.00123929
0.00123931
0.00123936
0.0012393
0.00123834
0.00123345
0.00121524
0.0011631
0.00105145
0.0012422
0.00124166
0.00124119
0.00124078
0.00124043
0.00124013
0.00123988
0.00123967
0.0012395
0.00123938
0.0012393
0.00123927
0.00123928
0.00123934
0.00123934
0.00123884
0.0012363
0.00122745
0.00120386
0.00115523
0.0012422
0.00124166
0.00124119
0.00124078
0.00124043
0.00124013
0.00123987
0.00123966
0.00123949
0.00123937
0.00123928
0.00123924
0.00123925
0.0012393
0.00123934
0.00123914
0.00123794
0.0012339
0.00122362
0.00120299
0.0012422
0.00124166
0.00124119
0.00124078
0.00124043
0.00124013
0.00123987
0.00123966
0.00123948
0.00123935
0.00123926
0.00123922
0.00123922
0.00123926
0.00123931
0.00123926
0.00123877
0.00123705
0.00123273
0.00122415
0.0012422
0.00124166
0.00124119
0.00124078
0.00124043
0.00124012
0.00123987
0.00123965
0.00123948
0.00123934
0.00123925
0.00123919
0.00123918
0.0012392
0.00123926
0.00123928
0.00123913
0.00123846
0.00123674
0.00123327
0.0012422
0.00124166
0.00124119
0.00124078
0.00124043
0.00124012
0.00123986
0.00123964
0.00123947
0.00123933
0.00123923
0.00123916
0.00123914
0.00123915
0.00123919
0.00123924
0.00123923
0.00123902
0.00123839
0.00123705
0.0012422
0.00124166
0.00124119
0.00124078
0.00124043
0.00124012
0.00123986
0.00123964
0.00123946
0.00123931
0.00123921
0.00123913
0.0012391
0.00123909
0.00123912
0.00123917
0.00123921
0.00123917
0.00123899
0.00123852
0.0012422
0.00124166
0.00124119
0.00124078
0.00124043
0.00124012
0.00123986
0.00123963
0.00123945
0.0012393
0.00123919
0.00123911
0.00123906
0.00123904
0.00123905
0.00123909
0.00123913
0.00123916
0.00123913
0.001239
0.0012422
0.00124166
0.00124119
0.00124078
0.00124042
0.00124012
0.00123985
0.00123963
0.00123944
0.00123929
0.00123917
0.00123908
0.00123902
0.00123899
0.00123899
0.00123901
0.00123904
0.00123907
0.0012391
0.00123909
0.0012422
0.00124166
0.00124119
0.00124078
0.00124042
0.00124011
0.00123985
0.00123962
0.00123943
0.00123928
0.00123915
0.00123906
0.00123899
0.00123895
0.00123893
0.00123893
0.00123895
0.00123897
0.001239
0.00123903
0.0012422
0.00124166
0.00124119
0.00124078
0.00124042
0.00124011
0.00123985
0.00123962
0.00123943
0.00123927
0.00123914
0.00123903
0.00123896
0.0012389
0.00123887
0.00123886
0.00123886
0.00123887
0.00123889
0.00123892
0.0012422
0.00124166
0.00124119
0.00124078
0.00124042
0.00124011
0.00123984
0.00123961
0.00123942
0.00123926
0.00123912
0.00123901
0.00123893
0.00123887
0.00123882
0.0012388
0.00123878
0.00123878
0.00123879
0.0012388
0.0012422
0.00124166
0.00124119
0.00124078
0.00124042
0.00124011
0.00123984
0.00123961
0.00123941
0.00123925
0.00123911
0.001239
0.00123891
0.00123883
0.00123878
0.00123874
0.00123872
0.0012387
0.0012387
0.0012387
0.0012422
0.00124166
0.00124119
0.00124078
0.00124042
0.00124011
0.00123984
0.00123961
0.00123941
0.00123924
0.0012391
0.00123898
0.00123888
0.00123881
0.00123874
0.0012387
0.00123866
0.00123864
0.00123862
0.00123861
0.0012422
0.00124166
0.00124119
0.00124078
0.00124042
0.00124011
0.00123984
0.0012396
0.0012394
0.00123923
0.00123909
0.00123897
0.00123886
0.00123878
0.00123871
0.00123866
0.00123862
0.00123858
0.00123856
0.00123854
0.0012422
0.00124166
0.00124119
0.00124078
0.00124042
0.00124011
0.00123984
0.0012396
0.0012394
0.00123923
0.00123908
0.00123895
0.00123885
0.00123876
0.00123869
0.00123863
0.00123858
0.00123854
0.0012385
0.00123847
0.0012422
0.00124166
0.00124119
0.00124078
0.00124042
0.00124011
0.00123983
0.0012396
0.00123939
0.00123922
0.00123907
0.00123894
0.00123883
0.00123874
0.00123866
0.0012386
0.00123854
0.0012385
0.00123846
0.00123842
0.0012422
0.00124166
0.00124119
0.00124078
0.00124042
0.0012401
0.00123983
0.0012396
0.00123939
0.00123921
0.00123906
0.00123893
0.00123882
0.00123872
0.00123864
0.00123857
0.00123851
0.00123846
0.00123842
0.00123838
0.0012422
0.00124166
0.00124119
0.00124078
0.00124042
0.0012401
0.00123983
0.00123959
0.00123939
0.00123921
0.00123905
0.00123892
0.00123881
0.00123871
0.00123862
0.00123855
0.00123849
0.00123843
0.00123839
0.00123834
0.0012422
0.00124166
0.00124119
0.00124078
0.00124042
0.0012401
0.00123983
0.00123959
0.00123938
0.0012392
0.00123905
0.00123891
0.0012388
0.0012387
0.00123861
0.00123853
0.00123847
0.00123841
0.00123836
0.00123831
0.0012422
0.00124166
0.00124119
0.00124078
0.00124042
0.0012401
0.00123983
0.00123959
0.00123938
0.0012392
0.00123904
0.00123891
0.00123879
0.00123868
0.00123859
0.00123852
0.00123845
0.00123839
0.00123834
0.00123829
0.0012422
0.00124166
0.00124119
0.00124078
0.00124042
0.0012401
0.00123983
0.00123959
0.00123938
0.0012392
0.00123904
0.0012389
0.00123878
0.00123867
0.00123858
0.0012385
0.00123843
0.00123837
0.00123832
0.00123827
0.0012422
0.00124166
0.00124119
0.00124078
0.00124042
0.0012401
0.00123983
0.00123958
0.00123937
0.00123919
0.00123903
0.00123889
0.00123877
0.00123866
0.00123857
0.00123849
0.00123842
0.00123836
0.0012383
0.00123825
0.0012422
0.00124166
0.00124119
0.00124078
0.00124042
0.0012401
0.00123982
0.00123958
0.00123937
0.00123919
0.00123903
0.00123889
0.00123876
0.00123866
0.00123856
0.00123848
0.00123841
0.00123834
0.00123828
0.00123823
0.0012422
0.00124166
0.00124119
0.00124078
0.00124042
0.0012401
0.00123982
0.00123958
0.00123937
0.00123918
0.00123902
0.00123888
0.00123876
0.00123865
0.00123855
0.00123847
0.0012384
0.00123833
0.00123827
0.00123822
0.0012422
0.00124166
0.00124119
0.00124078
0.00124042
0.0012401
0.00123982
0.00123958
0.00123937
0.00123918
0.00123902
0.00123888
0.00123875
0.00123864
0.00123855
0.00123846
0.00123839
0.00123832
0.00123826
0.0012382
0.0012422
0.00124166
0.00124119
0.00124078
0.00124042
0.0012401
0.00123982
0.00123958
0.00123937
0.00123918
0.00123902
0.00123887
0.00123875
0.00123864
0.00123854
0.00123845
0.00123838
0.00123831
0.00123825
0.00123819
0.0012422
0.00124166
0.00124119
0.00124078
0.00124042
0.0012401
0.00123982
0.00123958
0.00123936
0.00123918
0.00123901
0.00123887
0.00123874
0.00123863
0.00123853
0.00123845
0.00123837
0.0012383
0.00123824
0.00123818
0.0012422
0.00124166
0.00124119
0.00124078
0.00124041
0.0012401
0.00123982
0.00123958
0.00123936
0.00123917
0.00123901
0.00123886
0.00123874
0.00123862
0.00123853
0.00123844
0.00123836
0.0012383
0.00123823
0.00123818
0.0012422
0.00124166
0.00124119
0.00124078
0.00124041
0.0012401
0.00123982
0.00123957
0.00123936
0.00123917
0.00123901
0.00123886
0.00123873
0.00123862
0.00123852
0.00123843
0.00123836
0.00123829
0.00123823
0.00123817
0.0012422
0.00124166
0.00124119
0.00124078
0.00124041
0.0012401
0.00123982
0.00123957
0.00123936
0.00123917
0.001239
0.00123886
0.00123873
0.00123862
0.00123852
0.00123843
0.00123835
0.00123828
0.00123822
0.00123816
0.0012422
0.00124166
0.00124119
0.00124078
0.00124041
0.0012401
0.00123982
0.00123957
0.00123936
0.00123917
0.001239
0.00123885
0.00123873
0.00123861
0.00123851
0.00123842
0.00123835
0.00123828
0.00123821
0.00123815
0.0012422
0.00124166
0.00124119
0.00124078
0.00124041
0.0012401
0.00123982
0.00123957
0.00123936
0.00123917
0.001239
0.00123885
0.00123872
0.00123861
0.00123851
0.00123842
0.00123834
0.00123827
0.00123821
0.00123815
0.0012422
0.00124166
0.00124119
0.00124078
0.00124041
0.0012401
0.00123982
0.00123957
0.00123935
0.00123916
0.001239
0.00123885
0.00123872
0.00123861
0.0012385
0.00123842
0.00123834
0.00123827
0.0012382
0.00123814
0.0012422
0.00124166
0.00124119
0.00124078
0.00124041
0.00124009
0.00123981
0.00123957
0.00123935
0.00123916
0.00123899
0.00123885
0.00123872
0.0012386
0.0012385
0.00123841
0.00123833
0.00123826
0.0012382
0.00123814
0.0012422
0.00124166
0.00124119
0.00124078
0.00124041
0.00124009
0.00123981
0.00123957
0.00123935
0.00123916
0.00123899
0.00123885
0.00123871
0.0012386
0.0012385
0.00123841
0.00123833
0.00123826
0.0012382
0.00123813
0.0012422
0.00124166
0.00124119
0.00124078
0.00124041
0.00124009
0.00123981
0.00123957
0.00123935
0.00123916
0.00123899
0.00123884
0.00123871
0.0012386
0.0012385
0.00123841
0.00123833
0.00123826
0.00123819
0.00123813
0.0012422
0.00124166
0.00124119
0.00124078
0.00124041
0.00124009
0.00123981
0.00123957
0.00123935
0.00123916
0.00123899
0.00123884
0.00123871
0.0012386
0.00123849
0.0012384
0.00123832
0.00123825
0.00123819
0.00123813
0.0012422
0.00124166
0.00124119
0.00124078
0.00124041
0.00124009
0.00123981
0.00123957
0.00123935
0.00123916
0.00123899
0.00123884
0.00123871
0.00123859
0.00123849
0.0012384
0.00123832
0.00123825
0.00123819
0.00123812
0.0012422
0.00124166
0.00124119
0.00124078
0.00124041
0.00124009
0.00123981
0.00123957
0.00123935
0.00123916
0.00123899
0.00123884
0.00123871
0.00123859
0.00123849
0.0012384
0.00123832
0.00123825
0.00123818
0.00123812
0.0012422
0.00124166
0.00124119
0.00124078
0.00124041
0.00124009
0.00123981
0.00123956
0.00123935
0.00123916
0.00123899
0.00123884
0.00123871
0.00123859
0.00123849
0.0012384
0.00123832
0.00123825
0.00123818
0.00123812
0.0012422
0.00124166
0.00124119
0.00124078
0.00124041
0.00124009
0.00123981
0.00123956
0.00123935
0.00123915
0.00123899
0.00123884
0.0012387
0.00123859
0.00123849
0.0012384
0.00123832
0.00123824
0.00123818
0.00123812
0.0012422
0.00124166
0.00124119
0.00124078
0.00124041
0.00124009
0.00123981
0.00123956
0.00123935
0.00123915
0.00123898
0.00123884
0.0012387
0.00123859
0.00123849
0.00123839
0.00123831
0.00123824
0.00123818
0.00123812
0.0012422
0.00124166
0.00124119
0.00124078
0.00124041
0.00124009
0.00123981
0.00123956
0.00123935
0.00123915
0.00123898
0.00123883
0.0012387
0.00123859
0.00123848
0.00123839
0.00123831
0.00123824
0.00123818
0.00123811
0.0012422
0.00124166
0.00124119
0.00124078
0.00124041
0.00124009
0.00123981
0.00123956
0.00123934
0.00123915
0.00123898
0.00123883
0.0012387
0.00123859
0.00123848
0.00123839
0.00123831
0.00123824
0.00123817
0.00123811
0.0012422
0.00124166
0.00124119
0.00124078
0.00124041
0.00124009
0.00123981
0.00123956
0.00123934
0.00123915
0.00123898
0.00123883
0.0012387
0.00123858
0.00123848
0.00123839
0.00123831
0.00123824
0.00123817
0.00123811
0.0012422
0.00124166
0.00124119
0.00124078
0.00124041
0.00124009
0.00123981
0.00123956
0.00123934
0.00123915
0.00123898
0.00123883
0.0012387
0.00123858
0.00123848
0.00123839
0.00123831
0.00123824
0.00123817
0.00123811
0.0012422
0.00124166
0.00124119
0.00124078
0.00124041
0.00124009
0.00123981
0.00123956
0.00123934
0.00123915
0.00123898
0.00123883
0.0012387
0.00123858
0.00123848
0.00123839
0.00123831
0.00123824
0.00123817
0.00123811
0.0012422
0.00124166
0.00124119
0.00124078
0.00124041
0.00124009
0.00123981
0.00123956
0.00123934
0.00123915
0.00123898
0.00123883
0.0012387
0.00123858
0.00123848
0.00123839
0.00123831
0.00123823
0.00123817
0.00123811
0.0012422
0.00124166
0.00124119
0.00124078
0.00124041
0.00124009
0.00123981
0.00123956
0.00123934
0.00123915
0.00123898
0.00123883
0.0012387
0.00123858
0.00123848
0.00123839
0.00123831
0.00123823
0.00123817
0.00123811
0.0012422
0.00124166
0.00124119
0.00124078
0.00124041
0.00124009
0.00123981
0.00123956
0.00123934
0.00123915
0.00123898
0.00123883
0.0012387
0.00123858
0.00123848
0.00123839
0.00123831
0.00123823
0.00123817
0.0012381
0.0012422
0.00124166
0.00124119
0.00124078
0.00124041
0.00124009
0.00123981
0.00123956
0.00123934
0.00123915
0.00123898
0.00123883
0.0012387
0.00123858
0.00123848
0.00123839
0.0012383
0.00123823
0.00123817
0.0012381
0.0012422
0.00124166
0.00124119
0.00124078
0.00124041
0.00124009
0.00123981
0.00123956
0.00123934
0.00123915
0.00123898
0.00123883
0.0012387
0.00123858
0.00123848
0.00123838
0.0012383
0.00123823
0.00123816
0.0012381
0.0012422
0.00124166
0.00124119
0.00124078
0.00124041
0.00124009
0.00123981
0.00123956
0.00123934
0.00123915
0.00123898
0.00123883
0.00123869
0.00123858
0.00123847
0.00123838
0.0012383
0.00123823
0.00123816
0.0012381
0.0012422
0.00124166
0.00124119
0.00124078
0.00124041
0.00124009
0.00123981
0.00123956
0.00123934
0.00123915
0.00123898
0.00123883
0.00123869
0.00123858
0.00123847
0.00123838
0.0012383
0.00123823
0.00123816
0.0012381
0.0012422
0.00124166
0.00124119
0.00124077
0.00124041
0.00124009
0.00123981
0.00123956
0.00123934
0.00123915
0.00123898
0.00123883
0.00123869
0.00123858
0.00123847
0.00123838
0.0012383
0.00123823
0.00123816
0.0012381
0.0012422
0.00124166
0.00124119
0.00124077
0.00124041
0.00124009
0.00123981
0.00123956
0.00123934
0.00123915
0.00123898
0.00123883
0.00123869
0.00123858
0.00123847
0.00123838
0.0012383
0.00123823
0.00123816
0.0012381
0.0012422
0.00124166
0.00124119
0.00124077
0.00124041
0.00124009
0.00123981
0.00123956
0.00123934
0.00123915
0.00123898
0.00123883
0.00123869
0.00123858
0.00123847
0.00123838
0.0012383
0.00123823
0.00123816
0.0012381
0.0012422
0.00124166
0.00124119
0.00124077
0.00124041
0.00124009
0.00123981
0.00123956
0.00123934
0.00123915
0.00123897
0.00123882
0.00123869
0.00123857
0.00123847
0.00123838
0.0012383
0.00123823
0.00123816
0.0012381
0.0012422
0.00124166
0.00124119
0.00124077
0.00124041
0.00124009
0.00123981
0.00123956
0.00123934
0.00123914
0.00123897
0.00123882
0.00123869
0.00123857
0.00123847
0.00123838
0.0012383
0.00123823
0.00123816
0.0012381
0.0012422
0.00124166
0.00124119
0.00124077
0.00124041
0.00124009
0.00123981
0.00123956
0.00123934
0.00123914
0.00123897
0.00123882
0.00123869
0.00123857
0.00123847
0.00123838
0.0012383
0.00123823
0.00123816
0.0012381
0.0012422
0.00124166
0.00124119
0.00124077
0.00124041
0.00124009
0.0012398
0.00123956
0.00123934
0.00123914
0.00123897
0.00123882
0.00123869
0.00123857
0.00123847
0.00123838
0.0012383
0.00123822
0.00123816
0.0012381
0.0012422
0.00124166
0.00124119
0.00124077
0.00124041
0.00124009
0.0012398
0.00123956
0.00123934
0.00123914
0.00123897
0.00123882
0.00123869
0.00123857
0.00123847
0.00123838
0.0012383
0.00123822
0.00123816
0.00123809
0.0012422
0.00124166
0.00124119
0.00124077
0.00124041
0.00124009
0.0012398
0.00123956
0.00123934
0.00123914
0.00123897
0.00123882
0.00123869
0.00123857
0.00123847
0.00123838
0.0012383
0.00123822
0.00123816
0.00123809
0.0012422
0.00124166
0.00124119
0.00124077
0.00124041
0.00124009
0.0012398
0.00123956
0.00123934
0.00123914
0.00123897
0.00123882
0.00123869
0.00123857
0.00123847
0.00123838
0.0012383
0.00123822
0.00123816
0.00123809
0.0012422
0.00124166
0.00124119
0.00124077
0.00124041
0.00124009
0.0012398
0.00123955
0.00123934
0.00123914
0.00123897
0.00123882
0.00123869
0.00123857
0.00123847
0.00123838
0.00123829
0.00123822
0.00123816
0.00123809
0.0012422
0.00124166
0.00124119
0.00124077
0.00124041
0.00124009
0.0012398
0.00123955
0.00123934
0.00123914
0.00123897
0.00123882
0.00123869
0.00123857
0.00123847
0.00123838
0.00123829
0.00123822
0.00123815
0.00123809
0.0012422
0.00124166
0.00124119
0.00124077
0.00124041
0.00124009
0.0012398
0.00123955
0.00123933
0.00123914
0.00123897
0.00123882
0.00123869
0.00123857
0.00123847
0.00123837
0.00123829
0.00123822
0.00123815
0.00123809
0.0012422
0.00124166
0.00124119
0.00124077
0.00124041
0.00124009
0.0012398
0.00123955
0.00123933
0.00123914
0.00123897
0.00123882
0.00123869
0.00123857
0.00123847
0.00123837
0.00123829
0.00123822
0.00123815
0.00123809
0.0012422
0.00124166
0.00124119
0.00124077
0.00124041
0.00124009
0.0012398
0.00123955
0.00123933
0.00123914
0.00123897
0.00123882
0.00123869
0.00123857
0.00123847
0.00123837
0.00123829
0.00123822
0.00123815
0.00123809
0.0012422
0.00124166
0.00124119
0.00124077
0.00124041
0.00124008
0.0012398
0.00123955
0.00123933
0.00123914
0.00123897
0.00123882
0.00123869
0.00123857
0.00123846
0.00123837
0.00123829
0.00123822
0.00123815
0.00123809
0.0012422
0.00124166
0.00124119
0.00124077
0.00124041
0.00124008
0.0012398
0.00123955
0.00123933
0.00123914
0.00123897
0.00123882
0.00123869
0.00123857
0.00123846
0.00123837
0.00123829
0.00123822
0.00123815
0.00123809
0.0012422
0.00124166
0.00124119
0.00124077
0.00124041
0.00124008
0.0012398
0.00123955
0.00123933
0.00123914
0.00123897
0.00123882
0.00123868
0.00123857
0.00123846
0.00123837
0.00123829
0.00123822
0.00123815
0.00123809
0.0012422
0.00124166
0.00124119
0.00124077
0.00124041
0.00124008
0.0012398
0.00123955
0.00123933
0.00123914
0.00123897
0.00123882
0.00123868
0.00123857
0.00123846
0.00123837
0.00123829
0.00123822
0.00123815
0.00123809
0.0012422
0.00124166
0.00124119
0.00124077
0.00124041
0.00124008
0.0012398
0.00123955
0.00123933
0.00123914
0.00123897
0.00123882
0.00123868
0.00123857
0.00123846
0.00123837
0.00123829
0.00123822
0.00123815
0.00123809
0.0012422
0.00124166
0.00124119
0.00124077
0.00124041
0.00124008
0.0012398
0.00123955
0.00123933
0.00123914
0.00123897
0.00123882
0.00123868
0.00123857
0.00123846
0.00123837
0.00123829
0.00123822
0.00123815
0.00123809
0.0012422
0.00124166
0.00124119
0.00124077
0.0012404
0.00124008
0.0012398
0.00123955
0.00123933
0.00123914
0.00123897
0.00123882
0.00123868
0.00123857
0.00123846
0.00123837
0.00123829
0.00123822
0.00123815
0.00123809
0.0012422
0.00124166
0.00124119
0.00124077
0.0012404
0.00124008
0.0012398
0.00123955
0.00123933
0.00123914
0.00123897
0.00123882
0.00123868
0.00123857
0.00123846
0.00123837
0.00123829
0.00123821
0.00123815
0.00123809
0.0012422
0.00124166
0.00124119
0.00124077
0.0012404
0.00124008
0.0012398
0.00123955
0.00123933
0.00123914
0.00123897
0.00123882
0.00123868
0.00123856
0.00123846
0.00123837
0.00123829
0.00123821
0.00123815
0.00123808
0.0012422
0.00124166
0.00124119
0.00124077
0.0012404
0.00124008
0.0012398
0.00123955
0.00123933
0.00123914
0.00123897
0.00123882
0.00123868
0.00123856
0.00123846
0.00123837
0.00123829
0.00123821
0.00123815
0.00123808
0.0012422
0.00124166
0.00124119
0.00124077
0.0012404
0.00124008
0.0012398
0.00123955
0.00123933
0.00123914
0.00123897
0.00123881
0.00123868
0.00123856
0.00123846
0.00123837
0.00123829
0.00123821
0.00123815
0.00123808
0.0012422
0.00124166
0.00124119
0.00124077
0.0012404
0.00124008
0.0012398
0.00123955
0.00123933
0.00123914
0.00123897
0.00123881
0.00123868
0.00123856
0.00123846
0.00123837
0.00123829
0.00123821
0.00123815
0.00123808
0.0012422
0.00124166
0.00124119
0.00124077
0.0012404
0.00124008
0.0012398
0.00123955
0.00123933
0.00123914
0.00123897
0.00123881
0.00123868
0.00123856
0.00123846
0.00123837
0.00123829
0.00123821
0.00123815
0.00123808
0.0012422
0.00124166
0.00124119
0.00124077
0.0012404
0.00124008
0.0012398
0.00123955
0.00123933
0.00123914
0.00123896
0.00123881
0.00123868
0.00123856
0.00123846
0.00123837
0.00123829
0.00123821
0.00123814
0.00123808
0.0012422
0.00124166
0.00124119
0.00124077
0.0012404
0.00124008
0.0012398
0.00123955
0.00123933
0.00123914
0.00123896
0.00123881
0.00123868
0.00123856
0.00123846
0.00123837
0.00123828
0.00123821
0.00123814
0.00123808
0.0012422
0.00124166
0.00124119
0.00124077
0.0012404
0.00124008
0.0012398
0.00123955
0.00123933
0.00123914
0.00123896
0.00123881
0.00123868
0.00123856
0.00123846
0.00123837
0.00123828
0.00123821
0.00123814
0.00123808
0.0012422
0.00124166
0.00124119
0.00124077
0.0012404
0.00124008
0.0012398
0.00123955
0.00123933
0.00123913
0.00123896
0.00123881
0.00123868
0.00123856
0.00123846
0.00123837
0.00123828
0.00123821
0.00123814
0.00123808
0.0012422
0.00124166
0.00124119
0.00124077
0.0012404
0.00124008
0.0012398
0.00123955
0.00123933
0.00123913
0.00123896
0.00123881
0.00123868
0.00123856
0.00123846
0.00123837
0.00123828
0.00123821
0.00123814
0.00123808
0.0012422
0.00124166
0.00124119
0.00124077
0.0012404
0.00124008
0.0012398
0.00123955
0.00123933
0.00123913
0.00123896
0.00123881
0.00123868
0.00123856
0.00123846
0.00123837
0.00123828
0.00123821
0.00123814
0.00123808
0.0012422
0.00124166
0.00124119
0.00124077
0.0012404
0.00124008
0.0012398
0.00123955
0.00123933
0.00123913
0.00123896
0.00123881
0.00123868
0.00123856
0.00123846
0.00123837
0.00123828
0.00123821
0.00123814
0.00123808
0.0012422
0.00124166
0.00124119
0.00124077
0.0012404
0.00124008
0.0012398
0.00123955
0.00123933
0.00123913
0.00123896
0.00123881
0.00123868
0.00123856
0.00123846
0.00123836
0.00123828
0.00123821
0.00123814
0.00123808
0.0012422
0.00124166
0.00124119
0.00124077
0.0012404
0.00124008
0.0012398
0.00123955
0.00123933
0.00123913
0.00123896
0.00123881
0.00123868
0.00123856
0.00123846
0.00123836
0.00123828
0.00123821
0.00123814
0.00123808
0.0012422
0.00124166
0.00124118
0.00124077
0.0012404
0.00124008
0.0012398
0.00123955
0.00123933
0.00123913
0.00123896
0.00123881
0.00123868
0.00123856
0.00123846
0.00123836
0.00123828
0.00123821
0.00123814
0.00123808
0.0012422
0.00124166
0.00124118
0.00124077
0.0012404
0.00124008
0.0012398
0.00123955
0.00123933
0.00123913
0.00123896
0.00123881
0.00123868
0.00123856
0.00123846
0.00123836
0.00123828
0.00123821
0.00123814
0.00123808
0.0012422
0.00124166
0.00124118
0.00124077
0.0012404
0.00124008
0.0012398
0.00123955
0.00123933
0.00123913
0.00123896
0.00123881
0.00123868
0.00123856
0.00123846
0.00123836
0.00123828
0.00123821
0.00123814
0.00123808
0.0012422
0.00124166
0.00124118
0.00124077
0.0012404
0.00124008
0.0012398
0.00123955
0.00123933
0.00123913
0.00123896
0.00123881
0.00123868
0.00123856
0.00123846
0.00123837
0.00123828
0.00123821
0.00123814
0.00123808
0.0012422
0.00124166
0.00124118
0.00124077
0.0012404
0.00124008
0.0012398
0.00123955
0.00123933
0.00123913
0.00123896
0.00123881
0.00123868
0.00123856
0.00123846
0.00123836
0.00123828
0.00123821
0.00123814
0.00123808
1.56683e-05
1.889e-05
2.17607e-05
2.42801e-05
2.64524e-05
2.82898e-05
2.98119e-05
3.10439e-05
3.2015e-05
3.27559e-05
3.32975e-05
3.36693e-05
3.38988e-05
3.40105e-05
3.40262e-05
3.39647e-05
3.38417e-05
3.36705e-05
3.34621e-05
3.32251e-05
3.29669e-05
3.26929e-05
3.24077e-05
3.21147e-05
3.18169e-05
3.15164e-05
3.12151e-05
3.09143e-05
3.06155e-05
3.03198e-05
3.00282e-05
2.97418e-05
2.94617e-05
2.91888e-05
2.89241e-05
2.86688e-05
2.84237e-05
2.81899e-05
2.79684e-05
2.776e-05
2.75659e-05
2.73871e-05
2.72249e-05
2.70806e-05
2.69564e-05
2.68545e-05
2.67778e-05
2.67291e-05
2.67096e-05
2.67224e-05
2.67633e-05
2.68271e-05
2.69057e-05
2.699e-05
2.70717e-05
2.71438e-05
2.72008e-05
2.72389e-05
2.72573e-05
2.72544e-05
2.72299e-05
2.71848e-05
2.71205e-05
2.70389e-05
2.69422e-05
2.68324e-05
2.67114e-05
2.6581e-05
2.64428e-05
2.62982e-05
2.61486e-05
2.59949e-05
2.58383e-05
2.56795e-05
2.55198e-05
2.53578e-05
2.52002e-05
2.50292e-05
2.48961e-05
2.46336e-05
0.000116739
6.12782e-05
3.99598e-05
2.94042e-05
2.35505e-05
2.01007e-05
1.80025e-05
1.67161e-05
1.5942e-05
1.55038e-05
1.52922e-05
1.52369e-05
1.52909e-05
1.54227e-05
1.56106e-05
1.58398e-05
1.61005e-05
1.63864e-05
1.6694e-05
1.70217e-05
1.73692e-05
1.77378e-05
1.81292e-05
1.8546e-05
1.89911e-05
1.94677e-05
1.99792e-05
2.0529e-05
2.11203e-05
2.17562e-05
2.24395e-05
2.31724e-05
2.39566e-05
2.47932e-05
2.56826e-05
2.66245e-05
2.76183e-05
2.86632e-05
2.97588e-05
3.09064e-05
3.21091e-05
3.33734e-05
3.47099e-05
3.61328e-05
3.76584e-05
3.93015e-05
4.10687e-05
4.2951e-05
4.4914e-05
4.68604e-05
4.87041e-05
5.0409e-05
5.19406e-05
5.32728e-05
5.43898e-05
5.52853e-05
5.59594e-05
5.64221e-05
5.66598e-05
5.67091e-05
5.66176e-05
5.64266e-05
5.61697e-05
5.58723e-05
5.55534e-05
5.52266e-05
5.49011e-05
5.45826e-05
5.42747e-05
5.39795e-05
5.36972e-05
5.34276e-05
5.31702e-05
5.29235e-05
5.26891e-05
5.2458e-05
5.22495e-05
5.20036e-05
5.18662e-05
5.14091e-05
0.000496553
0.000312533
0.000211778
0.000151602
0.000113201
8.75142e-05
6.9712e-05
5.70156e-05
4.77383e-05
4.08147e-05
3.55507e-05
3.1482e-05
2.82913e-05
2.57575e-05
2.3724e-05
2.2078e-05
2.07374e-05
1.96418e-05
1.87461e-05
1.80168e-05
1.74287e-05
1.6963e-05
1.66061e-05
1.6348e-05
1.61819e-05
1.61039e-05
1.6112e-05
1.62063e-05
1.63886e-05
1.66624e-05
1.70324e-05
1.7505e-05
1.80876e-05
1.87889e-05
1.96187e-05
2.05874e-05
2.17064e-05
2.29876e-05
2.44438e-05
2.60888e-05
2.79379e-05
3.00096e-05
3.2326e-05
3.49137e-05
3.78029e-05
4.10228e-05
4.45935e-05
4.85137e-05
5.27482e-05
5.72133e-05
6.17582e-05
6.62457e-05
7.05651e-05
7.46175e-05
7.83206e-05
8.16122e-05
8.4443e-05
8.67677e-05
8.86033e-05
8.99869e-05
9.09721e-05
9.16189e-05
9.19878e-05
9.21346e-05
9.21096e-05
9.19563e-05
9.17115e-05
9.14053e-05
9.10618e-05
9.07006e-05
9.03361e-05
8.99792e-05
8.96385e-05
8.93189e-05
8.9028e-05
8.87568e-05
8.85366e-05
8.82785e-05
8.81984e-05
8.76117e-05
0.000869432
0.000693296
0.000550095
0.000439756
0.000355626
0.000291212
0.000241455
0.000202623
0.000172001
0.000147607
0.000127984
0.00011205
9.89956e-05
8.82067e-05
7.92159e-05
7.16633e-05
6.52699e-05
5.98177e-05
5.51355e-05
5.10882e-05
4.75684e-05
4.44903e-05
4.17857e-05
3.93998e-05
3.7289e-05
3.54183e-05
3.37605e-05
3.22944e-05
3.10041e-05
2.98782e-05
2.89098e-05
2.80955e-05
2.7436e-05
2.69358e-05
2.66034e-05
2.64519e-05
2.65001e-05
2.67727e-05
2.73029e-05
2.81335e-05
2.93193e-05
3.09293e-05
3.30472e-05
3.5769e-05
3.91947e-05
4.34136e-05
4.84815e-05
5.43984e-05
6.10899e-05
6.84033e-05
7.61152e-05
8.39643e-05
9.16947e-05
9.90812e-05
0.000105943
0.00011215
0.000117616
0.000122287
0.000126154
0.000129245
0.000131619
0.000133352
0.000134529
0.000135238
0.000135564
0.000135584
0.000135369
0.000134982
0.000134474
0.000133893
0.000133273
0.000132646
0.000132035
0.00013146
0.000130939
0.000130468
0.000130094
0.000129705
0.000129577
0.000128799
0.00107259
0.000968174
0.000858319
0.00075374
0.000659403
0.000576733
0.000505388
0.00044428
0.000392103
0.000347572
0.000309522
0.000276942
0.000248966
0.000224867
0.000204036
0.000185964
0.000170226
0.000156467
0.000144392
0.000133753
0.000124342
0.000115986
0.000108538
0.000101876
9.58965e-05
9.05135e-05
8.56552e-05
8.12621e-05
7.72858e-05
7.36878e-05
7.04392e-05
6.75199e-05
6.49192e-05
6.26363e-05
6.0681e-05
5.9076e-05
5.78584e-05
5.7083e-05
5.68248e-05
5.7181e-05
5.827e-05
6.02266e-05
6.31878e-05
6.7271e-05
7.25449e-05
7.90033e-05
8.65524e-05
9.50181e-05
0.000104169
0.000113742
0.000123467
0.000133084
0.000142363
0.000151104
0.000159145
0.000166363
0.000172674
0.000178026
0.000182413
0.00018586
0.000188428
0.000190199
0.00019127
0.000191741
0.000191714
0.000191286
0.000190545
0.000189574
0.000188442
0.000187215
0.000185944
0.000184676
0.000183449
0.000182292
0.000181238
0.000180286
0.000179499
0.000178745
0.000178344
0.00017721
0.001167
0.00111493
0.00105058
0.000979187
0.00090545
0.000832829
0.000763544
0.000698838
0.000639274
0.000584972
0.000535788
0.000491428
0.000451524
0.000415683
0.000383513
0.000354639
0.000328715
0.000305422
0.000284473
0.000265611
0.000248608
0.000233261
0.000219393
0.000206847
0.000195489
0.000185202
0.000175886
0.000167459
0.000159853
0.000153017
0.000146915
0.000141529
0.000136859
0.000132928
0.000129779
0.000127488
0.000126155
0.000125915
0.000126928
0.000129365
0.000133386
0.000139095
0.00014649
0.000155419
0.000165559
0.000176448
0.000187565
0.000198426
0.000208661
0.000218052
0.000226511
0.000234047
0.000240717
0.000246578
0.000251672
0.000256011
0.000259593
0.000262407
0.000264456
0.000265757
0.000266353
0.000266303
0.000265681
0.000264567
0.000263047
0.000261203
0.000259116
0.00025686
0.000254503
0.000252109
0.000249731
0.000247417
0.000245209
0.000243142
0.000241252
0.000239542
0.000238082
0.000236728
0.000235817
0.000234168
0.00120883
0.00118482
0.00115181
0.00111086
0.00106379
0.00101266
0.000959385
0.000905572
0.000852453
0.000800919
0.000751572
0.000704785
0.000660758
0.000619567
0.0005812
0.000545586
0.000512612
0.000482147
0.000454043
0.000428153
0.000404328
0.000382428
0.000362321
0.000343884
0.00032701
0.000311604
0.000297585
0.000284892
0.000273479
0.000263324
0.000254428
0.000246816
0.000240547
0.000235712
0.000232442
0.000230902
0.000231292
0.000233827
0.000238711
0.000246086
0.00025597
0.000268182
0.000282294
0.000297618
0.000313273
0.000328312
0.000341881
0.000353357
0.000362422
0.000369052
0.000373458
0.000375993
0.000377062
0.000377041
0.000376232
0.000374848
0.00037302
0.000370817
0.000368277
0.000365419
0.000362267
0.000358848
0.000355199
0.000351361
0.000347381
0.000343309
0.000339194
0.000335086
0.000331032
0.000327076
0.000323259
0.00031962
0.000316192
0.000313006
0.000310094
0.000307458
0.000305167
0.000303068
0.000301494
0.000299256
0.00122691
0.00121635
0.0012007
0.00117956
0.0011531
0.00112189
0.00108678
0.0010487
0.00100861
0.000967364
0.000925705
0.000884249
0.000843484
0.000803785
0.00076543
0.000728614
0.000693469
0.000660074
0.00062847
0.000598667
0.000570657
0.000544417
0.000519918
0.000497127
0.000476017
0.000456565
0.000438762
0.000422611
0.000408139
0.000395394
0.000384455
0.000375435
0.000368482
0.000363784
0.000361561
0.000362055
0.000365502
0.000372098
0.000381934
0.000394931
0.000410767
0.000428833
0.000448237
0.000467868
0.000486531
0.00050311
0.000516719
0.000526811
0.000533206
0.000536059
0.000535774
0.000532911
0.000528087
0.000521885
0.000514806
0.000507232
0.000499432
0.00049158
0.000483777
0.000476077
0.00046851
0.000461095
0.000453843
0.000446767
0.000439879