/*--------------------------------*- C++ -*----------------------------------*\
| =========                 |                                                 |
| \\      /  F ield         | OpenFOAM: The Open Source CFD Toolbox           |
|  \\    /   O peration     | Version:  2.4.0                                 |
|   \\  /    A nd           | Web:      www.OpenFOAM.org                      |
|    \\/     M anipulation  |                                                 |
\*---------------------------------------------------------------------------*/
FoamFile
{
    version     2.0;
    format      ascii;
    class       volScalarField;
    location    "6.72";
    object      p;
}
// * * * * * * * * * * * * * * * * * * * * * * * * * * * * * * * * * * * * * //

dimensions      [0 2 -2 0 0 0 0];

internalField   nonuniform List<scalar> 
6000
(
0.0492767
0.278444
0.275395
0.298724
0.304163
0.311841
0.314877
0.318491
0.320426
0.322503
0.32389
0.325286
0.326386
0.327471
0.328437
0.329401
0.330335
0.331295
0.33228
0.333324
0.334441
0.335658
0.336994
0.338475
0.340127
0.341974
0.344043
0.346358
0.348943
0.351822
0.355012
0.358526
0.36237
0.366544
0.371036
0.375821
0.380857
0.386092
0.391446
0.396835
0.402131
0.407224
0.411935
0.416183
0.419563
0.422067
0.423234
0.423314
0.421181
0.417974
0.410786
0.403576
0.388043
0.377099
0.345623
0.335207
0.267323
0.276001
0.110794
0.200993
0.064296
0.276659
0.275438
0.298575
0.304079
0.311755
0.31482
0.318438
0.320387
0.322468
0.323864
0.325264
0.326369
0.327457
0.328426
0.329392
0.330328
0.331289
0.332276
0.333322
0.33444
0.335657
0.336994
0.338476
0.340128
0.341976
0.344046
0.346361
0.348948
0.351828
0.355019
0.358535
0.362382
0.366559
0.371051
0.375835
0.380871
0.386104
0.391456
0.396839
0.402126
0.407206
0.411901
0.416135
0.419511
0.422004
0.423156
0.423211
0.421051
0.417798
0.410575
0.403284
0.387718
0.376624
0.345154
0.334419
0.266754
0.274603
0.11015
0.198347
0.0781404
0.274583
0.275535
0.298457
0.304007
0.311688
0.314771
0.318396
0.320354
0.32244
0.323841
0.325244
0.326353
0.327444
0.328415
0.329383
0.330321
0.331284
0.332272
0.333319
0.334438
0.335656
0.336993
0.338476
0.340128
0.341977
0.344046
0.346363
0.34895
0.35183
0.355022
0.358538
0.362385
0.366562
0.371055
0.375839
0.380873
0.386102
0.391448
0.396822
0.402096
0.407158
0.411831
0.416039
0.41941
0.421894
0.423033
0.423069
0.420886
0.417597
0.410339
0.402986
0.387378
0.37617
0.344678
0.333698
0.266104
0.273349
0.109296
0.196009
0.0896086
0.272406
0.275674
0.298367
0.303953
0.311633
0.314729
0.31836
0.320325
0.322415
0.32382
0.325226
0.326338
0.327431
0.328404
0.329375
0.330314
0.331278
0.332267
0.333315
0.334434
0.335652
0.33699
0.338473
0.340125
0.341973
0.344043
0.346358
0.348945
0.351825
0.355016
0.358532
0.362378
0.366553
0.371044
0.375825
0.380855
0.386077
0.391413
0.396774
0.40203
0.40707
0.411717
0.41589
0.419245
0.42172
0.42285
0.422873
0.420671
0.417358
0.410067
0.402669
0.387018
0.375722
0.34419
0.333022
0.265444
0.272218
0.108411
0.194079
0.0995952
0.270233
0.275836
0.298299
0.303917
0.311587
0.314694
0.318327
0.320298
0.322392
0.323801
0.32521
0.326324
0.327419
0.328394
0.329366
0.330306
0.331271
0.332261
0.333309
0.334429
0.335647
0.336984
0.338467
0.340118
0.341966
0.344034
0.346349
0.348934
0.351812
0.355002
0.358515
0.362358
0.36653
0.371016
0.37579
0.380811
0.386023
0.391344
0.396688
0.401923
0.406939
0.411559
0.41569
0.419014
0.421473
0.422586
0.422596
0.420375
0.417041
0.409723
0.402288
0.386595
0.37523
0.343649
0.33233
0.264742
0.271124
0.107505
0.1924
0.108664
0.268133
0.276006
0.298256
0.303894
0.311549
0.314665
0.318299
0.320275
0.322371
0.323783
0.325194
0.326311
0.327407
0.328384
0.329357
0.330298
0.331264
0.332254
0.333302
0.334422
0.335639
0.336976
0.338458
0.340108
0.341954
0.344021
0.346334
0.348917
0.351792
0.354978
0.358487
0.362325
0.36649
0.370968
0.375733
0.380742
0.385939
0.391244
0.396568
0.401782
0.406777
0.411371
0.41546
0.418737
0.421166
0.422251
0.422236
0.419989
0.416631
0.40928
0.401813
0.386075
0.374654
0.343018
0.331577
0.263956
0.270013
0.106543
0.190868
0.116987
0.266146
0.276178
0.298231
0.303886
0.311518
0.314642
0.318274
0.320254
0.322352
0.323767
0.32518
0.326298
0.327396
0.328374
0.329347
0.33029
0.331255
0.332246
0.333294
0.334413
0.33563
0.336966
0.338446
0.340096
0.34194
0.344004
0.346314
0.348894
0.351765
0.354946
0.358449
0.36228
0.366436
0.370904
0.375656
0.380652
0.385834
0.391122
0.396428
0.401624
0.406599
0.411171
0.415219
0.418441
0.420828
0.421872
0.421819
0.419532
0.416139
0.408744
0.40124
0.385448
0.373978
0.342274
0.330736
0.263057
0.268854
0.105487
0.189428
0.12465
0.264295
0.276352
0.298209
0.303902
0.311495
0.314625
0.318253
0.320237
0.322335
0.323752
0.325166
0.326286
0.327385
0.328364
0.329338
0.33028
0.331246
0.332237
0.333285
0.334404
0.33562
0.336955
0.338434
0.340081
0.341923
0.343984
0.346291
0.348866
0.351732
0.354907
0.358402
0.362225
0.366372
0.370828
0.375569
0.380551
0.385719
0.390991
0.396282
0.401461
0.406421
0.410971
0.41498
0.418145
0.420483
0.421476
0.421375
0.419035
0.415594
0.408143
0.400591
0.384733
0.373208
0.341422
0.329801
0.262035
0.267626
0.104317
0.188036
0.131754
0.262592
0.276525
0.298195
0.303931
0.311481
0.314614
0.318236
0.320222
0.32232
0.323739
0.325153
0.326275
0.327374
0.328354
0.329328
0.330271
0.331237
0.332228
0.333275
0.334393
0.335609
0.336943
0.33842
0.340065
0.341904
0.343962
0.346264
0.348834
0.351695
0.354862
0.35835
0.362164
0.366302
0.370748
0.375477
0.380447
0.385602
0.390862
0.396139
0.401304
0.406249
0.410778
0.41475
0.41786
0.420146
0.421085
0.420927
0.418527
0.415027
0.407509
0.399896
0.383959
0.372371
0.340485
0.328783
0.260901
0.266327
0.103029
0.186666
0.138394
0.261043
0.276694
0.298185
0.303969
0.311475
0.31461
0.318224
0.320211
0.322307
0.323727
0.325142
0.326264
0.327364
0.328344
0.329319
0.330262
0.331228
0.332218
0.333265
0.334383
0.335598
0.336929
0.338404
0.340047
0.341883
0.343937
0.346235
0.3488
0.351654
0.354815
0.358295
0.362101
0.36623
0.370667
0.375386
0.380346
0.38549
0.390738
0.396003
0.401156
0.406086
0.410594
0.414531
0.417591
0.419825
0.420708
0.420491
0.418026
0.41446
0.406867
0.399184
0.383157
0.371495
0.339495
0.327707
0.259684
0.264968
0.101639
0.185307
0.144651
0.259651
0.276855
0.298173
0.304019
0.311477
0.314612
0.318215
0.320203
0.322297
0.323718
0.325132
0.326255
0.327355
0.328335
0.32931
0.330253
0.331219
0.332209
0.333256
0.334372
0.335585
0.336915
0.338388
0.340028
0.34186
0.34391
0.346203
0.348763
0.351611
0.354766
0.358239
0.362038
0.366159
0.370587
0.375298
0.380249
0.385384
0.390622
0.395876
0.401018
0.405934
0.410421
0.414324
0.417338
0.419522
0.420349
0.420073
0.417541
0.413906
0.406233
0.398473
0.38235
0.370604
0.338479
0.326598
0.258414
0.26357
0.100178
0.183966
0.150584
0.258419
0.277005
0.298157
0.304077
0.311485
0.31462
0.318211
0.320198
0.322289
0.32371
0.325124
0.326247
0.327347
0.328327
0.329302
0.330245
0.331211
0.3322
0.333246
0.334361
0.335573
0.336901
0.338371
0.340007
0.341836
0.343882
0.34617
0.348725
0.351568
0.354716
0.358184
0.361976
0.36609
0.370511
0.375215
0.380158
0.385285
0.390514
0.395759
0.40089
0.405791
0.410258
0.41413
0.417101
0.419238
0.420011
0.419675
0.417077
0.41337
0.405618
0.397776
0.381553
0.369717
0.33746
0.325478
0.257122
0.262156
0.0986796
0.182655
0.156242
0.257348
0.27714
0.298135
0.304143
0.311499
0.314636
0.31821
0.320197
0.322284
0.323704
0.325118
0.32624
0.327341
0.328321
0.329295
0.330238
0.331203
0.332192
0.333236
0.33435
0.33556
0.336885
0.338353
0.339986
0.341811
0.343853
0.346136
0.348686
0.351524
0.354667
0.358129
0.361915
0.366023
0.370439
0.375137
0.380073
0.385193
0.390415
0.395651
0.400771
0.405658
0.410104
0.413947
0.416879
0.418972
0.419693
0.419298
0.416636
0.412857
0.405025
0.397099
0.380776
0.368844
0.336455
0.324365
0.255831
0.260744
0.0971762
0.181387
0.161662
0.256438
0.27726
0.298103
0.304213
0.311518
0.314657
0.318214
0.320199
0.322281
0.323701
0.325113
0.326236
0.327335
0.328315
0.32929
0.330232
0.331196
0.332184
0.333227
0.33434
0.335547
0.33687
0.338334
0.339964
0.341785
0.343823
0.346103
0.348648
0.351481
0.35462
0.358076
0.361858
0.365961
0.370371
0.375064
0.379995
0.385108
0.390323
0.395551
0.400661
0.405534
0.409959
0.413774
0.416672
0.418722
0.419394
0.418942
0.416216
0.412367
0.404456
0.396445
0.380024
0.367992
0.335473
0.323268
0.25456
0.259351
0.0956953
0.180169
0.166873
0.255686
0.277367
0.298061
0.304287
0.311541
0.314683
0.318222
0.320205
0.322282
0.323701
0.325111
0.326233
0.327332
0.328311
0.329285
0.330227
0.33119
0.332177
0.333219
0.334329
0.335535
0.336855
0.338316
0.339942
0.34176
0.343794
0.34607
0.348611
0.35144
0.354574
0.358026
0.361803
0.365902
0.370308
0.374996
0.379922
0.38503
0.390239
0.395459
0.400559
0.405418
0.409823
0.413611
0.416477
0.418486
0.419111
0.418605
0.415818
0.411899
0.403912
0.395815
0.379299
0.367165
0.334522
0.322195
0.253321
0.257984
0.094258
0.179007
0.171896
0.25509
0.277462
0.298006
0.304361
0.311568
0.314715
0.318234
0.320215
0.322285
0.323703
0.325111
0.326232
0.327331
0.328309
0.329283
0.330223
0.331186
0.332171
0.333211
0.33432
0.335523
0.33684
0.338298
0.339922
0.341736
0.343766
0.346038
0.348575
0.3514
0.35453
0.357979
0.361752
0.365847
0.37025
0.374934
0.379855
0.384959
0.390161
0.395374
0.400464
0.405309
0.409695
0.413457
0.416293
0.418264
0.418844
0.418284
0.415439
0.411451
0.403391
0.395209
0.378603
0.366364
0.333603
0.32115
0.252122
0.256651
0.0928795
0.177901
0.176749
0.254645
0.277551
0.297939
0.304435
0.311596
0.314753
0.31825
0.320228
0.322291
0.323707
0.325113
0.326234
0.327331
0.328309
0.329282
0.330221
0.331182
0.332166
0.333205
0.334311
0.335512
0.336827
0.338282
0.339902
0.341713
0.34374
0.346008
0.348542
0.351363
0.354489
0.357934
0.361704
0.365796
0.370196
0.374877
0.379794
0.384893
0.39009
0.395295
0.400375
0.405207
0.409573
0.413311
0.416118
0.418053
0.41859
0.417979
0.415077
0.411022
0.402892
0.394626
0.377934
0.36559
0.33272
0.320135
0.250969
0.255356
0.0915703
0.176849
0.181446
0.254348
0.277637
0.297858
0.304505
0.311624
0.314795
0.318269
0.320245
0.322299
0.323714
0.325118
0.326238
0.327334
0.328312
0.329283
0.330221
0.331181
0.332163
0.3332
0.334304
0.335503
0.336815
0.338267
0.339884
0.341692
0.343715
0.34598
0.34851
0.351328
0.354452
0.357894
0.361661
0.36575
0.370147
0.374825
0.379739
0.384833
0.390025
0.395223
0.400293
0.405111
0.409457
0.413172
0.415952
0.417852
0.418348
0.417686
0.41473
0.41061
0.402414
0.394064
0.377291
0.364841
0.331872
0.319151
0.249866
0.2541
0.0903367
0.175849
0.185996
0.25419
0.277727
0.297766
0.304569
0.311653
0.314841
0.318292
0.320265
0.322311
0.323724
0.325125
0.326245
0.32734
0.328316
0.329286
0.330223
0.331182
0.332162
0.333197
0.334299
0.335495
0.336805
0.338254
0.339868
0.341673
0.343693
0.345955
0.348482
0.351297
0.354418
0.357857
0.361622
0.365709
0.370103
0.374778
0.379689
0.38478
0.389966
0.395157
0.400217
0.40502
0.409347
0.413039
0.415794
0.41766
0.418116
0.417405
0.414398
0.410213
0.401953
0.393522
0.376674
0.364117
0.331059
0.318197
0.248812
0.252883
0.0891823
0.174894
0.190408
0.254165
0.277827
0.297664
0.304627
0.31168
0.314891
0.318318
0.320289
0.322326
0.323737
0.325135
0.326254
0.327348
0.328323
0.329292
0.330227
0.331184
0.332163
0.333196
0.334296
0.33549
0.336797
0.338243
0.339854
0.341657
0.343674
0.345933
0.348458
0.35127
0.354388
0.357825
0.361587
0.365672
0.370064
0.374737
0.379645
0.384731
0.389912
0.395096
0.400146
0.404934
0.409243
0.412912
0.415642
0.417475
0.417893
0.417134
0.414077
0.40983
0.40151
0.392997
0.376081
0.363416
0.330281
0.317272
0.24781
0.251706
0.0881087
0.173981
0.19469
0.254265
0.277942
0.297555
0.304676
0.311705
0.314944
0.318347
0.320317
0.322343
0.323753
0.325147
0.326266
0.327358
0.328333
0.3293
0.330234
0.33119
0.332167
0.333198
0.334296
0.335487
0.336792
0.338236
0.339844
0.341644
0.343659
0.345915
0.348437
0.351247
0.354362
0.357797
0.361558
0.365641
0.370031
0.374701
0.379606
0.384689
0.389864
0.39504
0.40008
0.404854
0.409143
0.41279
0.415496
0.417296
0.417677
0.416872
0.413766
0.409458
0.401081
0.392489
0.375509
0.362737
0.329535
0.316376
0.246859
0.250566
0.087116
0.173104
0.198848
0.254483
0.278076
0.297443
0.304716
0.311726
0.314999
0.318379
0.320349
0.322364
0.323771
0.325162
0.32628
0.327371
0.328345
0.329311
0.330244
0.331198
0.332174
0.333203
0.334299
0.335488
0.33679
0.338231
0.339837
0.341634
0.343647
0.345901
0.34842
0.351228
0.354342
0.357775
0.361534
0.365615
0.370003
0.374671
0.379574
0.384652
0.389822
0.39499
0.400019
0.404778
0.409048
0.412672
0.415354
0.417123
0.417467
0.416616
0.413465
0.409096
0.400666
0.391994
0.374958
0.362078
0.32882
0.315507
0.245957
0.249463
0.0862032
0.172257
0.202887
0.25481
0.278233
0.29733
0.304747
0.311743
0.315056
0.318413
0.320385
0.322387
0.323793
0.32518
0.326297
0.327387
0.328361
0.329326
0.330257
0.33121
0.332184
0.333211
0.334305
0.335492
0.336792
0.338231
0.339835
0.341629
0.34364
0.345891
0.348409
0.351214
0.354326
0.357758
0.361516
0.365595
0.369982
0.374648
0.379547
0.384621
0.389785
0.394945
0.399962
0.404706
0.408957
0.412559
0.415217
0.416954
0.417263
0.416367
0.413171
0.408742
0.400262
0.391513
0.374425
0.361438
0.328136
0.314663
0.245104
0.248394
0.0853686
0.171437
0.206813
0.255238
0.278417
0.297222
0.30477
0.311755
0.315114
0.318451
0.320425
0.322414
0.323818
0.325201
0.326317
0.327407
0.328379
0.329343
0.330274
0.331225
0.332197
0.333223
0.334315
0.3355
0.336798
0.338235
0.339836
0.341629
0.343637
0.345887
0.348403
0.351207
0.354317
0.357747
0.361503
0.365582
0.369967
0.37463
0.379526
0.384596
0.389754
0.394905
0.399911
0.404639
0.40887
0.412449
0.415083
0.416788
0.417062
0.416122
0.412883
0.408396
0.399869
0.391043
0.37391
0.360815
0.32748
0.313844
0.244299
0.247359
0.0846102
0.170638
0.21063
0.25576
0.278629
0.297121
0.304785
0.311761
0.315171
0.31849
0.320469
0.322445
0.323847
0.325225
0.326341
0.327429
0.328401
0.329364
0.330294
0.331244
0.332215
0.333239
0.334329
0.335512
0.336808
0.338243
0.339843
0.341634
0.34364
0.345888
0.348402
0.351205
0.354314
0.357743
0.361498
0.365575
0.369958
0.374619
0.379512
0.384578
0.389729
0.394871
0.399864
0.404575
0.408787
0.412343
0.414953
0.416626
0.416866
0.415882
0.4126
0.408057
0.399485
0.390583
0.37341
0.360207
0.326852
0.313048
0.24354
0.246354
0.0839258
0.169857
0.214344
0.256368
0.278871
0.297032
0.304794
0.311763
0.315228
0.318533
0.320517
0.32248
0.32388
0.325252
0.326368
0.327455
0.328427
0.329389
0.330318
0.331267
0.332236
0.333259
0.334348
0.33553
0.336824
0.338257
0.339855
0.341644
0.343649
0.345895
0.348408
0.351209
0.354317
0.357746
0.3615
0.365575
0.369957
0.374616
0.379505
0.384565
0.389709
0.394842
0.399822
0.404516
0.408707
0.412239
0.414825
0.416467
0.416672
0.415644
0.412322
0.407722
0.399108
0.390133
0.372925
0.359615
0.326249
0.312273
0.242826
0.245379
0.083313
0.169089
0.217959
0.257054
0.279145
0.296957
0.3048
0.311759
0.315284
0.318577
0.32057
0.322519
0.323917
0.325283
0.326398
0.327484
0.328457
0.329418
0.330347
0.331294
0.332263
0.333284
0.334372
0.335552
0.336844
0.338276
0.339873
0.34166
0.343664
0.345909
0.348421
0.351221
0.354328
0.357756
0.361509
0.365583
0.369963
0.374619
0.379505
0.38456
0.389696
0.394818
0.399785
0.404461
0.40863
0.412139
0.414699
0.416309
0.41648
0.415409
0.412048
0.407392
0.39874
0.389691
0.372455
0.359036
0.325672
0.31152
0.242155
0.244432
0.0827692
0.168331
0.22148
0.257812
0.279449
0.296899
0.304804
0.311752
0.315339
0.318623
0.320627
0.322564
0.323959
0.325319
0.326433
0.327517
0.328491
0.329452
0.33038
0.331327
0.332294
0.333315
0.334401
0.33558
0.336871
0.338302
0.339897
0.341683
0.343686
0.34593
0.348441
0.35124
0.354347
0.357774
0.361526
0.365599
0.369977
0.374631
0.379512
0.384561
0.389689
0.3948
0.399752
0.40441
0.408557
0.41204
0.414576
0.416153
0.41629
0.415176
0.411776
0.407066
0.398377
0.389256
0.371996
0.35847
0.325118
0.310785
0.241527
0.243511
0.0822921
0.167581
0.224911
0.258634
0.279784
0.29686
0.304809
0.311743
0.315393
0.318671
0.320688
0.322613
0.324007
0.325359
0.326473
0.327555
0.328529
0.32949
0.330418
0.331364
0.332331
0.333351
0.334436
0.335614
0.336904
0.338334
0.339928
0.341714
0.343715
0.345959
0.348469
0.351268
0.354374
0.3578
0.361552
0.365624
0.37
0.37465
0.379527
0.384569
0.389689
0.394787
0.399724
0.404362
0.408487
0.411945
0.414454
0.415998
0.416101
0.414944
0.411507
0.406743
0.39802
0.388827
0.37155
0.357915
0.324587
0.31007
0.240939
0.242615
0.0818792
0.166835
0.228258
0.259516
0.280148
0.296842
0.304817
0.311732
0.315445
0.318722
0.320755
0.322668
0.324061
0.325406
0.326518
0.327598
0.328572
0.329534
0.330462
0.331408
0.332374
0.333393
0.334478
0.335655
0.336945
0.338373
0.339967
0.341751
0.343752
0.345995
0.348505
0.351304
0.35441
0.357836
0.361586
0.365657
0.370031
0.374678
0.37955
0.384585
0.389695
0.39478
0.399701
0.404318
0.40842
0.411851
0.414333
0.415844
0.415913
0.414713
0.41124
0.406422
0.397668
0.388404
0.371115
0.357372
0.324078
0.309372
0.240392
0.241742
0.0815283
0.166092
0.231523
0.260451
0.280541
0.296845
0.30483
0.311722
0.315497
0.318774
0.320826
0.322729
0.324122
0.325458
0.326569
0.327646
0.328621
0.329583
0.330512
0.331457
0.332424
0.333442
0.334526
0.335703
0.336992
0.338421
0.340014
0.341797
0.343798
0.346041
0.348551
0.35135
0.354455
0.357881
0.361631
0.3657
0.370072
0.374715
0.379581
0.384609
0.389708
0.39478
0.399683
0.404279
0.408356
0.411759
0.414214
0.41569
0.415726
0.414482
0.410973
0.406103
0.39732
0.387987
0.370691
0.35684
0.323591
0.308692
0.239883
0.240892
0.0812371
0.165349
0.234714
0.261434
0.280961
0.296871
0.304849
0.311714
0.315549
0.31883
0.320902
0.322797
0.324189
0.325518
0.326626
0.327701
0.328677
0.329638
0.330568
0.331514
0.33248
0.333498
0.334583
0.335759
0.337048
0.338476
0.340069
0.341852
0.343853
0.346096
0.348606
0.351405
0.354511
0.357936
0.361685
0.365753
0.370122
0.374761
0.379621
0.38464
0.389728
0.394785
0.39967
0.404243
0.408294
0.411669
0.414095
0.415536
0.415538
0.414251
0.410707
0.405785
0.396976
0.387575
0.370276
0.356318
0.323124
0.308028
0.239412
0.240063
0.0810034
0.164605
0.237832
0.262461
0.281407
0.29692
0.304876
0.311709
0.315602
0.318888
0.320984
0.322873
0.324266
0.325585
0.326692
0.327763
0.328739
0.3297
0.330631
0.331577
0.332544
0.333562
0.334647
0.335823
0.337112
0.33854
0.340133
0.341917
0.343917
0.346161
0.348672
0.351471
0.354577
0.358002
0.36175
0.365817
0.370182
0.374817
0.379671
0.38468
0.389756
0.394797
0.399662
0.404211
0.408235
0.411581
0.413977
0.415382
0.415349
0.41402
0.410442
0.405468
0.396635
0.387167
0.369871
0.355806
0.322677
0.30738
0.238978
0.239255
0.0808252
0.163859
0.240884
0.263525
0.281876
0.296992
0.304912
0.31171
0.315658
0.318951
0.321072
0.322956
0.324351
0.325662
0.326766
0.327833
0.328809
0.32977
0.330702
0.331648
0.332616
0.333634
0.334719
0.335896
0.337186
0.338614
0.340207
0.341991
0.343993
0.346237
0.348748
0.351548
0.354654
0.35808
0.361827
0.365891
0.370254
0.374883
0.379729
0.384728
0.389791
0.394815
0.399659
0.404183
0.408179
0.411494
0.413859
0.415228
0.41516
0.413787
0.410176
0.405152
0.396297
0.386763
0.369475
0.355303
0.322249
0.306749
0.238579
0.238466
0.0807006
0.163109
0.243874
0.264623
0.282368
0.297086
0.304959
0.311717
0.315716
0.319019
0.321166
0.323048
0.324445
0.325749
0.32685
0.327913
0.328887
0.329848
0.330781
0.331728
0.332697
0.333716
0.334802
0.335979
0.337269
0.338698
0.340292
0.342077
0.344079
0.346324
0.348836
0.351637
0.354744
0.358169
0.361915
0.365977
0.370336
0.37496
0.379798
0.384786
0.389834
0.394839
0.399661
0.404158
0.408125
0.411408
0.413741
0.415073
0.41497
0.413554
0.40991
0.404836
0.395962
0.386363
0.369087
0.354809
0.32184
0.306132
0.238216
0.237697
0.0806276
0.162355
0.246805
0.265752
0.28288
0.297201
0.305017
0.311731
0.31578
0.319092
0.321267
0.323149
0.32455
0.325846
0.326944
0.328002
0.328976
0.329936
0.33087
0.331818
0.332787
0.333807
0.334894
0.336072
0.337363
0.338794
0.340388
0.342174
0.344177
0.346424
0.348937
0.351739
0.354846
0.358271
0.362016
0.366076
0.370431
0.375048
0.379877
0.384853
0.389885
0.39487
0.399668
0.404137
0.408074
0.411323
0.413624
0.414917
0.414778
0.413319
0.409643
0.40452
0.395629
0.385966
0.368708
0.354324
0.32145
0.305531
0.237887
0.236947
0.0806045
0.161596
0.249682
0.266907
0.28341
0.297337
0.305086
0.311754
0.315848
0.319171
0.321376
0.32326
0.324667
0.325956
0.327051
0.328103
0.329075
0.330034
0.330969
0.331918
0.332888
0.33391
0.334997
0.336177
0.337469
0.338901
0.340496
0.342283
0.344288
0.346536
0.349051
0.351854
0.354962
0.358386
0.362131
0.366187
0.370537
0.375147
0.379966
0.384929
0.389944
0.394908
0.399681
0.404121
0.408025
0.411239
0.413505
0.414759
0.414584
0.413081
0.409375
0.404203
0.395297
0.385573
0.368337
0.353849
0.321078
0.304945
0.237591
0.236214
0.0806295
0.160831
0.25251
0.268085
0.283957
0.297494
0.305167
0.311786
0.315922
0.319258
0.321494
0.323382
0.324796
0.326079
0.327171
0.328217
0.329187
0.330144
0.331079
0.332029
0.333001
0.334023
0.335112
0.336293
0.337587
0.33902
0.340618
0.342406
0.344413
0.346662
0.349179
0.351983
0.355091
0.358516
0.362259
0.366312
0.370657
0.375259
0.380067
0.385015
0.390012
0.394953
0.399699
0.404107
0.407978
0.411156
0.413386
0.4146
0.414389
0.412842
0.409105
0.403886
0.394968
0.385183
0.367974
0.353381
0.320724
0.304374
0.237329
0.2355
0.0807009
0.16006
0.255292
0.269282
0.284519
0.297669
0.305259
0.311828
0.316004
0.319353
0.321621
0.323516
0.324937
0.326216
0.327305
0.328345
0.329312
0.330267
0.331202
0.332152
0.333126
0.33415
0.335241
0.336423
0.337719
0.339154
0.340753
0.342543
0.344552
0.346803
0.349321
0.352127
0.355236
0.35866
0.362401
0.366451
0.37079
0.375383
0.38018
0.385112
0.390089
0.395006
0.399723
0.404098
0.407933
0.411073
0.413266
0.414439
0.41419
0.4126
0.408834
0.403568
0.394639
0.384795
0.367618
0.352923
0.320388
0.303818
0.237098
0.234803
0.0808171
0.159285
0.258033
0.270496
0.285094
0.297861
0.305362
0.31188
0.316092
0.319457
0.321757
0.323662
0.325093
0.326368
0.327455
0.328489
0.329452
0.330404
0.331339
0.33229
0.333265
0.33429
0.335383
0.336567
0.337865
0.339302
0.340903
0.342695
0.344706
0.34696
0.34948
0.352287
0.355397
0.358821
0.362559
0.366605
0.370937
0.375521
0.380304
0.385219
0.390174
0.395065
0.399752
0.404092
0.407889
0.41099
0.413145
0.414275
0.413989
0.412355
0.40856
0.403249
0.394312
0.384411
0.36727
0.352473
0.320068
0.303278
0.236899
0.234124
0.0809765
0.158503
0.260735
0.271724
0.285681
0.298071
0.305476
0.311942
0.316189
0.319569
0.321904
0.32382
0.325263
0.326537
0.327621
0.328649
0.329609
0.330557
0.331491
0.332442
0.333418
0.334445
0.33554
0.336726
0.338026
0.339465
0.341069
0.342864
0.344877
0.347133
0.349655
0.352464
0.355574
0.358997
0.362734
0.366775
0.371099
0.375672
0.380441
0.385337
0.390269
0.395132
0.399786
0.404089
0.407848
0.410907
0.413022
0.414109
0.413785
0.412107
0.408284
0.402928
0.393986
0.384029
0.366929
0.352033
0.319766
0.302752
0.236731
0.233462
0.0811774
0.157717
0.263404
0.272962
0.286279
0.298296
0.305601
0.312014
0.316294
0.319691
0.322061
0.323992
0.325449
0.326722
0.327806
0.328828
0.329784
0.330728
0.33166
0.332611
0.333588
0.334616
0.335713
0.336902
0.338205
0.339646
0.341252
0.34305
0.345066
0.347324
0.349848
0.352658
0.355769
0.359191
0.362925
0.366961
0.371277
0.375838
0.38059
0.385466
0.390373
0.395206
0.399826
0.40409
0.407808
0.410824
0.412897
0.41394
0.413577
0.411856
0.408004
0.402606
0.39366
0.383651
0.366595
0.3516
0.31948
0.302242
0.236593
0.232818
0.0814182
0.156926
0.266042
0.274208
0.286885
0.298535
0.305736
0.312096
0.316407
0.319823
0.322229
0.324178
0.325651
0.326926
0.32801
0.329026
0.329978
0.330917
0.331848
0.332797
0.333775
0.334805
0.335904
0.337095
0.338401
0.339845
0.341454
0.343254
0.345273
0.347534
0.350061
0.352872
0.355983
0.359404
0.363134
0.367163
0.37147
0.376018
0.380753
0.385607
0.390487
0.395288
0.399871
0.404094
0.407769
0.41074
0.41277
0.413768
0.413365
0.4116
0.407722
0.402282
0.393335
0.383274
0.366267
0.351177
0.319211
0.301747
0.236485
0.232192
0.0816974
0.156132
0.268654
0.27546
0.287498
0.298788
0.305881
0.312188
0.316528
0.319964
0.322407
0.324377
0.325868
0.327148
0.328234
0.329246
0.330193
0.331128
0.332055
0.333003
0.333982
0.335013
0.336114
0.337308
0.338616
0.340063
0.341675
0.343479
0.3455
0.347764
0.350293
0.353105
0.356217
0.359636
0.363362
0.367384
0.371681
0.376214
0.38093
0.38576
0.390611
0.395377
0.399921
0.404102
0.407731
0.410655
0.412641
0.413591
0.413149
0.411341
0.407436
0.401955
0.39301
0.3829
0.365947
0.350763
0.318958
0.301268
0.236406
0.231584
0.0820133
0.155335
0.271243
0.276716
0.288117
0.299053
0.306034
0.312289
0.316658
0.320114
0.322597
0.324589
0.326102
0.327389
0.328478
0.329487
0.33043
0.33136
0.332285
0.333231
0.334209
0.335241
0.336344
0.337541
0.338852
0.340303
0.341918
0.343725
0.345749
0.348016
0.350547
0.35336
0.356471
0.359888
0.363609
0.367624
0.371908
0.376426
0.381121
0.385925
0.390745
0.395475
0.399977
0.404112
0.407694
0.410569
0.412509
0.413411
0.412929
0.411076
0.407147
0.401627
0.392684
0.382529
0.365632
0.350358
0.318721
0.300805
0.236354
0.230994
0.0823641
0.154535
0.273811
0.277971
0.288741
0.29933
0.306197
0.3124
0.316796
0.320274
0.322797
0.324815
0.326352
0.32765
0.328744
0.329751
0.330692
0.331617
0.332538
0.333481
0.334459
0.335492
0.336597
0.337796
0.339111
0.340564
0.342183
0.343993
0.346021
0.34829
0.350823
0.353638
0.356748
0.360162
0.363877
0.367883
0.372154
0.376654
0.381327
0.386103
0.390889
0.39558
0.400039
0.404125
0.407658
0.410482
0.412373
0.413227
0.412703
0.410807
0.406853
0.401295
0.392358
0.38216
0.365324
0.349962
0.318499
0.300359
0.23633
0.230423
0.0827481
0.153736
0.276364
0.279226
0.289367
0.299616
0.306367
0.31252
0.316942
0.320444
0.323007
0.325054
0.326618
0.327929
0.329032
0.330039
0.330978
0.331898
0.332816
0.333756
0.334733
0.335766
0.336873
0.338075
0.339393
0.34085
0.342472
0.344286
0.346317
0.348589
0.351123
0.353938
0.357048
0.360458
0.364167
0.368162
0.37242
0.3769
0.381549
0.386294
0.391044
0.395693
0.400106
0.404141
0.407622
0.410393
0.412234
0.413037
0.412472
0.410533
0.406555
0.400961
0.392032
0.381793
0.365022
0.349575
0.318293
0.299929
0.236333
0.229872
0.0831635
0.152937
0.278904
0.280476
0.289995
0.299912
0.306545
0.312648
0.317096
0.320622
0.323227
0.325305
0.326898
0.328227
0.329341
0.330351
0.331289
0.332206
0.33312
0.334058
0.335033
0.336067
0.337175
0.338379
0.3397
0.341161
0.342787
0.344604
0.346638
0.348913
0.351449
0.354264
0.357372
0.360778
0.364479
0.368463
0.372704
0.377164
0.381786
0.386498
0.39121
0.395814
0.400178
0.40416
0.407586
0.410301
0.412091
0.412843
0.412235
0.410253
0.406252
0.400624
0.391705
0.381429
0.364726
0.349198
0.318102
0.299516
0.236361
0.22934
0.0836081
0.15214
0.281434
0.28172
0.290623
0.300216
0.306729
0.312785
0.317258
0.320809
0.323456
0.325568
0.327194
0.328542
0.329671
0.330687
0.331626
0.332541
0.333452
0.334387
0.335361
0.336394
0.337504
0.33871
0.340035
0.341499
0.343129
0.344949
0.346987
0.349264
0.351801
0.354617
0.357722
0.361122
0.364815
0.368786
0.37301
0.377446
0.382039
0.386716
0.391387
0.395944
0.400255
0.404182
0.40755
0.410208
0.411944
0.412643
0.411992
0.409967
0.405944
0.400284
0.391377
0.381066
0.364435
0.34883
0.317924
0.299119
0.236414
0.228828
0.0840799
0.151347
0.283959
0.282956
0.291251
0.300528
0.30692
0.31293
0.317428
0.321004
0.323695
0.325843
0.327503
0.328875
0.330021
0.331046
0.331989
0.332904
0.333814
0.334746
0.335718
0.336751
0.337861
0.33907
0.340397
0.341866
0.343499
0.345324
0.347364
0.349643
0.352182
0.354997
0.358099
0.361493
0.365176
0.369133
0.373337
0.377748
0.382309
0.386949
0.391575
0.396082
0.400338
0.404205
0.407514
0.410112
0.411792
0.412438
0.411743
0.409675
0.405631
0.39994
0.391047
0.380706
0.36415
0.348472
0.317761
0.298741
0.236489
0.228337
0.0845766
0.15056
0.28648
0.284181
0.291875
0.300845
0.307117
0.313082
0.317604
0.321208
0.323943
0.326128
0.327825
0.329224
0.330391
0.331428
0.332378
0.333295
0.334204
0.335135
0.336106
0.337138
0.33825
0.33946
0.34079
0.342263
0.3439
0.345728
0.347771
0.350053
0.352592
0.355405
0.358504
0.361891
0.365562
0.369503
0.373686
0.378069
0.382596
0.387195
0.391774
0.396228
0.400426
0.404231
0.407477
0.410013
0.411636
0.412226
0.411488
0.409378
0.405312
0.399593
0.390717
0.380348
0.363869
0.348124
0.31761
0.29838
0.236587
0.227868
0.0850954
0.149781
0.289002
0.285393
0.292496
0.301168
0.307319
0.313242
0.317788
0.32142
0.324199
0.326424
0.328159
0.329588
0.330779
0.331831
0.332792
0.333713
0.334624
0.335555
0.336525
0.337557
0.33867
0.339882
0.341215
0.342691
0.344332
0.346164
0.34821
0.350494
0.353033
0.355845
0.358938
0.362317
0.365975
0.369898
0.374057
0.378411
0.382901
0.387457
0.391986
0.396382
0.400519
0.40426
0.40744
0.409912
0.411475
0.412009
0.411226
0.409074
0.404988
0.399242
0.390384
0.379992
0.363593
0.347785
0.317472
0.298037
0.236704
0.227421
0.0856338
0.149012
0.291528
0.286589
0.293112
0.301495
0.307526
0.313408
0.317979
0.321639
0.324463
0.326729
0.328505
0.329966
0.331184
0.332255
0.333229
0.334158
0.335073
0.336005
0.336977
0.338009
0.339123
0.340337
0.341673
0.343152
0.344798
0.346633
0.348682
0.350967
0.353506
0.356315
0.359402
0.362772
0.366416
0.370319
0.374452
0.378773
0.383224
0.387733
0.392209
0.396546
0.400618
0.404291
0.407403
0.409808
0.41131
0.411787
0.410958
0.408764
0.404659
0.398889
0.390051
0.379638
0.363322
0.347456
0.317345
0.297712
0.23684
0.226997
0.0861886
0.148254
0.294062
0.287767
0.293722
0.301826
0.307738
0.313582
0.318177
0.321866
0.324736
0.327044
0.328861
0.330357
0.331605
0.332698
0.333688
0.334628
0.33555
0.336486
0.33746
0.338494
0.339609
0.340826
0.342165
0.343648
0.345297
0.347136
0.349188
0.351474
0.354012
0.356818
0.359898
0.363256
0.366885
0.370766
0.374871
0.379157
0.383566
0.388025
0.392444
0.396718
0.400722
0.404325
0.407366
0.409702
0.411141
0.411559
0.410684
0.408449
0.404326
0.398533
0.389716
0.379287
0.363055
0.347137
0.317229
0.297406
0.236993
0.226597
0.0867564
0.147512
0.296606
0.288925
0.294324
0.30216
0.307953
0.313761
0.318381
0.322101
0.325016
0.327367
0.329228
0.330761
0.332041
0.333159
0.334168
0.335122
0.336053
0.336996
0.337974
0.339012
0.34013
0.34135
0.342692
0.344179
0.345832
0.347674
0.349728
0.352015
0.354552
0.357353