/*--------------------------------*- C++ -*----------------------------------*\
| =========                 |                                                 |
| \\      /  F ield         | OpenFOAM: The Open Source CFD Toolbox           |
|  \\    /   O peration     | Version:  2.4.0                                 |
|   \\  /    A nd           | Web:      www.OpenFOAM.org                      |
|    \\/     M anipulation  |                                                 |
\*---------------------------------------------------------------------------*/
FoamFile
{
    version     2.0;
    format      ascii;
    class       surfaceScalarField;
    location    "650";
    object      phi;
}
// * * * * * * * * * * * * * * * * * * * * * * * * * * * * * * * * * * * * * //

dimensions      [0 3 -1 0 0 0 0];

internalField   nonuniform List<scalar> 
24170
(
3.04549e-06
8.83994e-08
2.94993e-06
9.55659e-08
2.86181e-06
8.81209e-08
2.77981e-06
8.19959e-08
2.70165e-06
7.81659e-08
2.62992e-06
7.17305e-08
2.5624e-06
6.7519e-08
2.50098e-06
6.14214e-08
2.44331e-06
5.76689e-08
2.39114e-06
5.21621e-08
2.34253e-06
4.86121e-08
2.29865e-06
4.38785e-08
2.25852e-06
4.01343e-08
2.22196e-06
3.65575e-08
2.19024e-06
3.17257e-08
2.16013e-06
3.01074e-08
2.13873e-06
2.13982e-08
1.88611e-08
2.11987e-06
3.47588e-06
6.89609e-08
3.48107e-06
9.03747e-08
3.48034e-06
8.8853e-08
3.47492e-06
8.74147e-08
3.46579e-06
8.73019e-08
3.45402e-06
8.3494e-08
3.44044e-06
8.1102e-08
3.42532e-06
7.65425e-08
3.40937e-06
7.36157e-08
3.39258e-06
6.8952e-08
3.37568e-06
6.55202e-08
3.35843e-06
6.11284e-08
3.34152e-06
5.70412e-08
3.32481e-06
5.32632e-08
3.30868e-06
4.78633e-08
3.29391e-06
4.4879e-08
3.27946e-06
3.58437e-08
3.20678e-08
3.26625e-06
3.82569e-06
5.54684e-08
3.83431e-06
8.17537e-08
3.8399e-06
8.32563e-08
3.8436e-06
8.37224e-08
3.84633e-06
8.45671e-08
3.84767e-06
8.21512e-08
3.84863e-06
8.01517e-08
3.84841e-06
7.67619e-08
3.8481e-06
7.39176e-08
3.84671e-06
7.03416e-08
3.8455e-06
6.67326e-08
3.84328e-06
6.33501e-08
3.84141e-06
5.89082e-08
3.8388e-06
5.58725e-08
3.83646e-06
5.02069e-08
3.83425e-06
4.70892e-08
3.83091e-06
3.91818e-08
3.43151e-08
3.82867e-06
4.21517e-06
4.48532e-08
4.22406e-06
7.28634e-08
4.23006e-06
7.72616e-08
4.23467e-06
7.9112e-08
4.23875e-06
8.0484e-08
4.24205e-06
7.8853e-08
4.24508e-06
7.71232e-08
4.2476e-06
7.4244e-08
4.24998e-06
7.15402e-08
4.252e-06
6.83195e-08
4.2539e-06
6.48265e-08
4.25562e-06
6.16382e-08
4.25717e-06
5.73512e-08
4.25878e-06
5.42699e-08
4.26005e-06
4.89296e-08
4.26167e-06
4.54734e-08
4.26218e-06
3.86681e-08
3.35733e-08
4.26292e-06
4.64605e-06
3.61142e-08
4.6548e-06
6.41074e-08
4.66113e-06
7.09296e-08
4.66622e-06
7.40269e-08
4.67085e-06
7.58503e-08
4.6748e-06
7.49046e-08
4.67852e-06
7.34076e-08
4.68179e-06
7.09734e-08
4.68498e-06
6.83455e-08
4.68788e-06
6.54273e-08
4.6907e-06
6.20002e-08
4.6934e-06
5.89433e-08
4.69592e-06
5.48268e-08
4.69857e-06
5.16253e-08
4.70076e-06
4.67336e-08
4.70327e-06
4.29641e-08
4.70474e-06
3.71966e-08
3.22631e-08
4.70605e-06
5.12181e-06
2.88988e-08
5.13018e-06
5.57383e-08
5.1368e-06
6.43059e-08
5.14238e-06
6.84552e-08
5.14748e-06
7.0749e-08
5.15195e-06
7.04294e-08
5.15614e-06
6.9224e-08
5.15994e-06
6.7173e-08
5.16359e-06
6.46961e-08
5.16701e-06
6.20031e-08
5.17028e-06
5.87262e-08
5.17349e-06
5.57402e-08
5.17645e-06
5.18607e-08
5.1795e-06
4.85767e-08
5.18211e-06
4.4124e-08
5.18481e-06
4.02629e-08
5.18669e-06
3.53182e-08
3.07391e-08
5.18822e-06
5.64686e-06
2.30491e-08
5.65466e-06
4.7931e-08
5.66143e-06
5.75405e-08
5.66742e-06
6.24699e-08
5.67297e-06
6.51962e-08
5.67795e-06
6.54491e-08
5.6826e-06
6.45724e-08
5.68689e-06
6.28835e-08
5.69097e-06
6.06156e-08
5.69484e-06
5.81309e-08
5.69851e-06
5.50612e-08
5.70209e-06
5.21545e-08
5.7054e-06
4.85507e-08
5.70871e-06
4.52665e-08
5.7116e-06
4.12333e-08
5.7144e-06
3.74659e-08
5.71656e-06
3.31635e-08
2.90444e-08
5.71825e-06
4.40952e-06
1.96403e-08
4.41477e-06
4.26802e-08
4.41967e-06
5.26452e-08
4.42412e-06
5.80165e-08
4.42833e-06
6.09886e-08
4.43219e-06
6.1584e-08
4.43581e-06
6.0955e-08
4.43918e-06
5.95113e-08
4.44238e-06
5.74199e-08
4.44542e-06
5.50873e-08
4.4483e-06
5.21881e-08
4.45108e-06
4.93681e-08
4.45367e-06
4.59666e-08
4.45618e-06
4.27519e-08
4.45842e-06
3.89948e-08
4.4605e-06
3.53864e-08
4.4622e-06
3.14673e-08
2.77007e-08
4.46354e-06
5.143e-06
1.64959e-08
5.14823e-06
3.74484e-08
5.15341e-06
4.74686e-08
5.15833e-06
5.31003e-08
5.16305e-06
5.6261e-08
5.16747e-06
5.71697e-08
5.17163e-06
5.67898e-08
5.17555e-06
5.55941e-08
5.17926e-06
5.37074e-08
5.18281e-06
5.15439e-08
5.18615e-06
4.88479e-08
5.18937e-06
4.61464e-08
5.19236e-06
4.2977e-08
5.19522e-06
3.98863e-08
5.1978e-06
3.64245e-08
5.20014e-06
3.30393e-08
5.20211e-06
2.94972e-08
2.61055e-08
5.20371e-06
5.99864e-06
1.3647e-08
6.00377e-06
3.23236e-08
6.00913e-06
4.21049e-08
6.01444e-06
4.77872e-08
6.01966e-06
5.10457e-08
6.02462e-06
5.2213e-08
6.02934e-06
5.20646e-08
6.03383e-06
5.11052e-08
6.0381e-06
4.94421e-08
6.04218e-06
4.74626e-08
6.04603e-06
4.49984e-08
6.04972e-06
4.24531e-08
6.05315e-06
3.95437e-08
6.0564e-06
3.66361e-08
6.05934e-06
3.34882e-08
6.06199e-06
3.03844e-08
6.06428e-06
2.7217e-08
2.42119e-08
6.06617e-06
6.99679e-06
1.11234e-08
7.00174e-06
2.73704e-08
7.00723e-06
3.66219e-08
7.01286e-06
4.21517e-08
7.01851e-06
4.53957e-08
7.02398e-06
4.67426e-08
7.02925e-06
4.67937e-08
7.03431e-06
4.60465e-08
7.03914e-06
4.46136e-08
7.04377e-06
4.28306e-08
7.04815e-06
4.06183e-08
7.05234e-06
3.82698e-08
7.05624e-06
3.56431e-08
7.0599e-06
3.29767e-08
7.06323e-06
3.01594e-08
7.06623e-06
2.73828e-08
7.06885e-06
2.45912e-08
2.19759e-08
7.07109e-06
8.16122e-06
8.9202e-09
8.16595e-06
2.26425e-08
8.17149e-06
3.10768e-08
8.17738e-06
3.62593e-08
8.18342e-06
3.93641e-08
8.18936e-06
4.07942e-08
8.19516e-06
4.10014e-08
8.20077e-06
4.04367e-08
8.20615e-06
3.92298e-08
8.21133e-06
3.76557e-08
8.21624e-06
3.57077e-08
8.22091e-06
3.35959e-08
8.22528e-06
3.12705e-08
8.22937e-06
2.88946e-08
8.2331e-06
2.64233e-08
8.23648e-06
2.40045e-08
8.23948e-06
2.15917e-08
1.93627e-08
8.24209e-06
9.51965e-06
6.99824e-09
9.52412e-06
1.81737e-08
9.52968e-06
2.55186e-08
9.53577e-06
3.01623e-08
9.54214e-06
3.29955e-08
9.54854e-06
3.43995e-08
9.55483e-06
3.47065e-08
9.56098e-06
3.42925e-08
9.56691e-06
3.32997e-08
9.57262e-06
3.19469e-08
9.57805e-06
3.02727e-08
9.58321e-06
2.84332e-08
9.58806e-06
2.64272e-08
9.59257e-06
2.43789e-08
9.59673e-06
2.22688e-08
9.60051e-06
2.02247e-08
9.60391e-06
1.81936e-08
1.63441e-08
9.60693e-06
1.11044e-05
5.29554e-09
1.11086e-05
1.3963e-08
1.11142e-05
1.99807e-08
1.11204e-05
2.38966e-08
1.11271e-05
2.63214e-08
1.11339e-05
2.75815e-08
1.11407e-05
2.79172e-08
1.11474e-05
2.76174e-08
1.11539e-05
2.68201e-08
1.11601e-05
2.56971e-08
1.11661e-05
2.43051e-08
1.11717e-05
2.27665e-08
1.11771e-05
2.1098e-08
1.1182e-05
1.94035e-08
1.11867e-05
1.76684e-08
1.11909e-05
1.60075e-08
1.11947e-05
1.43603e-08
1.28834e-08
1.11982e-05
1.29532e-05
3.74101e-09
1.29572e-05
9.96335e-09
1.29627e-05
1.44624e-08
1.29691e-05
1.74681e-08
1.29761e-05
1.93468e-08
1.29833e-05
2.03442e-08
1.29906e-05
2.06259e-08
1.29979e-05
2.0396e-08
1.30049e-05
1.97688e-08
1.30117e-05
1.88761e-08
1.30183e-05
1.77712e-08
1.30245e-05
1.65524e-08
1.30303e-05
1.52366e-08
1.30358e-05
1.39127e-08
1.30409e-05
1.25633e-08
1.30457e-05
1.129e-08
1.305e-05
1.0028e-08
8.91872e-09
1.30539e-05
1.51099e-05
2.26051e-09
1.51138e-05
6.07281e-09
1.51194e-05
8.89965e-09
1.5126e-05
1.08251e-08
1.51334e-05
1.20243e-08
1.5141e-05
1.26461e-08
1.51489e-05
1.27886e-08
1.51567e-05
1.25786e-08
1.51644e-05
1.20918e-08
1.51718e-05
1.14209e-08
1.5179e-05
1.06031e-08
1.51858e-05
9.71325e-09
1.51923e-05
8.76016e-09
1.51984e-05
7.81612e-09
1.52041e-05
6.85933e-09
1.52094e-05
5.97556e-09
1.52144e-05
5.09976e-09
4.35534e-09
1.52189e-05
1.76259e-05
7.73707e-10
1.76299e-05
2.11339e-09
1.76357e-05
3.11651e-09
1.76427e-05
3.80484e-09
1.76505e-05
4.20151e-09
1.76588e-05
4.34985e-09
1.76673e-05
4.27881e-09
1.76759e-05
4.04313e-09
1.76843e-05
3.67011e-09
1.76925e-05
3.21081e-09
1.77004e-05
2.67845e-09
1.7708e-05
2.12217e-09
1.77152e-05
1.53831e-09
1.77221e-05
9.80195e-10
1.77285e-05
4.21159e-10
1.77346e-05
-7.06169e-11
1.77402e-05
-5.57635e-10
-9.36322e-10
1.77455e-05
1.78276e-05
-6.37486e-10
1.78314e-05
-1.68065e-09
1.7837e-05
-2.44269e-09
1.78437e-05
-2.95722e-09
1.78513e-05
-3.34579e-09
1.78593e-05
-3.6677e-09
1.78675e-05
-3.96039e-09
1.78758e-05
-4.23507e-09
1.7884e-05
-4.51341e-09
1.7892e-05
-4.78413e-09
1.78997e-05
-5.05862e-09
1.79072e-05
-5.31251e-09
1.79143e-05
-5.56216e-09
1.7921e-05
-5.77217e-09
1.79274e-05
-5.9735e-09
1.79334e-05
-6.11386e-09
1.79391e-05
-6.25233e-09
-6.303e-09
1.79445e-05
1.58827e-05
-1.95267e-09
1.58862e-05
-5.215e-09
1.58913e-05
-7.5344e-09
1.58974e-05
-9.06072e-09
1.59041e-05
-1.00962e-08
1.59113e-05
-1.07931e-08
1.59185e-05
-1.1248e-08
1.59258e-05
-1.15339e-08
1.5933e-05
-1.1716e-08
1.59401e-05
-1.18161e-08
1.59469e-05
-1.18659e-08
1.59534e-05
-1.18614e-08
1.59597e-05
-1.18292e-08
1.59657e-05
-1.17482e-08
1.59714e-05
-1.16523e-08
1.59767e-05
-1.15018e-08
1.59818e-05
-1.13522e-08
-1.11318e-08
1.59867e-05
1.415e-05
-3.30106e-09
1.41536e-05
-8.78878e-09
1.41585e-05
-1.24938e-08
1.41643e-05
-1.48395e-08
1.41706e-05
-1.6378e-08
1.41772e-05
-1.73392e-08
1.41838e-05
-1.78766e-08
1.41904e-05
-1.81265e-08
1.41968e-05
-1.81921e-08
1.42032e-05
-1.81204e-08
1.42092e-05
-1.7959e-08
1.42151e-05
-1.77201e-08
1.42207e-05
-1.74377e-08
1.42261e-05
-1.71019e-08
1.42312e-05
-1.6748e-08
1.4236e-05
-1.63465e-08
1.42406e-05
-1.59487e-08
-1.54953e-08
1.4245e-05
1.26065e-05
-4.80871e-09
1.26104e-05
-1.26386e-08
1.26154e-05
-1.75297e-08
1.26211e-05
-2.04873e-08
1.26271e-05
-2.23801e-08
1.26332e-05
-2.34844e-08
1.26394e-05
-2.40148e-08
1.26454e-05
-2.41747e-08
1.26513e-05
-2.40957e-08
1.2657e-05
-2.38426e-08
1.26625e-05
-2.34734e-08
1.26678e-05
-2.30132e-08
1.26729e-05
-2.25e-08
1.26777e-05
-2.1933e-08
1.26823e-05
-2.13473e-08
1.26867e-05
-2.07219e-08
1.26909e-05
-2.01036e-08
-1.94437e-08
1.26948e-05
1.12316e-05
-6.63187e-09
1.1236e-05
-1.6968e-08
1.12412e-05
-2.27678e-08
1.12468e-05
-2.61117e-08
1.12526e-05
-2.82036e-08
1.12585e-05
-2.93217e-08
1.12642e-05
-2.97525e-08
1.12698e-05
-2.97681e-08
1.12752e-05
-2.95144e-08
1.12805e-05
-2.90663e-08
1.12855e-05
-2.84873e-08
1.12903e-05
-2.78122e-08
1.12948e-05
-2.70801e-08
1.12992e-05
-2.62976e-08
1.13034e-05
-2.5498e-08
1.13073e-05
-2.4668e-08
1.13111e-05
-2.38489e-08
-2.30022e-08
1.13146e-05
1.0007e-05
-8.97784e-09
1.00119e-05
-2.19494e-08
1.00174e-05
-2.82729e-08
1.00231e-05
-3.17597e-08
1.00288e-05
-3.38835e-08
1.00343e-05
-3.48782e-08
1.00397e-05
-3.51166e-08
1.00449e-05
-3.49349e-08
1.00498e-05
-3.44762e-08
1.00546e-05
-3.38185e-08
1.00591e-05
-3.3025e-08
1.00634e-05
-3.21383e-08
1.00676e-05
-3.11958e-08
1.00715e-05
-3.02098e-08
1.00752e-05
-2.92108e-08
1.00787e-05
-2.81921e-08
1.0082e-05
-2.71888e-08
-2.61718e-08
1.00852e-05
8.91623e-06
-1.21094e-08
8.922e-06
-2.77161e-08
8.92778e-06
-3.40549e-08
8.93343e-06
-3.74138e-08
8.93893e-06
-3.93807e-08
8.94416e-06
-4.01094e-08
8.94911e-06
-4.00658e-08
8.95382e-06
-3.96412e-08
8.9583e-06
-3.89538e-08
8.96256e-06
-3.80782e-08
8.9666e-06
-3.70701e-08
8.97044e-06
-3.59797e-08
8.97408e-06
-3.48377e-08
8.97754e-06
-3.36631e-08
8.98081e-06
-3.24805e-08
8.98391e-06
-3.12909e-08
8.98684e-06
-3.01213e-08
-2.89527e-08
8.98962e-06
7.9449e-06
-1.6338e-08
7.95153e-06
-3.43479e-08
7.95751e-06
-4.00408e-08
7.96306e-06
-4.29576e-08
7.96825e-06
-4.45703e-08
7.97305e-06
-4.49062e-08
7.97749e-06
-4.45137e-08
7.98168e-06
-4.38245e-08
7.98563e-06
-4.29036e-08
7.98937e-06
-4.18172e-08
7.9929e-06
-4.06051e-08
7.99625e-06
-3.93273e-08
7.99941e-06
-3.80019e-08
8.00241e-06
-3.66574e-08
8.00524e-06
-3.53089e-08
8.00791e-06
-3.39675e-08
8.01044e-06
-3.2649e-08
-3.13459e-08
8.01283e-06
7.08002e-06
-2.20242e-08
7.08748e-06
-4.18125e-08
7.09348e-06
-4.60353e-08
7.09871e-06
-4.8194e-08
7.10344e-06
-4.92997e-08
7.1077e-06
-4.91663e-08
7.11159e-06
-4.8398e-08
7.11521e-06
-4.74519e-08
7.11862e-06
-4.63089e-08
7.12183e-06
-4.50278e-08
7.12485e-06
-4.36254e-08
7.1277e-06
-4.21777e-08
7.13038e-06
-4.0683e-08
7.13291e-06
-3.91848e-08
7.13529e-06
-3.76845e-08
7.13753e-06
-3.62072e-08
7.13963e-06
-3.47559e-08
-3.33407e-08
7.14163e-06
6.31015e-06
-2.96604e-08
6.3182e-06
-4.98659e-08
6.32398e-06
-5.18167e-08
6.32878e-06
-5.29885e-08
6.33295e-06
-5.34673e-08
6.33659e-06
-5.28107e-08
6.33985e-06
-5.16526e-08
6.34285e-06
-5.04588e-08
6.34564e-06
-4.90952e-08
6.34824e-06
-4.76252e-08
6.35064e-06
-4.60316e-08
6.35288e-06
-4.44192e-08
6.35495e-06
-4.27535e-08
6.35688e-06
-4.11082e-08
6.35865e-06
-3.94547e-08
6.36029e-06
-3.78507e-08
6.3618e-06
-3.62641e-08
-3.47404e-08
6.3632e-06
5.62552e-06
-4.02842e-08
5.63364e-06
-5.79806e-08
5.63908e-06
-5.72616e-08
5.64332e-06
-5.72288e-08
5.64668e-06
-5.68203e-08
5.64935e-06
-5.5482e-08
5.65153e-06
-5.38292e-08
5.65337e-06
-5.23047e-08
5.65491e-06
-5.06367e-08
5.6562e-06
-4.89111e-08
5.65723e-06
-4.70636e-08
5.65805e-06
-4.52353e-08
5.65865e-06
-4.33515e-08
5.65906e-06
-4.15197e-08
5.65929e-06
-3.96838e-08
5.65936e-06
-3.79217e-08
5.65931e-06
-3.62122e-08
-3.45785e-08
5.65914e-06
5.01913e-06
-5.71105e-08
5.02583e-06
-6.46736e-08
5.02883e-06
-6.02694e-08
5.02931e-06
-5.7706e-08
5.02787e-06
-5.53817e-08
5.02506e-06
-5.26725e-08
5.02128e-06
-5.00397e-08
5.01673e-06
-4.77608e-08
5.01155e-06
-4.54536e-08
5.00584e-06
-4.31984e-08
4.99969e-06
-4.0916e-08
4.99319e-06
-3.87386e-08
4.98642e-06
-3.65812e-08
4.97944e-06
-3.45424e-08
4.97232e-06
-3.25615e-08
4.9651e-06
-3.06985e-08
4.95784e-06
-2.89557e-08
-2.74024e-08
4.95067e-06
4.39944e-06
4.33477e-06
4.2745e-06
4.21679e-06
4.16141e-06
4.10874e-06
4.0587e-06
4.01094e-06
3.96548e-06
3.92228e-06
3.88137e-06
3.84263e-06
3.80605e-06
3.77151e-06
3.73894e-06
3.70825e-06
3.67929e-06
3.65189e-06
-5.09195e-09
5.08344e-09
-1.49966e-08
9.8931e-09
-2.65747e-08
1.15658e-08
-3.79813e-08
1.13934e-08
-4.74673e-08
9.4721e-09
-5.32749e-08
5.79402e-09
-5.39115e-08
6.24184e-10
-4.89981e-08
-4.92623e-09
-3.92205e-08
-9.79099e-09
-2.58508e-08
-1.33837e-08
-1.03969e-08
-1.54678e-08
5.69184e-09
-1.61032e-08
2.12525e-08
-1.55753e-08
3.54857e-08
-1.4249e-08
4.79543e-08
-1.24841e-08
5.8631e-08
-1.0691e-08
6.77025e-08
-9.08473e-09
7.55468e-08
-7.85696e-09
8.26689e-08
-7.13445e-09
8.95906e-08
-6.93379e-09
9.66733e-08
-7.09447e-09
1.03923e-07
-7.26198e-09
1.10955e-07
-7.04285e-09
1.17414e-07
-6.47073e-09
1.22941e-07
-5.53875e-09
1.27213e-07
-4.28279e-09
1.29129e-07
-1.92795e-09
1.25926e-07
3.19106e-09
1.11676e-07
1.42341e-08
7.66707e-08
3.49826e-08
1.25192e-08
6.41286e-08
-8.91927e-08
1.01696e-07
-2.36882e-07
1.47679e-07
-4.15222e-07
1.78335e-07
-6.06267e-07
1.91041e-07
-7.98144e-07
1.91874e-07
-9.81934e-07
1.83787e-07
-1.15313e-06
1.71198e-07
-1.30938e-06
1.56248e-07
-1.45009e-06
1.40701e-07
-1.57573e-06
1.2564e-07
-1.68743e-06
1.11701e-07
-1.78663e-06
9.92024e-08
-1.8748e-06
8.81618e-08
-1.95339e-06
7.85903e-08
-2.02374e-06
7.03468e-08
-2.08704e-06
6.33033e-08
-2.14437e-06
5.73277e-08
-2.19662e-06
5.22484e-08
-2.24459e-06
4.79694e-08
-2.28893e-06
4.43424e-08
-2.33022e-06
4.12894e-08
-2.36894e-06
3.87113e-08
-2.40547e-06
3.65361e-08
-2.44018e-06
3.4707e-08
-2.47335e-06
3.31614e-08
-2.50521e-06
3.18644e-08
-2.53598e-06
3.07699e-08
-2.56584e-06
2.98493e-08
-2.59491e-06
2.90754e-08
-2.62333e-06
2.84193e-08
-2.65121e-06
2.78687e-08
-2.6786e-06
2.73961e-08
-2.7056e-06
2.6997e-08
-2.73225e-06
2.66496e-08
-2.75861e-06
2.6351e-08
-2.7847e-06
2.60881e-08
-2.81056e-06
2.58571e-08
-2.83621e-06
2.56535e-08
-2.86169e-06
2.54732e-08
-2.88701e-06
2.53178e-08
-2.9122e-06
2.51853e-08
-2.93728e-06
2.50802e-08
-2.96229e-06
2.50039e-08
-2.98725e-06
2.49617e-08
-3.01222e-06
2.4958e-08
-3.03722e-06
2.49973e-08
-3.06231e-06
2.50852e-08
-3.08754e-06
2.52247e-08
-3.11296e-06
2.54197e-08
-3.13864e-06
2.56707e-08
-3.16462e-06
2.59776e-08
-3.19096e-06
2.63381e-08
-3.21772e-06
2.67469e-08
-3.24492e-06
2.71978e-08
-3.27261e-06
2.76812e-08
-3.30081e-06
2.81873e-08
-3.32953e-06
2.87045e-08
-3.35876e-06
2.92219e-08
-3.38851e-06
2.97292e-08
-3.41875e-06
3.02176e-08
-3.44944e-06
3.06809e-08
-3.48056e-06
3.11144e-08
-3.51209e-06
3.15175e-08
-3.54399e-06
3.18921e-08
-3.57624e-06
3.22448e-08
-3.60883e-06
3.25846e-08
-3.64176e-06
3.29239e-08
-3.67505e-06
3.32764e-08
-3.70872e-06
3.36567e-08
-3.74281e-06
3.40785e-08
-3.77738e-06
3.45524e-08
-3.81248e-06
3.50846e-08
-3.84817e-06
3.56742e-08
-3.8845e-06
3.63118e-08
-3.9215e-06
3.69767e-08
-3.95915e-06
3.76357e-08
-3.99742e-06
3.82415e-08
-4.03617e-06
3.87337e-08
-4.07524e-06
3.90406e-08
-4.11434e-06
3.90828e-08
-4.15314e-06
3.87765e-08
-4.1912e-06
3.80383e-08
-4.22801e-06
3.679e-08
-4.26299e-06
3.49626e-08
-4.29551e-06
3.24998e-08
-4.32489e-06
2.93603e-08
-4.35043e-06
2.55215e-08
-4.37142e-06
2.0983e-08
-4.3872e-06
1.57658e-08
-4.39712e-06
9.90439e-09
-4.40057e-06
3.44562e-09
-4.39704e-06
-3.53401e-09
-4.38607e-06
-1.09761e-08
-4.36725e-06
-1.88199e-08
-4.34028e-06
-2.69582e-08
-4.30501e-06
-3.52662e-08
-4.2614e-06
-4.36055e-08
-4.20956e-06
-5.18275e-08
-4.14975e-06
-5.97844e-08
-4.0824e-06
-6.73359e-08
-4.00804e-06
-7.43389e-08
-3.92737e-06
-8.06467e-08
-3.84123e-06
-8.6118e-08
-3.75055e-06
-9.06498e-08
-3.65633e-06
-9.41935e-08
-3.55953e-06
-9.67709e-08
-3.46104e-06
-9.84543e-08
-3.36169e-06
-9.93121e-08
-3.26225e-06
-9.93996e-08
-3.1634e-06
-9.88017e-08
-3.06575e-06
-9.75988e-08
-2.96955e-06
-9.61449e-08
-2.87399e-06
-9.55168e-08
-2.7784e-06
-9.55368e-08
-2.68233e-06
-9.60252e-08
-2.58452e-06
-9.77617e-08
-2.48364e-06
-1.00836e-07
-2.37791e-06
-1.05683e-07
-2.26523e-06
-1.12638e-07
-2.14309e-06
-1.22076e-07
-2.00854e-06
-1.34471e-07
-1.85829e-06
-1.50155e-07
-1.68937e-06
-1.68813e-07
-1.49924e-06
-1.89992e-07
-1.28531e-06
-2.13764e-07
-1.04512e-06
-2.40016e-07
-7.79937e-07
-2.64975e-07
-4.87791e-07
-2.91907e-07
-1.5551e-07
-3.31995e-07
2.28661e-07
-3.83882e-07
6.68722e-07
-4.39837e-07
1.12749e-06
-4.58583e-07
1.59051e-06
-4.6287e-07
2.03229e-06
-4.4166e-07
2.44545e-06
-4.13061e-07
2.81741e-06
-3.71868e-07
3.15241e-06
-3.34932e-07
3.44045e-06
-2.8798e-07
3.69186e-06
-2.51361e-07
3.89597e-06
-2.04062e-07
4.07027e-06
-1.74258e-07
4.19618e-06
-1.25859e-07
4.30332e-06
-1.07085e-07
4.35586e-06
-5.24942e-08
4.40419e-06
-4.82758e-08
4.37622e-06
2.8014e-08
4.35668e-06
1.95892e-08
4.18212e-06
1.746e-07
2.33368e-07
3.9488e-06
-2.8746e-09
7.94593e-09
-9.62184e-09
1.66265e-08
-1.71716e-08
1.91014e-08
-2.26335e-08
1.68394e-08
-2.39178e-08
1.07396e-08
-2.00092e-08
1.8697e-09
-1.12385e-08
-8.16061e-09
1.3373e-09
-1.75148e-08
1.64289e-08
-2.48942e-08
3.26478e-08
-2.96136e-08
4.87219e-08
-3.15527e-08
6.36592e-08
-3.10513e-08
7.68066e-08
-2.87337e-08
8.78423e-08
-2.52958e-08
9.67175e-08
-2.13697e-08
1.03477e-07
-1.74614e-08
1.08332e-07
-1.39496e-08
1.11593e-07
-1.1129e-08
1.13612e-07
-9.16423e-09
1.14595e-07
-7.92729e-09
1.14214e-07
-6.72546e-09
1.11343e-07
-4.40283e-09
1.04289e-07
-4.60482e-13
9.09553e-08
6.85113e-09
6.89697e-08
1.64362e-08
3.46701e-08
3.00064e-08
-1.76575e-08
5.03888e-08
-9.55029e-08
8.10256e-08
-2.03862e-07
1.22583e-07
-3.41636e-07
1.7275e-07
-5.02494e-07
2.24981e-07
-6.74565e-07
2.73764e-07
-8.38285e-07
3.11396e-07
-9.90405e-07
3.30452e-07
-1.13084e-06
3.31472e-07
-1.25843e-06
3.19468e-07
-1.37358e-06
2.98932e-07
-1.4769e-06
2.74519e-07
-1.56961e-06
2.4895e-07
-1.65298e-06
2.24071e-07
-1.72824e-06
2.009e-07
-1.79647e-06
1.79925e-07
-1.85859e-06
1.61323e-07
-1.91545e-06
1.45019e-07
-1.96773e-06
1.30874e-07
-2.01606e-06
1.18671e-07
-2.06094e-06
1.08185e-07
-2.10282e-06
9.92055e-08
-2.14209e-06
9.15203e-08
-2.17909e-06
8.496e-08
-2.2141e-06
7.93577e-08
-2.24739e-06
7.45808e-08
-2.2792e-06
7.05103e-08
-2.3097e-06
6.70423e-08
-2.33909e-06
6.40943e-08
-2.36752e-06
6.15863e-08
-2.39512e-06
5.94583e-08
-2.422e-06
5.76513e-08
-2.44827e-06
5.61183e-08
-2.47401e-06
5.48175e-08
-2.49931e-06
5.37104e-08
-2.52421e-06
5.27682e-08
-2.54878e-06
5.19598e-08
-2.57305e-06
5.12653e-08
-2.59706e-06
5.06617e-08
-2.62085e-06
5.01351e-08
-2.64443e-06
4.96708e-08
-2.66784e-06
4.926e-08
-2.69108e-06
4.88962e-08
-2.71419e-06
4.85753e-08
-2.73717e-06
4.8298e-08
-2.76005e-06
4.80657e-08
-2.78286e-06
4.78842e-08
-2.80562e-06
4.77599e-08
-2.82836e-06
4.7702e-08
-2.85113e-06
4.77199e-08
-2.87396e-06
4.78235e-08
-2.8969e-06
4.80223e-08
-2.92e-06
4.83238e-08
-2.94332e-06
4.87336e-08
-2.96691e-06
4.92538e-08
-2.99082e-06
4.98827e-08
-3.0151e-06
5.06143e-08
-3.0398e-06
5.1438e-08
-3.06495e-06
5.23388e-08
-3.09057e-06
5.32974e-08
-3.11669e-06
5.42922e-08
-3.1433e-06
5.52991e-08
-3.17039e-06
5.6295e-08
-3.19793e-06
5.72579e-08
-3.2259e-06
5.81693e-08
-3.25425e-06
5.90152e-08
-3.28293e-06
5.97866e-08
-3.3119e-06
6.04817e-08
-3.34112e-06
6.11048e-08
-3.37055e-06
6.16685e-08
-3.40016e-06
6.21911e-08
-3.42994e-06
6.26966e-08
-3.45989e-06
6.32122e-08
-3.49001e-06
6.37662e-08
-3.52033e-06
6.43849e-08
-3.55088e-06
6.50897e-08
-3.5817e-06
6.58931e-08
-3.61284e-06
6.67948e-08
-3.64433e-06
6.7777e-08
-3.67617e-06
6.88019e-08
-3.70836e-06
6.98078e-08
-3.74085e-06
7.07043e-08
-3.77351e-06
7.13746e-08
-3.80617e-06
7.16817e-08
-3.83858e-06
7.14727e-08
-3.87041e-06
7.05868e-08
-3.90126e-06
6.88636e-08
-3.93064e-06
6.61532e-08
-3.95802e-06
6.23235e-08
-3.9828e-06
5.72676e-08
-4.00437e-06
5.09087e-08
-4.02206e-06
4.32051e-08
-4.03525e-06
3.41539e-08
-4.04328e-06
2.37888e-08
-4.04555e-06
1.21697e-08
-4.0415e-06
-6.16874e-10
-4.03059e-06
-1.44407e-08
-4.0124e-06
-2.91746e-08
-3.98654e-06
-4.4673e-08
-3.95277e-06
-6.07338e-08
-3.9109e-06
-7.7127e-08
-3.8609e-06
-9.35956e-08
-3.80286e-06
-1.09857e-07
-3.73701e-06
-1.25616e-07
-3.66375e-06
-1.40579e-07
-3.58363e-06
-1.54447e-07
-3.49734e-06
-1.66918e-07
-3.40572e-06
-1.77713e-07
-3.30971e-06
-1.86644e-07
-3.21026e-06
-1.9362e-07
-3.10833e-06
-1.98676e-07
-3.0048e-06
-2.01953e-07
-2.90048e-06
-2.03598e-07
-2.79608e-06
-2.03763e-07
-2.69211e-06
-2.02735e-07
-2.58874e-06
-2.00928e-07
-2.48588e-06
-1.9897e-07
-2.38366e-06
-1.9769e-07
-2.2818e-06
-1.97365e-07
-2.17935e-06
-1.98434e-07
-2.07543e-06
-2.01645e-07
-1.96864e-06
-2.07594e-07
-1.85716e-06
-2.17125e-07
-1.73879e-06
-2.3097e-07
-1.61095e-06
-2.49878e-07
-1.47071e-06
-2.74652e-07
-1.31475e-06
-3.06047e-07
-1.13989e-06
-3.43597e-07
-9.43127e-07
-3.86666e-07
-7.20886e-07
-4.35908e-07
-4.68356e-07
-4.92444e-07
-1.81817e-07
-5.51411e-07
1.40501e-07
-6.14122e-07
5.01085e-07
-6.92475e-07
8.95128e-07
-7.77822e-07
1.30993e-06
-8.54544e-07
1.73929e-06
-8.87851e-07
2.16554e-06
-8.89047e-07
2.57591e-06
-8.51955e-07
2.95951e-06
-7.966e-07
3.31069e-06
-7.22993e-07
3.62482e-06
-6.49013e-07
3.90149e-06
-5.64615e-07
4.14093e-06
-4.90768e-07
4.34593e-06
-4.09025e-07
4.51639e-06
-3.44686e-07
4.65666e-06
-2.66091e-07
4.76443e-06
-2.14817e-07
4.84681e-06
-1.34839e-07
4.89535e-06
-9.67709e-08
4.9225e-06
8.92223e-10
4.90424e-06
3.78871e-08
4.86835e-06
2.10527e-07
3.27823e-07
4.77392e-06
1.13736e-09
6.79681e-09
2.40062e-09
1.53494e-08
4.16434e-09
1.7323e-08
8.5189e-09
1.24694e-08
1.70997e-08
2.14492e-09
2.99706e-08
-1.10129e-08
4.58324e-08
-2.4032e-08
6.29236e-08
-3.46144e-08
7.94571e-08
-4.1435e-08
9.39817e-08
-4.4145e-08
1.05564e-07
-4.31415e-08
1.13808e-07
-3.93011e-08
1.18714e-07
-3.3646e-08
1.2049e-07
-2.70786e-08
1.19425e-07
-2.031e-08
1.15844e-07
-1.38866e-08
1.10095e-07
-8.20711e-09
1.02434e-07
-3.47483e-09
9.28267e-08
4.36998e-10
8.07068e-08
4.1865e-09
6.47738e-08
9.20167e-09
4.30163e-08
1.73491e-08
1.2765e-08
3.02455e-08
-2.94457e-08
4.90564e-08
-8.7951e-08
7.49358e-08
-1.67443e-07
1.09493e-07
-2.70821e-07
1.53761e-07
-3.96315e-07
2.06515e-07
-5.37741e-07
2.64006e-07
-6.86419e-07
3.21425e-07
-8.32745e-07
3.71305e-07
-9.6585e-07
4.06867e-07
-1.07885e-06
4.24393e-07
-1.17267e-06
4.24272e-07
-1.25165e-06
4.10451e-07
-1.32015e-06
3.87968e-07
-1.38219e-06
3.60967e-07
-1.44015e-06
3.32475e-07
-1.49542e-06
3.04224e-07
-1.54858e-06
2.77223e-07
-1.59989e-06
2.52215e-07
-1.64934e-06
2.29371e-07
-1.69679e-06
2.08777e-07
-1.74218e-06
1.90402e-07
-1.78544e-06
1.74137e-07
-1.8266e-06
1.59827e-07
-1.86571e-06
1.47292e-07
-1.90285e-06
1.36353e-07
-1.93817e-06
1.26831e-07
-1.97177e-06
1.18564e-07
-2.00382e-06
1.114e-07
-2.03444e-06
1.05204e-07
-2.06379e-06
9.98544e-08
-2.09199e-06
9.52436e-08
-2.11917e-06
9.12773e-08
-2.14546e-06
8.78698e-08
-2.17095e-06
8.49473e-08
-2.19574e-06
8.24425e-08
-2.21992e-06
8.02967e-08
-2.24357e-06
7.84575e-08
-2.26674e-06
7.68777e-08
-2.28949e-06
7.5517e-08
-2.31187e-06
7.43383e-08
-2.33391e-06
7.33112e-08
-2.35566e-06
7.24081e-08
-2.37714e-06
7.16072e-08
-2.39836e-06
7.08904e-08
-2.41934e-06
7.02445e-08
-2.44011e-06
6.96608e-08
-2.46067e-06
6.91347e-08
-2.48104e-06
6.86669e-08
-2.50124e-06
6.82615e-08
-2.52129e-06
6.79273e-08
-2.54121e-06
6.76759e-08
-2.56103e-06
6.75221e-08
-2.5808e-06
6.74821e-08
-2.60055e-06
6.75726e-08
-2.62034e-06
6.78097e-08
-2.64023e-06
6.8207e-08
-2.66027e-06
6.87744e-08
-2.68054e-06
6.95167e-08
-2.70109e-06
7.04325e-08
-2.722e-06
7.15129e-08
-2.74331e-06
7.27415e-08
-2.76507e-06
7.40944e-08
-2.78732e-06
7.55407e-08
-2.81008e-06
7.70443e-08
-2.83336e-06
7.8566e-08
-2.85715e-06
8.00663e-08
-2.88141e-06
8.15079e-08
-2.90611e-06
8.28588e-08
-2.9312e-06
8.4094e-08
-2.95662e-06
8.51982e-08
-2.98231e-06
8.61668e-08
-3.00822e-06
8.70072e-08
-3.0343e-06
8.7739e-08
-3.06051e-06
8.83921e-08
-3.08682e-06
8.90063e-08
-3.11325e-06
8.96269e-08
-3.13979e-06
9.03022e-08
-3.1665e-06
9.10789e-08
-3.19342e-06
9.19968e-08
-3.22062e-06
9.30834e-08
-3.24819e-06
9.43467e-08
-3.2762e-06
9.57681e-08
-3.30471e-06
9.72986e-08
-3.33378e-06
9.88534e-08
-3.36339e-06
1.00299e-07
-3.39349e-06
1.01457e-07
-3.42395e-06
1.02119e-07
-3.45454e-06
1.02047e-07
-3.48496e-06
1.00988e-07
-3.5148e-06
9.86901e-08
-3.54358e-06
9.49161e-08
-3.57073e-06
8.94569e-08
-3.59562e-06
8.21439e-08
-3.61759e-06
7.2857e-08
-3.63592e-06
6.15315e-08
-3.64994e-06
4.81598e-08
-3.65895e-06
3.27887e-08
-3.66229e-06
1.55085e-08
-3.65937e-06
-3.54625e-09
-3.64963e-06
-2.41841e-08
-3.6326e-06
-4.62082e-08
-3.60787e-06
-6.93961e-08
-3.57515e-06
-9.34603e-08
-3.5342e-06
-1.18072e-07
-3.48492e-06
-1.42862e-07
-3.42735e-06
-1.67421e-07
-3.36165e-06
-1.91303e-07
-3.28816e-06
-2.14056e-07
-3.20739e-06
-2.35205e-07
-3.12003e-06
-2.54259e-07
-3.02696e-06
-2.70766e-07
-2.92915e-06
-2.84441e-07
-2.82759e-06
-2.9516e-07
-2.72327e-06
-3.02973e-07
-2.61708e-06
-3.08121e-07
-2.5098e-06
-3.10854e-07
-2.40219e-06
-3.1135e-07
-2.29483e-06
-3.10068e-07
-2.18803e-06
-3.07695e-07
-2.08194e-06
-3.05028e-07
-1.97663e-06
-3.02965e-07
-1.87172e-06
-3.02254e-07
-1.76636e-06
-3.03762e-07
-1.65974e-06
-3.0824e-07
-1.55064e-06
-3.16678e-07
-1.43718e-06
-3.30559e-07
-1.31697e-06
-3.51151e-07
-1.18732e-06
-3.79499e-07
-1.04519e-06
-4.16754e-07
-8.87065e-07
-4.64128e-07
-7.09242e-07
-5.21373e-07
-5.08121e-07
-5.87734e-07
-2.80169e-07
-6.63804e-07
-2.25856e-08
-7.49971e-07
2.68864e-07
-8.42802e-07
5.97121e-07
-9.42318e-07
9.60163e-07
-1.05545e-06
1.35362e-06
-1.17121e-06
1.76632e-06
-1.26719e-06
2.18568e-06
-1.30715e-06
2.59514e-06
-1.29844e-06
2.98552e-06
-1.24229e-06
3.34919e-06
-1.16023e-06
3.67999e-06
-1.05376e-06
3.97179e-06
-9.40777e-07
4.22686e-06
-8.1966e-07
4.44553e-06
-7.09403e-07
4.63258e-06
-5.96055e-07
4.78667e-06
-4.98744e-07
4.914e-06
-3.93399e-07
5.01027e-06
-3.11059e-07
5.08484e-06
-2.09378e-07
5.12721e-06
-1.39113e-07
5.15282e-06
-2.46803e-08
5.13957e-06
5.11617e-08
5.12213e-06
2.27993e-07
3.75506e-07
5.07447e-06
7.23662e-10
6.0631e-09
4.15941e-09
1.19009e-08
1.17657e-08
9.7037e-09
2.56693e-08
-1.44606e-09
4.57653e-08
-1.79608e-08
6.93546e-08
-3.46101e-08
9.29691e-08
-4.76527e-08
1.13529e-07
-5.51798e-08
1.29e-07
-5.69107e-08
1.38632e-07
-5.37817e-08
1.42641e-07
-4.71539e-08
1.41756e-07
-3.84205e-08
1.36817e-07
-2.87112e-08
1.28541e-07
-1.8807e-08
1.17535e-07
-9.30732e-09
1.04298e-07
-6.53633e-10
8.91381e-08
6.94936e-09
7.1865e-08
1.37946e-08
5.14209e-08
2.08775e-08
2.58514e-08
2.97524e-08
-7.18807e-09
4.22378e-08
-5.00695e-08
6.02272e-08
-1.05314e-07
8.54864e-08
-1.75619e-07
1.19359e-07
-2.63323e-07
1.62636e-07
-3.68804e-07
2.14971e-07
-4.88852e-07
2.73807e-07
-6.16989e-07
3.34649e-07
-7.45973e-07
3.92988e-07
-8.66554e-07
4.42004e-07
-9.70862e-07
4.75612e-07
-1.05514e-06
4.91141e-07
-1.12074e-06
4.89993e-07
-1.17264e-06
4.76175e-07
-1.21645e-06
4.54256e-07
-1.25662e-06
4.28139e-07
-1.29605e-06
4.00392e-07
-1.33578e-06
3.72206e-07
-1.37607e-06
3.44512e-07
-1.41684e-06
3.17993e-07
-1.45775e-06
2.9312e-07
-1.49838e-06
2.70002e-07
-1.53835e-06
2.48747e-07
-1.57735e-06
2.29402e-07
-1.61516e-06
2.1194e-07
-1.65161e-06
1.96281e-07
-1.68664e-06
1.82316e-07
-1.7202e-06
1.69918e-07
-1.75233e-06
1.58955e-07
-1.78306e-06
1.49294e-07
-1.81247e-06
1.40807e-07
-1.84064e-06
1.33373e-07
-1.86766e-06
1.26879e-07
-1.89364e-06
1.21221e-07
-1.91867e-06
1.16303e-07
-1.94283e-06
1.12037e-07
-1.96623e-06
1.08344e-07
-1.98894e-06
1.05151e-07
-2.01104e-06
1.0239e-07
-2.03258e-06
1.00001e-07
-2.05363e-06
9.793e-08
-2.07425e-06
9.61277e-08
-2.09446e-06
9.45498e-08
-2.11431e-06
9.3158e-08
-2.13382e-06
9.19186e-08
-2.15302e-06
9.08035e-08
-2.17192e-06
8.97898e-08
-2.19053e-06
8.88606e-08
-2.20888e-06
8.80047e-08
-2.22696e-06
8.72169e-08
-2.2448e-06
8.64982e-08
-2.26239e-06
8.58554e-08
-2.27977e-06
8.53012e-08
-2.29695e-06
8.4853e-08
-2.31396e-06
8.45323e-08
-2.33084e-06
8.43634e-08
-2.34765e-06
8.43712e-08
-2.36442e-06
8.458e-08
-2.38123e-06
8.5011e-08
-2.39814e-06
8.56802e-08
-2.41522e-06
8.65964e-08
-2.43255e-06
8.77591e-08
-2.4502e-06
8.91575e-08
-2.46823e-06
9.07695e-08
-2.4867e-06
9.25618e-08
-2.50566e-06
9.44906e-08
-2.52513e-06
9.65044e-08
-2.54512e-06
9.8546e-08
-2.56562e-06
1.00557e-07
-2.58661e-06
1.02483e-07
-2.60803e-06
1.04276e-07
-2.62984e-06
1.05897e-07
-2.65197e-06
1.07324e-07
-2.67436e-06
1.08548e-07
-2.69694e-06
1.09581e-07
-2.71966e-06
1.1045e-07
-2.74247e-06
1.11198e-07
-2.76535e-06
1.11883e-07
-2.7883e-06
1.12573e-07
-2.81135e-06
1.13338e-07
-2.83453e-06
1.14253e-07
-2.85793e-06
1.15381e-07
-2.88163e-06
1.16771e-07
-2.90575e-06
1.18451e-07
-2.93041e-06
1.20411e-07
-2.95572e-06
1.22595e-07
-2.98176e-06
1.24883e-07
-3.00858e-06
1.271e-07
-3.03615e-06
1.29012e-07
-3.06438e-06
1.30331e-07
-3.09308e-06
1.30725e-07
-3.12194e-06
1.29836e-07
-3.15057e-06
1.27302e-07
-3.17845e-06
1.22786e-07
-3.205e-06