/*--------------------------------*- C++ -*----------------------------------*\
| =========                 |                                                 |
| \\      /  F ield         | OpenFOAM: The Open Source CFD Toolbox           |
|  \\    /   O peration     | Version:  2.4.0                                 |
|   \\  /    A nd           | Web:      www.OpenFOAM.org                      |
|    \\/     M anipulation  |                                                 |
\*---------------------------------------------------------------------------*/
FoamFile
{
    version     2.0;
    format      ascii;
    class       surfaceScalarField;
    location    "1.74";
    object      phi;
}
// * * * * * * * * * * * * * * * * * * * * * * * * * * * * * * * * * * * * * //

dimensions      [0 3 -1 0 0 0 0];

internalField   nonuniform List<scalar> 
11830
(
2.94679e-06
5.32099e-08
2.8769e-06
6.98929e-08
2.80965e-06
6.72439e-08
2.74328e-06
6.63695e-08
2.67869e-06
6.45922e-08
2.61757e-06
6.1121e-08
2.56084e-06
5.67299e-08
2.5088e-06
5.20451e-08
2.46148e-06
4.73188e-08
2.41878e-06
4.26992e-08
2.38047e-06
3.83088e-08
2.34624e-06
3.42322e-08
2.31572e-06
3.05146e-08
2.28855e-06
2.71725e-08
2.26435e-06
2.42029e-08
2.24276e-06
2.15905e-08
2.22344e-06
1.93128e-08
2.2061e-06
1.7343e-08
2.19045e-06
1.56529e-08
2.17623e-06
1.42135e-08
2.16324e-06
1.29968e-08
2.15126e-06
1.19753e-08
2.14014e-06
1.11234e-08
2.12972e-06
1.04168e-08
2.11989e-06
9.83359e-09
2.11053e-06
9.35396e-09
2.10157e-06
8.9599e-09
2.09294e-06
8.63612e-09
2.08457e-06
8.36994e-09
2.07642e-06
8.15127e-09
2.06844e-06
7.97275e-09
2.06061e-06
7.82965e-09
2.05289e-06
7.71992e-09
2.04525e-06
7.64418e-09
2.03764e-06
7.60585e-09
2.03003e-06
7.61127e-09
2.02236e-06
7.67006e-09
2.01457e-06
7.79555e-09
2.00656e-06
8.00542e-09
1.99824e-06
8.32265e-09
1.98946e-06
8.77679e-09
1.98006e-06
9.40557e-09
1.9698e-06
1.02572e-08
1.95841e-06
1.13931e-08
1.94551e-06
1.28922e-08
1.93066e-06
1.48555e-08
1.91325e-06
1.74134e-08
1.89251e-06
2.07345e-08
1.86747e-06
2.50378e-08
1.83686e-06
3.06095e-08
1.79904e-06
3.78249e-08
1.75186e-06
4.71778e-08
1.69255e-06
5.93156e-08
1.61746e-06
7.50835e-08
1.52197e-06
9.54922e-08
1.4001e-06
1.21868e-07
1.24565e-06
1.54454e-07
1.05003e-06
1.9562e-07
8.07208e-07
2.4282e-07
2.36645e-07
5.70563e-07
3.02862e-06
2.45862e-08
3.05191e-06
4.66057e-08
3.06774e-06
5.14104e-08
3.07746e-06
5.66559e-08
3.08094e-06
6.11138e-08
3.07874e-06
6.33212e-08
3.07162e-06
6.38417e-08
3.06034e-06
6.3328e-08
3.0456e-06
6.20613e-08
3.02807e-06
6.02265e-08
3.00837e-06
5.80108e-08
2.98703e-06
5.5575e-08
2.9645e-06
5.30398e-08
2.94118e-06
5.04904e-08
2.9174e-06
4.79849e-08
2.89343e-06
4.55609e-08
2.8695e-06
4.32405e-08
2.84581e-06
4.10354e-08
2.82251e-06
3.89497e-08
2.79974e-06
3.69833e-08
2.77761e-06
3.51336e-08
2.75619e-06
3.33967e-08
2.73554e-06
3.17681e-08
2.71571e-06
3.02439e-08
2.69673e-06
2.88205e-08
2.67859e-06
2.74952e-08
2.66128e-06
2.62647e-08
2.64479e-06
2.51266e-08
2.62908e-06
2.40787e-08
2.61411e-06
2.31196e-08
2.59984e-06
2.22485e-08
2.5862e-06
2.14657e-08
2.57315e-06
2.07728e-08
2.56062e-06
2.01736e-08
2.54855e-06
1.96742e-08
2.53688e-06
1.92839e-08
2.52553e-06
1.90163e-08
2.51444e-06
1.88904e-08
2.50351e-06
1.89318e-08
2.49266e-06
1.91745e-08
2.48177e-06
1.96635e-08
2.47072e-06
2.04572e-08
2.45935e-06
2.16317e-08
2.44745e-06
2.32855e-08
2.4348e-06
2.55463e-08
2.42108e-06
2.85798e-08
2.40589e-06
3.26018e-08
2.38873e-06
3.78943e-08
2.36894e-06
4.48285e-08
2.34565e-06
5.38963e-08
2.31772e-06
6.57568e-08
2.2836e-06
8.12982e-08
2.24117e-06
1.01742e-07
2.18752e-06
1.28737e-07
2.11837e-06
1.64642e-07
2.02793e-06
2.12308e-07
1.906e-06
2.76384e-07
1.74447e-06
3.57144e-07
1.50783e-06
4.79468e-07
5.17199e-07
1.22727e-06
3.00532e-06
1.92658e-08
3.01285e-06
3.90794e-08
3.01981e-06
4.44436e-08
3.02758e-06
4.88871e-08
3.03534e-06
5.33531e-08
3.0425e-06
5.61649e-08
3.04882e-06
5.75192e-08
3.05413e-06
5.80212e-08
3.05826e-06
5.79252e-08
3.06115e-06
5.73394e-08
3.06277e-06
5.63931e-08
3.06313e-06
5.52133e-08
3.06227e-06
5.39e-08
3.06024e-06
5.25257e-08
3.05708e-06
5.11424e-08
3.05285e-06
4.97853e-08
3.04762e-06
4.84764e-08
3.04143e-06
4.72275e-08
3.03433e-06
4.60429e-08
3.02639e-06
4.49215e-08
3.01767e-06
4.3859e-08
3.00822e-06
4.28487e-08
2.9981e-06
4.18829e-08
2.98739e-06
4.09541e-08
2.97616e-06
4.00556e-08
2.96447e-06
3.91818e-08
2.95241e-06
3.83281e-08
2.94004e-06
3.7492e-08
2.92745e-06
3.66729e-08
2.91469e-06
3.58726e-08
2.90185e-06
3.50956e-08
2.88896e-06
3.4349e-08
2.87609e-06
3.36433e-08
2.86327e-06
3.29924e-08
2.85053e-06
3.24141e-08
2.83789e-06
3.19312e-08
2.82533e-06
3.15721e-08
2.81285e-06
3.13722e-08
2.80041e-06
3.13758e-08
2.78794e-06
3.16382e-08
2.77538e-06
3.22287e-08
2.7626e-06
3.32349e-08
2.74946e-06
3.47675e-08
2.73578e-06
3.69675e-08
2.72131e-06
4.00153e-08
2.70575e-06
4.41426e-08
2.6887e-06
4.96483e-08
2.66968e-06
5.69201e-08
2.64804e-06
6.64643e-08
2.62299e-06
7.89459e-08
2.5935e-06
9.52473e-08
2.55826e-06
1.16545e-07
2.51555e-06
1.44445e-07
2.4632e-06
1.81084e-07
2.39824e-06
2.29605e-07
2.31697e-06
2.93576e-07
2.21272e-06
3.80639e-07
2.08016e-06
4.89704e-07
1.89304e-06
6.66592e-07
7.57993e-07
1.65224e-06
3.00342e-06
1.5846e-08
3.00771e-06
3.47898e-08
3.01095e-06
4.12032e-08
3.01456e-06
4.52804e-08
3.01853e-06
4.93835e-08
3.0226e-06
5.20915e-08
3.02675e-06
5.33725e-08
3.03092e-06
5.38439e-08
3.03504e-06
5.38101e-08
3.03901e-06
5.33722e-08
3.04276e-06
5.26359e-08
3.04626e-06
5.17143e-08
3.04947e-06
5.06968e-08
3.05234e-06
4.96463e-08
3.05488e-06
4.86065e-08
3.05706e-06
4.76069e-08
3.05887e-06
4.6666e-08
3.0603e-06
4.57934e-08
3.06135e-06
4.49925e-08
3.06201e-06
4.4262e-08
3.06227e-06
4.35979e-08
3.06213e-06
4.29942e-08
3.06157e-06
4.24438e-08
3.06058e-06
4.194e-08
3.05916e-06
4.14761e-08
3.0573e-06
4.10467e-08
3.05498e-06
4.06469e-08
3.0522e-06
4.02732e-08
3.04895e-06
3.99241e-08
3.04522e-06
3.96002e-08
3.04101e-06
3.93042e-08
3.03632e-06
3.90419e-08
3.03114e-06
3.88224e-08
3.02547e-06
3.86591e-08
3.01931e-06
3.85699e-08
3.01267e-06
3.85791e-08
3.00552e-06
3.87184e-08
2.99786e-06
3.90288e-08
2.98968e-06
3.9563e-08
2.98093e-06
4.03884e-08
2.97156e-06
4.15914e-08
2.96152e-06
4.32818e-08
2.95068e-06
4.56003e-08
2.93892e-06
4.87267e-08
2.92605e-06
5.28912e-08
2.9118e-06
5.83896e-08
2.89585e-06
6.56028e-08
2.87774e-06
7.50232e-08
2.85692e-06
8.72907e-08
2.83262e-06
1.03241e-07
2.8039e-06
1.23974e-07
2.7695e-06
1.50942e-07
2.72784e-06
1.86105e-07
2.6769e-06
2.32022e-07
2.61408e-06
2.9243e-07
2.53631e-06
3.71338e-07
2.43895e-06
4.77998e-07
2.31869e-06
6.09973e-07
2.16229e-06
8.22992e-07
9.58004e-07
1.96227e-06
3.00258e-06
1.32661e-08
3.00624e-06
3.11331e-08
3.00912e-06
3.83159e-08
3.01204e-06
4.2368e-08
3.01515e-06
4.62694e-08
3.01826e-06
4.89867e-08
3.02133e-06
5.02964e-08
3.02441e-06
5.07623e-08
3.02749e-06
5.07332e-08
3.03054e-06
5.03229e-08
3.03355e-06
4.96282e-08
3.0365e-06
4.87589e-08
3.03939e-06
4.78047e-08
3.04221e-06
4.68275e-08
3.04495e-06
4.58694e-08
3.0476e-06
4.49587e-08
3.05015e-06
4.41131e-08
3.0526e-06
4.33417e-08
3.05495e-06
4.26474e-08
3.05718e-06
4.20291e-08
3.0593e-06
4.14827e-08
3.06129e-06
4.10025e-08
3.06315e-06
4.0582e-08
3.06487e-06
4.0215e-08
3.06646e-06
3.98959e-08
3.06788e-06
3.96198e-08
3.06915e-06
3.9383e-08
3.07024e-06
3.91835e-08
3.07114e-06
3.90211e-08
3.07184e-06
3.88978e-08
3.07233e-06
3.88183e-08
3.07258e-06
3.87904e-08
3.07257e-06
3.88259e-08
3.07229e-06
3.89408e-08
3.07171e-06
3.91569e-08
3.07078e-06
3.9503e-08
3.06948e-06
4.00164e-08
3.06777e-06
4.07453e-08
3.06558e-06
4.17516e-08
3.06285e-06
4.31147e-08
3.05951e-06
4.49361e-08
3.05544e-06
4.73457e-08
3.05053e-06
5.05096e-08
3.04462e-06
5.46409e-08
3.0375e-06
6.00129e-08
3.02891e-06
6.69773e-08
3.01853e-06
7.5987e-08
3.00592e-06
8.76282e-08
2.99055e-06
1.02662e-07
2.97171e-06
1.22078e-07
2.94851e-06
1.47181e-07
2.91977e-06
1.79678e-07
2.88402e-06
2.21861e-07
2.83934e-06
2.76695e-07
2.78332e-06
3.48456e-07
2.71303e-06
4.41626e-07
2.62452e-06
5.66504e-07
2.51468e-06
7.19818e-07
2.37727e-06
9.60398e-07
1.12803e-06
2.20725e-06
3.00198e-06
1.12875e-08
3.00526e-06
2.78521e-08
3.00808e-06
3.54906e-08
3.01084e-06
3.96176e-08
3.01376e-06
4.33429e-08
3.01668e-06
4.60644e-08
3.01954e-06
4.74444e-08
3.02234e-06
4.79544e-08
3.02511e-06
4.79677e-08
3.02782e-06
4.76128e-08
3.03047e-06
4.69773e-08
3.03306e-06
4.61647e-08
3.03561e-06
4.52639e-08
3.0381e-06
4.43368e-08
3.04054e-06
4.34252e-08
3.04294e-06
4.25577e-08
3.0453e-06
4.17525e-08
3.04762e-06
4.10195e-08
3.04991e-06
4.03625e-08
3.05216e-06
3.97809e-08
3.05437e-06
3.92716e-08
3.05654e-06
3.88296e-08
3.05867e-06
3.84492e-08
3.06076e-06
3.81249e-08
3.06281e-06
3.78517e-08
3.0648e-06
3.76255e-08
3.06674e-06
3.74436e-08
3.06862e-06
3.73046e-08
3.07043e-06
3.72094e-08
3.07217e-06
3.71614e-08
3.07382e-06
3.71665e-08
3.07538e-06
3.72344e-08
3.07682e-06
3.73788e-08
3.07815e-06
3.76185e-08
3.07932e-06
3.79786e-08
3.08034e-06
3.84919e-08
3.08115e-06
3.92009e-08
3.08174e-06
4.01606e-08
3.08205e-06
4.14411e-08
3.08203e-06
4.31326e-08
3.08161e-06
4.53503e-08
3.08072e-06
4.82416e-08
3.07923e-06
5.1995e-08
3.07702e-06
5.68526e-08
3.07391e-06
6.31248e-08
3.06968e-06
7.1211e-08
3.06404e-06
8.16264e-08
3.05663e-06
9.50369e-08
3.04698e-06
1.12307e-07
3.0345e-06
1.34564e-07
3.01839e-06
1.63286e-07
2.99766e-06
2.00412e-07
2.97098e-06
2.48535e-07
2.93667e-06
3.11005e-07
2.89251e-06
3.92616e-07
2.83574e-06
4.98398e-07
2.76268e-06
6.39564e-07
2.66971e-06
8.12789e-07
2.55289e-06
1.07721e-06
1.27286e-06
2.40807e-06
3.00156e-06
9.72687e-09
3.00449e-06
2.49214e-08
3.00722e-06
3.27657e-08
3.00985e-06
3.69818e-08
3.01266e-06
4.05328e-08
3.01551e-06
4.32135e-08
3.01831e-06
4.46493e-08
3.02105e-06
4.52081e-08
3.02375e-06
4.52688e-08
3.02639e-06
4.49762e-08
3.02896e-06
4.44104e-08
3.03145e-06
4.36664e-08
3.03389e-06
4.28302e-08
3.03626e-06
4.19629e-08
3.03858e-06
4.11054e-08
3.04085e-06
4.02857e-08
3.04308e-06
3.95222e-08
3.04528e-06
3.88254e-08
3.04744e-06
3.81997e-08
3.04958e-06
3.76456e-08
3.05169e-06
3.71607e-08
3.05378e-06
3.67409e-08
3.05584e-06
3.63816e-08
3.05789e-06
3.60779e-08
3.05992e-06
3.58258e-08
3.06192e-06
3.56221e-08
3.0639e-06
3.54647e-08
3.06585e-06
3.53536e-08
3.06777e-06
3.52903e-08
3.06965e-06
3.52795e-08
3.07149e-06
3.53286e-08
3.07327e-06
3.54485e-08
3.075e-06
3.56552e-08
3.07665e-06
3.59696e-08
3.07821e-06
3.64197e-08
3.07966e-06
3.7042e-08
3.08097e-06
3.78838e-08
3.08213e-06
3.90055e-08
3.08308e-06
4.04849e-08
3.0838e-06
4.24212e-08
3.0842e-06
4.49416e-08
3.08424e-06
4.82082e-08
3.0838e-06
5.24287e-08
3.08279e-06
5.78691e-08
3.08104e-06
6.48702e-08
3.07838e-06
7.387e-08
3.07458e-06
8.54323e-08
3.06933e-06
1.00285e-07
3.06227e-06
1.1937e-07
3.05292e-06
1.43914e-07
3.04069e-06
1.75518e-07
3.02482e-06
2.16281e-07
3.00435e-06
2.69001e-07
2.97806e-06
3.37292e-07
2.94435e-06
4.26327e-07
2.90114e-06
5.41605e-07
2.84559e-06
6.95122e-07
2.77409e-06
8.84285e-07
2.68387e-06
1.16744e-06
1.39184e-06
2.56488e-06
3.00126e-06
8.46463e-09
3.00387e-06
2.23159e-08
3.00647e-06
3.01585e-08
3.00902e-06
3.4438e-08
3.01173e-06
3.78228e-08
3.01452e-06
4.0427e-08
3.01727e-06
4.18958e-08
3.01998e-06
4.2498e-08
3.02265e-06
4.2601e-08
3.02526e-06
4.2365e-08
3.0278e-06
4.1866e-08
3.03028e-06
4.11902e-08
3.03269e-06
4.042e-08
3.03504e-06
3.96152e-08
3.03733e-06
3.88153e-08
3.03957e-06
3.80475e-08
3.04176e-06
3.733e-08
3.04391e-06
3.66735e-08
3.04603e-06
3.6083e-08
3.04811e-06
3.55594e-08
3.05017e-06
3.51011e-08
3.05221e-06
3.47047e-08
3.05422e-06
3.43663e-08
3.05622e-06
3.4082e-08
3.0582e-06
3.38485e-08
3.06015e-06
3.36634e-08
3.06209e-06
3.35256e-08
3.06401e-06
3.34356e-08
3.06591e-06
3.33965e-08
3.06777e-06
3.34137e-08
3.0696e-06
3.34959e-08
3.0714e-06
3.36558e-08
3.07314e-06
3.39109e-08
3.07483e-06
3.42847e-08
3.07644e-06
3.48079e-08
3.07796e-06
3.55204e-08
3.07937e-06
3.64738e-08
3.08064e-06
3.77341e-08
3.08174e-06
3.93861e-08
3.08262e-06
4.15378e-08
3.08324e-06
4.43272e-08
3.08352e-06
4.79306e-08
3.08337e-06
5.25731e-08
3.0827e-06
5.85428e-08
3.08136e-06
6.62084e-08
3.07919e-06
7.60424e-08
3.07597e-06
8.86517e-08
3.07143e-06
1.04817e-07
3.06526e-06
1.25545e-07
3.05703e-06
1.5214e-07
3.04626e-06
1.86295e-07
3.03233e-06
2.30211e-07
3.01452e-06
2.86805e-07
2.99201e-06
3.5981e-07
2.96379e-06
4.54538e-07
2.92875e-06
5.7665e-07
2.88551e-06
7.38365e-07
2.83169e-06
9.38103e-07
2.76752e-06
1.23161e-06
1.48481e-06
2.67455e-06
3.00104e-06
7.42183e-09
3.00336e-06
1.9998e-08
3.00584e-06
2.76744e-08
3.00831e-06
3.19734e-08
3.01093e-06
3.52026e-08
3.01365e-06
3.77056e-08
3.01636e-06
3.91839e-08
3.01904e-06
3.98211e-08
3.02168e-06
3.996e-08
3.02427e-06
3.97729e-08
3.0268e-06
3.9335e-08
3.02927e-06
3.87237e-08
3.03167e-06
3.80171e-08
3.03402e-06
3.72732e-08
3.0363e-06
3.65305e-08
3.03853e-06
3.5815e-08
3.04072e-06
3.51446e-08
3.04286e-06
3.453e-08
3.04497e-06
3.39764e-08
3.04704e-06
3.34853e-08
3.04909e-06
3.30556e-08
3.05111e-06
3.26846e-08
3.0531e-06
3.23691e-08
3.05508e-06
3.21059e-08
3.05704e-06
3.18923e-08
3.05897e-06
3.17268e-08
3.06089e-06
3.16089e-08
3.06279e-06
3.15402e-08
3.06466e-06
3.15246e-08
3.0665e-06
3.15685e-08
3.06832e-06
3.1682e-08
3.07009e-06
3.18792e-08
3.07183e-06
3.21794e-08
3.0735e-06
3.26081e-08
3.07511e-06
3.31989e-08
3.07664e-06
3.39949e-08
3.07806e-06
3.50519e-08
3.07935e-06
3.64414e-08
3.08048e-06
3.82545e-08
3.08141e-06
4.06077e-08
3.08209e-06
4.36496e-08
3.08245e-06
4.75698e-08
3.08241e-06
5.26102e-08
3.08188e-06
5.90797e-08
3.08071e-06
6.73734e-08
3.07876e-06
7.79964e-08
3.07581e-06
9.15959e-08
3.07163e-06
1.09002e-07
3.06589e-06
1.31281e-07
3.05823e-06
1.59806e-07
3.04817e-06
1.9635e-07
3.03518e-06
2.43199e-07
3.01864e-06
3.03348e-07
2.99786e-06
3.80586e-07
2.97218e-06
4.80218e-07
2.94098e-06
6.07856e-07
2.90407e-06
7.75272e-07
2.86035e-06
9.81824e-07
2.81429e-06
1.27767e-06
1.55554e-06
2.74356e-06
3.00088e-06
6.54325e-09
3.00295e-06
1.79273e-08
3.00531e-06
2.53152e-08
3.0077e-06
2.9582e-08
3.01024e-06
3.26628e-08
3.0129e-06
3.50478e-08
3.01557e-06
3.65127e-08
3.01821e-06
3.7175e-08
3.02083e-06
3.73438e-08
3.0234e-06
3.71988e-08
3.02592e-06
3.6816e-08
3.02838e-06
3.62653e-08
3.03078e-06
3.56193e-08
3.03312e-06
3.49342e-08
3.0354e-06
3.42471e-08
3.03763e-06
3.35831e-08
3.03982e-06
3.29594e-08
3.04196e-06
3.23867e-08
3.04407e-06
3.18704e-08
3.04614e-06
3.14124e-08
3.04819e-06
3.10121e-08
3.0502e-06
3.06673e-08
3.0522e-06
3.03756e-08
3.05417e-06
3.01343e-08
3.05612e-06
2.99415e-08
3.05805e-06
2.97963e-08
3.05996e-06
2.9699e-08
3.06185e-06
2.96521e-08
3.06371e-06
2.96602e-08
3.06555e-06
2.97308e-08
3.06736e-06
2.98753e-08
3.06913e-06
3.0109e-08
3.07085e-06
3.04529e-08
3.07253e-06
3.09348e-08
3.07413e-06
3.15905e-08
3.07566e-06
3.24666e-08
3.07709e-06
3.36227e-08
3.0784e-06
3.51354e-08
3.07955e-06
3.71021e-08
3.08051e-06
3.96474e-08
3.08123e-06
4.29297e-08
3.08165e-06
4.71515e-08
3.08169e-06
5.25704e-08
3.08125e-06
5.95154e-08
3.08022e-06
6.84064e-08
3.07844e-06
7.97793e-08
3.07571e-06
9.43195e-08
3.07181e-06
1.12903e-07
3.06644e-06
1.36653e-07
3.05924e-06
1.67005e-07
3.04979e-06
2.05806e-07
3.03757e-06
2.55417e-07
3.02202e-06
3.18899e-07
3.00252e-06
4.0008e-07
2.97853e-06
5.04208e-07
2.94959e-06
6.36803e-07
2.91605e-06
8.08809e-07
2.87733e-06
1.02054e-06
2.84073e-06
1.31426e-06
1.60998e-06
2.78629e-06
3.00075e-06
5.78931e-09
3.00261e-06
1.60665e-08
3.00485e-06
2.30786e-08
3.00717e-06
2.72603e-08
3.00964e-06
3.01947e-08
3.01224e-06
3.245e-08
3.01487e-06
3.38814e-08
3.01749e-06
3.45579e-08
3.02008e-06
3.47508e-08
3.02264e-06
3.46417e-08
3.02515e-06
3.43086e-08
3.0276e-06
3.38143e-08
3.02999e-06
3.32261e-08
3.03233e-06
3.25975e-08
3.03461e-06
3.19645e-08
3.03684e-06
3.1351e-08
3.03903e-06
3.07734e-08
3.04117e-06
3.02423e-08
3.04328e-06
2.97632e-08
3.04535e-06
2.93384e-08
3.0474e-06
2.89677e-08
3.04941e-06
2.86495e-08
3.05141e-06
2.83818e-08
3.05338e-06
2.81628e-08
3.05533e-06
2.79911e-08
3.05726e-06
2.78664e-08
3.05917e-06
2.77899e-08
3.06106e-06
2.77647e-08
3.06292e-06
2.77963e-08
3.06476e-06
2.78934e-08
3.06656e-06
2.80682e-08
3.06834e-06
2.83375e-08
3.07007e-06
2.8724e-08
3.07174e-06
2.92571e-08
3.07336e-06
2.99754e-08
3.0749e-06
3.09283e-08
3.07634e-06
3.21794e-08
3.07767e-06
3.38098e-08
3.07884e-06
3.59232e-08
3.07984e-06
3.86514e-08
3.08061e-06
4.21626e-08
3.08109e-06
4.66711e-08
3.08121e-06
5.24496e-08
3.08088e-06
5.9846e-08
3.07998e-06
6.93033e-08
3.07837e-06
8.13868e-08
3.07588e-06
9.68173e-08
3.07226e-06
1.16514e-07
3.06727e-06
1.41652e-07
3.06054e-06
1.73726e-07
3.0517e-06
2.1465e-07
3.04026e-06
2.66852e-07
3.02571e-06
3.33449e-07
3.00749e-06
4.18303e-07
2.98512e-06
5.26584e-07
2.95818e-06
6.6374e-07
2.92721e-06
8.39777e-07
2.89174e-06
1.05602e-06
2.85957e-06
1.34643e-06
1.65335e-06
2.8162e-06
3.00066e-06
5.13133e-09
3.00234e-06
1.43826e-08
3.00446e-06
2.09594e-08
3.00672e-06
2.50054e-08
3.00912e-06
2.77902e-08
3.01166e-06
2.99085e-08
3.01425e-06
3.12885e-08
3.01684e-06
3.19679e-08
3.01942e-06
3.21792e-08
3.02196e-06
3.21006e-08
3.02445e-06
3.18119e-08
3.0269e-06
3.13703e-08
3.02929e-06
3.0837e-08
3.03162e-06
3.0263e-08
3.0339e-06
2.96826e-08
3.03614e-06
2.91185e-08
3.03832e-06
2.85864e-08
3.04047e-06
2.80965e-08
3.04258e-06
2.76545e-08
3.04465e-06
2.72629e-08
3.0467e-06
2.69218e-08
3.04872e-06
2.66303e-08
3.05071e-06
2.63869e-08
3.05269e-06
2.61902e-08
3.05464e-06
2.60396e-08
3.05657e-06
2.59354e-08
3.05848e-06
2.58796e-08
3.06037e-06
2.58759e-08
3.06223e-06
2.59307e-08
3.06407e-06
2.60536e-08
3.06588e-06
2.62579e-08
3.06766e-06
2.65616e-08
3.06939e-06
2.6989e-08
3.07108e-06
2.75713e-08
3.07271e-06
2.83495e-08
3.07426e-06
2.93757e-08
3.07572e-06
3.07172e-08
3.07707e-06
3.24595e-08
3.07828e-06
3.4712e-08
3.07932e-06
3.76136e-08
3.08014e-06
4.13415e-08
3.08069e-06
4.61211e-08
3.0809e-06
5.22393e-08
3.08069e-06
6.00616e-08
3.07994e-06
7.00529e-08
3.07852e-06
8.28056e-08
3.07626e-06
9.90736e-08
3.07296e-06
1.19817e-07
3.06835e-06
1.46256e-07
3.06214e-06
1.79944e-07
3.05394e-06
2.22851e-07
3.04332e-06
2.77468e-07
3.02981e-06
3.46957e-07
3.01291e-06
4.35207e-07
2.99219e-06
5.47297e-07
2.96732e-06
6.88618e-07
2.93883e-06
8.68261e-07
2.9064e-06
1.08845e-06
2.87692e-06
1.3759e-06
1.68902e-06
2.84126e-06
3.00058e-06
4.54822e-09
3.00212e-06
1.28475e-08
3.00413e-06
1.89498e-08
3.00632e-06
2.28145e-08
3.00867e-06
2.54429e-08
3.01116e-06
2.74186e-08
3.01371e-06
2.87325e-08
3.01628e-06
2.94037e-08
3.01883e-06
2.96274e-08
3.02135e-06
2.95743e-08
3.02384e-06
2.93253e-08
3.02628e-06
2.89328e-08
3.02866e-06
2.84519e-08
3.031e-06
2.79304e-08
3.03328e-06
2.74011e-08
3.03551e-06
2.68855e-08
3.0377e-06
2.63982e-08
3.03985e-06
2.59493e-08
3.04196e-06
2.55443e-08
3.04403e-06
2.51858e-08
3.04608e-06
2.48744e-08
3.0481e-06
2.46096e-08
3.0501e-06
2.43905e-08
3.05207e-06
2.42162e-08
3.05402e-06
2.40867e-08
3.05596e-06
2.40029e-08
3.05787e-06
2.39675e-08
3.05976e-06
2.3985e-08
3.06163e-06
2.40625e-08
3.06347e-06
2.42104e-08
3.06529e-06
2.44431e-08
3.06707e-06
2.478e-08
3.06881e-06
2.52464e-08
3.07051e-06
2.58757e-08
3.07215e-06
2.67107e-08
3.07371e-06
2.78064e-08
3.0752e-06
2.92334e-08
3.07658e-06
3.10814e-08
3.07782e-06
3.3465e-08
3.07891e-06
3.65298e-08
3.07979e-06
4.04614e-08
3.08041e-06
4.54956e-08
3.08072e-06
5.19325e-08
3.08063e-06
6.01538e-08
3.08004e-06
7.0645e-08
3.07882e-06
8.40234e-08
3.07682e-06
1.01074e-07
3.07384e-06
1.22792e-07
3.06965e-06
1.50445e-07
3.06397e-06
1.85632e-07
3.05644e-06
2.30379e-07
3.04667e-06
2.87231e-07
3.03425e-06
3.59386e-07
3.0187e-06
4.50752e-07
2.99968e-06
5.66314e-07
2.97691e-06
7.11395e-07
2.95091e-06
8.94257e-07
2.92158e-06
1.11778e-06
2.89458e-06
1.4029e-06
1.7189e-06
2.8647e-06
3.00052e-06
4.02422e-09
3.00193e-06
1.1437e-08
3.00384e-06
1.70407e-08
3.00597e-06
2.06846e-08
3.00827e-06
2.31469e-08
3.01071e-06
2.49759e-08
3.01323e-06
2.62114e-08
3.01577e-06
2.68636e-08
3.01831e-06
2.7094e-08
3.02082e-06
2.70619e-08
3.0233e-06
2.68482e-08
3.02573e-06
2.65013e-08
3.02811e-06
2.60703e-08
3.03044e-06
2.55996e-08
3.03272e-06
2.51201e-08
3.03495e-06
2.46519e-08
3.03714e-06
2.4209e-08
3.03929e-06
2.38006e-08
3.0414e-06
2.34323e-08
3.04348e-06
2.3107e-08
3.04553e-06
2.28253e-08
3.04755e-06
2.25873e-08
3.04955e-06
2.23925e-08
3.05153e-06
2.22406e-08
3.05348e-06
2.21321e-08
3.05542e-06
2.20686e-08
3.05733e-06
2.20534e-08
3.05922e-06
2.20916e-08
3.0611e-06
2.21911e-08
3.06294e-06
2.23633e-08
3.06476e-06
2.26234e-08
3.06655e-06
2.29918e-08
3.0683e-06
2.34955e-08
3.07001e-06
2.41692e-08
3.07166e-06
2.50578e-08
3.07325e-06
2.6219e-08
3.07476e-06
2.77262e-08
3.07616e-06
2.96733e-08
3.07745e-06
3.21796e-08
3.07858e-06
3.5397e-08
3.07953e-06
3.95186e-08
3.08023e-06
4.47901e-08
3.08064e-06
5.15236e-08
3.08068e-06
6.01159e-08
3.08025e-06
7.10713e-08
3.07924e-06
8.503e-08
3.07751e-06
1.02805e-07
3.07488e-06
1.25426e-07
3.07113e-06
1.54199e-07
3.06599e-06
1.90768e-07
3.05916e-06
2.37209e-07
3.05028e-06
2.96111e-07
3.03896e-06
3.70705e-07
3.0248e-06
4.64909e-07
3.0075e-06
5.83616e-07
2.98683e-06
7.32063e-07
2.96331e-06
9.17786e-07
2.93703e-06
1.14405e-06
2.91262e-06
1.42732e-06
1.74413e-06
2.88738e-06
3.00048e-06
3.54738e-09
3.00178e-06
1.01307e-08
3.0036e-06
1.52224e-08
3.00567e-06
1.86121e-08
3.00792e-06
2.08972e-08
3.01032e-06
2.25758e-08
3.01281e-06
2.37229e-08
3.01533e-06
2.43461e-08
3.01785e-06
2.45773e-08
3.02035e-06
2.45622e-08
3.02281e-06
2.438e-08
3.02524e-06
2.40754e-08
3.02762e-06
2.3692e-08
3.02995e-06
2.32703e-08
3.03223e-06
2.28394e-08
3.03446e-06
2.24179e-08
3.03665e-06
2.20186e-08
3.0388e-06
2.16505e-08
3.04092e-06
2.13188e-08
3.043e-06
2.10265e-08
3.04505e-06
2.07746e-08
3.04707e-06
2.05634e-08
3.04907e-06
2.03929e-08
3.05105e-06
2.02633e-08
3.05301e-06
2.01758e-08
3.05494e-06
2.01324e-08
3.05686e-06
2.0137e-08
3.05875e-06
2.01954e-08
3.06063e-06
2.03164e-08
3.06248e-06
2.05119e-08
3.06431e-06
2.07981e-08
3.0661e-06
2.11966e-08
3.06786e-06
2.17354e-08
3.06958e-06
2.2451e-08
3.07125e-06
2.339e-08
3.07285e-06
2.46123e-08
3.07439e-06
2.61944e-08
3.07582e-06
2.82336e-08
3.07715e-06
3.08538e-08
3.07833e-06
3.42125e-08
3.07934e-06
3.851e-08
3.08013e-06
4.40007e-08
3.08065e-06
5.10078e-08
3.08082e-06
5.99419e-08
3.08057e-06
7.13243e-08
3.07978e-06
8.58163e-08
3.07833e-06
1.04256e-07
3.07605e-06
1.27705e-07
3.07275e-06
1.57502e-07
3.06818e-06
1.95334e-07
3.06208e-06
2.43318e-07
3.0541e-06
3.04084e-07
3.04392e-06
3.80891e-07
3.03117e-06
4.77658e-07
3.01559e-06
5.99191e-07
2.99702e-06
7.50632e-07
2.97592e-06
9.38886e-07
2.95259e-06
1.16739e-06
2.93079e-06
1.44911e-06
1.76551e-06
2.90942e-06
3.00044e-06
3.10842e-09
3.00166e-06
8.91155e-09
3.0034e-06
1.34848e-08
3.00541e-06
1.65931e-08
3.00762e-06
1.86891e-08
3.00998e-06
2.02138e-08
3.01244e-06
2.12644e-08
3.01494e-06
2.18496e-08
3.01744e-06
2.2076e-08
3.01993e-06
2.2074e-08
3.02239e-06
2.19199e-08
3.02481e-06
2.16546e-08
3.02719e-06
2.13167e-08
3.02951e-06
2.09425e-08
3.03179e-06
2.0559e-08
3.03403e-06
2.01833e-08
3.03622e-06
1.98273e-08
3.03837e-06
1.9499e-08
3.04049e-06
1.92037e-08
3.04257e-06
1.89444e-08
3.04462e-06
1.87222e-08
3.04665e-06
1.85377e-08
3.04865e-06
1.83915e-08
3.05063e-06
1.82843e-08
3.05258e-06
1.82175e-08
3.05452e-06
1.8194e-08
3.05644e-06
1.82181e-08
3.05834e-06
1.82963e-08
3.06022e-06
1.8438e-08
3.06208e-06
1.86559e-08
3.06391e-06
1.8967e-08
3.06571e-06
1.93939e-08
3.06748e-06
1.99658e-08
3.06921e-06
2.07205e-08
3.07089e-06
2.17064e-08
3.07252e-06
2.29854e-08
3.07408e-06
2.46368e-08
3.07555e-06
2.67609e-08
3.07692e-06
2.94859e-08
3.07816e-06
3.29743e-08
3.07923e-06
3.74329e-08
3.08011e-06
4.3124e-08
3.08074e-06
5.03809e-08
3.08105e-06
5.96267e-08
3.08098e-06
7.13978e-08
3.08042e-06
8.63745e-08
3.07926e-06
1.05418e-07
3.07735e-06
1.29616e-07
3.07451e-06
1.6034e-07
3.07053e-06
1.99313e-07
3.06516e-06
2.48688e-07
3.05811e-06
3.11131e-07
3.04908e-06
3.89922e-07
3.03776e-06
4.88981e-07
3.02392e-06
6.13032e-07
3.00743e-06
7.67118e-07
2.98872e-06
9.57601e-07
2.96817e-06
1.18794e-06
2.94894e-06
1.46834e-06
1.78364e-06
2.93081e-06
3.00041e-06
2.70007e-09
3.00156e-06
7.76487e-09
3.00322e-06
1.18183e-08
3.00519e-06
1.46231e-08
3.00736e-06
1.65184e-08
3.00969e-06
1.78856e-08
3.01212e-06
1.88332e-08
3.0146e-06
1.93723e-08
3.01709e-06
1.95885e-08
3.01956e-06
1.95963e-08
3.02202e-06
1.94671e-08
3.02443e-06
1.92386e-08
3.02681e-06
1.89441e-08
3.02913e-06
1.8616e-08
3.03141e-06
1.82789e-08
3.03365e-06
1.79483e-08
3.03584e-06
1.76349e-08
3.03799e-06
1.73462e-08
3.04011e-06
1.70872e-08
3.04219e-06
1.68607e-08
3.04425e-06
1.66681e-08
3.04627e-06
1.65104e-08
3.04828e-06
1.63885e-08
3.05026e-06
1.63034e-08
3.05222e-06
1.62573e-08
3.05416e-06
1.62534e-08
3.05608e-06
1.62966e-08
3.05798e-06
1.6394e-08
3.05986e-06
1.65557e-08
3.06173e-06
1.6795e-08
3.06356e-06
1.71297e-08
3.06537e-06
1.75833e-08
3.06715e-06
1.81861e-08
3.0689e-06
1.89771e-08
3.0706e-06
2.00063e-08
3.07224e-06
2.13375e-08
3.07383e-06
2.30522e-08
3.07534e-06
2.52539e-08
3.07675e-06
2.80742e-08
3.07804e-06
3.16804e-08
3.07919e-06
3.62848e-08
3.08016e-06
4.21571e-08
3.0809e-06
4.96393e-08
3.08136e-06
5.91655e-08
3.08147e-06
7.12859e-08
3.08115e-06
8.66974e-08
3.08029e-06
1.06281e-07
3.07875e-06
1.31149e-07
3.07639e-06
1.62701e-07
3.07301e-06
2.0269e-07
3.0684e-06
2.53301e-07
3.0623e-06
3.17233e-07
3.05444e-06
3.9778e-07
3.04456e-06
4.98865e-07
3.03245e-06
6.25136e-07
3.01803e-06
7.81539e-07
3.00166e-06
9.73976e-07
2.98376e-06
1.20583e-06
2.96698e-06
1.48513e-06
1.79901e-06
2.95161e-06
3.00038e-06
2.31647e-09
3.00147e-06
6.6783e-09
3.00308e-06
1.02134e-08
3.005e-06
1.26973e-08
3.00714e-06
1.43809e-08
3.00944e-06
1.5587e-08
3.01184e-06
1.64263e-08
3.0143e-06
1.69125e-08
3.01678e-06
1.71135e-08
3.01925e-06
1.71279e-08
3.02169e-06
1.7021e-08
3.02411e-06
1.68268e-08
3.02648e-06
1.65739e-08
3.0288e-06
1.62907e-08
3.03108e-06
1.5999e-08
3.03332e-06
1.57128e-08
3.03551e-06
1.54416e-08
3.03766e-06
1.51923e-08
3.03978e-06
1.49693e-08
3.04187e-06
1.47755e-08
3.04392e-06
1.46125e-08
3.04595e-06
1.44815e-08
3.04796e-06
1.43837e-08
3.04994e-06
1.43207e-08
3.0519e-06
1.42951e-08
3.05384e-06
1.43104e-08
3.05577e-06
1.43724e-08
3.05767e-06
1.44885e-08
3.05956e-06
1.46693e-08
3.06143e-06
1.4929e-08
3.06327e-06
1.5286e-08
3.06509e-06
1.57646e-08
3.06688e-06
1.63959e-08
3.06864e-06
1.72203e-08
3.07035e-06
1.82891e-08
3.07202e-06
1.96677e-08
3.07363e-06
2.14398e-08
3.07518e-06
2.37114e-08
3.07663e-06
2.66174e-08
3.07799e-06
3.0329e-08
3.07921e-06
3.50636e-08
3.08027e-06
4.10971e-08
3.08113e-06
4.87794e-08
3.08174e-06
5.85542e-08
3.08204e-06
7.09836e-08
3.08196e-06
8.67787e-08
3.0814e-06
1.06838e-07
3.08025e-06
1.32295e-07
3.07838e-06
1.64573e-07
3.07562e-06
2.05451e-07
3.07178e-06
2.57144e-07
3.06664e-06
3.22373e-07
3.05997e-06
4.04452e-07
3.05153e-06
5.07298e-07
3.04117e-06
6.355e-07
3.0288e-06
7.93912e-07
3.01472e-06
9.88054e-07
2.99936e-06
1.22119e-06
2.9849e-06
1.49958e-06
1.81201e-06
2.9719e-06
3.00036e-06
1.95283e-09
3.0014e-06
5.64115e-09
3.00295e-06
8.66107e-09
3.00484e-06
1.08104e-08
3.00695e-06
1.22725e-08
3.00922e-06
1.33141e-08
3.01161e-06
1.40408e-08
3.01405e-06
1.44681e-08
3.01652e-06
1.46494e-08
3.01898e-06
1.46677e-08
3.02142e-06
1.45807e-08
3.02382e-06
1.44187e-08
3.02619e-06
1.42059e-08
3.02852e-06
1.39664e-08
3.0308e-06
1.37192e-08
3.03303e-06
1.34769e-08
3.03523e-06
1.32475e-08
3.03738e-06
1.30372e-08
3.0395e-06
1.28501e-08
3.04159e-06
1.26889e-08
3.04364e-06
1.25555e-08
3.04567e-06
1.24511e-08
3.04768e-06
1.23773e-08
3.04967e-06
1.23363e-08
3.05163e-06
1.23308e-08
3.05357e-06
1.23652e-08
3.0555e-06
1.24454e-08
3.05741e-06
1.25795e-08
3.0593e-06
1.27787e-08
3.06117e-06
1.30577e-08
3.06302e-06
1.34355e-08
3.06485e-06
1.39372e-08
3.06665e-06
1.45949e-08
3.06842e-06
1.54497e-08
3.07016e-06
1.65542e-08
3.07185e-06
1.79755e-08
3.07349e-06
1.97988e-08
3.07507e-06
2.21324e-08
3.07657e-06
2.51141e-08
3.07798e-06
2.89186e-08
3.07928e-06
3.37674e-08
3.08043e-06
3.99419e-08
3.08141e-06
4.77985e-08
3.08218e-06
5.77893e-08
3.08268e-06
7.04862e-08
3.08284e-06
8.6613e-08
3.0826e-06
1.07083e-07
3.08185e-06
1.33046e-07
3.08047e-06
1.65946e-07
3.07834e-06
2.07586e-07
3.07528e-06
2.60202e-07
3.07112e-06
3.26539e-07
3.06564e-06
4.09922e-07
3.05867e-06
5.1427e-07
3.05005e-06
6.44121e-07
3.03971e-06
8.04254e-07
3.02789e-06
9.99873e-07
3.01497e-06
1.23412e-06
3.00272e-06
1.51183e-06
1.82295e-06
2.99178e-06
3.00035e-06
1.60517e-09
3.00134e-06
4.64416e-09
3.00285e-06
7.1528e-09
3.00471e-06
8.9573e-09
3.00679e-06
1.01891e-08
3.00904e-06
1.10629e-08
3.01141e-06
1.16736e-08
3.01384e-06
1.20371e-08
3.01629e-06
1.21948e-08
3.01875e-06
1.22144e-08
3.02118e-06
1.21454e-08
3.02359e-06
1.20139e-08
3.02595e-06
1.18397e-08
3.02828e-06
1.16429e-08
3.03056e-06
1.14397e-08
3.03279e-06
1.12405e-08
3.03499e-06
1.10526e-08
3.03714e-06
1.08811e-08
3.03926e-06
1.07297e-08
3.04135e-06
1.06011e-08
3.04341e-06
1.0497e-08
3.04544e-06
1.04192e-08
3.04745e-06
1.03694e-08
3.04944e-06
1.03501e-08
3.0514e-06
1.03646e-08
3.05335e-06
1.04176e-08
3.05528e-06
1.05155e-08
3.05719e-06
1.06671e-08
3.05909e-06
1.08838e-08
3.06096e-06
1.11809e-08
3.06282e-06
1.15782e-08
3.06466e-06
1.21012e-08
3.06647e-06
1.27827e-08
3.06825e-06
1.36649e-08
3.07001e-06
1.48013e-08
3.07172e-06
1.62602e-08
3.07339e-06
1.81284e-08
3.07501e-06
2.05162e-08
3.07656e-06
2.35634e-08
3.07803e-06
2.74478e-08
3.0794e-06
3.23945e-08
3.08066e-06
3.86893e-08
3.08176e-06
4.6694e-08
3.08268e-06
5.68675e-08
3.08338e-06
6.97902e-08
3.0838e-06
8.61955e-08
3.08387e-06
1.07009e-07
3.08352e-06
1.33395e-07
3.08265e-06
1.66813e-07
3.08116e-06
2.09085e-07
3.07889e-06
2.62465e-07
3.07571e-06
3.29718e-07
3.07145e-06
4.14181e-07
3.06595e-06
5.19773e-07
3.05907e-06
6.50998e-07
3.05075e-06
8.12576e-07
3.04116e-06
1.00947e-06
3.03059e-06
1.24469e-06
3.02045e-06
1.52197e-06
1.83207e-06
3.01133e-06
3.00034e-06
1.27008e-09
3.0013e-06
3.67915e-09
3.00277e-06
5.6805e-09
3.0046e-06
7.13234e-09
3.00666e-06
8.12664e-09
3.00889e-06
8.82978e-09
3.01124e-06
9.32171e-09
3.01366e-06
9.6174e-09
3.01611e-06
9.74812e-09
3.01856e-06
9.76693e-09
3.02099e-06
9.71441e-09
3.02339e-06
9.61186e-09
3.02576e-06
9.47509e-09
3.02808e-06
9.32015e-09
3.03036e-06
9.16019e-09
3.0326e-06
9.00388e-09
3.03479e-06
8.85705e-09
3.03695e-06
8.72409e-09
3.03907e-06
8.60831e-09
3.04116e-06
8.51209e-09
3.04322e-06
8.43733e-09
3.04525e-06
8.38587e-09
3.04726e-06
8.35987e-09
3.04925e-06
8.3621e-09