/*--------------------------------*- C++ -*----------------------------------*\
| =========                 |                                                 |
| \\      /  F ield         | OpenFOAM: The Open Source CFD Toolbox           |
|  \\    /   O peration     | Version:  2.4.0                                 |
|   \\  /    A nd           | Web:      www.OpenFOAM.org                      |
|    \\/     M anipulation  |                                                 |
\*---------------------------------------------------------------------------*/
FoamFile
{
    version     2.0;
    format      ascii;
    class       volScalarField;
    location    "5.61";
    object      nut;
}
// * * * * * * * * * * * * * * * * * * * * * * * * * * * * * * * * * * * * * //

dimensions      [0 2 -1 0 0 0 0];

internalField   nonuniform List<scalar> 
6000
(
4.7015e-05
1.44417e-05
4.24748e-06
8.77712e-06
7.78856e-06
8.92555e-06
8.56576e-06
8.93795e-06
8.81141e-06
9.01776e-06
9.05509e-06
9.28401e-06
9.49519e-06
9.84408e-06
1.02403e-05
1.07425e-05
1.13086e-05
1.19558e-05
1.26618e-05
1.3427e-05
1.42365e-05
1.50825e-05
1.59512e-05
1.68304e-05
1.7705e-05
1.85613e-05
1.93849e-05
2.01613e-05
2.08746e-05
2.15085e-05
2.20456e-05
2.24683e-05
2.27586e-05
2.28972e-05
2.28657e-05
2.26462e-05
2.22232e-05
2.15814e-05
2.07122e-05
1.961e-05
1.82915e-05
1.67838e-05
1.51643e-05
1.44365e-05
1.61568e-05
1.79468e-05
1.9683e-05
2.14972e-05
2.31044e-05
2.4856e-05
2.61316e-05
2.78268e-05
2.85339e-05
3.0379e-05
3.01433e-05
3.26847e-05
3.08057e-05
3.51856e-05
3.06423e-05
3.82496e-05
2.94897e-05
9.50751e-06
3.16512e-06
7.01523e-06
6.32247e-06
7.01626e-06
6.77356e-06
7.0064e-06
6.93297e-06
7.07873e-06
7.13347e-06
7.32266e-06
7.52153e-06
7.82408e-06
8.17764e-06
8.6147e-06
9.11023e-06
9.6712e-06
1.02834e-05
1.09439e-05
1.16426e-05
1.23728e-05
1.31252e-05
1.38918e-05
1.46644e-05
1.54356e-05
1.61992e-05
1.69494e-05
1.76815e-05
1.83917e-05
1.90776e-05
1.97394e-05
2.03805e-05
2.10066e-05
2.16301e-05
2.22741e-05
2.29772e-05
2.38023e-05
2.4851e-05
2.62926e-05
2.83981e-05
3.15995e-05
3.63315e-05
3.8916e-05
3.38712e-05
2.99479e-05
2.72324e-05
2.5336e-05
2.41032e-05
2.3316e-05
2.27896e-05
2.25913e-05
2.22893e-05
2.24899e-05
2.20457e-05
2.2744e-05
2.17256e-05
2.33812e-05
2.12103e-05
2.44014e-05
2.14309e-05
8.1604e-06
2.81353e-06
5.88991e-06
5.32637e-06
5.68163e-06
5.49655e-06
5.63027e-06
5.59131e-06
5.70509e-06
5.78743e-06
5.97797e-06
6.209e-06
6.53662e-06
6.93505e-06
7.42174e-06
7.98524e-06
8.62768e-06
9.34203e-06
1.0125e-05
1.09707e-05
1.18743e-05
1.2831e-05
1.38368e-05
1.48894e-05
1.59881e-05
1.71348e-05
1.83336e-05
1.95924e-05
2.09233e-05
2.23444e-05
2.3882e-05
2.55743e-05
2.74657e-05
2.96213e-05
3.21446e-05
3.51837e-05
3.89635e-05
4.38182e-05
5.02722e-05
5.90817e-05
7.13207e-05
8.75117e-05
9.52383e-05
7.86355e-05
6.40823e-05
5.28584e-05
4.39898e-05
3.74962e-05
3.2316e-05
2.86348e-05
2.55575e-05
2.34311e-05
2.1552e-05
2.02447e-05
1.91451e-05
1.81611e-05
1.77911e-05
1.66621e-05
1.71838e-05
1.78746e-05
7.96954e-06
2.98753e-06
5.26062e-06
4.70354e-06
4.76717e-06
4.59288e-06
4.64867e-06
4.63156e-06
4.73429e-06
4.85777e-06
5.08851e-06
5.40032e-06
5.82835e-06
6.36958e-06
7.03621e-06
7.8315e-06
8.75935e-06
9.8231e-06
1.10238e-05
1.23635e-05
1.38434e-05
1.54664e-05
1.72368e-05
1.91623e-05
2.12538e-05
2.35275e-05
2.60054e-05
2.87169e-05
3.17019e-05
3.50129e-05
3.87213e-05
4.29237e-05
4.76919e-05
5.31854e-05
5.96143e-05
6.72632e-05
7.65377e-05
8.79925e-05
0.000102425
0.000120827
0.000144347
0.00017231
0.00018403
0.000156778
0.000129806
0.000106914
8.73353e-05
7.1896e-05
5.88622e-05
4.91002e-05
4.05996e-05
3.46328e-05
2.90107e-05
2.54901e-05
2.16539e-05
1.96846e-05
1.7027e-05
1.59178e-05
1.4392e-05
1.67546e-05
8.44522e-06
3.53502e-06
5.03884e-06
4.4055e-06
4.18436e-06
3.97855e-06
3.96391e-06
3.95952e-06
4.06845e-06
4.25197e-06
4.56675e-06
5.02173e-06
5.64588e-06
6.46174e-06
7.48788e-06
8.74956e-06
1.02628e-05
1.20499e-05
1.41253e-05
1.65074e-05
1.9211e-05
2.22548e-05
2.56587e-05
2.94476e-05
3.3651e-05
3.83065e-05
4.34602e-05
4.91691e-05
5.55039e-05
6.25523e-05
7.04261e-05
7.92379e-05
8.90276e-05
0.000100029
0.000112488
0.00012672
0.000143156
0.000162341
0.000185015
0.000211978
0.000243955
0.00027859
0.000291755
0.000259421
0.000223705
0.000190613
0.000160081
0.000133996
0.00011057
9.16748e-05
7.45739e-05
6.17163e-05
4.95265e-05
4.13643e-05
3.27013e-05
2.80303e-05
2.18018e-05
1.94903e-05
1.56888e-05
1.71085e-05
9.39798e-06
4.39164e-06
5.14702e-06
4.41012e-06
3.8885e-06
3.60789e-06
3.5192e-06
3.52018e-06
3.65149e-06
3.92162e-06
4.37624e-06
5.06137e-06
6.01617e-06
7.29889e-06
8.9502e-06
1.10303e-05
1.35814e-05
1.66557e-05
2.02917e-05
2.45314e-05
2.94096e-05
3.49635e-05
4.12292e-05
4.82461e-05
5.60555e-05
6.47053e-05
7.42493e-05
8.47477e-05
9.62683e-05
0.000108889
0.000122713
0.00013768
0.000153806
0.000171296
0.000190324
0.000211112
0.000233983
0.000259332
0.000287706
0.000319647
0.000355471
0.000391564
0.00040454
0.000372277
0.000333079
0.000294075
0.000255836
0.000220845
0.000187651
0.000158859
0.000131702
0.000109586
8.8327e-05
7.26363e-05
5.65492e-05
4.65936e-05
3.46973e-05
2.9306e-05
2.23149e-05
1.83893e-05
1.07093e-05
5.51648e-06
5.50502e-06
4.69464e-06
3.86422e-06
3.46249e-06
3.28645e-06
3.28585e-06
3.45669e-06
3.85053e-06
4.52033e-06
5.55954e-06
7.03744e-06
9.06392e-06
1.17192e-05
1.51113e-05
1.93186e-05
2.44279e-05
3.05013e-05
3.75994e-05
4.57671e-05
5.50455e-05
6.54671e-05
7.70592e-05
8.9843e-05
0.00010384
0.000119069
0.000135544
0.000153276
0.000172277
0.000192554
0.000213767
0.000235982
0.000259307
0.000283812
0.000309613
0.000336914
0.000365974
0.000397188
0.000430936
0.000467192
0.000501777
0.000513997
0.000484823
0.000446132
0.000405274
0.000363258
0.000322667
0.000282472
0.000245449
0.000209274
0.000177645
0.000146705
0.000121654
9.64656e-05
7.85902e-05
5.9045e-05
4.80641e-05
3.67772e-05
2.02058e-05
1.22753e-05
6.86633e-06
6.06041e-06
5.20489e-06
4.10936e-06
3.54284e-06
3.25897e-06
3.24946e-06
3.47971e-06
4.04794e-06
5.03504e-06
6.59928e-06
8.86181e-06
1.1999e-05
1.61414e-05
2.14458e-05
2.80216e-05
3.5975e-05
4.53729e-05
5.62688e-05
6.86893e-05
8.26474e-05
9.81371e-05
0.000115136
0.000133607
0.00015351
0.000174793
0.000197394
0.000221243
0.000246264
0.000272276
0.00029882
0.000325982
0.000353788
0.000382229
0.000411341
0.000441249
0.000472119
0.000504242
0.000537917
0.000572757
0.000604678
0.000616137
0.000591353
0.000555495
0.000515564
0.000472838
0.000429722
0.000385566
0.000342933
0.000300083
0.000260439
0.000220995
0.000186552
0.000152208
0.000124897
9.67919e-05
7.78907e-05
6.16504e-05
2.2247e-05
1.39955e-05
8.38924e-06
6.8058e-06
5.85871e-06
4.61008e-06
3.85671e-06
3.44468e-06
3.41929e-06
3.73306e-06
4.54177e-06
5.97803e-06
8.28477e-06
1.16519e-05
1.6325e-05
2.24785e-05
3.02979e-05
3.9898e-05
5.13714e-05
6.47564e-05
8.00661e-05
9.72778e-05
0.000116347
0.000137202
0.000159749
0.000183874
0.000209463
0.000236392
0.000264524
0.000293714
0.000323828
0.000354416
0.000385131
0.000416021
0.000447049
0.000478156
0.000509324
0.000540625
0.000572158
0.000604149
0.000636822
0.000669498
0.000698554
0.000709437
0.000689321
0.000657399
0.000620014
0.000578565
0.000535188
0.000489517
0.000443757
0.000396694
0.000351226
0.000305271
0.000262769
0.000220421
0.000183695
0.000147313
0.000119234
9.80804e-05
2.42783e-05
1.57758e-05
1.00262e-05
7.744e-06
6.59833e-06
5.3163e-06
4.39975e-06
3.85482e-06
3.81077e-06
4.23748e-06
5.3659e-06
7.40573e-06
1.06991e-05
1.55082e-05
2.21305e-05
3.07576e-05
4.15661e-05
5.46404e-05
7.00234e-05
8.76974e-05
0.000107612
0.000129679
0.000153785
0.000179788
0.000207518
0.000236791
0.000267429
0.000299249
0.000332055
0.00036565
0.000399833
0.000433959
0.000467853
0.0005015
0.000534818
0.000567712
0.00060013
0.000632104
0.000663686
0.000695053
0.000726325
0.000756706
0.000783097
0.000793602
0.000777901
0.000750259
0.000716216
0.000677187
0.000635029
0.000589564
0.000542639
0.000493421
0.000444283
0.000393874
0.000345246
0.000296562
0.000251619
0.00020799
0.000170821
0.000145254
2.61484e-05
1.75357e-05
1.17162e-05
8.86126e-06
7.41747e-06
6.14789e-06
5.13565e-06
4.48519e-06
4.43139e-06
5.00591e-06
6.53763e-06
9.33723e-06
1.38487e-05
2.0393e-05
2.92841e-05
4.06935e-05
5.47488e-05
7.14753e-05
9.08437e-05
0.000112769
0.000137134
0.000163786
0.000192545
0.000223206
0.000255535
0.000289289
0.000324242
0.000360169
0.000396829
0.000433991
0.000471352
0.000508237
0.000544564
0.000580266
0.00061523
0.000649335
0.000682502
0.000714739
0.000746058
0.000776606
0.000806341
0.000834575
0.000858637
0.000868911
0.00085713
0.000833672
0.000803247
0.000767204
0.000727146
0.000683005
0.000636323
0.000586508
0.000535504
0.000482435
0.000429656
0.000376357
0.000324977
0.000275427
0.000230297
0.000200927
2.77811e-05
1.9213e-05
1.34022e-05
1.01243e-05
8.33876e-06
7.04115e-06
5.99906e-06
5.29936e-06
5.26136e-06
6.02165e-06
8.0297e-06
1.1717e-05
1.76198e-05
2.60924e-05
3.74247e-05
5.17342e-05
6.90717e-05
8.939e-05
0.000112583
0.000138504
0.000166972
0.000197782
0.000230697
0.000265458
0.00030178
0.000339372
0.000377972
0.000417325
0.00045716
0.000497223
0.000537077
0.000576144
0.000614359
0.000651619
0.000687787
0.00072272
0.000756323
0.000788583
0.000819487
0.00084913
0.000877372
0.000903682
0.000925757
0.000935884
0.000927447
0.000907846
0.000880998
0.000848132
0.000810638
0.000768494
0.000723005
0.000673703
0.000622227
0.000567938
0.000512748
0.000456388
0.00040046
0.000346347
0.000294929
0.000262269
2.91563e-05
2.07652e-05
1.50352e-05
1.14876e-05
9.37716e-06
7.98018e-06
6.92891e-06
6.2337e-06
6.24529e-06
7.22394e-06
9.75368e-06
1.44007e-05
2.17777e-05
3.22469e-05
4.60404e-05
6.32003e-05
8.36888e-05
0.000107387
0.000134119
0.000163682
0.000195847
0.00023036
0.00026694
0.000305282
0.000345058
0.000385938
0.000427634
0.000469865
0.000512338
0.000554791
0.000596626
0.000637445
0.000677151
0.000715612
0.000752668
0.000788167
0.000821997
0.000854137
0.00088455
0.000913249
0.000940116
0.000964724
0.000985113
0.000995122
0.000989453
0.000973272
0.000949778
0.000920054
0.000885307
0.000845522
0.000801828
0.000753795
0.000702869
0.000648462
0.000592276
0.000534171
0.000475423
0.000418004
0.000362092
0.000326527
3.02873e-05
2.21682e-05
1.65773e-05
1.2901e-05
1.05285e-05
8.98183e-06
7.8985e-06
7.22821e-06
7.30982e-06
8.51896e-06
1.15736e-05
1.71813e-05
2.6018e-05
3.84357e-05
5.459e-05
7.44383e-05
9.78537e-05
0.000124653
0.000154596
0.000187437
0.000222905
0.000260705
0.000300517
0.000341998
0.00038478
0.0004285
0.000472847
0.000517524
0.000562217
0.000606631
0.000650098
0.000692346
0.000733244
0.000772637
0.000810352
0.000846224
0.000880135
0.000912057
0.000941923
0.000969682
0.000995298
0.0010184
0.00103735
0.00104723
0.00104379
0.00103055
0.0010101
0.000983346
0.000951347
0.000914074
0.000872523
0.000826252
0.000776591
0.000722887
0.0006668
0.000608022
0.000547911
0.000488296
0.000429548
0.000391369
3.12037e-05
2.34127e-05
1.80021e-05
1.43155e-05
1.17717e-05
1.00652e-05
8.91425e-06
8.25418e-06
8.39727e-06
9.81537e-06
1.33484e-05
1.9846e-05
3.00423e-05
4.42726e-05
6.26093e-05
8.49249e-05
0.000111007
0.000140614
0.000173451
0.000209234
0.000247654
0.000288381
0.00033106
0.000375312
0.000420735
0.000466935
0.000513579
0.00056036
0.000606942
0.00065298
0.000697816
0.000741241
0.000783098
0.000823215
0.000861408
0.000897507
0.000931386
0.000963019
0.000992275
0.00101913
0.0010436
0.00106536
0.00108305
0.00109276
0.00109107
0.00108032
0.00106255
0.00103852
0.00100916
0.000974413
0.000935174
0.000890964
0.000843049
0.000790643
0.00073547
0.000676873
0.000616565
0.000555707
0.000495532
0.000454991
3.19396e-05
2.45008e-05
1.92943e-05
1.56881e-05
1.30739e-05
1.12358e-05
9.99462e-06
9.31576e-06
9.48607e-06
1.10582e-05
1.49772e-05
2.2233e-05
3.36229e-05
4.94703e-05
6.97675e-05
9.43052e-05
0.000122788
0.000154924
0.000190365
0.000228791
0.00026986
0.00031321
0.000358451
0.00040517
0.000452936
0.000501321
0.000549977
0.000598583
0.000646791
0.000694187
0.00074018
0.000784579
0.000827208
0.000867881
0.000906408
0.000942613
0.000976368
0.00100764
0.00103624
0.00106224
0.00108564
0.00110619
0.00112275
0.00113223
0.00113187
0.00112317
0.00110772
0.00108614
0.00105924
0.00102695
0.000990069
0.000948079
0.000902215
0.000851525
0.000797858
0.000740108
0.000680505
0.00061921
0.000558741
0.000516089
3.25279e-05
2.54415e-05
2.04482e-05
1.69839e-05
1.43967e-05
1.24837e-05
1.11545e-05
1.0433e-05
1.05865e-05
1.22383e-05
1.64197e-05
2.42589e-05
3.66305e-05
5.38618e-05
7.58744e-05
0.000102382
0.000133009
0.000167414
0.000205196
0.000246003
0.00028946
0.000335171
0.000382716
0.00043165
0.00048151
0.000531836
0.000582265
0.000632469
0.000682085
0.000730624
0.000777597
0.000822801
0.000866046
0.000907136
0.000945872
0.000982081
0.00101563
0.00104644
0.00107439
0.00109955
0.00112195
0.00114137
0.00115691
0.00116609
0.00116671
0.00115966
0.00114618
0.00112676
0.00110212
0.00107215
0.0010376
0.000997893
0.000954254
0.000905564
0.000853818
0.000797428
0.000739209
0.000678151
0.000618269
0.000573776
3.29974e-05
2.62483e-05
2.14653e-05
1.81776e-05
1.57005e-05
1.37863e-05
1.23966e-05
1.1624e-05
1.17272e-05
1.33795e-05
1.76891e-05
2.5915e-05
3.90294e-05
5.73884e-05
8.08587e-05
0.000109085
0.000141607
0.000178039
0.000217923
0.000260877
0.00030649
0.000354335
0.000403961
0.000454892
0.000506634
0.000558694
0.000610694
0.0006623
0.000713125
0.000762645
0.000810447
0.000856313
0.00090004
0.000941424
0.000980264
0.00101639
0.00104964
0.00107993
0.00110722
0.00113155
0.00115298
0.00117136
0.00118593
0.00119475
0.00119603
0.00119028
0.00117845
0.00116092
0.00113832
0.0011105
0.0010782
0.00104078
0.000999446
0.000952938
0.000903391
0.000848749
0.000792416
0.00073215
0.000673524
0.000627485
3.33723e-05
2.69363e-05
2.23527e-05
1.92537e-05
1.69488e-05
1.51125e-05
1.37109e-05
1.28979e-05
1.29396e-05
1.45207e-05
1.88313e-05
2.72458e-05
4.08536e-05
6.00726e-05
8.47355e-05
0.000114427
0.000148603
0.000186834
0.000228599
0.000273483
0.000321043
0.000370819
0.000422328
0.000475065
0.000528503
0.000582115
0.000635509
0.000688346
0.000740205
0.00079057
0.00083907
0.00088547
0.000929561
0.000971132
0.00100998
0.00104592
0.00107878
0.00110853
0.00113513
0.00115864
0.00117914
0.00119651
0.00121016
0.00121855
0.00122025
0.00121549
0.00120502
0.0011891
0.00116832
0.0011425
0.00111232
0.00107713
0.00103813
0.00099391
0.00094674
0.000894136
0.000840047
0.000781031
0.000724158
0.000676888
3.36719e-05
2.75209e-05
2.31207e-05
2.02052e-05
1.81107e-05
1.64262e-05
1.50763e-05
1.42527e-05
1.42401e-05
1.57125e-05
1.99055e-05
2.83247e-05
4.21807e-05
6.19896e-05
8.75769e-05
0.000118483
0.000154075
0.000193882
0.000237317
0.00028393
0.000333243
0.000384762
0.000437974
0.000492341
0.000547308
0.000602308
0.000656935
0.000710852
0.000763591
0.000814682
0.00086376
0.000910581
0.000954929
0.00099659
0.00103535
0.001071
0.00110342
0.00113259
0.00115848
0.00118117
0.00120075
0.00121715
0.0012299
0.0012378
0.0012397
0.00123568
0.00122629
0.00121175
0.00119258
0.00116858
0.00114041
0.00110737
0.00107067
0.00102879
0.000984099
0.000933741
0.000882148
0.000824753
0.00077
0.000721826
3.3912e-05
2.80167e-05
2.37816e-05
2.10323e-05
1.91634e-05
1.76907e-05
1.64633e-05
1.56755e-05
1.56319e-05
1.6998e-05
2.09746e-05
2.92351e-05
4.31098e-05
6.32441e-05
8.94881e-05
0.000121357
0.000158129
0.000199297
0.000244195
0.000292343
0.000343223
0.000396308
0.000451052
0.000506887
0.000563227
0.000619464
0.000675178
0.000730036
0.000783521
0.000835224
0.000884771
0.000931908
0.000976417
0.00101807
0.00105663
0.00109192
0.00112385
0.0011524
0.00117757
0.00119943
0.0012181
0.00123354
0.00124542
0.00125276
0.00125469
0.00125117
0.00124265
0.00122928
0.00121151
0.00118917
0.00116286
0.00113189
0.00109743
0.0010579
0.00101574
0.000967776
0.000918846
0.000863375
0.000811004
0.000762264
3.41047e-05
2.84367e-05
2.43485e-05
2.17411e-05
2.00923e-05
1.88723e-05
1.78362e-05
1.71433e-05
1.71071e-05
1.83856e-05
2.21255e-05
3.0059e-05
4.37466e-05
6.39543e-05
9.05913e-05
0.000123174
0.000160889
0.000203203
0.000249362
0.000298853
0.00035112
0.000405599
0.000461712
0.00051886
0.000576427
0.000633756
0.000690418
0.000746084
0.000800197
0.000852408
0.000902321
0.000949678
0.000994248
0.00103577
0.00107405
0.00110894
0.00114034
0.00116823
0.00119265
0.00121367
0.00123143
0.00124593
0.00125693
0.00126368
0.00126549
0.00126229
0.00125443
0.00124203
0.00122549
0.00120465
0.00118007
0.00115106
0.00111878
0.00108159
0.00104196
0.000996485
0.000950321
0.000897017
0.000847215
0.000798245
3.42598e-05
2.87925e-05
2.48341e-05
2.23412e-05
2.0891e-05
1.99425e-05
1.9157e-05
1.86246e-05
1.86475e-05
1.98723e-05
2.33908e-05
3.09185e-05
4.41942e-05
6.42414e-05
9.10155e-05
0.000124065
0.000162488
0.000205733
0.000252951
0.000303596
0.00035707
0.000412774
0.000470095
0.000528405
0.000587056
0.000645339
0.000702815
0.000759161
0.000813796
0.000866414
0.000916597
0.000964064
0.00100858
0.0010499
0.00108784
0.00112226
0.00115308
0.00118029
0.00120393
0.0012241
0.00124094
0.00125451
0.00126463
0.00127074
0.00127232
0.00126928
0.00126192
0.00125031
0.00123486
0.00121536
0.00119239
0.00116524
0.00113505
0.00110016
0.00106304
0.00102012
0.000976785
0.000925841
0.000878735
0.000829868
3.43849e-05
2.90943e-05
2.52501e-05
2.28448e-05
2.15607e-05
2.08806e-05
2.03888e-05
2.00822e-05
2.02253e-05
2.14435e-05
2.47741e-05
3.18918e-05
4.46029e-05
6.42231e-05
9.08899e-05
0.000124165
0.000163059
0.000207021
0.000255094
0.000306702
0.000361205
0.000417965
0.000476336
0.000535656
0.000595251
0.000654353
0.000712511
0.00076942
0.000824472
0.000877399
0.000927722
0.000975194
0.00101957
0.00106063
0.00109817
0.00113208
0.00116227
0.00118876
0.00121159
0.00123089
0.00124682
0.00125945
0.0012687
0.00127414
0.00127538
0.00127238
0.00126536
0.00125441
0.00123989
0.00122162
0.00120013
0.00117475
0.00114657
0.00111392
0.00107929
0.00103896
0.000998463
0.000950032
0.000905708
0.000857268
3.4486e-05
2.93504e-05
2.56073e-05
2.3265e-05
2.21082e-05
2.16745e-05
2.14985e-05
2.14751e-05
2.18045e-05
2.30742e-05
2.62653e-05
3.29937e-05
4.50974e-05
6.40818e-05
9.03402e-05
0.000123604
0.000162736
0.0002072
0.000255923
0.000308303
0.000363655
0.000421301
0.000480561
0.00054074
0.000601138
0.000660922
0.000719633
0.000776995
0.000832349
0.000885442
0.000935818
0.000983213
0.00102738
0.0010681
0.00110519
0.00113853
0.00116806
0.0011938
0.0012158
0.00123421
0.00124921
0.00126091
0.00126928
0.00127401
0.00127486
0.00127178
0.001265
0.00125458
0.00124087
0.00122371
0.0012036
0.00117989
0.00115363
0.00112318
0.00109097
0.00105323
0.00101559
0.000969789
0.000928301
0.000880599
3.45679e-05
2.9568e-05
2.59149e-05
2.36147e-05
2.25451e-05
2.23203e-05
2.246e-05
2.27627e-05
2.33429e-05
2.47295e-05
2.7842e-05
3.42227e-05
4.57094e-05
6.39585e-05
8.96021e-05
0.00012251
0.000161648
0.000206401
0.000255568
0.000308527
0.000364544
0.000422904
0.00048289
0.000543775
0.000604835
0.000665162
0.000724289
0.000781945
0.0008375
0.000890667
0.000941009
0.000988249
0.00103214
0.00107246
0.00110904
0.00114177
0.00117059
0.00119553
0.00121668
0.00123419
0.00124825
0.00125902
0.0012665
0.00127051
0.0012709
0.00126766
0.00126101
0.00125102
0.00123802
0.00122187
0.00120304
0.00118092
0.0011565
0.00112818
0.00109835
0.00106321
0.00102839
0.000985315
0.000946692
0.000900028
3.46343e-05
2.97531e-05
2.61808e-05
2.39064e-05
2.28854e-05
2.28224e-05
2.3256e-05
2.39078e-05
2.4795e-05
2.63666e-05
2.94698e-05
3.55614e-05
4.64508e-05
6.39031e-05
8.87791e-05
0.000121119
0.000160009
0.000204751
0.000254155
0.000307497
0.000363995
0.000422893
0.000483439
0.000544872
0.000606405
0.000667123
0.000726543
0.000784382
0.000840035
0.000893185
0.000943408
0.000990414
0.00103396
0.00107382
0.00110983
0.00114189
0.00116997
0.00119409
0.00121436
0.00123094
0.00124406
0.00125389
0.00126049
0.00126376
0.00126364
0.00126017
0.00125358
0.00124393
0.00123156
0.00121633
0.0011987
0.00117809
0.00115544
0.0011292
0.00110168
0.00106912
0.00103709
0.000996813
0.00096107
0.000915724
3.46882e-05
2.99107e-05
2.64116e-05
2.41509e-05
2.31443e-05
2.31911e-05
2.38784e-05
2.48797e-05
2.61154e-05
2.79366e-05
3.11049e-05
3.69787e-05
4.73146e-05
6.39442e-05
8.79358e-05
0.00011952
0.000157934
0.000202433
0.000251841
0.000305347
0.000362118
0.000421358
0.000482282
0.000544093
0.000605942
0.000666903
0.000726494
0.000784407
0.000840056
0.000893096
0.000943113
0.000989808
0.00103293
0.00107227
0.00110766
0.00113901
0.0011663
0.00118957
0.00120893
0.00122458
0.00123674
0.00124562
0.00125134
0.00125386
0.0012532
0.00124946
0.00124286
0.00123349
0.00122167
0.00120729
0.00119079
0.00117162
0.00115067
0.00112646
0.00110119
0.00107119
0.00104191
0.00100448
0.000971619
0.00092786
3.4732e-05
3.0045e-05
2.66128e-05
2.43579e-05
2.33375e-05
2.34416e-05
2.43289e-05
2.56569e-05
2.72624e-05
2.93881e-05
3.26949e-05
3.84306e-05
4.82765e-05
6.40898e-05
8.71166e-05
0.000117788
0.000155514
0.000199546
0.000248731
0.000302181
0.000359016
0.000418402
0.000479518
0.000541535
0.000603542
0.000664596
0.000724239
0.000782114
0.000837655
0.000890491
0.000940215
0.000986521
0.00102916
0.00106791
0.00110263
0.00113322
0.00115968
0.00118206
0.0012005
0.00121518
0.00122638
0.00123431
0.00123915
0.00124091
0.0012397
0.00123564
0.00122898
0.00121984
0.00120852
0.00119493
0.0011795
0.00116171
0.00114241
0.00112017
0.0010971
0.00106963
0.00104305
0.00100852
0.000978525
0.000936604
3.47677e-05
3.01596e-05
2.6789e-05
2.45352e-05
2.34793e-05
2.35922e-05
2.46173e-05
2.62284e-05
2.82016e-05
3.06704e-05
3.41829e-05
3.98627e-05
4.92959e-05
6.43274e-05
8.63448e-05
0.000115976
0.000152825
0.00019618
0.000244919
0.000298096
0.000354788
0.000414122
0.000475244
0.000537291
0.000599295
0.000660293
0.000719867
0.00077759
0.000832917
0.000885454
0.000934799
0.000980637
0.00102271
0.00106082
0.00109481
0.0011246
0.00115019
0.00117165
0.00118913
0.00120285
0.00121307
0.00122006
0.00122401
0.00122502
0.00122323
0.00121883
0.00121208
0.00120312
0.00119225
0.00117942
0.001165
0.00114855
0.00113084
0.00111053
0.00108961
0.00106463
0.00104071
0.0010091
0.000981968
0.000942118
3.47966e-05
3.02575e-05
2.69436e-05
2.46893e-05
2.35829e-05
2.36621e-05
2.47603e-05
2.65945e-05
2.89086e-05
3.17379e-05
3.55101e-05
4.12133e-05
5.03192e-05
6.46257e-05
8.56221e-05
0.00011412
0.00014993
0.00019241
0.00024049
0.000293182
0.000349524
0.000408608
0.000469548
0.000531451
0.000593285
0.000654093
0.000713463
0.000770919
0.000825924
0.000878065
0.000926942
0.000972232
0.00101368
0.00105107
0.00108428
0.00111322
0.00113791
0.00115842
0.00117492
0.00118765
0.00119689
0.00120292
0.00120599
0.00120625
0.00120389
0.00119913
0.00119227
0.00118346
0.00117301
0.00116089
0.00114746
0.00113231
0.00111614
0.00109772
0.0010789
0.0010564
0.00103508
0.00100641
0.000982122
0.000944561
3.48202e-05
3.03411e-05
2.70799e-05
2.48251e-05
2.36592e-05
2.36704e-05
2.47792e-05
2.67654e-05
2.93712e-05
3.25535e-05
3.66209e-05
4.24172e-05
5.12825e-05
6.49371e-05
8.49301e-05
0.000112234
0.000146869
0.000188298
0.000235516
0.000287518
0.000343307
0.000401944
0.000462516
0.000524097
0.000585594
0.000646075
0.000705108
0.000762179
0.000816752
0.000868399
0.000916717
0.000961379
0.00100212
0.00103875
0.00107111
0.00109916
0.0011229
0.00114244
0.00115794
0.00116966
0.00117791
0.00118299
0.00118518
0.00118469
0.00118175
0.00117663
0.00116964
0.00116097
0.00115093
0.00113949
0.00112702
0.00111313
0.00109848
0.00108191
0.00106515
0.00104509
0.00102634
0.00100061
0.000979153
0.000944085
3.48393e-05
3.04126e-05
2.72001e-05
2.49465e-05
2.37174e-05
2.36352e-05
2.46981e-05
2.67603e-05
2.95902e-05
3.30923e-05
3.74667e-05
4.34097e-05
5.2116e-05
6.52007e-05
8.42315e-05
0.000110312
0.000143666
0.000183888
0.000230058
0.000281171
0.000336211
0.000394208
0.000454225
0.000515308
0.000576296
0.000636316
0.000694878
0.000751442
0.000805472
0.000856525
0.000904193
0.000948145
0.000988115
0.0010239
0.00105538
0.00108248
0.00110524
0.00112376
0.00113824
0.00114894
0.00115619
0.00116033
0.00116165
0.00116042
0.00115691
0.00115143
0.00114431
0.00113577
0.00112611
0.00111535
0.00110382
0.00109117
0.00107801
0.00106327
0.00104852
0.00103088
0.00101464
0.000991872
0.000973223
0.000940834
3.48548e-05
3.04737e-05
2.73064e-05
2.50563e-05
2.37646e-05
2.35719e-05
2.45416e-05
2.66051e-05
2.95784e-05
3.33435e-05
3.80102e-05
4.4132e-05
5.27486e-05
6.53471e-05
8.34741e-05
0.00010833
0.000140327
0.000179208
0.000224159
0.000274198
0.000328297
0.000385467
0.000444745
0.000505155
0.000565468
0.000624888
0.000682844
0.00073878
0.000792154
0.00084251
0.000889436
0.000932595
0.000971718
0.00100661
0.00103713
0.00106325
0.00108499
0.00110247
0.00111591
0.00112557
0.00113182
0.00113501
0.00113547
0.00113351
0.00112944
0.0011236
0.00111636
0.00110794
0.00109867
0.00108858
0.00107797
0.00106656
0.00105487
0.00104193
0.00102917
0.00101392
0.00100016
0.000980345
0.000964486
0.000934947
3.48674e-05
3.05261e-05
2.74005e-05
2.51564e-05
2.38059e-05
2.34938e-05
2.43334e-05
2.63293e-05
2.93598e-05
3.33113e-05
3.82289e-05
4.45356e-05
5.31133e-05
6.5303e-05
8.25944e-05
0.000106247
0.000136839
0.00017427
0.000217851
0.000266641
0.000319619
0.000375779
0.000434139
0.000493703
0.000553193
0.00061186
0.000669074
0.000724257
0.000776861
0.000826417
0.000872508
0.00091479
0.000952993
0.000986916
0.00101644
0.00104152
0.0010622
0.00107862
0.00109099
0.00109961
0.00110485
0.0011071
0.00110671
0.00110403
0.00109942
0.00109324
0.00108588
0.00107759
0.00106871
0.00105929
0.00104961
0.00103943
0.00102919
0.00101804
0.00100724
0.000994357
0.000983032
0.000966177
0.000953089
0.000926557
3.48776e-05
3.0571e-05
2.74838e-05
2.52484e-05
2.38449e-05
2.34112e-05
2.40948e-05
2.59642e-05
2.89661e-05
3.30145e-05
3.81172e-05
4.45869e-05
5.31524e-05
6.49973e-05
8.15232e-05
0.00010401
0.000133173
0.000169071
0.000211148
0.000258532
0.000310217
0.00036519
0.000422459
0.000481008
0.000539527
0.000597292
0.000653627
0.000707933
0.000759654
0.000808306
0.000853467
0.000894789
0.000931997
0.000964892
0.000993356
0.00101736
0.00103694
0.00105226
0.00106355
0.00107112
0.00107535
0.00107666
0.00107544
0.00107206
0.00106693
0.00106042
0.00105296
0.00104482
0.00103634
0.0010276
0.00101885
0.00100989
0.00100111
0.000991732
0.00098287
0.000972334
0.000963408
0.00094951
0.000939173
0.000915793
3.48859e-05
3.06095e-05
2.75577e-05
2.53333e-05
2.3884e-05
2.33321e-05
2.38441e-05
2.55403e-05
2.84344e-05
3.24842e-05
3.76868e-05
4.42702e-05
5.28231e-05
6.43673e-05
8.01916e-05
0.000101559
0.00012929
0.000163593
0.000204054
0.000249887
0.000300118
0.00035374
0.000409749
0.000467117
0.000524521
0.000581238
0.00063656
0.000689866
0.000740587
0.000788232
0.00083237
0.000872647
0.000908787
0.00094059
0.000967943
0.000990816
0.00100928
0.00102347
0.00103366
0.00104017
0.0010434
0.00104378
0.00104174
0.00103768
0.00103204
0.00102524
0.00101769
0.00100973
0.00100166
0.000993604
0.000985798
0.000978067
0.000970732
0.000963129
0.00095619
0.000947985
0.000941427
0.000930478
0.000922877
0.000902776
3.48925e-05
3.06426e-05
2.76232e-05
2.54118e-05
2.39244e-05
2.32617e-05
2.35962e-05
2.50856e-05
2.78039e-05
3.17609e-05
3.69659e-05
4.35899e-05
5.2101e-05
6.33639e-05
7.85373e-05
9.88352e-05
0.000125145
0.000157809
0.000196562
0.000240714
0.000289343
0.000341455
0.000396044
0.000452073
0.000508219
0.000563747
0.000617922
0.000670105
0.000719715
0.000766248
0.00080927
0.000848419
0.000883417
0.000914066
0.000940254
0.00096196
0.000979256
0.00099231
0.00100138
0.00100682
0.00100905
0.00100851
0.00100567
0.00100097
0.000994848
0.00098777
0.000980172
0.000972397
0.000964767
0.000957422
0.000950569
0.000944078
0.000938195
0.000932359
0.000927331
0.000921441
0.000917221
0.000909216
0.000904332
0.000887625
3.48978e-05
3.06711e-05
2.76813e-05
2.54844e-05
2.39667e-05
2.32033e-05
2.3362e-05
2.4624e-05
2.71127e-05
3.08912e-05
3.59966e-05
4.25701e-05
5.09837e-05
6.19575e-05
7.65113e-05
9.57828e-05
0.000120691
0.00015169
0.000188657
0.000231014
0.000277904
0.000328357
0.000381372
0.000435907
0.000490658
0.000544859
0.000597759
0.000648697
0.000697084
0.000742405
0.000784218
0.000822158
0.000855942
0.000885375
0.000910347
0.000930844
0.000946947
0.000958836
0.000966784
0.000971155
0.000972385
0.000970949
0.000967333
0.000962001
0.000955437
0.000948118
0.000940498
0.000932943
0.000925777
0.000919161
0.00091328
0.00090804
0.000903615
0.000899545
0.000896419
0.000892831
0.000890923
0.00088585
0.000883667
0.000870455
3.49021e-05
3.06958e-05
2.7733e-05
2.55516e-05
2.40108e-05
2.31585e-05
2.31495e-05
2.41752e-05
2.6396e-05
2.99232e-05
3.48311e-05
4.12528e-05
4.94914e-05
6.01413e-05
7.40835e-05
9.23597e-05
0.000115887
0.000145205
0.000180324
0.000220785
0.000265808
0.000314461
0.000365757
0.000418648
0.000471871
0.000524613
0.00057611
0.000625686
0.000672741
0.00071675
0.000757264
0.000793914
0.000826416
0.000854573
0.000878281
0.000897532
0.000912414
0.000923119
0.000929935
0.00093324
0.000933486
0.000931171
0.000926804
0.000920881
0.000913907
0.000906382
0.000898776
0.000891473
0.000884799
0.000878938
0.000874048
0.000870073
0.000867115
0.000864812
0.000863581
0.000862281
0.00086266
0.000860509
0.00086101
0.000851379
3.49056e-05
3.07171e-05
2.77789e-05
2.56137e-05
2.40564e-05
2.31276e-05
2.29633e-05
2.3754e-05
2.56841e-05
2.8904e-05
3.3527e-05
3.96946e-05
4.7666e-05
5.79332e-05
7.12474e-05
8.85424e-05
0.000110705
0.000138332
0.000171551
0.000210025
0.000253062
0.000299782
0.000349218
0.000400332
0.00045189
0.000503042
0.000553013
0.000601112
0.000646729
0.000689328
0.000728457
0.000763741
0.000794893
0.00082172
0.000844118
0.000862087
0.000875726
0.000885235
0.000890915
0.000893161
0.000892441
0.000889273
0.000884188
0.000877709
0.000870365
0.000862675
0.000855121
0.000848107
0.000841958
0.000836877
0.000833
0.000830304
0.000828823
0.000828288
0.000828945
0.00082992
0.000832563
0.000833317
0.000836483
0.000830507
3.49083e-05
3.07356e-05
2.78198e-05
2.5671e-05
2.41029e-05
2.31099e-05
2.28056e-05
2.33709e-05
2.50012e-05
2.78758e-05
3.21429e-05
3.79614e-05
4.55677e-05
5.53759e-05
6.80228e-05
8.43314e-05
0.000105136
0.000131062
0.000162337
0.000198741
0.000239683
0.000284341
0.00033178
0.000380987
0.000430745
0.000480181
0.000528506
0.000575017
0.000619092
0.00066019
0.000697849
0.000731692