/*--------------------------------*- C++ -*----------------------------------*\
| =========                 |                                                 |
| \\      /  F ield         | OpenFOAM: The Open Source CFD Toolbox           |
|  \\    /   O peration     | Version:  2.4.0                                 |
|   \\  /    A nd           | Web:      www.OpenFOAM.org                      |
|    \\/     M anipulation  |                                                 |
\*---------------------------------------------------------------------------*/
FoamFile
{
    version     2.0;
    format      ascii;
    class       surfaceScalarField;
    location    "0.69";
    object      phi_0;
}
// * * * * * * * * * * * * * * * * * * * * * * * * * * * * * * * * * * * * * //

dimensions      [0 3 -1 0 0 0 0];

internalField   nonuniform List<scalar> 
4456
(
2.59038e-06
-9.03759e-08
2.38616e-06
2.04218e-07
2.09106e-06
2.95096e-07
2.44744e-06
-3.56379e-07
2.45899e-06
-1.15506e-08
2.28296e-06
1.76032e-07
2.97518e-06
-6.92221e-07
2.4052e-06
5.69977e-07
2.53264e-06
-1.27437e-07
2.66747e-06
-1.34833e-07
2.2123e-06
4.55171e-07
2.89682e-06
-6.84515e-07
2.81875e-06
7.80654e-08
2.13193e-06
6.8682e-07
3.07839e-06
-9.46461e-07
2.05424e-06
1.02416e-06
1.82125e-06
2.32985e-07
3.40095e-06
-1.5797e-06
2.39951e-06
1.00144e-06
5.77065e-07
1.82245e-06
2.41204e-06
-2.41977e-09
2.82814e-06
-2.11878e-07
2.66131e-06
4.61924e-07
2.44314e-06
-1.38209e-07
2.31885e-06
1.12744e-07
2.59483e-06
-9.99481e-08
2.20598e-06
-3.03375e-07
2.6374e-06
1.38557e-07
2.58932e-06
-7.93589e-08
2.37357e-06
8.09172e-08
2.43117e-06
3.97572e-07
2.42286e-06
-6.76199e-07
2.49114e-06
9.78022e-09
2.36215e-06
8.15813e-07
2.93961e-06
-1.52392e-06
3.08973e-06
8.74038e-07
2.70062e-06
6.22093e-07
2.41581e-06
-1.2949e-06
2.71405e-06
7.03202e-07
8.38474e-07
2.45264e-06
2.35032e-06
1.47257e-07
2.2661e-06
-1.27656e-07
2.71091e-06
1.71136e-08
2.53038e-06
4.23236e-08
2.64228e-06
8.4198e-10
2.55386e-06
-1.153e-08
2.49167e-06
-2.4118e-07
2.62107e-06
9.15504e-09
2.05028e-06
4.91432e-07
2.66511e-06
-5.33918e-07
2.56632e-06
4.96365e-07
2.29133e-06
-4.01213e-07
2.60234e-06
-3.01224e-07
2.61853e-06
7.99621e-07
2.41881e-06
-1.3242e-06
2.92942e-06
3.63436e-07
2.7791e-06
7.72411e-07
2.02641e-06
-5.42206e-07
2.80776e-06
-7.81486e-08
4.21771e-07
3.22446e-06
2.47639e-06
1.70867e-07
2.39602e-06
-4.72855e-08
2.64483e-06
-2.31693e-07
2.5571e-06
1.3005e-07
2.44225e-06
1.15689e-07
2.45681e-06
-2.6086e-08
2.50101e-06
-2.85386e-07
2.49952e-06
1.06541e-08
2.56663e-06
4.2432e-07
2.47853e-06
-4.45823e-07
2.87352e-06
1.0138e-07
2.57658e-06
-1.04275e-07
2.32313e-06
-4.77683e-08
2.82457e-06
2.98172e-07
2.34166e-06
-8.41284e-07
2.68212e-06
2.29766e-08
2.91483e-06
5.39693e-07
2.55225e-06
-1.79619e-07
2.78459e-06
-3.10492e-07
2.02775e-07
3.00358e-06
2.57756e-06
9.33018e-08
2.50416e-06
2.61167e-08
2.50329e-06
-2.30815e-07
2.50222e-06
1.31118e-07
2.37412e-06
2.43788e-07
2.38282e-06
-3.47882e-08
2.48323e-06
-3.85796e-07
2.54694e-06
-5.30533e-08
2.61683e-06
3.54431e-07
2.37797e-06
-2.06966e-07
2.64523e-06
-1.65883e-07
2.55408e-06
-1.31181e-08
2.45958e-06
4.67252e-08
2.54688e-06
2.10871e-07
2.34859e-06
-6.42994e-07
2.68514e-06
-3.1357e-07
2.74261e-06
4.82223e-07
2.56121e-06
1.78141e-09
2.61404e-06
-3.63325e-07
-1.83829e-07
3.00065e-06
2.46556e-06
1.27745e-07
2.42304e-06
6.86295e-08
2.55054e-06
-3.58313e-07
2.54307e-06
1.38591e-07
2.51329e-06
2.73569e-07
2.42096e-06
5.7545e-08
2.43458e-06
-3.99425e-07
2.57193e-06
-1.90402e-07
2.44478e-06
4.81581e-07
2.46231e-06
-2.24493e-07
2.51156e-06
-2.15134e-07
2.4097e-06
8.87386e-08
2.52177e-06
-6.53367e-08
2.57446e-06
1.58179e-07
2.52197e-06
-5.9051e-07
2.56021e-06
-3.51806e-07
2.71742e-06
3.25015e-07
2.63132e-06
8.78803e-08
2.61805e-06
-3.50052e-07
-5.15045e-07
2.94926e-06
2.54261e-06
8.51386e-08
2.50482e-06
1.06419e-07
2.46845e-06
-3.21947e-07
2.57437e-06
3.26691e-08
2.54428e-06
3.03666e-07
2.33888e-06
2.62938e-07
2.34747e-06
-4.08018e-07
2.50893e-06
-3.51857e-07
2.64509e-06
3.45422e-07
2.38485e-06
3.57445e-08
2.53585e-06
-3.66136e-07
2.58592e-06
3.8677e-08
2.40519e-06
1.15391e-07
2.65557e-06
-9.22074e-08
2.38351e-06
-3.18445e-07
2.46344e-06
-4.31737e-07
2.7561e-06
3.23539e-08
2.5681e-06
2.75885e-07
2.71435e-06
-4.96303e-07
-8.19378e-07
3.01868e-06
2.52383e-06
6.13055e-08
2.40172e-06
2.28533e-07
2.39926e-06
-3.19486e-07
2.59797e-06
-1.66045e-07
2.56712e-06
3.34522e-07
2.45343e-06
3.76624e-07
2.55779e-06
-5.12373e-07
2.52383e-06
-3.17899e-07
2.57955e-06
2.89702e-07
2.51747e-06
9.78246e-08
2.49828e-06
-3.46947e-07
2.58147e-06
-4.4519e-08
2.66516e-06
3.17091e-08
2.52964e-06
4.33099e-08
2.56667e-06
-3.5548e-07
2.6091e-06
-4.74159e-07
2.61419e-06
2.72551e-08
2.67799e-06
2.12088e-07
2.79733e-06
-6.15647e-07
-9.21427e-07
2.89938e-06
2.53841e-06
2.28967e-08
2.41881e-06
3.48131e-07
2.47077e-06
-3.71443e-07
2.55085e-06
-2.46128e-07
2.5311e-06
3.54276e-07
2.58159e-06
3.26134e-07
2.54731e-06
-4.78091e-07
2.46757e-06
-2.38165e-07
2.6035e-06
1.53776e-07
2.45419e-06
2.47137e-07
2.39966e-06
-2.92425e-07
2.70753e-06
-3.5239e-07
2.52682e-06
2.12424e-07
2.45722e-06
1.1291e-07
2.64827e-06
-5.46526e-07
2.4849e-06
-3.10794e-07
2.54504e-06
-3.28888e-08
2.67566e-06
8.1469e-08
2.71411e-06
-6.54088e-07
-9.01178e-07
2.69386e-06
2.50379e-06
1.91094e-08
2.44757e-06
4.04346e-07
2.56513e-06
-4.89001e-07
2.54543e-06
-2.26425e-07
2.49073e-06
4.08971e-07
2.53653e-06
2.80341e-07
2.59141e-06
-5.32974e-07
2.44278e-06
-8.95369e-08
2.54269e-06
5.3866e-08
2.53717e-06
2.52659e-07
2.59324e-06
-3.48496e-07
2.68444e-06
-4.4359e-07
2.56419e-06
3.32676e-07
2.56136e-06
1.15734e-07
2.66211e-06
-6.47269e-07
2.58947e-06
-2.38155e-07
2.55695e-06
-3.7361e-10
2.6768e-06
-3.83776e-08
2.6907e-06
-6.67985e-07
-8.26696e-07
2.61621e-06
2.42113e-06
9.79809e-08
2.50241e-06
3.23066e-07
2.65879e-06
-6.45378e-07
2.53459e-06
-1.02231e-07
2.42677e-06
5.16794e-07
2.46068e-06
2.46426e-07
2.59455e-06
-6.66837e-07
2.57525e-06
-7.0244e-08
2.45359e-06
1.75527e-07
2.59213e-06
1.14117e-07
2.61997e-06
-3.76336e-07
2.41814e-06
-2.41751e-07
2.55893e-06
1.91882e-07
2.56029e-06
1.14377e-07
2.56178e-06
-6.48761e-07
2.47323e-06
-1.49609e-07
2.54788e-06
-7.50161e-08
2.6235e-06
-1.14002e-07
2.47436e-06
-5.1884e-07
-8.67599e-07
2.51526e-06
2.46603e-06
1.31956e-07
2.63706e-06
1.52033e-07
2.59627e-06
-6.04594e-07
2.44191e-06
5.21307e-08
2.37429e-06
5.84421e-07
2.50649e-06
1.14227e-07
2.65869e-06
-8.19044e-07
2.545e-06
4.34505e-08
2.60158e-06
1.18943e-07
2.66837e-06
4.73235e-08
2.4292e-06
-1.3716e-07
2.27833e-06
-9.08836e-08
2.5412e-06
-7.09831e-08
2.58599e-06
6.95849e-08
2.39184e-06
-4.54613e-07
2.45163e-06
-2.09402e-07
2.4866e-06
-1.09979e-07
2.52925e-06
-1.56661e-07
2.54906e-06
-5.38644e-07
-8.08575e-07
2.49004e-06
2.4668e-06
1.65161e-07
2.60503e-06
1.37984e-08
2.62687e-06
-6.26431e-07
2.33742e-06
3.41583e-07
2.37049e-06
5.51341e-07
2.70357e-06
-2.18851e-07
2.54416e-06
-6.59628e-07
2.43246e-06
1.55145e-07
2.63206e-06
-8.06581e-08
2.51926e-06
1.60129e-07
2.35177e-06
3.03295e-08
2.35376e-06
-9.28703e-08
2.46412e-06
-1.81352e-07
2.5094e-06
2.43107e-08
2.45679e-06
-4.02006e-07
2.47608e-06
-2.2869e-07
2.41774e-06
-5.16376e-08
2.46374e-06
-2.02668e-07
2.52584e-06
-6.00741e-07
-6.28845e-07
2.34611e-06
2.51171e-06
1.53452e-07
2.65521e-06
-1.29702e-07
2.53711e-06
-5.08335e-07
2.30296e-06
5.75735e-07
2.51216e-06
3.4214e-07
2.62073e-06
-3.2742e-07
2.33993e-06
-3.78826e-07
2.44695e-06
4.81272e-08
2.54893e-06
-1.82644e-07
2.34317e-06
3.65894e-07
2.40642e-06
-3.29233e-08
2.52918e-06
-2.15625e-07
2.36616e-06
-1.83382e-08
2.36492e-06
2.55503e-08
2.43103e-06
-4.68112e-07
2.34854e-06
-1.46205e-07
2.31446e-06
-1.75562e-08
2.53008e-06
-4.18286e-07
2.44011e-06
-5.10764e-07
-3.40796e-07
2.15206e-06
2.57354e-06
7.99124e-08
2.60714e-06
-1.63299e-07
2.36326e-06
-2.64457e-07
2.35316e-06
5.85834e-07
2.6197e-06
7.56023e-08
2.56598e-06
-2.73705e-07
2.31584e-06
-1.28684e-07
2.41914e-06
-5.5175e-08
2.45615e-06
-2.19647e-07
2.35306e-06
4.68982e-07
2.4886e-06
-1.68466e-07
2.47631e-06
-2.03331e-07
2.37958e-06
7.83835e-08
2.4548e-06
-4.96663e-08
2.44527e-06
-4.58583e-07
2.27747e-06
2.1593e-08
2.30158e-06
-4.16674e-08
2.53721e-06
-6.53907e-07
2.35931e-06
-3.32873e-07
-2.45176e-07
2.26369e-06
2.5516e-06
2.83113e-08
2.54063e-06
-1.52328e-07
2.34823e-06
-7.20575e-08
2.46563e-06
4.68437e-07
2.6293e-06
-8.80706e-08
2.55022e-06
-1.94621e-07
2.35055e-06
7.09867e-08
2.46995e-06
-1.74579e-07
2.44314e-06
-1.92836e-07
2.42818e-06
4.83942e-07
2.50339e-06
-2.43679e-07
2.38135e-06
-8.12924e-08
2.3568e-06
1.02933e-07
2.52493e-06
-2.17792e-07
2.44985e-06
-3.83502e-07
2.27037e-06
2.01071e-07
2.32447e-06
-9.57696e-08
2.35875e-06
-6.8818e-07
2.20912e-06
-1.83249e-07
-3.50944e-07
2.31489e-06
2.55662e-06
-2.8304e-08
2.48107e-06
-7.67829e-08
2.36846e-06
4.05564e-08
2.54056e-06
2.96333e-07
2.57328e-06
-1.20786e-07
2.54404e-06
-1.65384e-07
2.4631e-06
1.51923e-07
2.44282e-06
-1.54299e-07
2.48912e-06
-2.39135e-07
2.45267e-06
5.20397e-07
2.43772e-06
-2.28727e-07
2.38774e-06
-3.13183e-08
2.38945e-06
1.01224e-07
2.58625e-06
-4.14588e-07
2.45617e-06
-2.53425e-07
2.25528e-06
4.01958e-07
2.31142e-06
-1.51904e-07
2.30237e-06
-6.79135e-07
2.17088e-06
-5.17595e-08
-5.08368e-07
2.32831e-06
2.47763e-06
-5.93719e-09
2.51588e-06
-1.15027e-07
2.47343e-06
8.30081e-08
2.56615e-06
2.03609e-07
2.5502e-06
-1.04837e-07
2.52452e-06
-1.39708e-07
2.51832e-06
1.58123e-07
2.46523e-06
-1.0121e-07
2.4202e-06
-1.94104e-07
2.48973e-06
4.50867e-07
2.46192e-06
-2.00918e-07
2.46415e-06
-3.35453e-08
2.49929e-06
6.60901e-08
2.55805e-06
-4.73354e-07
2.36467e-06
-6.00431e-08
2.32578e-06
4.40843e-07
2.42995e-06
-2.56069e-07
2.15054e-06
-3.9973e-07
2.15474e-06
-5.59546e-08
-6.05108e-07
2.25148e-06
2.51129e-06
-1.72259e-08
2.49628e-06
-1.00018e-07
2.52096e-06
5.83288e-08
2.60903e-06
1.15536e-07
2.47044e-06
3.37565e-08
2.46114e-06
-1.30413e-07
2.55302e-06
6.62442e-08
2.47727e-06
-2.54596e-08
2.40364e-06
-1.20469e-07
2.53261e-06
3.21893e-07
2.52616e-06
-1.94461e-07
2.53448e-06
-4.18698e-08
2.54787e-06
5.26966e-08
2.4243e-06
-3.49781e-07
2.21227e-06
1.51986e-07
2.42158e-06
2.3153e-07
2.40161e-06
-2.36091e-07
2.10487e-06
-1.0299e-07
2.1414e-06
-9.2484e-08
-4.11569e-07
1.94786e-06
2.48277e-06
2.38276e-06
2.44108e-06
2.55662e-06
2.59038e-06
2.45996e-06
2.52621e-06
2.50075e-06
2.38028e-06
2.70217e-06
2.50771e-06
2.46584e-06
2.51854e-06
2.16876e-06
2.32074e-06
2.55227e-06
2.31618e-06
2.21319e-06
2.12071e-06
1.70914e-06
3.55964e-06
-1.73719e-06
2.33281e-06
1.22683e-06
2.44062e-06
-1.07813e-07
3.84201e-06
-1.40138e-06
2.93312e-06
9.08891e-07
4.06465e-06
-1.13153e-06
4.21258e-06
-1.47935e-07
-5.64816e-07
4.7774e-06
3.07313e-06
-2.35767e-06
3.68146e-06
6.18493e-07
3.30828e-06
2.65371e-07
3.12975e-06
-1.22285e-06
3.24596e-06
7.9268e-07
3.46228e-06
-1.34786e-06
3.94545e-06
-6.31099e-07
-7.38105e-07
4.11874e-06
2.5994e-06
-1.73261e-06
3.48444e-06
-2.66553e-07
3.48e-06
2.69812e-07
3.39109e-06
-1.13394e-06
3.98896e-06
1.94819e-07
3.63334e-06
-9.92236e-07
3.92721e-06
-9.24973e-07
-1.47561e-06
4.66471e-06
2.78226e-06
-1.51129e-06
3.32057e-06
-8.04861e-07
3.47401e-06
1.16368e-07
3.60729e-06
-1.26723e-06
3.83698e-06
-3.48667e-08
3.94471e-06
-1.09996e-06
4.33079e-06
-1.31106e-06
-1.8312e-06
4.68638e-06
2.72208e-06
-1.23272e-06
3.00925e-06
-1.09204e-06
3.31929e-06
-1.93671e-07
3.07715e-06
-1.02508e-06
3.69781e-06
-6.55531e-07
3.89601e-06
-1.29817e-06
3.9633e-06
-1.37834e-06
-2.36672e-06
4.49882e-06
2.9665e-06
-1.24996e-06
2.97564e-06
-1.10118e-06
3.16088e-06
-3.78916e-07
3.14411e-06
-1.00831e-06
3.63231e-06
-1.14373e-06
3.65328e-06
-1.31913e-06
3.90296e-06
-1.62802e-06
-2.85099e-06
4.38724e-06
2.81156e-06
-1.04283e-06
2.76663e-06
-1.05625e-06
3.12274e-06
-7.35034e-07
3.30623e-06
-1.1918e-06
3.54904e-06
-1.38654e-06
3.73562e-06
-1.50571e-06
4.12899e-06
-2.02138e-06
-3.0868e-06
4.36479e-06
2.77911e-06
-9.22558e-07
2.79715e-06
-1.07429e-06
3.07607e-06
-1.01395e-06
3.26001e-06
-1.37574e-06
3.47559e-06
-1.60211e-06
3.70792e-06
-1.73805e-06
4.00536e-06
-2.31882e-06
-3.45901e-06
4.37758e-06
2.62278e-06
-8.51477e-07
2.63781e-06
-1.08932e-06
2.95757e-06
-1.33371e-06
3.04779e-06
-1.46596e-06
3.16981e-06
-1.72414e-06
3.45103e-06
-2.01926e-06
3.84867e-06
-2.71646e-06
-3.70207e-06
4.09173e-06
2.58232e-06
-8.17583e-07
2.58324e-06
-1.09024e-06
2.6977e-06
-1.44818e-06
2.79806e-06
-1.56631e-06
2.93037e-06
-1.85645e-06
3.17463e-06
-2.26352e-06
3.44447e-06
-2.9863e-06
-3.78903e-06
3.53142e-06
2.60256e-06
-9.0489e-07
2.49381e-06
-9.81482e-07
2.59615e-06
-1.55052e-06
2.81932e-06
-1.78949e-06
2.91125e-06
-1.94838e-06
2.92068e-06
-2.27295e-06
3.0112e-06
-3.07683e-06
-3.82033e-06
3.0425e-06
2.45113e-06
-8.65989e-07
2.48738e-06
-1.01773e-06
2.77182e-06
-1.83496e-06
2.91185e-06
-1.92951e-06
2.81092e-06
-1.84745e-06
2.68973e-06
-2.15176e-06
2.69662e-06
-3.08372e-06
-3.59193e-06
2.46823e-06
2.24246e-06
-7.62342e-07
2.59804e-06
-1.37331e-06
2.78521e-06
-2.02213e-06
2.61835e-06
-1.76265e-06
2.3708e-06
-1.5999e-06
2.35386e-06
-2.13482e-06
2.27519e-06
-3.00505e-06
-3.27021e-06
1.95346e-06
2.36651e-06
-9.76795e-07
2.56775e-06
-1.57455e-06
2.45763e-06
-1.91201e-06
2.31717e-06
-1.62219e-06
2.31191e-06
-1.59465e-06
2.1469e-06
-1.96981e-06
1.72949e-06
-2.58763e-06
-3.03239e-06
1.49166e-06
2.4513e-06
-1.1644e-06
2.42203e-06
-1.54528e-06
2.26445e-06
-1.75443e-06
2.10513e-06
-1.46287e-06
2.02613e-06
-1.51564e-06
1.78481e-06
-1.72849e-06
1.18655e-06
-1.98937e-06
-2.76711e-06
9.21273e-07
2.39374e-06
-1.24325e-06
2.25541e-06
-1.40696e-06
2.06058e-06
-1.55959e-06
1.84722e-06
-1.24951e-06
1.8044e-06
-1.47283e-06
1.42439e-06
-1.34848e-06
7.54887e-07
-1.31987e-06
-2.21737e-06
2.05142e-07
2.26224e-06
-1.17718e-06
1.88649e-06
-1.0312e-06
1.59566e-06
-1.26877e-06
1.47082e-06
-1.12467e-06
1.41921e-06
-1.42121e-06
1.11942e-06
-1.04869e-06
5.15465e-07
-7.15915e-07
-1.65156e-06
-5.03418e-08
1.88286e-06
-8.08562e-07
1.50636e-06
-6.547e-07
1.2402e-06
-1.00261e-06
1.11305e-06
-9.97522e-07
1.00728e-06
-1.31544e-06
9.97171e-07
-1.03858e-06
4.58527e-07
-1.77271e-07
-4.75823e-07
-7.17212e-07
1.59919e-06
-4.59899e-07
1.25274e-06
-3.08246e-07
9.11681e-07
-6.61552e-07
6.86987e-07
-7.72827e-07
2.25394e-07
-8.53843e-07
-1.60538e-08
-7.97132e-07
7.15511e-08
-2.64876e-07
5.78895e-07
-9.83167e-07
1.33329e-06
-8.40539e-08
9.01025e-07
1.24024e-07
5.11038e-07
-2.71566e-07
9.23663e-08
-3.54155e-07
-7.8497e-07
2.34926e-08
-1.32754e-06
-2.54564e-07
-1.23338e-06
-3.59035e-07
-1.83034e-06
1.17585e-06
4.54065e-06
2.36746e-07
5.42735e-06
-8.86699e-07
6.36096e-06
-9.33611e-07
6.87426e-06
-5.13302e-07
7.69467e-06
-8.20404e-07
7.90802e-06
-2.13351e-07
8.45472e-06
-5.46696e-07
8.57829e-06
-1.23575e-07
8.98705e-06
-4.0876e-07
9.34962e-06
-3.6257e-07
9.74515e-06
-3.95531e-07
1.03373e-05
-5.92113e-07
1.07486e-05
-4.11299e-07
1.11166e-05
-3.68083e-07
1.13022e-05
-1.85541e-07
1.11837e-05
1.18472e-07
1.08942e-05
2.89535e-07
1.05537e-05
3.40509e-07
1.01733e-05
3.80398e-07
9.56313e-06
6.10146e-07
8.87035e-06
6.92779e-07
8.28439e-06
5.85961e-07
7.66055e-06
6.23838e-07
7.47949e-06
1.8106e-07
7.05458e-06
4.24911e-07
6.73776e-06
3.16816e-07
5.29813e-06
1.43963e-06
5.61099e-07
4.73703e-06
4.19626e-06
1.59219e-07
5.37562e-06
-2.06605e-06
5.84047e-06
-1.39847e-06
6.4184e-06
-1.09123e-06
7.10275e-06
-1.50476e-06
7.54338e-06
-6.53978e-07
8.2151e-06
-1.21842e-06
8.53641e-06
-4.44878e-07
9.06956e-06
-9.41914e-07
9.41564e-06
-7.08653e-07
9.88015e-06
-8.60035e-07
1.02722e-05
-9.8415e-07
1.05067e-05
-6.45862e-07
1.07872e-05
-6.48515e-07
1.08799e-05
-2.78281e-07
1.08537e-05
1.44713e-07
1.0778e-05
3.65205e-07
1.05975e-05
5.21004e-07
1.02528e-05
7.2509e-07
9.75778e-06
1.10519e-06
9.27724e-06
1.17331e-06
8.52303e-06
1.34018e-06
7.78833e-06
1.35854e-06
7.09233e-06
8.77055e-07
5.98902e-06
1.52822e-06
5.68476e-06
6.21072e-07
4.75263e-06
2.37176e-06
9.96902e-07
4.31683e-06
5.45298e-06
-6.29046e-07
5.88663e-06
-2.49971e-06
6.29566e-06
-1.80749e-06
6.55868e-06
-1.35425e-06
6.91814e-06
-1.86422e-06
7.5187e-06
-1.25453e-06
8.17762e-06
-1.87735e-06
8.75614e-06
-1.0234e-06
9.30101e-06
-1.48678e-06
9.85829e-06
-1.26593e-06
1.03419e-05
-1.34368e-06
1.07489e-05
-1.39115e-06
1.09834e-05
-8.80327e-07
1.13488e-05
-1.01395e-06
1.12826e-05
-2.12016e-07
1.13722e-05
5.50733e-08
1.12299e-05
5.07552e-07
1.09706e-05
7.8029e-07
1.05284e-05
1.16726e-06
1.00043e-05
1.62934e-06
9.43483e-06
1.74274e-06
8.7815e-06
1.9935e-06
8.0253e-06
2.11474e-06
7.23123e-06
1.67112e-06
6.06549e-06
2.69397e-06
5.65963e-06
1.02694e-06
5.23022e-06
2.80116e-06
1.64673e-06
4.58039e-06
5.35823e-06
-1.3009e-06
5.60232e-06
-2.7438e-06
6.15619e-06
-2.36136e-06
6.67632e-06
-1.87438e-06
7.31271e-06
-2.50061e-06
7.8465e-06
-1.78832e-06
8.18232e-06
-2.21317e-06
8.61719e-06
-1.45826e-06
9.06905e-06
-1.93865e-06
9.58009e-06
-1.77697e-06
1.00683e-05
-1.83191e-06
1.05268e-05
-1.84965e-06
1.08691e-05
-1.22256e-06
1.11902e-05
-1.33512e-06
1.12453e-05
-2.6711e-07
1.13462e-05
-4.58586e-08
1.13243e-05
5.29537e-07
1.10389e-05
1.06566e-06
1.06299e-05
1.57627e-06
1.01256e-05
2.13361e-06
9.47784e-06
2.39052e-06
8.65609e-06
2.81525e-06
7.79341e-06
2.97742e-06
7.02468e-06
2.43986e-06
6.2635e-06
3.45515e-06
5.67898e-06
1.61145e-06
5.32405e-06
3.15609e-06
1.94681e-06
5.02398e-06
5.37018e-06
-2.17226e-06
5.77956e-06
-3.15318e-06
6.2273e-06
-2.8091e-06
6.70749e-06
-2.35457e-06
7.09769e-06
-2.89081e-06
7.53719e-06
-2.22783e-06
7.83353e-06
-2.50951e-06
8.46231e-06
-2.08704e-06
8.95579e-06
-2.43213e-06
9.52868e-06
-2.34986e-06
1.00813e-05
-2.3845e-06
1.04931e-05
-2.26145e-06
1.08751e-05
-1.60455e-06
1.10844e-05
-1.54442e-06
1.1142e-05
-3.24703e-07
1.13312e-05
-2.35135e-07
1.11602e-05
7.00587e-07
1.09632e-05
1.26263e-06
1.05929e-05
1.94654e-06
1.01476e-05
2.57897e-06
9.55251e-06
2.98559e-06
8.82028e-06
3.54748e-06
7.91341e-06
3.88429e-06
6.95583e-06
3.39744e-06
6.27979e-06
4.13118e-06
5.53194e-06
2.35931e-06
5.07206e-06
3.61597e-06
2.24282e-06
4.77604e-06
5.21472e-06
-2.99974e-06
5.68978e-06
-3.62824e-06
6.20174e-06
-3.32106e-06
6.62709e-06
-2.77992e-06
6.8354e-06
-3.09912e-06
7.32562e-06
-2.71804e-06
7.79239e-06
-2.97628e-06
8.37282e-06
-2.66748e-06
8.77096e-06
-2.83027e-06
9.39313e-06
-2.97203e-06
9.88409e-06
-2.87545e-06
1.03284e-05
-2.70571e-06
1.07826e-05
-2.05881e-06
1.09662e-05
-1.72799e-06
1.10845e-05
-4.43051e-07
1.12191e-05
-3.69666e-07
1.09765e-05
9.43147e-07
1.08916e-05
1.3475e-06
1.0563e-05
2.27518e-06
1.01348e-05
3.00711e-06
9.51662e-06
3.60381e-06
8.73008e-06
4.33401e-06
7.97e-06
4.64437e-06
7.03407e-06
4.33337e-06
6.35376e-06
4.81149e-06
5.48446e-06
3.22862e-06
5.02546e-06
4.07496e-06
2.73088e-06
4.5374e-06
5.14352e-06
-3.77847e-06
5.58441e-06
-4.06912e-06
5.96626e-06
-3.70291e-06
6.31796e-06
-3.13162e-06
6.53549e-06
-3.31665e-06
7.10687e-06
-3.28943e-06
7.52857e-06
-3.39797e-06
8.03287e-06
-3.17178e-06
8.56373e-06
-3.36112e-06
9.10822e-06
-3.51652e-06
9.44862e-06
-3.21585e-06
9.81473e-06
-3.07182e-06
1.01267e-05
-2.3708e-06
1.01742e-05
-1.77545e-06
1.02919e-05
-5.60804e-07
1.02183e-05
-2.9605e-07
1.00602e-05
1.10132e-06
1.00017e-05
1.40594e-06
9.84419e-06
2.4327e-06
9.54823e-06
3.30308e-06
9.10102e-06
4.05102e-06
8.48651e-06
4.94852e-06
7.85865e-06
5.27224e-06
7.08961e-06
5.10241e-06
6.39374e-06
5.50735e-06
5.47912e-06
4.14324e-06
4.96825e-06
4.58583e-06
3.19951e-06
4.49962e-06
4.8703e-06
-4.2712e-06
5.05253e-06
-4.25135e-06
5.41982e-06
-4.07021e-06
5.77908e-06
-3.49087e-06
6.09625e-06
-3.63383e-06
6.60327e-06
-3.79645e-06
6.94722e-06
-3.74192e-06
7.46881e-06
-3.69337e-06
7.94415e-06
-3.83646e-06
8.21691e-06
-3.78928e-06
8.46997e-06
-3.46892e-06
8.74104e-06
-3.34289e-06
8.89157e-06
-2.52134e-06
8.97704e-06
-1.86092e-06
9.13208e-06
-7.15848e-07
8.96562e-06
-1.29586e-07
8.89754e-06
1.1694e-06
8.74663e-06
1.55685e-06
8.56396e-06
2.61537e-06
8.4432e-06
3.42384e-06
8.08292e-06
4.4113e-06
7.75928e-06
5.27216e-06
7.33895e-06
5.69257e-06
6.73457e-06
5.70679e-06
6.33591e-06
5.90601e-06
5.50825e-06
4.9709e-06
4.92291e-06
5.17118e-06
3.65038e-06
4.47204e-06
4.1655e-06
-4.34497e-06
4.34172e-06
-4.42757e-06
4.55271e-06
-4.2812e-06
4.80421e-06
-3.74237e-06
5.21264e-06
-4.04226e-06
5.7246e-06
-4.3084e-06
6.2275e-06
-4.24482e-06
6.62118e-06
-4.08706e-06
6.80559e-06
-4.02088e-06
6.95793e-06
-3.94162e-06
7.20171e-06
-3.7127e-06
7.32796e-06
-3.46914e-06
7.39518e-06
-2.58856e-06
7.51731e-06
-1.98304e-06
7.62694e-06
-8.25483e-07
7.44784e-06
4.95198e-08
7.48999e-06
1.12725e-06
7.26677e-06
1.78007e-06
7.08321e-06
2.79892e-06
7.07036e-06
3.43669e-06
6.80383e-06
4.67782e-06
6.77896e-06
5.29704e-06
6.59746e-06
5.87407e-06
6.03015e-06
6.2741e-06
5.89785e-06
6.0383e-06
5.43508e-06
5.43368e-06
4.85208e-06
5.75418e-06
4.15686e-06
4.34559e-06
3.54177e-06
-4.35531e-06
3.54312e-06
-4.42893e-06
3.63516e-06
-4.37324e-06
4.03052e-06
-4.13773e-06
4.53453e-06
-4.54627e-06
4.91226e-06
-4.68613e-06
5.14862e-06
-4.48118e-06
5.21237e-06
-4.15081e-06
5.39628e-06
-4.20478e-06
5.59545e-06
-4.14078e-06
5.70533e-06
-3.82258e-06
5.77702e-06
-3.54083e-06
6.00774e-06
-2.81927e-06
6.09177e-06
-2.06708e-06
6.00762e-06
-7.41327e-07
5.8472e-06
2.09942e-07
5.84733e-06
1.12712e-06
5.67407e-06
1.95332e-06
5.59509e-06
2.8779e-06
5.57712e-06
3.45467e-06
5.33539e-06
4.91955e-06
5.44368e-06
5.18874e-06
5.46737e-06
5.85038e-06
5.24961e-06
6.49186e-06
5.03783e-06
6.25008e-06
4.75267e-06
5.71884e-06
4.59501e-06
5.91183e-06
4.62958e-06
4.12229e-06
2.79967e-06
-4.11248e-06
2.7149e-06
-4.34416e-06
2.90576e-06
-4.56409e-06
3.21078e-06
-4.44276e-06
3.46314e-06
-4.79863e-06
3.63982e-06
-4.86281e-06
3.81184e-06
-4.6532e-06
3.95943e-06
-4.29841e-06
4.03397e-06
-4.27932e-06
3.99207e-06
-4.09888e-06
3.95358e-06
-3.78409e-06
3.95144e-06
-3.5387e-06
3.95877e-06
-2.8266e-06
3.84659e-06
-1.95491e-06
3.94322e-06
-8.37948e-07
4.06045e-06
9.27093e-08
3.97161e-06
1.21596e-06
3.85495e-06
2.06998e-06
3.84352e-06
2.88934e-06
3.86022e-06
3.43796e-06
3.92408e-06
4.85569e-06
3.92861e-06
5.18422e-06
3.92604e-06
5.85295e-06
4.11532e-06
6.30259e-06
4.23661e-06
6.12878e-06
3.9991e-06
5.95636e-06
3.97069e-06
5.94024e-06
4.69069e-06
3.90958e-06
2.19177e-06
-3.83601e-06
2.19539e-06
-4.34779e-06
2.18488e-06
-4.55357e-06
2.28679e-06
-4.54467e-06
2.42712e-06
-4.93896e-06
2.51251e-06
-4.9482e-06
2.53887e-06
-4.67957e-06
2.45046e-06
-4.20999e-06
2.31899e-06
-4.14785e-06
2.2149e-06
-3.99479e-06
2.06329e-06
-3.63248e-06
1.91236e-06
-3.38777e-06
1.82826e-06
-2.7425e-06
1.79503e-06
-1.92167e-06
1.87562e-06
-9.18542e-07
1.81385e-06
1.54483e-07
1.82807e-06
1.20174e-06
2.01927e-06
1.87878e-06
2.11106e-06
2.79755e-06
1.98716e-06
3.56186e-06
2.10109e-06
4.74177e-06
2.35412e-06
4.93119e-06
2.59703e-06
5.61004e-06
2.79061e-06
6.109e-06
2.9739e-06
5.94549e-06
3.13815e-06
5.79211e-06
3.18304e-06
5.89535e-06
4.74117e-06
3.13256e-06
1.75303e-06
-3.63558e-06
1.60753e-06
-4.20228e-06
1.47803e-06
-4.42408e-06
1.32559e-06
-4.39222e-06
1.28785e-06
-4.90122e-06
1.26703e-06
-4.92738e-06
1.04636e-06
-4.45889e-06
7.67784e-07
-3.93142e-06
4.99052e-07
-3.87912e-06
3.36403e-07
-3.83214e-06
1.9965e-07
-3.49572e-06
4.966e-10
-3.18862e-06
-1.83792e-07
-2.55821e-06
-3.14435e-07
-1.79103e-06
-3.85739e-07
-8.47237e-07
-3.45333e-07
1.14076e-07
-1.69164e-07
1.02557e-06
-1.33925e-07
1.84354e-06
-1.04787e-07
2.76841e-06
1.41658e-07
3.31542e-06
4.81784e-07
4.40164e-06
5.82409e-07
4.83056e-06
9.24123e-07
5.26833e-06
1.43746e-06
5.59567e-06
1.74426e-06
5.63869e-06
1.96724e-06
5.56913e-06
2.25902e-06
5.60356e-06
4.45706e-06
2.54313e-06
1.26842e-06
-3.41234e-06
8.899e-07
-3.82376e-06
4.77572e-07
-4.01175e-06
3.04817e-07
-4.21947e-06
9.47069e-08
-4.69111e-06
-2.54136e-07
-4.57854e-06
-5.21577e-07
-4.19145e-06
-8.12473e-07
-3.64052e-06
-1.20329e-06
-3.4883e-06
-1.53569e-06
-3.49974e-06
-1.77336e-06
-3.25806e-06
-2.00979e-06
-2.95219e-06
-2.23321e-06
-2.33479e-06
-2.43011e-06
-1.59413e-06
-2.50894e-06
-7.68405e-07
-2.47576e-06
8.08926e-08
-2.39321e-06
9.43018e-07
-2.22522e-06
1.67555e-06
-1.92635e-06
2.46954e-06
-1.72859e-06
3.11766e-06
-1.46665e-06
4.1397e-06
-9.60284e-07
4.3242e-06
-2.85664e-07
4.59371e-06
5.93122e-08
5.25069e-06
3.5654e-07
5.34146e-06
1.0124e-06
4.91327e-06
1.42399e-06
5.19198e-06
4.18512e-06
1.69593e-06
5.97705e-07
-3.08877e-06
1.0691e-08
-3.23674e-06
-4.00269e-07
-3.60079e-06
-8.64548e-07
-3.75519e-06
-1.1736e-06
-4.38206e-06
-1.60878e-06
-4.14335e-06
-2.15478e-06
-3.64545e-06
-2.56516e-06
-3.23015e-06
-2.99011e-06
-3.06335e-06
-3.40171e-06
-3.08814e-06
-3.73468e-06
-2.92509e-06
-4.05757e-06
-2.6293e-06
-4.32649e-06
-2.06586e-06
-4.51744e-06
-1.40318e-06
-4.61421e-06
-6.7164e-07
-4.6179e-06
8.45806e-08
-4.49944e-06
8.24567e-07
-4.27896e-06
1.45507e-06
-4.01247e-06
2.20305e-06
-3.70465e-06
2.80983e-06
-3.09898e-06
3.53403e-06
-2.5574e-06
3.78262e-06
-2.14986e-06
4.18617e-06
-1.50594e-06
4.60677e-06
-7.76305e-07
4.61183e-06
-3.20547e-07
4.45751e-06
3.98365e-07
4.47306e-06
3.47933e-06
1.10415e-06
-2.63884e-09
-2.88099e-06
-5.82434e-07
-2.65695e-06
-1.24984e-06
-2.93338e-06
-1.70502e-06
-3.30001e-06
-2.39436e-06
-3.69272e-06
-3.02021e-06
-3.5175e-06
-3.55884e-06
-3.10682e-06
-4.04028e-06
-2.7487e-06
-4.50002e-06
-2.60361e-06
-5.06781e-06
-2.52035e-06
-5.55515e-06
-2.43775e-06
-5.97429e-06
-2.21016e-06
-6.305e-06
-1.73516e-06
-6.51094e-06
-1.19724e-06
-6.63073e-06
-5.51843e-07
-6.61766e-06
7.15058e-08
-6.47187e-06
6.78776e-07
-6.24354e-06
1.22674e-06
-5.88217e-06
1.84168e-06
-5.42575e-06
2.35341e-06
-4.84664e-06
2.95492e-06
-4.29956e-06
3.23554e-06
-3.5572e-06
3.44381e-06
-2.68264e-06
3.73221e-06
-2.13134e-06
4.06052e-06
-1.31477e-06
3.64094e-06
-4.47033e-07
3.60533e-06
2.84052e-06
1.91782e-07
-4.94305e-07
-2.43703e-06
-1.36835e-06
-1.7829e-06
-2.08354e-06
-2.2182e-06
-2.68582e-06
-2.69773e-06
-3.43693e-06
-2.94161e-06
-4.17665e-06
-2.77778e-06
-4.9023e-06
-2.38118e-06
-5.57289e-06
-2.07811e-06
-6.1322e-06
-2.0443e-06
-6.66206e-06
-1.99049e-06
-7.22023e-06
-1.87958e-06
-7.67577e-06
-1.75461e-06
-8.05678e-06
-1.35415e-06
-8.30706e-06
-9.46958e-07
-8.42e-06
-4.38907e-07
-8.41815e-06
6.96595e-08
-8.26014e-06
5.20757e-07
-8.00499e-06
9.71594e-07
-7.59836e-06
1.43505e-06
-7.11712e-06
1.87218e-06
-6.46143e-06
2.29923e-06
-5.68218e-06
2.45629e-06
-4.85677e-06
2.6184e-06
-4.12735e-06
3.00279e-06
-3.22351e-06
3.15668e-06
-2.29611e-06
2.71355e-06
-1.5238e-06
2.83302e-06
2.25434e-06
-9.37622e-07
-1.40691e-06
-1.74733e-06
-2.11006e-06
-1.07976e-06
-2.88853e-06
-1.43972e-06
-3.69769e-06
-1.88858e-06
-4.57008e-06
-2.06921e-06
-5.404e-06
-1.94386e-06
-6.07826e-06
-1.70692e-06
-6.7243e-06
-1.43207e-06
-7.36643e-06
-1.40217e-06
-7.96501e-06
-1.39191e-06
-8.57579e-06
-1.2688e-06
-9.11579e-06
-1.21461e-06
-9.54541e-06
-9.24538e-07
-9.8378e-06
-6.5456e-07
-1.00032e-05
-2.73552e-07
-9.97901e-06
4.55069e-08
-9.84904e-06
3.90793e-07
-9.5443e-06
6.6685e-07
-9.12405e-06
1.0148e-06
-8.55176e-06
1.29988e-06
-7.80816e-06
1.55563e-06
-6.98419e-06
1.63232e-06
-6.19119e-06
1.82541e-06
-5.30636e-06
2.11796e-06
-4.19248e-06
2.0428e-06
-3.39938e-06
1.92045e-06
-2.46239e-06
1.89602e-06
1.56887e-06
-1.77693e-06
-2.09712e-06
-6.33377e-07
-2.77712e-06
-3.99754e-07
-3.42921e-06
-7.8763e-07
-4.31605e-06
-1.00174e-06
-5.26802e-06
-1.11724e-06
-6.22227e-06
-9.89604e-07
-7.06616e-06
-8.63035e-07
-7.7347e-06
-7.63533e-07
-8.42513e-06
-7.11734e-07
-9.09991e-06
-7.17123e-07
-9.7192e-06
-6.49519e-07
-1.03254e-05
-6.08436e-07
-1.07522e-05
-4.97671e-07
-1.10985e-05
-3.0829e-07
-1.12047e-05
-1.67332e-07
-1.12111e-05
5.18523e-08
-1.10111e-05
1.90834e-07
-1.06855e-05
3.41229e-07
-1.02053e-05
5.34564e-07
-9.56644e-06
6.61066e-07
-8.81902e-06
8.08213e-07
-7.99227e-06
8.05562e-07
-7.10799e-06
9.41125e-07
-6.05751e-06
1.06748e-06
-4.95377e-06
9.39065e-07
-4.00669e-06
9.73363e-07
-3.02358e-06
9.12917e-07
6.93166e-07
-2.14788e-06
-2.46371e-06
-2.86347e-06
-3.6511e-06
-4.65284e-06
-5.77008e-06
-6.75968e-06
-7.62272e-06
-8.38625e-06
-9.09799e-06
-9.81511e-06
-1.04646e-05
-1.10731e-05
-1.15707e-05
-1.1879e-05
-1.20464e-05
-1.19945e-05
-1.18037e-05
-1.14624e-05
-1.09279e-05
-1.02668e-05
-9.4586e-06
-8.65304e-06
-7.71191e-06
-6.64443e-06
-5.70537e-06
-4.732e-06
-3.81909e-06
-3.12592e-06
3.89255e-06
1.96663e-06
-1.12214e-06
4.13545e-06
-2.73981e-07
3.10803e-08
3.66935e-06
-7.17361e-07
1.18346e-06
2.86643e-06
5.12605e-07
2.90314e-07
3.31006e-06
-2.29091e-07
-2.14545e-07
1.41701e-06
-2.46891e-06
4.36196e-06
1.84018e-07
-1.87147e-06
3.10447e-06
-5.1839e-06
-9.52841e-07
6.32076e-06
4.90268e-06
1.38078e-06
4.24234e-06
3.86363e-07
3.16313e-06
3.61852e-07
2.77501e-06
9.00722e-07
2.91969e-06
-3.73772e-07
2.00051e-06
-1.54973e-06
2.23611e-06
-2.10708e-06
-4.38412e-06
1.43633e-06
4.35746e-06
1.60371e-06
3.93259e-06
8.11232e-07
3.14476e-06
1.14968e-06
2.99233e-06
1.05315e-06
2.74221e-06
-1.23652e-07
3.30661e-06
-2.11413e-06
3.55148e-06
-2.35196e-06
-1.72862e-06
8.95986e-07
4.88497e-06
1.74272e-06
4.05104e-06
1.64517e-06
3.80888e-06
1.39184e-06
3.69052e-06
1.17152e-06
2.96878e-06
5.98086e-07
2.62529e-06
-1.77063e-06
2.09033e-06
-1.817e-06
-1.09436e-06
1.45608e-06
4.65918e-06
1.85958e-06
4.13088e-06
2.17347e-06
3.8135e-06
1.70923e-06
3.73693e-06
1.24809e-06
3.54244e-06
7.92574e-07
2.37799e-06
-6.06182e-07
1.63518e-06
-1.0742e-06
-1.05606e-06
1.59688e-06
4.26822e-06
2.12876e-06
4.06455e-06
2.37713e-06
3.75261e-06
2.02117e-06
3.66588e-06
1.33481e-06
3.35529e-06
1.10317e-06
2.79438e-06
-4.52685e-08
2.3074e-06
-5.87223e-07
-5.32029e-07
1.78337e-06
4.02025e-06
2.60813e-06
3.78707e-06
2.61031e-06
3.61575e-06
2.1925e-06
3.54872e-06
1.40184e-06
3.22904e-06
1.42284e-06
2.82093e-06
3.62843e-07
2.32471e-06
-9.09986e-08
-9.81328e-08
1.89081e-06
3.9496e-06
3.13057e-06
3.69054e-06
2.86938e-06
3.49344e-06
2.38959e-06
3.41095e-06
1.48433e-06
3.30101e-06
1.53279e-06
3.13429e-06
5.29558e-07
2.75075e-06
2.92545e-07
4.29823e-07
2.22279e-06
3.83696e-06
3.63921e-06
3.60604e-06
3.10029e-06
3.47294e-06
2.52269e-06
3.40566e-06
1.55161e-06
3.27386e-06
1.66459e-06
3.05013e-06
7.53289e-07
2.81488e-06
5.27798e-07
7.30092e-07
2.51461e-06
3.73192e-06
4.02959e-06
3.52067e-06
3.31154e-06
3.41716e-06
2.6262e-06
3.42595e-06
1.54282e-06
3.33416e-06
1.75638e-06
3.05119e-06
1.03626e-06
2.77206e-06
8.06929e-07
9.95717e-07
2.50643e-06
3.6786e-06
4.26057e-06
3.47765e-06
3.51249e-06
3.40295e-06
2.7009e-06
3.35362e-06
1.59215e-06
3.12528e-06
1.98472e-06
2.88575e-06
1.27578e-06
2.72258e-06