/*--------------------------------*- C++ -*----------------------------------*\
| =========                 |                                                 |
| \\      /  F ield         | OpenFOAM: The Open Source CFD Toolbox           |
|  \\    /   O peration     | Version:  2.4.0                                 |
|   \\  /    A nd           | Web:      www.OpenFOAM.org                      |
|    \\/     M anipulation  |                                                 |
\*---------------------------------------------------------------------------*/
FoamFile
{
    version     2.0;
    format      ascii;
    class       volVectorField;
    location    "0.69";
    object      U;
}
// * * * * * * * * * * * * * * * * * * * * * * * * * * * * * * * * * * * * * //

dimensions      [0 1 -1 0 0 0 0];

internalField   nonuniform List<vector> 
2320
(
(0.92395 -0.0372317 0)
(1.1391 0.126434 0)
(0.775845 -0.00220356 0)
(0.889913 -0.0953613 0)
(1.07618 -0.053653 0)
(0.906961 0.0924112 0)
(0.889685 -0.223839 0)
(1.5057 0.131139 0)
(0.420708 0.00569941 0)
(1.60172 -0.159442 0)
(0.560017 0.109065 0)
(1.17927 -0.173674 0)
(1.15455 -0.0127401 0)
(1.08276 0.0570989 0)
(0.652663 -0.138402 0)
(1.81624 0.0808455 0)
(-0.213758 -0.0622483 0)
(1.70147 -0.272301 0)
(1.00007 0.0575755 0)
(0.901244 -0.118733 0)
(0.715257 -0.000737804 0)
(1.19968 -0.0490914 0)
(1.06152 0.117203 0)
(1.07269 -0.0511138 0)
(0.889803 0.0465368 0)
(0.974737 -0.0223624 0)
(1.08501 -0.0613898 0)
(0.677106 0.078607 0)
(1.44329 -0.0582859 0)
(0.612264 0.105502 0)
(1.30902 0.0722677 0)
(0.620138 -0.0965609 0)
(1.30601 0.0307104 0)
(0.673167 0.200381 0)
(1.24409 -0.269198 0)
(1.07264 0.289851 0)
(1.40305 0.16938 0)
(0.799584 -0.359978 0)
(1.07389 0.288038 0)
(1.14021 0.336061 0)
(1.07132 0.00106148 0)
(0.799394 -0.0357063 0)
(1.01669 0.0721289 0)
(1.15171 0.00171857 0)
(0.876464 0.00216467 0)
(1.23545 -0.0125247 0)
(0.795033 -0.0533597 0)
(1.21622 -0.013914 0)
(0.871705 0.0309486 0)
(0.771261 -0.0743552 0)
(1.37005 0.0924237 0)
(0.662582 -0.178043 0)
(1.19638 -0.0305361 0)
(0.899667 0.153127 0)
(1.15807 -0.333209 0)
(0.807885 0.0803704 0)
(1.50838 0.0962069 0)
(0.738345 -0.168599 0)
(0.871777 0.0212666 0)
(1.38618 0.0382222 0)
(1.10596 0.0565701 0)
(0.863357 -0.0166667 0)
(1.06469 -0.0652034 0)
(1.043 0.0134024 0)
(1.01023 -0.00178235 0)
(0.943137 0.00795011 0)
(1.01913 -0.0490745 0)
(0.977887 0.0115971 0)
(1.02871 0.156118 0)
(1.02494 -0.149477 0)
(0.941521 0.0949975 0)
(1.3671 0.0237914 0)
(0.717385 -0.102122 0)
(1.12387 0.156743 0)
(1.14938 -0.171034 0)
(0.714051 0.0430572 0)
(1.39645 0.195509 0)
(0.984961 -0.0317874 0)
(1.0393 -0.0627981 0)
(1.17803 0.133274 0)
(1.07917 0.010812 0)
(0.973519 0.00103317 0)
(1.04053 -0.03021 0)
(0.957083 0.0375751 0)
(1.04978 0.0494114 0)
(0.848679 -0.01556 0)
(1.0508 -0.0620652 0)
(0.942393 -0.00752438 0)
(1.09153 0.0258832 0)
(0.998695 -0.0154393 0)
(0.905915 -0.0496919 0)
(1.20664 -0.0604023 0)
(0.840081 0.0812183 0)
(1.12844 -0.0278384 0)
(0.9078 -0.154994 0)
(0.979061 -0.0362553 0)
(1.14441 0.0395793 0)
(1.08306 -0.0347756 0)
(0.945131 -0.0708252 0)
(1.15646 -0.0500889 0)
(1.05764 0.0272077 0)
(0.905466 0.00999132 0)
(1.04518 -0.0624839 0)
(0.985048 0.0125175 0)
(1.05536 0.0478079 0)
(0.950807 0.00366363 0)
(0.993108 -0.0932895 0)
(0.948187 -0.0193764 0)
(1.11331 0.109513 0)
(0.839854 -0.0724195 0)
(1.12807 -0.0241704 0)
(0.881415 0.0523401 0)
(1.05535 -0.0648012 0)
(0.955236 0.109806 0)
(1.10947 -0.114405 0)
(0.915772 -0.101477 0)
(1.109 0.13515 0)
(1.08386 0.0377743 0)
(1.02229 -0.0689247 0)
(1.07136 -0.0224915 0)
(1.02078 0.0222304 0)
(1.00662 0.0203941 0)
(1.00649 -0.0825351 0)
(0.960786 0.0387676 0)
(1.10391 0.0631527 0)
(0.926538 0.0216735 0)
(0.952783 -0.0643004 0)
(0.92423 -0.0573419 0)
(1.07474 0.0858354 0)
(1.04498 -0.00996099 0)
(0.864121 -0.058167 0)
(1.16376 -0.012835 0)
(0.901879 0.0404318 0)
(1.02703 -0.0411126 0)
(1.10248 -0.108419 0)
(0.801115 -0.0395956 0)
(1.16288 0.00290661 0)
(1.05513 0.00530155 0)
(0.997869 -0.0668326 0)
(1.1713 -0.176772 0)
(1.04241 0.012179 0)
(0.970141 0.0229011 0)
(0.962513 -0.0436179 0)
(0.947457 -0.0267313 0)
(1.13378 0.0557585 0)
(0.917469 0.0861439 0)
(1.0506 -0.0996944 0)
(0.991875 -0.0895209 0)
(1.02746 0.0530426 0)
(1.03594 0.0270462 0)
(0.982238 -0.0928996 0)
(1.0092 0.0234032 0)
(1.06138 0.00336931 0)
(1.07044 0.00358774 0)
(0.95671 -0.0235394 0)
(1.09894 -0.138666 0)
(0.985773 0.00379019 0)
(1.10622 0.0997447 0)
(1.0476 -0.132927 0)
(1.17823 -0.156386 0)
(1.02383 0.010254 0)
(1.00315 0.0707614 0)
(0.935354 -0.0844417 0)
(1.04165 -0.0438943 0)
(1.00083 0.0760898 0)
(1.02089 0.0673642 0)
(1.05052 -0.102219 0)
(0.980925 -0.0407316 0)
(0.997769 0.059038 0)
(1.0825 0.0141093 0)
(0.883176 -0.0444844 0)
(1.03777 -0.0413465 0)
(1.124 0.0108335 0)
(0.903322 0.0153695 0)
(1.06614 -0.112043 0)
(1.0466 -0.0487255 0)
(0.949837 0.00303193 0)
(1.07996 -0.00869898 0)
(1.06911 -0.104066 0)
(1.0919 -0.205721 0)
(1.07487 -0.00209282 0)
(0.924213 0.0667131 0)
(1.03112 -0.0612249 0)
(1.02855 -0.0546328 0)
(1.00701 0.0661189 0)
(0.986467 0.0683505 0)
(1.0443 -0.0818085 0)
(1.02272 -0.0560113 0)
(0.938114 0.00257293 0)
(1.08868 0.0842258 0)
(0.946646 -0.0702581 0)
(1.12369 -0.104711 0)
(1.02288 0.0669874 0)
(1.0364 0.033017 0)
(1.00208 -0.110792 0)
(1.13251 -0.0793908 0)
(0.94747 -0.0169844 0)
(1.08337 0.0423042 0)
(1.07296 -0.157311 0)
(1.06791 -0.159033 0)
(1.05279 0.00772534 0)
(0.890039 0.0999111 0)
(1.09661 -0.136534 0)
(1.03866 -0.0426502 0)
(0.989193 0.0933257 0)
(0.954605 0.0459473 0)
(1.01716 -0.131831 0)
(1.05242 0.0188492 0)
(1.01107 0.0164133 0)
(0.950673 0.0209446 0)
(1.12307 -0.068649 0)
(0.969951 -0.0786886 0)
(0.967593 0.0667567 0)
(1.08374 0.0166882 0)
(0.954697 -0.144055 0)
(1.09463 -0.0200026 0)
(0.894182 0.0148857 0)
(1.13614 -0.0536596 0)
(0.973271 -0.104613 0)
(0.996394 -0.169328 0)
(0.948497 0.0305081 0)
(1.03098 0.0330422 0)
(1.06444 -0.1149 0)
(1.0215 -0.00229042 0)
(0.926805 0.108212 0)
(0.981904 0.0590999 0)
(1.01848 -0.138909 0)
(1.10728 -0.051005 0)
(0.932254 0.0528518 0)
(1.14191 0.02639 0)
(1.00135 -0.0777606 0)
(0.939337 -0.0171321 0)
(0.88224 0.0110526 0)
(1.15978 0.0333649 0)
(0.894876 -0.113343 0)
(1.02656 -0.0414951 0)
(0.945552 -0.0421642 0)
(1.02476 0.00594972 0)
(1.01592 -0.101448 0)
(1.0132 -0.177408 0)
(0.91131 0.0210016 0)
(1.07002 0.0312346 0)
(1.00013 -0.126049 0)
(1.10983 0.0196505 0)
(0.758997 0.127939 0)
(1.13392 -0.00807554 0)
(1.03303 -0.185973 0)
(0.99899 0.0639558 0)
(0.955303 -0.0057773 0)
(1.14254 -0.00555754 0)
(0.877059 0.0231756 0)
(1.00418 -0.020587 0)
(0.878169 -0.0404835 0)
(1.09796 -0.00528269 0)
(0.901126 -0.0638622 0)
(1.06759 -0.0447523 0)
(0.924606 -0.00573797 0)
(0.998527 -0.0635947 0)
(0.982719 -0.111937 0)
(1.03224 -0.143449 0)
(0.917672 0.0445787 0)
(1.09874 -0.0226396 0)
(1.01364 -0.129594 0)
(1.02266 0.107556 0)
(0.820115 0.0946815 0)
(1.18666 -0.0725512 0)
(0.90914 -0.0794332 0)
(0.969169 -0.00231246 0)
(0.990326 -0.0254185 0)
(1.0385 0.0662301 0)
(0.844726 -0.0100889 0)
(1.07435 -0.0166623 0)
(0.948023 -0.0336553 0)
(0.953686 0.0163817 0)
(0.927415 -0.0989358 0)
(1.024 -0.0475257 0)
(0.860754 -0.0139694 0)
(0.976749 -0.0195904 0)
(1.06013 -0.125379 0)
(0.888689 -0.108391 0)
(0.937481 0.0172094 0)
(1.12886 -0.0248523 0)
(0.948342 -0.0733181 0)
(0.946594 0.121619 0)
(0.935624 0.0466864 0)
(1.15544 -0.0532792 0)
(0.900074 -0.0706609 0)
(0.955063 0.0219998 0)
(0.985779 -0.050491 0)
(0.970686 0.0821306 0)
(0.913877 -0.00200242 0)
(1.07993 -0.070018 0)
(0.894116 0.0251262 0)
(1.02057 -0.00475154 0)
(0.932989 -0.088169 0)
(1.02834 -0.014166 0)
(0.803941 0.00724439 0)
(1.02203 -0.144182 0)
(1.01737 -0.0815529 0)
(0.877195 -0.0291523 0)
(0.909867 0.0148007 0)
(1.14008 -0.0385194 0)
(0.882733 -0.0350465 0)
(1.00322 0.115866 0)
(0.963726 -0.0132469 0)
(1.14224 -0.0533785 0)
(0.892905 0.0170649 0)
(0.993596 -0.0449822 0)
(0.983107 -0.037795 0)
(0.96719 0.10442 0)
(0.976239 -0.0606762 0)
(1.0263 -0.0123227 0)
(0.874278 0.00658646 0)
(1.01701 -0.0133835 0)
(0.995843 -0.0940122 0)
(0.970529 0.0222159 0)
(0.851852 -0.0213394 0)
(0.996885 -0.115939 0)
(0.896594 -0.0539695 0)
(0.884856 -0.0684086 0)
(0.92795 -0.00261493 0)
(1.12617 -0.0221647 0)
(0.849009 0.00354359 0)
(1.05167 0.0690754 0)
(0.980332 -0.0192137 0)
(1.0747 -0.026552 0)
(0.961943 0.0113767 0)
(1.00616 -0.0248794 0)
(0.954163 -0.0432371 0)
(1.03115 0.09012 0)
(0.931794 -0.0366633 0)
(1.02364 -0.0214165 0)
(0.877009 0.0335376 0)
(1.04322 -0.0711048 0)
(1.01556 -0.0609844 0)
(0.955914 0.0536541 0)
(0.853486 -0.0147117 0)
(0.984662 -0.162966 0)
(0.860527 -0.0210029 0)
(0.896499 -0.0657892 0)
(0.921097 -0.00907851 0)
(1.07064 -0.0088326 0)
(0.930236 0.0113265 0)
(1.05465 0.051128 0)
(0.995954 -0.0282726 0)
(1.04595 -0.040214 0)
(0.969282 0.0486601 0)
(1.04983 -0.0343553 0)
(0.922783 -0.0541402 0)
(1.01024 0.114899 0)
(0.979187 -0.051911 0)
(0.996804 0.00752196 0)
(0.971569 0.00973672 0)
(1.02938 -0.0961363 0)
(1.00936 -0.0421852 0)
(0.887902 0.104688 0)
(0.973566 -0.0448049 0)
(0.969173 -0.10452 0)
(0.744809 -0.0021473 0)
(1.0027 -0.132654 0)
(0.936106 0.0075237 0)
(1.08143 -0.0381601 0)
(0.905271 0.0200457 0)
(1.11447 0.0297402 0)
(0.97564 -0.0128265 0)
(0.997396 -0.0174844 0)
(0.973427 0.0144739 0)
(1.06782 -0.00471308 0)
(0.917197 -0.026064 0)
(1.00347 0.0678895 0)
(1.01667 -0.028345 0)
(1.00895 -0.0222534 0)
(1.01881 0.0177903 0)
(1.0281 -0.0909293 0)
(0.897052 0.0139374 0)
(0.885122 0.0737318 0)
(1.04562 -0.0526493 0)
(0.87315 -0.058078 0)
(0.818093 -0.0177791 0)
(0.916086 -0.113032 0)
(1.02828 -0.0140539 0)
(0.967254 -0.00176518 0)
(0.92931 0.00276308 0)
(1.02584 0.0173163 0)
(1.02119 0.0274371 0)
(1.04776 -0.0337455 0)
(0.921289 0.0122882 0)
(1.1002 -0.00433122 0)
(0.901348 -0.0226625 0)
(1.00287 0.0634959 0)
(1.15356 -0.0452957 0)
(0.854256 0.00490656 0)
(1.11985 0.0048917 0)
(0.904741 -0.046076 0)
(0.81659 0.0482023 0)
(1.04825 0.0227376 0)
(0.990626 -0.037924 0)
(0.862692 0.0173834 0)
(0.900587 -0.02106 0)
(0.824717 -0.0445614 0)
(0.588704 -0.252833 0)
(2.22463 0.0932415 0)
(-0.426133 -0.141224 0)
(2.44888 -0.316909 0)
(0.589908 0.0267678 0)
(1.7421 -0.236787 0)
(1.57192 -0.0771066 0)
(1.74117 -0.285303 0)
(0.863731 -0.50492 0)
(1.52477 0.326406 0)
(1.47253 0.113484 0)
(1.24223 -0.227524 0)
(1.19428 0.301625 0)
(1.40437 -0.24548 0)
(1.38841 0.00300776 0)
(1.77091 0.0452418 0)
(1.17412 -0.382676 0)
(0.949028 -0.0455091 0)
(1.76903 0.00683187 0)
(1.07307 -0.268337 0)
(1.60729 0.0442663 0)
(1.54233 -0.255028 0)
(1.45574 -0.233362 0)
(1.61093 -0.334065 0)
(1.217 -0.312528 0)
(1.03856 -0.0909321 0)
(1.56704 0.0922131 0)
(1.2494 -0.206669 0)
(1.64384 0.0236615 0)
(1.37289 -0.140388 0)
(1.85157 -0.16352 0)
(1.55688 -0.272679 0)
(1.22926 -0.281357 0)
(0.971965 -0.223579 0)
(1.41259 -0.0387565 0)
(1.26514 -0.275291 0)
(1.22399 -0.0396317 0)
(1.66901 -0.290397 0)
(1.51828 -0.334228 0)
(1.60051 -0.457957 0)
(1.27262 -0.217858 0)
(1.12675 -0.220962 0)
(1.23379 -0.0452308 0)
(1.29295 -0.151582 0)
(1.27307 -0.22695 0)
(1.56897 -0.236973 0)
(1.41441 -0.231248 0)
(1.67107 -0.497829 0)
(1.24241 -0.267521 0)
(1.02677 -0.225671 0)
(1.16817 -0.10852 0)
(1.33159 -0.236619 0)
(1.35687 -0.236212 0)
(1.42919 -0.293259 0)
(1.61115 -0.410905 0)
(1.66776 -0.631792 0)
(1.14148 -0.161327 0)
(1.10352 -0.197478 0)
(1.1183 -0.180352 0)
(1.34236 -0.246158 0)
(1.29607 -0.328459 0)
(1.44751 -0.304975 0)
(1.5603 -0.399118 0)
(1.62764 -0.606253 0)
(1.06966 -0.196535 0)
(1.0425 -0.229893 0)
(1.05152 -0.228695 0)
(1.32134 -0.295103 0)
(1.13302 -0.304536 0)
(1.39658 -0.382515 0)
(1.39761 -0.511705 0)
(1.66299 -0.772235 0)
(1.03144 -0.152733 0)
(1.0463 -0.209701 0)
(1.00863 -0.307317 0)
(1.15598 -0.297774 0)
(1.09669 -0.381869 0)
(1.26057 -0.425268 0)
(1.30717 -0.568482 0)
(1.43072 -0.713122 0)
(1.02315 -0.169143 0)
(1.06366 -0.22645 0)
(0.923804 -0.27316 0)
(1.16133 -0.328544 0)
(1.10675 -0.367179 0)
(1.24707 -0.486011 0)
(1.10938 -0.638263 0)
(1.28865 -0.799986 0)
(0.985366 -0.197496 0)
(0.980196 -0.163115 0)
(1.00064 -0.343832 0)
(1.21938 -0.391629 0)
(1.13113 -0.402309 0)
(1.14217 -0.41142 0)
(1.02617 -0.584314 0)
(1.12024 -0.736767 0)
(0.852149 -0.146564 0)
(0.942559 -0.243891 0)
(1.12238 -0.394766 0)
(1.11063 -0.376357 0)
(1.00597 -0.340899 0)
(0.913002 -0.458594 0)
(0.979766 -0.650108 0)
(0.838741 -0.684946 0)
(0.838816 -0.155212 0)
(1.05379 -0.299413 0)
(0.990952 -0.410969 0)
(0.975643 -0.33529 0)
(0.896453 -0.305505 0)
(0.97795 -0.382321 0)
(0.740175 -0.552755 0)
(0.656121 -0.620892 0)
(0.930024 -0.237206 0)
(1.03224 -0.329289 0)
(0.899983 -0.354936 0)
(0.90587 -0.313476 0)
(0.799033 -0.325668 0)
(0.838046 -0.392426 0)
(0.60381 -0.46211 0)
(0.363917 -0.601947 0)
(0.954984 -0.225934 0)
(0.958245 -0.291329 0)
(0.84801 -0.346819 0)
(0.789684 -0.270087 0)
(0.710717 -0.283568 0)
(0.717916 -0.311803 0)
(0.446155 -0.321354 0)
(0.186069 -0.494251 0)
(0.947083 -0.273838 0)
(0.867136 -0.264911 0)
(0.645327 -0.275218 0)
(0.616337 -0.231979 0)
(0.580113 -0.304786 0)
(0.539138 -0.211916 0)
(0.356742 -0.214494 0)
(0.0882869 -0.373003 0)
(0.785607 -0.182038 0)
(0.718026 -0.140355 0)
(0.495557 -0.231014 0)
(0.483922 -0.213468 0)
(0.426575 -0.264754 0)
(0.353543 -0.22169 0)
(0.455491 -0.0684037 0)
(-0.0570882 -0.30325 0)
(0.628574 -0.154678 0)
(0.650445 -0.12682 0)
(0.364845 -0.168937 0)
(0.351849 -0.200138 0)
(0.215289 -0.27828 0)
(-0.0501975 -0.202722 0)
(0.035549 -0.00751984 0)
(0.0329434 0.125375 0)
(0.534511 -0.0164368 0)
(0.518309 0.0108355 0)
(0.215218 -0.0843294 0)
(0.190428 -0.0876554 0)
(-0.110382 -0.0419717 0)
(-0.546592 -0.111027 0)
(-0.486026 -0.106056 0)
(-0.462793 0.0857341 0)
(2.1036 -0.100231 0)
(1.56314 -0.0689666 0)
(2.73547 -0.0829546 0)
(2.32085 -0.0355481 0)
(3.17627 -0.0226191 0)
(3.04271 -0.0839131 0)
(3.21446 -0.0789984 0)
(3.59951 -0.104451 0)
(3.26657 -0.0599877 0)
(3.9151 -0.0944826 0)
(3.49672 -0.023154 0)
(4.32169 -0.0833725 0)
(3.87492 -0.0315463 0)
(4.68365 -0.0593648 0)
(4.17191 -0.00691386 0)
(4.84378 -0.00359297 0)
(4.111 0.0318878 0)
(4.64186 0.0133675 0)
(3.81546 0.00909589 0)
(4.39703 0.00310068 0)
(3.27761 0.0628812 0)
(3.91086 -0.0236097 0)
(2.68079 0.0387837 0)
(3.48727 -0.0449779 0)
(2.45529 -0.0394843 0)
(3.19733 -0.041782 0)
(2.18329 0.102612 0)
(2.15123 0.0327486 0)
(1.53044 0.184771 0)
(1.84985 -0.303952 0)
(2.45332 -0.298001 0)
(2.17798 -0.180445 0)
(2.96802 -0.303234 0)
(2.75964 -0.00503163 0)
(3.20529 -0.1428 0)
(3.40686 0.0502187 0)
(3.41673 -0.104562 0)
(3.82296 -0.0547707 0)
(3.65256 -0.12998 0)
(4.24654 -0.157883 0)
(3.91707 -0.133683 0)
(4.43848 -0.0843606 0)
(4.15289 -0.0686093 0)
(4.50821 0.0518543 0)
(4.1865 0.0817641 0)
(4.44791 0.129686 0)
(4.05075 0.143304 0)
(4.21353 0.23372 0)
(3.63226 0.225517 0)
(3.86408 0.26416 0)
(2.98017 0.227157 0)
(3.30218 0.128257 0)
(2.35533 0.202564 0)
(2.46119 0.153979 0)
(2.10673 0.437721 0)
(1.68925 0.166168 0)
(2.16598 -0.105221 0)
(2.13444 -0.49437 0)
(2.63978 -0.282256 0)
(2.35912 -0.245736 0)
(2.89179 -0.315232 0)
(2.72755 -0.251621 0)
(3.194 -0.346681 0)
(3.40678 -0.22126 0)
(3.55572 -0.270368 0)
(3.89737 -0.222012 0)
(3.92356 -0.209275 0)
(4.34055 -0.224533 0)
(4.19184 -0.127352 0)
(4.57534 -0.166745 0)
(4.42886 -0.0479435 0)
(4.61931 0.00147057 0)
(4.45818 0.0724805 0)
(4.54296 0.0802023 0)
(4.25646 0.149927 0)
(4.23221 0.213885 0)
(3.80822 0.236656 0)
(3.82382 0.279572 0)
(3.20765 0.309644 0)
(3.27754 0.223847 0)
(2.49672 0.42335 0)
(2.36516 0.0820654 0)
(2.19012 0.512615 0)
(1.93025 0.266411 0)
(2.23981 -0.153095 0)
(1.98383 -0.499966 0)
(2.56473 -0.444685 0)
(2.3219 -0.296878 0)
(3.00341 -0.438595 0)
(2.9254 -0.261835 0)
(3.26921 -0.410675 0)
(3.34426 -0.200567 0)
(3.51142 -0.314566 0)
(3.75718 -0.289716 0)
(3.86063 -0.312537 0)
(4.14912 -0.342065 0)
(4.22098 -0.215365 0)
(4.43407 -0.245164 0)
(4.43941 -0.0450359 0)
(4.55877 0.0188826 0)
(4.50352 0.134336 0)
(4.5495 0.225575 0)
(4.32816 0.31385 0)
(4.23881 0.440377 0)
(3.9057 0.461232 0)
(3.76558 0.520363 0)
(3.1952 0.537758 0)
(3.08967 0.420408 0)
(2.55023 0.631787 0)
(2.45918 0.319436 0)
(2.10416 0.583146 0)
(2.0954 0.407285 0)
(2.03952 -0.358841 0)
(2.18549 -0.595925 0)
(2.50189 -0.504061 0)
(2.45232 -0.447393 0)
(2.90287 -0.56302 0)
(2.847 -0.458726 0)
(3.1143 -0.479122 0)
(3.20883 -0.377278 0)
(3.51662 -0.459398 0)
(3.66516 -0.411824 0)
(3.9097 -0.418063 0)
(4.11185 -0.397358 0)
(4.24807 -0.26349 0)
(4.40299 -0.28054 0)
(4.40043 -0.0599738 0)
(4.53307 -0.0285905 0)
(4.47657 0.0800467 0)
(4.48295 0.210376 0)
(4.3136 0.308552 0)
(4.22141 0.4255 0)
(3.9453 0.506711 0)
(3.76733 0.596202 0)
(3.35049 0.672519 0)
(3.01666 0.563964 0)
(2.57586 0.760383 0)
(2.45202 0.345709 0)
(1.99453 0.689572 0)
(2.01685 0.393093 0)
(1.86927 -0.512181 0)
(2.23786 -0.653732 0)
(2.36346 -0.633947 0)
(2.5739 -0.506895 0)
(2.73426 -0.594317 0)
(2.78547 -0.446679 0)
(3.0247 -0.518069 0)
(3.23234 -0.469211 0)
(3.44074 -0.503027 0)
(3.57404 -0.521192 0)
(3.887 -0.534824 0)
(3.96801 -0.511234 0)
(4.25491 -0.376485 0)
(4.29852 -0.348451 0)
(4.44197 -0.0773528 0)
(4.43096 -0.0656489 0)
(4.47038 0.185186 0)
(4.3807 0.280301 0)
(4.32533 0.459437 0)
(4.16495 0.581572 0)
(4.01525 0.670933 0)
(3.67244 0.805359 0)
(3.37646 0.863345 0)
(3.03701 0.802868 0)
(2.62212 0.898956 0)
(2.44383 0.579963 0)
(1.98506 0.766853 0)
(1.98826 0.512197 0)
(1.83387 -0.692258 0)
(2.23304 -0.802568 0)
(2.2689 -0.714517 0)
(2.49909 -0.60437 0)
(2.56582 -0.653414 0)
(2.69704 -0.63717 0)
(2.94675 -0.672469 0)
(3.07023 -0.601517 0)
(3.34932 -0.631114 0)
(3.46661 -0.673874 0)
(3.76685 -0.630198 0)
(3.74118 -0.590555 0)
(4.05729 -0.467602 0)
(3.97117 -0.372539 0)
(4.18751 -0.107142 0)
(4.01083 -0.0898826 0)
(4.13486 0.17269 0)
(3.98761 0.241095 0)
(3.99489 0.424824 0)
(3.92438 0.604565 0)
(3.77505 0.73585 0)
(3.59417 0.899315 0)
(3.24569 0.978792 0)
(3.06038 0.911765 0)
(2.65716 1.04268 0)
(2.43907 0.73496 0)
(1.96831 0.848055 0)
(1.96419 0.588777 0)
(1.85597 -0.835151 0)
(2.01474 -0.84403 0)
(2.04928 -0.791859 0)
(2.30544 -0.663748 0)
(2.32988 -0.681902 0)
(2.56183 -0.678778 0)
(2.67911 -0.683719 0)
(2.85015 -0.67537 0)
(3.14808 -0.724051 0)
(3.14639 -0.755968 0)
(3.39991 -0.66632 0)
(3.31446 -0.650277 0)
(3.61602 -0.496959 0)
(3.44652 -0.347598 0)
(3.75273 -0.118796 0)
(3.49805 -0.0238032 0)
(3.69242 0.264748 0)
(3.47977 0.326407 0)
(3.4632 0.514172 0)
(3.45328 0.688059 0)
(3.33036 0.85238 0)
(3.22388 1.04091 0)
(3.03658 1.11857 0)
(2.8243 1.08995 0)
(2.6231 1.13276 0)
(2.443 0.931778 0)
(1.97813 0.980632 0)
(1.92546 0.688674 0)
(1.58545 -0.876957 0)
(1.72941 -0.876269 0)
(1.76274 -0.850171 0)
(1.91015 -0.737743 0)
(1.95592 -0.764154 0)
(2.2078 -0.828183 0)
(2.31428 -0.824687 0)
(2.64625 -0.814281 0)
(2.67864 -0.816247 0)
(2.69827 -0.771701 0)
(2.86641 -0.729303 0)
(2.8316 -0.705214 0)
(2.97708 -0.520363 0)
(2.89868 -0.387941 0)
(3.11139 -0.171256 0)
(2.92743 -0.0344001 0)
(3.08679 0.204179 0)
(2.92383 0.299224 0)
(2.84196 0.531089 0)
(2.88646 0.680802 0)
(2.79724 0.88918 0)
(2.73735 1.03873 0)
(2.70289 1.14882 0)
(2.5866 1.21232 0)
(2.29525 1.21754 0)
(2.3869 1.01609 0)
(2.00289 1.09897 0)
(1.85085 0.784825 0)
(1.36628 -0.871014 0)
(1.46476 -0.901769 0)
(1.38676 -0.856857 0)
(1.54951 -0.759276 0)
(1.70851 -0.856384 0)
(1.87706 -0.919836 0)
(1.99642 -0.897796 0)
(2.13729 -0.827419 0)
(2.06152 -0.798179 0)
(2.19372 -0.801538 0)
(2.27552 -0.765095 0)
(2.22962 -0.689804 0)
(2.34653 -0.525373 0)
(2.40103 -0.427376 0)
(2.45706 -0.169594 0)
(2.32272 0.0601482 0)
(2.40232 0.249867 0)
(2.27562 0.392633 0)
(2.25699 0.56682 0)
(2.25139 0.672196 0)
(2.24507 0.97897 0)
(2.12181 1.07729 0)
(2.18193 1.15585 0)
(2.22783 1.27009 0)
(2.05155 1.23109 0)
(1.92377 1.15373 0)
(1.91928 1.16823 0)
(1.74952 0.892158 0)
(1.11984 -0.860688 0)
(1.13047 -0.859508 0)
(1.05304 -0.891977 0)
(1.30074 -0.896725 0)
(1.30589 -0.955951 0)
(1.41704 -0.955088 0)
(1.44364 -0.908886 0)
(1.62901 -0.851482 0)
(1.56673 -0.883552 0)
(1.6135 -0.848146 0)
(1.5693 -0.776718 0)
(1.53897 -0.748637 0)
(1.58965 -0.61715 0)
(1.53085 -0.411169 0)
(1.51547 -0.14254 0)
(1.64509 0.0163321 0)
(1.63131 0.18651 0)
(1.55623 0.399716 0)
(1.55815 0.614865 0)
(1.47673 0.68323 0)
(1.64237 0.951017 0)
(1.59964 1.02653 0)
(1.47931 1.20816 0)
(1.70112 1.30764 0)
(1.66375 1.23483 0)
(1.67494 1.14989 0)
(1.57393 1.22575 0)
(1.58587 0.936874 0)
(0.835811 -0.781821 0)
(0.93584 -0.870905 0)
(0.826644 -0.928121 0)
(0.955616 -0.899391 0)
(0.904279 -0.999343 0)
(0.992732 -0.998613 0)
(0.982748 -0.940239 0)
(1.07593 -0.856091 0)
(0.89606 -0.842867 0)
(0.916778 -0.800131 0)
(0.871764 -0.714099 0)
(0.743856 -0.653181 0)
(0.754852 -0.523431 0)
(0.680233 -0.366969 0)
(0.733003 -0.18363 0)
(0.782154 0.0280594 0)
(0.697297 0.290623 0)
(0.761516 0.409161 0)
(0.87826 0.517134 0)
(0.778639 0.703623 0)
(0.843532 1.01261 0)
(0.909872 1.01381 0)
(0.917398 1.12828 0)
(1.19854 1.24126 0)
(1.09967 1.2372 0)
(1.21702 1.20117 0)
(1.35224 1.15485 0)
(1.21168 0.973965 0)
(0.708377 -0.739371 0)
(0.712731 -0.867411 0)
(0.559209 -0.919671 0)
(0.653847 -0.920933 0)
(0.434674 -0.971568 0)
(0.556135 -1.0066 0)
(0.432654 -0.946496 0)
(0.42275 -0.822563 0)
(0.210253 -0.804966 0)
(0.166434 -0.807822 0)
(0.109868 -0.73499 0)
(0.041808 -0.682615 0)
(-0.0393748 -0.549173 0)
(-0.115398 -0.384872 0)
(-0.143007 -0.174343 0)
(-0.162028 0.0295261 0)
(-0.0994822 0.203884 0)
(-0.0334268 0.365705 0)
(-0.0652122 0.597792 0)
(-0.025744 0.71031 0)
(0.146973 0.88077 0)
(0.271193 0.980692 0)
(0.166702 1.14602 0)
(0.584793 1.18507 0)
(0.612994 1.14578 0)
(0.73445 1.15095 0)
(0.886953 1.17924 0)
(0.939457 0.903331 0)
(0.5242 -0.69845 0)
(0.501168 -0.815193 0)
(0.199164 -0.829288 0)
(0.199067 -0.851094 0)
(0.0550862 -0.975954 0)
(0.00897813 -0.940479 0)
(-0.225044 -0.857575 0)
(-0.184086 -0.761242 0)
(-0.445476 -0.727327 0)
(-0.546963 -0.71219 0)
(-0.672599 -0.667004 0)
(-0.777934 -0.589794 0)
(-0.868556 -0.473969 0)
(-0.952965 -0.324666 0)
(-1.01389 -0.155224 0)
(-0.997895 0.0212867 0)
(-0.952659 0.202921 0)
(-0.947963 0.369949 0)
(-0.836634 0.520045 0)
(-0.708337 0.631435 0)
(-0.637382 0.886497 0)
(-0.488235 0.956471 0)
(-0.312117 0.951152 0)
(0.0892211 1.06477 0)
(-0.029463 1.14536 0)
(0.287595 1.04796 0)
(0.562156 1.08045 0)
(0.572734 0.908461 0)
(0.352497 -0.670459 0)
(0.142009 -0.698448 0)
(-0.132687 -0.786857 0)
(-0.167119 -0.819201 0)
(-0.509915 -0.909416 0)
(-0.471748 -0.90157 0)
(-0.824266 -0.787215 0)
(-0.887394 -0.694617 0)
(-1.1415 -0.671454 0)
(-1.2811 -0.668053 0)
(-1.46416 -0.626137 0)
(-1.56642 -0.568603 0)
(-1.73082 -0.438307 0)
(-1.78268 -0.297212 0)
(-1.86191 -0.142736 0)
(-1.83554 0.0144361 0)
(-1.82388 0.186249 0)
(-1.76015 0.314718 0)
(-1.64313 0.485502 0)
(-1.55018 0.624398 0)
(-1.35575 0.778535 0)
(-1.06311 0.795337 0)
(-1.02012 0.905101 0)
(-0.701535 1.04664 0)
(-0.451186 0.978345 0)
(-0.207392 0.944733 0)
(-0.0234404 1.01642 0)
(0.325738 0.755304 0)
(-0.0328003 -0.577166 0)
(0.0363901 -0.602771 0)
(-0.510421 -0.650909 0)
(-0.455126 -0.692096 0)
(-0.890941 -0.827065 0)
(-1.08148 -0.733225 0)
(-1.34067 -0.66468 0)
(-1.4991 -0.585547 0)
(-1.725 -0.560214 0)
(-1.90348 -0.556691 0)
(-2.17614 -0.524102 0)
(-2.32761 -0.472073 0)
(-2.50683 -0.369704 0)
(-2.60192 -0.249358 0)
(-2.64432 -0.114745 0)
(-2.65629 0.0236014 0)
(-2.60749 0.154435 0)
(-2.55263 0.28348 0)
(-2.41197 0.414548 0)
(-2.25885 0.52487 0)
(-2.01295 0.660907 0)
(-1.80684 0.733145 0)
(-1.66776 0.791818 0)
(-1.14028 0.824083 0)
(-0.94926 0.879212 0)
(-0.81178 0.849541 0)
(-0.18917 0.792377 0)
(-0.192481 0.645411 0)
(-0.134377 -0.559701 0)
(-0.248476 -0.453049 0)
(-0.845337 -0.512673 0)
(-0.781989 -0.620323 0)
(-1.3584 -0.654337 0)
(-1.4517 -0.659895 0)
(-1.9035 -0.557204 0)
(-2.04204 -0.494752 0)
(-2.40888 -0.465501 0)
(-2.53638 -0.44867 0)
(-2.81358 -0.439173 0)
(-3.02429 -0.390838 0)
(-3.18568 -0.308386 0)
(-3.32781 -0.212836 0)
(-3.35708 -0.0944904 0)
(-3.38271 0.0090957 0)
(-3.32411 0.128707 0)
(-3.26481 0.220059 0)
(-3.09906 0.339129 0)
(-2.93517 0.429261 0)
(-2.67734 0.542243 0)
(-2.44006 0.579409 0)
(-2.1391 0.594968 0)
(-1.68039 0.695013 0)
(-1.57255 0.765644 0)
(-1.06477 0.620053 0)
(-0.698079 0.635789 0)
(-0.576635 0.499076 0)
(-0.550046 -0.44007 0)
(-0.569025 -0.263348 0)
(-1.09987 -0.360465 0)
(-1.17157 -0.446187 0)
(-1.78052 -0.503925 0)
(-1.93496 -0.435274 0)
(-2.40828 -0.405746 0)
(-2.4867 -0.342029 0)
(-2.87695 -0.3411 0)
(-3.06202 -0.336955 0)
(-3.33962 -0.304713 0)
(-3.58077 -0.298021 0)
(-3.79251 -0.218235 0)
(-3.91287 -0.152864 0)
(-4.00196 -0.072449 0)
(-3.99898 0.0220058 0)
(-3.9721 0.0864112 0)
(-3.8789 0.182103 0)
(-3.7153 0.247288 0)
(-3.52125 0.339172 0)
(-3.24159 0.391336 0)
(-2.96389 0.413007 0)
(-2.63078 0.465824 0)
(-2.24324 0.521657 0)
(-1.98518 0.51006 0)
(-1.42161 0.459193 0)
(-1.20782 0.505127 0)
(-0.847373 0.399366 0)
(-0.849023 -0.219759 0)
(-0.862992 -0.161316 0)
(-1.32308 -0.237159 0)
(-1.37582 -0.332176 0)
(-2.06514 -0.332775 0)
(-2.20366 -0.326494 0)
(-2.77474 -0.247378 0)
(-2.93229 -0.22377 0)
(-3.25677 -0.217805 0)
(-3.52395 -0.209755 0)
(-3.79253 -0.202261 0)
(-4.04757 -0.182316 0)
(-4.29279 -0.138673 0)
(-4.38582 -0.0987913 0)
(-4.52145 -0.028558 0)
(-4.46372 -0.00046209 0)
(-4.48072 0.0793632 0)
(-4.30704 0.0933041 0)
(-4.18388 0.173947 0)
(-3.91096 0.192079 0)
(-3.67545 0.242171 0)
(-3.33893 0.253388 0)
(-2.99812 0.286283 0)
(-2.61307 0.341856 0)
(-2.27778 0.311003 0)
(-1.72047 0.313879 0)
(-1.38479 0.267685 0)
(-1.14359 0.208163 0)
(-1.03439 -0.05643 0)
(-0.944082 -0.00538443 0)
(-1.34076 -0.0765936 0)
(-1.53242 -0.0557261 0)
(-2.18233 -0.101966 0)
(-2.48496 -0.0672484 0)
(-2.95511 -0.108561 0)
(-3.18634 -0.0690651 0)
(-3.53808 -0.0611818 0)
(-3.78553 -0.0731835 0)
(-4.09981 -0.0488021 0)
(-4.34227 -0.0577299 0)
(-4.60073 -0.0538089 0)
(-4.72796 -0.018384 0)
(-4.81637 -0.0346874 0)
(-4.82794 0.0238279 0)
(-4.75978 -0.00103844 0)
(-4.65195 0.0507374 0)
(-4.45586 0.0457303 0)
(-4.2099 0.0781856 0)
(-3.95061 0.0815628 0)
(-3.5659 0.077382 0)
(-3.28054 0.0970981 0)
(-2.82487 0.0737946 0)
(-2.55736 0.0577741 0)
(-2.013 0.0845085 0)
(-1.67189 0.0868307 0)
(-1.51096 0.0831766 0)
(1.71311 0.358529 0)
(1.22608 -0.353105 0)
(2.21753 -0.165149 0)
(0.816739 -0.033971 0)
(1.37322 -0.111808 0)
(1.27914 -0.629751 0)
(-0.0699447 -0.529735 0)
(0.202415 -1.08826 0)
(1.7992 0.359042 0)
(1.97417 0.216963 0)
(1.56231 -0.0916725 0)
(0.909989 0.212511 0)
(1.26819 0.0291369 0)
(1.08379 -0.409128 0)
(0.530094 -0.26339 0)
(1.18026 -1.072 0)
(1.80346 0.246725 0)
(1.59309 -0.0355297 0)
(1.59755 0.203654 0)
(0.982065 0.178166 0)
(1.334 -0.179939 0)
(0.870847 -0.232004 0)
(1.79738 -0.525047 0)
(1.05244 -0.588045 0)
(1.9859 0.369267 0)
(1.83089 0.310506 0)
(1.47273 0.272682 0)
(1.59518 0.226054 0)
(1.27687 0.126984 0)
(1.15753 -0.585249 0)
(0.88527 -0.457183 0)
(0.814466 -0.133435 0)
(1.83526 0.326692 0)
(1.83636 0.380304 0)
(1.49567 0.280648 0)
(1.56359 0.239334 0)
(1.38938 0.142746 0)
(1.42775 -0.147985 0)
(0.490405 -0.275804 0)
(0.861828 -0.335484 0)
(1.66271 0.411725 0)
(1.70334 0.452319 0)
(1.56146 0.390056 0)
(1.46147 0.272668 0)
(1.4319 0.164095 0)
(1.27413 -0.0654667 0)
(0.95961 -0.139537 0)
(0.920663 -0.0988393 0)
(1.64576 0.448089 0)
(1.52906 0.503782 0)
(1.4992 0.426221 0)
(1.41566 0.255927 0)
(1.39018 0.266652 0)
(1.2067 0.0463331 0)
(1.04459 -0.106158 0)
(0.856405 -0.108878 0)
(1.64173 0.582606 0)
(1.48439 0.540535 0)
(1.4424 0.453799 0)
(1.37316 0.30291 0)
(1.32838 0.299327 0)
(1.30465 0.106928 0)
(1.22447 0.0740837 0)
(0.992633 0.0641718 0)
(1.59729 0.662629 0)
(1.44255 0.595722 0)
(1.41127 0.490656 0)
(1.38547 0.287244 0)
(1.31817 0.315934 0)
(1.28657 0.110746 0)
(1.17318 0.0385522 0)
(1.07114 0.10173 0)
(1.4984 0.794478 0)
(1.45409 0.636854 0)
(1.33723 0.527885 0)
(1.3994 0.32845 0)
(1.32706 0.351649 0)
(1.32611 0.197182 0)
(1.12715 0.171899 0)
(1.09033 0.193206 0)
(1.48895 0.826991 0)
(1.43065 0.706521 0)
(1.32561 0.531881 0)
(1.39483 0.289987 0)
(1.27608 0.356247 0)
(1.21137 0.217459 0)
(1.11136 0.151731 0)
(1.05433 0.197093 0)
(1.23764 0.859652 0)
(1.30758 0.686362 0)
(1.30588 0.567593 0)
(1.31583 0.339232 0)
(1.23368 0.416141 0)
(1.22102 0.279329 0)
(1.14814 0.224553 0)
(1.0702 0.281419 0)
(1.04242 0.855731 0)
(1.09142 0.68142 0)
(1.2596 0.505109 0)
(1.19567 0.328077 0)
(1.13456 0.460217 0)
(1.19776 0.293734 0)
(1.11766 0.242612 0)
(1.05603 0.274382 0)
(0.733098 0.753978 0)
(1.0226 0.576356 0)
(0.945403 0.579883 0)
(0.906831 0.330731 0)
(0.949655 0.411573 0)
(1.05426 0.231527 0)
(0.945749 0.271724 0)
(0.933053 0.320543 0)
(0.530755 0.728343 0)
(0.490315 0.515298 0)
(0.847417 0.543606 0)
(0.78389 0.336683 0)
(0.94134 0.461597 0)
(0.939334 0.286739 0)
(0.832692 0.335557 0)
(0.956519 0.28444 0)
(0.346436 0.607259 0)
(0.430386 0.463522 0)
(0.275119 0.499786 0)
(0.375698 0.181799 0)
(0.693572 0.375078 0)
(0.677782 0.234669 0)
(0.755108 0.285975 0)
(0.959154 0.206101 0)
(-0.133499 0.468092 0)
(-0.035679 0.543633 0)
(0.348442 0.503699 0)
(0.23154 0.135556 0)
(0.486011 0.375811 0)
(0.492867 0.180503 0)
(0.663536 0.225706 0)
(0.830285 0.161886 0)
(-0.508329 0.260139 0)
(-0.439049 0.267537 0)
(0.014745 0.422041 0)
(-0.245016 0.0928054 0)
(0.486263 0.279378 0)
(0.378279 0.120241 0)
(0.542015 0.167998 0)
(0.631172 0.10828 0)
(-0.489849 0.19674 0)
(-1.01857 0.324513 0)
(-0.112451 0.302835 0)
(-0.349497 -0.11217 0)
(0.0924956 0.121275 0)
(0.135027 0.0911227 0)
(0.363378 0.134804 0)
(0.442449 0.0791877 0)
(-0.869966 0.155293 0)
(-1.07031 0.188146 0)
(0.280519 0.0738791 0)
(-0.419667 0.0187675 0)
(0.0941136 0.0221776 0)
(-0.109809 -0.0369589 0)
(0.192782 0.052866 0)
(0.291584 0.0216919 0)
(-0.674737 -0.443557 0)
(0.516998 0.248362 0)
(0.598183 0.476353 0)
(0.607684 0.439244 2.9032e-18)
(0.97853 0.586799 2.54622e-19)
(1.05966 0.474201 0)
(1.43599 0.440852 2.01061e-18)
(1.21693 0.315432 1.13639e-19)
(1.36997 0.292301 1.47455e-18)
(1.18949 0.212722 1.41159e-18)
(1.53476 0.251652 0)
(1.32681 0.213553 1.17018e-18)
(1.54002 0.242775 -4.87905e-20)
(1.32238 0.192881 9.45307e-19)
(1.5992 0.232463 1.1557e-20)
(1.47621 0.187684 -1.27464e-20)
(1.86089 0.266369 -2.77018e-19)
(1.72361 0.217972 1.98291e-19)
(2.01398 0.286923 8.0535e-22)
(1.92268 0.0968215 5.44031e-22)
(0.271877 -0.369948 0)
(0.577487 0.107199 0)
(0.561579 0.319519 -1.28481e-19)