/*--------------------------------*- C++ -*----------------------------------*\
| =========                 |                                                 |
| \\      /  F ield         | OpenFOAM: The Open Source CFD Toolbox           |
|  \\    /   O peration     | Version:  2.4.0                                 |
|   \\  /    A nd           | Web:      www.OpenFOAM.org                      |
|    \\/     M anipulation  |                                                 |
\*---------------------------------------------------------------------------*/
FoamFile
{
    version     2.0;
    format      ascii;
    class       volSymmTensorField;
    location    "0.69";
    object      UPrime2Mean;
}
// * * * * * * * * * * * * * * * * * * * * * * * * * * * * * * * * * * * * * //

dimensions      [0 2 -2 0 0 0 0];

internalField   nonuniform List<symmTensor> 
2320
(
(0.0899314 0.000474667 0 0.000735783 0 0)
(0.0807899 -5.33987e-05 0 0.00250883 0 0)
(0.103826 0.00207405 0 0.00255239 0 0)
(0.0823661 0.000213689 0 0.00259359 0 0)
(0.106859 0.00106957 0 0.00194521 0 0)
(0.0851292 -0.000536775 0 0.00266756 0 0)
(0.110951 0.000603011 0 0.0030914 0 0)
(0.0954211 0.00070325 0 0.00516922 0 0)
(0.124323 0.00252887 0 0.00524607 0 0)
(0.1078 -0.000424758 0 0.00628835 0 0)
(0.131701 -0.000578707 0 0.00599055 0 0)
(0.125542 -0.00210418 0 0.00781 0 0)
(0.146939 -0.000785495 0 0.0078229 0 0)
(0.137905 -0.00329218 0 0.0110286 0 0)
(0.182169 0.00168725 0 0.0107851 0 0)
(0.145443 -0.00506415 0 0.0142033 0 0)
(0.239597 0.00132368 0 0.0159034 0 0)
(0.176276 -0.00768512 0 0.0228517 0 0)
(0.293556 -0.00291398 0 0.027831 0 0)
(0.206077 -0.00591007 0 0.0407569 0 0)
(0.0313514 0.00150705 0 0.00165347 0 0)
(0.048614 0.000168467 0 0.00364964 0 0)
(0.040248 0.00528362 0 0.00498093 0 0)
(0.0388563 0.00257158 0 0.00543964 0 0)
(0.0449733 0.00421412 0 0.00559139 0 0)
(0.0306848 0.00247498 0 0.00436992 0 0)
(0.054383 0.00468231 0 0.00426192 0 0)
(0.0311572 0.00288989 0 0.00554859 0 0)
(0.0585845 0.0057611 0 0.00666138 0 0)
(0.0410542 0.00389 0 0.0077721 0 0)
(0.0604262 0.00419258 0 0.00785267 0 0)
(0.04151 0.00236474 0 0.00884691 0 0)
(0.0661072 0.00265962 0 0.00968032 0 0)
(0.0622161 0.00114706 0 0.0128524 0 0)
(0.0802847 0.000147458 0 0.0138036 0 0)
(0.0785048 -0.00469319 0 0.0179723 0 0)
(0.0794701 -0.00699575 0 0.0189271 0 0)
(0.111484 -0.00971612 0 0.0237366 0 0)
(0.0995416 -0.0119734 0 0.0248098 0 0)
(0.137513 -0.0158879 0 0.0301692 0 0)
(0.0380674 0.000419453 0 0.0021709 0 0)
(0.0360345 0.00120463 0 0.00528641 0 0)
(0.0399187 0.00272768 0 0.00613483 0 0)
(0.0357911 0.00165457 0 0.00530362 0 0)
(0.0399206 0.00250743 0 0.00468966 0 0)
(0.0433504 0.000992881 0 0.00424549 0 0)
(0.0433532 0.00178942 0 0.00465102 0 0)
(0.0492123 0.00163246 0 0.00506272 0 0)
(0.0458885 0.0020497 0 0.00602382 0 0)
(0.0657639 0.00444698 0 0.0065846 0 0)
(0.042007 0.00175595 0 0.00560963 0 0)
(0.0975106 0.0042161 0 0.00601954 0 0)
(0.0403236 0.00130118 0 0.00712592 0 0)
(0.119825 0.0017305 0 0.00906576 0 0)
(0.0445374 0.00609986 0 0.0105701 0 0)
(0.141725 0.00565855 0 0.0100689 0 0)
(0.0505447 0.0033293 0 0.0120274 0 0)
(0.165399 0.00417184 0 0.0121986 0 0)
(0.0674817 0.00233568 0 0.0149702 0 0)
(0.185973 0.00217637 0 0.0211574 0 0)
(0.0178232 -0.000124659 0 0.00350303 0 0)
(0.0365428 0.000133836 0 0.00689151 0 0)
(0.0241437 0.00292569 0 0.00913246 0 0)
(0.0335666 0.0017517 0 0.00735566 0 0)
(0.0248024 0.00230521 0 0.00815596 0 0)
(0.0292812 -0.000204029 0 0.00791369 0 0)
(0.0247878 -0.00016349 0 0.0093821 0 0)
(0.0353049 0.00223929 0 0.00957587 0 0)
(0.0265043 -0.000927594 0 0.0123496 0 0)
(0.0351963 0.00419797 0 0.0118394 0 0)
(0.028532 -0.00160847 0 0.0136587 0 0)
(0.0412777 0.00450784 0 0.0127623 0 0)
(0.0328824 -0.00259446 0 0.0167012 0 0)
(0.0351043 0.00303375 0 0.0154186 0 0)
(0.0363743 0.00204264 0 0.0186048 0 0)
(0.0445933 0.00480956 0 0.0199986 0 0)
(0.0360917 0.000420465 0 0.0219368 0 0)
(0.0371187 0.00380363 0 0.023241 0 0)
(0.0445535 0.00151918 0 0.019559 0 0)
(0.0379294 -0.00110314 0 0.0291033 0 0)
(0.012268 0.00198069 0 0.00287203 0 0)
(0.0439542 0.000299108 0 0.00531931 0 0)
(0.0151657 0.00460509 0 0.00865705 0 0)
(0.0373331 0.00188051 0 0.00644523 0 0)
(0.012243 0.00406317 0 0.00720035 0 0)
(0.036275 0.000787608 0 0.00531712 0 0)
(0.0139049 0.00346638 0 0.00815457 0 0)
(0.0415099 0.00275935 0 0.00719327 0 0)
(0.0166632 0.00345644 0 0.00875301 0 0)
(0.0409483 0.00310686 0 0.00845774 0 0)
(0.0200102 0.00232632 0 0.0107776 0 0)
(0.04336 0.00181582 0 0.00935276 0 0)
(0.0278933 0.00214029 0 0.0111014 0 0)
(0.0469319 0.00118411 0 0.0131961 0 0)
(0.0372637 0.0028073 0 0.0132844 0 0)
(0.0464841 0.00391416 0 0.0136283 0 0)
(0.0512591 0.00485759 0 0.0128015 0 0)
(0.0423536 0.00599314 0 0.0157849 0 0)
(0.0605911 0.00484015 0 0.0112848 0 0)
(0.038209 0.00348799 0 0.0227195 0 0)
(0.0217033 0.0016206 0 0.00572807 0 0)
(0.0294895 0.00348631 0 0.0137516 0 0)
(0.0264729 0.00846708 0 0.0195524 0 0)
(0.0316381 0.00296916 0 0.015048 0 0)
(0.0208417 0.00521735 0 0.0129494 0 0)
(0.0306759 0.00284637 0 0.012521 0 0)
(0.0251243 0.00557441 0 0.0181616 0 0)
(0.0298083 0.00516293 0 0.016828 0 0)
(0.0269079 0.00383259 0 0.0190183 0 0)
(0.030629 0.00721984 0 0.0178785 0 0)
(0.0274609 0.00312338 0 0.0218492 0 0)
(0.0355694 0.00502237 0 0.0195412 0 0)
(0.026277 0.00230403 0 0.0236025 0 0)
(0.0385856 0.00281343 0 0.0256555 0 0)
(0.0287884 0.00136307 0 0.0271994 0 0)
(0.0506384 0.00468594 0 0.0288149 0 0)
(0.037187 4.07496e-05 0 0.0296273 0 0)
(0.0615642 0.00469302 0 0.0380095 0 0)
(0.0561806 -0.000492573 0 0.0279691 0 0)
(0.0701526 0.00622589 0 0.0466429 0 0)
(0.0261053 0.00239539 0 0.00507999 0 0)
(0.0355303 0.0022803 0 0.0124983 0 0)
(0.0284381 0.00824954 0 0.0171618 0 0)
(0.0436716 0.00525185 0 0.0147795 0 0)
(0.0264701 0.00551788 0 0.0116495 0 0)
(0.0474761 0.0018525 0 0.0103536 0 0)
(0.0264698 0.00211879 0 0.0162054 0 0)
(0.0395202 0.0043969 0 0.0162742 0 0)
(0.0250634 0.00307783 0 0.0184305 0 0)
(0.0387563 0.00569501 0 0.0158545 0 0)
(0.0288893 0.00206925 0 0.0202142 0 0)
(0.0350088 0.00631871 0 0.018768 0 0)
(0.0343575 0.00218184 0 0.0220263 0 0)
(0.0353799 0.00386215 0 0.0235851 0 0)
(0.0355217 0.00196929 0 0.0244362 0 0)
(0.04224 0.0025983 0 0.0280114 0 0)
(0.0369899 0.00296456 0 0.0272017 0 0)
(0.0512551 0.00176421 0 0.0373339 0 0)
(0.0423874 0.00453515 0 0.0275341 0 0)
(0.0654778 -0.00605931 0 0.0484056 0 0)
(0.0397061 0.00480845 0 0.00591561 0 0)
(0.0176317 0.00576938 0 0.014595 0 0)
(0.0377943 0.0114693 0 0.019553 0 0)
(0.0196012 0.00769291 0 0.0173152 0 0)
(0.0313992 0.00966005 0 0.0158936 0 0)
(0.0207858 0.00327096 0 0.0150073 0 0)
(0.0316624 0.00558752 0 0.0205779 0 0)
(0.0276733 0.00659411 0 0.0171212 0 0)
(0.0319304 0.00881706 0 0.0201562 0 0)
(0.0284335 0.00882061 0 0.0202484 0 0)
(0.0312222 0.00594488 0 0.0264964 0 0)
(0.034265 0.00549101 0 0.0239819 0 0)
(0.0306696 0.00633063 0 0.0273153 0 0)
(0.0365032 0.00619031 0 0.0309672 0 0)
(0.0307294 0.00427922 0 0.0316756 0 0)
(0.0394818 0.0090318 0 0.0347707 0 0)
(0.0384784 0.00827295 0 0.0301892 0 0)
(0.0433779 0.00832197 0 0.0478237 0 0)
(0.0522679 0.00849069 0 0.0317367 0 0)
(0.0524744 0.00640572 0 0.0636183 0 0)
(0.0432248 0.00441173 0 0.00503828 0 0)
(0.0202891 0.0039146 0 0.0108946 0 0)
(0.0417236 0.00991705 0 0.0140975 0 0)
(0.0192598 0.00566602 0 0.0139035 0 0)
(0.0305284 0.00740655 0 0.0130981 0 0)
(0.024376 0.00393432 0 0.0108407 0 0)
(0.0261486 0.00787584 0 0.0141551 0 0)
(0.0307141 0.00732552 0 0.0123148 0 0)
(0.0240977 0.00668735 0 0.0158719 0 0)
(0.0355307 0.00760777 0 0.0140276 0 0)
(0.0274701 0.00592994 0 0.0188876 0 0)
(0.0387792 0.00723922 0 0.0170375 0 0)
(0.0272461 0.00468323 0 0.0203491 0 0)
(0.0442655 0.00587793 0 0.0235359 0 0)
(0.0294892 0.00660486 0 0.0249848 0 0)
(0.0450192 0.00860883 0 0.0313755 0 0)
(0.0325497 0.00692849 0 0.0286068 0 0)
(0.0509817 0.00786589 0 0.0467686 0 0)
(0.0427599 0.011727 0 0.031164 0 0)
(0.0570669 0.000358719 0 0.0710233 0 0)
(0.0591732 0.00795347 0 0.0048411 0 0)
(0.0262408 0.00505487 0 0.00933228 0 0)
(0.0621298 0.0121782 0 0.0136512 0 0)
(0.0258443 0.00559767 0 0.0128781 0 0)
(0.0578181 0.0120166 0 0.0136842 0 0)
(0.0309333 0.00576717 0 0.010551 0 0)
(0.0545419 0.012082 0 0.0160282 0 0)
(0.038105 0.00563657 0 0.0132574 0 0)
(0.0544862 0.0105566 0 0.0180087 0 0)
(0.0436745 0.00727563 0 0.0156195 0 0)
(0.0597633 0.00955798 0 0.0219902 0 0)
(0.0468455 0.00710407 0 0.0200805 0 0)
(0.0527138 0.00741344 0 0.0249239 0 0)
(0.0480695 0.0089189 0 0.0248824 0 0)
(0.0505146 0.00767135 0 0.02977 0 0)
(0.0397188 0.0146133 0 0.0330422 0 0)
(0.0498927 0.00925538 0 0.0304788 0 0)
(0.0319108 0.0149451 0 0.0463589 0 0)
(0.0607814 0.0118966 0 0.0318612 0 0)
(0.0314091 0.00592115 0 0.0729144 0 0)
(0.0655264 0.00551148 0 0.00464898 0 0)
(0.0160892 0.00456654 0 0.00990705 0 0)
(0.0812409 0.0115324 0 0.0119548 0 0)
(0.0170536 0.00441057 0 0.0127295 0 0)
(0.079346 0.00725116 0 0.0115791 0 0)
(0.0265396 0.00432356 0 0.0102508 0 0)
(0.0718876 0.00755577 0 0.0139402 0 0)
(0.0355427 0.00120176 0 0.0128659 0 0)
(0.064724 0.00478521 0 0.014927 0 0)
(0.051492 0.0024211 0 0.0134015 0 0)
(0.0697611 0.00728793 0 0.0164419 0 0)
(0.0626871 0.00241631 0 0.0164419 0 0)
(0.0699411 0.00594729 0 0.0153269 0 0)
(0.0742354 0.00329478 0 0.0182358 0 0)
(0.0642149 0.00742148 0 0.0174386 0 0)
(0.075066 0.00342206 0 0.024746 0 0)
(0.0589655 0.00961635 0 0.0192814 0 0)
(0.0755756 -8.65005e-05 0 0.0386157 0 0)
(0.0511672 0.0153811 0 0.0244447 0 0)
(0.071965 -0.00290136 0 0.0689184 0 0)
(0.0346754 0.00817819 0 0.00575947 0 0)
(0.0357439 0.00308857 0 0.0088553 0 0)
(0.0523197 0.01329 0 0.0131173 0 0)
(0.0305023 0.00448668 0 0.0116477 0 0)
(0.060202 0.0131779 0 0.0136248 0 0)
(0.0252932 0.00454979 0 0.0111998 0 0)
(0.061151 0.013178 0 0.0167568 0 0)
(0.029395 0.00444367 0 0.0140412 0 0)
(0.0673522 0.0113275 0 0.0194825 0 0)
(0.0348824 0.00797062 0 0.0171101 0 0)
(0.0762989 0.012786 0 0.0230298 0 0)
(0.0482725 0.0121007 0 0.0201363 0 0)
(0.0877536 0.0143491 0 0.0224547 0 0)
(0.0620458 0.01511 0 0.0243699 0 0)
(0.0982568 0.0162968 0 0.0251434 0 0)
(0.0784758 0.0175472 0 0.028208 0 0)
(0.122357 0.0192585 0 0.0222058 0 0)
(0.0896652 0.0169454 0 0.0369541 0 0)
(0.165145 0.0194764 0 0.0214767 0 0)
(0.0983667 -0.0107453 0 0.0762276 0 0)
(0.0363542 0.00557706 0 0.00428119 0 0)
(0.04194 0.00265508 0 0.0061652 0 0)
(0.0374368 0.0106925 0 0.0109187 0 0)
(0.0432921 0.00455919 0 0.00886956 0 0)
(0.0384537 0.0115948 0 0.012159 0 0)
(0.0409773 0.000964939 0 0.00906031 0 0)
(0.0436242 0.0123576 0 0.01239 0 0)
(0.0479002 0.00125417 0 0.00907004 0 0)
(0.0512167 0.00828774 0 0.0135058 0 0)
(0.0561353 0.00195587 0 0.0126572 0 0)
(0.0601167 0.00398966 0 0.0183703 0 0)
(0.0577794 0.00738936 0 0.0145622 0 0)
(0.0788114 -0.00249059 0 0.0192024 0 0)
(0.0587878 0.00854031 0 0.017235 0 0)
(0.101713 -0.00417872 0 0.0209949 0 0)
(0.0573847 0.0103011 0 0.0195499 0 0)
(0.123757 -0.00572499 0 0.0217227 0 0)
(0.0659532 0.0116619 0 0.0287736 0 0)
(0.18484 0.000833302 0 0.0221969 0 0)
(0.0695392 0.00494034 0 0.0601924 0 0)
(0.0489264 0.00942407 0 0.00562732 0 0)
(0.0324809 0.00284618 0 0.0084541 0 0)
(0.0500912 0.0142389 0 0.0143228 0 0)
(0.0392038 0.00416219 0 0.0116821 0 0)
(0.0509699 0.0164902 0 0.0167507 0 0)
(0.0396201 0.000542593 0 0.0115065 0 0)
(0.0499979 0.0155213 0 0.0200427 0 0)
(0.0487611 0.000157063 0 0.0148669 0 0)
(0.0536107 0.0108735 0 0.0245188 0 0)
(0.0588835 0.00162589 0 0.0222405 0 0)
(0.0570138 0.0109347 0 0.0291855 0 0)
(0.0607542 0.00835423 0 0.024729 0 0)
(0.0655127 0.0105003 0 0.0302843 0 0)
(0.0583144 0.00888722 0 0.0300463 0 0)
(0.0641697 0.010444 0 0.0369416 0 0)
(0.0542562 0.00787539 0 0.035715 0 0)
(0.0630357 0.00352575 0 0.0415429 0 0)
(0.0566522 0.00899258 0 0.0541713 0 0)
(0.082957 0.00814744 0 0.0396167 0 0)
(0.062286 0.00465964 0 0.0970655 0 0)
(0.0530094 0.00570871 0 0.00367604 0 0)
(0.0433505 0.00347679 0 0.00580159 0 0)
(0.0563399 0.0105621 0 0.0104521 0 0)
(0.0456736 0.00461849 0 0.00900985 0 0)
(0.0554638 0.01215 0 0.0135575 0 0)
(0.0458939 -0.000775044 0 0.0130889 0 0)
(0.0616642 0.0109021 0 0.0158534 0 0)
(0.0546823 -0.00436577 0 0.0150651 0 0)
(0.0603979 0.00839296 0 0.0183123 0 0)
(0.0626693 -8.02696e-05 0 0.0203507 0 0)
(0.0574313 0.00742841 0 0.0238861 0 0)
(0.0625357 0.00678732 0 0.0205131 0 0)
(0.0591316 -0.00197233 0 0.026463 0 0)
(0.064281 0.0064515 0 0.0242117 0 0)
(0.0676691 -0.00683221 0 0.0287971 0 0)
(0.068727 0.000820503 0 0.024059 0 0)
(0.0841147 -0.0159985 0 0.0343286 0 0)
(0.0856447 -0.0012269 0 0.0303972 0 0)
(0.102497 -0.013953 0 0.0350475 0 0)
(0.099996 0.00716528 0 0.0481583 0 0)
(0.0514183 0.00939939 0 0.00546338 0 0)
(0.0294437 0.00436013 0 0.00784384 0 0)
(0.0542643 0.0162444 0 0.013045 0 0)
(0.0316652 0.00711434 0 0.0114009 0 0)
(0.052139 0.0167301 0 0.0206853 0 0)
(0.0362233 -0.000464386 0 0.0168784 0 0)
(0.0495081 0.0153526 0 0.0280358 0 0)
(0.0371896 -0.00064636 0 0.0199239 0 0)
(0.0477711 0.0148137 0 0.0306099 0 0)
(0.0424293 0.00764865 0 0.0287681 0 0)
(0.0508078 0.0165411 0 0.0337433 0 0)
(0.0397365 0.0086908 0 0.0354721 0 0)
(0.0557416 0.00896631 0 0.0430023 0 0)
(0.0482795 0.00476863 0 0.0392121 0 0)
(0.0572809 0.0032813 0 0.0544753 0 0)
(0.0620401 -0.00150494 0 0.0451621 0 0)
(0.0710619 -0.0202019 0 0.0859548 0 0)
(0.0867158 0.000506971 0 0.0829867 0 0)
(0.093114 -0.0369706 0 0.107961 0 0)
(0.075784 0.0193112 0 0.237435 0 0)
(0.0507047 0.00270836 0 0.00246223 0 0)
(0.0291451 0.00339634 0 0.00506731 0 0)
(0.0568822 0.00766125 0 0.00703165 0 0)
(0.0303416 0.00703452 0 0.0117873 0 0)
(0.0565527 0.00706972 0 0.0167047 0 0)
(0.0292687 0.0039164 0 0.0200841 0 0)
(0.0496066 0.00691632 0 0.0185619 0 0)
(0.0265765 0.00465685 0 0.0201716 0 0)
(0.0519182 0.00776986 0 0.0207887 0 0)
(0.0284701 0.00521867 0 0.0286601 0 0)
(0.0607307 0.00740447 0 0.0258455 0 0)
(0.0341344 0.000407994 0 0.0300194 0 0)
(0.0714086 0.00659588 0 0.0276145 0 0)
(0.0572837 0.00734847 0 0.0339283 0 0)
(0.0638162 0.00444674 0 0.0259642 0 0)
(0.0477412 0.00122596 0 0.0343918 0 0)
(0.0925245 0.00105329 0 0.0380398 0 0)
(0.0723042 0.011947 0 0.0324507 0 0)
(0.116193 -0.0245207 0 0.0472919 0 0)
(0.053267 0.00724584 0 0.0386269 0 0)
(0.0465432 0.00914474 0 0.00392636 0 0)
(0.0375577 0.00627706 0 0.00657762 0 0)
(0.0568267 0.0155618 0 0.00929558 0 0)
(0.0395004 0.0118753 0 0.0160131 0 0)
(0.0536956 0.0210825 0 0.0190467 0 0)
(0.0420096 0.0197832 0 0.020979 0 0)
(0.0633915 0.027361 0 0.0213515 0 0)
(0.0509289 0.0127894 0 0.0248094 0 0)
(0.0681365 0.0235698 0 0.0264352 0 0)
(0.0630264 0.00107852 0 0.034907 0 0)
(0.072664 0.016452 0 0.0319693 0 0)
(0.0746105 0.00174945 0 0.0352518 0 0)
(0.0931383 0.0163594 0 0.0391998 0 0)
(0.0757868 0.00566827 0 0.0385977 0 0)
(0.0917372 0.0132429 0 0.0430124 0 0)
(0.0898917 -0.00669081 0 0.0483646 0 0)
(0.102738 0.00749744 0 0.0608361 0 0)
(0.0557911 0.0201937 0 0.083176 0 0)
(0.0868234 -0.0421543 0 0.110214 0 0)
(0.12757 -0.0435999 0 0.476599 0 0)
(0.0322566 -0.000225882 0 0.00130796 0 0)
(0.041678 0.00342904 0 0.00260711 0 0)
(0.0399705 0.00376904 0 0.00526737 0 0)
(0.0490163 0.0138533 0 0.0126313 0 0)
(0.0789921 0.0204086 0 0.0127935 0 0)
(0.15094 0.0250817 0 0.0150945 0 0)
(0.203631 0.0234068 0 0.0168864 0 0)
(0.215779 0.0152133 0 0.0203951 0 0)
(0.278722 0.0104435 0 0.0203649 0 0)
(0.24922 0.00217964 0 0.0246274 0 0)
(0.25153 -0.00250909 0 0.0185014 0 0)
(0.250503 -0.00710282 0 0.0284488 0 0)
(0.196805 -0.00950913 0 0.0246502 0 0)
(0.167327 0.0057667 0 0.0350501 0 0)
(0.238343 -0.0231982 0 0.0247274 0 0)
(0.116161 -0.0196158 0 0.060011 0 0)
(0.229487 -0.0462284 0 0.048221 0 0)
(0.0853374 -0.0405787 0 0.0818944 0 0)
(0.100597 -0.0112128 0 0.0215064 0 0)
(0.163747 0.0211941 0 0.0368957 0 0)
(0.0361877 0.00309259 0 0.00171036 0 0)
(0.0419095 4.03115e-05 0 0.0027228 0 0)
(0.052925 0.00764772 0 0.00436163 0 0)
(0.117324 0.00546181 0 0.00454742 0 0)
(0.208985 -0.000499 0 0.00635823 0 0)
(0.275414 0.00280213 0 0.00923567 0 0)
(0.451941 0.00684736 0 0.00745068 0 0)
(0.480749 -0.00861876 0 0.00935718 0 0)
(0.629014 0.00372414 0 0.010209 0 0)
(0.62497 -0.021194 0 0.011774 0 0)
(0.657092 -0.0133285 0 0.0139484 0 0)
(0.644366 -0.0263214 0 0.0140356 0 0)
(0.639706 -0.00877963 0 0.015172 0 0)
(0.618849 -0.0429848 0 0.0158184 0 0)
(0.710293 0.0145194 0 0.0233079 0 0)
(0.643857 -0.0711351 0 0.0216506 0 0)
(0.720448 0.0676666 0 0.0380336 0 0)
(0.487169 -0.0977619 0 0.0436881 0 0)
(0.61343 -0.0638276 0 0.0329555 0 0)
(0.124564 -0.0998333 0 0.405887 0 0)
(0.359245 0.00928468 0 0.0469253 0 0)
(0.230109 0.00489186 0 0.0592535 0 0)
(0.40608 0.0107819 0 0.0506257 0 0)
(0.215979 -0.00704291 0 0.0415013 0 0)
(0.552424 -0.0190322 0 0.0458502 0 0)
(0.339245 -0.00493563 0 0.0635115 0 0)
(0.718845 -0.00716447 0 0.0651881 0 0)
(0.428453 -0.000467264 0 0.0616701 0 0)
(0.131954 -0.00197368 0 0.0319746 0 0)
(0.16151 -0.00455175 0 0.0409719 0 0)
(0.182602 -0.00571025 0 0.034693 0 0)
(0.217274 -0.0242277 0 0.0440192 0 0)
(0.236902 -0.0324826 0 0.049151 0 0)
(0.298862 -0.0433789 0 0.0643772 0 0)
(0.343344 -0.0293826 0 0.0528504 0 0)
(0.363132 -0.0330512 0 0.0711156 0 0)
(0.088992 0.00283041 0 0.0248078 0 0)
(0.205377 -0.0125893 0 0.0346873 0 0)
(0.120845 -0.0118339 0 0.0300374 0 0)
(0.199226 -0.0202867 0 0.0314525 0 0)
(0.143422 -0.0108911 0 0.0334645 0 0)
(0.252037 -0.0227084 0 0.0379902 0 0)
(0.19743 -0.0206462 0 0.0448481 0 0)
(0.365477 -0.030073 0 0.0375214 0 0)
(0.0611478 0.00231578 0 0.0252282 0 0)
(0.0837945 -0.00213383 0 0.0433289 0 0)
(0.0852919 -0.00551272 0 0.0282471 0 0)
(0.143692 -0.0209392 0 0.0423257 0 0)
(0.129039 -0.0166664 0 0.039418 0 0)
(0.263368 -0.0330454 0 0.0458956 0 0)
(0.23163 -0.034115 0 0.0412257 0 0)
(0.337017 -0.0575112 0 0.0525884 0 0)
(0.0719768 -0.00170283 0 0.0130043 0 0)
(0.0541917 -0.00469968 0 0.0393016 0 0)
(0.103993 -0.0134405 0 0.0233198 0 0)
(0.101087 -0.0366002 0 0.0446628 0 0)
(0.116547 -0.0329918 0 0.0347352 0 0)
(0.22401 -0.0644667 0 0.0453268 0 0)
(0.17664 -0.0569284 0 0.0455006 0 0)
(0.325974 -0.0774951 0 0.0495028 0 0)
(0.0859843 -0.0100477 0 0.0249984 0 0)
(0.0810754 0.00148689 0 0.0529964 0 0)
(0.135479 -0.03129 0 0.0271964 0 0)
(0.0965237 -0.0294984 0 0.0539212 0 0)
(0.154726 -0.0563352 0 0.0437658 0 0)
(0.197899 -0.0768079 0 0.0591521 0 0)
(0.183708 -0.064034 0 0.0455292 0 0)
(0.423628 -0.132794 0 0.0667855 0 0)
(0.0531805 -0.00228184 0 0.023297 0 0)
(0.0653917 -0.00816158 0 0.0655802 0 0)
(0.0845077 -0.0253908 0 0.0302874 0 0)
(0.0767061 -0.0350148 0 0.0715006 0 0)
(0.158853 -0.0779277 0 0.0654978 0 0)
(0.1273 -0.0589619 0 0.061745 0 0)
(0.300235 -0.134419 0 0.0849644 0 0)
(0.420944 -0.164419 0 0.0944841 0 0)
(0.0669706 0.00450184 0 0.0242065 0 0)
(0.0634536 -0.00303728 0 0.0864272 0 0)
(0.0911228 -0.0248732 0 0.0279493 0 0)
(0.0737995 -0.0467926 0 0.095742 0 0)
(0.127988 -0.0579734 0 0.0547661 0 0)
(0.253627 -0.134838 0 0.112784 0 0)
(0.43729 -0.210746 0 0.127183 0 0)
(0.538328 -0.233165 0 0.130681 0 0)
(0.0640356 0.0115213 0 0.0288656 0 0)
(0.0770155 -0.0193902 0 0.109637 0 0)
(0.144979 -0.0427407 0 0.0416875 0 0)
(0.0842199 -0.0254605 0 0.099768 0 0)
(0.272853 -0.139267 0 0.102406 0 0)
(0.353207 -0.224196 0 0.183013 0 0)
(0.467595 -0.259529 0 0.171322 0 0)
(0.546618 -0.270545 0 0.168493 0 0)
(0.0755694 0.0152147 0 0.0328989 0 0)
(0.0525878 -0.0275054 0 0.143995 0 0)
(0.107332 0.00247676 0 0.0241499 0 0)
(0.15947 -0.11601 0 0.230483 0 0)
(0.420042 -0.256455 0 0.194575 0 0)
(0.315448 -0.23153 0 0.224874 0 0)
(0.462873 -0.265739 0 0.188539 0 0)
(0.586913 -0.309474 0 0.201365 0 0)
(0.070767 0.0104702 0 0.0485 0 0)
(0.0615634 -0.00619611 0 0.125449 0 0)
(0.205805 -0.0276258 0 0.0537734 0 0)
(0.22784 -0.215595 0 0.336059 0 0)
(0.442681 -0.25758 0 0.207422 0 0)
(0.254015 -0.212161 0 0.2372 0 0)
(0.581116 -0.342412 0 0.248902 0 0)
(0.603078 -0.335967 0 0.228839 0 0)
(0.16042 0.0255937 0 0.0318237 0 0)
(0.10974 -0.0583307 0 0.18806 0 0)
(0.167892 -0.0996236 0 0.15968 0 0)
(0.228965 -0.263208 0 0.436408 0 0)
(0.367135 -0.233833 0 0.219079 0 0)
(0.303597 -0.290705 0 0.355472 0 0)
(0.644454 -0.38767 0 0.292418 0 0)
(0.418974 -0.259964 0 0.207683 0 0)
(0.410965 0.0648462 0 0.0362238 0 0)
(0.0998298 -0.0735229 0 0.244947 0 0)
(0.167044 -0.142899 0 0.275233 0 0)
(0.22988 -0.269284 0 0.465647 0 0)
(0.380892 -0.251617 0 0.261955 0 0)
(0.351073 -0.336112 0 0.41421 0 0)
(0.552805 -0.306261 0 0.241621 0 0)
(0.346315 -0.223663 0 0.196211 0 0)
(0.213461 0.0370263 0 0.0448085 0 0)
(0.145079 -0.138879 0 0.344815 0 0)
(0.199497 -0.210862 0 0.378668 0 0)
(0.213473 -0.265456 0 0.490025 0 0)
(0.354202 -0.259271 0 0.299083 0 0)
(0.290155 -0.333818 0 0.481788 0 0)
(0.539691 -0.285764 0 0.234386 0 0)
(0.342129 -0.28049 0 0.276416 0 0)
(0.210081 0.0956497 0 0.117087 0 0)
(0.224427 -0.254199 0 0.491587 0 0)
(0.194164 -0.205214 0 0.463829 0 0)
(0.198736 -0.257878 0 0.475479 0 0)
(0.355102 -0.256958 0 0.337007 0 0)
(0.308152 -0.362157 0 0.508571 0 0)
(0.476545 -0.23097 0 0.210407 0 0)
(0.373605 -0.335102 0 0.349107 0 0)
(0.112011 0.0482426 0 0.130721 0 0)
(0.261359 -0.303865 0 0.536232 0 0)
(0.211553 -0.204781 0 0.475727 0 0)
(0.216971 -0.280793 0 0.488902 0 0)
(0.372685 -0.272616 0 0.377394 0 0)
(0.238712 -0.325361 0 0.510718 0 0)
(0.44461 -0.216786 0 0.22214 0 0)
(0.557855 -0.542067 0 0.571688 0 0)
(0.0957849 0.0141112 0 0.451535 0 0)
(0.273798 -0.377319 0 0.677748 0 0)
(0.190616 -0.216015 0 0.54722 0 0)
(0.2309 -0.29272 0 0.492275 0 0)
(0.326842 -0.254302 0 0.394557 0 0)
(0.247076 -0.332192 0 0.516532 0 0)
(0.54331 -0.303916 0 0.326441 0 0)
(0.607567 -0.63498 0 0.707518 0 0)
(0.111146 -0.153796 0 0.532581 0 0)
(0.25703 -0.323943 0 0.59008 0 0)
(0.164849 -0.2128 0 0.518301 0 0)
(0.241305 -0.305895 0 0.497889 0 0)
(0.291809 -0.272177 0 0.440837 0 0)
(0.261785 -0.354545 0 0.551156 0 0)
(0.488165 -0.319578 0 0.399638 0 0)
(0.599988 -0.710283 0 0.889227 0 0)
(0.145694 -0.312965 0 1.25239 0 0)
(0.197144 -0.336954 0 0.730164 0 0)
(0.15317 -0.232073 0 0.622157 0 0)
(0.254759 -0.334653 0 0.520372 0 0)
(0.250897 -0.255466 0 0.46819 0 0)
(0.263111 -0.348681 0 0.526663 0 0)
(0.529344 -0.382468 0 0.512298 0 0)
(0.496144 -0.686589 0 0.985103 0 0)
(0.198318 -0.367929 0 1.10759 0 0)
(0.185302 -0.270405 0 0.552516 0 0)
(0.153183 -0.223448 0 0.559237 0 0)
(0.232077 -0.311182 0 0.496476 0 0)
(0.249326 -0.269778 0 0.487066 0 0)
(0.310717 -0.399064 0 0.584253 0 0)
(0.474574 -0.394985 0 0.532366 0 0)
(0.419717 -0.597323 0 0.92678 0 0)
(0.883343 0.00186067 0 0.0526412 0 0)
(0.556273 -0.0064998 0 0.0532526 0 0)
(0.985689 -0.0164575 0 0.0406583 0 0)
(0.686894 -0.0252066 0 0.0349433 0 0)
(0.976223 -0.0405683 0 0.0209655 0 0)
(0.850932 -0.0416043 0 0.0195828 0 0)
(1.07458 -0.037128 0 0.018536 0 0)
(1.10309 -0.0586709 0 0.0169488 0 0)
(1.19494 -0.0403365 0 0.0118749 0 0)
(1.45623 -0.0640502 0 0.0148525 0 0)
(1.38317 -0.044295 0 0.0106646 0 0)
(1.82044 -0.0638047 0 0.0123627 0 0)
(1.59815 -0.0373005 0 0.010329 0 0)
(2.10047 -0.0595479 0 0.0118133 0 0)
(1.70524 -0.0225333 0 0.00988903 0 0)
(2.20216 -0.0474475 0 0.0127941 0 0)
(1.62976 -0.00560322 0 0.0108973 0 0)
(2.0571 -0.0354506 0 0.014048 0 0)
(1.3584 0.00527758 0 0.0155245 0 0)
(1.70544 -0.0237076 0 0.0168775 0 0)
(1.01251 0.00315154 0 0.0218193 0 0)
(1.24263 -0.0222355 0 0.0217834 0 0)
(0.752999 -0.00259529 0 0.0309829 0 0)
(0.855553 -0.0294001 0 0.0305644 0 0)
(0.648449 -0.0171908 0 0.0420799 0 0)
(0.625768 -0.0400399 0 0.0446601 0 0)
(0.718502 -0.083034 0 0.0654205 0 0)
(0.526602 -0.0329754 0 0.0483054 0 0)
(0.447078 -0.0196562 0 0.0579745 0 0)
(0.454808 -0.0308041 0 0.0698557 0 0)
(0.574271 -0.0259843 0 0.0676877 0 0)
(0.567091 -0.0289766 0 0.0641495 0 0)
(0.731602 -0.0223193 0 0.048346 0 0)
(0.734704 -0.0298057 0 0.0423478 0 0)
(0.896327 -0.0218565 0 0.0323458 0 0)
(0.970046 -0.0380262 0 0.0232508 0 0)
(1.09476 -0.0223147 0 0.0245485 0 0)
(1.27638 -0.0405134 0 0.0193607 0 0)
(1.35242 -0.026664 0 0.0207933 0 0)
(1.60659 -0.0273722 0 0.0157512 0 0)
(1.60048 -0.0187166 0 0.0184109 0 0)
(1.86105 0.00648994 0 0.0130316 0 0)
(1.73192 0.00857783 0 0.0149697 0 0)
(1.924 0.0522181 0 0.0142046 0 0)
(1.66469 0.0456495 0 0.0151009 0 0)
(1.74197 0.0955049 0 0.0184329 0 0)
(1.38786 0.0733633 0 0.0185638 0 0)
(1.36181 0.117768 0 0.0268266 0 0)
(0.998295 0.077378 0 0.0236737 0 0)
(0.92419 0.105754 0 0.0347058 0 0)
(0.635962 0.0608924 0 0.0303139 0 0)
(0.569028 0.0750716 0 0.047041 0 0)
(0.442116 0.0354169 0 0.0427899 0 0)
(0.357243 0.0393423 0 0.0567048 0 0)
(0.439279 -0.0134655 0 0.0664608 0 0)
(0.324114 -0.0158538 0 0.0846177 0 0)
(0.278305 -0.0345413 0 0.0415884 0 0)
(0.501197 -0.0462839 0 0.0429821 0 0)
(0.460081 -0.0621491 0 0.0453414 0 0)
(0.641386 -0.0609215 0 0.0575226 0 0)
(0.619359 -0.0634901 0 0.0436826 0 0)
(0.807483 -0.0781194 0 0.0523839 0 0)
(0.815299 -0.0879268 0 0.0512775 0 0)
(1.02842 -0.102544 0 0.0642716 0 0)
(1.08644 -0.107087 0 0.0491121 0 0)
(1.32561 -0.123091 0 0.059126 0 0)
(1.41153 -0.112905 0 0.0450163 0 0)
(1.64428 -0.11972 0 0.0461067 0 0)
(1.71806 -0.0876008 0 0.0324702 0 0)
(1.87513 -0.0771094 0 0.0309033 0 0)
(1.89128 -0.0245584 0 0.0203057 0 0)
(1.91831 -0.0103483 0 0.0184727 0 0)
(1.83059 0.054096 0 0.0159931 0 0)
(1.7205 0.0618345 0 0.0151223 0 0)
(1.53102 0.115639 0 0.0201585 0 0)
(1.33217 0.101335 0 0.0223017 0 0)
(1.08059 0.133582 0 0.0315046 0 0)
(0.895824 0.0958229 0 0.0297163 0 0)
(0.654763 0.108267 0 0.0434459 0 0)
(0.553653 0.0590419 0 0.0373533 0 0)
(0.373958 0.058002 0 0.0581387 0 0)
(0.381634 0.017185 0 0.0522875 0 0)
(0.307589 0.000194729 0 0.0919541 0 0)
(0.405714 -0.0565046 0 0.0904246 0 0)
(0.340188 -0.0452933 0 0.0554595 0 0)
(0.46893 -0.0669357 0 0.0501072 0 0)
(0.470868 -0.0673711 0 0.0433162 0 0)
(0.672501 -0.0794583 0 0.0464899 0 0)
(0.661348 -0.0756071 0 0.0447994 0 0)
(0.896398 -0.0967491 0 0.0592265 0 0)
(0.8982 -0.0902823 0 0.061809 0 0)
(1.16662 -0.110503 0 0.0677661 0 0)
(1.17984 -0.114234 0 0.0723564 0 0)
(1.47553 -0.123084 0 0.0734834 0 0)
(1.5047 -0.113254 0 0.0679538 0 0)
(1.79529 -0.101309 0 0.0592688 0 0)
(1.78225 -0.074674 0 0.0530464 0 0)
(2.02605 -0.0308165 0 0.0399754 0 0)
(1.91016 0.010039 0 0.0354919 0 0)
(2.05984 0.0726776 0 0.0283382 0 0)
(1.81162 0.111139 0 0.028913 0 0)
(1.84209 0.172539 0 0.0332366 0 0)
(1.48688 0.186591 0 0.0395832 0 0)
(1.42842 0.222037 0 0.0515645 0 0)
(1.0371 0.199558 0 0.0600201 0 0)
(0.949982 0.198884 0 0.0726947 0 0)
(0.63413 0.158403 0 0.0773253 0 0)
(0.572804 0.122426 0 0.0825854 0 0)
(0.380412 0.0882249 0 0.0925467 0 0)
(0.390487 0.0388569 0 0.0902716 0 0)
(0.303316 0.013368 0 0.128824 0 0)
(0.398072 -0.0539524 0 0.129368 0 0)
(0.364226 -0.0901499 0 0.0533164 0 0)
(0.490634 -0.0900904 0 0.0533592 0 0)
(0.605943 -0.118149 0 0.0594159 0 0)
(0.702647 -0.107892 0 0.0751852 0 0)
(0.843867 -0.127391 0 0.0781744 0 0)
(0.971453 -0.140201 0 0.103974 0 0)
(1.09178 -0.145224 0 0.104503 0 0)
(1.272 -0.178887 0 0.134968 0 0)
(1.35791 -0.163541 0 0.128214 0 0)
(1.60722 -0.205096 0 0.142204 0 0)
(1.63839 -0.164477 0 0.123954 0 0)
(1.93629 -0.181344 0 0.117004 0 0)
(1.86742 -0.113608 0 0.0918648 0 0)
(2.15686 -0.0929543 0 0.0759088 0 0)
(1.95315 -0.00723158 0 0.054312 0 0)
(2.17213 0.041189 0 0.0421879 0 0)
(1.83639 0.118126 0 0.0385813 0 0)
(1.93393 0.174702 0 0.0355063 0 0)
(1.51967 0.210378 0 0.0508753 0 0)
(1.48886 0.246134 0 0.0594607 0 0)
(1.09609 0.236273 0 0.0786696 0 0)
(0.982298 0.225552 0 0.0841538 0 0)
(0.698443 0.187144 0 0.108054 0 0)
(0.578374 0.145742 0 0.0981086 0 0)
(0.458056 0.0903433 0 0.127741 0 0)
(0.358069 0.0507553 0 0.108498 0 0)
(0.393851 -0.0219524 0 0.156997 0 0)
(0.358002 -0.0352548 0 0.14504 0 0)
(0.355946 -0.106908 0 0.0622649 0 0)
(0.697328 -0.162756 0 0.0738368 0 0)
(0.672501 -0.15874 0 0.0773882 0 0)
(0.926218 -0.16128 0 0.0849561 0 0)
(0.98911 -0.176477 0 0.0986879 0 0)
(1.13618 -0.164455 0 0.118491 0 0)
(1.23401 -0.173913 0 0.139581 0 0)
(1.3579 -0.177933 0 0.162348 0 0)
(1.46174 -0.174434 0 0.169466 0 0)
(1.62809 -0.179517 0 0.180306 0 0)
(1.70579 -0.155607 0 0.164481 0 0)
(1.87912 -0.128867 0 0.14955 0 0)
(1.89744 -0.0847424 0 0.124325 0 0)
(2.00727 -0.0177984 0 0.0976206 0 0)
(1.95975 0.0426202 0 0.0764772 0 0)
(1.94675 0.125892 0 0.0618001 0 0)
(1.84271 0.190992 0 0.0594267 0 0)
(1.6889 0.254626 0 0.0655256 0 0)
(1.55822 0.298864 0 0.080842 0 0)
(1.28317 0.306279 0 0.103716 0 0)
(1.18056 0.33074 0 0.124631 0 0)
(0.871017 0.263186 0 0.143474 0 0)
(0.797057 0.27155 0 0.16289 0 0)
(0.565324 0.164828 0 0.165016 0 0)
(0.533338 0.151223 0 0.180765 0 0)
(0.408833 0.0552599 0 0.171334 0 0)
(0.451711 0.017136 0 0.192518 0 0)
(0.398282 -0.0334454 0 0.195816 0 0)
(0.523302 -0.19077 0 0.0967118 0 0)
(0.780535 -0.228921 0 0.11095 0 0)
(0.755313 -0.212292 0 0.108895 0 0)
(1.04626 -0.211066 0 0.130305 0 0)
(0.964875 -0.201703 0 0.143809 0 0)
(1.20025 -0.168019 0 0.178428 0 0)
(1.16635 -0.195468 0 0.206242 0 0)
(1.36217 -0.160009 0 0.242829 0 0)
(1.3872 -0.198801 0 0.255515 0 0)
(1.56933 -0.153654 0 0.270715 0 0)
(1.60685 -0.171605 0 0.239484 0 0)
(1.74719 -0.0991752 0 0.225423 0 0)
(1.74894 -0.0902853 0 0.176794 0 0)
(1.79912 0.00672182 0 0.145977 0 0)
(1.76234 0.0495651 0 0.104858 0 0)
(1.70049 0.135791 0 0.0831657 0 0)
(1.63027 0.201438 0 0.0720867 0 0)
(1.45988 0.249092 0 0.074945 0 0)
(1.37586 0.310278 0 0.0968035 0 0)
(1.12926 0.291565 0 0.115125 0 0)
(1.04383 0.33487 0 0.151328 0 0)
(0.813363 0.257063 0 0.1714 0 0)
(0.725281 0.264063 0 0.195965 0 0)
(0.577616 0.167603 0 0.207404 0 0)
(0.519262 0.140194 0 0.220598 0 0)
(0.462243 0.0546076 0 0.227765 0 0)
(0.449817 0.0127369 0 0.223361 0 0)
(0.453686 -0.0560056 0 0.249671 0 0)
(0.69513 -0.257401 0 0.130473 0 0)
(0.804724 -0.259318 0 0.132368 0 0)
(0.84894 -0.226571 0 0.123871 0 0)
(0.981875 -0.208423 0 0.14039 0 0)
(0.948996 -0.167899 0 0.157938 0 0)
(1.10365 -0.152882 0 0.205507 0 0)
(1.09119 -0.149691 0 0.245169 0 0)
(1.31119 -0.130737 0 0.289502 0 0)
(1.3135 -0.154361 0 0.308797 0 0)
(1.52998 -0.0921816 0 0.315771 0 0)
(1.5 -0.103099 0 0.285596 0 0)
(1.63781 -0.0121733 0 0.262533 0 0)
(1.56438 0.000720241 0 0.211579 0 0)
(1.60305 0.0952303 0 0.169732 0 0)
(1.50128 0.1319 0 0.133273 0 0)
(1.45405 0.20505 0 0.104221 0 0)
(1.32848 0.254491 0 0.0996221 0 0)
(1.23108 0.28919 0 0.101495 0 0)