/*--------------------------------*- C++ -*----------------------------------*\
| =========                 |                                                 |
| \\      /  F ield         | OpenFOAM: The Open Source CFD Toolbox           |
|  \\    /   O peration     | Version:  2.4.0                                 |
|   \\  /    A nd           | Web:      www.OpenFOAM.org                      |
|    \\/     M anipulation  |                                                 |
\*---------------------------------------------------------------------------*/
FoamFile
{
    version     2.0;
    format      ascii;
    class       volScalarField;
    location    "7.14";
    object      k;
}
// * * * * * * * * * * * * * * * * * * * * * * * * * * * * * * * * * * * * * //

dimensions      [0 2 -2 0 0 0 0];

internalField   nonuniform List<scalar> 
6000
(
0.168224
0.0132713
0.00097839
0.00362165
0.00250562
0.00292586
0.00242113
0.00239032
0.00212347
0.00204742
0.00191175
0.00187067
0.00182906
0.00184484
0.00187991
0.00195562
0.00205661
0.00219092
0.00235257
0.00254465
0.00276465
0.00301306
0.00328766
0.00358661
0.0039062
0.00424222
0.00458918
0.00494059
0.00528839
0.00562299
0.00593341
0.00620734
0.00643142
0.00659156
0.00667286
0.00666171
0.00654623
0.00631623
0.00596747
0.00550021
0.00492982
0.00427996
0.00360396
0.00293689
0.00393319
0.00520711
0.00672665
0.0086398
0.0107699
0.013507
0.0162396
0.020154
0.0233252
0.0293448
0.0323132
0.0429749
0.0436028
0.06604
0.0588211
0.110324
0.0762046
0.0101514
0.000944407
0.00240533
0.00171405
0.00192193
0.0016082
0.00156861
0.00140047
0.00134355
0.00125713
0.00122678
0.00119949
0.00120666
0.00122712
0.00127189
0.00133236
0.00141232
0.00150829
0.00162146
0.00175025
0.0018946
0.00205316
0.00222484
0.00240776
0.0025999
0.0027988
0.00300171
0.0032053
0.00340575
0.00359882
0.00377992
0.0039442
0.00408647
0.00420163
0.00428513
0.0043335
0.0043443
0.00431803
0.0042578
0.00417387
0.0040808
0.00400133
0.00391777
0.00440512
0.00497563
0.00564147
0.00647063
0.00739929
0.00858831
0.00980039
0.0115114
0.012973
0.0156005
0.0171141
0.0216997
0.0225372
0.0319533
0.0301679
0.0511226
0.0412217
0.00803009
0.000973253
0.0016881
0.00122335
0.00131291
0.0011071
0.00106679
0.000956887
0.000914678
0.000859284
0.000839105
0.000824043
0.000831406
0.00084928
0.000883488
0.000929253
0.000988484
0.00105932
0.00114238
0.00123689
0.0013429
0.00145984
0.00158733
0.00172463
0.00187105
0.00202575
0.00218785
0.00235632
0.00253003
0.00270782
0.00288858
0.00307131
0.00325489
0.00343831
0.00362115
0.00380387
0.00398783
0.00417612
0.00437335
0.00458709
0.00482533
0.00508998
0.00531727
0.00561346
0.00587877
0.0061502
0.00646532
0.0068162
0.00726922
0.00774911
0.00843983
0.00907141
0.0101886
0.0109366
0.0129345
0.0135807
0.0176739
0.0175668
0.0264945
0.0260623
0.00677425
0.00107061
0.0012668
0.000916186
0.000934289
0.000789859
0.000751154
0.000676545
0.000645508
0.00061062
0.00059964
0.000595249
0.000607131
0.000628573
0.000662786
0.00070726
0.000763165
0.000829747
0.000907598
0.00099666
0.00109731
0.00120968
0.001334
0.00147038
0.00161898
0.00177997
0.00195355
0.00213991
0.00233925
0.00255189
0.0027783
0.00301909
0.00327432
0.00354399
0.00382904
0.00413075
0.00445089
0.00479203
0.00515717
0.00554981
0.0059712
0.00640971
0.00678186
0.00706148
0.00725295
0.00739483
0.00750841
0.0076079
0.00771961
0.00783824
0.00802664
0.00821515
0.00859137
0.00888099
0.0096633
0.0100278
0.0117573
0.0120338
0.0159479
0.0187963
0.00609218
0.00123204
0.00103245
0.000726696
0.000696151
0.000585668
0.000548423
0.000495541
0.000472984
0.000452373
0.000449779
0.000455159
0.000474018
0.000502656
0.000543013
0.000594001
0.000656613
0.000730906
0.000817711
0.000917575
0.0010313
0.00115959
0.0013032
0.00146283
0.00163922
0.0018331
0.00204523
0.00227634
0.00252714
0.00279836
0.0030908
0.00340523
0.00374023
0.00409604
0.00447302
0.00487144
0.00529169
0.00573455
0.00620061
0.00669044
0.00720178
0.00771666
0.00815507
0.00848117
0.00870242
0.00884943
0.00893221
0.00896825
0.00896406
0.00893872
0.00890401
0.00887023
0.00887883
0.00889155
0.00906362
0.00917243
0.00976912
0.00999491
0.0117384
0.015049
0.00576629
0.00144806
0.000925004
0.000616973
0.000547565
0.000453876
0.000416855
0.000377327
0.00036122
0.000351126
0.00035638
0.000371149
0.000398632
0.000436924
0.000487396
0.000549904
0.000625531
0.000714959
0.000819335
0.000939704
0.00107725
0.00123308
0.0014083
0.00160396
0.00182101
0.00206039
0.00232295
0.00260941
0.00292034
0.0032562
0.00361736
0.00400331
0.00441101
0.00484048
0.00529095
0.0057614
0.00625085
0.00675865
0.00728394
0.00782628
0.00838257
0.00893061
0.00940572
0.00978527
0.0100613
0.0102568
0.0103752
0.0104329
0.0104259
0.0103793
0.0102817
0.010171
0.0100277
0.00990408
0.00978297
0.00971611
0.00975413
0.00983086
0.010613
0.0130163
0.00565589
0.00170744
0.000909824
0.000565124
0.000458962
0.000370478
0.000331927
0.000300309
0.000289088
0.000287184
0.00029998
0.000324094
0.000361439
0.000411191
0.000474511
0.000551892
0.000644606
0.000753794
0.000880892
0.00102728
0.0011944
0.00138357
0.00159603
0.00183288
0.00209505
0.00238335
0.00269843
0.00304067
0.00341022
0.00380697
0.00423065
0.00467836
0.0051471
0.00563617
0.00614383
0.00666815
0.00720713
0.00775936
0.00832328
0.00889833
0.00948101
0.0100455
0.0105458
0.0109688
0.0112944
0.0115398
0.0117051
0.0118058
0.0118331
0.0118138
0.0117258
0.0116166
0.0114396
0.0112806
0.0110496
0.0109039
0.0106891
0.0106549
0.0110099
0.011878
0.00567207
0.00199805
0.000965347
0.000558993
0.000412989
0.000321022
0.000278879
0.000251381
0.000243772
0.000248557
0.000268728
0.000302309
0.000350466
0.000413011
0.000491042
0.000585469
0.000697741
0.0008293
0.000981771
0.00115673
0.00135569
0.00158006
0.00183102
0.00210957
0.00241645
0.00275223
0.00311722
0.00351141
0.00393443
0.00438558
0.00486388
0.00536402
0.00588408
0.00642239
0.00697647
0.0075437
0.00812142
0.00870776
0.00930072
0.00989999
0.0105003
0.0110751
0.0115942
0.0120483
0.0124113
0.012696
0.0129004
0.01304
0.0131036
0.0131195
0.0130608
0.01298
0.0128176
0.0126749
0.0124275
0.0122768
0.0119777
0.011908
0.0120759
0.0112304
0.00575859
0.00230722
0.00107759
0.00059083
0.000399585
0.00029677
0.000248689
0.000222427
0.000217303
0.00022772
0.000255142
0.000298342
0.000357999
0.000434251
0.00052816
0.000640874
0.000773957
0.000929013
0.00110777
0.00131187
0.00154285
0.00180206
0.0020906
0.00240929
0.00275865
0.00313895
0.00355019
0.00399195
0.00446336
0.00496321
0.00548926
0.00603541
0.00660008
0.00718081
0.00777455
0.00837815
0.00898842
0.00960317
0.0102201
0.0108393
0.0114513
0.0120338
0.0125667
0.0130414
0.0134298
0.013742
0.0139741
0.0141421
0.0142336
0.0142783
0.0142468
0.0141958
0.014059
0.0139477
0.0137197
0.0136
0.0132974
0.013251
0.0133351
0.0108621
0.00587999
0.00262249
0.00123551
0.000655851
0.000413286
0.000292545
0.000235845
0.000208372
0.000204636
0.000219833
0.000254342
0.00030725
0.000378837
0.000469332
0.000579726
0.000711262
0.000865558
0.00104429
0.00124924
0.00148206
0.00174428
0.00203718
0.00236175
0.00271861
0.00310806
0.00353007
0.00398433
0.00447001
0.00498581
0.00553009
0.00609886
0.00668649
0.00729108
0.00790958
0.00853841
0.00917399
0.00981267
0.010452
0.0110895
0.011725
0.0123445
0.0129328
0.013475
0.0139618
0.0143659
0.0146952
0.0149448
0.0151308
0.0152404
0.0153046
0.0152925
0.0152644
0.0151499
0.0150684
0.0148667
0.0147875
0.0145105
0.0145153
0.0145547
0.010657
0.00601446
0.00293242
0.00142896
0.000750672
0.0004514
0.000305512
0.000237075
0.000206074
0.000202561
0.000221731
0.000263068
0.000325655
0.000409365
0.000514329
0.000641414
0.000791854
0.000967283
0.00116941
0.00140004
0.00166085
0.00195336
0.00227875
0.00263788
0.0030312
0.00345875
0.0039202
0.00441492
0.00494171
0.00549886
0.00608442
0.00669211
0.0073178
0.00795883
0.00861157
0.00927201
0.00993619
0.0106
0.0112609
0.0119162
0.0125639
0.013188
0.01378
0.0143273
0.0148196
0.0152315
0.0155696
0.0158283
0.0160238
0.016143
0.0162181
0.0162175
0.0162041
0.0161053
0.0160467
0.015868
0.0158261
0.0155799
0.0156418
0.0156484
0.0105488
0.0061491
0.00322744
0.00164782
0.000872898
0.000512038
0.000334462
0.000250606
0.000213676
0.000209078
0.000231353
0.000279128
0.000351229
0.000447059
0.000566504
0.000710247
0.000879451
0.00107575
0.00130085
0.00155663
0.00184475
0.0021667
0.00252358
0.00291612
0.00334453
0.0038086
0.00430768
0.00484085
0.00540655
0.00600264
0.00662643
0.00727053
0.00793153
0.00860613
0.00929019
0.0099793
0.0106692
0.0113553
0.012035
0.0127055
0.0133605
0.0139876
0.014581
0.0151294
0.0156217
0.0160353
0.0163756
0.0166366
0.0168347
0.0169568
0.0170357
0.0170399
0.017034
0.0169444
0.0169016
0.0167401
0.0167288
0.0165098
0.0166246
0.0166004
0.0104986
0.00627688
0.00350043
0.00188193
0.00101973
0.000593799
0.000379415
0.000275735
0.000230229
0.000223025
0.000247406
0.000301078
0.000382395
0.000490204
0.000624021
0.00078429
0.000972057
0.00118894
0.00143668
0.00171714
0.00203204
0.00238278
0.00277039
0.0031954
0.00365782
0.00415713
0.00469237
0.00526232
0.00586507
0.00649811
0.00715756
0.00783588
0.00852978
0.0092354
0.00994818
0.0106633
0.0113762
0.0120819
0.0127779
0.0134599
0.0141187
0.0147468
0.0153391
0.0158852
0.0163731
0.0167833
0.0171205
0.0173785
0.0175736
0.0176933
0.0177705
0.0177742
0.0177701
0.0176843
0.017651
0.0175011
0.0175137
0.017316
0.0174764
0.0174208
0.0104827
0.00639444
0.00374687
0.00212139
0.00118745
0.000695809
0.000440488
0.000312564
0.000255452
0.000243856
0.000269162
0.000328027
0.000418144
0.000537698
0.000685723
0.00086237
0.00106853
0.0013058
0.0015759
0.00188074
0.00222201
0.00260106
0.00301878
0.00347551
0.003971
0.00450446
0.00507457
0.00567983
0.006318
0.00698624
0.00767902
0.00838952
0.00911408
0.00984836
0.0105874
0.011326
0.0120593
0.0127821
0.0134918
0.0141806
0.014841
0.015468
0.0160568
0.016597
0.017077
0.0174797
0.0178094
0.0180602
0.018248
0.018361
0.0184321
0.0184311
0.0184244
0.0183382
0.0183093
0.0181665
0.018197
0.0180153
0.0182134
0.0181258
0.010487
0.00650068
0.0039647
0.00235717
0.00137125
0.000817119
0.000517588
0.000361849
0.000289599
0.000271505
0.000296328
0.000359506
0.00045789
0.000588892
0.000750949
0.000943853
0.00116829
0.00142582
0.00171812
0.00204712
0.00241447
0.00282143
0.00326873
0.00375651
0.00428425
0.00485084
0.00545462
0.00609383
0.00676589
0.00746768
0.00819159
0.00893229
0.00968536
0.010446
0.0112089
0.0119685
0.0127198
0.0134571
0.0141769
0.0148688
0.0155288
0.0161525
0.0167351
0.0172666
0.0177355
0.0181271
0.0184459
0.0186858
0.018863
0.0189659
0.0190275
0.0190186
0.0190056
0.0189158
0.0188875
0.0187481
0.0187918
0.0186214
0.0188503
0.0187306
0.0105025
0.00659577
0.00415389
0.00258164
0.00156531
0.000956072
0.000610663
0.000424438
0.000333372
0.000306297
0.00032896
0.000395378
0.000501375
0.000643471
0.000819378
0.00102845
0.00127111
0.00154884
0.00186324
0.00221624
0.00260942
0.00304394
0.00352035
0.00403854
0.00459772
0.00519647
0.00583276
0.0065046
0.00720906
0.00794236
0.00869568
0.00946464
0.0102441
0.0110289
0.0118132
0.0125914
0.0133581
0.0141073
0.0148325
0.0155252
0.0161827
0.0168007
0.0173748
0.0178947
0.0183497
0.0187274
0.0190322
0.0192585
0.0194221
0.0195123
0.0195618
0.0195424
0.0195205
0.0194246
0.0193937
0.0192551
0.0193078
0.0191454
0.0193989
0.0192476
0.0105238
0.0066805
0.00431592
0.00278896
0.00176322
0.00111004
0.000719652
0.000500711
0.000387876
0.000348901
0.000367414
0.000435772
0.000548583
0.000701355
0.000890919
0.0011161
0.00137696
0.00167487
0.00201131
0.00238818
0.00280697
0.00326871
0.00377374
0.00432172
0.00491153
0.00554147
0.00620911
0.00691224
0.00764763
0.0084104
0.00919138
0.00998661
0.0107903
0.0115969
0.0124004
0.0131946
0.0139742
0.0147315
0.0154587
0.0161499
0.0168026
0.0174127
0.0179757
0.0184815
0.0189202
0.0192816
0.0195699
0.0197801
0.0199278
0.0200031
0.0200383
0.0200065
0.0199736
0.0198697
0.019834
0.019694
0.0197526
0.0195956
0.0198684
0.0196868
0.0105474
0.00675592
0.00445329
0.00297526
0.00195845
0.00127534
0.000843863
0.00059096
0.000454216
0.000400299
0.000412313
0.000481048
0.000599696
0.000762634
0.000965631
0.00120688
0.00148594
0.00180404
0.00216248
0.00256309
0.00300727
0.00349586
0.00402902
0.00460611
0.00522572
0.00588585
0.00658364
0.0073167
0.00808154
0.00887173
0.00967852
0.010498
0.0113237
0.0121498
0.01297
0.0137778
0.0145673
0.0153282
0.0160551
0.0167427
0.0173883
0.0179881
0.0185376
0.0190269
0.0194472
0.0197899
0.0200596
0.0202517
0.0203816
0.0204403
0.0204596
0.0204139
0.0203685
0.0202551
0.0202127
0.0200699
0.0201318
0.0199783
0.0202657
0.0200557
0.0105712
0.0068231
0.00456899
0.00313854
0.00214494
0.00144735
0.000981738
0.000695386
0.000533042
0.000461763
0.000464538
0.000531775
0.000655058
0.000827528
0.00104368
0.00130092
0.00159819
0.00193651
0.00231689
0.00274112
0.00321043
0.0037255
0.00428624
0.00489174
0.00554028
0.00622954
0.00695623
0.00771781
0.00851061
0.00932607
0.0101567
0.0109984
0.0118439
0.0126871
0.0135215
0.0143402
0.015135
0.0158969
0.0166212
0.0173027
0.0179389
0.018526
0.0190598
0.0195304
0.0199302
0.0202524
0.0205016
0.020674
0.0207846
0.0208252
0.0208273
0.0207666
0.0207075
0.0205837
0.0205333
0.0203866
0.0204496
0.0202983
0.0205964
0.0203604
0.0105941
0.00688304
0.00466622
0.00327849
0.00231756
0.0016208
0.00113072
0.000813607
0.000624899
0.000534459
0.000525212
0.000588728
0.000715168
0.000896366
0.0011253
0.00139844
0.0017139
0.00207245
0.00247472
0.00292241
0.00341657
0.00395769
0.00454542
0.00517858
0.00585509
0.00657237
0.00732666
0.00811529
0.0089341
0.00977299
0.0106255
0.0114872
0.0123501
0.0132081
0.0140541
0.0148795
0.0156763
0.0164368
0.017156
0.0178291
0.0184534
0.0190256
0.0195413
0.0199912
0.0203688
0.0206686
0.0208958
0.0210469
0.0211369
0.0211585
0.0211424
0.0210659
0.0209923
0.0208575
0.0207981
0.0206469
0.0207093
0.0205594
0.0208648
0.0206056
0.0106153
0.0069366
0.00474805
0.00339613
0.00247251
0.00179017
0.00128726
0.00094445
0.000730036
0.000619243
0.000595689
0.000652887
0.000780683
0.000969582
0.00121079
0.00149968
0.0018333
0.00221207
0.00263615
0.0031071
0.0036258
0.00419248
0.00480656
0.00546654
0.00617001
0.00691415
0.00769463
0.00850876
0.00935148
0.0102119
0.0110842
0.0119637
0.0128416
0.0137117
0.0145654
0.0153941
0.0161903
0.0169468
0.0176585
0.0183206
0.0189308
0.0194857
0.0199812
0.0204084
0.0207621
0.021038
0.0212417
0.0213704
0.0214388
0.0214404
0.0214056
0.0213128
0.0212243
0.021078
0.021009
0.0208529
0.0209133
0.0207645
0.0210743
0.0207951
0.0106345
0.00698453
0.00481726
0.0034934
0.00260744
0.00195022
0.00144695
0.00108581
0.000848106
0.000716674
0.00067733
0.000725429
0.000852412
0.00104771
0.00130051
0.00160491
0.00195658
0.00235554
0.00280131
0.00329531
0.00383817
0.00442989
0.00506961
0.00575551
0.00648485
0.00725458
0.00805979
0.00889782
0.00976222
0.0106423
0.0115321
0.012427
0.0133174
0.0141958
0.0150536
0.0158828
0.0166759
0.0174258
0.0181273
0.0187761
0.0193696
0.0199049
0.0203781
0.0207808
0.021109
0.0213597
0.0215386
0.0216438
0.0216899
0.0216711
0.0216171
0.0215077
0.021404
0.0212463
0.0211673
0.0210062
0.0210637
0.0209159
0.0212277
0.0209319
0.0106516
0.00702745
0.00487629
0.00357281
0.00272145
0.00209641
0.00160482
0.0012346
0.00097798
0.000826854
0.000770986
0.000807982
0.000931333
0.00113138
0.00139487
0.00171441
0.00208396
0.00250305
0.00297035
0.00348712
0.00405372
0.00466988
0.00533446
0.00604532
0.00679934
0.00759332
0.00842169
0.00928195
0.0101657
0.0110632
0.0119682
0.0128761
0.013775
0.0146583
0.0155175
0.0163445
0.0171318
0.0178724
0.0185612
0.019194
0.0197685
0.0202819
0.0207307
0.0211072
0.0214084
0.0216325
0.0217857
0.0218667
0.0218898
0.0218501
0.0217769
0.021651
0.0215322
0.0213632
0.0212741
0.0211082
0.0211619
0.0210153
0.0213272
0.0210187
0.0106666
0.00706586
0.00492717
0.00363715
0.00281496
0.00222525
0.00175578
0.00138684
0.00111761
0.000949245
0.000877022
0.000901785
0.00101905
0.00122132
0.00149431
0.00182847
0.00221563
0.00265472
0.00314335
0.00368259
0.00427245
0.00491239
0.00560097
0.00633573
0.00711315
0.00792996
0.00877984
0.00966029
0.0105612
0.011474
0.0123918
0.0133082
0.0142127
0.0150981
0.0159559
0.0167778
0.0175565
0.0182851
0.0189585
0.0195728
0.0201258
0.0206151
0.0210375
0.0213861
0.021659
0.0218555
0.021982
0.022038
0.0220378
0.0219772
0.0218846
0.0217425
0.0216089
0.021429
0.02133
0.0211597
0.0212093
0.0210644
0.0213749
0.0210574
0.0106796
0.00710023
0.00497152
0.00368915
0.00288941
0.00233458
0.001895
0.00153784
0.00126398
0.0010825
0.000995252
0.0010073
0.00111707
0.00131908
0.00159934
0.00194735
0.00235173
0.00281063
0.00332032
0.00388166
0.00449426
0.00515726
0.00586891
0.00662642
0.00742586
0.00826399
0.00913363
0.0100319
0.0109479
0.0118727
0.0127996
0.0137219
0.0146292
0.0155138
0.0163673
0.0171813
0.0179486
0.0186623
0.0193176
0.0199108
0.0204399
0.0209028
0.021297
0.0216162
0.0218595
0.0220272
0.0221264
0.022157
0.0221332
0.0220517
0.0219401
0.0217822
0.0216343
0.0214442
0.0213357
0.0211616
0.0212068
0.0210644
0.0213724
0.02105
0.0106909
0.00713092
0.00501065
0.00373137
0.00294696
0.00242358
0.00201842
0.0016826
0.00141314
0.00122433
0.00112477
0.00112453
0.00122584
0.00142599
0.00171167
0.00207128
0.00249233
0.00297075
0.0035012
0.00408422
0.00471897
0.00540423
0.00613794
0.00691698
0.00773697
0.00859481
0.00948236
0.0103954
0.0113232
0.0122573
0.0131907
0.014116
0.0150231
0.0159041
0.0167502
0.0175534
0.0183063
0.0190023
0.0196368
0.0202063
0.0207091
0.0211435
0.0215075
0.0217958
0.0220084
0.0221465
0.0222176
0.0222225
0.0221751
0.022073
0.0219429
0.0217698
0.0216083
0.0214089
0.0212916
0.0211146
0.0211554
0.0210164
0.0213212
0.020998
0.0107005
0.0071583
0.00504553
0.00376607
0.00299019
0.00249266
0.00212306
0.00181619
0.00156043
0.00137148
0.00126377
0.00125279
0.00134536
0.00154228
0.00183184
0.00220181
0.0026382
0.00313494
0.00368574
0.00428999
0.00494624
0.00565292
0.0064076
0.00720684
0.00804581
0.00892061
0.00982379
0.0107488
0.0116858
0.0126266
0.0135636
0.014489
0.015393
0.0162672
0.017103
0.0178923
0.0186279
0.0193033
0.0199142
0.0204574
0.0209315
0.0213354
0.0216674
0.0219234
0.0221042
0.022212
0.0222546
0.0222335
0.0221628
0.0220404
0.0218924
0.021705
0.021531
0.0213233
0.021198
0.021019
0.0210559
0.0209214
0.0212226
0.0209028
0.0107087
0.00718268
0.00507691
0.00379513
0.00302182
0.00254331
0.00220724
0.00193421
0.00170078
0.00151977
0.0014095
0.0013906
0.00147503
0.0016678
0.00195977
0.00233872
0.00278937
0.00330365
0.00387407
0.00449872
0.0051755
0.00590239
0.00667661
0.00749437
0.00835039
0.00924011
0.0101564
0.0110907
0.0120343
0.012979
0.0139167
0.0148392
0.015737
0.0166014
0.0174238
0.0181962
0.0189114
0.0195634
0.0201479
0.0206622
0.0211053
0.0214766
0.021775
0.0219974
0.0221454
0.0222222
0.0222359
0.022189
0.0220951
0.0219531
0.0217882
0.0215876
0.021402
0.0211873
0.0210552
0.0208755
0.0209088
0.0207802
0.0210778
0.0207655
0.0107156
0.00720434
0.00510534
0.00382007
0.00304448
0.00257776
0.0022706
0.00203321
0.0018291
0.00166432
0.00155821
0.00153553
0.00161347
0.00180183
0.00209496
0.00248145
0.00294518
0.00347607
0.00406525
0.00470942
0.00540569
0.00615154
0.00694379
0.00777833
0.00864942
0.00955194
0.0104786
0.0114197
0.0123673
0.0133129
0.0142483
0.015165
0.0160534
0.0169048
0.0177107
0.0184629
0.0191548
0.0197804
0.0203359
0.0208188
0.0212286
0.0215652
0.0218284
0.022016
0.0221304
0.0221757
0.0221605
0.0220878
0.0219713
0.0218105
0.0216296
0.021417
0.0212214
0.0210011
0.0208634
0.0206844
0.020715
0.0205937
0.020888
0.0205875
0.0107215
0.00722356
0.00513121
0.00384205
0.00306056
0.00259872
0.00231406
0.00211099
0.0019408
0.00179987
0.00170527
0.00168412
0.0017584
0.00194292
0.00223636
0.00262904
0.00310455
0.003651
0.00425801
0.00492074
0.0056354
0.0063989
0.00720765
0.00805717
0.00894128
0.00985445
0.0107886
0.0117339
0.0126827
0.0136264
0.0145564
0.0154641
0.01634
0.0171752
0.0179613
0.0186904
0.0193559
0.0199522
0.0204759
0.0209249
0.0212993
0.0215995
0.021826
0.0219776
0.0220578
0.0220712
0.0220271
0.021929
0.0217905
0.0216118
0.0214162
0.0211932
0.020989
0.0207648
0.0206229
0.0204461
0.020475
0.0203627
0.0206542
0.0203696
0.0107263
0.00724059
0.00515485
0.00386193
0.00307212
0.00260904
0.00233951
0.00216672
0.00203219
0.00192118
0.00184542
0.00183198
0.00190654
0.00208875
0.00238224
0.00277995
0.00326595
0.0038268
0.00445061
0.0051309
0.00586283
0.00664265
0.00746631
0.00832899
0.00922404
0.0101457
0.0110845
0.0120313
0.0129784
0.0139172
0.0148387
0.0157343
0.0165944
0.0174102
0.0181734
0.0188762
0.0195123
0.0200766
0.0205658
0.0209786
0.0213154
0.0215773
0.0217658
0.0218806
0.021926
0.0219074
0.0218344
0.0217115
0.0215519
0.0213565
0.0211476
0.0209157
0.0207046
0.0204784
0.0203339
0.0201612
0.0201896
0.020088
0.0203775
0.020113
0.0107304
0.00725566
0.00517647
0.00388031
0.00308082
0.00261152
0.00234962
0.00220097
0.00210081
0.00202356
0.00197315
0.00197395
0.00205363
0.00223606
0.00253005
0.00293197
0.00342721
0.00400129
0.00464082
0.00533762
0.00608567
0.00688047
0.00771747
0.00859146
0.00949535
0.0104229
0.0113637
0.0123094
0.0132521
0.0141828
0.0150928
0.015973
0.0168141
0.0176073
0.0183444
0.0190179
0.0196216
0.020151
0.0206033
0.0209775
0.0212748
0.021497
0.0216461
0.0217233
0.0217335
0.021683
0.0215816
0.0214344
0.0212549
0.0210441
0.0208234
0.0205844
0.0203684
0.020142
0.019997
0.0198302
0.0198593
0.0197704
0.020059
0.0198186
0.0107337
0.007269
0.00519627
0.00389758
0.00308794
0.00260872
0.00234744
0.00221552
0.0021457
0.00210328
0.00208312
0.00210438
0.00219458
0.00238064
0.00267635
0.00308213
0.00358553
0.00417163
0.00482577
0.005538
0.00630104
0.00710949
0.00795826
0.00884174
0.00975238
0.0106833
0.0116236
0.0125654
0.0135007
0.0144204
0.0153156
0.0161774
0.0169963
0.0177637
0.0184715
0.0191126
0.0196812
0.020173
0.0205859
0.0209195
0.0211755
0.0213563
0.0214653
0.0215043
0.0214791
0.0213967
0.0212675
0.0210971
0.0208987
0.0206741
0.0204434
0.0201993
0.0199804
0.0197561
0.0196124
0.0194536
0.019485
0.0194109
0.0196998
0.0194874
0.0107365
0.0072808
0.0052144
0.003914
0.00309442
0.00260281
0.00233612
0.00221305
0.00216738
0.00215797
0.00217069
0.00221758
0.00232371
0.00251743
0.0028168
0.00322662
0.00373733
0.00433432
0.00500192
0.00572851
0.0065054
0.00732623
0.00818526
0.00907644
0.00999176
0.0109234
0.0118608
0.012796
0.013721
0.0146267
0.0155041
0.0163442
0.0171378
0.0178762
0.0185518
0.0191575
0.0196882
0.0201399
0.0205112
0.0208021
0.0210152
0.0211536
0.0212215
0.0212219
0.0211614
0.0210477
0.0208914
0.0206989
0.0204831
0.0202463
0.0200076
0.0197605
0.0195409
0.0193209
0.0191807
0.0190321
0.0190676
0.0190102
0.0193009
0.0191204
0.0107388
0.00729126
0.005231
0.00392969
0.00310088
0.00259554
0.00231868
0.00219688
0.00216772
0.00218685
0.00223239
0.00230832
0.00243514
0.00264073
0.0029463
0.00336083
0.00387829
0.0044851
0.00516502
0.00590488
0.00669454
0.00752651
0.00839435
0.00929152
0.0102095
0.0111395
0.0120714
0.0129975
0.0139094
0.0147981
0.0156547
0.01647
0.0172351
0.0179416
0.018582
0.0191496
0.0196398
0.0200491
0.0203766
0.0206232
0.0207919
0.020887
0.0209133
0.020875
0.0207795
0.020635
0.0204527
0.0202394
0.0200078
0.0197608
0.0195161
0.0192683
0.0190503
0.0188371
0.0187026
0.0185665
0.0186079
0.0185695
0.0188636
0.0187187
0.0107407
0.00730053
0.00524619
0.00394473
0.0031077
0.00258825
0.00229778
0.00217054
0.00214971
0.00219075
0.00226628
0.00237232
0.0025233
0.00274464
0.00305915
0.0034795
0.00400341
0.00461905
0.00531013
0.00606215
0.00686349
0.00770543
0.00858073
0.00948229
0.0104011
0.0113271
0.0122513
0.0131656
0.0140617
0.0149306
0.0157633
0.016551
0.0172847
0.0179564
0.0185587
0.0190857
0.0195329
0.0198976
0.0201796
0.0203803
0.0205037
0.0205547
0.0205391
0.0204623
0.0203323
0.0201581
0.0199509
0.0197185
0.019473
0.0192178
0.0189694
0.0187233
0.0185094
0.0183054
0.0181791
0.0180578
0.018107
0.0180899
0.018389
0.0182832
0.0107422
0.00730876
0.0052601
0.00395913
0.00311506
0.00258187
0.00227565
0.00213751
0.00211701
0.002172
0.00227217
0.00240676
0.00258343
0.00282343
0.00314947
0.00357689
0.00410712
0.00473064
0.00543167
0.00619468
0.0070066
0.00785741
0.0087389
0.00964337
0.0105609
0.0114811
0.0123953
0.0132955
0.0141732
0.0150196
0.0158258
0.0165829
0.0172825
0.0179166
0.0184784
0.0189623
0.0193644
0.0196828
0.0199176
0.0200714
0.0201486
0.0201551
0.0200978
0.0199829
0.0198193
0.0196165
0.0193862
0.0191363
0.0188789
0.0186178
0.0183681
0.0181262
0.017919
0.0177268
0.017611
0.017507
0.0175661
0.0175725
0.0178786
0.0178152
0.0107434
0.00731609
0.00527284
0.00397291
0.00312301
0.00257698
0.00225404
0.00210092
0.00207364
0.00213407
0.00225161
0.00241061
0.00261214
0.00287216
0.00321157
0.00364715
0.00418359
0.00481399
0.00552362
0.00629631
0.00711764
0.00797618
0.00886269
0.0097687
0.0106833
0.0115959
0.0124981
0.0133819
0.0142389
0.0150602
0.0158373
0.0165613
0.0172242
0.0178184
0.0183374
0.0187761
0.0191313
0.0194017
0.0195883
0.0196942
0.0197249
0.019687
0.0195883
0.0194362
0.0192402
0.0190104
0.0187587
0.0184934
0.0182264
0.0179618
0.0177133
0.0174782
0.0172802
0.0171026
0.0169999
0.0169155
0.0169867
0.0170189
0.0173337
0.017316
0.0107444
0.00732265
0.00528452
0.00398606
0.00313151
0.00257388
0.0022342
0.00206347
0.00202356
0.00208124
0.00220773
0.00238472
0.00260778
0.00288716
0.00324057
0.0036848
0.00422704
0.0048631
0.00557971
0.00636051
0.00718989
0.00805499
0.00894535
0.00985166
0.0107618
0.0116652
0.0125537
0.0134192
0.0142532
0.0150473
0.0157929
0.0164816
0.0171055
0.0176575
0.0181317
0.0185236
0.0188305
0.0190518
0.0191893
0.019247
0.0192311
0.0191493
0.0190101
0.0188219
0.0185951
0.0183402
0.0180692
0.0177909
0.0175168
0.0172512
0.0170066
0.0167808
0.0165949
0.0164343
0.0163472
0.0162849
0.0163703
0.0164304
0.016756
0.0167867
0.0107452
0.00732852
0.00529523
0.00399857
0.00314047
0.00257265
0.00221693
0.00202727
0.00197038
0.00201808
0.00214481
0.0023318
0.00257077
0.00286656
0.00323286
0.00368521
0.00423226
0.00487229
0.00559385
0.00638078
0.00721651
0.00808676
0.00897974
0.00988516
0.0107895
0.0116825
0.0125556
0.013401
0.0142103
0.0149751
0.0156873
0.0163386
0.0169217
0.0174299
0.0178577
0.0182013
0.0184588
0.0186303
0.0187185
0.018728
0.0186661
0.0185413
0.0183629
0.0181404
0.0178847
0.0176069
0.017319
0.0170303
0.0167516
0.0164878
0.0162497
0.0160361
0.0158648
0.0157238
0.0156549
0.015617
0.0157187
0.015809
0.0161473
0.016229
0.0107458
0.00733381
0.00530508
0.00401045
0.00314976
0.00257325
0.00220268
0.00199385
0.00191718
0.00194906
0.00206788
0.00225613
0.00250354
0.00281059
0.00318671
0.00364516
0.00419507
0.00483669
0.00556048
0.00635093
0.00719081
0.00806444
0.00895861
0.00986186
0.0107593
0.0116406
0.0124971
0.013321
0.014104
0.014838
0.0155151
0.0161275
0.0166683
0.0171312
0.0175115
0.0178061
0.0180136
0.0181352
0.0181741
0.0181362
0.0180293
0.0178628
0.0176471
0.0173925
0.0171103
0.0168122
0.0165102
0.0162139
0.0159335
0.0156741
0.0154454
0.0152467
0.0150925
0.0149737
0.0149253
0.0149141
0.0150343
0.0151566
0.0155094
0.0156443
0.0107463
0.0073386
0.00531415
0.00402171
0.00315925
0.00257548
0.00219159
0.0019642
0.00186637
0.00187823
0.00198215
0.00216305
0.00241037
0.00272167
0.00310251
0.00356338
0.00411291
0.00475274
0.00547519
0.00626572
0.00710675
0.00798138
0.0088749
0.00977453
0.010664
0.0115325
0.0123714
0.0131725
0.013928
0.01463
0.0152708
0.0158432
0.0163406
0.0167574
0.0170897
0.0173348
0.0174924
0.0175644
0.017555
0.0174708
0.0173206
0.0171145
0.0168639
0.0165797
0.0162739
0.0159585
0.0156455
0.0153446
0.0150655
0.0148135
0.0145969
0.0144155
0.0142811
0.0141868
0.0141612
0.0141787
0.0143193
0.0144754
0.0148446
0.0150346
0.0107467
0.00734295
0.00532253
0.00403236
0.00316883
0.00257915
0.00218357
0.00193888
0.00181969
0.00180897
0.00189261
0.00205844
0.00229696
0.00260429
0.00298305
0.00344089
0.00398534
0.00461878
0.00533521
0.0061213
0.00695951
0.00783191
0.00872229
0.00961641
0.0104966
0.0113513
0.0121716
0.0129492
0.0136764
0.0143454
0.0149492
0.0154808
0.0159343
0.0163049
0.0165889
0.0167849
0.0168933
0.0169167
0.0168604
0.0167319
0.0165406
0.0162977
0.0160151
0.0157046
0.0153786
0.0150493
0.0147286
0.0144264
0.0141518
0.0139101
0.0137082
0.0135467
0.0134344
0.0133667
0.0133659
0.0134139
0.0135767
0.013768
0.0141552
0.0144019
0.010747
0.00734693
0.0053303
0.00404243
0.00317839
0.002584
0.00217842
0.00191804
0.00177824
0.00174386
0.0018036
0.00194814
0.00216981
0.0024646
0.0028333
0.00328118
0.00381438
0.00443551
0.00514001
0.0059159
0.00674609
0.00761191
0.00849573
0.0093818
0.0102512
0.0110909
0.0118916
0.012645
0.0133433
0.013979
0.0145454
0.0150362
0.0154459
0.0157703
0.0160069
0.0161547
0.0162151
0.0161918
0.0160908
0.0159205
0.0156912
0.0154148
0.0151038
0.0147708
0.0144284
0.014089
0.0137644
0.0134643
0.0131973
0.0129688
0.0127843
0.0126449
0.0125567
0.0125174
0.0125432
0.0126232
0.0128098
0.0130375
0.0134442
0.0137483
0.0107473
0.0073506
0.00533752
0.00405196
0.00318783
0.00258978
0.00217581
0.00190157
0.00174258
0.0016847
0.00171864
0.00183747
0.00203559
0.00230978
0.00266008
0.00309009
0.00360466
0.00420634
0.00489174
0.00565037
0.00646594
0.00731948
0.00819215
0.00906665
0.00992288
0.0107461
0.0115264
0.0122549
0.0129239
0.0135263
0.0140554
0.0145056
0.0148721
0.0151515
0.0153418
0.0154431
0.0154577
0.0153902
0.0152475
0.0150388
0.0147752
0.0144694
0.0141344
0.0137832
0.0134288
0.0130835
0.012759
0.0124646
0.0122085
0.0119958
0.0118311
0.0117158
0.0116535
0.011644
0.0116978
0.0118107
0.0120223
0.012287
0.0127144
0.0130763
0.0107475
0.00735399
0.00534426
0.00406097
0.00319711
0.00259629
0.00217539
0.00188918
0.00171281
0.00163255
0.00164028
0.00173086
0.00190057
0.00214739
0.00247143
0.00287544
0.00336332
0.00393748
0.00459556
0.00532862
0.00612158
0.00695565
0.00781113
0.00866931
0.00950918
0.0103138
0.0110722
0.0117752
0.0124148
0.0129839
0.0134764
0.0138869
0.0142115
0.0144473
0.0145933
0.0146506
0.0146223
0.0145139
0.0143333
0.0140905
0.0137973
0.0134669
0.0131128
0.0127485
0.0123869
0.0120403
0.01172
0.011435
0.0111929
0.0109987
0.0108559
0.0107662
0.0107311
0.0107521
0.0108348
0.0109812
0.0112185
0.0115204
0.0119693
0.0123888
0.0107476
0.00735716
0.00535058
0.0040695
0.00320616
0.00260331
0.0021768
0.00188043
0.00168874
0.00158784
0.00157018
0.00163169
0.00177009
0.00198456
0.0022758
0.00264629
0.00309946