/*--------------------------------*- C++ -*----------------------------------*\
| =========                 |                                                 |
| \\      /  F ield         | OpenFOAM: The Open Source CFD Toolbox           |
|  \\    /   O peration     | Version:  2.4.0                                 |
|   \\  /    A nd           | Web:      www.OpenFOAM.org                      |
|    \\/     M anipulation  |                                                 |
\*---------------------------------------------------------------------------*/
FoamFile
{
    version     2.0;
    format      ascii;
    class       volVectorField;
    location    "0.93";
    object      U;
}
// * * * * * * * * * * * * * * * * * * * * * * * * * * * * * * * * * * * * * //

dimensions      [0 1 -1 0 0 0 0];

internalField   nonuniform List<vector> 
2320
(
(0.713289 0.0315186 0)
(1.16909 -0.0621881 0)
(0.985974 0.0429331 0)
(1.06205 -0.106567 0)
(1.26581 -0.0170455 0)
(1.05066 0.079696 0)
(1.14524 0.00520606 0)
(0.848548 -0.0137083 0)
(0.97362 -0.00100804 0)
(0.877218 -0.000567061 0)
(0.83804 -0.137609 0)
(1.39638 0.0344755 0)
(0.519935 -0.0223473 0)
(1.64345 0.0133231 0)
(0.44926 -0.0126633 0)
(1.34708 -0.036035 0)
(0.448083 -0.00328614 0)
(1.45391 -0.0646011 0)
(0.548889 -0.0457918 0)
(1.4953 0.00577267 0)
(1.07082 0.0294131 0)
(0.915341 -0.0743021 0)
(1.00389 0.00390499 0)
(1.17369 -0.0303043 0)
(0.770092 0.0201589 0)
(1.13038 -0.026834 0)
(0.912744 0.0976598 0)
(1.12448 0.0842142 0)
(0.741186 0.0102661 0)
(1.25345 0.0408591 0)
(0.669609 -0.110979 0)
(1.22937 0.10701 0)
(0.760121 -0.0997609 0)
(1.28825 0.00334372 0)
(0.836392 0.177363 0)
(1.18765 0.0300174 0)
(0.573916 -0.0634213 0)
(1.32803 0.0162415 0)
(0.753895 0.0230148 0)
(1.05085 -0.00692372 0)
(1.11741 0.036495 0)
(0.892171 -0.035487 0)
(1.03749 -0.077283 0)
(0.987473 0.00897555 0)
(0.965334 0.0223111 0)
(0.957508 0.00261162 0)
(0.768364 0.0322348 0)
(1.20495 0.0533569 0)
(0.723469 -0.043483 0)
(1.35094 0.0183553 0)
(0.685438 -0.105853 0)
(1.27537 0.0115916 0)
(0.681923 -0.0520835 0)
(1.23933 -0.0116799 0)
(0.792819 0.0427422 0)
(1.31288 0.103001 0)
(0.811049 -0.0622887 0)
(1.16733 -0.159479 0)
(0.980679 0.106295 0)
(1.09434 -0.077165 0)
(1.01626 0.0276511 0)
(1.0455 -0.0354147 0)
(0.932836 -0.0406403 0)
(0.998254 0.00101213 0)
(0.983975 0.0255966 0)
(0.978897 0.061843 0)
(1.00219 -0.0253405 0)
(0.982001 0.0910974 0)
(1.07189 -0.0442486 0)
(1.03513 0.0309288 0)
(1.11151 -0.0457984 0)
(0.964921 0.075885 0)
(0.947873 -0.080754 0)
(1.07277 -0.0711549 0)
(1.00496 0.130714 0)
(0.999956 0.0292114 0)
(1.19109 -0.00642172 0)
(0.918372 -0.0773091 0)
(1.11893 0.0394307 0)
(1.07574 -0.000470743 0)
(1.04981 0.0113137 0)
(1.02548 -0.00396986 0)
(0.938366 -0.0497309 0)
(0.988268 -0.0160768 0)
(0.99215 0.0454823 0)
(1.00554 -0.0062525 0)
(0.998072 0.0394481 0)
(0.985458 0.0182557 0)
(1.0415 -0.0536293 0)
(0.969554 -0.0119354 0)
(1.07054 -0.0545005 0)
(0.922932 0.0826224 0)
(1.04081 -0.0834752 0)
(0.813425 -0.0421364 0)
(1.0729 0.0773902 0)
(1.05135 0.02925 0)
(0.950784 -0.0255591 0)
(0.981194 -0.116653 0)
(1.01896 0.0320058 0)
(1.069 -0.0346791 0)
(1.0248 -0.00702296 0)
(1.04087 0.0114 0)
(0.966357 -0.015372 0)
(0.951458 -0.0278972 0)
(0.994084 0.0110902 0)
(1.03676 0.0507629 0)
(0.941901 -0.0124929 0)
(1.08332 0.0504033 0)
(0.928676 -0.0223127 0)
(1.08412 -0.00674503 0)
(0.94799 -0.00859928 0)
(1.05215 0.0738288 0)
(0.930875 -0.0150508 0)
(0.962677 -0.0885901 0)
(1.00565 0.00618329 0)
(1.08834 0.0957769 0)
(0.986479 0.0108857 0)
(1.05797 -0.0962374 0)
(0.938771 -0.0249688 0)
(1.12657 0.037619 0)
(0.999997 -0.0162834 0)
(1.05032 0.0156015 0)
(0.93248 -8.12651e-05 0)
(1.04548 -0.0311744 0)
(0.939319 0.00737543 0)
(1.01837 0.0216759 0)
(1.0289 0.0222765 0)
(0.975646 0.0229822 0)
(0.98056 -0.0432337 0)
(1.03386 -0.0309862 0)
(1.02058 -0.0218205 0)
(1.03072 0.0792242 0)
(0.964673 -0.0275024 0)
(1.025 -0.0877709 0)
(0.934576 0.00750286 0)
(1.07357 0.0550338 0)
(1.05008 -0.0141193 0)
(0.980367 -0.0845173 0)
(1.04784 -0.0111913 0)
(0.997429 -0.0143827 0)
(1.01919 -0.0284839 0)
(0.999139 0.0365219 0)
(0.984408 -0.00815508 0)
(1.03057 -0.0288738 0)
(0.898238 0.021966 0)
(1.06918 0.00363383 0)
(0.999801 0.0102327 0)
(1.01577 0.0621156 0)
(0.977327 -0.0374219 0)
(1.00869 -0.0473945 0)
(1.01146 0.00605161 0)
(0.984618 0.0879257 0)
(1.0149 -0.00825609 0)
(1.00019 -0.0738193 0)
(0.997341 -0.0257091 0)
(1.0356 0.0472033 0)
(0.985958 0.0395641 0)
(1.02653 -0.0825112 0)
(0.9606 -0.0509545 0)
(1.08049 0.0251583 0)
(1.02651 -0.0204242 0)
(0.966754 0.0261633 0)
(1.02463 -0.0109373 0)
(0.98941 0.0121146 0)
(0.920914 -0.0156286 0)
(1.06259 -0.0241279 0)
(1.00227 0.0479954 0)
(1.02462 0.0346292 0)
(0.962979 -0.0305726 0)
(1.05756 -0.0551136 0)
(0.933362 0.00621364 0)
(1.04189 0.0679084 0)
(0.98436 -0.0201357 0)
(1.09103 -0.0812381 0)
(0.949325 -0.0124849 0)
(1.02376 0.0703741 0)
(0.98367 -0.0177941 0)
(1.04036 -0.059462 0)
(0.985278 -0.0473817 0)
(1.04938 -0.0290093 0)
(1.00178 -0.021325 0)
(1.00223 0.0294969 0)
(1.0034 -0.0159901 0)
(0.988197 0.0250547 0)
(0.984475 -0.0199245 0)
(1.0095 -0.0350988 0)
(1.01739 0.0276669 0)
(0.98182 0.0740953 0)
(1.02455 -0.0449297 0)
(1.02058 -0.0506275 0)
(0.990245 0.024826 0)
(0.984976 0.049551 0)
(1.02662 -0.0292317 0)
(1.07044 -0.0602992 0)
(0.954998 0.00295468 0)
(1.05092 0.038379 0)
(0.958561 0.0198701 0)
(1.04835 -0.0713901 0)
(0.970817 -0.0689916 0)
(1.06196 -0.000295941 0)
(0.994951 -0.0188015 0)
(1.01961 0.0176645 0)
(0.968862 -0.000693871 0)
(1.00087 0.0257951 0)
(0.99333 -0.032321 0)
(1.00986 -0.0325431 0)
(0.953989 0.057459 0)
(1.01192 0.035818 0)
(1.03239 -0.0441689 0)
(1.05356 -0.0467337 0)
(0.954161 0.0379093 0)
(1.01457 0.0385462 0)
(1.00428 -0.0509917 0)
(1.02798 -0.0498925 0)
(0.993723 -0.00331269 0)
(1.00528 0.0745523 0)
(0.995082 -0.0260877 0)
(1.00003 -0.0551134 0)
(1.02585 -0.0632764 0)
(1.01159 -0.0406093 0)
(0.988832 -0.024489 0)
(1.0418 0.0351656 0)
(0.934259 -0.00467898 0)
(1.04951 0.0165736 0)
(0.953422 -0.0303815 0)
(1.00697 -0.00965711 0)
(0.912859 0.0253693 0)
(1.07187 0.0316967 0)
(1.01422 -0.0580694 0)
(1.06769 -0.0241922 0)
(0.893823 0.0573955 0)
(1.0487 0.011013 0)
(0.970882 -0.0296909 0)
(1.06629 -0.0591092 0)
(0.924216 0.0140479 0)
(1.04256 0.0422869 0)
(0.962503 0.014724 0)
(1.02134 -0.0807787 0)
(1.05477 -0.0788594 0)
(0.938902 0.0247443 0)
(0.999087 -0.0307177 0)
(1.03275 0.0379218 0)
(0.940966 -0.00237389 0)
(1.03976 0.0208025 0)
(0.94995 -0.0193315 0)
(1.0095 -0.00344503 0)
(0.970821 0.0158312 0)
(1.05273 -0.0101598 0)
(1.03044 -0.0405236 0)
(0.988972 0.00608796 0)
(0.929446 0.0600539 0)
(1.0511 -0.0108217 0)
(1.00146 -0.0499237 0)
(1.06733 -0.0321738 0)
(0.897653 0.0130535 0)
(1.03551 0.0547306 0)
(0.956415 -0.0186651 0)
(1.06918 -0.0924148 0)
(0.985116 -0.0322883 0)
(0.963644 -0.0169467 0)
(1.00805 -0.0369912 0)
(1.02262 0.0583044 0)
(0.93882 -0.00839905 0)
(1.02957 0.0184427 0)
(0.935637 -0.0241987 0)
(1.04792 -0.0117816 0)
(1.00452 -0.00347522 0)
(1.02747 0.00450953 0)
(1.00358 -0.0244539 0)
(0.946958 0.0197329 0)
(0.97949 0.0348035 0)
(1.07021 -0.0317949 0)
(1.02278 -0.0312069 0)
(1.0242 -0.0125194 0)
(0.895983 0.0312266 0)
(1.03623 0.0165663 0)
(0.988341 -0.00890266 0)
(1.05003 -0.088022 0)
(0.934842 -0.0275838 0)
(0.979725 0.0161726 0)
(1.00826 -0.0425689 0)
(1.0048 0.0664077 0)
(0.953638 -0.00479557 0)
(1.03838 0.026909 0)
(0.945822 -0.0385629 0)
(1.05802 -0.0272732 0)
(1.00009 0.0167093 0)
(0.998278 -0.00375452 0)
(1.0085 -0.00128546 0)
(0.944656 0.0135761 0)
(1.03012 0.00707412 0)
(1.05156 -0.0434599 0)
(1.03339 -0.0174975 0)
(0.957796 0.0229619 0)
(0.951302 0.0108992 0)
(0.998502 0.0102502 0)
(1.03809 -0.0316246 0)
(1.01799 -0.0553403 0)
(0.919444 -0.00634236 0)
(1.00319 -0.0321859 0)
(1.00137 -0.0407778 0)
(0.986584 0.0823013 0)
(0.964826 -0.0249455 0)
(1.02303 0.0290769 0)
(1.0003 -0.0435565 0)
(1.01997 -0.0280133 0)
(0.999745 0.0175667 0)
(0.990856 0.00690181 0)
(1.00496 -0.000798359 0)
(0.94646 0.00786391 0)
(1.05517 -0.0147411 0)
(1.03292 -0.038725 0)
(0.995519 0.0216591 0)
(0.959374 0.0239392 0)
(0.971043 0.0121258 0)
(0.991644 -0.0252887 0)
(1.04162 -0.0231469 0)
(0.975675 -0.0256676 0)
(0.949119 -0.0255831 0)
(0.996884 -0.00124076 0)
(0.962049 -0.0332965 0)
(1.022 0.0783622 0)
(0.969906 -0.0209504 0)
(1.01912 0.0134818 0)
(1.02793 -0.0454535 0)
(0.992117 -0.0161054 0)
(0.980096 0.0211965 0)
(1.00343 0.000734895 0)
(1.0045 0.0179084 0)
(0.946962 -0.0140823 0)
(1.06969 -0.0291552 0)
(0.98505 -0.0232024 0)
(0.985526 0.0298313 0)
(0.963448 0.026767 0)
(0.984201 0.000586621 0)
(0.99758 -0.0272856 0)
(1.00134 -0.0273334 0)
(0.997242 0.000579025 0)
(0.956452 -0.0296737 0)
(0.97173 -0.0135024 0)
(0.927941 -0.0310494 0)
(1.03633 0.07334 0)
(1.00011 -0.0216351 0)
(1.00714 0.00763184 0)
(1.05917 -0.0405492 0)
(0.94636 0.00792188 0)
(1.01824 0.00103322 0)
(0.975863 0.00375529 0)
(1.04298 0.0215553 0)
(0.949415 -0.0227255 0)
(1.06124 -0.0329041 0)
(0.939211 -0.000190363 0)
(0.978521 0.0366142 0)
(0.982932 0.01946 0)
(0.994829 -0.00114223 0)
(1.00341 -0.0357781 0)
(0.997493 -0.0225134 0)
(0.964229 -0.000753037 0)
(1.02332 -0.0159456 0)
(0.90833 0.0161647 0)
(0.907678 -0.0118352 0)
(1.05809 0.037266 0)
(0.997086 -0.00516633 0)
(1.03094 -0.00973171 0)
(1.0174 -0.0258337 0)
(0.954431 0.015837 0)
(1.03124 -0.00480056 0)
(0.948696 -0.00386674 0)
(1.05678 0.0263643 0)
(0.965845 -0.0229402 0)
(1.03653 -0.0193408 0)
(0.900858 0.0108545 0)
(1.02712 0.0178759 0)
(0.96401 0.0092561 0)
(1.05325 -0.00130253 0)
(0.971811 -0.0347279 0)
(0.987977 -0.00503231 0)
(0.95787 -0.00831987 0)
(0.973595 -0.0133751 0)
(0.936247 0.0379064 0)
(0.880389 -0.0106972 0)
(1.082 0.0219837 0)
(0.987818 -0.00967827 0)
(1.04975 0.00542852 0)
(0.995964 -0.0143612 0)
(0.947193 0.0137878 0)
(1.07908 -0.00703561 0)
(0.900568 0.000166852 0)
(1.08917 0.00720343 0)
(0.956387 -0.00867964 0)
(1.02942 -0.00107319 0)
(0.917231 0.00238464 0)
(1.04342 0.00996492 0)
(0.991046 0.000824032 0)
(1.0442 -0.000573218 0)
(1.00681 -0.00654709 0)
(0.940558 -0.0128297 0)
(0.990689 0.00697343 0)
(0.916482 -0.0068549 0)
(0.974654 0.0172884 0)
(0.566533 0.04025 0)
(1.51036 -0.100704 0)
(0.870831 0.0559808 0)
(1.18518 -0.0544714 0)
(0.841729 0.0432219 0)
(0.974141 -0.166232 0)
(1.55179 0.0154977 0)
(0.794765 -0.0985 0)
(0.936132 -0.0574909 0)
(1.19478 -0.0398866 0)
(0.812893 0.102716 0)
(1.34609 0.0672446 0)
(0.715882 0.0546068 0)
(1.25908 -0.220451 0)
(0.981414 0.0973217 0)
(1.26969 -0.15767 0)
(1.00309 -0.055677 0)
(1.02234 -0.0378586 0)
(0.937235 -0.0125585 0)
(1.20478 -0.00325758 0)
(1.15103 0.109811 0)
(1.0875 -0.294376 0)
(1.07301 0.0752557 0)
(1.18765 -0.157039 0)
(1.07849 -0.031185 0)
(0.903422 0.01205 0)
(1.19596 -0.015207 0)
(0.890771 -0.0158806 0)
(1.36819 0.0723572 0)
(1.05355 -0.153627 0)
(1.15813 0.0123656 0)
(1.27037 -0.0215679 0)
(0.956378 0.0112008 0)
(0.927435 -0.078867 0)
(1.14875 -0.0239437 0)
(0.943104 -0.0715438 0)
(1.25951 0.0189497 0)
(0.977814 -0.180642 0)
(1.19168 -0.0295066 0)
(1.11689 -0.128979 0)
(0.938014 0.0238024 0)
(1.08436 -0.0708658 0)
(0.941629 -0.0459707 0)
(1.14589 -0.0479185 0)
(1.02642 0.0280259 0)
(1.18245 -0.111899 0)
(1.05839 -0.0781022 0)
(1.23384 -0.0694126 0)
(1.0929 0.0192726 0)
(0.973425 -0.0578822 0)
(1.07497 -0.0688727 0)
(0.989819 -0.0892658 0)
(1.10635 -0.0182133 0)
(1.10991 -0.161211 0)
(1.07429 -0.0618093 0)
(1.15231 -0.168602 0)
(1.01656 0.016921 0)
(1.04462 -0.0493058 0)
(1.01035 -0.077344 0)
(1.02597 -0.0481407 0)
(1.08219 -0.0578575 0)
(1.04817 -0.0842097 0)
(1.10209 -0.118665 0)
(1.09697 -0.128761 0)
(1.05381 0.0314018 0)
(1.00029 -0.0434893 0)
(1.02551 -0.0686819 0)
(1.02306 -0.0991674 0)
(1.05146 -0.0520561 0)
(1.07616 -0.141043 0)
(1.04611 -0.095688 0)
(1.1257 -0.201428 0)
(1.01507 0.0280338 0)
(1.03118 -0.0292462 0)
(1.01144 -0.0999553 0)
(1.05097 -0.0582967 0)
(1.08422 -0.0933992 0)
(0.972179 -0.0744767 0)
(1.11505 -0.152389 0)
(1.0315 -0.161749 0)
(0.983467 0.0444973 0)
(1.07221 -0.0349771 0)
(0.978947 -0.0820889 0)
(1.10474 -0.114524 0)
(0.965506 -0.0366527 0)
(1.04759 -0.130575 0)
(1.0612 -0.139132 0)
(0.975618 -0.176052 0)
(1.02366 -0.00910312 0)
(0.993089 -0.0249709 0)
(1.03349 -0.116004 0)
(1.05777 -0.058834 0)
(0.964161 -0.0617447 0)
(1.0512 -0.12432 0)
(0.992517 -0.110771 0)
(0.99479 -0.202018 0)
(0.999074 0.0129354 0)
(0.958081 -0.0401335 0)
(1.0636 -0.117267 0)
(0.966885 -0.0636237 0)
(1.02603 -0.0569335 0)
(0.980887 -0.120197 0)
(0.991749 -0.119181 0)
(0.955599 -0.192551 0)
(0.983223 -0.00413641 0)
(0.976286 -0.0644357 0)
(1.03664 -0.112157 0)
(0.948947 -0.0450156 0)
(0.991402 -0.0707686 0)
(1.01154 -0.0960805 0)
(0.918225 -0.108855 0)
(0.976027 -0.195782 0)
(0.961856 0.0117695 0)
(1.01706 -0.0752512 0)
(1.00871 -0.0890031 0)
(0.929921 -0.0486388 0)
(0.99356 -0.0918437 0)
(1.00089 -0.071066 0)
(0.925671 -0.0986003 0)
(0.914841 -0.189282 0)
(0.94069 -0.0164921 0)
(1.01815 -0.0858045 0)
(0.968 -0.065192 0)
(0.941954 -0.0438574 0)
(0.991871 -0.102914 0)
(0.990046 -0.0575756 0)
(0.912902 -0.0855168 0)
(0.870413 -0.193697 0)
(0.93778 -0.00976592 0)
(1.02438 -0.0958148 0)
(0.932974 -0.0307997 0)
(0.941699 -0.0860257 0)
(0.992808 -0.10226 0)
(0.976972 -0.0140022 0)
(0.903693 -0.0411474 0)
(0.828541 -0.191203 0)
(0.954965 -0.0523053 0)
(1.00126 -0.0718507 0)
(0.939752 -0.0226372 0)
(0.946493 -0.0787657 0)
(1.00564 -0.115497 0)
(0.955354 -0.0122362 0)
(0.8909 -0.0226894 0)
(0.800932 -0.179234 0)
(1.00022 -0.0874 0)
(0.913157 -0.0738933 0)
(0.975881 0.00283617 0)
(0.951836 -0.162445 0)
(0.943254 -0.0745384 0)
(0.844927 0.0641021 0)
(0.90666 0.019869 0)
(0.778859 -0.199804 0)
(1.03022 -0.0474074 0)
(0.771127 -0.0486667 0)
(0.999861 -0.0395073 0)
(0.721774 -0.0565162 0)
(0.788898 -0.0622727 0)
(0.745676 0.0033109 0)
(0.812628 -0.00154408 0)
(0.366105 -0.00159872 0)
(1.92812 0.0111103 0)
(0.702767 0.0489258 0)
(1.44649 -0.239173 0)
(1.89623 0.0342418 0)
(0.844296 -0.1219 0)
(2.43602 -0.173119 0)
(1.93267 -0.0315277 0)
(2.4861 -0.0886595 0)
(2.20429 -0.0645535 0)
(3.08142 -0.11812 0)
(2.57164 -0.0632808 0)
(3.66191 -0.109267 0)
(3.18714 -0.0684684 0)
(4.20262 -0.0985623 0)
(3.67924 -0.05008 0)
(4.63684 -0.0620609 0)
(3.93434 -0.029022 0)
(4.87105 -0.0409268 0)
(4.00147 -0.00340146 0)
(4.91517 -0.0285861 0)
(3.84759 0.0423409 0)
(4.7912 -0.0114756 0)
(3.46742 0.0809786 0)
(4.47481 0.00442966 0)
(2.999 0.094517 0)
(4.04553 -0.00359395 0)
(2.5251 0.122457 0)
(3.42712 -0.0249412 0)
(1.00786 0.0941346 0)
(1.73332 0.124747 0)
(1.06232 -0.31886 0)
(1.80991 0.223415 0)
(1.35856 -0.203396 0)
(1.9796 -0.346326 0)
(1.99589 0.0120994 0)
(2.08221 -0.114548 0)
(2.64199 -0.180428 0)
(2.60496 -0.116314 0)
(3.11358 -0.226979 0)
(3.3185 -0.20408 0)
(3.62093 -0.189704 0)
(3.90207 -0.199686 0)
(4.00485 -0.0916771 0)
(4.33652 -0.125842 0)
(4.21073 -0.0394793 0)
(4.5844 -0.0255864 0)
(4.2419 0.0245881 0)
(4.60794 0.0520783 0)
(4.09169 0.0937753 0)
(4.41375 0.123108 0)
(3.74089 0.16004 0)
(4.06392 0.143649 0)
(3.26841 0.210507 0)
(3.51744 0.138113 0)
(2.75014 0.316111 0)
(2.88519 0.170999 0)
(0.790044 -0.143882 0)
(1.75758 -0.0330486 0)
(0.849775 -0.221129 0)
(1.92197 -0.0644394 0)
(1.45847 -0.205347 0)
(1.97785 -0.404245 0)
(1.65169 -0.0961167 0)
(2.45891 -0.391297 0)
(2.36223 -0.304155 0)
(2.82533 -0.377471 0)
(3.10434 -0.394021 0)
(3.36972 -0.377706 0)
(3.67768 -0.33102 0)
(3.8411 -0.318821 0)
(4.1407 -0.20623 0)
(4.2365 -0.204897 0)
(4.39588 -0.109275 0)
(4.47323 -0.06534 0)
(4.4077 0.00118394 0)
(4.51341 0.0527359 0)
(4.22613 0.149605 0)
(4.34466 0.159791 0)
(3.87787 0.256808 0)
(3.98765 0.2381 0)
(3.36349 0.357191 0)
(3.46952 0.260058 0)
(2.78289 0.442888 0)
(2.87821 0.283993 0)
(1.11347 -0.152656 0)
(1.50314 0.0172369 0)
(1.14269 -0.335079 0)
(1.81489 -0.155831 0)
(1.48194 -0.21612 0)
(1.9665 -0.472977 0)
(1.87106 -0.276597 0)
(2.40182 -0.415338 0)
(2.3096 -0.435767 0)
(2.9549 -0.484288 0)
(2.97729 -0.489584 0)
(3.50044 -0.523066 0)
(3.58409 -0.418794 0)
(3.96621 -0.440568 0)
(4.08706 -0.276586 0)
(4.3173 -0.289764 0)
(4.36389 -0.114312 0)
(4.50418 -0.076623 0)
(4.38618 0.0480667 0)
(4.54146 0.108782 0)
(4.2014 0.219124 0)
(4.39324 0.248877 0)
(3.84759 0.385255 0)
(4.0741 0.342943 0)
(3.35155 0.506472 0)
(3.56844 0.422437 0)
(2.81653 0.570647 0)
(2.9407 0.504034 0)
(1.24066 -0.243588 0)
(1.32221 -0.0711478 0)
(1.40501 -0.344899 0)
(1.51834 -0.269156 0)
(1.49972 -0.277462 0)
(1.94328 -0.578543 0)
(1.73033 -0.38665 0)
(2.31109 -0.548968 0)
(2.36244 -0.645262 0)
(2.90484 -0.690806 0)
(2.94792 -0.659259 0)
(3.49372 -0.716465 0)
(3.51061 -0.584108 0)
(3.96766 -0.54647 0)
(3.9244 -0.413363 0)
(4.27202 -0.335134 0)
(4.16469 -0.174623 0)
(4.44667 -0.112091 0)
(4.1944 0.0351495 0)
(4.51772 0.12401 0)
(4.03766 0.240657 0)
(4.39289 0.320571 0)
(3.75002 0.435708 0)
(4.09448 0.456842 0)
(3.31519 0.608946 0)
(3.58696 0.553848 0)
(2.84882 0.703426 0)
(2.95252 0.571491 0)
(1.16321 -0.21597 0)
(1.28008 -0.143283 0)
(1.39827 -0.351265 0)
(1.34054 -0.23851 0)
(1.59251 -0.416872 0)
(1.7657 -0.537731 0)
(1.691 -0.496194 0)
(2.31227 -0.655015 0)
(2.35425 -0.79576 0)
(2.82613 -0.762366 0)
(2.91779 -0.778162 0)
(3.42541 -0.846678 0)
(3.38606 -0.648552 0)
(3.81687 -0.632242 0)
(3.71886 -0.480302 0)
(4.0932 -0.368392 0)
(3.91507 -0.228249 0)
(4.23871 -0.105067 0)
(3.9357 0.0381448 0)
(4.29262 0.178893 0)
(3.79606 0.269259 0)
(4.19348 0.410925 0)
(3.55861 0.509406 0)
(3.91778 0.582281 0)
(3.23893 0.711453 0)
(3.49199 0.680005 0)
(2.90562 0.838616 0)
(2.87532 0.749834 0)
(1.16349 -0.234574 0)
(1.28021 -0.210396 0)
(1.23048 -0.341091 0)
(1.4357 -0.407108 0)
(1.48608 -0.469372 0)
(1.63037 -0.609676 0)
(1.84595 -0.730878 0)
(2.21794 -0.840388 0)
(2.32648 -0.93518 0)
(2.74562 -0.973915 0)
(2.84648 -0.99701 0)
(3.18402 -0.942373 0)
(3.12674 -0.777154 0)
(3.53231 -0.731111 0)
(3.36755 -0.543038 0)
(3.75379 -0.411027 0)
(3.49126 -0.262679 0)
(3.87585 -0.115728 0)
(3.51103 0.0403105 0)
(3.91668 0.177537 0)
(3.41366 0.310343 0)
(3.83586 0.451637 0)
(3.26992 0.546143 0)
(3.58516 0.634352 0)
(3.07751 0.801839 0)
(3.21119 0.732934 0)
(2.87101 0.931161 0)
(2.72922 0.844923 0)
(1.16886 -0.248529 0)
(1.15705 -0.247375 0)
(1.29277 -0.373496 0)
(1.36719 -0.406163 0)
(1.36762 -0.497001 0)
(1.68179 -0.708941 0)
(1.79936 -0.830111 0)
(2.06955 -0.895195 0)
(2.26104 -1.06443 0)
(2.54669 -1.06377 0)
(2.55605 -0.999782 0)
(2.79726 -0.956043 0)
(2.81888 -0.850373 0)
(3.11741 -0.759015 0)
(2.93401 -0.559426 0)
(3.28942 -0.44415 0)
(3.02688 -0.287059 0)
(3.39832 -0.105229 0)
(3.0429 0.0405914 0)
(3.42115 0.200713 0)
(2.99582 0.338143 0)
(3.33096 0.520652 0)
(2.89431 0.616542 0)
(3.13971 0.69347 0)
(2.8082 0.8723 0)
(2.82642 0.841971 0)
(2.6522 1.01617 0)
(2.53503 0.918411 0)
(1.09488 -0.239861 0)
(1.17256 -0.288822 0)
(1.21247 -0.414744 0)
(1.23027 -0.45713 0)
(1.34806 -0.624829 0)
(1.55812 -0.813566 0)
(1.66694 -0.942203 0)
(1.97409 -1.08638 0)
(2.04583 -1.16889 0)
(2.18932 -1.12495 0)
(2.24266 -1.11541 0)
(2.42506 -1.07269 0)
(2.41037 -0.951674 0)
(2.53419 -0.774752 0)
(2.43707 -0.599805 0)
(2.75017 -0.498098 0)
(2.45494 -0.288417 0)
(2.82783 -0.13371 0)
(2.48538 0.0301969 0)
(2.86117 0.225413 0)
(2.48194 0.348049 0)
(2.82353 0.479052 0)
(2.44145 0.646603 0)
(2.6072 0.736351 0)
(2.44358 0.872201 0)
(2.42858 0.880021 0)
(2.32629 1.08408 0)
(2.21064 0.978922 0)
(1.07307 -0.248819 0)
(1.13884 -0.350952 0)
(1.10717 -0.364248 0)
(1.21592 -0.487241 0)
(1.2804 -0.679168 0)
(1.44949 -0.855709 0)
(1.63673 -1.03958 0)
(1.72033 -1.10979 0)
(1.74656 -1.1674 0)
(1.87104 -1.16949 0)
(1.87004 -1.1332 0)
(1.86817 -1.0256 0)
(1.83566 -0.886683 0)
(1.94846 -0.784636 0)
(1.9453 -0.656267 0)
(2.03653 -0.463422 0)
(1.82379 -0.262882 0)
(2.1695 -0.147057 0)
(1.84195 0.0339082 0)
(2.23408 0.221162 0)
(1.8427 0.408293 0)
(2.17663 0.534642 0)
(1.93228 0.649891 0)
(2.07016 0.766516 0)
(1.90937 0.907344 0)
(1.99138 0.913234 0)
(1.95578 1.07564 0)
(1.83686 1.01924 0)
(1.11207 -0.281462 0)
(1.01781 -0.318518 0)
(1.0905 -0.43728 0)
(1.136 -0.549764 0)
(1.1688 -0.752577 0)
(1.33989 -0.967776 0)
(1.38483 -1.0851 0)
(1.43236 -1.17872 0)
(1.43009 -1.22011 0)
(1.40452 -1.17274 0)
(1.32811 -1.10629 0)
(1.32848 -1.04679 0)
(1.37772 -0.973482 0)
(1.35188 -0.824867 0)
(1.28352 -0.608108 0)
(1.36323 -0.455292 0)
(1.29359 -0.355345 0)
(1.43193 -0.15741 0)
(1.14059 0.0701523 0)
(1.51167 0.178479 0)
(1.23502 0.338413 0)
(1.52309 0.513016 0)
(1.21821 0.703475 0)
(1.5155 0.759622 0)
(1.33788 0.867037 0)
(1.45972 0.963225 0)
(1.48496 1.08148 0)
(1.46124 0.994413 0)
(1.0228 -0.25737 0)
(0.994595 -0.33899 0)
(1.04162 -0.409792 0)
(1.06535 -0.526165 0)
(1.06484 -0.800149 0)
(1.15446 -0.960816 0)
(1.18488 -1.07978 0)
(1.09653 -1.14092 0)
(0.978947 -1.14323 0)
(0.949326 -1.11139 0)
(0.914882 -1.10843 0)
(0.819836 -1.03374 0)
(0.704501 -0.877616 0)
(0.665343 -0.766038 0)
(0.671203 -0.659776 0)
(0.665273 -0.437413 0)
(0.532171 -0.260006 0)
(0.638713 -0.13446 0)
(0.546089 0.0204627 0)
(0.720356 0.200341 0)
(0.453957 0.417966 0)
(0.827121 0.474291 0)
(0.585475 0.638314 0)
(0.88764 0.769085 0)
(0.690552 0.846736 0)
(0.920192 0.91632 0)
(0.962423 1.05959 0)
(0.966982 1.01383 0)
(0.964229 -0.265278 0)
(0.974325 -0.339006 0)
(0.953459 -0.451169 0)
(0.962111 -0.555251 0)
(0.888486 -0.799567 0)
(0.96621 -0.990623 0)
(0.824326 -1.04299 0)
(0.690003 -1.08696 0)
(0.613604 -1.14434 0)
(0.524078 -1.11602 0)
(0.343911 -1.0078 0)
(0.227546 -0.965918 0)
(0.184081 -0.90454 0)
(0.0292519 -0.75615 0)
(-0.070952 -0.593021 0)
(-0.0773511 -0.453495 0)
(-0.125488 -0.315088 0)
(-0.157475 -0.128397 0)
(-0.217447 0.0399759 0)
(-0.0679658 0.172012 0)
(-0.202297 0.349556 0)
(0.0474944 0.473937 0)
(-0.171722 0.666785 0)
(0.281529 0.724844 0)
(0.0613242 0.795814 0)
(0.340377 0.887204 0)
(0.413679 0.982876 0)
(0.512918 0.940623 0)
(0.894326 -0.254433 0)
(0.964463 -0.336495 0)
(0.888986 -0.39342 0)
(0.802757 -0.530165 0)
(0.744625 -0.82511 0)
(0.65616 -0.916226 0)
(0.507428 -0.964437 0)
(0.344819 -1.03121 0)
(0.152986 -1.0342 0)
(-0.00524558 -1.01417 0)
(-0.106218 -0.992497 0)
(-0.332723 -0.896316 0)
(-0.515587 -0.769597 0)
(-0.624678 -0.690389 0)
(-0.733171 -0.559401 0)
(-0.854514 -0.380135 0)
(-0.869086 -0.250636 0)
(-0.947149 -0.127877 0)
(-0.930337 0.00391548 0)
(-0.891423 0.207723 0)
(-0.922625 0.323394 0)
(-0.67281 0.43214 0)
(-0.84757 0.572291 0)
(-0.385682 0.676816 0)
(-0.608726 0.774908 0)
(-0.228267 0.821934 0)
(-0.201316 0.939532 0)
(0.00480072 0.898556 0)
(0.888302 -0.239791 0)
(0.938661 -0.33374 0)
(0.789377 -0.350053 0)
(0.673849 -0.48903 0)
(0.529423 -0.743242 0)
(0.37963 -0.845493 0)
(0.172726 -0.873196 0)
(-0.0229934 -0.94256 0)
(-0.24929 -0.975517 0)
(-0.489446 -0.929691 0)
(-0.732045 -0.854399 0)
(-0.905785 -0.82301 0)
(-1.09294 -0.739297 0)
(-1.33514 -0.615825 0)
(-1.41799 -0.507441 0)
(-1.55793 -0.369029 0)
(-1.61294 -0.227002 0)
(-1.66941 -0.0982907 0)
(-1.67265 0.0259931 0)
(-1.6258 0.166375 0)
(-1.5805 0.281553 0)
(-1.43398 0.427862 0)
(-1.51262 0.522992 0)
(-1.01589 0.606315 0)
(-1.25343 0.701726 0)
(-0.751756 0.711905 0)
(-0.734031 0.814169 0)
(-0.410397 0.760998 0)
(0.898032 -0.248793 0)
(0.884877 -0.272831 0)
(0.702728 -0.24559 0)
(0.495637 -0.410388 0)
(0.295136 -0.665056 0)
(0.0701199 -0.72174 0)
(-0.116236 -0.76873 0)
(-0.401625 -0.80234 0)
(-0.708027 -0.807162 0)
(-0.934874 -0.816341 0)
(-1.17397 -0.753363 0)
(-1.49784 -0.660528 0)
(-1.69099 -0.59981 0)
(-1.92704 -0.529392 0)
(-2.10317 -0.41894 0)
(-2.20669 -0.30978 0)
(-2.30953 -0.201364 0)
(-2.33117 -0.0922302 0)
(-2.3515 0.0159371 0)
(-2.30095 0.136651 0)
(-2.23604 0.245949 0)
(-2.1345 0.363078 0)
(-2.04211 0.41998 0)
(-1.68783 0.546891 0)
(-1.81212 0.596609 0)
(-1.2193 0.612791 0)
(-1.27454 0.737934 0)
(-0.911776 0.666024 0)
(0.884554 -0.26349 0)
(0.835721 -0.24718 0)
(0.573556 -0.178605 0)
(0.35148 -0.335122 0)
(0.0717644 -0.561817 0)
(-0.134408 -0.641654 0)
(-0.361648 -0.661166 0)
(-0.713366 -0.67107 0)
(-1.04417 -0.693458 0)
(-1.41533 -0.672348 0)
(-1.66554 -0.620809 0)
(-1.95738 -0.565819 0)
(-2.24781 -0.488501 0)
(-2.46378 -0.430953 0)
(-2.6941 -0.346864 0)
(-2.80022 -0.249031 0)
(-2.92776 -0.16103 0)
(-2.9399 -0.0707735 0)
(-2.9726 0.0164136 0)
(-2.90329 0.115858 0)
(-2.85035 0.206145 0)
(-2.72554 0.283498 0)
(-2.57692 0.350532 0)
(-2.32738 0.454714 0)
(-2.24459 0.444237 0)
(-1.76839 0.510887 0)
(-1.77647 0.584508 0)
(-1.26601 0.47141 0)
(0.79208 -0.189718 0)
(0.66904 -0.0864545 0)
(0.410524 0.017519 0)
(0.251428 -0.136443 0)
(-0.0524518 -0.408466 0)
(-0.311312 -0.481202 0)
(-0.598639 -0.489404 0)
(-0.951398 -0.473674 0)
(-1.3391 -0.479613 0)
(-1.7397 -0.509818 0)
(-2.11424 -0.444464 0)
(-2.4064 -0.396389 0)
(-2.72513 -0.359954 0)
(-2.95813 -0.31111 0)
(-3.20334 -0.26099 0)
(-3.33236 -0.188332 0)
(-3.46626 -0.129094 0)
(-3.48503 -0.0605853 0)
(-3.51026 0.0095277 0)
(-3.43862 0.0859098 0)
(-3.38147 0.148363 0)
(-3.23157 0.205622 0)
(-3.07269 0.272937 0)
(-2.83851 0.335456 0)
(-2.66208 0.324835 0)
(-2.29775 0.399299 0)
(-2.14924 0.404115 0)
(-1.71677 0.373019 0)
(0.623558 -0.235934 0)
(0.391909 -0.0635598 0)
(0.198605 0.0198541 0)
(0.153913 -0.148917 0)
(-0.142142 -0.311613 0)
(-0.494361 -0.356696 0)
(-0.878001 -0.328372 0)
(-1.30526 -0.288273 0)
(-1.6033 -0.317797 0)
(-2.04661 -0.315515 0)
(-2.43615 -0.284406 0)
(-2.76789 -0.245414 0)
(-3.1034 -0.212896 0)
(-3.35914 -0.195059 0)
(-3.62507 -0.15242 0)
(-3.77885 -0.120347 0)
(-3.92923 -0.078725 0)
(-3.96393 -0.0423654 0)
(-3.98791 0.0084344 0)
(-3.92474 0.0535125 0)
(-3.85201 0.0911697 0)
(-3.68826 0.130071 0)
(-3.50402 0.176434 0)
(-3.26266 0.210559 0)
(-3.02598 0.205512 0)
(-2.68502 0.253168 0)
(-2.44001 0.2308 0)
(-2.05817 0.225896 0)
(0.00195968 0.0689523 0)
(0.0154724 0.138068 0)
(0.168826 0.129344 0)
(0.316034 0.0546916 0)
(-0.0215682 -0.0645078 0)
(-0.483296 -0.102613 0)
(-0.959883 -0.109099 0)
(-1.3984 -0.115792 0)
(-1.78158 -0.0961766 0)
(-2.25797 -0.103125 0)
(-2.65554 -0.0941325 0)
(-3.02127 -0.074127 0)
(-3.31028 -0.0741392 0)
(-3.6019 -0.0574897 0)
(-3.83186 -0.0546 0)
(-4.02205 -0.0368269 0)
(-4.15914 -0.0295103 0)
(-4.219 -0.0147221 0)
(-4.24094 0.00169187 0)
(-4.19185 0.0158744 0)
(-4.11751 0.0296226 0)
(-3.94549 0.0398721 0)
(-3.76387 0.0570978 0)
(-3.5045 0.0615043 0)
(-3.26508 0.0595241 0)
(-2.92806 0.0702468 0)
(-2.67346 0.0558009 0)
(-2.33515 0.0628831 0)
(2.12079 0.388088 0)
(2.24063 0.304091 0)
(1.86712 0.120626 0)
(1.78989 -0.420487 0)
(0.470845 0.138729 0)
(1.47405 -0.650405 0)
(0.98369 -1.1118 0)
(0.512216 -0.835553 0)
(2.30429 0.610975 0)
(2.5208 0.521886 0)
(2.08794 0.048527 0)
(2.15065 0.397602 0)
(1.36472 0.46549 0)
(1.92054 -0.446186 0)
(1.35686 -0.898773 0)
(0.895249 -0.567759 0)
(2.29292 0.559609 0)
(2.48702 0.414542 0)
(2.23708 0.391308 0)
(1.8539 -0.0215557 0)
(1.79652 0.276249 0)
(1.95211 -0.507798 0)
(1.52791 -0.926847 0)
(0.354632 -0.0992926 0)
(2.35187 0.558333 0)
(2.44896 0.674299 0)
(2.1656 0.31212 0)
(2.07605 0.450921 0)
(1.59632 0.287083 0)
(2.00856 -0.172717 0)
(0.369279 0.0889695 0)
(-1.16154 0.086885 0)
(2.42661 0.716067 0)
(2.33738 0.61276 0)
(2.24282 0.579294 0)
(1.82829 0.299236 0)
(1.94896 0.43232 0)
(1.63124 0.0191647 0)
(1.25804 0.385281 0)
(1.12022 -0.144075 0)
(2.54386 0.79671 0)
(2.27226 0.780866 0)
(2.21705 0.613329 0)
(1.87232 0.484905 0)
(1.76529 0.430641 0)
(1.7324 0.163427 0)
(1.36651 0.440198 0)
(1.47267 0.07082 0)
(2.53086 0.919646 0)
(2.27244 0.856189 0)
(2.17822 0.745848 0)
(1.87961 0.538265 0)
(1.76873 0.531459 0)
(1.63294 0.254803 0)
(1.36559 0.385436 0)
(1.38153 0.151285 0)
(2.42346 0.999852 0)
(2.18218 0.951715 0)
(2.11658 0.85167 0)
(1.85413 0.617827 0)
(1.70962 0.623199 0)
(1.59857 0.352536 0)
(1.27316 0.475895 0)
(1.27855 0.255252 0)
(2.2052 1.05183 0)
(2.04949 1.01749 0)
(1.97272 0.910622 0)
(1.77954 0.726519 0)
(1.64056 0.665382 0)
(1.58067 0.49162 0)
(1.28412 0.542489 0)
(1.24612 0.326652 0)
(1.87595 1.09617 0)
(1.83337 1.04965 0)
(1.7647 0.97446 0)
(1.67032 0.775073 0)
(1.51051 0.724162 0)
(1.47015 0.55063 0)
(1.29539 0.567708 0)
(1.18728 0.423766 0)
(1.53444 1.09716 0)
(1.49715 1.06433 0)
(1.52462 1.00192 0)
(1.43385 0.854922 0)
(1.39762 0.781804 0)
(1.33924 0.611816 0)
(1.26971 0.654113 0)
(1.22174 0.474205 0)
(1.12475 1.08623 0)
(1.18018 1.02182 0)
(1.20787 1.01041 0)
(1.21331 0.824369 0)
(1.21154 0.799229 0)
(1.14876 0.639529 0)
(1.17848 0.633385 0)
(1.17517 0.494237 0)
(0.688476 1.05342 0)
(0.736966 0.981127 0)
(0.936817 1.01764 0)
(0.85828 0.818344 0)
(0.991491 0.806032 0)
(1.00406 0.621453 0)
(1.04172 0.622326 0)
(1.10291 0.507129 0)
(0.266889 0.962742 0)
(0.321396 0.864916 0)
(0.575554 0.987337 0)
(0.630112 0.767929 0)
(0.744822 0.781068 0)
(0.773377 0.582052 0)
(0.890498 0.578782 0)
(0.995852 0.487257 0)
(-0.246405 0.900216 0)
(-0.0927855 0.811782 0)
(0.218081 0.919282 0)
(0.258467 0.674667 0)
(0.503508 0.76711 0)
(0.642293 0.520801 0)
(0.761841 0.539136 0)
(0.878397 0.455651 0)
(-0.586265 0.756236 0)
(-0.460684 0.660834 0)
(-0.113873 0.829685 0)
(-0.0347049 0.591352 0)
(0.229595 0.648573 0)
(0.402182 0.393769 0)
(0.558952 0.491206 0)
(0.756463 0.379927 0)
(-1.02093 0.666894 0)
(-0.962592 0.59246 0)
(-0.285087 0.704198 0)
(-0.363484 0.483693 0)
(0.150724 0.561041 0)
(0.116208 0.327254 0)
(0.420572 0.403429 0)
(0.59659 0.297156 0)
(-1.46733 0.521448 0)
(-1.16807 0.331931 0)
(-0.551842 0.503557 0)
(-0.718129 0.376275 0)
(-0.107916 0.436925 0)
(-0.0795103 0.242437 0)
(0.278141 0.296555 0)
(0.404455 0.22934 0)
(-1.73404 0.302267 0)
(-1.42492 0.200353 0)
(-0.967148 0.397061 0)
(-0.861182 0.288092 0)
(-0.36443 0.22517 0)
(-0.23957 0.100834 0)
(0.128275 0.181971 0)
(0.260011 0.142032 0)
(-2.03666 0.0892731 0)
(-1.73961 0.076106 0)
(-1.26505 0.17018 0)
(-0.86897 0.146427 0)
(-0.278189 0.087516 0)
(-0.330736 0.0171486 0)
(-0.0224465 0.0551309 0)
(0.159752 0.0483288 0)
(-0.486519 -0.556547 0)
(0.365199 0.20653 0)
(0.606603 0.336145 0)
(0.685831 0.381929 3.84213e-18)
(1.01377 0.541249 3.49661e-19)
(1.03937 0.407606 0)
(1.28552 0.356776 2.84453e-18)
(1.04468 0.232661 1.60112e-19)
(1.3236 0.254926 2.06948e-18)
(1.15297 0.208556 1.96026e-18)
(1.46676 0.244595 0)
(1.29712 0.204337 1.62489e-18)
(1.52554 0.231658 -6.77335e-20)
(1.35287 0.186776 1.32161e-18)
(1.65801 0.234442 1.63086e-20)
(1.47582 0.191879 -1.79867e-20)
(1.78791 0.247434 -4.08896e-19)