/*--------------------------------*- C++ -*----------------------------------*\
| =========                 |                                                 |
| \\      /  F ield         | OpenFOAM: The Open Source CFD Toolbox           |
|  \\    /   O peration     | Version:  2.4.0                                 |
|   \\  /    A nd           | Web:      www.OpenFOAM.org                      |
|    \\/     M anipulation  |                                                 |
\*---------------------------------------------------------------------------*/
FoamFile
{
    version     2.0;
    format      ascii;
    class       volScalarField;
    location    "0.6";
    object      p;
}
// * * * * * * * * * * * * * * * * * * * * * * * * * * * * * * * * * * * * * //

dimensions      [0 2 -2 0 0 0 0];

internalField   nonuniform List<scalar> 
2320
(
-0.0264517
-0.0240361
-0.0288026
-0.0258562
-0.0276989
-0.0278932
-0.0211601
-0.030933
-0.0507376
-0.0436337
-0.0954817
-0.086604
-0.0767967
-0.111581
-0.0865881
-0.12092
-0.127062
-0.132004
-0.143793
-0.148337
-0.0286525
-0.0336004
-0.032973
-0.0249586
-0.0290115
-0.0315997
-0.0369309
-0.0556527
-0.0564559
-0.0411103
-0.0865549
-0.0774549
-0.0932457
-0.130062
-0.125211
-0.136026
-0.127123
-0.128442
-0.145988
-0.155268
-0.0311321
-0.0353724
-0.035976
-0.0271658
-0.0267925
-0.0286321
-0.0358783
-0.0389875
-0.0441092
-0.0456238
-0.082723
-0.0724078
-0.0728802
-0.103789
-0.0952134
-0.117092
-0.128443
-0.127498
-0.145322
-0.149421
-0.0268624
-0.0272272
-0.0285801
-0.03016
-0.0330361
-0.026051
-0.0322279
-0.0366661
-0.0487089
-0.0448551
-0.0661033
-0.0643543
-0.0765598
-0.11013
-0.113137
-0.132509
-0.139413
-0.142201
-0.154835
-0.155929
-0.0260594
-0.0223016
-0.0215005
-0.0264113
-0.0281458
-0.0270441
-0.0393368
-0.0387922
-0.0485517
-0.0475759
-0.0634538
-0.0736045
-0.0839408
-0.110782
-0.118891
-0.133242
-0.141117
-0.14497
-0.148898
-0.154554
-0.025136
-0.0261862
-0.0299173
-0.0290749
-0.0288551
-0.0292957
-0.0422212
-0.0412108
-0.0464291
-0.0532229
-0.0624818
-0.0679653
-0.0852806
-0.110629
-0.11927
-0.137416
-0.147272
-0.153378
-0.155023
-0.156973
-0.0262151
-0.0271554
-0.028844
-0.0280251
-0.0294654
-0.0297082
-0.0398207
-0.0364947
-0.0418256
-0.0423232
-0.0564646
-0.0675088
-0.081064
-0.110008
-0.128549
-0.143436
-0.156645
-0.160871
-0.162616
-0.161758
-0.0253858
-0.0281981
-0.0305242
-0.0273961
-0.0330116
-0.0330339
-0.0375152
-0.0360666
-0.0374733
-0.0446166
-0.0526733
-0.0653383
-0.0769271
-0.106277
-0.125285
-0.146964
-0.166387
-0.172494
-0.166124
-0.163224
-0.0261602
-0.0280436
-0.0279243
-0.0291438
-0.0323324
-0.0312585
-0.0348634
-0.0370674
-0.0319039
-0.0376119
-0.0441657
-0.0593578
-0.0744296
-0.10135
-0.125933
-0.150803
-0.174783
-0.177138
-0.171891
-0.160834
-0.0258489
-0.0273923
-0.0261524
-0.0273202
-0.031753
-0.0270182
-0.0339584
-0.0384023
-0.0278926
-0.0328754
-0.0345913
-0.0541024
-0.0846938
-0.10043
-0.125199
-0.162361
-0.191994
-0.190176
-0.182208
-0.16424
-0.0247415
-0.027266
-0.0266193
-0.0255861
-0.0324889
-0.0288028
-0.0285248
-0.0410289
-0.0291695
-0.0314221
-0.0352829
-0.055095
-0.0776925
-0.0833865
-0.12431
-0.177291
-0.210906
-0.220384
-0.203962
-0.169399
-0.0240491
-0.0279139
-0.0298243
-0.0252143
-0.0314663
-0.030058
-0.0248288
-0.0420862
-0.0353497
-0.0307799
-0.0361768
-0.068853
-0.0818404
-0.0729249
-0.123253
-0.206627
-0.250775
-0.262153
-0.238394
-0.183812
-0.0243662
-0.0274489
-0.0309371
-0.0336391
-0.0292736
-0.0287969
-0.021495
-0.0348395
-0.0306837
-0.0249781
-0.0266724
-0.0566772
-0.074085
-0.0534212
-0.125721
-0.243217
-0.321
-0.339387
-0.289917
-0.204164
-0.0260156
-0.0273979
-0.0272465
-0.0396872
-0.0340443
-0.0218874
-0.0232437
-0.0304297
-0.0247546
-0.0174828
-0.0142849
-0.0309862
-0.0546537
-0.0492296
-0.146278
-0.289447
-0.408142
-0.435087
-0.34834
-0.228599
-0.0231058
-0.0228084
-0.0187541
-0.0324235
-0.0306574
-0.0196006
-0.0165241
-0.0259569
-0.0154281
-0.010827
-0.00390603
-0.0169573
-0.0286135
-0.0526788
-0.181015
-0.33317
-0.477553
-0.49925
-0.391826
-0.25642
-0.0204639
-0.0191922
-0.0128187
-0.0161419
-0.0250226
-0.0161868
-0.0096628
-0.00629196
-0.00128887
-0.00383267
0.00602813
-0.0023408
-0.00525658
-0.0427379
-0.194532
-0.355939
-0.51195
-0.542754
-0.421226
-0.258789
-0.0183593
-0.0186373
-0.0114411
-0.0121917
-0.0181472
-0.0197006
-0.00698237
-0.00969873
0.00626898
0.00295108
0.0102477
0.0122533
0.0263741
-0.0283002
-0.188678
-0.350424
-0.522149
-0.575246
-0.430728
-0.256058
-0.0171055
-0.018266
-0.0116272
-0.0107363
-0.0151484
-0.0110419
-0.00711539
-0.00782086
0.00731081
0.0122488
0.0231737
0.0286291
0.0617545
-0.00440586
-0.176162
-0.302859
-0.48673
-0.525774
-0.404283
-0.219529
-0.0151087
-0.0178483
-0.0125889
-0.0129944
-0.0116253
-0.0112161
-0.00719139
-0.00682773
0.00739887
0.0160176
0.0292512
0.0448867
0.0801135
0.0428769
-0.153426
-0.276187
-0.464187
-0.542998
-0.393081
-0.191784
-0.0138411
-0.0169463
-0.0109697
-0.0103355
-0.0110003
-0.00775809
-0.00537115
-0.0033097
0.0088272
0.0208935
0.0364126
0.0567924
0.103469
0.0631759
-0.133985
-0.241282
-0.427688
-0.491213
-0.390724
-0.168393
-0.141265
-0.147498
-0.173293
-0.212037
-0.29976
-0.291652
-0.325969
-0.439621
-0.15875
-0.183901
-0.200123
-0.234888
-0.333562
-0.474281
-0.419898
-0.523793
-0.148617
-0.174667
-0.172111
-0.168191
-0.227921
-0.203427
-0.302031
-0.406739
-0.159232
-0.166841
-0.157134
-0.199725
-0.193217
-0.234104
-0.371877
-0.440848
-0.145456
-0.155635
-0.155143
-0.150368
-0.188457
-0.210577
-0.291397
-0.409053
-0.147368
-0.148294
-0.147565
-0.148005
-0.175328
-0.197048
-0.26561
-0.379343
-0.142947
-0.140831
-0.131479
-0.133828
-0.156327
-0.176145
-0.225306
-0.334441
-0.138903
-0.129869
-0.121911
-0.115743
-0.133663
-0.153545
-0.194932
-0.293412
-0.136043
-0.11999
-0.107759
-0.106726
-0.111235
-0.127737
-0.168765
-0.249726
-0.132757
-0.11107
-0.0968343
-0.0828259
-0.093273
-0.103406
-0.137563
-0.202412
-0.126284
-0.0995585
-0.0805026
-0.0702075
-0.0650566
-0.0729165
-0.108435
-0.155429
-0.112386
-0.0635351
-0.0575378
-0.0340333
-0.0332448
-0.0325197
-0.0648937
-0.107485
-0.0998107
-0.0362582
-0.0433763
-0.0191258
-0.00294158
0.00989364
-0.02393
-0.0529449
-0.0920764
-0.0265465
-0.0315864
0.00514273
0.031054
0.0485109
0.0290487
0.00529437
-0.0801965
-0.0275762
-0.0152909
0.0199203
0.0728037
0.0907351
0.0687589
0.0724011
-0.0511957
-0.0107513
-0.00990803
0.0403688
0.0972765
0.119916
0.107175
0.111022
-0.0430968
-0.00792315
-0.00178272
0.0360957
0.104304
0.129597
0.132864
0.142615
-0.0332634
-0.0208266
-0.0137773
0.0367188
0.0939521
0.13003
0.145702
0.163545
-0.0280759
0.00748346
-0.0135957
0.025188
0.080259
0.124057
0.150476
0.168434
-0.0307828
-0.0385627
-0.0224285
0.0152219
0.062204
0.100326
0.139014
0.180878
-0.540429
-0.760766
-1.04855
-1.2038
-1.62976
-2.13672
-2.95315
-3.85103
-4.83608
-5.80734
-6.91558
-7.88153
-8.76881
-9.55529
-10.0982
-10.4841
-10.5534
-10.4001
-9.96029
-9.33353
-8.452
-7.40308
-6.27923
-5.11704
-3.94865
-2.72579
-1.67796
-0.99576
-0.531133
-0.737699
-1.1603
-1.33708
-1.7085
-2.18922
-2.99055
-3.88678
-4.88446
-5.87974
-6.96123
-7.92935
-8.82859
-9.61548
-10.1531
-10.5361
-10.632
-10.461
-10.0414
-9.39282
-8.49458
-7.42462
-6.29034
-5.1349
-3.96179
-2.83611
-1.85919
-1.24437
-0.529123
-0.760034
-0.96879
-1.28033
-1.64798
-2.2235
-3.01562
-3.86929
-4.96135
-5.9469
-7.05193
-8.00531
-8.94508
-9.71834
-10.2813
-10.6612
-10.7681
-10.612
-10.1682
-9.53011
-8.58093
-7.51892
-6.33676
-5.13967
-4.01613
-2.88933
-1.9544
-1.30883
-0.58566
-0.755324
-0.880643
-1.24295
-1.65754
-2.27073
-3.0682
-3.92772
-5.05506
-6.0426
-7.16608
-8.16046
-9.08906
-9.92173
-10.464
-10.8568
-10.9835
-10.7958
-10.4097
-9.70885
-8.7526
-7.65082
-6.45827
-5.22252
-4.06618
-2.99989
-2.08033
-1.41071
-0.512213
-0.706213
-0.863348
-1.21465
-1.65715
-2.30623
-3.11739
-4.01847
-5.17228
-6.14757
-7.34269
-8.33821
-9.29773
-10.1706
-10.711
-11.1409
-11.2443
-11.1029
-10.6974
-9.97719
-8.98555
-7.83649
-6.62038
-5.35886
-4.17347
-3.08779
-2.16964
-1.43466
-0.461889
-0.670654
-0.834001
-1.1833
-1.6722
-2.3386
-3.18156
-4.16221
-5.30755
-6.33862
-7.53013
-8.55709
-9.55841
-10.4536
-11.0161
-11.4781
-11.5918
-11.4509
-11.0453
-10.2718
-9.28566
-8.10733
-6.8297
-5.53447
-4.2906
-3.17526
-2.23339
-1.47297
-0.416603
-0.599733
-0.785274
-1.14082
-1.66142
-2.36262
-3.28153
-4.32055
-5.4755
-6.56485
-7.73203
-8.79344
-9.85903
-10.7642
-11.3694
-11.8552
-11.9478
-11.8588
-11.465
-10.607
-9.59397
-8.40395
-7.11847
-5.75686
-4.42948
-3.27961
-2.28299
-1.49802
-0.380146
-0.535046
-0.747249
-1.07197
-1.62609
-2.38742
-3.37304
-4.45846
-5.64544
-6.78887
-7.91609
-9.04855
-10.1638
-11.0553
-11.7604
-12.2553
-12.3393
-12.2963
-11.8275
-10.9831
-9.95115
-8.65288
-7.43694
-5.99731
-4.59227
-3.40802
-2.31695
-1.53846
-0.333775
-0.472596
-0.700966
-1.01576
-1.5788
-2.39063
-3.4428
-4.57306
-5.77825
-6.95739
-8.07167
-9.285
-10.4321
-11.354
-12.1145
-12.5861
-12.7554
-12.7423
-12.1707
-11.2985
-10.2491
-8.91849
-7.70851
-6.18114
-4.77739
-3.51352
-2.33222
-1.58644
-0.283135
-0.412603
-0.63568
-0.954719
-1.52225
-2.36061
-3.45945
-4.66122
-5.8852
-7.07419
-8.21935
-9.48201
-10.6438
-11.6309
-12.4145
-12.8799
-13.0984
-13.0707
-12.5022
-11.5958
-10.4352
-9.15285
-7.94838
-6.28708
-4.94417
-3.59787
-2.30528
-1.58767
-0.232721
-0.361124
-0.565418
-0.87306
-1.45593
-2.32519
-3.44957
-4.68325
-5.93247
-7.15276
-8.3309
-9.65271
-10.8307
-11.8321
-12.6216
-13.111
-13.3601
-13.2991
-12.7375
-11.824
-10.5691
-9.31281
-8.08077
-6.34249
-5.03188
-3.62299
-2.25852
-1.56997
-0.171889
-0.311639
-0.501959
-0.798449
-1.36999
-2.25122
-3.41621
-4.68293
-5.93601
-7.15928
-8.3604
-9.74066
-10.9577
-11.9837
-12.76
-13.2604
-13.551
-13.4797
-12.8657
-11.907
-10.6492
-9.42545
-8.1239
-6.35928
-5.03353
-3.58248
-2.17206
-1.56096
-0.112397
-0.255632
-0.43122
-0.720095
-1.27323
-2.14217
-3.30021
-4.58889
-5.88798
-7.14676
-8.37155
-9.75761
-10.9491
-12.0428
-12.8454
-13.3185
-13.573
-13.5271
-12.8927
-11.9179
-10.6516
-9.4054
-8.0845
-6.33705
-4.95291
-3.5318
-2.05629
-1.50979
-0.062965
-0.20363
-0.367114
-0.660581
-1.16891
-2.0053
-3.16674
-4.42184
-5.73454
-7.05212
-8.33696
-9.72665
-10.9162
-11.9594
-12.8105
-13.3426
-13.5655
-13.4445
-12.7952
-11.8361
-10.5969
-9.32844
-7.96582
-6.23199
-4.82697
-3.44381
-1.91393
-1.47576
-0.00564078
-0.15868
-0.286532
-0.573211
-1.05894
-1.84563
-2.98289
-4.25735
-5.53821
-6.89541
-8.24607
-9.58913
-10.8148
-11.8446
-12.6746
-13.2351
-13.4637
-13.3006
-12.628
-11.6672
-10.4537
-9.18869
-7.80168
-6.07956
-4.70177
-3.30512
-1.76602
-1.37797
0.0577526
-0.0982398
-0.223042
-0.454322
-0.941687
-1.72479
-2.77854
-4.0275
-5.3521
-6.71976
-8.109
-9.44231
-10.6447
-11.6944
-12.523
-13.0814
-13.2745
-13.0611
-12.4019
-11.4669
-10.2573
-8.97869
-7.60787
-5.89497
-4.57733
-3.13207
-1.641
-1.26965
0.0931934
-0.0430699
-0.164159
-0.389367
-0.845898
-1.61934
-2.64231
-3.81054
-5.12722
-6.54066
-7.93589
-9.27639
-10.4697
-11.5166
-12.3657
-12.9148
-13.073
-12.8192
-12.1734
-11.2456
-10.051
-8.78698
-7.40695
-5.70984
-4.46993
-2.94853
-1.5139
-1.15753
0.161481
-0.00292789
-0.121206
-0.345384
-0.819023
-1.54361
-2.52887
-3.65467
-4.93992
-6.35922
-7.77156
-9.1105
-10.305
-11.3496
-12.1998
-12.7218
-12.8405
-12.589
-11.9578
-11.0281
-9.86848
-8.64516
-7.21563
-5.56015
-4.37394
-2.74851
-1.41054
-1.06327
0.193475
0.0371264
-0.125807
-0.329048
-0.796061
-1.50694
-2.44013
-3.52736
-4.8017
-6.20541
-7.6388
-8.987
-10.1825
-11.2381
-12.0777
-12.5739
-12.6741
-12.418
-11.7919
-10.869
-9.76411
-8.52635
-7.0338
-5.4855
-4.30652
-2.53886
-1.35127
-0.992885
0.236614
0.0686995
-0.117001
-0.331853
-0.759184
-1.47794
-2.40062
-3.4506
-4.69834
-6.11546
-7.55573
-8.90432
-10.1134
-11.1719
-12.0122
-12.4837
-12.5804
-12.326
-11.6968
-10.7925
-9.71961
-8.44599
-6.91761
-5.45958
-4.23993
-2.40294
-1.341
-0.936846
-0.0798968
-0.269502
-1.5535
-0.90391
-0.152033
-0.0434443
0.297475
-0.01008
-0.511176
-0.77064
-1.30574
-0.656467
-0.0819249
0.10875
0.237857
0.441394
-0.713228
-0.585175
-0.759885
-0.33622
0.0534776
0.100046
0.435766
0.881503
-0.795679
-0.544331
-0.667802
-0.353536
-0.0228861
0.265501
0.687339
0.827662
-0.841092
-0.543889
-0.438473
-0.121383
0.287894
0.597293
0.75353
0.89992
-0.860325
-0.510803
-0.274553
0.0387784
0.320698
0.519338
0.763691
0.933045
-0.868032
-0.484993
-0.191996
0.13396
0.387347
0.580385
0.783837
0.95686
-0.85656
-0.423943
-0.107794
0.199297
0.434289
0.611493
0.801714
0.867855
-0.815627
-0.327382
-0.0145273
0.266462
0.488766
0.622908
0.804174
0.868224
-0.747743
-0.220011
0.0798025
0.339219
0.53604
0.664817
0.822536
0.85888
-0.646744
-0.1001
0.169934
0.401936
0.592777
0.705353
0.825575
0.852094
-0.554062
0.023884
0.276114
0.506325
0.664845
0.754447
0.84749
0.867608
-0.42632
0.139136
0.383464
0.612884
0.738952
0.8201
0.888806
0.909985
-0.274043
0.258666
0.482436
0.716621
0.810951
0.888993
0.930853
0.945762
-0.123824
0.332348
0.586631
0.820683
0.866723
0.960306
0.968806
0.976387
0.0366384
0.433354
0.701161
0.897611
0.901314
1.03073
0.998739
1.00853
0.20614
0.470956
0.819662
0.982081
0.947756
1.09054
1.0224
1.05571
0.370334
0.491488
0.914698
0.957892
0.995421
1.12442
1.03829
1.07686
0.499434
0.478074
0.975274
1.01345
1.04628
1.14191
1.04932
1.09402
0.560076
0.482898
1.0121
0.991496
1.06468
1.15097
1.05963
1.10924
1.69198
1.49126
1.23872
1.02743
0.816277
0.531709
0.459704
0.501273
0.53554
0.539714
0.507522
0.475362
0.425281
0.387572
0.313268
0.258715
0.157951
0.0776873
-0.110343
-0.221742
1.88464
1.34036
1.07552
0.924207
0.760844
0.564443
0.512677
0.547594
0.561477
0.551012
0.510966
0.477903
0.4253
0.386317
0.315091
0.255711
0.161937
0.0745042
-0.0438325
-0.128783
1.72558
1.14642
0.993724
0.928686
0.796661
0.610714
0.534448
0.555729
0.560404
0.54787
0.51011
0.476152
0.424523
0.385905
0.312746
0.252285
0.164816
0.0771874
-0.0193065
-0.108512
1.33972
1.04619
1.00392
0.917571
0.781901
0.627386
0.56601
0.583894
0.582042
0.559943
0.516164
0.479642
0.429241
0.385424
0.316354
0.24914
0.171394
0.0824173
0.00229156
-0.0699603
1.05917
0.887362
0.932284
0.886351
0.784839
0.659864
0.598176
0.602192
0.588586
0.559372
0.516945
0.477021
0.428752
0.383243
0.318142
0.247823
0.174756
0.0890138
0.0191672
-0.046661
1.10654
0.942897
0.946756
0.863087
0.769552
0.667462
0.613637
0.613499
0.598605
0.567295
0.522346
0.481259
0.432698
0.381656
0.323344
0.249119
0.179204
0.0980411
0.0328815
-0.0272851
0.990545
0.87981
0.893278
0.838102
0.747629
0.67034
0.633998
0.628204
0.608494
0.569435
0.523391
0.476782
0.430105
0.379181
0.322608
0.249273
0.182948
0.106268
0.0452594
-0.0119186
0.924773
0.891936
0.902518
0.837711
0.777209
0.717548
0.669153
0.648514
0.62301
0.577093
0.530836
0.484205
0.437501
0.38133
0.325579
0.252929
0.18978
0.114383
0.0550287
-0.000959392
0.92172
0.878269
0.861244
0.804467
0.749516
0.698216
0.670311
0.656465
0.627122
0.576824
0.529409
0.480355
0.428593
0.380614
0.325237
0.256039
0.191491
0.121834
0.0635237
0.00721047
0.878573
0.872262
0.869858
0.830455
0.785478
0.746485
0.70469
0.674416
0.640054
0.580974
0.533482
0.483896
0.432437
0.381537
0.328273
0.25887
0.194864
0.129473
0.071415
0.0138803
0.870143
0.876442
0.862829
0.811825
0.76489
0.728707
0.705919
0.680637
0.635365
0.578317
0.533268
0.484201
0.431628
0.382559
0.328036
0.261878
0.197671
0.135219
0.0772787
0.0186789
0.879972
0.886316
0.872544
0.827907
0.785759
0.76377
0.728896
0.693246
0.645068
0.581683
0.535328
0.485536
0.438304
0.384146
0.329081
0.265336
0.201307
0.14046
0.0824767
0.0224335
0.906876
0.891233
0.867268
0.82351
0.785395
0.763776
0.735476
0.698356
0.641879
0.576154
0.534
0.48612
0.438932
0.385862
0.330063
0.268359
0.204935
0.145088
0.0864987
0.0253227
0.935028
0.909618
0.878387
0.836868
0.800638
0.780579
0.751012
0.707772
0.645947
0.578011
0.534603
0.486128
0.43957
0.386906
0.331051
0.271678
0.208561
0.149158
0.0898867
0.0274104
0.953761
0.919074
0.886308
0.844328
0.810549
0.789784
0.75454
0.703976
0.639921
0.572419
0.532679
0.485824
0.440483
0.388905
0.332565
0.274835
0.212488
0.152982
0.0926979
0.029203
0.969016
0.92447
0.889468
0.850422
0.818004
0.798104
0.767131
0.714388
0.641365
0.572463
0.531592
0.484268
0.440105
0.389315
0.333721
0.277163
0.215793
0.156033
0.0949062
0.0303809
1.0025
0.944111
0.900752
0.856566
0.827194
0.809494
0.770926
0.711673
0.636457
0.569004
0.530037
0.483438
0.441707
0.392079
0.335914
0.28081
0.219513
0.159076
0.0967796
0.0313662
0.992535
0.943536
0.90397
0.861725
0.835263
0.813049
0.769551
0.709406
0.634677
0.569203
0.527413
0.480895
0.440594
0.392189
0.337032
0.282742
0.222182
0.16131
0.0982601
0.0319784
1.00517
0.958057
0.911901
0.869022
0.843618
0.815663
0.767039
0.705122
0.63202
0.568548
0.525691
0.480761
0.442134
0.394285
0.3392
0.285503
0.224891
0.163125
0.0990316
0.032326
1.00279
0.95873
0.914357
0.87253
0.84739
0.814145
0.763143
0.700206
0.628069
0.56566
0.522703
0.478414
0.44079
0.394075
0.340081
0.287229
0.227086
0.165004
0.100047
0.0323885
-0.110185
-0.0218278
-0.236936
0.087136
-0.115335
0.0748951
0.0516945
-0.0311406
-0.0551021
-0.0441083
-0.357845
-0.0601173
-0.321926
0.0997431
0.0155893
-0.105968
-0.199267
-0.169818
-0.492339
-0.314476
-0.437685
0.00827058
-0.109186
-0.184265
-0.269245
-0.296608
-0.537095
-0.533922
-0.565294
-0.275366
-0.253903
-0.228988
-0.38812
-0.463456
-0.693292
-0.807106
-0.818809
-0.727854
-0.460854
-0.330226
-0.580696
-0.721038
-0.987877
-1.16174
-1.13007
-1.12776
-0.782083
-0.587632
-0.801416
-1.04435
-1.33549
-1.61336
-1.51939
-1.48628
-1.14711
-0.924094
-1.04659
-1.41492
-1.74228
-1.98957
-1.87595
-1.79966
-1.48225
-1.26096
-1.43865
-1.88523
-2.18364
-2.4808
-2.235
-2.13595
-1.84319
-1.53337
-1.843
-2.36111
-2.7279
-2.82418
-2.63708
-2.52111
-2.18711
-1.8249
-2.26433
-2.84095
-3.18287
-3.41125
-3.06333
-2.91178
-2.58194
-2.18045
-2.66796
-3.25965
-3.57739
-3.66437
-3.47393
-3.27516
-3.03072
-2.59626
-3.03812
-3.62365
-4.01178
-4.15434
-3.84063
-3.56873
-3.37705
-2.94167
-3.34383
-3.95461
-4.29467
-4.368
-4.12818
-3.72664
-3.50841
-3.10134
-3.5689
-4.15152
-4.59563
-4.71294
-4.35893
-3.80649
-3.56007
-3.14442
-3.70318
-4.28685
-4.72743
-4.74143
-4.49291
-3.84532
-3.58538
-3.14673
-3.69361
-4.24852
-4.71206
-4.80858
-4.51885
-3.80563
-3.51812
-3.09666
-3.54597
-4.09476
-4.64763
-4.65623
-4.41584
-3.68653
-3.39082
-3.00888
-3.31313
-3.84248
-4.41963
-4.42807
-4.211
-3.47804
-3.20085
-2.8515
-2.94279
-3.47817
-4.1012
-4.10322
-3.85478
-3.19479
-2.93475
-2.62428
-2.5291
-3.00731
-3.70759
-3.6612
-3.50668
-2.85531
-2.62331
-2.38505
-2.07117
-2.5614
-3.27308
-3.32649
-3.02273
-2.46821
-2.29468
-2.10937
-1.61292
-2.05894
-2.77077
-2.7121
-2.4911
-2.06964
-1.93079
-1.81131
-1.17502
-1.65019
-2.27305
-2.32781
-1.9839
-1.61545
-1.57837
-1.55045
-0.794751
-1.31381
-1.82619
-1.79635
-1.51323
-1.14566
-1.2976
-1.34863
-0.510202
-1.0842
-1.49991
-1.42098
-1.09825
-0.809231
-1.1044
-1.1841
-0.459508
-0.98822
-1.27887
-1.15471
-0.965581
-0.764667
-0.932129
-1.05155
-0.523838
-0.945422
-1.17521
-0.914877
-0.718541
-0.530721
-0.817941
-0.949097
-0.657031
-1.18947
-1.14114
-0.722859
-0.708829
-0.518865
-0.822211
-0.896639
-0.795264
-1.14498
-1.10508
-0.783268
-0.79251
-0.677786
-0.84785
-0.861349
-0.944033
-1.41181
-1.122
-0.761351
-0.894917
-0.857122
-0.899092
-0.80453
-0.976272
-1.32273
-1.16547
-0.807034
-0.967941
-1.07453
-0.917994
-0.76392
-0.924737
-1.31726
-1.08817
-0.793199
-0.959935
-1.15795
-0.863139
-0.691735
-0.777271
-1.13729
-0.952748
-0.724827
-0.781488
-1.07944
-0.695334
-0.575501
-0.702992
-0.893174
-0.894463
-0.566689
-0.613776
-0.907575
-0.525397
-0.488786
-0.583035
-0.73242
-0.950114
-0.5937
-0.382004
-0.67038
-0.302761
-0.400555
-0.580062
-0.742479
-0.970888
-0.449462
-0.400974
-0.476689
-0.0697432
-0.333304
-0.204341
-0.659618
-1.02048
-0.776301
-0.211812
-0.394341
0.182077
-0.276117
-0.949637
-0.98161
-1.09836
-1.08435
-0.222746
-0.247913
0.327729
-0.312163
-0.295569
-1.39014
-1.49509
-1.05254
-0.104756
-0.198254
0.29373
-0.439527
-0.0250137
-0.0493209
-0.0408921
-0.00444975
0.041017
0.0791589
0.12022
0.153721
-0.0532516
-0.0739322
-0.0702601
-0.0341012
0.00759491
0.0412133
0.0826627
0.125892
-0.0869001
-0.0888368
-0.0791775
-0.0551094
-0.0134309
0.0170791
0.0514705
0.0979199
-0.113062
-0.110532
-0.104524
-0.0775853
-0.0436062
-0.0160986
0.0152605
0.0611711
-0.140463
-0.124371
-0.11887
-0.0960074
-0.0637579
-0.0381087
-0.0174676
0.0265492
-0.16867
-0.149945
-0.141136
-0.119048
-0.0911719
-0.0642177
-0.0378637
0.00575238
-0.196462
-0.16969
-0.163763
-0.139127
-0.117411
-0.0873289
-0.0684906
-0.0247273
-0.215636
-0.19143
-0.184083
-0.163338
-0.1422
-0.115905
-0.0934005
-0.0522275
-0.241301
-0.210158
-0.204472
-0.175676
-0.165103
-0.139946
-0.116783
-0.0825858
-0.257256
-0.232876
-0.226512
-0.204941
-0.187967
-0.166862
-0.147856
-0.110004
-0.27655
-0.24871
-0.247677
-0.221757
-0.210411
-0.19345
-0.178634
-0.144841
-0.294915
-0.272608
-0.263805
-0.245359
-0.228594
-0.209063
-0.197541
-0.16654
-0.316469
-0.288319
-0.285537
-0.2567
-0.251965
-0.220429
-0.217899
-0.178069
-0.340302
-0.31493
-0.311459
-0.286408
-0.277345
-0.249346
-0.24114
-0.202844
-0.358724
-0.330635
-0.329103
-0.303093
-0.298175
-0.276023
-0.271499
-0.240064
-0.383069
-0.355683
-0.350056
-0.323253
-0.316962
-0.288862
-0.283614
-0.257721
-0.4037
-0.375296
-0.373348
-0.343788
-0.339501
-0.306877
-0.305836
-0.268697
-0.424582
-0.397658
-0.397903
-0.368354
-0.364797
-0.33123
-0.327033
-0.293389
-0.445705
-0.417182
-0.417531
-0.390589
-0.389877
-0.35907
-0.349512
-0.31829
-0.465903
-0.439905
-0.439088
-0.410892
-0.409397
-0.37726
-0.376364
-0.3423
-0.486447
-0.458949
-0.462532
-0.434815
-0.434217
-0.399447
-0.391507
-0.362341
-0.50668
-0.481246
-0.485603
-0.457783
-0.459821
-0.429352
-0.423558
-0.384834
-0.523708
-0.498006
-0.506065
-0.479855
-0.484872
-0.456213
-0.446852
-0.41581
-0.541788
-0.518149
-0.526726
-0.50174
-0.509844
-0.482273
-0.475891
-0.441176
-0.553952
-0.533283
-0.546087
-0.5227
-0.534074
-0.509329
-0.507003
-0.469172
-0.569045
-0.549083
-0.563563
-0.542672
-0.559665
-0.534838
-0.535176
-0.498795
-0.580057
-0.563873
-0.581637
-0.560738
-0.585807
-0.56435
-0.566922
-0.527638
-0.593497
-0.576573
-0.594395
-0.576985
-0.606667
-0.590622
-0.603615
-0.562631
-0.605852
-0.589031
-0.606314
-0.591038
-0.627584
-0.61782
-0.63606
-0.600516
-0.615361
-0.60093
-0.614279
-0.602994
-0.63869
-0.637712
-0.66265
-0.631452
-0.623591
-0.609154
-0.623713
-0.611491
-0.653361
-0.653896
-0.693243
-0.660982
-0.634716
-0.620097
-0.631175
-0.619634
-0.654894
-0.662664
-0.725221
-0.688481
-0.638225
-0.627405
-0.637189
-0.625059
-0.658331
-0.658876
-0.723148
-0.696593
-0.658525
-0.638964
-0.644733
-0.628625
-0.652691
-0.649172
-0.719448
-0.681502
-0.664197
-0.649631
-0.650422
-0.638631
-0.653361
-0.631298
-0.73848
-0.653399
-0.686292
-0.66777
-0.661933
-0.642311
-0.64962
-0.617378
-0.711194
-0.5999
-0.692763
-0.673594
-0.670921
-0.653547
-0.64743
-0.606015
-0.632119
-0.532952
-0.721206
-0.705039
-0.694586
-0.673531
-0.666486
-0.623463
-0.622842
-0.508559
-0.722251
-0.7025
-0.696227
-0.674952
-0.663175
-0.622689
-0.607886
-0.509998
-0.758466
-0.741379
-0.73312
-0.71364
-0.703736
-0.661141
-0.653049
-0.550568
)
;

boundaryField
{
    wall
    {
        type            zeroGradient;
    }
    inlet1
    {
        type            zeroGradient;
    }
    inlet2
    {
        type            zeroGradient;
    }
    outlet1
    {
        type            fixedValue;
        value           uniform 0;
    }
    outlet2
    {
        type            outletInlet;
        outletValue     uniform 0;
        value           nonuniform List<scalar> 8(-0.110185 0 -0.236936 0.087136 0 0.0748951 0 0);
    }
    defaultFaces
    {
        type            empty;
    }
}


// ************************************************************************* //
