/*--------------------------------*- C++ -*----------------------------------*\
| =========                 |                                                 |
| \\      /  F ield         | OpenFOAM: The Open Source CFD Toolbox           |
|  \\    /   O peration     | Version:  2.4.0                                 |
|   \\  /    A nd           | Web:      www.OpenFOAM.org                      |
|    \\/     M anipulation  |                                                 |
\*---------------------------------------------------------------------------*/
FoamFile
{
    version     2.0;
    format      ascii;
    class       volScalarField;
    location    "195";
    object      p;
}
// * * * * * * * * * * * * * * * * * * * * * * * * * * * * * * * * * * * * * //

dimensions      [0 2 -2 0 0 0 0];

internalField   nonuniform List<scalar> 
6000
(
-0.220189
0.0678364
0.150738
0.16399
0.168749
0.171978
0.174336
0.177555
0.182329
0.186824
0.187526
0.184028
0.179765
0.17563
0.168422
0.156373
0.141171
0.124958
0.109881
0.0975968
0.0895143
0.0864106
0.0892082
0.0982687
0.113607
0.134486
0.160063
0.189381
0.220578
0.250666
0.276978
0.297977
0.312533
0.319716
0.319996
0.315819
0.309411
0.302906
0.297702
0.294498
0.293197
0.293216
0.293691
0.294866
0.29619
0.292129
0.283467
0.27825
0.278817
0.282581
0.287317
0.291611
0.292183
0.290339
0.280777
0.271283
0.241338
0.229843
0.143316
0.179749
-0.198521
0.0673269
0.150157
0.163919
0.168715
0.171934
0.174276
0.177445
0.182165
0.186657
0.187431
0.184044
0.179868
0.175821
0.16866
0.15661
0.141367
0.125077
0.109899
0.0975031
0.0893123
0.0861035
0.0888058
0.0977846
0.113058
0.133887
0.159415
0.188686
0.219851
0.249895
0.276161
0.297234
0.311949
0.319202
0.319555
0.315443
0.30909
0.302637
0.297483
0.294325
0.293068
0.293133
0.293665
0.294944
0.296387
0.292297
0.283454
0.278201
0.278724
0.282416
0.287084
0.291341
0.291871
0.28995
0.280317
0.270682
0.240662
0.228851
0.142375
0.177464
-0.178992
0.0656838
0.14945
0.163862
0.168735
0.171913
0.174222
0.177318
0.181952
0.186427
0.187309
0.184087
0.180009
0.176024
0.168848
0.15676
0.141483
0.125147
0.109904
0.097425
0.0891463
0.0858376
0.0884347
0.0973083
0.112485
0.133226
0.158659
0.187832
0.218928
0.248879
0.275059
0.296219
0.311154
0.318527
0.319004
0.314992
0.308718
0.302334
0.297243
0.294144
0.292944
0.293074
0.293677
0.295069
0.296584
0.292404
0.283276
0.278028
0.278497
0.282093
0.286674
0.290899
0.29138
0.289397
0.279684
0.269956
0.239814
0.227853
0.141206
0.175612
-0.163712
0.0639447
0.148685
0.163812
0.168789
0.171926
0.174184
0.177204
0.18176
0.186247
0.18726
0.184195
0.180187
0.176187
0.168943
0.156815
0.141519
0.125152
0.109852
0.0972904
0.0889221
0.0855101
0.0880012
0.0967749
0.111865
0.132533
0.157892
0.186987
0.218044
0.247923
0.274083
0.2954
0.310502
0.317944
0.318507
0.314563
0.308344
0.302014
0.296979
0.293945
0.292816
0.293025
0.293702
0.295162
0.296577
0.29215
0.282811
0.277719
0.278198
0.281754
0.286297
0.290496
0.290916
0.288869
0.279054
0.269242
0.238921
0.226886
0.139882
0.173981
-0.150109
0.0624998
0.147822
0.163722
0.168837
0.171973
0.174158
0.177103
0.181604
0.186133
0.1873
0.184379
0.180419
0.176341
0.168986
0.156805
0.141481
0.125078
0.109715
0.0970666
0.0886084
0.0850971
0.0874915
0.0961809
0.111201
0.131816
0.157121
0.186161
0.217199
0.247022
0.273226
0.294763
0.309979
0.317458
0.318075
0.314169
0.307979
0.301684
0.296698
0.293732
0.292681
0.292973
0.293719
0.295165
0.296334
0.29146
0.282088
0.277295
0.27786
0.28144
0.285986
0.290163
0.290521
0.288409
0.278485
0.268587
0.238062
0.225975
0.138527
0.172539
-0.137233
0.0612781
0.146848
0.163554
0.168886
0.172036
0.174143
0.177009
0.181468
0.186064
0.187409
0.184636
0.18071
0.176513
0.169003
0.156744
0.141376
0.124925
0.109494
0.096755
0.088209
0.0846027
0.0869079
0.095524
0.110487
0.131056
0.156318
0.185312
0.216337
0.246112
0.272405
0.294209
0.309509
0.317022
0.317677
0.313792
0.307616
0.301344
0.2964
0.293506
0.29254
0.292914
0.293718
0.295048
0.295871
0.290388
0.281174
0.276775
0.277483
0.281128
0.285706
0.289862
0.290165
0.287993
0.277963
0.26798
0.237251
0.225118
0.137225
0.171248
-0.125094
0.0602042
0.145789
0.163305
0.168939
0.172101
0.174146
0.176922
0.181346
0.186026
0.187574
0.184961
0.18106
0.176709
0.169006
0.156642
0.141212
0.124701
0.109195
0.0963658
0.0877345
0.0840372
0.0862581
0.0948084
0.109721
0.130251
0.155473
0.184424
0.215436
0.245176
0.271585
0.293684
0.309057
0.316607
0.317292
0.313419
0.307246
0.30099
0.296086
0.293269
0.292391
0.292845
0.293684
0.294786
0.295174
0.289021
0.28013
0.276177
0.27707
0.280804
0.285433
0.289569
0.289825
0.287598
0.277467
0.267405
0.236479
0.224307
0.135998
0.170076
-0.113729
0.0592743
0.144674
0.162983
0.168979
0.172167
0.174167
0.176846
0.181239
0.186016
0.187788
0.18535
0.181467
0.176932
0.169002
0.156507
0.140996
0.124415
0.108829
0.0959072
0.0871922
0.0834064
0.0855466
0.0940365
0.108905
0.129398
0.154582
0.183489
0.214483
0.244206
0.270755
0.293157
0.308605
0.3162
0.316912
0.313043
0.306865
0.30062
0.295757
0.293022
0.292235
0.29277
0.293589
0.294377
0.294204
0.287444
0.278999
0.275515
0.276623
0.280464
0.285157
0.289275
0.28949
0.287213
0.276986
0.266849
0.235737
0.223527
0.134837
0.168992
-0.103079
0.0584992
0.143526
0.162594
0.168986
0.172247
0.174197
0.176784
0.181146
0.186032
0.188046
0.1858
0.181927
0.177182
0.168997
0.156346
0.140738
0.124074
0.108403
0.0953862
0.0865884
0.0827161
0.0847785
0.0932124
0.108041
0.128501
0.153644
0.182505
0.21347
0.243199
0.269907
0.292609
0.308142
0.315788
0.316526
0.312658
0.30647
0.300233
0.295411
0.292765
0.292069
0.292689
0.293396
0.293829
0.292938
0.285727
0.277809
0.274801
0.276145
0.280112
0.284871
0.288975
0.289154
0.286829
0.276511
0.266303
0.235015
0.222769
0.133732
0.167974
-0.0930734
0.0578801
0.14236
0.162147
0.168955
0.172334
0.174238
0.176743
0.181071
0.186074
0.188347
0.186307
0.182435
0.177459
0.168996
0.156167
0.140444
0.123687
0.107924
0.0948092
0.0859284
0.0819707
0.0839578
0.0923394
0.107132
0.12756
0.15266
0.181469
0.212388
0.242146
0.269033
0.292025
0.307659
0.315365
0.316129
0.312261
0.306059
0.299828
0.295051
0.292499
0.291896
0.292596
0.293079
0.293146
0.291396
0.283922
0.276584
0.274048
0.275631
0.27975
0.284572
0.288665
0.288812
0.286441
0.276035
0.26576
0.234303
0.222023
0.132674
0.167005
-0.0836559
0.0574115
0.141189
0.161648
0.168887
0.172411
0.1743
0.17672
0.181016
0.186143
0.188686
0.186863
0.182986
0.177761
0.169
0.155975
0.140121
0.12326
0.107397
0.0941821
0.0852183
0.0811763
0.0830906
0.0914232
0.106184
0.126579
0.151635
0.180385
0.211238
0.241043
0.268132
0.291397
0.307149
0.314926
0.315718
0.311848
0.305632
0.299403
0.294677
0.292223
0.291717
0.292476
0.292628
0.292312
0.289624
0.282066
0.275339
0.273262
0.275089
0.279375
0.284259
0.288342
0.288459
0.286045
0.275555
0.265214
0.233598
0.221283
0.131654
0.166071
-0.0747813
0.057087
0.140025
0.161106
0.16878
0.172472
0.17438
0.176723
0.180986
0.186239
0.189061
0.187464
0.183574
0.178085
0.169014
0.155775
0.139776
0.122799
0.10683
0.093511
0.0844636
0.0803383
0.0821823
0.0904689
0.105199
0.125562
0.15057
0.179255
0.21002
0.239886
0.267201
0.290718
0.306608
0.314466
0.315291
0.31142
0.305188
0.29896
0.294291
0.291939
0.291534
0.292309
0.292057
0.291297
0.28769
0.280189
0.274086
0.272439
0.27453
0.278985
0.28393
0.288005
0.288093
0.285637
0.275066
0.264661
0.232894
0.220543
0.130666
0.165163
-0.0664093
0.0568996
0.138877
0.160528
0.168636
0.172515
0.174469
0.17676
0.18098
0.186362
0.189468
0.188104
0.184193
0.178429
0.169035
0.15557
0.139411
0.122309
0.106228
0.0928018
0.083671
0.0794638
0.0812405
0.0894837
0.104185
0.124515
0.149474
0.178087
0.208747
0.238677
0.266243
0.289992
0.306037
0.313988
0.314849
0.310978
0.30473
0.2985
0.293896
0.291647
0.291347
0.292062
0.29139
0.290075
0.285654
0.278312
0.27283
0.27158
0.273961
0.27858
0.283585
0.287652
0.287712
0.285215
0.274566
0.264098
0.232187
0.2198
0.129705
0.164274
-0.0585025
0.0568425
0.137752
0.159923
0.168457
0.172538
0.174559
0.176829
0.181007
0.186512
0.189902
0.188777
0.184838
0.17879
0.169068
0.155363
0.139034
0.121796
0.105597
0.092061
0.0828471
0.07856
0.0802726
0.088474
0.103146
0.123441
0.148352
0.176889
0.20743
0.237417
0.265257
0.289221
0.305438
0.313491
0.314393
0.310524
0.304261
0.298026
0.293494
0.291351
0.291158
0.291711
0.290647
0.288639
0.283567
0.276454
0.271557
0.270705
0.273384
0.278162
0.283225
0.287283
0.287316
0.284778
0.274052
0.263522
0.231477
0.219052
0.128766
0.163398
-0.0510274
0.0569081
0.136657
0.159296
0.168246
0.17254
0.174649
0.176921
0.181073
0.186691
0.190359
0.189478
0.185504
0.179166
0.169109
0.155157
0.138646
0.121264
0.104941
0.0912953
0.082
0.0776356
0.0792875
0.0874477
0.102089
0.122348
0.147212
0.175669
0.206089
0.236116
0.264246
0.288414
0.304815
0.31298
0.313926
0.31006
0.303785
0.297541
0.293088
0.291053
0.290958
0.291242
0.289833
0.28701
0.281464
0.274623
0.270254
0.269832
0.272798
0.27773
0.282849
0.286898
0.286905
0.284325
0.273526
0.262934
0.230761
0.218295
0.127847
0.16253
-0.0439532
0.0570891
0.135596
0.158654
0.168005
0.172522
0.174736
0.177032
0.18118
0.1869
0.190834
0.190201
0.186186
0.179554
0.16916
0.154952
0.138251
0.120717
0.104269
0.090512
0.0811376
0.0766991
0.0782937
0.0864118
0.101019
0.12124
0.146059
0.174434
0.204742
0.234783
0.263209
0.287574
0.304171
0.312458
0.313452
0.309593
0.303308
0.297049
0.292681
0.290757
0.290739
0.290658
0.288938
0.285228
0.279375
0.272802
0.268947
0.268963
0.272205
0.277286
0.282457
0.286496
0.286477
0.283856
0.272985
0.262332
0.230038
0.21753
0.126947
0.161668
-0.037252
0.057378
0.134575
0.158003
0.167738
0.172485
0.174819
0.177162
0.181326
0.187137
0.191321
0.190941
0.18688
0.179952
0.16922
0.15475
0.137851
0.120161
0.103584
0.0897184
0.0802685
0.0757599
0.0773008
0.085375
0.0999439
0.120124
0.144898
0.173192
0.203407
0.233435
0.26215
0.286712
0.303514
0.31193
0.312975
0.309125
0.302834
0.296555
0.292277
0.290467
0.290484
0.289977
0.287935
0.283345
0.277317
0.270974
0.267662
0.2681
0.271607
0.27683
0.28205
0.286079
0.286033
0.28337
0.27243
0.261715
0.229309
0.216756
0.126063
0.160809
-0.0308983
0.0577672
0.133596
0.157347
0.167449
0.172429
0.174897
0.177307
0.181505
0.187404
0.191811
0.191691
0.187583
0.180357
0.169287
0.154553
0.13745
0.119599
0.102893
0.088922
0.0794005
0.0748264
0.0763166
0.084345
0.0988716
0.119008
0.143732
0.171952
0.202093
0.232084
0.26107
0.285833
0.302847
0.3114
0.312501
0.308661
0.302371
0.296066
0.291882
0.290185
0.290176
0.289232
0.286799
0.281415
0.275265
0.269177
0.266406
0.267244
0.271004
0.276362
0.281629
0.285645
0.285573
0.282868
0.27186
0.261085
0.228572
0.215972
0.125195
0.159951
-0.0248684
0.0582497
0.132661
0.156691
0.167141
0.172356
0.17497
0.177466
0.181714
0.1877
0.192309
0.192432
0.188289
0.180767
0.16936
0.154359
0.13705
0.119035
0.102201
0.0881293
0.0785412
0.0739065
0.0753491
0.0833302
0.0978115
0.117898
0.142568
0.170729
0.200803
0.230751
0.259976
0.284947
0.30218
0.310876
0.312034
0.308208
0.301925
0.295589
0.2915
0.289912
0.289798
0.288454
0.285511
0.279478
0.273192
0.267445
0.265177
0.266396
0.270398
0.275885
0.281195
0.285197
0.285098
0.28235
0.271277
0.26044
0.227829
0.215179
0.124342
0.159093
-0.019141
0.0588182
0.131774
0.156039
0.166819
0.172268
0.175037
0.177636
0.181947
0.188027
0.192826
0.193146
0.188994
0.18118
0.16944
0.15417
0.136653
0.118474
0.101515
0.0873466
0.0776969
0.0730069
0.0744047
0.0823371
0.0967703
0.116803
0.141415
0.169537
0.199529
0.229451
0.258875
0.284059
0.301516
0.310361
0.311578
0.307769
0.301502
0.295133
0.291138
0.289648
0.289338
0.287663
0.284082
0.27753
0.271137
0.265784
0.263977
0.265557
0.269788
0.275398
0.280747
0.284734
0.284607
0.281816
0.27068
0.259781
0.22708
0.214377
0.123504
0.158234
-0.013696
0.0594661
0.130934
0.155394
0.166485
0.172165
0.175099
0.177814
0.182203
0.18838
0.193357
0.193836
0.189675
0.181593
0.169523
0.153985
0.136259
0.117919
0.100838
0.0865791
0.0768731
0.0721332
0.0734893
0.0813724
0.0957552
0.115729
0.140289
0.168388
0.198269
0.228196
0.25778
0.28318
0.300864
0.309863
0.311141
0.30735
0.301107
0.294705
0.290801
0.289388
0.288796
0.286863
0.282539
0.275545
0.26914
0.264194
0.262806
0.264728
0.269178
0.274903
0.280288
0.284258
0.284103
0.281268
0.27007
0.259109
0.226325
0.213566
0.122681
0.157374
-0.00851525
0.0601866
0.130143
0.154759
0.166142
0.172051
0.175156
0.177998
0.182477
0.188753
0.193895
0.194521
0.190315
0.181999
0.169609
0.153806
0.135872
0.117372
0.100175
0.0858315
0.0760744
0.0712901
0.0726074
0.0804402
0.0947708
0.114688
0.139206
0.167277
0.197028
0.226991
0.2567
0.282316
0.300231
0.309388
0.310726
0.306957
0.300745
0.294312
0.290496
0.289128
0.288186
0.286048
0.280903
0.273548
0.267212
0.262673
0.261666
0.26391
0.268566
0.2744
0.279817
0.283768
0.283584
0.280704
0.269447
0.258425
0.225565
0.212747
0.121873
0.156511
-0.00358184
0.0609736
0.129402
0.154137
0.165794
0.171927
0.175208
0.178186
0.182763
0.189137
0.194434
0.195197
0.190922
0.182377
0.169696
0.15363
0.135493
0.116837
0.0995286
0.0851075
0.0753049
0.0704818
0.0717635
0.0795456
0.0938249
0.113692
0.138176
0.166186
0.195828
0.225841
0.255649
0.281477
0.299625
0.308942
0.310341
0.306594
0.30042
0.29396
0.290226
0.288856
0.287529
0.285201
0.279173
0.271582
0.265351
0.261217
0.260557
0.263103
0.267955
0.273891
0.279336
0.283267
0.283053
0.280127
0.268813
0.257729
0.224801
0.211921
0.12108
0.155646
0.00111983
0.0618209
0.12871
0.15353
0.165443
0.171794
0.175255
0.178377
0.183057
0.189529
0.194967
0.195858
0.19151
0.182721
0.169773
0.153459
0.135122
0.116316
0.0989028
0.0844108
0.0745684
0.0697116
0.0709612
0.0786938
0.0929258
0.112751
0.137191
0.165106
0.19469
0.224751
0.254637
0.280671
0.299052
0.308531
0.30999
0.306266
0.300133
0.293654
0.289996
0.288566
0.28686
0.284301
0.27737
0.269673
0.263557
0.259822
0.259481
0.262308
0.267345
0.273375
0.278845
0.282754
0.28251
0.279537
0.268168
0.257021
0.224033
0.211087
0.120303
0.154779
0.00560416
0.0627227
0.128068
0.152941
0.165092
0.171656
0.175298
0.178568
0.183356
0.18992
0.195487
0.196497
0.192075
0.183042
0.169828
0.153288
0.134761
0.115811
0.0982996
0.0837444
0.073868
0.0689837
0.0702062
0.077893
0.0920824
0.111862
0.136229
0.164062
0.193623
0.223729
0.253676
0.279909
0.298521
0.308163
0.309681
0.30598
0.299887
0.293398
0.289806
0.288247
0.28621
0.283303
0.275541
0.267825
0.261831
0.258482
0.258438
0.261527
0.266737
0.272855
0.278346
0.28223
0.281955
0.278935
0.267513
0.256303
0.223262
0.210248
0.119543
0.153908
0.00988448
0.0636736
0.127475
0.152371
0.164743
0.171514
0.175337
0.178758
0.183655
0.190306
0.195989
0.197108
0.192615
0.183343
0.169864
0.153111
0.13441
0.115324
0.0977226
0.0831117
0.073208
0.0683028
0.0695038
0.0771485
0.0912907
0.111004
0.135293
0.163076
0.192631
0.22278
0.252773
0.279196
0.298038
0.307844
0.309418
0.305741
0.29968
0.293196
0.289656
0.2879
0.285611
0.282179
0.273734
0.266042
0.260173
0.25719
0.257426
0.260759
0.266133
0.272332
0.277839
0.281697
0.281389
0.278321
0.266848
0.255575
0.22249
0.209404
0.118798
0.153034
0.0139732
0.0646684
0.126931
0.151821
0.164398
0.171369
0.175373
0.178945
0.18395
0.190679
0.196467
0.197685
0.193124
0.183622
0.169884
0.152923
0.134066
0.114861
0.0971746
0.0825167
0.0725926
0.0676732
0.0688564
0.0764559
0.090533
0.110176
0.134409
0.162158
0.191719
0.22191
0.25194
0.278543
0.297612
0.307581
0.30921
0.305555
0.299513
0.29305
0.289543
0.287526
0.285067
0.280932
0.271971
0.264325
0.258581
0.25594
0.256445
0.260006
0.265532
0.271805
0.277326
0.281154
0.280814
0.277697
0.266175
0.254839
0.221716
0.208556
0.11807
0.152158
0.0178816
0.0657022
0.126436
0.151293
0.164058
0.171223
0.175406
0.17913
0.184239
0.191037
0.196914
0.198225
0.193598
0.183877
0.16989
0.152725
0.133723
0.114418
0.0966598
0.0819646
0.0720236
0.0670913
0.0682531
0.075803
0.0898117
0.109397
0.133589
0.161311
0.190886
0.221123
0.251181
0.277957
0.297249
0.307378
0.309061
0.305428
0.299382
0.292962
0.289463
0.287144
0.284569
0.279591
0.270269
0.262677
0.257058
0.25473
0.255496
0.259268
0.264937
0.271276
0.276806
0.280604
0.28023
0.277063
0.265494
0.254095
0.220942
0.207704
0.117359
0.151279
0.0216205
0.0667703
0.125987
0.150788
0.163725
0.171077
0.175436
0.17931
0.184519
0.191373
0.197324
0.19872
0.194033
0.184105
0.169879
0.152517
0.133375
0.11398
0.0961703
0.0814483
0.0714956
0.0665525
0.0676924
0.0751956
0.0891495
0.108682
0.13284
0.160539
0.190137
0.220425
0.250507
0.277446
0.296958
0.307244
0.308978
0.305369
0.299289
0.292932
0.289407
0.286777
0.284089
0.278188
0.268636
0.261096
0.255602
0.25356
0.254577
0.258547
0.264347
0.270747
0.276282
0.280047
0.279638
0.27642
0.264807
0.253344
0.220169
0.20685
0.116665
0.150397
0.0251996
0.0678682
0.125585
0.150307
0.163401
0.170934
0.175466
0.179485
0.184787
0.191685
0.197694
0.199167
0.194427
0.184305
0.169852
0.152301
0.133025
0.113547
0.0956962
0.0809588
0.071004
0.0660587
0.0671836
0.0746468
0.0885508
0.108034
0.132162
0.159844
0.189473
0.219817
0.249921
0.277016
0.296743
0.307183
0.308967
0.305385
0.299234
0.292961
0.28937
0.28646
0.283595
0.27676
0.267079
0.259584
0.254216
0.25243
0.25369
0.257844
0.263765
0.270218
0.275754
0.279484
0.279039
0.275769
0.264114
0.252586
0.219397
0.205993
0.115989
0.149511
0.0286281
0.068992
0.125227
0.149851
0.163086
0.170793
0.175494
0.179655
0.185042
0.191971
0.198019
0.199563
0.194775
0.184473
0.169807
0.152076
0.132673
0.113121
0.0952381
0.080497
0.0705508
0.0656128
0.0667303
0.0741609
0.0880192
0.107456
0.13156
0.15923
0.188896
0.219302
0.249431
0.276676
0.296613
0.307201
0.309034
0.305484
0.299218
0.293048
0.289349
0.286222
0.283056
0.275339
0.265598
0.258141
0.252899
0.251342
0.252835
0.257159
0.263191
0.26969
0.275224
0.278915
0.278433
0.275111
0.263416
0.251824
0.218628
0.205136
0.115332
0.148624
0.0319145
0.0701377
0.124914
0.14942
0.162783
0.170656
0.175523
0.17982
0.185283
0.192227
0.198297
0.199902
0.195077
0.18461
0.169744
0.151843
0.132323
0.112705
0.0948001
0.0800668
0.070139
0.0652172
0.0663342
0.0737397
0.0875555
0.10695
0.131034
0.158697
0.188407
0.218882
0.249039
0.276427
0.296571
0.307302
0.309183
0.305674
0.299249
0.293192
0.289345
0.286085
0.282456
0.273956
0.264196
0.256767
0.251654
0.250298
0.252013
0.256493
0.262625
0.269164
0.274691
0.278342
0.277822
0.274446
0.262713
0.251057
0.217862
0.204278
0.114692
0.147734
0.0350666
0.0713018
0.124643
0.149014
0.162491
0.170524
0.175552
0.179979
0.185508
0.192454
0.198524
0.200182
0.195329
0.184713
0.169662
0.151602
0.131974
0.112301
0.0943846
0.0796708
0.0697713
0.0648747
0.0659977
0.0733856
0.0871631
0.106519
0.130588
0.15825
0.188008
0.21856
0.248749
0.276278
0.296626
0.307492
0.30942
0.305962
0.299336
0.293388
0.289369
0.286053
0.281792
0.272628
0.262869
0.255462
0.250481
0.2493
0.251223
0.255847
0.262071
0.268642
0.274157
0.277766
0.277207
0.273776
0.262007
0.250287
0.2171
0.203421
0.114071
0.146842
0.038092
0.0724808
0.124413
0.148635
0.162213
0.170397
0.175582
0.180134
0.185718
0.192651
0.1987
0.200402
0.19553
0.184783
0.169562
0.151356
0.13163
0.111911
0.0939949
0.0793122
0.0694505
0.0645876
0.0657223
0.0730995
0.086843
0.106164
0.130222
0.157888
0.187698
0.218333
0.248564
0.276231
0.296781
0.307772
0.309748
0.306355
0.299487
0.293636
0.289443
0.286116
0.281081
0.27137
0.26162
0.254228
0.249383
0.248349
0.250467
0.255222
0.261527
0.268123
0.273624
0.277187
0.276588
0.273102
0.261299
0.249514
0.216342
0.202566
0.113469
0.145948
0.0409972
0.0736715
0.124224
0.148282
0.161947
0.170277
0.175613
0.180284
0.185912
0.192818
0.198826
0.200558
0.195678
0.184816
0.169442
0.151103
0.131291
0.111538
0.0936331
0.078993
0.0691786
0.0643579
0.0655104
0.0728838
0.0865982
0.105889
0.129941
0.157616
0.187481
0.218205
0.248486
0.276291
0.297042
0.308149
0.310171
0.306856
0.299719
0.293933
0.289594
0.286247
0.280343
0.270188
0.260445
0.253063
0.248359
0.247449
0.249745
0.25462
0.260995
0.26761
0.273091
0.276607
0.275966
0.272424
0.26059
0.24874
0.215591
0.201713
0.112887
0.145052
0.0437889
0.0748712
0.124073
0.147954
0.161696
0.170164
0.175646
0.18043
0.186092
0.192955
0.198903
0.200651
0.195772
0.184815
0.169305
0.150846
0.13096
0.111184
0.0933025
0.0787163
0.068958
0.0641874
0.0653633
0.0727392
0.0864297
0.105696
0.129745
0.157432
0.187356
0.218172
0.248514
0.276457
0.297412
0.308625
0.310691
0.30747
0.300051
0.294281
0.289856
0.286416
0.279603
0.269088
0.259346
0.251968
0.247408
0.2466
0.249059
0.254041
0.260477
0.267104
0.272561
0.276026
0.275342
0.271744
0.25988
0.247965
0.214846
0.200863
0.112324
0.144155
0.0464728
0.0760769
0.123958
0.147654
0.16146
0.170059
0.175681
0.180572
0.186258
0.193063
0.198932
0.20068
0.19581
0.184778
0.16915
0.150586
0.130638
0.110851
0.093005
0.0784837
0.0687904
0.064078
0.065283
0.0726678
0.0863401
0.105586
0.129636
0.15734
0.187324
0.218237
0.248651
0.276734
0.297895
0.309205
0.311311
0.308194
0.300492
0.294688
0.290255
0.286596
0.278881
0.268069
0.25832
0.250942
0.246528
0.245805
0.248408
0.253486
0.259973
0.266604
0.272033
0.275445
0.274718
0.271061
0.259171
0.247191
0.214109
0.200017
0.11178
0.143257
0.0490545
0.0772862
0.12388
0.147379
0.16124
0.169961
0.175719
0.18071
0.186411
0.193145
0.198917
0.200649
0.195794
0.184706
0.168979
0.150325
0.130329
0.110544
0.0927441
0.0782981
0.0686779
0.0640309
0.0652708
0.0726704
0.0863304
0.10556
0.129615
0.15734
0.187384
0.218395
0.248892
0.277119
0.298493
0.30989
0.312033
0.309026
0.301046
0.295167
0.29081
0.28677
0.278197
0.267134
0.257369
0.249986
0.245715
0.245065
0.247794
0.252955
0.259484
0.266113
0.271509
0.274866
0.274093
0.270378
0.258462
0.246418
0.21338
0.199176
0.111257
0.142358
0.0515392
0.0784968
0.123835
0.147131
0.161035
0.169873
0.17576
0.180846
0.186552
0.1932
0.19886
0.200558
0.195723
0.184598
0.168791
0.150063
0.130034
0.110262
0.0925215
0.0781613
0.0686222
0.064048
0.0653286
0.0727492
0.0864031
0.105623
0.129685
0.157433
0.187538
0.218648
0.249238
0.277613
0.299209
0.310685
0.312861
0.30996
0.301713
0.29574
0.291521
0.286929
0.277563
0.266279
0.256489
0.249098
0.244964
0.244378
0.247218
0.252451
0.259012
0.265631
0.270991
0.274288
0.27347
0.269696
0.257756
0.245647
0.21266
0.19834
0.110754
0.14146
0.0539317
0.0797065
0.123824
0.146908
0.160847
0.169793
0.175804
0.180978
0.186682
0.193233
0.198765
0.200412
0.195599
0.184458
0.16859
0.149804
0.129755
0.110011
0.0923406
0.0780756
0.0686252
0.0641305
0.0654577
0.0729048
0.0865589
0.105773
0.129846
0.157619
0.187784
0.218991
0.249684
0.278214
0.300042
0.311593
0.313799
0.31099
0.302494
0.296438
0.292376
0.287079
0.276989
0.265504
0.255683
0.248279
0.244271
0.243746
0.24668
0.251973
0.258556
0.265159
0.270478
0.273714
0.272848
0.269014
0.257053
0.244879
0.21195
0.197511
0.110272
0.140561
0.0562365
0.0809133
0.123843
0.146711
0.160675
0.169724
0.175853
0.181109
0.186804
0.193245
0.198636
0.200214
0.195424
0.184284
0.168375
0.149549
0.129496
0.109792
0.0922031
0.0780428
0.0686885
0.0642801
0.0656602
0.0731396
0.0868003
0.106014
0.1301
0.1579
0.188123
0.219424
0.250229
0.278919
0.300993
0.312617
0.314853
0.312103
0.303392
0.297294
0.293349
0.287223
0.276479
0.264807
0.254948
0.247529
0.243631
0.243166
0.24618
0.251522
0.258119
0.264699
0.269972
0.273144
0.272229
0.268334
0.256355
0.244115
0.211251
0.196689
0.109811
0.139664
0.0584577
0.0821154
0.123893
0.146539
0.160519
0.169664
0.175905
0.181237
0.186917
0.193239
0.198476
0.199971
0.1952
0.184079
0.168151
0.149302
0.129259
0.109609
0.0921122
0.0780653
0.0688141
0.0644984
0.0659372
0.0734542
0.0871277
0.106346
0.130447
0.158275
0.188553
0.219943
0.250865
0.279723
0.302059
0.313758
0.316029
0.313294
0.304415
0.29834
0.29441
0.287374
0.276038
0.264188
0.254284
0.246849
0.243044
0.24264
0.24572
0.2511
0.257701
0.264251
0.269473
0.272579
0.271614
0.267657
0.25566
0.243356
0.210563
0.195875
0.10937
0.138767
0.0605993
0.0833111
0.12397
0.146392
0.160381
0.169614
0.175961
0.181364
0.187023
0.193218
0.198289
0.199686
0.194931
0.183845
0.167918
0.149063
0.129047
0.109463
0.0920698
0.0781449
0.0690036
0.0647869
0.0662909
0.073851
0.0875436
0.106771
0.130889
0.158744
0.189074
0.220547
0.25159
0.280621
0.303237
0.315022
0.317336
0.314555
0.305577
0.299597
0.295531
0.287539
0.275663
0.263643
0.25369
0.246238
0.24251
0.242165
0.2453
0.250707
0.257303
0.263816
0.268984
0.27202
0.271003
0.266984
0.254972
0.242604
0.209887
0.19507
0.108951
0.137873
0.0626649
0.0844989
0.124075
0.146269
0.16026
0.169575
0.176023
0.181491
0.187123
0.193184
0.198079
0.199365
0.19462
0.183584
0.167679
0.148837
0.128862
0.109357
0.0920788
0.0782838
0.0692589
0.0651472
0.0667226
0.0743307
0.0880484
0.10729
0.131426
0.159307
0.189683
0.221231
0.252395
0.281606
0.304522
0.316407
0.318782
0.315879
0.306898
0.301072
0.296688
0.287729
0.275357
0.263173
0.253168
0.245697
0.242029
0.241742
0.24492
0.250344
0.256927
0.263395
0.268504
0.271467
0.270398
0.266316
0.254291
0.241858
0.209225
0.194275
0.108553
0.13698
0.064658
0.0856775
0.124206
0.14617
0.160156
0.169547
0.17609
0.181617
0.187218
0.19314
0.19785
0.199015
0.194273
0.183298
0.167435
0.148626
0.128708
0.109295
0.0921412
0.0784839
0.0695818
0.0655811
0.0672342
0.0748957
0.0886444
0.107904
0.132059
0.159964
0.190379
0.221992
0.253275
0.282671
0.305907
0.317915
0.320377
0.317272
0.308401
0.302753
0.297859
0.287946
0.275116
0.262775
0.252714
0.245226
0.241603
0.241372
0.244582
0.250011
0.256571
0.262989
0.268034
0.270922
0.269799
0.265654
0.253617
0.24112
0.208576
0.19349
0.108177
0.136091
0.0665817
0.0868455
0.12436
0.146095
0.160069
0.16953
0.176162
0.181743
0.187309
0.193088
0.197607
0.198639
0.193894
0.182991
0.167192
0.148433
0.128587
0.109279
0.0922599
0.0787473
0.0699741
0.0660903
0.0678273
0.0755468
0.0893318
0.108613
0.132788
0.160714
0.191161
0.222827
0.254222
0.283807
0.307381
0.319544
0.322126
0.318742
0.310106
0.304617
0.299032
0.288198
0.27494
0.262449
0.252329
0.244826
0.241233
0.241054
0.244285
0.24971
0.256239
0.2626
0.267576
0.270386
0.269207
0.264998
0.252951
0.24039
0.207941
0.192717
0.107823
0.135206
0.0684391
0.0880018
0.124538
0.146042
0.16
0.169524
0.176239
0.181869
0.187397
0.19303
0.197352
0.198245
0.193489
0.182666
0.166949
0.14826
0.128503
0.109312
0.0924369
0.0790761
0.0704377
0.0666766
0.0685037
0.0762863
0.0901127
0.109419
0.133614
0.161556
0.192027
0.223732
0.255229
0.285003
0.308935
0.321293
0.324033
0.320303
0.312024
0.306626
0.300194
0.288483
0.274827
0.262193
0.252013
0.244498
0.24092
0.240788
0.244031
0.249441
0.255929
0.262226
0.26713
0.269859
0.268623
0.26435
0.252295
0.239671
0.207322
0.191955
0.107491
0.134325
0.0702329
0.0891454
0.124738
0.146012
0.159947
0.16953
0.176323
0.181997
0.187482
0.192969
0.19709
0.197836
0.193064
0.182326
0.16671
0.148111
0.128458
0.109397
0.0926749
0.0794724
0.0709744
0.0673417
0.069265
0.077115
0.0909874
0.110323
0.134535
0.162489
0.192972
0.224702
0.256287
0.286248
0.310553
0.323154
0.326095
0.321976
0.314152
0.30874
0.30134
0.288804
0.274776
0.262005
0.251765
0.244243
0.240668
0.240574
0.243819
0.249204
0.255644
0.261871
0.266697
0.269343
0.268049
0.26371
0.251649
0.238961
0.206718
0.191207
0.107181
0.13345
0.0719658
0.0902754
0.124958
0.146004
0.159912
0.169548
0.176414
0.182126
0.187566
0.192906
0.196824
0.197418
0.192623
0.181975
0.166478
0.147988
0.128456
0.109535
0.092976
0.0799381
0.0715863
0.0680876
0.0701133
0.0780352
0.0919579
0.111324
0.135553
0.163512
0.193996
0.225733
0.257388
0.287531
0.312223
0.325122
0.328308
0.323784
0.316475
0.310913
0.302465
0.289159
0.274783
0.261884
0.251584
0.244061
0.240475
0.240412
0.24365
0.249001
0.255384
0.261534
0.266279
0.268837
0.267484
0.263079
0.251013
0.238264
0.206131
0.190472
0.106894
0.13258
0.0736402
0.0913909
0.125198
0.146017
0.159894
0.169577
0.176511
0.182257
0.18765
0.192843
0.196558
0.196995
0.192172
0.181617
0.166254
0.147893
0.128498
0.109731
0.0933428
0.0804754
0.0722751
0.0689161
0.07105
0.0790478
0.0930242
0.112422
0.136666
0.164622
0.195093
0.226819
0.258523
0.288839
0.313923
0.327182
0.330657
0.32574
0.318962
0.313106
0.303567
0.289548
0.274848
0.261831
0.251471
0.243952
0.240346
0.240303
0.243525
0.248831
0.255149
0.261216
0.265875
0.268344
0.26693
0.262459
0.25039
0.237578
0.205562
0.189752
0.10663
0.131717
0.0752583
0.0924913
0.125456
0.146051
0.159893
0.169619
0.176614
0.182391
0.187733
0.19278
0.196293
0.196571
0.191717
0.181256
0.166042
0.147829
0.128587
0.109986
0.0937772
0.0810861
0.0730427
0.0698289
0.072077
0.0801548
0.094188
0.11362
0.137874
0.165818
0.196263
0.227956
0.259685
0.290159
0.315637
0.329322
0.333124
0.327854
0.321572
0.315281
0.304642
0.289968
0.274969
0.261841
0.251423
0.243914
0.240279
0.240247
0.243442
0.248695
0.254941
0.260918
0.265486
0.267864
0.266388
0.26185
0.24978
0.236906
0.20501
0.189048
0.106388
0.130862
0.0768224
0.0935759
0.125731
0.146106
0.159908
0.169672
0.176725
0.182528
0.187818
0.19272
0.196034
0.19615
0.191261
0.180897
0.165844
0.147797
0.128726
0.110302
0.0942813
0.0817722
0.0738908
0.0708276
0.0731957
0.0813571
0.0954494
0.114914
0.139175
0.167097
0.197499
0.229139
0.260864
0.291476
0.317343
0.33152
0.335682
0.330129
0.32426
0.317407
0.305692
0.29042
0.275146
0.261916
0.251442
0.243946
0.240277
0.240243
0.243404
0.248594
0.254759
0.26064
0.265114
0.267397
0.265858
0.261253
0.249183
0.236248
0.204478
0.18836
0.106169
0.130016
0.0783345
0.0946441
0.126022
0.146179
0.15994
0.169737
0.176844
0.182668
0.187904
0.192663
0.195781
0.195737
0.19081
0.180542
0.165661
0.1478
0.128915
0.110681
0.0948571
0.0825353
0.074821
0.0719142
0.0744079
0.0826564
0.0968095
0.116307
0.140568
0.168457
0.198799
0.230363
0.262054
0.292779
0.319021
0.333757
0.338307
0.332554
0.326978
0.31946
0.306716
0.290899
0.275375
0.262054
0.251525
0.244046
0.240338
0.240293
0.243409
0.248528
0.254605
0.260384
0.264759
0.266945
0.265341
0.260669
0.2486
0.235605
0.203964
0.187689
0.105973
0.129179
0.0797963
0.0956954
0.126329
0.146272
0.159989
0.169815
0.17697
0.182812
0.187993
0.192611
0.195537
0.195334
0.190367
0.180196
0.165497
0.147837
0.129156
0.111125
0.0955058
0.083377
0.0758348
0.0730898
0.0757146
0.0840533
0.0982683
0.117796
0.142051
0.169895
0.200157
0.231622
0.263245
0.294053
0.320647
0.336003
0.34096
0.335101
0.32968
0.321422
0.307714
0.291406
0.275658
0.262253
0.251674
0.244211
0.240464
0.240395
0.243459
0.248498