/*--------------------------------*- C++ -*----------------------------------*\
| =========                 |                                                 |
| \\      /  F ield         | OpenFOAM: The Open Source CFD Toolbox           |
|  \\    /   O peration     | Version:  2.4.0                                 |
|   \\  /    A nd           | Web:      www.OpenFOAM.org                      |
|    \\/     M anipulation  |                                                 |
\*---------------------------------------------------------------------------*/
FoamFile
{
    version     2.0;
    format      ascii;
    class       surfaceScalarField;
    location    "6.65";
    object      phi;
}
// * * * * * * * * * * * * * * * * * * * * * * * * * * * * * * * * * * * * * //

dimensions      [0 3 -1 0 0 0 0];

internalField   nonuniform List<scalar> 
11840
(
7.85114e-07
9.21489e-06
-2.03259e-08
8.0544e-07
-4.8073e-08
2.7747e-08
-7.30507e-08
2.49777e-08
-8.37762e-08
1.07255e-08
-8.51753e-08
1.39914e-09
-8.91342e-08
3.95885e-09
-8.86442e-08
-4.89937e-10
-9.10416e-08
2.39736e-09
-9.16051e-08
5.63528e-10
-9.43862e-08
2.78104e-09
-9.70056e-08
2.61947e-09
-1.01565e-07
4.55975e-09
-1.06965e-07
5.39988e-09
-1.14201e-07
7.23579e-09
-1.22778e-07
8.57673e-09
-1.33143e-07
1.03651e-08
-1.45079e-07
1.19364e-08
-1.58762e-07
1.3683e-08
-1.74067e-07
1.53043e-08
-1.90993e-07
1.69265e-08
-2.09374e-07
1.83806e-08
-2.29039e-07
1.96649e-08
-2.49691e-07
2.0652e-08
-2.7098e-07
2.1289e-08
-2.92471e-07
2.14909e-08
-3.13666e-07
2.11956e-08
-3.33977e-07
2.03105e-08
-3.52727e-07
1.87507e-08
-3.69164e-07
1.64362e-08
-3.82471e-07
1.33077e-08
-3.91792e-07
9.32042e-09
-3.96247e-07
4.45528e-09
-3.94996e-07
-1.25116e-09
-3.87168e-07
-7.82743e-09
-3.72024e-07
-1.51444e-08
-3.48931e-07
-2.30929e-08
-3.17323e-07
-3.16078e-08
-2.76916e-07
-4.0407e-08
-2.27395e-07
-4.95212e-08
-1.69077e-07
-5.83183e-08
-1.02199e-07
-6.6878e-08
-2.87041e-08
-7.34948e-08
4.76977e-08
-7.64018e-08
1.21659e-07
-7.39608e-08
1.96058e-07
-7.43993e-08
2.6761e-07
-7.1552e-08
3.40933e-07
-7.33228e-08
4.07047e-07
-6.61147e-08
4.77728e-07
-7.06811e-08
5.32477e-07
-5.47481e-08
6.01004e-07
-6.85278e-08
6.36129e-07
-3.51251e-08
7.08912e-07
-7.2783e-08
7.11921e-07
-3.00876e-09
8.06425e-07
-9.45035e-08
7.58027e-07
4.8398e-08
9.14022e-07
-1.55995e-07
7.90031e-07
1.23991e-07
-4.06202e-07
1.91811e-06
1.72968e-05
1.02191e-07
2.62136e-06
-7.43295e-08
2.04268e-07
-1.77884e-07
1.28532e-07
-2.09731e-07
4.25722e-08
-2.27254e-07
1.89229e-08
-2.37712e-07
1.44167e-08
-2.42592e-07
4.39009e-09
-2.48822e-07
8.62698e-09
-2.53472e-07
5.2138e-09
-2.61013e-07
1.03219e-08
-2.6978e-07
1.13866e-08
-2.82334e-07
1.71132e-08
-2.97924e-07
2.09906e-08
-3.17796e-07
2.71075e-08
-3.41577e-07
3.23573e-08
-3.69798e-07
3.85859e-08
-4.0224e-07
4.43784e-08
-4.39034e-07
5.04773e-08
-4.79931e-07
5.62012e-08
-5.24727e-07
6.17226e-08
-5.72939e-07
6.65932e-08
-6.23968e-07
7.06933e-08
-6.76953e-07
7.36368e-08
-7.3087e-07
7.52067e-08
-7.84516e-07
7.5137e-08
-8.36529e-07
7.32087e-08
-8.85348e-07
6.9129e-08
-9.29223e-07
6.26258e-08
-9.66245e-07
5.34578e-08
-9.94391e-07
4.1454e-08
-1.01157e-06
2.64984e-08
-1.01567e-06
8.55535e-09
-1.00461e-06
-1.23122e-08
-9.76501e-07
-3.5934e-08
-9.29539e-07
-6.21069e-08
-8.62235e-07
-9.03974e-08
-7.73317e-07
-1.20525e-07
-6.62002e-07
-1.51722e-07
-5.2772e-07
-1.83803e-07
-3.70986e-07
-2.15052e-07
-1.93148e-07
-2.44716e-07
1.06185e-09
-2.67705e-07
1.97788e-07
-2.73128e-07
3.88956e-07
-2.65129e-07
5.78894e-07
-2.64337e-07
7.63569e-07
-2.56227e-07
9.46812e-07
-2.56566e-07
1.11805e-06
-2.37354e-07
1.28863e-06
-2.41258e-07
1.43576e-06
-2.01875e-07
1.59043e-06
-2.23199e-07
1.70146e-06
-1.46155e-07
1.84538e-06
-2.16702e-07
1.90597e-06
-6.36005e-08
2.05968e-06
-2.48217e-07
2.05256e-06
5.55171e-08
2.27241e-06
-3.75843e-07
2.18522e-06
2.11178e-07
-1.06213e-06
2.91717e-06
2.43796e-05
3.96479e-07
5.14205e-06
-4.05244e-08
6.41271e-07
-2.39359e-07
3.27367e-07
-3.0247e-07
1.05683e-07
-3.44196e-07
6.06494e-08
-3.64208e-07
3.44285e-08
-3.78179e-07
1.83614e-08
-3.89507e-07
1.99546e-08
-3.99972e-07
1.56784e-08
-4.12741e-07
2.30916e-08
-4.28239e-07
2.68844e-08
-4.48638e-07
3.75122e-08
-4.7417e-07
4.65224e-08
-5.05926e-07
5.8864e-08
-5.43923e-07
7.03538e-08
-5.88574e-07
8.32368e-08
-6.39739e-07
9.55436e-08
-6.97387e-07
1.08125e-07
-7.61136e-07
1.19951e-07
-8.30495e-07
1.31081e-07
-9.04629e-07
1.40726e-07
-9.82446e-07
1.4851e-07
-1.0625e-06
1.53692e-07
-1.14308e-06
1.55785e-07
-1.22222e-06
1.54274e-07
-1.29771e-06
1.48706e-07
-1.3671e-06
1.38517e-07
-1.42766e-06
1.23188e-07
-1.47649e-06
1.02281e-07
-1.51054e-06
7.55115e-08
-1.52676e-06
4.2712e-08
-1.52208e-06
3.87858e-09
-1.4936e-06
-4.07887e-08
-1.43871e-06
-9.08243e-08
-1.35506e-06
-1.45759e-07
-1.24077e-06
-2.04684e-07
-1.09445e-06
-2.6685e-07
-9.15414e-07
-3.30759e-07
-7.03716e-07
-3.955e-07
-4.61002e-07
-4.57767e-07
-1.91164e-07
-5.14555e-07
9.69456e-08
-5.55814e-07
3.87758e-07
-5.6394e-07
6.74361e-07
-5.51732e-07
9.60608e-07
-5.50584e-07
1.24223e-06
-5.37846e-07
1.51928e-06
-5.33616e-07
1.78306e-06
-5.01135e-07
2.03889e-06
-4.97093e-07
2.27003e-06
-4.33012e-07
2.49625e-06
-4.49421e-07
2.68112e-06
-3.31021e-07
2.87843e-06
-4.14017e-07
3.00478e-06
-1.8995e-07
3.19002e-06
-4.33454e-07
3.24937e-06
-3.83687e-09
3.48083e-06
-6.07295e-07
3.48929e-06
2.02709e-07
-1.80411e-06
3.8089e-06
3.05707e-05
8.13228e-07
8.13772e-06
5.24566e-08
1.40204e-06
-2.53297e-07
6.3312e-07
-3.61937e-07
2.14322e-07
-4.3379e-07
1.32503e-07
-4.68334e-07
6.89722e-08
-4.94084e-07
4.41115e-08
-5.12697e-07
3.85681e-08
-5.30186e-07
3.31676e-08
-5.49071e-07
4.19759e-08
-5.71594e-07
4.94077e-08
-5.99823e-07
6.57411e-08
-6.34826e-07
8.15258e-08
-6.77659e-07
1.01696e-07
-7.28634e-07
1.21329e-07
-7.88069e-07
1.42672e-07
-8.55827e-07
1.63302e-07
-9.3168e-07
1.83978e-07
-1.01504e-06
2.03314e-07
-1.10508e-06
2.21118e-07
-1.20054e-06
2.36187e-07
-1.2998e-06
2.47772e-07
-1.40081e-06
2.54696e-07
-1.50115e-06
2.56129e-07
-1.59814e-06
2.51261e-07
-1.6888e-06
2.39365e-07
-1.76986e-06
2.19581e-07
-1.83781e-06
1.91132e-07
-1.88894e-06
1.53414e-07
-1.9195e-06
1.06077e-07
-1.92578e-06
4.89884e-08
-1.90419e-06
-1.77156e-08
-1.85146e-06
-9.35187e-08
-1.76476e-06
-1.77525e-07
-1.64175e-06
-2.68766e-07
-1.48078e-06
-3.65648e-07
-1.28098e-06
-4.66659e-07
-1.04248e-06
-5.6926e-07
-7.66678e-07
-6.71297e-07
-4.56989e-07
-7.67456e-07
-1.19861e-07
-8.51682e-07
2.34033e-07
-9.09708e-07
5.92645e-07
-9.22551e-07
9.53411e-07
-9.12498e-07
1.31715e-06
-9.14324e-07
1.67886e-06
-8.99555e-07
2.03496e-06
-8.89721e-07
2.37785e-06
-8.44023e-07
2.70752e-06
-8.2676e-07
3.01168e-06
-7.37169e-07
3.30114e-06
-7.38888e-07
3.55028e-06
-5.80157e-07
3.79623e-06
-6.59969e-07
3.97849e-06
-3.7221e-07
4.19495e-06
-6.49912e-07
4.30719e-06
-1.16083e-07
4.55323e-06
-8.53328e-07
4.63834e-06
1.176e-07
-2.57485e-06
4.61531e-06
3.59554e-05
1.32417e-06
1.14289e-05
2.12469e-07
2.51374e-06
-2.18514e-07
1.0641e-06
-3.86933e-07
3.82742e-07
-4.95207e-07
2.40776e-07
-5.49371e-07
1.23136e-07
-5.8976e-07
8.45009e-08
-6.17889e-07
6.66971e-08
-6.43677e-07
5.89552e-08
-6.69548e-07
6.78465e-08
-6.99377e-07
7.92373e-08
-7.35349e-07
1.01713e-07
-7.79262e-07
1.25439e-07
-8.32215e-07
1.54649e-07
-8.94743e-07
1.83858e-07
-9.67065e-07
2.14994e-07
-1.04897e-06
2.45208e-07
-1.13999e-06
2.75001e-07
-1.23927e-06
3.02588e-07
-1.34556e-06
3.27406e-07
-1.45714e-06
3.47771e-07
-1.57184e-06
3.62469e-07
-1.68697e-06
3.69832e-07
-1.79949e-06
3.68649e-07
-1.90604e-06
3.57813e-07
-2.00301e-06
3.36334e-07
-2.08652e-06
3.03085e-07
-2.15248e-06
2.57095e-07
-2.19675e-06
1.97684e-07
-2.21524e-06
1.24562e-07
-2.20401e-06
3.7767e-08
-2.1595e-06
-6.22344e-08
-2.07857e-06
-1.7444e-07
-1.95873e-06
-2.97371e-07
-1.79813e-06
-4.29366e-07
-1.5958e-06
-5.67978e-07
-1.35172e-06
-7.10736e-07
-1.06705e-06
-8.53928e-07
-7.44425e-07
-9.93926e-07
-3.88441e-07
-1.12344e-06
-6.71256e-09
-1.23341e-06
3.90636e-07
-1.30706e-06
7.96774e-07
-1.32869e-06
1.2121e-06
-1.32783e-06
1.63425e-06
-1.33647e-06
2.05788e-06
-1.32318e-06
2.47682e-06
-1.30866e-06
2.88439e-06
-1.25159e-06
3.27604e-06
-1.2184e-06
3.64303e-06
-1.10416e-06
3.98814e-06
-1.084e-06
4.29457e-06
-8.86585e-07
4.58516e-06
-9.50553e-07
4.81745e-06
-6.04499e-07
5.06442e-06
-8.96882e-07
5.22105e-06
-2.72715e-07
5.48315e-06
-1.11543e-06
5.62762e-06
-2.68722e-08
-3.33388e-06
5.34677e-06
4.06086e-05
1.90187e-06
1.48738e-05
4.47671e-07
3.96794e-06
-1.33859e-07
1.64563e-06
-3.76292e-07
6.25174e-07
-5.27614e-07
3.92099e-07
-6.06626e-07
2.02148e-07
-6.64706e-07
1.4258e-07
-7.0464e-07
1.06631e-07
-7.40071e-07
9.43869e-08
-7.73798e-07
1.01574e-07
-8.11204e-07
1.16643e-07
-8.54765e-07
1.45274e-07
-9.06934e-07
1.77608e-07
-9.68907e-07
2.16622e-07
-1.04138e-06
2.56326e-07
-1.12444e-06
2.98059e-07
-1.21775e-06
3.38519e-07
-1.32055e-06
3.77799e-07
-1.43162e-06
4.13663e-07
-1.5493e-06
4.45081e-07
-1.67136e-06
4.69834e-07
-1.79509e-06
4.86192e-07
-1.91724e-06
4.91985e-07
-2.03423e-06
4.85639e-07
-2.14221e-06
4.65799e-07
-2.23716e-06
4.31283e-07
-2.31488e-06
3.80797e-07
-2.37108e-06
3.13295e-07
-2.40156e-06
2.28163e-07
-2.40232e-06
1.25325e-07
-2.36969e-06
5.14028e-09
-2.30048e-06
-1.31444e-07
-2.19206e-06
-2.82863e-07
-2.04244e-06
-4.46987e-07
-1.85042e-06
-6.21386e-07
-1.61567e-06
-8.02735e-07
-1.33882e-06
-9.87583e-07
-1.02166e-06
-1.17108e-06
-6.67438e-07
-1.34815e-06
-2.81122e-07
-1.50976e-06
1.29667e-07
-1.6442e-06
5.56357e-07
-1.73375e-06
9.95989e-07
-1.76832e-06
1.45001e-06
-1.78185e-06
1.9137e-06
-1.80016e-06
2.38175e-06
-1.79123e-06
2.84663e-06
-1.77355e-06
3.30272e-06
-1.70768e-06
3.74237e-06
-1.65806e-06
4.15996e-06
-1.52175e-06
4.55147e-06
-1.47551e-06
4.90788e-06
-1.243e-06
5.23848e-06
-1.28115e-06
5.51743e-06
-8.83452e-07
5.79355e-06
-1.17299e-06
5.99183e-06
-4.71003e-07
6.26935e-06
-1.39295e-06
6.46239e-06
-2.19913e-07
-4.05346e-06
6.00882e-06
4.45998e-05
2.52342e-06
1.83592e-05
7.56439e-07
5.73491e-06
-2.56006e-09
2.40463e-06
-3.28833e-07
9.51448e-07
-5.30099e-07
5.93365e-07
-6.39365e-07
3.11414e-07
-7.18392e-07
2.21608e-07
-7.72505e-07
1.60745e-07
-8.19013e-07
1.40895e-07
-8.6148e-07
1.4404e-07
-9.06728e-07
1.61891e-07
-9.5767e-07
1.96215e-07
-1.01735e-06
2.37293e-07
-1.08711e-06
2.86381e-07
-1.16774e-06
3.3695e-07
-1.25919e-06
3.89512e-07
-1.36093e-06
4.40254e-07
-1.47186e-06
4.88732e-07
-1.59041e-06
5.32215e-07
-1.71447e-06
5.69139e-07
-1.84137e-06
5.96737e-07
-1.96794e-06
6.1276e-07
-2.09054e-06
6.14583e-07
-2.20524e-06
6.0034e-07
-2.30797e-06
5.68531e-07
-2.39458e-06
5.17896e-07
-2.46088e-06
4.47098e-07
-2.50273e-06
3.55145e-07
-2.51618e-06
2.41611e-07
-2.49759e-06
1.06736e-07
-2.44376e-06
-4.86976e-08
-2.35194e-06
-2.2326e-07
-2.21997e-06
-4.14838e-07
-2.0463e-06
-6.20653e-07
-1.83016e-06
-8.37523e-07
-1.5716e-06
-1.0613e-06
-1.2716e-06
-1.28758e-06
-9.32182e-07
-1.5105e-06
-5.56769e-07
-1.72356e-06
-1.50274e-07
-1.91625e-06
2.802e-07
-2.07467e-06
7.27671e-07
-2.18122e-06
1.19134e-06
-2.23199e-06
1.67247e-06
-2.26298e-06
2.16485e-06
-2.29254e-06
2.66326e-06
-2.28965e-06
3.15963e-06
-2.26992e-06
3.64925e-06
-2.1973e-06
4.12283e-06
-2.13164e-06
4.5773e-06
-1.97622e-06
5.00384e-06
-1.90206e-06
5.4001e-06
-1.63926e-06
5.76363e-06
-1.64468e-06
6.08416e-06
-1.20398e-06
6.38615e-06
-1.47498e-06
6.62533e-06
-7.10182e-07
6.91572e-06
-1.68334e-06
7.1522e-06
-4.5639e-07
-4.71558e-06
6.60528e-06
4.79945e-05
3.16982e-06
2.17946e-05
1.13513e-06
7.7696e-06
1.93147e-07
3.34662e-06
-2.43291e-07
1.38789e-06
-5.0163e-07
8.51704e-07
-6.46764e-07
4.56548e-07
-7.50219e-07
3.25062e-07
-8.21e-07
2.31526e-07
-8.80123e-07
2.00017e-07
-9.32247e-07
1.96165e-07
-9.85619e-07
2.15263e-07
-1.04369e-06
2.54289e-07
-1.11009e-06
3.03691e-07
-1.1863e-06
3.62594e-07
-1.27319e-06
4.23837e-07
-1.37057e-06
4.86892e-07
-1.47768e-06
5.47364e-07
-1.59312e-06
6.04176e-07
-1.71498e-06
6.54075e-07
-1.84079e-06
6.94944e-07
-1.96755e-06
7.23496e-07
-2.0918e-06
7.37014e-07
-2.20972e-06
7.32502e-07
-2.31729e-06
7.07906e-07
-2.41045e-06
6.61693e-07
-2.48518e-06
5.92627e-07
-2.53751e-06
4.99428e-07
-2.5636e-06
3.81237e-07
-2.55987e-06
2.37879e-07
-2.52308e-06
6.99462e-08
-2.45042e-06
-1.21359e-07
-2.3395e-06
-3.34176e-07
-2.18845e-06
-5.65885e-07
-1.99603e-06
-8.1308e-07
-1.76168e-06
-1.07187e-06
-1.48566e-06
-1.33732e-06
-1.16907e-06
-1.60417e-06
-8.14012e-07
-1.86556e-06
-4.23885e-07
-2.11369e-06
-3.37302e-09
-2.33676e-06
4.41064e-07
-2.51911e-06
9.03819e-07
-2.64397e-06
1.38497e-06
-2.71314e-06
1.88503e-06
-2.76303e-06
2.39694e-06
-2.80445e-06
2.91556e-06
-2.80827e-06
3.43265e-06
-2.78701e-06
3.94416e-06
-2.7088e-06
4.44007e-06
-2.62754e-06
4.91916e-06
-2.45531e-06
5.36968e-06
-2.35259e-06
5.79446e-06
-2.06403e-06
6.18215e-06
-2.03237e-06
6.53595e-06
-1.55779e-06
6.85827e-06
-1.79731e-06
7.135e-06
-9.86904e-07
7.4341e-06
-1.98245e-06
7.71041e-06
-7.32703e-07
-5.30989e-06
7.13974e-06
5.08548e-05
3.82524e-06
2.51091e-05
1.57696e-06
1.00179e-05
4.38049e-07
4.48553e-06
-1.17745e-07
1.94368e-06
-4.41021e-07
1.17498e-06
-6.27894e-07
6.43421e-07
-7.59483e-07
4.56651e-07
-8.49568e-07
3.21612e-07
-9.22971e-07
2.7342e-07
-9.85734e-07
2.58929e-07
-1.04755e-06
2.77079e-07
-1.11251e-06
3.19246e-07
-1.1848e-06
3.75983e-07
-1.26611e-06
4.43905e-07
-1.35737e-06
5.151e-07
-1.45829e-06
5.87806e-07
-1.56791e-06
6.56982e-07
-1.68458e-06
7.20854e-07
-1.80616e-06
7.75651e-07
-1.92993e-06
8.18717e-07
-2.05274e-06
8.46307e-07
-2.17104e-06
8.55309e-07
-2.28099e-06
8.42449e-07
-2.37865e-06
8.05574e-07
-2.46016e-06
7.43201e-07
-2.52172e-06
6.54187e-07
-2.55965e-06
5.37355e-07
-2.57043e-06
3.92016e-07
-2.5508e-06
2.18254e-07
-2.49786e-06
1.70073e-08
-2.40907e-06
-2.10154e-07
-2.28225e-06
-4.6099e-07
-2.11575e-06
-7.32391e-07
-1.90848e-06
-1.02035e-06
-1.66004e-06
-1.3203e-06
-1.37077e-06
-1.6266e-06
-1.04184e-06
-1.9331e-06
-6.75328e-07
-2.23207e-06
-2.74561e-07
-2.51446e-06
1.56038e-07
-2.76736e-06
6.10745e-07
-2.97382e-06
1.08495e-06
-3.11817e-06
1.57884e-06
-3.20704e-06
2.09199e-06
-3.27618e-06
2.61695e-06
-3.32941e-06
3.14864e-06
-3.33997e-06
3.67883e-06
-3.3172e-06
4.20389e-06
-3.23387e-06
4.71357e-06
-3.13722e-06
5.20788e-06
-2.94962e-06
5.67345e-06
-2.81815e-06
6.11673e-06
-2.50731e-06
6.5203e-06
-2.43594e-06
6.89789e-06
-1.93538e-06
7.23411e-06
-2.13353e-06
7.54159e-06
-1.29438e-06
7.84446e-06
-2.28532e-06
8.15518e-06
-1.04342e-06
-5.8327e-06
7.616e-06
5.32388e-05
4.47652e-06
2.82486e-05
2.07312e-06
1.24213e-05
7.3775e-07
5.8209e-06
4.98958e-08
2.63153e-06
-3.46948e-07
1.57182e-06
-5.81703e-07
8.78176e-07
-7.45359e-07
6.20307e-07
-8.57563e-07
4.33815e-07
-9.47065e-07
3.62922e-07
-1.02155e-06
3.33411e-07
-1.09221e-06
3.47741e-07
-1.16385e-06
3.90887e-07
-1.24128e-06
4.5341e-07
-1.32642e-06
5.29049e-07
-1.42033e-06
6.09013e-07
-1.52266e-06
6.90131e-07
-1.63235e-06
7.66672e-07
-1.74761e-06
8.36114e-07
-1.86615e-06
8.94193e-07
-1.98518e-06
9.3775e-07
-2.10152e-06
9.62646e-07
-2.21165e-06
9.65441e-07
-2.31187e-06
9.42661e-07
-2.3984e-06
8.92111e-07
-2.46761e-06
8.12407e-07
-2.51595e-06
7.02526e-07
-2.54001e-06
5.61414e-07
-2.53654e-06
3.8855e-07
-2.50256e-06
1.84274e-07
-2.43539e-06
-5.01616e-08
-2.33267e-06
-3.12877e-07
-2.19238e-06
-6.01275e-07
-2.01301e-06
-9.11762e-07
-1.7936e-06
-1.23976e-06
-1.53384e-06
-1.58006e-06
-1.23412e-06
-1.92632e-06
-8.95631e-07
-2.27159e-06
-5.20429e-07
-2.60727e-06
-1.11727e-07
-2.92316e-06
3.26336e-07
-3.20542e-06
7.88674e-07
-3.43616e-06
1.27143e-06
-3.60093e-06
1.77449e-06
-3.7101e-06
2.29644e-06
-3.79812e-06
2.82975e-06
-3.86272e-06
3.36941e-06
-3.87962e-06
3.90728e-06
-3.85507e-06
4.44001e-06
-3.7666e-06
4.95738e-06
-3.65459e-06
5.46016e-06
-3.4524e-06
5.93414e-06
-3.29214e-06
6.3882e-06
-2.96137e-06
6.80099e-06
-2.84872e-06
7.19388e-06
-2.32828e-06
7.53817e-06
-2.47782e-06
7.8682e-06
-1.62441e-06
8.17037e-06
-2.58749e-06
8.50779e-06
-1.38085e-06
-6.28588e-06
8.03814e-06
5.52006e-05
5.11293e-06
3.11738e-05
2.61351e-06
1.49207e-05
1.09183e-06
7.34258e-06
2.60938e-07
3.46242e-06
-2.17973e-07
2.05073e-06
-5.07021e-07
1.16722e-06
-7.06894e-07
8.2018e-07
-8.44236e-07
5.71158e-07
-9.51839e-07
4.70524e-07
-1.03926e-06
4.20834e-07
-1.1193e-06
4.27782e-07
-1.19756e-06
4.69139e-07
-1.27951e-06
5.35366e-07
-1.36743e-06
6.16966e-07
-1.46257e-06
7.0415e-07
-1.5646e-06
7.92166e-07
-1.67249e-06
8.74557e-07
-1.78439e-06
9.48012e-07
-1.898e-06
1.0078e-06
-2.01054e-06
1.0503e-06
-2.11891e-06
1.07102e-06
-2.21972e-06
1.06624e-06
-2.30941e-06
1.03235e-06
-2.38444e-06
9.67143e-07
-2.44138e-06
8.69346e-07
-2.47692e-06
7.38069e-07
-2.48788e-06
5.72377e-07
-2.47125e-06
3.71915e-07
-2.42423e-06
1.37259e-07
-2.34434e-06
-1.30059e-07
-2.22932e-06
-4.27893e-07
-2.0773e-06
-7.53292e-07
-1.88689e-06
-1.10218e-06
-1.65721e-06
-1.46944e-06
-1.38802e-06
-1.84924e-06
-1.07976e-06
-2.23459e-06
-7.33634e-07
-2.61772e-06
-3.51659e-07
-2.98925e-06
6.30676e-08
-3.33789e-06
5.06686e-07
-3.64904e-06
9.74664e-07
-3.90413e-06
1.46368e-06
-4.08995e-06
1.97309e-06
-4.21952e-06
2.5006e-06
-4.32563e-06
3.03876e-06
-4.40088e-06
3.58262e-06
-4.42348e-06
4.12424e-06
-4.39669e-06
4.6604e-06
-4.30276e-06
5.18108e-06
-4.17527e-06
5.68748e-06
-3.9588e-06
6.16509e-06
-3.76974e-06
6.62429e-06
-3.42057e-06
7.04128e-06
-3.26571e-06
7.4428e-06
-2.72979e-06
7.79054e-06
-2.82556e-06
8.13546e-06
-1.96933e-06
8.43356e-06
-2.88558e-06
8.78921e-06
-1.7365e-06
-6.67484e-06
8.41039e-06
5.67903e-05
5.72595e-06
3.38583e-05
3.18734e-06
1.74593e-05
1.49833e-06
9.03159e-06
5.18355e-07
4.4424e-06
-5.2723e-08
2.62181e-06
-4.02557e-07
1.51706e-06
-6.42994e-07
1.06062e-06
-8.08733e-07
7.36897e-07
-9.36648e-07
5.98439e-07
-1.03843e-06
5.22613e-07
-1.12857e-06
5.17926e-07
-1.21356e-06
5.54128e-07
-1.29967e-06
6.2148e-07
-1.3896e-06
7.0689e-07
-1.48491e-06
7.99459e-07
-1.58542e-06
8.92678e-07
-1.69018e-06
9.79322e-07
-1.79742e-06
1.05525e-06
-1.90489e-06
1.11528e-06
-2.00991e-06
1.15532e-06
-2.10949e-06
1.1706e-06
-2.20042e-06
1.15716e-06
-2.27932e-06
1.11126e-06
-2.34286e-06
1.03068e-06
-2.38781e-06
9.14295e-07
-2.41107e-06
7.61328e-07
-2.40965e-06
5.70962e-07
-2.38073e-06
3.42996e-07
-2.3217e-06
7.82308e-08
-2.23019e-06
-2.21574e-07
-2.10406e-06
-5.54023e-07
-1.94156e-06
-9.15796e-07
-1.74138e-06
-1.30236e-06
-1.50275e-06
-1.70807e-06
-1.2255e-06
-2.1265e-06
-9.1007e-07
-2.55001e-06
-5.57699e-07
-2.97009e-06
-1.70364e-07
-3.37658e-06
2.48957e-07
-3.75721e-06
6.96665e-07
-4.09675e-06
1.16868e-06
-4.37615e-06
1.66206e-06
-4.58333e-06
2.17554e-06
-4.733e-06
2.70607e-06
-4.85615e-06
3.24637e-06
-4.94118e-06
3.79158e-06
-4.96869e-06
4.33396e-06
-4.93907e-06
4.87042e-06
-4.83922e-06
5.39116e-06
-4.69601e-06
5.89766e-06
-4.4653e-06
6.37537e-06
-4.24745e-06
6.83561e-06
-3.88082e-06
7.25313e-06
-3.68323e-06
7.65826e-06
-3.13493e-06
8.006e-06
-3.1733e-06
8.35952e-06
-2.32286e-06
8.65127e-06
-3.17733e-06
9.01737e-06
-2.1026e-06
-7.00641e-06
8.73702e-06
5.80532e-05
6.3091e-06
3.62862e-05
3.78372e-06
1.99847e-05
1.95374e-06
1.08616e-05
8.23321e-07
5.57281e-06
1.51423e-07
3.29371e-06
-2.66885e-07
1.93537e-06
-5.52416e-07
1.34615e-06
-7.50075e-07
9.34556e-07
-9.0075e-07
7.49114e-07
-1.01853e-06
6.40396e-07
-1.11975e-06
6.19138e-07
-1.21185e-06
6.46234e-07
-1.30204e-06
7.1167e-07
-1.39354e-06
7.98388e-07
-1.48835e-06
8.94271e-07
-1.58654e-06
9.90865e-07
-1.68734e-06
1.08012e-06
-1.78909e-06
1.157e-06
-1.8897e-06
1.21589e-06
-1.98661e-06
1.25222e-06
-2.07699e-06
1.26098e-06
-2.1578e-06
1.23798e-06
-2.22588e-06
1.17934e-06
-2.27807e-06
1.08287e-06
-2.31135e-06
9.4757e-07
-2.32279e-06
7.72767e-07
-2.30958e-06
5.57756e-07
-2.26906e-06
3.02481e-07
-2.19878e-06
7.94724e-09
-2.09646e-06
-3.23893e-07
-1.96008e-06
-6.90402e-07
-1.788e-06
-1.08788e-06
-1.57901e-06
-1.51135e-06
-1.33241e-06
-1.95467e-06
-1.04808e-06
-2.41083e-06
-7.26521e-07
-2.87157e-06
-3.68964e-07
-3.32764e-06
2.26395e-08
-3.76818e-06
4.45432e-07
-4.18e-06
8.9604e-07
-4.54736e-06
1.37076e-06
-4.85087e-06
1.86688e-06
-5.07945e-06
2.38254e-06
-5.24866e-06
2.91404e-06
-5.38765e-06
3.45432e-06
-5.48146e-06
3.99862e-06
-5.51299e-06
4.53945e-06
-5.4799e-06
5.07377e-06
-5.37354e-06
5.5921e-06
-5.21434e-06
6.09604e-06
-4.96924e-06
6.57121e-06
-4.72261e-06
7.02946e-06
-4.33907e-06
7.44475e-06
-4.09852e-06
7.8498e-06
-3.53998e-06
8.19497e-06
-3.51847e-06
8.55224e-06
-2.68012e-06
8.83615e-06
-3.46124e-06
9.20627e-06
-2.47273e-06
-7.28745e-06
9.02227e-06
5.9031e-05
6.85768e-06
3.84508e-05
4.39213e-06
2.24503e-05
2.45302e-06
1.28007e-05
1.17637e-06
6.84946e-06
3.95555e-07
4.07453e-06
-9.8227e-08
2.42915e-06
-4.33744e-07
1.68167e-06
-6.67135e-07
1.16795e-06
-8.43277e-07
9.25255e-07
-9.78991e-07
7.7611e-07
-1.09252e-06
7.32665e-07
-1.19242e-06
7.46134e-07
-1.28691e-06
8.06162e-07
-1.37988e-06
8.91355e-07
-1.47387e-06
9.88265e-07
-1.56929e-06
1.08628e-06
-1.66563e-06
1.17646e-06
-1.76143e-06
1.2528e-06
-1.85477e-06
1.30922e-06
-1.94325e-06
1.3407e-06
-2.02423e-06
1.34197e-06
-2.09486e-06
1.30861e-06
-2.15217e-06
1.23665e-06
-2.1932e-06
1.1239e-06
-2.21509e-06
9.69457e-07
-2.21509e-06
7.72767e-07
-2.19055e-06
5.33218e-07
-2.13896e-06
2.50891e-07
-2.05799e-06
-7.30248e-08
-1.94547e-06
-4.36414e-07
-1.79948e-06
-8.36389e-07
-1.61849e-06
-1.26887e-06
-1.4014e-06
-1.72844e-06
-1.14757e-06
-2.20849e-06
-8.56951e-07
-2.70145e-06
-5.30064e-07
-3.19846e-06
-1.68163e-07
-3.68954e-06
2.2683e-07
-4.16318e-06
6.52174e-07
-4.60534e-06
1.10468e-06
-4.99987e-06
1.58095e-06
-5.32713e-06
2.0784e-06
-5.5769e-06
2.59463e-06
-5.76489e-06
3.1254e-06
-5.91842e-06
3.6639e-06
-6.01996e-06
4.20548e-06
-6.05456e-06
4.74287e-06
-6.01729e-06
5.27312e-06
-5.9038e-06
5.78706e-06
-5.72828e-06
6.28637e-06
-5.46855e-06
6.75693e-06
-5.19317e-06
7.21087e-06
-4.79301e-06
7.62183e-06
-4.50948e-06
8.02403e-06
-3.94218e-06
8.36471e-06
-3.85916e-06
8.72203e-06
-3.03744e-06
8.99714e-06
-3.73635e-06
9.36629e-06
-2.84187e-06
-7.52405e-06
9.27025e-06
5.97607e-05
7.36857e-06
4.03524e-05
5.00269e-06
2.48161e-05
2.98986e-06
1.48135e-05
1.57695e-06
8.26237e-06
6.81488e-07
4.96999e-06
1.05294e-07
3.00534e-06
-2.85397e-07
2.07236e-06
-5.58621e-07
1.44117e-06
-7.63198e-07
1.12983e-06
-9.19065e-07
9.31977e-07
-1.04646e-06
8.6006e-07
-1.15514e-06
8.54813e-07
-1.25447e-06
9.05492e-07
-1.3491e-06
9.85987e-07
-1.44225e-06
1.08141e-06
-1.53473e-06
1.17876e-06
-1.62639e-06
1.26813e-06
-1.71601e-06
1.34242e-06
-1.80187e-06
1.39508e-06
-1.88177e-06
1.42061e-06
-1.95329e-06
1.41348e-06
-2.01375e-06
1.36907e-06
-2.06039e-06
1.28329e-06
-2.09042e-06
1.15393e-06
-2.10117e-06
9.80201e-07
-2.09003e-06
7.61633e-07
-2.05452e-06
4.97704e-07
-1.99226e-06
1.88627e-07
-1.90103e-06
-1.64255e-07
-1.77876e-06
-5.58676e-07
-1.62367e-06
-9.91486e-07
-1.43431e-06
-1.45823e-06
-1.20967e-06
-1.95308e-06
-9.49202e-07
-2.46896e-06
-6.52904e-07
-2.99775e-06
-3.21345e-07
-3.53002e-06
4.42097e-08
-4.0551e-06
4.41864e-07
-4.56083e-06
8.68976e-07
-5.03245e-06
1.32252e-06
-5.45341e-06
1.7993e-06
-5.80392e-06
2.29685e-06
-6.07445e-06
2.81226e-06
-6.2803e-06
3.34088e-06
-6.44703e-06
3.87611e-06
-6.55519e-06
4.41342e-06
-6.59188e-06
4.94582e-06
-6.54969e-06
5.4704e-06
-6.42838e-06
5.97833e-06
-6.23621e-06
6.47132e-06
-5.96154e-06
6.93561e-06
-5.65746e-06
7.38342e-06
-5.24083e-06
7.78838e-06
-4.91444e-06
8.1856e-06
-4.33939e-06
8.52031e-06
-4.19387e-06
8.87488e-06
-3.39201e-06
9.14053e-06
-4.00199e-06
9.50489e-06
-3.20623e-06
-7.72139e-06
9.4849e-06
6.02758e-05
7.84e-06
4.19973e-05
5.60652e-06
2.70496e-05
3.55693e-06
1.68631e-05
2.02327e-06
9.79603e-06
1.01066e-06
5.98259e-06
3.45733e-07
3.67027e-06
-1.0567e-07
2.52376e-06
-4.23062e-07
1.75856e-06
-6.59286e-07
1.36606e-06
-8.3783e-07
1.11052e-06
-9.80952e-07
1.00318e-06
-1.09971e-06
9.73571e-07
-1.20471e-06
1.01049e-06
-1.30149e-06
1.08276e-06
-1.39401e-06
1.17394e-06
-1.48363e-06
1.26838e-06
-1.57059e-06
1.35509e-06
-1.65396e-06
1.42579e-06
-1.73228e-06
1.4734e-06
-1.80358e-06
1.49191e-06
-1.86563e-06
1.47554e-06
-1.91598e-06
1.41942e-06
-1.95206e-06
1.31936e-06
-1.97126e-06
1.17313e-06
-1.97107e-06
9.80011e-07
-1.94905e-06
7.39615e-07
-1.90285e-06
4.51502e-07
-1.83022e-06
1.16003e-07
-1.72907e-06
-2.65405e-07
-1.59743e-06
-6.90315e-07
-1.43362e-06
-1.1553e-06
-1.23631e-06
-1.65554e-06
-1.00458e-06
-2.18481e-06
-7.37954e-07
-2.73559e-06
-4.36493e-07
-3.29921e-06
-1.00812e-07
-3.8657e-06
2.67811e-07
-4.42372e-06
6.67502e-07
-4.96052e-06
1.0957e-06
-5.46065e-06
1.54949e-06
-5.9072e-06
2.02589e-06
-6.28032e-06
2.52243e-06
-6.57099e-06
3.03579e-06
-6.79366e-06
3.56101e-06
-6.97225e-06
4.0917e-06
-7.08588e-06
4.62344e-06
-7.12362e-06
5.1495e-06
-7.07575e-06
5.66706e-06
-6.94594e-06
6.16761e-06
-6.73677e-06
6.65288e-06
-6.4468e-06
7.10949e-06
-6.11407e-06
7.54969e-06
-5.68102e-06
7.94728e-06
-5.31203e-06
8.33784e-06
-4.72995e-06
8.66538e-06
-4.52142e-06
9.01504e-06
-3.74167e-06
9.27074e-06
-4.25769e-06
9.62747e-06
-3.56296e-06
-7.88373e-06
9.66996e-06
6.06058e-05
8.27135e-06
4.3396e-05
6.1958e-06
2.91252e-05
4.14623e-06
1.89127e-05
2.51226e-06
1.143e-05
1.38387e-06
7.11098e-06
6.25148e-07
4.429e-06
1.07361e-07
3.04155e-06
-2.58829e-07
2.12475e-06
-5.30106e-07
1.63733e-06
-7.34144e-07
1.31456e-06
-8.95153e-07
1.16419e-06
-1.0256e-06
1.10402e-06
-1.1374e-06
1.12229e-06
-1.23705e-06
1.18241e-06
-1.32941e-06
1.2663e-06
-1.41642e-06
1.35539e-06
-1.49882e-06
1.43749e-06
-1.57602e-06
1.50299e-06
-1.64686e-06
1.54424e-06
-1.7096e-06
1.55465e-06
-1.76226e-06
1.5282e-06
-1.80259e-06
1.45975e-06
-1.82823e-06
1.345e-06
-1.83675e-06
1.18165e-06
-1.82581e-06
9.69071e-07
-1.79312e-06
7.06928e-07
-1.73647e-06
3.94848e-07
-1.65374e-06
3.3278e-08
-1.54295e-06
-3.76201e-07
-1.40223e-06
-8.31031e-07
-1.23003e-06
-1.32751e-06
-1.02512e-06
-1.86045e-06
-7.86674e-07
-2.42325e-06
-5.14297e-07
-3.00796e-06
-2.08114e-07
-3.60539e-06
1.31216e-07
-4.20503e-06
5.024e-07
-4.79491e-06
9.03576e-07
-5.3617e-06
1.33224e-06
-5.88931e-06
1.78559e-06
-6.36055e-06
2.26076e-06
-6.75549e-06
2.75529e-06
-7.06552e-06
3.26553e-06
-7.3039e-06
3.78624e-06
-7.49296e-06
4.31127e-06
-7.61091e-06
4.8363e-06
-7.64866e-06
5.35486e-06
-7.5943e-06
5.86421e-06
-7.45528e-06
6.35618e-06
-7.22875e-06
6.83251e-06
-6.92312e-06
7.28025e-06
-6.56182e-06
7.71157e-06
-6.11234e-06
8.10064e-06
-5.7011e-06
8.48316e-06
-5.11247e-06
8.80255e-06
-4.8408e-06
9.1456e-06
-4.08472e-06
9.39093e-06
-4.50303e-06
9.73789e-06
-3.90992e-06
-8.01455e-06
9.82893e-06
6.07769e-05
8.66293e-06
4.4562e-05
6.76397e-06
3.10241e-05
4.74944e-06
2.09272e-05
3.03957e-06
1.31399e-05
1.80107e-06
8.34948e-06
9.4522e-07
5.28485e-06
3.55609e-07
3.63116e-06
-6.40842e-08
2.54445e-06
-3.74035e-07
1.94729e-06
-6.06637e-07
1.54716e-06
-7.87971e-07
1.34552e-06
-9.32011e-07
1.24806e-06
-1.05201e-06
1.2423e-06
-1.15553e-06
1.28593e-06
-1.2484e-06
1.35917e-06
-1.33325e-06
1.44024e-06
-1.41139e-06
1.51562e-06
-1.48262e-06
1.57423e-06
-1.54613e-06
1.60774e-06
-1.60044e-06
1.60897e-06
-1.64382e-06
1.57158e-06
-1.67426e-06
1.49019e-06
-1.68959e-06
1.36033e-06
-1.68759e-06
1.17964e-06
-1.66608e-06
9.47558e-07
-1.62292e-06
6.63765e-07
-1.55602e-06
3.27953e-07
-1.46342e-06
-5.93272e-08
-1.34321e-06
-4.96404e-07
-1.19368e-06
-9.80566e-07
-1.01336e-06
-1.50782e-06
-8.01163e-07
-2.07265e-06
-5.56336e-07
-2.66808e-06
-2.78566e-07
-3.28573e-06
3.19522e-08
-3.91591e-06
3.74514e-07
-4.54759e-06
7.47808e-07
-5.1682e-06
1.14997e-06
-5.76386e-06
1.57854e-06
-6.31789e-06
2.0308e-06
-6.81281e-06
2.50398e-06
-7.22868e-06
2.99559e-06
-7.55714e-06
3.50171e-06
-7.81001e-06
4.01695e-06
-8.0082e-06
4.53532e-06
-8.12927e-06
5.05261e-06
-8.16595e-06
5.56263e-06
-8.10432e-06
6.0627e-06
-7.95536e-06
6.54504e-06
-7.71108e-06
7.01135e-06
-7.38943e-06
7.44916e-06
-6.99964e-06
7.87051e-06
-6.53369e-06
8.25004e-06
-6.08063e-06
8.62338e-06
-5.48581e-06
8.93374e-06
-5.15116e-06
9.2688e-06
-4.41978e-06
9.50342e-06
-4.73765e-06
9.83899e-06
-4.24549e-06
-8.11672e-06
9.96507e-06
6.08118e-05
9.0158e-06
4.55112e-05
7.30568e-06
3.27343e-05
5.35822e-06
2.28747e-05
3.5997e-06
1.48984e-05
2.26118e-06
9.68801e-06
1.30718e-06
6.23885e-06
6.40893e-07
4.29744e-06
1.63099e-07
3.02224e-06
-1.89295e-07
2.29968e-06
-4.53738e-07
1.8116e-06
-6.58071e-07
1.54986e-06
-8.17898e-07
1.40788e-06
-9.47787e-07
1.37219e-06
-1.05642e-06
1.39456e-06
-1.15068e-06
1.45343e-06
-1.23399e-06
1.52356e-06
-1.3083e-06
1.58993e-06
-1.37389e-06
1.63982e-06
-1.43031e-06
1.66415e-06
-1.47639e-06
1.65505e-06
-1.51067e-06
1.60586e-06
-1.53138e-06
1.5109e-06
-1.53658e-06
1.36553e-06
-1.52423e-06
1.16729e-06
-1.49232e-06
9.15652e-07
-1.43887e-06
6.10314e-07
-1.36193e-06
2.51014e-07
-1.25965e-06
-1.61609e-07
-1.13025e-06
-6.258e-07
-9.72136e-07
-1.13868e-06
-7.83967e-07
-1.69599e-06
-5.64747e-07
-2.29187e-06
-3.13833e-07
-2.91899e-06
-3.09938e-08
-3.56857e-06
2.83511e-07
-4.23041e-06
6.28929e-07
-4.89301e-06
1.00392e-06
-5.54319e-06
1.4066e-06
-6.16654e-06
1.83456e-06
-6.74584e-06
2.28512e-06
-7.26337e-06
2.7556e-06
-7.69916e-06
3.24346e-06
-8.04499e-06
3.74457e-06
-8.31113e-06
4.25343e-06
-8.51706e-06
4.76423e-06
-8.64007e-06
5.27286e-06
-8.67459e-06
5.77338e-06
-8.60484e-06
6.26323e-06
-8.44521e-06
6.73496e-06
-8.18281e-06
7.19028e-06
-7.84475e-06
7.6172e-06
-7.42656e-06
8.0276e-06
-6.94409e-06
8.39669e-06
-6.44971e-06
8.75984e-06
-5.84896e-06
9.06041e-06
-5.45174e-06
9.38634e-06
-4.7457e-06
9.60991e-06
-4.96121e-06
9.93286e-06
-4.56844e-06
-8.19257e-06
1.00814e-05
6.07305e-05
9.33164e-06
4.6261e-05
7.8168e-06
3.42491e-05
5.96456e-06
2.47269e-05
4.1862e-06
1.66767e-05
2.76197e-06
1.11122e-05
1.71167e-06
7.28915e-06
9.64979e-07
5.04413e-06
4.24787e-07
3.56243e-06
2.59643e-08
2.6985e-06
-2.73702e-07
2.11127e-06
-5.03896e-07
1.78005e-06
-6.81957e-07
1.58594e-06
-8.23681e-07
1.51391e-06
-9.38914e-07
1.5098e-06
-1.03567e-06
1.55018e-06
-1.11826e-06
1.60615e-06
-1.18933e-06
1.661e-06
-1.24973e-06
1.70022e-06
-1.29939e-06
1.71381e-06
-1.33753e-06
1.69319e-06
-1.36295e-06
1.63128e-06
-1.37414e-06
1.5221e-06
-1.3694e-06
1.36079e-06
-1.34689e-06
1.14478e-06
-1.30478e-06
8.73544e-07
-1.24124e-06
5.46769e-07
-1.15445e-06
1.64226e-07
-1.04269e-06
-2.73368e-07
-9.04311e-07
-7.64181e-07
-7.37831e-07
-1.30516e-06
-5.42048e-07
-1.89177e-06
-3.16067e-07
-2.51785e-06
-5.93441e-08
-3.17571e-06
2.28266e-07
-3.85618e-06
5.46436e-07
-4.54858e-06
8.94358e-07
-5.24093e-06
1.27065e-06
-5.91948e-06
1.67342e-06
-6.56931e-06
2.10027e-06
-7.17269e-06
2.54857e-06
-7.71167e-06
3.01567e-06
-8.16627e-06