/*--------------------------------*- C++ -*----------------------------------*\
| =========                 |                                                 |
| \\      /  F ield         | OpenFOAM: The Open Source CFD Toolbox           |
|  \\    /   O peration     | Version:  2.4.0                                 |
|   \\  /    A nd           | Web:      www.OpenFOAM.org                      |
|    \\/     M anipulation  |                                                 |
\*---------------------------------------------------------------------------*/
FoamFile
{
    version     2.0;
    format      ascii;
    class       surfaceScalarField;
    location    "1";
    object      phiAlpha;
}
// * * * * * * * * * * * * * * * * * * * * * * * * * * * * * * * * * * * * * //

dimensions      [0 3 -1 0 0 0 0];

internalField   nonuniform List<scalar> 
4432
(
4.86385e-06
-4.86385e-06
6.22071e-06
-1.35686e-06
3.05219e-06
3.16852e-06
-1.72593e-06
4.77811e-06
-3.36289e-06
1.63697e-06
-1.60446e-06
-1.75843e-06
-3.11162e-07
-1.2933e-06
-1.02744e-06
7.16286e-07
-2.8861e-06
1.85866e-06
-5.3111e-06
2.425e-06
-7.86756e-06
2.55646e-06
-9.51208e-06
1.64452e-06
-9.15735e-06
-3.39577e-07
-8.87445e-06
-1.33644e-07
-1.31706e-05
4.20909e-06
-2.135e-05
7.89579e-06
-2.65808e-05
5.38041e-06
-2.49135e-05
-1.41504e-06
-2.05562e-05
-4.39118e-06
-1.67907e-05
-4.05612e-06
-1.18328e-05
-4.98717e-06
-5.35753e-06
-6.47523e-06
-5.35756e-06
-6.83228e-08
-4.79553e-06
-1.28565e-06
-1.39532e-07
-3.70607e-06
5.58895e-06
-5.60748e-06
6.67953e-06
-4.96069e-06
9.9017e-07
-2.48072e-06
-4.23838e-06
-8.32612e-07
-2.94141e-06
-1.41387e-06
1.29754e-06
-3.58989e-06
4.03468e-06
-6.46596e-06
5.30107e-06
-9.36827e-06
5.45876e-06
-1.20291e-05
4.30545e-06
-1.48844e-05
2.70983e-06
-1.85406e-05
4.00122e-06
-2.26626e-05
8.31917e-06
-2.41189e-05
9.06531e-06
-2.06351e-05
1.69986e-06
-1.61304e-05
-6.09235e-06
-1.33109e-05
-7.24291e-06
-1.14665e-05
-6.2451e-06
-8.84848e-06
-7.91144e-06
-4.0424e-06
-1.12813e-05
-9.39999e-06
-2.00139e-06
-2.79413e-06
-4.28899e-06
2.14806e-06
-6.02228e-06
7.32224e-06
-6.63167e-06
7.28892e-06
-5.64725e-06
5.74499e-09
-3.12911e-06
-6.75651e-06
-1.41769e-06
-4.65284e-06
-1.85623e-06
1.73609e-06
-3.64966e-06
5.82811e-06
-5.90367e-06
7.55507e-06
-8.05288e-06
7.60797e-06
-1.04115e-05
6.66406e-06
-1.36577e-05
6.09421e-06
-1.6589e-05
7.67783e-06
-1.76747e-05
9.39324e-06
-1.47593e-05
6.13832e-06
-1.06623e-05
-2.41237e-06
-9.34378e-06
-8.00799e-06
-9.39976e-06
-7.36879e-06
-9.07659e-06
-6.56827e-06
-7.59384e-06
-9.39419e-06
-3.52826e-06
-1.53468e-05
-1.29284e-05
-1.39751e-06
-1.39663e-06
-3.13026e-06
3.88081e-06
-4.47646e-06
8.66845e-06
-5.19247e-06
8.00492e-06
-4.41134e-06
-7.75381e-07
-2.33237e-06
-8.83548e-06
-1.53665e-06
-5.44857e-06
-2.45618e-06
2.65561e-06
-4.27245e-06
7.64439e-06
-6.29732e-06
9.57993e-06
-7.94821e-06
9.25887e-06
-9.29378e-06
8.00962e-06
-1.06296e-05
7.43812e-06
-1.09806e-05
8.30639e-06
-9.19398e-06
8.13773e-06
-6.27133e-06
3.36678e-06
-5.01046e-06
-3.87657e-06
-6.66541e-06
-6.35306e-06
-8.85397e-06
-5.18023e-06
-9.57789e-06
-5.84436e-06
-7.87118e-06
-1.11009e-05
-3.65884e-06
-1.95591e-05
-1.65873e-05
5.83854e-07
-1.98049e-06
1.03913e-07
4.36075e-06
-9.20223e-07
9.69258e-06
-1.57842e-06
8.66313e-06
-5.1469e-07
-1.83911e-06
3.44566e-07
-9.69474e-06
-7.27415e-07
-4.37659e-06
-2.88317e-06
4.81136e-06
-5.27076e-06
1.0032e-05
-7.50596e-06
1.18151e-05
-9.09819e-06
1.08511e-05
-9.77027e-06
8.6817e-06
-9.36672e-06
7.03457e-06
-7.56544e-06
6.50521e-06
-4.77211e-06
5.34464e-06
-2.88992e-06
1.4906e-06
-3.44067e-06
-3.32584e-06
-6.17711e-06
-3.61664e-06
-9.30513e-06
-2.05222e-06
-1.06e-05
-4.54946e-06
-7.9207e-06
-1.37797e-05
-3.21888e-06
-2.42585e-05
-1.97942e-05
3.464e-06
-5.44449e-06
5.0957e-06
2.72904e-06
4.45361e-06
1.03347e-05
3.79522e-06
9.32152e-06
4.57425e-06
-2.61826e-06
4.72079e-06
-9.8394e-06
1.67628e-06
-1.33009e-06
-2.41202e-06
8.89967e-06
-5.8528e-06
1.34728e-05
-8.69068e-06
1.4653e-05
-1.05559e-05
1.27163e-05
-1.1062e-05
9.18782e-06
-1.00501e-05
6.02263e-06
-7.70947e-06
4.1646e-06
-5.10467e-06
2.73964e-06
-3.25798e-06
-3.56216e-07
-2.79916e-06
-3.78471e-06
-5.28645e-06
-1.12935e-06
-9.98135e-06
2.64267e-06
-1.24804e-05
-2.04489e-06
-9.32304e-06
-1.69242e-05
-3.05396e-06
-2.8428e-05
-2.28478e-05
6.9221e-06
-1.23662e-05
1.054e-05
-8.87687e-07
1.04471e-05
1.04277e-05
9.93978e-06
9.82883e-06
1.05663e-05
-3.24476e-06
1.00349e-05
-9.31318e-06
5.63424e-06
3.06497e-06
-1.23227e-07
1.46581e-05
-4.94749e-06
1.8297e-05
-8.78173e-06
1.84873e-05
-1.12409e-05
1.51754e-05
-1.19071e-05
9.85403e-06
-1.07683e-05
4.88388e-06
-8.10443e-06
1.5007e-06
-4.82821e-06
-5.36584e-07
-1.67383e-06
-3.51104e-06
-8.92936e-07
-4.56583e-06
-5.00922e-06
2.98693e-06
-1.22626e-05
9.89602e-06
-1.60811e-05
2.90785e-06
-1.34969e-05
-1.32023e-05
-5.14596e-06
-3.68169e-05
-2.79916e-05
1.08888e-05
-2.21122e-05
1.62484e-05
-6.09687e-06
1.64532e-05
1.0223e-05
1.5933e-05
1.0349e-05
1.56772e-05
-2.989e-06
1.41702e-05
-7.817e-06
8.94519e-06
8.28419e-06
3.07603e-06
2.05288e-05
-2.28854e-06
2.36616e-05
-6.98297e-06
2.31817e-05
-9.96797e-06
1.81604e-05
-1.08195e-05
1.07055e-05
-9.36933e-06
3.43372e-06
-5.86568e-06
-2.00295e-06
-2.05082e-06
-4.35169e-06
-3.22079e-07
-5.24235e-06
-2.08364e-06
-2.69262e-06
-1.09352e-05
9.26061e-06
-2.05651e-05
2.07502e-05
-2.29045e-05
4.85163e-06
-2.10508e-05
-2.63004e-05
-7.99028e-06
-5.57735e-05
-3.59801e-05
1.03884e-06
-1.05348e-06
-1.30599e-05
1.4328e-05
-1.60062e-05
3.66076e-06
5.26672e-06
-2.01127e-05
3.34657e-05
-2.68996e-05
3.82651e-05
-4.79135e-06
2.81693e-05
1.00991e-05
1.98691e-05
8.3035e-06
1.60758e-05
8.10262e-07
1.82043e-05
-5.45607e-06
2.32888e-05
-1.68574e-06
1.25183e-05
1.10611e-05
-4.57515e-06
1.66502e-05
-2.08888e-05
1.31113e-05
-2.71717e-05
6.28445e-06
-2.27113e-05
-4.45891e-06
-1.36667e-05
-9.0431e-06
-6.46607e-06
-7.20178e-06
-6.45855e-06
-7.05398e-06
6.06024e-06
-1.22475e-05
2.01461e-05
-9.74945e-06
1.37399e-06
1.0713e-05
-4.03731e-05
3.32321e-05
-4.72571e-05
3.63071e-05
-7.85383e-06
2.99584e-05
1.64515e-05
1.88175e-05
1.94478e-05
6.14095e-06
8.95292e-06
3.68332e-06
-3.99191e-06
5.80862e-06
-3.68999e-06
2.92251e-06
1.41216e-05
-1.1175e-05
3.03634e-05
-2.3737e-05
2.52407e-05
-2.26345e-05
2.13277e-06
-1.31783e-05
-1.39136e-05
-6.69937e-06
-1.55228e-05
-1.14422e-07
-1.37782e-05
-6.56699e-06
-7.19825e-06
1.331e-05
-7.69971e-06
2.01803e-05
-2.17907e-06
-4.18478e-06
1.60901e-05
-6.18464e-05
2.81514e-05
-5.81955e-05
2.59763e-05
-5.65916e-06
1.63326e-05
2.61079e-05
-2.12307e-06
3.48189e-05
-1.56025e-05
2.04446e-05
-1.72604e-05
-2.27543e-06
-1.323e-05
-7.63579e-06
-1.31957e-05
1.44099e-05
-1.73218e-05
3.72866e-05
-1.99898e-05
2.74879e-05
-1.56924e-05
-2.96236e-06
-1.09687e-05
-1.81438e-05
-7.71002e-06
-1.70044e-05
-4.59308e-07
-2.19218e-05
-6.43699e-06
-4.22087e-06
1.76079e-05
-4.09172e-06
1.88942e-05
1.81241e-06
-1.0127e-05
1.33766e-05
-7.28314e-05
1.75833e-05
-6.21907e-05
8.84077e-06
3.15886e-06
-1.10925e-05
4.60625e-05
-3.18743e-05
5.34112e-05
-3.93694e-05
2.62128e-05
-3.83422e-05
-3.30088e-06
-3.1455e-05
-1.44775e-05
-2.7363e-05
1.04101e-05
-2.4165e-05
3.44354e-05
-2.00315e-05
2.36061e-05
-1.57308e-05
-2.367e-06
-1.11146e-05
-5.78489e-06
-1.00894e-05
-5.61943e-06
-4.14964e-06
-2.20432e-05
-1.15384e-05
-5.32986e-07
1.82083e-05
1.73478e-08
1.97322e-05
4.53903e-06
-1.46869e-05
6.17261e-06
-7.34589e-05
-2.16877e-06
-5.38213e-05
-1.90513e-05
1.98947e-05
-4.13654e-05
6.82982e-05
-5.37e-05
6.38021e-05
-5.55203e-05
2.43019e-05
-6.15535e-05
-3.01817e-06
-4.87816e-05
-2.85243e-05
-3.76138e-05
-6.9667e-07
-2.97299e-05
2.65032e-05
-2.52931e-05
1.90702e-05
-1.03563e-05
2.09003e-06
-3.91958e-06
-1.29544e-06
-4.341e-06
-4.46967e-06
-5.2094e-06
-1.16166e-05
-1.67114e-05
4.46441e-06
1.36182e-05
6.98286e-06
1.80099e-05
8.2656e-06
-1.58795e-05
-1.68619e-06
-6.40462e-05
-1.94118e-05
-3.8011e-05
-4.35219e-05
4.38109e-05
-5.88172e-05
8.33044e-05
-2.97182e-05
3.11981e-05
-1.61652e-05
4.43858e-06
-2.6905e-05
-5.06713e-07
-5.94455e-05
-1.33228e-05
-5.02883e-05
-1.45788e-05
-4.05627e-05
1.66856e-05
-1.38355e-05
9.62743e-06
-5.59411e-06
1.13209e-06
-3.92707e-06
-3.10281e-06
-1.57949e-06
-6.97387e-06
-6.69396e-06
-7.69443e-06
-2.14377e-05
9.49355e-06
4.13753e-06
1.37941e-05
1.2908e-05
1.27454e-05
-1.46359e-05
-7.88961e-06
-4.44922e-05
-3.37641e-05
-1.30897e-05
-5.7855e-05
6.76707e-05
-2.61488e-05
5.36358e-05
-4.21404e-06
9.36021e-06
-1.38762e-06
1.48916e-06
-2.02877e-06
4.8432e-08
-1.68537e-05
-5.36723e-07
-4.1012e-05
-3.94424e-06
-2.78873e-05
9.37378e-07
-8.62524e-06
-8.56209e-07
-7.60282e-06
5.62318e-08
-2.87283e-06
-7.98289e-06
-1.79196e-07
-1.03893e-05
-2.98514e-06
-7.89708e-06
-1.83963e-05
1.33355e-05
-9.1851e-06
2.07543e-05
4.4844e-06
1.6512e-05
-1.06845e-05
-9.66476e-06
-1.89197e-05
-3.96858e-05
1.62403e-05
-5.17762e-05
8.08506e-05
-7.68596e-06
1.58338e-05
-9.35502e-07
2.48674e-06
-5.37691e-08
5.20663e-07
-2.18694e-07
1.2653e-07
-8.7838e-07
2.01887e-08
-4.88009e-06
-5.38398e-08
-5.51906e-06
-9.61441e-08
-6.74055e-06
-1.2375e-07
-4.43669e-06
-2.09322e-06
-3.10397e-06
-9.03356e-06
-4.29064e-07
-1.0138e-05
-7.63324e-07
-5.49768e-06
-6.32196e-06
3.00962e-05
-5.0368e-05
5.26917e-05
-2.36859e-05
5.62965e-05
7.10534e-06
5.22722e-05
1.43736e-05
4.51558e-05
4.12742e-06
3.34455e-05
3.89347e-06
1.1793e-05
2.99368e-05
-5.49192e-06
3.78138e-05
-1.72918e-05
3.54615e-05
-2.6412e-05
3.23019e-05
-3.14659e-05
2.32143e-05
-3.0768e-05
1.00076e-05
-2.43087e-05
-3.02566e-06
-1.7936e-05
-8.37807e-06
-2.02895e-05
-1.16165e-06
-3.81614e-05
1.22644e-05
-4.28846e-05
1.64977e-05
-4.74609e-05
1.31807e-05
-6.80596e-05
6.97472e-06
-7.3164e-05
-2.77598e-05
-5.83393e-05
-8.5171e-05
-2.44388e-05
-8.96501e-05
-5.94201e-05
-1.05344e-06
2.64883e-05
-7.84182e-05
4.3981e-05
-4.27511e-05
6.34975e-05
-8.30578e-06
6.80732e-05
9.81532e-06
5.69263e-05
1.52759e-05
3.32301e-05
2.75899e-05
-3.87084e-06
5.44471e-05
-3.47181e-05
6.86596e-05
-4.88703e-05
4.65284e-05
-4.35157e-05
2.29813e-05
-4.09298e-05
1.06226e-05
-5.59423e-05
7.40869e-06
-6.81929e-05
8.18533e-06
-5.48194e-05
6.55188e-06
-2.994e-05
7.86828e-06
-3.39369e-05
1.08098e-05
-3.69242e-05
1.29653e-05
-4.23138e-05
1.12125e-05
-9.15909e-05
-7.95939e-06
-9.78378e-05
-7.70272e-05
-6.75996e-05
-0.000117522
-4.78609e-05
-0.000109345
-7.751e-05
-2.97472e-05
5.19772e-06
-8.52561e-05
8.15474e-06
-4.7069e-05
1.97398e-05
-1.29924e-05
2.95329e-05
5.75281e-07
2.94966e-05
1.0022e-05
5.80971e-07
1.77108e-05
-5.28827e-05
2.59176e-05
-9.45718e-05
5.84863e-05
-0.000125517
4.32887e-05
-0.000144276
2.62225e-05
-0.000107761
1.50257e-05
-3.38748e-05
3.1911e-06
-3.10029e-05
1.28165e-07
-3.02486e-05
5.53646e-07
-2.89733e-05
1.15664e-06
-3.50974e-05
1.18668e-05
-3.96413e-05
1.30879e-05
-4.0771e-05
7.36045e-06
-9.12191e-05
-1.85453e-05
-0.000102836
-0.000102295
-0.000101245
-0.000135107
-0.000100553
-0.000109497
-4.56634e-05
-9.09466e-05
-3.27146e-05
-4.89943e-05
-2.86236e-05
-9.39303e-06
-2.87018e-06
-1.60444e-06
-1.19095e-06
-7.87032e-07
-4.06397e-06
-3.93845e-07
-1.00114e-05
7.48629e-06
-2.51043e-05
8.47897e-06
-7.49638e-05
3.60177e-06
-0.000139041
1.98649e-05
-0.000170362
2.16925e-05
-0.000164519
1.52188e-05
-0.00014767
-1.8538e-06
-7.79578e-05
-2.27736e-06
-3.948e-05
1.13857e-06
-5.21146e-05
4.03835e-06
-4.76417e-05
1.74348e-05
-4.23931e-05
1.83002e-05
-2.08679e-05
8.92901e-06
-7.23111e-05
-2.41288e-05
-0.00013044
-0.000125901
-0.000134967
-0.000138711
-0.000101535
-7.8714e-05
-5.47736e-06
-2.75198e-06
-1.33242e-05
-1.52842e-05
-1.72777e-06
-7.18448e-09
-4.59239e-06
-6.40924e-07
-6.22325e-06
4.98016e-07
-7.92645e-06
1.18519e-07
-1.10508e-05
8.36697e-06
-1.47164e-05
8.75155e-06
-2.03426e-05
5.67181e-06
-5.7428e-05
-1.11129e-06
-7.43949e-05
1.12833e-06
-6.49881e-05
1.20875e-06
-3.31817e-05
-7.8496e-08
-2.06928e-05
-2.58629e-07
-1.54222e-05
-3.25893e-07
-2.37291e-05
2.18214e-08
-2.58939e-05
-2.4996e-07
-1.17229e-05
1.53285e-07
-7.78817e-06
2.211e-07
-7.20809e-05
-7.12455e-06
-0.00013891
-6.68625e-05
-0.000151322
-0.000135798
-4.72542e-05
-7.7987e-05
-1.99613e-06
-2.83395e-07
-5.20022e-06
1.54987e-05
-4.13207e-06
2.40482e-06
-7.84904e-06
7.35987e-07
-6.16335e-06
1.47165e-06
-9.44345e-06
1.84364e-06
-1.03623e-05
6.11469e-06
-9.19831e-06
5.29024e-06
-5.61786e-06
3.60454e-06
-2.90517e-06
-4.79076e-07
-1.02492e-06
1.20806e-06
-2.17929e-08
1.85467e-07
-1.05875e-07
1.938e-09
-3.7386e-07
1.29253e-10
-7.4115e-07
-1.64293e-09
-1.36103e-06
-1.83838e-08
-2.16707e-06
-5.97567e-08
-2.20935e-06
-1.14641e-07
-1.56329e-06
-5.64089e-08
-7.77343e-06
-1.05131e-06
-5.78249e-05
-8.92311e-06
-0.000113604
-5.81e-05
-3.46161e-05
-6.96677e-05
-1.75694e-05
-1.87887e-06
-5.26717e-06
4.26862e-05
-9.50889e-06
5.90457e-06
-1.18453e-05
1.91387e-06
-1.33141e-05
2.16996e-06
-1.51779e-05
2.27592e-06
-1.21787e-05
2.72734e-06
-9.47617e-06
1.83467e-06
-2.02262e-06
5.74601e-06
-1.36728e-07
3.7897e-06
-2.013e-08
1.31126e-06
-2.42525e-09
1.63749e-07
-8.91312e-09
4.06503e-09
-1.64984e-08
3.72735e-09
-2.4946e-08
1.56945e-09
-1.73789e-07
-1.00507e-09
-5.42157e-07
1.12898e-09
-5.41166e-07
8.60579e-09
-1.88379e-07
-8.75986e-09
-1.08017e-06
-1.85875e-07
-8.28939e-06
-1.88326e-06
-7.41837e-05
-1.12804e-05
-0.000129207
-7.96576e-05
-4.68295e-05
-3.81616e-05
-3.45269e-06
5.46839e-05
-1.94722e-06
8.14531e-06
-1.555e-06
7.68493e-07
-6.41943e-06
1.87626e-07
-1.21751e-05
7.60455e-07
-1.10649e-05
1.74392e-06
-1.05998e-05
1.63117e-06
-6.72021e-06
1.94276e-06
-3.48381e-06
3.67876e-06
-8.08674e-07
4.60867e-06
-1.92064e-07
2.41319e-06
-6.46157e-09
7.99592e-08
-9.90302e-09
3.35852e-09
-1.42018e-08
1.8801e-09
-2.23186e-08
-3.06703e-12
-2.50683e-08
-6.61355e-09
-2.61781e-08
-8.9461e-09
-4.68661e-08
-1.60564e-08
-1.85937e-07
-3.97871e-08
-1.81833e-06
-2.58769e-07
-1.18343e-05
-1.5168e-06
-8.69685e-05
-1.76539e-05
-4.42693e-05
-7.11458e-05
-3.56185e-07
5.7138e-05
-5.9687e-07
1.09983e-05
-4.81999e-07
5.66248e-07
-4.21937e-07
6.16111e-08
-9.42759e-07
-1.70347e-08
-1.45758e-06
-5.41365e-08
-3.92927e-06
-5.48568e-08
-8.08488e-06
3.27303e-07
-5.82543e-06
2.18955e-06
-4.38687e-06
3.45029e-06
-6.64845e-08
3.37341e-06
-5.80055e-09
1.90791e-08
-8.3078e-09
3.55636e-09
-2.63948e-08
4.71272e-09
-2.9769e-08
-4.09571e-09
-2.86067e-08
-1.09298e-08
-1.94567e-08
-2.15132e-08
-1.08785e-08
-2.4109e-08
-8.36274e-09
-2.04371e-08
-2.3448e-07
-2.16116e-08
-1.67514e-06
-1.30659e-07
-1.88041e-05
-9.39209e-07
-1.39372e-05
-7.07471e-05
-1.09444e-07
5.93454e-05
-3.514e-07
9.76322e-06
-8.73042e-08
2.69023e-07
-6.13903e-08
1.90796e-08
-9.53502e-08
3.19626e-09
-1.63053e-07
-1.56047e-08
-3.78149e-07
-1.20588e-08
-2.72514e-06
-2.67785e-08
-5.24568e-06
2.63296e-08
-4.40556e-06
3.90061e-07
-2.58131e-08
3.35149e-07
-8.43766e-09
3.16307e-09
-7.57585e-09
1.55052e-09
-2.181e-08
1.64329e-09
-2.44801e-08
-2.1016e-09
-2.93421e-08
-7.33948e-09
-3.08908e-08
-1.45892e-08
-2.24564e-08
-1.45797e-08
-7.9742e-09
-9.61839e-09
-1.15017e-08
-9.10033e-09
-1.36463e-07
-4.30546e-09
-1.07056e-06
-1.24971e-08
-2.329e-07
-1.47804e-05
-1.23644e-06
4.26706e-05
-1.89648e-07
3.02362e-06
-2.08726e-08
7.71247e-08
-1.22558e-08
6.09047e-09
-1.37743e-08
1.35382e-09
-3.26998e-08
-1.9995e-09
-1.76284e-07
9.3513e-10
-3.04813e-07
-7.01772e-09
-4.23785e-07
-2.35086e-08
-2.83431e-07
1.26635e-08
-4.27292e-09
5.77449e-08
-1.5043e-09
7.12957e-10
-1.33909e-09
1.12955e-10
-2.09958e-10
-4.16581e-11
-1.80678e-09
-9.5711e-14
-5.0128e-09
-2.10979e-13
-4.88978e-09
-1.09751e-12
-2.83237e-09
-9.8508e-12
-3.64019e-09
-1.0086e-10
-1.81813e-09
-1.20202e-09
-1.13021e-09
-2.18778e-09
-1.36622e-08
-9.73499e-11
-1.85678e-09
-2.4766e-07
-1.34187e-06
3.14549e-05
-4.36792e-08
1.56973e-06
-4.63265e-09
3.41879e-08
-2.50225e-09
2.26268e-09
-2.42305e-09
4.70718e-10
-7.31643e-09
1.98177e-11
-3.03326e-08
-6.48876e-10
-4.57917e-08
-1.49813e-09
-6.03601e-08
-4.42462e-09
-5.26659e-08
1.98776e-09
-8.90588e-10
6.3148e-09
-1.48137e-10
6.99611e-11
-6.65407e-12
-4.29373e-12
-2.18161e-13
-6.08229e-14
-2.20219e-13
-1.07914e-13
-3.14305e-13
-1.76469e-13
-1.28173e-12
-2.17418e-13
-1.09657e-11
-3.81587e-13
-1.10247e-10
-2.03103e-12
-7.82032e-10
-6.1374e-12
-5.55777e-11
-1.02938e-11
-1.43755e-10
-1.42995e-11
-1.05399e-11
-1.98716e-09
-9.21016e-07
4.73712e-05
-2.35914e-08
6.68394e-07
-1.50096e-09
1.05677e-08
-5.40952e-10
8.64547e-10
-4.46661e-10
1.75554e-10
-6.96619e-10
3.86886e-11
-1.53048e-09
-1.94272e-12
-3.13939e-09
-7.60667e-11
-7.66151e-09
-2.74226e-10
-6.16866e-09
2.06098e-10
-2.30016e-10
4.86939e-10
-7.90795e-11
9.08913e-12
-2.61663e-13
3.33494e-13
-2.62695e-13
-6.3791e-14
-2.57881e-13
-1.68308e-13
-2.50098e-13
-2.61097e-13
-2.5425e-13
-3.53816e-13
-3.8646e-13
-4.68574e-13
-6.95018e-13
-2.00532e-12
-9.59943e-13
-6.32192e-12
-2.22086e-12
-9.72845e-12
-2.18042e-12
-1.1659e-11
-7.00068e-12
-2.49448e-12
-5.02446e-07
5.81671e-05
-1.17312e-10
1.66751e-07
-2.72606e-10
1.03257e-08
-1.01282e-10
4.86837e-10
-6.84223e-11
7.06444e-11
-7.91012e-11
1.5444e-11
-1.241e-10
9.58574e-12
-2.42369e-10
-7.59884e-13
-5.74852e-10
1.76058e-14
-4.68575e-10
5.45525e-11
-2.75331e-11
5.86871e-11
-1.46968e-11
2.23749e-12
-9.24569e-13
5.5362e-13
-6.64882e-13
-2.0286e-13
-6.21203e-13
-2.39678e-13
-5.70614e-13
-4.48742e-13
-4.74583e-13
-6.72595e-13
-7.15841e-13
-5.03866e-13
-2.13828e-12
-3.69498e-12
-2.86476e-12
-8.73183e-12
-4.55284e-12
-9.29681e-12
-2.56e-12
-7.65412e-12
-3.46009e-13
-2.95484e-13
1.16245e-07
5.84669e-05
2.38397e-08
5.18012e-07
7.97947e-11
3.16694e-08
-1.36777e-11
6.29339e-10
-1.05845e-11
3.61179e-11
-1.28719e-11
9.48373e-12
-2.18193e-11
9.97804e-12
-4.36963e-11
9.70198e-12
-7.58073e-11
1.87598e-11
-4.96395e-11
2.61152e-11
-3.74465e-12
1.43986e-11
-1.8514e-12
7.61509e-13
-1.39177e-12
2.65664e-13
-1.83138e-12
4.68315e-13
-2.73257e-12
6.89931e-13
-2.51026e-12
-9.11324e-13
-1.33477e-12
-2.23757e-12
-1.31541e-12
-1.15749e-12
-6.38893e-12
-3.18801e-12
-5.98526e-12
-4.58411e-12
-4.13912e-12
-6.59159e-12
-3.35312e-13
-4.64441e-12
-8.24219e-14
-5.4412e-13
2.6522e-06
5.62307e-05
1.64351e-07
3.33061e-06
4.58336e-09
1.86246e-07
-1.85598e-12
5.37458e-09
-2.86962e-12
3.11776e-11
-4.46875e-12
8.37609e-12
-7.93179e-12
9.36518e-12
-1.59071e-11
1.24243e-11
-2.20964e-11
1.87241e-11
-1.4327e-11
1.9205e-11
-7.61136e-12
9.84955e-12
-1.02899e-11
5.97014e-12
-1.09684e-11
3.81567e-12
-2.22205e-11
1.22121e-11
-2.53325e-11
3.62466e-12
-2.07219e-11
-7.5088e-12
-8.9973e-12
-1.59265e-11
-2.08845e-12
-9.91522e-12
-2.04654e-12
-5.36768e-12
-3.73638e-12
-1.39877e-12
-1.56791e-12
-2.57775e-13
-1.19211e-13
-2.00119e-13
-1.87982e-13
-1.49728e-14
1.15674e-06
1.23149e-06
-9.7479e-09
4.24701e-06
-1.96096e-09
1.77973e-07
-1.08967e-11
5.18983e-09
-1.52566e-12
1.90428e-11
-2.8738e-12
7.9927e-12
-4.75873e-12
8.53935e-12
-8.31811e-12
1.16817e-11
-1.375e-11
1.88061e-11
-2.05784e-11
1.9903e-11
-4.64558e-11
3.6671e-11
-1.90167e-10
1.51099e-10
-2.29741e-10
1.48916e-11
-2.85453e-10
7.43059e-11
-2.48176e-10
-3.55568e-11
-1.77027e-10
-9.15927e-11
-6.70614e-11
-1.38132e-10
-1.15182e-11
-7.3066e-11
-9.87062e-13
-1.65529e-11
-3.76894e-14
-2.32413e-12
-1.72823e-14
-2.54104e-13
-6.81805e-14
-1.58394e-14
-5.07944e-15
-2.8654e-15
8.1727e-08
2.52043e-07
-4.59057e-08
2.9698e-06
-2.2156e-09
9.34301e-08
-9.94176e-12
2.01084e-09
-1.44458e-12
9.10432e-12
-2.90137e-12
7.74668e-12
-7.18145e-12
1.11096e-11
-2.57133e-11
2.83935e-11
-1.51404e-10
1.34723e-10
-5.68709e-10
5.12461e-10
-2.62823e-09
1.24119e-09
-6.42372e-09
4.03957e-09
-5.94944e-09
-6.11459e-10
-2.35973e-09
-1.5979e-09
-1.49742e-09
-4.94446e-10
-9.70661e-10
-7.10265e-10
-3.90648e-10
-8.01635e-10
-7.24767e-11
-4.29351e-10
-6.60167e-12
-8.64414e-11
-3.67406e-13
-8.71525e-12
-1.57915e-14
-6.18251e-13
-1.34265e-15
-3.40068e-14
-7.77987e-15
-1.76564e-15
-4.36645e-08
2.36685e-07
-7.11259e-08
4.81993e-07
-8.2869e-10
2.29995e-08
-1.51913e-12
4.92809e-10
-1.44095e-12
8.17025e-12
-4.16624e-12
9.02536e-12
-1.54218e-11
2.06561e-11
-7.1724e-11
8.35281e-11
-4.90654e-10
5.52918e-10
-1.7215e-09
1.71303e-09
-4.34034e-09
2.67046e-09
-2.20954e-08
4.24452e-09
-2.16203e-08
-2.72618e-10
-1.98604e-08
7.13976e-10
-1.26193e-08
-8.22936e-09
-7.38754e-09
-1.05126e-08
-1.91255e-09
-9.12909e-09
-2.53954e-10
-3.60798e-09
-2.69306e-11
-3.32401e-10
-1.71167e-12
-3.50724e-11
-8.04932e-14
-2.32592e-12
-2.25141e-15
-1.19945e-13
-1.16364e-14
-5.60985e-16
-2.52701e-08
1.83578e-07
-8.82469e-09
4.187e-07
-3.03594e-10
1.42535e-08
-1.20679e-12
1.91468e-10
-2.45438e-12
8.5356e-12
-8.97641e-12
1.468e-11
-6.54776e-11
7.68515e-11
-4.99183e-10
5.24656e-10
-2.77695e-09
6.03959e-09
-2.21011e-09
1.45095e-08
-3.43784e-09
3.07663e-09
-2.01583e-09
2.94265e-09
-1.02537e-08
-9.65283e-10
-1.63193e-08
-3.85509e-09
-2.01749e-08
-1.25319e-08
-1.30298e-08
-2.35172e-08
-7.47177e-09
-1.65912e-08
-1.26111e-09
-1.71095e-08
-7.55809e-11
-1.55154e-09
-3.52661e-12
-1.48908e-10
-1.29083e-13
-1.05624e-11
-3.35134e-15
-5.58745e-13
-4.65141e-14
-9.68801e-17
-9.25698e-08
5.02298e-06
-9.37602e-09
3.34572e-07
-1.5567e-10
5.09199e-09
-3.25696e-12
7.76427e-11
-9.19298e-12
1.39855e-11
-7.39023e-11
8.507e-11
-3.39264e-10
9.84184e-10
-6.65298e-09
2.03699e-08
-1.16664e-08
5.2514e-08
-5.77701e-09
4.56481e-08
-1.51235e-09
2.19062e-08
-4.35978e-09
7.1161e-09
-5.56397e-09
-7.44912e-09
-6.54548e-09
-2.76892e-08
-2.51229e-09
-1.93309e-08
-1.26132e-09
-1.35221e-08
-7.93302e-10
-1.7851e-08
-4.36976e-12
-1.74874e-08
-1.27718e-12
-7.15859e-09
-1.39198e-11
-6.47419e-10
-8.93608e-13
-3.21181e-11
-4.21993e-14
-2.01424e-12
-1.52288e-13
-1.51427e-15
-2.69508e-07
5.79835e-05
-3.55699e-09
6.82386e-08
-5.48806e-11
1.61968e-09
-3.63754e-12
3.71737e-11
-2.51255e-12
2.00183e-11
-1.25215e-11
1.05908e-10
-8.09116e-10
3.8482e-09
-2.01841e-09
5.60377e-08
1.54973e-09
5.1104e-08
6.96429e-09
4.25283e-08
1.29586e-08
2.56674e-08
1.75431e-08
8.6413e-09
2.18369e-08
-1.04428e-08
2.21672e-08
-2.78634e-08
5.56432e-09
-2.13269e-08
2.87252e-09
-1.01991e-08
4.46489e-09
-1.68163e-08
4.10899e-09
-1.65249e-08
1.05971e-09
-1.06731e-08
-8.90283e-11
-1.68639e-09
-6.2486e-12
-1.2322e-10
-3.35491e-13
-8.65727e-12
-5.69364e-13
-1.23407e-14
-1.16065e-07
6.0054e-05
-7.0873e-10
2.60051e-07
-1.09188e-11
9.49867e-10
-8.76813e-13
3.47006e-11
7.27806e-14
2.59341e-11
4.2705e-11
1.01244e-10
2.82077e-09
1.07352e-09
1.3901e-08
3.36545e-08
2.36435e-08
4.3801e-08
3.35155e-08
3.48435e-08
4.16754e-08
1.92576e-08
4.86103e-08
3.45657e-09
5.03743e-08
-1.05774e-08
3.75824e-08
-1.43811e-08
9.47963e-09
-9.06222e-09
5.45e-09
-5.83356e-09
8.52056e-09
-9.93789e-09
6.67781e-09
-1.40223e-08
3.08254e-09
-1.12939e-08
-6.46897e-11
-1.54223e-09
-5.97922e-12
-2.01518e-10
-3.75232e-13
-1.62549e-11
-1.29002e-12
-1.50513e-14
9.53994e-07
5.98916e-05
6.25297e-09
1.61108e-06
7.67914e-11
8.21614e-09
6.30644e-13
1.01164e-10
2.14408e-12
2.98552e-11
5.82083e-11
4.70444e-11
8.63702e-10
2.87201e-10
1.80583e-08
4.93218e-09
3.98203e-08
8.37933e-09
4.90583e-08
7.27872e-09
5.22061e-08
2.63668e-09
4.56973e-08
-2.23219e-09
3.09102e-08
-6.56365e-09
1.59666e-08
-4.1118e-09
9.89425e-09
-3.58279e-09
7.46004e-09
-3.75369e-09
1.10488e-08
-6.26376e-09
8.90039e-09
-1.09505e-08
2.78289e-09
-9.73177e-09
3.01375e-11
-1.2223e-09
6.31515e-13
-2.01589e-10
2.15204e-13
-1.8452e-11
-1.76024e-12
1.97129e-14
1.27836e-06
5.8909e-05
3.31776e-09
3.2679e-06
2.31815e-10
1.15113e-08
3.73524e-12
3.14553e-10
2.25034e-12
3.60761e-11
1.55224e-11
4.06344e-11
1.93756e-10
1.22244e-10
2.89627e-09
2.2556e-09
7.66782e-09
2.59699e-09
1.1486e-08
4.51782e-11
1.1352e-08
-2.67585e-10
1.17371e-08
-6.50764e-09
1.02134e-08
-5.79271e-09
9.18786e-09
-4.01666e-09
8.22591e-09
-3.25492e-09
6.90993e-09
-3.13277e-09
1.49334e-08
-4.19925e-09
1.15995e-08
-7.71495e-09
2.89021e-09
-7.18325e-09
1.10399e-10
-7.04609e-10
9.70809e-12
-1.3543e-10
1.24121e-12
-1.43846e-11
-1.41001e-12
1.03778e-13
1.52916e-06
5.76756e-05
1.35171e-07
6.99844e-06
7.9103e-09
1.44265e-07
2.58253e-10
8.14957e-09
1.02096e-11
2.90881e-10
1.2914e-11
5.11562e-11
4.58666e-11
1.65822e-10
2.23233e-09
3.55046e-09
2.43154e-08
3.72834e-09
2.74042e-08
-1.43657e-10
3.40371e-08
-3.55984e-09
3.33824e-08
-3.68568e-09
1.5256e-08
-2.79652e-09
1.23821e-08
-2.33669e-09
1.02142e-08
-1.89637e-09
9.84421e-09
-2.8313e-09
1.83215e-08
-3.22371e-09
1.41497e-08
-4.42024e-09
1.75668e-09
-3.0414e-09
1.20436e-10
-2.59647e-10
1.24634e-11
-5.48697e-11
1.45813e-12
-7.00062e-12
-7.31055e-13
1.27436e-13
8.80839e-07
7.83002e-06
8.58106e-07
1.38034e-05
2.23632e-07
2.23372e-06
2.23371e-08
2.1538e-07
1.51016e-09
2.14378e-08
1.89889e-08
6.36354e-08
4.06497e-08
2.99595e-08
2.10917e-08
4.38235e-09
-1.18343e-09
-3.08339e-09
3.94989e-09
-4.42477e-09
1.60692e-08
-4.41585e-09
1.40748e-08
-3.09017e-09
1.26014e-08
-2.0296e-09
1.1042e-08
-1.7722e-09
9.27454e-09
-1.38873e-09
2.13e-08
-9.46712e-10
1.81532e-08
-7.29131e-10
1.32777e-08
-2.19456e-10
5.14035e-10
-1.64242e-10
6.12857e-11
-4.82308e-11
7.48136e-12
-1.51733e-11
9.03589e-13
-2.23173e-12
-2.2856e-13
8.59194e-14
4.71295e-07
4.45556e-07
2.31445e-06
8.95118e-06
7.24152e-08
6.55187e-06
-1.30435e-08
3.32862e-06
5.19055e-08
1.22549e-06
4.56299e-09
1.75468e-07
1.07547e-08
1.82571e-08
1.62304e-08
-2.49897e-09
1.60436e-08
-3.81424e-09
1.59449e-08
-3.63953e-09
1.56717e-08
-4.24382e-09
1.35601e-08
-6.17005e-09
1.11247e-08
-5.47072e-09
1.07337e-08
-2.69392e-09
1.84974e-08
6.852e-11
1.8016e-08
1.98767e-09
1.33669e-08
2.85645e-09
5.00746e-09
1.62235e-09
1.17909e-10
1.13982e-10
2.1438e-11
1.30479e-12
2.76668e-12
-1.79221e-12
2.89518e-13
-2.99527e-13
-2.81127e-14
2.86013e-14
1.36753e-07
8.66012e-08
1.14057e-06
3.46659e-07
1.20928e-06
1.67641e-06
3.67181e-07
1.71217e-06
6.97019e-08
1.00113e-06
3.0973e-08
1.34017e-07
2.17753e-08
1.10003e-08
1.46374e-08
-2.3939e-09
1.116e-08
-1.53793e-09
1.24341e-08
-5.62924e-09
1.9195e-08
-7.11983e-09
2.01077e-08
-6.67482e-09
1.86815e-08
-3.97631e-09
1.64477e-08
-5.07393e-10
1.38153e-08
2.7105e-09
1.1011e-08
4.5038e-09
6.49274e-09
3.65461e-09
-2.63352e-11
6.99866e-11
6.79486e-12
4.79984e-12
2.50255e-12
2.02326e-13
3.52202e-13
-1.12002e-13
3.54631e-14
-2.21287e-14
-1.79572e-15
3.57563e-15
1.55764e-08
1.22018e-08
1.55585e-07
7.28396e-08
4.48779e-07
1.05984e-07
5.31305e-07
5.90672e-08
1.92937e-07
-1.80938e-08
1.09642e-08
3.2569e-08
9.20215e-09
9.67701e-10
5.24425e-09
-5.51253e-10
3.63581e-09
-2.91425e-10
1.18543e-08
-1.8486e-09
1.08852e-08
-5.71181e-09
9.43858e-09
-5.06738e-09
7.62113e-09
-2.12963e-09
6.27163e-09
8.52583e-10
5.43089e-09
3.57055e-09
2.12505e-09
1.87943e-09
-1.26667e-11
-3.13832e-11
-8.76738e-13
-7.35082e-12
4.51734e-13
-6.84287e-13
1.73621e-13
-2.52272e-14
2.7041e-14
-2.81782e-15
2.52622e-15
-6.88642e-16
-1.69223e-16
7.93842e-16
3.35196e-09
1.96751e-09
3.10587e-08
1.42599e-08
7.18097e-08
2.0745e-08
7.21267e-08
1.00576e-08
2.73971e-08
-5.19665e-09
7.28165e-09
-2.44602e-09
1.31298e-09
-6.02208e-11
4.97055e-10
-2.53264e-11
1.88921e-10
-2.04237e-11
1.93598e-09
-1.03332e-11
4.95004e-09
-7.12071e-13
2.46615e-09
-1.73047e-09
7.35268e-10
-6.18995e-10
2.56237e-10
2.45088e-10
1.86906e-10
3.61587e-11
4.36136e-11
-4.49991e-12
8.91684e-12
-3.29334e-12
8.79896e-13
-6.96945e-13
5.09636e-14
-7.09271e-14
6.21891e-15
-3.19826e-15
1.412e-15
-1.24873e-17
3.64921e-16
-9.72952e-17
-2.24158e-17
2.35053e-16
5.64734e-10
2.99219e-10
5.80038e-09
2.53794e-09
1.33271e-08
3.43471e-09
1.29848e-08
1.03612e-09
4.00027e-09
-5.9268e-10
5.04654e-10
-2.29838e-10
9.47427e-11
-1.7996e-11
3.45537e-11
-2.37774e-13
1.10923e-11
-8.1054e-13
7.44511e-13
-2.17152e-13
2.42985e-14
-1.67541e-14
1.03132e-11
-2.29264e-15
-2.62044e-11
-1.0379e-16
-7.23099e-12
-1.32922e-12
6.96507e-12
-2.03287e-13
3.82757e-12
-4.21723e-13
7.50242e-13
-2.02421e-13
7.80377e-14
-3.79682e-14
4.21589e-15
-3.27665e-15
1.61469e-15
1.06984e-16
1.11077e-15
1.61806e-17
2.91906e-16
-7.20312e-18
-2.7055e-18
6.05696e-17
9.28773e-11
4.15632e-11
1.10386e-09
3.7897e-10
2.16703e-09
5.09499e-10
1.6057e-09
9.13745e-11
4.40433e-10
-6.63839e-11
5.77873e-11
-2.13428e-11
5.87499e-12
-2.32356e-12
1.41645e-12
-4.25536e-14
2.60946e-13
2.50936e-15
2.04854e-14
-2.9699e-15
2.76466e-15
-6.10054e-16
3.13852e-16
-2.30103e-16
9.95512e-17
8.86711e-17
1.88013e-13
-6.139e-14
4.93658e-13
-2.45397e-14
2.14619e-13
-2.26804e-14
4.03241e-14
-8.36713e-15
4.30784e-15
-8.42194e-16
8.83109e-16
1.32109e-16
6.70883e-16
1.155e-16
2.03065e-16
4.6088e-18
4.48419e-17
-8.08098e-19
-3.03508e-19
8.12607e-18
1.3592e-11
5.20251e-12
1.78439e-10
5.09603e-11
3.1832e-10
6.68083e-11
1.88919e-10
7.08924e-12
4.711e-11
-6.12225e-12
6.71361e-12
-1.95133e-12
6.01344e-13
-2.39962e-13
5.39938e-14
1.47529e-17
9.24713e-15
1.57752e-15
1.75199e-15
2.67407e-16
1.25058e-15
1.24269e-16
6.37917e-16
1.14789e-16
1.07638e-15
3.10685e-16
2.39444e-14
-2.1339e-15
2.13447e-14
-1.30486e-15
8.75031e-15
-3.02612e-16
1.58928e-15
2.48364e-16
5.26745e-16
1.22183e-16
3.37707e-16
1.04873e-16
1.34135e-16
2.24071e-17
3.11395e-17
8.0527e-19
5.66215e-18
-8.45639e-20
-4.55998e-20
9.76102e-19
1.70488e-12
5.91506e-13
2.39242e-11
6.16743e-12
3.98653e-11
7.84834e-12
1.98846e-11
5.09066e-13
4.81389e-12
-4.21085e-13
7.12689e-13
-1.34671e-13
7.39306e-14
-1.23656e-14
6.88841e-15
2.12937e-15
1.80602e-15
7.40784e-16
1.55423e-15
6.27458e-16
8.84438e-16
3.31207e-16
6.38004e-16
2.72236e-16
4.81841e-16
2.66902e-16
6.02463e-16
3.62335e-16
7.8138e-16
1.8271e-16
6.69638e-16
3.46509e-16
3.60747e-16
2.00078e-16
2.09261e-16
8.99544e-17
8.57206e-17
2.5618e-17
2.2392e-17
3.70692e-18
4.07933e-18
1.1927e-19
6.33739e-19
-9.19239e-21
-1.35543e-20
1.51715e-19
1.84135e-13
7.02827e-14
2.76824e-12
6.81437e-13
4.32238e-12
8.3491e-13
1.81518e-12
5.06607e-14
4.24087e-13
-5.93073e-15
6.94508e-14
-1.25959e-15
8.33858e-15
2.15845e-15
1.54969e-15
9.34357e-16
5.90243e-16
3.32951e-16
4.53238e-16
2.75471e-16
3.14425e-16
1.82089e-16
2.46315e-16
1.47311e-16
1.71291e-16
1.10899e-16
1.43565e-16
9.877e-17
1.74137e-16
1.19081e-16
1.41907e-16
8.91424e-17
1.29157e-16
6.92173e-17
5.08176e-17
2.153e-17
1.41692e-17
4.2713e-18
2.85548e-18
4.94537e-19
4.31356e-19
1.68578e-20
7.20157e-20
-1.66037e-21
-6.04375e-21
4.54886e-20
1.61819e-14
8.20043e-15
2.73783e-13
7.68377e-14
3.94683e-13
9.00214e-14
1.41633e-13
1.42967e-14
3.51778e-14
4.39224e-15
5.93475e-15
2.40711e-15
1.10925e-15
8.66152e-16
4.2305e-16
2.45264e-16
3.38986e-16
3.00697e-16
2.11371e-16
1.70701e-16
1.75104e-16
1.3403e-16
1.4368e-16
1.08189e-16
1.08274e-16
8.16142e-17
1.04751e-16
7.80637e-17
1.21168e-16
8.59923e-17
6.07573e-17