/*--------------------------------*- C++ -*----------------------------------*\
| =========                 |                                                 |
| \\      /  F ield         | OpenFOAM: The Open Source CFD Toolbox           |
|  \\    /   O peration     | Version:  2.4.0                                 |
|   \\  /    A nd           | Web:      www.OpenFOAM.org                      |
|    \\/     M anipulation  |                                                 |
\*---------------------------------------------------------------------------*/
FoamFile
{
    version     2.0;
    format      ascii;
    class       volVectorField;
    location    "0.86";
    object      U;
}
// * * * * * * * * * * * * * * * * * * * * * * * * * * * * * * * * * * * * * //

dimensions      [0 1 -1 0 0 0 0];

internalField   nonuniform List<vector> 
6000
(
(0.990441 -0.000273757 0)
(0.970231 0.0020497 0)
(0.948316 0.00334879 0)
(0.925587 0.00413663 0)
(0.903364 0.00452022 0)
(0.882322 0.00453153 0)
(0.862685 0.00428822 0)
(0.844554 0.00390125 0)
(0.82799 0.00344515 0)
(0.812998 0.00296861 0)
(0.79952 0.00250384 0)
(0.78746 0.0020708 0)
(0.776701 0.00168046 0)
(0.767118 0.00133756 0)
(0.758587 0.00104285 0)
(0.750985 0.000794578 0)
(0.744196 0.000589531 0)
(0.738114 0.000423772 0)
(0.732641 0.000293056 0)
(0.727688 0.000193102 0)
(0.723177 0.000119734 0)
(0.71904 6.89626e-05 0)
(0.715216 3.70308e-05 0)
(0.711654 2.04732e-05 0)
(0.708308 1.61385e-05 0)
(0.705141 2.12505e-05 0)
(0.702123 3.33935e-05 0)
(0.699225 5.04837e-05 0)
(0.696427 7.07555e-05 0)
(0.693711 9.27597e-05 0)
(0.691059 0.00011535 0)
(0.68846 0.000137661 0)
(0.685901 0.000159086 0)
(0.683373 0.00017927 0)
(0.680864 0.00019812 0)
(0.678364 0.000215833 0)
(0.675861 0.000232923 0)
(0.673338 0.000250248 0)
(0.670773 0.000269019 0)
(0.66814 0.0002908 0)
(0.665401 0.00031751 0)
(0.662508 0.000351449 0)
(0.659401 0.000395366 0)
(0.655999 0.000452596 0)
(0.652202 0.000527263 0)
(0.647879 0.00062457 0)
(0.642862 0.000751189 0)
(0.636937 0.00091578 0)
(0.629825 0.0011297 0)
(0.621165 0.00140804 0)
(0.610487 0.00177092 0)
(0.597171 0.00224573 0)
(0.580415 0.00286927 0)
(0.559103 0.00369389 0)
(0.531939 0.00478121 0)
(0.496586 0.00623767 0)
(0.452254 0.00804481 0)
(0.39072 0.0104873 0)
(0.328916 0.0127477 0)
(0.185901 0.0115738 0)
(1.00417 0.00480515 0)
(1.01373 0.00718215 0)
(1.0207 0.00682435 0)
(1.02486 0.00641226 0)
(1.02687 0.00609189 0)
(1.02702 0.00572671 0)
(1.02543 0.0053509 0)
(1.02232 0.004999 0)
(1.01792 0.00467251 0)
(1.01248 0.00436639 0)
(1.00623 0.00407879 0)
(0.999349 0.00380932 0)
(0.992003 0.00355756 0)
(0.984333 0.00332289 0)
(0.976458 0.00310455 0)
(0.968478 0.00290167 0)
(0.960478 0.00271332 0)
(0.952526 0.00253853 0)
(0.944683 0.00237633 0)
(0.936996 0.00222585 0)
(0.929504 0.00208627 0)
(0.922239 0.00195685 0)
(0.915225 0.00183694 0)
(0.90848 0.001726 0)
(0.902013 0.00162354 0)
(0.89583 0.00152907 0)
(0.889932 0.00144232 0)
(0.884313 0.00136319 0)
(0.878965 0.00129163 0)
(0.873876 0.00122762 0)
(0.869032 0.00117112 0)
(0.864416 0.00112208 0)
(0.860011 0.00108041 0)
(0.855797 0.00104607 0)
(0.851754 0.00101909 0)
(0.847859 0.000999678 0)
(0.84409 0.000988333 0)
(0.840424 0.000985939 0)
(0.836836 0.000993874 0)
(0.833298 0.00101412 0)
(0.82978 0.00104941 0)
(0.826244 0.00110334 0)
(0.822649 0.00118066 0)
(0.818939 0.00128755 0)
(0.815049 0.00143206 0)
(0.810894 0.00162471 0)
(0.806366 0.00187926 0)
(0.801326 0.0022138 0)
(0.795594 0.0026523 0)
(0.788934 0.00322673 0)
(0.781034 0.00398025 0)
(0.771472 0.0049716 0)
(0.759689 0.00628245 0)
(0.744862 0.00802506 0)
(0.725988 0.0103593 0)
(0.701013 0.0134886 0)
(0.66893 0.0176903 0)
(0.620715 0.0230489 0)
(0.56969 0.0308459 0)
(0.435889 0.0311688 0)
(1.00036 0.00116234 0)
(1.00263 0.00202372 0)
(1.00544 0.00239372 0)
(1.00803 0.00304093 0)
(1.01052 0.00370471 0)
(1.013 0.00418587 0)
(1.01529 0.00450999 0)
(1.01726 0.00472084 0)
(1.01884 0.00483321 0)
(1.02001 0.00486107 0)
(1.02076 0.00482365 0)
(1.02109 0.0047396 0)
(1.021 0.00462407 0)
(1.02051 0.00448866 0)
(1.01964 0.00434206 0)
(1.01841 0.00419054 0)
(1.01683 0.00403845 0)
(1.01492 0.00388869 0)
(1.0127 0.00374304 0)
(1.01019 0.00360252 0)
(1.00741 0.00346764 0)
(1.00437 0.00333858 0)
(1.00111 0.00321538 0)
(0.997633 0.00309786 0)
(0.993972 0.0029857 0)
(0.99015 0.00287849 0)
(0.986191 0.00277594 0)
(0.982121 0.00267796 0)
(0.977966 0.00258454 0)
(0.973752 0.00249577 0)
(0.969502 0.00241183 0)
(0.965237 0.00233304 0)
(0.960977 0.00225981 0)
(0.956739 0.00219276 0)
(0.952533 0.00213272 0)
(0.948369 0.00208084 0)
(0.944249 0.00203862 0)
(0.940173 0.00200807 0)
(0.936131 0.00199181 0)
(0.93211 0.00199319 0)
(0.92809 0.00201653 0)
(0.924042 0.00206739 0)
(0.919925 0.00215285 0)
(0.91569 0.00228204 0)
(0.91127 0.00246671 0)
(0.906582 0.00272207 0)
(0.901517 0.00306796 0)
(0.895938 0.00353034 0)
(0.889668 0.00414351 0)
(0.882482 0.00495314 0)
(0.874089 0.00602084 0)
(0.864115 0.00743037 0)
(0.852086 0.00929887 0)
(0.837349 0.0117866 0)
(0.819189 0.0151353 0)
(0.796163 0.0196331 0)
(0.768043 0.0258721 0)
(0.728113 0.0338167 0)
(0.688518 0.0468161 0)
(0.586004 0.0517629 0)
(1.00025 0.00137449 0)
(1.00159 0.00317762 0)
(1.00312 0.00385962 0)
(1.00435 0.00422169 0)
(1.00551 0.0044898 0)
(1.00681 0.00462059 0)
(1.00821 0.00464383 0)
(1.00962 0.00461184 0)
(1.01101 0.0045465 0)
(1.01236 0.00445803 0)
(1.01365 0.00435674 0)
(1.01486 0.00425143 0)
(1.01598 0.00414767 0)
(1.017 0.00404867 0)
(1.0179 0.0039562 0)
(1.01869 0.0038711 0)
(1.01935 0.00379355 0)
(1.01989 0.00372324 0)
(1.02031 0.00365953 0)
(1.02059 0.00360161 0)
(1.02075 0.00354852 0)
(1.02077 0.00349933 0)
(1.02065 0.00345317 0)
(1.02039 0.00340912 0)
(1.01999 0.00336636 0)
(1.01945 0.00332423 0)
(1.01875 0.00328225 0)
(1.0179 0.00324011 0)
(1.0169 0.00319767 0)
(1.01574 0.00315495 0)
(1.01442 0.00311223 0)
(1.01295 0.00306999 0)
(1.01132 0.00302895 0)
(1.00953 0.00299015 0)
(1.00759 0.00295496 0)
(1.0055 0.00292519 0)
(1.00325 0.00290315 0)
(1.00086 0.0028918 0)
(0.998303 0.00289491 0)
(0.995591 0.00291725 0)
(0.992711 0.00296485 0)
(0.989645 0.00304537 0)
(0.986371 0.00316852 0)
(0.982853 0.00334671 0)
(0.979044 0.00359583 0)
(0.974876 0.00393632 0)
(0.970261 0.00439464 0)
(0.965078 0.00500524 0)
(0.95917 0.00581323 0)
(0.952331 0.00687812 0)
(0.944292 0.00827935 0)
(0.934702 0.0101235 0)
(0.923114 0.0125579 0)
(0.908919 0.0157798 0)
(0.891453 0.0200879 0)
(0.869466 0.0258165 0)
(0.84282 0.0337489 0)
(0.806351 0.0437163 0)
(0.770855 0.0603869 0)
(0.689464 0.0697141 0)
(1.00018 0.00117351 0)
(1.00125 0.00265202 0)
(1.00255 0.00313695 0)
(1.00361 0.00339465 0)
(1.00455 0.00368378 0)
(1.00554 0.00390458 0)
(1.00659 0.00402483 0)
(1.00763 0.00408061 0)
(1.00866 0.00409621 0)
(1.00967 0.00408005 0)
(1.01068 0.00403958 0)
(1.01168 0.00398297 0)
(1.01266 0.00391688 0)
(1.01361 0.00384611 0)
(1.01454 0.00377423 0)
(1.01543 0.00370383 0)
(1.0163 0.0036367 0)
(1.01714 0.00357394 0)
(1.01794 0.00351611 0)
(1.0187 0.00346338 0)
(1.01942 0.00341565 0)
(1.02011 0.00337264 0)
(1.02075 0.00333396 0)
(1.02135 0.00329915 0)
(1.0219 0.00326782 0)
(1.0224 0.00323965 0)
(1.02285 0.00321438 0)
(1.02324 0.00319182 0)
(1.02357 0.0031719 0)
(1.02384 0.00315466 0)
(1.02404 0.0031403 0)
(1.02416 0.00312919 0)
(1.0242 0.00312191 0)
(1.02416 0.00311933 0)
(1.02402 0.00312266 0)
(1.02378 0.00313362 0)
(1.02342 0.00315454 0)
(1.02294 0.0031885 0)
(1.02231 0.00323964 0)
(1.02153 0.00331331 0)
(1.02058 0.00341649 0)
(1.01942 0.00355818 0)
(1.01802 0.00374996 0)
(1.01635 0.00400679 0)
(1.01435 0.00434793 0)
(1.01195 0.00479827 0)
(1.00907 0.00539011 0)
(1.0056 0.00616543 0)
(1.00138 0.00717917 0)
(0.996245 0.00850359 0)
(0.989939 0.0102346 0)
(0.982148 0.0125002 0)
(0.972469 0.0154753 0)
(0.960353 0.0193915 0)
(0.945193 0.0245947 0)
(0.925866 0.0314584 0)
(0.902163 0.0408713 0)
(0.869757 0.0525738 0)
(0.837427 0.0716956 0)
(0.769681 0.08414 0)
(1.00014 0.000986938 0)
(1.00102 0.00234198 0)
(1.00218 0.00292823 0)
(1.00322 0.00327081 0)
(1.00413 0.00359504 0)
(1.00506 0.00382755 0)
(1.00603 0.00394149 0)
(1.00699 0.00398005 0)
(1.00792 0.00397615 0)
(1.00883 0.00394138 0)
(1.00972 0.00388353 0)
(1.01059 0.00381137 0)
(1.01145 0.00373241 0)
(1.01229 0.0036519 0)
(1.01311 0.00357339 0)
(1.01392 0.00349925 0)
(1.01471 0.0034309 0)
(1.01549 0.00336905 0)
(1.01626 0.00331387 0)
(1.01701 0.00326518 0)
(1.01776 0.00322255 0)
(1.01849 0.00318544 0)
(1.01921 0.00315326 0)
(1.01991 0.00312543 0)
(1.0206 0.00310147 0)
(1.02127 0.00308096 0)
(1.02193 0.00306358 0)
(1.02256 0.00304915 0)
(1.02317 0.00303765 0)
(1.02376 0.0030292 0)
(1.02433 0.00302416 0)
(1.02486 0.00302309 0)
(1.02536 0.00302682 0)
(1.02582 0.00303652 0)
(1.02623 0.0030538 0)
(1.0266 0.00308079 0)
(1.0269 0.00312036 0)
(1.02713 0.00317624 0)
(1.02729 0.00325328 0)
(1.02734 0.0033578 0)
(1.02727 0.00349788 0)
(1.02706 0.00368395 0)
(1.02669 0.00392939 0)
(1.0261 0.00425145 0)
(1.02525 0.00467234 0)
(1.02409 0.00522078 0)
(1.02253 0.00593399 0)
(1.02047 0.00686036 0)
(1.0178 0.00806314 0)
(1.01434 0.00962535 0)
(1.0099 0.011657 0)
(1.00421 0.014304 0)
(0.996927 0.017765 0)
(0.987606 0.0223014 0)
(0.975748 0.0282994 0)
(0.96041 0.0361739 0)
(0.941422 0.0468897 0)
(0.915121 0.0601797 0)
(0.888406 0.0812373 0)
(0.833602 0.0961828 0)
(1.00011 0.000842191 0)
(1.00084 0.00209722 0)
(1.00189 0.00272308 0)
(1.00289 0.00306789 0)
(1.00378 0.00335926 0)
(1.00468 0.00357135 0)
(1.00563 0.00368003 0)
(1.00656 0.00371975 0)
(1.00748 0.00372114 0)
(1.00836 0.0036949 0)
(1.00923 0.00364711 0)
(1.01007 0.00358538 0)
(1.0109 0.00351664 0)
(1.0117 0.00344572 0)
(1.01248 0.00337582 0)
(1.01324 0.00330913 0)
(1.01399 0.00324703 0)
(1.01473 0.00319031 0)
(1.01546 0.00313926 0)
(1.01617 0.00309385 0)
(1.01688 0.00305385 0)
(1.01758 0.0030189 0)
(1.01827 0.00298857 0)
(1.01896 0.00296244 0)
(1.01964 0.00294016 0)
(1.02031 0.00292142 0)
(1.02097 0.00290602 0)
(1.02162 0.0028939 0)
(1.02227 0.00288513 0)
(1.0229 0.00287998 0)
(1.02352 0.00287891 0)
(1.02412 0.0028826 0)
(1.0247 0.00289204 0)
(1.02526 0.00290861 0)
(1.02579 0.00293413 0)
(1.02629 0.00297104 0)
(1.02675 0.00302254 0)
(1.02716 0.00309284 0)
(1.02751 0.00318737 0)
(1.02778 0.00331317 0)
(1.02797 0.00347929 0)
(1.02804 0.00369736 0)
(1.02797 0.00398234 0)
(1.02772 0.00435346 0)
(1.02726 0.00483551 0)
(1.02653 0.00546047 0)
(1.02546 0.00626973 0)
(1.02396 0.00731701 0)
(1.02193 0.00867234 0)
(1.01924 0.0104274 0)
(1.0157 0.012703 0)
(1.01112 0.0156592 0)
(1.00522 0.0195121 0)
(0.997682 0.024545 0)
(0.988156 0.0311731 0)
(0.975968 0.0398451 0)
(0.961163 0.0515779 0)
(0.940925 0.0661644 0)
(0.920791 0.0887034 0)
(0.880126 0.10617 0)
(1.00009 0.000728812 0)
(1.00071 0.00188098 0)
(1.00166 0.00251236 0)
(1.00261 0.00285663 0)
(1.00348 0.00313201 0)
(1.00436 0.00334174 0)
(1.00529 0.00345879 0)
(1.00621 0.00350667 0)
(1.00711 0.00351441 0)
(1.00799 0.00349419 0)
(1.00885 0.00345221 0)
(1.00969 0.00339571 0)
(1.0105 0.00333154 0)
(1.01129 0.00326456 0)
(1.01207 0.00319803 0)
(1.01282 0.00313416 0)
(1.01356 0.00307446 0)
(1.01428 0.00301977 0)
(1.01499 0.00297048 0)
(1.01569 0.00292664 0)
(1.01638 0.00288808 0)
(1.01707 0.00285448 0)
(1.01774 0.00282547 0)
(1.01841 0.0028007 0)
(1.01907 0.00277982 0)
(1.01972 0.0027626 0)
(1.02037 0.00274889 0)
(1.02101 0.00273867 0)
(1.02165 0.0027321 0)
(1.02227 0.00272951 0)
(1.02289 0.00273144 0)
(1.02349 0.00273872 0)
(1.02408 0.00275248 0)
(1.02465 0.00277427 0)
(1.02519 0.00280616 0)
(1.02571 0.00285087 0)
(1.0262 0.00291199 0)
(1.02664 0.00299415 0)
(1.02703 0.00310338 0)
(1.02736 0.00324743 0)
(1.0276 0.00343626 0)
(1.02775 0.00368264 0)
(1.02776 0.00400298 0)
(1.02762 0.00441832 0)
(1.02728 0.00495574 0)
(1.02668 0.00565009 0)
(1.02577 0.00654634 0)
(1.02447 0.00770266 0)
(1.02268 0.00919458 0)
(1.02026 0.0111205 0)
(1.01708 0.0136093 0)
(1.01294 0.0168306 0)
(1.00763 0.0210113 0)
(1.00088 0.0264467 0)
(0.992452 0.0335647 0)
(0.981881 0.0428281 0)
(0.969397 0.0552604 0)
(0.953127 0.0707435 0)
(0.937598 0.0940701 0)
(0.909415 0.114028 0)
(1.00007 0.000636572 0)
(1.00061 0.00168643 0)
(1.00146 0.00230827 0)
(1.00237 0.00265443 0)
(1.00322 0.00291891 0)
(1.00409 0.00312324 0)
(1.00499 0.00324226 0)
(1.0059 0.00329256 0)
(1.00679 0.0033023 0)
(1.00766 0.00328524 0)
(1.00852 0.00324764 0)
(1.00935 0.00319603 0)
(1.01016 0.00313685 0)
(1.01095 0.0030748 0)
(1.01172 0.00301299 0)
(1.01248 0.00295354 0)
(1.01321 0.00289787 0)
(1.01393 0.00284682 0)
(1.01464 0.00280077 0)
(1.01534 0.0027598 0)
(1.01602 0.00272376 0)
(1.0167 0.00269239 0)
(1.01737 0.00266537 0)
(1.01803 0.0026424 0)
(1.01869 0.00262322 0)
(1.01933 0.00260764 0)
(1.01998 0.00259559 0)
(1.02061 0.00258713 0)
(1.02124 0.00258249 0)
(1.02185 0.00258208 0)
(1.02246 0.00258657 0)
(1.02306 0.0025969 0)
(1.02364 0.00261436 0)
(1.02421 0.00264068 0)
(1.02475 0.00267816 0)
(1.02527 0.00272982 0)
(1.02576 0.00279958 0)
(1.02621 0.00289254 0)
(1.02661 0.00301525 0)
(1.02694 0.00317616 0)
(1.02721 0.0033861 0)
(1.02737 0.00365896 0)
(1.02742 0.0040125 0)
(1.02731 0.00446953 0)
(1.02702 0.0050593 0)
(1.02649 0.0058194 0)
(1.02566 0.00679819 0)
(1.02446 0.00805801 0)
(1.02279 0.00967945 0)
(1.02053 0.0117669 0)
(1.01755 0.0144562 0)
(1.01367 0.0179245 0)
(1.00869 0.0224062 0)
(1.00237 0.0282025 0)
(0.994526 0.035742 0)
(0.984796 0.0454866 0)
(0.97344 0.0584165 0)
(0.959303 0.0745064 0)
(0.945926 0.097985 0)
(0.926075 0.120041 0)
(1.00006 0.000559604 0)
(1.00052 0.00151227 0)
(1.0013 0.00211481 0)
(1.00216 0.00246016 0)
(1.003 0.00271329 0)
(1.00385 0.00290874 0)
(1.00473 0.00302688 0)
(1.00563 0.00307916 0)
(1.00651 0.00309147 0)
(1.00738 0.00307822 0)
(1.00823 0.00304551 0)
(1.00906 0.00299916 0)
(1.00987 0.00294514 0)
(1.01066 0.00288802 0)
(1.01143 0.00283081 0)
(1.01218 0.00277556 0)
(1.01291 0.00272366 0)
(1.01363 0.00267594 0)
(1.01434 0.00263283 0)
(1.01504 0.00259444 0)
(1.01572 0.00256068 0)
(1.0164 0.00253134 0)
(1.01707 0.00250616 0)
(1.01773 0.00248491 0)
(1.01838 0.00246736 0)
(1.01903 0.00245341 0)
(1.01967 0.00244302 0)
(1.0203 0.00243633 0)
(1.02092 0.00243364 0)
(1.02154 0.00243543 0)
(1.02214 0.00244248 0)
(1.02273 0.00245583 0)
(1.02332 0.00247692 0)
(1.02388 0.00250766 0)
(1.02442 0.00255056 0)
(1.02494 0.00260891 0)
(1.02543 0.00268696 0)
(1.02588 0.00279023 0)
(1.02629 0.00292581 0)
(1.02663 0.00310279 0)
(1.02691 0.00333285 0)
(1.02709 0.00363091 0)
(1.02716 0.00401607 0)
(1.02708 0.0045128 0)
(1.02682 0.00515242 0)
(1.02634 0.00597512 0)
(1.02557 0.00703247 0)
(1.02445 0.00839074 0)
(1.02289 0.0101353 0)
(1.02076 0.0123761 0)
(1.01796 0.0152555 0)
(1.0143 0.0189573 0)
(1.00961 0.0237222 0)
(1.00367 0.0298559 0)
(0.996296 0.037783 0)
(0.987212 0.0479606 0)
(0.97662 0.0612971 0)
(0.963809 0.0778603 0)
(0.95141 0.10117 0)
(0.936065 0.124732 0)
(1.00005 0.000494161 0)
(1.00046 0.00135607 0)
(1.00117 0.00193158 0)
(1.00199 0.00227172 0)
(1.00281 0.00251314 0)
(1.00364 0.00269855 0)
(1.00451 0.00281461 0)
(1.00539 0.00286852 0)
(1.00626 0.00288317 0)
(1.00712 0.00287313 0)
(1.00797 0.00284462 0)
(1.00879 0.00280291 0)
(1.0096 0.00275356 0)
(1.01039 0.00270099 0)
(1.01116 0.00264813 0)
(1.01191 0.00259692 0)
(1.01265 0.0025487 0)
(1.01337 0.00250431 0)
(1.01408 0.00246418 0)
(1.01477 0.00242846 0)
(1.01546 0.00239709 0)
(1.01614 0.00236991 0)
(1.0168 0.00234671 0)
(1.01746 0.00232729 0)
(1.01812 0.0023115 0)
(1.01876 0.00229926 0)
(1.0194 0.00229062 0)
(1.02003 0.00228576 0)
(1.02066 0.00228505 0)
(1.02127 0.00228906 0)
(1.02188 0.00229866 0)
(1.02247 0.00231499 0)
(1.02305 0.00233963 0)
(1.02362 0.00237466 0)
(1.02416 0.00242281 0)
(1.02468 0.0024876 0)
(1.02518 0.00257363 0)
(1.02563 0.00268679 0)
(1.02604 0.0028347 0)
(1.0264 0.00302706 0)
(1.02669 0.00327635 0)
(1.02688 0.00359848 0)
(1.02697 0.00401381 0)
(1.02693 0.00454837 0)
(1.02671 0.00523547 0)
(1.02628 0.00611773 0)
(1.02557 0.00724974 0)
(1.02453 0.00870148 0)
(1.02307 0.0105627 0)
(1.02109 0.0129486 0)
(1.01846 0.0160073 0)
(1.01502 0.0199288 0)
(1.01062 0.0249592 0)
(1.00506 0.0314077 0)
(0.998169 0.0396936 0)
(0.989713 0.0502697 0)
(0.979849 0.0639663 0)
(0.968131 0.080939 0)
(0.956535 0.104016 0)
(0.943544 0.128527 0)
(1.00005 0.000437553 0)
(1.00041 0.0012151 0)
(1.00106 0.00175793 0)
(1.00184 0.00208869 0)
(1.00264 0.00231826 0)
(1.00346 0.00249309 0)
(1.00431 0.0026057 0)
(1.00518 0.00266031 0)
(1.00605 0.00267668 0)
(1.0069 0.00266926 0)
(1.00774 0.00264446 0)
(1.00856 0.00260709 0)
(1.00937 0.00256224 0)
(1.01016 0.00251412 0)
(1.01093 0.00246553 0)
(1.01168 0.00241833 0)
(1.01241 0.00237379 0)
(1.01314 0.00233274 0)
(1.01384 0.00229561 0)
(1.01454 0.00226257 0)
(1.01523 0.00223359 0)
(1.0159 0.00220857 0)
(1.01657 0.00218734 0)
(1.01723 0.00216974 0)
(1.01789 0.00215569 0)
(1.01853 0.00214515 0)
(1.01917 0.00213823 0)
(1.0198 0.00213517 0)
(1.02043 0.0021364 0)
(1.02104 0.00214259 0)
(1.02165 0.00215466 0)
(1.02224 0.00217389 0)
(1.02282 0.00220198 0)
(1.02339 0.00224116 0)
(1.02394 0.00229435 0)
(1.02447 0.00236534 0)
(1.02496 0.00245902 0)
(1.02543 0.00258167 0)
(1.02585 0.00274135 0)
(1.02621 0.00294839 0)
(1.02651 0.003216 0)
(1.02673 0.00356104 0)
(1.02685 0.00400504 0)
(1.02683 0.00457553 0)
(1.02666 0.00530765 0)
(1.02628 0.00624632 0)
(1.02564 0.00744896 0)
(1.02469 0.00898897 0)
(1.02334 0.0109602 0)
(1.0215 0.0134827 0)
(1.01905 0.0167098 0)
(1.01586 0.0208369 0)
(1.01176 0.0261147 0)
(1.00659 0.0328551 0)
(1.00019 0.041471 0)
(0.992365 0.0524105 0)
(0.983249 0.06643 0)
(0.972555 0.0837569 0)
(0.961872 0.106633 0)
(0.950396 0.131679 0)
(1.00004 0.000387796 0)
(1.00037 0.00108696 0)
(1.00097 0.00159329 0)
(1.00172 0.00191092 0)
(1.0025 0.00212823 0)
(1.0033 0.00229197 0)
(1.00413 0.00239984 0)
(1.00499 0.00245418 0)
(1.00585 0.00247177 0)
(1.0067 0.00246658 0)
(1.00754 0.00244514 0)
(1.00836 0.00241183 0)
(1.00916 0.00237129 0)
(1.00995 0.00232745 0)
(1.01072 0.00228301 0)
(1.01147 0.00223973 0)
(1.01221 0.00219881 0)
(1.01293 0.00216104 0)
(1.01364 0.00212688 0)
(1.01433 0.00209651 0)
(1.01502 0.00206993 0)
(1.0157 0.00204707 0)
(1.01637 0.00202781 0)
(1.01703 0.00201205 0)
(1.01768 0.00199974 0)
(1.01833 0.0019909 0)
(1.01897 0.0019857 0)
(1.0196 0.00198442 0)
(1.02022 0.00198757 0)
(1.02084 0.00199588 0)
(1.02145 0.00201037 0)
(1.02204 0.0020324 0)
(1.02263 0.00206381 0)
(1.0232 0.00210698 0)
(1.02375 0.00216502 0)
(1.02428 0.00224193 0)
(1.02478 0.0023429 0)
(1.02525 0.00247456 0)
(1.02568 0.00264543 0)
(1.02606 0.00286639 0)
(1.02638 0.00315135 0)
(1.02662 0.00351805 0)
(1.02676 0.00398914 0)
(1.02678 0.00459352 0)
(1.02665 0.00536807 0)
(1.02633 0.00635984 0)
(1.02576 0.00762887 0)
(1.02491 0.00925174 0)
(1.02368 0.0113261 0)
(1.02199 0.0139762 0)
(1.01974 0.0173604 0)
(1.01679 0.0216788 0)
(1.01301 0.0271858 0)
(1.00823 0.0341953 0)
(1.00233 0.0431129 0)
(0.995148 0.0543811 0)
(0.986789 0.0686893 0)
(0.97708 0.0863133 0)
(0.967379 0.10903 0)
(0.957166 0.13433 0)
(1.00004 0.000343415 0)
(1.00034 0.000969603 0)
(1.00089 0.001437 0)
(1.00161 0.00173819 0)
(1.00237 0.00194255 0)
(1.00316 0.0020948 0)
(1.00398 0.00219685 0)
(1.00483 0.00225004 0)
(1.00568 0.00226839 0)
(1.00652 0.00226506 0)
(1.00736 0.00224661 0)
(1.00817 0.00221708 0)
(1.00898 0.00218063 0)
(1.00976 0.00214092 0)
(1.01053 0.00210052 0)
(1.01128 0.00206107 0)
(1.01202 0.00202372 0)
(1.01274 0.00198923 0)
(1.01345 0.00195803 0)
(1.01415 0.00193032 0)
(1.01484 0.00190615 0)
(1.01552 0.00188546 0)
(1.01618 0.00186818 0)
(1.01685 0.00185426 0)
(1.0175 0.00184369 0)
(1.01815 0.00183655 0)
(1.01879 0.00183304 0)
(1.01942 0.00183352 0)
(1.02005 0.00183854 0)
(1.02066 0.00184892 0)
(1.02127 0.00186573 0)
(1.02187 0.00189047 0)
(1.02246 0.00192506 0)
(1.02303 0.00197203 0)
(1.02358 0.00203468 0)
(1.02412 0.00211721 0)
(1.02463 0.00222509 0)
(1.02511 0.00236527 0)
(1.02555 0.0025467 0)
(1.02594 0.00278078 0)
(1.02628 0.00308206 0)
(1.02654 0.00346912 0)
(1.02671 0.00396562 0)
(1.02676 0.00460176 0)
(1.02668 0.00541601 0)
(1.02642 0.0064574 0)
(1.02593 0.00778838 0)
(1.02517 0.00948845 0)
(1.02407 0.0116587 0)
(1.02254 0.0144274 0)
(1.02049 0.0179571 0)
(1.0178 0.0224521 0)
(1.01434 0.02817 0)
(1.00998 0.0354258 0)
(1.00459 0.0446179 0)
(0.998038 0.0561814 0)
(0.990436 0.0707465 0)
(0.981674 0.0886152 0)
(0.972955 0.1112 0)
(0.963905 0.136577 0)
(1.00003 0.000303298 0)
(1.00031 0.000861296 0)
(1.00083 0.00128831 0)
(1.00151 0.00157023 0)
(1.00226 0.00176078 0)
(1.00303 0.00190119 0)
(1.00385 0.00199655 0)
(1.00468 0.00204777 0)
(1.00553 0.00206641 0)
(1.00637 0.0020646 0)
(1.0072 0.00204882 0)
(1.00801 0.0020228 0)
(1.00881 0.00199024 0)
(1.0096 0.00195453 0)
(1.01037 0.00191806 0)
(1.01112 0.00188238 0)
(1.01186 0.00184856 0)
(1.01258 0.00181731 0)
(1.01329 0.00178905 0)
(1.01399 0.00176401 0)
(1.01468 0.00174224 0)
(1.01535 0.00172372 0)
(1.01602 0.00170843 0)
(1.01669 0.00169635 0)
(1.01734 0.00168751 0)
(1.01799 0.00168205 0)
(1.01863 0.00168021 0)
(1.01926 0.00168241 0)
(1.01989 0.00168927 0)
(1.02051 0.00170164 0)
(1.02112 0.00172071 0)
(1.02172 0.00174803 0)
(1.02231 0.00178565 0)
(1.02288 0.00183625 0)
(1.02344 0.00190325 0)
(1.02398 0.00199109 0)
(1.0245 0.00210547 0)
(1.02499 0.00225366 0)
(1.02544 0.00244499 0)
(1.02585 0.00269133 0)
(1.0262 0.00300786 0)
(1.02648 0.0034139 0)
(1.02668 0.00393406 0)
(1.02678 0.00459973 0)
(1.02674 0.00545084 0)
(1.02654 0.00653823 0)
(1.02614 0.00792655 0)
(1.02548 0.00969797 0)
(1.0245 0.0119567 0)
(1.02314 0.0148345 0)
(1.0213 0.0184978 0)
(1.01887 0.0231547 0)
(1.01575 0.0290651 0)
(1.0118 0.0365447 0)
(1.00693 0.045985 0)
(1.00102 0.0578122 0)
(0.994169 0.0726051 0)
(0.986318 0.0906743 0)
(0.978546 0.113145 0)
(0.970573 0.13849 0)
(1.00003 0.000266595 0)
(1.00029 0.000760562 0)
(1.00078 0.00114642 0)
(1.00143 0.00140673 0)
(1.00216 0.00158253 0)
(1.00293 0.0017108 0)
(1.00373 0.00179875 0)
(1.00456 0.00184726 0)
(1.0054 0.00186572 0)
(1.00623 0.00186512 0)
(1.00706 0.00185171 0)
(1.00787 0.00182895 0)
(1.00867 0.00180011 0)
(1.00945 0.00176826 0)
(1.01022 0.00173563 0)
(1.01097 0.00170365 0)
(1.01171 0.00167331 0)
(1.01243 0.00164527 0)
(1.01315 0.00161995 0)
(1.01384 0.00159757 0)
(1.01453 0.0015782 0)
(1.01521 0.00156186 0)
(1.01588 0.00154856 0)
(1.01654 0.00153831 0)
(1.0172 0.0015312 0)
(1.01785 0.0015274 0)
(1.01849 0.00152721 0)
(1.01912 0.0015311 0)
(1.01975 0.00153973 0)
(1.02037 0.00155403 0)
(1.02098 0.00157526 0)
(1.02158 0.00160505 0)
(1.02218 0.00164555 0)
(1.02275 0.00169956 0)
(1.02332 0.00177067 0)
(1.02386 0.00186349 0)
(1.02439 0.00198395 0)
(1.02488 0.0021396 0)
(1.02535 0.00234014 0)
(1.02577 0.00259787 0)
(1.02614 0.00292852 0)
(1.02645 0.00335211 0)
(1.02669 0.00389411 0)
(1.02682 0.00458699 0)
(1.02684 0.005472 0)
(1.0267 0.00660163 0)
(1.02638 0.00804254 0)
(1.02583 0.00987925 0)
(1.02499 0.0122188 0)
(1.02379 0.0151962 0)
(1.02216 0.018981 0)
(1.02001 0.0237847 0)
(1.01723 0.0298692 0)
(1.01371 0.0375505 0)
(1.00935 0.0472134 0)
(1.00408 0.0592749 0)
(0.997972 0.0742687 0)
(0.991001 0.0925029 0)
(0.984132 0.114873 0)
(0.977145 0.140123 0)
(1.00003 0.000232642 0)
(1.00027 0.000666151 0)
(1.00073 0.00101056 0)
(1.00137 0.00124733 0)
(1.00208 0.00140745 0)
(1.00283 0.00152328 0)
(1.00363 0.00160325 0)
(1.00445 0.00164836 0)
(1.00528 0.00166621 0)
(1.00611 0.00166651 0)
(1.00693 0.00165522 0)
(1.00774 0.00163549 0)
(1.00854 0.0016102 0)
(1.00933 0.0015821 0)
(1.01009 0.00155322 0)
(1.01085 0.00152489 0)
(1.01158 0.00149799 0)
(1.01231 0.00147314 0)
(1.01302 0.00145074 0)
(1.01372 0.001431 0)
(1.01441 0.00141403 0)
(1.01509 0.00139987 0)
(1.01576 0.00138855 0)
(1.01642 0.00138013 0)
(1.01708 0.00137474 0)
(1.01773 0.00137258 0)
(1.01837 0.00137402 0)
(1.019 0.00137955 0)
(1.01963 0.00138991 0)
(1.02025 0.00140607 0)
(1.02087 0.00142936 0)
(1.02147 0.00146149 0)
(1.02206 0.00150471 0)
(1.02265 0.00156193 0)
(1.02322 0.00163687 0)
(1.02377 0.00173433 0)
(1.0243 0.00186042 0)
(1.0248 0.00202298 0)
(1.02528 0.002232 0)
(1.02572 0.00250021 0)
(1.02611 0.00284382 0)
(1.02645 0.00328348 0)
(1.02671 0.00384544 0)
(1.02689 0.00456313 0)
(1.02696 0.005479 0)
(1.02689 0.00664701 0)
(1.02665 0.00813558 0)
(1.02621 0.0100314 0)
(1.02551 0.0124439 0)
(1.02449 0.015511 0)
(1.02308 0.0194051 0)
(1.0212 0.0243405 0)
(1.01877 0.0305808 0)
(1.01568 0.0384421 0)
(1.01185 0.0483027 0)
(1.00721 0.0605709 0)
(1.00183 0.0757412 0)
(0.995714 0.0941124 0)
(0.989708 0.116394 0)
(0.983617 0.14152 0)
(1.00003 0.000200912 0)
(1.00025 0.000577001 0)
(1.0007 0.000879969 0)
(1.00131 0.00109166 0)
(1.00201 0.00123521 0)
(1.00275 0.0013383 0)
(1.00354 0.00140981 0)
(1.00435 0.00145092 0)
(1.00518 0.00146774 0)
(1.00601 0.0014687 0)
(1.00683 0.00145928 0)
(1.00764 0.00144239 0)
(1.00843 0.00142051 0)
(1.00922 0.00139604 0)
(1.00998 0.00137083 0)
(1.01074 0.00134608 0)
(1.01147 0.00132258 0)
(1.0122 0.0013009 0)
(1.01291 0.00128141 0)
(1.01361 0.00126432 0)
(1.0143 0.00124975 0)
(1.01498 0.00123776 0)
(1.01565 0.00122841 0)
(1.01631 0.00122182 0)
(1.01697 0.00121813 0)
(1.01762 0.0012176 0)
(1.01826 0.00122063 0)
(1.0189 0.00122777 0)
(1.01953 0.00123979 0)
(1.02015 0.00125773 0)
(1.02077 0.00128298 0)
(1.02137 0.00131732 0)
(1.02197 0.0013631 0)
(1.02256 0.0014233 0)
(1.02313 0.0015018 0)
(1.02369 0.00160353 0)
(1.02423 0.00173481 0)
(1.02474 0.0019037 0)
(1.02523 0.00212047 0)
(1.02569 0.00239821 0)
(1.0261 0.00275358 0)
(1.02646 0.00320778 0)
(1.02676 0.00378776 0)
(1.02698 0.00452779 0)
(1.0271 0.00547139 0)
(1.0271 0.00667379 0)
(1.02695 0.008205 0)
(1.02662 0.0101535 0)
(1.02606 0.0126311 0)
(1.02522 0.0157778 0)
(1.02404 0.0197688 0)
(1.02245 0.0248208 0)
(1.02036 0.0311986 0)
(1.01771 0.0392182 0)
(1.01441 0.0492526 0)
(1.0104 0.0617016 0)
(1.00575 0.0770266 0)
(1.00045 0.0955129 0)
(0.995272 0.11772 0)
(0.989998 0.142715 0)
(1.00003 0.000170977 0)
(1.00024 0.000492199 0)
(1.00067 0.000753911 0)
(1.00126 0.000939319 0)
(1.00195 0.00106546 0)
(1.00268 0.00115552 0)
(1.00346 0.00121819 0)
(1.00427 0.00125481 0)
(1.00509 0.00127021 0)
(1.00592 0.00127158 0)
(1.00673 0.00126385 0)
(1.00754 0.00124962 0)
(1.00834 0.00123099 0)
(1.00912 0.00121006 0)
(1.00989 0.00118846 0)
(1.01064 0.00116724 0)
(1.01138 0.00114712 0)
(1.0121 0.00112858 0)
(1.01282 0.00111198 0)
(1.01352 0.00109753 0)
(1.01421 0.00108535 0)
(1.01489 0.00107552 0)
(1.01556 0.00106815 0)
(1.01622 0.00106337 0)
(1.01688 0.00106137 0)
(1.01753 0.00106244 0)
(1.01817 0.00106703 0)
(1.01881 0.00107573 0)
(1.01944 0.00108935 0)
(1.02007 0.001109 0)
(1.02068 0.0011361 0)
(1.02129 0.00117252 0)
(1.02189 0.00122067 0)
(1.02248 0.00128365 0)
(1.02306 0.00136542 0)
(1.02362 0.00147106 0)
(1.02417 0.00160705 0)
(1.0247 0.00178166 0)
(1.0252 0.00200542 0)
(1.02567 0.00229173 0)
(1.0261 0.00265763 0)
(1.02649 0.0031248 0)
(1.02683 0.00372081 0)
(1.02709 0.00448065 0)
(1.02727 0.00544877 0)
(1.02734 0.00668151 0)
(1.02728 0.00825022 0)
(1.02706 0.010245 0)
(1.02665 0.0127794 0)
(1.02599 0.0159957 0)
(1.02504 0.0200711 0)
(1.02373 0.0252242 0)
(1.02201 0.0317213 0)
(1.01979 0.0398781 0)
(1.01702 0.0500631 0)
(1.01364 0.0626685 0)
(1.00971 0.0781281 0)
(1.00521 0.096713 0)
(1.00082 0.118862 0)
(0.996301 0.143734 0)
(1.00003 0.000142485 0)
(1.00023 0.000410955 0)
(1.00064 0.000631692 0)
(1.00122 0.000789881 0)
(1.0019 0.000897881 0)
(1.00263 0.000974635 0)
(1.0034 0.00102816 0)
(1.0042 0.00105985 0)
(1.00502 0.0010735 0)
(1.00584 0.00107507 0)
(1.00666 0.00106885 0)
(1.00746 0.00105712 0)
(1.00826 0.00104164 0)
(1.00904 0.00102417 0)
(1.00981 0.00100611 0)
(1.01056 0.000988377 0)
(1.0113 0.000971586 0)
(1.01202 0.000956176 0)
(1.01274 0.000942459 0)
(1.01344 0.000930635 0)
(1.01413 0.000920837 0)
(1.01481 0.000913174 0)
(1.01548 0.000907768 0)
(1.01615 0.000904783 0)
(1.0168 0.000904452 0)
(1.01745 0.000907107 0)
(1.0181 0.000913219 0)
(1.01874 0.000923428 0)
(1.01937 0.000938597 0)
(1.01999 0.000959862 0)
(1.02061 0.000988712 0)
(1.02122 0.00102707 0)
(1.02183 0.00107741 0)
(1.02242 0.00114292 0)
(1.02301 0.00122766 0)
(1.02358 0.00133684 0)
(1.02413 0.00147706 0)
(1.02467 0.00165679 0)
(1.02518 0.00188676 0)
(1.02567 0.00218064 0)
(1.02613 0.00255581 0)
(1.02654 0.00303436 0)
(1.02691 0.00364436 0)
(1.02722 0.00442144 0)
(1.02746 0.0054108 0)
(1.0276 0.00666973 0)
(1.02764 0.0082707 0)
(1.02753 0.0103052 0)
(1.02727 0.0128882 0)
(1.02679 0.0161637 0)
(1.02608 0.0203108 0)
(1.02506 0.0255497 0)
(1.0237 0.0321479 0)
(1.02192 0.0404209 0)
(1.01968 0.0507338 0)
(1.01693 0.0634728 0)
(1.01372 0.079049 0)
(1.01 0.0977203 0)
(1.00637 0.119828 0)
(1.00254 0.144599 0)
(1.00002 0.00011514 0)
(1.00022 0.000332579 0)
(1.00062 0.000512652 0)
(1.00119 0.000642915 0)
(1.00186 0.000732146 0)
(1.00258 0.000795341 0)
(1.00335 0.000839474 0)
(1.00414 0.000865885 0)
(1.00496 0.000877491 0)
(1.00578 0.000879071 0)
(1.00659 0.000874229 0)
(1.0074 0.00086487 0)
(1.00819 0.000852426 0)
(1.00898 0.000838334 0)
(1.00974 0.000823763 0)
(1.0105 0.000809481 0)
(1.01123 0.000796 0)
(1.01196 0.000783697 0)
(1.01267 0.000772849 0)
(1.01337 0.000763646 0)
(1.01406 0.000756225 0)
(1.01475 0.000750716 0)
(1.01542 0.000747265 0)
(1.01608 0.000746066 0)
(1.01674 0.000747385 0)
(1.01739 0.000751591 0)
(1.01804 0.00075919 0)
(1.01868 0.00077086 0)
(1.01931 0.000787504 0)
(1.01994 0.000810302 0)
(1.02056 0.000840787 0)
(1.02117 0.000880937 0)
(1.02178 0.00093329 0)
(1.02238 0.0010011 0)
(1.02297 0.00108851 0)
(1.02354 0.00120083 0)
(1.02411 0.0013448 0)
(1.02465 0.00152902 0)
(1.02518 0.0017644 0)
(1.02569 0.00206485 0)
(1.02617 0.00244801 0)
(1.02661 0.0029363 0)
(1.02702 0.00355822 0)
(1.02737 0.0043499 0)
(1.02766 0.00535718 0)
(1.02788 0.0066381 0)
(1.02801 0.00826603 0)
(1.02803 0.0103335 0)
(1.02791 0.0129567 0)
(1.02762 0.0162811 0)
(1.02714 0.0204872 0)
(1.02642 0.0257966 0)
(1.02542 0.0324776 0)
(1.02409 0.0408461 0)
(1.02239 0.0512647 0)
(1.02026 0.0641152 0)
(1.01776 0.0797917 0)
(1.0148 0.0985409 0)
(1.01191 0.120628 0)
(1.00873 0.145327 0)
(1.00002 8.86848e-05 0)
(1.00022 0.000256454 0)
(1.00061 0.000396166 0)
(1.00116 0.000497975 0)
(1.00182 0.000567924 0)
(1.00254 0.000617339 0)
(1.00331 0.000651882 0)
(1.0041 0.000672734 0)
(1.00491 0.000682053 0)
(1.00573 0.000683492 0)
(1.00654 0.000679906 0)
(1.00735 0.000672813 0)
(1.00814 0.000663323 0)