/*--------------------------------*- C++ -*----------------------------------*\
| =========                 |                                                 |
| \\      /  F ield         | OpenFOAM: The Open Source CFD Toolbox           |
|  \\    /   O peration     | Version:  2.4.0                                 |
|   \\  /    A nd           | Web:      www.OpenFOAM.org                      |
|    \\/     M anipulation  |                                                 |
\*---------------------------------------------------------------------------*/
FoamFile
{
    version     2.0;
    format      ascii;
    class       surfaceScalarField;
    location    "0.06";
    object      phi;
}
// * * * * * * * * * * * * * * * * * * * * * * * * * * * * * * * * * * * * * //

dimensions      [0 3 -1 0 0 0 0];

internalField   nonuniform List<scalar> 
11840
(
3.58664e-06
6.41336e-06
3.73575e-06
-1.49107e-07
5.20403e-06
-1.46829e-06
6.74435e-06
-1.54032e-06
7.62375e-06
-8.79393e-07
7.97155e-06
-3.478e-07
8.1613e-06
-1.89748e-07
8.31659e-06
-1.55291e-07
8.44301e-06
-1.26418e-07
8.54365e-06
-1.00649e-07
8.62523e-06
-8.15748e-08
8.69256e-06
-6.73293e-08
8.74911e-06
-5.65549e-08
8.79738e-06
-4.8271e-08
8.83907e-06
-4.16821e-08
8.87536e-06
-3.62932e-08
8.90716e-06
-3.18022e-08
8.93514e-06
-2.7982e-08
8.95982e-06
-2.46732e-08
8.98158e-06
-2.17585e-08
9.00073e-06
-1.91523e-08
9.01752e-06
-1.67893e-08
9.03214e-06
-1.46206e-08
9.04474e-06
-1.26063e-08
9.05546e-06
-1.07191e-08
9.06443e-06
-8.96534e-09
9.07169e-06
-7.25659e-09
9.07728e-06
-5.59674e-09
9.08124e-06
-3.96031e-09
9.08372e-06
-2.47353e-09
9.08452e-06
-8.00895e-10
9.08362e-06
8.95768e-10
9.08117e-06
2.45599e-09
9.07722e-06
3.94269e-09
9.07178e-06
5.44242e-09
9.06482e-06
6.96137e-09
9.05632e-06
8.50255e-09
9.04624e-06
1.0077e-08
9.03455e-06
1.16935e-08
9.02118e-06
1.33622e-08
9.00609e-06
1.50934e-08
8.98919e-06
1.69039e-08
8.97039e-06
1.8793e-08
8.94961e-06
2.0786e-08
8.9267e-06
2.29049e-08
8.90153e-06
2.51684e-08
8.87393e-06
2.75995e-08
8.8437e-06
3.02332e-08
8.8106e-06
3.31043e-08
8.77436e-06
3.62389e-08
8.73466e-06
3.97007e-08
8.69113e-06
4.35232e-08
8.64326e-06
4.78748e-08
8.59114e-06
5.2123e-08
8.53238e-06
5.87548e-08
8.47594e-06
5.64412e-08
8.39743e-06
7.85127e-08
8.4031e-06
-5.67625e-09
8.16331e-06
2.39798e-07
-5.70585e-07
5.56099e-06
1.08524e-05
5.17871e-06
2.33173e-07
6.19313e-06
-2.4827e-06
7.68485e-06
-3.03205e-06
8.61459e-06
-1.80913e-06
8.98625e-06
-7.19457e-07
9.14889e-06
-3.5239e-07
9.26411e-06
-2.70511e-07
9.35612e-06
-2.18433e-07
9.42722e-06
-1.71746e-07
9.48226e-06
-1.36616e-07
9.52592e-06
-1.10984e-07
9.56148e-06
-9.21205e-08
9.59112e-06
-7.79103e-08
9.61625e-06
-6.68065e-08
9.63783e-06
-5.78746e-08
9.65655e-06
-5.05272e-08
9.67292e-06
-4.43461e-08
9.68727e-06
-3.90305e-08
9.69989e-06
-3.43727e-08
9.71096e-06
-3.02193e-08
9.72062e-06
-2.64559e-08
9.729e-06
-2.29969e-08
9.73617e-06
-1.97756e-08
9.74219e-06
-1.67443e-08
9.74714e-06
-1.39073e-08
9.75106e-06
-1.11857e-08
9.75397e-06
-8.50117e-09
9.75581e-06
-5.80271e-09
9.75675e-06
-3.40846e-09
9.7568e-06
-8.56285e-10
9.75607e-06
1.62713e-09
9.75446e-06
4.06224e-09
9.75192e-06
6.48174e-09
9.74844e-06
8.92961e-09
9.74401e-06
1.13937e-08
9.73863e-06
1.38816e-08
9.73229e-06
1.64114e-08
9.72499e-06
1.89944e-08
9.71671e-06
2.16443e-08
9.70743e-06
2.43757e-08
9.69711e-06
2.72158e-08
9.68575e-06
3.01558e-08
9.6733e-06
3.32331e-08
9.65973e-06
3.64809e-08
9.64497e-06
3.99232e-08
9.62898e-06
4.35959e-08
9.61167e-06
4.75403e-08
9.59296e-06
5.18147e-08
9.57275e-06
5.64519e-08
9.55091e-06
6.15353e-08
9.52733e-06
6.71014e-08
9.50182e-06
7.33919e-08
9.47452e-06
7.94241e-08
9.44436e-06
8.89084e-08
9.41544e-06
8.53591e-08
9.37724e-06
1.16714e-07
9.38173e-06
-1.01608e-08
9.33817e-06
2.83358e-07
-9.87546e-07
6.1687e-06
1.46837e-05
5.65469e-06
7.47188e-07
6.53248e-06
-3.36049e-06
7.94586e-06
-4.44542e-06
8.87134e-06
-2.73461e-06
9.25433e-06
-1.10245e-06
9.4086e-06
-5.06661e-07
9.50668e-06
-3.6859e-07
9.5828e-06
-2.94558e-07
9.64003e-06
-2.28971e-07
9.68261e-06
-1.79194e-07
9.71506e-06
-1.43441e-07
9.74057e-06
-1.1763e-07
9.76116e-06
-9.84946e-08
9.77812e-06
-8.37734e-08
9.79235e-06
-7.21025e-08
9.80445e-06
-6.26289e-08
9.81485e-06
-5.47423e-08
9.82385e-06
-4.80262e-08
9.83166e-06
-4.21846e-08
9.83844e-06
-3.7003e-08
9.84431e-06
-3.23269e-08
9.84936e-06
-2.80411e-08
9.85364e-06
-2.40591e-08
9.85721e-06
-2.0318e-08
9.86011e-06
-1.68029e-08
9.86235e-06
-1.3422e-08
9.86394e-06
-1.00977e-08
9.86488e-06
-6.74594e-09
9.8653e-06
-3.82074e-09
9.86511e-06
-6.69784e-10
9.86437e-06
2.37149e-09
9.86305e-06
5.37617e-09
9.86116e-06
8.37173e-09
9.85869e-06
1.14031e-08
9.85563e-06
1.44563e-08
9.85198e-06
1.75323e-08
9.84773e-06
2.06543e-08
9.84289e-06
2.38364e-08
9.83744e-06
2.70937e-08
9.83137e-06
3.04442e-08
9.82467e-06
3.39143e-08
9.81733e-06
3.75046e-08
9.80931e-06
4.12495e-08
9.8006e-06
4.51865e-08
9.79118e-06
4.93476e-08
9.78101e-06
5.37702e-08
9.77004e-06
5.85076e-08
9.75823e-06
6.36221e-08
9.74553e-06
6.91475e-08
9.7319e-06
7.51724e-08
9.71727e-06
8.17275e-08
9.70163e-06
8.90347e-08
9.68502e-06
9.60328e-08
9.66782e-06
1.06113e-07
9.64991e-06
1.03267e-07
9.63822e-06
1.28406e-07
9.63206e-06
-4.00436e-09
9.66006e-06
2.55358e-07
-1.31422e-06
6.48008e-06
1.82036e-05
5.89996e-06
1.32731e-06
6.70746e-06
-4.168e-06
8.04211e-06
-5.78007e-06
8.94426e-06
-3.63676e-06
9.33112e-06
-1.4893e-06
9.48436e-06
-6.59906e-07
9.57585e-06
-4.60075e-07
9.6449e-06
-3.63609e-07
9.69591e-06
-2.79985e-07
9.73317e-06
-2.16451e-07
9.7611e-06
-1.7137e-07
9.78276e-06
-1.39291e-07
9.80008e-06
-1.15821e-07
9.8143e-06
-9.79921e-08
9.82622e-06
-8.40251e-08
9.83639e-06
-7.27968e-08
9.84518e-06
-6.35291e-08
9.85284e-06
-5.56846e-08
9.85954e-06
-4.88879e-08
9.86541e-06
-4.28741e-08
9.87054e-06
-3.74503e-08
9.87497e-06
-3.24776e-08
9.87876e-06
-2.78498e-08
9.88194e-06
-2.34935e-08
9.88451e-06
-1.93775e-08
9.8865e-06
-1.541e-08
9.88792e-06
-1.15154e-08
9.88882e-06
-7.64771e-09
9.88919e-06
-4.18906e-09
9.88894e-06
-4.24758e-10
9.88816e-06
3.15226e-09
9.88685e-06
6.68653e-09
9.88501e-06
1.02169e-08
9.88263e-06
1.37789e-08
9.87974e-06
1.73515e-08
9.87632e-06
2.09469e-08
9.87239e-06
2.45828e-08
9.86796e-06
2.82711e-08
9.86302e-06
3.2029e-08
9.8576e-06
3.58719e-08
9.85168e-06
3.98264e-08
9.84529e-06
4.38948e-08
9.83843e-06
4.81102e-08
9.83111e-06
5.25114e-08
9.82332e-06
5.71311e-08
9.81508e-06
6.20117e-08
9.80638e-06
6.72099e-08
9.79721e-06
7.27935e-08
9.78756e-06
7.87932e-08
9.77743e-06
8.53024e-08
9.76681e-06
9.23515e-08
9.75573e-06
1.00113e-07
9.74417e-06
1.07591e-07
9.73309e-06
1.172e-07
9.72043e-06
1.15922e-07
9.7206e-06
1.28233e-07
9.71047e-06
6.13237e-09
9.77059e-06
1.95239e-07
-1.57805e-06
6.73261e-06
2.1471e-05
6.1027e-06
1.95722e-06
6.84155e-06
-4.90685e-06
8.09469e-06
-7.03321e-06
8.96898e-06
-4.51105e-06
9.35851e-06
-1.87882e-06
9.51537e-06
-8.1677e-07
9.60615e-06
-5.50855e-07
9.67309e-06
-4.30553e-07
9.7221e-06
-3.28993e-07
9.75764e-06
-2.51985e-07
9.78404e-06
-1.97776e-07
9.80432e-06
-1.59567e-07
9.82036e-06
-1.31866e-07
9.83339e-06
-1.11019e-07
9.8442e-06
-9.48301e-08
9.85332e-06
-8.19178e-08
9.86112e-06
-7.13327e-08
9.86786e-06
-6.24224e-08
9.87371e-06
-5.47368e-08
9.87879e-06
-4.79566e-08
9.88319e-06
-4.18552e-08
9.88698e-06
-3.62666e-08
9.8902e-06
-3.10701e-08
9.89289e-06
-2.61768e-08
9.89505e-06
-2.15429e-08
9.89672e-06
-1.70779e-08
9.89791e-06
-1.27071e-08
9.89865e-06
-8.38981e-09
9.89884e-06
-4.37697e-09
9.89864e-06
-2.26664e-10
9.898e-06
3.80035e-09
9.89688e-06
7.80298e-09
9.89531e-06
1.17861e-08
9.8933e-06
1.57911e-08
9.89084e-06
1.98078e-08
9.88794e-06
2.38457e-08
9.88461e-06
2.79196e-08
9.88083e-06
3.20448e-08
9.87663e-06
3.62357e-08
9.87199e-06
4.05098e-08
9.86692e-06
4.48895e-08
9.86144e-06
4.93809e-08
9.85553e-06
5.4015e-08
9.84922e-06
5.88294e-08
9.84249e-06
6.38565e-08
9.83536e-06
6.91391e-08
9.82784e-06
7.47372e-08
9.81991e-06
8.07159e-08
9.81161e-06
8.70968e-08
9.80294e-06
9.39705e-08
9.79394e-06
1.01357e-07
9.78468e-06
1.09368e-07
9.77521e-06
1.17065e-07
9.7666e-06
1.25811e-07
9.75668e-06
1.25837e-07
9.76066e-06
1.24259e-07
9.75267e-06
1.4118e-08
9.82217e-06
1.25737e-07
-1.80557e-06
6.97998e-06
2.4491e-05
6.30761e-06
2.6296e-06
6.96894e-06
-5.56818e-06
8.13715e-06
-8.20143e-06
8.98019e-06
-5.35409e-06
9.37056e-06
-2.2692e-06
9.53174e-06
-9.77955e-07
9.62326e-06
-6.42374e-07
9.68923e-06
-4.96521e-07
9.73707e-06
-3.76827e-07
9.77158e-06
-2.86497e-07
9.79711e-06
-2.23305e-07
9.81662e-06
-1.7908e-07
9.83201e-06
-1.47257e-07
9.84448e-06
-1.23492e-07
9.85482e-06
-1.05172e-07
9.86356e-06
-9.06558e-08
9.87105e-06
-7.88237e-08
9.87754e-06
-6.89094e-08
9.88319e-06
-6.03858e-08
9.88812e-06
-5.28837e-08
9.8924e-06
-4.6141e-08
9.8961e-06
-3.99669e-08
9.89926e-06
-3.42245e-08
9.9019e-06
-2.88149e-08
9.90403e-06
-2.36798e-08
9.90568e-06
-1.87282e-08
9.90686e-06
-1.38863e-08
9.90759e-06
-9.1178e-09
9.90785e-06
-4.64077e-09
9.90765e-06
-2.59951e-11
9.90701e-06
4.44822e-09
9.90591e-06
8.89555e-09
9.90438e-06
1.33205e-08
9.90241e-06
1.7761e-08
9.90001e-06
2.22086e-08
9.89718e-06
2.66713e-08
9.89394e-06
3.11648e-08
9.89028e-06
3.57023e-08
9.88622e-06
4.02969e-08
9.88176e-06
4.4966e-08
9.87692e-06
4.973e-08
9.87171e-06
5.45957e-08
9.86613e-06
5.95923e-08
9.8602e-06
6.47554e-08
9.85394e-06
7.0117e-08
9.84736e-06
7.572e-08
9.84047e-06
8.16267e-08
9.83329e-06
8.78984e-08
9.82584e-06
9.4549e-08
9.81814e-06
1.01665e-07
9.81025e-06
1.09252e-07
9.80225e-06
1.17363e-07
9.79421e-06
1.25109e-07
9.78719e-06
1.3283e-07
9.77926e-06
1.33764e-07
9.78491e-06
1.18608e-07
9.77979e-06
1.92419e-08
9.85127e-06
5.42543e-08
-2.01033e-06
7.22439e-06
2.72666e-05
6.5151e-06
3.33888e-06
7.09578e-06
-6.14887e-06
8.17939e-06
-9.28504e-06
8.98971e-06
-6.1644e-06
9.37983e-06
-2.65932e-06
9.54566e-06
-1.14379e-06
9.63883e-06
-7.3554e-07
9.70473e-06
-5.6242e-07
9.75216e-06
-4.24261e-07
9.78627e-06
-3.20607e-07
9.81139e-06
-2.48425e-07
9.83047e-06
-1.98161e-07
9.84541e-06
-1.62195e-07
9.85742e-06
-1.35496e-07
9.86728e-06
-1.15037e-07
9.87554e-06
-9.89164e-08
9.88256e-06
-8.58432e-08
9.88859e-06
-7.49367e-08
9.8938e-06
-6.55944e-08
9.89831e-06
-5.73946e-08
9.90221e-06
-5.00394e-08
9.90555e-06
-4.33141e-08
9.90839e-06
-3.70644e-08
9.91076e-06
-3.11788e-08
9.91266e-06
-2.55869e-08
9.91413e-06
-2.01964e-08
9.91518e-06
-1.49336e-08
9.91583e-06
-9.76377e-09
9.91603e-06
-4.84765e-09
9.91586e-06
1.44496e-10
9.91528e-06
5.02736e-09
9.91431e-06
9.86722e-09
9.91295e-06
1.46871e-08
9.91119e-06
1.95141e-08
9.90905e-06
2.43464e-08
9.90653e-06
2.91911e-08
9.90364e-06
3.40628e-08
9.90036e-06
3.89747e-08
9.89672e-06
4.39397e-08
9.89271e-06
4.89736e-08
9.88835e-06
5.40955e-08
9.88363e-06
5.9314e-08
9.87857e-06
6.46559e-08
9.87317e-06
7.01547e-08
9.86744e-06
7.58413e-08
9.8614e-06
8.17581e-08
9.85506e-06
8.79697e-08
9.84843e-06
9.45311e-08
9.84153e-06
1.01443e-07
9.83441e-06
1.08788e-07
9.82711e-06
1.16555e-07
9.81975e-06
1.24724e-07
9.81241e-06
1.32451e-07
9.80613e-06
1.39104e-07
9.7993e-06
1.40599e-07
9.80535e-06
1.12558e-07
9.80291e-06
2.16776e-08
9.87269e-06
-1.55287e-08
-2.1966e-06
7.46011e-06
2.98065e-05
6.72025e-06
4.07875e-06
7.22227e-06
-6.65088e-06
8.22388e-06
-1.02867e-05
9.00071e-06
-6.94123e-06
9.38915e-06
-3.04776e-06
9.55898e-06
-1.31361e-06
9.6536e-06
-8.30166e-07
9.71932e-06
-6.28139e-07
9.7662e-06
-4.71137e-07
9.79972e-06
-3.54133e-07
9.82427e-06
-2.72974e-07
9.8428e-06
-2.16685e-07
9.8572e-06
-1.76601e-07
9.86871e-06
-1.47005e-07
9.87812e-06
-1.24448e-07
9.88597e-06
-1.06765e-07
9.89262e-06
-9.24925e-08
9.89832e-06
-8.06342e-08
9.90323e-06
-7.05111e-08
9.90749e-06
-6.16499e-08
9.91117e-06
-5.37163e-08
9.91432e-06
-4.64723e-08
9.917e-06
-3.97447e-08
9.91924e-06
-3.34114e-08
9.92104e-06
-2.73904e-08
9.92243e-06
-2.15866e-08
9.92342e-06
-1.59268e-08
9.92404e-06
-1.03761e-08
9.92425e-06
-5.06046e-09
9.92408e-06
3.09401e-10
9.92355e-06
5.56193e-09
9.92264e-06
1.07768e-08
9.92136e-06
1.5965e-08
9.91972e-06
2.11552e-08
9.91772e-06
2.63463e-08
9.91537e-06
3.15463e-08
9.91266e-06
3.67688e-08
9.90961e-06
4.20251e-08
9.90622e-06
4.73293e-08
9.9025e-06
5.26952e-08
9.89845e-06
5.8141e-08
9.89409e-06
6.36759e-08
9.88942e-06
6.9325e-08
9.88446e-06
7.512e-08
9.87921e-06
8.10911e-08
9.87368e-06
8.72798e-08
9.8679e-06
9.37544e-08
9.86187e-06
1.00565e-07
9.85561e-06
1.07699e-07
9.84916e-06
1.15237e-07
9.84257e-06
1.2315e-07
9.83594e-06
1.31352e-07
9.82937e-06
1.39017e-07
9.82385e-06
1.44628e-07
9.81804e-06
1.4641e-07
9.82417e-06
1.0643e-07
9.8239e-06
2.19433e-08
9.89102e-06
-8.26446e-08
-2.36595e-06
7.68366e-06
3.21228e-05
6.92005e-06
4.84236e-06
7.34784e-06
-7.07867e-06
8.27096e-06
-1.12098e-05
9.01393e-06
-7.68421e-06
9.39929e-06
-3.43312e-06
9.57236e-06
-1.48668e-06
9.66823e-06
-9.26041e-07
9.73377e-06
-6.93677e-07
9.78014e-06
-5.1751e-07
9.81316e-06
-3.8715e-07
9.83722e-06
-2.97035e-07
9.85527e-06
-2.34736e-07
9.86922e-06
-1.90548e-07
9.88029e-06
-1.58071e-07
9.88927e-06
-1.33435e-07
9.89672e-06
-1.1421e-07
9.90298e-06
-9.87587e-08
9.90832e-06
-8.59715e-08
9.9129e-06
-7.50923e-08
9.91685e-06
-6.55958e-08
9.92024e-06
-5.7112e-08
9.92315e-06
-4.93776e-08
9.92561e-06
-4.22035e-08
9.92765e-06
-3.5454e-08
9.9293e-06
-2.90367e-08
9.93056e-06
-2.28541e-08
9.93147e-06
-1.68311e-08
9.93203e-06
-1.09327e-08
9.93222e-06
-5.2501e-09
9.93207e-06
4.53571e-10
9.93159e-06
6.04716e-09
9.93076e-06
1.16004e-08
9.9296e-06
1.71227e-08
9.92812e-06
2.26412e-08
9.92631e-06
2.81581e-08
9.92417e-06
3.36807e-08
9.92172e-06
3.92215e-08
9.91895e-06
4.47922e-08
9.91588e-06
5.04053e-08
9.9125e-06
5.60748e-08
9.90882e-06
6.18171e-08
9.90485e-06
6.76421e-08
9.90061e-06
7.35733e-08
9.89609e-06
7.96405e-08
9.8913e-06
8.58726e-08
9.88627e-06
9.23102e-08
9.881e-06
9.90249e-08
9.87551e-06
1.06063e-07
9.86981e-06
1.13396e-07
9.86395e-06
1.21101e-07
9.85796e-06
1.29134e-07
9.85197e-06
1.37346e-07
9.84607e-06
1.44911e-07
9.8412e-06
1.49497e-07
9.83628e-06
1.5133e-07
9.84239e-06
1.00321e-07
9.84397e-06
2.03658e-08
9.90794e-06
-1.46611e-07
-2.51903e-06
7.89391e-06
3.42289e-05
7.11345e-06
5.62282e-06
7.47218e-06
-7.43741e-06
8.3205e-06
-1.20581e-05
9.02943e-06
-8.39314e-06
9.41041e-06
-3.81411e-06
9.58594e-06
-1.6622e-06
9.6828e-06
-1.02291e-06
9.74809e-06
-7.58961e-07
9.79392e-06
-5.63343e-07
9.82639e-06
-4.19623e-07
9.84993e-06
-3.20575e-07
9.86748e-06
-2.52284e-07
9.88094e-06
-2.04009e-07
9.89154e-06
-1.68672e-07
9.90009e-06
-1.41982e-07
9.90712e-06
-1.21241e-07
9.913e-06
-1.0464e-07
9.91799e-06
-9.09539e-08
9.92224e-06
-7.93492e-08
9.9259e-06
-6.92481e-08
9.92903e-06
-6.02451e-08
9.9317e-06
-5.20518e-08
9.93396e-06
-4.44619e-08
9.93584e-06
-3.73275e-08
9.93734e-06
-3.05452e-08
9.9385e-06
-2.40144e-08
9.93933e-06
-1.76594e-08
9.93984e-06
-1.14419e-08
9.94002e-06
-5.42746e-09
9.93989e-06
5.81239e-10
9.93945e-06
6.48724e-09
9.9387e-06
1.23466e-08
9.93766e-06
1.81719e-08
9.93631e-06
2.3989e-08
9.93466e-06
2.98011e-08
9.93273e-06
3.56155e-08
9.93051e-06
4.14443e-08
9.928e-06
4.72988e-08
9.92522e-06
5.31909e-08
9.92216e-06
5.91338e-08
9.91883e-06
6.51429e-08
9.91524e-06
7.12285e-08
9.9114e-06
7.74126e-08
9.90732e-06
8.37234e-08
9.90301e-06
9.01887e-08
9.89847e-06
9.6848e-08
9.89372e-06
1.03775e-07
9.88877e-06
1.11015e-07
9.88364e-06
1.18523e-07
9.87837e-06
1.26371e-07
9.873e-06
1.345e-07
9.86765e-06
1.42702e-07
9.86241e-06
1.50142e-07
9.85818e-06
1.53728e-07
9.8541e-06
1.55409e-07
9.86016e-06
9.42634e-08
9.86329e-06
1.72366e-08
9.92391e-06
-2.07233e-07
-2.65636e-06
8.09091e-06
3.6138e-05
7.30027e-06
6.41345e-06
7.59513e-06
-7.73227e-06
8.37229e-06
-1.28352e-05
9.04715e-06
-9.06799e-06
9.42253e-06
-4.18949e-06
9.59976e-06
-1.83944e-06
9.69734e-06
-1.12048e-06
9.76228e-06
-8.23905e-07
9.80754e-06
-6.08596e-07
9.83944e-06
-4.51523e-07
9.86244e-06
-3.43575e-07
9.87947e-06
-2.69319e-07
9.89245e-06
-2.16982e-07
9.90258e-06
-1.78811e-07
9.9107e-06
-1.50095e-07
9.91732e-06
-1.27866e-07
9.92283e-06
-1.10144e-07
9.92746e-06
-9.55879e-08
9.9314e-06
-8.32869e-08
9.93476e-06
-7.26112e-08
9.93763e-06
-6.31189e-08
9.94008e-06
-5.44968e-08
9.94214e-06
-4.65214e-08
9.94384e-06
-3.90323e-08
9.94521e-06
-3.19159e-08
9.94627e-06
-2.5068e-08
9.94702e-06
-1.84108e-08
9.94748e-06
-1.19039e-08
9.94764e-06
-5.59079e-09
9.94753e-06
6.94367e-10
9.94714e-06
6.88125e-09
9.94647e-06
1.30159e-08
9.94553e-06
1.91139e-08
9.94432e-06
2.5199e-08
9.94284e-06
3.12761e-08
9.9411e-06
3.73524e-08
9.93911e-06
4.34394e-08
9.93686e-06
4.95481e-08
9.93436e-06
5.56898e-08
9.93162e-06
6.18771e-08
9.92864e-06
6.81245e-08
9.92542e-06
7.44423e-08
9.92198e-06
8.08515e-08
9.91833e-06
8.73786e-08
9.91447e-06
9.40506e-08
9.91041e-06
1.00905e-07
9.90617e-06
1.08018e-07
9.90175e-06
1.15433e-07
9.89718e-06
1.23094e-07
9.89249e-06
1.3106e-07
9.88773e-06
1.39261e-07
9.883e-06
1.47434e-07
9.87841e-06
1.54725e-07
9.8748e-06
1.57338e-07
9.87152e-06
1.58692e-07
9.87751e-06
8.82706e-08
9.88194e-06
1.28069e-08
9.93911e-06
-2.64396e-07
-2.77838e-06
8.27516e-06
3.78629e-05
7.48066e-06
7.20796e-06
7.7166e-06
-7.9682e-06
8.42612e-06
-1.35448e-05
9.06696e-06
-9.70883e-06
9.43562e-06
-4.55814e-06
9.61383e-06
-2.01765e-06
9.71184e-06
-1.2185e-06
9.77635e-06
-8.88415e-07
9.82098e-06
-6.53227e-07
9.85228e-06
-4.82823e-07
9.87473e-06
-3.66018e-07
9.89124e-06
-2.85833e-07
9.90372e-06
-2.29462e-07
9.9134e-06
-1.88488e-07
9.92108e-06
-1.57774e-07
9.9273e-06
-1.34088e-07
9.93243e-06
-1.15275e-07
9.93672e-06
-9.98779e-08
9.94035e-06
-8.69105e-08
9.94342e-06
-7.56896e-08
9.94604e-06
-6.57377e-08
9.94826e-06
-5.67167e-08
9.95013e-06
-4.83856e-08
9.95167e-06
-4.05716e-08
9.9529e-06
-3.31513e-08
9.95385e-06
-2.60165e-08
9.95453e-06
-1.90871e-08
9.95494e-06
-1.23196e-08
9.95509e-06
-5.74003e-09
9.95499e-06
7.93108e-10
9.95464e-06
7.23004e-09
9.95405e-06
1.36102e-08
9.95321e-06
1.99509e-08
9.95214e-06
2.62744e-08
9.95083e-06
3.25868e-08
9.94928e-06
3.88955e-08
9.94751e-06
4.52116e-08
9.94551e-06
5.15454e-08
9.9433e-06
5.79079e-08
9.94086e-06
6.43111e-08
9.93822e-06
7.07688e-08
9.93537e-06
7.72912e-08
9.93232e-06
8.38981e-08
9.92909e-06
9.06147e-08
9.92567e-06
9.74671e-08
9.92208e-06
1.04492e-07
9.91834e-06
1.11764e-07
9.91444e-06
1.19328e-07
9.91042e-06
1.27118e-07
9.9063e-06
1.35178e-07
9.90213e-06
1.43428e-07
9.89801e-06
1.51552e-07
9.89407e-06
1.58672e-07
9.89106e-06
1.60345e-07
9.88853e-06
1.61221e-07
9.89445e-06
8.23533e-08
9.89995e-06
7.30946e-09
9.95357e-06
-3.18022e-07
-2.88552e-06
8.44738e-06
3.94155e-05
7.65484e-06
8.0005e-06
7.83651e-06
-8.14988e-06
8.48176e-06
-1.419e-05
9.08875e-06
-1.03158e-05
9.44965e-06
-4.91904e-06
9.62814e-06
-2.19614e-06
9.72632e-06
-1.31668e-06
9.7903e-06
-9.52395e-07
9.83426e-06
-6.97191e-07
9.86494e-06
-5.13496e-07
9.8868e-06
-3.87887e-07
9.90279e-06
-3.01816e-07
9.91477e-06
-2.41448e-07
9.92399e-06
-1.97702e-07
9.93124e-06
-1.65024e-07
9.93706e-06
-1.39911e-07
9.94182e-06
-1.20036e-07
9.94577e-06
-1.03829e-07
9.94909e-06
-9.02243e-08
9.95189e-06
-7.84879e-08
9.95425e-06
-6.81058e-08
9.95625e-06
-5.87153e-08
9.95792e-06
-5.00579e-08
9.9593e-06
-4.19484e-08
9.9604e-06
-3.42539e-08
9.96125e-06
-2.68618e-08
9.96185e-06
-1.96895e-08
9.96222e-06
-1.26902e-08
9.96236e-06
-5.87508e-09
9.96227e-06
8.77609e-10
9.96197e-06
7.53483e-09
9.96145e-06
1.41311e-08
9.96071e-06
2.06851e-08
9.95977e-06
2.72179e-08
9.95862e-06
3.37366e-08
9.95727e-06
4.0249e-08
9.95571e-06
4.67653e-08
9.95396e-06
5.32959e-08
9.95202e-06
5.98511e-08
9.94989e-06
6.64424e-08
9.94757e-06
7.30827e-08
9.94508e-06
7.97825e-08
9.94242e-06
8.65605e-08
9.93959e-06
9.34402e-08
9.93661e-06
1.00447e-07
9.93349e-06
1.07617e-07
9.93023e-06
1.15023e-07
9.92685e-06
1.22711e-07
9.92336e-06
1.30605e-07
9.9198e-06
1.38737e-07
9.91622e-06
1.47013e-07
9.9127e-06
1.5507e-07
9.90937e-06
1.62001e-07
9.90695e-06
1.62766e-07
9.90513e-06
1.63037e-07
9.91096e-06
7.65216e-08
9.91731e-06
9.62085e-10
9.96734e-06
-3.68049e-07
-2.97822e-06
8.60833e-06
4.08071e-05
7.82302e-06
8.78581e-06
7.95479e-06
-8.28165e-06
8.53899e-06
-1.47742e-05
9.11239e-06
-1.08892e-05
9.4646e-06
-5.27125e-06
9.64271e-06
-2.37424e-06
9.74077e-06
-1.41475e-06
9.80412e-06
-1.01574e-06
9.84737e-06
-7.40441e-07
9.87739e-06
-5.43512e-07
9.89867e-06
-4.09165e-07
9.91411e-06
-3.17261e-07
9.9256e-06
-2.52936e-07
9.93435e-06
-2.06455e-07
9.94117e-06
-1.71846e-07
9.9466e-06
-1.45338e-07
9.951e-06
-1.24433e-07
9.95461e-06
-1.07445e-07
9.95762e-06
-9.32333e-08
9.96015e-06
-8.10106e-08
9.96227e-06
-7.02276e-08
9.96405e-06
-6.04966e-08
9.96553e-06
-5.1542e-08
9.96675e-06
-4.3166e-08
9.96772e-06
-3.52263e-08
9.96847e-06
-2.7606e-08
9.969e-06
-2.02195e-08
9.96932e-06
-1.30165e-08
9.96944e-06
-5.9961e-09
9.96937e-06
9.4826e-10
9.96911e-06
7.79657e-09
9.96866e-06
1.45803e-08
9.96803e-06
2.13188e-08
9.96721e-06
2.80324e-08
9.96622e-06
3.47292e-08
9.96505e-06
4.1417e-08
9.96371e-06
4.81055e-08
9.9622e-06
5.4805e-08
9.96053e-06
6.15253e-08
9.95869e-06
6.82774e-08
9.9567e-06
7.50735e-08
9.95456e-06
8.1924e-08
9.95228e-06
8.88467e-08
9.94985e-06
9.58639e-08
9.9473e-06
1.03e-07
9.94463e-06
1.1029e-07
9.94184e-06
1.17804e-07
9.93896e-06
1.25592e-07
9.936e-06
1.33569e-07
9.93299e-06
1.41748e-07
9.92997e-06
1.5003e-07
9.92704e-06
1.58001e-07
9.92432e-06
1.64725e-07
9.92246e-06
1.64619e-07
9.92132e-06
1.6418e-07
9.92706e-06
7.07851e-08
9.93405e-06
-6.02854e-09
9.98043e-06
-4.14437e-07
-3.05692e-06
8.75875e-06
4.20484e-05
7.98538e-06
9.55917e-06
8.07135e-06
-8.36761e-06
8.5976e-06
-1.53005e-05
9.13776e-06
-1.14294e-05
9.48044e-06
-5.61393e-06
9.65752e-06
-2.55132e-06
9.75521e-06
-1.51244e-06
9.81782e-06
-1.07836e-06
9.86031e-06
-7.82929e-07
9.88964e-06
-5.72843e-07
9.91031e-06
-4.29834e-07
9.92521e-06
-3.32158e-07
9.93619e-06
-2.63921e-07
9.94449e-06
-2.14746e-07
9.95088e-06
-1.78242e-07
9.95592e-06
-1.50373e-07
9.95995e-06
-1.28469e-07
9.96324e-06
-1.10731e-07
9.96595e-06
-9.59423e-08
9.9682e-06
-8.32628e-08
9.97008e-06
-7.21077e-08
9.97165e-06
-6.2065e-08
9.97295e-06
-5.28415e-08
9.97401e-06
-4.42274e-08
9.97485e-06
-3.60711e-08
9.9755e-06
-2.82511e-08
9.97596e-06
-2.06786e-08
9.97624e-06
-1.32996e-08
9.97635e-06
-6.1031e-09
9.97629e-06
1.00533e-09
9.97607e-06
8.01642e-09
9.97569e-06
1.49594e-08
9.97516e-06
2.18544e-08
9.97447e-06
2.87211e-08
9.97363e-06
3.55681e-08
9.97264e-06
4.24036e-08
9.97151e-06
4.92371e-08
9.97024e-06
5.60782e-08
9.96883e-06
6.29367e-08
9.96728e-06
6.98229e-08
9.96561e-06
7.67484e-08
9.96381e-06
8.37235e-08
9.96189e-06
9.07652e-08
9.95986e-06
9.78945e-08
9.95772e-06
1.05136e-07
9.95549e-06
1.12521e-07
9.95318e-06
1.2012e-07
9.95079e-06
1.27982e-07
9.94834e-06
1.36018e-07
9.94586e-06
1.44224e-07
9.9434e-06
1.52491e-07
9.94104e-06
1.60358e-07
9.93891e-06
1.66863e-07
9.9376e-06
1.65922e-07
9.93709e-06
1.6469e-07
9.94272e-06
6.51557e-08
9.95017e-06
-1.34746e-08
9.99288e-06
-4.5715e-07
-3.12203e-06
8.89934e-06
4.31491e-05
8.14208e-06
1.03164e-05
8.18609e-06
-8.41163e-06
8.65739e-06
-1.57718e-05
9.16473e-06
-1.19367e-05
9.49713e-06
-5.94633e-06
9.67258e-06
-2.72676e-06
9.76962e-06
-1.60948e-06
9.8314e-06
-1.14014e-06
9.87308e-06
-8.24603e-07
9.90169e-06
-6.0146e-07
9.92174e-06
-4.49878e-07
9.93608e-06
-3.46498e-07
9.94656e-06
-2.74402e-07
9.95439e-06
-2.22576e-07
9.96036e-06
-1.84215e-07
9.96501e-06
-1.55019e-07
9.96869e-06
-1.32149e-07
9.97165e-06
-1.13693e-07
9.97406e-06
-9.83564e-08
9.97605e-06
-8.52491e-08
9.97769e-06
-7.37506e-08
9.97905e-06
-6.34244e-08
9.98017e-06
-5.39602e-08
9.98108e-06
-4.5136e-08
9.9818e-06
-3.67911e-08
9.98235e-06
-2.87991e-08
9.98274e-06
-2.10681e-08
9.98298e-06
-1.35405e-08
9.98307e-06
-6.1963e-09
9.98303e-06
1.04925e-09
9.98285e-06
8.19541e-09
9.98254e-06
1.52701e-08
9.9821e-06
2.22942e-08
9.98153e-06
2.92867e-08
9.98084e-06
3.62571e-08
9.98003e-06
4.32133e-08
9.97911e-06
5.01649e-08
9.97806e-06
5.71211e-08
9.97691e-06
6.40913e-08
9.97565e-06
7.10856e-08
9.97428e-06
7.81147e-08
9.97281e-06
8.5189e-08
9.97125e-06
9.23244e-08
9.96961e-06
9.95412e-08
9.96788e-06
1.06863e-07
9.96608e-06
1.1432e-07
9.96422e-06
1.21979e-07
9.96231e-06
1.29892e-07
9.96037e-06
1.37965e-07
9.95841e-06
1.46176e-07
9.9565e-06
1.54409e-07
9.9547e-06
1.62154e-07
9.95313e-06
1.68429e-07
9.95236e-06
1.66692e-07
9.95245e-06
1.64605e-07
9.95796e-06
5.96481e-08
9.96569e-06
-2.12096e-08
1.00047e-05
-4.96165e-07
-3.17397e-06
9.03075e-06
4.41183e-05
8.29325e-06
1.10539e-05
8.29894e-06
-8.41732e-06
8.71816e-06
-1.6191e-05
9.19317e-06
-1.24118e-05
9.51463e-06
-6.26778e-06
9.68787e-06
-2.90001e-06
9.78402e-06
-1.70563e-06
9.84486e-06
-1.20097e-06
9.88567e-06
-8.65413e-07
9.91354e-06
-6.29334e-07
9.93294e-06
-4.6928e-07
9.94672e-06
-3.60272e-07
9.95669e-06
-2.84375e-07
9.96406e-06
-2.29945e-07
9.96961e-06
-1.89768e-07
9.97387e-06
-1.59282e-07
9.9772e-06
-1.35478e-07
9.97984e-06
-1.16335e-07
9.98197e-06
-1.00481e-07
9.98369e-06
-8.69745e-08
9.9851e-06
-7.51611e-08
9.98626e-06
-6.45793e-08
9.9872e-06
-5.4902e-08
9.98796e-06
-4.5895e-08
9.98856e-06
-3.73889e-08
9.98901e-06
-2.92522e-08
9.98933e-06
-2.13897e-08
9.98953e-06
-1.374e-08
9.98961e-06
-6.27578e-09
9.98958e-06
1.08032e-09
9.98944e-06
8.33461e-09
9.9892e-06
1.55144e-08
9.98885e-06
2.26407e-08
9.98841e-06
2.97325e-08
9.98786e-06
3.67997e-08
9.98723e-06
4.38505e-08
9.9865e-06
5.0894e-08
9.98568e-06
5.79394e-08
9.98477e-06
6.49956e-08
9.98379e-06
7.20724e-08
9.98272e-06
7.91799e-08
9.98158e-06
8.63285e-08
9.98037e-06
9.35331e-08
9.9791e-06
1.00813e-07
9.97777e-06
1.08191e-07
9.9764e-06
1.15696e-07
9.97498e-06
1.23393e-07
9.97354e-06
1.31333e-07
9.97208e-06
1.39422e-07
9.97064e-06
1.47617e-07
9.96926e-06
1.55796e-07
9.96801e-06
1.63404e-07
9.967e-06
1.69438e-07
9.96674e-06
1.66948e-07
9.96738e-06
1.63964e-07
9.97275e-06
5.4277e-08
9.98062e-06
-2.90818e-08
1.00159e-05
-5.31469e-07
-3.21317e-06
9.1536e-06
4.49647e-05
8.43902e-06
1.17685e-05
8.40981e-06
-8.38811e-06
8.77973e-06
-1.65609e-05
9.22297e-06
-1.2855e-05
9.53289e-06
-6.5777e-06
9.7034e-06
-3.07053e-06
9.7984e-06
-1.80063e-06
9.85818e-06
-1.26076e-06
9.89808e-06
-9.05306e-07
9.92518e-06
-6.56435e-07
9.94392e-06
-4.88023e-07
9.95712e-06
-3.73472e-07
9.96658e-06
-2.93838e-07
9.97349e-06
-2.36854e-07
9.97863e-06
-1.94903e-07
9.98251e-06
-1.63164e-07
9.98549e-06
-1.38462e-07
9.98782e-06
-1.18662e-07
9.98966e-06
-1.0232e-07
9.99113e-06
-8.84442e-08
9.99231e-06
-7.63438e-08
9.99327e-06
-6.5534e-08
9.99404e-06
-5.56707e-08
9.99465e-06
-4.65078e-08
9.99513e-06
-3.78672e-08
9.99549e-06
-2.96125e-08
9.99574e-06
-2.16448e-08
9.9959e-06
-1.38992e-08
9.99597e-06
-6.3418e-09
9.99595e-06
1.09901e-09
9.99585e-06
8.43508e-09
9.99567e-06
1.56937e-08
9.99541e-06
2.28963e-08
9.99509e-06
3.00615e-08
9.99469e-06
3.71998e-08
9.99422e-06
4.43194e-08
9.99368e-06
5.14294e-08
9.99308e-06
5.85386e-08
9.99242e-06
6.56558e-08
9.9917e-06
7.27902e-08
9.99093e-06
7.99517e-08
9.99011e-06
8.71501e-08
9.98924e-06
9.44e-08
9.98834e-06
1.0172e-07
9.9874e-06
1.09131e-07
9.98643e-06
1.16662e-07
9.98545e-06
1.24373e-07
9.98447e-06
1.32318e-07
9.98349e-06
1.404e-07
9.98255e-06
1.48559e-07
9.98168e-06
1.56665e-07
9.98096e-06
1.64123e-07
9.98049e-06
1.69908e-07
9.98073e-06
1.66708e-07
9.98189e-06
1.62803e-07
9.98711e-06
4.90583e-08
9.99498e-06
-3.69547e-08
1.00266e-05
-5.63056e-07
-3.24004e-06
9.26843e-06
4.56963e-05
8.57943e-06
1.24575e-05
8.51861e-06
-8.32729e-06
8.84192e-06
-1.68842e-05
9.25399e-06
-1.32671e-05
9.55187e-06
-6.87557e-06
9.71915e-06
-3.23781e-06
9.81276e-06
-1.89424e-06
9.87138e-06
-1.31938e-06
9.91031e-06
-9.4423e-07
9.93661e-06
-6.82734e-07
9.95467e-06
-5.0609e-07
9.96729e-06
-3.86091e-07
9.97624e-06
-3.02787e-07
9.98269e-06
-2.43304e-07
9.98741e-06
-1.99624e-07
9.99092e-06
-1.66671e-07
9.99356e-06
-1.41104e-07
9.99558e-06
-1.2068e-07
9.99714e-06
-1.03881e-07
9.99836e-06
-8.96632e-08
9.99932e-06
-7.73037e-08
1.00001e-05
-6.62928e-08
1.00007e-05
-5.62702e-08
1.00011e-05
-4.69778e-08
1.00015e-05
-3.8229e-08
1.00018e-05
-2.98822e-08
1.0002e-05
-2.18351e-08
1.00021e-05
-1.40189e-08
1.00021e-05
-6.39448e-09
1.00021e-05
1.10565e-09
1.00021e-05
8.498e-09
1.0002e-05
1.58101e-08
1.00018e-05
2.30635e-08
1.00016e-05
3.02769e-08
1.00013e-05
3.74612e-08
1.0001e-05
4.46247e-08
1.00007e-05
5.17763e-08
1.00003e-05
5.89248e-08
9.99985e-06
6.60784e-08
9.99939e-06
7.32462e-08
9.99891e-06
8.04377e-08
9.9984e-06
8.76623e-08
9.99786e-06
9.4934e-08
9.99731e-06
1.0227e-07
9.99675e-06
1.09692e-07
9.99619e-06
1.17226e-07
9.99563e-06
1.2493e-07
9.99509e-06
1.32857e-07
9.99458e-06
1.40912e-07
9.99412e-06
1.49015e-07
9.99376e-06
1.57031e-07
9.99355e-06
1.64325e-07
9.99361e-06
1.69855e-07
9.99432e-06
1.65992e-07
9.99597e-06
1.61156e-07
1.0001e-05
4.40078e-08
1.00088e-05
-4.47056e-08
1.00367e-05
-5.90936e-07
-3.255e-06
9.37578e-06
4.63205e-05
8.71455e-06
1.31187e-05
8.62528e-06
-8.23801e-06
8.90457e-06
-1.71635e-05
9.28613e-06
-1.36486e-05
9.57153e-06
-7.16097e-06
9.73511e-06
-3.4014e-06
9.82709e-06
-1.98621e-06
9.88445e-06
-1.37675e-06
9.92236e-06
-9.8213e-07
9.94782e-06
-7.08202e-07
9.9652e-06
-5.23466e-07
9.97723e-06
-3.98119e-07
9.98566e-06
-3.1122e-07
9.99165e-06
-2.49295e-07
9.99596e-06
-2.03933e-07
9.9991e-06
-1.69806e-07
1.00014e-05
-1.4341e-07
1.00031e-05
-1.22394e-07
1.00044e-05
-1.05167e-07
1.00054e-05
-9.06369e-08
1.00061e-05
-7.80455e-08
1.00067e-05
-6.68603e-08
1.00071e-05
-5.67046e-08
1.00075e-05
-4.73085e-08
1.00077e-05
-3.84769e-08
1.00079e-05
-3.00635e-08
1.0008e-05
-2.1962e-08
1.00081e-05
-1.41003e-08
1.00081e-05
-6.43406e-09
1.00081e-05
1.10067e-09
1.00081e-05
8.52444e-09
1.00081e-05
1.58651e-08
1.0008e-05
2.31447e-08
1.00079e-05
3.03819e-08
1.00077e-05
3.75878e-08
1.00076e-05
4.47708e-08
1.00074e-05
5.19399e-08
1.00072e-05
5.91036e-08
1.00071e-05
6.62699e-08
1.00069e-05
7.34476e-08
1.00066e-05
8.06456e-08
1.00064e-05
8.78733e-08
1.00062e-05
9.5144e-08
1.0006e-05
1.02474e-07
1.00058e-05
1.09884e-07
1.00057e-05
1.174e-07
1.00055e-05
1.25075e-07
1.00054e-05
1.32963e-07
1.00053e-05
1.40969e-07
1.00054e-05
1.48997e-07
1.00055e-05
1.56907e-07
1.00058e-05
1.64025e-07
1.00064e-05
1.69294e-07
1.00075e-05
1.64818e-07
1.00096e-05
1.59058e-07
1.00145e-05
3.91407e-08
1.0022e-05
-5.22241e-08
1.00462e-05
-6.15123e-07
-3.25844e-06
9.47612e-06
4.68444e-05
8.84445e-06
1.37504e-05
8.72974e-06
-8.12331e-06
8.96752e-06
-1.74013e-05
9.31925e-06
-1.40004e-05
9.59181e-06
-7.43353e-06
9.75127e-06
-3.56086e-06
9.84139e-06
-2.07633e-06
9.89739e-06
-1.43275e-06
9.93422e-06