/*--------------------------------*- C++ -*----------------------------------*\
| =========                 |                                                 |
| \\      /  F ield         | OpenFOAM: The Open Source CFD Toolbox           |
|  \\    /   O peration     | Version:  2.4.0                                 |
|   \\  /    A nd           | Web:      www.OpenFOAM.org                      |
|    \\/     M anipulation  |                                                 |
\*---------------------------------------------------------------------------*/
FoamFile
{
    version     2.0;
    format      ascii;
    class       surfaceScalarField;
    location    "4.49";
    object      phi;
}
// * * * * * * * * * * * * * * * * * * * * * * * * * * * * * * * * * * * * * //

dimensions      [0 3 -1 0 0 0 0];

internalField   nonuniform List<scalar> 
11840
(
7.85126e-07
9.21487e-06
-2.03066e-08
8.05433e-07
-4.80582e-08
2.77517e-08
-7.30451e-08
2.49869e-08
-8.3784e-08
1.07389e-08
-8.51999e-08
1.41586e-09
-8.91804e-08
3.98055e-09
-8.87208e-08
-4.59603e-10
-9.11673e-08
2.44645e-09
-9.1803e-08
6.35665e-10
-9.4691e-08
2.88806e-09
-9.7476e-08
2.78501e-09
-1.02325e-07
4.84898e-09
-1.08193e-07
5.86837e-09
-1.16098e-07
7.90511e-09
-1.25494e-07
9.39509e-09
-1.36775e-07
1.12814e-08
-1.49705e-07
1.29305e-08
-1.64517e-07
1.48115e-08
-1.81196e-07
1.6679e-08
-1.99875e-07
1.86786e-08
-2.2048e-07
2.06057e-08
-2.4288e-07
2.24001e-08
-2.66745e-07
2.38649e-08
-2.9165e-07
2.49045e-08
-3.17055e-07
2.54057e-08
-3.42334e-07
2.52782e-08
-3.6676e-07
2.4426e-08
-3.89522e-07
2.27627e-08
-4.09726e-07
2.02038e-08
-4.26411e-07
1.66847e-08
-4.38554e-07
1.21434e-08
-4.45093e-07
6.53848e-09
-4.45e-07
-9.2994e-11
-4.3715e-07
-7.85034e-09
-4.2056e-07
-1.65898e-08
-3.94325e-07
-2.62348e-08
-3.57633e-07
-3.66915e-08
-3.0994e-07
-4.76931e-08
-2.50813e-07
-5.91278e-08
-1.80487e-07
-7.03252e-08
-9.95143e-08
-8.09731e-08
-1.09388e-08
-8.85756e-08
7.92048e-08
-9.01436e-08
1.6648e-07
-8.72755e-08
2.53221e-07
-8.67404e-08
3.36678e-07
-8.34573e-08
4.19546e-07
-8.28679e-08
4.94271e-07
-7.47248e-08
5.69128e-07
-7.48569e-08
6.2749e-07
-5.83624e-08
6.9282e-07
-6.53297e-08
7.2658e-07
-3.37598e-08
7.88371e-07
-6.17915e-08
7.87282e-07
1.08899e-09
8.64056e-07
-7.67736e-08
8.12214e-07
5.18412e-08
9.44949e-07
-1.32734e-07
8.19608e-07
1.25341e-07
-3.62063e-07
1.91814e-06
1.72967e-05
1.02257e-07
2.62131e-06
-7.42789e-08
2.04288e-07
-1.77856e-07
1.28564e-07
-2.09738e-07
4.26207e-08
-2.27308e-07
1.89855e-08
-2.37825e-07
1.44978e-08
-2.4279e-07
4.50515e-09
-2.49152e-07
8.80867e-09
-2.53998e-07
5.48169e-09
-2.61824e-07
1.07143e-08
-2.7104e-07
1.20007e-08
-2.84374e-07
1.81834e-08
-3.01225e-07
2.2719e-08
-3.22867e-07
2.95475e-08
-3.48779e-07
3.53069e-08
-3.79335e-07
4.18375e-08
-4.14271e-07
4.78665e-08
-4.53885e-07
5.44248e-08
-4.98247e-07
6.1041e-08
-5.4751e-07
6.79414e-08
-6.01433e-07
7.45291e-08
-6.59478e-07
8.04452e-08
-7.20657e-07
8.50442e-08
-7.83697e-07
8.79444e-08
-8.4707e-07
8.87787e-08
-9.09036e-07
8.72444e-08
-9.67658e-07
8.30471e-08
-1.02082e-06
7.59243e-08
-1.06625e-06
6.56348e-08
-1.10156e-06
5.19994e-08
-1.12428e-06
3.48567e-08
-1.13186e-06
1.41194e-08
-1.12173e-06
-1.0219e-08
-1.0915e-06
-3.80862e-08
-1.03876e-06
-6.9324e-08
-9.61436e-07
-1.03561e-07
-8.57681e-07
-1.40447e-07
-7.26172e-07
-1.79202e-07
-5.66063e-07
-2.19237e-07
-3.77891e-07
-2.58497e-07
-1.63905e-07
-2.94958e-07
6.64564e-08
-3.18937e-07
2.97108e-07
-3.20795e-07
5.20492e-07
-3.1066e-07
7.40409e-07
-3.06657e-07
9.52816e-07
-2.95865e-07
1.15875e-06
-2.88798e-07
1.34851e-06
-2.6449e-07
1.52898e-06
-2.55324e-07
1.68133e-06
-2.10716e-07
1.82931e-06
-2.13309e-07
1.93188e-06
-1.36324e-07
2.05255e-06
-1.82469e-07
2.0955e-06
-4.18598e-08
2.21305e-06
-1.9432e-07
2.18616e-06
7.87318e-08
2.36128e-06
-3.07852e-07
2.25305e-06
2.33563e-07
-9.34741e-07
2.91722e-06
2.43795e-05
3.96576e-07
5.14196e-06
-4.04268e-08
6.4129e-07
-2.39298e-07
3.27436e-07
-3.02462e-07
1.05784e-07
-3.4426e-07
6.07835e-08
-3.64365e-07
3.46031e-08
-3.78471e-07
1.86108e-08
-3.90006e-07
2.0344e-08
-4.00776e-07
1.62512e-08
-4.13988e-07
2.39268e-08
-4.30189e-07
2.82017e-08
-4.51811e-07
3.9805e-08
-4.79307e-07
5.02156e-08
-5.13793e-07
6.40335e-08
-5.55033e-07
7.65464e-08
-6.03177e-07
8.99819e-08
-6.58023e-07
1.02713e-07
-7.19813e-07
1.16215e-07
-7.88686e-07
1.29914e-07
-8.647e-07
1.43955e-07
-9.47374e-07
1.57203e-07
-1.03566e-06
1.68734e-07
-1.12786e-06
1.77246e-07
-1.22181e-06
1.81894e-07
-1.31499e-06
1.81954e-07
-1.40457e-06
1.76825e-07
-1.48748e-06
1.65961e-07
-1.56044e-06
1.48884e-07
-1.61999e-06
1.25185e-07
-1.66257e-06
9.4578e-08
-1.68455e-06
5.68307e-08
-1.68228e-06
1.18474e-08
-1.65219e-06
-4.02997e-08
-1.59099e-06
-9.9286e-08
-1.4956e-06
-1.64716e-07
-1.36342e-06
-2.35744e-07
-1.19242e-06
-3.11449e-07
-9.81452e-07
-3.90168e-07
-7.30539e-07
-4.7015e-07
-4.41979e-07
-5.47057e-07
-1.21622e-07
-6.15315e-07
2.16326e-07
-6.56886e-07
5.54868e-07
-6.59337e-07
8.89004e-07
-6.44796e-07
1.22031e-06
-6.37966e-07
1.54324e-06
-6.18789e-07
1.85479e-06
-6.00353e-07
2.14563e-06
-5.55328e-07
2.41713e-06
-5.26819e-07
2.65457e-06
-4.48157e-07
2.87234e-06
-4.31083e-07
3.04154e-06
-3.0552e-07
3.20676e-06
-3.47694e-07
3.30127e-06
-1.36369e-07
3.43674e-06
-3.2979e-07
3.45796e-06
5.75147e-08
3.62944e-06
-4.79333e-07
3.59332e-06
2.69677e-07
-1.56926e-06
3.80897e-06
3.05705e-05
8.13361e-07
8.13757e-06
5.2588e-08
1.40206e-06
-2.53191e-07
6.33215e-07
-3.61898e-07
2.14491e-07
-4.33844e-07
1.3273e-07
-4.68512e-07
6.92708e-08
-4.9444e-07
4.45387e-08
-5.13326e-07
3.92301e-08
-5.31213e-07
3.41385e-08
-5.50676e-07
4.3389e-08
-5.74123e-07
5.16492e-08
-6.03958e-07
6.96394e-08
-6.41528e-07
8.77862e-08
-6.87887e-07
1.10392e-07
-7.42991e-07
1.3165e-07
-8.06787e-07
1.53778e-07
-8.79054e-07
1.74979e-07
-9.59928e-07
1.97089e-07
-1.0495e-06
2.19489e-07
-1.14764e-06
2.42089e-07
-1.25348e-06
2.63051e-07
-1.36541e-06
2.80657e-07
-1.48093e-06
2.92768e-07
-1.597e-06
2.9796e-07
-1.71013e-06
2.95093e-07
-1.81655e-06
2.83247e-07
-1.91222e-06
2.61629e-07
-1.99293e-06
2.29586e-07
-2.05434e-06
1.86595e-07
-2.0921e-06
1.32347e-07
-2.10191e-06
6.66398e-08
-2.07956e-06
-1.0505e-08
-2.02112e-06
-9.87382e-08
-1.92308e-06
-1.97331e-07
-1.78241e-06
-3.05386e-07
-1.59683e-06
-4.21321e-07
-1.365e-06
-5.43283e-07
-1.08685e-06
-6.68311e-07
-7.6412e-07
-7.92884e-07
-4.01346e-07
-9.0983e-07
-7.37314e-09
-1.00929e-06
4.03377e-07
-1.06764e-06
8.19669e-07
-1.07563e-06
1.2395e-06
-1.06463e-06
1.66038e-06
-1.05884e-06
2.07485e-06
-1.03326e-06
2.47596e-06
-1.00147e-06
2.85399e-06
-9.33354e-07
3.20528e-06
-8.78109e-07
3.5178e-06
-7.60678e-07
3.79847e-06
-7.11752e-07
4.02681e-06
-5.33856e-07
4.23401e-06
-5.54901e-07
4.37279e-06
-2.75149e-07
4.52832e-06
-4.85318e-07
4.58647e-06
-6.33944e-10
4.75944e-06
-6.52302e-07
4.77959e-06
2.49528e-07
-2.21619e-06
4.61539e-06
3.59552e-05
1.32434e-06
1.14286e-05
2.1266e-07
2.51374e-06
-2.18352e-07
1.06423e-06
-3.86848e-07
3.82986e-07
-4.95232e-07
2.41114e-07
-5.49545e-07
1.23585e-07
-5.90149e-07
8.51427e-08
-6.18604e-07
6.76847e-08
-6.44865e-07
6.03996e-08
-6.71423e-07
6.99473e-08
-7.02359e-07
8.25844e-08
-7.40248e-07
1.07529e-07
-7.87211e-07
1.34748e-07
-8.44301e-07
1.67482e-07
-9.11588e-07
1.98938e-07
-9.8881e-07
2.31e-07
-1.07564e-06
2.61806e-07
-1.17202e-06
2.9347e-07
-1.27787e-06
3.2534e-07
-1.39272e-06
3.5694e-07
-1.51525e-06
3.85582e-07
-1.64316e-06
4.08567e-07
-1.77321e-06
4.22816e-07
-1.90152e-06
4.26276e-07
-2.02385e-06
4.17419e-07
-2.13566e-06
3.95059e-07
-2.23228e-06
3.5825e-07
-2.30896e-06
3.06266e-07
-2.36097e-06
2.38604e-07
-2.3837e-06
1.55078e-07
-2.37273e-06
5.56673e-08
-2.32394e-06
-5.92932e-08
-2.23366e-06
-1.89017e-07
-2.09875e-06
-3.3224e-07
-1.91677e-06
-4.87366e-07
-1.6862e-06
-6.51891e-07
-1.40665e-06
-8.22837e-07
-1.07917e-06
-9.9579e-07
-7.06786e-07
-1.16527e-06
-2.95274e-07
-1.32134e-06
1.45575e-07
-1.45014e-06
6.04011e-07
-1.52607e-06
1.07459e-06
-1.54621e-06
1.55662e-06
-1.54665e-06
2.04426e-06
-1.54648e-06
2.52906e-06
-1.51806e-06
3.00138e-06
-1.47379e-06
3.45125e-06
-1.38322e-06
3.87066e-06
-1.29752e-06
4.24939e-06
-1.13941e-06
4.58742e-06
-1.04979e-06
4.87064e-06
-8.17068e-07
5.11881e-06
-8.03072e-07
5.29901e-06
-4.55353e-07
5.47693e-06
-6.63237e-07
5.56614e-06
-8.98447e-08
5.74474e-06
-8.30902e-07
5.80723e-06
1.87037e-07
-2.84199e-06
5.34686e-06
4.06083e-05
1.90208e-06
1.48734e-05
4.47924e-07
3.9679e-06
-1.33632e-07
1.64578e-06
-3.76144e-07
6.25499e-07
-5.27589e-07
3.92559e-07
-6.0677e-07
2.02766e-07
-6.65093e-07
1.43465e-07
-7.05393e-07
1.07984e-07
-7.41353e-07
9.63602e-08
-7.75848e-07
1.04442e-07
-8.14493e-07
1.21229e-07
-8.60201e-07
1.53238e-07
-9.15759e-07
1.90306e-07
-9.82267e-07
2.33991e-07
-1.05984e-06
2.76506e-07
-1.14797e-06
3.19132e-07
-1.24613e-06
3.59972e-07
-1.354e-06
4.0134e-07
-1.47119e-06
4.42529e-07
-1.59681e-06
4.82555e-07
-1.729e-06
5.17772e-07
-1.86484e-06
5.44406e-07
-2.00045e-06
5.58426e-07
-2.13137e-06
5.57201e-07
-2.25288e-06
5.38922e-07
-2.36008e-06
5.02266e-07
-2.44811e-06
4.46272e-07
-2.51213e-06
3.70285e-07
-2.54749e-06
2.73965e-07
-2.54979e-06
1.57378e-07
-2.51494e-06
2.08179e-08
-2.43927e-06
-1.34959e-07
-2.31959e-06
-3.08699e-07
-2.15327e-06
-4.98565e-07
-1.93845e-06
-7.02184e-07
-1.67424e-06
-9.16103e-07
-1.36087e-06
-1.1362e-06
-1.00001e-06
-1.35665e-06
-5.95227e-07
-1.57005e-06
-1.52547e-07
-1.76402e-06
3.18627e-07
-1.92131e-06
8.09416e-07
-2.01686e-06
1.31792e-06
-2.05472e-06
1.84325e-06
-2.07198e-06
2.37749e-06
-2.08072e-06
2.91193e-06
-2.0525e-06
3.43572e-06
-1.99759e-06
3.93929e-06
-1.88679e-06
4.41187e-06
-1.7701e-06
4.84493e-06
-1.57246e-06
5.23255e-06
-1.43741e-06
5.56587e-06
-1.15039e-06
5.85357e-06
-1.09077e-06
6.07516e-06
-6.76942e-07
6.27767e-06
-8.65755e-07
6.39789e-06
-2.1006e-07
6.58489e-06
-1.0179e-06
6.68153e-06
9.03937e-08
-3.42526e-06
6.00892e-06
4.45994e-05
2.52366e-06
1.83587e-05
7.56757e-07
5.7348e-06
-2.25381e-09
2.40479e-06
-3.28608e-07
9.51853e-07
-5.30003e-07
5.93954e-07
-6.39452e-07
3.12215e-07
-7.18741e-07
2.22755e-07
-7.73246e-07
1.62489e-07
-8.20316e-07
1.43431e-07
-8.63598e-07
1.47724e-07
-9.10163e-07
1.67794e-07
-9.6338e-07
2.06455e-07
-1.02663e-06
2.53557e-07
-1.10108e-06
3.08444e-07
-1.18683e-06
3.62257e-07
-1.28313e-06
4.15428e-07
-1.38917e-06
4.66013e-07
-1.50428e-06
5.16453e-07
-1.62772e-06
5.65969e-07
-1.75817e-06
6.13e-07
-1.89331e-06
6.52914e-07
-2.02977e-06
6.80866e-07
-2.1633e-06
6.91951e-07
-2.28918e-06
6.83086e-07
-2.40258e-06
6.5232e-07
-2.49864e-06
5.98328e-07
-2.57262e-06
5.20252e-07
-2.61994e-06
4.1761e-07
-2.63628e-06
2.90304e-07
-2.61762e-06
1.38713e-07
-2.56029e-06
-3.65063e-08
-2.46106e-06
-2.34198e-07
-2.31707e-06
-4.52681e-07
-2.1261e-06
-6.89539e-07
-1.88666e-06
-9.4162e-07
-1.59821e-06
-1.20456e-06
-1.26129e-06
-1.47313e-06
-8.77781e-07
-1.74015e-06
-4.51389e-07
-1.99645e-06
1.20479e-08
-2.22746e-06
5.03997e-07
-2.41326e-06
1.01783e-06
-2.5307e-06
1.55318e-06
-2.59006e-06
2.10825e-06
-2.62706e-06
2.67396e-06
-2.64643e-06
3.24159e-06
-2.62014e-06
3.79993e-06
-2.55592e-06
4.34007e-06
-2.42693e-06
4.84997e-06
-2.28e-06
5.32284e-06
-2.04533e-06
5.74871e-06
-1.86328e-06
6.12337e-06
-1.52505e-06
6.44566e-06
-1.41306e-06
6.70661e-06
-9.37891e-07
6.9339e-06
-1.09304e-06
7.08735e-06
-3.63515e-07
7.28392e-06
-1.21447e-06
7.41206e-06
-3.77457e-08
-3.95338e-06
6.60538e-06
4.7994e-05
3.1701e-06
2.17939e-05
1.13552e-06
7.76938e-06
1.93542e-07
3.34677e-06
-2.42973e-07
1.38837e-06
-5.0144e-07
8.52422e-07
-6.46766e-07
4.57541e-07
-7.50493e-07
3.26482e-07
-8.21676e-07
2.33671e-07
-8.8137e-07
2.03125e-07
-9.34319e-07
2.00673e-07
-9.89021e-07
2.22496e-07
-1.04939e-06
2.6682e-07
-1.11935e-06
3.23517e-07
-1.20016e-06
3.89258e-07
-1.29189e-06
4.53985e-07
-1.39353e-06
5.17065e-07
-1.50399e-06
5.76479e-07
-1.62228e-06
6.34741e-07
-1.74732e-06
6.91011e-07
-1.87746e-06
7.43144e-07
-2.01012e-06
7.85569e-07
-2.1417e-06
8.12445e-07
-2.26786e-06
8.18116e-07
-2.38395e-06
7.99168e-07
-2.48525e-06
7.53627e-07
-2.56717e-06
6.80248e-07
-2.62525e-06
5.78331e-07
-2.65525e-06
4.47605e-07
-2.65317e-06
2.88228e-07
-2.61536e-06
1.009e-07
-2.53848e-06
-1.13382e-07
-2.41955e-06
-3.53128e-07
-2.25598e-06
-6.16256e-07
-2.04576e-06
-8.99759e-07
-1.78764e-06
-1.19973e-06
-1.48126e-06
-1.51094e-06
-1.1273e-06
-1.82709e-06
-7.27711e-07
-2.13974e-06
-2.86145e-07
-2.43801e-06
1.91888e-07
-2.70549e-06
6.98854e-07
-2.92023e-06
1.22965e-06
-3.0615e-06
1.78419e-06
-3.14459e-06
2.3596e-06
-3.20247e-06
2.94618e-06
-3.23301e-06
3.53527e-06
-3.20923e-06
4.11565e-06
-3.1363e-06
4.67904e-06
-2.99032e-06
5.21298e-06
-2.81394e-06
5.71216e-06
-2.54452e-06
6.1643e-06
-2.31541e-06
6.56905e-06
-1.9298e-06
6.91782e-06
-1.76183e-06
7.21183e-06
-1.2319e-06
7.46062e-06
-1.34184e-06
7.64711e-06
-5.49999e-07
7.85216e-06
-1.41953e-06
8.01143e-06
-1.97016e-07
-4.41977e-06
7.13985e-06
5.08541e-05
3.82555e-06
2.51082e-05
1.57741e-06
1.00175e-05
4.38539e-07
4.48564e-06
-1.17316e-07
1.94422e-06
-4.40717e-07
1.17582e-06
-6.27782e-07
6.44606e-07
-7.59644e-07
4.58344e-07
-8.50125e-07
3.24152e-07
-9.24084e-07
2.77084e-07
-9.8764e-07
2.6423e-07
-1.05073e-06
2.85586e-07
-1.11787e-06
3.33964e-07
-1.19354e-06
3.99184e-07
-1.27912e-06
4.74841e-07
-1.37468e-06
5.49541e-07
-1.47901e-06
6.21393e-07
-1.59081e-06
6.88284e-07
-1.70883e-06
7.5276e-07
-1.83178e-06
8.13959e-07
-1.95782e-06
8.69185e-07
-2.08427e-06
9.12012e-07
-2.20752e-06
9.35699e-07
-2.32335e-06
9.33951e-07
-2.42731e-06
9.03119e-07
-2.51494e-06
8.41264e-07
-2.58195e-06
7.47252e-07
-2.62417e-06
6.2055e-07
-2.63765e-06
4.61089e-07
-2.6187e-06
2.69277e-07
-2.56391e-06
4.61111e-08
-2.47017e-06
-2.07124e-07
-2.33464e-06
-4.88653e-07
-2.15492e-06
-7.95978e-07
-1.92917e-06
-1.12551e-06
-1.65628e-06
-1.47262e-06
-1.336e-06
-1.83123e-06
-9.69069e-07
-2.19401e-06
-5.57458e-07
-2.55135e-06
-1.04704e-07
-2.89076e-06
3.84069e-07
-3.19426e-06
9.02247e-07
-3.43841e-06
1.44571e-06
-3.60496e-06
2.01395e-06
-3.71284e-06
2.60307e-06
-3.79158e-06
3.20312e-06
-3.83306e-06
3.80552e-06
-3.81164e-06
4.39919e-06
-3.72997e-06
4.97632e-06
-3.56744e-06
5.52447e-06
-3.36209e-06
6.03944e-06
-3.05948e-06
6.50776e-06
-2.78374e-06
6.93203e-06
-2.35407e-06
7.29857e-06
-2.12837e-06
7.61696e-06
-1.55028e-06
7.88165e-06
-1.60654e-06
8.0969e-06
-7.65243e-07
8.30735e-06
-1.62998e-06
8.49586e-06
-3.85525e-07
-4.82239e-06
7.61611e-06
5.3238e-05
4.47685e-06
2.82475e-05
2.07364e-06
1.24207e-05
7.38342e-07
5.82094e-06
5.04425e-08
2.63212e-06
-3.46509e-07
1.57277e-06
-5.8145e-07
8.79548e-07
-7.4537e-07
6.22264e-07
-8.57947e-07
4.36728e-07
-9.47965e-07
3.67102e-07
-1.02317e-06
3.39433e-07
-1.09498e-06
3.57394e-07
-1.16858e-06
4.0757e-07
-1.24903e-06
4.79636e-07
-1.33793e-06
5.63735e-07
-1.43541e-06
6.47023e-07
-1.5402e-06
7.26183e-07
-1.65089e-06
7.98976e-07
-1.76608e-06
8.67947e-07
-1.88437e-06
9.32246e-07
-2.00385e-06
9.88668e-07
-2.12186e-06
1.03003e-06
-2.23494e-06
1.04877e-06
-2.33905e-06
1.03806e-06
-2.42999e-06
9.94062e-07
-2.50362e-06
9.14894e-07
-2.5559e-06
7.99528e-07
-2.58293e-06
6.47584e-07
-2.58102e-06
4.59174e-07
-2.54668e-06
2.34933e-07
-2.4767e-06
-2.38685e-08
-2.3681e-06
-3.15718e-07
-2.21819e-06
-6.38568e-07
-2.02468e-06
-9.89486e-07
-1.78588e-06
-1.36431e-06
-1.50078e-06
-1.75771e-06
-1.16921e-06
-2.16281e-06
-7.91957e-07
-2.57126e-06
-3.70971e-07
-2.97234e-06
9.03431e-08
-3.35208e-06
5.8724e-07
-3.69116e-06
1.1139e-06
-3.96507e-06
1.66678e-06
-4.15784e-06
2.24465e-06
-4.2907e-06
2.84266e-06
-4.38959e-06
3.45088e-06
-4.44129e-06
4.06084e-06
-4.42159e-06
4.66164e-06
-4.33077e-06
5.24583e-06
-4.15163e-06
5.8012e-06
-3.91746e-06
6.3243e-06
-3.58259e-06
6.80119e-06
-3.26063e-06
7.23654e-06
-2.78942e-06
7.61337e-06
-2.5052e-06
7.94765e-06
-1.88457e-06
8.22225e-06
-1.88114e-06
8.45955e-06
-1.00254e-06
8.67151e-06
-1.84194e-06
8.88455e-06
-5.98567e-07
-5.16289e-06
8.03825e-06
5.51998e-05
5.11327e-06
3.11725e-05
2.61409e-06
1.49199e-05
1.09253e-06
7.34251e-06
2.61628e-07
3.46302e-06
-2.17378e-07
2.05178e-06
-5.06601e-07
1.16877e-06
-7.06718e-07
8.22382e-07
-8.44398e-07
5.74408e-07
-9.52454e-07
4.75157e-07
-1.04049e-06
4.27467e-07
-1.12148e-06
4.3839e-07
-1.20138e-06
4.87467e-07
-1.28588e-06
5.64135e-07
-1.3769e-06
6.54753e-07
-1.47481e-06
7.44935e-07
-1.57839e-06
8.29761e-07
-1.68623e-06
9.06822e-07
-1.79688e-06
9.78598e-07
-1.9089e-06
1.04427e-06
-2.0204e-06
1.10016e-06
-2.12879e-06
1.13842e-06
-2.2308e-06
1.15078e-06
-2.32264e-06
1.1299e-06
-2.40038e-06
1.0718e-06
-2.46015e-06
9.74664e-07
-2.49816e-06
8.37538e-07
-2.51075e-06
6.60171e-07
-2.49441e-06
4.42833e-07
-2.44584e-06
1.86368e-07
-2.36199e-06
-1.07723e-07
-2.23997e-06
-4.37735e-07
-2.0772e-06
-8.01343e-07
-1.87152e-06
-1.19516e-06
-1.62136e-06
-1.61448e-06
-1.32579e-06
-2.05328e-06
-9.84709e-07
-2.50389e-06
-5.98943e-07
-2.95703e-06
-1.70412e-07
-3.40087e-06
2.97612e-07
-3.8201e-06
8.00731e-07
-4.19428e-06
1.33378e-06
-4.49812e-06
1.89352e-06
-4.71758e-06
2.47784e-06
-4.87502e-06
3.08115e-06
-4.9929e-06
3.69365e-06
-5.05379e-06
4.30696e-06
-5.03491e-06
4.91044e-06
-4.93425e-06
5.49692e-06
-4.73811e-06
6.05448e-06
-4.47502e-06
6.58024e-06
-4.10834e-06
7.06012e-06
-3.74051e-06
7.50022e-06
-3.22952e-06
7.88154e-06
-2.88652e-06
8.22468e-06
-2.2277e-06
8.50396e-06
-2.16042e-06
8.75627e-06
-1.25485e-06
8.96608e-06
-2.05175e-06
9.19723e-06
-8.29718e-07
-5.44541e-06
8.41049e-06
5.67893e-05
5.72631e-06
3.38567e-05
3.18798e-06
1.74582e-05
1.49914e-06
9.03134e-06
5.19196e-07
4.44297e-06
-5.19581e-08
2.62293e-06
-4.01942e-07
1.51875e-06
-6.42598e-07
1.06304e-06
-8.08628e-07
7.40438e-07
-9.36913e-07
6.03442e-07
-1.03916e-06
5.29715e-07
-1.13002e-06
5.29247e-07
-1.21625e-06
5.73702e-07
-1.30434e-06
6.52222e-07
-1.39666e-06
7.47068e-07
-1.49396e-06
8.42235e-07
-1.5952e-06
9.31006e-07
-1.69909e-06
1.01071e-06
-1.80417e-06
1.08368e-06
-1.909e-06
1.1491e-06
-2.01173e-06
1.20289e-06
-2.10992e-06
1.23661e-06
-2.20047e-06
1.24134e-06
-2.27989e-06
1.20932e-06
-2.3445e-06
1.13642e-06
-2.39069e-06
1.02085e-06
-2.4149e-06
8.61748e-07
-2.41367e-06
6.58936e-07
-2.38366e-06
4.12825e-07
-2.32174e-06
1.24447e-07
-2.22495e-06
-2.04508e-07
-2.09052e-06
-5.72167e-07
-1.91596e-06
-9.75899e-07
-1.69926e-06
-1.41187e-06
-1.43891e-06
-1.87482e-06
-1.13411e-06
-2.35808e-06
-7.8478e-07
-2.85322e-06
-3.91799e-07
-3.35001e-06
4.29412e-08
-3.83561e-06
5.16298e-07
-4.29346e-06
1.02417e-06
-4.70216e-06
1.56192e-06
-5.03587e-06
2.12641e-06
-5.28207e-06
2.71469e-06
-5.4633e-06
3.32052e-06
-5.59873e-06
3.9343e-06
-5.66757e-06
4.5478e-06
-5.64841e-06
5.15065e-06
-5.53709e-06
5.73588e-06
-5.32335e-06
6.29194e-06
-5.03109e-06
6.81634e-06
-4.63273e-06
7.29511e-06
-4.21928e-06
7.73531e-06
-3.66973e-06
8.11674e-06
-3.26795e-06
8.46329e-06
-2.57425e-06
8.74311e-06
-2.44024e-06
9.00425e-06
-1.51598e-06
9.20902e-06
-2.25653e-06
9.45159e-06
-1.07229e-06
-5.67533e-06
8.73712e-06
5.80522e-05
6.30946e-06
3.62843e-05
3.78442e-06
1.99833e-05
1.95466e-06
1.08611e-05
8.24324e-07
5.57331e-06
1.52388e-07
3.29487e-06
-2.6605e-07
1.93719e-06
-5.51766e-07
1.34875e-06
-7.49662e-07
9.38334e-07
-9.00614e-07
7.54395e-07
-1.01871e-06
6.47809e-07
-1.12036e-06
6.30898e-07
-1.21327e-06
6.66612e-07
-1.30482e-06
7.4377e-07
-1.39798e-06
8.40236e-07
-1.49406e-06
9.38314e-07
-1.59232e-06
1.02926e-06
-1.69162e-06
1.11001e-06
-1.79054e-06
1.1826e-06
-1.88769e-06
1.24624e-06
-1.98125e-06
1.29645e-06
-2.06894e-06
1.3243e-06
-2.14792e-06
1.32031e-06
-2.21492e-06
1.27632e-06
-2.26655e-06
1.18805e-06
-2.29944e-06
1.05374e-06
-2.31025e-06
8.72551e-07
-2.29568e-06
6.4437e-07
-2.25258e-06
3.6972e-07
-2.17793e-06
4.98049e-08
-2.0689e-06
-3.13544e-07
-1.92278e-06
-7.18284e-07
-1.73722e-06
-1.16146e-06
-1.51031e-06
-1.63878e-06
-1.24065e-06
-2.14448e-06
-9.27506e-07
-2.67123e-06
-5.70872e-07
-3.20986e-06
-1.71652e-07
-3.74923e-06
2.68276e-07
-4.27554e-06
7.45891e-07
-4.77107e-06
1.25734e-06
-5.2136e-06
1.79838e-06
-5.57691e-06
2.36586e-06
-5.84956e-06
2.95605e-06
-6.05348e-06
3.56219e-06
-6.20487e-06
4.17491e-06
-6.28029e-06
4.78614e-06
-6.25964e-06
5.38577e-06
-6.13672e-06
5.96705e-06
-5.90463e-06
6.5188e-06
-5.58284e-06
7.0388e-06
-5.15274e-06
7.51338e-06
-4.69386e-06
7.95021e-06
-4.10656e-06
8.32845e-06
-3.64619e-06
8.67428e-06
-2.92008e-06
8.95148e-06
-2.71745e-06
9.21643e-06
-1.78093e-06
9.41406e-06
-2.45416e-06
9.66203e-06
-1.32026e-06
-5.85826e-06
9.02236e-06
5.90298e-05
6.85804e-06
3.84486e-05
4.39286e-06
2.24485e-05
2.45405e-06
1.27999e-05
1.17754e-06
6.84981e-06
3.96731e-07
4.07568e-06
-9.71466e-08
2.43107e-06
-4.32811e-07
1.68442e-06
-6.66381e-07
1.1719e-06
-8.42702e-07
9.30715e-07
-9.78557e-07
7.83665e-07
-1.09224e-06
7.44577e-07
-1.19248e-06
7.66853e-07
-1.2877e-06
8.38992e-07
-1.38163e-06
9.34169e-07
-1.47624e-06
1.03292e-06
-1.57119e-06
1.12421e-06
-1.66558e-06
1.20441e-06
-1.75806e-06
1.27509e-06
-1.84727e-06
1.33545e-06
-1.93149e-06
1.38067e-06
-2.00859e-06
1.40141e-06
-2.07597e-06
1.38769e-06
-2.13063e-06
1.33099e-06
-2.16946e-06
1.22687e-06
-2.1893e-06
1.07358e-06
-2.18701e-06
8.70267e-07
-2.1595e-06
6.16852e-07
-2.10372e-06
3.13949e-07
-2.01683e-06
-3.70911e-08
-1.89604e-06
-4.34331e-07
-1.73878e-06
-8.75546e-07
-1.5428e-06
-1.35744e-06
-1.3063e-06
-1.87529e-06
-1.02798e-06
-2.4228e-06
-7.0718e-07
-2.99202e-06
-3.43964e-07
-3.57307e-06
6.073e-08
-4.15393e-06
5.0504e-07
-4.71985e-06
9.86038e-07
-5.25207e-06
1.50007e-06
-5.72763e-06
2.04319e-06
-6.12003e-06
2.61217e-06
-6.41854e-06
3.20256e-06
-6.64387e-06
3.80721e-06
-6.80952e-06
4.41698e-06
-6.89005e-06
5.02395e-06
-6.86662e-06
5.61831e-06
-6.73109e-06
6.1935e-06
-6.47982e-06
6.73872e-06
-6.12805e-06
7.25197e-06
-5.66599e-06
7.71994e-06
-5.16182e-06
8.15073e-06
-4.53735e-06
8.52325e-06
-4.0187e-06
8.86521e-06
-3.26204e-06
9.13739e-06
-2.98963e-06
9.40222e-06
-2.04576e-06
9.5912e-06
-2.64314e-06
9.8396e-06
-1.56867e-06
-5.99942e-06
9.27033e-06
5.97595e-05
7.36892e-06
4.035e-05
5.00346e-06
2.48139e-05
2.99099e-06
1.48124e-05
1.57829e-06
8.26251e-06
6.82891e-07
4.97108e-06
1.06643e-07
3.00732e-06
-2.84152e-07
2.07521e-06
-5.57495e-07
1.44525e-06
-7.62154e-07
1.13537e-06
-9.17999e-07
9.39509e-07
-1.04526e-06
8.71839e-07
-1.15382e-06
8.75414e-07
-1.25326e-06
9.38432e-07
-1.34818e-06
1.02909e-06
-1.44136e-06
1.1261e-06
-1.53294e-06
1.21579e-06
-1.62233e-06
1.29379e-06
-1.70827e-06
1.36103e-06
-1.78946e-06
1.41664e-06
-1.86428e-06
1.45548e-06
-1.93079e-06
1.46792e-06
-1.98662e-06
1.44352e-06
-2.02906e-06
1.37343e-06
-2.05524e-06
1.25305e-06
-2.06225e-06
1.08059e-06
-2.04714e-06
8.55158e-07
-2.00697e-06
5.76683e-07
-1.93887e-06
2.45847e-07
-1.84007e-06
-1.35885e-07
-1.70792e-06
-5.66488e-07
-1.53992e-06
-1.04354e-06
-1.33397e-06
-1.56339e-06
-1.08835e-06
-2.1209e-06
-8.01882e-07
-2.70927e-06
-4.73974e-07
-3.31993e-06
-1.04755e-07
-3.94229e-06
3.048e-07
-4.56348e-06
7.52829e-07
-5.16787e-06
1.23648e-06
-5.73572e-06
1.75224e-06
-6.24339e-06
2.29639e-06
-6.66418e-06
2.86557e-06
-6.98772e-06
3.45472e-06
-7.23302e-06
4.05639e-06
-7.41118e-06
4.66163e-06
-7.4953e-06
5.26272e-06
-7.46771e-06
5.85012e-06
-7.31849e-06
6.41746e-06
-7.04715e-06
6.95432e-06
-6.66491e-06
7.45892e-06
-6.17059e-06
7.91834e-06
-5.62125e-06
8.34099e-06
-4.96e-06
8.70577e-06
-4.38349e-06
9.04143e-06
-3.5977e-06
9.3067e-06
-3.25489e-06
9.56836e-06
-2.30742e-06
9.74762e-06
-2.8224e-06
9.9925e-06
-1.81354e-06
-6.10336e-06
9.48497e-06
6.02745e-05
7.84035e-06
4.19947e-05
5.6073e-06
2.7047e-05
3.55815e-06
1.68615e-05
2.02479e-06
9.79587e-06
1.01231e-06
5.98357e-06
3.47376e-07
3.67225e-06
-1.04085e-07
2.52667e-06
-4.21536e-07
1.7627e-06
-6.57751e-07
1.37159e-06
-8.36123e-07
1.11788e-06
-9.78845e-07
1.01456e-06
-1.09704e-06
9.93614e-07
-1.20156e-06
1.04294e-06
-1.29797e-06
1.12551e-06
-1.38998e-06
1.21811e-06
-1.47834e-06
1.30414e-06
-1.56278e-06
1.37824e-06
-1.64222e-06
1.44047e-06
-1.71542e-06
1.48984e-06
-1.78089e-06
1.52095e-06
-1.83688e-06
1.52391e-06
-1.88126e-06
1.4879e-06
-1.91161e-06
1.40378e-06
-1.92532e-06
1.26676e-06
-1.91969e-06
1.07497e-06
-1.89198e-06
8.2745e-07
-1.83941e-06
5.2411e-07
-1.75925e-06
1.6568e-07
-1.64884e-06
-2.46295e-07
-1.50561e-06
-7.09714e-07
-1.32721e-06
-1.22193e-06
-1.11164e-06
-1.77896e-06
-8.57299e-07
-2.37524e-06
-5.63084e-07
-3.00348e-06
-2.28506e-07
-3.65451e-06
1.46245e-07
-4.31704e-06
5.60151e-07
-4.97739e-06
1.01134e-06
-5.61906e-06
1.497e-06
-6.22138e-06
2.01375e-06
-6.76014e-06
2.55801e-06
-7.20843e-06
3.12625e-06
-7.55596e-06
3.71292e-06
-7.8197e-06
4.31032e-06
-8.00858e-06
4.90972e-06
-8.0947e-06
5.50355e-06
-8.06153e-06
6.08256e-06
-7.89749e-06
6.64056e-06
-7.60515e-06
7.16754e-06
-7.19189e-06
7.66189e-06
-6.66495e-06
8.11117e-06
-6.07052e-06
8.52394e-06
-5.37277e-06
8.87935e-06
-4.7389e-06
9.20677e-06
-3.92512e-06
9.46362e-06
-3.51174e-06
9.71972e-06
-2.56352e-06
9.88848e-06
-2.99116e-06
1.01267e-05
-2.05181e-06
-6.17395e-06
9.67002e-06
6.06045e-05
8.27169e-06
4.3393e-05
6.1966e-06
2.9122e-05
4.14754e-06
1.89106e-05
2.51395e-06
1.14295e-05
1.38577e-06
7.11175e-06
6.27108e-07
4.43091e-06
1.09318e-07
3.04446e-06
-2.56874e-07
2.12889e-06
-5.28059e-07
1.64277e-06
-7.31791e-07
1.32161e-06
-8.92162e-07
1.17493e-06
-1.02164e-06
1.12309e-06
-1.13237e-06
1.15368e-06
-1.23105e-06
1.22418e-06
-1.32238e-06
1.30944e-06
-1.40781e-06
1.38957e-06
-1.48751e-06
1.45794e-06
-1.56058e-06
1.51354e-06
-1.62592e-06
1.55518e-06
-1.68216e-06
1.57718e-06
-1.72775e-06
1.5695e-06
-1.76083e-06
1.52098e-06
-1.77925e-06
1.42221e-06
-1.78066e-06
1.26817e-06
-1.7626e-06
1.0569e-06
-1.7225e-06
7.8735e-07
-1.65774e-06
4.59353e-07
-1.56574e-06
7.36757e-08
-1.44395e-06
-3.68085e-07
-1.2899e-06
-8.63756e-07
-1.10138e-06
-1.41046e-06
-8.76486e-07
-2.00386e-06
-6.13732e-07
-2.638e-06
-3.12117e-07
-3.3051e-06
2.87632e-08
-3.99539e-06
4.08648e-07
-4.69693e-06
8.26471e-07
-5.39521e-06
1.28033e-06
-6.07292e-06
1.76745e-06
-6.7085e-06
2.28452e-06
-7.27721e-06
2.82805e-06
-7.75197e-06
3.39436e-06
-8.12227e-06
3.97747e-06
-8.40281e-06
4.5695e-06
-8.60062e-06
5.16191e-06
-8.6871e-06
5.74728e-06
-8.6469e-06
6.31666e-06
-8.46687e-06
6.86405e-06
-8.15254e-06
7.37983e-06
-7.70768e-06
7.86258e-06
-7.14769e-06
8.30032e-06
-6.50826e-06
8.70176e-06
-5.77422e-06
9.04642e-06
-5.08355e-06
9.36401e-06
-4.24271e-06
9.6112e-06
-3.75894e-06
9.85983e-06
-2.81215e-06
1.00175e-05
-3.14879e-06
1.02467e-05
-2.28108e-06
-6.21439e-06
9.82899e-06
6.07755e-05
8.66324e-06
4.45588e-05
6.76477e-06
3.10205e-05
4.7508e-06
2.09246e-05
3.04142e-06
1.31388e-05
1.80322e-06
8.34995e-06
9.47513e-07
5.28661e-06
3.57964e-07
3.63401e-06
-6.16674e-08
2.54852e-06
-3.71452e-07
1.95256e-06
-6.03637e-07
1.5538e-06
-7.84127e-07
1.35542e-06
-9.26831e-07
1.2658e-06
-1.04523e-06
1.27207e-06
-1.14717e-06
1.32612e-06
-1.2385e-06
1.40078e-06
-1.32147e-06
1.47253e-06
-1.39675e-06
1.53322e-06
-1.4637e-06
1.5805e-06
-1.52138e-06
1.61287e-06
-1.56858e-06
1.62438e-06
-1.60396e-06
1.60488e-06
-1.62594e-06
1.54295e-06
-1.63263e-06
1.42889e-06
-1.62194e-06
1.25748e-06
-1.59163e-06
1.0266e-06
-1.53934e-06
7.35058e-07
-1.4626e-06
3.82615e-07
-1.35896e-06
-2.99616e-08
-1.226e-06
-5.01048e-07
-1.06136e-06
-1.02839e-06
-8.62952e-07
-1.60887e-06
-6.2899e-07
-2.23782e-06
-3.58098e-07
-2.90889e-06
-4.93788e-08
-3.61382e-06
2.97487e-07
-4.34226e-06
6.82162e-07
-5.0816e-06
1.10352e-06
-5.81657e-06
1.55962e-06
-6.52902e-06
2.04769e-06
-7.19658e-06
2.56449e-06
-7.794e-06
3.10655e-06
-8.29403e-06
3.67002e-06
-8.68574e-06
4.24861e-06
-8.98139e-06
4.8343e-06
-9.18631e-06
5.41871e-06
-9.27152e-06
5.99458e-06
-9.22277e-06
6.55324e-06
-9.02553e-06
7.08888e-06
-8.68818e-06
7.5923e-06
-8.2111e-06
8.06223e-06
-7.61762e-06
8.48722e-06
-6.93326e-06
8.87608e-06
-6.16307e-06
9.20878e-06
-5.41625e-06
9.5152e-06
-4.54913e-06
9.75168e-06
-3.99542e-06
9.99129e-06
-3.05176e-06
1.01373e-05
-3.29478e-06
1.03557e-05
-2.49952e-06
-6.22737e-06
9.96512e-06
6.08104e-05
9.0161e-06
4.55078e-05
7.30646e-06
3.27302e-05
5.35963e-06
2.28714e-05
3.60169e-06
1.48968e-05
2.26358e-06
9.68807e-06
1.30982e-06
6.24037e-06
6.43673e-07
4.30016e-06
1.6601e-07
3.02619e-06
-1.86148e-07
2.30472e-06
-4.50083e-07
1.81773e-06
-6.53403e-07
1.55874e-06
-8.11572e-07
1.42397e-06
-9.39356e-07
1.39986e-06
-1.04582e-06
1.43258e-06
-1.13804e-06
1.49301e-06
-1.21916e-06
1.55365e-06
-1.29046e-06
1.60452e-06
-1.35164e-06
1.64168e-06
-1.40196e-06
1.66319e-06
-1.44039e-06
1.66281e-06
-1.46582e-06
1.63032e-06
-1.47693e-06
1.55406e-06
-1.47211e-06
1.42408e-06
-1.44955e-06
1.23491e-06
-1.40722e-06
9.84269e-07
-1.34295e-06
6.70783e-07
-1.25443e-06
2.94098e-07
-1.13936e-06
-1.45035e-07
-9.95418e-07
-6.44985e-07
-8.20392e-07
-1.20342e-06
-6.12309e-07
-1.81695e-06
-3.69509e-07
-2.48062e-06
-9.07256e-08
-3.18767e-06
2.24838e-07
-3.92938e-06
5.77409e-07
-4.69483e-06
9.66565e-07
-5.47076e-06
1.39111e-06
-6.24111e-06
1.84905e-06
-6.98697e-06
2.33763e-06
-7.68515e-06
2.85359e-06
-8.30997e-06
3.3935e-06
-8.83394e-06
3.95333e-06
-9.24557e-06
4.52653e-06
-9.5546e-06
5.10501e-06
-9.76479e-06
5.68053e-06
-9.84703e-06
6.24595e-06
-9.78819e-06
6.79291e-06
-9.57249e-06
7.31578e-06
-9.21106e-06
7.80579e-06
-8.7011e-06
8.26182e-06
-8.07366e-06
8.67299e-06
-7.34442e-06
9.04814e-06
-6.53822e-06
9.36781e-06
-5.73593e-06
9.6619e-06
-4.84322e-06
9.88675e-06
-4.22028e-06
1.0116e-05
-3.28104e-06
1.02499e-05
-3.42869e-06
1.04561e-05
-2.70568e-06
-6.2151e-06
1.00814e-05
6.0729e-05
9.33191e-06
4.62573e-05
7.81757e-06
3.42445e-05
5.966e-06
2.4723e-05
4.18832e-06
1.66745e-05
2.76462e-06
1.11118e-05
1.71466e-06
7.29032e-06
9.68208e-07
5.04661e-06
4.28228e-07
3.56617e-06
2.9718e-08
2.70323e-06
-2.69373e-07
2.11682e-06
-4.98423e-07
1.78779e-06
-6.74558e-07
1.6001e-06
-8.13723e-07
1.53902e-06
-9.26222e-07
1.54508e-06
-1.02043e-06
1.58722e-06
-1.10048e-06
1.63369e-06
-1.16838e-06
1.67242e-06
-1.22425e-06
1.69755e-06
-1.2676e-06
1.70654e-06
-1.29761e-06
1.69281e-06
-1.31341e-06
1.64612e-06
-1.31394e-06
1.55459e-06
-1.2979e-06
1.40804e-06
-1.26372e-06
1.20073e-06
-1.20961e-06
9.30158e-07
-1.13358e-06
5.94751e-07
-1.0335e-06
1.94017e-07
-9.07187e-07
-2.71346e-07
-7.5247e-07
-7.99702e-07
-5.67257e-07
-1.38863e-06
-3.4971e-07
-2.0345e-06
-9.82896e-08
-2.73204e-06
1.88159e-07
-3.47412e-06
5.10328e-07
-4.25155e-06
8.68345e-07
-5.05285e-06
1.26169e-06
-5.86411e-06
1.6891e-06
-6.66851e-06
2.14852e-06
-7.44639e-06
2.63717e-06
-8.1738e-06
3.15179e-06
-8.82459e-06
3.68892e-06
-9.37107e-06
4.24437e-06
-9.80102e-06