/*--------------------------------*- C++ -*----------------------------------*\
| =========                 |                                                 |
| \\      /  F ield         | OpenFOAM: The Open Source CFD Toolbox           |
|  \\    /   O peration     | Version:  2.4.0                                 |
|   \\  /    A nd           | Web:      www.OpenFOAM.org                      |
|    \\/     M anipulation  |                                                 |
\*---------------------------------------------------------------------------*/
FoamFile
{
    version     2.0;
    format      ascii;
    class       volScalarField;
    location    "6.52";
    object      k;
}
// * * * * * * * * * * * * * * * * * * * * * * * * * * * * * * * * * * * * * //

dimensions      [0 2 -2 0 0 0 0];

internalField   nonuniform List<scalar> 
6000
(
0.0117122
0.00656315
0.00175559
0.000445486
0.000122224
0.000312708
0.000241452
0.000380923
0.000418797
0.000531573
0.000607329
0.000713126
0.000809437
0.000926976
0.00105101
0.00119035
0.00133617
0.00148904
0.00164479
0.00180334
0.0019647
0.00214005
0.00231984
0.00250012
0.00268046
0.00286047
0.00303971
0.00321782
0.0033944
0.00356906
0.00374239
0.00391288
0.00407977
0.00424259
0.00440064
0.00455326
0.00469966
0.00483922
0.00497099
0.00509463
0.0052087
0.00531384
0.0054072
0.00549128
0.00556236
0.00562215
0.00585016
0.00611666
0.00636859
0.00668407
0.00695491
0.00735928
0.0076472
0.00822342
0.0085146
0.00943919
0.00969007
0.0113769
0.011532
0.0155796
0.0120372
0.0117122
0.00208964
0.000675971
0.000132289
0.000265884
0.00034782
0.000475733
0.000599288
0.000756849
0.000909105
0.00108706
0.00126845
0.00147953
0.00171097
0.00197219
0.00225271
0.00255095
0.00285995
0.003178
0.00350229
0.00383319
0.00416792
0.00450616
0.00484757
0.00519186
0.00553875
0.00588813
0.00623992
0.00659401
0.00695015
0.00730516
0.00766057
0.00801599
0.00837074
0.00872415
0.0090754
0.0094238
0.00976823
0.0101083
0.0104422
0.0107706
0.0110903
0.0114036
0.0117079
0.0120006
0.0123103
0.012621
0.0129144
0.0132257
0.0135038
0.0138378
0.0141029
0.0145065
0.0147622
0.0153283
0.0155764
0.0164964
0.01694
0.0191351
0.011568
0.0151662
0.00288277
0.000646908
0.000180122
0.00031344
0.000438134
0.000590807
0.000753892
0.000950715
0.00114761
0.00137272
0.00160652
0.00187574
0.00217283
0.00250617
0.00286453
0.00324449
0.00363811
0.0040426
0.00445448
0.00487281
0.00529555
0.00572237
0.00615276
0.00658627
0.00702251
0.00746128
0.00790248
0.00834594
0.00879115
0.00923571
0.00968044
0.0101248
0.010568
0.0110093
0.0114476
0.011882
0.0123115
0.0127352
0.0131515
0.0135605
0.0139596
0.01435
0.0147321
0.0150962
0.0154637
0.0158231
0.0161684
0.0165169
0.0168444
0.0172009
0.0175204
0.0179255
0.0182578
0.0187923
0.0191825
0.0200072
0.0207162
0.0227591
0.0114637
0.0160716
0.00401122
0.000529818
0.000226855
0.000360659
0.000507653
0.000683614
0.000874638
0.00110162
0.0013318
0.00159182
0.00186485
0.00217677
0.0025218
0.0029069
0.00332083
0.00375878
0.00421239
0.00467809
0.00515214
0.00563297
0.00611861
0.00660855
0.00710208
0.00759864
0.00809774
0.00859909
0.00910257
0.00960808
0.0101147
0.0106206
0.0111261
0.0116305
0.0121329
0.0126323
0.0131278
0.0136182
0.0141023
0.0145792
0.0150473
0.0155063
0.0159542
0.0163913
0.0168203
0.017225
0.0176292
0.0180193
0.0183981
0.0187702
0.0191313
0.0195026
0.0198629
0.0202705
0.0206657
0.0211834
0.021695
0.0224664
0.0234534
0.0253601
0.0113763
0.0157669
0.00532447
0.000479212
0.000269544
0.000401769
0.000565281
0.000761583
0.000975575
0.00122777
0.00148569
0.00177481
0.00208045
0.00242759
0.00281186
0.00323913
0.00369824
0.00418342
0.00468597
0.00520171
0.00572665
0.00625878
0.00679606
0.00733774
0.00788298
0.00843107
0.00898145
0.00953375
0.0100878
0.0106436
0.0111996
0.0117547
0.0123086
0.0128606
0.0134096
0.0139547
0.0144946
0.0150282
0.0155541
0.0160713
0.0165782
0.0170743
0.017558
0.0180292
0.0184912
0.0189237
0.019353
0.0197638
0.0201652
0.0205522
0.0209358
0.0213155
0.0217044
0.0221115
0.0225542
0.0230573
0.0236654
0.0243947
0.0256011
0.0273768
0.0113034
0.0149419
0.00672731
0.000603475
0.000310532
0.000438119
0.00061555
0.000829867
0.001064
0.00133843
0.00162086
0.00193571
0.00227002
0.00264794
0.00306626
0.00353007
0.00402838
0.00455464
0.00509987
0.00565938
0.00622891
0.00680608
0.00738871
0.00797582
0.00856644
0.00915973
0.00975502
0.0103519
0.0109501
0.0115496
0.0121485
0.012746
0.0133415
0.0139341
0.0145229
0.0151065
0.0156837
0.0162532
0.0168137
0.0173638
0.0179021
0.0184278
0.0189399
0.0194377
0.019924
0.0203766
0.0208239
0.0212489
0.0216655
0.0220618
0.0224602
0.0228439
0.0232524
0.0236568
0.0241352
0.0246248
0.0253099
0.0260043
0.0273813
0.02903
0.0112435
0.0139424
0.0077628
0.00113521
0.000358058
0.000471492
0.000661041
0.000891487
0.00114388
0.00143853
0.00174337
0.00208176
0.00244211
0.00284783
0.00329673
0.00379334
0.0043269
0.00489024
0.00547412
0.00607337
0.00668349
0.00730171
0.00792571
0.00855429
0.00918633
0.00982085
0.0104571
0.0110945
0.0117327
0.0123719
0.0130096
0.0136451
0.0142779
0.0149068
0.0155307
0.0161483
0.0167581
0.0173589
0.017949
0.0185272
0.0190919
0.0196421
0.0201774
0.0206968
0.0212004
0.0216683
0.0221281
0.0225627
0.0229891
0.0233906
0.0237979
0.0241822
0.0246035
0.0250035
0.0255083
0.0259854
0.026732
0.0273969
0.0289076
0.0304322
0.0111888
0.0129401
0.00846371
0.00207066
0.00043317
0.000503916
0.000703547
0.000948423
0.00121769
0.00153107
0.00185686
0.00221724
0.00260175
0.00303311
0.00351005
0.00403677
0.00460276
0.00520033
0.00582003
0.00645622
0.00710414
0.00776069
0.00842334
0.00909068
0.00976143
0.0104345
0.0111089
0.0117841
0.0124598
0.0131357
0.0138093
0.01448
0.0151469
0.015809
0.0164649
0.0171131
0.0177522
0.0183807
0.0189969
0.0195995
0.0201867
0.0207577
0.0213122
0.0218489
0.0223647
0.022844
0.0233124
0.0237528
0.0241846
0.0245877
0.0249993
0.0253816
0.0258101
0.0262041
0.0267279
0.0271931
0.0279889
0.0286284
0.0302433
0.031647
0.011136
0.0120149
0.0088799
0.00319703
0.000581857
0.000538261
0.000744616
0.00100217
0.00128713
0.00161809
0.00196371
0.00234492
0.00275219
0.00320753
0.0037106
0.00426535
0.00486161
0.00549129
0.00614468
0.00681575
0.00749944
0.00819231
0.00889164
0.00959578
0.0103033
0.0110129
0.0117237
0.0124347
0.0131456
0.0138563
0.0145636
0.0152672
0.0159661
0.016659
0.0173444
0.0180208
0.0186866
0.0193401
0.0199795
0.0206035
0.0212103
0.0217989
0.0223694
0.0229193
0.0234436
0.0239309
0.0244043
0.0248474
0.0252809
0.0256828
0.0260947
0.0264724
0.0269037
0.0272903
0.0278268
0.0282804
0.0291153
0.0297322
0.0314274
0.0327136
0.0110858
0.0111985
0.00905949
0.00433614
0.00089343
0.00057951
0.000785923
0.00105407
0.00135356
0.00170109
0.00206567
0.00246682
0.00289574
0.00337377
0.00390142
0.00448254
0.00510737
0.00576745
0.0064529
0.00715723
0.0078751
0.00860277
0.00933728
0.0100767
0.0108196
0.0115643
0.0123098
0.0130552
0.0137999
0.0145436
0.0152831
0.0160179
0.0167469
0.0174687
0.0181817
0.0188842
0.0195744
0.0202506
0.020911
0.0215538
0.0221777
0.0227812
0.0233648
0.023924
0.024454
0.0249463
0.0254217
0.0258645
0.0262967
0.0266946
0.0271035
0.0274744
0.0279045
0.0282822
0.0288263
0.0292683
0.0301334
0.0307299
0.0324856
0.0336579
0.0110393
0.0104975
0.00905234
0.00534197
0.00147437
0.000637439
0.00082967
0.00110547
0.00141821
0.00178137
0.00216414
0.00258451
0.00303418
0.00353382
0.00408478
0.00469091
0.00534289
0.00603199
0.00674813
0.00748442
0.00823523
0.00899648
0.00976497
0.0105386
0.0113155
0.0120942
0.0128733
0.0136519
0.0144291
0.0152046
0.0159748
0.0167394
0.017497
0.0182461
0.018985
0.0197117
0.0204245
0.0211215
0.0218007
0.0224603
0.0230988
0.0237149
0.0243091
0.0248738
0.025407
0.0259017
0.0263764
0.0268164
0.0272443
0.0276359
0.0280387
0.0284008
0.0288261
0.0291935
0.0297406
0.0301708
0.0310588
0.0316363
0.0334355
0.034498
0.010997
0.00990589
0.00890705
0.00615886
0.00222751
0.000731564
0.000879186
0.001158
0.00148229
0.00186009
0.00226035
0.00269929
0.00316897
0.00368933
0.00426251
0.00489248
0.00557039
0.00628734
0.00703302
0.00780019
0.00858288
0.0093767
0.0101782
0.010985
0.0117951
0.0126068
0.0134185
0.0142292
0.0150379
0.015844
0.0166438
0.0174369
0.0182218
0.0189968
0.0197601
0.0205096
0.0212433
0.0219592
0.0226553
0.0233296
0.0239807
0.0246072
0.0252089
0.0257764
0.0263106
0.0268051
0.0272766
0.0277115
0.0281326
0.0285154
0.0289094
0.0292606
0.0296783
0.0300338
0.03058
0.0309978
0.0319021
0.0324616
0.0342899
0.0352472
0.010959
0.00941247
0.00866738
0.00676718
0.00306018
0.000902663
0.000940035
0.00121377
0.00154716
0.00193848
0.00235546
0.00281238
0.0033014
0.00384169
0.00443616
0.00508893
0.00579171
0.00653545
0.00730969
0.00810677
0.00892044
0.00974595
0.0105796
0.0114188
0.0122612
0.0131051
0.0139486
0.0147905
0.0156299
0.0164655
0.0172939
0.0181143
0.0189253
0.019725
0.0205113
0.021282
0.022035
0.0227682
0.0234795
0.0241666
0.0248283
0.025463
0.0260691
0.0266372
0.0271703
0.0276622
0.0281283
0.0285557
0.0289675
0.0293396
0.0297223
0.0300606
0.0304678
0.03081
0.0313518
0.0317566
0.0326714
0.0332134
0.0350586
0.0359154
0.010925
0.00900428
0.00837016
0.00717216
0.00387454
0.0012356
0.00102207
0.00127577
0.00161449
0.00201786
0.00245066
0.00292497
0.00343269
0.00399221
0.00460711
0.00528175
0.00600843
0.00677801
0.00757989
0.00840603
0.00924985
0.0101063
0.0109713
0.0118421
0.0127162
0.0135915
0.014466
0.0153384
0.0162075
0.0170718
0.0179277
0.0187745
0.0196104
0.0204335
0.0212415
0.0220321
0.022803
0.0235518
0.0242765
0.0249747
0.025645
0.0262858
0.0268932
0.0274601
0.0279901
0.0284772
0.0289355
0.0293533
0.0297537
0.0301129
0.030482
0.0308056
0.0311998
0.0315272
0.0320614
0.0324525
0.0333726
0.0338974
0.0357489
0.0365103
0.010895
0.00866859
0.00804459
0.00739345
0.00462666
0.00176141
0.00114248
0.00134851
0.00168641
0.00209978
0.00254724
0.00303827
0.00356406
0.00414212
0.00477666
0.00547229
0.00622196
0.0070165
0.00784516
0.00869955
0.00957276
0.0104594
0.0113551
0.0122569
0.0131619
0.0140678
0.0149727
0.0158747
0.0167728
0.0176649
0.0185474
0.0194195
0.0202793
0.0211246
0.021953
0.0227621
0.0235494
0.0243123
0.0250488
0.0257562
0.0264334
0.0270776
0.0276841
0.0282478
0.0287727
0.0292528
0.0297014
0.0301076
0.0304944
0.0308387
0.0311921
0.0314993
0.0318782
0.0321893
0.032713
0.0330895
0.0340103
0.034518
0.0363668
0.037038
0.0108685
0.00839378
0.00771261
0.00745827
0.00528182
0.00244168
0.0013308
0.00143896
0.00176579
0.00218618
0.0026467
0.00315363
0.00369677
0.0042927
0.00494609
0.00566187
0.00643365
0.00725228
0.0081069
0.00898876
0.00989063
0.0108067
0.0117325
0.0126645
0.0135998
0.0145358
0.0154702
0.0164012
0.0173275
0.0182464
0.0191546
0.020051
0.0209335
0.0217999
0.0226475
0.0234737
0.0242759
0.0250514
0.025798
0.0265129
0.0271951
0.0278396
0.0284435
0.0290024
0.0295201
0.0299913
0.0304282
0.0308207
0.031192
0.0315196
0.0318553
0.0321442
0.0325058
0.0327992
0.0333099
0.0336708
0.0345882
0.0350785
0.0369169
0.0375035
0.0108453
0.00816961
0.00738979
0.00739695
0.00581502
0.00319727
0.00163821
0.00155822
0.00185668
0.00227953
0.00275081
0.00327256
0.0038322
0.00444527
0.00511672
0.00585179
0.0066448
0.00748666
0.00836641
0.00927497
0.0102048
0.0111497
0.0121048
0.0130664
0.0140313
0.0149966
0.0159598
0.0169191
0.0178728
0.0188176
0.0197505
0.0206701
0.0215743
0.0224606
0.0233261
0.0241681
0.0249837
0.0257702
0.0265253
0.027246
0.0279308
0.0285734
0.0291729
0.0297252
0.0302339
0.0306941
0.0311173
0.0314944
0.0318483
0.0321574
0.0324735
0.0327426
0.0330848
0.0333592
0.0338544
0.0341988
0.0351091
0.0355818
0.0374032
0.0379108
0.0108249
0.00798731
0.00708641
0.00723994
0.00621261
0.00395813
0.00209364
0.00172368
0.0019649
0.00238309
0.00286176
0.00339684
0.0039719
0.00460128
0.00528992
0.0060434
0.00685674
0.00772095
0.00862497
0.00955943
0.0105164
0.0114893
0.0124731
0.0134636
0.0144574
0.0154513
0.0164427
0.0174294
0.0184097
0.0193794
0.0203361
0.0212779
0.0222026
0.0231076
0.0239897
0.024846
0.0256735
0.0264694
0.0272314
0.0279561
0.0286406
0.0292797
0.0298732
0.0304171
0.030915
0.0313623
0.03177
0.0321298
0.0324645
0.0327533
0.0330481
0.0332958
0.0336169
0.0338709
0.0343485
0.0346755
0.0355752
0.0360301
0.0378289
0.0382632
0.0108072
0.00783946
0.00680862
0.00701559
0.00647186
0.00467094
0.00267977
0.00196163
0.00209894
0.0025012
0.0029823
0.00352861
0.00411763
0.00476231
0.00546718
0.00623811
0.00707081
0.00795644
0.00888384
0.00984335
0.0108267
0.0118269
0.0128386
0.0138573
0.0148792
0.015901
0.0169197
0.017933
0.0189389
0.0199327
0.020912
0.021875
0.0228191
0.0237414
0.0246387
0.0255079
0.0263459
0.0271497
0.0279168
0.0286431
0.0293251
0.0299592
0.0305449
0.0310786
0.0315638
0.0319964
0.0323869
0.0327277
0.0330415
0.0333085
0.0335804
0.0338052
0.0341035
0.0343358
0.0347938
0.0351025
0.0359885
0.0364253
0.0381969
0.0385636
0.0107918
0.00771989
0.00655944
0.00674888
0.00659925
0.00529616
0.00334707
0.00230582
0.00227116
0.00263977
0.00311591
0.00367044
0.00427148
0.0049302
0.00565014
0.00643747
0.00728847
0.00819449
0.00914431
0.010128
0.0111368
0.0121635
0.0132023
0.0142483
0.0152977
0.0163465
0.0173917
0.0184307
0.0194613
0.0204781
0.021479
0.0224619
0.0234241
0.0243625
0.0252736
0.0261543
0.0270011
0.0278111
0.0285814
0.0293067
0.0299847
0.030612
0.0311882
0.0317099
0.0321808
0.0325969
0.0329684
0.0332885
0.0335798
0.0338234
0.0340709
0.0342715
0.0345454
0.0347549
0.0351916
0.0354809
0.0363506
0.036769
0.0385095
0.0388145
0.0107784
0.00762346
0.00633964
0.00646068
0.0066083
0.00580671
0.004046
0.00277505
0.00249937
0.00280681
0.00326711
0.00382553
0.00443589
0.005107
0.00584065
0.00664312
0.00751124
0.00843655
0.00940771
0.0104145
0.0114478
0.0125002
0.0135651
0.0146377
0.0157136
0.0167886
0.0178594
0.0189231
0.0199772
0.021016
0.0220374
0.0230391
0.024018
0.0249711
0.0258946
0.0267851
0.0276392
0.0284536
0.0292245
0.029947
0.0306194
0.0312381
0.0318032
0.0323113
0.032766
0.0331638
0.0335148
0.0338126
0.0340799
0.0342987
0.0345203
0.0346953
0.0349436
0.0351291
0.0355428
0.0358119
0.0366628
0.0370625
0.0387687
0.0390178
0.0107668
0.00754595
0.00614848
0.00616752
0.00651735
0.00618681
0.00473028
0.00335768
0.00280815
0.00301306
0.00344171
0.00399779
0.0046138
0.00529514
0.00604076
0.00685693
0.0077408
0.00868412
0.00967543
0.0107042
0.0117611
0.012838
0.0139282
0.0150264
0.0161278
0.017228
0.0183233
0.0194107
0.0204873
0.0215469
0.0225876
0.0236066
0.0246009
0.0255673
0.0265015
0.0274003
0.02826
0.0290765
0.0298458
0.0305639
0.0312289
0.0318375
0.0323897
0.0328824
0.0333193
0.0336972
0.0340259
0.0343
0.0345418
0.0347345
0.0349289
0.0350772
0.0352985
0.035459
0.0358482
0.0360964
0.0369262
0.0373071
0.0389765
0.0391755
0.0107568
0.00748387
0.00598424
0.00588182
0.00634721
0.00643086
0.00535938
0.0040192
0.00321888
0.00327251
0.00364718
0.00419207
0.00480869
0.00549741
0.00625283
0.00708094
0.00797897
0.00893886
0.00994896
0.0109985
0.0120777
0.013178
0.0142924
0.0154151
0.016541
0.0176654
0.0187841
0.0198942
0.0209919
0.022071
0.0231296
0.0241646
0.0251728
0.0261509
0.0270944
0.0279997
0.0288628
0.029679
0.0304451
0.0311571
0.031813
0.0324097
0.0329473
0.0334229
0.0338403
0.0341967
0.0345018
0.0347506
0.0349656
0.0351308
0.0352969
0.0354173
0.0356106
0.0357451
0.0361086
0.0363351
0.0371418
0.0375038
0.0391343
0.0392891
0.0107481
0.00743437
0.00584465
0.00561227
0.00611924
0.00654222
0.00590008
0.00471576
0.00373706
0.00360253
0.00389307
0.00441427
0.00502474
0.00571706
0.00647954
0.00731745
0.00822776
0.00920254
0.0102299
0.0112988
0.0123989
0.0135214
0.0146588
0.0158048
0.016954
0.0181013
0.0192423
0.0203738
0.0214913
0.0225886
0.0236637
0.0247132
0.0257337
0.0267219
0.0276728
0.0285826
0.0294466
0.0302609
0.031022
0.0317261
0.0323712
0.0329543
0.0334756
0.0339325
0.0343288
0.034662
0.0349419
0.0351642
0.0353511
0.0354877
0.0356243
0.0357159
0.0358801
0.0359879
0.0363244
0.0365285
0.0373105
0.0376535
0.0392437
0.0393599
0.0107405
0.00739512
0.00572716
0.00536443
0.00585368
0.00653168
0.00632754
0.00540279
0.0043484
0.00401888
0.00419139
0.00467152
0.0052669
0.00595785
0.00672391
0.007569
0.00848936
0.00947708
0.0105198
0.0116065
0.012726
0.0138693
0.0150283
0.0161963
0.0173675
0.0185364
0.0196984
0.0208499
0.0219857
0.0230997
0.0241898
0.0252521
0.0262834
0.0272799
0.028236
0.0291479
0.0300112
0.0308217
0.0315761
0.0322705
0.032903
0.0334707
0.033974
0.0344105
0.0347841
0.0350927
0.0353461
0.0355404
0.0356981
0.035805
0.0359111
0.0359731
0.0361072
0.0361875
0.0364961
0.0366773
0.0374331
0.0377572
0.039306
0.0393892
0.010734
0.0073642
0.00562919
0.00514133
0.00556852
0.00641562
0.00662602
0.00603928
0.00502339
0.00452712
0.00455678
0.00497229
0.00554097
0.00622407
0.00698939
0.00783845
0.00876619
0.00976455
0.0108207
0.0119231
0.0130604
0.0142229
0.0154018
0.0165904
0.0177821
0.0189712
0.0201527
0.0213229
0.0224753
0.0236044
0.0247078
0.0257814
0.0268215
0.0278238
0.0287831
0.0296952
0.0305559
0.0313608
0.0321066
0.0327895
0.0334077
0.0339583
0.0344419
0.0348564
0.0352057
0.0354881
0.0357136
0.0358789
0.0360062
0.0360824
0.0361572
0.0361887
0.0362921
0.0363443
0.0366241
0.036782
0.0375102
0.0378155
0.0393223
0.0393781
0.0107283
0.00734006
0.00554823
0.00494404
0.0052788
0.00621411
0.00678912
0.00659001
0.00572387
0.00512106
0.00499899
0.00532759
0.00585397
0.00652057
0.00727979
0.00812891
0.00906088
0.0100672
0.0111343
0.0122504
0.0134035
0.0145832
0.0157805
0.0169879
0.0181986
0.0194062
0.0206055
0.021793
0.0229601
0.0241026
0.0252176
0.0263002
0.0273469
0.0283531
0.0293136
0.0302241
0.0310802
0.0318776
0.0326129
0.0332825
0.0338845
0.0344163
0.0348784
0.0352693
0.0355928
0.0358478
0.0360441
0.036179
0.036275
0.0363197
0.0363624
0.0363628
0.0364348
0.0364583
0.0367086
0.0368428
0.0375424
0.0378293
0.0392938
0.0393275
0.0107234
0.00732142
0.00548195
0.00477226
0.00499632
0.00594881
0.00681934
0.00702691
0.00640878
0.00578182
0.00552222
0.0057456
0.00621421
0.00685378
0.00759934
0.00844377
0.00937626
0.0103874
0.0114626
0.01259
0.0137566
0.0149516
0.0161653
0.0173896
0.0186174
0.0198419
0.0210573
0.02226
0.0234401
0.0245939
0.0257181
0.0268077
0.027859
0.0288671
0.0298268
0.0307337
0.0315833
0.0323713
0.0330942
0.0337485
0.0343325
0.0348437
0.0352828
0.0356484
0.0359447
0.0361708
0.0363368
0.0364404
0.0365041
0.0365164
0.0365264
0.0364951
0.0365352
0.0365298
0.03675
0.0368603
0.0375303
0.0377992
0.0392213
0.0392384
0.0107191
0.00730722
0.0054282
0.00462471
0.00472964
0.00564123
0.00672709
0.00733025
0.00703826
0.00648024
0.00612203
0.00623209
0.00662829
0.0072293
0.00795345
0.00878748
0.00971553
0.0107276
0.0118079
0.0129437
0.0141213
0.0153292
0.016557
0.0177963
0.0190393
0.0202785
0.021508
0.0227235
0.0239146
0.0250776
0.0262089
0.0273036
0.0283573
0.0293652
0.0303221
0.0312233
0.0320643
0.0328409
0.0335494
0.0341866
0.0347508
0.0352396
0.035654
0.0359929
0.0362605
0.0364565
0.0365909
0.0366623
0.0366929
0.0366722
0.0366488
0.0365855
0.0365932
0.0365587
0.0367484
0.0368347
0.0374745
0.0377258
0.0391058
0.0391116
0.0107153
0.00729661
0.00538509
0.00449951
0.00448446
0.00531125
0.00652911
0.00748934
0.00757636
0.00718065
0.00678402
0.00678821
0.00710138
0.00765217
0.0083464
0.00916353
0.0100821
0.0110908
0.0121724
0.0133134
0.014499
0.0157171
0.0169566
0.0182084
0.0194641
0.020716
0.0219573
0.0231834
0.0243833
0.0255534
0.0266897
0.0277872
0.0288412
0.0298468
0.0307987
0.0316921
0.0325225
0.0332855
0.0339777
0.0345959
0.0351383
0.0356031
0.0359912
0.0363017
0.0365393
0.0367039
0.0368058
0.036844
0.0368408
0.0367865
0.0367294
0.0366337
0.0366089
0.0365451
0.0367041
0.0367663
0.0373754
0.0376098
0.0389482
0.0389477
0.0107121
0.00728889
0.00535093
0.00439449
0.00426398
0.00497598
0.00624648
0.00750286
0.00799317
0.00784472
0.00748435
0.00740849
0.00763588
0.00812644
0.00878207
0.00957526
0.0104787
0.0114794
0.0125582
0.0137007
0.014891
0.0161163
0.0173647
0.0186264
0.0198924
0.0211544
0.0224053
0.0236394
0.0248459
0.0260208
0.0271598
0.0282578
0.0293099
0.0303109
0.0312556
0.032139
0.0329566
0.033704
0.0343779
0.034975
0.035494
0.0359329
0.0362931
0.0365739
0.0367802
0.0369123
0.0369807
0.0369848
0.0369472
0.0368589
0.0367677
0.0366395
0.0365821
0.0364889
0.0366171
0.0366554
0.0372336
0.0374518
0.0387493
0.0387474
0.0107092
0.00728349
0.00532427
0.00430736
0.00406944
0.00464922
0.00590253
0.00737847
0.00826651
0.00843467
0.00819198
0.00807965
0.0082298
0.00865419
0.00926344
0.0100255
0.010908
0.0118955
0.0129671
0.014107
0.0152985
0.0165278
0.017782
0.0190507
0.0203243
0.0215939
0.0228517
0.0240914
0.025302
0.0264793
0.0276186
0.0287147
0.0297624
0.0307566
0.0316917
0.0325629
0.0333655
0.0340952
0.0347487
0.0353229
0.0358165
0.036228
0.0365587
0.0368083
0.036982
0.0370805
0.0371145
0.037084
0.0370114
0.0368888
0.0367634
0.0366026
0.0365125
0.0363903
0.0364876
0.0365024
0.0370494
0.0372523
0.0385097
0.0385114
0.0107068
0.00727991
0.00530383
0.00423586
0.0039006
0.00434121
0.00552067
0.00713174
0.00838333
0.00891592
0.00887141
0.00878064
0.00887549
0.00923447
0.00979193
0.0105164
0.011372
0.0123409
0.0134005
0.0145337
0.0157225
0.0169521
0.0182089
0.0194815
0.0207598
0.0220341
0.0232963
0.0245388
0.0257508
0.0269279
0.0280651
0.0291568
0.0301978
0.0311827
0.032106
0.0329626
0.0337479
0.0344578
0.0350889
0.0356382
0.0361047
0.036487
0.0367867
0.0370039
0.0371438
0.0372078
0.0372066
0.0371408
0.0370329
0.0368756
0.0367159
0.0365227
0.0364001
0.0362491
0.0363157
0.0363074
0.0368232
0.0370118
0.0382303
0.0382402
0.0107046
0.00727779
0.00528854
0.00417784
0.0037562
0.00405882
0.00512265
0.00678444
0.00834044
0.00925936
0.00948553
0.00948375
0.00955882
0.00986219
0.0103665
0.0110485
0.0118718
0.0128168
0.0138596
0.0149816
0.0161636
0.0173897
0.0186456
0.0199189
0.0211987
0.0224748
0.0237386
0.0249809
0.0261917
0.0273659
0.0284983
0.029583
0.0306148
0.0315879
0.0324969
0.0333366
0.0341025
0.0347904
0.035397
0.0359196
0.0363572
0.0367087
0.0369759
0.0371593
0.0372644
0.0372929
0.0372558
0.0371543
0.0370107
0.0368188
0.0366248
0.0363994
0.0362447
0.0360653
0.0361016
0.0360707
0.0365556
0.0367309
0.0379116
0.0379344
0.0107027
0.0072768
0.00527747
0.00413134
0.00363431
0.00380592
0.00472716
0.00636233
0.00814469
0.00944341
0.0099983
0.0101565
0.0102592
0.0105272
0.0109831
0.0116205
0.0124072
0.0133237
0.0143448
0.015451
0.016622
0.0178408
0.019092
0.0203625
0.0216406
0.0229153
0.0241777
0.0254168
0.0266235
0.0277921
0.0289169
0.0299921
0.0310119
0.0319708
0.032863
0.0336835
0.0344277
0.0350914
0.0356715
0.0361655
0.0365724
0.0368915
0.0371249
0.0372733
0.0373426
0.0373348
0.0372613
0.0371236
0.0369442
0.0367177
0.0364897
0.0362324
0.036046
0.0358388
0.0358452
0.0357925
0.0362469
0.0364102
0.0375544
0.0375944
0.010701
0.00727669
0.00526982
0.00409459
0.0035327
0.00358397
0.00434901
0.00589268
0.00781224
0.00945572
0.0103771
0.0107636
0.0109503
0.0112139
0.0116333
0.0122282
0.0129764
0.0138605
0.0148557
0.0159418
0.0170975
0.0183049
0.0195476
0.0208117
0.0220847
0.0233547
0.0246124
0.0258454
0.027045
0.028205
0.0293195
0.0303824
0.0313877
0.0323297
0.0332027
0.0340016
0.0347218
0.0353591
0.0359108
0.0363742
0.0367488
0.0370341
0.0372323
0.0373446
0.0373772
0.0373324
0.037222
0.0370479
0.0368327
0.0365718
0.03631
0.0360214
0.0358038
0.0355697
0.0355469
0.0354731
0.0358975
0.03605
0.0371592
0.0372208
0.0106995
0.00727724
0.00526495
0.00406603
0.00344897
0.00339257
0.00399883
0.00540192
0.007367
0.00929437
0.0105953
0.0112698
0.0116013
0.0119012
0.0123045
0.0128644
0.013575
0.0144247
0.0153906
0.0164526
0.017589
0.0187811
0.0200115
0.0212655
0.0225298
0.0237918
0.0250413
0.0262651
0.0274546
0.0286031
0.0297044
0.0307522
0.0317403
0.0326628
0.0335142
0.034289
0.0349829
0.0355919
0.036113
0.0365442
0.0368848
0.0371348
0.0372966
0.0373718
0.0373668
0.0372846
0.0371368
0.0369263
0.0366753
0.0363802
0.0360852
0.035766
0.035518
0.0352577
0.0352065
0.0351128
0.0355078
0.0356511
0.0367267
0.0368139
0.0106983
0.00727829
0.00526227
0.00404427
0.0033808
0.00323004
0.00368326
0.00491358
0.00683833
0.00896831
0.010634
0.0116416
0.0121788
0.0125633
0.0129791
0.0135179
0.0141961
0.0150116
0.0159463
0.0169811
0.0180946
0.0192676
0.0204819
0.0217222
0.0229742
0.0242248
0.0254627
0.0266741
0.0278503
0.0289844
0.0300696
0.0310994
0.0320676
0.0329681
0.0337952
0.0345437
0.0352091
0.0357876
0.0362764
0.0366735
0.0369787
0.037192
0.0373163
0.0373535
0.0373103
0.0371901
0.0370048
0.0367578
0.0364713
0.0361425
0.0358149
0.0354659
0.0351884
0.034903
0.0348243
0.0347117
0.0350782
0.0352137
0.0362574
0.0363743
0.0106971
0.0072797
0.00526133
0.00402813
0.00332597
0.00309393
0.00340546
0.00444681
0.0062582
0.00849691
0.0104844
0.0118499
0.0126486
0.0131703
0.0136352
0.0141735
0.0148291
0.0156142
0.0165176
0.0175233
0.0186111
0.0197616
0.0209564
0.0221794
0.0234157
0.0246514
0.0258744
0.0270701
0.02823
0.0293466
0.0304128
0.0314218
0.0323674
0.0332432
0.0340437
0.0347635
0.0353982
0.0359442
0.0363988
0.0367602
0.0370285
0.0372039
0.0372897
0.0372882
0.0372062
0.0370477
0.0368249
0.0365415
0.0362199
0.035858
0.0354985
0.0351207
0.0348147
0.0345054
0.0344004
0.0342702
0.0346092
0.0347385
0.0357519
0.0359023
0.0106961
0.00728137
0.00526173
0.00401658
0.00328246
0.00298137
0.0031658
0.00401566
0.00565816
0.00790841
0.010149
0.0118724
0.0129776
0.0136903
0.0142465
0.0148119
0.0154604
0.0162224
0.0170972
0.0180737
0.0191339
0.0202593
0.0214315
0.022634
0.0238513
0.0250689
0.0262734
0.0274504
0.0285909
0.0296869
0.0307312
0.0317168
0.032637
0.0334857
0.034257
0.0349459
0.0355479
0.0360594
0.036478
0.0368023
0.0370323
0.0371688
0.0372151
0.0371742
0.037053
0.0368561
0.0365958
0.0362765
0.0359202
0.035526
0.0351357
0.03473
0.0343968
0.034065
0.0339348
0.0337885
0.0341011
0.034226
0.0352108
0.0353984
0.0106952
0.00728322
0.00526316
0.00400876
0.00324845
0.0028894
0.00296264
0.00362896
0.00506665
0.00723738
0.00964207
0.0116961
0.0131366
0.0140903
0.0147841
0.0154099
0.0160725
0.0168233
0.0176752
0.0186245
0.0196568
0.0207556
0.0219028
0.023082
0.0242773
0.0254738
0.0266566
0.0278117
0.0289298
0.0300024
0.0310219
0.0319812
0.0328735
0.0336926
0.0344325
0.0350883
0.0356555
0.0361308
0.0365119
0.0367975
0.0369881
0.0370847
0.0370909
0.0370101
0.0368495
0.0366141
0.0363166
0.0359617
0.0355716
0.035146
0.0347258
0.0342937
0.0339345
0.0335817
0.0334278
0.0332669
0.0335544
0.0336767
0.0346346
0.0348629
0.0106945
0.00728517
0.00526535
0.00400392
0.00322236
0.00281512
0.00279305
0.00329089
0.0045069
0.00652139
0.00898933
0.0113187
0.013102
0.0143387
0.0152168
0.0159412
0.0166443
0.0174006
0.0182391
0.0191658
0.0201719
0.0212437
0.0223645
0.0235182
0.0246889
0.0258616
0.0270197
0.0281502
0.0292429
0.0302893
0.0312814
0.0322119
0.0330738
0.0338608
0.0345672
0.0351878
0.0357184
0.0361557
0.0364978
0.0367435
0.0368937
0.0369495
0.0369151
0.0367941
0.036594
0.0363204
0.035986
0.0355963
0.0351731
0.0347172
0.0342684
0.0338113
0.0334277
0.0330556
0.0328795
0.0327058
0.0329696
0.0330911
0.034024
0.0342964
0.0106938
0.00728717
0.00526809
0.00400145
0.00320278
0.00275585
0.0026534
0.00300177
0.00399565
0.00579737
0.00822589
0.0107507
0.012859
0.0144069
0.0155133
0.0163771
0.0171518
0.017935
0.0187735
0.0196853
0.0206691
0.0217152
0.0228094
0.0239363
0.0250806
0.0262269
0.027358
0.0284612
0.0295261
0.0305437
0.0315058
0.032405
0.0332342
0.033987
0.0346577
0.0352412
0.0357335
0.0361314
0.0364332
0.036638
0.0367468
0.0367614
0.0366859
0.0365245
0.0362851
0.0359736
0.0356029
0.0351792
0.034724
0.034239
0.0337631
0.0332826
0.0328763
0.0324866
0.0322901
0.0321054
0.0323471
0.0324698
0.0333795
0.0336993
0.0106932
0.0072892
0.00527122
0.00400081
0.00318854
0.00270917
0.00253983
0.00275921
0.00354297
0.00509809
0.00739338
0.0100153
0.0124032
0.0142721
0.0156435
0.0166877
0.0175686
0.0184041
0.0192601
0.020168
0.021136
0.0221599
0.0232286
0.0243286
0.0254454
0.0265636
0.0276658
0.0287395
0.0297743
0.0307608
0.0316907
0.0325564
0.0333507
0.0340674
0.0347005
0.0352453
0.0356977
0.0360549
0.0363153
0.0364782
0.0365451
0.036518
0.0364013
0.0361996
0.0359212
0.0355724
0.0351663
0.0347096
0.0342236
0.033711
0.0332096
0.0327074
0.0322802
0.0318749
0.0316598
0.0314661
0.0316873
0.0318134
0.0327017
0.0330719
0.0106927
0.00729121
0.00527459
0.00400159
0.0031786
0.00267293
0.00244853
0.00255902
0.00315289
0.00444951
0.00653576
0.0091475
0.0117431
0.0139196
0.0155809
0.0168433
0.0178666
0.0187835
0.0196781
0.0205968
0.0215583
0.0225654
0.0236116
0.024686
0.0257753
0.0268645
0.0279365
0.0289791
0.0299819
0.0309353
0.0318311
0.0326614
0.033419
0.0340977
0.0346918
0.0351963
0.0356077
0.035923
0.0361411
0.0362616
0.0362861
0.0362171
0.0360593
0.0358177
0.0355008
0.0351154
0.0346749
0.0341864
0.0336711
0.0331325
0.0326073
0.0320855
0.0316394
0.0312206
0.030989
0.0307883
0.030991
0.0311225
0.0319913
0.0324147
0.0106922
0.00729318
0.00527811
0.00400344
0.0031721
0.00264529
0.00237598
0.00239615
0.00282454
0.00386925
0.00569482
0.00819188
0.0109011
0.0133454
0.0153045
0.0168161
0.0180172
0.0190469
0.0200047
0.0209519
0.0219192
0.0229177
0.0239464
0.0249978
0.0260608
0.0271212
0.0281625
0.029173
0.0301425
0.0310615
0.0319215
0.0327148
0.0334343
0.0340736
0.0346272
0.0350904
0.0354596
0.0357324
0.0359076
0.0359852
0.0359673
0.0358564
0.0356578
0.0353768
0.0350223
0.0346014
0.0341276
0.0336088
0.0330658
0.0325031
0.0319561
0.0314167
0.0309538
0.0305239
0.0302778
0.0300726
0.0302585
0.0303976
0.0312488
0.0317282
0.0106918
0.0072951
0.0052817
0.00400606
0.00316832
0.00262466
0.00231903
0.00226533
0.00255365
0.00336644
0.00490599
0.00719815
0.00991289
0.0125583
0.0148018
0.0165823
0.017993
0.0191673
0.0202152
0.0212118
0.0222
0.0232006
0.0242189
0.025252
0.0262913
0.0273242
0.0283352
0.0293135
0.030249
0.0311326
0.0319559
0.0327111
0.0333913
0.0339902
0.0345023
0.0349233
0.0352498
0.0354794
0.0356115
0.0356462
0.0355859
0.0354336
0.0351948
0.0348753
0.0344841
0.0340289
0.0335234
0.0329759
0.0324071
0.0318222
0.0312556
0.0307009
0.0302237
0.029785
0.0295268
0.0293193
0.0294905
0.0296395
0.0304749
0.0310129
0.0106915
0.00729696
0.00528528
0.00400925
0.00316667
0.00260967
0.00227488
0.00216145
0.00233397
0.00294278
0.00419523
0.00621608
0.00882592
0.0115818
0.0140711
0.0161241
0.0177691
0.0191181
0.0202841
0.0213533
0.0223805
0.0233962
0.0244136
0.0254347
0.0264547
0.0274627
0.028445
0.0293918
0.0302936
0.0311415
0.0319276