/*--------------------------------*- C++ -*----------------------------------*\
| =========                 |                                                 |
| \\      /  F ield         | OpenFOAM: The Open Source CFD Toolbox           |
|  \\    /   O peration     | Version:  2.4.0                                 |
|   \\  /    A nd           | Web:      www.OpenFOAM.org                      |
|    \\/     M anipulation  |                                                 |
\*---------------------------------------------------------------------------*/
FoamFile
{
    version     2.0;
    format      ascii;
    class       volScalarField;
    location    "6.52";
    object      nut;
}
// * * * * * * * * * * * * * * * * * * * * * * * * * * * * * * * * * * * * * //

dimensions      [0 2 -1 0 0 0 0];

internalField   nonuniform List<scalar> 
6000
(
1.24054e-05
1.01561e-05
5.68886e-06
3.07847e-06
1.7202e-06
2.91767e-06
2.70432e-06
3.56683e-06
3.91077e-06
4.59046e-06
5.09511e-06
5.71598e-06
6.2872e-06
6.92832e-06
7.57809e-06
8.2653e-06
8.95538e-06
9.6486e-06
1.033e-05
1.09985e-05
1.16531e-05
1.23247e-05
1.29829e-05
1.36153e-05
1.42198e-05
1.47947e-05
1.5338e-05
1.5848e-05
1.63231e-05
1.67614e-05
1.71637e-05
1.75259e-05
1.78456e-05
1.81215e-05
1.83518e-05
1.85349e-05
1.86691e-05
1.87534e-05
1.87861e-05
1.8767e-05
1.86939e-05
1.85688e-05
1.83874e-05
1.81553e-05
1.78671e-05
1.75271e-05
1.74055e-05
1.7285e-05
1.70849e-05
1.69071e-05
1.66083e-05
1.63973e-05
1.59836e-05
1.57845e-05
1.52253e-05
1.51168e-05
1.43571e-05
1.44815e-05
1.3462e-05
1.43073e-05
2.33582e-05
3.47732e-05
1.72165e-05
7.91671e-06
4.27804e-06
6.90181e-06
1.2548e-05
1.4953e-05
1.93719e-05
2.36958e-05
2.80839e-05
3.31147e-05
3.78244e-05
4.32453e-05
4.88136e-05
5.50768e-05
6.15962e-05
6.84428e-05
7.53577e-05
8.23172e-05
8.91231e-05
9.55188e-05
0.00010169
0.000107754
0.000113707
0.000119542
0.000125249
0.000130822
0.000136255
0.000141531
0.000146555
0.000151218
0.000155673
0.000159911
0.000163916
0.000167674
0.000171167
0.00017438
0.000177291
0.000179888
0.000182141
0.000184048
0.000185562
0.000186693
0.000187355
0.000187368
0.000182994
0.000177678
0.000171858
0.00016529
0.000158268
0.000150599
0.000142459
0.000133934
0.000124756
0.000115743
0.000104971
9.64306e-05
8.43819e-05
7.93938e-05
2.89001e-05
5.0309e-05
2.44413e-05
9.94076e-06
9.81296e-06
1.62365e-05
2.72407e-05
3.39946e-05
4.30906e-05
5.31356e-05
6.27241e-05
7.38064e-05
8.4123e-05
9.58681e-05
0.000108007
0.000121549
0.000135679
0.000150459
0.000165388
0.000180369
0.000195046
0.00020913
0.000222838
0.000236304
0.000249505
0.000262416
0.000275006
0.000287253
0.00029913
0.000310585
0.000321428
0.000331579
0.000341229
0.000350352
0.000358913
0.000366877
0.000374202
0.000380854
0.000386784
0.000391964
0.000396329
0.000399871
0.000402493
0.000404186
0.000404717
0.000403672
0.000396215
0.000387046
0.000376552
0.000364766
0.000351571
0.000337482
0.000321608
0.000305763
0.000287156
0.000270472
0.000248409
0.000232613
0.000206485
0.000201762
3.21952e-05
5.72138e-05
2.78288e-05
1.07742e-05
1.60909e-05
2.6877e-05
4.18835e-05
5.36297e-05
6.73263e-05
8.30167e-05
9.79284e-05
0.000114802
0.000130753
0.000148553
0.00016709
0.000187552
0.000208954
0.000231264
0.000253825
0.000276442
0.000298678
0.000320267
0.000341369
0.000362085
0.000382367
0.000402166
0.000421429
0.000440115
0.000458177
0.00047554
0.000491942
0.000507377
0.000522006
0.000535787
0.000548667
0.00056059
0.000571495
0.000581328
0.000590018
0.00059752
0.00060374
0.000608659
0.000612138
0.000614129
0.000614215
0.000611993
0.000602803
0.000591293
0.000577691
0.00056238
0.000544765
0.000526084
0.000504424
0.000483147
0.000457294
0.000434776
0.000404029
0.000382615
0.000347446
0.000343313
3.39567e-05
5.94447e-05
3.42405e-05
1.14872e-05
2.1423e-05
3.64674e-05
5.49034e-05
7.1493e-05
8.9705e-05
0.000110593
0.000130661
0.000152879
0.000174216
0.000197641
0.00022216
0.000248999
0.000277117
0.000306359
0.00033596
0.000365631
0.000394886
0.000423471
0.000451472
0.000478942
0.000505807
0.000531994
0.000557429
0.000582051
0.000605798
0.000628592
0.000650089
0.000670382
0.000689579
0.000707625
0.000724451
0.000739985
0.000754148
0.000766873
0.000778069
0.000787675
0.000795579
0.000801743
0.000805997
0.000808234
0.000807888
0.000804746
0.000794621
0.000781675
0.000766013
0.000748254
0.000727506
0.000705432
0.000679555
0.000654066
0.000622909
0.000595624
0.000558668
0.000532323
0.000491463
0.000487029
3.49043e-05
5.90442e-05
4.16047e-05
1.187e-05
2.44057e-05
4.42089e-05
6.58209e-05
8.70318e-05
0.00010963
0.00013529
0.000160259
0.000187419
0.000213842
0.000242492
0.000272571
0.000305274
0.000339559
0.000375152
0.000411207
0.000447349
0.000483062
0.000518083
0.000552426
0.000586096
0.000618991
0.000651016
0.000682076
0.000712091
0.000740988
0.000768687
0.000794796
0.000819477
0.000842792
0.000864675
0.000885044
0.000903817
0.000920901
0.000936217
0.00094966
0.000961158
0.000970584
0.00097788
0.000982851
0.000985319
0.000984665
0.00098089
0.000970331
0.000956535
0.000939542
0.000920081
0.000897145
0.000872543
0.000843644
0.000814845
0.000779899
0.000748639
0.000707409
0.000676605
0.000632272
0.000626501
3.5415e-05
5.72026e-05
4.71266e-05
1.44379e-05
2.38168e-05
4.9776e-05
7.44649e-05
0.000100149
0.000126981
0.000157061
0.000186655
0.000218409
0.000249626
0.000283151
0.000318398
0.000356501
0.000396449
0.000437857
0.000479822
0.000521891
0.000563522
0.000604437
0.000644579
0.000683907
0.000722294
0.00075962
0.000795772
0.000830657
0.000864187
0.000896281
0.000926536
0.000955143
0.000982134
0.00100743
0.00103095
0.0010526
0.00107227
0.00108988
0.00110532
0.0011185
0.00112929
0.0011376
0.00114323
0.00114591
0.00114512
0.00114095
0.00113027
0.00111602
0.00109822
0.0010776
0.00105319
0.00102672
0.000995713
0.000964324
0.000926758
0.000892197
0.000848166
0.000813364
0.000767161
0.000759128
3.56743e-05
5.46505e-05
5.08121e-05
2.14788e-05
2.08924e-05
5.29077e-05
8.07521e-05
0.000110853
0.000141767
0.000175987
0.000209941
0.000245993
0.000281728
0.000319819
0.000359882
0.000402973
0.000448128
0.000494867
0.000542247
0.000589743
0.000636794
0.000683095
0.000728528
0.000773009
0.000816385
0.000858514
0.000899266
0.000938532
0.000976219
0.00101224
0.0010462
0.0010783
0.00110855
0.00113688
0.00116318
0.00118735
0.0012093
0.00122893
0.00124612
0.00126077
0.00127276
0.00128198
0.00128819
0.00129109
0.00129031
0.00128592
0.00127534
0.00126091
0.00124268
0.00122131
0.00119594
0.00116813
0.00113572
0.00110234
0.00106306
0.0010258
0.000980085
0.000941764
0.000894846
0.000883871
3.57842e-05
5.1837e-05
5.29281e-05
2.99193e-05
1.88551e-05
5.33082e-05
8.46239e-05
0.000119162
0.000154027
0.000192168
0.00023024
0.000270334
0.000310337
0.000352721
0.000397284
0.000444997
0.000494951
0.000546587
0.000598931
0.000651402
0.000703417
0.00075464
0.000804902
0.000854074
0.00090198
0.000948458
0.000993361
0.00103657
0.00107798
0.0011175
0.00115477
0.00118997
0.0012231
0.00125409
0.00128283
0.00130922
0.00133316
0.00135454
0.00137325
0.00138919
0.00140223
0.00141223
0.00141897
0.00142209
0.00142143
0.00141695
0.00140659
0.00139217
0.00137378
0.00135196
0.00132606
0.00129731
0.00126405
0.00122919
0.00118888
0.00114947
0.00110292
0.00106158
0.00101477
0.00100042
3.58064e-05
4.90324e-05
5.37479e-05
3.79904e-05
1.94435e-05
5.06929e-05
8.60393e-05
0.000125079
0.000163794
0.000205693
0.000247669
0.000291587
0.000335629
0.000382064
0.000430843
0.000482852
0.00053724
0.000593383
0.00065029
0.000707327
0.000763892
0.000819618
0.000874288
0.000927735
0.000979758
0.00103018
0.00107883
0.00112558
0.00117033
0.00121298
0.00125318
0.00129113
0.00132681
0.00136014
0.00139102
0.00141934
0.001445
0.0014679
0.00148793
0.00150498
0.00151891
0.00152959
0.00153677
0.00154013
0.00153965
0.00153519
0.00152512
0.00151084
0.00149247
0.00147045
0.0014443
0.00141497
0.00138126
0.00134535
0.00130456
0.0012635
0.00121676
0.00117288
0.00112678
0.00110881
3.57786e-05
4.63913e-05
5.35452e-05
4.46875e-05
2.32997e-05
4.5259e-05
8.49976e-05
0.000128596
0.000171088
0.000216628
0.000262325
0.000309879
0.000357754
0.000408024
0.000460765
0.00051678
0.000575275
0.000635578
0.000696686
0.000757921
0.000818664
0.000878517
0.000937218
0.000994566
0.00105034
0.00110433
0.00115638
0.00120632
0.00125407
0.0012995
0.00134232
0.0013827
0.00142063
0.00145601
0.00148875
0.00151875
0.00154591
0.00157012
0.00159127
0.00160926
0.00162395
0.00163521
0.00164275
0.00164638
0.00164609
0.00164171
0.00163197
0.00161791
0.0015997
0.00157764
0.00155148
0.00152183
0.00148801
0.00145141
0.00141055
0.00136828
0.00132184
0.00127591
0.00123093
0.00120927
3.57236e-05
4.3993e-05
5.25788e-05
4.98048e-05
2.98714e-05
3.87404e-05
8.15956e-05
0.000129707
0.00017592
0.000225022
0.000274286
0.000325316
0.000376839
0.000430747
0.000487222
0.000546984
0.000609296
0.000673449
0.000738433
0.000803537
0.000868124
0.000931765
0.000994162
0.00105508
0.00111427
0.00117152
0.00122664
0.00127947
0.0013299
0.00137783
0.00142298
0.00146552
0.00150543
0.00154261
0.00157698
0.00160843
0.00163687
0.0016622
0.0016843
0.00170308
0.00171841
0.00173013
0.00173799
0.00174188
0.00174179
0.00173753
0.00172812
0.00171432
0.00169635
0.00167439
0.00164839
0.00161863
0.00158495
0.00154797
0.00150737
0.00146428
0.00141852
0.001371
0.00132743
0.00130211
3.5655e-05
4.18692e-05
5.10796e-05
5.33588e-05
3.70162e-05
3.347e-05
7.6113e-05
0.000128427
0.000178299
0.00023091
0.000283613
0.000337983
0.000392985
0.000450355
0.000510358
0.000573635
0.000639505
0.00070723
0.000775802
0.00084448
0.000912611
0.00097974
0.00104553
0.00110972
0.00117205
0.00123227
0.00129018
0.00134562
0.00139848
0.00144863
0.00149587
0.00154032
0.00158198
0.00162074
0.00165653
0.00168924
0.00171877
0.00174505
0.00176795
0.00178739
0.00180323
0.00181532
0.00182345
0.00182758
0.00182768
0.00182354
0.00181445
0.00180094
0.00178327
0.0017615
0.00173577
0.00170608
0.00167272
0.00163562
0.00159553
0.00155197
0.00150718
0.00145849
0.00141652
0.0013877
3.55811e-05
4.00224e-05
4.92426e-05
5.54875e-05
4.36166e-05
3.11794e-05
6.91073e-05
0.000124833
0.000178249
0.000234321
0.000290354
0.000347949
0.000406278
0.000466949
0.000530292
0.000596877
0.000666073
0.000737123
0.000809025
0.000881013
0.000952422
0.00102277
0.00109169
0.00115889
0.00122409
0.00128703
0.00134749
0.0014053
0.00146036
0.00151251
0.00156161
0.00160778
0.00165097
0.00169113
0.00172814
0.00176194
0.00179241
0.00181948
0.00184305
0.00186302
0.00187927
0.00189164
0.00190002
0.00190433
0.00190459
0.00190058
0.00189179
0.00187856
0.00186122
0.0018397
0.00181433
0.00178484
0.00175193
0.00171494
0.00167554
0.00163183
0.00158822
0.00153875
0.00149852
0.00146639
3.55071e-05
3.84382e-05
4.72256e-05
5.63853e-05
4.93008e-05
3.40791e-05
6.1672e-05
0.000119115
0.000175829
0.000235292
0.000294556
0.000355274
0.000416791
0.000480614
0.000547127
0.000616831
0.000689146
0.0007633
0.000838301
0.000913365
0.000987813
0.00106114
0.00113296
0.00120294
0.00127079
0.00133622
0.00139902
0.00145899
0.00151603
0.00157
0.00162077
0.00166846
0.00171302
0.0017544
0.00179249
0.00182721
0.00185848
0.00188622
0.00191033
0.00193073
0.00194729
0.00195987
0.00196844
0.0019729
0.00197328
0.00196938
0.00196085
0.0019479
0.00193088
0.00190966
0.00188469
0.00185552
0.00182317
0.00178646
0.0017479
0.0017043
0.00166204
0.00161215
0.00157373
0.00153855
3.54358e-05
3.70931e-05
4.51504e-05
5.6267e-05
5.38935e-05
3.99051e-05
5.52236e-05
0.000111642
0.000171157
0.000233876
0.000296268
0.000360016
0.000424591
0.000491427
0.00056095
0.000633603
0.00070885
0.00078591
0.000863804
0.000941734
0.00101901
0.00109511
0.00116961
0.00124216
0.00131246
0.00138021
0.00144515
0.0015071
0.00156596
0.00162155
0.00167384
0.00172289
0.00176867
0.00181112
0.00185015
0.00188567
0.00191761
0.0019459
0.00197045
0.00199116
0.00200795
0.0020207
0.00202939
0.00203395
0.00203442
0.0020306
0.00202229
0.00200959
0.0019929
0.00197199
0.00194747
0.00191867
0.00188696
0.00185067
0.00181307
0.00176981
0.00172901
0.00167903
0.00164248
0.00160451
3.53691e-05
3.59601e-05
4.31073e-05
5.53471e-05
5.73185e-05
4.67077e-05
5.09849e-05
0.000103022
0.000164448
0.000230167
0.000295555
0.000362238
0.000429744
0.000499459
0.000571843
0.000647287
0.000725296
0.000805084
0.000885687
0.000966295
0.00104621
0.00112489
0.00120189
0.00127684
0.00134941
0.0014193
0.00148622
0.00154999
0.00161051
0.00166759
0.00172124
0.00177152
0.00181839
0.00186179
0.00190163
0.00193784
0.00197035
0.00199908
0.00202397
0.00204492
0.00206186
0.00207472
0.00208348
0.00208809
0.00208859
0.00208484
0.0020767
0.00206423
0.00204783
0.00202725
0.00200317
0.00197481
0.00194379
0.00190804
0.00187147
0.00182876
0.00178951
0.00173973
0.00170505
0.00166462
3.53077e-05
3.50119e-05
4.11595e-05
5.3827e-05
5.95768e-05
5.33223e-05
5.11207e-05
9.41822e-05
0.000156047
0.000224319
0.000292511
0.000362015
0.000432324
0.000504786
0.000579886
0.000657971
0.000738585
0.000820941
0.000904086
0.000987205
0.00106959
0.00115068
0.00123001
0.00130721
0.0013819
0.00145378
0.00152254
0.00158799
0.00165002
0.00170847
0.00176337
0.00181476
0.0018626
0.00190684
0.0019474
0.0019842
0.00201718
0.00204627
0.00207141
0.00209252
0.00210955
0.00212245
0.00213124
0.00213584
0.00213634
0.00213261
0.0021246
0.00211231
0.00209619
0.00207592
0.0020523
0.00202442
0.00199411
0.00195899
0.00192352
0.00188152
0.00184388
0.00179456
0.00176176
0.00171919
3.52519e-05
3.42223e-05
3.93479e-05
5.18883e-05
6.073e-05
5.91473e-05
5.4782e-05
8.62346e-05
0.00014646
0.000216566
0.000287271
0.000359449
0.000432416
0.000507488
0.000585159
0.000665742
0.000748814
0.000833588
0.000919126
0.0010046
0.00108931
0.00117266
0.00125419
0.00133348
0.00141016
0.0014839
0.00155438
0.00162139
0.00168482
0.00174452
0.00180056
0.00185296
0.00190168
0.00194667
0.00198784
0.00202515
0.00205851
0.00208789
0.00211321
0.00213441
0.00215148
0.00216438
0.00217312
0.00217768
0.00217814
0.00217438
0.00216645
0.00215431
0.00213843
0.00211846
0.00209529
0.0020679
0.00203832
0.00200392
0.00196957
0.00192842
0.00189244
0.00184382
0.00181289
0.00176849
3.52018e-05
3.35676e-05
3.76961e-05
4.96884e-05
6.08849e-05
6.38755e-05
6.02634e-05
8.0595e-05
0.000136367
0.000207249
0.000280028
0.000354673
0.00043013
0.000507662
0.000587755
0.000670691
0.000756079
0.000843133
0.000930922
0.00101862
0.00110551
0.00119099
0.00127458
0.00135584
0.0014344
0.00150988
0.00158196
0.00165043
0.00171515
0.00177602
0.00183311
0.00188643
0.00193594
0.0019816
0.00202332
0.00206106
0.00209474
0.00212433
0.00214976
0.00217101
0.00218806
0.0022009
0.00220956
0.00221402
0.00221439
0.00221057
0.00220268
0.00219065
0.00217497
0.00215528
0.00213253
0.00210566
0.00207681
0.00204317
0.00200997
0.00196979
0.00193549
0.00188777
0.00185869
0.00181281
3.51571e-05
3.30268e-05
3.62142e-05
4.73583e-05
6.0178e-05
6.73684e-05
6.62159e-05
7.88696e-05
0.000126602
0.000196829
0.000271049
0.000347866
0.000425602
0.000505426
0.00058778
0.000672919
0.000760482
0.000849679
0.000939589
0.00102938
0.00111833
0.00120582
0.00129135
0.00137448
0.00145479
0.00153192
0.00160552
0.00167534
0.00174126
0.00180322
0.00186128
0.00191545
0.00196569
0.00201195
0.00205415
0.00209225
0.00212619
0.00215593
0.00218143
0.00220267
0.00221965
0.00223238
0.00224091
0.00224523
0.00224547
0.00224156
0.00223365
0.00222169
0.00220617
0.00218674
0.00216439
0.00213803
0.00210991
0.00207707
0.00204503
0.00200593
0.00197332
0.00192668
0.00189943
0.00185239
3.51175e-05
3.25814e-05
3.49029e-05
4.50037e-05
5.87631e-05
6.9595e-05
7.18513e-05
8.07284e-05
0.000118098
0.000185881
0.000260683
0.00033926
0.000419008
0.000500922
0.000585357
0.00067254
0.000762131
0.000853337
0.00094524
0.00103701
0.00112789
0.00121729
0.00130465
0.00138954
0.00147153
0.00155021
0.00162523
0.00169633
0.00176338
0.00182636
0.00188532
0.00194027
0.00199117
0.00203797
0.00208059
0.002119
0.00215314
0.00218298
0.0022085
0.00222969
0.00224657
0.00225915
0.0022675
0.00227164
0.0022717
0.00226767
0.0022597
0.00224777
0.00223237
0.00221318
0.0021912
0.00216533
0.00213794
0.00210592
0.00207505
0.0020371
0.00200618
0.00196078
0.00193535
0.00188748
3.50825e-05
3.22159e-05
3.3756e-05
4.27054e-05
5.67992e-05
7.05988e-05
7.66951e-05
8.47179e-05
0.000112728
0.000175069
0.000249368
0.000329152
0.000410567
0.000494327
0.00058064
0.000669687
0.00076115
0.000854226
0.000947994
0.00104161
0.00113433
0.00122552
0.00131462
0.00140118
0.00148475
0.00156491
0.00164128
0.00171358
0.00178169
0.00184562
0.00190544
0.00196111
0.00201262
0.0020599
0.0021029
0.00214157
0.00217586
0.00220576
0.00223126
0.00225235
0.00226908
0.00228148
0.00228962
0.00229354
0.0022934
0.00228919
0.00228113
0.00226918
0.00225387
0.00223488
0.00221325
0.00218787
0.00216117
0.00213
0.00210028
0.00206354
0.00203432
0.00199029
0.00196666
0.00191828
3.50517e-05
3.19168e-05
3.27631e-05
4.05225e-05
5.44416e-05
7.0477e-05
8.04634e-05
8.96033e-05
0.000110982
0.000165424
0.000237619
0.0003179
0.000400546
0.000485855
0.000573807
0.000664518
0.00075768
0.000852477
0.000947976
0.00104333
0.00113777
0.00123064
0.00132139
0.00140953
0.00149461
0.00157617
0.00165382
0.00172725
0.00179636
0.0018612
0.00192181
0.00197816
0.00203023
0.00207796
0.00212128
0.00216017
0.00219457
0.00222449
0.00224993
0.0022709
0.00228745
0.00229962
0.00230751
0.00231118
0.0023108
0.00230639
0.0022982
0.0022862
0.00227094
0.00225212
0.0022308
0.0022059
0.00217987
0.00214956
0.00212098
0.00208551
0.00205795
0.00201543
0.00199357
0.00194501
3.50247e-05
3.16727e-05
3.19111e-05
3.84949e-05
5.18338e-05
6.93653e-05
8.30027e-05
9.44935e-05
0.000112148
0.000158266
0.000226049
0.000305919
0.000389261
0.00047576
0.000565071
0.000657214
0.000751883
0.000848235
0.000945323
0.00104229
0.00113834
0.0012328
0.0013251
0.00141474
0.00150124
0.00158414
0.001663
0.0017375
0.00180756
0.00187326
0.00193462
0.0019916
0.00204418
0.00209232
0.00213593
0.00217499
0.00220948
0.00223939
0.00226474
0.00228555
0.00230189
0.0023138
0.00232142
0.00232481
0.00232415
0.00231951
0.00231115
0.00229906
0.00228382
0.00226513
0.0022441
0.00221965
0.00219428
0.00216482
0.00213736
0.0021032
0.0020773
0.00203639
0.00201629
0.00196784
3.5001e-05
3.14742e-05
3.1186e-05
3.66463e-05
4.91027e-05
6.74245e-05
8.42573e-05
9.8784e-05
0.000115179
0.000153978
0.000215842
0.000293683
0.000377072
0.000464333
0.000554678
0.000647987
0.000743941
0.000841665
0.000940185
0.00103862
0.00113616
0.00123211
0.00132587
0.00141693
0.00150478
0.00158895
0.00166896
0.00174447
0.00181543
0.00188194
0.00194401
0.00200159
0.00205465
0.00210314
0.002147
0.00218621
0.00222075
0.00225063
0.00227586
0.00229649
0.00231259
0.00232422
0.00233154
0.00233461
0.00233366
0.00232876
0.00232019
0.00230799
0.00229273
0.00227416
0.00225338
0.00222936
0.00220461
0.00217601
0.00214965
0.00211681
0.00209255
0.00205334
0.00203499
0.00198695
3.49803e-05
3.13134e-05
3.05733e-05
3.49877e-05
4.63555e-05
6.48283e-05
8.42492e-05
0.00010208
0.000119073
0.000152388
0.000207649
0.00028208
0.00036443
0.000451897
0.000542904
0.000637075
0.000734066
0.000832952
0.000932727
0.00103249
0.0011314
0.00122872
0.00132385
0.00141623
0.00150536
0.00159072
0.00167182
0.00174828
0.00182011
0.00188739
0.00195013
0.00200826
0.00206176
0.00211058
0.00215466
0.00219399
0.00222856
0.00225837
0.00228347
0.00230389
0.00231972
0.00233106
0.00233805
0.00234079
0.00233951
0.00233432
0.00232553
0.00231318
0.00229787
0.00227938
0.00225883
0.00223522
0.00221107
0.00218331
0.00215802
0.00212654
0.00210389
0.00206646
0.00204984
0.00200252
3.49623e-05
3.11835e-05
3.00593e-05
3.35203e-05
4.36783e-05
6.17527e-05
8.30631e-05
0.000104139
0.000123012
0.000152907
0.000201825
0.000271678
0.000351992
0.000438949
0.000530055
0.000624744
0.000722489
0.0008223
0.000923133
0.00102406
0.00112419
0.00122277
0.00131915
0.00141277
0.0015031
0.00158959
0.00167171
0.00174907
0.00182172
0.00188973
0.00195308
0.00201173
0.00206564
0.00211476
0.00215904
0.00219847
0.00223304
0.00226277
0.00228771
0.0023079
0.00232345
0.00233447
0.00234111
0.00234349
0.00234187
0.00233637
0.00232732
0.00231481
0.00229942
0.00228099
0.00226063
0.00223741
0.00221384
0.00218691
0.00216267
0.00213256
0.00211149
0.00207591
0.00206102
0.00201468
3.49465e-05
3.10791e-05
2.96309e-05
3.22379e-05
4.11363e-05
5.83666e-05
8.08328e-05
0.000104839
0.000126382
0.000154759
0.00019835
0.000262924
0.00034024
0.000425927
0.000516589
0.000611369
0.000709484
0.000809935
0.000911601
0.0010135
0.0011147
0.00121441
0.00131193
0.00140669
0.00149812
0.00158567
0.00166874
0.00174694
0.00182036
0.00188906
0.001953
0.00201213
0.00206641
0.00211581
0.00216026
0.00219977
0.00223432
0.00226395
0.00228871
0.00230866
0.00232392
0.00233459
0.00234086
0.00234288
0.00234089
0.00233506
0.00232574
0.00231303
0.00229755
0.00227915
0.00225896
0.00223611
0.00221308
0.00218697
0.00216376
0.00213502
0.0021155
0.00208184
0.00206867
0.00202358
3.49327e-05
3.09956e-05
2.92761e-05
3.11294e-05
3.87753e-05
5.48241e-05
7.77273e-05
0.000104149
0.000128746
0.000157169
0.000196871
0.000256069
0.000329597
0.000413237
0.000502867
0.00059727
0.000695373
0.000796145
0.000898378
0.00100103
0.00110312
0.00120379
0.00130232
0.00139811
0.00149056
0.00157907
0.00166302
0.001742
0.00181615
0.00188549
0.00194998
0.00200956
0.0020642
0.00211384
0.00215845
0.00219801
0.00223253
0.00226204
0.0022866
0.00230629
0.00232123
0.00233155
0.00233744
0.00233907
0.00233671
0.00233053
0.00232091
0.00230799
0.0022924
0.00227401
0.00225398
0.00223147
0.00220897
0.00218365
0.00216143
0.00213407
0.00211608
0.00208438
0.00207293
0.00202936
3.49206e-05
3.09292e-05
2.89842e-05
3.01806e-05
3.66238e-05
5.12596e-05
7.39373e-05
0.000102122
0.000129811
0.000159452
0.000196813
0.000251118
0.00032037
0.000401247
0.000489243
0.000582768
0.00068045
0.000781192
0.000883697
0.000986859
0.00108962
0.00119108
0.00129048
0.00138717
0.00148053
0.00156992
0.00165467
0.00173437
0.0018092
0.00187914
0.00194414
0.00200414
0.0020591
0.00210896
0.0021537
0.00219329
0.00222776
0.00225713
0.00228148
0.0023009
0.00231551
0.00232546
0.00233096
0.00233219
0.00232944
0.0023229
0.00231298
0.00229983
0.0022841
0.00226571
0.00224581
0.00222363
0.00220163
0.0021771
0.00215585
0.00212986
0.00211336
0.00208368
0.00207395
0.00203214
3.49101e-05
3.08767e-05
2.87458e-05
2.93759e-05
3.46956e-05
4.77837e-05
6.96622e-05
9.88753e-05
0.00012941
0.000161056
0.000197516
0.000247835
0.000312713
0.000390254
0.000476043
0.000568179
0.000665007
0.000765344
0.000867799
0.000971195
0.0010744
0.00117646
0.00127657
0.00137402
0.00146817
0.00155834
0.0016438
0.00172417
0.00179962
0.00187011
0.00193558
0.00199597
0.00205121
0.00210127
0.00214611
0.00218571
0.00222011
0.00224933
0.00227346
0.00229258
0.00230686
0.00231643
0.00232153
0.00232235
0.0023192
0.00231229
0.00230205
0.00228867
0.00227278
0.00225438
0.00223459
0.00221273
0.0021912
0.00216745
0.00214714
0.00212252
0.00210749
0.00207985
0.00207184
0.00203203
3.49009e-05
3.08355e-05
2.85523e-05
2.86991e-05
3.29931e-05
4.44826e-05
6.50972e-05
9.45787e-05
0.000127479
0.00016156
0.00019833
0.0002458
0.000306591
0.000380452
0.000463539
0.000553793
0.00064933
0.000748869
0.000850932
0.000954266
0.00105766
0.00116012
0.00126074
0.0013588
0.00145361
0.00154446
0.00163053
0.0017115
0.00178752
0.00185851
0.0019244
0.00198512
0.00204062
0.00209085
0.00213576
0.00217536
0.00220967
0.00223872
0.00226261
0.00228144
0.00229536
0.00230455
0.00230924
0.00230964
0.00230608
0.00229881
0.00228824
0.0022746
0.00225856
0.00224013
0.00222044
0.00219888
0.00217782
0.00215482
0.00213543
0.00211218
0.00209857
0.00207302
0.00206674
0.00202915
3.48929e-05
3.08035e-05
2.83966e-05
2.81346e-05
3.15095e-05
4.14181e-05
6.04232e-05
8.94413e-05
0.000124049
0.000160668
0.000198677
0.000244486
0.000301796
0.000371907
0.000451925
0.000539856
0.000633678
0.000732023
0.000833336
0.000936295
0.00103962
0.00114222
0.00124317
0.00134168
0.001437
0.00152839
0.00161496
0.00169647
0.00177298
0.00184441
0.00191068
0.0019717
0.00202742
0.00207778
0.00212275
0.00216232
0.00219651
0.00222538
0.00224902
0.00226754
0.00228111
0.0022899
0.00229417
0.00229416
0.00229019
0.00228253
0.00227163
0.00225775
0.00224154
0.00222307
0.00220348
0.00218221
0.00216158
0.00213933
0.00212083
0.00209894
0.00208674
0.0020633
0.00205875
0.00202359
3.48858e-05
3.07789e-05
2.82724e-05
2.76673e-05
3.02321e-05
3.86297e-05
5.57983e-05
8.36949e-05
0.000119233
0.000158199
0.000198076
0.000243331
0.000297977
0.000364545
0.000441302
0.000526553
0.000618274
0.000715041
0.000815245
0.000917502
0.00102046
0.00112297
0.00122403
0.00132279
0.00141848
0.00151028
0.00159723
0.00167919
0.00175612
0.00182793
0.00189452
0.00195579
0.00201169
0.00206215
0.00210714
0.00214665
0.00218072
0.00220939
0.00223276
0.00225096
0.00226416
0.00227256
0.00227641
0.00227597
0.00227159
0.00226355
0.00225233
0.00223818
0.00222181
0.0022033
0.00218379
0.00216281
0.00214261
0.00212109
0.00210347
0.00208292
0.0020721
0.00205079
0.00204798
0.00201546
3.48797e-05
3.07603e-05
2.81742e-05
2.72836e-05
2.9144e-05
3.61373e-05
5.13528e-05
7.75779e-05
0.000113212
0.000154081
0.000196154
0.000241794
0.000294689
0.000358159
0.000431658
0.000513994
0.00060329
0.000698124
0.000796869
0.000898093
0.00100039
0.00110253
0.00120347
0.00130229
0.00139817
0.00149023
0.00157746
0.00165977
0.00173704
0.00180915
0.001876
0.00193747
0.0019935
0.00204402
0.002089
0.00212844
0.00216235
0.00219081
0.00221391
0.00223178
0.00224461
0.0022526
0.00225603
0.00225517
0.00225037
0.00224196
0.0022304
0.002216
0.00219946
0.00218091
0.00216149
0.00214078
0.00212101
0.00210021
0.00208344
0.00206423
0.00205475
0.0020356
0.00203453
0.00200485
3.48743e-05
3.07464e-05
2.80975e-05
2.6971e-05
2.82263e-05
3.39449e-05
4.7186e-05
7.13203e-05
0.000106224
0.000148345
0.000192645
0.000239395
0.000291442
0.000352434
0.000422873
0.0005022
0.000588835
0.00068143
0.000778388
0.000878257
0.000979584
0.0010811
0.00118167
0.00128033
0.00137621
0.00146838
0.00155577
0.00163831
0.00171582
0.00178816
0.0018552
0.00191681
0.00197293
0.00202347
0.00206841
0.00210774
0.00214148
0.0021697
0.00219251
0.00221005
0.0022225
0.00223009
0.00223309
0.00223181
0.0022266
0.00221781
0.00220593
0.00219128
0.00217457
0.00215599
0.00213664
0.00211621
0.00209686
0.00207678
0.00206084
0.00204296
0.0020348
0.00201783
0.00201851
0.00199185
3.48695e-05
3.07364e-05
2.80384e-05
2.67186e-05
2.74597e-05
3.20438e-05
4.33669e-05
6.51302e-05
9.8542e-05
0.000141116
0.000187394
0.00023573
0.00028775
0.000346979
0.000414727
0.000491103
0.000574944
0.000665063
0.000759947
0.000858156
0.000958219
0.00105882
0.00115877
0.00125706
0.00135275
0.00144485
0.00153226
0.00161491
0.00169257
0.00176504
0.0018322
0.00189389
0.00195004
0.00200057
0.00204543
0.00208462
0.00211816
0.00214613
0.00216864
0.00218583
0.0021979
0.00220508
0.00220766
0.00220595
0.00220034
0.00219118
0.00217898
0.00216409
0.00214723
0.00212861
0.00210935
0.0020892
0.00207025
0.00205088
0.00203577
0.0020192
0.00201235
0.00199757
0.002
0.00197653
3.48654e-05
3.07294e-05
2.79936e-05
2.65166e-05
2.68249e-05
3.04166e-05
3.9936e-05
5.91835e-05
9.04576e-05
0.000132601
0.000180357
0.000230486
0.000283158
0.000341363
0.000406916
0.000480545
0.000561576
0.000649065
0.000741639
0.000837917
0.000936434
0.00103585
0.00113493
0.00123261
0.0013279
0.00141975
0.00150704
0.00158968
0.00166736
0.00173989
0.00180708
0.00186879
0.00192491
0.00197537
0.00202011
0.00205913
0.00209245
0.00212015
0.00214234
0.00215917
0.00217085
0.00217762
0.00217979
0.00217766
0.00217166
0.00216213
0.00214962
0.0021345
0.00211749
0.00209885
0.00207968
0.00205981
0.00204128
0.00202262
0.00200831
0.00199306
0.00198748
0.0019749
0.00197909
0.00195898
3.48617e-05
3.07248e-05
2.79603e-05
2.63565e-05
2.63037e-05
2.90401e-05
3.69092e-05
5.36178e-05
8.22583e-05
0.000123079
0.000171595
0.000223453
0.00027727
0.00033515
0.000399081
0.000470291
0.000548613
0.00063341
0.000723508
0.000817625
0.000914341
0.00101231
0.00111027
0.0012071
0.00130179
0.00139319
0.00148022
0.0015627
0.0016403
0.00171277
0.00177991
0.00184155
0.00189759
0.00194793
0.00199251
0.00203132
0.0020644
0.00209181
0.00211366
0.00213013
0.00214142
0.00214778
0.00214953
0.00214699
0.00214059
0.00213072
0.00211791
0.00210257
0.00208542
0.00206677
0.0020477
0.00202812
0.00201001
0.00199206
0.00197855
0.00196461
0.00196029
0.00194992
0.00195588
0.00193926
3.48586e-05
3.07221e-05
2.79364e-05
2.62311e-05
2.58797e-05
2.78882e-05
3.42823e-05
4.85295e-05
7.42088e-05
0.000112877
0.000161277
0.000214528
0.000269762
0.000327921
0.000390832
0.000460045
0.000535869
0.000618008
0.000705539
0.000797321
0.000892014
0.000988294
0.00108489
0.00118065
0.00127451
0.00136528
0.00145188
0.00153407
0.00161146
0.00168376
0.00175076
0.00181226
0.00186815
0.00191831
0.00196268
0.00200126
0.00203406
0.00206115
0.00208266
0.00209875
0.00210964
0.00211559
0.00211692
0.00211399
0.00210721
0.002097
0.0020839
0.00206835
0.00205108
0.00203244
0.00201349
0.00199421
0.00197652
0.00195929
0.00194657
0.00193394
0.00193085
0.00192271
0.00193043
0.00191746
3.48558e-05
3.07209e-05
2.79198e-05
2.61342e-05
2.55377e-05
2.69339e-05
3.20361e-05
4.39762e-05
6.65347e-05
0.000102348
0.000149666
0.000203719
0.000260401
0.000319303
0.00038177
0.000449468
0.000523097
0.000602708
0.000687661
0.000776996
0.000869491
0.000963872
0.00105888
0.00115334
0.00124617
0.00133609
0.00142213
0.00150387
0.00158092
0.00165294
0.00171969
0.00178098
0.00183664
0.00188656
0.00193068
0.00196897
0.00200146
0.00202822
0.00204937
0.00206507
0.00207556
0.0020811
0.00208202
0.00207869
0.00207155
0.00206101
0.00204765
0.00203191
0.00201454
0.00199592
0.0019771
0.00195814
0.00194088
0.00192437
0.00191245
0.00190111
0.00189924
0.00189333
0.00190283
0.00189364
3.48533e-05
3.07208e-05
2.79091e-05
2.60605e-05
2.52645e-05
2.61506e-05
3.0141e-05
3.99802e-05
5.94114e-05
9.18434e-05
0.000137106
0.000191153
0.000249052
0.000308983
0.000371517
0.000438201
0.000510005
0.000587301
0.000669744
0.00075659
0.000846763
0.000939071
0.00103229
0.00112525
0.00121684
0.00130575
0.00139103
0.00147218
0.00154874
0.00162036
0.00168677
0.00174774
0.00180311
0.00185273
0.00189655
0.00193452
0.00196667
0.00199306
0.00201383
0.00202914
0.00203922
0.00204435
0.00204487
0.00204116
0.00203366
0.00202281
0.0020092
0.00199329
0.00197584
0.00195726