/*--------------------------------*- C++ -*----------------------------------*\
| =========                 |                                                 |
| \\      /  F ield         | OpenFOAM: The Open Source CFD Toolbox           |
|  \\    /   O peration     | Version:  2.4.0                                 |
|   \\  /    A nd           | Web:      www.OpenFOAM.org                      |
|    \\/     M anipulation  |                                                 |
\*---------------------------------------------------------------------------*/
FoamFile
{
    version     2.0;
    format      ascii;
    class       volScalarField;
    location    "0.2";
    object      k;
}
// * * * * * * * * * * * * * * * * * * * * * * * * * * * * * * * * * * * * * //

dimensions      [0 2 -2 0 0 0 0];

internalField   nonuniform List<scalar> 
6000
(
0.17333
0.0107863
0.00187627
0.00662331
0.00391144
0.00299302
0.00715397
0.0114491
0.0146104
0.0165976
0.017875
0.0187317
0.0193255
0.019741
0.0200317
0.0202329
0.0203734
0.0204706
0.0205397
0.0205912
0.0206331
0.0206712
0.0207109
0.0207552
0.0208076
0.0208704
0.0209459
0.0210355
0.0211419
0.0212664
0.0214091
0.0215732
0.0217624
0.0219794
0.0222261
0.0225054
0.02282
0.0231747
0.0235721
0.0240229
0.0245228
0.0251028
0.0257256
0.0264899
0.0272572
0.0282961
0.0292394
0.0306706
0.0318787
0.0338288
0.0354807
0.0382205
0.0403453
0.0446648
0.0473302
0.0545822
0.0572754
0.0717588
0.0699033
0.113491
0.0797591
0.00909474
0.00160298
0.00408246
0.00268131
0.00267154
0.00505288
0.00710136
0.00847139
0.00927444
0.00974798
0.0100372
0.0102176
0.0103248
0.0103828
0.0104082
0.0104128
0.010404
0.0103882
0.0103695
0.0103509
0.0103346
0.0103226
0.0103158
0.0103156
0.0103226
0.0103377
0.0103612
0.010394
0.0104368
0.0104895
0.0105535
0.0106304
0.0107213
0.010827
0.010949
0.0110885
0.0112476
0.0114279
0.0116333
0.0118642
0.0121306
0.012424
0.0127748
0.0131449
0.0136189
0.0140845
0.0147377
0.0153378
0.0162359
0.0170552
0.0183109
0.0194063
0.0213429
0.0228043
0.0259988
0.0277331
0.0339976
0.0343209
0.0520498
0.0418901
0.00749966
0.00146542
0.00279636
0.00214618
0.00244272
0.00376614
0.00477023
0.00539375
0.00573972
0.00591865
0.00601752
0.00606774
0.00608579
0.00608329
0.0060682
0.00604608
0.00602035
0.00599373
0.00596792
0.0059441
0.00592303
0.00590547
0.00589171
0.00588217
0.00587713
0.00587701
0.00588178
0.0058914
0.00590628
0.00592663
0.00595297
0.00598596
0.00602617
0.00607403
0.00613017
0.00619524
0.00627019
0.00635598
0.00645429
0.00656605
0.00669472
0.00683935
0.00700949
0.00719585
0.00742578
0.00766521
0.00798287
0.00829425
0.00873268
0.00916374
0.00977409
0.0103703
0.0112985
0.012134
0.0136376
0.0147551
0.0176528
0.0184109
0.0259758
0.0258596
0.00637609
0.001432
0.00217075
0.0019468
0.00227334
0.00298819
0.00348515
0.00378021
0.00393729
0.00400533
0.00403885
0.00404884
0.00404336
0.00402886
0.00400967
0.00398841
0.00396668
0.00394567
0.00392605
0.00390829
0.00389263
0.00387934
0.00386847
0.00386014
0.00385442
0.00385143
0.00385145
0.00385398
0.00385899
0.00386691
0.00387798
0.0038925
0.00391074
0.00393292
0.00395933
0.00399029
0.00402627
0.00406781
0.0041157
0.00417072
0.00423421
0.00430669
0.00439149
0.00448678
0.00460157
0.00472645
0.00488607
0.00505084
0.00527086
0.00550353
0.00581405
0.00614404
0.00661394
0.00709715
0.00784541
0.00855388
0.00997723
0.0106839
0.0139998
0.0185143
0.00559647
0.00147335
0.00190427
0.00190749
0.0021709
0.00253712
0.00277829
0.00291931
0.00299142
0.00301736
0.00302793
0.00302638
0.00301709
0.00300408
0.00298956
0.00297484
0.00296063
0.0029474
0.00293536
0.00292468
0.00291537
0.0029075
0.00290104
0.002896
0.00289236
0.00289014
0.00288955
0.00289035
0.00289205
0.00289511
0.00289977
0.00290614
0.00291434
0.00292446
0.00293665
0.00295106
0.0029679
0.00298749
0.00301025
0.0030367
0.00306746
0.00310296
0.00314442
0.0031919
0.00324851
0.00331204
0.00339158
0.00347729
0.00358775
0.00371111
0.00387148
0.00405205
0.00429605
0.00457265
0.00496067
0.00539522
0.00612767
0.00666244
0.00814737
0.0151522
0.00492757
0.00156927
0.00183333
0.00194375
0.00212997
0.00229781
0.00240286
0.00246478
0.00249445
0.00250324
0.00250528
0.00250121
0.00249384
0.00248534
0.00247674
0.00246865
0.00246129
0.00245479
0.00244914
0.00244435
0.00244035
0.00243711
0.00243456
0.00243269
0.00243145
0.00243082
0.00243093
0.00243164
0.00243252
0.0024338
0.00243575
0.00243845
0.00244193
0.00244623
0.00245139
0.00245747
0.00246459
0.00247292
0.00248274
0.00249437
0.00250794
0.00252373
0.00254228
0.00256383
0.00258968
0.00261931
0.00265669
0.00269777
0.00275081
0.00281192
0.00289189
0.00298621
0.00311064
0.00326314
0.00346623
0.00372186
0.00410645
0.00447414
0.00514297
0.0135136
0.00462641
0.00171087
0.00186517
0.00201402
0.00213038
0.00218927
0.00221837
0.00223481
0.00224014
0.00224031
0.00223853
0.0022349
0.00223067
0.00222667
0.00222328
0.00222063
0.00221868
0.00221737
0.00221659
0.00221625
0.00221624
0.00221649
0.00221693
0.00221755
0.00221828
0.00221912
0.00222009
0.00222121
0.00222209
0.00222283
0.00222369
0.00222473
0.00222599
0.00222745
0.00222912
0.00223098
0.00223311
0.00223565
0.00223876
0.00224252
0.00224694
0.00225217
0.00225846
0.00226593
0.00227526
0.00228611
0.00230083
0.0023167
0.00233909
0.00236461
0.00240006
0.00244419
0.00250252
0.00258002
0.00268205
0.00282344
0.00302204
0.00325854
0.00354788
0.0126828
0.00462677
0.00189416
0.00194753
0.0020923
0.00215331
0.00215316
0.00213888
0.00212702
0.0021176
0.00211166
0.00210812
0.00210584
0.00210469
0.0021046
0.00210544
0.00210703
0.00210916
0.00211165
0.00211435
0.00211712
0.00211986
0.00212249
0.00212497
0.00212727
0.00212935
0.00213122
0.00213287
0.00213438
0.00213542
0.00213605
0.00213648
0.0021368
0.00213703
0.00213714
0.00213711
0.00213689
0.00213654
0.00213617
0.00213583
0.0021355
0.00213516
0.00213483
0.00213469
0.00213466
0.00213527
0.00213593
0.00213856
0.0021405
0.0021466
0.00215211
0.00216369
0.00217877
0.0022003
0.00223328
0.00227817
0.00234854
0.00244453
0.00258748
0.00268853
0.012263
0.00477146
0.00211359
0.00205144
0.0021634
0.0021827
0.00215004
0.00211206
0.00208343
0.00206452
0.00205457
0.0020505
0.00204996
0.0020517
0.0020548
0.00205899
0.00206384
0.00206888
0.00207397
0.00207893
0.00208365
0.00208803
0.00209203
0.00209562
0.00209881
0.00210158
0.00210396
0.00210594
0.00210764
0.00210874
0.00210936
0.00210959
0.0021096
0.00210938
0.00210892
0.00210815
0.00210703
0.0021056
0.00210391
0.00210195
0.00209969
0.00209707
0.00209406
0.00209078
0.002087
0.00208327
0.00207864
0.00207528
0.00206964
0.00206756
0.00206207
0.00206111
0.00206026
0.00206213
0.00207008
0.00208246
0.0021106
0.00214843
0.00222716
0.00223609
0.012064
0.00503009
0.00236184
0.00216073
0.00222241
0.00220936
0.00215669
0.00210818
0.00207138
0.00204737
0.00203543
0.00203175
0.00203287
0.00203723
0.00204315
0.00204977
0.00205667
0.00206349
0.00207004
0.00207617
0.00208177
0.00208682
0.0020913
0.00209523
0.00209865
0.00210153
0.00210396
0.00210594
0.00210757
0.00210859
0.00210914
0.00210933
0.00210921
0.00210885
0.00210824
0.00210729
0.00210594
0.00210424
0.00210215
0.00209969
0.00209679
0.00209338
0.0020894
0.00208492
0.00207968
0.00207413
0.00206728
0.00206116
0.00205216
0.00204602
0.00203536
0.00202819
0.00201907
0.00201068
0.00200528
0.00199988
0.00200555
0.00200985
0.00204589
0.0020158
0.0119863
0.00532112
0.00262734
0.0022729
0.00226689
0.00222667
0.00216317
0.00211304
0.00207366
0.00204782
0.00203575
0.00203323
0.00203633
0.0020432
0.00205097
0.00205907
0.00206704
0.00207458
0.00208153
0.00208781
0.00209338
0.00209827
0.0021025
0.00210614
0.00210925
0.0021118
0.00211392
0.00211563
0.00211699
0.00211781
0.00211827
0.0021184
0.00211827
0.0021179
0.00211731
0.00211646
0.00211529
0.00211375
0.00211181
0.00210948
0.0021067
0.00210339
0.00209948
0.00209497
0.00208965
0.00208381
0.0020766
0.00206966
0.00205983
0.00205211
0.00203972
0.00202996
0.00201731
0.00200434
0.00199256
0.00197816
0.00197231
0.0019582
0.00196956
0.00192607
0.0119762
0.00561148
0.002898
0.00238874
0.00229925
0.00223252
0.00216676
0.00212031
0.00208294
0.00205796
0.00204704
0.00204581
0.00205089
0.00205913
0.00206777
0.00207628
0.00208428
0.00209154
0.002098
0.00210365
0.00210853
0.0021127
0.00211623
0.00211919
0.0021217
0.00212369
0.00212532
0.00212663
0.00212763
0.00212821
0.00212854
0.00212863
0.00212852
0.00212822
0.00212775
0.00212712
0.00212625
0.0021251
0.00212361
0.00212175
0.00211949
0.00211675
0.00211348
0.00210961
0.00210502
0.0020998
0.00209335
0.00208679
0.00207765
0.00206983
0.00205772
0.00204741
0.00203395
0.00201967
0.00200561
0.00198786
0.00197664
0.00195428
0.00195245
0.00190722
0.0119922
0.0058841
0.00316329
0.00250654
0.00232475
0.00223134
0.00216722
0.00212727
0.00209492
0.00207267
0.00206358
0.0020635
0.00206999
0.00207854
0.00208707
0.00209507
0.00210227
0.00210856
0.00211396
0.00211854
0.00212238
0.00212558
0.00212822
0.0021304
0.00213222
0.0021336
0.00213471
0.0021356
0.00213624
0.00213661
0.00213682
0.00213688
0.00213679
0.00213659
0.00213628
0.00213586
0.00213531
0.00213456
0.00213357
0.00213229
0.00213067
0.00212868
0.00212625
0.00212332
0.00211981
0.00211566
0.00211054
0.00210503
0.00209746
0.00209051
0.00207995
0.00207045
0.00205795
0.00204424
0.00203034
0.00201233
0.00199935
0.00197509
0.00196742
0.00192569
0.0120272
0.00613222
0.00341526
0.00262433
0.00234903
0.00222544
0.00216573
0.00213302
0.00210725
0.00208874
0.00208167
0.00208248
0.00208948
0.00209752
0.00210519
0.00211205
0.00211796
0.00212292
0.00212703
0.0021304
0.00213314
0.00213537
0.00213715
0.0021386
0.00213979
0.00214064
0.0021413
0.00214182
0.00214219
0.00214239
0.0021425
0.00214253
0.00214247
0.00214235
0.00214218
0.00214195
0.00214166
0.00214126
0.00214069
0.00213993
0.00213893
0.00213763
0.00213604
0.00213406
0.00213166
0.0021287
0.00212505
0.00212089
0.00211522
0.00210966
0.0021013
0.00209336
0.00208283
0.00207087
0.00205859
0.00204221
0.00202983
0.00200716
0.00199822
0.00196294
0.0120678
0.00635441
0.00364884
0.00274002
0.00237565
0.00221772
0.00216361
0.00213743
0.00211857
0.00210411
0.00209892
0.00210032
0.00210702
0.00211401
0.00212036
0.00212578
0.00213022
0.0021338
0.00213665
0.0021389
0.00214067
0.00214207
0.00214314
0.002144
0.0021447
0.00214514
0.00214544
0.00214571
0.00214589
0.00214597
0.002146
0.00214601
0.00214597
0.00214592
0.00214585
0.00214577
0.00214566
0.00214551
0.00214527
0.0021449
0.00214438
0.00214367
0.00214276
0.00214158
0.00214016
0.00213828
0.002136
0.00213318
0.00212939
0.00212538
0.0021194
0.00211339
0.00210534
0.00209579
0.00208595
0.00207231
0.00206191
0.00204277
0.00203541
0.00200791
0.0121072
0.00655195
0.00386167
0.00285178
0.00240621
0.00221095
0.00216156
0.00214069
0.00212819
0.0021176
0.00211398
0.00211568
0.00212152
0.0021272
0.00213208
0.00213603
0.0021391
0.00214143
0.00214321
0.00214455
0.00214555
0.00214631
0.00214686
0.00214729
0.00214763
0.00214778
0.00214784
0.00214794
0.00214799
0.002148
0.00214799
0.00214799
0.00214796
0.00214795
0.00214795
0.00214796
0.00214799
0.002148
0.00214797
0.00214786
0.00214768
0.00214739
0.002147
0.00214644
0.00214576
0.00214477
0.00214359
0.00214195
0.0021398
0.00213727
0.00213353
0.00212949
0.00212403
0.00211716
0.00211014
0.00209986
0.00209227
0.00207768
0.00207366
0.00205417
0.0121421
0.00672735
0.00405349
0.00295837
0.00244072
0.00220824
0.00215899
0.00214324
0.00213589
0.0021287
0.00212632
0.00212806
0.00213279
0.00213711
0.0021406
0.00214323
0.00214513
0.00214647
0.00214741
0.00214806
0.00214851
0.00214882
0.00214902
0.00214917
0.00214926
0.00214923
0.00214912
0.00214914
0.00214912
0.00214909
0.00214904
0.00214903
0.00214902
0.00214903
0.00214907
0.00214915
0.00214925
0.00214937
0.00214947
0.00214953
0.00214956
0.00214954
0.0021495
0.00214936
0.00214922
0.00214887
0.00214851
0.00214782
0.00214694
0.00214568
0.00214386
0.00214162
0.00213858
0.00213438
0.00213019
0.00212356
0.00211922
0.00210962
0.00211004
0.00209794
0.0121708
0.00688321
0.00422544
0.00305918
0.00247825
0.00221074
0.00215526
0.00214529
0.0021417
0.00213742
0.00213595
0.00213754
0.00214113
0.0021442
0.00214649
0.00214805
0.00214902
0.00214962
0.00214996
0.00215013
0.00215021
0.00215023
0.0021502
0.00215018
0.00215012
0.00214999
0.00214976
0.00214974
0.00214968
0.00214962
0.00214956
0.00214954
0.00214954
0.00214957
0.00214963
0.00214975
0.0021499
0.00215008
0.00215026
0.00215041
0.00215057
0.00215072
0.0021509
0.00215102
0.00215126
0.0021513
0.00215158
0.00215149
0.00215161
0.0021513
0.002151
0.00215029
0.00214932
0.00214754
0.00214606
0.0021429
0.00214208
0.00213737
0.00214243
0.00213757
0.012193
0.00702182
0.00437948
0.00315416
0.00251767
0.00221871
0.00215117
0.00214674
0.00214584
0.00214402
0.00214319
0.00214452
0.00214705
0.00214907
0.00215039
0.00215113
0.00215144
0.0021515
0.00215144
0.00215131
0.00215114
0.00215099
0.00215082
0.00215069
0.00215055
0.00215036
0.00215007
0.00215003
0.00214995
0.00214986
0.00214979
0.00214976
0.00214978
0.00214982
0.00214989
0.00215003
0.00215021
0.00215042
0.00215064
0.00215086
0.00215109
0.00215133
0.00215164
0.00215192
0.00215239
0.00215268
0.00215338
0.00215369
0.00215453
0.00215487
0.00215577
0.00215615
0.002157
0.00215702
0.00215824
0.0021579
0.00216079
0.00216017
0.00216996
0.00217247
0.0122088
0.00714516
0.00451782
0.00324363
0.00255812
0.00223068
0.00214839
0.00214721
0.00214872
0.00214876
0.00214849
0.00214951
0.00215114
0.0021523
0.00215289
0.00215302
0.00215289
0.00215259
0.00215226
0.00215193
0.00215163
0.00215137
0.00215112
0.00215094
0.00215076
0.00215054
0.00215021
0.00215015
0.00215006
0.00214996
0.00214989
0.00214986
0.00214988
0.00214992
0.00215
0.00215015
0.00215034
0.00215057
0.00215082
0.00215106
0.00215134
0.00215163
0.00215201
0.00215238
0.00215299
0.00215343
0.00215439
0.00215496
0.00215627
0.00215706
0.0021588
0.00215997
0.00216224
0.00216365
0.00216716
0.00216904
0.00217545
0.0021782
0.00219256
0.00220256
0.0122188
0.00725444
0.00464252
0.00332797
0.00259897
0.00224503
0.00214749
0.00214688
0.00215056
0.00215221
0.00215231
0.002153
0.00215389
0.00215439
0.00215444
0.00215418
0.00215371
0.0021532
0.00215271
0.00215226
0.00215188
0.00215156
0.00215127
0.00215105
0.00215084
0.00215062
0.00215027
0.0021502
0.00215009
0.00214999
0.00214992
0.00214989
0.00214991
0.00214995
0.00215004
0.00215019
0.00215039
0.00215063
0.00215089
0.00215115
0.00215145
0.00215176
0.00215219
0.00215261
0.0021533
0.00215382
0.00215494
0.00215566
0.00215726
0.00215835
0.00216065
0.00216238
0.00216568
0.00216813
0.00217346
0.00217711
0.00218656
0.00219215
0.00221044
0.00222775
0.0122234
0.00735048
0.00475523
0.00340756
0.00263982
0.00226051
0.00214829
0.00214623
0.00215159
0.0021547
0.00215511
0.00215543
0.00215573
0.00215573
0.00215542
0.00215484
0.00215418
0.00215353
0.00215294
0.00215243
0.002152
0.00215165
0.00215133
0.0021511
0.00215087
0.00215065
0.00215029
0.00215021
0.0021501
0.00214998
0.00214991
0.0021499
0.00214991
0.00214995
0.00215005
0.0021502
0.0021504
0.00215064
0.00215091
0.00215119
0.00215149
0.00215182
0.00215227
0.00215271
0.00215345
0.00215401
0.00215522
0.00215604
0.00215781
0.00215909
0.00216175
0.00216384
0.00216788
0.00217107
0.00217777
0.00218278
0.00219473
0.00220264
0.00222412
0.00224829
0.0122233
0.00743416
0.00485723
0.00348265
0.00268036
0.00227634
0.00215059
0.00214547
0.00215213
0.00215654
0.00215718
0.00215716
0.00215699
0.00215661
0.00215599
0.00215523
0.00215444
0.00215371
0.00215306
0.00215251
0.00215206
0.00215169
0.00215136
0.00215111
0.00215087
0.00215065
0.00215029
0.00215021
0.0021501
0.00214995
0.0021499
0.00214989
0.0021499
0.00214994
0.00215004
0.00215019
0.00215039
0.00215064
0.00215091
0.0021512
0.00215151
0.00215185
0.0021523
0.00215276
0.00215351
0.00215411
0.00215536
0.00215623
0.0021581
0.0021595
0.00216239
0.00216471
0.00216924
0.00217294
0.00218063
0.00218667
0.00220057
0.00221033
0.00223424
0.00226463
0.0122206
0.00750642
0.00494951
0.00355339
0.00272026
0.00229213
0.00215379
0.00214489
0.00215241
0.00215794
0.00215875
0.00215847
0.00215788
0.00215718
0.00215636
0.00215547
0.0021546
0.00215381
0.00215312
0.00215255
0.00215208
0.00215171
0.00215137
0.00215111
0.00215086
0.00215065
0.00215029
0.0021502
0.00215009
0.00214993
0.00214988
0.00214988
0.00214989
0.00214994
0.00215003
0.00215018
0.00215038
0.00215062
0.0021509
0.00215119
0.00215151
0.00215185
0.00215232
0.00215278
0.00215354
0.00215415
0.00215543
0.00215633
0.00215826
0.00215973
0.00216275
0.00216521
0.00217006
0.00217412
0.00218248
0.00218927
0.00220463
0.00221583
0.00224148
0.00227732
0.0122145
0.00756808
0.00503282
0.00361981
0.00275922
0.00230778
0.00215726
0.00214466
0.00215258
0.0021591
0.00216002
0.00215954
0.00215853
0.00215759
0.00215661
0.00215563
0.0021547
0.00215387
0.00215316
0.00215258
0.0021521
0.00215171
0.00215137
0.00215111
0.00215085
0.00215064
0.00215028
0.0021502
0.00215007
0.0021499
0.00214987
0.00214987
0.00214989
0.00214993
0.00215001
0.00215016
0.00215036
0.00215061
0.0021509
0.00215119
0.0021515
0.00215185
0.00215232
0.00215278
0.00215355
0.00215417
0.00215546
0.00215638
0.00215834
0.00215985
0.00216295
0.0021655
0.00217055
0.00217484
0.00218366
0.00219098
0.0022074
0.00221967
0.00224648
0.00228696
0.0122061
0.00762002
0.00510773
0.00368191
0.00279694
0.00232328
0.00216068
0.00214488
0.00215276
0.00216012
0.00216113
0.00216044
0.00215907
0.0021579
0.00215679
0.00215574
0.00215477
0.00215391
0.00215318
0.00215259
0.0021521
0.00215172
0.00215137
0.0021511
0.00215085
0.00215064
0.00215027
0.00215019
0.00215006
0.00214988
0.00214987
0.00214987
0.00214989
0.00214993
0.00215
0.00215014
0.00215035
0.0021506
0.00215089
0.00215118
0.0021515
0.00215184
0.00215231
0.00215278
0.00215356
0.00215417
0.00215548
0.0021564
0.00215838
0.00215992
0.00216306
0.00216567
0.00217084
0.00217527
0.00218439
0.00219208
0.00220924
0.00222229
0.0022498
0.00229411
0.0121963
0.00766313
0.00517475
0.00373967
0.00283316
0.00233859
0.00216397
0.00214546
0.00215299
0.0021611
0.00216216
0.00216124
0.00215953
0.00215817
0.00215695
0.00215583
0.00215482
0.00215394
0.0021532
0.0021526
0.0021521
0.00215171
0.00215136
0.0021511
0.00215085
0.00215063
0.00215027
0.00215018
0.00215005
0.00214987
0.00214987
0.00214987
0.00214989
0.00214993
0.00214999
0.00215013
0.00215033
0.00215059
0.00215088
0.00215117
0.00215149
0.00215184
0.00215231
0.00215278
0.00215356
0.00215417
0.00215548
0.00215641
0.00215841
0.00215995
0.00216312
0.00216577
0.00217102
0.00217554
0.00218485
0.00219278
0.00221046
0.00222405
0.00225191
0.00229928
0.0121856
0.00769833
0.00523435
0.00379308
0.00286766
0.00235365
0.00216722
0.00214623
0.0021533
0.00216207
0.00216315
0.00216199
0.00215996
0.00215841
0.00215708
0.0021559
0.00215486
0.00215397
0.00215322
0.00215261
0.00215211
0.00215171
0.00215136
0.00215111
0.00215085
0.00215063
0.00215026
0.00215018
0.00215004
0.00214986
0.00214986
0.00214986
0.00214988
0.00214992
0.00214999
0.00215012
0.00215032
0.00215058
0.00215087
0.00215116
0.00215148
0.00215183
0.0021523
0.00215277
0.00215355
0.00215417
0.00215549
0.00215642
0.00215842
0.00215998
0.00216316
0.00216583
0.00217112
0.0021757
0.00218513
0.00219322
0.00221125
0.0022252
0.00225318
0.00230293
0.0121747
0.00772653
0.00528695
0.00384216
0.00290031
0.00236838
0.00217054
0.00214698
0.00215376
0.00216304
0.00216412
0.00216271
0.00216037
0.00215865
0.00215721
0.00215598
0.00215491
0.00215399
0.00215323
0.00215261
0.00215211
0.00215171
0.00215135
0.0021511
0.00215085
0.00215062
0.00215025
0.00215017
0.00215003
0.00214985
0.00214985
0.00214985
0.00214986
0.0021499
0.00214998
0.00215011
0.00215032
0.00215057
0.00215086
0.00215115
0.00215148
0.00215183
0.0021523
0.00215277
0.00215355
0.00215417
0.00215549
0.00215642
0.00215843
0.00215999
0.00216319
0.00216587
0.00217119
0.00217581
0.00218531
0.0021935
0.00221175
0.00222594
0.00225388
0.00230543
0.0121638
0.00774862
0.00533302
0.00388698
0.00293101
0.0023827
0.002174
0.00214762
0.00215442
0.00216403
0.00216508
0.00216343
0.00216078
0.00215888
0.00215734
0.00215605
0.00215495
0.00215402
0.00215325
0.00215262
0.00215211
0.00215171
0.00215135
0.0021511
0.00215084
0.00215062
0.00215025
0.00215017
0.00215003
0.00214984
0.00214984
0.00214984
0.00214985
0.00214989
0.00214997
0.00215011
0.00215031
0.00215056
0.00215085
0.00215115
0.00215147
0.00215182
0.00215229
0.00215276
0.00215355
0.00215417
0.00215549
0.00215643
0.00215844
0.00216
0.00216321
0.0021659
0.00217124
0.00217588
0.00218544
0.00219369
0.00221208
0.00222642
0.00225422
0.00230707
0.0121533
0.00776546
0.00537304
0.00392764
0.00295975
0.00239653
0.00217761
0.00214827
0.00215516
0.00216502
0.00216604
0.00216414
0.00216118
0.0021591
0.00215747
0.00215612
0.00215499
0.00215404
0.00215326
0.00215263
0.00215211
0.00215171
0.00215135
0.00215109
0.00215083
0.00215061
0.00215024
0.00215016
0.00215002
0.00214983
0.00214983
0.00214983
0.00214984
0.00214988
0.00214997
0.00215011
0.00215031
0.00215056
0.00215085
0.00215114
0.00215147
0.00215182
0.00215229
0.00215276
0.00215355
0.00215417
0.00215549
0.00215643
0.00215844
0.00216001
0.00216322
0.00216592
0.00217128
0.00217594
0.00218552
0.00219381
0.0022123
0.00222674
0.00225434
0.00230809
0.0121435
0.00777787
0.00540749
0.00396432
0.00298654
0.00240987
0.00218132
0.00214904
0.00215593
0.002166
0.002167
0.00216486
0.00216159
0.00215934
0.0021576
0.00215619
0.00215503
0.00215407
0.00215328
0.00215263
0.00215211
0.00215171
0.00215135
0.00215109
0.00215082
0.00215061
0.00215024
0.00215015
0.00215002
0.00214983
0.00214982
0.00214982
0.00214983
0.00214987
0.00214997
0.0021501
0.0021503
0.00215056
0.00215084
0.00215113
0.00215146
0.00215181
0.00215228
0.00215275
0.00215354
0.00215417
0.00215549
0.00215643
0.00215845
0.00216002
0.00216324
0.00216594
0.00217132
0.00217598
0.00218559
0.0021939
0.00221244
0.00222696
0.00225439
0.00230862
0.0121345
0.0077866
0.00543688
0.00399722
0.00301143
0.00242268
0.0021851
0.00214993
0.00215671
0.00216698
0.00216797
0.00216557
0.00216201
0.00215957
0.00215773
0.00215627
0.00215508
0.00215409
0.00215329
0.00215264
0.00215212
0.0021517
0.00215134
0.0021511
0.00215082
0.00215061
0.00215024
0.00215014
0.00215002
0.00214983
0.00214982
0.00214982
0.00214983
0.00214987
0.00214996
0.0021501
0.0021503
0.00215055
0.00215084
0.00215113
0.00215145
0.0021518
0.00215228
0.00215275
0.00215354
0.00215416
0.00215549
0.00215643
0.00215845
0.00216003
0.00216325
0.00216596
0.00217134
0.00217601
0.00218564
0.00219396
0.00221254
0.00222711
0.00225439
0.00230883
0.0121264
0.00779236
0.00546173
0.00402656
0.00303449
0.00243499
0.00218894
0.00215091
0.00215751
0.00216797
0.00216894
0.0021663
0.00216242
0.00215981
0.00215786
0.00215634
0.00215512
0.00215412
0.0021533
0.00215265
0.00215212
0.0021517
0.00215134
0.0021511
0.00215081
0.00215062
0.00215025
0.00215014
0.00215002
0.00214983
0.00214982
0.00214982
0.00214983
0.00214987
0.00214996
0.00215009
0.00215029
0.00215054
0.00215083
0.00215112
0.00215145
0.0021518
0.00215227
0.00215275
0.00215354
0.00215416
0.00215548
0.00215643
0.00215846
0.00216004
0.00216326
0.00216597
0.00217137
0.00217604
0.00218568
0.00219402
0.00221261
0.0022272
0.00225436
0.00230884
0.0121192
0.00779577
0.00548254
0.00405263
0.00305584
0.0024468
0.0021928
0.00215195
0.00215835
0.00216896
0.00216992
0.00216703
0.00216285
0.00216004
0.00215799
0.00215642
0.00215516
0.00215414
0.00215332
0.00215265
0.00215212
0.0021517
0.00215134
0.00215109
0.00215078
0.00215062
0.00215027
0.00215013
0.00215002
0.00214984
0.00214982
0.00214983
0.00214984
0.00214988
0.00214996
0.00215009
0.00215028
0.00215053
0.00215082
0.00215112
0.00215144
0.00215179
0.00215227
0.00215274
0.00215354
0.00215416
0.00215548
0.00215643
0.00215846
0.00216004
0.00216327
0.00216599
0.00217139
0.00217607
0.00218572
0.00219406
0.00221267
0.00222727
0.00225432
0.00230875
0.0121129
0.00779738
0.00549983
0.00407571
0.00307558
0.00245813
0.00219669
0.00215306
0.00215922
0.00216997
0.0021709
0.00216776
0.00216327
0.00216029
0.00215813
0.00215649
0.0021552
0.00215417
0.00215333
0.00215266
0.00215213
0.0021517
0.00215134
0.00215108
0.00215073
0.0021506
0.00215029
0.00215012
0.00215002
0.00214984
0.00214984
0.00214984
0.00214985
0.00214988
0.00214995
0.00215008
0.00215028
0.00215053
0.00215082
0.00215111
0.00215144
0.00215179
0.00215227
0.00215274
0.00215353
0.00215416
0.00215548
0.00215643
0.00215847
0.00216005
0.00216328
0.002166
0.00217141
0.0021761
0.00218576
0.0021941
0.00221271
0.00222731
0.00225427
0.0023086
0.0121075
0.00779763
0.00551407
0.00409609
0.00309385
0.00246902
0.0022006
0.00215422
0.00216013
0.00217099
0.00217189
0.00216849
0.0021637
0.00216053
0.00215827
0.00215657
0.00215525
0.00215419
0.00215335
0.00215266
0.00215213
0.0021517
0.00215134
0.00215107
0.00215068
0.00215058
0.0021503
0.00215011
0.00215001
0.00214985
0.00214985
0.00214985
0.00214986
0.00214988
0.00214995
0.00215008
0.00215028
0.00215052
0.00215081
0.00215111
0.00215143
0.00215179
0.00215226
0.00215273
0.00215353
0.00215415
0.00215548
0.00215643
0.00215847
0.00216006
0.00216329
0.00216601
0.00217143
0.00217612
0.00218579
0.00219413
0.00221275
0.00222734
0.00225421
0.00230841
0.012103
0.00779712
0.00552573
0.00411408
0.00311078
0.00247949
0.00220453
0.00215543
0.00216108
0.00217204
0.0021729
0.00216923
0.00216414
0.00216078
0.00215841
0.00215665
0.00215529
0.00215422
0.00215336
0.00215267
0.00215214
0.00215169
0.00215134
0.00215107
0.00215065
0.00215056
0.00215029
0.0021501
0.00215001
0.00214985
0.00214985
0.00214985
0.00214986
0.00214988
0.00214995
0.00215008
0.00215028
0.00215052
0.00215081
0.0021511
0.00215143
0.00215178
0.00215226
0.00215273
0.00215353
0.00215415
0.00215548
0.00215644
0.00215847
0.00216006
0.0021633
0.00216602
0.00217145
0.00217614
0.00218582
0.00219416
0.00221279
0.00222736
0.00225416
0.00230822
0.0120992
0.00779602
0.00553525
0.00412995
0.00312651
0.00248957
0.00220847
0.00215669
0.00216207
0.00217311
0.00217391
0.00216997
0.00216457
0.00216103
0.00215855
0.00215673
0.00215534
0.00215424
0.00215338
0.00215268
0.00215214
0.00215169
0.00215134
0.00215106
0.00215063
0.00215054
0.00215029
0.0021501
0.00215001
0.00214985
0.00214985
0.00214985
0.00214986
0.00214988
0.00214995
0.00215008
0.00215028
0.00215052
0.0021508
0.0021511
0.00215143
0.00215178
0.00215226
0.00215273
0.00215353
0.00215415
0.00215548
0.00215644
0.00215847
0.00216007
0.00216331
0.00216603
0.00217147
0.00217616
0.00218585
0.00219419
0.00221282
0.00222738
0.0022541
0.00230803
0.0120962
0.00779463
0.005543
0.00414401
0.00314117
0.00249931
0.00221244
0.002158
0.0021631
0.0021742
0.00217493
0.00217072
0.00216501
0.00216128
0.00215869
0.00215681
0.00215538
0.00215427
0.00215339
0.00215269
0.00215215
0.00215169
0.00215134
0.00215107
0.00215062
0.00215052
0.00215029
0.00215009
0.00215
0.00214985
0.00214985
0.00214985
0.00214985
0.00214988
0.00214995
0.00215008
0.00215027
0.00215052
0.0021508
0.0021511
0.00215142
0.00215177
0.00215225
0.00215273
0.00215352
0.00215415
0.00215548
0.00215644
0.00215848
0.00216007
0.00216331
0.00216604
0.00217148
0.00217618
0.00218587
0.00219422
0.00221285
0.00222738
0.00225405
0.00230784
0.0120938
0.00779321
0.00554934
0.0041565
0.0031549
0.00250872
0.00221642
0.00215936
0.00216418
0.0021753
0.00217597
0.00217146
0.00216545
0.00216153
0.00215883
0.00215689
0.00215543
0.00215429
0.00215341
0.0021527
0.00215215
0.00215169
0.00215134
0.00215107
0.00215061
0.0021505
0.00215028
0.00215008
0.00214998
0.00214984
0.00214985
0.00214985
0.00214985
0.00214987
0.00214994
0.00215008
0.00215027
0.00215051
0.0021508
0.00215109
0.00215142
0.00215177
0.00215225
0.00215272
0.00215352
0.00215415
0.00215548
0.00215644
0.00215848
0.00216007
0.00216332
0.00216605
0.00217149
0.00217619
0.00218589
0.00219424
0.00221287
0.00222739
0.00225401
0.00230767
0.012092
0.00779194
0.00555459
0.00416768
0.0031678
0.00251785
0.00222042
0.00216079
0.00216531
0.00217643
0.00217703
0.00217221
0.00216589
0.00216178
0.00215897
0.00215697
0.00215547
0.00215432
0.00215342
0.00215271
0.00215216
0.00215169
0.00215134
0.00215107
0.0021506
0.00215049
0.00215028
0.00215006
0.00214996
0.00214984
0.00214984
0.00214984
0.00214985
0.00214987
0.00214993
0.00215007
0.00215026
0.00215051
0.00215079
0.00215109
0.00215142
0.00215177
0.00215225
0.00215272
0.00215352
0.00215414
0.00215548
0.00215644
0.00215848
0.00216008
0.00216332
0.00216605
0.0021715
0.00217621
0.00218591
0.00219426
0.00221289
0.00222739
0.00225397
0.00230751
0.0120907
0.00779096
0.00555902
0.00417776
0.00317999
0.00252673
0.00222444
0.00216226
0.0021665
0.00217759
0.0021781
0.00217296
0.00216633
0.00216203
0.00215911
0.00215705
0.00215552
0.00215435
0.00215344
0.00215272
0.00215216
0.00215169
0.00215134
0.00215107
0.0021506
0.00215048
0.00215028
0.00215005
0.00214994
0.00214983
0.00214984
0.00214984
0.00214984
0.00214985
0.00214992
0.00215006
0.00215025
0.0021505
0.00215079
0.00215109
0.00215141
0.00215177
0.00215224
0.00215272
0.00215352
0.00215414
0.00215548
0.00215644
0.00215848
0.00216008
0.00216333
0.00216606
0.00217151
0.00217622
0.00218593
0.00219427
0.00221291
0.00222739
0.00225393
0.00230737
0.0120898
0.00779035
0.00556286
0.00418694
0.00319157
0.00253539
0.00222847
0.00216379
0.00216774
0.00217878
0.00217918
0.0021737
0.00216678
0.00216229
0.00215926
0.00215713
0.00215556
0.00215437
0.00215345
0.00215272
0.00215217
0.00215169
0.00215134
0.00215106
0.0021506
0.00215047
0.00215029
0.00215004
0.00214994
0.00214983
0.00214983
0.00214983
0.00214984
0.00214985
0.00214991
0.00215005
0.00215024
0.0021505
0.00215079
0.00215109
0.00215141
0.00215176
0.00215224
0.00215272
0.00215352
0.00215414
0.00215548
0.00215644
0.00215848
0.00216008
0.00216333
0.00216606
0.00217152
0.00217623
0.00218594
0.00219428
0.00221292
0.00222738
0.0022539
0.00230725
0.0120893
0.00779017
0.00556628
0.00419539
0.00320263
0.00254384
0.00223252
0.00216537
0.00216904
0.00217997
0.00218028
0.00217445
0.00216722
0.00216254
0.0021594
0.00215721
0.00215561
0.0021544
0.00215347
0.00215273
0.00215217
0.0021517
0.00215134
0.00215106
0.0021506
0.00215046
0.00215029
0.00215003
0.00214992
0.00214983
0.00214982
0.00214983
0.00214983
0.00214984
0.0021499
0.00215004
0.00215023
0.00215049
0.00215078
0.00215108
0.00215141
0.00215176
0.00215224
0.00215271
0.00215351
0.00215414
0.00215548
0.00215644