/*--------------------------------*- C++ -*----------------------------------*\
| =========                 |                                                 |
| \\      /  F ield         | OpenFOAM: The Open Source CFD Toolbox           |
|  \\    /   O peration     | Version:  2.4.0                                 |
|   \\  /    A nd           | Web:      www.OpenFOAM.org                      |
|    \\/     M anipulation  |                                                 |
\*---------------------------------------------------------------------------*/
FoamFile
{
    version     2.0;
    format      ascii;
    class       volScalarField;
    location    "900";
    object      omega;
}
// * * * * * * * * * * * * * * * * * * * * * * * * * * * * * * * * * * * * * //

dimensions      [0 0 -1 0 0 0 0];

internalField   nonuniform List<scalar> 
48900
(
141333
145459
147206
147387
146697
145572
144286
142983
141763
140650
139676
138827
138105
137481
136963
136515
136153
135838
135592
135372
135211
135057
134957
134848
134792
134711
134689
134623
134628
134572
134602
134550
134607
134566
134663
134637
17048
28789.5
36202.2
40775.5
43548.7
45194.5
46190.4
46876.6
47591.6
48410.1
49220
49958.3
50615
51161
51600.1
51924.3
52146.4
52274.4
52318.3
52298.1
52212.6
52096.8
51930.6
51760.7
51543.4
51347.1
51096.6
50890.9
50614.5
50408.1
50102.5
49908.4
49563.2
49424.3
49041.9
48825.8
2471.04
5006.35
7483.96
9787.95
11831.6
13569.7
15021.1
16230
17256.9
18172.8
19010.2
19769.8
20454.9
21070.9
21621
22111.9
22545.9
22930.6
23260.6
23539.9
23771.5
23972.2
24144.7
24302
24438.8
24566.7
24674.8
24776.1
24855
24927
24970.9
25006.1
25005.1
24991.6
24939.6
24876.9
804.174
1419.94
2099.83
2822.2
3563.5
4294.02
4994.65
5653.7
6266.39
6831.37
7350.55
7824.54
8256.57
8649.03
9005.96
9330.04
9625.8
9896.25
10153.5
10409.9
10668.6
10919.8
11162.5
11391.5
11609.4
11812.9
12005.4
12184.4
12352.5
12507.7
12651.2
12781.2
12893.2
12985.1
13046.2
13089.1
474.905
684.682
923.796
1184.21
1460.69
1745.89
2033.7
2318.7
2596.85
2864.41
3119.43
3359.93
3585.61
3795.5
3990.37
4169.89
4335.78
4488.41
4633.09
4773.72
4912.63
5046.98
5177.39
5301.69
5421.57
5535.24
5644.61
5748.05
5847.02
5940.17
6027.99
6109.74
6185.54
6257.12
6321.49
6379.29
375.976
463.936
568.129
683.09
806.067
934.35
1065.77
1198.29
1330.26
1460
1586.38
1708.23
1825.03
1936
2041.07
2139.75
2232.44
2318.91
2400.13
2476.37
2548.87
2617.42
2683
2745.11
2804.66
2861.03
2915.06
2966.12
3014.85
3060.65
3103.82
3143.93
3181.27
3216.29
3248.34
3277.11
339.246
379.451
430.307
488.118
550.813
616.797
684.902
754.133
823.692
892.786
960.846
1027.28
1091.77
1153.89
1213.49
1270.29
1324.35
1375.49
1423.95
1469.67
1513.04
1554
1592.95
1629.79
1664.88
1698.08
1729.71
1759.6
1787.98
1814.69
1839.82
1863.22
1884.84
1904.57
1922.24
1937.67
324.369
342.975
368.718
399.517
433.906
470.756
509.255
548.756
588.761
628.814
668.575
707.717
746.029
783.277
819.349
854.079
887.448
919.352
949.848
978.881
1006.57
1032.89
1057.98
1081.81
1104.53
1126.1
1146.66
1166.14
1184.65
1202.14
1218.65
1234.13
1248.56
1261.88
1274.04
1284.91
318.181
326.511
339.356
355.842
375.109
396.397
419.114
442.787
467.05
491.589
516.163
540.556
564.618
588.199
611.208
633.543
655.167
676.013
696.085
715.347
733.832
751.522
768.467
784.658
800.149
814.932
829.057
842.514
855.338
867.518
879.071
889.98
900.241
909.834
918.746
926.872
315.609
319.061
325.146
333.675
344.275
356.511
369.991
384.378
399.397
414.813
430.442
446.122
461.733
477.165
492.344
507.195
521.677
535.743
549.378
562.555
575.277
587.529
599.328
610.666
621.562
632.014
642.041
651.64
660.826
669.596
677.956
685.903
693.434
700.543
707.228
713.397
314.551
315.75
318.363
322.479
328.018
334.793
342.588
351.191
360.409
370.072
380.039
390.185
400.412
410.635
420.788
430.811
440.666
450.312
459.73
468.895
477.8
486.43
494.785
502.86
510.658
518.177
525.422
532.391
539.09
545.516
551.673
557.558
563.172
568.512
573.575
578.283
314.119
314.315
315.216
316.965
319.608
323.104
327.366
332.284
337.744
343.635
349.854
356.312
362.932
369.645
376.397
383.139
389.834
396.449
402.962
409.35
415.6
421.699
427.641
433.418
439.027
444.463
449.728
454.817
459.732
464.47
469.031
473.413
477.617
481.641
485.481
489.071
313.943
313.707
313.804
314.344
315.399
316.991
319.106
321.704
324.733
328.129
331.831
335.778
339.915
344.193
348.568
353.001
357.461
361.92
366.355
370.748
375.084
379.349
383.534
387.631
391.635
395.539
399.341
403.036
406.623
410.099
413.462
416.71
419.842
422.857
425.75
428.466
313.868
313.452
313.187
313.141
313.371
313.91
314.776
315.966
317.464
319.243
321.274
323.521
325.951
328.529
331.227
334.014
336.868
339.764
342.685
345.613
348.535
351.439
354.315
357.155
359.951
362.698
365.391
368.025
370.598
373.105
375.544
377.914
380.211
382.434
384.578
386.602
313.838
313.354
312.952
312.667
312.54
312.597
312.861
313.34
314.034
314.935
316.031
317.302
318.73
320.293
321.971
323.744
325.595
327.505
329.461
331.448
333.455
335.471
337.487
339.496
341.491
343.465
345.414
347.333
349.218
351.067
352.875
354.641
356.361
358.034
359.655
361.187
313.822
313.308
312.842
312.445
312.14
311.949
311.888
311.969
312.199
312.578
313.101
313.762
314.551
315.454
316.46
317.556
318.729
319.965
321.255
322.588
323.953
325.343
326.75
328.166
329.585
331.003
332.414
333.814
335.2
336.566
337.912
339.233
340.528
341.794
343.026
344.193
313.811
313.28
312.781
312.323
311.921
311.588
311.334
311.17
311.103
311.137
311.273
311.509
311.842
312.266
312.774
313.358
314.012
314.726
315.494
316.306
317.158
318.041
318.949
319.878
320.822
321.776
322.737
323.699
324.66
325.617
326.567
327.506
328.432
329.344
330.237
331.086
313.804
313.263
312.745
312.256
311.803
311.391
311.029
310.723
310.477
310.298
310.186
310.143
310.169
310.262
310.419
310.637
310.912
311.238
311.612
312.028
312.482
312.969
313.485
314.026
314.588
315.166
315.759
316.362
316.972
317.588
318.205
318.823
319.438
320.048
320.65
321.227
313.798
313.251
312.723
312.217
311.736
311.284
310.864
310.479
310.133
309.828
309.568
309.353
309.185
309.064
308.989
308.959
308.971
309.025
309.118
309.246
309.408
309.599
309.819
310.063
310.33
310.616
310.919
311.237
311.567
311.908
312.256
312.611
312.969
313.33
313.691
314.04
313.793
313.241
312.707
312.191
311.696
311.223
310.772
310.345
309.945
309.572
309.228
308.914
308.631
308.38
308.16
307.973
307.816
307.69
307.593
307.525
307.484
307.467
307.475
307.505
307.555
307.625
307.711
307.813
307.929
308.058
308.197
308.345
308.502
308.665
308.832
308.997
313.789
313.234
312.695
312.173
311.669
311.184
310.717
310.269
309.84
309.43
309.041
308.673
308.326
308.001
307.698
307.417
307.158
306.922
306.706
306.512
306.339
306.185
306.051
305.935
305.837
305.755
305.688
305.636
305.598
305.571
305.556
305.552
305.557
305.57
305.59
305.613
313.786
313.227
312.685
312.159
311.65
311.157
310.681
310.22
309.776
309.348
308.935
308.538
308.157
307.793
307.444
307.111
306.794
306.494
306.209
305.94
305.687
305.449
305.226
305.018
304.824
304.643
304.476
304.321
304.178
304.046
303.925
303.813
303.711
303.618
303.532
303.455
313.784
313.222
312.677
312.147
311.634
311.136
310.654
310.186
309.733
309.294
308.869
308.457
308.058
307.672
307.299
306.939
306.591
306.256
305.934
305.623
305.325
305.039
304.764
304.501
304.25
304.01
303.781
303.562
303.353
303.154
302.964
302.784
302.612
302.448
302.292
302.146
313.781
313.218
312.67
312.138
311.621
311.12
310.633
310.16
309.701
309.256
308.823
308.402
307.994
307.596
307.211
306.836
306.472
306.118
305.775
305.443
305.121
304.808
304.506
304.213
303.93
303.656
303.391
303.135
302.888
302.65
302.419
302.197
301.982
301.776
301.576
301.388
313.779
313.214
312.665
312.13
311.61
311.106
310.615
310.139
309.676
309.226
308.788
308.361
307.947
307.543
307.149
306.766
306.394
306.03
305.677
305.332
304.997
304.671
304.354
304.045
303.745
303.453
303.169
302.893
302.625
302.365
302.112
301.866
301.627
301.396
301.172
300.958
313.778
313.211
312.66
312.123
311.601
311.094
310.601
310.121
309.655
309.201
308.759
308.329
307.91
307.501
307.103
306.715
306.336
305.967
305.608
305.257
304.914
304.581
304.255
303.938
303.628
303.327
303.033
302.746
302.467
302.195
301.93
301.672
301.42
301.175
300.938
300.711
313.777
313.209
312.656
312.118
311.594
311.085
310.589
310.107
309.637
309.18
308.735
308.302
307.879
307.467
307.066
306.674
306.291
305.918
305.554
305.199
304.852
304.514
304.184
303.861
303.547
303.24
302.94
302.647
302.362
302.083
301.812
301.547
301.288
301.036
300.791
300.557
313.775
313.207
312.653
312.113
311.588
311.077
310.579
310.095
309.623
309.163
308.716
308.279
307.854
307.439
307.035
306.64
306.254
305.878
305.511
305.153
304.803
304.461
304.127
303.802
303.483
303.173
302.869
302.573
302.284
302.001
301.726
301.457
301.194
300.938
300.689
300.45
313.775
313.205
312.65
312.11
311.583
311.07
310.571
310.085
309.611
309.149
308.699
308.261
307.833
307.416
307.009
306.611
306.223
305.845
305.475
305.114
304.762
304.417
304.081
303.752
303.431
303.118
302.812
302.513
302.221
301.936
301.657
301.385
301.12
300.861
300.609
300.367
313.774
313.204
312.649
312.107
311.579
311.065
310.564
310.076
309.601
309.138
308.686
308.245
307.815
307.396
306.987
306.588
306.198
305.817
305.445
305.082
304.727
304.38
304.042
303.711
303.388
303.072
302.764
302.462
302.168
301.881
301.6
301.326
301.058
300.796
300.542
300.298
313.774
313.203
312.647
312.105
311.576
311.061
310.559
310.07
309.593
309.128
308.675
308.233
307.801
307.38
306.969
306.568
306.176
305.793
305.42
305.054
304.698
304.349
304.009
303.676
303.351
303.033
302.723
302.419
302.123
301.834
301.551
301.274
301.005
300.741
300.485
300.239
313.773
313.203
312.646
312.103
311.574
311.058
310.555
310.065
309.587
309.121
308.666
308.223
307.79
307.367
306.955
306.552
306.158
305.774
305.399
305.032
304.673
304.323
303.981
303.646
303.32
303
302.688
302.383
302.085
301.793
301.508
301.23
300.958
300.693
300.434
300.186
313.773
313.202
312.645
312.102
311.572
311.056
310.552
310.061
309.582
309.115
308.66
308.215
307.781
307.357
306.943
306.539
306.144
305.759
305.382
305.013
304.653
304.302
303.958
303.622
303.293
302.972
302.658
302.352
302.052
301.759
301.472
301.192
300.918
300.651
300.39
300.14
313.773
313.202
312.645
312.102
311.572
311.055
310.551
310.059
309.579
309.112
308.655
308.209
307.774
307.35
306.935
306.529
306.133
305.747
305.368
304.999
304.638
304.284
303.939
303.602
303.272
302.949
302.634
302.325
302.024
301.729
301.441
301.159
300.884
300.615
300.352
300.1
313.773
313.202
312.645
312.101
311.571
311.054
310.55
310.058
309.578
309.11
308.652
308.206
307.77
307.345
306.929
306.523
306.126
305.738
305.359
304.988
304.626
304.272
303.925
303.587
303.255
302.932
302.615
302.305
302.002
301.706
301.416
301.133
300.856
300.585
300.321
300.067
313.773
313.202
312.645
312.102
311.572
311.055
310.55
310.058
309.578
309.109
308.652
308.205
307.769
307.343
306.926
306.52
306.122
305.733
305.354
304.982
304.619
304.264
303.916
303.577
303.245
302.92
302.602
302.291
301.987
301.689
301.398
301.113
300.835
300.563
300.297
300.042
313.773
313.203
312.646
312.103
311.573
311.056
310.551
310.059
309.579
309.11
308.652
308.206
307.769
307.343
306.926
306.519
306.121
305.732
305.352
304.98
304.616
304.26
303.912
303.571
303.238
302.913
302.594
302.282
301.977
301.678
301.386
301.101
300.821
300.548
300.281
300.024
313.774
313.203
312.647
312.104
311.574
311.057
310.553
310.061
309.581
309.112
308.655
308.208
307.771
307.345
306.928
306.521
306.122
305.733
305.352
304.98
304.616
304.26
303.911
303.57
303.236
302.91
302.591
302.278
301.972
301.673
301.38
301.094
300.813
300.539
300.271
300.014
313.774
313.204
312.648
312.105
311.576
311.059
310.555
310.064
309.584
309.116
308.658
308.211
307.775
307.349
306.932
306.525
306.126
305.737
305.356
304.984
304.619
304.263
303.914
303.573
303.239
302.912
302.592
302.279
301.973
301.673
301.38
301.093
300.812
300.537
300.269
300.011
313.775
313.205
312.649
312.107
311.578
311.062
310.559
310.067
309.588
309.12
308.663
308.217
307.781
307.354
306.938
306.531
306.133
305.743
305.363
304.99
304.626
304.269
303.921
303.579
303.246
302.919
302.599
302.286
301.98
301.68
301.387
301.1
300.819
300.544
300.276
300.018
313.775
313.206
312.651
312.109
311.581
311.065
310.563
310.072
309.593
309.126
308.669
308.224
307.788
307.362
306.946
306.54
306.142
305.753
305.373
305.001
304.637
304.282
303.933
303.593
303.26
302.934
302.615
302.303
301.998
301.7
301.408
301.122
300.843
300.57
300.304
300.048
313.776
313.208
312.653
312.112
311.584
311.07
310.568
310.078
309.6
309.133
308.678
308.233
307.798
307.373
306.958
306.553
306.156
305.769
305.39
305.02
304.658
304.304
303.958
303.62
303.29
302.967
302.652
302.344
302.043
301.749
301.462
301.182
300.909
300.642
300.382
300.133
313.777
313.209
312.656
312.116
311.589
311.075
310.574
310.086
309.609
309.143
308.689
308.246
307.813
307.39
306.978
306.575
306.182
305.798
305.423
305.058
304.702
304.354
304.015
303.685
303.364
303.05
302.746
302.449
302.16
301.88
301.607
301.342
301.084
300.834
300.592
300.362
313.778
313.212
312.659
312.12
311.595
311.082
310.583
310.096
309.621
309.158
308.707
308.267
307.839
307.422
307.016
306.621
306.237
305.864
305.502
305.151
304.811
304.481
304.163
303.854
303.557
303.269
302.992
302.726
302.469
302.222
301.984
301.756
301.537
301.328
301.127
300.939
313.78
313.214
312.663
312.126
311.602
311.092
310.596
310.113
309.643
309.186
308.744
308.315
307.9
307.499
307.112
306.74
306.383
306.04
305.713
305.4
305.103
304.82
304.552
304.298
304.059
303.834
303.623
303.426
303.241
303.069
302.91
302.763
302.627
302.502
302.389
302.289
313.782
313.218
312.669
312.134
311.614
311.109
310.62
310.148
309.693
309.256
308.838
308.44
308.063
307.708
307.375
307.064
306.777
306.513
306.272
306.054
305.858
305.685
305.533
305.401
305.291
305.199
305.127
305.072
305.035
305.014
305.008
305.017
305.04
305.076
305.124
305.184
313.784
313.223
312.678
312.149
311.639
311.15
310.684
310.243
309.832
309.452
309.105
308.794
308.519
308.283
308.085
307.926
307.805
307.721
307.673
307.661
307.682
307.736
307.82
307.932
308.072
308.236
308.424
308.634
308.864
309.112
309.377
309.658
309.953
310.261
310.58
310.907
313.788
313.233
312.697
312.187
311.708
311.267
310.871
310.526
310.239
310.014
309.855
309.762
309.736
309.778
309.885
310.055
310.285
310.571
310.911
311.3
311.734
312.21
312.723
313.271
313.849
314.455
315.085
315.737
316.408
317.094
317.795
318.508
319.231
319.962
320.699
321.433
313.796
313.256
312.752
312.301
311.92
311.626
311.432
311.349
311.386
311.544
311.824
312.224
312.737
313.358
314.079
314.891
315.786
316.756
317.792
318.886
320.031
321.22
322.446
323.704
324.988
326.293
327.615
328.95
330.294
331.645
332.999
334.354
335.708
337.059
338.403
339.726
313.817
313.326
312.929
312.668
312.58
312.695
313.03
313.592
314.38
315.384
316.59
317.983
319.542
321.249
323.085
325.033
327.074
329.194
331.379
333.616
335.894
338.203
340.533
342.878
345.23
347.584
349.934
352.276
354.606
356.922
359.219
361.497
363.752
365.984
368.189
370.344
313.882
313.561
313.508
313.809
314.52
315.667
317.243
319.226
321.58
324.263
327.23
330.441
333.853
337.431
341.141
344.955
348.846
352.793
356.776
360.779
364.788
368.792
372.78
376.744
380.677
384.573
388.428
392.237
395.997
399.707
403.363
406.966
410.513
414.005
417.437
420.78
314.11
314.351
315.326
317.144
319.823
323.311
327.517
332.337
337.669
343.415
349.489
355.816
362.332
368.983
375.721
382.51
389.316
396.113
402.88
409.599
416.255
422.838
429.337
435.746
442.058
448.269
454.377
460.378
466.271
472.057
477.735
483.305
488.769
494.128
499.38
504.487
314.901
316.898
320.695
326.239
333.321
341.67
351.022
361.143
371.842
382.958
394.362
405.95
417.637
429.354
441.046
452.669
464.188
475.576
486.81
497.875
508.759
519.452
529.947
540.24
550.328
560.21
569.886
579.357
588.625
597.693
606.564
615.242
623.732
632.038
640.161
648.059
317.597
324.719
335.671
349.686
366.01
384
403.156
423.106
443.568
464.327
485.214
506.099
526.877
547.468
567.808
587.849
607.557
626.906
645.879
664.464
682.653
700.444
717.834
734.824
751.416
767.617
783.431
798.866
813.929
828.631
842.98
856.989
870.666
884.025
897.072
909.765
326.582
347.925
376.213
409.06
444.903
482.658
521.573
561.137
600.968
640.777
680.332
719.456
758.006
795.882
833.011
869.35
904.869
939.559
973.413
1006.44
1038.63
1070.01
1100.58
1130.35
1159.34
1187.56
1215.04
1241.8
1267.85
1293.22
1317.94
1342.04
1365.53
1388.45
1410.83
1432.62
356.77
417.923
490.093
568.474
650.643
734.903
820.063
905.304
989.973
1073.55
1155.6
1235.82
1313.99
1390.05
1463.97
1535.8
1605.6
1673.45
1739.37
1803.41
1865.61
1926.02
1984.65
2041.57
2096.81
2150.44
2202.51
2253.09
2302.24
2350.02
2396.5
2441.76
2485.86
2528.88
2570.88
2612.03
468.938
659.787
867.225
1083.3
1304
1525.23
1743.89
1957.85
2165.4
2365.29
2556.67
2739.29
2913.56
3080.49
3241.21
3396.58
3547.09
3693.03
3834.24
3970.77
4102.7
4230.14
4353.24
4472.17
4587.11
4698.22
4805.72
4909.73
5010.49
5108.12
5202.85
5294.79
5384.17
5471.1
5555.83
5638.83
1046.75
1840.92
2635.41
3415.56
4166.79
4872.42
5523.54
6117.39
6654.13
7136.01
7566.95
7952.48
8300.15
8618.87
8917.31
9202.36
9480.02
9753.94
10022.5
10284.7
10539.3
10785.5
11023.1
11251.5
11471
11681.3
11882.8
12075.2
12259.1
12434.3
12601.5
12760.4
12911.8
13055.5
13192.3
13321.6
6351.89
11088.4
14804
17711.6
19953.3
21649.1
22917
23859.9
24559.3
25078
25463.1
25749.6
25963.5
26126.4
26260.3
26389.8
26538.4
26716.3
26920.4
27142.6
27374.2
27608.8
27841.3
28067.8
28285.5
28492.3
28687
28868.7
29037.1
29191.9
29333.6
29462.3
29579
29683.5
29777.6
29861.2
71636.9
74419.1
76389.9
77657.4
78382
78711.6
78760.8
78619.1
78350.6
78003.4
77609.4
77193.4
76770.1
76352.3
75946
75557.5
75187.8
74839.9
74512.6
74206.3
73918.6
73649.7
73397.4
73162.1
72941.3
72735.5
72542.4
72362.7
72193.9
72036.8
71889
71751.6
71622
71501.5
71387.6
71281.6
45810.4
9978.95
9998
10028.4
10071.1
10124.9
10188.5
10260.1
10337.4
10418.1
10499.9
10581.3
10662.2
10742.8
10812.6
10871.6
10920.1
10958.5
10987
11006.1
11016
11017.2
11010.1
10995.4
10974.6
10951.5
10931.6
10908.8
10884.4
10859.1
10833.9
10809.7
10787.3
10767.6
10751
10738
10728.9
10723.8
10722.6
10725.5
10732.4
10743.5
10758.9
10778.7
10803
10831.9
10865.4
10903.5
10945.7
10991.6
11040.5
11092
11145.3
11199.7
11254.6
11309.3
11363.3
11415.9
11466.8
11515.4
11561.6
11605.3
11646.3
11684.8
11721
11755.4
11788.7
11821.6
11853.9
11883.1
11909.5
11933
11953.7
11971.5
11986.6
11998.8
12008.5
12015.4
12019.7
12021.1
12019.7
12015.3
12008.1
11997.9
11984.6
11968.4
11949
11926.6
11901.2
11872.7
11841.4
11807.4
11771
11732.7
11692.8
11652.2
11611.5
11571.2
11532.1
11494.6
11459.2
11425.5
11393
11361.1
11327.3
11293.4
11259.1
11222.1
11177.5
11126
11069.7
11011.4
10954.8
10904.6
10863.7
10832.9
10811.7
10798.6
10792.1
10789.9
10789.9
10791.3
10793.4
10796.3
10799.9
10804.6
10810.2
10817
10826.1
10835.1
10851
10864.4
10892.5
10922.9
10963.8
11038.2
11079.8
11203.6
11256.6
11373.2
11559.6
11614.3
12247.8
12247
12144.8
12328.2
13733.6
14916.8
15712.1
16326
16838.6
17277.9
17661.2
18000.6
18305.6
18583.4
18838.1
19073.9
19293.2
19498.3
19690.9
19872.2
20043.5
20205.5
20359
20504.7
20643.1
20774.7
20899.8
21018.9
21132.2
21240
21342.6
21440.2
21533
21621.2
21705
21784.6
21860.2
21931.9
21999.8
22064.4
22125.9
22184.6
22240.5
22291.2
22336.6
22376.6
22411.1
22439.7
22462.4
22478.9
22488.9
22492.3
22488.8
22478.1
22460
22434.2
22400.5
22358.7
22308.6
22250.1
22183
22107.4
22023.4
21931
21830.5
21722.3
21606.8
21484.3
21355.3
21220.1
21079
20932.2
20780.2
20623.2
20461.8
20296.3
20126.9
19954
19777.4
19598
19416.7
19234.5
19052
18870.3
18690
18512.2
18338.1
18169.5
18006.2
17845.2
17686.8
17531.7
17380
17232.2
17088.5
16949.2
16814.7
16684.8
16559.5
16439.1
16323.9
16213.8
16108.9
16009.3
15914.9
15825.6
15741.1
15661.1
15584.3
15512.4
15447
15398.9
15370.6
15350.9
15335.3
15322.2
15311.7
15303.9
15298.8
15296.7
15297.5
15300.9
15306.9
15315.3
15325.7
15338.1
15352.5
15368.9
15386.9
15406.2
15427.1
15449.7
15473.9
15499.9
15527.5
15556.8
15587.8
15620.6
15655.3
15691.8
15730.2
15770.8
15813.5
15858.4
15905.6
15955.1
16007.1
16061.8
16119.2
16179.5
16242.8
16309.1
16378.7
16451.7
16528.4
16608.6
16692.6
16780.2
16871.7
16966.6
17065.6
17168.3
17275.5
17386.8
17503.3
17622.8
17745.3
17867.3
17990.1
18109.6
18227.4
18339.8
18449
18550.5
18647.8
18735.6
18819.4
18892.7
18962.8
19022.4
19080.3
19127.8
19175.3
19212.5
19251.9
19280.7
19313.2
19334.3
19360.3
19373.8
19393.5
19399.3
19412.6
19410.4
19417.2
19406.5
19406.3
19388.2
19383.8
19357.1
19344.5
19305.5
19282.3
19228.7
19193.7
19123.6
19076.1
18988.1
18927.6
18819.7
18745.9
18615.2
18527.2
18367.7
18262.4
18060.4
17926.9
17639.2
45814.6
7738.65
4232.68
3933.66
3856.75
3721.17
3537.77
3334.13
3136.6
2962.43
2821.51
2718.89
2657.21
2655.74
2670.63
2690
2710.59
2731.37
2751.96
2772.2
2792.11
2811.84
2832.19
2855.08
2885.75
2938.89
3009.62
3083.11
3158.05
3232.53
3304.65
3372.63
3435.01
3490.7
3539.22
3580.67
3615.83
3646.07
3673.2
3699.28
3726.21
3755.23
3786.26
3817.58
3846.19
3868.92
3884.19
3891.73
3891.71
3884.38
3870.06
3849.11
3821.98
3789.23
3751.56
3709.73
3664.67
3617.35
3568.79
3520.05
3472.14
3426.05
3382.73
3343.05
3307.59
3276.95
3251.86
3233.05
3222.33
3213.92
3205.42
3196.59
3187.38
3177.76
3167.71
3157.24
3146.34
3134.99
3123.19
3110.91
3098.13
3084.84
3071.01
3056.62
3041.64
3026.05
3009.85
2993.01
2975.52
2957.38
2938.59
2919.12
2899.01
2878.24
2856.84
2834.83
2812.28
2789.25
2765.75
2741.74
2716.94
2692.83
2669.03
2645.28
2621.56
2597.52
2574.1
2551.58
2529.12
2508.23
2489.98
2475.21
2464.77
2459.93
2460.87
2466.59
2475.53
2485.82
2496.38
2506.32
2515.01
2521.3
2524.65
2523.84
2519.04
2509.96
2496.48
2480.82
2459.57
2439.78
2412.57
2388.56
2362.88
2337.33
2337.89
2342.68
2408.36
2517.81
2730.52
3002.96
3559.39
4259.96
5674.35
9799.92
11620.4
11524.3
11316
10796.6
10264.7
9742.59
9285.27
8895.89
8570.14
8297.48
8068.38
7875.02
7709.66
7567.36
7442.98
7333.14
7235.14
7146.53
7065.86
6991.64
6922.83
6858.66
6798.36
6741.45
6687.49
6636.1
6587.03
6540.05
6494.99
6451.76
6410.27
6370.56
6332.58
6296.46
6262.38
6230.6
6201.2
6174.56
6151.43
6132.5
6121.55
6111.78
6101.42
6090.4
6078.7
6066.31
6053.23
6039.42
6024.89
6009.62
5993.6
5976.82
5959.27
5940.95
5921.85
5901.97
5881.33
5859.92
5837.76
5814.88
5791.28
5766.99
5742.02
5716.38
5690.03
5662.98
5635.2
5606.69
5577.48
5547.59
5517.04
5485.81
5453.89
5421.2
5387.51
5352.32
5314.63
5275.66
5236.59
5197.63
5158.91
5120.6
5082.81
5045.71
5009.46
4974.18
4939.78
4906.07
4873.1
4840.92
4809.57
4779.11
4749.58
4721.03
4693.44
4666.79
4641.04
4616.21
4592.34
4569.42
4547.44
4526.41
4506.33
4487.21
4469.05
4451.88
4435.57
4420.17
4406.02
4394.89
4387.03
4381.07
4376.26
4372.29
4369.04
4366.47
4364.58
4363.4
4362.92
4363.18
4364.16
4365.89
4368.34
4371.53
4375.45
4380.11
4385.45
4391.43
4398
4405.19
4413.01
4421.48
4430.61
4440.4
4450.83
4461.91
4473.63
4485.99
4498.97
4512.57
4526.78
4541.6
4557.03
4573.08
4589.72
4606.99
4624.85
4643.35
4662.43
4682.17
4702.46
4723.46
4745.01
4767.33
4790.21
4813.98
4838.26
4863.62
4889.46
4916.42
4943.66
4972.15
5000.5
5029.96
5058.83
5088.97
5117.96
5146.75
5171.79
5196.95
5218.79
5241.51
5260.64
5281.13
5297.62
5316.02
5330.13
5346.8
5358.81
5374.21
5384.69
5399.38
5408.77
5423.36
5432.49
5448.03
5457.9
5475.39
5486.86
5507.18
5521.06
5545.08
5562.21
5590.94
5612.6
5656.36
5706.76
5777.76
5845.25
5932.51
6013.45
6113.98
6205.98
6317.76
6419.36
6541.17
6651.92
6783.85
6905.16
7050.07
7187.54
7355.4
7526.17
7750.55
8018.04
8446.88
45822.4
7430.35
3164.74
2514.34
2300.47
2127.95
1968.2
1825.34
1708
1617.85
1553.21
1511.39
1493.37
1490.32
1494.94
1503.43
1513.94
1525.53
1537.73
1550.33
1563.25
1576.55
1590.51
1605.61
1622.98
1644.54
1672.11
1707.22
1746.42
1788.95
1834.11
1881.22
1929.57
1978.51
2027.4
2075.75
2123.18
2169.57
2214.46
2257.4
2298.26
2336.68
2371.83
2402.46
2427.15
2444.82
2455.1
2457.79
2453
2441.16
2422.9
2398.99
2370.29
2337.74
2302.26
2264.78
2226.21
2187.37
2149.05
2111.92
2076.58
2043.54
2013.21
1985.9
1961.8
1941.01
1923.64
1909.7
1898.22
1887.65
1877.45
1867.43
1857.52
1847.63
1837.73
1827.76
1817.7
1807.49
1797.07
1786.43
1775.57
1764.47
1753.09
1741.41
1729.41
1717.04
1704.3
1691.15
1677.58
1663.57
1649.1
1634.15
1618.7
1602.75
1586.24
1569.16
1551.64
1533.98
1516.15
1498.28
1480.55
1463.21
1446.43
1430.35
1415.11
1400.79
1387.49
1375.27
1364.13
1354.21
1345.69
1338.83
1333.98
1331.48
1331.52
1334.01
1338.65
1344.87
1352.18
1360.33
1369.15
1378.35
1387.48
1395.95
1403.16
1408.53
1411.08
1410.53
1405.49
1396.8
1384.26
1371.71
1366.86
1381.41
1447.3
1577.03
1825.35
2283.76
3114.39
4211.1
5843.75
9056.9
9704.21
9402.74
9070.02
8602.28
8074.6
7465.57
6881.65
6372.44
5952.06
5610.7
5334.17
5108.23
4921.61
4765.48
4632.82
4518.81
4419.42
4331.83
4253.89
4183.83
4120.42
4062.61
4009.6
3960.76
3915.55
3873.57
3834.46
3797.94
3763.79
3731.81
3701.86
3673.83
3647.61
3623.16
3600.43
3579.39
3560.06
3542.47
3526.6
3512.56
3500.49
3490.52
3481.67
3473.04
3464.49
3456
3447.57
3439.17
3430.79
3422.41
3414.01
3405.57
3397.06
3388.45
3379.72
3370.83
3361.75
3352.45
3342.89
3333.03
3322.84
3312.27
3301.3
3289.89
3277.97
3265.53
3252.5
3238.87
3224.61
3209.74
3194.25
3178.16
3161.44
3144.11
3126.17
3107.64
3088.53
3068.84
3048.65
3028.19
3007.67
2987.2
2966.85
2946.71
2926.87
2907.39
2888.35
2869.78
2851.7
2834.1
2817.02
2800.46
2784.47
2769.05
2754.23
2740.02
2726.41
2713.36
2700.86
2688.88
2677.42
2666.47
2656.01
2646.04
2636.54
2627.52
2618.99
2610.95
2603.37
2596.26
2589.8
2584.26
2579.73
2576
2572.91
2570.32
2568.18
2566.45
2565.1
2564.12
2563.51
2563.28
2563.43
2563.97
2564.91
2566.25
2567.99
2570.17
2572.76
2575.74
2579.1
2582.82
2586.9
2591.36
2596.2
2601.41
2606.99
2612.93
2619.23
2625.89
2632.9
2640.25
2647.94
2655.94
2664.26
2672.88
2681.8
2691.01
2700.5
2710.27
2720.31
2730.62
2741.19
2752.06
2763.17
2774.6
2786.33
2798.44
2810.87
2823.78
2837.03
2850.74
2864.7
2879.06
2893.44
2908
2922.39
2936.84
2950.78
2964.29
2976.55
2988.02
2997.97
3007.09
3014.53
3021.2
3026.14
3030.5
3033.18
3035.56
3036.29
3037.08
3036.33
3035.97
3034.12
3033.12
3030.78
3029.83
3027.65
3027.41
3025.97
3027.03
3026.88
3029.84
3031.5
3036.97
3041.06
3050.38
3061.24
3082.16
3105.16
3137.2
3170.43
3213.17
3256.31
3309.72
3362.86
3427.33
3491.23
3568.01
3644.72
3736.92
3831.64
3947.23
4073.75
4236.07
4438.96
4728.97
45831.1
7422
2843.71
1989.75
1706.19
1541.78
1421.48
1329.59
1260.48
1210.23
1175.53
1154.29
1143.56
1139.67
1140.13
1143.32
1148.26
1154.29
1161.05
1168.33
1176.01
1184.06
1192.55
1201.62
1211.57
1222.84
1236.02
1251.81
1270.97
1292.64
1316.67
1342.9
1371.11
1401.08
1432.55
1465.27
1498.93
1533.25
1567.86
1602.39
1636.38
1669.31
1700.51
1729.14
1754.21
1774.38
1789.08
1797.92
1800.72
1797.59
1788.91
1775.28
1757.45
1736.27
1712.6
1687.28
1661.1
1634.77
1608.89
1583.98
1560.44
1538.6
1518.68
1500.84
1485.15
1471.62
1460.23
1450.89
1443.3
1436.27
1429.59
1423.1
1416.69
1410.31
1403.87
1397.34
1390.67
1383.81
1376.71
1369.35
1361.68
1353.66
1345.26
1336.45
1327.18
1317.43
1307.18
1296.41
1285.1
1273.23
1260.82
1247.86
1234.34
1220.38
1206.11
1191.53
1176.74
1161.85
1146.98
1132.27
1117.86
1103.91
1090.55
1077.9
1066.08
1055.15
1045.19
1036.23
1028.32
1021.51
1015.89
1011.53
1008.52
1006.9
1006.67
1007.78
1010.08
1013.41
1017.61
1022.57
1028.19
1034.23
1040.35
1046.28
1051.72
1056.42
1060.14
1062.91
1065.14
1068.67
1078.32
1106.08
1173
1315.79
1620.41
2090.55
2820.89
3855.02
5415.48
8078.63
8867.27
8382.25
7878.83
7400.03
6926.33
6420.3
5898.56
5392.06
4948.77
4582.71
4287.49
4050.57
3859.11
3702.45
3572.43
3462.96
3369.48
3288.7
3218.1
3155.81
3100.4
3050.75
3005.98
2965.41
2928.48
2894.73
2863.8
2835.37
2809.19
2785.06
2762.79
2742.23
2723.26
2705.78
2689.71
2674.96
2661.49
2649.24
2638.19
2628.29
2619.51
2611.85
2605.31
2599.87
2594.88
2590.22
2585.85
2581.75
2577.9
2574.29
2570.87
2567.63
2564.54
2561.55
2558.63
2555.73
2552.8
2549.79
2546.63
2543.28
2539.66
2535.73
2531.4
2526.63
2521.34
2515.47
2508.96
2501.74
2493.76
2485
2475.47
2465.19
2454.16
2442.39
2429.86
2416.57
2402.57
2387.91
2372.67
2356.94
2340.83
2324.47
2307.97
2291.43
2274.93
2258.56
2242.39
2226.49
2210.91
2195.7
2180.9
2166.54
2152.63
2139.21
2126.3
2113.92
2102.07
2090.75
2079.97
2069.69
2059.9
2050.59
2041.74
2033.34
2025.37
2017.82
2010.68
2003.95
1997.61
1991.68
1986.14
1981.05
1976.4
1972.25
1968.62
1965.47
1962.75
1960.43
1958.46
1956.82
1955.48
1954.43
1953.67
1953.19
1952.99
1953.07
1953.44
1954.09
1955.03
1956.27
1957.8
1959.62
1961.71
1964.08
1966.71
1969.61
1972.79
1976.23
1979.94
1983.92
1988.16
1992.67
1997.43
2002.45
2007.73
2013.26
2019.02
2025.02
2031.26
2037.72
2044.41
2051.32
2058.47
2065.84
2073.44
2081.28
2089.37
2097.73
2106.39
2115.37
2124.69
2134.39
2144.45
2154.85
2165.53
2176.43
2187.37
2198.26
2208.92
2219.25
2228.94
2237.81
2245.53
2252.04
2257.09
2260.75
2262.83
2263.56
2262.77
2260.81
2257.53
2253.35
2248.07
2242.2
2235.49
2228.49
2220.84
2213.23
2205.22
2197.59
2189.74
2182.59
2175.37
2169.18
2163.02
2158.2
2153.48
2150.42
2147.52
2146.71
2146.53
2150.55
2156.69
2167.11
2179.54
2196.59
2215.57
2239.61
2265.58
2297.21
2330.98
2371.29
2414.5
2465.76
2521.98
2589.43
2667.39
2764.97
2889.51
3056.85
45837.8
7530.4
2792.44
1814.86
1484.21
1318.34
1214.87
1143.8
1093.33
1057.46
1032.66
1016.64
1006.69
1000.97
998.221
997.572
998.417
1000.34
1003.07
1006.41
1010.26
1014.55
1019.26
1024.42
1030.09
1036.42
1043.6
1051.9
1061.69
1073.2
1086.29
1100.95
1117.15
1134.84
1153.94
1174.34
1195.93
1218.52
1241.92
1265.88
1290.09
1314.19
1337.73
1360.2
1380.99
1399.45
1414.97
1427.04
1435.22
1439.21
1439.17
1435.4
1428.36
1418.59
1406.72
1393.34
1379.07
1364.42
1349.86
1335.79
1322.49
1310.2
1299.08
1289.23
1280.69
1273.46
1267.49
1262.71
1259.07
1255.99
1253.14
1250.32
1247.42
1244.35
1241.04
1237.44
1233.51
1229.2
1224.48
1219.3
1213.63
1207.44
1200.68
1193.33
1185.35
1176.72
1167.42
1157.43
1146.75
1135.35
1123.26
1110.46
1097.17
1083.41
1069.26
1054.8
1040.14
1025.39
1010.68
996.148
981.918
968.125