/*--------------------------------*- C++ -*----------------------------------*\
| =========                 |                                                 |
| \\      /  F ield         | OpenFOAM: The Open Source CFD Toolbox           |
|  \\    /   O peration     | Version:  2.4.0                                 |
|   \\  /    A nd           | Web:      www.OpenFOAM.org                      |
|    \\/     M anipulation  |                                                 |
\*---------------------------------------------------------------------------*/
FoamFile
{
    version     2.0;
    format      ascii;
    class       volScalarField;
    location    "6.39";
    object      nut;
}
// * * * * * * * * * * * * * * * * * * * * * * * * * * * * * * * * * * * * * //

dimensions      [0 2 -1 0 0 0 0];

internalField   nonuniform List<scalar> 
6000
(
4.7015e-05
1.44419e-05
4.24716e-06
8.77733e-06
7.7887e-06
8.92555e-06
8.56556e-06
8.93746e-06
8.81029e-06
9.01541e-06
9.05024e-06
9.27486e-06
9.47897e-06
9.81753e-06
1.01996e-05
1.06842e-05
1.12296e-05
1.1854e-05
1.25355e-05
1.32756e-05
1.40599e-05
1.4882e-05
1.57286e-05
1.65887e-05
1.7448e-05
1.82928e-05
1.91089e-05
1.98814e-05
2.05943e-05
2.12305e-05
2.17724e-05
2.22017e-05
2.24998e-05
2.26472e-05
2.2625e-05
2.24152e-05
2.20021e-05
2.13703e-05
2.05113e-05
1.94188e-05
1.81089e-05
1.66066e-05
1.49901e-05
1.39115e-05
1.56497e-05
1.74664e-05
1.92257e-05
2.10669e-05
2.26929e-05
2.44731e-05
2.57643e-05
2.74964e-05
2.82159e-05
3.01131e-05
2.98818e-05
3.24962e-05
3.0604e-05
3.5084e-05
3.0497e-05
3.82544e-05
2.94897e-05
9.50764e-06
3.16478e-06
7.01536e-06
6.32255e-06
7.01623e-06
6.77335e-06
7.00587e-06
6.93166e-06
7.07589e-06
7.12754e-06
7.31144e-06
7.50159e-06
7.79134e-06
8.12711e-06
8.54143e-06
9.00925e-06
9.5381e-06
1.01142e-05
1.07358e-05
1.13934e-05
1.20816e-05
1.27921e-05
1.35181e-05
1.42517e-05
1.49861e-05
1.57149e-05
1.64323e-05
1.71329e-05
1.78121e-05
1.84668e-05
1.90963e-05
1.97024e-05
2.02897e-05
2.08686e-05
2.14597e-05
2.20978e-05
2.28408e-05
2.37828e-05
2.50813e-05
2.699e-05
2.99228e-05
3.43364e-05
3.77806e-05
3.29186e-05
2.91515e-05
2.65792e-05
2.48015e-05
2.36667e-05
2.2958e-05
2.24925e-05
2.23475e-05
2.20823e-05
2.23254e-05
2.19013e-05
2.26417e-05
2.16279e-05
2.33327e-05
2.11476e-05
2.44105e-05
2.14309e-05
8.16048e-06
2.81328e-06
5.88997e-06
5.3264e-06
5.68156e-06
5.49628e-06
5.62957e-06
5.58952e-06
5.70109e-06
5.77901e-06
5.96192e-06
6.18031e-06
6.489e-06
6.86039e-06
7.31113e-06
7.82866e-06
8.41499e-06
9.06299e-06
9.77006e-06
1.05313e-05
1.13433e-05
1.22026e-05
1.31068e-05
1.40544e-05
1.50454e-05
1.60819e-05
1.71678e-05
1.831e-05
1.95195e-05
2.08124e-05
2.22127e-05
2.37551e-05
2.54819e-05
2.74514e-05
2.9759e-05
3.2542e-05
3.60098e-05
4.04765e-05
4.64382e-05
5.46168e-05
6.60768e-05
8.15215e-05
9.20256e-05
7.6084e-05
6.2062e-05
5.13121e-05
4.28234e-05
3.66445e-05
3.16955e-05
2.81997e-05
2.52493e-05
2.32266e-05
2.14132e-05
2.01628e-05
1.90962e-05
1.81421e-05
1.77896e-05
1.66728e-05
1.72173e-05
1.78746e-05
7.9696e-06
2.98733e-06
5.26062e-06
4.7035e-06
4.76704e-06
4.59249e-06
4.64766e-06
4.62893e-06
4.72833e-06
4.84514e-06
5.06423e-06
5.35643e-06
5.75434e-06
6.25118e-06
6.85637e-06
7.56974e-06
8.39306e-06
9.32775e-06
1.03744e-05
1.15356e-05
1.28135e-05
1.42131e-05
1.57406e-05
1.74055e-05
1.92202e-05
2.12015e-05
2.33716e-05
2.57592e-05
2.84024e-05
3.13516e-05
3.46745e-05
3.84646e-05
4.27953e-05
4.78136e-05
5.37204e-05
6.07876e-05
6.94058e-05
8.01154e-05
9.36977e-05
0.000111135
0.000133634
0.000160957
0.000177091
0.000151188
0.000125322
0.000103435
8.46933e-05
6.99797e-05
5.74983e-05
4.81951e-05
4.00067e-05
3.43014e-05
2.8827e-05
2.54461e-05
2.16584e-05
1.97639e-05
1.70989e-05
1.60329e-05
1.44911e-05
1.67546e-05
8.44525e-06
3.53485e-06
5.03878e-06
4.40539e-06
4.18415e-06
3.97798e-06
3.96242e-06
3.95563e-06
4.05952e-06
4.23287e-06
4.52955e-06
4.95346e-06
5.52846e-06
6.26959e-06
7.18855e-06
8.30226e-06
9.62026e-06
1.11586e-05
1.29288e-05
1.49475e-05
1.72307e-05
1.97995e-05
2.26777e-05
2.58947e-05
2.94848e-05
3.34896e-05
3.79595e-05
4.29549e-05
4.85494e-05
5.48333e-05
6.19209e-05
6.99429e-05
7.89416e-05
8.9144e-05
0.000100796
0.000114211
0.000129817
0.000148164
0.000169997
0.000196118
0.000227344
0.000261945
0.000280206
0.000249886
0.000215874
0.000184357
0.000155189
0.000130339
0.000107907
8.98827e-05
7.3408e-05
6.10932e-05
4.92229e-05
4.13611e-05
3.28009e-05
2.82851e-05
2.20254e-05
1.98011e-05
1.59405e-05
1.71085e-05
9.39799e-06
4.39149e-06
5.14691e-06
4.40991e-06
3.88816e-06
3.60707e-06
3.51703e-06
3.51449e-06
3.63824e-06
3.89293e-06
4.31939e-06
4.95509e-06
5.82938e-06
6.98625e-06
8.45201e-06
1.02699e-05
1.24679e-05
1.50856e-05
1.81544e-05
2.17134e-05
2.58003e-05
3.04593e-05
3.57376e-05
4.1688e-05
4.83674e-05
5.58395e-05
6.41749e-05
7.34501e-05
8.37495e-05
9.51663e-05
0.000107815
0.000121713
0.000136833
0.000153396
0.000171579
0.000191603
0.00021379
0.000238543
0.000266413
0.000297926
0.000333522
0.000370207
0.000388255
0.000358553
0.000321607
0.000284711
0.000248346
0.000215093
0.000183362
0.0001559
0.000129758
0.000108552
8.78723e-05
7.27236e-05
5.68513e-05
4.71767e-05
3.52363e-05
2.99944e-05
2.28969e-05
1.83893e-05
1.07093e-05
5.51633e-06
5.50487e-06
4.69433e-06
3.86372e-06
3.46131e-06
3.28335e-06
3.27766e-06
3.43732e-06
3.8079e-06
4.43416e-06
5.39516e-06
6.74253e-06
8.56118e-06
1.09053e-05
1.38539e-05
1.74612e-05
2.17953e-05
2.69098e-05
3.28666e-05
3.97225e-05
4.75388e-05
5.63759e-05
6.62938e-05
7.73496e-05
8.95998e-05
0.000103098
0.000117892
0.000134023
0.000151525
0.000170453
0.000190514
0.000211735
0.00023423
0.00025807
0.000283357
0.000310287
0.000339128
0.000370265
0.000404047
0.000440616
0.000476285
0.000493255
0.000467062
0.000431095
0.000392824
0.000353163
0.000314782
0.000276511
0.000241268
0.000206525
0.000176201
0.000146161
0.000121944
9.71496e-05
7.97207e-05
6.01579e-05
4.93997e-05
3.79916e-05
2.02058e-05
1.22753e-05
6.86618e-06
6.06021e-06
5.20449e-06
4.10865e-06
3.5412e-06
3.25463e-06
3.23787e-06
3.45181e-06
3.98541e-06
4.90601e-06
6.34857e-06
8.40504e-06
1.12122e-05
1.48598e-05
1.94629e-05
2.50989e-05
3.18547e-05
3.97955e-05
4.89897e-05
5.94949e-05
7.13671e-05
8.46522e-05
9.93856e-05
0.000115588
0.000133272
0.000152435
0.000173056
0.000195097
0.000218506
0.000243179
0.00026864
0.000294948
0.000322124
0.000350152
0.000379048
0.000408918
0.00043994
0.00047239
0.000506519
0.000542166
0.000575543
0.000591384
0.000569884
0.000537141
0.000500217
0.000460285
0.000419817
0.000378031
0.000337609
0.000296615
0.000258673
0.000220489
0.000187195
0.000153488
0.000126818
9.87881e-05
8.01975e-05
6.3896e-05
2.2247e-05
1.39955e-05
8.38908e-06
6.80556e-06
5.85822e-06
4.60913e-06
3.8545e-06
3.43877e-06
3.40323e-06
3.69358e-06
4.45158e-06
5.78839e-06
7.91149e-06
1.09667e-05
1.51434e-05
2.05612e-05
2.73543e-05
3.56053e-05
4.53959e-05
5.67795e-05
6.9806e-05
8.45086e-05
0.000100911
0.000119018
0.000138813
0.000160258
0.000183298
0.000207863
0.000233857
0.000261164
0.000289653
0.000319004
0.000348758
0.000378963
0.00040957
0.000440508
0.000471735
0.000503297
0.000535313
0.000567986
0.000601505
0.000635383
0.000666204
0.000681157
0.000664541
0.000636048
0.000602023
0.000563759
0.000523431
0.00048055
0.000437412
0.000392624
0.000349248
0.000304934
0.000263909
0.000222492
0.000186628
0.000150486
0.000122829
0.000101772
2.42783e-05
1.57758e-05
1.0026e-05
7.74372e-06
6.59777e-06
5.31511e-06
4.39691e-06
3.84699e-06
3.78908e-06
4.18293e-06
5.23893e-06
7.13482e-06
1.01626e-05
1.45241e-05
2.04454e-05
2.80533e-05
3.74717e-05
4.87608e-05
6.19696e-05
7.71176e-05
9.42152e-05
0.000113254
0.00013421
0.000157033
0.000181647
0.000207949
0.000235821
0.000265134
0.000295726
0.000327423
0.000360048
0.000393013
0.000426068
0.000459184
0.000492264
0.000525204
0.000557917
0.000590411
0.000622762
0.000655125
0.000687595
0.000719498
0.000747919
0.000762268
0.000750219
0.00072625
0.000695863
0.000660359
0.000621608
0.00057932
0.000535401
0.000488862
0.000442194
0.000393814
0.000346999
0.000299571
0.000255737
0.000212571
0.000175969
0.000150745
2.61483e-05
1.75357e-05
1.17161e-05
8.86094e-06
7.41683e-06
6.14651e-06
5.13221e-06
4.47531e-06
4.40315e-06
4.933e-06
6.3649e-06
8.96493e-06
1.31113e-05
1.90497e-05
2.70119e-05
3.71014e-05
4.93996e-05
6.3921e-05
8.06638e-05
9.96015e-05
0.000120697
0.000143896
0.000169123
0.000196276
0.00022522
0.000255796
0.000287837
0.000321165
0.000355572
0.00039084
0.000426709
0.000462504
0.000498094
0.000533394
0.000568274
0.000602605
0.000636269
0.000669245
0.000701583
0.000733399
0.000764643
0.000794664
0.000820986
0.000834958
0.00082694
0.000807347
0.000780819
0.00074859
0.000712255
0.00067164
0.000628321
0.000581562
0.000533393
0.000482731
0.000432103
0.0003804
0.000330398
0.000281576
0.000237198
0.000208466
2.77811e-05
1.9213e-05
1.34021e-05
1.0124e-05
8.33805e-06
7.03962e-06
5.99513e-06
5.28756e-06
5.22637e-06
5.92841e-06
7.80491e-06
1.12289e-05
1.66562e-05
2.43543e-05
3.4526e-05
4.72236e-05
6.24629e-05
8.02018e-05
0.000100381
0.000122928
0.000147761
0.00017478
0.000203864
0.000234864
0.000267596
0.000301857
0.000337437
0.000374125
0.00041168
0.000449853
0.00048827
0.000526301
0.000563863
0.000600824
0.000637032
0.000672342
0.000706613
0.000739801
0.000771938
0.000803098
0.000833096
0.000861425
0.000885963
0.000899707
0.000895116
0.000879529
0.000856775
0.00082797
0.000794474
0.000756167
0.000714365
0.000668469
0.000620173
0.00056865
0.000515945
0.000461521
0.000407258
0.000354156
0.000303711
0.000272004
2.91563e-05
2.07652e-05
1.50351e-05
1.14873e-05
9.37639e-06
7.97852e-06
6.92467e-06
6.22045e-06
6.20431e-06
7.11089e-06
9.47582e-06
1.3793e-05
2.05823e-05
3.01115e-05
4.25262e-05
5.78096e-05
7.59022e-05
9.67038e-05
0.0001201
0.000145977
0.000174212
0.000204667
0.000237181
0.000271562
0.000307587
0.000345013
0.0003836
0.000423111
0.00046328
0.000503841
0.000544279
0.000584103
0.000623218
0.000661461
0.000698658
0.000734658
0.0007693
0.000802528
0.000834361
0.000864793
0.000893614
0.000920448
0.000943478
0.000957072
0.000955316
0.000943267
0.00092403
0.000898573
0.000868064
0.00083239
0.000792675
0.000748366
0.000700941
0.000649639
0.000596262
0.000540424
0.000483638
0.000427518
0.00037283
0.00033852
3.02873e-05
2.21681e-05
1.65771e-05
1.29006e-05
1.05277e-05
8.98008e-06
7.8941e-06
7.21416e-06
7.2646e-06
8.38947e-06
1.12483e-05
1.64629e-05
2.4607e-05
3.5934e-05
5.05162e-05
6.82607e-05
8.9031e-05
0.000112672
0.000139021
0.000167925
0.000199227
0.000232754
0.00026831
0.000305666
0.000344564
0.000384728
0.00042589
0.000467797
0.000510159
0.000552699
0.000594769
0.000636047
0.000676402
0.000715638
0.000753572
0.00079005
0.000824893
0.00085804
0.000889495
0.000919153
0.000946894
0.000972403
0.000994147
0.00100761
0.00100814
0.000999142
0.000983077
0.000960766
0.000933212
0.00090029
0.000862979
0.000820719
0.000774856
0.000724572
0.000671604
0.000615408
0.000557557
0.000499527
0.000442271
0.000405626
3.12036e-05
2.34127e-05
1.80019e-05
1.43151e-05
1.17708e-05
1.00633e-05
8.90979e-06
8.23998e-06
8.35003e-06
9.67503e-06
1.29871e-05
1.90378e-05
2.84509e-05
4.14613e-05
5.80635e-05
7.80876e-05
0.000101322
0.000127562
0.000156596
0.000188242
0.000222307
0.000258587
0.000296854
0.000336846
0.00037827
0.000420825
0.000464217
0.000508178
0.000552401
0.000596569
0.000640001
0.000682469
0.000723816
0.000763822
0.000802296
0.000839084
0.000873997
0.000906971
0.000937961
0.000966847
0.000993589
0.00101791
0.00103854
0.00105186
0.00105419
0.00104775
0.00103449
0.00101505
0.000990313
0.000960125
0.000925359
0.000885418
0.000841572
0.000792874
0.000741114
0.000685397
0.000627642
0.000568648
0.000510241
0.000471485
3.19396e-05
2.45008e-05
1.92942e-05
1.56877e-05
1.3073e-05
1.12339e-05
9.99014e-06
9.30189e-06
9.43898e-06
1.09134e-05
1.45945e-05
2.13629e-05
3.1898e-05
4.64219e-05
6.48543e-05
8.69508e-05
0.000112427
0.00014103
0.000172503
0.000206633
0.000243195
0.000281956
0.000322655
0.000365
0.000408668
0.000453329
0.000498668
0.000544407
0.000590225
0.000635745
0.00068032
0.000723765
0.000765905
0.000806499
0.000845352
0.000882316
0.000917189
0.000949901
0.000980349
0.00100848
0.00103428
0.00105753
0.00107716
0.00109029
0.001094
0.00108968
0.00107883
0.00106197
0.00103985
0.0010123
0.000980098
0.000942607
0.000901058
0.000854339
0.000804359
0.000749767
0.000693004
0.000633839
0.000575416
0.000534771
3.25279e-05
2.54415e-05
2.04481e-05
1.69835e-05
1.43958e-05
1.24817e-05
1.115e-05
1.04197e-05
1.05413e-05
1.20951e-05
1.60308e-05
2.33573e-05
3.48238e-05
5.06545e-05
7.07031e-05
9.46549e-05
0.000122152
0.000152896
0.000186583
0.000222968
0.000261797
0.000302804
0.000345699
0.00039016
0.000435835
0.000482367
0.00052942
0.000576708
0.0006239
0.00067055
0.000716084
0.00076033
0.000803097
0.000844126
0.000883224
0.000920247
0.000954987
0.000987327
0.0010172
0.00104458
0.00106949
0.00109173
0.00111044
0.00112333
0.00112807
0.00112546
0.00111666
0.00110207
0.00108235
0.00105727
0.00102758
0.000992581
0.000953478
0.000908998
0.000861192
0.000808219
0.000753114
0.00069444
0.000636876
0.000594586
3.29974e-05
2.62483e-05
2.14652e-05
1.81773e-05
1.56996e-05
1.37844e-05
1.23921e-05
1.16113e-05
1.1685e-05
1.32426e-05
1.73075e-05
2.50107e-05
3.71911e-05
5.40984e-05
7.55348e-05
0.000101121
0.000130423
0.000163099
0.000198793
0.000237227
0.000278116
0.000321164
0.000366051
0.000412425
0.000459905
0.000508108
0.000556676
0.00060532
0.000653701
0.000701295
0.000747632
0.000792527
0.000835778
0.000877112
0.000916337
0.000953318
0.000987815
0.0010197
0.00104896
0.0010756
0.00109964
0.00112093
0.00113878
0.00115136
0.00115681
0.00115557
0.00114849
0.00113588
0.0011183
0.00109553
0.00106825
0.00103571
0.00099911
0.000957028
0.000911653
0.000860668
0.000807706
0.000750066
0.000694023
0.000650358
3.33723e-05
2.69363e-05
2.23526e-05
1.92534e-05
1.69479e-05
1.51106e-05
1.37065e-05
1.28858e-05
1.29005e-05
1.43934e-05
1.84675e-05
2.63634e-05
3.90287e-05
5.67696e-05
7.93559e-05
0.000106352
0.000137248
0.000171654
0.000209159
0.000249453
0.000292216
0.000337122
0.00038382
0.000431927
0.000481035
0.000530734
0.000580643
0.000630473
0.000679861
0.000728264
0.000775267
0.000820678
0.000864289
0.000905812
0.00094506
0.000981896
0.00101603
0.00104742
0.00107605
0.00110193
0.00112511
0.00114549
0.00116251
0.00117471
0.00118063
0.00118043
0.00117477
0.00116386
0.0011482
0.00112755
0.00110253
0.00107238
0.00103829
0.00099869
0.000955903
0.000907176
0.000856701
0.000800537
0.000746502
0.000701756
3.36719e-05
2.75209e-05
2.31206e-05
2.02049e-05
1.81099e-05
1.64243e-05
1.50721e-05
1.42412e-05
1.42041e-05
1.55963e-05
1.9567e-05
2.74836e-05
4.04071e-05
5.87341e-05
8.22269e-05
0.000110407
0.000142684
0.000178624
0.000217753
0.000259727
0.000304191
0.000350784
0.000399126
0.000448805
0.000499382
0.000550419
0.000601514
0.00065238
0.000702618
0.000751706
0.000799252
0.000845061
0.000888919
0.000930528
0.000969706
0.00100626
0.00103998
0.00107082
0.00109878
0.00112389
0.00114622
0.0011657
0.00118191
0.00119367
0.00119984
0.00120042
0.00119591
0.00118645
0.00117249
0.00115376
0.00113087
0.00110302
0.00107138
0.00103429
0.000994176
0.000947897
0.000900143
0.000845814
0.000794139
0.000748622
3.3912e-05
2.80166e-05
2.37815e-05
2.10321e-05
1.91627e-05
1.7689e-05
1.64592e-05
1.56647e-05
1.55988e-05
1.68924e-05
2.06655e-05
2.84493e-05
4.14173e-05
6.00866e-05
8.42409e-05
0.000113377
0.000146821
0.000184101
0.00022467
0.000268149
0.000314147
0.000362267
0.000412097
0.000463196
0.000515095
0.000567327
0.000619464
0.000671229
0.00072218
0.000771839
0.000819817
0.000865915
0.000909919
0.000951518
0.000990489
0.00102669
0.00105993
0.00109017
0.00111744
0.00114177
0.00116324
0.00118184
0.00119723
0.0012085
0.00121473
0.00121587
0.00121227
0.00120404
0.00119157
0.00117458
0.00115366
0.001128
0.00109875
0.00106416
0.00102675
0.000983042
0.000938159
0.000885953
0.000836887
0.000790921
3.41047e-05
2.84366e-05
2.43485e-05
2.17409e-05
2.00917e-05
1.88706e-05
1.78322e-05
1.71331e-05
1.70767e-05
1.82901e-05
2.18456e-05
2.93373e-05
4.21574e-05
6.09352e-05
8.5508e-05
0.00011537
0.000149769
0.000188193
0.000230018
0.000274831
0.000322198
0.000371688
0.000422857
0.000475233
0.000528314
0.000581605
0.000634651
0.000687186
0.000738726
0.000788853
0.000837158
0.000883444
0.000927498
0.000968948
0.00100763
0.00104341
0.00107612
0.00110573
0.00113226
0.00115578
0.00117639
0.00119411
0.00120868
0.0012194
0.00122557
0.00122706
0.00122418
0.00121697
0.0012058
0.00119039
0.0011713
0.0011477
0.00112074
0.00108863
0.0010539
0.00101286
0.000970929
0.000921075
0.000874788
0.000828697
3.42598e-05
2.87925e-05
2.4834e-05
2.23411e-05
2.08905e-05
1.9941e-05
1.91534e-05
1.86151e-05
1.86198e-05
1.97862e-05
2.31389e-05
3.02624e-05
4.27235e-05
6.13917e-05
8.61459e-05
0.000116507
0.000151642
0.000191014
0.000233911
0.000279885
0.00032846
0.000379166
0.000431527
0.000485038
0.000539167
0.000593387
0.000647213
0.000700395
0.000752414
0.000802908
0.000851442
0.00089782
0.000941777
0.000983003
0.00102133
0.00105663
0.00108875
0.00111768
0.00114345
0.00116614
0.00118588
0.00120271
0.00121646
0.00122659
0.00123256
0.00123425
0.00123191
0.00122555
0.00121551
0.00120153
0.00118411
0.00116247
0.00113771
0.00110801
0.00107593
0.00103759
0.000998664
0.000951342
0.000907947
0.000862051
3.43849e-05
2.90943e-05
2.52501e-05
2.28447e-05
2.15602e-05
2.08793e-05
2.03854e-05
2.00734e-05
2.02e-05
2.13662e-05
2.45484e-05
3.12993e-05
4.3255e-05
6.15648e-05
8.62728e-05
0.000116908
0.000152562
0.000192685
0.000236466
0.000283427
0.000333046
0.000384814
0.00043822
0.000492728
0.000547773
0.000602794
0.000657274
0.000710986
0.00076338
0.000814147
0.000862793
0.000909135
0.000952916
0.000993844
0.00103175
0.00106651
0.001098
0.0011262
0.00115118
0.00117302
0.00119187
0.0012078
0.00122072
0.00123022
0.00123589
0.00123765
0.0012357
0.00123004
0.00122099
0.00120829
0.00119242
0.00117263
0.00114996
0.00112262
0.00109314
0.00105752
0.00102159
0.000976938
0.000936506
0.000891118
3.4486e-05
2.93504e-05
2.56072e-05
2.32649e-05
2.21079e-05
2.16734e-05
2.14955e-05
2.14671e-05
2.17816e-05
2.3005e-05
2.6064e-05
3.24618e-05
4.3871e-05
6.16226e-05
8.60045e-05
0.000116693
0.00015265
0.000193323
0.000237801
0.000285572
0.000336069
0.000388742
0.000443045
0.000498411
0.00055424
0.000609935
0.000664945
0.000719078
0.000771746
0.000822637
0.000871298
0.000917521
0.00096105
0.00100161
0.00103904
0.0010732
0.00110401
0.00113145
0.0011556
0.00117656
0.00119451
0.00120953
0.00122161
0.00123044
0.00123575
0.00123746
0.00123577
0.00123069
0.00122249
0.00121095
0.00119652
0.00117846
0.0011578
0.00113273
0.00110578
0.00107288
0.00103994
0.000998063
0.000960631
0.000916055
3.45679e-05
2.95679e-05
2.59148e-05
2.36147e-05
2.25448e-05
2.23195e-05
2.24574e-05
2.27555e-05
2.33223e-05
2.46679e-05
2.76631e-05
3.37477e-05
4.46011e-05
6.17006e-05
8.55572e-05
0.000115979
0.000152024
0.000193048
0.00023803
0.000286433
0.000337639
0.000391058
0.000446109
0.00050219
0.000558671
0.000614912
0.000670329
0.000724731
0.000777558
0.000828482
0.00087707
0.000923093
0.000966297
0.00100642
0.0010433
0.00107682
0.0011069
0.00113354
0.00115683
0.00117689
0.00119391
0.00120803
0.00121925
0.00122739
0.00123226
0.00123385
0.00123232
0.00122769
0.00122024
0.00120975
0.00119665
0.00118023
0.00116148
0.00113862
0.00111414
0.00108393
0.00105394
0.00101492
0.000980503
0.00093703
3.46343e-05
2.9753e-05
2.61807e-05
2.39063e-05
2.28852e-05
2.28217e-05
2.32538e-05
2.39014e-05
2.47767e-05
2.6312e-05
2.93117e-05
3.51396e-05
4.54555e-05
6.18447e-05
8.50329e-05
0.00011499
0.000150872
0.000191975
0.000237268
0.00028612
0.000337864
0.000391868
0.000447513
0.000504164
0.000561139
0.000617763
0.000673463
0.000728027
0.000780914
0.000831781
0.00088021
0.000925955
0.000968762
0.00100839
0.00104466
0.00107748
0.00110679
0.00113259
0.00115499
0.00117413
0.00119021
0.0012034
0.00121376
0.00122118
0.00122557
0.00122695
0.0012255
0.00122124
0.00121445
0.00120491
0.00119305
0.00117818
0.00116125
0.00114054
0.00111844
0.0010909
0.00106381
0.00102771
0.000996308
0.000954213
3.46882e-05
2.99107e-05
2.64116e-05
2.41509e-05
2.31442e-05
2.31906e-05
2.38767e-05
2.48743e-05
2.60994e-05
2.78886e-05
3.09658e-05
3.66061e-05
4.64265e-05
6.20809e-05
8.44912e-05
0.000113807
0.000149313
0.000190276
0.000235662
0.000284759
0.000336847
0.000391253
0.00044732
0.000504382
0.000561705
0.000618574
0.000674437
0.000729058
0.000781904
0.000832624
0.000880808
0.000926197
0.000968537
0.00100759
0.00104321
0.00107528
0.00110377
0.00112869
0.00115017
0.00116836
0.00118349
0.00119574
0.00120523
0.00121192
0.00121579
0.00121691
0.00121547
0.00121151
0.00120529
0.00119663
0.00118592
0.00117253
0.00115734
0.00113871
0.00111893
0.00109402
0.00106978
0.00103663
0.00100823
0.000967777
3.4732e-05
3.0045e-05
2.66128e-05
2.43579e-05
2.33374e-05
2.34413e-05
2.43276e-05
2.56524e-05
2.72486e-05
2.93463e-05
3.25734e-05
3.81034e-05
4.74889e-05
6.24147e-05
8.3972e-05
0.000112498
0.000147431
0.000188043
0.000233309
0.000282443
0.000334679
0.000389302
0.000445619
0.000502931
0.000560451
0.000617425
0.000673336
0.000727904
0.000780612
0.000831092
0.000878947
0.000923901
0.000965705
0.00100413
0.00103903
0.00107031
0.00109793
0.00112194
0.00114246
0.00115968
0.00117384
0.00118515
0.00119376
0.0011997
0.00120303
0.00120384
0.00120236
0.00119863
0.00119292
0.00118507
0.00117546
0.00116348
0.00114996
0.00113334
0.00111581
0.0010935
0.00107204
0.00104188
0.00101646
0.000977889
3.47677e-05
3.01596e-05
2.67889e-05
2.45352e-05
2.34793e-05
2.3592e-05
2.46164e-05
2.62249e-05
2.81899e-05
3.06345e-05
3.40776e-05
3.95773e-05
4.86021e-05
6.28321e-05
8.34947e-05
0.000111112
0.000145296
0.000185358
0.000230293
0.00027926
0.000331448
0.000386102
0.000442494
0.000499891
0.000557457
0.000614392
0.000670238
0.000724645
0.000777113
0.000827262
0.000874701
0.000919144
0.000960341
0.000998076
0.0010322
0.00106263
0.00108935
0.00111241
0.00113195
0.00114818
0.00116135
0.0011717
0.00117943
0.00118461
0.00118737
0.00118785
0.00118628
0.00118274
0.00117749
0.00117041
0.00116182
0.0011512
0.00113929
0.00112463
0.00110929
0.00108953
0.00107079
0.00104364
0.00102117
0.000984714
3.47966e-05
3.02575e-05
2.69436e-05
2.46893e-05
2.35829e-05
2.3662e-05
2.47598e-05
2.65918e-05
2.88991e-05
3.17074e-05
3.54198e-05
4.09663e-05
4.97124e-05
6.33007e-05
8.30581e-05
0.000109679
0.000142961
0.000182288
0.000226691
0.000275291
0.000327236
0.000381734
0.000438024
0.000495342
0.000552797
0.000609562
0.000665217
0.000719353
0.000771479
0.000821204
0.000868141
0.000911995
0.000952516
0.000989495
0.00102279
0.00105232
0.00107809
0.00110017
0.0011187
0.00113392
0.00114608
0.00115547
0.00116231
0.00116674
0.00116892
0.00116904
0.00116735
0.00116397
0.00115914
0.00115277
0.00114518
0.00113585
0.00112551
0.00111276
0.00109954
0.0010823
0.00106622
0.00104208
0.00102254
0.000988408
3.48202e-05
3.03411e-05
2.70798e-05
2.48251e-05
2.36593e-05
2.36705e-05
2.4779e-05
2.67635e-05
2.93637e-05
3.25282e-05
3.65443e-05
4.22052e-05
5.07559e-05
6.37719e-05
8.26411e-05
0.000108209
0.000140464
0.000178888
0.000222569
0.000270607
0.000322117
0.000376273
0.000432284
0.000489356
0.000546542
0.000603008
0.000658345
0.000712097
0.000763777
0.000812985
0.000859332
0.000902519
0.000942294
0.000978454
0.00101086
0.00103946
0.00106424
0.00108529
0.00110279
0.00111697
0.00112812
0.00113654
0.00114249
0.00114615
0.00114775
0.00114749
0.00114567
0.00114241
0.00113798
0.00113229
0.00112565
0.0011176
0.00110877
0.00109788
0.00108674
0.00107197
0.0010585
0.00103737
0.00102072
0.000989122
3.48393e-05
3.04126e-05
2.72001e-05
2.49465e-05
2.37175e-05
2.36353e-05
2.46982e-05
2.67592e-05
2.95846e-05
3.30719e-05
3.74028e-05
4.32298e-05
5.1663e-05
6.41845e-05
8.22046e-05
0.000106693
0.000137822
0.000175196
0.000217978
0.000265267
0.000316155
0.000369787
0.000425344
0.000482001
0.000538759
0.000594798
0.000649688
0.000702942
0.000754072
0.000802665
0.000848336
0.000890777
0.000929735
0.000965014
0.000996483
0.00102408
0.00104784
0.00106784
0.00108428
0.0010974
0.00110752
0.00111496
0.00112002
0.00112293
0.00112393
0.0011233
0.00112133
0.00111819
0.00111412
0.0011091
0.00110338
0.00109656
0.00108922
0.00108016
0.00107104
0.00105871
0.00104779
0.00102967
0.00101589
0.000986999
3.48548e-05
3.04737e-05
2.73064e-05
2.50563e-05
2.37646e-05
2.35721e-05
2.45419e-05
2.66046e-05
2.95746e-05
3.33276e-05
3.79579e-05
4.39812e-05
5.23629e-05
6.44687e-05
8.16945e-05
0.000105101
0.000135035
0.000171234
0.000212958
0.000259321
0.000309407
0.000362336
0.000417263
0.000473341
0.000529508
0.000584992
0.000639309
0.000691949
0.000742423
0.000790306
0.000835211
0.000876826
0.000914897
0.000949232
0.000979705
0.00100627
0.00102895
0.00104787
0.00106322
0.00107527
0.00108435
0.00109082
0.00109499
0.00109713
0.00109755
0.00109654
0.00109442
0.00109138
0.00108767
0.00108329
0.00107849
0.00107289
0.001067
0.00105974
0.0010526
0.00104267
0.00103425
0.00101913
0.00100819
0.000982177
3.48674e-05
3.05261e-05
2.74004e-05
2.51564e-05
2.38059e-05
2.3494e-05
2.43338e-05
2.63294e-05
2.93574e-05
3.32995e-05
3.81871e-05
4.44112e-05
5.27886e-05
6.45513e-05
8.10465e-05
0.000103392
0.000132085
0.000167009
0.00020753
0.000252805
0.000301916
0.000353968
0.000408096
0.000463432
0.000518855
0.00057365
0.000627264
0.000679175
0.000728885
0.00077596
0.000820012
0.000860721
0.000897835
0.000931162
0.000960586
0.000986067
0.00100765
0.00102545
0.00103969
0.00105065
0.00105868
0.00106416
0.00106745
0.00106884
0.00106868
0.0010673
0.00106502
0.00106208
0.00105874
0.001055
0.00105109
0.00104669
0.00104223
0.00103674
0.00103155
0.001024
0.00101802
0.00100589
0.000997757
0.000974785
3.48776e-05
3.0571e-05
2.74838e-05
2.52484e-05
2.3845e-05
2.34115e-05
2.40953e-05
2.59648e-05
2.89651e-05
3.30063e-05
3.80849e-05
4.44862e-05
5.28829e-05
6.43613e-05
8.01904e-05
0.000101509
0.00012894
0.00016251
0.000201706
0.000245742
0.000293716
0.000344726
0.000397889
0.000452321
0.000506862
0.000560824
0.000613608
0.000664672
0.000713511
0.000759681
0.000802789
0.000842513
0.000878599
0.000910858
0.000939179
0.000963531
0.000983965
0.00100062
0.00101373
0.00102359
0.00103057
0.00103507
0.00103747
0.00103813
0.0010374
0.00103565
0.00103323
0.00103039
0.00102741
0.0010243
0.00102129
0.00101808
0.00101504
0.0010113
0.00100803
0.00100282
0.000999239
0.000990098
0.000984741
0.000964947
3.48859e-05
3.06095e-05
2.75577e-05
2.53333e-05
2.38841e-05
2.33323e-05
2.38447e-05
2.55412e-05
2.84345e-05
3.24791e-05
3.76628e-05
4.41907e-05
5.26029e-05
6.3836e-05
7.90568e-05
9.93919e-05
0.000125557
0.000157715
0.000195481
0.000238143
0.000284829
0.000334638
0.000386677
0.00044005
0.000493571
0.000546561
0.000598387
0.000648488
0.000696349
0.000741516
0.000783593
0.000822253
0.00085724
0.000888369
0.000915535
0.000938715
0.00095797
0.000973454
0.000985408
0.000994154
0.00100008
0.0010036
0.00100513
0.00100506
0.00100378
0.00100167
0.000999124
0.000996404
0.000993782
0.000991318
0.000989195
0.000987171
0.00098554
0.000983542
0.000982166
0.00097927
0.000978049
0.000971876
0.00096927
0.000952782
3.48925e-05
3.06426e-05
2.76232e-05
2.54118e-05
2.39245e-05
2.32619e-05
2.35968e-05
2.50867e-05
2.78048e-05
3.17585e-05
3.69492e-05
4.3529e-05
5.19247e-05
6.29268e-05
7.75833e-05
9.69777e-05
0.000121886
0.000152593
0.000188842
0.00023001
0.000275268
0.000323726
0.00037449
0.000426653
0.000479017
0.0005309
0.000581644
0.000630667
0.000677443
0.000721511
0.000762469
0.000799986
0.000833806
0.000863747
0.000889707
0.000911673
0.000929716
0.000944003
0.000954789
0.000962413
0.00096728
0.00096983
0.000970506
0.000969722
0.000967902
0.000965461
0.000962797
0.000960206
0.000957961
0.000956145
0.000954917
0.000954079
0.000953851
0.000953579
0.000954076
0.000953474
0.000954572
0.000951354
0.000951471
0.000938405
3.48978e-05
3.06711e-05
2.76813e-05
2.54844e-05
2.39667e-05
2.32035e-05
2.33627e-05
2.46252e-05
2.71143e-05
3.08909e-05
3.59861e-05
4.25252e-05
5.0846e-05
6.16042e-05
7.57209e-05
9.42108e-05
0.000117879
0.000147108
0.000181769
0.000221336
0.000265038
0.000312005
0.000361348
0.000412155
0.000463231
0.000513878
0.000563416
0.000611248
0.000656836
0.000699709
0.000739462
0.00077576
0.000808346
0.00083704
0.000861747
0.000882459
0.000899261
0.000912329
0.000921935
0.000928432
0.000932244
0.000933834
0.000933668
0.000932192
0.000929857
0.000927103
0.000924344
0.0009219
0.000920045
0.000918888
0.000918563
0.000918914
0.000920085
0.000921529
0.000923881
0.000925551
0.000928934
0.000928653
0.000931467
0.000921923
3.49021e-05
3.06958e-05
2.7733e-05
2.55516e-05
2.40108e-05
2.31587e-05
2.31501e-05
2.41765e-05
2.63981e-05
2.99246e-05
3.48256e-05
4.12216e-05
4.9387e-05
5.98616e-05
7.34394e-05
9.10482e-05
0.000113491
0.000141226
0.000174241
0.000212113
0.000254139
0.000299484
0.000347267
0.00039658
0.000446239
0.000495523
0.000543738
0.000590267
0.000634565
0.000676151
0.000714615
0.00074962
0.000780908
0.0008083
0.000831708
0.000851132
0.000866665
0.000878498
0.000886915
0.000892286
0.000895051
0.000895694
0.000894707
0.000892564
0.000889739
0.000886697
0.000883867
0.00088159
0.000880143
0.000879657
0.000880244
0.000881787
0.000884357
0.00088751
0.000891701
0.000895623
0.000901256
0.000903894
0.000909378
0.000903444
3.49056e-05
3.07171e-05
2.77789e-05
2.56137e-05
2.40564e-05
2.31277e-05
2.29638e-05
2.37553e-05
2.56864e-05
2.89066e-05
3.35256e-05
3.96747e-05
4.759e-05
5.77175e-05
7.07327e-05
8.74659e-05
0.000108693
0.000134921
0.00016624
0.000202332
0.000242574
0.000286171
0.000332263
0.000379948
0.000428064
0.000475865
0.00052264
0.00056776
0.000610668
0.000650878
0.000687972
0.000721613
0.000751541
0.000777581
0.000799649
0.000817752
0.000831995
0.00084258
0.000849805
0.000854055
0.000855787
0.000855503
0.000853721
0.000850938
0.000847654
0.000844354
0.00084148
0.000839393
0.000838373
0.000838572
0.00084008
0.000842819
0.000846785
0.000851639
0.000857655
0.000863807
0.000871658
0.000877193
0.000885321
0.00088307
3.49083e-05
3.07356e-05
2.78198e-05
2.56709e-05
2.41029e-05
2.31101e-05
2.28061e-05
2.33721e-05
2.50036e-05
2.78792e-05
3.21445e-05
3.79508e-05
4.55154e-05
5.52149e-05
6.7621e-05
8.34643e-05
0.000103473
0.00012818
0.000157759
0.000191995
0.000230348
0.00027208
0.000316353
0.00036228
0.000408733
0.000454932
0.000500155
0.000543762