/*--------------------------------*- C++ -*----------------------------------*\
| =========                 |                                                 |
| \\      /  F ield         | OpenFOAM: The Open Source CFD Toolbox           |
|  \\    /   O peration     | Version:  2.4.0                                 |
|   \\  /    A nd           | Web:      www.OpenFOAM.org                      |
|    \\/     M anipulation  |                                                 |
\*---------------------------------------------------------------------------*/
FoamFile
{
    version     2.0;
    format      ascii;
    class       volVectorField;
    location    "6.39";
    object      U;
}
// * * * * * * * * * * * * * * * * * * * * * * * * * * * * * * * * * * * * * //

dimensions      [0 1 -1 0 0 0 0];

internalField   nonuniform List<vector> 
6000
(
(0.165117 -0.00671284 1.28985e-18)
(-0.0097462 0.00185853 0)
(0.000828479 -0.000234188 7.22683e-18)
(-0.00663384 0.00128761 0)
(-0.00500578 0.000987416 0)
(-0.00607636 0.00113993 0)
(-0.00534348 0.000984026 4.01025e-18)
(-0.00550745 0.00096189 3.33616e-22)
(-0.00512402 0.000866253 0)
(-0.00512478 0.000821483 0)
(-0.00494957 0.000759255 3.91145e-18)
(-0.00497524 0.000721902 -7.74847e-18)
(-0.00497393 0.000685259 0)
(-0.00510249 0.000662258 0)
(-0.00526537 0.000644128 -1.87974e-18)
(-0.00552523 0.000632861 0)
(-0.00584162 0.000624792 0)
(-0.0062386 0.000618926 -1.83148e-18)
(-0.00669866 0.00061308 -1.81839e-18)
(-0.0072296 0.000605532 0)
(-0.00782218 0.000594455 1.79765e-18)
(-0.00847549 0.000577959 8.95123e-19)
(-0.00918056 0.000554265 -8.92478e-19)
(-0.00992961 0.00052156 0)
(-0.0107099 0.000478335 0)
(-0.011508 0.000423335 0)
(-0.0123077 0.000355726 4.46885e-19)
(-0.0130906 0.000275048 -4.48692e-19)
(-0.0138347 0.000181394 0)
(-0.0145149 7.54836e-05 0)
(-0.0151029 -4.12e-05 5.73245e-20)
(-0.015568 -0.000166389 0)
(-0.0158771 -0.000297246 4.69239e-19)
(-0.0159955 -0.000428676 -4.75837e-19)
(-0.0158872 -0.000549196 0)
(-0.015515 -0.000658774 0)
(-0.0148444 -0.000748212 1.00142e-18)
(-0.0138392 -0.0008084 0)
(-0.0124697 -0.000829114 1.04243e-18)
(-0.0107001 -0.000799855 0)
(-0.00851424 -0.000708866 0)
(-0.00588094 -0.00054532 2.22372e-18)
(-0.00283004 -0.00029837 -4.54217e-18)
(0.000635238 4.10636e-05 0)
(0.00409233 0.000439095 0)
(0.00776281 0.000906396 2.40644e-18)
(0.0114659 0.00144546 0)
(0.0155453 0.00207582 0)
(0.0194741 0.00277846 -4.98669e-18)
(0.0240874 0.00360336 -5.01435e-18)
(0.0280052 0.00446358 -4.99253e-18)
(0.0334557 0.00553196 -1.79689e-21)
(0.0368278 0.006504 4.83325e-18)
(0.0440196 0.00794999 0)
(0.0456252 0.00887782 -2.97285e-21)
(0.056927 0.0110996 -4.29985e-18)
(0.053948 0.0114861 3.43786e-18)
(0.0751566 0.0156474 3.5601e-18)
(0.0621734 0.0144907 4.09077e-21)
(0.104492 0.0229602 0)
(0.360298 -0.0164518 -1.79437e-18)
(0.00301628 0.00650616 4.28415e-18)
(0.00549112 -0.000893555 -4.33413e-18)
(-0.014956 0.00337591 -4.59814e-18)
(-0.0124298 0.0025792 0)
(-0.01577 0.00305964 0)
(-0.0142801 0.00266481 -4.57826e-18)
(-0.0148757 0.00262476 9.06869e-18)
(-0.0140253 0.00238168 0)
(-0.0140873 0.00226838 0)
(-0.013696 0.00211192 -4.33958e-18)
(-0.0137933 0.00201838 4.27543e-18)
(-0.0138301 0.0019296 2.10577e-18)
(-0.0141937 0.00187617 0)
(-0.0146557 0.0018366 2.04788e-18)
(-0.0153675 0.00181499 0)
(-0.0162313 0.00180182 0)
(-0.0173024 0.00179391 0)
(-0.0185365 0.00178524 0)
(-0.0199481 0.00177086 0)
(-0.0215112 0.00174557 -1.16859e-23)
(-0.0232184 0.00170394 0)
(-0.0250428 0.00164091 -9.53186e-19)
(-0.0269596 0.0015514 0)
(-0.0289321 0.00143124 0)
(-0.0309222 0.00127712 4.7426e-19)
(-0.0328855 0.0010869 -4.74994e-19)
(-0.0347721 0.000859433 -2.90582e-24)
(-0.0365243 0.000595076 2.39466e-19)
(-0.0380778 0.00029594 0)
(-0.0393614 -3.37241e-05 -6.07967e-20)
(-0.0402987 -0.000387402 -2.45751e-19)
(-0.0408088 -0.000756583 9.71374e-24)
(-0.040806 -0.00112784 5.04627e-19)
(-0.0402049 -0.00147918 -5.12652e-19)
(-0.0389172 -0.00180086 0)
(-0.0368575 -0.00206998 0)
(-0.033938 -0.00226266 0)
(-0.0300831 -0.00235166 0)
(-0.0252036 -0.00230884 0)
(-0.019254 -0.00210177 -2.31403e-18)
(-0.01216 -0.00169932 0)
(-0.00401101 -0.00106704 2.41159e-18)
(0.00507273 -0.00016528 2.45967e-18)
(0.0140587 0.000915184 0)
(0.0235699 0.00216967 0)
(0.0331807 0.0036114 0)
(0.0436364 0.00528388 0)
(0.0537798 0.00714867 5.43233e-18)
(0.06543 0.00931396 0)
(0.0756097 0.0115927 0)
(0.0891218 0.0143638 -5.50449e-18)
(0.0982482 0.0169576 -5.3952e-18)
(0.115599 0.0206448 0)
(0.121174 0.0232163 -9.96947e-18)
(0.147518 0.0287331 0)
(0.143715 0.030232 -7.95964e-18)
(0.191741 0.0401809 -4.13928e-18)
(0.167255 0.0383983 1.67609e-18)
(0.262901 0.0575648 3.00828e-18)
(0.500824 -0.0113659 -1.73808e-19)
(0.0412785 0.00906148 -4.2474e-18)
(0.0141223 -0.00129266 0)
(-0.0188718 0.00483438 4.60547e-18)
(-0.0175049 0.00374068 0)
(-0.0234475 0.00457162 0)
(-0.0218111 0.0040339 0)
(-0.0229977 0.00400766 -4.53988e-18)
(-0.0219349 0.00367144 0)
(-0.0221371 0.00351405 -4.41096e-18)
(-0.0216458 0.00329944 0)
(-0.0218496 0.00317124 0)
(-0.0219684 0.00305626 -2.10701e-18)
(-0.0225683 0.00299146 0)
(-0.023327 0.00294974 0)
(-0.0244617 0.00293373 0)
(-0.0258336 0.00293058 0)
(-0.0275184 0.00293381 0)
(-0.0294505 0.00293448 0)
(-0.0316456 0.00292413 1.93986e-18)
(-0.0340618 0.00289441 -1.92544e-18)
(-0.0366814 0.00283629 0)
(-0.0394589 0.00274157 6.31563e-24)
(-0.0423505 0.00260197 -9.48974e-19)
(-0.0452954 0.0024109 0)
(-0.0482302 0.00216337 -9.46869e-19)
(-0.0510825 0.00185628 0)
(-0.0537725 0.00148808 4.75448e-19)
(-0.0562094 0.0010597 -2.3884e-19)
(-0.0582934 0.000574945 0)
(-0.0599164 4.11273e-05 0)
(-0.0609642 -0.000530716 2.44807e-19)
(-0.0613174 -0.00112641 -3.27008e-24)
(-0.0608519 -0.00172367 0)
(-0.0594458 -0.00230049 1.01905e-18)
(-0.0569763 -0.00282917 0)
(-0.0533267 -0.00327686 1.05394e-18)
(-0.0483804 -0.00360823 0)
(-0.0420418 -0.00378282 0)
(-0.0342057 -0.00375968 0)
(-0.0248385 -0.00349066 2.26889e-18)
(-0.0138922 -0.00292886 0)
(-0.0015818 -0.00201737 0)
(0.0118244 -0.000686888 -2.36949e-18)
(0.0253019 0.000951203 0)
(0.0397034 0.00285803 0)
(0.0544119 0.00507011 2.57266e-18)
(0.0703734 0.00762911 -2.62938e-18)
(0.0860371 0.0105106 -2.67203e-18)
(0.103792 0.0138128 0)
(0.119711 0.0173632 0)
(0.140123 0.0215443 0)
(0.154876 0.0256592 5.35335e-18)
(0.180606 0.0311066 5.30776e-18)
(0.190961 0.0354071 4.96855e-18)
(0.229 0.0432791 0)
(0.227339 0.0465686 3.97821e-18)
(0.295088 0.0601457 8.28943e-18)
(0.266503 0.0596909 0)
(0.401891 0.0846075 -3.02664e-18)
(0.605049 0.000253802 -1.44285e-19)
(0.0969934 0.011005 4.12294e-18)
(0.0279002 -0.001227 -4.32259e-18)
(-0.0183281 0.0058442 0)
(-0.0201006 0.00456441 0)
(-0.0290462 0.00577085 0)
(-0.0278664 0.00514168 0)
(-0.0298304 0.00516503 0)
(-0.0288071 0.00476862 0)
(-0.0292402 0.00459317 4.41376e-18)
(-0.0287635 0.0043423 4.34446e-18)
(-0.0291124 0.00419929 0)
(-0.0293543 0.00407557 0)
(-0.0301902 0.00401563 0)
(-0.0312373 0.00398636 2.04796e-18)
(-0.0327598 0.0039892 0)
(-0.0345907 0.0040078 1.99671e-18)
(-0.0368171 0.00403258 -1.97444e-18)
(-0.039356 0.00405164 0)
(-0.0422192 0.00405309 -1.93697e-18)
(-0.0453488 0.00402545 0)
(-0.0487138 0.00395618 -9.54653e-19)
(-0.0522491 0.00383395 1.89937e-18)
(-0.0558899 0.00364748 9.4606e-19)
(-0.0595515 0.00338814 0)
(-0.0631455 0.0030497 4.71496e-19)
(-0.0665733 0.00262852 0)
(-0.0697276 0.00212307 4.72902e-19)
(-0.0724891 0.00153519 0)
(-0.0747292 0.000870637 0)
(-0.0763114 0.00013991 0)
(-0.0770947 -0.000641636 2.42636e-19)
(-0.0769341 -0.00145432 -9.80769e-19)
(-0.0756842 -0.00226966 0)
(-0.0732056 -0.00305899 -5.02634e-19)
(-0.069362 -0.00378526 0)
(-0.0640302 -0.00440683 -1.03481e-18)
(-0.0570935 -0.00487946 0)
(-0.048468 -0.0051529 0)
(-0.0380716 -0.00517683 0)
(-0.0259202 -0.00489172 2.19033e-18)
(-0.0120299 -0.00423731 0)
(0.00327221 -0.00313885 2.22256e-18)
(0.0197108 -0.00151259 -2.24438e-18)
(0.0366775 0.000525875 0)
(0.0549997 0.00292228 -2.39692e-18)
(0.0739461 0.00574227 -4.93789e-18)
(0.0945268 0.00902502 2.53643e-18)
(0.114984 0.0127621 5.17646e-18)
(0.137946 0.0170266 -5.2679e-18)
(0.159038 0.0216874 -5.30558e-18)
(0.185276 0.0270607 0)
(0.205402 0.0325533 -5.26308e-18)
(0.23791 0.0394268 -5.23484e-18)
(0.25353 0.045401 -4.89678e-18)
(0.30032 0.0549962 0)
(0.303055 0.0602701 0)
(0.3843 0.0760942 -4.11793e-18)
(0.357538 0.0778007 0)
(0.520116 0.105177 2.95918e-18)
(0.684215 0.0143673 -1.25455e-19)
(0.162878 0.0131484 -3.18918e-20)
(0.0478655 -0.00060714 4.29672e-18)
(-0.0132794 0.00653959 4.5989e-18)
(-0.0200978 0.00513313 0)
(-0.0325195 0.00670585 -4.63771e-18)
(-0.0323864 0.00602117 0)
(-0.0353443 0.00611998 0)
(-0.0346072 0.00569021 0)
(-0.0353742 0.00551783 4.41473e-18)
(-0.0350233 0.00525001 -4.3454e-18)
(-0.0355599 0.00510898 0)
(-0.0359619 0.00499161 0)
(-0.037032 0.00495011 0)
(-0.0383531 0.00494521 -2.04663e-18)
(-0.040222 0.00497725 0)
(-0.0424529 0.00502621 -1.99406e-18)
(-0.0451372 0.00507957 1.97101e-18)
(-0.0481769 0.00512233 0)
(-0.0515754 0.00513938 0)
(-0.0552581 0.00511608 9.57713e-19)
(-0.059178 0.00503657 9.50856e-19)
(-0.0632495 0.00488659 -1.89041e-18)
(-0.0673868 0.00465226 -9.40817e-19)
(-0.0714818 0.00432337 0)
(-0.0754234 0.00389309 4.67999e-19)
(-0.0790905 0.00335786 0)
(-0.0823537 0.0027167 -4.68336e-19)
(-0.0850731 0.00197286 2.34769e-19)
(-0.0871017 0.00113447 0)
(-0.0882876 0.000215384 0)
(-0.0884782 -0.000764796 -4.77498e-19)
(-0.0875213 -0.00178083 4.81414e-19)
(-0.0852711 -0.00280069 0)
(-0.0815909 -0.00378715 -4.90746e-19)
(-0.0763531 -0.00469784 0)
(-0.0694494 -0.00548453 1.00361e-18)
(-0.0607835 -0.00609662 0)
(-0.0502994 -0.00647725 0)
(-0.0379486 -0.00656931 0)
(-0.0237902 -0.00630493 -2.08722e-18)
(-0.00787939 -0.0056115 -2.09501e-18)
(0.00942519 -0.00440157 -2.09616e-18)
(0.0279576 -0.00259262 1.11022e-21)
(0.047522 -0.000298546 -2.17924e-18)
(0.0688059 0.00242859 2.25741e-18)
(0.0910511 0.00568164 4.6605e-18)
(0.115276 0.009505 0)
(0.139674 0.0139076 -2.46224e-18)
(0.16691 0.0189423 5.03535e-18)
(0.192511 0.0245254 5.09319e-18)
(0.223612 0.0308857 0)
(0.24874 0.0375835 0)
(0.286765 0.045619 0)
(0.307819 0.0531437 4.78038e-18)
(0.361172 0.0640106 0)
(0.369668 0.071301 0)
(0.459814 0.0883999 4.03175e-18)
(0.43874 0.0926397 -1.60706e-18)
(0.61857 0.120264 -2.92946e-18)
(0.745566 0.0291104 -1.12208e-19)
(0.233418 0.0160024 -3.94945e-18)
(0.0745695 0.000580062 0)
(-0.00364861 0.00707795 -4.5889e-18)
(-0.0173851 0.00552789 -4.61301e-18)
(-0.0338179 0.00742429 5.12894e-22)
(-0.0353134 0.00670586 0)
(-0.0395117 0.00689651 0)
(-0.0393038 0.00645365 0)
(-0.0405204 0.0063009 -4.41538e-18)
(-0.0404035 0.00603206 0)
(-0.0411742 0.00590659 0)
(-0.0417695 0.005808 2.10577e-18)
(-0.0430704 0.00579565 0)
(-0.044645 0.00582425 0)
(-0.0468123 0.00589277 0)
(-0.0493746 0.00597748 0)
(-0.0524219 0.00606287 -1.96538e-18)
(-0.0558423 0.00613088 0)
(-0.0596274 0.00616327 1.92313e-18)
(-0.0636856 0.00614242 -9.52643e-19)
(-0.0679524 0.00604943 -9.44792e-19)
(-0.0723228 0.00586751 1.87621e-18)
(-0.0766909 0.00558077 1.86513e-18)
(-0.0809296 0.00517813 0)
(-0.0849105 0.00465294 -4.62529e-19)
(-0.0884971 0.00400245 0)
(-0.0915481 0.00322687 0)
(-0.0939146 0.00233141 -4.61451e-19)
(-0.0954452 0.00132685 0)
(-0.0959881 0.000230441 0)
(-0.0953954 -0.000934229 4.6589e-19)
(-0.0935247 -0.00213799 0)
(-0.0902435 -0.00334444 0)
(-0.0854292 -0.00451152 4.74383e-19)
(-0.0789712 -0.00559286 0)
(-0.0707802 -0.00653577 -9.63485e-19)
(-0.0607793 -0.00728541 0)
(-0.0489323 -0.00778038 0)
(-0.0352094 -0.00795804 0)
(-0.019686 -0.00774349 0)
(-0.0024226 -0.00705211 1.97677e-18)
(0.0162483 -0.0057885 1.97175e-18)
(0.036288 -0.00388202 1.14933e-21)
(0.0577543 -0.00144331 2.04342e-18)
(0.0811894 0.00148934 2.11051e-18)
(0.10586 0.00502594 -2.18042e-18)
(0.132767 0.00922001 0)
(0.160168 0.0140957 -2.30647e-18)
(0.190667 0.0196975 2.36433e-18)
(0.219926 0.0259859 -4.79761e-18)
(0.254893 0.0331149 0)
(0.284413 0.0408004 0)
(0.326889 0.049762 -4.84937e-18)
(0.353192 0.0586477 -4.57615e-18)
(0.411576 0.0704658 4.56559e-18)
(0.426426 0.0796667 3.72723e-18)
(0.522448 0.0974185 -3.93273e-18)
(0.509142 0.104246 1.57391e-18)
(0.699075 0.130757 0)
(0.793857 0.0436845 -1.01238e-19)
(0.304743 0.019792 0)
(0.107933 0.00233817 4.22421e-18)
(0.0106855 0.00762015 4.57261e-18)
(-0.0118606 0.00582686 -6.12906e-23)
(-0.0328827 0.00797351 4.63705e-18)
(-0.0365874 0.00722932 0)
(-0.0423017 0.00751897 0)
(-0.0428655 0.00707656 0)
(-0.04466 0.00695565 2.20734e-18)
(-0.0448841 0.0066979 2.17188e-18)
(-0.0459391 0.00659836 0)
(-0.046758 0.00652797 -2.1041e-18)
(-0.0482843 0.00655252 2.0717e-18)
(-0.0500864 0.00662076 0)
(-0.0524981 0.00672994 0)
(-0.0553147 0.00685253 0)
(-0.0586208 0.00696997 5.23252e-23)
(-0.0622919 0.00706123 0)
(-0.0663059 0.00710518 -3.82152e-18)
(-0.0705556 0.00708152 9.45214e-19)
(-0.0749602 0.00696884 9.36088e-19)
(-0.0793986 0.00674846 -3.02458e-23)
(-0.0837505 0.00640325 -9.20843e-19)
(-0.0878769 0.00592213 0)
(-0.0916409 0.00529944 0)
(-0.0949014 0.0045339 0)
(-0.0975163 0.00362741 2.25764e-19)
(-0.0993399 0.00258736 4.50691e-19)
(-0.100228 0.0014271 0)
(-0.100039 0.000166844 0)
(-0.0986377 -0.00116676 -4.51306e-19)
(-0.0958984 -0.00254146 -2.26094e-19)
(-0.091701 -0.00391802 0)
(-0.0859362 -0.00525148 0)
(-0.0785065 -0.00649251 0)
(-0.0693343 -0.0075854 0)
(-0.0583528 -0.00847206 0)
(-0.0455335 -0.00908747 0)
(-0.030852 -0.00936371 0)
(-0.014383 -0.00921934 0)
(0.00382362 -0.00855852 0)
(0.0234851 -0.00728216 -9.2532e-22)
(0.0446635 -0.00533753 1.87308e-18)
(0.0675326 -0.00283287 0)
(0.0925191 0.000215831 -3.95589e-18)
(0.118933 0.00392569 -2.03543e-18)
(0.147742 0.00835942 0)
(0.177313 0.0135499 2.15145e-18)
(0.210149 0.0195423 -2.20553e-18)
(0.242163 0.0263291 4.48004e-18)
(0.279991 0.0340147 -4.55025e-18)
(0.313067 0.0424442 0)
(0.358948 0.0521019 8.90866e-21)
(0.38991 0.062091 4.32708e-18)
(0.452126 0.0746069 -8.66573e-18)
(0.473231 0.0854864 -1.31285e-20)
(0.573208 0.103511 -3.74641e-18)
(0.5684 0.112741 1.48946e-18)
(0.763606 0.13741 2.71695e-18)
(0.832278 0.0576545 3.10854e-18)
(0.37427 0.0245435 0)
(0.147313 0.00468499 2.61598e-21)
(0.0298593 0.00828864 -2.75786e-22)
(-0.00342729 0.00613304 4.5999e-18)
(-0.0296431 0.00840187 4.63338e-18)
(-0.036144 0.00762643 0)
(-0.043677 0.00801275 4.54529e-18)
(-0.0452586 0.0075773 0)
(-0.0477716 0.00749611 -2.20683e-18)
(-0.0484449 0.00725744 -9.42836e-23)
(-0.0498387 0.00719095 -2.1364e-18)
(-0.0509096 0.00715494 0)
(-0.052655 0.00722115 -4.13599e-18)
(-0.0546543 0.00733214 0)
(-0.0572522 0.00748314 0)
(-0.0602412 0.00764268 0)
(-0.0636988 0.00778927 1.94584e-18)
(-0.06749 0.00789909 0)
(-0.0715802 0.00794855 1.89407e-18)
(-0.0758501 0.00791521 -1.87073e-18)
(-0.080207 0.00777587 0)
(-0.0845204 0.00751074 -3.29595e-23)
(-0.0886632 0.00710227 0)
(-0.0924932 0.00654014 0)
(-0.095874 0.00582026 -4.45513e-19)
(-0.0986688 0.00494312 0)
(-0.100742 0.00391239 -4.40143e-19)
(-0.101958 0.00273734 -2.19129e-19)
(-0.102183 0.00143346 -5.46058e-20)
(-0.101289 2.31466e-05 5.45006e-20)
(-0.0991529 -0.00146491 2.17754e-19)
(-0.0956606 -0.0029962 4.35295e-19)
(-0.0907002 -0.00453002 0)
(-0.0841713 -0.00601922 4.36323e-19)
(-0.0759834 -0.00741218 0)
(-0.0660645 -0.00865077 0)
(-0.0543512 -0.009674 0)
(-0.0408171 -0.0104135 8.83759e-19)
(-0.0254365 -0.0107962 0)
(-0.00827749 -0.0107345 0)
(0.0106266 -0.0101232 1.77397e-18)
(0.0310479 -0.00886279 -1.77101e-18)
(0.0531173 -0.0069207 0)
(0.0770381 -0.00440342 0)
(0.103154 -0.00130016 1.86355e-18)
(0.130826 0.00250642 1.91145e-18)
(0.160974 0.00708752 -1.95943e-18)
(0.192086 0.0124779 0)
(0.226543 0.0187289 0)
(0.260544 0.0258494 0)
(0.300374 0.0339183 7.18283e-21)
(0.336143 0.0428686 0)
(0.384463 0.0530189 4.24663e-18)
(0.419236 0.0638281 0)
(0.484221 0.0768294 4.05554e-18)
(0.510926 0.089056 -3.34021e-18)
(0.613515 0.107124 7.07213e-18)
(0.616948 0.11838 -1.41721e-18)
(0.814251 0.14094 -2.59069e-18)
(0.863047 0.0707578 8.43623e-20)
(0.440362 0.0301562 -3.63203e-18)
(0.191677 0.00764321 -4.1192e-18)
(0.0538863 0.00919505 -1.83168e-22)
(0.0080892 0.00653717 -4.58759e-18)
(-0.0240166 0.0087596 -4.62842e-18)
(-0.0339133 0.00793344 0)
(-0.0435928 0.00840384 -4.54355e-18)
(-0.0464448 0.00797484 0)
(-0.0498306 0.0079367 -2.20567e-18)
(-0.051064 0.00772096 -2.16943e-18)
(-0.0528562 0.00769133 2.13415e-18)
(-0.0542078 0.00769265 -2.09795e-18)
(-0.0561665 0.00780232 2.06297e-18)
(-0.0583316 0.00795634 -2.02824e-18)
(-0.0610579 0.00814771 1.99477e-18)
(-0.0641392 0.00834102 0)
(-0.0676473 0.00851202 0)
(-0.0714407 0.0086345 0)
(-0.0754761 0.00868301 9.36645e-19)
(-0.0796273 0.00863365 9.23376e-19)
(-0.083796 0.00846215 0)
(-0.0878492 0.00814832 -8.99371e-19)
(-0.0916601 0.00767483 0)
(-0.09509 0.00703248 0)
(-0.0980085 0.00621892 4.352e-19)
(-0.100287 0.00523634 -4.31352e-19)
(-0.101799 0.00408981 2.14047e-19)
(-0.102418 0.00279005 0)
(-0.102022 0.00135405 1.05784e-19)
(-0.100493 -0.000194172 -1.05374e-19)
(-0.0977167 -0.00182471 0)
(-0.0935849 -0.00350172 -2.09568e-19)
(-0.0879913 -0.00518318 4.18666e-19)
(-0.0808407 -0.0068202 -4.18849e-19)
(-0.0720463 -0.00835916 0)
(-0.0615385 -0.00973975 0)
(-0.049255 -0.0108982 0)
(-0.0351688 -0.011763 -8.45086e-19)
(-0.0192511 -0.012256 0)
(-0.00156126 -0.0122846 0)
(0.0178854 -0.0117358 -1.69561e-18)
(0.0389128 -0.0105125 0)
(0.0616944 -0.00860105 1.69995e-18)
(0.0864161 -0.00610618 -1.72883e-18)
(0.113366 -0.0029898 0)
(0.141953 0.00086158 1.80312e-18)
(0.173046 0.00552701 3.68765e-18)
(0.205252 0.0110378 -1.87787e-18)
(0.240824 0.0174553 0)
(0.276237 0.0247901 0)
(0.317428 0.0331156 1.96975e-18)
(0.355168 0.0424107 0)
(0.405147 0.0528955 3.92542e-18)
(0.442869 0.0642691 0)
(0.509726 0.0775878 3.74665e-18)
(0.541087 0.0908018 3.08633e-18)
(0.645262 0.108776 -3.29645e-18)
(0.656028 0.121575 0)
(0.85336 0.142052 2.39908e-18)
(0.887776 0.0828597 -3.35984e-18)
(0.502045 0.0364622 2.00258e-20)
(0.239779 0.0112239 4.06496e-18)
(0.0826615 0.0104496 -1.62721e-22)
(0.0228728 0.00710602 -6.6219e-22)
(-0.0159062 0.00909917 0)
(-0.0298194 0.00818804 0)
(-0.0419952 0.00871866 0)
(-0.0463807 0.00828872 -2.23688e-18)
(-0.0508072 0.00829223 4.40837e-18)
(-0.0527173 0.00809913 0)
(-0.0549745 0.00810691 2.13099e-18)
(-0.0566381 0.00814538 6.38984e-23)
(-0.0588079 0.00829766 -2.05643e-18)
(-0.0611106 0.00849263 5.78051e-23)
(-0.0639139 0.00872113 -1.9834e-18)
(-0.0670177 0.00894373 0)
(-0.0704919 0.00913392 0)
(-0.0741936 0.00926349 0)
(-0.0780758 0.00930578 -9.24825e-19)
(-0.0820111 0.00923598 0)
(-0.085901 0.00902937 8.95872e-19)
(-0.0896153 0.00866576 8.82754e-19)
(-0.0930318 0.00812831 -8.70601e-19)
(-0.0960184 0.00740902 0)
(-0.0984525 0.00650713 0)
(-0.100214 0.00542617 4.20227e-19)
(-0.101184 0.00417227 0)
(-0.101246 0.00275716 2.06456e-19)
(-0.100285 0.00119886 -5.12748e-20)
(-0.0981906 -0.000477518 5.09945e-20)
(-0.094855 -0.00224116 -2.02931e-19)
(-0.0901718 -0.00405542 0)
(-0.0840396 -0.00587701 -4.03691e-19)
(-0.0763663 -0.00765546 0)
(-0.0670676 -0.00933529 0)
(-0.056075 -0.0108542 8.08062e-19)
(-0.0433264 -0.0121457 0)
(-0.0287936 -0.0131354 0)
(-0.0124442 -0.0137404 0)
(0.00567136 -0.0138638 0)
(0.0255563 -0.0133871 0)
(0.0470787 -0.0122168 0)
(0.070436 -0.0103557 -3.26967e-18)
(0.0957742 -0.00790583 1.65758e-18)
(0.123343 -0.00480405 1.685e-18)
(0.152601 -0.000942926 -3.4302e-18)
(0.184365 0.00376406 -1.747e-18)
(0.217349 0.00934105 1.77369e-18)
(0.253684 0.0158616 -1.79899e-18)
(0.290095 0.0233274 0)
(0.332196 0.0318208 3.31128e-21)
(0.371358 0.0413318 -3.62817e-18)
(0.422428 0.0520374 -3.65095e-18)
(0.462368 0.063772 -3.44978e-18)
(0.530413 0.0772862 -6.9376e-18)
(0.565475 0.0911625 -2.86335e-18)
(0.670463 0.108968 3.02749e-18)
(0.687376 0.122819 1.18983e-18)
(0.88343 0.141399 -2.22971e-18)
(0.907674 0.0939171 -7.31284e-20)
(0.558807 0.043269 3.49271e-18)
(0.290327 0.0154143 2.24678e-21)
(0.11592 0.0121347 -2.02881e-22)
(0.0411038 0.00790807 4.54687e-18)
(-0.00520343 0.00947369 4.60798e-18)
(-0.0237811 0.00842945 -4.57663e-18)
(-0.0388209 0.00898414 2.268e-18)
(-0.0450167 0.00853919 4.44522e-23)
(-0.0506665 0.008578 -2.20219e-18)
(-0.0533784 0.0084032 -2.16462e-18)
(-0.0561758 0.00844575 -2.12721e-18)
(-0.058189 0.00851835 4.17575e-18)
(-0.0605753 0.00871016 5.45551e-23)
(-0.062996 0.00894231 2.00913e-18)
(-0.065837 0.0092037 0)
(-0.06891 0.00945091 1.93178e-18)
(-0.0722885 0.00965559 0)
(-0.0758331 0.0097879 -1.8587e-18)
(-0.0794978 0.00982048 -9.1219e-19)
(-0.0831583 0.00972794 -8.95874e-19)
(-0.0867198 0.00948548 -3.30437e-23)
(-0.0900576 0.00907305 -8.66124e-19)
(-0.093056 0.00847436 8.52771e-19)
(-0.0955902 0.00768243 0)
(-0.0975453 0.00669786 -4.14671e-19)
(-0.098808 0.00552525 0)
(-0.0992678 0.00417145 0)
(-0.0988141 0.00264887 -2.00809e-19)
(-0.0973382 0.000976318 0)
(-0.0947347 -0.00082036 0)
(-0.0908992 -0.00270966 1.96718e-19)
(-0.0857282 -0.00465433 0)
(-0.0791235 -0.00660979 0)
(-0.0709957 -0.00852412 3.90015e-19)
(-0.0612618 -0.0103401 0)
(-0.0498547 -0.0119935 -7.80929e-19)
(-0.0367121 -0.0134154 0)
(-0.0218043 -0.0145286 7.84103e-19)
(-0.00509591 -0.015246 0)
(0.0133721 -0.0154671 0)
(0.0336197 -0.0150697 0)
(0.0555516 -0.0139647 0)
(0.0793759 -0.0121675 1.58022e-18)
(0.105191 -0.00977704 0)
(0.133221 -0.00670841 -3.23775e-18)
(0.162969 -0.00286134 1.64207e-18)
(0.195206 0.0018579 -1.6641e-18)
(0.228739 0.00746377 1.683e-18)
(0.265588 0.0140437 1.70483e-18)
(0.3027 0.0215825 0)
(0.345397 0.030182 1.72348e-18)
(0.385579 0.039817 5.09979e-18)
(0.437341 0.0506638 -3.39571e-18)
(0.478932 0.0626073 3.21497e-18)
(0.547677 0.0762333 3.21835e-18)
(0.585617 0.0905083 0)
(0.690875 0.108111 -2.8038e-18)
(0.712762 0.12258 -2.18737e-18)
(0.906765 0.139525 0)
(0.92368 0.103943 3.58724e-18)
(0.610449 0.0503858 0)
(0.342081 0.0201738 2.03006e-21)
(0.153232 0.0143073 -2.83365e-22)
(0.0629268 0.00900447 -4.52038e-18)
(0.00821344 0.00994207 -9.18659e-18)
(-0.0157115 0.00869852 9.14018e-18)
(-0.0339971 0.00922775 -2.26538e-18)
(-0.0422967 0.00874735 2.23283e-18)
(-0.0493677 0.00881001 0)
(-0.0530178 0.0086452 4.38468e-23)
(-0.0564423 0.00871689 0)
(-0.0588525 0.00881806 -4.16296e-18)
(-0.0614717 0.00904455 2.03993e-18)
(-0.0640035 0.00930899 0)
(-0.0668587 0.00959871 0)
(-0.0698673 0.00986617 -1.91461e-18)
(-0.0731113 0.0100816 0)
(-0.0764592 0.0102136 1.83601e-18)
(-0.0798699 0.0102344 8.9957e-19)
(-0.0832251 0.0101184 2.95372e-23)
(-0.0864356 0.00984062 -8.65589e-19)
(-0.0893835 0.00938131 -8.50147e-19)
(-0.0919602 0.00872458 0)
(-0.0940483 0.00786433 0)
(-0.0955393 0.00680231 4.05496e-19)
(-0.0963266 0.00554391 0)
(-0.0963056 0.00409651 1.97754e-19)
(-0.0953709 0.00247301 -1.9575e-19)
(-0.0934188 0.000692854 4.85184e-20)
(-0.0903482 -0.00121764 -4.81348e-20)
(-0.0860563 -0.00322652 1.91268e-19)
(-0.0804427 -0.00529579 -1.90325e-19)
(-0.073412 -0.00737965 3.79384e-19)
(-0.0648771 -0.00942485 -3.78771e-19)
(-0.0547566 -0.0113725 0)
(-0.0429842 -0.0131567 0)
(-0.0294975 -0.0147059 0)
(-0.014266 -0.0159407 -2.05349e-22)
(0.00274863 -0.0167699 7.62452e-19)
(0.021515 -0.0170906 0)
(0.0420671 -0.0167778 0)
(0.0643393 -0.0157473 0)
(0.0885417 -0.0140234 0)
(0.114725 -0.0117013 0)
(0.143095 -0.00867826 1.05174e-21)
(0.173196 -0.00486152 0)
(0.205758 -0.000150393 3.19526e-18)
(0.239672 0.00545832 -3.22083e-18)
(0.276854 0.0120669 -1.6224e-18)
(0.314449 0.0196377 0)
(0.357517 0.0283 0)
(0.398423 0.0379935 -3.2016e-18)
(0.450597 0.0489256 7.68647e-21)
(0.493412 0.0609666 -2.99465e-18)
(0.562519 0.0746481 2.98479e-18)
(0.602685 0.0891197 2.4363e-18)
(0.707845 0.106512 -2.57433e-18)
(0.733698 0.121249 1.9947e-18)
(0.925235 0.136834 1.86246e-18)
(0.936534 0.112983 6.54422e-20)
(0.656985 0.0576386 -3.35122e-18)
(0.393933 0.0254356 -7.78407e-18)
(0.19402 0.0169994 -3.94364e-22)
(0.0884087 0.0104491 4.48794e-18)
(0.0244831 0.010562 4.57337e-18)
(-0.00551898 0.00903964 -2.27968e-18)
(-0.0274404 0.0094775 0)
(-0.0381571 0.00893535 0)
(-0.0468636 0.00900503 2.19682e-18)
(-0.0516023 0.00883813 2.15795e-18)
(-0.0557547 0.00893046 0)
(-0.0586223 0.00905241 2.07463e-18)
(-0.0615048 0.0093073 0)
(-0.0641555 0.0095984 0)
(-0.0670184 0.0099118 0)
(-0.0699472 0.0101955 0)
(-0.0730374 0.0104186 1.8548e-18)
(-0.0761692 0.0105482 9.06935e-19)
(-0.0793091 0.0105562 -8.8743e-19)
(-0.0823464 0.0104166 2.88893e-23)
(-0.0851988 0.0101046 0)
(-0.0877561 0.00960052 8.35466e-19)
(-0.0899166 0.00888885 0)
(-0.0915697 0.00796418 0)
(-0.0926133 0.00682922 3.97216e-19)
(-0.0929463 0.00549001 -3.91698e-19)
(-0.0924689 0.0039543 -1.93445e-19)
(-0.0910806 0.00223538 1.91363e-19)
(-0.0886818 0.000353184 -9.48004e-20)
(-0.0851747 -0.00166568 9.39726e-20)
(-0.0804579 -0.00378893 -1.86631e-19)
(-0.0744341 -0.00597766 1.85636e-19)
(-0.0670109 -0.008185 -6.55581e-23)
(-0.0581032 -0.0103564 -3.69075e-19)
(-0.047631 -0.0124316 0)
(-0.0355291 -0.0143427 0)
(-0.0217355 -0.0160161 0)
(-0.00621858 -0.01737 -1.48258e-18)
(0.0110624 -0.01831 -7.42784e-19)
(0.0300853 -0.0187311 0)
(0.0508948 -0.018507 0)
(0.0734497 -0.0175577 -1.48979e-18)
(0.0979557 -0.0159133 0)
(0.12442 -0.0136649 0)
(0.153035 -0.0106956 3.03406e-18)
(0.183383 -0.00692037 -1.52877e-18)
(0.216156 -0.0022317 -3.08356e-18)
(0.25032 0.00336136 1.63352e-21)
(0.2877 0.00997659 3.1137e-18)
(0.325614 0.01755 1.55086e-18)
(0.368888 0.0262437 0)
(0.410297 0.0359483 1.51984e-18)
(0.462683 0.046926 3.01686e-18)
(0.506402 0.0589832 2.82462e-18)
(0.575636 0.0726818 -2.80445e-18)
(0.617523 0.0871982 -2.27995e-18)
(0.722346 0.104387 2.40017e-18)
(0.751349 0.119123 -9.19086e-19)
(0.940227 0.133609 -1.72484e-18)
(0.946832 0.121101 6.24635e-20)
(0.698569 0.0648772 3.31202e-18)
(0.444929 0.031113 -1.56985e-21)
(0.237595 0.0202194 -5.31112e-22)
(0.117511 0.0122865 0)
(0.0437235 0.0113924 0)
(0.00691801 0.00949557 1.72127e-22)
(-0.0190558 0.0097625 0)
(-0.0325259 0.00912649 0)
(-0.0430989 0.00918071 -7.58005e-24)
(-0.0490928 0.00899599 0)
(-0.0540902 0.00909774 0)
(-0.0574908 0.00923064 2.06771e-18)
(-0.0606824 0.00950636 0)
(-0.0634752 0.00981774 0)
(-0.0663548 0.01015 0)
(-0.0692038 0.0104462 0)
(-0.0721362 0.0106743 -3.6864e-23)
(-0.0750466 0.0107997 -8.96641e-19)
(-0.0779114 0.0107941 1.75248e-18)
(-0.0806289 0.010631 2.76608e-23)
(-0.0831248 0.0102859 8.38936e-19)
(-0.0852966 0.00973898 0)
(-0.0870497 0.00897508 8.067e-19)
(-0.0882801 0.00798933 0)
(-0.0888914 0.00678527 -3.89963e-19)
(-0.0887878 0.00536946 3.26944e-23)
(-0.0878737 0.00374993 0)
(-0.086053 0.00194027 0)
(-0.0832297 -3.92141e-05 5.58328e-24)
(-0.0793084 -0.00216177 -6.08941e-24)
(-0.0741899 -0.00439474 9.12983e-20)
(-0.0677802 -0.00669834 0)
(-0.0599892 -0.00902462 -3.61774e-19)
(-0.050734 -0.0113179 3.60958e-19)
(-0.0399363 -0.0135164 0)
(-0.0275322 -0.0155507 -7.21685e-19)
(-0.0134599 -0.017345 0)
(0.0023126 -0.0188154 1.6675e-22)
(0.0198285 -0.0198647 0)
(0.0390738 -0.0203863 7.26643e-19)
(0.0601016 -0.0202533 7.27633e-19)
(0.0828898 -0.01939 5.14247e-22)
(0.107636 -0.0178291 -1.46088e-18)
(0.13431 -0.0156573 0)
(0.163094 -0.0127469 -8.79945e-22)
(0.193603 -0.00902084 1.48748e-18)
(0.226496 -0.00436484 1.26641e-21)
(0.260808 0.00119923 1.49947e-18)
(0.298281 0.0078049 -1.77899e-21)
(0.336386 0.0153594 -2.09158e-21)
(0.379742 0.0240613 0)
(0.421484 0.0337421 0)
(0.473935 0.0447361 0)
(0.518312 0.0567494 0)
(0.587508 0.0704383 0)
(0.630728 0.0848863 2.12515e-18)
(0.735059 0.101883 0)
(0.766571 0.116419 0)
(0.952728 0.130038 -1.58425e-18)
(0.95506 0.128369 -1.92569e-18)
(0.735453 0.0719783 0)
(0.494292 0.0371064 -1.3772e-21)
(0.283201 0.0239521 -6.8791e-22)
(0.150075 0.0145506 0)
(0.0660215 0.0124909 2.26134e-18)
(0.0217367 0.0101081 -2.26493e-18)
(-0.00873724 0.010113 0)
(-0.0253218 0.00934531 0)
(-0.0380082 0.00935554 -2.19073e-18)
(-0.0454425 0.0091338 0)
(-0.0514191 0.00923102 0)
(-0.055445 0.00936303 -2.06124e-18)
(-0.0590074 0.00965062 0)
(-0.0619802 0.00997507 -1.96329e-18)
(-0.0648991 0.0103209 0)
(-0.067681 0.0106257 0)
(-0.0704628 0.0108561 -3.01419e-23)
(-0.0731563 0.0109755 0)
(-0.0757499 0.0109555 -8.66168e-19)
(-0.0781522 0.010769 8.46269e-19)
(-0.0802977 0.0103915 -1.65533e-18)
(-0.0820918 0.00980336 8.10401e-19)
(-0.0834474 0.00898949 -7.9459e-19)
(-0.0842668 0.00794547 0)
(-0.0844593 0.00667559 -3.83568e-19)
(-0.0839338 0.00518676 7.55634e-19)
(-0.0825988 0.00348725 0)
(-0.0803621 0.00159089 -9.21091e-20)
(-0.0771313 -0.000481742 4.55765e-20)
(-0.0728129 -0.00270387 -4.51417e-20)
(-0.0673105 -0.00504237 -8.95914e-20)
(-0.0605329 -0.00745656 0)
(-0.052393 -0.00989755 -3.54769e-19)
(-0.04281 -0.0123086 3.53925e-19)
(-0.0317071 -0.0146264 0)
(-0.0190221 -0.0167801 7.0783e-19)
(-0.00469364 -0.0186918 0)
(0.0113105 -0.0202759 7.10174e-19)
(0.0290358 -0.0214325 0)
(0.0484751 -0.0220542 -7.12575e-19)
(0.0696875 -0.0220139 -7.13801e-19)
(0.0926659 -0.0212395 4.76404e-22)
(0.117598 -0.0197643 1.4333e-18)
(0.144422 -0.0176701 0)
(0.173311 -0.0148218 -1.4462e-18)
(0.203911 -0.0111501 0)
(0.236852 -0.006534 1.45726e-18)
(0.271229 -0.00100863 0)
(0.30871 0.00557537 -1.45642e-18)
(0.346902 0.0130949 -2.88484e-18)
(0.390243 0.0217873 0)
(0.432183 0.0314181 0)
(0.484588 0.0424062 0)
(0.529432 0.0543305 1.26996e-18)
(0.598469 0.0679903 0)
(0.642723 0.0822847 -9.84432e-21)
(0.746458 0.0991048 0)
(0.779981 0.113294 7.68605e-19)
(0.963428 0.126247 1.48388e-18)
(0.961618 0.134865 0)
(0.767946 0.0788454 3.22353e-18)
(0.54141 0.0433106 3.74165e-18)
(0.330058 0.0281607 -8.56174e-22)
(0.185816 0.017262 0)
(0.0914203 0.0139087 -2.24603e-18)
(0.0390743 0.0109191 0)
(0.00362961 0.0105616 2.24823e-18)
(-0.0164545 0.00961781 2.22116e-18)
(-0.0315151 0.00954887 2.18773e-18)
(-0.0405939 0.00926753 2.14734e-18)
(-0.0477017 0.00934342 2.10369e-18)
(-0.0524624 0.00946062 0)
(-0.0564734 0.00974962 0)
(-0.0596782 0.0100788 1.95374e-18)
(-0.0626714 0.0104323 0)
(-0.0654091 0.0107412 0)
(-0.0680563 0.0109708 -1.80417e-18)
(-0.0705446 0.0110823 0)
(-0.0728767 0.0110468 -8.57261e-19)
(-0.0749728 0.0108366 0)
(-0.0767768 0.0104273 8.17772e-19)
(-0.0782027 0.00979908 -8.00142e-19)
(-0.0791711 0.00893707 0)
(-0.0795907 0.00783714 0)
(-0.0793762 0.00650417 2.62295e-23)
(-0.0784412 0.00494541 -3.72232e-19)
(-0.0766983 0.00316926 0)
(-0.0740589 0.00118975 9.06978e-20)
(-0.070434 -0.000972399 4.48396e-20)
(-0.0657318 -0.00329038 -4.44011e-20)
(-0.0598593 -0.00573056 0)