/*--------------------------------*- C++ -*----------------------------------*\
| =========                 |                                                 |
| \\      /  F ield         | OpenFOAM: The Open Source CFD Toolbox           |
|  \\    /   O peration     | Version:  2.4.0                                 |
|   \\  /    A nd           | Web:      www.OpenFOAM.org                      |
|    \\/     M anipulation  |                                                 |
\*---------------------------------------------------------------------------*/
FoamFile
{
    version     2.0;
    format      ascii;
    class       volScalarField;
    location    "0.56";
    object      epsilon;
}
// * * * * * * * * * * * * * * * * * * * * * * * * * * * * * * * * * * * * * //

dimensions      [0 2 -3 0 0 0 0];

internalField   nonuniform List<scalar> 
6000
(
54.2414
1.05818
0.0248055
0.12557
0.0676571
0.145472
0.376982
0.86366
1.19617
1.09776
0.693665
0.318667
0.105923
0.0310291
0.0185076
0.0476089
0.0911867
0.138361
0.183145
0.221749
0.253183
0.278471
0.299255
0.316933
0.332487
0.346634
0.359953
0.372944
0.386047
0.399645
0.414087
0.429705
0.44683
0.465811
0.487027
0.510905
0.537941
0.568718
0.603933
0.64444
0.691279
0.745758
0.809502
0.884607
0.973677
1.0803
1.20871
1.36571
1.55766
1.79997
2.09829
2.49813
2.97684
3.71025
4.47298
6.07583
7.10867
11.6124
12.0246
27.0323
17.7415
0.961191
0.0283228
0.0697493
0.0406464
0.0816971
0.186463
0.367575
0.465264
0.4112
0.262338
0.12557
0.0449828
0.0159234
0.0139864
0.0294649
0.0484326
0.0670567
0.0834501
0.0967646
0.107115
0.11515
0.121575
0.126931
0.131586
0.135807
0.139805
0.143758
0.147819
0.152121
0.156781
0.161914
0.167633
0.17406
0.181325
0.18958
0.198998
0.209785
0.22219
0.236515
0.253131
0.272505
0.295217
0.322012
0.353825
0.391928
0.437849
0.493963
0.562658
0.649143
0.756073
0.898124
1.07073
1.32825
1.60925
2.15821
2.57221
4.05724
4.41693
9.15564
7.14141
0.705675
0.032527
0.0413238
0.025877
0.049126
0.100226
0.172139
0.199052
0.168064
0.107412
0.0533817
0.0209746
0.00958637
0.0108862
0.0189964
0.0276504
0.0354751
0.0419217
0.0468823
0.0505716
0.0533324
0.0554752
0.0572222
0.0587226
0.0600832
0.0613883
0.062707
0.0640977
0.0656104
0.0672902
0.0691804
0.0713247
0.0737695
0.0765663
0.079774
0.0834611
0.0877094
0.0926174
0.0983054
0.104922
0.112652
0.121729
0.132449
0.145186
0.160447
0.178848
0.201318
0.228855
0.263428
0.306342
0.362863
0.432496
0.533793
0.649309
0.860007
1.04233
1.59011
1.81329
3.47421
3.4214
0.51611
0.0363917
0.0264763
0.0174452
0.0313173
0.0576958
0.0874064
0.0925598
0.0745904
0.0478192
0.0248852
0.0110939
0.00674809
0.00852618
0.0127839
0.0169024
0.0203827
0.0230904
0.0250704
0.0264741
0.0274774
0.0282247
0.0288151
0.0293142
0.0297684
0.0302138
0.0306796
0.0311901
0.0317663
0.0324268
0.0331897
0.0340733
0.0350975
0.0362842
0.0376588
0.039251
0.0410963
0.0432378
0.0457281
0.0486321
0.0520312
0.0560271
0.0607503
0.0663654
0.0730926
0.0812059
0.0911045
0.103243
0.118442
0.137368
0.162098
0.192934
0.236764
0.288738
0.377753
0.464317
0.686549
0.81578
1.44998
1.89779
0.394767
0.0403171
0.018812
0.0124944
0.0210616
0.0352978
0.0477606
0.0466303
0.0361424
0.0234637
0.0130013
0.0068249
0.00532756
0.0067529
0.00901774
0.0110621
0.0127025
0.0139179
0.0147603
0.0153201
0.0156906
0.0159455
0.0161343
0.0162886
0.0164303
0.0165759
0.0167387
0.0169299
0.0171587
0.0174336
0.0177628
0.0181546
0.0186181
0.0191634
0.0198023
0.0205488
0.0214195
0.0224347
0.0236194
0.0250041
0.0266275
0.0285378
0.0307966
0.0334824
0.0366988
0.0405771
0.045303
0.051099
0.058336
0.0673679
0.0790834
0.093836
0.11438
0.139553
0.180342
0.224027
0.321814
0.39564
0.655958
1.19085
0.318227
0.0445491
0.0152402
0.00957838
0.0149212
0.0228955
0.0280663
0.0255897
0.019383
0.0129264
0.00777779
0.00490014
0.00449474
0.0054526
0.00667638
0.00773607
0.00855992
0.00914738
0.00952983
0.00975773
0.00988448
0.0099531
0.00999215
0.010019
0.0100448
0.0100775
0.0101238
0.010189
0.0102776
0.0103937
0.0105412
0.0107241
0.0109467
0.0112142
0.0115322
0.0119078
0.0123493
0.012867
0.0134732
0.0141836
0.0150176
0.0159996
0.0171607
0.0185406
0.0201914
0.0221803
0.0245997
0.0275646
0.0312551
0.0358653
0.0418054
0.0493378
0.0596447
0.0726024
0.0926377
0.11581
0.161983
0.20438
0.318228
0.828519
0.268861
0.0490973
0.0141908
0.00795265
0.0111559
0.0157745
0.0178214
0.0154658
0.0116919
0.00813417
0.00539237
0.00399208
0.00393165
0.00450767
0.00517249
0.00574386
0.00618696
0.00649675
0.00668426
0.00677554
0.0068037
0.00679795
0.006778
0.00675502
0.00673532
0.0067231
0.00672169
0.00673385
0.00676189
0.00680784
0.00687363
0.00696125
0.00707293
0.00721123
0.00737919
0.00758045
0.00781942
0.00810151
0.00843341
0.0088234
0.00928184
0.00982176
0.0104597
0.0112173
0.0121226
0.0132113
0.0145319
0.0161466
0.0181485
0.0206467
0.0238438
0.0279158
0.0334043
0.0404339
0.0508912
0.0637132
0.0869263
0.111607
0.164387
0.627734
0.235967
0.0538385
0.0148137
0.00723013
0.00884061
0.0115956
0.0123169
0.0104195
0.00803935
0.00590312
0.00429414
0.00353763
0.00351735
0.00381807
0.0041689
0.00448343
0.00473711
0.00491673
0.00501838
0.00505257
0.00504075
0.00500524
0.00496191
0.00491936
0.00488174
0.00485136
0.00482997
0.00481903
0.00481975
0.00483315
0.00486019
0.00490187
0.00495933
0.00503393
0.0051273
0.00524144
0.00537881
0.00554241
0.00573601
0.00596427
0.006233
0.0065495
0.00692349
0.00736728
0.00789622
0.00853027
0.00929649
0.0102301
0.0113817
0.0128148
0.0146356
0.0169556
0.020042
0.0240437
0.0298109
0.0371852
0.0495421
0.0641644
0.0900644
0.509569
0.213318
0.0585935
0.0166077
0.00720532
0.00746774
0.00913927
0.00932908
0.00789575
0.00632614
0.00489895
0.00381277
0.00329322
0.00320389
0.00331129
0.00347457
0.00364282
0.00379286
0.00390551
0.00396732
0.00397839
0.00395214
0.0039065
0.00385542
0.0038065
0.00376298
0.00372625
0.00369723
0.00367667
0.00366519
0.00366328
0.00367141
0.00369004
0.00371975
0.00376127
0.00381549
0.00388357
0.00396693
0.00406733
0.00418701
0.00432872
0.00449591
0.00469308
0.00492627
0.00520237
0.00553044
0.00592231
0.00639379
0.00696568
0.00766712
0.00853603
0.00963155
0.0110239
0.012853
0.0152393
0.0185898
0.022996
0.0299365
0.038792
0.0522487
0.436778
0.197263
0.063175
0.019236
0.00776634
0.00675739
0.00774737
0.00776497
0.00672142
0.00561412
0.00451591
0.0036388
0.00315949
0.00297006
0.00293911
0.0029821
0.0030589
0.00314472
0.00321726
0.0032581
0.00326042
0.00323133
0.003185
0.0031339
0.00308517
0.0030417
0.00300445
0.00297388
0.00295034
0.00293413
0.00292544
0.00292445
0.00293134
0.0029464
0.00297
0.00300264
0.00304501
0.00309797
0.00316261
0.00324033
0.00333286
0.00344237
0.00357204
0.0037253
0.00390646
0.00412117
0.0043768
0.00468306
0.00505283
0.00550373
0.00605929
0.00675425
0.00763352
0.00877487
0.0102648
0.0123123
0.0150512
0.0191559
0.0246648
0.0320736
0.390377
0.185615
0.0674196
0.0224404
0.00884018
0.00655962
0.00705391
0.00706207
0.00631789
0.00544625
0.00445891
0.00362716
0.00309616
0.00280391
0.00266964
0.00262978
0.0026442
0.00268507
0.00272888
0.00275563
0.00275449
0.00272748
0.00268504
0.00263797
0.00259294
0.00255271
0.00251803
0.00248913
0.00246611
0.00244906
0.00243803
0.00243302
0.00243408
0.0024413
0.00245488
0.00247509
0.00250235
0.00253722
0.0025804
0.00263282
0.00269563
0.00277041
0.00285922
0.00296423
0.0030883
0.00323515
0.00340958
0.00361792
0.00386849
0.00417251
0.00454519
0.00500802
0.00559051
0.0063384
0.00731199
0.00862532
0.0103984
0.0129506
0.016487
0.0208093
0.360039
0.177021
0.0712073
0.0259993
0.0103691
0.00679173
0.0068489
0.00691113
0.00637395
0.00558235
0.00458094
0.00370659
0.0030854
0.00269619
0.00248053
0.00237962
0.00234858
0.00235533
0.00237575
0.00239041
0.00238686
0.00236333
0.00232663
0.00228553
0.00224602
0.00221066
0.00218016
0.00215457
0.00213387
0.00211802
0.00210699
0.00210068
0.00209906
0.00210214
0.00210999
0.00212277
0.00214075
0.00216428
0.00219387
0.00223015
0.00227393
0.00232646
0.002389
0.00246309
0.00255072
0.00265445
0.00277761
0.00292448
0.00310074
0.00331387
0.00357415
0.00389553
0.00429806
0.00481013
0.0054741
0.00635515
0.00755005
0.00921409
0.0115638
0.0142309
0.339835
0.170614
0.0744703
0.0297124
0.0122925
0.0074041
0.00700862
0.00712795
0.00670847
0.00588825
0.00480636
0.00384133
0.00311703
0.00263817
0.00235469
0.00220586
0.0021401
0.00212004
0.00212051
0.00212359
0.00211702
0.00209659
0.00206585
0.0020313
0.00199795
0.00196812
0.0019424
0.0019208
0.00190321
0.00188952
0.00187964
0.00187344
0.00187084
0.00187181
0.00187635
0.00188457
0.00189662
0.00191276
0.00193334
0.00195883
0.00198986
0.00202734
0.00207213
0.00212535
0.00218845
0.0022633
0.00235229
0.00245847
0.00258587
0.00273973
0.00292728
0.00315804
0.00344609
0.00380998
0.00428009
0.00489552
0.0057312
0.00686445
0.00848156
0.0102159
0.326205
0.165818
0.0771909
0.0333999
0.014537
0.00835874
0.00745937
0.00759359
0.00720853
0.00628663
0.00509286
0.00401182
0.0031829
0.00262122
0.00227837
0.00208952
0.00199611
0.00195483
0.00193849
0.00193055
0.00192004
0.00190159
0.00187609
0.00184777
0.00182048
0.00179611
0.00177517
0.00175761
0.00174329
0.00173205
0.00172378
0.00171834
0.00171564
0.00171562
0.00171825
0.0017236
0.00173177
0.00174294
0.00175737
0.00177542
0.00179759
0.00182452
0.00185686
0.00189545
0.00194139
0.00199607
0.00206129
0.00213931
0.00223311
0.00234651
0.00248479
0.00265473
0.00286659
0.00313305
0.0034765
0.00392146
0.00452561
0.00532763
0.00647888
0.00766168
0.316931
0.162238
0.0793936
0.0369084
0.0170128
0.00961906
0.00815331
0.00822568
0.00779828
0.00673852
0.00540894
0.00420456
0.00327503
0.00263686
0.0022402
0.00201603
0.00189956
0.00184143
0.00181137
0.00179348
0.00177845
0.00176076
0.00173939
0.0017165
0.00169465
0.00167526
0.00165869
0.00164485
0.00163357
0.00162469
0.00161809
0.00161364
0.00161124
0.00161082
0.00161236
0.00161588
0.00162147
0.00162924
0.00163939
0.00165221
0.0016681
0.00168751
0.00171093
0.00173903
0.00177266
0.00181288
0.00186108
0.001919
0.0019889
0.00207367
0.00217732
0.00230485
0.002464
0.00266377
0.00292121
0.00325227
0.00370186
0.00428865
0.0051346
0.00597654
0.310591
0.159588
0.0811322
0.0401194
0.0196156
0.0111407
0.00905315
0.00896815
0.00843293
0.0072107
0.00573383
0.00440832
0.00338531
0.00267707
0.0022308
0.00197416
0.00183743
0.00176568
0.00172479
0.00169846
0.00167884
0.00166096
0.00164256
0.00162406
0.00160682
0.00159169
0.00157886
0.0015682
0.00155954
0.00155273
0.00154764
0.00154416
0.00154219
0.00154168
0.00154259
0.00154495
0.0015488
0.00155423
0.0015614
0.00157053
0.00158193
0.00159594
0.00161295
0.00163346
0.00165816
0.00168788
0.00172371
0.00176701
0.00181956
0.0018836
0.00196226
0.00205937
0.00218094
0.0023336
0.00253072
0.00278299
0.00312618
0.00356802
0.0042082
0.00483111
0.30625
0.15766
0.0824773
0.0429535
0.0222339
0.0128666
0.0101246
0.00978295
0.00908022
0.00767804
0.00605205
0.00461301
0.0035058
0.00273449
0.00224249
0.00195529
0.00179991
0.00171672
0.00166745
0.00163435
0.00161053
0.00159183
0.00157537
0.00156024
0.00154669
0.00153502
0.00152524
0.00151717
0.00151065
0.00150552
0.00150169
0.00149904
0.00149751
0.00149703
0.0014976
0.0014992
0.00150188
0.00150571
0.00151081
0.00151735
0.00152557
0.00153573
0.00154812
0.00156317
0.00158139
0.00160348
0.00163028
0.00166288
0.00170272
0.00175157
0.00181193
0.00188681
0.00198104
0.00209963
0.00225342
0.00244967
0.00271776
0.00305902
0.00355718
0.0040346
0.303283
0.156292
0.0835055
0.045371
0.024759
0.0147258
0.0113306
0.0106412
0.00971652
0.00812197
0.0063512
0.00480968
0.00362914
0.00280256
0.00226901
0.00195294
0.00177977
0.00168645
0.00163064
0.00159236
0.00156499
0.00154517
0.00152987
0.00151719
0.00150646
0.00149748
0.00149007
0.00148401
0.00147914
0.00147531
0.00147245
0.00147046
0.0014693
0.00146891
0.00146927
0.0014704
0.0014723
0.00147505
0.00147873
0.00148347
0.00148947
0.0014969
0.00150603
0.00151717
0.00153076
0.00154733
0.00156757
0.00159238
0.00162289
0.00166057
0.00170746
0.00176597
0.00184007
0.00193366
0.0020558
0.00221145
0.0024255
0.00269533
0.00309359
0.00347169
0.301264
0.15536
0.084291
0.0473679
0.0270953
0.0166363
0.0126279
0.0115183
0.0103236
0.00852817
0.00662133
0.00499077
0.00374895
0.00287565
0.00230532
0.00196222
0.00177182
0.00166903
0.00160791
0.00156578
0.00153557
0.00151459
0.00149986
0.00148887
0.00148021
0.00147324
0.0014676
0.00146304
0.00145938
0.00145651
0.00145436
0.00145287
0.00145199
0.00145168
0.00145193
0.00145275
0.00145415
0.00145617
0.00145889
0.00146241
0.00146688
0.00147244
0.00147929
0.0014877
0.001498
0.00151065
0.00152619
0.00154535
0.0015691
0.0015986
0.00163559
0.00168201
0.00174125
0.00181636
0.00191515
0.00204099
0.00221566
0.00243388
0.00276087
0.00306965
0.299901
0.154764
0.0848999
0.048969
0.0291693
0.0185108
0.0139652
0.0123893
0.010886
0.00888562
0.00685479
0.00515035
0.00386005
0.00294917
0.00234738
0.00197951
0.0017724
0.00166039
0.00159468
0.00154967
0.00151729
0.00149521
0.00148067
0.00147077
0.00146357
0.00145804
0.00145367
0.00145017
0.00144737
0.00144517
0.00144352
0.00144237
0.00144169
0.00144145
0.00144164
0.00144225
0.00144332
0.00144487
0.00144696
0.00144967
0.00145311
0.00145741
0.00146271
0.00146924
0.00147728
0.00148718
0.00149941
0.00151456
0.00153344
0.00155703
0.00158679
0.00162434
0.00167262
0.00173406
0.00181558
0.00191938
0.00206514
0.00224563
0.00252125
0.00278076
0.298993
0.154424
0.0853875
0.0502188
0.030935
0.0202656
0.0152844
0.0132273
0.0113898
0.00918595
0.00704626
0.0052843
0.00395865
0.00301953
0.00239203
0.00200205
0.00177895
0.00165776
0.00158777
0.00154052
0.0015065
0.00148345
0.00146885
0.0014596
0.00145336
0.00144882
0.00144532
0.00144254
0.00144032
0.00143857
0.00143725
0.00143633
0.00143578
0.00143558
0.00143572
0.00143622
0.00143708
0.00143832
0.00144
0.00144219
0.00144496
0.00144843
0.00145271
0.00145799
0.00146449
0.00147251
0.00148245
0.00149481
0.00151025
0.00152962
0.00155418
0.00158529
0.00162554
0.00167692
0.00174567
0.00183317
0.00195762
0.00211032
0.00234867
0.00257267
0.298397
0.154277
0.0857971
0.0511728
0.0323748
0.021829
0.016525
0.0140021
0.0118217
0.00942325
0.0071927
0.0053903
0.0040423
0.00308417
0.00243687
0.00202782
0.00178966
0.00165931
0.00158507
0.00153594
0.00150066
0.00147675
0.00146193
0.001453
0.00144735
0.00144344
0.00144052
0.00143821
0.00143636
0.00143489
0.00143377
0.00143299
0.00143251
0.00143234
0.00143245
0.00143287
0.0014336
0.00143466
0.00143609
0.00143794
0.00144029
0.00144323
0.00144685
0.00145131
0.00145681
0.00146359
0.00147199
0.00148243
0.0014955
0.00151192
0.00153279
0.00155929
0.00159373
0.00163776
0.00169714
0.0017726
0.00188136
0.00201354
0.00222475
0.00242287
0.298016
0.154272
0.086161
0.0518904
0.0334973
0.0231489
0.0176295
0.0146822
0.0121695
0.00959386
0.00729321
0.00546771
0.00410986
0.00314144
0.00248016
0.00205529
0.00180326
0.00166382
0.00158524
0.00153434
0.00149803
0.00147336
0.00145819
0.00144934
0.00144401
0.00144048
0.0014379
0.00143587
0.00143424
0.00143294
0.00143194
0.00143123
0.00143079
0.00143063
0.00143073
0.00143109
0.00143174
0.00143268
0.00143396
0.00143562
0.00143771
0.00144032
0.00144353
0.00144748
0.00145233
0.00145831
0.0014657
0.00147487
0.00148634
0.00150074
0.00151906
0.00154231
0.0015726
0.00161134
0.0016639
0.00173054
0.00182778
0.00194482
0.00213625
0.00231534
0.297781
0.154368
0.0865011
0.0524282
0.0343317
0.0241972
0.0185507
0.0152384
0.0124229
0.0096965
0.0073489
0.00551738
0.00416127
0.00319052
0.00252072
0.00208333
0.00181885
0.00167049
0.00158738
0.0015347
0.00149748
0.00147209
0.00145649
0.00144754
0.00144232
0.00143898
0.00143658
0.00143471
0.00143319
0.00143198
0.00143103
0.00143036
0.00142994
0.00142977
0.00142986
0.00143019
0.00143079
0.00143167
0.00143286
0.00143439
0.00143634
0.00143875
0.00144172
0.00144536
0.00144982
0.00145529
0.00146204
0.0014704
0.00148082
0.00149387
0.00151045
0.00153146
0.00155886
0.00159383
0.00164151
0.00170174
0.0017906
0.0018965
0.00207351
0.00223854
0.297645
0.154533
0.0868314
0.052837
0.0349204
0.0249707
0.0192576
0.0156479
0.012575
0.00973248
0.00736272
0.00554143
0.00419741
0.00323126
0.00255786
0.00211116
0.00183575
0.00167879
0.00159097
0.00153639
0.00149826
0.00147217
0.00145606
0.00144688
0.00144163
0.00143834
0.00143601
0.0014342
0.00143274
0.00143155
0.00143063
0.00142997
0.00142955
0.00142938
0.00142945
0.00142976
0.00143033
0.00143117
0.00143231
0.00143378
0.00143564
0.00143794
0.00144077
0.00144423
0.00144846
0.00145363
0.00145999
0.00146783
0.00147759
0.00148977
0.0015052
0.00152471
0.00155012
0.00158249
0.00162671
0.00168236
0.00176517
0.00186293
0.00202947
0.00218407
0.297573
0.154743
0.0871593
0.0531587
0.0353129
0.0254884
0.0197391
0.0158987
0.0126243
0.00970596
0.00733924
0.00554301
0.00421988
0.00326409
0.00259129
0.00213823
0.0018535
0.00168834
0.00159567
0.001539
0.00149992
0.00147311
0.00145643
0.00144692
0.00144152
0.00143818
0.00143585
0.00143405
0.00143259
0.0014314
0.00143048
0.00142981
0.00142939
0.00142921
0.00142927
0.00142957
0.00143012
0.00143094
0.00143205
0.00143349
0.0014353
0.00143755
0.0014403
0.00144366
0.00144776
0.00145276
0.00145889
0.00146643
0.00147578
0.00148741
0.00150211
0.00152063
0.00154473
0.00157531
0.00161714
0.00166957
0.00174808
0.00183995
0.00199892
0.00214577
0.297543
0.154978
0.0874877
0.0534265
0.0355591
0.0257856
0.0200043
0.0159917
0.012576
0.00962408
0.0072844
0.00552597
0.00423077
0.00328984
0.00262104
0.00216422
0.00187172
0.00169889
0.00160126
0.00154232
0.00150219
0.0014746
0.0014573
0.00144737
0.00144174
0.00143829
0.0014359
0.00143407
0.00143258
0.00143138
0.00143045
0.00142976
0.00142933
0.00142914
0.00142919
0.00142949
0.00143003
0.00143084
0.00143193
0.00143336
0.00143515
0.00143736
0.00144008
0.00144339
0.00144742
0.00145233
0.00145833
0.0014657
0.00147481
0.00148612
0.00150037
0.00151827
0.00154151
0.00157092
0.00161114
0.00166134
0.00173685
0.00182449
0.00197802
0.00211911
0.29754
0.155225
0.0878165
0.0536647
0.0357049
0.0259076
0.0200794
0.0159415
0.0124421
0.00949678
0.00720522
0.00549465
0.00423249
0.00330959
0.00264735
0.00218894
0.00189017
0.00171025
0.00160761
0.00154619
0.00150489
0.00147647
0.00145848
0.00144807
0.00144215
0.00143854
0.00143606
0.00143416
0.00143264
0.00143141
0.00143046
0.00142976
0.00142931
0.00142912
0.00142916
0.00142945
0.00142999
0.00143079
0.00143188
0.00143329
0.00143507
0.00143728
0.00143998
0.00144326
0.00144726
0.00145213
0.00145807
0.00146534
0.00147433
0.00148545
0.00149944
0.00151697
0.00153968
0.00156833
0.00160749
0.0016562
0.00172966
0.00181432
0.00196395
0.00210076
0.297552
0.155475
0.0881439
0.05389
0.0357896
0.0259028
0.0200028
0.0157737
0.0122404
0.00933615
0.00710933
0.00545359
0.00422757
0.00332461
0.00267066
0.00221237
0.00190865
0.00172225
0.00161462
0.00155053
0.00150793
0.00147861
0.00145987
0.00144892
0.00144266
0.00143885
0.00143625
0.00143429
0.00143271
0.00143145
0.00143047
0.00142976
0.00142931
0.0014291
0.00142914
0.00142942
0.00142996
0.00143076
0.00143184
0.00143326
0.00143504
0.00143724
0.00143993
0.00144321
0.00144719
0.00145204
0.00145796
0.00146519
0.00147411
0.00148514
0.00149898
0.0015163
0.0015387
0.0015669
0.00160539
0.00165312
0.00172521
0.0018078
0.00195465
0.0020883
0.297572
0.155719
0.0884669
0.0541125
0.035844
0.0258173
0.0198189
0.015521
0.0119928
0.00915546
0.00700449
0.00540722
0.0042185
0.00333618
0.00269148
0.00223456
0.00192705
0.00173479
0.00162222
0.00155529
0.00151124
0.00148094
0.00146141
0.00144987
0.00144323
0.0014392
0.00143647
0.00143441
0.00143279
0.00143149
0.00143049
0.00142976
0.0014293
0.00142908
0.00142912
0.0014294
0.00142993
0.00143073
0.00143182
0.00143323
0.00143501
0.00143721
0.0014399
0.00144318
0.00144717
0.00145201
0.00145792
0.00146514
0.00147403
0.00148502
0.0014988
0.001516
0.00153823
0.00156617
0.00160426
0.00165138
0.00172259
0.00180375
0.00194864
0.00207994
0.297596
0.155954
0.0887828
0.0543377
0.0358909
0.0256912
0.0195716
0.0152187
0.0117221
0.00896797
0.00689806
0.00535962
0.00420756
0.00334556
0.00271037
0.00225564
0.00194528
0.00174777
0.00163037
0.00156044
0.0015148
0.00148344
0.00146305
0.00145088
0.00144384
0.00143956
0.00143668
0.00143454
0.00143286
0.00143153
0.0014305
0.00142975
0.00142928
0.00142906
0.00142909
0.00142937
0.0014299
0.0014307
0.00143179
0.0014332
0.00143498
0.00143718
0.00143988
0.00144316
0.00144715
0.001452
0.0014579
0.00146513
0.00147402
0.001485
0.00149875
0.00151591
0.00153805
0.00156586
0.00160373
0.00165049
0.00172115
0.00180136
0.00194485
0.00207441
0.29762
0.156178
0.0890888
0.0545674
0.0359455
0.025556
0.0193
0.0148998
0.01145
0.00878572
0.00679651
0.00531434
0.00419677
0.00335388
0.00272789
0.00227576
0.0019633
0.00176111
0.00163902
0.00156598
0.0015186
0.00148608
0.00146479
0.00145195
0.00144447
0.00143993
0.00143689
0.00143465
0.00143292
0.00143155
0.0014305
0.00142974
0.00142925
0.00142903
0.00142906
0.00142933
0.00142986
0.00143066
0.00143175
0.00143317
0.00143495
0.00143716
0.00143986
0.00144314
0.00144713
0.00145199
0.0014579
0.00146513
0.00147403
0.00148501
0.00149876
0.00151591
0.00153803
0.00156578
0.00160354
0.00165011
0.00172045
0.00180004
0.00194252
0.00207078
0.297644
0.156387
0.089383
0.0548014
0.0360164
0.0254345
0.0190356
0.0145921
0.0111947
0.00861867
0.00670504
0.0052742
0.00418776
0.0033621
0.00274456
0.00229511
0.0019811
0.00177475
0.00164813
0.00157187
0.00152262
0.00148886
0.0014666
0.00145306
0.00144513
0.0014403
0.0014371
0.00143476
0.00143297
0.00143156
0.00143049
0.00142972
0.00142923
0.001429
0.00142902
0.0014293
0.00142983
0.00143063
0.00143172
0.00143313
0.00143492
0.00143713
0.00143983
0.00144312
0.00144712
0.00145197
0.0014579
0.00146514
0.00147404
0.00148504
0.0014988
0.00151596
0.00153809
0.00156582
0.00160355
0.00165003
0.00172019
0.00179938
0.00194114
0.00206842
0.297666
0.156583
0.0896638
0.0550379
0.0361074
0.0253414
0.0188007
0.0143163
0.0109695
0.00847406
0.00662739
0.00524126
0.00418175
0.00337101
0.00276085
0.00231387
0.00199868
0.00178862
0.00165768
0.00157813
0.00152685
0.00149176
0.00146849
0.00145421
0.0014458
0.00144068
0.00143731
0.00143487
0.00143301
0.00143157
0.00143048
0.0014297
0.00142919
0.00142896
0.00142898
0.00142926
0.00142979
0.00143059
0.00143168
0.0014331
0.00143488
0.00143709
0.0014398
0.00144309
0.00144709
0.00145196
0.00145789
0.00146514
0.00147406
0.00148507
0.00149884
0.00151603
0.00153817
0.00156592
0.00160366
0.00165011
0.0017202
0.00179913
0.00194034
0.00206688
0.297685
0.156765
0.0899303
0.0552746
0.036219
0.0252842
0.0186093
0.0140855
0.0107828
0.00835628
0.0065658
0.00521677
0.00417958
0.00338119
0.00277711
0.00233223
0.00201606
0.00180269
0.00166762
0.00158473
0.00153132
0.00149479
0.00147046
0.00145541
0.00144649
0.00144107
0.00143751
0.00143498
0.00143306
0.00143158
0.00143047
0.00142967
0.00142916
0.00142892
0.00142894
0.00142922
0.00142975
0.00143055
0.00143164
0.00143306
0.00143485
0.00143706
0.00143977
0.00144306
0.00144707
0.00145194
0.00145788
0.00146513
0.00147406
0.00148509
0.00149888
0.00151609
0.00153826
0.00156604
0.0016038
0.00165027
0.00172033
0.00179911
0.00193989
0.00206584
0.297701
0.156934
0.0901821
0.0555091
0.036349
0.0252649
0.0184675
0.013906
0.0106385
0.00826707
0.0065211
0.00520128
0.00418169
0.00339302
0.00279365
0.00235033
0.00203326
0.00181692
0.00167793
0.00159168
0.00153601
0.00149796
0.0014725
0.00145664
0.00144719
0.00144146
0.00143772
0.00143508
0.0014331
0.00143159
0.00143045
0.00142964
0.00142913
0.00142889
0.0014289
0.00142918
0.00142971
0.00143051
0.00143161
0.00143302
0.00143481
0.00143703
0.00143974
0.00144303
0.00144704
0.00145192
0.00145786
0.00146512
0.00147407
0.0014851
0.00149892
0.00151615
0.00153834
0.00156616
0.00160396
0.00165045
0.00172053
0.00179921
0.00193963
0.00206512
0.297715
0.157091
0.0904195
0.0557393
0.0364941
0.0252818
0.0183761
0.0137787
0.0105363
0.00820598
0.00649296
0.00519474
0.00418822
0.00340672
0.00281068
0.00236831
0.00205032
0.00183127
0.00168858
0.00159897
0.00154093
0.00150126
0.00147461
0.00145791
0.00144792
0.00144186
0.00143794
0.00143518
0.00143314
0.00143159
0.00143044
0.00142962
0.00142909
0.00142885
0.00142887
0.00142914
0.00142967
0.00143047
0.00143157
0.00143299
0.00143478
0.00143699
0.0014397
0.00144301
0.00144702
0.0014519
0.00145784
0.00146511
0.00147406
0.00148511
0.00149894
0.00151619
0.00153841
0.00156626
0.0016041
0.00165063
0.00172073
0.00179935
0.00193947
0.00206456
0.297726
0.157236
0.0906427
0.0559635
0.0366506
0.0253306
0.0183316
0.0137002
0.0104733
0.00817088
0.0064802
0.0051966
0.00419903
0.00342237
0.00282835
0.00238629
0.00206727
0.00184573
0.00169955
0.0016066
0.00154609
0.0015047
0.0014768
0.00145922
0.00144867
0.00144227
0.00143815
0.00143529
0.00143318
0.0014316
0.00143042
0.00142959
0.00142906
0.00142881
0.00142883
0.0014291
0.00142963
0.00143044
0.00143153
0.00143296
0.00143475
0.00143696
0.00143967
0.00144298
0.00144699
0.00145187
0.00145782
0.0014651
0.00147406
0.00148511
0.00149896
0.00151622
0.00153847
0.00156635
0.00160423
0.0016508
0.00172093
0.0017995
0.00193935
0.00206411
0.297736
0.15737
0.0908526
0.0561803
0.0368145
0.0254061
0.018328
0.0136647
0.0104447
0.00815861
0.00648103
0.00520603
0.00421382
0.00343992
0.00284673
0.00240436
0.00208414
0.00186028
0.00171081
0.00161455
0.00155148
0.00150828
0.00147907
0.00146058
0.00144944
0.00144269
0.00143837
0.0014354
0.00143323
0.00143161
0.00143041
0.00142957
0.00142903
0.00142878
0.0014288
0.00142907
0.0014296
0.00143041
0.0014315
0.00143292
0.00143472
0.00143693
0.00143964
0.00144295
0.00144697
0.00145185
0.0014578
0.00146508
0.00147405
0.00148511
0.00149897
0.00151625
0.00153852
0.00156643
0.00160434
0.00165095
0.0017211
0.00179964
0.00193923
0.0020637
0.297743
0.157496
0.0910499
0.0563889
0.0369826
0.0255023
0.0183583
0.0136652
0.0104447
0.00816547
0.00649338
0.00522199
0.00423216
0.00345927
0.00286585
0.00242257
0.00210096
0.00187491
0.00172235
0.00162283
0.00155713
0.00151201
0.00148142
0.00146197
0.00145023
0.00144313
0.0014386
0.00143551
0.00143327
0.00143161
0.0014304
0.00142954
0.001429
0.00142875
0.00142876
0.00142904
0.00142957
0.00143037
0.00143147
0.00143289
0.00143469
0.0014369
0.00143962
0.00144292
0.00144694
0.00145183
0.00145778
0.00146507
0.00147404
0.00148511
0.00149897
0.00151627
0.00153855
0.00156649
0.00160443
0.00165107
0.00172125
0.00179976
0.00193911
0.00206332
0.297749
0.157613
0.0912355
0.0565889
0.0371518
0.0256139
0.0184152
0.0136943
0.0104677
0.00818767
0.00651508
0.0052434
0.00425355
0.00348025
0.00288572
0.00244098
0.00211778
0.00188961
0.00173413
0.00163143
0.00156303
0.0015159
0.00148386
0.00146341
0.00145104
0.00144357
0.00143883
0.00143562
0.00143332
0.00143162
0.00143039
0.00142952
0.00142898
0.00142872
0.00142873
0.001429
0.00142954
0.00143034
0.00143144
0.00143287
0.00143466
0.00143688
0.00143959
0.0014429
0.00144692
0.00145181
0.00145777
0.00146505
0.00147403
0.00148511
0.00149898
0.00151629
0.00153858
0.00156654
0.00160451
0.00165118
0.00172137
0.00179985
0.00193899
0.00206296
0.297753
0.157722
0.0914104
0.05678
0.0373199
0.0257359
0.018492
0.0137451
0.010508
0.0082216
0.00654409
0.00526919
0.00427749
0.00350266
0.0029063
0.00245963
0.00213461
0.00190438
0.00174616
0.00164035
0.00156918
0.00151995
0.00148639
0.0014649
0.00145188
0.00144402
0.00143907
0.00143574
0.00143337
0.00143164
0.00143038
0.0014295
0.00142895
0.00142869
0.0014287
0.00142898
0.00142951
0.00143032
0.00143142
0.00143284
0.00143464
0.00143685
0.00143957
0.00144288
0.0014469
0.00145179
0.00145775
0.00146504
0.00147402
0.0014851
0.00149898
0.0015163
0.00153861
0.00156658
0.00160457
0.00165126
0.00172147
0.00179992
0.00193885
0.00206261
0.297756
0.157825
0.0915756
0.0569625
0.0374852
0.0258642
0.0185827
0.0138115
0.0105608
0.0082641
0.00657857
0.00529837
0.00430352
0.00352632
0.00292756
0.00247854
0.00215148
0.00191921
0.00175841
0.00164957
0.0015756
0.00152417
0.001489
0.00146644
0.00145274
0.00144449
0.00143931
0.00143586
0.00143342
0.00143165
0.00143037
0.00142948
0.00142893
0.00142867
0.00142868
0.00142895
0.00142949
0.00143029
0.00143139
0.00143282
0.00143461
0.00143683
0.00143955
0.00144286
0.00144688
0.00145177
0.00145773
0.00146502
0.001474
0.00148509
0.00149898
0.0015163
0.00153863
0.00156662
0.00160462
0.00165133
0.00172155
0.00179997
0.00193871
0.00206227
0.297759
0.157922
0.091732
0.0571366
0.0376465
0.0259955
0.0186824
0.0138884
0.0106221
0.00831249
0.00661695
0.00533012
0.00433121
0.00355104
0.00294944
0.00249772
0.00216843
0.00193412
0.00177086
0.00165909
0.00158228
0.00152855
0.00149172
0.00146802
0.00145362
0.00144496
0.00143956
0.00143598
0.00143347
0.00143167
0.00143037
0.00142947
0.00142891
0.00142864
0.00142865
0.00142893
0.00142946
0.00143027
0.00143137
0.0014328
0.00143459
0.00143681
0.00143953
0.00144284
0.00144686
0.00145175
0.00145772
0.00146501
0.00147399
0.00148509
0.00149898
0.00151631
0.00153864
0.00156664
0.00160466
0.00165139
0.00172161
0.00180001
0.00193857
0.00206196
0.29776
0.158014
0.0918805
0.0573027
0.037803
0.0261274
0.0187873
0.0139717
0.0106886
0.00836463
0.00665796
0.0053637
0.00436019
0.00357665
0.00297189
0.0025172
0.00218547
0.00194911
0.00178352
0.00166891
0.00158923
0.00153312
0.00149453
0.00146965
0.00145452
0.00144545
0.00143981
0.00143611
0.00143353
0.00143169
0.00143037
0.00142946
0.00142889
0.00142862
0.00142863
0.00142891
0.00142944
0.00143025
0.00143135
0.00143278
0.00143458
0.0014368
0.00143951
0.00144282
0.00144684
0.00145174
0.0014577
0.001465
0.00147399
0.00148508
0.00149897
0.00151631
0.00153865
0.00156666
0.00160469
0.00165144
0.00172166
0.00180003
0.00193844
0.00206168
0.297762
0.158102
0.0920219
0.0574615
0.0379543
0.0262581
0.0188944
0.0140584
0.0107579
0.00841889
0.0067006
0.00539858
0.00439017
0.00360302
0.00299487
0.00253699
0.00220264
0.00196418
0.00179638
0.00167902
0.00159645
0.00153786
0.00149744
0.00147133
0.00145545
0.00144594
0.00144007
0.00143623
0.00143359
0.00143171
0.00143037
0.00142945
0.00142887
0.0014286
0.00142861
0.00142889
0.00142942
0.00143023
0.00143134
0.00143277
0.00143456
0.00143678
0.0014395
0.00144281
0.00144683
0.00145172
0.00145769
0.00146499
0.00147398
0.00148507
0.00149897
0.00151632
0.00153866
0.00156668
0.00160472
0.00165147
0.0017217
0.00180004
0.00193831
0.00206144
0.297762
0.158185
0.092157
0.0576135
0.0381003
0.0263864
0.0190016
0.0141461