/*--------------------------------*- C++ -*----------------------------------*\
| =========                 |                                                 |
| \\      /  F ield         | OpenFOAM: The Open Source CFD Toolbox           |
|  \\    /   O peration     | Version:  2.4.0                                 |
|   \\  /    A nd           | Web:      www.OpenFOAM.org                      |
|    \\/     M anipulation  |                                                 |
\*---------------------------------------------------------------------------*/
FoamFile
{
    version     2.0;
    format      ascii;
    class       volVectorField;
    location    "0.56";
    object      U;
}
// * * * * * * * * * * * * * * * * * * * * * * * * * * * * * * * * * * * * * //

dimensions      [0 1 -1 0 0 0 0];

internalField   nonuniform List<vector> 
6000
(
(0.165239 -0.00674641 1.13853e-18)
(-0.00924748 0.00174232 0)
(0.00112253 -0.000299995 7.04821e-18)
(-0.0064111 0.00123141 0)
(-0.00428642 0.000842799 0)
(-0.00639223 0.00128413 0)
(-0.0122403 0.00247546 3.79879e-18)
(-0.0233141 0.00431313 2.64759e-22)
(-0.032071 0.00542062 0)
(-0.0342482 0.00533762 0)
(-0.0295575 0.00415299 4.63236e-18)
(-0.0217205 0.00273659 -9.94654e-18)
(-0.0136875 0.00150843 0)
(-0.00695044 0.000590195 0)
(-0.00153379 -7.3475e-05 -2.77059e-18)
(0.0029856 -0.000569465 0)
(0.00696268 -0.000944462 0)
(0.0105244 -0.00121709 -2.86919e-18)
(0.0136444 -0.00139022 -2.88382e-18)
(0.0162629 -0.00147092 0)
(0.0183883 -0.00147579 2.89201e-18)
(0.0201035 -0.00142475 1.44467e-18)
(0.0215159 -0.00133394 -1.44205e-18)
(0.0227136 -0.00121372 0)
(0.0237544 -0.00107043 0)
(0.0246751 -0.000908362 0)
(0.025502 -0.000730749 7.14179e-19)
(0.026256 -0.000540046 -7.12617e-19)
(0.0269549 -0.000338018 0)
(0.0276128 -0.000125856 0)
(0.0282416 9.57035e-05 8.86397e-20)
(0.0288509 0.000326265 0)
(0.0294489 0.000565698 7.07943e-19)
(0.030043 0.000814083 -7.07706e-19)
(0.0306396 0.00107168 0)
(0.0312451 0.00133892 0)
(0.0318656 0.0016164 1.41647e-18)
(0.032507 0.0019049 0)
(0.0331758 0.0022054 1.41856e-18)
(0.0338785 0.00251909 0)
(0.0346224 0.00284744 0)
(0.0354154 0.00319217 2.84312e-18)
(0.0362662 0.00355535 -5.68689e-18)
(0.0371856 0.0039379 0)
(0.0381832 0.00434324 0)
(0.0392758 0.00477558 2.83201e-18)
(0.0404712 0.00523862 0)
(0.041804 0.00573853 0)
(0.0432601 0.00627865 -5.55606e-18)
(0.0449415 0.00687295 -5.48866e-18)
(0.0467189 0.00751534 -5.39238e-18)
(0.0489653 0.00825188 -2.40109e-21)
(0.0510416 0.00901906 5.08729e-18)
(0.0544014 0.0100055 0)
(0.0563482 0.0108687 -3.76717e-21)
(0.0624385 0.0124107 -4.23075e-18)
(0.0623831 0.0131004 3.57045e-18)
(0.0760248 0.0161494 3.22632e-18)
(0.0688174 0.0157292 5.70683e-21)
(0.0998875 0.0223289 0)
(0.36057 -0.016551 -1.61994e-18)
(0.00443531 0.0061665 4.18064e-18)
(0.00652992 -0.00110056 -4.22565e-18)
(-0.0140349 0.0031663 -4.51382e-18)
(-0.0107029 0.00226467 0)
(-0.0181015 0.00403302 0)
(-0.0344023 0.00774133 -4.31396e-18)
(-0.060579 0.0123681 8.4669e-18)
(-0.0783208 0.0142389 0)
(-0.0797796 0.0127806 0)
(-0.0660605 0.00909144 -5.1071e-18)
(-0.0459322 0.00526499 5.46266e-18)
(-0.0256967 0.00217126 2.86251e-18)
(-0.00844273 -6.72943e-05 0)
(0.00574235 -0.00168201 3.01615e-18)
(0.0175843 -0.00286516 0)
(0.0278336 -0.00373507 0)
(0.0367582 -0.00431775 0)
(0.0443333 -0.00462192 0)
(0.0505314 -0.00468272 0)
(0.0554873 -0.00456052 -3.13278e-22)
(0.0594638 -0.00431454 0)
(0.0627325 -0.00398483 -1.53482e-18)
(0.0654977 -0.00359312 0)
(0.0678912 -0.00315152 0)
(0.0699992 -0.00266873 7.59427e-19)
(0.0718857 -0.00215187 -7.5709e-19)
(0.0736024 -0.0016064 1.51872e-23)
(0.075192 -0.00103613 3.76609e-19)
(0.0766891 -0.00044351 0)
(0.078122 0.000170024 -9.38409e-20)
(0.0795139 0.000803777 -3.74998e-19)
(0.0808849 0.00145764 -2.60999e-23)
(0.0822527 0.00213197 7.49687e-19)
(0.0836337 0.00282759 -7.50011e-19)
(0.0850431 0.00354571 0)
(0.086496 0.00428798 0)
(0.0880077 0.00505648 0)
(0.0895939 0.0058538 0)
(0.0912715 0.00668304 0)
(0.0930584 0.00754797 -3.03121e-18)
(0.0949752 0.00845307 0)
(0.0970434 0.00940368 3.04551e-18)
(0.0992903 0.0104046 3.05063e-18)
(0.101742 0.0114641 0)
(0.104439 0.0125923 0)
(0.107406 0.0137988 0)
(0.110722 0.0150999 0)
(0.11437 0.0165043 6.06696e-18)
(0.118573 0.0180482 0)
(0.123082 0.019717 0)
(0.128682 0.0216265 -5.84176e-18)
(0.134081 0.0236231 -5.68358e-18)
(0.142316 0.0261658 0)
(0.147825 0.0284396 -1.03197e-17)
(0.162247 0.0323512 0)
(0.16409 0.0343107 -8.26903e-18)
(0.195244 0.0417987 -3.75554e-18)
(0.182677 0.0414259 1.99824e-18)
(0.252943 0.0566798 2.1698e-18)
(0.50121 -0.0115474 -1.74116e-19)
(0.0435855 0.00848762 -4.14452e-18)
(0.0160846 -0.00168145 0)
(-0.0170061 0.00442565 4.52062e-18)
(-0.0150082 0.00344174 0)
(-0.0284976 0.00706266 0)
(-0.0542893 0.0134104 0)
(-0.0913331 0.0198663 -4.23646e-18)
(-0.113308 0.0209962 0)
(-0.111189 0.016911 -4.70829e-18)
(-0.0883363 0.0104608 0)
(-0.0574916 0.00454701 0)
(-0.0270987 0.00012799 -2.86287e-18)
(-0.00115853 -0.00291037 0)
(0.0203355 -0.00505424 0)
(0.0384176 -0.00660281 0)
(0.0540258 -0.00770191 0)
(0.0674447 -0.00835298 0)
(0.0786481 -0.00856894 0)
(0.0876847 -0.00842519 3.08899e-18)
(0.0948462 -0.0080335 -3.08476e-18)
(0.10057 -0.00748935 0)
(0.105266 -0.00684749 8.33234e-23)
(0.10923 -0.00613198 -1.5278e-18)
(0.112648 -0.00535483 0)
(0.115647 -0.00452591 -1.51738e-18)
(0.118321 -0.00365422 0)
(0.120748 -0.00274675 7.54292e-19)
(0.122993 -0.00180816 -3.76268e-19)
(0.125107 -0.000841222 0)
(0.127131 0.000152541 0)
(0.129102 0.00117253 3.74689e-19)
(0.131048 0.00221887 -3.55316e-23)
(0.132996 0.00329233 0)
(0.134971 0.00439432 1.49893e-18)
(0.136996 0.00552682 0)
(0.139094 0.00669245 1.50237e-18)
(0.141287 0.00789446 0)
(0.143601 0.00913683 0)
(0.146059 0.0104243 0)
(0.148691 0.0117627 3.03054e-18)
(0.151526 0.0131588 0)
(0.1546 0.0146207 0)
(0.157952 0.0161584 -3.05117e-18)
(0.161624 0.0177833 0)
(0.165677 0.0195101 0)
(0.170152 0.0213535 3.05518e-18)
(0.175164 0.0233379 -3.04838e-18)
(0.180706 0.0254779 -3.03435e-18)
(0.18708 0.0278252 0)
(0.193989 0.0303662 0)
(0.202471 0.0332573 0)
(0.210883 0.0363089 5.68796e-18)
(0.223215 0.0401245 5.49221e-18)
(0.232252 0.0436638 5.17579e-18)
(0.253325 0.0494113 0)
(0.258196 0.052736 4.15076e-18)
(0.302485 0.0633443 7.54705e-18)
(0.289062 0.0640413 0)
(0.388718 0.084518 -2.1897e-18)
(0.605509 -2.64595e-05 -1.44822e-19)
(0.100122 0.0101946 4.02128e-18)
(0.0309563 -0.00183443 -4.21398e-18)
(-0.0152976 0.00520224 0)
(-0.0169389 0.00444206 0)
(-0.0368566 0.0102382 0)
(-0.0706627 0.0190827 0)
(-0.114646 0.0264248 0)
(-0.137174 0.0256837 0)
(-0.129908 0.0183921 4.71484e-18)
(-0.0987414 0.0091261 5.09225e-18)
(-0.0591265 0.00147328 0)
(-0.0206693 -0.0038117 0)
(0.012227 -0.00724887 0)
(0.039765 -0.00961091 2.99303e-18)
(0.0631499 -0.0112982 0)
(0.0833273 -0.01243 3.05391e-18)
(0.100527 -0.0129701 -3.0704e-18)
(0.114705 -0.0129381 0)
(0.125993 -0.0124583 -3.08103e-18)
(0.134845 -0.0116981 0)
(0.141868 -0.0107863 -1.53438e-18)
(0.147601 -0.00978524 3.05903e-18)
(0.152417 -0.00871497 1.52425e-18)
(0.156548 -0.00758327 0)
(0.160152 -0.00639892 7.56954e-19)
(0.163351 -0.0051714 0)
(0.166245 -0.00390815 7.52558e-19)
(0.168917 -0.00261372 0)
(0.171433 -0.00129043 0)
(0.173847 6.07738e-05 0)
(0.176202 0.00143991 3.73855e-19)
(0.178537 0.00284775 -1.49486e-18)
(0.180886 0.00428578 0)
(0.18328 0.0057562 -7.47927e-19)
(0.185749 0.00726192 0)
(0.188323 0.00880656 -1.49946e-18)
(0.191029 0.0103946 0)
(0.193899 0.0120312 0)
(0.196966 0.0137228 0)
(0.200265 0.0154769 3.02449e-18)
(0.203837 0.0173023 0)
(0.207724 0.0192095 3.03915e-18)
(0.21198 0.0212113 -3.04543e-18)
(0.216659 0.0233222 0)
(0.221837 0.0255607 -3.0523e-18)
(0.227574 0.027946 -6.10273e-18)
(0.234009 0.0305086 3.04556e-18)
(0.241154 0.0332685 6.06269e-18)
(0.24936 0.0362888 -6.01574e-18)
(0.25833 0.0395589 -5.94295e-18)
(0.269232 0.0432635 0)
(0.280307 0.0471958 -5.68901e-18)
(0.295993 0.0520482 -5.49531e-18)
(0.308387 0.0566625 -5.16502e-18)
(0.334577 0.063847 0)
(0.343207 0.0684252 0)
(0.396751 0.0812608 -3.77559e-18)
(0.385945 0.0833258 0)
(0.506115 0.10672 2.14185e-18)
(0.684709 0.0139748 -1.26222e-19)
(0.166735 0.0120959 -3.18311e-20)
(0.0521711 -0.00146751 4.18869e-18)
(-0.00888597 0.00563967 4.51181e-18)
(-0.0162375 0.00531879 0)
(-0.0425701 0.0134015 -4.49361e-18)
(-0.0826665 0.0244069 0)
(-0.130269 0.0317816 0)
(-0.150859 0.0283901 0)
(-0.138016 0.0176359 4.69488e-18)
(-0.0998989 0.00572865 -5.08414e-18)
(-0.0535227 -0.00328929 0)
(-0.00894988 -0.0090558 0)
(0.0293848 -0.012589 0)
(0.0618606 -0.0149495 -2.97991e-18)
(0.0897037 -0.0166029 0)
(0.113777 -0.0176169 -3.04185e-18)
(0.134201 -0.0179099 3.05874e-18)
(0.150873 -0.0175102 0)
(0.163977 -0.0165971 0)
(0.174112 -0.0153974 1.53302e-18)
(0.182056 -0.014071 1.52942e-18)
(0.188481 -0.0126828 -3.04916e-18)
(0.193837 -0.0112432 -1.51935e-18)
(0.198398 -0.00975245 0)
(0.20235 -0.00821624 7.54596e-19)
(0.205836 -0.00664355 0)
(0.208977 -0.00504138 -7.50351e-19)
(0.211871 -0.0034133 3.74297e-19)
(0.214598 -0.00176047 0)
(0.21722 -8.2658e-05 0)
(0.21979 0.00162121 -7.45589e-19)
(0.222354 0.00335292 7.45339e-19)
(0.224951 0.00511494 0)
(0.227618 0.00691046 -7.45779e-19)
(0.230389 0.0087434 0)
(0.233298 0.0106185 1.49522e-18)
(0.236381 0.0125412 0)
(0.239671 0.0145181 0)
(0.243208 0.0165569 0)
(0.247034 0.0186666 -3.01721e-18)
(0.251195 0.0208576 -3.02426e-18)
(0.255743 0.0231424 -3.03222e-18)
(0.26074 0.0255359 7.78427e-22)
(0.266251 0.0280551 -3.04273e-18)
(0.272365 0.0307218 3.04607e-18)
(0.279157 0.0335587 6.08866e-18)
(0.286785 0.0366011 0)
(0.295281 0.0398732 -3.02542e-18)
(0.305024 0.043447 6.00622e-18)
(0.315747 0.0473154 5.93444e-18)
(0.328667 0.0516821 0)
(0.342055 0.0563347 0)
(0.360465 0.0620166 0)
(0.375937 0.0675211 5.16194e-18)
(0.406017 0.0758081 0)
(0.418677 0.0814953 0)
(0.478516 0.095856 3.74601e-18)
(0.472408 0.099361 -1.96277e-18)
(0.606139 0.124089 -2.14297e-18)
(0.746059 0.0285951 -1.13198e-19)
(0.237894 0.0146986 -3.85165e-18)
(0.0802343 -0.000573769 0)
(0.00230252 0.00590653 -4.50131e-18)
(-0.012673 0.00611294 -4.53243e-18)
(-0.0451661 0.0164132 -2.22045e-21)
(-0.0898104 0.0291407 0)
(-0.138452 0.0358377 0)
(-0.155696 0.0293271 0)
(-0.137678 0.0151026 -4.68888e-18)
(-0.0942285 0.000837737 0)
(-0.0430005 -0.00919419 0)
(0.00596105 -0.0151404 2.82405e-18)
(0.0484154 -0.0185499 0)
(0.0848088 -0.0207509 0)
(0.116325 -0.0222431 0)
(0.143716 -0.0230312 0)
(0.166947 -0.0229798 -3.04349e-18)
(0.185789 -0.0221249 0)
(0.200413 -0.020706 3.05665e-18)
(0.211531 -0.0190144 -1.52701e-18)
(0.220092 -0.0172422 -1.52339e-18)
(0.226916 -0.0154526 3.03776e-18)
(0.232542 -0.0136419 3.02771e-18)
(0.237289 -0.0117987 0)
(0.241366 -0.00992415 -7.52007e-19)
(0.244935 -0.00802576 0)
(0.248133 -0.00610935 0)
(0.251074 -0.00417687 -7.46113e-19)
(0.25385 -0.00222757 0)
(0.256531 -0.000259529 0)
(0.259177 0.00172983 7.43178e-19)
(0.26184 0.00374362 0)
(0.264562 0.00578553 0)
(0.267386 0.00785994 7.43526e-19)
(0.270349 0.0099719 0)
(0.273489 0.0121272 -1.49082e-18)
(0.276843 0.0143326 0)
(0.280452 0.0165958 0)
(0.284357 0.0189256 0)
(0.288605 0.0213322 0)
(0.293248 0.0238276 3.01608e-18)
(0.298344 0.0264259 3.02274e-18)
(0.30396 0.0291436 8.52018e-22)
(0.310171 0.0319997 3.03507e-18)
(0.317077 0.0350184 3.0365e-18)
(0.324762 0.0382251 -3.03645e-18)
(0.333399 0.0416587 0)
(0.343043 0.045347 -3.01564e-18)
(0.354084 0.0493681 2.99326e-18)
(0.366301 0.0537188 -5.91461e-18)
(0.380909 0.0586141 0)
(0.396286 0.0638452 0)
(0.416916 0.0701764 -5.46302e-18)
(0.435133 0.0764025 -5.14007e-18)
(0.468189 0.0855143 4.8186e-18)
(0.484794 0.0921475 4.11265e-18)
(0.548853 0.107502 -3.74448e-18)
(0.548346 0.112365 1.96231e-18)
(0.690636 0.137393 0)
(0.794318 0.0430384 -1.0244e-19)
(0.309713 0.018225 0)
(0.115007 0.000852873 4.11784e-18)
(0.0183926 0.00615217 4.48295e-18)
(-0.00605508 0.00686572 -1.40288e-21)
(-0.0443187 0.0191651 4.47638e-18)
(-0.0919213 0.0331425 0)
(-0.139767 0.0386141 0)
(-0.153131 0.0287659 0)
(-0.130856 0.0112292 2.32694e-18)
(-0.0837375 -0.0050758 2.5098e-18)
(-0.0293771 -0.0158189 0)
(0.0224893 -0.0217192 -2.80781e-18)
(0.0678787 -0.0248483 2.88752e-18)
(0.107211 -0.0267721 0)
(0.141646 -0.0280138 0)
(0.171836 -0.0285052 0)
(0.197556 -0.0280455 7.91312e-22)
(0.218367 -0.0266735 0)
(0.23434 -0.0246934 -6.08517e-18)
(0.246244 -0.0224691 1.52013e-18)
(0.255196 -0.020229 1.51714e-18)
(0.262183 -0.0180332 -1.58732e-22)
(0.267856 -0.0158583 -1.50797e-18)
(0.272586 -0.0136776 0)
(0.276604 -0.0114854 0)
(0.280088 -0.00928679 0)
(0.283191 -0.00708608 3.72517e-19)
(0.286039 -0.00488288 7.43457e-19)
(0.288734 -0.002674 0)
(0.291357 -0.000455227 0)
(0.293971 0.00177789 -7.40632e-19)
(0.296632 0.0040301 -3.70176e-19)
(0.299388 0.00630656 0)
(0.302283 0.00861299 0)
(0.305357 0.0109557 0)
(0.30865 0.0133417 0)
(0.312203 0.0157789 0)
(0.316058 0.018276 0)
(0.32026 0.020843 0)
(0.324859 0.0234913 0)
(0.329908 0.0262341 0)
(0.335472 0.0290867 -8.3816e-22)
(0.341622 0.0320668 3.02075e-18)
(0.348439 0.0351952 0)
(0.35603 0.0384976 -6.05525e-18)
(0.364491 0.0420017 -3.02583e-18)
(0.374001 0.0457489 0)
(0.384635 0.0497696 3.00799e-18)
(0.39679 0.0541456 -2.98597e-18)
(0.41029 0.0588782 5.90095e-18)
(0.426325 0.0641874 -5.79579e-18)
(0.443411 0.0698739 0)
(0.465876 0.076702 6.75321e-21)
(0.486493 0.0834999 5.13158e-18)
(0.521867 0.0932102 -9.61379e-18)
(0.542114 0.100624 -1.02688e-20)
(0.609023 0.116575 -3.7095e-18)
(0.614207 0.122622 1.93427e-18)
(0.761661 0.147308 2.07452e-18)
(0.832683 0.0568721 2.96281e-18)
(0.379605 0.0227001 0)
(0.155784 0.00283438 2.59776e-21)
(0.0394779 0.0065081 -1.833e-22)
(0.00380772 0.00761623 4.51201e-18)
(-0.0398433 0.0215846 4.46848e-18)
(-0.0890755 0.0363509 0)
(-0.134955 0.0402117 4.16972e-18)
(-0.144536 0.0269997 0)
(-0.119175 0.00640637 -2.31798e-18)
(-0.0699437 -0.011633 -4.79332e-21)
(-0.0139221 -0.0228455 -2.65938e-18)
(0.0395844 -0.0285397 0)
(0.0868064 -0.0312707 -5.73595e-18)
(0.128124 -0.0328302 0)
(0.164733 -0.033765 0)
(0.197221 -0.0339218 0)
(0.225159 -0.0330188 3.01092e-18)
(0.247822 -0.0310889 0)
(0.265071 -0.0285042 3.02778e-18)
(0.27766 -0.0257125 -3.02633e-18)
(0.286852 -0.0229872 0)
(0.293826 -0.0203855 -1.89187e-22)
(0.299371 -0.0178594 0)
(0.303925 -0.0153617 0)
(0.307741 -0.0128771 -7.46205e-19)
(0.311012 -0.0104075 0)
(0.313902 -0.00795525 -7.4231e-19)
(0.316551 -0.00551719 -3.70397e-19)
(0.319069 -0.00308709 -9.24302e-20)
(0.321546 -0.000657998 9.23164e-20)
(0.324049 0.00177683 3.69044e-19)
(0.326637 0.00422404 7.3783e-19)
(0.32936 0.00669047 0)
(0.332266 0.0091833 7.3841e-19)
(0.335395 0.0117102 0)
(0.338789 0.0142795 0)
(0.342491 0.0169002 0)
(0.346544 0.0195822 1.48672e-18)
(0.350994 0.0223364 0)
(0.355893 0.0251754 0)
(0.361298 0.0281133 2.99606e-18)
(0.367275 0.0311663 -3.00437e-18)
(0.3739 0.0343533 0)
(0.381258 0.0376962 0)
(0.389459 0.0412224 3.01819e-18)
(0.398608 0.0449605 3.01713e-18)
(0.408891 0.0489536 -3.00968e-18)
(0.420399 0.0532344 0)
(0.433527 0.0578865 0)
(0.448145 0.0629157 0)
(0.465409 0.0685421 4.97372e-21)
(0.483972 0.0745794 0)
(0.507977 0.0817781 5.43538e-18)
(0.530674 0.0890178 0)
(0.567901 0.0991463 4.79414e-18)
(0.591389 0.107181 -4.09097e-18)
(0.660275 0.123444 7.39438e-18)
(0.670765 0.130458 -1.93193e-18)
(0.821169 0.154427 -2.0711e-18)
(0.863377 0.0698361 8.59468e-20)
(0.445931 0.0280227 -3.54277e-18)
(0.201468 0.00539692 -4.01607e-18)
(0.0655421 0.00709201 -1.13657e-22)
(0.0171246 0.00839705 -4.49917e-18)
(-0.0316774 0.023636 -4.45471e-18)
(-0.0815246 0.0387661 0)
(-0.124814 0.0407762 -4.15749e-18)
(-0.13111 0.0243108 0)
(-0.103872 0.000956144 -2.29403e-18)
(-0.0538702 -0.0185519 -2.4758e-18)
(0.00260155 -0.030053 2.64067e-18)
(0.05666 -0.0354219 -2.76124e-18)
(0.104675 -0.037663 2.84816e-18)
(0.14705 -0.0387961 -2.90385e-18)
(0.185084 -0.039394 2.94323e-18)
(0.219357 -0.0392062 0)
(0.249244 -0.0378501 0)
(0.273672 -0.035339 0)
(0.292189 -0.0321149 1.50593e-18)
(0.30544 -0.0287237 1.50612e-18)
(0.314796 -0.0254964 0)
(0.32164 -0.0224907 -1.50002e-18)
(0.326929 -0.0196294 0)
(0.331188 -0.0168384 0)
(0.334699 -0.0140892 7.4342e-19)
(0.337665 -0.0113794 -7.41293e-19)
(0.34026 -0.00870913 3.69808e-19)
(0.342636 -0.00607214 0)
(0.344912 -0.00345872 1.8421e-19)
(0.347183 -0.000858683 -1.83992e-19)
(0.349522 0.00173733 0)
(0.351989 0.00433812 -3.67664e-19)
(0.354637 0.00695233 7.3536e-19)
(0.357513 0.00958877 -7.36009e-19)
(0.36066 0.0122565 0)
(0.36412 0.0149652 0)
(0.367937 0.0177249 0)
(0.372154 0.0205467 -1.48203e-18)
(0.376819 0.0234425 0)
(0.381984 0.0264257 0)
(0.387709 0.0295121 -2.98683e-18)
(0.394061 0.0327166 0)
(0.401118 0.0360611 2.99939e-18)
(0.408967 0.0395677 -3.00412e-18)
(0.417724 0.0432645 0)
(0.427499 0.0471813 3.00528e-18)
(0.43848 0.051362 5.99988e-18)
(0.450771 0.0558408 -2.98605e-18)
(0.464768 0.0607021 0)
(0.480375 0.0659554 0)
(0.498716 0.0718184 2.88337e-18)
(0.518567 0.0781186 0)
(0.543893 0.0855847 5.40936e-18)
(0.568387 0.0931556 0)
(0.607138 0.10356 4.76588e-18)
(0.633447 0.112074 4.06399e-18)
(0.703767 0.12844 -3.68422e-18)
(0.718961 0.136201 0)
(0.870911 0.159258 2.03297e-18)
(0.888019 0.0817981 -3.22487e-18)
(0.507722 0.0340254 1.91041e-20)
(0.250762 0.00855374 3.96419e-18)
(0.0964307 0.00800008 -1.11727e-22)
(0.0340859 0.00924609 -1.71768e-21)
(-0.0198527 0.0253163 0)
(-0.0696301 0.0404327 0)
(-0.110111 0.0404718 0)
(-0.113829 0.0209477 -2.13947e-18)
(-0.085799 -0.00487864 4.55758e-18)
(-0.0360999 -0.0256415 0)
(0.0198367 -0.0372939 2.61693e-18)
(0.0734884 -0.042243 2.20508e-21)
(0.121336 -0.0439203 -2.82603e-18)
(0.163882 -0.0445847 1.68326e-21)
(0.202592 -0.0448374 -2.92522e-18)
(0.238106 -0.0443177 0)
(0.269636 -0.0425197 0)
(0.295732 -0.039419 0)
(0.315534 -0.0355277 -1.49854e-18)
(0.329474 -0.0315051 0)
(0.338979 -0.0277568 1.4969e-18)
(0.345633 -0.0243475 1.49352e-18)
(0.350584 -0.021167 -1.48944e-18)
(0.354468 -0.0181074 0)
(0.357605 -0.0151222 0)
(0.360209 -0.0122029 7.38688e-19)
(0.36246 -0.00934714 0)
(0.364518 -0.0065456 3.67684e-19)
(0.366513 -0.00378467 -9.17918e-20)
(0.368544 -0.00105056 9.16868e-20)
(0.370688 0.00166907 -3.66426e-19)
(0.373006 0.00438533 0)
(0.375552 0.0071088 -7.33015e-19)
(0.378374 0.00984994 0)
(0.381515 0.0126193 0)
(0.385019 0.0154278 1.47064e-18)
(0.388927 0.0182866 0)
(0.393284 0.0212078 0)
(0.398139 0.0242044 0)
(0.403544 0.0272906 0)
(0.40956 0.0304825 0)
(0.416255 0.0337964 0)
(0.423709 0.0372546 -5.97844e-18)
(0.432011 0.0408799 2.99448e-18)
(0.441279 0.0447009 2.99557e-18)
(0.451627 0.048748 -5.99005e-18)
(0.463246 0.0530657 -2.98975e-18)
(0.47625 0.0576893 2.97681e-18)
(0.491033 0.0627028 -2.95306e-18)
(0.507527 0.0681191 0)
(0.526828 0.0741513 2.53446e-21)
(0.547815 0.0806409 -5.58158e-18)
(0.574293 0.0882901 -5.39564e-18)
(0.600347 0.0960995 -5.07002e-18)
(0.640388 0.106668 -9.50305e-18)
(0.669123 0.115536 -4.05665e-18)
(0.740542 0.131855 3.64826e-18)
(0.759778 0.140164 1.8907e-18)
(0.912405 0.16222 -2.02947e-18)
(0.907825 0.092717 -7.50308e-20)
(0.564472 0.0405168 3.40886e-18)
(0.302326 0.0122935 2.59869e-21)
(0.131818 0.00930569 -1.60088e-22)
(0.054848 0.0102068 4.45333e-18)
(-0.00446108 0.0266507 4.42365e-18)
(-0.0538046 0.0414242 -4.21214e-18)
(-0.0915387 0.0394599 2.05208e-18)
(-0.0934195 0.0171103 6.85305e-21)
(-0.065463 -0.0109313 -2.26457e-18)
(-0.0168923 -0.0327751 -2.43185e-18)
(0.0376914 -0.0444731 -2.59932e-18)
(0.0900951 -0.0489209 5.44155e-18)
(0.136912 -0.0499749 1.84724e-21)
(0.178803 -0.0501437 2.86652e-18)
(0.217454 -0.0500592 0)
(0.253633 -0.0492382 2.93401e-18)
(0.286447 -0.0470273 0)
(0.314068 -0.0433427 -2.97243e-18)
(0.335161 -0.0387629 -1.49074e-18)
(0.349848 -0.0340764 -1.49194e-18)
(0.359531 -0.0297841 -2.71498e-22)
(0.36598 -0.025968 -1.48782e-18)
(0.370553 -0.0224825 1.48402e-18)
(0.374016 -0.0191782 0)
(0.376742 -0.0159845 -7.37858e-19)
(0.378954 -0.012885 0)
(0.380838 -0.00987418 0)
(0.382561 -0.00693975 -3.66524e-19)
(0.384258 -0.00406398 0)
(0.386034 -0.00122909 0)
(0.38797 0.00158045 3.65311e-19)
(0.390127 0.00437825 0)
(0.392559 0.00717687 0)
(0.395314 0.00998843 7.31004e-19)
(0.398437 0.012825 0)
(0.401968 0.0156985 -1.46622e-18)
(0.40595 0.0186215 0)
(0.41043 0.0216069 1.47177e-18)
(0.415454 0.0246685 0)
(0.421076 0.0278216 0)
(0.427357 0.0310816 0)
(0.434366 0.0344679 0)
(0.442184 0.0380015 2.97903e-18)
(0.450903 0.0417061 0)
(0.46064 0.0456106 -5.97025e-18)
(0.471515 0.049746 2.9845e-18)
(0.483718 0.0541567 -2.97682e-18)
(0.497373 0.058879 2.96363e-18)
(0.51287 0.0639958 2.94356e-18)
(0.530167 0.069523 0)
(0.550331 0.0756677 2.85885e-18)
(0.572328 0.082285 8.34478e-18)
(0.599828 0.0900481 -5.3669e-18)
(0.627242 0.0980187 5.05696e-18)
(0.6684 0.108662 4.736e-18)
(0.699216 0.11778 0)
(0.771524 0.133942 -3.64158e-18)
(0.794172 0.142628 -3.76402e-18)
(0.946951 0.163658 0)
(0.923737 0.102608 3.46303e-18)
(0.615995 0.0473085 0)
(0.354891 0.0165765 2.56172e-21)
(0.171205 0.0110595 -2.43203e-22)
(0.0795022 0.0113203 -4.4262e-18)
(0.0143883 0.0276915 -8.80668e-18)
(-0.0344641 0.0418306 8.39122e-18)
(-0.0696678 0.037885 -2.04539e-18)
(-0.0703728 0.012947 2.12551e-18)
(-0.0431243 -0.0170919 0)
(0.00366996 -0.0398674 4.78131e-21)
(0.0562285 -0.0515242 0)
(0.106655 -0.0554001 -5.40438e-18)
(0.151686 -0.0557836 2.79048e-18)
(0.192176 -0.0554419 0)
(0.230068 -0.0550405 0)
(0.266319 -0.0539626 -2.91784e-18)
(0.300002 -0.0513829 0)
(0.328946 -0.0471332 2.95759e-18)
(0.3513 -0.0418509 1.48394e-18)
(0.366786 -0.0364683 3.14313e-22)
(0.376706 -0.0316049 -1.48493e-18)
(0.382971 -0.0273736 -1.48203e-18)
(0.38716 -0.0235936 0)
(0.390187 -0.0200662 0)
(0.392489 -0.01669 7.35577e-19)
(0.394304 -0.0134372 0)
(0.39582 -0.0102989 3.66017e-19)
(0.397207 -0.00725983 -3.65331e-19)
(0.398608 -0.00429809 9.11956e-20)
(0.400132 -0.00139167 -9.10964e-20)
(0.40186 0.00147843 3.64149e-19)
(0.403855 0.0043284 -3.64075e-19)
(0.406172 0.0071728 7.28327e-19)
(0.408857 0.0100254 -7.28995e-19)
(0.411953 0.0128996 0)
(0.415503 0.0158087 0)
(0.419548 0.018766 0)
(0.424134 0.0217854 -4.07993e-22)
(0.429308 0.0248816 1.47063e-18)
(0.435125 0.0280702 0)
(0.441645 0.0313674 0)
(0.448938 0.0347933 0)
(0.457088 0.038369 0)
(0.466185 0.0421186 0)
(0.476351 0.0460714 1.31941e-21)
(0.487706 0.0502584 0)
(0.500442 0.0547242 5.93217e-18)
(0.51469 0.0595052 -5.90557e-18)
(0.530836 0.0646832 -2.92971e-18)
(0.548858 0.0702765 0)
(0.569801 0.0764857 0)
(0.592702 0.0831785 -5.53858e-18)
(0.621114 0.0909981 6.74939e-21)
(0.649722 0.0990653 -5.02702e-18)
(0.691865 0.109712 4.70437e-18)
(0.724466 0.118993 4.0094e-18)
(0.797529 0.134916 -3.60498e-18)
(0.82303 0.14384 3.73512e-18)
(0.975653 0.163853 1.97852e-18)
(0.936502 0.111519 6.76006e-20)
(0.662319 0.0542288 -3.27558e-18)
(0.407326 0.0213371 -7.60031e-18)
(0.213945 0.0132892 -3.48021e-22)
(0.108044 0.0126297 4.39251e-18)
(0.0365998 0.0285057 4.37885e-18)
(-0.0119927 0.0417464 -2.08971e-18)
(-0.0449432 0.0358653 0)
(-0.0449998 0.00856062 0)
(-0.0189043 -0.0232829 2.22881e-18)
(0.0255893 -0.0468574 2.40171e-18)
(0.0755687 -0.0583962 0)
(0.123403 -0.0616408 2.68628e-18)
(0.16601 -0.0613175 0)
(0.204447 -0.0604597 0)
(0.240932 -0.0597702 0)
(0.276668 -0.0584901 0)
(0.310765 -0.0555983 2.92342e-18)
(0.340763 -0.0508152 1.47086e-18)
(0.364295 -0.0448251 -1.47684e-18)
(0.380616 -0.0387164 3.32797e-22)
(0.390836 -0.0332513 0)
(0.396966 -0.0285914 1.47731e-18)
(0.400789 -0.0245229 0)
(0.403386 -0.0207908 0)
(0.405272 -0.0172554 7.33272e-19)
(0.406702 -0.0138734 -7.31553e-19)
(0.407864 -0.010632 -3.65076e-19)
(0.408931 -0.00751295 3.64413e-19)
(0.410051 -0.00449016 -1.81922e-19)
(0.411336 -0.00153721 1.81729e-19)
(0.412867 0.0013685 -3.63268e-19)
(0.414709 0.00424582 3.63198e-19)
(0.416915 0.00711133 -1.69497e-22)
(0.419531 0.00998038 -7.26887e-19)
(0.4226 0.0128677 0)
(0.426163 0.0157875 0)
(0.430261 0.0187543 0)
(0.43494 0.0217825 -2.92653e-18)
(0.440247 0.0248876 -1.46683e-18)
(0.446237 0.0280854 0)
(0.452971 0.0313934 0)
(0.460519 0.0348314 -2.95225e-18)
(0.468966 0.0384209 0)
(0.478404 0.0421863 0)
(0.488955 0.046157 5.92696e-18)
(0.500742 0.0503642 -2.96079e-18)
(0.51396 0.054852 -5.90946e-18)
(0.528742 0.0596573 1.75611e-21)
(0.545474 0.0648602 5.83738e-18)
(0.564149 0.070481 2.88211e-18)
(0.585794 0.0767136 0)
(0.609502 0.0834372 2.75829e-18)
(0.638732 0.0912654 5.32532e-18)
(0.668392 0.0993747 5.0105e-18)
(0.711412 0.109968 -4.6898e-18)
(0.745549 0.119337 -3.9984e-18)
(0.819274 0.134963 3.59577e-18)
(0.847153 0.144012 -1.85792e-18)
(0.999448 0.163039 -1.97406e-18)
(0.946718 0.119514 6.47285e-20)
(0.703615 0.0611309 3.23825e-18)
(0.45867 0.0264899 -2.5334e-21)
(0.25928 0.0159988 -4.61664e-22)
(0.140348 0.0141755 0)
(0.062099 0.0291609 0)
(0.0132802 0.0412757 -1.35446e-21)
(-0.0176952 0.0334913 0)
(-0.0175021 0.00402066 0)
(0.00712065 -0.0294371 -6.18683e-21)
(0.0488926 -0.0536991 0)
(0.0958325 -0.0650482 0)
(0.14057 -0.0676115 2.66877e-18)
(0.180227 -0.0665545 0)
(0.216058 -0.0651823 0)
(0.250563 -0.0642395 0)
(0.285223 -0.0628192 0)
(0.319257 -0.0596825 -1.39472e-21)
(0.34999 -0.0544099 -1.46445e-18)
(0.374562 -0.0477167 2.9416e-18)
(0.391715 -0.0408562 3.45967e-22)
(0.402295 -0.0347572 1.47431e-18)
(0.408348 -0.0296506 0)
(0.411843 -0.0252947 1.46964e-18)
(0.414036 -0.0213727 0)
(0.415526 -0.0176984 -7.31541e-19)
(0.416593 -0.0142087 1.52122e-22)
(0.417427 -0.0108852 0)
(0.4182 -0.00770714 0)
(0.419062 -0.0046443 1.96488e-23)
(0.420127 -0.0016658 -1.9975e-23)
(0.421479 0.00125472 1.81183e-19)
(0.423182 0.00413886 0)
(0.425287 0.00700514 -7.24928e-19)
(0.42784 0.00987043 7.25401e-19)
(0.430882 0.0127506 0)
(0.434455 0.0156611 -1.45401e-18)
(0.438599 0.0186169 0)
(0.443359 0.0216333 4.13718e-22)
(0.448783 0.0247261 0)
(0.454925 0.0279118 1.46589e-18)
(0.461848 0.0312083 1.46895e-18)
(0.469622 0.0346354 1.0422e-21)
(0.478332 0.038215 -2.94861e-18)
(0.488072 0.0419716 0)
(0.498966 0.0459345 -1.30898e-21)
(0.511139 0.0501351 2.9519e-18)
(0.524786 0.0546168 1.5709e-21)
(0.540045 0.0594168 2.93066e-18)
(0.557301 0.0646133 -1.93876e-21)
(0.57656 0.0702285 -2.17021e-21)
(0.598832 0.0764492 0)
(0.623259 0.0831655 0)
(0.653221 0.0909617 0)
(0.683808 0.0990668 0)
(0.727612 0.109559 0)
(0.763074 0.118956 3.96682e-18)
(0.837391 0.134239 0)
(0.867251 0.143325 0)
(1.01913 0.161405 -1.9442e-18)
(0.954875 0.126668 -1.8705e-18)
(0.740151 0.067895 0)
(0.508147 0.0319376 -2.5844e-21)
(0.306395 0.0191699 -5.69888e-22)
(0.176158 0.0159918 0)
(0.0908131 0.0297274 2.16046e-18)
(0.0410998 0.040504 -2.06428e-18)
(0.0118336 0.0308402 0)
(0.0119753 -0.00060888 0)
(0.0348712 -0.035505 -2.20415e-18)
(0.0736003 -0.0603538 0)
(0.117107 -0.0714433 0)
(0.15834 -0.0732846 -2.65676e-18)
(0.194631 -0.0714756 0)
(0.227406 -0.069596 -2.80266e-18)
(0.259435 -0.0684386 0)
(0.292505 -0.0669447 0)
(0.326004 -0.0636385 -1.45406e-21)
(0.357119 -0.0579316 0)
(0.382542 -0.0505513 -1.46528e-18)
(0.400485 -0.0429195 1.46929e-18)
(0.411466 -0.036155 -2.94021e-18)
(0.417501 -0.03058 1.46866e-18)
(0.420718 -0.0259337 -1.46635e-18)
(0.42254 -0.0218326 0)
(0.423664 -0.0180366 -7.29789e-19)
(0.424399 -0.0144575 1.45657e-18)
(0.424935 -0.0110701 0)
(0.425444 -0.00785056 -1.81383e-19)
(0.426076 -0.00476514 9.05864e-20)
(0.426946 -0.00177837 -9.04956e-20)
(0.428139 0.00113996 -1.80882e-19)
(0.429719 0.00401419 0)
(0.431736 0.00686479 -7.23389e-19)
(0.434233 0.00971003 7.23844e-19)
(0.437253 0.0125669 0)
(0.440834 0.0154517 1.45152e-18)
(0.445018 0.0183801 0)
(0.449849 0.021368 1.45683e-18)
(0.455375 0.0244316 0)
(0.46165 0.0275876 -1.46299e-18)
(0.468737 0.0308544 -1.46592e-18)
(0.476709 0.0342518 1.03111e-21)
(0.485649 0.0378019 2.94188e-18)
(0.495655 0.0415292 0)
(0.50685 0.0454629 -2.94548e-18)
(0.519362 0.0496342 0)
(0.533388 0.0540861 2.93478e-18)
(0.549068 0.0588555 0)
(0.566788 0.0640191 -2.89677e-18)
(0.586564 0.0696003 -5.71868e-18)
(0.609394 0.075779 0)
(0.634458 0.0824552 0)
(0.665071 0.0901851 0)
(0.696473 0.0982464 2.4759e-18)
(0.740977 0.1086 0)
(0.777585 0.117971 -9.1742e-21)
(0.852435 0.132879 0)
(0.883945 0.14193 1.81726e-18)
(1.03536 0.159109 1.93798e-18)
(0.961374 0.133058 0)
(0.772252 0.0744279 3.15911e-18)
(0.555155 0.0375781 3.66104e-18)
(0.354462 0.0227633 -6.57048e-22)
(0.215084 0.0181026 0)
(0.122646 0.0302789 -2.14526e-18)
(0.0713167 0.039497 0)
(0.043413 0.027987 1.99731e-18)
(0.0432931 -0.00525765 2.08202e-18)
(0.0642678 -0.0414627 2.18307e-18)
(0.0996893 -0.0667781 2.34793e-18)
(0.139427 -0.0775455 2.51252e-18)
(0.176831 -0.0786334 0)
(0.209436 -0.0760623 0)
(0.238806 -0.0736871 2.79275e-18)
(0.267954 -0.0723554 0)
(0.29898 -0.0708572 0)
(0.331492 -0.0674629 -2.88392e-18)
(0.36262 -0.0613873 0)
(0.388667 -0.0533469 -1.45958e-18)
(0.407321 -0.0449327 0)
(0.41872 -0.0374735 1.4664e-18)
(0.424791 -0.0314066 -1.46558e-18)
(0.427781 -0.0264627 0)
(0.429273 -0.0221899 0)
(0.430065 -0.0182863 1.51384e-22)
(0.430501 -0.0146336 -7.27093e-19)
(0.430774 -0.0111973 0)
(0.431051 -0.00795104 1.81129e-19)
(0.431481 -0.00485732 9.04241e-20)
(0.432182 -0.00187631 -9.03356e-20)
(0.433238 0.0010261 0)
(0.434712 0.00387702 0)
(0.436653 0.00669879 1.69859e-22)
(0.439103 0.00951103 -1.74635e-22)
(0.442104 0.0123317 0)
(0.445693 0.0151779 0)
(0.449913 0.0180659 1.4512e-18)
(0.454805 0.021012 0)
(0.460419 0.0240327 0)
(0.466809 0.027145 0)
(0.474039 0.0303674 0)
(0.482181 0.0337199 2.93108e-18)
(0.491321 0.0372245 2.93416e-18)
(0.501558 0.0409057 0)
(0.513015 0.0447924 0)
(0.525823 0.0489156 2.933e-18)
(0.540179 0.0533178 0)
(0.556229 0.0580356 0)
(0.574356 0.0631438 -2.88475e-18)
(0.594586 0.0686668 2.84954e-18)
(0.617907 0.0747782 0)
(0.643532 0.0813863 0)
(0.674721 0.0890209 0)
(0.706839 0.0970044 -2.46638e-18)
(0.751965 0.107187 2.30065e-18)
(0.789564 0.116489 -7.8474e-18)
(0.864893 0.130996 0)
(0.897782 0.139956 -1.8102e-18)
(1.04873 0.156281 -1.90891e-18)
(0.966545 0.138762 0)
(0.80028 0.080661 -3.1363e-18)
(0.599258 0.0433112 0)
(0.402677 0.0267227 -6.08811e-18)
(0.256622 0.0205189 0)
(0.157452 0.0308817 -2.12849e-18)
(0.10383 0.0383332 0)
(0.076856 0.0249915 -1.98954e-18)
(0.0763188 -0.00989764 -2.07473e-18)
(0.0952094 -0.047263 -2.17401e-18)
(0.127091 -0.0729305 -2.33765e-18)
(0.162775 -0.0833192 -2.50201e-18)
(0.196092 -0.0836321 0)
(0.224781 -0.0802968 0)
(0.250491 -0.0774414 0)
(0.276439 -0.0759765 0)