/*--------------------------------*- C++ -*----------------------------------*\
| =========                 |                                                 |
| \\      /  F ield         | OpenFOAM: The Open Source CFD Toolbox           |
|  \\    /   O peration     | Version:  2.4.0                                 |
|   \\  /    A nd           | Web:      www.OpenFOAM.org                      |
|    \\/     M anipulation  |                                                 |
\*---------------------------------------------------------------------------*/
FoamFile
{
    version     2.0;
    format      ascii;
    class       volScalarField;
    location    "1.86";
    object      pMean;
}
// * * * * * * * * * * * * * * * * * * * * * * * * * * * * * * * * * * * * * //

dimensions      [0 2 -2 0 0 0 0];

internalField   nonuniform List<scalar> 
2320
(
2.4003
2.39819
2.39264
2.39359
2.38806
2.38885
2.38109
2.38237
2.37489
2.3771
2.36586
2.36958
2.3558
2.36226
2.34195
2.34987
2.32139
2.33075
2.28912
2.29861
2.39762
2.39439
2.38839
2.38923
2.38367
2.38448
2.3764
2.37722
2.3693
2.37113
2.35952
2.36269
2.34846
2.35402
2.33347
2.34007
2.31126
2.3182
2.27562
2.28204
2.39679
2.39398
2.38891
2.38975
2.38445
2.38437
2.37786
2.37889
2.37064
2.37214
2.36184
2.36464
2.35125
2.35659
2.33774
2.34461
2.31809
2.32592
2.28759
2.29247
2.3964
2.39466
2.38956
2.38965
2.3843
2.38422
2.37769
2.37765
2.36934
2.37064
2.36109
2.36309
2.35048
2.35429
2.33697
2.34165
2.31721
2.32328
2.28684
2.29063
2.39664
2.39473
2.39029
2.38952
2.38532
2.38471
2.37885
2.37791
2.37137
2.37097
2.36284
2.36298
2.35336
2.35397
2.34037
2.34276
2.3233
2.32573
2.29674
2.29628
2.39596
2.39325
2.38856
2.38744
2.38385
2.38268
2.37664
2.37513
2.36891
2.36799
2.36065
2.35989
2.35081
2.3503
2.33849
2.33794
2.32156
2.32059
2.29647
2.29293
2.39623
2.39214
2.38845
2.38674
2.38438
2.38166
2.37714
2.37406
2.36952
2.36652
2.36159
2.3584
2.35267
2.34909
2.3416
2.33711
2.32629
2.32082
2.3031
2.29648
2.39622
2.39228
2.38931
2.38742
2.38488
2.38212
2.37799
2.37415
2.37045
2.36648
2.36244
2.35767
2.35412
2.34827
2.34418
2.33621
2.33115
2.32045
2.31142
2.29775
2.39754
2.39225
2.39096
2.38814
2.38646
2.38202
2.37913
2.37339
2.37194
2.36607
2.36487
2.35789
2.35764
2.34866
2.34891
2.33636
2.33822
2.32156
2.32115
2.30032
2.39813
2.39333
2.39224
2.38948
2.38741
2.38339
2.3802
2.37507
2.37312
2.36797
2.36665
2.36043
2.36019
2.3524
2.35352
2.34225
2.34642
2.32988
2.33701
2.30992
2.39984
2.3932
2.39332
2.38946
2.38836
2.38256
2.38096
2.37344
2.37388
2.36616
2.3684
2.35944
2.3637
2.35187
2.35928
2.34163
2.3561
2.33066
2.35111
2.31756
2.40012
2.39471
2.39441
2.39187
2.38926
2.38428
2.38171
2.37558
2.3737
2.36798
2.36823
2.36257
2.36445
2.35746
2.36168
2.35159
2.36148
2.34733
2.36213
2.3359
2.40179
2.39534
2.39614
2.39233
2.39061
2.38474
2.38275
2.37501
2.37462
2.36648
2.36943
2.36114
2.36649
2.35515
2.36424
2.34641
2.3688
2.33894
2.38342
2.33141
2.40213
2.39699
2.39649
2.39374
2.39082
2.38604
2.38141
2.37577
2.37252
2.36727
2.36691
2.36408
2.36524
2.36166
2.36217
2.3574
2.36623
2.35832
2.38675
2.37395
2.40362
2.39745
2.39837
2.39472
2.39272
2.38596
2.38143
2.37373
2.37186
2.36376
2.3663
2.36046
2.36536
2.35791
2.3628
2.35226
2.36813
2.34518
2.39412
2.34488
2.4039
2.39931
2.39972
2.39744
2.39363
2.38719
2.37967
2.37386
2.3683
2.36343
2.36484
2.36394
2.36552
2.36584
2.35974
2.36293
2.35597
2.36131
2.38201
2.39069
2.40568
2.39991
2.40206
2.3988
2.39601
2.38705
2.37904
2.37149
2.36617
2.35885
2.36433
2.36164
2.36719
2.36492
2.36321
2.36486
2.36355
2.35715
2.36489
2.34551
2.40636
2.40162
2.40432
2.40165
2.39868
2.38905
2.37936
2.37124
2.36553
2.35907
2.36695
2.36306
2.3717
2.37074
2.36441
2.36664
2.35777
2.3857
2.3757
2.38151
2.40765
2.40293
2.40693
2.40409
2.40082
2.39097
2.37987
2.37328
2.36486
2.35916
2.36686
2.36382
2.37287
2.37544
2.36273
2.37033
2.34997
2.37141
2.33468
2.40911
2.40846
2.40458
2.40955
2.40838
2.40532
2.39656
2.38785
2.38108
2.37425
2.36892
2.37594
2.37322
2.3846
2.38364
2.37844
2.37982
2.36984
2.41226
2.38426
2.50897
2.23779
2.23404
2.16007
2.12188
2.03826
1.95311
1.83417
1.71335
2.22108
2.21683
2.14319
2.10516
2.01928
1.92747
1.80867
1.68148
2.23527
2.22926
2.15557
2.11957
2.03406
1.94712
1.83156
1.70293
2.23646
2.22951
2.15608
2.12117
2.03436
1.94604
1.83208
1.69926
2.24886
2.23848
2.16577
2.13088
2.04188
1.95591
1.8459
1.70715
2.25365
2.24075
2.17169
2.13777
2.04418
1.96332
1.8474
1.70668
2.26261
2.24908
2.18179
2.1478
2.04744
1.97111
1.84956
1.70816
2.27462
2.25375
2.19289
2.1607
2.05115
1.97682
1.84797
1.70358
2.28535
2.2566
2.20132
2.17303
2.06056
1.98301
1.84121
1.69788
2.30828
2.26135
2.20598
2.16126
2.06001
1.9839
1.83166
1.69122
2.32733
2.27325
2.2334
2.14505
2.05248
1.98202
1.82147
1.68773
2.35293
2.28294
2.26715
2.13401
2.04367
1.97332
1.81006
1.6888
2.37158
2.26881
2.2858
2.12422
2.03636
1.95717
1.79829
1.69656
2.41307
2.25832
2.29103
2.11938
2.03711
1.93933
1.78802
1.70658
2.46441
2.25092
2.28549
2.11644
2.04298
1.92581
1.78371
1.7095
2.5226
2.26312
2.27378
2.1148
2.04977
1.91802
1.78879
1.69854
2.54579
2.27776
2.25631
2.1099
2.05369
1.91171
1.80384
1.67203
2.53736
2.29107
2.23707
2.10342
2.0541
1.90775
1.82751
1.63452
2.45818
2.27694
2.21381
2.09388
2.05041
1.90906
1.8519
1.59845
2.38745
2.25031
2.19516
2.08938
2.04936
1.92172
1.8914
1.59687
1.54006
1.36183
1.12555
0.882154
0.573672
0.243557
-0.149571
-0.554089
-1.00466
-1.45152
-1.91522
-2.33966
-2.74293
-3.07202
-3.3444
-3.51797
-3.61051
-3.59461
-3.494
-3.29541
-3.03118
-2.69509
-2.32686
-1.91633
-1.51373
-1.09504
-0.736511
-0.363888
1.51178
1.32862
1.09575
0.849951
0.545137
0.21418
-0.174001
-0.582035
-1.03165
-1.48204
-1.94487
-2.37362
-2.7764
-3.10911
-3.38042
-3.55583
-3.64626
-3.63154
-3.52704
-3.32925
-3.05965
-2.72504
-2.35027
-1.94251
-1.53296
-1.11785
-0.752146
-0.411709
1.53861
1.35146
1.11844
0.860942
0.551344
0.211138
-0.181369
-0.600743
-1.05587
-1.51744
-1.98429
-2.42287
-2.82943
-3.16786
-3.44175
-3.61921
-3.71045
-3.69335
-3.58759
-3.38366
-3.111
-2.7687
-2.3879
-1.97327
-1.55363
-1.13773
-0.757556
-0.424658
1.53599
1.34449
1.11626
0.851847
0.541796
0.193047
-0.205034
-0.636789
-1.10068
-1.57724
-2.05208
-2.50425
-2.9154
-3.26461
-3.53941
-3.72217
-3.81091
-3.79431
-3.68288
-3.47487
-3.194
-2.8455
-2.45517
-2.03182
-1.60244
-1.17992
-0.784216
-0.436888
1.545
1.34865
1.1209
0.84658
0.534135
0.172161
-0.233852
-0.682068
-1.15927
-1.65252
-2.14096
-2.60762
-3.02874
-3.38823
-3.66679
-3.85484
-3.94277
-3.92583
-3.80739
-3.59354
-3.30145
-2.94304
-2.53844
-2.10244
-1.65741
-1.2196
-0.808229
-0.439663
1.54347
1.34331
1.11236
0.831089
0.513104
0.138386
-0.279708
-0.746476
-1.24095
-1.7547
-2.26065
-2.74395
-3.17776
-3.54853
-3.83331
-4.02572
-4.11186
-4.09211
-3.96686
-3.74539
-3.4416
-3.07011
-2.64989
-2.19782
-1.73499
-1.28042
-0.849661
-0.459326
1.54174
1.3385
1.10116
0.81481
0.487568
0.100297
-0.334536
-0.820327
-1.33652
-1.87102
-2.39661
-2.89581
-3.34498
-3.72603
-4.01813
-4.21469
-4.30011
-4.27782
-4.14534
-3.91595
-3.59934
-3.21373
-2.77544
-2.30512
-1.82188
-1.34615
-0.893921
-0.479109
1.53441
1.32761
1.08519
0.794526
0.457911
0.0567623
-0.395711
-0.902691
-1.44081
-1.99784
-2.54253
-3.05994
-3.52466
-3.91637
-4.21614
-4.41435
-4.49875
-4.4712
-4.33268
-4.0938
-3.76499
-3.36415
-2.90956
-2.42027
-1.91707
-1.42028
-0.945667
-0.507855
1.52489
1.31723
1.07098
0.776938
0.429284
0.0143381
-0.457235
-0.985138
-1.54695
-2.12579
-2.68948
-3.22515
-3.70181
-4.1014
-4.40578
-4.60378
-4.68551
-4.65193
-4.50817
-4.25795
-3.91775
-3.5028
-3.03314
-2.52655
-2.00418
-1.48671
-0.994952
-0.534506
1.51591
1.30719
1.05857
0.760702
0.402126
-0.0271042
-0.517146
-1.06542
-1.64932
-2.24652
-2.82756
-3.37707
-3.86067
-4.26471
-4.57041
-4.76507
-4.84365
-4.80644
-4.65993
-4.39862
-4.04832
-3.62186
-3.13617
-2.61524
-2.07481
-1.53894
-1.032
-0.550239
1.50883
1.29884
1.04838
0.747844
0.379539
-0.0618268
-0.567552
-1.13344
-1.73641
-2.34794
-2.94197
-3.49823
-3.98336
-4.38957
-4.69449
-4.88556
-4.95988
-4.91962
-4.77344
-4.50402
-4.14606
-3.70892
-3.20892
-2.67613
-2.11709
-1.57106
-1.05515
-0.552586
1.5032
1.29051
1.03901
0.738341
0.363613
-0.0869501
-0.602752
-1.18444
-1.80097
-2.42229
-3.0232
-3.58018
-4.06459
-4.46715
-4.76932
-4.95783
-5.02856
-4.9868
-4.83832
-4.56244
-4.20188
-3.75457
-3.24524
-2.70614
-2.12742
-1.57075
-1.05303
-0.540042
1.49719
1.28058
1.03076
0.73541
0.356242
-0.0979661
-0.62017
-1.21191
-1.83563
-2.45957
-3.06078
-3.61407
-4.09255
-4.49158
-4.79208
-4.97366
-5.0397
-5.00279
-4.85121
-4.57162
-4.21012
-3.75565
-3.24029
-2.69865
-2.11092
-1.55216
-1.02404
-0.501956
1.48338
1.26676
1.02621
0.738286
0.357634
-0.094777
-0.617022
-1.21182
-1.83628
-2.45836
-3.05471
-3.59953
-4.07152
-4.46058
-4.76075
-4.93933
-4.99963
-4.96372
-4.81331
-4.53826
-4.172
-3.71488
-3.20115
-2.65689
-2.06008
-1.50424
-0.976555
-0.451205
1.45742
1.2508
1.02806
0.755016
0.377256
-0.0672591
-0.584573
-1.17653
-1.79643
-2.41572
-3.00516
-3.53849
-4.00393
-4.38537
-4.67844
-4.85247
-4.91782
-4.88116
-4.72802
-4.46249
-4.0949
-3.63853
-3.12815
-2.58532
-1.99253
-1.44192
-0.907431
-0.386733
1.41815
1.23358
1.03855
0.787371
0.410737
-0.024575
-0.526336
-1.10972
-1.72307
-2.33578
-2.91559
-3.44271
-3.89932
-4.27347
-4.56193
-4.7334
-4.80269
-4.76566
-4.61478
-4.35652
-3.99088
-3.53828
-3.03345
-2.49257
-1.90985
-1.36547
-0.829958
-0.31656
1.37149
1.22542
1.05439
0.826052
0.459517
0.0379456
-0.458857
-1.0229
-1.62172
-2.23172
-2.80538
-3.32681
-3.77667
-4.14563
-4.42609
-4.60105
-4.67369
-4.63605
-4.4886
-4.23812
-3.87586
-3.43055
-2.9313
-2.3973
-1.82387
-1.28786
-0.749615
-0.247575
1.3196
1.22296
1.08563
0.880563
0.515629
0.106794
-0.376717
-0.928685
-1.51624
-2.11225
-2.68675
-3.20455
-3.65286
-4.02048
-4.29512
-4.4727
-4.55015
-4.51391
-4.37051
-4.12274
-3.76343
-3.32879
-2.83724
-2.30737
-1.74562
-1.21698
-0.677095
-0.187764
1.31533
1.24191
1.09433
0.918488
0.575438
0.167638
-0.309439
-0.851812
-1.42821
-2.01831
-2.58908
-3.10652
-3.55351
-3.92023
-4.19219
-4.37325
-4.45165
-4.42041
-4.27937
-4.03377
-3.67765
-3.25215
-2.76453
-2.2399
-1.68687
-1.16583
-0.622092
-0.143095
1.1671
1.27129
1.11847
0.952938
0.620199
0.219855
-0.257237
-0.795671
-1.36856
-1.95583
-2.52737
-3.04668
-3.49374
-3.86118
-4.13106
-4.31292
-4.3941
-4.3665
-4.22558
-3.98121
-3.62788
-3.20833
-2.722
-2.20041
-1.65499
-1.13373
-0.589087
-0.115289
-0.291976
-0.354733
-0.0882032
0.089041
0.339766
0.728109
1.25603
1.7829
-0.207063
-0.174614
0.0261443
0.2352
0.551491
0.933332
1.39144
1.87878
-0.161709
-0.0296835
0.1929
0.45448
0.774006
1.1362
1.58383
1.9407
-0.127356
0.089318
0.325161
0.611208
0.948309
1.35708
1.5559
1.90343
-0.112761
0.148276
0.400384
0.701057
1.02062
1.39056
1.67766
1.89754
-0.106161
0.201674
0.496775
0.805582
1.10658
1.43625
1.6731
1.82186
-0.102197
0.235226
0.538783
0.844449
1.13777
1.43259
1.67496
1.85282
-0.102452
0.257745
0.584992
0.906483
1.20009
1.46091
1.663
1.77245
-0.104056
0.276209
0.617164
0.928788
1.20162
1.44088
1.64648
1.76262
-0.101957
0.28815
0.642372
0.964829
1.24062
1.46769
1.64506
1.74313
-0.0854608
0.305952
0.667114
0.98961
1.25044
1.46373
1.63195
1.73399
-0.0580089
0.33592
0.704353
1.02692
1.27342
1.48806
1.64149
1.73293
-0.015553
0.370937
0.743999
1.06855
1.29922
1.5122
1.64171
1.73293
0.0416911
0.424783
0.797072
1.11221
1.32636
1.55007
1.65558
1.75314
0.10261
0.475664
0.858196
1.16004
1.36483
1.58611
1.66706
1.77425
0.172569
0.534957
0.923266
1.19832
1.41176
1.62394
1.68888
1.80301
0.239151
0.584311
0.987754
1.23477
1.46342
1.64548
1.71585
1.82493
0.296635
0.631123
1.05055
1.2617
1.51271
1.67117
1.74981
1.84698
0.337996
0.66516
1.08503
1.27321
1.55061
1.67673
1.77191
1.85429
0.364904
0.694396
1.12038
1.28818
1.57591
1.69128
1.79478
1.86805
2.37977
2.36686
2.28877
2.0256
1.70003
1.29944
1.17397
1.18881
1.19912
1.17627
1.10833
1.02901
0.91869
0.814348
0.669094
0.544162
0.360369
0.216543
-0.0485631
-0.237137
2.49108
2.27164
2.16425
1.90013
1.61979
1.33618
1.24057
1.24435
1.22763
1.18832
1.11121
1.02809
0.916491
0.811092
0.668795
0.539559
0.365982
0.209823
0.0280236
-0.125442
2.16912
2.17617
2.12852
1.86248
1.62589
1.37633
1.26003
1.24912
1.22374
1.18141
1.10628
1.02444
0.914349
0.809168
0.668262
0.538656
0.370355
0.21588
0.0597521
-0.0987158
2.34591
2.09917
2.03446
1.78756
1.5795
1.38469
1.29151
1.27834
1.2466
1.19529
1.11438
1.02641
0.916431
0.806205
0.671446
0.534386
0.378801
0.223188
0.0838352
-0.0521831
2.1133
1.97272
1.92329
1.74279
1.57962
1.42414
1.32451
1.2933
1.24953
1.19043
1.10915
1.02104
0.913645
0.802349
0.672496
0.533141
0.386545
0.232177
0.106168
-0.0226841
2.08566
1.97263
1.91673
1.73391
1.58033
1.44162
1.34616
1.30796
1.26244
1.20059
1.1178
1.02444
0.917664
0.801838
0.675853
0.535102
0.393166
0.24349
0.122246
0.000385346
2.01209
1.87356
1.79587
1.67649
1.56335
1.45536
1.36773
1.32021
1.26726
1.19854
1.11392
1.01879
0.914678
0.798374
0.676564
0.535923
0.398928
0.253231
0.135036
0.0172205
1.9105
1.8605
1.8094
1.70061
1.59392
1.4883
1.39539
1.33525
1.27846
1.20771
1.12202
1.02352
0.918973
0.800409
0.679512
0.540327
0.40511
0.264192
0.146914
0.0300056
1.85712
1.81936
1.75634
1.6655
1.57537
1.48539
1.40092
1.3389
1.27997
1.20521
1.11851
1.01848
0.916102
0.798078
0.679473
0.542611
0.409381
0.272748
0.155642
0.0390252
1.7991
1.77832
1.74646
1.68105
1.60601
1.52047
1.43134
1.35743
1.29166
1.21331
1.125
1.02346
0.919892
0.801254
0.682242
0.547671
0.415458
0.281819
0.164173
0.0461661
1.7991
1.78245
1.74585
1.67902
1.60367
1.51989
1.43286
1.35756
1.29076
1.21068
1.12216
1.01982
0.917095
0.799996
0.68204
0.550596
0.419514
0.288534
0.170214
0.0512073
1.77954
1.77237
1.73262
1.67518
1.61185
1.53892
1.45496
1.37383
1.30104
1.21767
1.12739
1.02439
0.920235
0.8033
0.684846
0.55568
0.425717
0.295907
0.176439
0.0554512
1.77915
1.78632
1.75498
1.69733
1.631
1.55142
1.46146
1.37577
1.30067
1.21561
1.12492
1.02203
0.917852
0.802701
0.684975
0.558495
0.429745
0.301171
0.180694
0.0583824
1.78474
1.79234
1.75664
1.69812
1.63345
1.55754
1.47089
1.38484
1.30638
1.21916
1.12699
1.02437
0.919532
0.805148
0.687579
0.562807
0.435247
0.307214
0.185289
0.060957
1.79197
1.80671
1.77021
1.71655
1.65301
1.57417
1.48246
1.39069
1.30857
1.21932
1.12623
1.02386
0.918648
0.80564
0.688805
0.565564
0.438961
0.311526
0.188403
0.0626977
1.80733
1.82857
1.77963
1.72486
1.6571
1.57496
1.48426
1.39322
1.30916
1.2186
1.12489
1.02324
0.918362
0.8066
0.690725
0.568903
0.443364
0.316209
0.191728
0.0642677
1.82082
1.84356
1.78579
1.73729
1.66866
1.58578
1.49372
1.39909
1.31219
1.22011
1.12549
1.02405
0.918931
0.807975
0.69277
0.57178
0.446752
0.319649
0.193908
0.0652997
1.83954
1.8618
1.79235
1.74395
1.66883
1.58206
1.49045
1.39662
1.30857
1.21572
1.1212
1.02085
0.916993
0.80765
0.693927
0.574483
0.450574
0.323638
0.196542
0.066265
1.85751
1.8688
1.79789
1.75083
1.67327
1.58648
1.49492
1.39953
1.31012
1.21659
1.12181
1.02165
0.917829
0.808909
0.695695
0.576688
0.452846
0.325616
0.197527
0.0666251
1.87054
1.87374
1.79894
1.74769
1.66616
1.57691
1.4869
1.39286
1.30263
1.2089
1.11496
1.01636
0.914568
0.807825
0.696685
0.579771
0.45719
0.329812
0.199677
0.0669408
-0.397931
-0.318711
-0.431728
-0.419167
-0.196949
-0.0921338
-0.0919981
-0.0533896
-0.367302
-0.472716
-0.55225
-0.555751
-0.375716
-0.271276
-0.238295
-0.186749
-0.49823
-0.528923
-0.63382
-0.671179
-0.517731
-0.420627
-0.375244
-0.323792
-0.52587
-0.676318
-0.799535
-0.833623
-0.721435
-0.611774
-0.531626
-0.468706
-0.662632
-0.824513
-0.925939
-1.00039
-0.886548
-0.779974
-0.672046
-0.610582
-0.786546
-0.961344
-1.08552
-1.16295
-1.06229
-0.952422
-0.827392
-0.757264
-0.931554
-1.1175
-1.23598
-1.31855
-1.22566
-1.11691
-0.974311
-0.894551
-1.07063
-1.24993
-1.37445
-1.46645
-1.37624
-1.26963
-1.12028
-1.03023
-1.20555
-1.38209
-1.50475
-1.59374
-1.5162
-1.40092
-1.24788
-1.14996
-1.3261
-1.49417
-1.61766
-1.71176
-1.63531
-1.52163
-1.36673
-1.26198
-1.43378
-1.60385
-1.72077
-1.8105
-1.73616
-1.61289
-1.46076
-1.35404
-1.5222
-1.68996
-1.80324
-1.88498
-1.81674
-1.69515
-1.5438
-1.4344
-1.59363
-1.76648
-1.87517
-1.95444
-1.8744
-1.74814
-1.60339
-1.49485
-1.65001
-1.82014
-1.92289
-1.98499
-1.91419
-1.79381
-1.64825
-1.54257
-1.69236
-1.86532
-1.9614
-2.02702
-1.93733
-1.81414
-1.67517
-1.57213
-1.71409
-1.88472
-1.97608
-2.0218
-1.94183
-1.82364
-1.68977
-1.58913
-1.72713
-1.89256
-1.98498
-2.03778
-1.94122
-1.8193
-1.68921
-1.59114
-1.72656
-1.891
-1.97651
-2.00861
-1.92077
-1.79834
-1.67616
-1.58196
-1.7162
-1.88189
-1.96265
-1.99498
-1.89928
-1.77899
-1.64901
-1.56028
-1.69281
-1.86314
-1.93478
-1.95561
-1.85972
-1.7315
-1.61268
-1.52926
-1.66157
-1.83115
-1.89577
-1.91698
-1.82115
-1.70054
-1.57432
-1.48888
-1.62586
-1.79602
-1.85461
-1.87722
-1.77214
-1.64223
-1.52787
-1.44014
-1.58044
-1.75363
-1.80575
-1.82152
-1.72414
-1.59764
-1.48521
-1.38301
-1.52995
-1.69687
-1.74544
-1.76395
-1.6554
-1.52918
-1.41911
-1.31696
-1.47041
-1.63805
-1.67742
-1.69282
-1.6008
-1.46564
-1.35821
-1.24288
-1.40827
-1.55575
-1.59988
-1.6111
-1.50831
-1.37535
-1.26866
-1.15748
-1.33388
-1.47211
-1.51603
-1.52588
-1.43828
-1.29405
-1.18262
-1.0654
-1.26403
-1.38158
-1.43324
-1.43582
-1.34236
-1.19707
-1.06841
-0.961415
-1.17623
-1.28836
-1.34715
-1.33811
-1.2563
-1.1028
-0.972129
-0.852073
-1.10438
-1.2012
-1.26149
-1.25315
-1.1543
-1.01501
-0.843052
-0.730373
-0.991853
-1.10446
-1.17749
-1.16137
-1.06896
-0.89897
-0.736251
-0.600603
-0.932806
-1.03161
-1.09171
-1.09835
-0.959508
-0.811314
-0.588049
-0.455181
-0.81002
-0.951467
-1.01229
-1.00854
-0.863598
-0.662491
-0.462345
-0.298909
-0.748789
-0.896791
-0.92952
-0.942211
-0.741344
-0.564058
-0.292767
-0.123552
-0.642321
-0.863811
-0.84791
-0.842317
-0.648174
-0.391023
-0.149245
0.0694691
-0.60554
-0.827856
-0.762934
-0.774506
-0.494877
-0.271025
0.0446645
0.284683
-0.520167
-0.811147
-0.669794
-0.583108
-0.38166
-0.0912056
0.242425
0.519771
-0.50405
-0.770569
-0.557065
-0.503598
-0.208375
0.0591545
0.494388
0.759945
-0.478889
-0.726889
-0.466868
-0.290907
-0.0505992
0.260406
0.705617
0.985158
-0.369778
-0.647275
-0.313099
-0.212452
0.143126
0.405728
0.971815
1.20102
2.31811
2.23743
2.18364
2.08727
2.05697
1.94578
1.93526
1.72977
2.26284
2.20637
2.17076
2.08676
2.06261
1.96593
1.95662
1.83059
2.21301
2.18323
2.1522
2.08402
2.06131
1.98337
1.97797
1.89087
2.17594
2.15889
2.14037
2.08242
2.06601
1.99856
1.98498
1.93289
2.14611
2.13674
2.11977
2.07661
2.06255
2.00962
1.99727
1.95842
2.12264
2.119
2.10983
2.07204
2.06128
2.0218
2.00458
1.98227
2.10547
2.10225
2.09446
2.06673
2.05577
2.02593
2.01297
1.99833
2.09122
2.09025
2.08634
2.06261
2.05321
2.02898
2.01538
2.01057
2.08172
2.07951
2.07684
2.05931
2.04975
2.03028
2.02024
2.01429
2.07269
2.07214
2.07058
2.05675
2.04921
2.03189
2.0227
2.02094
2.06723
2.06521
2.06462
2.05347
2.04706
2.03229
2.02685
2.02155
2.06128
2.06009
2.06032
2.05092
2.04541
2.03243
2.02729
2.02715
2.05825
2.05513
2.05609
2.04776
2.04329
2.03186
2.0279
2.02572
2.05442
2.05162
2.0529
2.04498
2.0412
2.03086
2.0271
2.02928
2.05326
2.04852
2.0508
2.04276
2.0404
2.02966
2.02743
2.02708
2.05104
2.04658
2.04887
2.04123
2.03985
2.03022
2.02703
2.03069
2.05128
2.04487
2.0477
2.03986
2.04011
2.02954
2.02731
2.0287
2.05052
2.04388
2.04676
2.03836
2.03987
2.02984
2.02719
2.03086
2.05218
2.04338
2.04689
2.03689
2.04002
2.02881
2.02791
2.02867
2.05302
2.04354
2.0473
2.03553
2.04012
2.02915
2.02796
2.03013
2.05643
2.04401
2.04866
2.03429
2.04072
2.02744
2.02891
2.02858
2.0593
2.04541
2.05073
2.03354
2.04155
2.02726
2.0281
2.02878
2.06474
2.0473
2.05409
2.03255
2.04245
2.02545
2.02914
2.02801
2.07002
2.04967
2.05798
2.03264
2.04376
2.02481
2.02798
2.02797
2.07822
2.05279
2.06293
2.03276
2.04588
2.02383
2.02868
2.0275
2.08688
2.05715
2.06883
2.0341
2.04855
2.02437
2.02778
2.02735
2.09899
2.06284
2.07607
2.03569
2.05164
2.02389
2.02857
2.02692
2.11245
2.07034
2.08489
2.03912
2.05553
2.025
2.02802
2.02689
2.13025
2.07949
2.09509
2.04268
2.05934
2.02536
2.02852
2.02622
2.15078
2.09098
2.10725
2.04791
2.06334
2.02692
2.02775
2.02611
2.17706
2.10557
2.12111
2.05384
2.06726
2.02794
2.02738
2.02523
2.20744
2.12443
2.13774
2.06257
2.07179
2.03067
2.02593
2.0247
2.24454
2.14763
2.15674
2.07318
2.07632
2.03325
2.0244
2.02285
2.28623
2.17465
2.17838
2.08769
2.08136
2.03692
2.02233
2.02058
2.33508
2.20525
2.20197
2.10478
2.08695
2.04065
2.02099
2.01667
2.38937
2.23883
2.22911
2.12808
2.09456
2.04562
2.01962
2.01251
2.45716
2.2777
2.25941
2.15749
2.10687
2.05299
2.02077
2.00846
2.54636
2.32973
2.29493
2.19341
2.12437
2.06432
2.02297
2.00231
2.68057
2.40333
2.33244
2.23153
2.14911
2.08215
2.03057
1.96416
2.85695
2.4999
2.37207
2.26529
2.17158
2.10045
2.03739
1.87849
)
;

boundaryField
{
    wall
    {
        type            calculated;
        value           nonuniform List<scalar> 
312
(
2.40846
2.40458
2.40955
2.40838
2.40532
2.39656
2.38785
2.38108
2.37425
2.36892
2.37594
2.37322
2.3846
2.38364
2.37844
2.37982
2.36984
2.41226
2.38426
2.50897
2.31811
2.26284
2.21301
2.17594
2.14611
2.12264
2.10547
2.09122
2.08172
2.07269
2.06723
2.06128
2.05825
2.05442
2.05326
2.05104
2.05128
2.05052
2.05218
2.05302
2.05643
2.0593
2.06474
2.07002
2.07822
2.08688
2.09899
2.11245
2.13025
2.15078
2.17706
2.20744
2.24454
2.28623
2.33508
2.38937
2.45716
2.54636
2.68057
2.85695
1.72977
1.83059
1.89087
1.93289
1.95842
1.98227
1.99833
2.01057
2.01429
2.02094
2.02155
2.02715
2.02572
2.02928
2.02708
2.03069
2.0287
2.03086
2.02867
2.03013
2.02858
2.02878
2.02801
2.02797
2.0275
2.02735
2.02692
2.02689
2.02622
2.02611
2.02523
2.0247
2.02285
2.02058
2.01667
2.01251
2.00846
2.00231
1.96416
1.87849
1.1671
1.27129
1.11847
0.952938
0.620199
0.219855
-0.257237
-0.795671
-1.36856
-1.95583
-2.52737
-3.04668
-3.49374
-3.86118
-4.13106
-4.31292
-4.3941
-4.3665
-4.22558
-3.98121
-3.62788
-3.20833
-2.722
-2.20041
-1.65499
-1.13373
-0.589087
-0.115289
0.364904
0.694396
1.12038
1.28818
1.57591
1.69128
1.79478
1.86805
1.87054
1.87374
1.79894
1.74769
1.66616
1.57691
1.4869
1.39286
1.30263
1.2089
1.11496
1.01636
0.914568
0.807825
0.696685
0.579771
0.45719
0.329812
0.199677
0.0669408
2.37977
2.36686
2.28877
2.0256
1.70003
1.29944
1.17397
1.18881
1.19912
1.17627
1.10833
1.02901
0.91869
0.814348
0.669094
0.544162
0.360369
0.216543
-0.0485631
-0.237137
-0.0533896
-0.186749
-0.323792
-0.468706
-0.610582
-0.757264
-0.894551
-1.03023
-1.14996
-1.26198
-1.35404
-1.4344
-1.49485
-1.54257
-1.57213
-1.58913
-1.59114
-1.58196
-1.56028
-1.52926
-1.48888
-1.44014
-1.38301
-1.31696
-1.24288
-1.15748
-1.0654
-0.961415
-0.852073
-0.730373
-0.600603
-0.455181
-0.298909
-0.123552
0.0694691
0.284683
0.519771
0.759945
0.985158
1.20102
-0.397931
-0.367302
-0.49823
-0.52587
-0.662632
-0.786546
-0.931554
-1.07063
-1.20555
-1.3261
-1.43378
-1.5222
-1.59363
-1.65001
-1.69236
-1.71409
-1.72713
-1.72656
-1.7162
-1.69281
-1.66157
-1.62586
-1.58044
-1.52995
-1.47041
-1.40827
-1.33388
-1.26403
-1.17623
-1.10438
-0.991853
-0.932806
-0.81002
-0.748789
-0.642321
-0.60554
-0.520167
-0.50405
-0.478889
-0.369778
1.54006
1.36183
1.12555
0.882154
0.573672
0.243557
-0.149571
-0.554089
-1.00466
-1.45152
-1.91522
-2.33966
-2.74293
-3.07202
-3.3444
-3.51797
-3.61051
-3.59461
-3.494
-3.29541
-3.03118
-2.69509
-2.32686
-1.91633
-1.51373
-1.09504
-0.736511
-0.363888
2.23779
2.23404
2.16007
2.12188
2.03826
1.95311
1.83417
1.71335
2.4003
2.39819
2.39264
2.39359
2.38806
2.38885
2.38109
2.38237
2.37489
2.3771
2.36586
2.36958
2.3558
2.36226
2.34195
2.34987
2.32139
2.33075
2.28912
2.29861
)
;
    }
    inlet1
    {
        type            calculated;
        value           nonuniform List<scalar> 
20
(
2.4003
2.39762
2.39679
2.3964
2.39664
2.39596
2.39623
2.39622
2.39754
2.39813
2.39984
2.40012
2.40179
2.40213
2.40362
2.4039
2.40568
2.40636
2.40765
2.40846
)
;
    }
    inlet2
    {
        type            calculated;
        value           nonuniform List<scalar> 8(2.85695 2.4999 2.37207 2.26529 2.17158 2.10045 2.03739 1.87849);
    }
    outlet1
    {
        type            calculated;
        value           uniform 0;
    }
    outlet2
    {
        type            calculated;
        value           nonuniform List<scalar> 8(-0.40211 0 -0.425747 -0.338051 0.00189082 -0.000336076 0 0);
    }
    defaultFaces
    {
        type            empty;
    }
}


// ************************************************************************* //
