/*--------------------------------*- C++ -*----------------------------------*\
| =========                 |                                                 |
| \\      /  F ield         | OpenFOAM: The Open Source CFD Toolbox           |
|  \\    /   O peration     | Version:  2.4.0                                 |
|   \\  /    A nd           | Web:      www.OpenFOAM.org                      |
|    \\/     M anipulation  |                                                 |
\*---------------------------------------------------------------------------*/
FoamFile
{
    version     2.0;
    format      ascii;
    class       volVectorField;
    location    "0.2";
    object      U;
}
// * * * * * * * * * * * * * * * * * * * * * * * * * * * * * * * * * * * * * //

dimensions      [0 1 -1 0 0 0 0];

internalField   nonuniform List<vector> 
2320
(
(0.858849 0.00226899 0)
(1.13351 -0.00271321 0)
(0.864832 0.000247092 0)
(1.13692 0.00120597 0)
(0.864107 -0.00800746 0)
(1.15069 0.00797041 0)
(0.884413 -0.0149718 0)
(1.11174 0.0111582 0)
(0.993064 -0.0196439 0)
(0.976718 0.0203531 0)
(1.1194 -0.0108443 0)
(0.868337 -0.0347481 0)
(1.2257 0.131881 0)
(0.640373 -0.214036 0)
(1.58466 0.193132 0)
(0.243255 -0.028203 0)
(1.91134 -0.216608 0)
(0.314179 0.156918 0)
(1.61782 -0.0608898 0)
(1.03282 -0.135537 0)
(0.87341 0.00349797 0)
(1.10334 -0.00462004 0)
(0.917552 0.00347874 0)
(1.05279 -0.00668367 0)
(0.991228 0.00775533 0)
(0.977682 -0.025017 0)
(1.08065 0.0424647 0)
(0.891857 -0.0732799 0)
(1.15357 0.0947316 0)
(0.824945 -0.0931315 0)
(1.21093 0.0727825 0)
(0.756449 -0.0271769 0)
(1.30118 -0.0136708 0)
(0.840971 0.0219417 0)
(1.04002 0.0133895 0)
(1.50422 -0.14372 0)
(0.923397 0.188682 0)
(1.21289 -0.0144289 0)
(1.05415 -0.283807 0)
(1.72931 -0.00318988 0)
(0.900385 0.0156517 0)
(1.05567 -0.0290729 0)
(0.984471 0.0305435 0)
(0.959613 -0.0414394 0)
(1.10271 0.0354572 0)
(0.847538 -0.0447668 0)
(1.19739 0.0339982 0)
(0.822349 -0.0346373 0)
(1.14997 0.0218 0)
(1.00836 -0.0145443 0)
(0.925713 0.0343778 0)
(1.17101 -0.0859775 0)
(1.02776 0.103073 0)
(0.841048 -0.0877776 0)
(1.34935 -0.121557 0)
(0.896154 0.0261594 0)
(1.28542 -0.068905 0)
(1.03988 0.0656752 0)
(1.22424 -0.292617 0)
(1.29436 -0.334598 0)
(0.914373 0.02723 0)
(1.04436 -0.0502852 0)
(0.981703 0.0560459 0)
(0.977477 -0.0719945 0)
(1.05378 0.0700506 0)
(0.927428 -0.0791949 0)
(1.10697 0.0645082 0)
(0.913821 -0.0551362 0)
(1.10496 0.0121584 0)
(0.982072 0.0102151 0)
(1.01451 -0.00117734 0)
(0.999437 -0.0811031 0)
(1.20283 0.146638 0)
(0.556722 -0.148189 0)
(1.45355 -0.013493 0)
(0.786274 -0.119365 0)
(1.14375 0.135075 0)
(1.00278 0.00955381 0)
(1.38854 -0.385668 0)
(1.17177 -0.344676 0)
(0.952054 0.0367225 0)
(0.997287 -0.0653308 0)
(1.02014 0.0675927 0)
(0.937336 -0.0823811 0)
(1.08161 0.0667049 0)
(0.893428 -0.0769325 0)
(1.14745 0.0474967 0)
(0.846146 -0.0424363 0)
(1.17003 -0.00629881 0)
(0.93366 0.0219365 0)
(1.00334 0.0325136 0)
(1.04504 -0.18849 0)
(1.21289 0.321855 0)
(0.580469 -0.209528 0)
(1.41937 -0.224265 0)
(1.09219 0.173214 0)
(0.609888 -0.169323 0)
(1.57512 -0.0835579 0)
(0.897737 -0.357943 0)
(1.39887 -0.519827 0)
(0.981189 0.0517489 0)
(0.982571 -0.0840001 0)
(1.011 0.0881783 0)
(0.966992 -0.107504 0)
(1.03324 0.0971263 0)
(0.956338 -0.120396 0)
(1.09904 0.0938377 0)
(0.911546 -0.0739781 0)
(1.11943 -0.022645 0)
(1.01108 0.0874423 0)
(0.952855 -0.0458764 0)
(1.06151 -0.194719 0)
(1.23647 0.381827 0)
(0.741461 -0.247083 0)
(1.31088 -0.28209 0)
(1.01965 0.270892 0)
(1.12905 -0.0905982 0)
(0.783332 -0.135417 0)
(1.5607 -0.277294 0)
(0.239394 -0.456982 0)
(1.02104 0.0526405 0)
(0.957442 -0.0763864 0)
(1.01552 0.0755966 0)
(0.958041 -0.0945633 0)
(1.02806 0.0781627 0)
(0.941542 -0.114355 0)
(1.07999 0.077657 0)
(0.947332 -0.057551 0)
(1.01944 -0.0506835 0)
(1.09608 0.0956096 0)
(0.908287 0.0144853 0)
(1.03929 -0.350993 0)
(1.18973 0.486627 0)
(1.05884 -0.235608 0)
(0.889648 -0.378969 0)
(1.25551 0.298599 0)
(0.750157 -0.0573155 0)
(1.29603 -0.327992 0)
(0.992759 -0.0808945 0)
(0.856821 -0.732423 0)
(1.05624 0.0605252 0)
(0.949729 -0.0765782 0)
(1.00852 0.0842514 0)
(0.955855 -0.112797 0)
(1.02533 0.10636 0)
(0.918619 -0.153421 0)
(1.06971 0.0974296 0)
(0.967305 -0.0517101 0)
(0.964595 -0.0911608 0)
(1.08678 0.142077 0)
(1.01744 -0.013534 0)
(0.920571 -0.347301 0)
(1.07188 0.408729 0)
(1.28569 -0.0957597 0)
(0.488074 -0.400108 0)
(1.39985 0.344277 0)
(0.708859 -0.128038 0)
(1.48521 -0.223878 0)
(0.731149 -0.0821617 0)
(1.5856 -0.89555 0)
(1.10261 0.0467392 0)
(0.924925 -0.0463337 0)
(1.02356 0.0679962 0)
(0.92329 -0.0993375 0)
(1.0486 0.0965932 0)
(0.859764 -0.137821 0)
(1.08154 0.0610955 0)
(0.920767 -0.0110173 0)
(0.993326 -0.106088 0)
(0.970542 0.0713976 0)
(1.192 0.0928337 0)
(0.739328 -0.377313 0)
(1.01411 0.323656 0)
(1.23106 0.0370955 0)
(0.547409 -0.453861 0)
(1.40393 0.228709 0)
(1.01396 -0.100944 0)
(1.32229 -0.350613 0)
(1.18436 -0.13536 0)
(1.51021 -0.818192 0)
(1.15062 0.0444577 0)
(0.895934 -0.0318275 0)
(1.05368 0.0795805 0)
(0.882936 -0.12191 0)
(1.09435 0.135732 0)
(0.768396 -0.173732 0)
(1.17658 0.0745743 0)
(0.7186 -0.0163466 0)
(1.21385 -0.106538 0)
(0.60615 0.0480514 0)
(1.41287 0.0872172 0)
(0.485418 -0.258236 0)
(1.16128 0.165315 0)
(1.01656 0.122614 0)
(1.10293 -0.477335 0)
(0.949603 0.118152 0)
(1.39006 -0.12903 0)
(0.939525 -0.242556 0)
(1.30029 -0.245794 0)
(1.47201 -0.364224 0)
(1.20957 0.0205912 0)
(0.832294 0.00761865 0)
(1.11542 0.0687121 0)
(0.823052 -0.115327 0)
(1.14278 0.150399 0)
(0.716235 -0.182932 0)
(1.22022 0.0911822 0)
(0.648244 -0.0386135 0)
(1.26163 -0.0384006 0)
(0.534665 -0.0414219 0)
(1.36122 0.158052 0)
(0.604033 -0.258556 0)
(1.18872 0.074036 0)
(0.951332 0.0640926 0)
(1.11052 -0.392781 0)
(0.916007 0.0813846 0)
(0.880793 -0.103504 0)
(1.04754 -0.324108 0)
(0.777178 -0.399559 0)
(1.27523 -0.389654 0)
(1.26742 0.0212651 0)
(0.759296 0.0201441 0)
(1.1918 0.0788388 0)
(0.759783 -0.134624 0)
(1.19675 0.189832 0)
(0.702879 -0.218506 0)
(1.2305 0.116306 0)
(0.710525 -0.0473292 0)
(1.18532 -0.0431672 0)
(0.770009 -0.0104683 0)
(1.10934 0.0694787 0)
(0.933351 -0.179349 0)
(1.00634 -0.00426538 0)
(1.03805 0.134386 0)
(0.926336 -0.460922 0)
(1.31215 0.221751 0)
(0.502615 -0.204861 0)
(1.63546 -0.124309 0)
(0.154873 -0.425897 0)
(1.72865 -0.104537 0)
(1.31465 0.00522897 0)
(0.679296 0.0507639 0)
(1.26679 0.063087 0)
(0.701939 -0.117412 0)
(1.23382 0.182394 0)
(0.745827 -0.203688 0)
(1.16168 0.0969557 0)
(0.893952 -0.0262913 0)
(1.01548 -0.0527155 0)
(0.959526 -0.0200632 0)
(1.05531 0.0941525 0)
(0.792566 -0.228116 0)
(1.08459 0.039007 0)
(0.79778 0.0971568 0)
(1.06569 -0.525847 0)
(0.94614 0.290696 0)
(1.36708 -0.290628 0)
(1.08216 -0.173675 0)
(1.11369 -0.4483 0)
(1.8947 -0.673896 0)
(1.346 0.0218611 0)
(0.637551 0.0492688 0)
(1.31516 0.0632912 0)
(0.685991 -0.119693 0)
(1.25041 0.175487 0)
(0.81706 -0.183354 0)
(1.08338 0.0528511 0)
(0.983947 0.0140333 0)
(1.01102 -0.0652804 0)
(0.851066 -0.042345 0)
(1.24814 0.16006 0)
(0.560271 -0.213239 0)
(1.21003 0.0166723 0)
(0.789883 0.114915 0)
(0.925567 -0.493142 0)
(0.767534 0.0891201 0)
(1.19541 -0.26263 0)
(0.697641 0.0649686 0)
(0.782947 -0.853775 0)
(1.40314 0.475609 0)
(1.34441 0.0113198 0)
(0.643493 0.0715745 0)
(1.32655 0.0363564 0)
(0.721757 -0.0868631 0)
(1.23613 0.122909 0)
(0.881509 -0.126661 0)
(1.06911 0.0209394 0)
(0.96215 -0.00449335 0)
(1.11104 0.0326777 0)
(0.743177 -0.163926 0)
(1.32313 0.259327 0)
(0.75922 -0.225502 0)
(1.0793 -0.0537153 0)
(1.12835 0.213124 0)
(0.851487 -0.507855 0)
(0.713294 0.112456 0)
(1.42886 -0.281475 0)
(0.296965 0.0119597 0)
(1.49993 -0.899465 0)
(1.84939 -0.419745 0)
(1.31021 0.025007 0)
(0.745078 0.0621025 0)
(1.27774 0.0232852 0)
(0.820827 -0.0777787 0)
(1.18628 0.101454 0)
(0.952899 -0.110037 0)
(1.06097 0.0208614 0)
(0.976963 -0.0191115 0)
(1.11094 0.0577738 0)
(0.87294 -0.163506 0)
(1.12926 0.182777 0)
(1.14098 -0.104389 0)
(0.764296 -0.151021 0)
(1.3525 0.200183 0)
(0.648885 -0.224779 0)
(0.897857 -0.217754 0)
(0.867958 0.0135039 0)
(0.771771 0.0397439 0)
(1.49151 -1.57332 0)
(0.841317 1.53777 0)
(1.23167 -0.0172491 0)
(0.832816 0.0893125 0)
(1.25955 3.27979e-05 0)
(0.845809 -0.0455602 0)
(1.18614 0.0617106 0)
(0.968521 -0.0730406 0)
(1.0733 0.0209098 0)
(0.979563 -0.0461049 0)
(1.1237 0.104315 0)
(0.971206 -0.197211 0)
(0.98364 0.151756 0)
(1.32437 -0.0748948 0)
(0.516134 -0.126872 0)
(1.48516 0.247125 0)
(0.2955 -0.285618 0)
(1.51035 -0.0371523 0)
(0.0177593 -0.21964 0)
(1.98632 -0.369087 0)
(1.10606 -1.06784 0)
(0.879266 -0.075367 0)
(1.19715 -0.00879669 0)
(0.843378 0.0489039 0)
(1.23085 0.0165076 0)
(0.871887 -0.0431314 0)
(1.15818 0.0472413 0)
(0.987591 -0.0621251 0)
(1.05893 0.0280146 0)
(1.02716 -0.0577827 0)
(1.01512 0.0810927 0)
(1.16327 -0.106692 0)
(0.66561 0.0261572 0)
(1.53445 0.103788 0)
(0.282749 -0.218829 0)
(1.62817 0.269795 0)
(0.72308 -0.177133 0)
(1.21229 -0.106974 0)
(0.744671 -0.126948 0)
(1.11709 -0.536006 0)
(-0.722551 -0.837241 0)
(-0.729563 2.05264 0)
(1.11723 -0.0388086 0)
(0.881233 0.0735744 0)
(1.20052 -0.0146818 0)
(0.870651 -0.00958665 0)
(1.15995 0.00918517 0)
(0.924123 -0.0340131 0)
(1.08684 0.0131008 0)
(0.964081 -0.0415608 0)
(1.00694 0.0541333 0)
(1.11075 -0.0479518 0)
(0.765531 -0.013695 0)
(1.23443 0.0900958 0)
(0.861267 -0.134681 0)
(0.962683 0.0239798 0)
(1.22036 -0.0674168 0)
(0.895349 -0.0894339 0)
(0.871441 -0.177788 0)
(1.03191 0.288989 0)
(-0.0396126 -0.268262 0)
(-1.53025 -1.27573 0)
(1.12654 -0.00885101 0)
(0.7742 0.0109116 0)
(1.29786 0.0202771 0)
(0.78424 -0.0234414 0)
(1.23116 0.0250779 0)
(0.863846 -0.0352213 0)
(1.07275 0.0215265 0)
(0.957689 -0.032051 0)
(0.89319 0.0266715 0)
(1.15596 -0.00681967 0)
(0.741691 -0.0108996 0)
(1.15132 0.0360235 0)
(0.936601 -0.059787 0)
(0.812915 0.0447676 0)
(1.02546 -0.10844 0)
(0.527138 0.0400128 0)
(0.858239 -0.128341 0)
(-0.0470466 -0.0578187 0)
(1.23661 0.389937 0)
(0.291702 1.44959 0)
(1.82538 -0.0645062 0)
(1.09067 -0.0483701 0)
(1.94561 0.260585 0)
(-0.000738042 0.0505153 0)
(2.17851 -0.5697 0)
(1.889 -0.177643 0)
(2.93449 -0.375985 0)
(4.05725 -0.107224 0)
(1.41063 0.0725584 0)
(1.29709 -0.0530973 0)
(1.11372 0.301295 0)
(1.97376 -0.193261 0)
(1.36314 -0.318753 0)
(2.11553 -0.273112 0)
(2.92494 -0.69664 0)
(3.14341 -0.149649 0)
(1.80138 0.186318 0)
(1.06743 0.0677786 0)
(1.51425 -0.0138677 0)
(1.84513 -0.102975 0)
(1.35642 -0.646516 0)
(2.59092 -0.970147 0)
(1.99789 -0.890974 0)
(3.35534 -0.451248 0)
(1.73756 0.220324 0)
(1.09111 0.0625433 0)
(1.87891 -0.0848105 0)
(1.57387 -0.134398 0)
(2.58528 -0.60993 0)
(1.77325 -0.675993 0)
(2.39933 -1.06591 0)
(2.74368 -0.557907 0)
(1.11496 0.250922 0)
(1.33866 -0.0360201 0)
(1.30435 -0.207513 0)
(1.59543 -0.46486 0)
(2.04877 -0.744401 0)
(2.32894 -0.915327 0)
(2.34082 -1.27466 0)
(2.37206 -0.698961 0)
(1.86265 0.298694 0)
(0.703017 -0.0755648 0)
(1.64128 -0.198533 0)
(1.53833 -0.569378 0)
(2.17427 -0.923828 0)
(2.62523 -0.847381 0)
(2.44223 -1.07638 0)
(2.67386 -0.961388 0)
(1.98521 0.0283667 0)
(1.49878 0.0691849 0)
(2.0924 -0.604979 0)
(1.77216 -0.771481 0)
(1.93846 -1.24584 0)
(2.07757 -1.09092 0)
(2.98801 -1.23341 0)
(2.95143 -1.06834 0)
(0.897596 -0.0235455 0)
(2.08105 -0.169349 0)
(1.97159 -0.24187 0)
(1.78618 -0.529336 0)
(2.4004 -1.07049 0)
(2.45572 -1.43181 0)
(3.2083 -1.48653 0)
(3.02539 -1.20948 0)
(0.37189 -0.264389 0)
(1.87243 -0.484324 0)
(0.63778 -0.464203 0)
(1.87941 -0.974659 0)
(2.77893 -1.4845 0)
(3.01687 -1.52207 0)
(2.86704 -1.45816 0)
(3.0722 -1.43894 0)
(0.309789 -0.209974 0)
(1.78763 -0.271122 0)
(0.25931 -0.216097 0)
(2.87553 -1.75571 0)
(2.60001 -1.67615 0)
(2.31984 -1.47364 0)
(2.89496 -1.5018 0)
(3.28824 -1.68616 0)
(0.529615 -0.482415 0)
(1.12842 -0.463611 0)
(1.52558 -1.0046 0)
(2.97418 -1.94892 0)
(1.94945 -1.27712 0)
(2.49986 -1.69276 0)
(3.55514 -1.87338 0)
(3.31441 -1.78626 0)
(0.568887 -0.161716 0)
(1.80095 -0.667335 0)
(1.72977 -1.26645 0)
(2.52107 -1.93442 0)
(2.08801 -1.41955 0)
(3.25086 -2.28779 0)
(3.36988 -1.93683 0)
(2.61624 -1.58497 0)
(0.301428 -0.550143 0)
(1.7563 -1.03748 0)
(1.86323 -1.43018 0)
(2.67242 -2.0668 0)
(2.52507 -1.77054 0)
(2.96168 -2.26867 0)
(2.65413 -1.49146 0)
(2.27465 -1.5795 0)
(0.206497 -0.215233 0)
(1.88861 -1.28169 0)
(1.9951 -1.81738 0)
(2.60085 -2.11575 0)
(2.29077 -1.62497 0)
(2.77368 -2.33319 0)
(2.5983 -1.54203 0)
(2.6041 -1.90245 0)
(-0.27588 -0.779208 0)
(2.31714 -1.96981 0)
(1.80635 -1.89972 0)
(2.2967 -2.16033 0)
(2.29282 -1.96181 0)
(2.64539 -2.40681 0)
(2.33077 -1.40718 0)
(2.68205 -2.13543 0)
(0.608787 -0.618968 0)
(2.00681 -2.07418 0)
(1.94669 -1.95 0)
(2.46414 -2.20222 0)
(2.24757 -1.87669 0)
(2.34836 -2.28484 0)
(2.19372 -1.49393 0)
(2.90552 -2.63916 0)
(0.602877 -1.37371 0)
(2.28173 -2.66367 0)
(1.72003 -2.25316 0)
(2.04493 -2.21127 0)
(2.023 -2.00965 0)
(2.25874 -2.329 0)
(2.18559 -1.68926 0)
(2.86958 -2.91616 0)
(1.58794 -1.42332 0)
(1.87066 -2.28346 0)
(1.69751 -1.95284 0)
(2.05948 -2.24665 0)
(2.08611 -2.04586 0)
(2.02101 -2.26878 0)
(2.19835 -1.87241 0)
(2.81385 -3.15452 0)
(1.36872 -3.02873 0)
(1.59285 -2.75529 0)
(1.59964 -2.48186 0)
(1.82037 -2.3315 0)
(1.64065 -2.11963 0)
(1.9881 -2.34252 0)
(2.05607 -2.15541 0)
(2.50427 -3.24285 0)
(1.51985 -2.80993 0)
(1.70982 -2.24108 0)
(1.49184 -2.10945 0)
(1.83145 -2.17644 0)
(1.73619 -2.20323 0)
(1.85648 -2.32565 0)
(1.84578 -2.2949 0)
(2.07091 -2.91595 0)
(3.45556 0.143176 0)
(3.83612 -0.177887 0)
(3.50001 0.0370879 0)
(3.76722 -0.172689 0)
(4.18415 0.00932269 0)
(3.61788 -0.0548007 0)
(4.41482 -0.0647302 0)
(3.53197 -0.0289132 0)
(4.63307 -0.169742 0)
(3.71864 -0.116497 0)
(5.17036 -0.164679 0)
(3.78143 -0.00732786 0)
(5.39572 0.00325053 0)
(3.17265 0.159081 0)
(5.1 -0.112599 0)
(2.59446 0.201868 0)
(4.48056 -0.218538 0)
(2.5557 0.263493 0)
(3.43623 -0.31745 0)
(3.31858 0.176416 0)
(2.59441 -0.0938578 0)
(4.22616 -0.275194 0)
(2.53422 0.379777 0)
(3.98972 -0.451451 0)
(2.92096 0.212443 0)
(2.94717 -0.206212 0)
(3.97844 -0.138203 0)
(3.87021 -0.111844 0)
(3.70503 -0.0266851 0)
(3.5525 0.131032 0)
(3.29031 -0.00310005 0)
(4.31206 -0.162255 0)
(3.86118 0.0450497 0)
(4.57744 -0.0304171 0)
(4.14774 0.0811464 0)
(4.3332 -0.0552303 0)
(4.39939 0.0594145 0)
(4.13151 -0.147281 0)
(4.47785 0.130156 0)
(4.0368 -0.106011 0)
(4.36176 0.291494 0)
(4.09498 -0.00885435 0)
(4.15414 0.384477 0)
(3.67658 0.112562 0)
(3.73818 0.256415 0)
(2.88252 0.229596 0)
(3.64641 -0.0235395 0)
(2.23227 0.191848 0)
(4.0484 -0.333245 0)
(2.52172 0.268684 0)
(3.68492 -0.236003 0)
(3.12497 0.240474 0)
(2.95349 0.335894 0)
(3.12769 -0.360728 0)
(2.8515 -0.337819 0)
(3.56241 0.0345031 0)
(2.84521 -0.0430888 0)
(3.32151 -0.011371 0)
(3.50522 -0.302546 0)
(4.1549 -0.470396 0)
(4.2772 -0.126862 0)
(4.84867 -0.161886 0)
(4.40021 0.0355182 0)
(4.83285 -0.121676 0)
(4.37697 -0.0834352 0)
(4.83005 -0.135226 0)
(4.01729 -0.123674 0)
(4.33604 0.0616119 0)
(3.61491 -0.00866713 0)
(4.14363 0.245288 0)
(3.40191 0.130783 0)
(4.18749 0.364064 0)
(2.90499 0.216709 0)
(4.06468 0.260092 0)
(2.45 0.0536804 0)
(3.95486 -0.0386548 0)
(2.34823 -0.192341 0)
(3.70268 -0.0903416 0)
(2.86206 0.0799583 0)
(2.71315 -0.0964225 0)
(3.38648 0.242191 0)
(2.85647 -0.18844 0)
(2.91908 -0.326299 0)
(3.38256 -0.472727 0)
(2.75294 -0.00759621 0)
(3.33081 -0.229565 0)
(3.47655 -0.430931 0)
(4.20926 -0.573912 0)
(4.33489 -0.322071 0)
(4.83816 -0.0674863 0)
(4.83076 0.0563449 0)
(4.76152 -0.00852845 0)
(4.63879 0.033423 0)
(4.93015 0.0536112 0)
(4.16097 0.348477 0)
(4.19065 0.112782 0)
(3.53996 0.367539 0)
(4.0112 0.106561 0)
(3.4608 0.337078 0)
(3.70465 0.366924 0)
(3.59254 0.326115 0)
(3.28055 0.413868 0)
(3.36078 0.0766998 0)
(2.80344 0.18362 0)
(3.35438 -0.185917 0)
(2.85843 -0.0375832 0)
(3.24003 0.294657 0)
(2.95868 -0.0561604 0)
(2.69659 0.31342 0)
(3.40589 -0.191738 0)
(3.00794 -0.532539 0)
(3.37987 -0.133566 0)
(3.10489 -0.280239 0)
(3.45191 -0.413909 0)
(3.95829 -0.708559 0)
(4.35212 -0.910922 0)
(4.36866 -0.435024 0)
(4.59759 -0.390922 0)
(4.8729 0.067555 0)
(4.7139 0.00100627 0)
(4.67398 -0.174047 0)
(4.67915 0.104665 0)
(4.75197 0.256194 0)
(4.14316 0.369986 0)
(4.15257 0.103132 0)
(3.81857 0.261351 0)
(3.95047 0.313827 0)
(3.36152 0.28888 0)
(3.88932 0.434861 0)
(3.32418 0.395031 0)
(3.5567 0.29608 0)
(2.62669 -0.0339338 0)
(3.58632 -0.19373 0)
(2.21041 -0.0389424 0)
(3.679 0.0422344 0)
(2.05831 0.161345 0)
(3.44456 0.0428106 0)
(2.86974 -0.355544 0)
(3.46664 -0.307065 0)
(3.26762 -0.537773 0)
(3.06929 -0.513113 0)
(3.95358 -0.67824 0)
(4.35304 -0.831809 0)
(4.51824 -0.807036 0)
(4.56172 -0.442587 0)
(4.82734 -0.307013 0)
(4.80271 -0.0156093 0)
(5.40707 0.119503 0)
(4.93593 0.0466099 0)
(5.13647 0.00656383 0)
(4.72912 0.595244 0)
(4.57856 0.426176 0)
(4.1621 0.504629 0)
(4.04185 0.220817 0)
(3.74847 0.527397 0)
(3.8614 0.414221 0)
(3.54383 0.336294 0)
(3.92153 0.531645 0)
(3.43022 0.45985 0)
(3.60014 0.128001 0)
(3.15092 0.0384723 0)
(3.13277 -0.111899 0)
(2.83834 0.378026 0)
(3.00522 0.0476267 0)
(2.78975 -0.0779083 0)
(3.33359 -0.257963 0)
(3.48829 -0.667326 0)
(3.30947 -0.105915 0)
(3.33475 -0.887982 0)
(4.02739 -1.08596 0)
(4.16779 -0.963441 0)
(4.61832 -1.05775 0)
(4.56853 -0.599104 0)
(4.99103 -0.505302 0)
(5.00492 -0.249259 0)
(5.46098 -0.00760409 0)
(5.2953 -0.0621214 0)
(5.26996 0.215018 0)
(4.87198 0.567451 0)
(4.89688 0.639585 0)
(3.98518 0.406255 0)
(4.36839 0.433661 0)
(3.51195 0.446354 0)
(4.13814 0.372039 0)
(3.23199 0.420901 0)
(3.84167 0.445035 0)
(3.26214 0.506614 0)
(3.93547 0.109788 0)
(3.20517 0.0348024 0)
(3.73954 0.116035 0)
(2.52194 0.151841 0)
(3.4532 0.142599 0)
(2.3627 -0.087427 0)
(3.83235 -0.717445 0)
(2.66161 -0.303507 0)
(3.49405 -0.567604 0)
(3.91967 -1.04493 0)
(3.71086 -1.14817 0)
(4.18056 -1.11117 0)
(4.41734 -1.01452 0)
(4.28015 -0.651512 0)
(5.18943 -0.500402 0)
(4.90905 -0.263749 0)
(5.70129 0.0065701 0)
(4.9698 0.127292 0)
(5.38275 0.220755 0)
(4.66 0.730165 0)
(4.7672 0.878182 0)
(4.18999 0.722989 0)
(4.3515 0.485606 0)
(3.93643 0.607672 0)
(3.79652 0.571355 0)
(3.74891 0.486079 0)
(3.33591 0.510765 0)
(3.52999 0.416871 0)
(3.4114 0.141554 0)
(3.75935 0.126405 0)
(3.27854 0.213941 0)
(3.50563 0.491665 0)
(2.98031 0.1624 0)
(3.51431 -0.302324 0)
(3.03044 -0.420382 0)
(3.23235 -0.441412 0)
(3.08662 -0.334309 0)
(3.75937 -1.17173 0)
(3.50561 -1.23728 0)
(4.35415 -1.24114 0)
(4.09009 -1.14707 0)
(4.58128 -0.957609 0)
(5.08333 -0.809043 0)
(5.1632 -0.51204 0)
(5.70359 0.00439495 0)
(5.16968 0.0988099 0)
(5.06344 0.392038 0)
(4.39877 0.906367 0)
(4.50313 0.849786 0)
(4.31867 0.63839 0)
(4.24178 0.53077 0)
(3.94079 0.730911 0)
(3.77564 0.469486 0)
(3.96958 0.611707 0)
(3.47725 0.567176 0)
(3.56323 0.431735 0)
(3.32833 0.0153787 0)
(3.73076 0.0932708 0)
(3.19678 0.281056 0)
(3.71071 0.278792 0)
(3.07235 0.191026 0)
(3.77934 -0.146038 0)
(2.75959 -0.553599 0)
(3.46683 -0.345592 0)
(2.58589 -0.139032 0)
(3.52532 -1.27761 0)
(3.67225 -1.45139 0)
(4.00856 -1.3797 0)
(3.89535 -1.19905 0)
(4.7121 -1.1373 0)
(5.06794 -0.824957 0)
(5.38739 -0.534924 0)
(5.59344 -0.00176126 0)
(5.26134 0.432631 0)
(4.65303 0.601296 0)
(4.42257 1.00626 0)
(4.2022 0.949742 0)
(4.15645 0.833117 0)
(3.75967 0.703049 0)
(4.10049 0.842122 0)
(3.78573 0.575496 0)
(4.06366 0.646001 0)
(3.65063 0.716728 0)
(3.73412 0.521941 0)
(3.51232 0.0469918 0)
(3.57024 0.184244 0)
(3.55757 0.211877 0)
(3.64792 0.540853 0)
(3.62195 0.132229 0)
(3.43753 -0.146913 0)
(3.59673 -0.288484 0)
(3.18772 -0.332536 0)
(2.76122 -0.0608784 0)
(3.27225 -1.37557 0)
(3.58209 -1.47523 0)
(3.72077 -1.31336 0)
(4.15299 -1.51489 0)
(4.73483 -1.54503 0)
(5.10878 -1.148 0)
(5.66805 -0.71976 0)
(5.45404 0.0824028 0)
(5.32614 0.610826 0)
(4.41415 0.809595 0)
(4.51795 1.10045 0)
(3.76477 0.947723 0)
(4.15102 0.833343 0)
(3.35727 0.53582 0)
(3.97457 0.710851 0)
(3.7092 0.474049 0)
(3.54618 0.674623 0)
(3.52681 0.738035 0)
(3.46678 0.499738 0)
(3.31638 0.114331 0)
(2.92697 0.0796142 0)
(3.76453 0.230344 0)
(3.20315 0.280632 0)
(3.95167 0.298405 0)
(3.16939 -0.133932 0)
(3.51897 -0.405365 0)
(2.65529 0.0613506 0)
(2.88977 -0.200271 0)
(2.95962 -1.3827 0)
(3.35672 -1.65002 0)
(3.80226 -1.63539 0)
(4.46606 -1.78786 0)
(4.64834 -1.67775 0)
(4.88936 -1.3243 0)
(5.25818 -0.731781 0)
(5.09868 0.181553 0)
(5.41938 0.900355 0)
(4.73901 1.00912 0)
(4.44471 1.34331 0)
(3.77399 1.16166 0)
(3.68833 1.02679 0)
(3.46509 0.803817 0)
(3.08264 0.705437 0)
(3.3888 0.767683 0)
(2.76898 0.775285 0)
(3.3646 0.704247 0)
(2.99184 0.612987 0)
(3.0987 0.286433 0)
(2.87761 -0.0369603 0)
(3.1466 0.101565 0)
(3.16921 0.415122 0)
(3.19563 0.145831 0)
(3.56909 0.0625654 0)
(3.31213 -0.0564761 0)
(2.59152 0.0126973 0)
(2.94032 -0.0746581 0)
(3.1824 -1.71194 0)
(3.57305 -1.90366 0)
(4.16985 -1.88451 0)
(4.04669 -1.99072 0)
(3.74126 -1.76756 0)
(3.98239 -1.43763 0)
(4.06839 -0.824133 0)
(4.23009 0.0670505 0)
(4.7839 0.77801 0)
(4.66406 1.24587 0)
(4.30421 1.53936 0)
(4.3957 1.28213 0)
(3.81557 1.00672 0)
(3.94755 0.809902 0)
(3.33789 0.762616 0)
(3.42084 0.615806 0)
(3.18763 0.699413 0)
(3.28564 0.628374 0)
(3.12978 0.62758 0)
(3.16616 0.194353 0)
(3.14274 0.0534248 0)
(2.62413 0.0879825 0)
(2.97661 0.23226 0)
(3.04547 0.129553 0)
(3.50283 -0.207201 0)
(3.03096 0.0945852 0)
(3.28179 0.222943 0)
(2.71652 -0.0135402 0)
(3.49375 -2.00116 0)
(3.74978 -2.17679 0)
(3.64674 -1.8673 0)
(2.78601 -1.59481 0)
(2.54658 -1.58084 0)
(2.7428 -1.46515 0)
(2.74784 -0.822829 0)
(2.96205 -0.100563 0)
(3.39511 0.686064 0)
(3.56759 1.25196 0)
(3.87422 1.46866 0)
(4.11196 1.39854 0)
(3.72311 1.24089 0)
(3.72005 1.05116 0)
(3.5513 0.959289 0)
(3.34619 0.826994 0)
(3.24744 0.847433 0)
(3.28102 0.746576 0)
(3.38055 0.663207 0)
(3.66873 0.286215 0)
(3.16729 0.219505 0)
(3.03686 0.216048 0)
(2.94847 0.19908 0)
(3.34999 -0.118439 0)
(3.29479 0.0641719 0)
(3.07603 0.0548731 0)
(3.20238 0.170798 0)
(3.17084 0.117635 0)
(3.67842 -2.2364 0)
(3.34258 -1.97555 0)
(2.30735 -1.40738 0)
(1.76571 -1.49867 0)
(1.93711 -1.76281 0)
(1.82796 -1.50507 0)
(1.55501 -0.887718 0)
(2.16329 -0.182682 0)
(1.73998 0.486287 0)
(2.46671 1.04337 0)
(2.48311 1.24997 0)
(2.91814 1.37532 0)
(2.9785 1.19597 0)
(3.14954 0.88891 0)
(3.10193 1.00574 0)
(3.2309 0.757384 0)
(3.36653 0.753628 0)
(3.46923 0.545531 0)
(3.49619 0.454221 0)
(3.45864 0.336105 0)
(3.0889 0.357132 0)
(3.10739 0.194406 0)
(3.11617 0.0601939 0)
(3.14839 -0.0374672 0)
(2.88164 -0.0548957 0)
(3.26596 0.129823 0)
(3.08352 0.192351 0)
(3.2578 -0.0137981 0)
(3.52939 -2.25613 0)
(2.60372 -1.40173 0)
(1.82761 -1.00295 0)
(1.34132 -1.43982 0)
(1.23838 -1.56964 0)
(0.712551 -1.37209 0)
(0.969629 -1.022 0)
(0.900619 -0.175591 0)
(1.01936 0.555473 0)
(1.03027 0.895294 0)
(1.64643 1.18815 0)
(1.69446 1.16018 0)
(2.27929 1.1346 0)
(2.34512 0.999022 0)
(2.66284 0.894414 0)
(2.84589 0.684735 0)
(2.9916 0.781524 0)
(3.02584 0.659741 0)
(3.00887 0.643555 0)
(3.08369 0.469838 0)
(3.09238 0.37734 0)
(3.15228 0.230205 0)
(3.0433 0.162473 0)
(2.95459 0.0093248 0)
(3.07613 -0.00983147 0)
(3.02316 -0.0406713 0)
(3.00644 0.166386 0)
(3.05519 0.0837055 0)
(3.23104 -2.0169 0)
(2.08757 -1.33118 0)
(0.974261 -0.807078 0)
(0.485777 -1.33047 0)
(0.299543 -1.46488 0)
(-0.241857 -1.3289 0)
(-0.623518 -0.963999 0)
(-0.394915 -0.193348 0)
(-0.489741 0.400899 0)
(-0.0116426 0.689154 0)
(0.162816 0.915412 0)
(0.981376 1.07507 0)
(0.877263 0.777827 0)
(1.51775 0.695774 0)
(1.83363 0.829094 0)
(1.887 0.520817 0)
(2.19082 0.688693 0)
(2.26519 0.484749 0)
(2.57213 0.463146 0)
(2.71162 0.333239 0)
(2.74043 0.325926 0)
(2.7201 0.22802 0)
(2.76347 0.157505 0)
(2.78928 -0.0575417 0)
(2.63962 -0.0643334 0)
(2.56086 0.159524 0)
(2.52066 0.171819 0)
(2.94819 0.0439931 0)
(2.64386 -1.64748 0)
(0.921448 -0.109687 0)
(0.630703 -0.25163 0)
(-0.00788736 -1.01458 0)
(-0.0451144 -1.14899 0)
(-1.44356 -0.928165 0)
(-1.60476 -0.898711 0)
(-2.05861 -0.175392 0)
(-1.76281 0.376986 0)
(-1.79571 0.57574 0)
(-1.08655 0.68816 0)
(-0.651969 0.866319 0)
(0.0501235 0.888677 0)
(-0.423892 0.512179 0)
(1.17323 0.657706 0)
(0.923699 0.54206 0)
(1.54671 0.637854 0)
(1.57044 0.425869 0)
(1.94005 0.431321 0)
(2.04606 0.357759 0)
(2.24673 0.343564 0)
(2.38667 0.212177 0)
(2.55641 0.113213 0)
(2.62147 0.0792034 0)
(2.4368 0.0958068 0)
(2.49936 0.0221225 0)
(2.78333 -0.0359014 0)
(2.92348 -0.0750744 0)
(1.83887 -1.15095 0)
(1.09134 -0.502933 0)
(-0.275574 -0.275273 0)
(-0.460264 -1.12653 0)
(-1.35523 -0.781761 0)
(-2.25212 -0.647583 0)
(-2.97355 -0.676869 0)
(-3.54294 -0.0770714 0)
(-3.36466 0.28233 0)
(-3.16993 0.335019 0)
(-2.12842 0.3267 0)
(-1.71152 0.496016 0)
(-0.843548 0.568222 0)
(-0.633267 0.159747 0)
(-0.912794 0.214411 0)
(0.0247335 0.263268 0)
(0.732416 0.420762 0)
(0.839964 0.243453 0)
(1.38306 0.273456 0)
(1.58367 0.182447 0)
(1.91195 0.167226 0)
(2.13118 0.087864 0)
(2.24141 0.0448611 0)
(2.29642 0.00716844 0)
(2.38069 0.00553136 0)
(2.3941 -0.0217038 0)
(2.31581 -0.0323125 0)
(2.3536 0.101733 0)
(0.399116 -0.716044 0)
(-1.60444 0.998806 0)
(1.25846 0.455438 0)
(-1.19323 -0.365492 0)
(-1.90514 -0.184962 0)
(-3.14108 -0.116708 0)
(-3.51117 -0.241065 0)
(-5.09102 0.125092 0)
(-3.20157 0.172885 0)
(-4.23634 -0.113189 0)
(-2.85864 -0.0475635 0)
(-3.69606 0.288697 0)
(-1.19068 0.375597 0)
(-2.00842 0.558643 0)
(0.294251 0.287671 0)
(-0.990271 -0.250623 0)
(0.326305 0.226044 0)
(0.330881 0.0649682 0)
(0.905028 0.0801884 0)
(1.0922 0.0635943 0)
(1.37023 0.0598978 0)
(1.55717 0.0430162 0)
(1.64419 0.024234 0)
(1.69295 0.0163544 0)
(1.70328 0.0451351 0)
(1.79991 0.043889 0)
(1.73219 -0.0262097 0)
(1.69332 -0.0630938 0)
(4.11401 -1.00687 0)
(4.91 -1.145 0)
(3.83783 -1.04043 0)
(2.66139 -1.5978 0)
(2.43079 -1.96008 0)
(1.18177 -1.97271 0)
(0.302654 -1.64546 0)
(0.204371 -2.35462 0)
(3.3333 -1.13982 0)
(2.29819 -0.957602 0)
(1.57454 -1.23117 0)
(2.45769 -2.485 0)
(1.93293 -2.13878 0)
(1.44231 -1.56617 0)
(1.16079 -1.75163 0)
(1.84268 -2.20523 0)
(3.22436 -0.485764 0)
(3.15377 -0.508808 0)
(3.20758 -1.11264 0)
(3.05567 -1.58461 0)
(1.66685 -1.43051 0)
(2.32422 -1.44881 0)
(1.87577 -1.68411 0)
(0.828832 -1.11778 0)
(3.0044 -0.783445 0)
(3.42054 -0.890178 0)
(2.40734 -1.00815 0)
(3.17067 -1.65441 0)
(1.95236 -1.76491 0)
(2.08884 -1.77446 0)
(1.76796 -1.09763 0)
(1.94029 -1.13629 0)
(3.31433 -0.557729 0)
(3.14652 -0.391388 0)
(2.76955 -1.07742 0)
(3.26958 -1.49662 0)
(2.16617 -1.06645 0)
(1.15741 -1.29171 0)
(1.08583 -1.49695 0)
(0.326082 -0.494559 0)
(3.53196 -0.587759 0)
(2.726 -0.526961 0)
(3.26011 -1.00164 0)
(2.34459 -1.12941 0)
(1.41535 -0.577387 0)
(1.66345 -1.25858 0)
(1.11124 -0.565383 0)
(0.0105318 -0.555354 0)
(3.0047 -0.290515 0)
(2.55017 -0.349652 0)
(3.07456 -0.945619 0)
(1.5903 -0.779645 0)
(2.50874 -0.853244 0)
(2.13855 -1.2537 0)
(1.57843 -0.749554 0)
(1.84255 -0.276174 0)
(2.38324 -0.0358107 0)
(3.3455 -0.563099 0)
(1.9233 -0.447388 0)
(2.60112 -0.665522 0)
(2.0683 -0.728067 0)
(0.703224 -0.633924 0)
(-0.602465 -0.429174 0)
(0.084986 -0.444538 0)
(2.89296 -0.414035 0)
(2.84493 -0.179125 0)
(2.33528 -0.586673 0)
(3.28611 -0.990756 0)
(2.1809 -0.0707471 0)
(2.64704 -0.0573682 0)
(2.36916 -0.312631 0)
(3.65117 -1.32921 0)
(3.27096 -0.151319 0)
(2.33444 -0.247949 0)
(3.35664 -0.649404 0)
(2.17832 -0.455435 0)
(2.18568 -0.268847 0)
(2.17424 -0.693123 0)
(2.0535 -1.02698 0)
(2.24598 -0.772082 0)
(2.64627 -0.168417 0)
(2.81187 -0.245665 0)
(2.92084 -0.527156 0)
(2.87912 -0.51029 0)
(3.00296 -0.164906 0)
(2.62681 -0.0711646 0)
(2.69669 -0.289383 0)
(1.81167 -0.461892 0)
(2.24902 -0.103303 0)
(2.79881 -0.403511 0)
(2.9443 -0.642644 0)
(2.8932 -0.449532 0)
(2.35788 -0.0582563 0)
(2.40539 -0.485696 0)
(2.11017 -0.569491 0)
(2.39844 -0.582344 0)
(2.93664 -0.10182 0)
(2.9708 -0.590546 0)
(2.87292 -0.615053 0)
(2.48661 -0.254921 0)
(2.42537 0.0275656 0)
(2.18331 -0.00580526 0)
(2.37315 -0.350203 0)
(2.37323 -0.343211 0)
(3.20222 -0.222582 0)
(3.30104 -0.357905 0)
(2.52296 -0.361309 0)
(2.35141 -0.190975 0)
(2.03204 0.110675 0)
(2.57671 -0.384899 0)
(2.99226 -0.62143 0)
(2.17251 -0.299832 0)
(3.15108 -0.16395 0)
(2.97903 -0.265502 0)
(2.57953 -0.171432 0)
(2.28414 -0.0151503 0)
(2.16986 -0.11659 0)
(2.73747 -0.536371 0)
(2.53167 -0.207502 0)
(2.24532 0.115855 0)
(2.91135 -0.0800934 0)
(2.83302 -0.0989649 0)
(2.53681 -0.0151045 0)
(2.43304 0.0462925 0)
(2.65341 -0.124517 0)
(2.53392 -0.477579 0)
(2.2383 -0.349434 0)
(2.27498 -0.110525 0)
(2.85368 -0.0593692 0)
(2.59389 -0.0747416 0)
(2.42007 0.0247297 0)
(2.75356 -0.0514229 0)
(2.82662 -0.215985 0)
(2.62854 -0.376626 0)
(2.25269 -0.106482 0)
(2.22345 0.0772676 0)
(2.69216 0.105046 0)
(2.57014 0.100934 0)
(2.68965 -0.099131 0)
(2.80928 -0.126119 0)
(2.47377 -0.0583216 0)
(2.23337 -0.149185 0)
(2.08352 -0.116007 0)
(2.2706 -0.0210717 0)
(2.34107 0.0947666 0)
(2.3043 -0.0770622 0)
(2.30254 -0.0872751 0)
(2.38003 0.0667255 0)
(2.11932 0.0308241 0)
(1.97778 -0.212283 0)
(1.96167 -0.125963 0)
(2.04297 0.0394277 0)
(1.83082 0.141993 0)
(2.13799 0.0961099 0)
(1.84737 -0.139435 0)
(1.69967 -0.000868572 0)
(2.0105 0.127338 0)
(1.96604 -0.0544183 0)
(1.45275 -0.120348 0)
(1.48914 0.0776399 0)
(-1.61633 -1.21022 0)
(0.611781 0.58671 0)
(0.466157 0.563069 0)
(0.802181 0.56981 1.88624e-18)
(1.6102 0.911664 1.75942e-19)
(1.96118 0.77669 0)
(2.80794 0.787168 1.35712e-18)
(2.38973 0.567437 7.1797e-20)
(2.70318 0.57056 9.13716e-19)
(2.25401 0.434659 8.51019e-19)
(2.79949 0.494057 0)
(2.32937 0.384482 7.08391e-19)
(3.0608 0.472874 -2.96835e-20)
(2.59132 0.375154 5.72143e-19)
(3.32017 0.461322 6.91729e-21)
(2.92706 0.38522 -7.62714e-21)
(3.55413 0.480624 -1.69819e-19)
(3.24957 0.406439 1.26589e-19)
(3.81104 0.51142 1.67431e-21)
(3.60572 0.128752 1.82756e-22)
(-0.520848 -1.6652 0)
(0.956964 -0.241319 0)
(0.537703 0.0446868 -8.52134e-20)
(1.17293 0.430983 -3.92859e-18)
(1.71404 0.72361 -7.43615e-20)
(2.08192 0.656957 2.09495e-18)
(2.68674 0.624567 -1.33671e-18)
(2.39201 0.435078 5.10376e-19)
(2.6128 0.422985 9.7623e-19)
(2.33887 0.324841 -8.53861e-19)
(2.72541 0.357262 0)
(2.45566 0.284498 6.90598e-19)
(2.98287 0.357838 9.10566e-21)
(2.70998 0.317846 -5.75431e-19)
(3.2348 0.397293 1.06957e-21)
(3.01991 0.362916 0)
(3.47061 0.438411 -9.43134e-22)
(3.31701 0.375032 0)
(3.69474 0.443407 0)
(3.59903 0.00751445 0)
(-0.396102 0.254611 0)
(0.870413 0.296288 -9.38776e-20)
(0.666983 0.554611 1.69724e-19)
(1.47633 0.602118 -7.74095e-20)