/*--------------------------------*- C++ -*----------------------------------*\
| =========                 |                                                 |
| \\      /  F ield         | OpenFOAM: The Open Source CFD Toolbox           |
|  \\    /   O peration     | Version:  2.4.0                                 |
|   \\  /    A nd           | Web:      www.OpenFOAM.org                      |
|    \\/     M anipulation  |                                                 |
\*---------------------------------------------------------------------------*/
FoamFile
{
    version     2.0;
    format      ascii;
    class       volScalarField;
    location    "35";
    object      k;
}
// * * * * * * * * * * * * * * * * * * * * * * * * * * * * * * * * * * * * * //

dimensions      [0 2 -2 0 0 0 0];

internalField   nonuniform List<scalar> 
10000
(
0.0110287
0.00273345
0.0010108
0.000498273
0.000299015
0.000205113
0.000154212
0.000123646
0.00010384
9.02431e-05
8.04849e-05
7.32341e-05
6.7697e-05
6.3375e-05
5.99432e-05
5.71806e-05
5.49339e-05
5.30929e-05
5.15783e-05
5.03894e-05
0.0110287
0.00273213
0.00101086
0.000498321
0.000299101
0.000205185
0.000154271
0.000123693
0.000103879
9.02739e-05
8.05104e-05
7.32552e-05
6.77147e-05
6.33904e-05
5.99569e-05
5.71932e-05
5.4946e-05
5.3105e-05
5.15909e-05
5.03439e-05
0.0110286
0.00273239
0.00101093
0.000498307
0.000299067
0.00020514
0.000154223
0.000123648
0.000103834
9.02328e-05
8.04716e-05
7.3219e-05
6.7681e-05
6.33589e-05
5.99273e-05
5.71655e-05
5.49197e-05
5.30803e-05
5.15672e-05
5.03216e-05
0.0110286
0.00273238
0.00101093
0.00049832
0.000299073
0.000205147
0.000154228
0.000123652
0.000103837
9.02348e-05
8.0473e-05
7.32199e-05
6.76813e-05
6.33588e-05
5.99268e-05
5.71646e-05
5.49184e-05
5.30786e-05
5.15652e-05
5.03191e-05
0.0110286
0.00273237
0.00101092
0.000498306
0.000299065
0.000205139
0.000154223
0.000123647
0.000103834
9.02323e-05
8.04709e-05
7.32182e-05
6.76798e-05
6.33575e-05
5.99255e-05
5.71633e-05
5.49171e-05
5.30772e-05
5.15635e-05
5.03171e-05
0.0110286
0.00273236
0.00101092
0.00049831
0.000299067
0.000205143
0.000154225
0.000123649
0.000103836
9.02336e-05
8.04719e-05
7.32189e-05
6.76802e-05
6.33577e-05
5.99254e-05
5.7163e-05
5.49165e-05
5.30762e-05
5.15623e-05
5.03154e-05
0.0110286
0.00273234
0.0010109
0.000498297
0.00029906
0.000205136
0.000154221
0.000123646
0.000103833
9.02313e-05
8.047e-05
7.32174e-05
6.76789e-05
6.33565e-05
5.99243e-05
5.71619e-05
5.49153e-05
5.3075e-05
5.15608e-05
5.03137e-05
0.0110286
0.00273234
0.0010109
0.000498301
0.000299062
0.000205139
0.000154223
0.000123648
0.000103835
9.02329e-05
8.04712e-05
7.32183e-05
6.76796e-05
6.3357e-05
5.99246e-05
5.71619e-05
5.49151e-05
5.30745e-05
5.156e-05
5.03125e-05
0.0110286
0.00273232
0.00101089
0.000498289
0.000299055
0.000205133
0.000154219
0.000123645
0.000103832
9.02307e-05
8.04695e-05
7.32169e-05
6.76784e-05
6.3356e-05
5.99236e-05
5.7161e-05
5.49142e-05
5.30735e-05
5.15588e-05
5.0311e-05
0.0110286
0.00273232
0.00101089
0.000498294
0.000299059
0.000205137
0.000154222
0.000123647
0.000103834
9.02324e-05
8.04709e-05
7.3218e-05
6.76793e-05
6.33566e-05
5.99241e-05
5.71613e-05
5.49143e-05
5.30733e-05
5.15583e-05
5.03101e-05
0.0110286
0.0027323
0.00101088
0.000498284
0.000299052
0.000205132
0.000154218
0.000123644
0.000103832
9.02306e-05
8.04695e-05
7.32169e-05
6.76784e-05
6.33558e-05
5.99234e-05
5.71606e-05
5.49135e-05
5.30725e-05
5.15573e-05
5.03089e-05
0.0110286
0.0027323
0.00101088
0.000498289
0.000299056
0.000205135
0.000154221
0.000123647
0.000103834
9.02324e-05
8.0471e-05
7.32182e-05
6.76795e-05
6.33567e-05
5.99241e-05
5.71611e-05
5.49138e-05
5.30725e-05
5.15571e-05
5.03082e-05
0.0110286
0.00273228
0.00101087
0.000498281
0.00029905
0.000205131
0.000154218
0.000123644
0.000103832
9.02309e-05
8.04698e-05
7.32172e-05
6.76787e-05
6.33561e-05
5.99235e-05
5.71605e-05
5.49133e-05
5.30718e-05
5.15562e-05
5.03072e-05
0.0110286
0.00273229
0.00101088
0.000498286
0.000299054
0.000205134
0.00015422
0.000123646
0.000103834
9.02327e-05
8.04714e-05
7.32186e-05
6.76799e-05
6.33571e-05
5.99244e-05
5.71612e-05
5.49138e-05
5.30721e-05
5.15562e-05
5.03068e-05
0.0110286
0.00273227
0.00101086
0.000498278
0.000299049
0.000205131
0.000154218
0.000123644
0.000103832
9.02314e-05
8.04704e-05
7.32178e-05
6.76793e-05
6.33566e-05
5.9924e-05
5.71608e-05
5.49133e-05
5.30715e-05
5.15555e-05
5.03059e-05
0.0110286
0.00273228
0.00101087
0.000498283
0.000299053
0.000205134
0.000154221
0.000123647
0.000103834
9.02334e-05
8.04721e-05
7.32194e-05
6.76807e-05
6.33578e-05
5.9925e-05
5.71617e-05
5.4914e-05
5.3072e-05
5.15557e-05
5.03057e-05
0.0110286
0.00273227
0.00101086
0.000498277
0.000299049
0.000205131
0.000154218
0.000123645
0.000103833
9.02323e-05
8.04713e-05
7.32187e-05
6.76802e-05
6.33574e-05
5.99247e-05
5.71613e-05
5.49136e-05
5.30715e-05
5.15551e-05
5.03049e-05
0.0110286
0.00273227
0.00101087
0.000498282
0.000299053
0.000205134
0.000154221
0.000123648
0.000103835
9.02343e-05
8.04732e-05
7.32204e-05
6.76817e-05
6.33588e-05
5.99259e-05
5.71624e-05
5.49144e-05
5.30721e-05
5.15554e-05
5.0305e-05
0.0110286
0.00273227
0.00101086
0.000498278
0.00029905
0.000205132
0.000154219
0.000123646
0.000103834
9.02335e-05
8.04725e-05
7.32199e-05
6.76813e-05
6.33584e-05
5.99256e-05
5.71621e-05
5.49141e-05
5.30717e-05
5.15549e-05
5.03043e-05
0.0110286
0.00273227
0.00101086
0.000498282
0.000299053
0.000205135
0.000154222
0.000123649
0.000103837
9.02356e-05
8.04744e-05
7.32216e-05
6.76829e-05
6.33599e-05
5.99269e-05
5.71632e-05
5.4915e-05
5.30725e-05
5.15554e-05
5.03045e-05
0.0110286
0.00273227
0.00101086
0.000498279
0.000299051
0.000205133
0.000154221
0.000123648
0.000103836
9.02349e-05
8.04739e-05
7.32212e-05
6.76826e-05
6.33597e-05
5.99267e-05
5.7163e-05
5.49148e-05
5.30722e-05
5.1555e-05
5.03039e-05
0.0110286
0.00273227
0.00101086
0.000498283
0.000299054
0.000205136
0.000154223
0.00012365
0.000103838
9.0237e-05
8.04758e-05
7.3223e-05
6.76842e-05
6.33612e-05
5.9928e-05
5.71642e-05
5.49158e-05
5.3073e-05
5.15556e-05
5.03042e-05
0.0110286
0.00273227
0.00101086
0.000498281
0.000299052
0.000205135
0.000154223
0.000123649
0.000103837
9.02365e-05
8.04754e-05
7.32227e-05
6.7684e-05
6.3361e-05
5.99279e-05
5.7164e-05
5.49156e-05
5.30727e-05
5.15552e-05
5.03038e-05
0.0110286
0.00273228
0.00101087
0.000498285
0.000299056
0.000205138
0.000154225
0.000123652
0.00010384
9.02386e-05
8.04774e-05
7.32246e-05
6.76857e-05
6.33625e-05
5.99293e-05
5.71653e-05
5.49167e-05
5.30736e-05
5.15559e-05
5.03042e-05
0.0110286
0.00273228
0.00101086
0.000498283
0.000299055
0.000205137
0.000154224
0.000123651
0.000103839
9.02382e-05
8.04771e-05
7.32243e-05
6.76855e-05
6.33624e-05
5.99292e-05
5.71652e-05
5.49166e-05
5.30734e-05
5.15556e-05
5.03038e-05
0.0110286
0.00273228
0.00101087
0.000498287
0.000299057
0.00020514
0.000154227
0.000123653
0.000103841
9.02403e-05
8.04791e-05
7.32262e-05
6.76872e-05
6.3364e-05
5.99306e-05
5.71664e-05
5.49176e-05
5.30743e-05
5.15563e-05
5.03043e-05
0.0110286
0.00273228
0.00101087
0.000498286
0.000299057
0.000205139
0.000154226
0.000123653
0.000103841
9.024e-05
8.04788e-05
7.3226e-05
6.76871e-05
6.33639e-05
5.99305e-05
5.71664e-05
5.49176e-05
5.30742e-05
5.15561e-05
5.0304e-05
0.0110286
0.00273229
0.00101087
0.000498289
0.00029906
0.000205142
0.000154229
0.000123655
0.000103843
9.0242e-05
8.04808e-05
7.32278e-05
6.76888e-05
6.33654e-05
5.99319e-05
5.71676e-05
5.49186e-05
5.30751e-05
5.15568e-05
5.03044e-05
0.0110286
0.00273229
0.00101087
0.000498289
0.00029906
0.000205142
0.000154229
0.000123655
0.000103843
9.02419e-05
8.04806e-05
7.32277e-05
6.76887e-05
6.33654e-05
5.99319e-05
5.71676e-05
5.49186e-05
5.3075e-05
5.15567e-05
5.03042e-05
0.0110286
0.0027323
0.00101087
0.000498292
0.000299062
0.000205144
0.000154231
0.000123657
0.000103845
9.02438e-05
8.04825e-05
7.32294e-05
6.76903e-05
6.33669e-05
5.99333e-05
5.71688e-05
5.49197e-05
5.30759e-05
5.15574e-05
5.03047e-05
0.0110286
0.0027323
0.00101087
0.000498292
0.000299062
0.000205144
0.000154231
0.000123657
0.000103845
9.02437e-05
8.04824e-05
7.32294e-05
6.76903e-05
6.33669e-05
5.99333e-05
5.71688e-05
5.49197e-05
5.30759e-05
5.15573e-05
5.03046e-05
0.0110286
0.0027323
0.00101088
0.000498294
0.000299064
0.000205146
0.000154233
0.000123659
0.000103847
9.02456e-05
8.04842e-05
7.32311e-05
6.76919e-05
6.33683e-05
5.99346e-05
5.717e-05
5.49207e-05
5.30767e-05
5.1558e-05
5.03051e-05
0.0110286
0.00273231
0.00101088
0.000498295
0.000299065
0.000205146
0.000154233
0.000123659
0.000103847
9.02456e-05
8.04842e-05
7.32311e-05
6.76919e-05
6.33684e-05
5.99346e-05
5.717e-05
5.49207e-05
5.30768e-05
5.1558e-05
5.0305e-05
0.0110286
0.00273231
0.00101088
0.000498297
0.000299066
0.000205148
0.000154235
0.000123661
0.000103849
9.02474e-05
8.04859e-05
7.32327e-05
6.76934e-05
6.33698e-05
5.99359e-05
5.71712e-05
5.49217e-05
5.30776e-05
5.15587e-05
5.03055e-05
0.0110286
0.00273231
0.00101088
0.000498298
0.000299067
0.000205149
0.000154235
0.000123661
0.000103849
9.02474e-05
8.04859e-05
7.32327e-05
6.76935e-05
6.33698e-05
5.9936e-05
5.71713e-05
5.49218e-05
5.30776e-05
5.15586e-05
5.03054e-05
0.0110286
0.00273231
0.00101088
0.000498299
0.000299069
0.00020515
0.000154237
0.000123663
0.00010385
9.02491e-05
8.04875e-05
7.32343e-05
6.76949e-05
6.33712e-05
5.99372e-05
5.71724e-05
5.49228e-05
5.30785e-05
5.15593e-05
5.03059e-05
0.0110286
0.00273232
0.00101088
0.000498301
0.00029907
0.000205151
0.000154237
0.000123663
0.000103851
9.02492e-05
8.04876e-05
7.32343e-05
6.7695e-05
6.33712e-05
5.99373e-05
5.71724e-05
5.49228e-05
5.30785e-05
5.15593e-05
5.03059e-05
0.0110286
0.00273232
0.00101088
0.000498301
0.000299071
0.000205152
0.000154239
0.000123665
0.000103852
9.02508e-05
8.04891e-05
7.32358e-05
6.76963e-05
6.33725e-05
5.99384e-05
5.71735e-05
5.49237e-05
5.30793e-05
5.156e-05
5.03064e-05
0.0110286
0.00273232
0.00101089
0.000498303
0.000299072
0.000205153
0.000154239
0.000123665
0.000103852
9.02509e-05
8.04892e-05
7.32358e-05
6.76964e-05
6.33726e-05
5.99385e-05
5.71735e-05
5.49238e-05
5.30793e-05
5.156e-05
5.03063e-05
0.0110286
0.00273232
0.00101089
0.000498304
0.000299073
0.000205154
0.00015424
0.000123666
0.000103854
9.02523e-05
8.04906e-05
7.32372e-05
6.76976e-05
6.33737e-05
5.99396e-05
5.71745e-05
5.49246e-05
5.30801e-05
5.15606e-05
5.03068e-05
0.0110286
0.00273232
0.00101089
0.000498305
0.000299074
0.000205155
0.000154241
0.000123667
0.000103854
9.02524e-05
8.04907e-05
7.32372e-05
6.76977e-05
6.33738e-05
5.99396e-05
5.71745e-05
5.49247e-05
5.30801e-05
5.15606e-05
5.03067e-05
0.0110286
0.00273232
0.00101089
0.000498306
0.000299075
0.000205156
0.000154242
0.000123668
0.000103855
9.02537e-05
8.04919e-05
7.32384e-05
6.76988e-05
6.33748e-05
5.99406e-05
5.71754e-05
5.49254e-05
5.30807e-05
5.15611e-05
5.03072e-05
0.0110286
0.00273232
0.00101089
0.000498308
0.000299076
0.000205157
0.000154243
0.000123668
0.000103856
9.02539e-05
8.04921e-05
7.32385e-05
6.76989e-05
6.33749e-05
5.99406e-05
5.71755e-05
5.49255e-05
5.30808e-05
5.15611e-05
5.03071e-05
0.0110286
0.00273232
0.00101089
0.000498308
0.000299076
0.000205157
0.000154244
0.000123669
0.000103857
9.0255e-05
8.04931e-05
7.32396e-05
6.76999e-05
6.33758e-05
5.99415e-05
5.71762e-05
5.49261e-05
5.30813e-05
5.15616e-05
5.03075e-05
0.0110286
0.00273233
0.00101089
0.00049831
0.000299078
0.000205158
0.000154244
0.00012367
0.000103857
9.02552e-05
8.04932e-05
7.32396e-05
6.76999e-05
6.33758e-05
5.99415e-05
5.71762e-05
5.49262e-05
5.30813e-05
5.15616e-05
5.03074e-05
0.0110286
0.00273232
0.00101089
0.000498309
0.000299078
0.000205159
0.000154245
0.000123671
0.000103858
9.02561e-05
8.04942e-05
7.32406e-05
6.77008e-05
6.33767e-05
5.99423e-05
5.71769e-05
5.49268e-05
5.30818e-05
5.1562e-05
5.03077e-05
0.0110286
0.00273233
0.0010109
0.000498311
0.000299079
0.00020516
0.000154246
0.000123671
0.000103858
9.02563e-05
8.04943e-05
7.32407e-05
6.77009e-05
6.33767e-05
5.99423e-05
5.7177e-05
5.49268e-05
5.30819e-05
5.1562e-05
5.03077e-05
0.0110286
0.00273233
0.00101089
0.000498311
0.000299079
0.00020516
0.000154246
0.000123672
0.000103859
9.02571e-05
8.04951e-05
7.32414e-05
6.77016e-05
6.33774e-05
5.9943e-05
5.71775e-05
5.49273e-05
5.30823e-05
5.15623e-05
5.0308e-05
0.0110286
0.00273233
0.0010109
0.000498313
0.000299081
0.000205161
0.000154247
0.000123672
0.000103859
9.02573e-05
8.04953e-05
7.32415e-05
6.77017e-05
6.33775e-05
5.9943e-05
5.71776e-05
5.49273e-05
5.30823e-05
5.15623e-05
5.03079e-05
0.0110286
0.00273233
0.0010109
0.000498312
0.00029908
0.000205161
0.000154247
0.000123673
0.00010386
9.0258e-05
8.0496e-05
7.32422e-05
6.77024e-05
6.33781e-05
5.99436e-05
5.71781e-05
5.49278e-05
5.30827e-05
5.15626e-05
5.03081e-05
0.0110286
0.00273233
0.0010109
0.000498314
0.000299082
0.000205162
0.000154248
0.000123673
0.00010386
9.02582e-05
8.04961e-05
7.32423e-05
6.77024e-05
6.33781e-05
5.99436e-05
5.71781e-05
5.49278e-05
5.30827e-05
5.15626e-05
5.03081e-05
0.0110286
0.00273233
0.0010109
0.000498313
0.000299081
0.000205162
0.000154248
0.000123674
0.000103861
9.02588e-05
8.04967e-05
7.32429e-05
6.7703e-05
6.33787e-05
5.99441e-05
5.71786e-05
5.49282e-05
5.3083e-05
5.15628e-05
5.03083e-05
0.0110286
0.00273233
0.0010109
0.000498315
0.000299083
0.000205163
0.000154249
0.000123674
0.000103861
9.02589e-05
8.04968e-05
7.32429e-05
6.7703e-05
6.33787e-05
5.99441e-05
5.71785e-05
5.49282e-05
5.3083e-05
5.15628e-05
5.03082e-05
0.0110286
0.00273233
0.0010109
0.000498314
0.000299082
0.000205163
0.000154249
0.000123674
0.000103861
9.02594e-05
8.04973e-05
7.32434e-05
6.77035e-05
6.33791e-05
5.99445e-05
5.71789e-05
5.49285e-05
5.30832e-05
5.1563e-05
5.03083e-05
0.0110286
0.00273233
0.0010109
0.000498316
0.000299084
0.000205164
0.000154249
0.000123675
0.000103861
9.02595e-05
8.04973e-05
7.32435e-05
6.77035e-05
6.33791e-05
5.99445e-05
5.71789e-05
5.49284e-05
5.30832e-05
5.15629e-05
5.03083e-05
0.0110286
0.00273233
0.0010109
0.000498315
0.000299083
0.000205164
0.000154249
0.000123675
0.000103862
9.02599e-05
8.04977e-05
7.32439e-05
6.77039e-05
6.33795e-05
5.99448e-05
5.71792e-05
5.49287e-05
5.30834e-05
5.15631e-05
5.03084e-05
0.0110286
0.00273233
0.0010109
0.000498316
0.000299084
0.000205164
0.00015425
0.000123675
0.000103862
9.026e-05
8.04978e-05
7.32439e-05
6.77039e-05
6.33794e-05
5.99448e-05
5.71791e-05
5.49286e-05
5.30833e-05
5.1563e-05
5.03083e-05
0.0110286
0.00273233
0.0010109
0.000498315
0.000299084
0.000205164
0.00015425
0.000123675
0.000103862
9.02603e-05
8.04981e-05
7.32442e-05
6.77042e-05
6.33798e-05
5.9945e-05
5.71794e-05
5.49289e-05
5.30835e-05
5.15631e-05
5.03083e-05
0.0110286
0.00273233
0.0010109
0.000498317
0.000299085
0.000205165
0.00015425
0.000123676
0.000103862
9.02603e-05
8.04981e-05
7.32442e-05
6.77041e-05
6.33797e-05
5.9945e-05
5.71793e-05
5.49288e-05
5.30834e-05
5.1563e-05
5.03082e-05
0.0110286
0.00273233
0.0010109
0.000498316
0.000299084
0.000205165
0.00015425
0.000123676
0.000103863
9.02606e-05
8.04984e-05
7.32445e-05
6.77044e-05
6.338e-05
5.99452e-05
5.71795e-05
5.4929e-05
5.30836e-05
5.15631e-05
5.03083e-05
0.0110286
0.00273233
0.0010109
0.000498317
0.000299085
0.000205165
0.000154251
0.000123676
0.000103863
9.02606e-05
8.04984e-05
7.32444e-05
6.77044e-05
6.33799e-05
5.99451e-05
5.71794e-05
5.49289e-05
5.30835e-05
5.1563e-05
5.03081e-05
0.0110286
0.00273233
0.0010109
0.000498316
0.000299085
0.000205165
0.000154251
0.000123676
0.000103863
9.02608e-05
8.04986e-05
7.32446e-05
6.77046e-05
6.33801e-05
5.99453e-05
5.71796e-05
5.4929e-05
5.30836e-05
5.15631e-05
5.03082e-05
0.0110286
0.00273233
0.0010109
0.000498318
0.000299085
0.000205166
0.000154251
0.000123676
0.000103863
9.02608e-05
8.04986e-05
7.32446e-05
6.77045e-05
6.338e-05
5.99452e-05
5.71795e-05
5.49289e-05
5.30835e-05
5.1563e-05
5.0308e-05
0.0110286
0.00273233
0.0010109
0.000498317
0.000299085
0.000205165
0.000154251
0.000123676
0.000103863
9.02609e-05
8.04987e-05
7.32447e-05
6.77047e-05
6.33801e-05
5.99454e-05
5.71796e-05
5.4929e-05
5.30835e-05
5.1563e-05
5.0308e-05
0.0110286
0.00273233
0.0010109
0.000498318
0.000299086
0.000205166
0.000154251
0.000123676
0.000103863
9.02609e-05
8.04987e-05
7.32447e-05
6.77046e-05
6.33801e-05
5.99453e-05
5.71795e-05
5.49289e-05
5.30834e-05
5.15629e-05
5.03079e-05
0.0110286
0.00273233
0.0010109
0.000498317
0.000299085
0.000205165
0.000154251
0.000123676
0.000103863
9.0261e-05
8.04987e-05
7.32448e-05
6.77047e-05
6.33802e-05
5.99454e-05
5.71796e-05
5.49289e-05
5.30834e-05
5.15629e-05
5.03079e-05
0.0110286
0.00273233
0.0010109
0.000498318
0.000299086
0.000205166
0.000154251
0.000123676
0.000103863
9.0261e-05
8.04987e-05
7.32447e-05
6.77046e-05
6.33801e-05
5.99453e-05
5.71795e-05
5.49288e-05
5.30833e-05
5.15628e-05
5.03077e-05
0.0110286
0.00273233
0.0010109
0.000498317
0.000299085
0.000205165
0.000154251
0.000123676
0.000103863
9.0261e-05
8.04988e-05
7.32448e-05
6.77047e-05
6.33801e-05
5.99453e-05
5.71795e-05
5.49288e-05
5.30833e-05
5.15627e-05
5.03077e-05
0.0110286
0.00273233
0.0010109
0.000498318
0.000299086
0.000205166
0.000154251
0.000123676
0.000103863
9.0261e-05
8.04987e-05
7.32447e-05
6.77046e-05
6.338e-05
5.99452e-05
5.71794e-05
5.49287e-05
5.30832e-05
5.15626e-05
5.03075e-05
0.0110286
0.00273233
0.0010109
0.000498317
0.000299085
0.000205165
0.000154251
0.000123676
0.000103863
9.0261e-05
8.04987e-05
7.32447e-05
6.77046e-05
6.33801e-05
5.99452e-05
5.71794e-05
5.49287e-05
5.30832e-05
5.15626e-05
5.03075e-05
0.0110286
0.00273233
0.0010109
0.000498318
0.000299086
0.000205166
0.000154251
0.000123676
0.000103863
9.02609e-05
8.04986e-05
7.32446e-05
6.77045e-05
6.338e-05
5.99451e-05
5.71793e-05
5.49286e-05
5.30831e-05
5.15624e-05
5.03073e-05
0.0110286
0.00273233
0.0010109
0.000498317
0.000299085
0.000205165
0.000154251
0.000123676
0.000103863
9.02609e-05
8.04986e-05
7.32446e-05
6.77045e-05
6.338e-05
5.99451e-05
5.71793e-05
5.49286e-05
5.3083e-05
5.15624e-05
5.03073e-05
0.0110286
0.00273233
0.0010109
0.000498318
0.000299085
0.000205166
0.000154251
0.000123676
0.000103863
9.02609e-05
8.04986e-05
7.32446e-05
6.77044e-05
6.33799e-05
5.9945e-05
5.71792e-05
5.49285e-05
5.30829e-05
5.15623e-05
5.03071e-05
0.0110286
0.00273233
0.0010109
0.000498317
0.000299085
0.000205165
0.000154251
0.000123676
0.000103863
9.02608e-05
8.04985e-05
7.32445e-05
6.77044e-05
6.33799e-05
5.9945e-05
5.71792e-05
5.49284e-05
5.30829e-05
5.15622e-05
5.0307e-05
0.0110286
0.00273233
0.0010109
0.000498317
0.000299085
0.000205165
0.000154251
0.000123676
0.000103863
9.02607e-05
8.04984e-05
7.32444e-05
6.77043e-05
6.33797e-05
5.99449e-05
5.7179e-05
5.49283e-05
5.30827e-05
5.15621e-05
5.03069e-05
0.0110286
0.00273233
0.0010109
0.000498317
0.000299085
0.000205165
0.000154251
0.000123676
0.000103863
9.02607e-05
8.04984e-05
7.32444e-05
6.77043e-05
6.33797e-05
5.99449e-05
5.7179e-05
5.49283e-05
5.30827e-05
5.1562e-05
5.03068e-05
0.0110286
0.00273233
0.0010109
0.000498317
0.000299085
0.000205165
0.000154251
0.000123676
0.000103863
9.02606e-05
8.04983e-05
7.32443e-05
6.77042e-05
6.33796e-05
5.99447e-05
5.71789e-05
5.49282e-05
5.30825e-05
5.15619e-05
5.03067e-05
0.0110286
0.00273233
0.0010109
0.000498317
0.000299085
0.000205165
0.000154251
0.000123676
0.000103863
9.02606e-05
8.04983e-05
7.32443e-05
6.77041e-05
6.33796e-05
5.99447e-05
5.71788e-05
5.49281e-05
5.30825e-05
5.15618e-05
5.03066e-05
0.0110286
0.00273233
0.0010109
0.000498317
0.000299085
0.000205165
0.000154251
0.000123676
0.000103863
9.02605e-05
8.04982e-05
7.32442e-05
6.7704e-05
6.33795e-05
5.99446e-05
5.71787e-05
5.4928e-05
5.30824e-05
5.15617e-05
5.03065e-05
0.0110286
0.00273233
0.0010109
0.000498316
0.000299084
0.000205165
0.00015425
0.000123676
0.000103862
9.02604e-05
8.04981e-05
7.32441e-05
6.7704e-05
6.33794e-05
5.99445e-05
5.71787e-05
5.49279e-05
5.30823e-05
5.15616e-05
5.03064e-05
0.0110286
0.00273233
0.0010109
0.000498317
0.000299085
0.000205165
0.00015425
0.000123676
0.000103862
9.02603e-05
8.0498e-05
7.3244e-05
6.77039e-05
6.33793e-05
5.99444e-05
5.71786e-05
5.49278e-05
5.30822e-05
5.15614e-05
5.03062e-05
0.0110286
0.00273233
0.0010109
0.000498316
0.000299084
0.000205165
0.00015425
0.000123676
0.000103862
9.02602e-05
8.0498e-05
7.3244e-05
6.77038e-05
6.33792e-05
5.99444e-05
5.71785e-05
5.49277e-05
5.30821e-05
5.15614e-05
5.03061e-05
0.0110286
0.00273233
0.0010109
0.000498316
0.000299084
0.000205165
0.00015425
0.000123676
0.000103862
9.02601e-05
8.04979e-05
7.32439e-05
6.77037e-05
6.33791e-05
5.99442e-05
5.71784e-05
5.49276e-05
5.30819e-05
5.15612e-05
5.0306e-05
0.0110286
0.00273233
0.0010109
0.000498316
0.000299084
0.000205164
0.00015425
0.000123675
0.000103862
9.02601e-05
8.04978e-05
7.32438e-05
6.77036e-05
6.33791e-05
5.99442e-05
5.71783e-05
5.49275e-05
5.30819e-05
5.15611e-05
5.03059e-05
0.0110286
0.00273233
0.0010109
0.000498316
0.000299084
0.000205164
0.00015425
0.000123675
0.000103862
9.026e-05
8.04977e-05
7.32437e-05
6.77035e-05
6.3379e-05
5.99441e-05
5.71782e-05
5.49274e-05
5.30818e-05
5.1561e-05
5.03058e-05
0.0110286
0.00273233
0.0010109
0.000498316
0.000299084
0.000205164
0.00015425
0.000123675
0.000103862
9.02599e-05
8.04976e-05
7.32436e-05
6.77035e-05
6.33789e-05
5.9944e-05
5.71781e-05
5.49273e-05
5.30817e-05
5.15609e-05
5.03057e-05
0.0110286
0.00273233
0.0010109
0.000498316
0.000299084
0.000205164
0.00015425
0.000123675
0.000103862
9.02598e-05
8.04975e-05
7.32435e-05
6.77034e-05
6.33788e-05
5.99439e-05
5.7178e-05
5.49272e-05
5.30816e-05
5.15608e-05
5.03055e-05
0.0110286
0.00273233
0.0010109
0.000498316
0.000299084
0.000205164
0.00015425
0.000123675
0.000103862
9.02597e-05
8.04974e-05
7.32434e-05
6.77033e-05
6.33787e-05
5.99438e-05
5.71779e-05
5.49272e-05
5.30815e-05
5.15607e-05
5.03054e-05
0.0110286
0.00273233
0.0010109
0.000498316
0.000299084
0.000205164
0.00015425
0.000123675
0.000103862
9.02596e-05
8.04974e-05
7.32434e-05
6.77032e-05
6.33786e-05
5.99437e-05
5.71779e-05
5.49271e-05
5.30814e-05
5.15606e-05
5.03053e-05
0.0110286
0.00273233
0.0010109
0.000498315
0.000299084
0.000205164
0.00015425
0.000123675
0.000103862
9.02596e-05
8.04973e-05
7.32433e-05
6.77032e-05
6.33786e-05
5.99437e-05
5.71778e-05
5.4927e-05
5.30813e-05
5.15605e-05
5.03053e-05
0.0110286
0.00273233
0.0010109
0.000498315
0.000299084
0.000205164
0.000154249
0.000123675
0.000103862
9.02595e-05
8.04972e-05
7.32432e-05
6.77031e-05
6.33785e-05
5.99436e-05
5.71777e-05
5.49269e-05
5.30812e-05
5.15605e-05
5.03052e-05
0.0110286
0.00273233
0.0010109
0.000498315
0.000299083
0.000205164
0.000154249
0.000123675
0.000103861
9.02594e-05
8.04972e-05
7.32432e-05
6.7703e-05
6.33784e-05
5.99435e-05
5.71776e-05
5.49268e-05
5.30811e-05
5.15604e-05
5.03051e-05
0.0110286
0.00273233
0.0010109
0.000498315
0.000299083
0.000205164
0.000154249
0.000123675
0.000103861
9.02594e-05
8.04971e-05
7.32431e-05
6.77029e-05
6.33784e-05
5.99435e-05
5.71776e-05
5.49268e-05
5.30811e-05
5.15603e-05
5.0305e-05
0.0110286
0.00273233
0.0010109
0.000498315
0.000299083
0.000205164
0.000154249
0.000123675
0.000103861
9.02593e-05
8.0497e-05
7.3243e-05
6.77029e-05
6.33783e-05
5.99434e-05
5.71775e-05
5.49267e-05
5.3081e-05
5.15602e-05
5.03049e-05
0.0110286
0.00273233
0.0010109
0.000498315
0.000299083
0.000205164
0.000154249
0.000123675
0.000103861
9.02593e-05
8.0497e-05
7.3243e-05
6.77029e-05
6.33783e-05
5.99434e-05
5.71775e-05
5.49267e-05
5.3081e-05
5.15602e-05
5.03049e-05
0.0110286
0.00273233
0.0010109
0.000498315
0.000299083
0.000205164
0.000154249
0.000123675
0.000103861
9.02593e-05
8.0497e-05
7.3243e-05
6.77028e-05
6.33783e-05
5.99433e-05
5.71774e-05
5.49266e-05
5.30809e-05
5.15601e-05
5.03048e-05
0.0110286
0.00273233
0.0010109
0.000498315
0.000299083
0.000205164
0.000154249
0.000123675
0.000103861
9.02593e-05
8.0497e-05
7.3243e-05
6.77028e-05
6.33782e-05
5.99433e-05
5.71774e-05
5.49266e-05
5.30809e-05
5.15601e-05
5.03048e-05
0.0110286
0.00273233
0.0010109
0.000498315
0.000299084
0.000205164
0.000154249
0.000123675
0.000103861
9.02594e-05
8.04971e-05
7.32431e-05
6.77029e-05
6.33783e-05
5.99434e-05
5.71775e-05
5.49267e-05
5.3081e-05
5.15601e-05
5.03048e-05
0.0110286
0.00273233
0.0010109
0.000498316
0.000299084
0.000205164
0.000154249
0.000123675
0.000103861
9.02593e-05
8.0497e-05
7.3243e-05
6.77028e-05
6.33782e-05
5.99433e-05
5.71774e-05
5.49266e-05
5.30809e-05
5.15601e-05
5.03047e-05
0.0110286
0.00273233
0.0010109
0.000498318
0.000299085
0.000205165
0.000154251
0.000123676
0.000103862
9.02602e-05
8.04978e-05
7.32437e-05
6.77035e-05
6.33788e-05
5.99439e-05
5.71779e-05
5.4927e-05
5.30812e-05
5.15604e-05
5.0305e-05
0.000144619
0.000275851
0.000442435
0.000642259
0.000872661
0.00113029
0.00141112
0.00171057
0.00202362
0.00234505
0.00266952
0.00299187
0.00330721
0.00361111
0.00389974
0.00416996
0.00441939
0.00464647
0.00485039
0.00503112
0.0051892
0.00532568
0.00544195
0.00553962
0.00562037
0.00568591
0.00573786
0.00577778
0.00580709
0.0058271
0.00583898
0.00584381
0.00584253
0.00583601
0.005825
0.00581017
0.00579208
0.00577127
0.00574815
0.00572309
0.0056964
0.00566832
0.00563908
0.00560882
0.00557772
0.0055458
0.00551328
0.00548003
0.00544641
0.00541197
0.00537753
0.00534193
0.005307
0.00527012
0.0052352
0.00519676
0.00516259
0.00512209
0.00508964
0.00504656
0.00501686
0.00497085
0.00494466
0.00489602
0.00487352
0.00482318
0.00480409
0.00475338
0.00473747
0.00468745
0.00467507
0.00462631
0.00461777
0.00457095
0.00456636
0.00452216
0.00452093
0.00447987
0.00448032
0.00444337
4.94679e-05
4.92306e-05
4.98928e-05
5.17768e-05
5.5212e-05
6.05152e-05
6.7996e-05
7.79387e-05
9.05778e-05
0.000106086
0.000124578
0.00014611
0.000170684
0.000198225
0.000228556
0.000261371
0.000296234
0.000332618
0.000369963
0.00040776
0.000445609
0.000483261
0.000520617
0.000557703
0.000594632
0.000631557
0.000668634
0.000705999
0.000743752
0.00078195
0.000820613
0.000859727
0.000899253
0.000939128
0.000979277
0.00101961
0.00106003
0.00110044
0.00114072
0.00118079
0.00122053
0.00125986
0.00129869
0.00133695
0.0013746
0.00141158
0.00144792
0.00148358
0.00151865
0.00155313
0.00158718
0.0016209
0.00165437
0.00168802
0.00172156
0.00175621
0.00179056
0.00182766
0.00186365
0.00190496
0.00194351
0.00199085
0.0020331
0.00208796
0.00213541
0.00219858
0.0022529
0.0023245
0.00238695
0.00246661
0.00253753
0.00262404
0.00270297
0.00279351
0.00287954
0.00296939
0.00306159
0.00314418
0.0032429
0.0033075
4.91397e-05
4.80091e-05
4.69354e-05
4.59263e-05
4.49912e-05
4.41412e-05
4.33896e-05
4.27517e-05
4.22448e-05
4.18878e-05
4.17017e-05
4.17091e-05
4.19339e-05
4.24002e-05
4.31305e-05
4.41439e-05
4.54543e-05
4.70703e-05
4.89975e-05
5.12416e-05
5.38133e-05
5.67328e-05
6.00327e-05
6.376e-05
6.79758e-05
7.27542e-05
7.81807e-05
8.43497e-05
9.13628e-05
9.93257e-05
0.000108346
0.000118531
0.000129983
0.000142797
0.000157053
0.000172816
0.000190127
0.000208999
0.000229412
0.000251309
0.000274596
0.000299133
0.00032475
0.000351229
0.000378336
0.000405789
0.000433331
0.000460641
0.000487486
0.000513537
0.00053864
0.000562487
0.000585041
0.00060607
0.000625609
0.000643653
0.000660086
0.000675502
0.000689081
0.000702753
0.000714033
0.000727295
0.000737128
0.000751564
0.000761182
0.000778439
0.000789496
0.000811172
0.000825645
0.00085346
0.000873328
0.000909361
0.000936518
0.000982927
0.00101916
0.00107793
0.00112491
0.00119785
0.00125735
0.00134844
4.9136e-05
4.80015e-05
4.69187e-05
4.5891e-05
4.49226e-05
4.40179e-05
4.31819e-05
4.24202e-05
4.17391e-05
4.11455e-05
4.0647e-05
4.02522e-05
3.99701e-05
3.9811e-05
3.9786e-05
3.99072e-05
4.01877e-05
4.06418e-05
4.12852e-05
4.21352e-05
4.32114e-05
4.4536e-05
4.61343e-05
4.80356e-05
5.02731e-05
5.2885e-05
5.59143e-05
5.9409e-05
6.34224e-05
6.80127e-05
7.32429e-05
7.91801e-05
8.58941e-05
9.34567e-05
0.000101939
0.000111411
0.000121936
0.000133567
0.000146346
0.000160296
0.000175417
0.000191681
0.000209028
0.00022736
0.000246543
0.000266397
0.000286714
0.000307238
0.000327707
0.000347808
0.000367266
0.000385748
0.000403021
0.00041877
0.000432855
0.000445022
0.000455234
0.000463364
0.000469413
0.0004735
0.000475484
0.000475938
0.000474284
0.000471825
0.000467216
0.000462743
0.000456039
0.00045051
0.000442684
0.00043708
0.000429116
0.000424502
0.000417371
0.000414898
0.000409579
0.000410545
0.000408153
0.000414249
0.000416349
0.00043285
4.91336e-05
4.79984e-05
4.69146e-05
4.58858e-05
4.49157e-05
4.40088e-05
4.317e-05
4.24047e-05
4.17188e-05
4.1119e-05
4.06125e-05
4.02071e-05
3.99116e-05
3.97354e-05
3.96888e-05
3.97832e-05
4.0031e-05
4.0446e-05
4.10436e-05
4.18407e-05
4.28568e-05
4.41136e-05
4.56355e-05
4.74502e-05
4.95891e-05
5.20871e-05
5.49834e-05
5.83209e-05
6.21466e-05
6.65114e-05
7.1469e-05
7.70756e-05
8.33888e-05
9.04663e-05
9.83642e-05
0.000107135
0.000116826
0.000127477
0.000139115
0.000151754
0.000165392
0.000180007
0.000195551
0.000211951
0.000229106
0.000246882
0.000265115
0.000283609
0.000302144
0.000320468
0.000338327
0.000355437
0.000371545
0.000386369
0.000399703
0.000411301
0.000421044
0.000428755
0.000434417
0.000437947
0.000439413
0.000438848
0.000436355
0.000432099
0.000426157
0.000418831
0.000410118
0.000400449
0.000389709
0.000378441
0.000366399
0.000354238
0.000341549
0.000329127
0.000316349
0.000304221
0.000291834
0.000280525
0.000269016
0.000259759
4.91314e-05
4.79955e-05
4.69109e-05
4.58809e-05
4.49095e-05
4.4001e-05
4.31601e-05
4.23922e-05
4.17033e-05
4.10997e-05
4.05887e-05
4.0178e-05
3.98761e-05
3.96922e-05
3.96366e-05
3.97204e-05
3.99558e-05
4.03563e-05
4.0937e-05
4.17147e-05
4.27083e-05
4.39389e-05
4.54308e-05
4.72111e-05
4.93102e-05
5.17627e-05
5.46064e-05
5.78834e-05
6.16395e-05
6.59236e-05
7.07877e-05
7.62856e-05
8.24722e-05
8.94019e-05
9.7127e-05
0.000105696
0.00011515
0.000125524
0.00013684
0.000149106
0.000162315
0.000176439
0.000191431
0.000207218
0.000223702
0.000240758
0.000258235
0.000275957
0.000293724
0.000311311
0.000328491
0.000345009
0.000360632
0.000375106
0.000388227
0.000399769
0.000409594
0.000417532
0.000423532
0.0004275
0.000429471
0.000429439
0.000427507
0.000423752
0.000418319
0.000411346
0.000402997
0.000393448
0.000382858
0.000371416
0.000359265
0.000346588
0.000333499
0.000320169
0.000306675
0.000293179
0.000279714
0.000266439
0.000253347
0.000240684
4.91293e-05
4.79928e-05
4.69074e-05
4.58765e-05
4.49038e-05
4.39937e-05
4.31509e-05
4.23808e-05
4.16891e-05
4.10822e-05
4.05672e-05
4.01517e-05
3.9844e-05
3.96534e-05
3.95896e-05
3.96637e-05
3.98877e-05