/*--------------------------------*- C++ -*----------------------------------*\
| =========                 |                                                 |
| \\      /  F ield         | OpenFOAM: The Open Source CFD Toolbox           |
|  \\    /   O peration     | Version:  2.4.0                                 |
|   \\  /    A nd           | Web:      www.OpenFOAM.org                      |
|    \\/     M anipulation  |                                                 |
\*---------------------------------------------------------------------------*/
FoamFile
{
    version     2.0;
    format      ascii;
    class       surfaceScalarField;
    location    "340";
    object      phi;
}
// * * * * * * * * * * * * * * * * * * * * * * * * * * * * * * * * * * * * * //

dimensions      [0 3 -1 0 0 0 0];

internalField   nonuniform List<scalar> 
19800
(
0.000192436
-6.8843e-08
0.000192405
3.13318e-08
0.000192407
-2.49034e-09
0.000192391
1.56792e-08
0.000192382
9.21292e-09
0.000192368
1.43596e-08
0.000192353
1.52061e-08
0.000192338
1.48315e-08
0.000192318
2.01358e-08
0.000192302
1.57856e-08
0.000192276
2.54785e-08
0.000192259
1.70213e-08
0.000192227
3.26246e-08
0.000192208
1.87784e-08
0.000192164
4.37048e-08
0.000192141
2.28993e-08
0.000192078
6.30075e-08
0.00019204
3.82696e-08
0.000191934
1.05809e-07
9.86571e-08
0.000191836
0.000197632
7.03393e-10
0.000197656
8.05086e-09
0.000197634
1.88041e-08
0.000197634
1.57673e-08
0.000197615
2.80813e-08
0.000197608
2.13595e-08
0.000197588
3.57249e-08
0.000197577
2.57005e-08
0.000197554
4.34496e-08
0.00019754
2.9628e-08
0.000197513
5.25634e-08
0.000197496
3.39407e-08
0.000197464
6.47581e-08
0.000197442
4.01853e-08
0.000197403
8.28157e-08
0.000197373
5.27741e-08
0.000197323
1.12884e-07
0.000197277
8.49737e-08
0.000197209
1.73227e-07
1.7139e-07
0.000197136
0.000203176
8.84439e-09
0.000203173
1.12624e-08
0.000203162
2.95925e-08
0.000203154
2.38505e-08
0.000203139
4.30191e-08
0.000203128
3.25188e-08
0.000203109
5.42981e-08
0.000203096
3.9336e-08
0.000203074
6.55492e-08
0.000203058
4.57804e-08
0.000203032
7.83232e-08
0.000203012
5.35024e-08
0.000202983
9.42599e-08
0.000202957
6.55381e-08
0.000202924
1.15824e-07
0.000202889
8.81948e-08
0.000202853
1.48656e-07
0.000202805
1.33085e-07
0.000202775
2.03837e-07
2.09442e-07
0.000202736
0.000208815
1.24079e-08
0.000208812
1.51237e-08
0.000208801
4.00546e-08
0.000208793
3.22607e-08
0.000208778
5.80094e-08
0.000208766
4.41158e-08
0.000208748
7.29013e-08
0.000208733
5.36586e-08
0.000208711
8.73663e-08
0.000208694
6.30598e-08
0.000208669
1.03062e-07
0.000208648
7.48074e-08
0.000208621
1.21428e-07
0.000208594
9.28735e-08
0.000208565
1.4454e-07
0.00020853
1.2335e-07
0.000208502
1.76626e-07
0.000208463
1.72063e-07
0.000208445
2.21217e-07
2.3328e-07
0.000208422
0.000214605
1.75563e-08
0.000214601
1.85706e-08
0.00021459
5.08711e-08
0.000214582
4.09002e-08
0.000214567
7.31618e-08
0.000214555
5.62563e-08
0.000214536
9.14115e-08
0.000214521
6.88935e-08
0.0002145
1.0858e-07
0.000214481
8.17645e-08
0.000214458
1.26292e-07
0.000214434
9.80268e-08
0.00021441
1.45816e-07
0.000214381
1.21669e-07
0.000214357
1.69111e-07
0.000214324
1.56534e-07
0.000214301
1.9909e-07
0.000214271
2.02046e-07
0.000214258
2.34423e-07
2.45739e-07
0.000214245
0.000220552
2.65411e-08
0.00022055
2.06782e-08
0.000220539
6.24629e-08
0.00022053
4.94569e-08
0.000220515
8.86502e-08
0.000220502
6.87451e-08
0.000220484
1.09925e-07
0.000220468
8.48328e-08
0.000220447
1.29302e-07
0.000220427
1.01492e-07
0.000220405
1.48325e-07
0.000220381
1.22218e-07
0.000220359
1.6822e-07
0.00022033
1.50166e-07
0.000220308
1.90896e-07
0.000220279
1.86099e-07
0.00022026
2.17843e-07
0.000220237
2.24636e-07
0.000220228
2.44333e-07
2.51891e-07
0.000220221
0.000226676
2.83545e-08
0.000226671
2.57886e-08
0.000226661
7.28305e-08
0.000226651
5.931e-08
0.000226636
1.03541e-07
0.000226622
8.23705e-08
0.000226604
1.27796e-07
0.000226587
1.02004e-07
0.000226567
1.49049e-07
0.000226546
1.22468e-07
0.000226526
1.6895e-07
0.000226501
1.47065e-07
0.00022648
1.8891e-07
0.000226453
1.77436e-07
0.000226433
2.10695e-07
0.000226408
2.11428e-07
0.000226392
2.34053e-07
0.000226375
2.41236e-07
0.000226367
2.52041e-07
2.55087e-07
0.000226364
0.000232962
3.02563e-08
0.000232957
3.09749e-08
0.000232946
8.33112e-08
0.000232936
6.95192e-08
0.000232921
1.18425e-07
0.000232907
9.65912e-08
0.00023289
1.45389e-07
0.000232872
1.19959e-07
0.000232853
1.68128e-07
0.000232831
1.44144e-07
0.000232811
1.88547e-07
0.000232787
1.71803e-07
0.000232767
2.08339e-07
0.000232742
2.02773e-07
0.000232724
2.28872e-07
0.000232702
2.32735e-07
0.000232688
2.48064e-07
0.000232676
2.53497e-07
0.00023267
2.58017e-07
2.56634e-07
0.000232668
0.000239421
3.3486e-08
0.000239416
3.59516e-08
0.000239406
9.39918e-08
0.000239395
8.00809e-08
0.00023938
1.33256e-07
0.000239365
1.11416e-07
0.000239348
1.62653e-07
0.000239329
1.38596e-07
0.000239311
1.86595e-07
0.000239289
1.66167e-07
0.00023927
2.07353e-07
0.000239246
1.95831e-07
0.000239228
2.26837e-07
0.000239205
2.25754e-07
0.000239188
2.45649e-07
0.00023917
2.50459e-07
0.000239158
2.60086e-07
0.000239149
2.62678e-07
0.000239145
2.62494e-07
2.57267e-07
0.000239144
0.00024606
3.71509e-08
0.000246055
4.10403e-08
0.000246045
1.0472e-07
0.000246034
9.10729e-08
0.000246019
1.47958e-07
0.000246004
1.26843e-07
0.000245987
1.79552e-07
0.000245967
1.57795e-07
0.00024595
2.04489e-07
0.000245927
1.88246e-07
0.000245909
2.25489e-07
0.000245886
2.18799e-07
0.000245869
2.44481e-07
0.000245848
2.46342e-07
0.000245833
2.61025e-07
0.000245818
2.65191e-07
0.000245808
2.70268e-07
0.000245801
2.69655e-07
0.000245798
2.65753e-07
2.5736e-07
0.000245797
0.000252884
4.08472e-08
0.000252879
4.63991e-08
0.000252868
1.15387e-07
0.000252857
1.02539e-07
0.000252842
1.62472e-07
0.000252826
1.42828e-07
0.00025281
1.96095e-07
0.00025279
1.77369e-07
0.000252773
2.21913e-07
0.000252751
2.10056e-07
0.000252733
2.43081e-07
0.000252712
2.40429e-07
0.000252695
2.61294e-07
0.000252677
2.64633e-07
0.000252663
2.74974e-07
0.00025265
2.77472e-07
0.000252642
2.78778e-07
0.000252636
2.75012e-07
0.000252634
2.68045e-07
2.57076e-07
0.000252634
0.000259897
4.44687e-08
0.000259892
5.20644e-08
0.000259881
1.25949e-07
0.000259869
1.14479e-07
0.000259855
1.76769e-07
0.000259838
1.59303e-07
0.000259822
2.12294e-07
0.000259802
1.97142e-07
0.000259785
2.38931e-07
0.000259764
2.31344e-07
0.000259747
2.60176e-07
0.000259727
2.60588e-07
0.000259711
2.77229e-07
0.000259695
2.80816e-07
0.000259682
2.87487e-07
0.000259672
2.8775e-07
0.000259665
2.85808e-07
0.000259661
2.79138e-07
0.000259659
2.69579e-07
2.56509e-07
0.00025966
0.000267105
4.801e-08
0.000267099
5.80361e-08
0.000267088
1.36391e-07
0.000267076
1.26856e-07
0.000267062
1.90853e-07
0.000267045
1.7616e-07
0.000267029
2.28198e-07
0.000267009
2.16914e-07
0.000266993
2.5561e-07
0.000266972
2.51898e-07
0.000266956
2.76774e-07
0.000266937
2.79228e-07
0.000266922
2.92212e-07
0.000266908
2.95107e-07
0.000266897
2.9859e-07
0.000266888
2.9637e-07
0.000266882
2.91558e-07
0.000266879
2.82288e-07
0.000266878
2.70517e-07
2.55716e-07
0.000266879
0.000274512
5.14316e-08
0.000274506
6.43273e-08
0.000274496
1.46688e-07
0.000274483
1.39642e-07
0.000274469
2.04723e-07
0.000274452
1.93297e-07
0.000274436
2.43838e-07
0.000274417
2.36509e-07
0.0002744
2.71982e-07
0.000274381
2.71568e-07
0.000274365
2.92835e-07
0.000274347
2.96371e-07
0.000274333
3.06172e-07
0.000274321
3.07715e-07
0.000274311
3.08342e-07
0.000274304
3.03602e-07
0.000274299
2.96212e-07
0.000274297
2.8465e-07
0.000274296
2.70979e-07
2.54738e-07
0.000274297
0.000282125
5.4741e-08
0.000282119
7.09238e-08
0.000282108
1.56833e-07
0.000282095
1.5278e-07
0.000282082
2.18391e-07
0.000282064
2.1059e-07
0.000282049
2.5925e-07
0.00028203
2.55765e-07
0.000282014
2.88051e-07
0.000281995
2.90256e-07
0.000281979
3.08292e-07
0.000281964
3.12076e-07
0.000281951
3.1906e-07
0.00028194
3.18827e-07
0.000281931
3.16832e-07
0.000281925
3.0965e-07
0.000281921
2.99932e-07
0.00028192
2.86359e-07
0.00028192
2.71055e-07
2.53605e-07
0.000281921
0.000289949
5.79087e-08
0.000289942
7.78215e-08
0.000289932
1.66817e-07
0.000289919
1.66215e-07
0.000289905
2.31871e-07
0.000289888
2.27923e-07
0.000289873
2.74454e-07
0.000289854
2.74546e-07
0.000289838
3.03794e-07
0.000289821
3.07906e-07
0.000289806
3.23068e-07
0.000289792
3.26421e-07
0.00028978
3.30848e-07
0.00028977
3.28604e-07
0.000289763
3.2416e-07
0.000289758
3.14679e-07
0.000289755
3.02856e-07
0.000289754
2.87519e-07
0.000289754
2.70809e-07
2.5234e-07
0.000289755
0.00029799
6.09417e-08
0.000297983
8.4997e-08
0.000297973
1.7664e-07
0.000297959
1.79877e-07
0.000297946
2.45178e-07
0.000297929
2.45178e-07
0.000297914
2.89461e-07
0.000297896
2.92741e-07
0.00029788
3.1917e-07
0.000297864
3.24497e-07
0.00029785
3.37088e-07
0.000297837
3.39489e-07
0.000297826
3.41538e-07
0.000297817
3.37177e-07
0.000297811
3.30433e-07
0.000297807
3.18817e-07
0.000297805
3.05098e-07
0.000297804
2.88213e-07
0.000297805
2.70291e-07
2.50958e-07
0.000297806
0.000306254
6.38217e-08
0.000306247
9.24294e-08
0.000306237
1.86303e-07
0.000306223
1.93693e-07
0.00030621
2.58325e-07
0.000306193
2.62245e-07
0.000306178
3.04262e-07
0.000306161
3.10265e-07
0.000306146
3.34117e-07
0.00030613
3.40029e-07
0.000306117
3.50288e-07
0.000306105
3.5136e-07
0.000306095
3.51153e-07
0.000306088
3.44662e-07
0.000306083
3.35751e-07
0.000306079
3.22175e-07
0.000306078
3.06749e-07
0.000306077
2.88507e-07
0.000306078
2.69538e-07
2.49475e-07
0.00030608
0.000314747
6.65567e-08
0.00031474
1.00085e-07
0.00031473
1.95812e-07
0.000314716
2.07584e-07
0.000314703
2.7132e-07
0.000314686
2.79022e-07
0.000314672
3.18836e-07
0.000314655
3.27054e-07
0.000314641
3.48571e-07
0.000314626
3.54517e-07
0.000314614
3.62619e-07
0.000314603
3.62106e-07
0.000314594
3.59732e-07
0.000314588
3.51154e-07
0.000314583
3.40209e-07
0.000314581
3.24841e-07
0.00031458
3.07886e-07
0.00031458
2.88454e-07
0.000314581
2.68581e-07
2.47899e-07
0.000314582
0.000323476
6.91385e-08
0.000323468
1.07928e-07
0.000323459
2.05172e-07
0.000323445
2.21474e-07
0.000323432
2.84164e-07
0.000323416
2.95422e-07
0.000323401
3.33148e-07
0.000323385
3.43065e-07
0.000323371
3.6246e-07
0.000323358
3.67986e-07
0.000323346
3.74047e-07
0.000323337
3.71795e-07
0.000323329
3.67323e-07
0.000323324
3.56738e-07
0.00032332
3.43891e-07
0.000323318
3.26893e-07
0.000323317
3.08569e-07
0.000323318
2.88095e-07
0.000323319
2.67443e-07
2.46238e-07
0.00032332
0.000332447
7.15771e-08
0.000332439
1.15917e-07
0.000332429
2.14389e-07
0.000332416
2.35282e-07
0.000332403
2.96851e-07
0.000332387
3.11366e-07
0.000332373
3.47154e-07
0.000332358
3.5827e-07
0.000332345
3.7572e-07
0.000332332
3.80461e-07
0.000332322
3.8456e-07
0.000332313
3.80483e-07
0.000332306
3.73982e-07
0.000332301
3.61488e-07
0.000332298
3.46874e-07
0.000332297
3.28397e-07
0.000332297
3.08853e-07
0.000332297
2.87467e-07
0.000332299
2.66143e-07
2.44498e-07
0.0003323
0.000341666
7.38723e-08
0.000341658
1.24008e-07
0.000341649
2.23469e-07
0.000341635
2.48935e-07
0.000341623
3.09364e-07
0.000341607
3.26791e-07
0.000341594
3.60797e-07
0.000341579
3.72651e-07
0.000341567
3.88292e-07
0.000341555
3.9197e-07
0.000341546
3.94151e-07
0.000341538
3.88225e-07
0.000341532
3.79764e-07
0.000341528
3.65473e-07
0.000341526
3.49222e-07
0.000341525
3.29409e-07
0.000341525
3.08778e-07
0.000341526
2.86597e-07
0.000341527
2.64695e-07
2.42685e-07
0.000341529
0.000351141
7.60361e-08
0.000351133
1.32151e-07
0.000351124
2.32413e-07
0.000351111
2.62361e-07
0.000351098
3.21682e-07
0.000351084
3.41641e-07
0.00035107
3.74022e-07
0.000351057
3.86198e-07
0.000351045
4.00129e-07
0.000351034
4.02536e-07
0.000351026
4.02835e-07
0.000351019
3.95069e-07
0.000351014
3.84726e-07
0.000351011
3.6875e-07
0.000351009
3.50994e-07
0.000351008
3.29977e-07
0.000351009
3.08381e-07
0.00035101
2.8551e-07
0.000351011
2.63114e-07
2.40801e-07
0.000351013
0.000360879
7.80734e-08
0.000360871
1.40298e-07
0.000360862
2.4122e-07
0.000360849
2.75493e-07
0.000360837
3.33771e-07
0.000360823
3.55876e-07
0.00036081
3.86768e-07
0.000360797
3.98909e-07
0.000360786
4.11189e-07
0.000360777
4.12187e-07
0.000360769
4.10626e-07
0.000360763
4.01061e-07
0.000360759
3.88919e-07
0.000360756
3.71377e-07
0.000360755
3.52238e-07
0.000360755
3.30143e-07
0.000360755
3.07692e-07
0.000360757
2.84224e-07
0.000360758
2.61408e-07
2.38851e-07
0.00036076
0.000370887
7.99971e-08
0.000370879
1.48398e-07
0.00037087
2.49885e-07
0.000370858
2.88273e-07
0.000370846
3.45594e-07
0.000370832
3.69458e-07
0.00037082
3.98977e-07
0.000370808
4.10782e-07
0.000370798
4.21446e-07
0.000370789
4.20943e-07
0.000370782
4.17552e-07
0.000370777
4.06244e-07
0.000370773
3.92395e-07
0.000370771
3.73402e-07
0.000370771
3.53002e-07
0.000370771
3.29942e-07
0.000370772
3.06738e-07
0.000370773
2.82757e-07
0.000370775
2.59588e-07
2.36836e-07
0.000370777
0.000381173
8.18147e-08
0.000381165
1.56404e-07
0.000381156
2.58397e-07
0.000381144
3.00646e-07
0.000381132
3.57107e-07
0.000381119
3.82362e-07
0.000381108
4.10595e-07
0.000381097
4.21818e-07
0.000381087
4.30881e-07
0.000381079
4.2883e-07
0.000381073
4.23639e-07
0.000381069
4.10661e-07
0.000381066
3.95199e-07
0.000381064
3.74869e-07
0.000381064
3.53322e-07
0.000381065
3.29405e-07
0.000381066
3.0554e-07
0.000381068
2.81123e-07
0.000381069
2.5766e-07
2.3476e-07
0.000381072
0.000391743
8.35381e-08
0.000391735
1.64266e-07
0.000391727
2.6674e-07
0.000391715
3.12566e-07
0.000391704
3.68264e-07
0.000391692
3.94565e-07
0.000391681
4.21573e-07
0.000391671
4.32018e-07
0.000391662
4.39486e-07
0.000391655
4.35867e-07
0.00039165
4.2892e-07
0.000391646
4.14349e-07
0.000391644
3.97376e-07
0.000391643
3.75819e-07
0.000391643
3.53235e-07
0.000391644
3.28559e-07
0.000391645
3.04118e-07
0.000391647
2.79334e-07
0.000391649
2.55631e-07
2.32623e-07
0.000391651
0.000402607
8.51746e-08
0.000402599
1.71941e-07
0.000402591
2.74895e-07
0.00040258
3.23991e-07
0.000402569
3.79014e-07
0.000402558
4.06049e-07
0.000402547
4.31868e-07
0.000402538
4.41387e-07
0.00040253
4.47259e-07
0.000402524
4.42079e-07
0.000402519
4.33425e-07
0.000402516
4.17349e-07
0.000402515
3.98964e-07
0.000402514
3.76288e-07
0.000402515
3.52769e-07
0.000402516
3.27428e-07
0.000402518
3.02488e-07
0.000402519
2.774e-07
0.000402522
2.53507e-07
2.30428e-07
0.000402524
0.000413772
8.67337e-08
0.000413765
1.79387e-07
0.000413757
2.82837e-07
0.000413746
3.34886e-07
0.000413735
3.89308e-07
0.000413725
4.16799e-07
0.000413715
4.41446e-07
0.000413707
4.49927e-07
0.0004137
4.54205e-07
0.000413694
4.47487e-07
0.00041369
4.37189e-07
0.000413688
4.19695e-07
0.000413687
4e-07
0.000413687
3.7631e-07
0.000413688
3.51952e-07
0.000413689
3.26031e-07
0.000413691
3.00664e-07
0.000413693
2.7533e-07
0.000413695
2.51291e-07
2.28177e-07
0.000413698
0.000425247
8.82204e-08
0.00042524
1.86565e-07
0.000425232
2.90538e-07
0.000425222
3.45221e-07
0.000425212
3.99099e-07
0.000425202
4.26804e-07
0.000425193
4.50277e-07
0.000425185
4.57643e-07
0.000425179
4.60333e-07
0.000425174
4.52116e-07
0.000425171
4.40241e-07
0.00042517
4.21422e-07
0.000425169
4.00518e-07
0.00042517
3.75913e-07
0.000425171
3.50809e-07
0.000425172
3.24388e-07
0.000425174
2.98659e-07
0.000425177
2.73132e-07
0.000425179
2.48989e-07
2.2587e-07
0.000425181
0.00043704
8.96404e-08
0.000437033
1.93442e-07
0.000437025
2.97966e-07
0.000437016
3.54971e-07
0.000437006
4.08342e-07
0.000436997
4.36053e-07
0.000436989
4.58342e-07
0.000436982
4.6454e-07
0.000436977
4.65657e-07
0.000436973
4.5599e-07
0.000436971
4.42614e-07
0.000436969
4.22562e-07
0.000436969
4.00549e-07
0.00043697
3.75124e-07
0.000436972
3.49361e-07
0.000436973
3.22513e-07
0.000436976
2.96485e-07
0.000436978
2.70812e-07
0.00043698
2.46603e-07
2.23508e-07
0.000436983
0.00044916
9.09954e-08
0.000449153
1.99987e-07
0.000449146
3.05088e-07
0.000449137
3.64112e-07
0.000449128
4.16994e-07
0.00044912
4.44537e-07
0.000449112
4.65624e-07
0.000449106
4.70626e-07
0.000449102
4.70194e-07
0.000449099
4.59135e-07
0.000449097
4.44338e-07
0.000449096
4.23148e-07
0.000449097
4.00121e-07
0.000449098
3.73968e-07
0.0004491
3.47627e-07
0.000449102
3.20422e-07
0.000449104
2.9415e-07
0.000449106
2.68378e-07
0.000449109
2.44137e-07
2.21093e-07
0.000449111
0.000461616
9.22868e-08
0.000461609
2.06175e-07
0.000461603
3.1187e-07
0.000461594
3.72627e-07
0.000461586
4.25019e-07
0.000461578
4.52248e-07
0.000461572
4.72116e-07
0.000461567
4.7591e-07
0.000461563
4.73962e-07
0.00046156
4.61574e-07
0.000461559
4.45442e-07
0.000461559
4.23206e-07
0.00046156
3.99261e-07
0.000461562
3.72466e-07
0.000461564
3.45626e-07
0.000461566
3.18126e-07
0.000461568
2.91664e-07
0.000461571
2.65834e-07
0.000461573
2.41595e-07
2.18625e-07
0.000461576
0.000474417
9.35125e-08
0.000474411
2.11984e-07
0.000474405
3.18277e-07
0.000474397
3.80499e-07
0.00047439
4.32386e-07
0.000474383
4.59182e-07
0.000474377
4.77813e-07
0.000474372
4.80404e-07
0.000474369
4.76982e-07
0.000474368
4.63335e-07
0.000474367
4.45955e-07
0.000474368
4.22765e-07
0.000474369
3.97994e-07
0.000474371
3.7064e-07
0.000474373
3.43371e-07
0.000474375
3.15639e-07
0.000474378
2.89035e-07
0.000474381
2.63185e-07
0.000474383
2.38978e-07
2.16106e-07
0.000474386
0.000487573
9.46701e-08
0.000487568
2.17395e-07
0.000487562
3.24276e-07
0.000487555
3.87713e-07
0.000487548
4.39067e-07
0.000487542
4.65334e-07
0.000487537
4.82719e-07
0.000487533
4.84119e-07
0.000487531
4.79276e-07
0.00048753
4.64442e-07
0.00048753
4.45904e-07
0.000487531
4.21851e-07
0.000487533
3.96342e-07
0.000487535
3.68507e-07
0.000487537
3.40879e-07
0.00048754
3.12969e-07
0.000487543
2.86271e-07
0.000487545
2.60436e-07
0.000487548
2.36289e-07
2.13536e-07
0.000487551
0.000501095
9.57543e-08
0.00050109
2.22394e-07
0.000501084
3.29834e-07
0.000501078
3.9426e-07
0.000501072
4.45042e-07
0.000501066
4.70704e-07
0.000501062
4.86836e-07
0.000501059
4.87071e-07
0.000501058
4.80865e-07
0.000501057
4.64922e-07
0.000501058
4.45315e-07
0.000501059
4.20487e-07
0.000501061
3.94325e-07
0.000501064
3.66084e-07
0.000501066
3.38162e-07
0.000501069
3.10127e-07
0.000501072
2.83377e-07
0.000501075
2.57592e-07
0.000501078
2.3353e-07
2.10916e-07
0.00050108
0.000514991
9.67599e-08
0.000514986
2.26969e-07
0.000514981
3.34924e-07
0.000514975
4.00128e-07
0.00051497
4.50295e-07
0.000514966
4.75291e-07
0.000514962
4.90175e-07
0.00051496
4.89277e-07
0.000514959
4.81774e-07
0.000514959
4.64798e-07
0.00051496
4.44213e-07
0.000514962
4.18696e-07
0.000514965
3.91965e-07
0.000514967
3.63388e-07
0.00051497
3.35232e-07
0.000514973
3.07121e-07
0.000514976
2.80359e-07
0.000514979
2.54655e-07
0.000514982
2.30704e-07
2.08248e-07
0.000514985
0.000529273
9.76797e-08
0.000529268
2.31111e-07
0.000529264
3.39519e-07
0.000529259
4.05311e-07
0.000529254
4.54815e-07
0.00052925
4.791e-07
0.000529248
4.92747e-07
0.000529246
4.90755e-07
0.000529246
4.82025e-07
0.000529247
4.64097e-07
0.000529248
4.42624e-07
0.000529251
4.16501e-07
0.000529253
3.89279e-07
0.000529256
3.60432e-07
0.000529259
3.321e-07
0.000529262
3.03959e-07
0.000529266
2.77224e-07
0.000529269
2.51629e-07
0.000529272
2.27813e-07
2.05532e-07
0.000529274
0.00054395
9.85068e-08
0.000543947
2.34813e-07
0.000543943
3.43596e-07
0.000543938
4.09802e-07
0.000543934
4.58596e-07
0.000543931
4.82134e-07
0.000543929
4.94566e-07
0.000543929
4.91524e-07
0.000543929
4.81642e-07
0.00054393
4.62842e-07
0.000543932
4.4057e-07
0.000543935
4.13921e-07
0.000543938
3.86284e-07
0.000543941
3.5723e-07
0.000543944
3.28778e-07
0.000543948
3.0065e-07
0.000543951
2.73977e-07
0.000543954
2.48519e-07
0.000543957
2.24859e-07
2.02769e-07
0.00054396
0.000559035
9.92337e-08
0.000559032
2.38071e-07
0.000559028
3.47138e-07
0.000559024
4.13599e-07
0.000559021
4.61638e-07
0.000559019
4.84404e-07
0.000559018
4.95648e-07
0.000559018
4.91606e-07
0.000559019
4.80651e-07
0.000559021
4.61058e-07
0.000559023
4.38073e-07
0.000559026
4.10976e-07
0.000559029
3.82996e-07
0.000559033
3.53795e-07
0.000559036
3.25274e-07
0.00055904
2.97199e-07
0.000559043
2.70622e-07
0.000559046
2.45326e-07
0.000559049
2.21844e-07
1.99961e-07
0.000559052
0.000574538
9.98532e-08
0.000574535
2.40882e-07
0.000574532
3.50129e-07
0.000574529
4.16699e-07
0.000574527
4.63944e-07
0.000574525
4.8592e-07
0.000574525
4.96012e-07
0.000574526
4.91022e-07
0.000574527
4.79074e-07
0.000574529
4.58768e-07
0.000574532
4.35156e-07
0.000574536
4.07684e-07
0.000574539
3.79432e-07
0.000574543
3.50139e-07
0.000574547
3.21598e-07
0.00057455
2.93614e-07
0.000574554
2.67165e-07
0.000574557
2.42055e-07
0.00057456
2.1877e-07
1.97107e-07
0.000574563
0.000590471
1.00358e-07
0.000590469
2.43246e-07
0.000590466
3.5256e-07
0.000590464
4.19106e-07
0.000590462
4.65518e-07
0.000590462
4.86696e-07
0.000590462
4.95679e-07
0.000590463
4.89797e-07
0.000590465
4.76937e-07
0.000590468
4.55995e-07
0.000590471
4.3184e-07
0.000590475
4.04064e-07
0.000590479
3.75605e-07
0.000590483
3.46274e-07
0.000590486
3.17759e-07
0.00059049
2.89902e-07
0.000590494
2.6361e-07
0.000590497
2.38708e-07
0.0005905
2.15638e-07
1.94211e-07
0.000590503
0.000606846
1.00744e-07
0.000606844
2.45164e-07
0.000606842
3.54425e-07
0.00060684
4.20823e-07
0.00060684
4.66373e-07
0.00060684
4.86747e-07
0.000606841
4.94668e-07
0.000606842
4.87952e-07
0.000606845
4.74263e-07
0.000606848
4.52762e-07
0.000606852
4.28143e-07
0.000606856
4.00132e-07
0.00060686
3.71529e-07
0.000606864
3.42209e-07
0.000606868
3.13764e-07
0.000606872
2.86067e-07
0.000606876
2.59961e-07
0.000606879
2.35289e-07
0.000606882
2.12452e-07
1.91272e-07
0.000606885
0.000623675
1.01004e-07
0.000623673
2.46637e-07
0.000623672
3.55721e-07
0.000623671
4.21857e-07
0.000623671
4.66519e-07
0.000623672
4.86092e-07
0.000623673
4.93004e-07
0.000623676
4.85514e-07
0.000623679
4.71076e-07
0.000623683
4.49091e-07
0.000623687
4.24087e-07
0.000623691
3.95904e-07
0.000623695
3.67218e-07
0.000623699
3.37956e-07
0.000623704
3.09623e-07
0.000623707
2.82117e-07
0.000623711
2.56223e-07
0.000623715
2.31801e-07
0.000623718
2.09212e-07
1.88292e-07
0.000623721
0.000640971
1.01134e-07
0.000640969
2.47671e-07
0.000640969
3.5645e-07
0.000640968
4.22217e-07
0.000640969
4.65974e-07
0.00064097
4.84751e-07
0.000640973
4.9071e-07
0.000640976
4.82506e-07
0.000640979
4.67402e-07
0.000640983
4.45004e-07
0.000640988
4.1969e-07
0.000640992
3.91397e-07
0.000640997
3.62684e-07
0.000641001
3.33525e-07
0.000641005
3.05341e-07
0.00064101
2.78057e-07
0.000641013
2.524e-07
0.000641017
2.28246e-07
0.00064102
2.05922e-07
1.85273e-07
0.000641023
0.000658746
1.01132e-07
0.000658745
2.4827e-07
0.000658745
3.56617e-07
0.000658745
4.21916e-07
0.000658747
4.64755e-07
0.000658749
4.82746e-07
0.000658751
4.87811e-07
0.000658755
4.78953e-07
0.000658759
4.63263e-07
0.000658764
4.40523e-07
0.000658768
4.1497e-07
0.000658773
3.86626e-07
0.000658778
3.57939e-07
0.000658782
3.28926e-07
0.000658787
3.00928e-07
0.000658791
2.73892e-07
0.000658795
2.48497e-07
0.000658799
2.24627e-07
0.000658802
2.02583e-07
1.82216e-07
0.000658805
0.000677014
1.00997e-07
0.000677014
2.48442e-07
0.000677014
3.56231e-07
0.000677015
4.20969e-07
0.000677017
4.62883e-07
0.00067702
4.80102e-07
0.000677023
4.84332e-07
0.000677027
4.74882e-07
0.000677032
4.58683e-07
0.000677037
4.35669e-07
0.000677042
4.09946e-07
0.000677047
3.81605e-07
0.000677052
3.52997e-07
0.000677056
3.24167e-07
0.000677061
2.96391e-07
0.000677065
2.69629e-07
0.000677069
2.44516e-07
0.000677073
2.20948e-07
0.000677076
1.99197e-07
1.79122e-07
0.000677079
0.000695789
1.00726e-07
0.000695789
2.48196e-07
0.00069579
3.55302e-07
0.000695792
4.19394e-07
0.000695794
4.60379e-07
0.000695797
4.76843e-07
0.000695801
4.80299e-07
0.000695806
4.70318e-07
0.000695811
4.53685e-07
0.000695816
4.30461e-07
0.000695821
4.04634e-07
0.000695827
3.76349e-07
0.000695832
3.47867e-07
0.000695837
3.19258e-07
0.000695841
2.91735e-07
0.000695846
2.65272e-07
0.00069585
2.40463e-07
0.000695854
2.17212e-07
0.000695857
1.95767e-07
1.75994e-07
0.00069586
0.000715084
1.00322e-07
0.000715085
2.47543e-07
0.000715086
3.53844e-07
0.000715089
4.17209e-07
0.000715092
4.57268e-07
0.000715096
4.72997e-07
0.0007151
4.75739e-07
0.000715105
4.65286e-07
0.000715111
4.48293e-07
0.000715116
4.24922e-07
0.000715122
3.99052e-07
0.000715127
3.70872e-07
0.000715132
3.42561e-07
0.000715137
3.14208e-07
0.000715142
2.86969e-07
0.000715147
2.60827e-07
0.000715151
2.36341e-07
0.000715155
2.13422e-07
0.000715158
1.92295e-07
1.72832e-07
0.000715161
0.000734915
9.9785e-08
0.000734916
2.46493e-07
0.000734918
3.51873e-07
0.000734921
4.14438e-07
0.000734924
4.53575e-07
0.000734929
4.68591e-07
0.000734934
4.70679e-07
0.000734939
4.59813e-07
0.000734945
4.4253e-07
0.000734951
4.19069e-07
0.000734957
3.93217e-07
0.000734962
3.65188e-07
0.000734968
3.37092e-07
0.000734973
3.09026e-07
0.000734978
2.821e-07
0.000734982
2.563e-07
0.000734987
2.32156e-07
0.00073499
2.09581e-07
0.000734994
1.88784e-07
1.6964e-07
0.000734997
0.000755295
9.9118e-08
0.000755297
2.45061e-07
0.000755299
3.49407e-07
0.000755303
4.11104e-07
0.000755307
4.49326e-07
0.000755312
4.63652e-07
0.000755317
4.65147e-07
0.000755323
4.53924e-07
0.000755329
4.36417e-07
0.000755335
4.12925e-07
0.000755341
3.87144e-07
0.000755347
3.5931e-07
0.000755353
3.31468e-07
0.000755358
3.0372e-07
0.000755363
2.77133e-07
0.000755368
2.51695e-07
0.000755372
2.2791e-07
0.000755376
2.05692e-07
0.00075538
1.85235e-07
1.66418e-07
0.000755383
0.000776241
9.83242e-08
0.000776243
2.43261e-07
0.000776246
3.46467e-07
0.00077625
4.07233e-07
0.000776254
4.44549e-07
0.00077626
4.58212e-07
0.000776266
4.5917e-07
0.000776272
4.47644e-07
0.000776278
4.29978e-07
0.000776285
4.06507e-07
0.000776291
3.8085e-07
0.000776297
3.53252e-07
0.000776303
3.25701e-07
0.000776308
2.983e-07
0.000776314
2.72076e-07
0.000776318
2.47019e-07
0.000776322
2.23608e-07
0.000776326
2.01759e-07
0.00077633
1.81652e-07
1.63168e-07
0.000776333
0.000797767
9.74078e-08
0.00079777
2.41109e-07
0.000797773
3.43073e-07
0.000797777
4.02852e-07
0.000797783
4.39273e-07
0.000797789
4.52298e-07
0.000797795
4.52775e-07
0.000797802
4.41e-07
0.000797808
4.23235e-07
0.000797815
3.99834e-07
0.000797822
3.7435e-07
0.000797828
3.47027e-07
0.000797834
3.19801e-07
0.000797839
2.92773e-07
0.000797844
2.66936e-07
0.000797849
2.42277e-07
0.000797853
2.19254e-07
0.000797857
1.97785e-07
0.000797861
1.78037e-07
1.59894e-07
0.000797864
0.000819891
9.63736e-08
0.000819893
2.38623e-07
0.000819897
3.39249e-07
0.000819902
3.97988e-07
0.000819908
4.33527e-07
0.000819914
4.45941e-07
0.000819921
4.4599e-07
0.000819928
4.34017e-07
0.000819935
4.16208e-07
0.000819942
3.92926e-07
0.000819949
3.6766e-07
0.000819955
3.40648e-07
0.000819961
3.13779e-07
0.000819967
2.87149e-07
0.000819972
2.61718e-07
0.000819977
2.37473e-07
0.000819981
2.14852e-07
0.000819985
1.93773e-07
0.000819989
1.74393e-07
1.56596e-07
0.000819992
0.000842628
9.52266e-08
0.000842631
2.3582e-07
0.000842635
3.35017e-07
0.00084264
3.92672e-07
0.000842646
4.2734e-07
0.000842653
4.39171e-07
0.00084266
4.38841e-07
0.000842668
4.26719e-07
0.000842675
4.0892e-07
0.000842682
3.85801e-07
0.000842689
3.60795e-07
0.000842695
3.34126e-07
0.000842702
3.07645e-07
0.000842707
2.81434e-07
0.000842713
2.56431e-07
0.000842717
2.32614e-07
0.000842722
2.10408e-07
0.000842726
1.89728e-07
0.00084273
1.70723e-07
1.53278e-07
0.000842733
0.000865995
9.39726e-08
0.000865998
2.3272e-07
0.000866003
3.30403e-07
0.000866009
3.86932e-07
0.000866015
4.20742e-07
0.000866023
4.32017e-07
0.00086603
4.31357e-07
0.000866038
4.19131e-07
0.000866045
4.01391e-07
0.000866053
3.78477e-07
0.00086606
3.5377e-07
0.000866066
3.27475e-07
0.000866072
3.01408e-07
0.000866078
2.75638e-07
0.000866084
2.5108e-07
0.000866088
2.27704e-07
0.000866093
2.05924e-07
0.000866097
1.85651e-07
0.000866101
1.67029e-07
1.49942e-07
0.000866104
0.000890011
9.26176e-08
0.000890014
2.2934e-07
0.000890019
3.25431e-07
0.000890025
3.80799e-07
0.000890032
4.13763e-07
0.00089004
4.2451e-07
0.000890048
4.23564e-07
0.000890056
4.11277e-07
0.000890063
3.93642e-07
0.000890071
3.70971e-07
0.000890078
3.46598e-07
0.000890085
3.20707e-07
0.000890091
2.95079e-07
0.000890097
2.69769e-07
0.000890102
2.45671e-07
0.000890107
2.2275e-07
0.000890112
2.01405e-07
0.000890116
1.81548e-07
0.00089012
1.63314e-07
1.46589e-07
0.000890123
0.000914692
9.11678e-08
0.000914696
2.25703e-07
0.000914701
3.20127e-07
0.000914708
3.74302e-07
0.000914715
4.06433e-07
0.000914723
4.16678e-07
0.000914731
4.15488e-07
0.000914739
4.03181e-07
0.000914747
3.85693e-07
0.000914755
3.633e-07
0.000914762
3.39295e-07
0.000914769
3.13833e-07
0.000914775
2.88666e-07
0.000914781
2.63834e-07
0.000914787
2.40212e-07
0.000914792
2.17756e-07
0.000914796
1.96856e-07
0.0009148
1.77421e-07
0.000914804
1.59581e-07
1.43222e-07
0.000914808
0.000940058
8.96294e-08
0.000940062
2.21827e-07
0.000940068
3.14516e-07
0.000940075
3.67472e-07
0.000940082
3.98781e-07
0.00094009
4.0855e-07
0.000940099
4.07155e-07
0.000940107
3.94866e-07
0.000940115
3.77563e-07
0.000940123
3.55482e-07
0.00094013
3.31874e-07
0.000940137
3.06865e-07
0.000940144
2.8218e-07
0.00094015
2.57841e-07
0.000940155
2.34708e-07
0.00094016
2.12727e-07
0.000940165
1.92281e-07
0.000940169
1.73274e-07
0.000940173
1.55833e-07
1.39845e-07
0.000940176
0.000966128
8.80093e-08
0.000966132
2.17733e-07
0.000966138
3.08624e-07
0.000966145
3.60338e-07
0.000966153
3.90837e-07
0.000966161
4.00154e-07
0.00096617
3.98589e-07
0.000966178
3.86354e-07
0.000966186
3.69271e-07
0.000966194
3.47533e-07
0.000966202
3.24348e-07
0.000966209
2.99814e-07
0.000966216
2.7563e-07
0.000966222
2.51798e-07
0.000966227
2.29166e-07
0.000966232
2.07669e-07
0.000966237
1.87684e-07
0.000966241
1.6911e-07
0.000966245
1.52074e-07
1.36458e-07
0.000966248
0.00099292
8.63137e-08
0.000992924
2.13441e-07
0.00099293
3.02476e-07
0.000992938
3.52929e-07
0.000992946
3.82628e-07
0.000992955
3.91519e-07
0.000992963
3.89816e-07
0.000992972
3.77667e-07
0.000992981
3.60836e-07
0.000992989
3.39468e-07
0.000992996
3.16731e-07
0.000993003
2.92692e-07
0.00099301
2.69024e-07
0.000993016
2.45713e-07
0.000993022
2.23592e-07
0.000993027
2.02588e-07
0.000993031
1.8307e-07
0.000993035
1.64934e-07
0.000993039
1.48305e-07
1.33065e-07
0.000993043
0.00102046
8.45494e-08
0.00102046
2.0897e-07
0.00102047
2.96096e-07
0.00102047
3.45274e-07
0.00102048