/*--------------------------------*- C++ -*----------------------------------*\
| =========                 |                                                 |
| \\      /  F ield         | OpenFOAM: The Open Source CFD Toolbox           |
|  \\    /   O peration     | Version:  2.4.0                                 |
|   \\  /    A nd           | Web:      www.OpenFOAM.org                      |
|    \\/     M anipulation  |                                                 |
\*---------------------------------------------------------------------------*/
FoamFile
{
    version     2.0;
    format      ascii;
    class       volScalarField;
    location    "3";
    object      epsilon;
}
// * * * * * * * * * * * * * * * * * * * * * * * * * * * * * * * * * * * * * //

dimensions      [0 2 -3 0 0 0 0];

internalField   nonuniform List<scalar> 
6000
(
54.1744
1.09674
0.0203997
0.134346
0.0726053
0.0865756
0.0620042
0.0581448
0.0467926
0.042647
0.0372802
0.0354213
0.0342955
0.0351251
0.0359439
0.0358752
0.0332672
0.0284745
0.0232121
0.0199102
0.0202032
0.0258745
0.040406
0.0692541
0.117915
0.189161
0.281666
0.390705
0.50951
0.629997
0.74256
0.835419
0.894165
0.901793
0.843393
0.712676
0.521407
0.306379
0.125904
0.0912045
0.2663
0.552513
0.908754
1.27808
1.60682
1.85918
2.0194
2.10002
2.12103
2.12803
2.13179
2.21932
2.32288
2.70656
2.99398
4.22464
4.63757
8.71236
8.3775
22.3794
17.7233
0.97516
0.0254393
0.0741535
0.0418533
0.0475116
0.0345782
0.0319196
0.0258422
0.0233737
0.0204463
0.0192895
0.0185595
0.0187829
0.0189934
0.0187495
0.0173014
0.0148426
0.0122132
0.0106166
0.0109054
0.0139618
0.0212543
0.03468
0.0555901
0.0839558
0.118361
0.156609
0.196269
0.234837
0.269586
0.297314
0.314147
0.315472
0.297447
0.257822
0.198617
0.128084
0.0623414
0.0563479
0.125765
0.224643
0.338991
0.453814
0.555915
0.636569
0.691845
0.725006
0.74158
0.754728
0.768641
0.810192
0.86174
1.00588
1.13189
1.56612
1.77105
3.14736
3.22517
7.75099
7.1361
0.711036
0.0303579
0.0435104
0.0253073
0.0273762
0.020188
0.0183652
0.0149542
0.0134436
0.0117861
0.0110715
0.0106204
0.0106613
0.0106941
0.0104811
0.00966558
0.00836181
0.00701407
0.00627567
0.00665751
0.00867836
0.0130451
0.0204565
0.0311285
0.0445893
0.059891
0.0759668
0.0918394
0.106634
0.119482
0.129414
0.135243
0.135825
0.129845
0.11634
0.0952976
0.0682672
0.0403709
0.0422037
0.0734566
0.11245
0.154072
0.194407
0.230221
0.25926
0.280583
0.294786
0.303474
0.310981
0.319351
0.337957
0.362421
0.420968
0.479176
0.648295
0.752157
1.26715
1.37684
2.99174
3.42007
0.518189
0.0345763
0.0274409
0.0160752
0.0165225
0.0122969
0.0110292
0.00902952
0.00808217
0.00711549
0.00667793
0.00641141
0.00641368
0.00641294
0.00627421
0.00581968
0.00511949
0.00442914
0.00414802
0.00463321
0.00623734
0.00934056
0.0141909
0.020676
0.0283273
0.0365259
0.0447064
0.0524323
0.0593694
0.065223
0.0696797
0.0723541
0.0730191
0.0710231
0.0659129
0.0574291
0.0457169
0.0327407
0.0361365
0.051637
0.0691274
0.086516
0.10266
0.116754
0.128233
0.137067
0.143204
0.147074
0.150269
0.153911
0.161701
0.172867
0.197886
0.225772
0.297102
0.351161
0.561196
0.641607
1.26655
1.89782
0.395508
0.0386851
0.0190372
0.0107996
0.0104522
0.0078065
0.00689961
0.00567647
0.00506879
0.00449264
0.00422965
0.00408313
0.00409236
0.00410255
0.00403249
0.00378899
0.00341794
0.003086
0.00307397
0.00366158
0.00510945
0.00763371
0.0112855
0.0158505
0.0209267
0.0260942
0.0310319
0.0355355
0.0394806
0.0427771
0.0453382
0.0470877
0.0479648
0.047629
0.0458433
0.0423649
0.0369809
0.0306294
0.0336909
0.0418045
0.050268
0.0583001
0.0655811
0.0718677
0.0769495
0.0809366
0.0836396
0.0851096
0.0859849
0.0869319
0.0896331
0.0942758
0.105107
0.11868
0.150686
0.179598
0.271765
0.323495
0.582645
1.19135
0.318415
0.0430077
0.0149671
0.00777901
0.0069607
0.00517294
0.00449636
0.00371414
0.00331556
0.00296737
0.00281533
0.00274635
0.00277338
0.0028037
0.00278558
0.00266854
0.00248848
0.00237246
0.00254167
0.00322746
0.00463137
0.00687239
0.00990025
0.0134707
0.0172522
0.0209594
0.024413
0.0275271
0.0302701
0.0326317
0.0346023
0.0362237
0.0373979
0.0379382
0.0376864
0.0364318
0.0338867
0.0307205
0.0329745
0.0372433
0.0413323
0.0450493
0.0484182
0.0514106
0.053914
0.0559672
0.0573093
0.057808
0.0576882
0.0573542
0.0576893
0.059117
0.0635549
0.0700782
0.0850758
0.100904
0.14406
0.176097
0.290617
0.829172
0.268834
0.0475967
0.0135448
0.00613387
0.0049235
0.00359454
0.00305965
0.00253318
0.00226497
0.00205317
0.00197205
0.00195297
0.00199699
0.00204565
0.00206483
0.00202865
0.00197185
0.00200302
0.00230797
0.00308374
0.00449017
0.00658178
0.00925317
0.0122658
0.0153616
0.0183562
0.0211553
0.0237258
0.0260636
0.028174
0.0300653
0.0317689
0.0331752
0.0341725
0.0346461
0.0344258
0.0332445
0.0316705
0.0330941
0.0351676
0.0368887
0.038312
0.0396038
0.0408575
0.042051
0.0431909
0.0439967
0.0442183
0.0438349
0.0430487
0.0423619
0.0422253
0.0436356
0.0465562
0.0537042
0.0625521
0.083989
0.103754
0.157703
0.628407
0.235883
0.0523591
0.0138559
0.00541632
0.00375134
0.00264095
0.00218467
0.00180704
0.00162005
0.00149113
0.00145539
0.00146835
0.00152588
0.00158953
0.00163717
0.00165927
0.00169263
0.00183461
0.00224714
0.00310241
0.00452947
0.00653984
0.00900465
0.0117147
0.0144819
0.0171887
0.0197764
0.0222174
0.0244985
0.0266153
0.0285737
0.0303644
0.0319047
0.0331227
0.0339344
0.0342031
0.0337036
0.0328959
0.033589
0.0343021
0.0346214
0.0347001
0.0347489
0.0349181
0.0352584
0.0357966
0.0363015
0.0364778
0.0361497
0.0353438
0.0343215
0.0334787
0.0334166
0.0344298
0.0377282
0.0427265
0.0539347
0.0663207
0.0934543
0.510208
0.21325
0.0571389
0.0153773
0.00537827
0.00313295
0.00207631
0.00164955
0.00135533
0.00121758
0.00113911
0.00113234
0.00116613
0.00123431
0.00131109
0.00138348
0.00145333
0.00155923
0.00178965
0.00229002
0.0032147
0.00467064
0.00664443
0.00900755
0.0115911
0.0142604
0.016928
0.0195337
0.0220317
0.0243897
0.0265911
0.0286311
0.0304775
0.0320771
0.0333828
0.034331
0.0348071
0.0346256
0.0341203
0.0341987
0.0340091
0.033437
0.0326709
0.031925
0.0313652
0.0310817
0.0311299
0.0313586
0.0314949
0.0312899
0.0306367
0.0296165
0.0285272
0.0277685
0.0277506
0.0290484
0.0318318
0.0378995
0.0458559
0.0603659
0.437361
0.197245
0.061765
0.0177665
0.00588606
0.0029087
0.00177118
0.00133071
0.00107639
0.000965824
0.000917373
0.000928994
0.000976837
0.00105424
0.00114407
0.00124048
0.0013529
0.00152036
0.00182389
0.00239769
0.00338401
0.00487588
0.00685063
0.00919521
0.011779
0.0144972
0.0172629
0.0199956
0.0226255
0.0251028
0.0274031
0.0295045
0.0313734
0.0329778
0.0342864
0.0352485
0.0357621
0.0356747
0.0352001
0.0347642
0.0339407
0.0327702
0.0314493
0.0301788
0.0291189
0.0283729
0.0280113
0.0279576
0.027994
0.0278649
0.0273843
0.0265017
0.0254023
0.0243553
0.0237875
0.0240016
0.0254536
0.0287597
0.0339868
0.0421271
0.390894
0.185657
0.0660828
0.0207686
0.00686029
0.00300236
0.00165687
0.00115948
0.000912537
0.00081262
0.000780607
0.000803666
0.000861641
0.000948037
0.00105192
0.00117288
0.0013248
0.00154605
0.00191174
0.00254857
0.00359189
0.00512866
0.00713894
0.00953144
0.0122034
0.0150578
0.0179912
0.0208966
0.0236823
0.0262848
0.0286756
0.0308103
0.0326699
0.0342347
0.0354828
0.0363713
0.0368046
0.0366601
0.0360549
0.0351831
0.0338924
0.0323047
0.030612
0.0289949
0.0275972
0.0265186
0.0258297
0.0255093
0.0253984
0.0252725
0.0249166
0.0241956
0.0231899
0.022069
0.0212261
0.0208453
0.0214699
0.0232033
0.0266806
0.0313744
0.360489
0.177119
0.0699744
0.0241707
0.00825108
0.00337393
0.00170119
0.00109908
0.000831493
0.000728374
0.000702947
0.000732619
0.000798473
0.000894314
0.0010137
0.00116002
0.00134934
0.00161867
0.00203871
0.0027314
0.00383014
0.00542269
0.0074995
0.00999026
0.012807
0.0158449
0.018976
0.0220675
0.0250093
0.027727
0.0301864
0.0323286
0.0341482
0.0356336
0.0367683
0.0375133
0.0377775
0.0374697
0.0366387
0.0353882
0.0337377
0.0318516
0.0299113
0.0280743
0.0264617
0.0251595
0.0242299
0.0236798
0.0234053
0.0232264
0.022933
0.0223463
0.0214637
0.0203742
0.0194141
0.0187131
0.0188149
0.0196132
0.0219269
0.0246405
0.34022
0.17076
0.0733684
0.0277822
0.0100122
0.00400328
0.00189576
0.00113213
0.000816156
0.000696699
0.000669781
0.000702311
0.000774641
0.000880647
0.00101703
0.00118956
0.00141491
0.00172816
0.00219718
0.0029411
0.00409605
0.00575586
0.00792482
0.0105489
0.013543
0.0167851
0.0201212
0.023395
0.0264814
0.0292969
0.0317989
0.0339224
0.0356719
0.0370408
0.0380153
0.0385573
0.0385852
0.0380385
0.0369262
0.0353376
0.0333982
0.0312949
0.0291959
0.0272339
0.0255038
0.0240709
0.022983
0.0222561
0.0218293
0.021568
0.021286
0.0207915
0.0200242
0.0190104
0.018022
0.01716
0.0169305
0.0171591
0.0186789
0.0202037
0.326529
0.166
0.0762393
0.0314309
0.0120898
0.00488279
0.00224067
0.00125398
0.000858981
0.00070925
0.000673219
0.000705189
0.000782879
0.000899753
0.00105452
0.0012542
0.00151487
0.00186928
0.00238364
0.00317627
0.00438954
0.006127
0.00840715
0.0111858
0.014372
0.0178219
0.0213566
0.0247993
0.0280126
0.0309047
0.0334218
0.0355003
0.0371504
0.0383682
0.0391404
0.0394283
0.0391717
0.0383315
0.0369069
0.0350084
0.0328279
0.0305644
0.0283723
0.0263588
0.0245904
0.0231069
0.0219367
0.0210923
0.0205429
0.0201942
0.0198914
0.0194502
0.0187762
0.0178497
0.0168806
0.0159511
0.0155162
0.0153938
0.0163646
0.0171556
0.3172
0.162442
0.0786018
0.0349671
0.0144164
0.00600705
0.00273921
0.00146948
0.000958999
0.000762922
0.000709634
0.000737408
0.000819252
0.000947508
0.00112195
0.00134987
0.0016459
0.00204
0.0025975
0.00343758
0.00471148
0.00653456
0.00893783
0.0118808
0.0152606
0.0189106
0.0226292
0.026222
0.0295409
0.0324866
0.034991
0.0369987
0.0385216
0.0395564
0.0400883
0.0400822
0.0395058
0.0383346
0.0365817
0.0343936
0.0320052
0.0296223
0.0273861
0.0253783
0.0236358
0.0221702
0.0209865
0.0200847
0.0194529
0.0190292
0.018692
0.0182758
0.017671
0.0168277
0.0159013
0.0149588
0.0144023
0.014065
0.014655
0.0149868
0.310811
0.159802
0.0804998
0.0382693
0.0169105
0.00736416
0.00339803
0.00178744
0.00112039
0.000858406
0.000778353
0.000797631
0.000882035
0.00102188
0.00121715
0.0014747
0.0018069
0.00224043
0.00283994
0.00372683
0.0050629
0.00697617
0.00950754
0.012615
0.0161806
0.0200154
0.0238983
0.027619
0.0310203
0.033996
0.0364605
0.038373
0.0397427
0.0405653
0.0408238
0.0404973
0.0395747
0.0380484
0.0359612
0.0334995
0.0309276
0.0284555
0.0262114
0.024253
0.0225876
0.0211972
0.0200603
0.0191588
0.0184892
0.0180144
0.0176435
0.0172359
0.0166804
0.01591
0.0150357
0.0141116
0.0134891
0.0130245
0.0133511
0.0133954
0.306428
0.157872
0.0819953
0.0412498
0.0194806
0.00893092
0.00422497
0.00221582
0.00135201
0.000999535
0.00088101
0.000886391
0.000971117
0.00112232
0.00133944
0.00162828
0.00199824
0.00247218
0.0031133
0.00404637
0.00544465
0.00744881
0.0101069
0.0133715
0.0171083
0.0211076
0.0251321
0.0289567
0.0324163
0.0353986
0.0377976
0.0395919
0.0407846
0.0413688
0.0413299
0.0406656
0.0393786
0.0374845
0.0350644
0.0323438
0.0296086
0.0270704
0.024845
0.0229677
0.0214181
0.0201484
0.0191096
0.0182607
0.0175986
0.0171032
0.01671
0.016305
0.0157849
0.0150762
0.014256
0.0133672
0.0127158
0.012181
0.0123277
0.0121941
0.303423
0.156495
0.0831581
0.0438562
0.0220318
0.0106702
0.00522284
0.00276404
0.00166422
0.00119308
0.00102128
0.0010058
0.00108769
0.00124944
0.00148919
0.00181122
0.0022213
0.00273764
0.00342061
0.00439892
0.00585744
0.00794926
0.0107271
0.0141354
0.018024
0.0221645
0.0263058
0.0302095
0.0337033
0.0366654
0.0389789
0.0406344
0.041629
0.0419523
0.0416029
0.0405889
0.0389273
0.0366617
0.0339165
0.0309537
0.0280742
0.0254891
0.0233018
0.021527
0.0201193
0.0190039
0.0181038
0.0173531
0.0167415
0.0162584
0.0158609
0.015461
0.0149688
0.0143124
0.0135447
0.0126998
0.0120439
0.0114766
0.0115024
0.0112624
0.301373
0.155545
0.0840582
0.046069
0.0244746
0.012531
0.00638604
0.00344201
0.00206587
0.00144881
0.00120482
0.00115942
0.00123412
0.00140485
0.00166759
0.00202484
0.00247804
0.00303957
0.0037654
0.00478747
0.00630212
0.00847457
0.0113604
0.0148946
0.0189122
0.0231682
0.0274008
0.0313584
0.0348627
0.0377794
0.0399893
0.0414873
0.0422636
0.0423139
0.0416467
0.0402766
0.0382372
0.0356046
0.0325484
0.0293631
0.02636
0.0237462
0.0216111
0.0199511
0.0186999
0.0177596
0.0170274
0.0164117
0.0158891
0.0154512
0.0150712
0.0146848
0.0142187
0.0136079
0.01289
0.0120924
0.0114478
0.0108728
0.0108197
0.0105203
0.299984
0.154928
0.0847596
0.0478968
0.0267325
0.0144508
0.00769779
0.00425579
0.00256723
0.0017762
0.00143938
0.00135229
0.00141388
0.00159103
0.00187655
0.00227093
0.00277076
0.00338118
0.00415152
0.00521533
0.00677993
0.00902261
0.0120008
0.0156393
0.019761
0.0241055
0.0284034
0.0323898
0.0358818
0.0387301
0.0408193
0.0421416
0.0426864
0.0424589
0.0414703
0.0397428
0.0373289
0.034341
0.0309939
0.0276111
0.0245087
0.0218848
0.0198131
0.018273
0.0171819
0.0164248
0.0158774
0.0154235
0.015022
0.0146598
0.0143204
0.0139598
0.0135222
0.0129537
0.0122827
0.0115333
0.01091
0.0103434
0.0102413
0.00991356
0.299054
0.154565
0.0853176
0.0493695
0.0287479
0.016361
0.00912882
0.00520501
0.0031778
0.0021841
0.00173448
0.00159099
0.00163161
0.00181136
0.00211858
0.00255165
0.00310191
0.00376575
0.00458298
0.00568622
0.00729283
0.00959249
0.0126441
0.0163629
0.020562
0.0249672
0.0293044
0.0332947
0.0367527
0.0395117
0.0414622
0.0425942
0.0429038
0.0423966
0.0410866
0.0390047
0.0362255
0.0329004
0.0292892
0.0257396
0.0225667
0.0199536
0.017955
0.0165342
0.0155977
0.0150199
0.0146614
0.014385
0.014129
0.0138687
0.0135923
0.0132717
0.0128684
0.0123414
0.0117156
0.0110139
0.010418
0.00987031
0.00974025
0.00940485
0.298441
0.154395
0.0857773
0.0505306
0.0304857
0.0181931
0.0106378
0.00628044
0.0039037
0.00268225
0.00209861
0.00188373
0.00189316
0.00207014
0.00239682
0.00286943
0.00347385
0.0041964
0.00506379
0.00620431
0.00784373
0.0101849
0.0132888
0.0170619
0.0213108
0.0257481
0.0300987
0.0340685
0.0374715
0.0401176
0.041915
0.0428526
0.0429254
0.0421392
0.0405107
0.0380814
0.034951
0.031313
0.0274707
0.0237912
0.0205813
0.0180027
0.016087
0.0147817
0.0139867
0.0135737
0.0133961
0.0133014
0.0132058
0.0130682
0.0128749
0.0126091
0.0122479
0.0117638
0.0111824
0.0105275
0.00996266
0.0094403
0.00929708
0.00896783
0.298046
0.154366
0.0861732
0.0514307
0.0319332
0.0198854
0.0121738
0.00746232
0.00474543
0.0032786
0.0025407
0.00223893
0.00220563
0.00237264
0.0027151
0.00322697
0.00388879
0.00467586
0.00559783
0.00677415
0.00843663
0.0108026
0.0139359
0.0177358
0.0220064
0.0264468
0.0307847
0.0347098
0.0380275
0.0405475
0.0421859
0.0429266
0.042763
0.0417002
0.0397585
0.0369921
0.0335294
0.0296085
0.0255743
0.0218072
0.0185982
0.0160804
0.0142581
0.0130628
0.0123917
0.0121208
0.0121049
0.0121846
0.0122548
0.0122537
0.0121598
0.0119628
0.0116523
0.0112143
0.0106776
0.0100687
0.00953707
0.00904382
0.00889781
0.00858377
0.2978
0.154441
0.0865307
0.0521215
0.0330975
0.0213885
0.0136804
0.0087199
0.00569583
0.00397764
0.00306881
0.00266467
0.00257725
0.00272512
0.00307795
0.00362726
0.0043487
0.00520625
0.00618849
0.00740048
0.00907661
0.0114499
0.014589
0.0183877
0.0226511
0.0270652
0.0313544
0.0352105
0.0384262
0.0408104
0.0422854
0.0428281
0.0424294
0.041094
0.0388463
0.0357558
0.0319839
0.0278154
0.0236341
0.0198266
0.0166595
0.0142302
0.0125128
0.0114221
0.010855
0.010698
0.0108161
0.0110525
0.0112836
0.011425
0.0114424
0.0113262
0.0110752
0.0106874
0.0101964
0.00963304
0.00913585
0.00867359
0.00853214
0.00823917
0.297654
0.154586
0.0868668
0.0526517
0.0340014
0.0226699
0.0151015
0.0100126
0.00673842
0.00477841
0.00368865
0.00316832
0.00301539
0.00313566
0.00349067
0.00407363
0.00485528
0.0057889
0.00683834
0.00808794
0.00976968
0.0121336
0.0152546
0.0190238
0.0232386
0.027596
0.0318112
0.0355775
0.0386753
0.0409172
0.0422252
0.0425697
0.0419383
0.040335
0.0377897
0.0343906
0.0303364
0.0259608
0.0216819
0.0178842
0.014801
0.0124885
0.0108877
0.00989711
0.00941451
0.00934111
0.00955969
0.00992629
0.0103041
0.0105861
0.0107211
0.0106949
0.0105112
0.0101782
0.00973479
0.00921677
0.00875474
0.00832419
0.00819246
0.00792421
0.297576
0.154779
0.0871923
0.0530643
0.0346785
0.0237147
0.0163866
0.0112929
0.00784678
0.00567275
0.00440193
0.00375541
0.00352641
0.00361037
0.00396109
0.00457053
0.00541
0.00642418
0.00754874
0.00884056
0.0105224
0.0128616
0.0159333
0.0196371
0.023773
0.0280456
0.0321632
0.0358203
0.0387868
0.0408801
0.0420182
0.0421646
0.0413031
0.0394369
0.0366032
0.0329132
0.0286077
0.0240701
0.0197469
0.0160103
0.0130521
0.0108827
0.00940964
0.00851583
0.00810073
0.0080818
0.00836517
0.0088294
0.00933124
0.00974416
0.00999739
0.0100668
0.00995676
0.0096829
0.00928922
0.00881676
0.00839036
0.00799219
0.00787317
0.0076317
0.297541
0.155
0.0875128
0.0533952
0.0351681
0.0245251
0.0174963
0.0125106
0.00898521
0.0066438
0.00520465
0.00442832
0.00411503
0.0041543
0.00449355
0.0051238
0.00601725
0.00711133
0.00831936
0.00966106
0.0113412
0.0136316
0.0166255
0.0202339
0.024262
0.0284226
0.0324202
0.0359501
0.0387735
0.0407124
0.0416779
0.0416261
0.0405364
0.0384121
0.0353001
0.0313391
0.0268173
0.022167
0.0178551
0.0142301
0.0114345
0.00943077
0.00809484
0.0072956
0.00693445
0.00694474
0.00725861
0.00778482
0.0083819
0.00890893
0.00927491
0.00944167
0.0094097
0.00919869
0.00885687
0.0084304
0.00803998
0.00767437
0.00757005
0.00735636
0.297533
0.155235
0.0878305
0.0536726
0.0355105
0.0251178
0.0184053
0.0136176
0.0101109
0.00766553
0.00608547
0.00518465
0.00478312
0.00477087
0.0050914
0.00573561
0.00667813
0.00785209
0.00914942
0.0105479
0.012223
0.0144476
0.017338
0.0208223
0.0247149
0.0287379
0.0325941
0.0359797
0.0386495
0.0404278
0.0412174
0.0409666
0.0396501
0.0372719
0.0338921
0.0296828
0.0249836
0.0202737
0.0160292
0.0125632
0.00996235
0.00814188
0.00694949
0.00624311
0.00592616
0.00594603
0.00626059
0.00681334
0.00747301
0.00809164
0.00855941
0.00882116
0.00886915
0.00872366
0.00843557
0.00805561
0.00770145
0.00736828
0.00727992
0.00709428
0.297542
0.155474
0.0881454
0.0539179
0.0357441
0.0255199
0.019104
0.0145736
0.0111774
0.00870333
0.00702467
0.00601568
0.00552829
0.00546072
0.00575626
0.00640693
0.00739172
0.00864292
0.0100339
0.0114975
0.0131683
0.0153144
0.0180783
0.021412
0.0251427
0.0290036
0.0326981
0.0359228
0.0384289
0.0400399
0.0406495
0.0401977
0.0386542
0.0360259
0.0323898
0.0279577
0.0231246
0.0184109
0.0142889
0.0110241
0.00864314
0.00701726
0.00597131
0.0053559
0.00507682
0.00509277
0.00538476
0.00593182
0.00662046
0.00730418
0.00785797
0.00820829
0.00833547
0.00825677
0.00802376
0.00769076
0.00737306
0.00707207
0.0070004
0.00684261
0.29756
0.155711
0.0884561
0.0541459
0.0359026
0.025765
0.019598
0.0153495
0.0121396
0.00971613
0.00799394
0.00690516
0.00634243
0.00622044
0.00648693
0.00713684
0.00815569
0.00947883
0.0109655
0.0125034
0.0141754
0.0162357
0.0188543
0.0220132
0.0255576
0.0292331
0.0327461
0.0357935
0.0381258
0.0395618
0.0399859
0.0393293
0.0375575
0.0346821
0.0308026
0.0261771
0.0212578
0.0165979
0.0126505
0.00962193
0.00747825
0.00605201
0.00515171
0.00462469
0.0043797
0.00438396
0.00463754
0.00515207
0.00583774
0.00655815
0.00717848
0.00760725
0.0078101
0.00779786
0.00762052
0.0073347
0.00705355
0.00678435
0.00672972
0.00659926
0.297583
0.15594
0.0887605
0.0543665
0.0360143
0.0258886
0.0199054
0.0159307
0.0129583
0.0106598
0.00895732
0.00782864
0.00721048
0.00704122
0.00727817
0.00792153
0.00896557
0.0103529
0.0119347
0.0135562
0.0152393
0.0172129
0.0196726
0.0226361
0.0259715
0.0294397
0.0327521
0.0356066
0.0377538
0.0390056
0.0392367
0.0383697
0.0363666
0.0332469
0.0291392
0.024354
0.0194007
0.0148527
0.0111267
0.00836141
0.00646431
0.00523693
0.0044782
0.00403608
0.00382301
0.0038123
0.00401925
0.0044804
0.00513516
0.00586406
0.00652905
0.00702299
0.00729535
0.00734751
0.00722551
0.00698671
0.00674202
0.00650412
0.00646653
0.00636277
0.297606
0.156159
0.0890567
0.0545852
0.0361011
0.0259252
0.0200535
0.0163169
0.0136043
0.0114914
0.00987361
0.00875386
0.00810968
0.00790766
0.00811952
0.00875324
0.00981398
0.0112558
0.0129291
0.0146422
0.0163507
0.0182439
0.0205375
0.0232892
0.0263958
0.0296362
0.0327294
0.0353757
0.0373248
0.0383815
0.0384102
0.0373249
0.0350861
0.0317257
0.027408
0.0225024
0.0175711
0.0131917
0.00972718
0.0072431
0.0055944
0.00456025
0.00393647
0.00357492
0.00339241
0.00336652
0.00352353
0.00391798
0.00451937
0.0052306
0.00591742
0.0064609
0.00679421
0.00690696
0.00683891
0.00664649
0.00643793
0.00623074
0.00620982
0.00613212
0.297629
0.156365
0.0893427
0.0548046
0.0361791
0.0259059
0.0200746
0.0165213
0.0140619
0.0121741
0.0106998
0.00964235
0.00900967
0.00879707
0.00899419
0.00961911
0.0106897
0.0121753
0.0139333
0.015744
0.0174948
0.0193214
0.0214495
0.0239784
0.0268396
0.0298337
0.0326897
0.035112
0.036849
0.0376974
0.0375119
0.0361986
0.0337188
0.0301226
0.0256179
0.020637
0.0157867
0.0116291
0.0084578
0.00626415
0.0048593
0.00400919
0.00351213
0.00322629
0.00307328
0.0030337
0.00314101
0.00346188
0.00399346
0.00466433
0.00535056
0.00592645
0.00631015
0.00647799
0.0064614
0.00631411
0.00614106
0.00596384
0.00595947
0.00590675
0.29765
0.156559
0.0896171
0.0550255
0.0362593
0.0258564
0.0200026
0.0165677
0.0143297
0.0126814
0.0113958
0.0104522
0.00987358
0.00967941
0.0098784
0.0105002
0.0115765
0.0130953
0.0149283
0.0168392
0.0186505
0.0204315
0.0224032
0.0247054
0.0273088
0.0300404
0.032642
0.0348242
0.0363332
0.0369583
0.0365446
0.0349918
0.0322659
0.0284416
0.0237787
0.018774
0.0140654
0.0101772
0.00732132
0.00541904
0.00424851
0.00357105
0.00319182
0.00297673
0.00285227
0.00280115
0.00286125
0.00310643
0.00355746
0.00416948
0.00483428
0.00542487
0.00584686
0.0060628
0.00609407
0.00599
0.00585147
0.00570334
0.00571534
0.0056864
0.297669
0.156739
0.089879
0.0552471
0.0363482
0.0257973
0.0198695
0.0164866
0.0144198
0.0129998
0.0119283
0.0111422
0.0106605
0.0105183
0.0107414
0.0113712
0.012453
0.0139953
0.0158915
0.0179013
0.0197905
0.0215523
0.0233863
0.0254656
0.0278043
0.0302604
0.0325915
0.0345169
0.0357808
0.0361656
0.0355076
0.0337029
0.0307269
0.026687
0.0219022
0.0169312
0.0124244
0.00884531
0.00631739
0.00470036
0.00375118
0.00323405
0.00296391
0.00281498
0.00271821
0.00265774
0.00267409
0.00284461
0.00320903
0.00374812
0.00437306
0.00496091
0.00540812
0.00566386
0.00573834
0.00567491
0.00556952
0.00544938
0.00547741
0.00547103
0.297686
0.156907
0.0901279
0.0554682
0.036449
0.0257432
0.0197037
0.0163114
0.0143552
0.0131302
0.0122758
0.0116758
0.011329
0.0112734
0.0115466
0.0121999
0.0132914
0.01485
0.0167965
0.0188994
0.0208807
0.0226537
0.0243771
0.0262467
0.0283204
0.0304919
0.0325383
0.0341899
0.0351904
0.0353162
0.0343969
0.032328
0.0291009
0.0248642
0.0200023
0.015128
0.0108796
0.0076399
0.00544299
0.00409949
0.00335678
0.00298778
0.00281887
0.00273224
0.00266253
0.00259467
0.00257074
0.00266922
0.00294444
0.00340052
0.00397002
0.00453865
0.00499756
0.00528383
0.0053959
0.00536984
0.00529578
0.00520234
0.00524591
0.00526085
0.2977
0.157064
0.0903637
0.0556871
0.0365626
0.0257039
0.0195281
0.016075
0.0141666
0.0130869
0.0124301
0.0120264
0.0118412
0.0119031
0.0122534
0.0129493
0.0140585
0.0156294
0.0176129
0.0197987
0.0218814
0.0236965
0.0253441
0.0270266
0.0288428
0.0307257
0.0324753
0.0338369
0.0345552
0.0344026
0.0332045
0.030861
0.0273867
0.0229809
0.0180962
0.0133845
0.00944513
0.00656423
0.00469292
0.00360735
0.00305564
0.00282353
0.00274933
0.00272222
0.00267934
0.00260569
0.00254444
0.00257386
0.00275941
0.00312566
0.00362701
0.00416138
0.00461854
0.0049254
0.00506865
0.00507603
0.00503104
0.00496276
0.00502121
0.00505621
0.297711
0.157209
0.0905866
0.0559025
0.0366882
0.0256851
0.0193604
0.0158071
0.0138881
0.0128955
0.0123979
0.0121799
0.0121678
0.0123694
0.0128206
0.0135789
0.0147169
0.0162989
0.0183069
0.0205615
0.0227483
0.0246335
0.0262451
0.0277722
0.029347
0.0309432
0.0323873
0.0334443
0.0338624
0.0334123
0.0319194
0.0292947
0.0255848
0.0210482
0.0162038
0.0117211
0.00813224
0.00561849
0.0040604
0.00321489
0.00283921
0.00273438
0.00275007
0.00278096
0.00276523
0.00268707
0.00259064
0.00255351
0.0026498
0.00292173
0.00334482
0.00383162
0.00427405
0.0045912
0.00475857
0.00479488
0.00477629
0.00473136
0.00480388
0.00485766
0.29772
0.157344
0.090797
0.0561129
0.0368238
0.025689
0.0192124
0.0155325
0.0135535
0.0125885
0.0121989
0.012137
0.0122914
0.012642
0.0132107
0.0140483
0.0152268
0.0168212
0.0188423
0.0211485
0.0234343
0.0254115
0.027028
0.0284387
0.0297971
0.0311138
0.0322499
0.032991
0.0330925
0.0323279
0.0305278
0.0276216
0.0236981
0.0190815
0.0143482
0.0101574
0.00694898
0.0048001
0.00353766
0.00291357
0.00270035
0.00271519
0.00281787
0.00290662
0.00291892
0.00283731
0.00270691
0.00260473
0.00261216
0.00278664
0.0031235
0.00355115
0.00396665
0.00428374
0.00446769
0.00452791
0.00453263
0.00450901
0.00459462
0.00466585
0.297728
0.15747
0.0909957
0.0563174
0.0369674
0.0257156
0.0190918
0.0152702
0.0131935
0.0122018
0.0118634
0.0119132
0.0122095
0.0127026
0.013394
0.0143214
0.0155499
0.0171587
0.0191825
0.0215205
0.0238921
0.0259738
0.0276328
0.0289706
0.0301451
0.0311975
0.0320291
0.0324475
0.03222
0.0311279
0.0290143
0.0258361
0.0217341
0.017101
0.0125544
0.00871076
0.0058997
0.00410414
0.00311651
0.00269569
0.00263336
0.0027626
0.00295135
0.00309909
0.00314082
0.00305659
0.00289253
0.00272559
0.0026439
0.00271839
0.0029626
0.00332115
0.00369846
0.00400532
0.00419805
0.00427674
0.00430134
0.00429672
0.00439427
0.00448157
0.297734
0.157588
0.0911834
0.0565153
0.0371164
0.025763
0.0190017
0.0150338
0.012834
0.0117705
0.0114275
0.0115361
0.011935
0.0125478
0.0133533
0.0143711
0.0156535
0.0172769
0.0192931
0.021641
0.0240772
0.026264
0.0279951
0.029303
0.0303302
0.0311443
0.0316821
0.031777
0.0312139
0.0297883
0.0273642
0.0239365
0.0197065
0.0151325
0.0108484
0.00739531
0.00498509
0.00352399
0.00278883
0.00255462
0.0026341
0.00287492
0.00315071
0.00335963
0.00343245
0.0033461
0.00314786
0.00291526
0.00274334
0.00271532
0.00286146
0.00314232
0.00347118
0.003758
0.0039516
0.00404302
0.00408373
0.0040956
0.00420378
0.00430572
0.297738
0.157699
0.0913609
0.0567062
0.0372688
0.0258287
0.0189429
0.0148313
0.0124944
0.0113258
0.0109294
0.0110424
0.0114945
0.0121902
0.0130868
0.0141833
0.015515
0.0171488
0.0191458
0.0214797
0.023952
0.0262312
0.0280509
0.0293662
0.0302875
0.0308957
0.0311583
0.0309371
0.03004
0.0282848
0.025566
0.0219274
0.0176364
0.0132063
0.00925482
0.00622083
0.00420249
0.00305189
0.00254697
0.00248497
0.00269992
0.00305196
0.00341741
0.00369035
0.00379575
0.00370731
0.00347359
0.0031735
0.00290939
0.00277612
0.00281934
0.00301501
0.00328613
0.0035436
0.0037302
0.00382843
0.00388123
0.00390684
0.00402421
0.00413932
0.297742
0.157803
0.091529
0.0568899
0.0374225
0.0259095
0.0189135
0.0146667
0.0121884
0.0108932
0.010405
0.0104723
0.0109253
0.0116576
0.0126093
0.0137601
0.015126
0.0167594
0.0187223
0.0210161
0.0234893
0.0258348
0.0277429
0.0290938
0.0299502
0.0303899
0.0304036
0.0298827
0.0286639
0.026596
0.0236148
0.0198224
0.0155536
0.0113558
0.00779558
0.00519231
0.00354641
0.0026796
0.00238409
0.00248269
0.00282968
0.00329489
0.00375381
0.00409355
0.00423229
0.004141
0.00386984
0.00349989
0.0031412
0.00289973
0.00283558
0.00293939
0.00314437
0.00336373
0.0035356
0.00363459
0.00369529
0.00373174
0.00385672
0.00398347
0.297744
0.157901
0.0916887
0.0570666
0.0375761
0.0260025
0.0189108
0.0145405
0.0119239
0.0104918
0.00988509
0.00986582
0.0102704
0.0109892
0.0119516
0.0131212
0.0144955
0.0161093
0.0180186
0.0202436
0.0226774
0.0250501
0.0270292
0.0284309
0.0292573
0.0295671
0.0293649
0.028571
0.0270559
0.0247085
0.0215164
0.017647
0.0134955
0.00961508
0.00648744
0.00430995
0.00300928
0.00239889
0.00229434
0.0025451
0.00302363
0.00360592
0.00416259
0.00457102
0.00474236
0.00464638
0.00433534
0.00389314
0.00343759
0.00308516
0.00290953
0.00291549
0.00304671
0.00321977
0.00336945
0.00346315
0.00352739
0.00357164
0.00370257
0.00383936
0.297746
0.157994
0.0918406
0.0572362
0.0377282
0.0261045
0.0189312
0.0144509
0.0117045
0.010134
0.00939385
0.00925854
0.00957344
0.0102312
0.0111567
0.0123027
0.0136507
0.0152177
0.0170486
0.0191734
0.0215235
0.0238742
0.025891
0.0273408
0.0281614
0.0283778
0.0279981
0.0269682
0.0251971
0.0226218
0.0192908
0.015439
0.0115059
0.00801539
0.00534093
0.00356957
0.00258222
0.00220198
0.00227308
0.00267093
0.00328328
0.00398798
0.00464621
0.00512322
0.0053242
0.00522029
0.00486661
0.0043504
0.00379657
0.00333112
0.00304049
0.00294326
0.00299382
0.00311296
0.00323325
0.00331567
0.00337907
0.00342797
0.00356308
0.00370824
0.297747
0.158083
0.0919856
0.0573993
0.037878
0.0262131
0.0189707
0.0143946
0.0115301
0.00982656
0.00894803
0.00867914
0.00887421
0.00943111
0.0102751
0.0113533
0.0126354
0.0141224
0.0158455
0.0178366
0.0200573
0.0223293
0.0243363
0.0258136
0.0266381
0.0267921
0.0262759
0.0250572
0.0230857
0.0203537
0.0169756
0.0132484
0.00963047
0.00658223
0.00435969
0.00296345
0.0022557
0.0020819
0.00231698
0.00286031
0.00361122
0.00444421
0.00520608
0.00574848
0.0059732
0.00585662
0.00545759
0.00486685
0.00421494
0.00363574
0.00322756
0.00302258
0.00298624
0.00304441
0.00312846
0.00319373
0.00325184
0.00330221
0.00343971
0.00359171
0.297748
0.158168
0.0921244
0.0575562
0.0380249
0.026326
0.0190257
0.0143674
0.0113981
0.00957138
0.00855754
0.00814834
0.00820549
0.00863279
0.00935858
0.0103285
0.0115052
0.0128769
0.0144608
0.0162848
0.0183313
0.0204658
0.022405
0.0238726
0.0246953
0.0248089
0.0241976
0.0228457
0.0207444
0.0179446
0.0146263
0.0111338
0.00791233
0.00533249
0.00354076
0.00248137
0.00202029
0.00203278
0.00242412
0.00311469
0.00401078
0.00497735
0.00584185
0.00644223
0.0066815
0.00654605
0.00609943
0.0054355
0.00468797
0.00399632
0.00346951
0.00315319
0.00302445
0.00301514
0.00305647
0.00309887
0.00314731
0.00319592
0.00333398
0.00349151
0.297749
0.158249
0.0922578
0.0577072
0.0381684
0.0264414
0.0190928
0.0143648
0.0113044
0.00936704
0.00822647
0.00767894
0.00759133
0.00787242
0.00845452
0.00928446
0.0103218
0.0115456
0.0129603
0.0145868
0.0164193
0.0183605
0.0201699
0.0215788
0.0223793
0.0224642
0.0217969
0.0203734
0.0182247
0.0154592
0.0123138
0.00915617
0.00638631
0.00427309
0.00287553
0.00211162
0.00186709
0.00205005
0.00259404
0.00343672
0.00448562
0.00558904