/*--------------------------------*- C++ -*----------------------------------*\
| =========                 |                                                 |
| \\      /  F ield         | OpenFOAM: The Open Source CFD Toolbox           |
|  \\    /   O peration     | Version:  2.4.0                                 |
|   \\  /    A nd           | Web:      www.OpenFOAM.org                      |
|    \\/     M anipulation  |                                                 |
\*---------------------------------------------------------------------------*/
FoamFile
{
    version     2.0;
    format      ascii;
    class       volScalarField;
    location    "4.21";
    object      nut;
}
// * * * * * * * * * * * * * * * * * * * * * * * * * * * * * * * * * * * * * //

dimensions      [0 2 -1 0 0 0 0];

internalField   nonuniform List<scalar> 
6000
(
4.70151e-05
1.44411e-05
4.2488e-06
8.77666e-06
7.78907e-06
8.92723e-06
8.56915e-06
8.9433e-06
8.81991e-06
9.0298e-06
9.07037e-06
9.30155e-06
9.51799e-06
9.88029e-06
1.03002e-05
1.08314e-05
1.1424e-05
1.2091e-05
1.28141e-05
1.36052e-05
1.44639e-05
1.5394e-05
1.63868e-05
1.7428e-05
1.84961e-05
1.95681e-05
2.06196e-05
2.16273e-05
2.25681e-05
2.342e-05
2.41607e-05
2.47681e-05
2.52196e-05
2.5492e-05
2.55588e-05
2.5395e-05
2.49757e-05
2.42755e-05
2.32733e-05
2.19542e-05
2.0326e-05
1.84298e-05
1.63504e-05
1.60833e-05
1.81619e-05
2.03059e-05
2.24143e-05
2.45076e-05
2.63825e-05
2.82006e-05
2.95749e-05
3.10452e-05
3.17173e-05
3.30289e-05
3.27501e-05
3.44729e-05
3.27112e-05
3.60062e-05
3.18808e-05
3.80224e-05
2.94897e-05
9.50694e-06
3.16652e-06
7.01502e-06
6.32296e-06
7.0176e-06
6.77628e-06
7.01077e-06
6.94005e-06
7.08882e-06
7.14652e-06
7.33838e-06
7.54317e-06
7.85911e-06
8.23566e-06
8.70261e-06
9.23145e-06
9.82886e-06
1.04866e-05
1.12124e-05
1.20066e-05
1.2869e-05
1.37901e-05
1.4756e-05
1.57484e-05
1.67497e-05
1.77434e-05
1.87159e-05
1.96566e-05
2.05579e-05
2.14151e-05
2.22273e-05
2.29973e-05
2.37332e-05
2.44458e-05
2.51606e-05
2.59218e-05
2.6804e-05
2.79341e-05
2.95337e-05
3.19856e-05
3.5924e-05
4.20125e-05
4.24191e-05
3.59836e-05
3.13436e-05
2.82835e-05
2.63171e-05
2.51038e-05
2.43868e-05
2.39203e-05
2.3717e-05
2.34255e-05
2.34773e-05
2.30206e-05
2.34189e-05
2.24382e-05
2.36539e-05
2.16533e-05
2.41904e-05
2.14309e-05
8.16003e-06
2.8146e-06
5.88993e-06
5.32693e-06
5.68284e-06
5.499e-06
5.63434e-06
5.5981e-06
5.71495e-06
5.8006e-06
5.99496e-06
6.23406e-06
6.57828e-06
7.00505e-06
7.53232e-06
8.15042e-06
8.86711e-06
9.68662e-06
1.06191e-05
1.167e-05
1.2839e-05
1.41169e-05
1.54886e-05
1.69359e-05
1.84422e-05
1.99942e-05
2.15849e-05
2.32136e-05
2.48872e-05
2.66217e-05
2.84438e-05
3.03954e-05
3.25368e-05
3.49288e-05
3.76948e-05
4.10131e-05
4.51575e-05
5.05534e-05
5.78848e-05
6.82075e-05
8.30185e-05
0.000102897
0.000103581
8.26049e-05
6.52935e-05
5.235e-05
4.27707e-05
3.59194e-05
3.08461e-05
2.72258e-05
2.4442e-05
2.24254e-05
2.08091e-05
1.9565e-05
1.864e-05
1.76804e-05
1.73909e-05
1.62989e-05
1.67162e-05
1.78746e-05
7.96931e-06
2.98837e-06
5.26086e-06
4.70423e-06
4.76844e-06
4.59538e-06
4.65302e-06
4.63904e-06
4.74547e-06
4.87334e-06
5.11001e-06
5.43391e-06
5.88572e-06
6.46838e-06
7.19977e-06
8.09322e-06
9.16849e-06
1.04512e-05
1.19656e-05
1.37324e-05
1.57596e-05
1.80443e-05
2.0573e-05
2.33284e-05
2.62938e-05
2.94588e-05
3.28227e-05
3.63971e-05
4.02088e-05
4.43025e-05
4.87466e-05
5.36421e-05
5.91026e-05
6.52315e-05
7.22969e-05
8.06327e-05
9.07196e-05
0.000103245
0.000119211
0.000139953
0.000166958
0.000198707
0.00019855
0.000164235
0.000132007
0.000105212
8.35096e-05
6.67229e-05
5.35208e-05
4.36529e-05
3.58062e-05
3.01202e-05
2.53731e-05
2.21275e-05
1.9136e-05
1.73046e-05
1.53815e-05
1.42955e-05
1.31862e-05
1.67546e-05
8.44508e-06
3.53574e-06
5.0393e-06
4.40643e-06
4.18585e-06
3.98141e-06
3.96908e-06
3.96872e-06
4.08264e-06
4.27255e-06
4.59677e-06
5.07056e-06
5.73136e-06
6.61306e-06
7.74909e-06
9.1887e-06
1.09816e-05
1.31921e-05
1.58764e-05
1.90857e-05
2.28487e-05
2.71768e-05
3.20626e-05
3.74896e-05
4.34384e-05
4.98956e-05
5.68598e-05
6.43455e-05
7.23877e-05
8.10444e-05
9.04063e-05
0.000100617
0.000111664
0.000123712
0.000137087
0.000152148
0.000169391
0.000189481
0.000213329
0.000242009
0.000276422
0.000312547
0.000310996
0.000270072
0.000227233
0.000188101
0.000153524
0.000124379
9.97427e-05
7.99757e-05
6.35356e-05
5.09899e-05
4.04106e-05
3.29238e-05
2.61473e-05
2.19947e-05
1.7565e-05
1.54821e-05
1.28041e-05
1.71085e-05
9.3979e-06
4.39231e-06
5.14768e-06
4.41137e-06
3.89038e-06
3.61143e-06
3.5258e-06
3.53225e-06
3.67073e-06
3.95055e-06
4.42018e-06
5.13492e-06
6.1477e-06
7.53772e-06
9.37576e-06
1.17683e-05
1.48176e-05
1.86457e-05
2.3354e-05
2.90307e-05
3.57266e-05
4.34638e-05
5.22325e-05
6.20032e-05
7.27332e-05
8.43787e-05
9.6903e-05
0.000110282
0.000124509
0.000139596
0.000155586
0.000172542
0.000190173
0.000208716
0.000228427
0.000249569
0.000272516
0.000297763
0.000325996
0.000357985
0.00039408
0.000428736
0.000425966
0.000384323
0.000336874
0.000290282
0.0002462
0.00020625
0.000170178
0.000139073
0.000111787
8.94987e-05
7.01987e-05
5.55705e-05
4.25623e-05
3.38645e-05
2.5303e-05
2.07379e-05
1.5906e-05
1.83893e-05
1.07092e-05
5.51713e-06
5.50585e-06
4.69628e-06
3.86669e-06
3.46705e-06
3.29519e-06
3.30221e-06
3.48359e-06
3.89229e-06
4.58575e-06
5.67129e-06
7.24052e-06
9.43925e-06
1.24005e-05
1.63083e-05
2.13317e-05
2.76498e-05
3.53977e-05
4.46787e-05
5.55424e-05
6.79974e-05
8.20072e-05
9.74979e-05
0.000114366
0.000132494
0.000151759
0.000172046
0.000193252
0.000215291
0.000238111
0.000261512
0.000285081
0.000309072
0.000333641
0.000358941
0.000385224
0.000412836
0.000442289
0.00047417
0.000508331
0.000538848
0.00053527
0.000496164
0.000448464
0.000398946
0.000349636
0.000302414
0.000257523
0.000216448
0.000178661
0.00014578
0.000116346
9.23858e-05
7.10561e-05
5.53561e-05
4.07684e-05
3.16823e-05
2.37552e-05
2.02058e-05
1.22753e-05
6.86701e-06
6.06141e-06
5.20693e-06
4.1126e-06
3.54882e-06
3.27068e-06
3.27188e-06
3.51768e-06
4.10859e-06
5.13233e-06
6.76744e-06
9.16958e-06
1.25714e-05
1.71844e-05
2.32722e-05
3.10565e-05
4.07375e-05
5.24387e-05
6.6234e-05
8.21388e-05
0.000100124
0.000120101
0.000141927
0.000165407
0.000190315
0.000216415
0.000243477
0.000271285
0.000299643
0.000328421
0.000357011
0.00038519
0.000413133
0.000440914
0.000468606
0.000496373
0.000524454
0.00055325
0.000583234
0.000613822
0.00063951
0.000635462
0.000600184
0.000554648
0.000505214
0.000454008
0.000402882
0.000352354
0.000303978
0.000257746
0.000215411
0.000176302
0.000142461
0.000111987
8.75802e-05
6.56063e-05
4.99316e-05
3.79848e-05
2.2247e-05
1.39956e-05
8.38995e-06
6.80698e-06
5.8611e-06
4.61422e-06
3.86448e-06
3.4603e-06
3.44989e-06
3.78638e-06
4.62907e-06
6.12035e-06
8.53131e-06
1.21013e-05
1.71558e-05
2.39786e-05
3.28835e-05
4.40972e-05
5.77803e-05
7.39918e-05
9.27428e-05
0.000114001
0.000137693
0.000163677
0.000191724
0.000221539
0.00025278
0.000285099
0.000318154
0.000351632
0.000385244
0.000418729
0.00045127
0.000482813
0.000513452
0.000543204
0.000572085
0.000600196
0.000627705
0.00065494
0.000682246
0.000708827
0.00072986
0.000725526
0.000694263
0.000651947
0.000604268
0.000553299
0.000500749
0.000447248
0.000394248
0.000342066
0.000292381
0.000245211
0.000202391
0.000163209
0.000129663
9.98656e-05
7.62386e-05
5.96846e-05
2.42783e-05
1.57759e-05
1.00269e-05
7.74538e-06
6.60102e-06
5.32134e-06
4.40955e-06
3.87519e-06
3.8518e-06
4.31103e-06
5.48881e-06
7.60772e-06
1.10463e-05
1.61323e-05
2.32658e-05
3.27701e-05
4.4954e-05
5.99906e-05
7.79474e-05
9.87945e-05
0.000122479
0.000148933
0.000178049
0.000209631
0.00024337
0.000278871
0.000315688
0.000353368
0.00039148
0.000429632
0.000467467
0.00050454
0.000540046
0.000574004
0.000606446
0.00063734
0.000666664
0.000694477
0.000720897
0.000746203
0.000770578
0.000793274
0.000810129
0.000805553
0.000777948
0.000739106
0.000693952
0.000644424
0.000592057
0.000537497
0.00048204
0.000426154
0.000371359
0.000318119
0.000268009
0.00022134
0.000179335
0.000142076
0.000110183
8.88267e-05
2.61484e-05
1.75359e-05
1.1717e-05
8.86282e-06
7.42047e-06
6.1537e-06
5.14745e-06
4.51079e-06
4.48465e-06
5.10428e-06
6.7047e-06
9.61203e-06
1.43139e-05
2.12116e-05
3.07411e-05
4.32166e-05
5.8885e-05
7.78231e-05
9.99869e-05
0.000125267
0.00015357
0.000184809
0.000218854
0.000255456
0.000294229
0.000334689
0.000376293
0.000418506
0.000460824
0.000502792
0.000544008
0.000583797
0.000621537
0.000657231
0.000690858
0.000722353
0.000751664
0.000778823
0.000803911
0.00082716
0.000848645
0.000867763
0.000880961
0.00087609
0.000851563
0.00081601
0.000773602
0.000726097
0.000674863
0.000620512
0.000564182
0.000506369
0.00044843
0.000391036
0.000335543
0.000282934
0.000233833
0.000189976
0.000150365
0.000124359
2.77811e-05
1.92132e-05
1.3403e-05
1.0126e-05
8.34206e-06
7.04759e-06
6.01256e-06
5.32998e-06
5.32754e-06
6.1477e-06
8.24676e-06
1.20728e-05
1.82105e-05
2.71076e-05
3.91889e-05
5.47148e-05
7.38313e-05
9.6507e-05
0.000122599
0.000151946
0.000184437
0.000219981
0.000258423
0.000299464
0.000342643
0.000387392
0.00043309
0.00047913
0.00052495
0.000570046
0.000613969
0.000655846
0.000695283
0.000732224
0.000766606
0.000798338
0.000827348
0.000853647
0.000877298
0.000898466
0.000917231
0.000933107
0.000943112
0.000937835
0.000915743
0.000883084
0.000843326
0.000798039
0.00074844
0.000695081
0.000638966
0.000580543
0.000521032
0.000461123
0.00040204
0.00034507
0.000290504
0.000241167
0.000194974
0.000164646
2.91563e-05
2.07654e-05
1.5036e-05
1.14895e-05
9.38075e-06
7.98713e-06
6.94367e-06
6.26849e-06
6.32345e-06
7.37765e-06
1.00219e-05
1.48383e-05
2.24907e-05
3.34443e-05
4.8074e-05
6.65561e-05
8.89206e-05
0.000115039
0.000144695
0.000177704
0.000213954
0.000253348
0.000295704
0.000340669
0.000387707
0.00043618
0.000485395
0.000534688
0.000583448
0.00063113
0.000677199
0.000720735
0.000761468
0.000799296
0.000834123
0.000865836
0.00089435
0.000919664
0.000941822
0.000960952
0.000977189
0.000990131
0.000997321
0.000991496
0.000971221
0.000940972
0.000903607
0.000860501
0.000812747
0.000760827
0.000705637
0.000647538
0.000587641
0.000526539
0.000465399
0.000405515
0.000347109
0.000293484
0.000242119
0.000207888
3.02874e-05
2.21684e-05
1.65781e-05
1.29029e-05
1.05324e-05
8.98925e-06
7.91413e-06
7.26592e-06
7.39765e-06
8.6973e-06
1.18893e-05
1.76948e-05
2.68414e-05
3.97917e-05
5.68459e-05
7.80824e-05
0.000103417
0.000132642
0.000165497
0.000201791
0.000241416
0.000284266
0.000330121
0.000378573
0.000429015
0.000480742
0.000533005
0.000585086
0.000636336
0.000686178
0.000733961
0.000778823
0.000820543
0.000858983
0.000894018
0.00092552
0.000953396
0.000977641
0.000998271
0.00101544
0.00102932
0.00103959
0.00104426
0.00103773
0.00101871
0.000990382
0.000955073
0.000913988
0.000868107
0.00081785
0.000764023
0.000706886
0.000647468
0.000586197
0.000524238
0.000462688
0.000401905
0.000345155
0.000290058
0.000252389
3.12037e-05
2.34129e-05
1.80028e-05
1.43175e-05
1.17757e-05
1.0073e-05
8.93049e-06
8.29352e-06
8.49171e-06
1.00132e-05
1.37043e-05
2.04252e-05
3.09605e-05
4.5761e-05
6.50427e-05
8.87827e-05
0.000116789
0.000148799
0.00018452
0.000223769
0.000266439
0.000312406
0.000361412
0.000412985
0.00046645
0.000521045
0.000575968
0.000630459
0.000683834
0.000735495
0.000784648
0.000830568
0.00087303
0.000911863
0.000946919
0.00097806
0.00100519
0.00102829
0.00104738
0.00106267
0.00107433
0.00108214
0.0010845
0.00107713
0.00105888
0.001032
0.000998392
0.000959101
0.000915016
0.0008665
0.000814286
0.000758533
0.000700206
0.000639539
0.000577727
0.000515549
0.000453629
0.000394821
0.000337326
0.000296709
3.19396e-05
2.4501e-05
1.9295e-05
1.569e-05
1.30781e-05
1.12439e-05
1.00113e-05
9.35569e-06
9.58395e-06
1.12695e-05
1.53644e-05
2.2866e-05
3.46194e-05
5.10669e-05
7.2341e-05
9.83204e-05
0.000128713
0.000163212
0.000201507
0.000243423
0.000288853
0.000337648
0.000389503
0.000443886
0.000500052
0.00055719
0.00061445
0.000671035
0.000726233
0.000779419
0.000829678
0.000876437
0.000919438
0.000958482
0.000993405
0.00102406
0.00105035
0.00107224
0.00108981
0.00110327
0.00111283
0.00111834
0.00111855
0.00111021
0.00109231
0.00106646
0.0010342
0.000996459
0.000954037
0.000907249
0.000856772
0.000802672
0.000745857
0.000686366
0.000625435
0.000563471
0.000501427
0.000441504
0.000382769
0.000339703
3.25279e-05
2.54417e-05
2.04488e-05
1.69857e-05
1.44009e-05
1.24921e-05
1.11715e-05
1.04729e-05
1.0685e-05
1.2457e-05
1.68288e-05
2.49337e-05
3.76902e-05
5.55459e-05
7.85589e-05
0.000106516
0.000139027
0.000175752
0.000216362
0.00026069
0.000308625
0.00035999
0.000414428
0.000471349
0.000529938
0.000589339
0.00064866
0.000707069
0.000763834
0.000818274
0.000869443
0.000916854
0.000960221
0.000999322
0.00103398
0.00106404
0.00108939
0.00111005
0.0011261
0.00113778
0.00114532
0.00114866
0.00114685
0.00113741
0.00111951
0.00109432
0.0010631
0.00102665
0.000985733
0.00094061
0.000891913
0.000839627
0.000784607
0.000726708
0.000667209
0.000606126
0.000544767
0.000484542
0.000425533
0.000380517
3.29975e-05
2.62485e-05
2.14659e-05
1.81793e-05
1.57046e-05
1.37948e-05
1.24138e-05
1.16635e-05
1.18242e-05
1.36e-05
1.8111e-05
2.66202e-05
4.0138e-05
5.91415e-05
8.36304e-05
0.000113308
0.000147689
0.000186399
0.000229088
0.000275596
0.000325802
0.000379498
0.000436277
0.000495489
0.000556254
0.000617669
0.00067881
0.000738808
0.000796914
0.000852381
0.000904289
0.000952188
0.000995773
0.0010348
0.00106907
0.00109844
0.00112279
0.00114217
0.00115671
0.00116665
0.00117224
0.0011735
0.00116974
0.00115911
0.00114093
0.00111608
0.0010856
0.00105023
0.00101064
0.000967096
0.000920171
0.000869785
0.000816744
0.00076074
0.000703075
0.000643403
0.000583358
0.000523521
0.000465024
0.000418551
3.33723e-05
2.69365e-05
2.23532e-05
1.92553e-05
1.69527e-05
1.51209e-05
1.37282e-05
1.29368e-05
1.30341e-05
1.4738e-05
1.92576e-05
2.79703e-05
4.19977e-05
6.18773e-05
8.75734e-05
0.00011872
0.000154731
0.000195202
0.000239752
0.000288217
0.000340471
0.000396271
0.000455162
0.000516439
0.000579151
0.000642357
0.000705097
0.000766474
0.000825723
0.000882019
0.000934512
0.000982756
0.00102642
0.00106525
0.00109904
0.00112761
0.0011509
0.001169
0.00118202
0.00119024
0.00119393
0.00119319
0.00118755
0.00117563
0.00115695
0.00113216
0.00110219
0.00106767
0.00102926
0.000987191
0.000942002
0.000893557
0.000842611
0.000788715
0.000733181
0.000675329
0.000617087
0.000558217
0.000500861
0.000453409
3.3672e-05
2.75211e-05
2.31211e-05
2.02066e-05
1.81144e-05
1.64344e-05
1.50935e-05
1.42909e-05
1.43314e-05
1.59237e-05
2.03283e-05
2.90578e-05
4.3347e-05
6.38283e-05
9.04598e-05
0.000122826
0.000160235
0.000202252
0.000248451
0.000298662
0.000352744
0.000410427
0.000471208
0.000534331
0.000598775
0.000663561
0.000727701
0.000790262
0.000850468
0.000907427
0.000960364
0.00100882
0.00105245
0.00109097
0.00112415
0.00115186
0.00117407
0.00119085
0.00120236
0.00120886
0.00121069
0.00120801
0.00120053
0.00118726
0.00116789
0.00114295
0.00111326
0.00107941
0.00104204
0.00100134
0.00095784
0.000911348
0.000862567
0.000810929
0.00075774
0.000702027
0.000645964
0.00058854
0.000532827
0.000484854
3.3912e-05
2.80168e-05
2.3782e-05
2.10335e-05
1.91667e-05
1.76986e-05
1.648e-05
1.57126e-05
1.57195e-05
1.72012e-05
2.13879e-05
2.99665e-05
4.42851e-05
6.5099e-05
9.23934e-05
0.000125729
0.000164307
0.000207661
0.000255302
0.000307048
0.000362743
0.000422087
0.00048454
0.000549297
0.000615264
0.000681431
0.000746778
0.00081034
0.000871319
0.000928804
0.000982055
0.0010306
0.00107408
0.00111217
0.00114467
0.00117147
0.00119255
0.00120799
0.00121797
0.00122278
0.00122278
0.0012182
0.00120891
0.00119424
0.00117402
0.00114875
0.00111917
0.00108584
0.00104937
0.00100996
0.00096809
0.000923545
0.000876967
0.000827696
0.000777005
0.00072368
0.00067008
0.000614502
0.000560824
0.00051277
3.41047e-05
2.84368e-05
2.43489e-05
2.17421e-05
2.00952e-05
1.88796e-05
1.78523e-05
1.71791e-05
1.71907e-05
1.85797e-05
2.25259e-05
3.07791e-05
4.49179e-05
6.58077e-05
9.3495e-05
0.000127551
0.000167066
0.000211548
0.000260428
0.000313501
0.000370593
0.000431379
0.000495283
0.000561462
0.000628748
0.000696099
0.00076247
0.000826857
0.000888443
0.000946322
0.000999763
0.00104829
0.00109148
0.00112905
0.00116081
0.00118666
0.00120657
0.00122065
0.00122909
0.00123221
0.0012304
0.00122396
0.00121289
0.00119677
0.0011756
0.00114986
0.00112024
0.00108729
0.00105162
0.00101341
0.000973121
0.000930509
0.000886157
0.000839327
0.000791246
0.000740501
0.000689581
0.000636178
0.000584848
0.000537126
3.42598e-05
2.87927e-05
2.48344e-05
2.23421e-05
2.08935e-05
1.99491e-05
1.91722e-05
1.86588e-05
1.87269e-05
2.00563e-05
2.37751e-05
3.16217e-05
4.53496e-05
6.6076e-05
9.38929e-05
0.000128419
0.000168638
0.00021404
0.000263955
0.000318148
0.000376422
0.000438429
0.000503562
0.000570951
0.00063935
0.000707689
0.000774901
0.000839941
0.000901983
0.00096013
0.00101363
0.00106198
0.0011048
0.00114179
0.00117276
0.00119761
0.00121632
0.00122901
0.00123591
0.00123734
0.00123374
0.00122546
0.00121263
0.00119505
0.00117284
0.0011465
0.00111673
0.00108406
0.00104909
0.00101202
0.000973266
0.000932574
0.000890459
0.000846125
0.000800735
0.000752721
0.000704647
0.000653692
0.000604954
0.000557954
3.43849e-05
2.90944e-05
2.52504e-05
2.28455e-05
2.15627e-05
2.08864e-05
2.04028e-05
2.01144e-05
2.03001e-05
2.16167e-05
2.51398e-05
3.25722e-05
4.57359e-05
6.60232e-05
9.37165e-05
0.000128465
0.000169151
0.000215262
0.000266009
0.000321117
0.000380357
0.000443362
0.000509502
0.000577886
0.000647188
0.000716318
0.00078419
0.000849711
0.000912067
0.000970316
0.00102375
0.00107185
0.00111422
0.00115056
0.00118068
0.00120447
0.00122195
0.00123324
0.00123858
0.00123833
0.00123295
0.00122286
0.00120829
0.00118922
0.00116592
0.00113891
0.00110888
0.00107641
0.00104207
0.00100608
0.000968831
0.000930045
0.000890175
0.00084838
0.000805741
0.000760577
0.000715475
0.000667194
0.000621244
0.000575331
3.4486e-05
2.93505e-05
2.56075e-05
2.32655e-05
2.21099e-05
2.16793e-05
2.15111e-05
2.15049e-05
2.18743e-05
2.32359e-05
2.66103e-05
3.3646e-05
4.6199e-05
6.58415e-05
9.30935e-05
0.00012782
0.000168733
0.00021534
0.000266714
0.000322531
0.000382526
0.000446308
0.000513228
0.000582389
0.000652382
0.000722101
0.000790447
0.000856262
0.00091875
0.000976986
0.00103025
0.00107801
0.00111985
0.00115548
0.0011847
0.0012074
0.00122362
0.00123348
0.00123725
0.00123532
0.00122817
0.00121629
0.0012
0.00117945
0.001155
0.00112725
0.00109691
0.00106457
0.00103081
0.000995864
0.000960088
0.000923202
0.000885584
0.000846362
0.000806522
0.000764303
0.000722269
0.000676853
0.000633846
0.00058936
3.45679e-05
2.9568e-05
2.59151e-05
2.36151e-05
2.25463e-05
2.23243e-05
2.2471e-05
2.27898e-05
2.34073e-05
2.48793e-05
2.81646e-05
3.48422e-05
4.6771e-05
6.56655e-05
9.22774e-05
0.000126611
0.000167511
0.000214398
0.000266192
0.000322516
0.000383055
0.000447394
0.000514867
0.000584585
0.000655052
0.000725135
0.000793712
0.000859663
0.000922151
0.00098026
0.00103325
0.00108058
0.00112183
0.00115668
0.00118494
0.00120652
0.00122144
0.00122986
0.00123205
0.00122844
0.00121954
0.00120589
0.00118789
0.00116586
0.00114025
0.00111172
0.00108102
0.00104876
0.00101554
0.000981605
0.000947288
0.000912301
0.000876944
0.000840327
0.000803324
0.000764129
0.000725239
0.000682846
0.000642908
0.000600164
3.46343e-05
2.97531e-05
2.61809e-05
2.39067e-05
2.28862e-05
2.28254e-05
2.32652e-05
2.39318e-05
2.48535e-05
2.6504e-05
2.9769e-05
3.61444e-05
4.74644e-05
6.55453e-05
9.13577e-05
0.000125076
0.000165708
0.000212569
0.000264564
0.000321192
0.00038207
0.000446749
0.00051455
0.000584544
0.000655248
0.000725481
0.000794096
0.000860033
0.000922389
0.000980253
0.00103287
0.00107969
0.00112026
0.00115427
0.00118153
0.00120194
0.00121553
0.00122249
0.00122309
0.0012178
0.00120716
0.00119175
0.00117209
0.00114857
0.00112179
0.00109245
0.00106136
0.00102916
0.00099646
0.000963524
0.000930661
0.000897578
0.000864496
0.000830513
0.00079638
0.000760275
0.000724589
0.000685355
0.000648587
0.000607881
3.46882e-05
2.99107e-05
2.64117e-05
2.41512e-05
2.31449e-05
2.31932e-05
2.38858e-05
2.49004e-05
2.61676e-05
2.80612e-05
3.13794e-05
3.75218e-05
4.82733e-05
6.55106e-05
9.04011e-05
0.000123308
0.000163428
0.00021002
0.00026198
0.000318686
0.000379674
0.000444458
0.000512346
0.00058238
0.00065309
0.000723257
0.000791731
0.000857491
0.000919577
0.000977075
0.00102922
0.00107543
0.00111525
0.00114836
0.00117456
0.00119376
0.00120601
0.00121148
0.00121049
0.00120351
0.00119115
0.00117401
0.00115269
0.00112772
0.00109976
0.00106961
0.00103811
0.00100595
0.000973766
0.000941827
0.000910421
0.000879254
0.000848464
0.000817144
0.000785913
0.000752954
0.000720521
0.00068456
0.000651047
0.000612652
3.47321e-05
3.00451e-05
2.6613e-05
2.43581e-05
2.33378e-05
2.3443e-05
2.43345e-05
2.5674e-05
2.73079e-05
2.94994e-05
3.2944e-05
3.89313e-05
4.91741e-05
6.55706e-05
8.94541e-05
0.000121383
0.000160764
0.000206851
0.000258538
0.000315094
0.00037597
0.000440631
0.000508372
0.000578214
0.0006487
0.00071858
0.00078674
0.000852159
0.000913832
0.00097084
0.0010224
0.00106791
0.00110691
0.00113906
0.00116415
0.0011821
0.00119296
0.00119693
0.00119434
0.00118569
0.00117161
0.00115276
0.00112982
0.00110341
0.00107429
0.00104334
0.00101143
0.000979317
0.000947642
0.000916706
0.000886769
0.000857536
0.000829059
0.000800433
0.000772133
0.000742372
0.000713233
0.000680643
0.000650457
0.000614622
3.47677e-05
3.01597e-05
2.67891e-05
2.45354e-05
2.34794e-05
2.35928e-05
2.46211e-05
2.6242e-05
2.82402e-05
3.0768e-05
3.44059e-05
4.0319e-05
5.01274e-05
6.5714e-05
8.8542e-05
0.000119359
0.000157797
0.00020315
0.00025433
0.000310513
0.000371056
0.000435374
0.000502741
0.000572166
0.0006422
0.000711572
0.00077925
0.000844159
0.000905273
0.000961663
0.00101253
0.00105725
0.00109534
0.00112646
0.00115039
0.00116706
0.00117651
0.00117896
0.00117476
0.00116443
0.00114864
0.00112812
0.00110358
0.00107576
0.00104551
0.00101376
0.000981469
0.000949412
0.000918264
0.000888349
0.000859901
0.000832624
0.000806486
0.000780584
0.000755245
0.000728725
0.000702915
0.000673783
0.000646984
0.000613941
3.47966e-05
3.02576e-05
2.69438e-05
2.46894e-05
2.35828e-05
2.36621e-05
2.47625e-05
2.66044e-05
2.89401e-05
3.18215e-05
3.57067e-05
4.16237e-05
5.10805e-05
6.59109e-05
8.7669e-05
0.000117276
0.000154592
0.000198997
0.000249441
0.000305027
0.000365024
0.000428786
0.000495565
0.000564353
0.000633711
0.000702381
0.00076939
0.000833617
0.000894022
0.00094966
0.000999717
0.00104355
0.00108065
0.00111067
0.00113339
0.00114872
0.00115674
0.00115765
0.00115183
0.00113984
0.00112237
0.00110018
0.00107409
0.00104489
0.00101354
0.000981038
0.00094838
0.000916405
0.00088581
0.000856941
0.000830007
0.000804714
0.000780943
0.000757796
0.000735446
0.000712208
0.000689757
0.000664154
0.000640796
0.000610756
3.48202e-05
3.03412e-05
2.708e-05
2.48252e-05
2.3659e-05
2.367e-05
2.478e-05
2.67719e-05
2.93957e-05
3.26231e-05
3.67908e-05
4.27808e-05
5.19705e-05
6.6115e-05
8.68184e-05
0.000115151
0.000151197
0.000194458
0.000243947
0.000298718
0.00035796
0.000420961
0.000486945
0.000554887
0.000623351
0.000691138
0.000757288
0.000820662
0.000880203
0.000934952
0.000984079
0.00102692
0.00106295
0.0010918
0.00111325
0.00112721
0.00113375
0.00113311
0.00112568
0.00111203
0.00109288
0.00106907
0.00104145
0.00101093
0.000978525
0.000945305
0.000912323
0.000880468
0.000850461
0.00082267
0.000797282
0.000774003
0.000752627
0.000732265
0.000712931
0.00069301
0.000673944
0.000651933
0.00063206
0.000605217
3.48393e-05
3.04126e-05
2.72002e-05
2.49466e-05
2.37172e-05
2.36344e-05
2.46976e-05
2.67638e-05
2.96078e-05
3.31481e-05
3.761e-05
4.37262e-05
5.27287e-05
6.62667e-05
8.5955e-05
0.000112981
0.000147644
0.000189586
0.000237913
0.000291658
0.000349941
0.000411985
0.000476977
0.000543875
0.000611231
0.000677966
0.000743075
0.000805422
0.00086394
0.00091766
0.000965733
0.00100747
0.00104234
0.00106995
0.00109007
0.00110262
0.00110766
0.00110545
0.00109639
0.00108109
0.00106029
0.00103489
0.0010058
0.000974011
0.000940602
0.000906718
0.000873466
0.000841781
0.000812405
0.000785733
0.000761926
0.000740692
0.00072174
0.00070419
0.000687896
0.00067132
0.00065566
0.000637293
0.000620944
0.000597472
3.48548e-05
3.04738e-05
2.73065e-05
2.50563e-05
2.37643e-05
2.35709e-05
2.45402e-05
2.66058e-05
2.95897e-05
3.3386e-05
3.81275e-05
4.44015e-05
5.32849e-05
6.62981e-05
8.50283e-05
0.000110747
0.000143942
0.000184418
0.000231393
0.00028391
0.000341037
0.000401934
0.000465748
0.000531414
0.000597482
0.000662986
0.000726873
0.000788022
0.000845361
0.000897908
0.000944801
0.00098533
0.00101894
0.00104524
0.00106397
0.00107506
0.00107857
0.00107477
0.00106409
0.00104714
0.00102473
0.000997778
0.000967273
0.000934269
0.000899926
0.000865448
0.000831991
0.000800536
0.000771847
0.00074634
0.000724151
0.000704994
0.000688491
0.000673775
0.000660539
0.000647331
0.000635093
0.000620411
0.000607619
0.000587671
3.48674e-05
3.05261e-05
2.74006e-05
2.51565e-05
2.38056e-05
2.34926e-05
2.43312e-05
2.63277e-05
2.93653e-05
3.33413e-05
3.83211e-05
4.47591e-05
5.35731e-05
6.61372e-05
8.39765e-05
0.000108409
0.000140085
0.000178975
0.000224427
0.000275525
0.000331306
0.000390875
0.000453336
0.000517592
0.000582215
0.00064631
0.000708804
0.000768587
0.000824589
0.000875819
0.000921402
0.00096061
0.000992871
0.00101777
0.00103505
0.00104463
0.00104659
0.00104119
0.00102888
0.00101031
0.000986317
0.000957862
0.000926003
0.000891863
0.000856667
0.000821679
0.000788098
0.000756948
0.00072901
0.000704718
0.000684189
0.000667136
0.000653102
0.000641236
0.00063107
0.000621242
0.000612434
0.000601466
0.000592255
0.000575967
3.48776e-05
3.0571e-05
2.74839e-05
2.52485e-05
2.38447e-05
2.341e-05
2.40921e-05
2.59607e-05
2.89665e-05
3.30329e-05
3.81855e-05
4.47659e-05
5.3537e-05
6.57147e-05
8.27322e-05
0.000105917
0.00013605
0.00017326
0.000217043
0.000266546
0.0003208
0.000378866
0.000439807
0.000502484
0.00056552
0.000628041
0.000688977
0.000747233
0.000801744
0.000851514
0.000895658
0.00093343
0.000964243
0.000987667
0.00100344
0.00101146
0.00101183
0.00100482
0.000990887
0.000970722
0.000945185
0.00091529
0.000882154
0.000846968
0.000811017
0.000775618
0.000742011
0.000711255
0.000684143
0.000661125
0.000642294
0.000627369
0.000615818
0.000606804
0.000599709
0.000593261
0.000587882
0.000580643
0.00057503
0.000562513
3.48859e-05
3.06095e-05
2.75578e-05
2.53334e-05
2.38838e-05
2.33309e-05
2.38411e-05
2.55355e-05
2.84306e-05
3.24923e-05
3.77332e-05
4.44071e-05
5.31346e-05
6.49693e-05
8.12284e-05
0.000103214
0.0001318
0.000167266
0.000209254
0.000257003
0.000309559
0.000365956
0.000425218
0.000486157
0.000547473
0.000608271
0.000667495
0.000724071
0.000776941
0.000825111
0.000867686
0.000903909
0.000933175
0.000955042
0.000969238
0.000975667
0.000974419
0.00096578
0.000950244
0.000928513
0.000901485
0.000870224
0.000835903
0.000799778
0.00076319
0.000727503
0.000693988
0.000663731
0.000637531
0.000615848
0.000598755
0.000585974
0.000576906
0.000570734
0.000566695
0.000563611
0.000561647
0.000558135
0.000556125
0.00054747
3.48925e-05
3.06426e-05
2.76233e-05
2.54119e-05
2.39243e-05
2.32605e-05
2.3593e-05
2.50797e-05
2.77968e-05
3.17602e-05
3.69926e-05
4.36876e-05
5.23431e-05
6.38539e-05
7.94049e-05
0.000100241
0.000127295
0.000160972
0.000201065
0.000246917
0.000297617
0.000352186
0.000409617
0.000468674
0.000528145
0.000587079
0.00064445
0.000699201
0.000750289
0.000796722
0.000837603
0.000872164
0.000899786
0.000920017
0.000932575
0.000937363
0.000934476
0.000924214
0.00090709
0.000883834
0.000855382
0.000822845
0.000787452
0.000750518
0.000713436
0.000677606
0.000644324
0.000614689
0.0005895
0.000569221
0.000553901
0.000543269
0.00053667
0.000533308
0.000532292
0.000532535
0.000533954
0.000534147
0.000535732
0.000531003
3.48979e-05
3.06712e-05
2.76814e-05
2.54845e-05
2.39666e-05
2.32022e-05
2.33589e-05
2.46175e-05
2.71031e-05
3.08832e-05
3.60062e-05
4.26324e-05
5.1161e-05
6.23405e-05
7.7215e-05
9.6947e-05
0.000122491
0.000154354
0.000192472
0.000236303
0.000284999
0.000337588
0.000393044
0.000450102
0.000507591
0.000564535
0.000619921
0.000672715
0.000721887
0.000766455
0.000805521
0.00083831
0.000864194
0.000882711
0.000893573
0.000896682
0.00089214
0.00088026
0.000861578
0.000836854
0.000807064
0.000773362
0.000737033
0.000699449
0.000662043
0.000626245
0.000593362
0.000564495
0.000540431
0.000521627
0.000508111
0.000499619
0.000495454
0.000494846
0.000496793
0.000500299
0.000505048
0.000508898
0.000514053
0.000513284
3.49021e-05
3.06958e-05
2.77331e-05
2.55517e-05
2.40107e-05
2.31576e-05
2.31465e-05
2.41685e-05
2.63848e-05
2.99097e-05
3.48263e-05
4.1284e-05
4.96097e-05
6.0424e-05
7.46307e-05
9.32915e-05
0.000117349
0.000147387
0.000183467
0.000225171
0.000271728
0.000322194
0.000375537
0.000430479
0.000485864
0.000540698
0.000593981
0.000644695
0.000691829
0.000734411
0.000771548
0.000802462
0.000826519
0.000843249
0.000852362
0.00085376
0.000847555
0.000834075
0.00081388
0.000787763
0.00075674
0.000722012
0.000684915
0.000646871
0.000609349
0.000573793
0.000541507
0.000513578
0.000490766
0.000473513
0.000461825
0.000455447
0.000453653
0.00045571
0.000460528
0.0004672
0.000475198
0.000482626
0.000491303
0.000494495
3.49056e-05
3.07171e-05
2.7779e-05
2.56138e-05
2.40563e-05
2.31268e-05
2.29605e-05
2.37475e-05
2.56719e-05
2.88865e-05
3.35107e-05
3.96994e-05
4.7732e-05
5.81242e-05
7.16482e-05
8.92539e-05
0.000111846
0.000140054
0.000174049
0.000213533
0.000257828
0.000306035
0.000357129
0.00040984
0.000463006
0.000515622
0.000566691
0.000615215
0.0006602
0.000700686
0.00073579
0.000764733
0.000786881
0.00080176
0.000809079
0.000808745
0.000800879
0.000785831
0.000764188
0.000736777
0.000704655
0.000669072
0.000631413
0.000593141
0.00055575
0.000520685
0.00048923
0.000462436
0.000441022
0.000425401
0.000415553
0.000411238
0.000411721
0.000416316
0.000423872
0.000433571
0.000444699
0.000455589
0.000467714
0.00047484
3.49083e-05
3.07357e-05
2.78199e-05
2.56711e-05
2.41029e-05
2.31093e-05
2.28031e-05
2.33646e-05
2.49887e-05
2.78557e-05
3.2118e-05
3.79448e-05
4.55889e-05
5.54854e-05
6.82896e-05
8.48376e-05
0.000105975
0.00013235
0.000164222
0.000201407
0.000243329
0.000289147