/*--------------------------------*- C++ -*----------------------------------*\
| =========                 |                                                 |
| \\      /  F ield         | OpenFOAM: The Open Source CFD Toolbox           |
|  \\    /   O peration     | Version:  2.4.0                                 |
|   \\  /    A nd           | Web:      www.OpenFOAM.org                      |
|    \\/     M anipulation  |                                                 |
\*---------------------------------------------------------------------------*/
FoamFile
{
    version     2.0;
    format      ascii;
    class       volVectorField;
    location    "1.18";
    object      U;
}
// * * * * * * * * * * * * * * * * * * * * * * * * * * * * * * * * * * * * * //

dimensions      [0 1 -1 0 0 0 0];

internalField   nonuniform List<vector> 
6000
(
(0.513107 -0.0429559 -4.37684e-18)
(-0.319699 0.0672221 0)
(0.114142 -0.0273741 1.16793e-17)
(-0.00931737 0.00182361 0)
(0.03529 -0.0077153 0)
(0.077699 -0.0174262 0)
(0.156976 -0.029275 4.57262e-18)
(0.176198 -0.0285741 -5.42112e-21)
(0.0870115 -0.00619013 0)
(-0.091757 0.0287069 0)
(-0.291137 0.0587438 1.2795e-18)
(-0.451796 0.0733225 -7.88806e-19)
(-0.537714 0.0745786 0)
(-0.543618 0.0660241 0)
(-0.486323 0.0500062 -6.90878e-19)
(-0.395747 0.0345266 0)
(-0.292218 0.0211246 0)
(-0.195795 0.0112937 -2.14174e-18)
(-0.117441 0.0047253 -2.37588e-18)
(-0.05846 0.000575819 0)
(-0.0150551 -0.0019951 2.57806e-18)
(0.0183376 -0.00375834 1.30304e-18)
(0.0464843 -0.00489507 -1.30694e-18)
(0.0718301 -0.00565252 0)
(0.0957057 -0.00602089 0)
(0.118555 -0.00598983 0)
(0.140249 -0.00555569 6.58277e-19)
(0.160437 -0.0047326 -6.60078e-19)
(0.178763 -0.00355637 0)
(0.195008 -0.00207963 0)
(0.209142 -0.000361941 8.32097e-20)
(0.221318 0.00154102 0)
(0.23181 0.00358488 6.69585e-19)
(0.240942 0.00573891 -6.71818e-19)
(0.249032 0.0079844 0)
(0.256362 0.0103118 0)
(0.263176 0.0127182 1.36157e-18)
(0.269679 0.0152057 0)
(0.276045 0.0177806 1.37812e-18)
(0.282425 0.0204523 0)
(0.28895 0.0232335 0)
(0.295736 0.0261391 2.82148e-18)
(0.302894 0.0291874 -5.69357e-18)
(0.310529 0.0323993 0)
(0.318753 0.0357993 0)
(0.327679 0.0394164 2.93305e-18)
(0.337435 0.0432816 0)
(0.348166 0.0474171 0)
(0.360034 0.0518836 -6.03697e-18)
(0.373237 0.05674 -6.08775e-18)
(0.387999 0.0620483 -6.12271e-18)
(0.404641 0.0678855 -4.90062e-21)
(0.42342 0.0743518 6.11518e-18)
(0.445071 0.0816017 0)
(0.469339 0.0897049 -8.3496e-21)
(0.499438 0.0991821 -5.68161e-18)
(0.529447 0.109363 5.23918e-18)
(0.580676 0.123548 4.63624e-18)
(0.601834 0.133859 1.88691e-20)
(0.723635 0.161982 0)
(0.726279 -0.108332 3.06551e-18)
(-0.212575 0.0633386 6.67417e-18)
(0.092363 -0.0310176 -5.67945e-18)
(-0.0486921 0.0130151 -5.89758e-18)
(0.0319989 -0.010717 0)
(0.0625764 -0.0207178 0)
(0.144565 -0.0327427 -4.4809e-18)
(0.154585 -0.0242811 7.98537e-18)
(-0.00769676 0.0182466 0)
(-0.272394 0.0686405 0)
(-0.476549 0.0976243 -1.23402e-18)
(-0.576366 0.101604 3.82854e-19)
(-0.597284 0.0914723 4.41413e-20)
(-0.570723 0.0750986 0)
(-0.508267 0.0548033 6.76877e-19)
(-0.411729 0.0342689 0)
(-0.302845 0.0176672 0)
(-0.200978 0.00671689 0)
(-0.117072 0.00016341 0)
(-0.0525827 -0.00359989 0)
(-0.00393236 -0.00581824 -1.01876e-21)
(0.0344116 -0.00739871 0)
(0.0672682 -0.00842286 -1.2922e-18)
(0.0971855 -0.00914984 0)
(0.125553 -0.00946557 0)
(0.152793 -0.00929002 6.49512e-19)
(0.178688 -0.00858328 -6.51221e-19)
(0.20276 -0.007352 1.22465e-22)
(0.224537 -0.00564796 3.27351e-19)
(0.243727 -0.00355545 0)
(0.260294 -0.00117185 -8.23144e-20)
(0.274444 0.00141318 -3.30137e-19)
(0.286544 0.00413194 -1.37828e-22)
(0.297015 0.00694231 6.64628e-19)
(0.306254 0.009823 -6.66988e-19)
(0.314604 0.0127666 0)
(0.322351 0.0157744 0)
(0.329733 0.0188533 0)
(0.336957 0.0220149 0)
(0.344203 0.0252742 0)
(0.351628 0.0286496 -2.76553e-18)
(0.359372 0.0321617 0)
(0.367567 0.0358342 2.81478e-18)
(0.376338 0.0396938 2.84009e-18)
(0.385814 0.0437709 0)
(0.396131 0.0481007 0)
(0.407435 0.0527246 0)
(0.419895 0.0576856 0)
(0.433702 0.0630465 5.96266e-18)
(0.449084 0.0688759 0)
(0.466303 0.0752605 0)
(0.48572 0.082321 -6.05038e-18)
(0.507656 0.0901623 -6.03024e-18)
(0.532901 0.0989971 0)
(0.561333 0.10891 -1.16349e-17)
(0.596131 0.120559 0)
(0.632115 0.133246 -1.02865e-17)
(0.689132 0.150732 -4.51171e-18)
(0.722054 0.165192 3.23086e-18)
(0.862259 0.200514 2.12906e-18)
(0.798216 -0.0910487 -3.34838e-19)
(-0.0818365 0.0488617 -6.24135e-18)
(0.0645771 -0.025712 0)
(-0.0729245 0.0187122 5.82126e-18)
(0.0181642 -0.011199 0)
(0.0343485 -0.0195491 0)
(0.111725 -0.0284397 0)
(0.0917513 -0.00434669 -3.93623e-18)
(-0.117532 0.0556431 0)
(-0.365908 0.102248 -2.3131e-18)
(-0.50424 0.112371 0)
(-0.566762 0.103187 0)
(-0.590516 0.0866048 -4.35205e-20)
(-0.571558 0.0655615 0)
(-0.507919 0.0427725 0)
(-0.411565 0.0205656 0)
(-0.302411 0.00426658 0)
(-0.199891 -0.00483161 0)
(-0.115055 -0.00902787 0)
(-0.0494904 -0.0107381 2.44007e-18)
(0.000283432 -0.0115936 -2.51678e-18)
(0.0398531 -0.0123066 0)
(0.0740695 -0.0129018 3.19151e-22)
(0.105587 -0.0134387 -1.28123e-18)
(0.135891 -0.0136533 0)
(0.16543 -0.013356 -1.28699e-18)
(0.193935 -0.0124421 0)
(0.220787 -0.0108937 6.47418e-19)
(0.245315 -0.00877199 -3.24754e-19)
(0.267022 -0.00619517 0)
(0.28573 -0.00330468 0)
(0.301599 -0.000229095 3.27842e-19)
(0.315036 0.00294031 -1.45736e-22)
(0.326547 0.00615434 0)
(0.336619 0.00939548 1.32529e-18)
(0.34566 0.0126637 0)
(0.353994 0.0159667 1.33769e-18)
(0.361891 0.0193165 0)
(0.369578 0.0227284 0)
(0.37726 0.0262216 0)
(0.385116 0.0298183 2.74894e-18)
(0.39331 0.0335434 0)
(0.40199 0.0374241 0)
(0.411298 0.0414905 -2.82314e-18)
(0.421376 0.0457759 0)
(0.432373 0.0503183 0)
(0.444449 0.0551611 2.90605e-18)
(0.457786 0.0603588 -2.93365e-18)
(0.472591 0.0659685 -2.95917e-18)
(0.489112 0.0720619 0)
(0.507632 0.0787266 0)
(0.528537 0.0860761 0)
(0.552184 0.0942338 5.97946e-18)
(0.579387 0.10336 5.91061e-18)
(0.610132 0.113641 5.77858e-18)
(0.647526 0.12543 0)
(0.686747 0.138746 5.10788e-18)
(0.747332 0.155496 8.95788e-18)
(0.783369 0.171135 0)
(0.931004 0.203963 -2.11589e-18)
(0.836125 -0.0595253 -2.61793e-19)
(0.0392106 0.0405651 5.76656e-18)
(0.0420527 -0.0176601 -5.53244e-18)
(-0.0842943 0.0214485 0)
(0.00205998 -0.0109075 0)
(0.00360365 -0.0172461 0)
(0.0705358 -0.0220858 0)
(0.0175818 0.018914 0)
(-0.200868 0.0883459 0)
(-0.395031 0.122389 2.27099e-18)
(-0.488953 0.11858 1.17701e-18)
(-0.552911 0.106109 0)
(-0.583511 0.087805 0)
(-0.566101 0.0629967 0)
(-0.503298 0.0350898 6.09213e-19)
(-0.407764 0.00996974 0)
(-0.299285 -0.00703999 1.63711e-18)
(-0.197226 -0.0150116 -2.01501e-18)
(-0.112665 -0.0172942 0)
(-0.0472603 -0.0171487 -2.41514e-18)
(0.00240797 -0.0166765 0)
(0.0419598 -0.0165358 -1.26128e-18)
(0.0762879 -0.0167138 2.53419e-18)
(0.108124 -0.0170906 1.27019e-18)
(0.13904 -0.017262 0)
(0.16954 -0.016928 6.38014e-19)
(0.199373 -0.0159105 0)
(0.227874 -0.014152 6.42071e-19)
(0.254249 -0.0117069 0)
(0.277824 -0.00871679 0)
(0.298234 -0.00536728 0)
(0.315515 -0.00183468 3.25723e-19)
(0.330037 0.00175502 -1.3077e-18)
(0.342347 0.00533814 0)
(0.353004 0.00889903 -6.59086e-19)
(0.362484 0.0124469 0)
(0.371154 0.0159985 -1.33097e-18)
(0.379306 0.0195716 0)
(0.387185 0.0231851 0)
(0.39501 0.0268613 0)
(0.402982 0.0306258 2.73316e-18)
(0.411281 0.0345073 0)
(0.420072 0.0385368 2.78009e-18)
(0.42951 0.0427475 -2.80586e-18)
(0.439744 0.0471754 0)
(0.450932 0.0518609 -2.86039e-18)
(0.463241 0.0568496 -5.778e-18)
(0.47686 0.0621931 2.91696e-18)
(0.492002 0.0679545 5.88138e-18)
(0.508923 0.0742084 -5.92036e-18)
(0.527915 0.0810424 -5.9485e-18)
(0.549372 0.0885623 0)
(0.57367 0.0969021 -5.94001e-18)
(0.601611 0.106252 -5.87032e-18)
(0.633262 0.116747 -5.71666e-18)
(0.671567 0.128898 0)
(0.712182 0.142558 0)
(0.77358 0.159373 -4.43287e-18)
(0.812111 0.175951 0)
(0.958968 0.205711 2.03878e-18)
(0.861242 -0.0339387 -2.44568e-19)
(0.148202 0.0369122 -8.99739e-20)
(0.0469716 -0.0113937 5.47368e-18)
(-0.0882497 0.0228459 5.73122e-18)
(-0.013782 -0.0100038 0)
(-0.0253937 -0.0142543 -4.93586e-18)
(0.0233774 -0.0131629 0)
(-0.0540601 0.0423137 0)
(-0.251103 0.112055 0)
(-0.391498 0.132574 2.21261e-18)
(-0.471571 0.123043 -1.15564e-18)
(-0.542602 0.10952 0)
(-0.574825 0.0875398 0)
(-0.557852 0.0581266 0)
(-0.495628 0.0262566 -6.03664e-19)
(-0.40078 -0.00151712 0)
(-0.293229 -0.0189796 -1.61952e-18)
(-0.192303 -0.0255766 1.99517e-18)
(-0.108828 -0.0257515 0)
(-0.0443728 -0.0236276 0)
(0.00449305 -0.0217677 1.23759e-18)
(0.0434017 -0.0207478 1.25331e-18)
(0.0772624 -0.0204999 -2.5179e-18)
(0.108846 -0.020719 -1.26151e-18)
(0.139774 -0.0208606 0)
(0.170585 -0.0205146 6.33467e-19)
(0.20104 -0.0194291 0)
(0.230457 -0.0175048 -6.37925e-19)
(0.257975 -0.014784 3.20129e-19)
(0.282798 -0.0114254 0)
(0.304416 -0.00765605 0)
(0.322738 -0.00370292 -6.47972e-19)
(0.338069 0.000266277 6.50564e-19)
(0.350961 0.00416671 0)
(0.362022 0.00798169 -6.55758e-19)
(0.371782 0.0117303 0)
(0.380653 0.0154406 1.32441e-18)
(0.388945 0.0191377 0)
(0.396914 0.0228447 0)
(0.40479 0.0265863 0)
(0.412784 0.0303909 -2.72116e-18)
(0.421089 0.0342902 -2.74223e-18)
(0.429883 0.0383183 -2.76721e-18)
(0.439329 0.0425112 1.35359e-21)
(0.449584 0.0469069 -2.81715e-18)
(0.46081 0.0515469 2.84545e-18)
(0.473178 0.0564779 5.74269e-18)
(0.486879 0.0617543 0)
(0.502131 0.0674381 -2.92155e-18)
(0.51919 0.0736028 5.88194e-18)
(0.538355 0.0803374 5.90735e-18)
(0.56002 0.0877529 0)
(0.58457 0.0959787 0)
(0.612798 0.105185 0)
(0.644815 0.115582 5.66333e-18)
(0.683479 0.127466 0)
(0.7247 0.141004 0)
(0.786239 0.157398 4.33468e-18)
(0.826097 0.174145 -3.04781e-18)
(0.970661 0.201635 -1.99773e-18)
(0.880134 -0.0130755 -2.25875e-19)
(0.245681 0.0364112 -5.3192e-18)
(0.0728081 -0.00638486 0)
(-0.0858114 0.0240512 -5.7132e-18)
(-0.0259022 -0.00880853 -5.09511e-18)
(-0.0498902 -0.0110153 -2.16602e-21)
(-0.0262079 -0.00234167 0)
(-0.112696 0.0626435 0)
(-0.273876 0.127664 0)
(-0.37645 0.138464 -2.17689e-18)
(-0.457624 0.127872 0)
(-0.531771 0.11304 0)
(-0.563984 0.0870988 -9.82768e-21)
(-0.54734 0.0531891 0)
(-0.485399 0.0172628 0)
(-0.390749 -0.0131315 0)
(-0.283872 -0.0310294 0)
(-0.184425 -0.0362143 -1.97302e-18)
(-0.102683 -0.0342393 0)
(-0.0398485 -0.0300993 2.38417e-18)
(0.0076223 -0.0268359 -1.23185e-18)
(0.0453748 -0.0249214 -1.24745e-18)
(0.0783205 -0.024247 2.50687e-18)
(0.109244 -0.0243183 2.51214e-18)
(0.139796 -0.0244481 0)
(0.170528 -0.0241137 -6.30611e-19)
(0.201208 -0.0229868 0)
(0.231134 -0.0209234 0)
(0.259383 -0.0179504 -6.37168e-19)
(0.285063 -0.0142409 0)
(0.307546 -0.0100621 0)
(0.32663 -0.00569328 6.45177e-19)
(0.342554 -0.00134806 0)
(0.355861 0.00286306 0)
(0.367194 0.00692019 6.5346e-19)
(0.377133 0.0108532 0)
(0.386124 0.0147041 -1.31996e-18)
(0.394499 0.0185086 0)
(0.402522 0.0222955 0)
(0.410424 0.0260929 0)
(0.418422 0.0299322 0)
(0.426718 0.0338487 2.73224e-18)
(0.435496 0.0378805 2.75419e-18)
(0.444927 0.0420669 1.3616e-21)
(0.455172 0.0464486 2.80527e-18)
(0.466395 0.051069 2.82946e-18)
(0.47877 0.0559755 -2.85667e-18)
(0.492489 0.0612217 0)
(0.507771 0.0668697 -2.90078e-18)
(0.524874 0.0729924 2.91805e-18)
(0.544097 0.0796766 -5.85652e-18)
(0.565835 0.0870259 0)
(0.590475 0.0951726 0)
(0.618813 0.104274 -5.73933e-18)
(0.650963 0.114549 -5.5836e-18)
(0.689764 0.126212 5.32456e-18)
(0.731212 0.139689 4.88167e-18)
(0.792795 0.155358 -4.26542e-18)
(0.833342 0.172017 2.9902e-18)
(0.976017 0.197159 0)
(0.895316 0.00579212 -2.02614e-19)
(0.332476 0.0383494 0)
(0.110742 -0.00123755 5.20475e-18)
(-0.0751379 0.025126 5.66339e-18)
(-0.0327907 -0.00754904 1.1253e-21)
(-0.0687888 -0.00754695 4.93151e-18)
(-0.0688979 0.00823431 0)
(-0.153229 0.0783062 0)
(-0.277991 0.137585 0)
(-0.359357 0.14321 1.0601e-18)
(-0.444862 0.133163 5.3901e-19)
(-0.519397 0.116511 0)
(-0.551774 0.0865919 9.79901e-21)
(-0.535657 0.0481834 1.30163e-19)
(-0.473791 0.00816306 0)
(-0.378627 -0.0248874 0)
(-0.271578 -0.0432055 0)
(-0.173408 -0.0469112 3.164e-21)
(-0.0937757 -0.042727 0)
(-0.0331043 -0.036524 -4.74916e-18)
(0.0124451 -0.0318555 1.22735e-18)
(0.0485669 -0.029028 1.24336e-18)
(0.0801759 -0.0279286 -3.62571e-22)
(0.110062 -0.027864 -1.25222e-18)
(0.139888 -0.028002 0)
(0.170217 -0.0277063 0)
(0.200821 -0.0265688 0)
(0.230976 -0.0243963 3.16074e-19)
(0.2597 -0.0211951 6.34816e-19)
(0.286005 -0.0171496 0)
(0.309146 -0.0125661 0)
(0.328819 -0.00777927 -6.43146e-19)
(0.345198 -0.00305367 -3.22911e-19)
(0.358812 0.00146961 0)
(0.370334 0.00576466 0)
(0.380384 0.00987234 0)
(0.389448 0.0138505 0)
(0.397876 0.0177473 0)
(0.405937 0.0215984 0)
(0.413863 0.0254349 0)
(0.421872 0.0292904 0)
(0.430169 0.0332029 0)
(0.438944 0.037213 -1.23825e-21)
(0.448372 0.0413625 2.77093e-18)
(0.458617 0.0456937 0)
(0.469847 0.0502505 -5.63944e-18)
(0.482236 0.0550802 -2.84332e-18)
(0.495977 0.0602359 0)
(0.511289 0.0657789 2.88867e-18)
(0.528432 0.0717812 -2.90448e-18)
(0.547705 0.0783292 5.82593e-18)
(0.569504 0.0855289 -5.81438e-18)
(0.59422 0.0935086 0)
(0.62264 0.102433 8.57175e-21)
(0.654904 0.112487 5.53305e-18)
(0.693796 0.123977 -1.05234e-17)
(0.735429 0.137136 -1.50845e-20)
(0.797002 0.152492 -4.1623e-18)
(0.838005 0.168907 2.88674e-18)
(0.979135 0.19236 1.83572e-18)
(0.907736 0.0232045 5.06219e-19)
(0.409455 0.0421772 0)
(0.156185 0.00458403 9.54937e-21)
(-0.0552951 0.0261129 -4.14615e-21)
(-0.0344174 -0.00622139 5.07398e-18)
(-0.0798768 -0.00432824 4.92798e-18)
(-0.0983896 0.0171434 0)
(-0.175926 0.089324 3.81535e-18)
(-0.271052 0.143959 0)
(-0.342897 0.147786 -1.04407e-18)
(-0.431605 0.138618 -8.18562e-21)
(-0.505818 0.119871 -1.13336e-19)
(-0.539003 0.0861086 0)
(-0.5238 0.0432331 -2.36206e-19)
(-0.462037 -0.000956788 0)
(-0.365738 -0.0367541 0)
(-0.257301 -0.0555008 0)
(-0.159572 -0.0576396 1.9437e-18)
(-0.0820535 -0.0511626 0)
(-0.0239013 -0.0428401 2.36655e-18)
(0.019303 -0.0367959 -2.44719e-18)
(0.0533834 -0.033029 0)
(0.0832647 -0.03151 -3.84718e-22)
(0.111751 -0.0313226 0)
(0.14051 -0.0314891 0)
(0.17012 -0.0312591 -6.26283e-19)
(0.200367 -0.0301431 0)
(0.230512 -0.0278936 -6.30319e-19)
(0.259513 -0.0244908 -3.16509e-19)
(0.286279 -0.0201254 -7.94578e-20)
(0.309947 -0.0151423 7.98255e-20)
(0.330101 -0.00993362 3.2085e-19)
(0.346847 -0.00482014 6.44514e-19)
(0.360698 2.13059e-05 0)
(0.37235 0.0045556 6.5031e-19)
(0.382467 0.00883411 0)
(0.391568 0.0129322 0)
(0.400026 0.0169125 0)
(0.408114 0.020819 1.32972e-18)
(0.416063 0.0246865 0)
(0.424089 0.0285506 0)
(0.432398 0.0324516 2.71825e-18)
(0.441182 0.0364332 -2.74179e-18)
(0.45062 0.0405399 0)
(0.460879 0.0448162 0)
(0.472127 0.0493077 2.81372e-18)
(0.484539 0.0540627 2.83751e-18)
(0.49831 0.059135 -2.8579e-18)
(0.513658 0.0645862 0)
(0.530845 0.0704884 0)
(0.550169 0.0769271 0)
(0.572028 0.0840043 6.16348e-21)
(0.596812 0.0918469 0)
(0.625312 0.100604 5.65524e-18)
(0.657663 0.110502 0)
(0.696658 0.121709 5.21401e-18)
(0.73844 0.134612 -4.75703e-18)
(0.800055 0.149542 8.20636e-18)
(0.841444 0.165517 -2.84194e-18)
(0.981299 0.187581 -1.79931e-18)
(0.917878 0.0389548 1.68262e-19)
(0.47747 0.0473629 -4.68239e-18)
(0.206358 0.0111139 -4.91091e-18)
(-0.0277093 0.0273767 -4.13977e-21)
(-0.0314872 -0.0047349 -5.07796e-18)
(-0.0832808 -0.00160878 -4.90707e-18)
(-0.113497 0.0238588 0)
(-0.184161 0.0966656 -3.78072e-18)
(-0.258238 0.148289 0)
(-0.327073 0.152374 -1.0195e-18)
(-0.417316 0.144059 -5.18747e-19)
(-0.491503 0.123194 1.12636e-19)
(-0.52611 0.0857407 7.01244e-20)
(-0.512244 0.0383973 1.06071e-19)
(-0.450872 -0.0100543 -4.87241e-19)
(-0.353236 -0.0487272 1.01853e-18)
(-0.242283 -0.0679411 0)
(-0.14361 -0.0684097 0)
(-0.0677607 -0.0595127 0)
(-0.0122683 -0.0490483 1.17922e-18)
(0.0282964 -0.0415761 1.21917e-18)
(0.0600109 -0.0368879 0)
(0.0878297 -0.0349593 -1.24298e-18)
(0.114586 -0.0346644 0)
(0.141951 -0.0348804 0)
(0.17053 -0.0347446 6.24903e-19)
(0.200139 -0.0336842 -6.26245e-19)
(0.230038 -0.0313927 3.14347e-19)
(0.259135 -0.0278177 0)
(0.286232 -0.023151 1.58536e-19)
(0.310332 -0.017774 -1.59307e-19)
(0.330896 -0.0121393 0)
(0.347953 -0.00662899 -3.21733e-19)
(0.361993 -0.00146123 6.46329e-19)
(0.373733 0.00331617 -6.49597e-19)
(0.38388 0.00776444 0)
(0.392991 0.0119778 0)
(0.401457 0.0160355 0)
(0.40956 0.0199913 -1.32871e-18)
(0.417527 0.0238842 0)
(0.425572 0.0277519 0)
(0.433898 0.0316369 -2.71627e-18)
(0.442698 0.0355853 0)
(0.452154 0.0396446 2.76044e-18)
(0.462435 0.0438614 -2.78418e-18)
(0.47371 0.0482827 0)
(0.486155 0.0529577 2.83117e-18)
(0.499964 0.0579401 5.70715e-18)
(0.515358 0.0632908 -2.87105e-18)
(0.532597 0.0690803 0)
(0.551981 0.0753919 0)
(0.573907 0.0823249 2.88933e-18)
(0.59877 0.0900011 0)
(0.627357 0.0985815 5.62005e-18)
(0.659815 0.108251 0)
(0.69891 0.119251 5.164e-18)
(0.740839 0.131879 4.69707e-18)
(0.802508 0.146442 -4.06035e-18)
(0.84424 0.161919 0)
(0.982985 0.182837 1.74012e-18)
(0.926146 0.0530471 -1.15643e-18)
(0.537348 0.0534592 7.53125e-20)
(0.259108 0.018271 4.79593e-18)
(0.00629975 0.0292402 -4.18696e-21)
(-0.0247881 -0.00297183 2.87416e-22)
(-0.0809585 0.000678947 0)
(-0.116943 0.0285956 0)
(-0.182083 0.101492 0)
(-0.242539 0.151538 -1.47365e-18)
(-0.311298 0.157004 2.00954e-18)
(-0.401981 0.149442 0)
(-0.476674 0.126571 8.00652e-20)
(-0.513037 0.0855273 2.36997e-20)
(-0.500786 0.0336902 -5.2676e-20)
(-0.440271 -0.0191112 2.59368e-20)
(-0.341673 -0.0608046 -1.0108e-18)
(-0.227666 -0.0805645 0)
(-0.126463 -0.0792639 0)
(-0.0513478 -0.0677608 0)
(0.00160647 -0.0551481 -1.17474e-18)
(0.0393557 -0.0461329 0)
(0.0684649 -0.0405686 1.23233e-18)
(0.0939655 -0.0382444 1.23937e-18)
(0.118717 -0.0378583 -1.24211e-18)
(0.144395 -0.0381457 0)
(0.171641 -0.0381337 0)
(0.200326 -0.037166 6.24878e-19)
(0.229736 -0.0348724 0)
(0.258745 -0.03116 3.14718e-19)
(0.286052 -0.0262146 -7.9088e-20)
(0.310509 -0.0204518 7.94915e-20)
(0.331439 -0.014387 -3.19518e-19)
(0.348774 -0.00846973 0)
(0.362973 -0.00296561 -6.4562e-19)
(0.374773 0.00206084 0)
(0.38492 0.00667971 0)
(0.394013 0.0110054 1.31105e-18)
(0.402468 0.015136 0)
(0.410571 0.0191363 0)
(0.418549 0.0230504 0)
(0.426608 0.0269182 0)
(0.434952 0.0307839 0)
(0.443772 0.0346962 0)
(0.453249 0.0387049 -5.51744e-18)
(0.463556 0.042859 2.78302e-18)
(0.474862 0.0472069 2.80524e-18)
(0.487343 0.0517983 -5.65786e-18)
(0.501195 0.0566871 -2.85103e-18)
(0.516639 0.0619337 2.86915e-18)
(0.533934 0.0676077 -2.87985e-18)
(0.553382 0.0737909 0)
(0.575381 0.0805831 2.9209e-21)
(0.600325 0.0881065 -5.70335e-18)
(0.629002 0.0965072 -5.60961e-18)
(0.661566 0.105976 -5.42193e-18)
(0.700774 0.116731 -1.02861e-17)
(0.742854 0.12906 -4.67823e-18)
(0.804589 0.143267 4.00599e-18)
(0.846634 0.158213 2.72943e-18)
(0.984384 0.178136 -1.72384e-18)
(0.932907 0.0656823 -1.46165e-19)
(0.589872 0.060122 4.47791e-18)
(0.312758 0.0259399 2.06364e-21)
(0.0463755 0.0317151 -4.42601e-21)
(-0.0147949 -0.000569706 5.10699e-18)
(-0.0748907 0.00269145 4.86661e-18)
(-0.112361 0.0319933 -4.51845e-18)
(-0.173269 0.104745 1.88869e-18)
(-0.225446 0.15427 -1.4883e-21)
(-0.295089 0.161666 -9.91546e-19)
(-0.385694 0.154778 -4.81777e-19)
(-0.461258 0.130031 -7.9566e-20)
(-0.499324 0.085436 -2.11946e-19)
(-0.488728 0.0290776 2.94207e-20)
(-0.429578 -0.0281295 4.5548e-19)
(-0.330856 -0.0729779 0)
(-0.214122 -0.0934071 1.48614e-18)
(-0.109154 -0.0902664 0)
(-0.0334271 -0.0759261 -2.17922e-18)
(0.0174245 -0.0610999 -1.17125e-18)
(0.0523089 -0.0504638 -1.21057e-18)
(0.0786541 -0.0440392 -1.4813e-22)
(0.101658 -0.0413352 -1.23659e-18)
(0.124198 -0.0408748 1.23961e-18)
(0.147943 -0.0412545 0)
(0.173582 -0.041396 -6.2137e-19)
(0.201062 -0.0405604 0)
(0.22973 -0.0383095 0)
(0.258454 -0.0345009 -3.14029e-19)
(0.285841 -0.029306 0)
(0.310589 -0.0231697 0)
(0.331854 -0.0166724 3.1901e-19)
(0.349452 -0.0103375 0)
(0.363797 -0.00448539 0)
(0.375638 0.000797848 6.47931e-19)
(0.385765 0.00558977 0)
(0.39482 0.0100262 -1.31033e-18)
(0.403244 0.0142257 0)
(0.411334 0.0182665 1.32619e-18)
(0.419312 0.0221985 0)
(0.427382 0.0260636 0)
(0.435739 0.0299077 0)
(0.444577 0.0337814 0)
(0.454076 0.0377372 2.75751e-18)
(0.464409 0.0418262 0)
(0.475746 0.0460982 -5.60781e-18)
(0.488265 0.0506035 2.82745e-18)
(0.50216 0.0553962 -2.84673e-18)
(0.517654 0.0605361 2.86432e-18)
(0.535006 0.0660921 2.87881e-18)
(0.554519 0.072145 0)
(0.576591 0.078793 2.87529e-18)
(0.601618 0.0861537 8.54513e-18)
(0.630389 0.0943714 -5.58844e-18)
(0.663061 0.103631 5.41498e-18)
(0.702383 0.114146 5.1292e-18)
(0.744613 0.126176 0)
(0.80642 0.140035 -3.99375e-18)
(0.848751 0.154441 -5.41392e-18)
(0.985592 0.17347 0)
(0.938471 0.0770621 1.71205e-18)
(0.63578 0.0670836 0)
(0.365994 0.0339906 -4.01204e-22)
(0.0913336 0.0348827 -4.79718e-21)
(-0.000148602 0.00239752 -5.07532e-18)
(-0.0664071 0.00459008 -9.69703e-18)
(-0.102696 0.0344916 8.94229e-18)
(-0.160278 0.107059 -1.86878e-18)
(-0.207586 0.156773 1.44215e-18)
(-0.278168 0.166332 0)
(-0.368492 0.16008 1.02601e-20)
(-0.444958 0.133546 0)
(-0.484334 0.0853889 2.63001e-19)
(-0.475248 0.0245058 2.30227e-20)
(-0.417903 -0.0371127 0)
(-0.320065 -0.0852187 0)
(-0.201655 -0.106477 -1.47423e-18)
(-0.0925442 -0.10148 0)
(-0.0147476 -0.084105 2.16971e-18)
(0.0347981 -0.066871 1.16608e-18)
(0.0669367 -0.0545508 -2.28358e-22)
(0.0904271 -0.0472725 -1.22542e-18)
(0.110819 -0.0442063 -1.23294e-18)
(0.131008 -0.0436881 0)
(0.152636 -0.0441789 0)
(0.176436 -0.0445015 6.20151e-19)
(0.202449 -0.0438379 0)
(0.230119 -0.041678 3.1171e-19)
(0.258346 -0.0378213 -3.13087e-19)
(0.285668 -0.0324132 7.86789e-20)
(0.310628 -0.0259219 -7.91245e-20)
(0.3322 -0.0189931 3.18329e-19)
(0.350058 -0.0122305 -3.20134e-19)
(0.364549 -0.00601772 6.43777e-19)
(0.376425 -0.000468378 -6.4741e-19)
(0.38652 0.00450043 0)
(0.395521 0.00904679 0)
(0.403899 0.0133123 0)
(0.411962 0.0173901 -4.43459e-22)
(0.419932 0.0213369 1.33451e-18)
(0.428005 0.0251969 0)
(0.436373 0.0290174 0)
(0.445226 0.0328509 0)
(0.454744 0.0367521 0)
(0.465101 0.0407741 0)
(0.476468 0.0449683 1.4235e-21)
(0.489022 0.0493857 0)
(0.50296 0.0540803 5.69101e-18)
(0.518501 0.0591116 -5.72592e-18)
(0.535909 0.0645476 -2.87399e-18)
(0.555485 0.0704682 0)
(0.577629 0.0769685 0)
(0.602738 0.0841644 -5.68688e-18)
(0.631601 0.0921974 7.543e-21)
(0.664379 0.101245 -5.39329e-18)
(0.703815 0.111519 5.10339e-18)
(0.746192 0.123245 4.62214e-18)
(0.808073 0.136759 -3.95591e-18)
(0.850668 0.150619 5.36237e-18)
(0.986661 0.16883 1.66494e-18)
(0.943087 0.0873354 1.28751e-19)
(0.675762 0.0741323 -4.18284e-18)
(0.4178 0.0422927 -8.99684e-18)
(0.139743 0.0388488 -5.31146e-21)
(0.0200316 0.00577409 4.99159e-18)
(-0.0561946 0.0065492 4.8418e-18)
(-0.0898924 0.036361 -2.20056e-18)
(-0.144737 0.108814 0)
(-0.189164 0.159173 0)
(-0.260391 0.170973 9.59849e-19)
(-0.350316 0.165337 4.63626e-19)
(-0.427393 0.137046 0)
(-0.467486 0.0852971 -1.44188e-19)
(-0.459693 0.0199293 0)
(-0.404481 -0.046053 0)
(-0.308446 -0.0974787 0)
(-0.189725 -0.119741 0)
(-0.0770857 -0.11294 1.86971e-18)
(0.00395209 -0.0923997 1.07993e-18)
(0.0532481 -0.0724568 -1.16158e-18)
(0.0829751 -0.0583842 -2.67398e-22)
(0.103603 -0.0502474 0)
(0.121316 -0.0468373 1.23024e-18)
(0.139073 -0.0462777 0)
(0.158462 -0.0468956 0)
(0.180242 -0.0474234 6.18194e-19)
(0.204558 -0.0469695 -6.19669e-19)
(0.230983 -0.044951 -3.11062e-19)
(0.25849 -0.0410995 3.12426e-19)
(0.285584 -0.0355226 -1.57005e-19)
(0.310663 -0.0287018 1.57929e-19)
(0.332508 -0.021347 -3.17822e-19)
(0.350625 -0.0141484 3.19719e-19)
(0.365268 -0.00756198 -1.68819e-22)
(0.377183 -0.0017359 -6.46543e-19)
(0.387241 0.00341493 0)
(0.396176 0.00807145 0)
(0.404497 0.0124003 0)
(0.412523 0.0165118 -2.64934e-18)
(0.420476 0.0204706 -1.33418e-18)
(0.428547 0.0243235 0)
(0.436921 0.0281188 0)
(0.445786 0.0319107 -2.73033e-18)
(0.455321 0.0357559 0)
(0.4657 0.0397096 0)
(0.477094 0.0438244 5.601e-18)
(0.489681 0.0481523 -2.82223e-18)
(0.503658 0.0527473 -5.68721e-18)
(0.519245 0.0576683 1.87396e-21)
(0.536706 0.0629824 5.74543e-18)
(0.556343 0.0687685 2.87479e-18)
(0.578555 0.0751194 0)
(0.603743 0.0821485 2.84123e-18)
(0.632695 0.0899945 5.57655e-18)
(0.665577 0.0988282 5.39139e-18)
(0.705123 0.108857 -5.10135e-18)
(0.747643 0.120279 -4.61917e-18)
(0.809594 0.133446 3.95236e-18)
(0.85243 0.146767 -2.66779e-18)
(0.987626 0.164213 -1.66174e-18)
(0.946963 0.0966232 1.21448e-19)
(0.710463 0.0811059 4.14493e-18)
(0.467409 0.0507216 4.63917e-21)
(0.190384 0.0436249 -5.94544e-21)
(0.0457323 0.00961562 0)
(-0.0443846 0.00872945 0)
(-0.075143 0.0377729 9.84188e-21)
(-0.127591 0.110228 0)
(-0.170203 0.161513 0)
(-0.241683 0.175562 -3.99983e-21)
(-0.331037 0.170518 0)
(-0.408198 0.140451 0)
(-0.448376 0.0850881 -1.99982e-19)
(-0.441675 0.0153243 0)
(-0.388831 -0.05493 0)
(-0.295316 -0.109696 0)
(-0.177586 -0.133128 0)
(-0.0627247 -0.124635 -3.86874e-21)
(0.0220219 -0.100869 -1.07445e-18)
(0.0722111 -0.0779287 2.31319e-18)
(0.100111 -0.0619722 -2.97341e-22)
(0.117983 -0.0529498 1.21876e-18)
(0.132994 -0.0492124 0)
(0.148281 -0.0486284 1.22976e-18)
(0.165365 -0.0493867 0)
(0.185002 -0.050139 -6.17045e-19)
(0.207434 -0.0499289 3.94843e-22)
(0.232386 -0.0481013 0)
(0.25895 -0.0443124 0)
(0.285637 -0.0386178 3.22421e-23)
(0.310725 -0.0315008 -2.67278e-23)
(0.332797 -0.0237315 1.58565e-19)
(0.351166 -0.0160916 0)
(0.365972 -0.00911872 -6.42293e-19)
(0.377933 -0.00300435 6.46033e-19)
(0.387954 0.0023348 0)
(0.396819 0.0071025 -1.30681e-18)
(0.405073 0.0114926 0)
(0.413053 0.0156348 4.28027e-22)
(0.420983 0.0196028 0)
(0.429046 0.0234466 1.34289e-18)
(0.437423 0.0272153 1.35342e-18)
(0.446297 0.0309644 1.0818e-21)
(0.455846 0.0347524 -2.7518e-18)
(0.466245 0.0386366 0)
(0.477663 0.042671 -1.3622e-21)
(0.490281 0.0469081 2.82208e-18)
(0.504295 0.051402 1.64582e-21)
(0.519925 0.0562114 2.8598e-18)
(0.537436 0.0614023 -2.05515e-21)
(0.55713 0.0670521 -2.32793e-21)
(0.579408 0.0732519 0)
(0.604671 0.0801125 0)
(0.633709 0.0877693 0)
(0.66669 0.0963866 0)
(0.706343 0.106169 0)
(0.748999 0.117285 4.59301e-18)
(0.811017 0.130103 0)
(0.854073 0.142894 0)
(0.988511 0.159616 -1.63468e-18)
(0.95027 0.105038 -1.15493e-18)
(0.740487 0.0878862 0)
(0.514268 0.0591596 6.37377e-21)
(0.242212 0.0491478 -6.64502e-21)
(0.0763579 0.0140987 0)
(-0.0305829 0.0111714 2.40354e-18)
(-0.0591863 0.0388587 -2.17479e-18)
(-0.109362 0.111416 0)
(-0.150664 0.1638 0)
(-0.22199 0.180071 -9.39431e-19)
(-0.310505 0.175575 0)
(-0.387101 0.143685 0)
(-0.426794 0.0847152 1.98859e-19)
(-0.421033 0.0106881 0)
(-0.370726 -0.0637129 -2.933e-19)
(-0.280256 -0.121807 0)
(-0.164578 -0.146542 0)
(-0.0490278 -0.136512 -4.2487e-21)
(0.0390864 -0.109558 0)
(0.0911299 -0.0833598 -1.15176e-18)
(0.117979 -0.0653413 1.19528e-18)
(0.133352 -0.0553757 -2.43172e-18)
(0.145691 -0.0513206 1.2239e-18)
(0.158503 -0.0507295 -1.22752e-18)
(0.173262 -0.0516398 0)
(0.190685 -0.052631 -6.15113e-19)
(0.211094 -0.052693 1.23344e-18)
(0.234376 -0.0511034 0)
(0.25978 -0.0474362 -1.55342e-19)
(0.285873 -0.0416811 7.81397e-20)
(0.310844 -0.0343087 -7.86317e-20)
(0.33308 -0.0261427 -1.5831e-19)
(0.351688 -0.0180599 0)
(0.366666 -0.010689 -6.413e-19)
(0.378684 -0.00427423 6.45181e-19)
(0.388672 0.00126054 0)
(0.397463 0.00614124 1.30619e-18)
(0.405643 0.0105909 0)
(0.413571 0.0147607 1.32322e-18)
(0.421472 0.0187353 0)
(0.429523 0.0225679 -1.34264e-18)
(0.437899 0.0263086 -1.35323e-18)
(0.44678 0.0300138 1.05857e-21)
(0.456341 0.0337438 2.75156e-18)
(0.466757 0.0375575 0)
(0.478198 0.0415103 -2.79812e-18)
(0.490845 0.0456556 0)
(0.504893 0.0500474 2.84088e-18)
(0.520565 0.0547439 0)
(0.538123 0.0598103 -2.86935e-18)
(0.557871 0.0653224 -5.74178e-18)
(0.580212 0.0713697 0)
(0.605547 0.07806 0)
(0.634667 0.0855259 0)
(0.667743 0.0939248 2.68213e-18)
(0.707498 0.103459 0)
(0.750284 0.114267 -1.18359e-20)
(0.812363 0.126734 0)
(0.855621 0.139009 2.61597e-18)
(0.989334 0.155037 1.63406e-18)
(0.953146 0.112686 0)
(0.766395 0.094392 3.92535e-18)
(0.557997 0.0674985 4.28366e-18)
(0.294327 0.055312 -7.36713e-21)
(0.111429 0.0193825 0)
(-0.0139237 0.0138388 -2.38776e-18)
(-0.0425125 0.0397457 0)
(-0.0903298 0.112434 1.84202e-18)
(-0.130498 0.166025 1.39986e-18)
(-0.201269 0.184472 9.24099e-19)
(-0.288579 0.180457 4.08915e-19)
(-0.363938 0.146688 -3.77241e-20)
(-0.402679 0.0841545 0)
(-0.397752 0.0060329 0)
(-0.350112 -0.072366 2.91329e-19)
(-0.263074 -0.133748 0)
(-0.150253 -0.159886 0)
(-0.0354245 -0.148526 -1.82102e-18)
(0.0551025 -0.118432 0)
(0.109547 -0.0888159 -1.14776e-18)
(0.136181 -0.068535 0)
(0.149466 -0.0575336 1.21318e-18)
(0.159237 -0.0531564 -1.22165e-18)
(0.1696 -0.0525746 0)
(0.182049 -0.0536474 0)
(0.197235 -0.0548872 4.25956e-22)
(0.21553 -0.0552435 -6.1542e-19)
(0.236981 -0.053934 0)
(0.261027 -0.0504473 1.55037e-19)
(0.286335 -0.0446931 7.7917e-20)
(0.311048 -0.0371132 -7.843e-20)
(0.333373 -0.0285755 0)
(0.352196 -0.0200527 0)
(0.36735 -0.0122739 1.65804e-22)
(0.379437 -0.00554651 -1.68613e-22)
(0.389398 0.000192044 0)
(0.398114 0.00518831 0)
(0.406217 0.00969618 1.31316e-18)
(0.414086 0.0138908 0)
(0.421952 0.0178691 0)
(0.429987 0.0216886 0)
(0.438361 0.0253999 0)
(0.447245 0.0290603 2.72727e-18)
(0.456817 0.0327313 2.74908e-18)
(0.467248 0.0364735 0)
(0.478711 0.0403439 0)
(0.491385 0.0443964 2.81747e-18)
(0.505466 0.0486851 0)
(0.521176 0.0532676 0)
(0.538779 0.0582084 -2.86526e-18)
(0.55858 0.0635816 2.86961e-18)
(0.580981 0.069475 0)
(0.606385 0.0759936 0)
(0.635583 0.0832667 0)
(0.668751 0.0914455 -2.68193e-18)
(0.708603 0.100729 2.52946e-18)
(0.751513 0.111228 -9.14875e-18)
(0.813648 0.123342 0)
(0.85709 0.135115 -2.61497e-18)
(0.990108 0.150477 -1.6105e-18)
(0.955704 0.11966 0)
(0.788708 0.100571 -3.90279e-18)
(0.598365 0.0756415 0)
(0.34594 0.0619891 -6.77392e-18)
(0.150279 0.0254408 0)
(0.00634673 0.0168147 -2.36844e-18)
(-0.0255252 0.0405828 0)
(-0.0706462 0.113302 -1.82449e-18)
(-0.109657 0.168171 -1.3886e-18)
(-0.179484 0.188731 -9.16583e-19)
(-0.265155 0.185114 -4.05359e-19)
(-0.338642 0.149415 3.74086e-20)
(-0.376071 0.0833991 0)
(-0.371901 0.00137961 0)
(-0.32703 -0.0808517 0)
(-0.243721 -0.145462 0)
(-0.134372 -0.173068 0)
(-0.0214231 -0.160604 8.97696e-19)
(0.0702969 -0.127429 0)
(0.127169 -0.0943448 1.14258e-18)
(0.154329 -0.0716062 0)
(0.166061 -0.0594451 1.21062e-18)
(0.173459 -0.0547216 1.21876e-18)
(0.181434 -0.054161 0)
(0.191611 -0.0554062 6.11401e-19)