/*--------------------------------*- C++ -*----------------------------------*\
| =========                 |                                                 |
| \\      /  F ield         | OpenFOAM: The Open Source CFD Toolbox           |
|  \\    /   O peration     | Version:  2.4.0                                 |
|   \\  /    A nd           | Web:      www.OpenFOAM.org                      |
|    \\/     M anipulation  |                                                 |
\*---------------------------------------------------------------------------*/
FoamFile
{
    version     2.0;
    format      ascii;
    class       volScalarField;
    location    "0.42";
    object      epsilon;
}
// * * * * * * * * * * * * * * * * * * * * * * * * * * * * * * * * * * * * * //

dimensions      [0 2 -3 0 0 0 0];

internalField   nonuniform List<scalar> 
6000
(
0.0973386
0.138493
0.180974
0.220959
0.255597
0.283303
0.303656
0.317113
0.324667
0.327536
0.326937
0.323963
0.319523
0.314336
0.308938
0.303699
0.298844
0.294478
0.29061
0.287192
0.284146
0.281395
0.278881
0.276567
0.274438
0.272494
0.270742
0.269191
0.267847
0.266713
0.265783
0.265042
0.264468
0.264033
0.263702
0.263443
0.263224
0.263016
0.262795
0.26254
0.262228
0.261838
0.261342
0.260709
0.259898
0.258857
0.257522
0.255808
0.253605
0.250775
0.247138
0.24246
0.23644
0.228679
0.218672
0.205702
0.189059
0.167329
0.141887
0.106593
0.0250664
0.0270522
0.0301031
0.0338726
0.0379281
0.0418843
0.045518
0.0487467
0.0515724
0.0540445
0.0562315
0.0582013
0.0600083
0.0616885
0.0632595
0.0647242
0.0660763
0.0673044
0.0683955
0.0693367
0.0701146
0.0707158
0.0711278
0.0713401
0.0713469
0.0711491
0.070757
0.0701932
0.0694929
0.0687039
0.0678812
0.0670808
0.0663513
0.065728
0.0652293
0.0648574
0.0646021
0.0644461
0.06437
0.0643566
0.0643936
0.0644745
0.0645981
0.064769
0.0649963
0.065294
0.0656817
0.0661856
0.0668413
0.0676966
0.0688176
0.0702975
0.0722716
0.0749453
0.0786433
0.0839042
0.0916741
0.103619
0.122761
0.170897
0.0219104
0.0195999
0.0179096
0.0167132
0.0158958
0.015345
0.0149684
0.0147004
0.0144981
0.0143368
0.0142048
0.0140993
0.0140218
0.0139758
0.0139648
0.0139913
0.0140567
0.0141601
0.0142983
0.0144652
0.0146518
0.0148475
0.0150408
0.0152211
0.0153785
0.0155046
0.0155918
0.0156339
0.0156265
0.0155686
0.0154643
0.0153231
0.0151589
0.014988
0.0148257
0.014684
0.0145701
0.0144865
0.0144322
0.014404
0.0143986
0.0144133
0.0144469
0.0145001
0.0145754
0.0146775
0.0148135
0.0149933
0.0152311
0.0155468
0.0159692
0.0165408
0.0173272
0.0184333
0.0200376
0.0224548
0.0263042
0.0326933
0.0445391
0.0697955
0.0217582
0.0190981
0.0169124
0.0151094
0.0136187
0.0123812
0.0113477
0.0104776
0.00973812
0.00910301
0.00855178
0.00806863
0.00764159
0.00726165
0.0069221
0.00661801
0.0063458
0.00610282
0.00588694
0.00569613
0.00552829
0.00538106
0.00525198
0.00513852
0.00503823
0.00494862
0.00486702
0.00479054
0.00471621
0.00464151
0.00456496
0.0044866
0.00440805
0.00433209
0.0042619
0.0042003
0.00414921
0.0041094
0.00408067
0.00406217
0.00405284
0.00405171
0.00405826
0.00407247
0.00409497
0.00412712
0.00417113
0.00423028
0.0043093
0.00441508
0.00455767
0.00475231
0.00502294
0.00540886
0.00597945
0.00686128
0.00832425
0.0108712
0.0161173
0.0267127
0.0217509
0.019066
0.0168344
0.0149634
0.0133833
0.0120402
0.0108917
0.00990385
0.00904946
0.00830639
0.00765653
0.00708505
0.00657978
0.00613068
0.00572951
0.00536948
0.00504504
0.00475167
0.00448565
0.00424391
0.00402392
0.00382353
0.00364093
0.00347462
0.0033233
0.00318583
0.00306113
0.00294813
0.00284576
0.00275301
0.00266905
0.0025933
0.00252548
0.00246552
0.00241344
0.00236916
0.00233247
0.00230293
0.00227993
0.00226273
0.00225058
0.0022428
0.00223884
0.00223835
0.00224119
0.00224749
0.00225766
0.00227252
0.00229335
0.00232217
0.00236214
0.00241823
0.00249859
0.00261714
0.00279948
0.00309443
0.00361115
0.00457032
0.00671793
0.0112103
0.0217506
0.0190635
0.0168276
0.0149497
0.0133592
0.0120023
0.0108367
0.00982909
0.00895309
0.00818741
0.00751481
0.00692118
0.0063949
0.00592633
0.00550745
0.00513154
0.00479299
0.00448706
0.00420979
0.00395785
0.00372845
0.00351926
0.00332833
0.00315409
0.00299519
0.00285057
0.00271928
0.00260051
0.00249353
0.00239766
0.00231231
0.00223689
0.0021709
0.0021138
0.00206505
0.00202404
0.00199009
0.00196248
0.00194045
0.00192322
0.00191008
0.00190036
0.00189348
0.00188897
0.0018865
0.00188583
0.00188689
0.00188974
0.00189465
0.00190218
0.00191326
0.00192951
0.0019537
0.00199076
0.00205005
0.00215016
0.00233391
0.00269727
0.00356489
0.00555144
0.0217505
0.019063
0.0168264
0.0149476
0.0133559
0.0119972
0.0108293
0.00981884
0.00893943
0.00816987
0.007493
0.00689485
0.00636392
0.00589072
0.00546732
0.00508711
0.00474454
0.00443492
0.0041543
0.00389934
0.00366724
0.00345564
0.00326259
0.00308645
0.0029259
0.00277981
0.00264727
0.00252751
0.00241983
0.00232361
0.00223826
0.0021632
0.00209783
0.00204154
0.00199365
0.00195344
0.00192015
0.00189299
0.00187116
0.00185389
0.00184047
0.00183021
0.00182255
0.00181698
0.0018131
0.00181059
0.00180923
0.00180889
0.00180955
0.00181133
0.00181451
0.00181967
0.00182788
0.00184109
0.00186302
0.00190124
0.00197291
0.00212004
0.00247947
0.00338905
0.0217505
0.0190628
0.0168258
0.0149465
0.0133545
0.0119955
0.0108272
0.00981626
0.00893632
0.00816616
0.00748861
0.00688969
0.00635793
0.00588384
0.00545953
0.00507841
0.00473493
0.00442443
0.00414298
0.00388725
0.00365444
0.0034422
0.00324858
0.00307194
0.00291095
0.00276451
0.0026317
0.00251174
0.00240397
0.00230776
0.00222254
0.00214769
0.0020826
0.00202662
0.00197903
0.0019391
0.00190603
0.00187902
0.00185727
0.00184002
0.00182653
0.00181615
0.00180829
0.00180245
0.0017982
0.00179521
0.00179321
0.00179203
0.00179156
0.00179178
0.0017928
0.00179489
0.00179855
0.00180477
0.00181539
0.00183399
0.0018682
0.00193744
0.00209892
0.00253441
0.0217505
0.0190626
0.0168253
0.0149458
0.0133535
0.0119943
0.0108258
0.00981473
0.00893467
0.00816438
0.0074867
0.00688766
0.00635577
0.00588154
0.00545709
0.00507582
0.00473219
0.00442154
0.00413994
0.00388407
0.00365113
0.00343878
0.00324505
0.00306833
0.00290727
0.00276078
0.00262794
0.00250799
0.00240025
0.00230412
0.00221899
0.00214426
0.00207932
0.00202348
0.00197604
0.00193623
0.00190326
0.00187633
0.00185463
0.0018374
0.00182392
0.00181352
0.00180562
0.00179971
0.00179538
0.00179227
0.00179012
0.00178873
0.00178797
0.0017878
0.00178825
0.0017895
0.0017919
0.00179612
0.00180333
0.0018157
0.00183735
0.00187835
0.00196319
0.0021885
0.0217505
0.0190624
0.0168249
0.0149451
0.0133527
0.0119933
0.0108247
0.0098135
0.00893336
0.00816301
0.00748529
0.00688621
0.0063543
0.00588006
0.00545559
0.00507431
0.00473067
0.00442002
0.00413842
0.00388255
0.00364962
0.00343727
0.00324356
0.00306686
0.00290583
0.00275937
0.00262658
0.00250667
0.002399
0.00230293
0.00221788
0.00214325
0.00207839
0.00202265
0.00197529
0.00193556
0.00190265
0.00187577
0.00185411
0.00183691
0.00182344
0.00181305
0.00180515
0.00179924
0.00179489
0.00179176
0.00178957
0.00178813
0.00178731
0.00178704
0.00178735
0.00178839
0.00179045
0.00179409
0.00180026
0.00181061
0.0018279
0.0018583
0.0019131
0.00204439
0.0217504
0.0190623
0.0168246
0.0149446
0.013352
0.0119925
0.0108237
0.00981245
0.00893224
0.00816184
0.00748409
0.006885
0.00635307
0.00587883
0.00545437
0.00507309
0.00472948
0.00441884
0.00413727
0.00388142
0.00364852
0.00343621
0.00324253
0.00306587
0.00290488
0.00275847
0.00262572
0.00250587
0.00239825
0.00230225
0.00221727
0.00214271
0.00207793
0.00202226
0.00197496
0.00193529
0.00190243
0.00187559
0.00185396
0.00183678
0.00182333
0.00181295
0.00180506
0.00179915
0.00179481
0.00179167
0.00178948
0.00178803
0.00178719
0.0017869
0.00178718
0.00178816
0.00179013
0.00179359
0.0017994
0.00180901
0.0018246
0.00185062
0.00189301
0.00198108
0.0217504
0.0190622
0.0168243
0.0149442
0.0133514
0.0119917
0.0108229
0.00981155
0.00893128
0.00816083
0.00748305
0.00688394
0.00635201
0.00587776
0.00545331
0.00507205
0.00472845
0.00441783
0.00413628
0.00388046
0.00364759
0.00343531
0.00324166
0.00306504
0.00290409
0.00275772
0.00262503
0.00250523
0.00239766
0.00230172
0.0022168
0.0021423
0.00207758
0.00202196
0.00197472
0.0019351
0.00190228
0.00187547
0.00185387
0.00183672
0.00182328
0.00181291
0.00180503
0.00179913
0.00179479
0.00179166
0.00178947
0.00178802
0.00178717
0.00178688
0.00178715
0.00178811
0.00179004
0.00179343
0.00179908
0.00180831
0.00182308
0.0018469
0.00188351
0.00195047
0.0217504
0.0190622
0.0168241
0.0149438
0.0133509
0.0119911
0.0108222
0.00981077
0.00893044
0.00815996
0.00748215
0.00688302
0.00635108
0.00587683
0.00545238
0.00507113
0.00472755
0.00441695
0.00413542
0.00387963
0.00364678
0.00343452
0.00324091
0.00306432
0.00290341
0.00275708
0.00262443
0.00250467
0.00239716
0.00230126
0.00221639
0.00214195
0.00207728
0.00202171
0.00197452
0.00193494
0.00190216
0.00187538
0.0018538
0.00183667
0.00182325
0.00181289
0.00180501
0.00179912
0.00179478
0.00179165
0.00178946
0.00178801
0.00178717
0.00178687
0.00178714
0.00178809
0.00179
0.00179334
0.00179888
0.00180787
0.00182208
0.0018445
0.00187787
0.00193341
0.0217504
0.0190621
0.0168239
0.0149436
0.0133505
0.0119906
0.0108216
0.0098101
0.00892972
0.0081592
0.00748136
0.00688222
0.00635027
0.00587602
0.00545158
0.00507033
0.00472676
0.00441618
0.00413466
0.00387889
0.00364607
0.00343384
0.00324026
0.00306369
0.00290282
0.00275652
0.0026239
0.00250419
0.00239672
0.00230087
0.00221604
0.00214164
0.00207702
0.0020215
0.00197435
0.0019348
0.00190205
0.0018753
0.00185374
0.00183662
0.00182322
0.00181287
0.001805
0.00179911
0.00179477
0.00179165
0.00178946
0.00178801
0.00178717
0.00178687
0.00178713
0.00178808
0.00178997
0.00179327
0.00179872
0.0018075
0.00182126
0.00184261
0.00187375
0.0019223
0.0217504
0.0190621
0.0168238
0.0149433
0.0133502
0.0119902
0.0108211
0.00980953
0.0089291
0.00815854
0.00748068
0.00688152
0.00634956
0.00587531
0.00545087
0.00506963
0.00472607
0.0044155
0.004134
0.00387825
0.00364544
0.00343324
0.00323968
0.00306314
0.0029023
0.00275603
0.00262345
0.00250377
0.00239633
0.00230052
0.00221574
0.00214137
0.00207679
0.00202131
0.0019742
0.00193468
0.00190196
0.00187523
0.00185369
0.00183658
0.00182319
0.00181285
0.00180499
0.0017991
0.00179477
0.00179165
0.00178946
0.00178801
0.00178717
0.00178687
0.00178713
0.00178807
0.00178994
0.0017932
0.00179857
0.00180716
0.00182053
0.00184098
0.00187037
0.00191409
0.0217504
0.019062
0.0168237
0.0149431
0.0133499
0.0119898
0.0108206
0.00980903
0.00892855
0.00815797
0.00748008
0.00688091
0.00634894
0.00587469
0.00545025
0.00506902
0.00472546
0.00441491
0.00413342
0.00387769
0.0036449
0.00343271
0.00323918
0.00306266
0.00290184
0.0027556
0.00262305
0.0025034
0.002396
0.00230022
0.00221547
0.00214114
0.0020766
0.00202115
0.00197406
0.00193457
0.00190187
0.00187517
0.00185365
0.00183655
0.00182317
0.00181283
0.00180498
0.0017991
0.00179477
0.00179164
0.00178946
0.00178801
0.00178717
0.00178687
0.00178712
0.00178806
0.00178992
0.00179314
0.00179843
0.00180686
0.00181987
0.00183953
0.00186745
0.00190752
0.0217504
0.019062
0.0168236
0.0149429
0.0133496
0.0119895
0.0108202
0.0098086
0.00892809
0.00815747
0.00747957
0.00688038
0.00634841
0.00587415
0.00544971
0.00506849
0.00472494
0.00441439
0.00413292
0.0038772
0.00364442
0.00343226
0.00323874
0.00306225
0.00290145
0.00275523
0.0026227
0.00250308
0.00239571
0.00229996
0.00221524
0.00214094
0.00207643
0.00202101
0.00197395
0.00193448
0.0019018
0.00187511
0.00185361
0.00183652
0.00182315
0.00181282
0.00180497
0.00179909
0.00179476
0.00179164
0.00178946
0.00178801
0.00178717
0.00178687
0.00178712
0.00178805
0.00178989
0.00179309
0.00179831
0.00180659
0.00181928
0.00183825
0.00186489
0.00190206
0.0217504
0.019062
0.0168235
0.0149428
0.0133494
0.0119892
0.0108199
0.00980823
0.00892769
0.00815705
0.00747913
0.00687993
0.00634795
0.00587369
0.00544925
0.00506803
0.00472448
0.00441395
0.00413249
0.00387677
0.00364402
0.00343186
0.00323836
0.00306189
0.00290111
0.00275491
0.0026224
0.00250281
0.00239546
0.00229973
0.00221504
0.00214077
0.00207628
0.00202088
0.00197385
0.0019344
0.00190174
0.00187507
0.00185357
0.0018365
0.00182313
0.00181281
0.00180496
0.00179909
0.00179476
0.00179164
0.00178946
0.00178801
0.00178717
0.00178687
0.00178712
0.00178804
0.00178987
0.00179304
0.0017982
0.00180634
0.00181875
0.00183712
0.00186265
0.00189745
0.0217504
0.019062
0.0168235
0.0149427
0.0133492
0.011989
0.0108196
0.00980792
0.00892735
0.00815669
0.00747875
0.00687954
0.00634756
0.00587329
0.00544886
0.00506764
0.0047241
0.00441357
0.00413212
0.00387642
0.00364367
0.00343153
0.00323804
0.00306158
0.00290082
0.00275464
0.00262215
0.00250257
0.00239524
0.00229954
0.00221487
0.00214062
0.00207616
0.00202078
0.00197376
0.00193434
0.00190169
0.00187503
0.00185355
0.00183648
0.00182312
0.0018128
0.00180496
0.00179908
0.00179476
0.00179164
0.00178946
0.00178802
0.00178717
0.00178687
0.00178712
0.00178803
0.00178985
0.00179299
0.0017981
0.00180612
0.00181829
0.00183614
0.00186072
0.00189356
0.0217504
0.019062
0.0168234
0.0149426
0.0133491
0.0119888
0.0108194
0.00980767
0.00892707
0.00815639
0.00747844
0.00687922
0.00634723
0.00587296
0.00544853
0.00506731
0.00472378
0.00441325
0.00413181
0.00387611
0.00364338
0.00343125
0.00323777
0.00306133
0.00290057
0.00275441
0.00262194
0.00250238
0.00239506
0.00229938
0.00221473
0.0021405
0.00207605
0.00202069
0.0019737
0.00193428
0.00190165
0.001875
0.00185352
0.00183647
0.00182311
0.0018128
0.00180495
0.00179908
0.00179476
0.00179164
0.00178946
0.00178802
0.00178717
0.00178687
0.00178711
0.00178802
0.00178983
0.00179295
0.00179801
0.00180593
0.00181789
0.0018353
0.00185907
0.00189029
0.0217504
0.019062
0.0168234
0.0149425
0.013349
0.0119887
0.0108192
0.00980746
0.00892684
0.00815614
0.00747818
0.00687895
0.00634696
0.00587269
0.00544826
0.00506704
0.00472351
0.00441299
0.00413155
0.00387587
0.00364314
0.00343102
0.00323755
0.00306112
0.00290037
0.00275423
0.00262176
0.00250222
0.00239492
0.00229925
0.00221462
0.0021404
0.00207597
0.00202062
0.00197364
0.00193424
0.00190162
0.00187497
0.00185351
0.00183645
0.0018231
0.00181279
0.00180495
0.00179908
0.00179476
0.00179164
0.00178946
0.00178802
0.00178717
0.00178687
0.00178711
0.00178802
0.00178982
0.00179292
0.00179794
0.00180577
0.00181755
0.0018346
0.00185769
0.00188758
0.0217504
0.0190619
0.0168234
0.0149424
0.0133489
0.0119885
0.0108191
0.00980729
0.00892666
0.00815595
0.00747798
0.00687875
0.00634675
0.00587248
0.00544804
0.00506683
0.0047233
0.00441279
0.00413135
0.00387567
0.00364295
0.00343084
0.00323738
0.00306095
0.00290022
0.00275408
0.00262163
0.00250209
0.00239481
0.00229915
0.00221453
0.00214032
0.0020759
0.00202057
0.0019736
0.0019342
0.00190159
0.00187495
0.00185349
0.00183644
0.00182309
0.00181279
0.00180495
0.00179908
0.00179476
0.00179165
0.00178947
0.00178802
0.00178717
0.00178687
0.00178711
0.00178801
0.00178981
0.00179289
0.00179788
0.00180564
0.00181728
0.00183403
0.00185658
0.00188539
0.0217504
0.0190619
0.0168233
0.0149424
0.0133488
0.0119884
0.010819
0.00980717
0.00892653
0.00815581
0.00747783
0.00687859
0.00634659
0.00587232
0.00544788
0.00506667
0.00472315
0.00441264
0.0041312
0.00387553
0.00364281
0.0034307
0.00323725
0.00306083
0.0029001
0.00275397
0.00262153
0.002502
0.00239472
0.00229907
0.00221446
0.00214027
0.00207585
0.00202053
0.00197356
0.00193418
0.00190157
0.00187494
0.00185348
0.00183644
0.00182309
0.00181279
0.00180495
0.00179908
0.00179476
0.00179165
0.00178947
0.00178802
0.00178718
0.00178687
0.00178711
0.00178801
0.0017898
0.00179287
0.00179783
0.00180554
0.00181708
0.0018336
0.00185572
0.00188369
0.0217504
0.0190619
0.0168233
0.0149424
0.0133488
0.0119884
0.0108189
0.00980709
0.00892644
0.00815571
0.00747773
0.00687849
0.00634649
0.00587222
0.00544778
0.00506657
0.00472304
0.00441254
0.00413111
0.00387543
0.00364272
0.00343061
0.00323716
0.00306075
0.00290003
0.0027539
0.00262146
0.00250194
0.00239467
0.00229903
0.00221442
0.00214023
0.00207582
0.00202051
0.00197354
0.00193416
0.00190156
0.00187493
0.00185348
0.00183644
0.00182309
0.00181279
0.00180495
0.00179909
0.00179477
0.00179165
0.00178947
0.00178802
0.00178718
0.00178687
0.00178711
0.001788
0.00178979
0.00179285
0.0017978
0.00180547
0.00181693
0.00183329
0.00185511
0.00188246
0.0217504
0.0190619
0.0168233
0.0149423
0.0133488
0.0119884
0.0108189
0.00980705
0.0089264
0.00815567
0.00747768
0.00687844
0.00634644
0.00587217
0.00544773
0.00506652
0.00472299
0.00441249
0.00413106
0.00387538
0.00364267
0.00343057
0.00323712
0.00306071
0.00289999
0.00275387
0.00262143
0.00250191
0.00239464
0.002299
0.0022144
0.00214021
0.00207581
0.0020205
0.00197354
0.00193416
0.00190156
0.00187493
0.00185348
0.00183644
0.00182309
0.00181279
0.00180496
0.00179909
0.00179477
0.00179165
0.00178947
0.00178803
0.00178718
0.00178687
0.00178711
0.001788
0.00178978
0.00179284
0.00179777
0.00180543
0.00181685
0.00183313
0.00185475
0.00188168
0.0217504
0.0190619
0.0168233
0.0149423
0.0133488
0.0119884
0.0108189
0.00980705
0.0089264
0.00815567
0.00747768
0.00687844
0.00634644
0.00587217
0.00544773
0.00506652
0.00472299
0.00441249
0.00413106
0.00387539
0.00364267
0.00343057
0.00323712
0.00306071
0.00289999
0.00275387
0.00262143
0.00250191
0.00239464
0.00229901
0.0022144
0.00214022
0.00207582
0.0020205
0.00197354
0.00193416
0.00190157
0.00187494
0.00185349
0.00183644
0.0018231
0.0018128
0.00180496
0.00179909
0.00179477
0.00179166
0.00178948
0.00178803
0.00178718
0.00178687
0.00178711
0.001788
0.00178978
0.00179283
0.00179777
0.00180542
0.00181684
0.00183309
0.00185464
0.00188134
0.0217504
0.0190619
0.0168233
0.0149424
0.0133488
0.0119884
0.0108189
0.00980709
0.00892644
0.00815571
0.00747773
0.00687849
0.00634649
0.00587222
0.00544778
0.00506657
0.00472305
0.00441254
0.00413111
0.00387543
0.00364272
0.00343061
0.00323717
0.00306075
0.00290003
0.00275391
0.00262147
0.00250195
0.00239468
0.00229904
0.00221443
0.00214025
0.00207584
0.00202052
0.00197356
0.00193418
0.00190158
0.00187495
0.0018535
0.00183645
0.0018231
0.0018128
0.00180497
0.0017991
0.00179478
0.00179166
0.00178948
0.00178803
0.00178718
0.00178687
0.00178711
0.001788
0.00178978
0.00179283
0.00179777
0.00180545
0.00181689
0.00183319
0.00185478
0.00188144
0.0217504
0.0190619
0.0168233
0.0149424
0.0133488
0.0119884
0.010819
0.00980717
0.00892653
0.00815581
0.00747783
0.00687859
0.00634659
0.00587232
0.00544789
0.00506667
0.00472315
0.00441264
0.00413121
0.00387553
0.00364281
0.0034307
0.00323725
0.00306083
0.00290011
0.00275398
0.00262154
0.00250201
0.00239474
0.00229909
0.00221448
0.00214029
0.00207588
0.00202056
0.00197359
0.00193421
0.0019016
0.00187497
0.00185351
0.00183646
0.00182311
0.00181281
0.00180497
0.0017991
0.00179478
0.00179166
0.00178948
0.00178803
0.00178718
0.00178687
0.00178711
0.001788
0.00178978
0.00179284
0.00179779
0.0018055
0.00181701
0.00183342
0.00185517
0.001882
0.0217504
0.0190619
0.0168234
0.0149424
0.0133489
0.0119885
0.0108191
0.0098073
0.00892666
0.00815595
0.00747798
0.00687875
0.00634675
0.00587248
0.00544804
0.00506683
0.0047233
0.00441279
0.00413136
0.00387568
0.00364295
0.00343084
0.00323738
0.00306096
0.00290023
0.00275409
0.00262164
0.00250211
0.00239483
0.00229917
0.00221456
0.00214036
0.00207594
0.00202061
0.00197363
0.00193424
0.00190163
0.00187499
0.00185353
0.00183648
0.00182313
0.00181282
0.00180498
0.00179911
0.00179479
0.00179167
0.00178948
0.00178804
0.00178719
0.00178687
0.00178711
0.001788
0.00178978
0.00179285
0.00179782
0.00180558
0.00181719
0.00183379
0.00185583
0.00188304
0.0217504
0.019062
0.0168234
0.0149425
0.013349
0.0119887
0.0108192
0.00980746
0.00892684
0.00815614
0.00747818
0.00687896
0.00634696
0.00587269
0.00544826
0.00506704
0.00472351
0.004413
0.00413156
0.00387587
0.00364314
0.00343102
0.00323756
0.00306113
0.00290039
0.00275424
0.00262178
0.00250224
0.00239495
0.00229928
0.00221465
0.00214044
0.00207601
0.00202067
0.00197369
0.00193429
0.00190167
0.00187502
0.00185355
0.0018365
0.00182314
0.00181283
0.00180499
0.00179912
0.00179479
0.00179167
0.00178949
0.00178804
0.00178719
0.00178688
0.00178711
0.00178801
0.00178979
0.00179287
0.00179787
0.00180569
0.00181744
0.00183431
0.00185676
0.00188458
0.0217504
0.019062
0.0168234
0.0149426
0.0133491
0.0119888
0.0108194
0.00980767
0.00892707
0.00815639
0.00747844
0.00687922
0.00634723
0.00587297
0.00544853
0.00506731
0.00472378
0.00441326
0.00413181
0.00387612
0.00364338
0.00343126
0.00323778
0.00306134
0.00290059
0.00275443
0.00262196
0.00250241
0.0023951
0.00229942
0.00221478
0.00214055
0.00207611
0.00202075
0.00197376
0.00193434
0.00190171
0.00187506
0.00185358
0.00183652
0.00182316
0.00181284
0.001805
0.00179912
0.0017948
0.00179168
0.00178949
0.00178804
0.00178719
0.00178688
0.00178711
0.00178801
0.0017898
0.00179289
0.00179793
0.00180583
0.00181776
0.00183498
0.00185798
0.00188666
0.0217504
0.019062
0.0168235
0.0149427
0.0133492
0.011989
0.0108196
0.00980792
0.00892735
0.00815669
0.00747875
0.00687954
0.00634756
0.0058733
0.00544886
0.00506764
0.0047241
0.00441358
0.00413212
0.00387642
0.00364368
0.00343154
0.00323805
0.0030616
0.00290083
0.00275466
0.00262218
0.00250261
0.00239528
0.00229959
0.00221492
0.00214068
0.00207622
0.00202085
0.00197384
0.00193441
0.00190176
0.0018751
0.00185361
0.00183655
0.00182318
0.00181286
0.00180501
0.00179913
0.0017948
0.00179168
0.0017895
0.00178804
0.00178719
0.00178688
0.00178712
0.00178801
0.00178981
0.00179292
0.001798
0.00180601
0.00181815
0.00183581
0.00185951
0.00188934
0.0217504
0.019062
0.0168235
0.0149428
0.0133494
0.0119892
0.0108199
0.00980823
0.00892769
0.00815705
0.00747913
0.00687993
0.00634795
0.00587369
0.00544925
0.00506803
0.00472449
0.00441395
0.00413249
0.00387678
0.00364403
0.00343188
0.00323838
0.00306191
0.00290113
0.00275494
0.00262243
0.00250285
0.0023955
0.00229979
0.0022151
0.00214084
0.00207636
0.00202096
0.00197393
0.00193449
0.00190183
0.00187515
0.00185365
0.00183657
0.0018232
0.00181287
0.00180502
0.00179914
0.00179481
0.00179169
0.0017895
0.00178805
0.0017872
0.00178688
0.00178712
0.00178802
0.00178982
0.00179295
0.00179808
0.00180621
0.00181861
0.00183681
0.00186137
0.00189269
0.0217504
0.019062
0.0168236
0.0149429
0.0133496
0.0119895
0.0108202
0.0098086
0.00892809
0.00815747
0.00747957
0.00688038
0.00634841
0.00587416
0.00544972
0.00506849
0.00472494
0.0044144
0.00413293
0.0038772
0.00364443
0.00343227
0.00323875
0.00306227
0.00290147
0.00275526
0.00262274
0.00250312
0.00239576
0.00230002
0.00221531
0.00214102
0.00207651
0.0020211
0.00197404
0.00193457
0.0019019
0.0018752
0.00185369
0.00183661
0.00182322
0.00181289
0.00180504
0.00179915
0.00179482
0.00179169
0.0017895
0.00178805
0.0017872
0.00178688
0.00178712
0.00178802
0.00178983
0.00179298
0.00179817
0.00180644
0.00181914
0.00183798
0.00186358
0.00189681
0.0217504
0.019062
0.0168237
0.0149431
0.0133499
0.0119898
0.0108206
0.00980903
0.00892856
0.00815797
0.00748009
0.00688091
0.00634895
0.00587469
0.00545025
0.00506902
0.00472547
0.00441491
0.00413343
0.00387769
0.00364491
0.00343273
0.00323919
0.00306269
0.00290187
0.00275564
0.00262309
0.00250345
0.00239605
0.00230028
0.00221555
0.00214123
0.00207669
0.00202125
0.00197417
0.00193468
0.00190198
0.00187526
0.00185374
0.00183664
0.00182325
0.00181291
0.00180505
0.00179916
0.00179483
0.0017917
0.00178951
0.00178805
0.0017872
0.00178689
0.00178712
0.00178803
0.00178984
0.00179302
0.00179827
0.0018067
0.00181975
0.00183935
0.00186618
0.00190183
0.0217504
0.0190621
0.0168238
0.0149433
0.0133502
0.0119902
0.0108211
0.00980953
0.0089291
0.00815854
0.00748068
0.00688152
0.00634956
0.00587531
0.00545087
0.00506964
0.00472607
0.00441551
0.00413401
0.00387826
0.00364545
0.00343325
0.0032397
0.00306317
0.00290232
0.00275607
0.00262349
0.00250382
0.00239639
0.00230059
0.00221582
0.00214147
0.0020769
0.00202142
0.00197431
0.00193479
0.00190207
0.00187533
0.00185379
0.00183668
0.00182328
0.00181293
0.00180507
0.00179917
0.00179484
0.00179171
0.00178951
0.00178806
0.0017872
0.00178689
0.00178712
0.00178803
0.00178986
0.00179306
0.00179839
0.00180699
0.00182043
0.00184092
0.00186921
0.0019079
0.0217504
0.0190621
0.0168239
0.0149436
0.0133505
0.0119906
0.0108216
0.00981011
0.00892972
0.0081592
0.00748137
0.00688222
0.00635027
0.00587602
0.00545158
0.00507034
0.00472676
0.00441619
0.00413467
0.0038789
0.00364608
0.00343385
0.00324028
0.00306372
0.00290285
0.00275656
0.00262395
0.00250425
0.00239678
0.00230094
0.00221613
0.00214174
0.00207713
0.00202162
0.00197447
0.00193492
0.00190217
0.00187541
0.00185385
0.00183673
0.00182331
0.00181296
0.00180508
0.00179919
0.00179484
0.00179171
0.00178952
0.00178806
0.00178721
0.00178689
0.00178713
0.00178804
0.00178987
0.00179311
0.00179851
0.0018073
0.00182118
0.00184271
0.00187271
0.00191525
0.0217504
0.0190622
0.0168241
0.0149439
0.0133509
0.0119911
0.0108222
0.00981078
0.00893044
0.00815996
0.00748215
0.00688302
0.00635108
0.00587684
0.00545239
0.00507114
0.00472755
0.00441696
0.00413543
0.00387964
0.00364679
0.00343454
0.00324093
0.00306435
0.00290344
0.00275712
0.00262447
0.00250473
0.00239723
0.00230135
0.00221649
0.00214205
0.0020774
0.00202184
0.00197465
0.00193507
0.00190228
0.0018755
0.00185392
0.00183678
0.00182335
0.00181298
0.0018051
0.0017992
0.00179485
0.00179172
0.00178952
0.00178806
0.00178721
0.00178689
0.00178713
0.00178804
0.00178989
0.00179315
0.00179863
0.00180764
0.00182201
0.00184474
0.00187673
0.00192417
0.0217504
0.0190622
0.0168243
0.0149442
0.0133514
0.0119917
0.0108229
0.00981155
0.00893128
0.00816084
0.00748306
0.00688394
0.00635201
0.00587777
0.00545331
0.00507205
0.00472845
0.00441784
0.00413629
0.00388048
0.0036476
0.00343533
0.00324169
0.00306507
0.00290413
0.00275777
0.00262508
0.00250529
0.00239774
0.00230181
0.0022169
0.00214241
0.0020777
0.00202209
0.00197486
0.00193523
0.00190241
0.0018756
0.001854
0.00183683
0.00182339
0.00181301
0.00180512
0.00179922
0.00179487
0.00179173
0.00178953
0.00178807
0.00178721
0.00178689
0.00178713
0.00178805
0.00178991
0.0017932
0.00179876
0.001808
0.00182291
0.00184703
0.00188133
0.00193509
0.0217504
0.0190623
0.0168246
0.0149446
0.013352
0.0119925
0.0108237
0.00981245
0.00893224
0.00816184
0.00748409
0.006885
0.00635308
0.00587883
0.00545437
0.0050731
0.00472948
0.00441885
0.00413728
0.00388144
0.00364853
0.00343623
0.00324255
0.0030659
0.00290491
0.00275851
0.00262577
0.00250594
0.00239833
0.00230234
0.00221738
0.00214283
0.00207806
0.00202239
0.0019751
0.00193543
0.00190257
0.00187572
0.00185408
0.0018369
0.00182344
0.00181305
0.00180515
0.00179924
0.00179488
0.00179174
0.00178954
0.00178808
0.00178722
0.0017869
0.00178714
0.00178805
0.00178992
0.00179325
0.0017989
0.00180837
0.00182387
0.00184959
0.00188658
0.00194856
0.0217505
0.0190624
0.0168249
0.0149451
0.0133527
0.0119933
0.0108247
0.0098135
0.00893336
0.00816301
0.00748529
0.00688622
0.0063543
0.00588006
0.00545559
0.00507431
0.00473068
0.00442003
0.00413843
0.00388257
0.00364963
0.00343729
0.00324359
0.00306689
0.00290587
0.00275942
0.00262663
0.00250674
0.00239908
0.00230303
0.00221799
0.00214337
0.00207853
0.00202279
0.00197544
0.0019357
0.00190279
0.0018759
0.00185423
0.00183702
0.00182354
0.00181314
0.00180523
0.00179931
0.00179495
0.0017918
0.00178959
0.00178813
0.00178727
0.00178694
0.00178718
0.00178809
0.00178997
0.00179332
0.00179905
0.00180877
0.00182491
0.00185245
0.00189259
0.00196542
0.0217505
0.0190626
0.0168253
0.0149458
0.0133535
0.0119943
0.0108258
0.00981473
0.00893467
0.00816438
0.00748671
0.00688767
0.00635577
0.00588155
0.0054571
0.00507582
0.0047322
0.00442155
0.00413995
0.00388408
0.00365115
0.0034388
0.00324507
0.00306836
0.00290731
0.00276083
0.002628
0.00250806
0.00240034
0.00230421
0.00221909
0.00214438
0.00207945
0.00202362
0.00197617
0.00193636
0.00190338
0.00187643
0.00185472
0.00183748
0.00182398
0.00181356
0.00180564
0.0017997
0.00179533
0.00179218
0.00178996
0.00178848
0.00178761
0.00178727
0.00178749
0.00178838
0.00179024
0.00179359
0.00179937
0.00180931
0.0018261
0.00185567
0.0018995
0.0019869
0.0217505
0.0190628
0.0168258
0.0149465
0.0133545
0.0119955
0.0108272
0.00981626
0.00893633
0.00816616
0.00748861
0.00688969
0.00635793
0.00588384
0.00545954
0.00507841
0.00473494
0.00442444
0.00414299
0.00388726
0.00365445
0.00344222
0.0032486
0.00307196
0.00291098
0.00276455
0.00263174
0.00251179
0.00240403
0.00230784
0.00222261
0.00214777
0.00208268
0.00202669
0.00197909
0.00193914
0.00190604
0.001879
0.00185722
0.00183993
0.0018264
0.00181595
0.00180801
0.00180205
0.00179766
0.00179448
0.00179223
0.00179071
0.00178978
0.00178937
0.00178951
0.0017903
0.00179205
0.00179527
0.00180096
0.00181094
0.00182825
0.00185985
0.00190789
0.00201508
0.0217505
0.019063
0.0168264
0.0149476
0.0133559
0.0119972
0.0108293
0.00981884
0.00893943
0.00816987
0.007493
0.00689485
0.00636393
0.00589072
0.00546732
0.00508712
0.00474454
0.00443492
0.00415429
0.00389933
0.00366723
0.00345563
0.00326258
0.00308644
0.00292588
0.00277979
0.00264726
0.00252749
0.0024198
0.00232357
0.0022382
0.00216311
0.00209771
0.00204136
0.0019934
0.00195311
0.00191971
0.00189245
0.00187053
0.00185313
0.00183952
0.00182902
0.00182102
0.001815
0.00181053
0.00180724
0.00180486
0.00180316
0.00180201
0.00180132
0.0018011
0.00180146
0.00180267
0.00180525
0.00181021
0.00181945
0.00183639
0.0018691
0.00192115
0.00205474
0.0217506
0.0190635
0.0168276
0.0149497
0.0133592
0.0120023
0.0108367
0.00982909
0.00895309
0.00818741
0.00751481
0.00692118
0.0063949
0.00592632
0.00550744
0.00513153
0.00479297
0.00448703
0.00420975
0.00395779
0.00372837
0.00351916
0.00332821
0.00315394
0.00299501
0.00285035
0.00271901
0.00260018
0.00249313
0.00239717
0.0023117
0.00223614
0.00216997
0.00211265
0.00206362
0.00202227
0.00198795
0.00196001
0.00193762
0.0019199
0.00190605
0.00189534
0.00188712
0.00188084
0.00187604
0.00187233
0.0018694
0.001867
0.00186494
0.00186311
0.00186144
0.00185999
0.00185896
0.00185879
0.00186041
0.00186566
0.0018783
0.0019072
0.00195867
0.00212246
0.0217509
0.019066
0.0168344
0.0149634
0.0133833
0.0120402
0.0108917
0.00990384
0.00904946
0.00830638
0.00765652
0.00708504
0.00657976
0.00613065
0.00572945
0.0053694
0.00504493
0.00475152
0.00448545
0.00424365
0.00402358
0.0038231
0.0036404
0.00347396