/*--------------------------------*- C++ -*----------------------------------*\
| =========                 |                                                 |
| \\      /  F ield         | OpenFOAM: The Open Source CFD Toolbox           |
|  \\    /   O peration     | Version:  2.4.0                                 |
|   \\  /    A nd           | Web:      www.OpenFOAM.org                      |
|    \\/     M anipulation  |                                                 |
\*---------------------------------------------------------------------------*/
FoamFile
{
    version     2.0;
    format      ascii;
    class       volScalarField;
    location    "3150";
    object      k;
}
// * * * * * * * * * * * * * * * * * * * * * * * * * * * * * * * * * * * * * //

dimensions      [0 2 -2 0 0 0 0];

internalField   nonuniform List<scalar> 
48900
(
0.983999
1.35222
1.51128
1.52778
1.46462
1.36222
1.24612
1.12954
1.02123
0.923242
0.838087
0.764214
0.701785
0.648014
0.603433
0.565072
0.53404
0.507088
0.486051
0.467228
0.453377
0.440145
0.431465
0.42196
0.417014
0.409839
0.407681
0.401854
0.401958
0.396818
0.39899
0.394137
0.398488
0.394293
0.401734
0.398503
0.397316
0.425874
0.448687
0.46553
0.478051
0.488304
0.499011
0.511595
0.526503
0.543051
0.56129
0.577916
0.592676
0.606055
0.618524
0.630367
0.641689
0.652761
0.663363
0.673911
0.683859
0.693954
0.703176
0.712651
0.720874
0.729591
0.736655
0.744607
0.750464
0.757767
0.762479
0.769364
0.773119
0.779281
0.781489
0.786359
0.374646
0.371955
0.36636
0.358737
0.350153
0.341678
0.334277
0.32878
0.325544
0.324829
0.32653
0.330435
0.336069
0.343401
0.352029
0.362071
0.373084
0.385306
0.398186
0.412101
0.42638
0.440489
0.454144
0.467662
0.480679
0.493565
0.505865
0.518029
0.529515
0.540867
0.551462
0.561926
0.571544
0.580946
0.589287
0.597378
0.374265
0.371889
0.367971
0.362556
0.355899
0.348288
0.340106
0.331759
0.32359
0.315946
0.309017
0.303023
0.297978
0.294016
0.291058
0.289202
0.28832
0.288496
0.28958
0.291646
0.294485
0.298041
0.302104
0.306699
0.311657
0.31703
0.322654
0.328598
0.334686
0.341007
0.347354
0.353838
0.360178
0.366513
0.372431
0.378158
0.374508
0.373001
0.370677
0.367544
0.363711
0.359228
0.354217
0.348784
0.343077
0.337226
0.331356
0.325583
0.319989
0.314667
0.309656
0.305031
0.300794
0.297009
0.293643
0.290747
0.288265
0.286236
0.284584
0.28335
0.282451
0.281931
0.281702
0.281815
0.282172
0.282828
0.283672
0.284767
0.285979
0.287377
0.288775
0.290274
0.374621
0.373591
0.372047
0.370025
0.367613
0.364819
0.361695
0.358272
0.354618
0.350776
0.346813
0.342774
0.338712
0.334671
0.330689
0.326801
0.323032
0.319412
0.315948
0.312668
0.309564
0.30666
0.303937
0.301417
0.299073
0.296928
0.294951
0.293165
0.291536
0.290087
0.288781
0.287638
0.286616
0.285735
0.284946
0.284284
0.374631
0.373858
0.372733
0.371294
0.369614
0.367696
0.365568
0.363244
0.360758
0.358131
0.355398
0.352579
0.349706
0.346799
0.343885
0.340981
0.338106
0.335275
0.332501
0.329796
0.327167
0.324624
0.322168
0.319808
0.317539
0.31537
0.313295
0.311321
0.309441
0.30766
0.305971
0.304378
0.302875
0.301463
0.300136
0.298909
0.374583
0.373942
0.373064
0.371967
0.370709
0.369291
0.367729
0.366031
0.364221
0.362308
0.360314
0.358249
0.356133
0.353978
0.351801
0.34961
0.34742
0.34524
0.343078
0.340943
0.338841
0.336778
0.334759
0.332788
0.330867
0.329
0.327188
0.325433
0.323736
0.322097
0.320518
0.319
0.317541
0.316144
0.314807
0.313546
0.374511
0.373923
0.373191
0.37231
0.371316
0.37021
0.368998
0.36769
0.366298
0.36483
0.363299
0.361713
0.360084
0.358419
0.356731
0.355024
0.35331
0.351592
0.349878
0.348174
0.346485
0.344814
0.343167
0.341546
0.339954
0.338393
0.336866
0.335375
0.333921
0.332505
0.331129
0.329793
0.328499
0.327246
0.326037
0.324885
0.374434
0.373852
0.373198
0.372451
0.37163
0.370729
0.369751
0.3687
0.367586
0.366413
0.365191
0.363925
0.362623
0.36129
0.359936
0.358564
0.35718
0.355789
0.354397
0.353007
0.351623
0.350249
0.348887
0.347541
0.346212
0.344904
0.343618
0.342355
0.341118
0.339908
0.338725
0.337571
0.336446
0.335351
0.334288
0.33327
0.374363
0.373763
0.373138
0.372469
0.371757
0.370993
0.370174
0.369301
0.36838
0.367414
0.366408
0.365366
0.364294
0.363197
0.36208
0.360946
0.359801
0.358648
0.35749
0.356331
0.355174
0.354022
0.352877
0.351742
0.350619
0.349509
0.348415
0.347337
0.346278
0.345238
0.344218
0.34322
0.342244
0.341289
0.340358
0.339465
0.374301
0.373672
0.373049
0.372415
0.371766
0.371089
0.370377
0.369628
0.368844
0.368026
0.367176
0.366297
0.365394
0.364469
0.363527
0.36257
0.361601
0.360625
0.359643
0.358659
0.357674
0.356691
0.355713
0.354742
0.353778
0.352824
0.351882
0.350952
0.350035
0.349134
0.348248
0.347378
0.346525
0.345688
0.34487
0.344084
0.374251
0.373591
0.372953
0.372327
0.371706
0.371078
0.370433
0.369767
0.369078
0.368366
0.367629
0.366871
0.366093
0.365298
0.364487
0.363664
0.362831
0.36199
0.361143
0.360293
0.359442
0.358592
0.357744
0.356901
0.356063
0.355233
0.354412
0.3536
0.352799
0.352009
0.351232
0.350467
0.349715
0.348977
0.348253
0.347556
0.374211
0.373522
0.372863
0.372228
0.371612
0.371004
0.370396
0.369781
0.369154
0.368514
0.367859
0.367188
0.366503
0.365805
0.365095
0.364374
0.363645
0.362909
0.362168
0.361423
0.360678
0.359932
0.359188
0.358447
0.35771
0.35698
0.356256
0.355539
0.354832
0.354133
0.353445
0.352766
0.352098
0.35144
0.350795
0.350173
0.374183
0.373473
0.372794
0.372145
0.371521
0.370915
0.370319
0.369725
0.369131
0.36853
0.367922
0.367304
0.366677
0.366041
0.365396
0.364744
0.364084
0.363419
0.36275
0.362079
0.361406
0.360733
0.360061
0.359392
0.358727
0.358066
0.357411
0.356763
0.356122
0.355489
0.354864
0.354248
0.35364
0.353041
0.352453
0.351886
0.374163
0.373436
0.372741
0.372077
0.371442
0.370831
0.370235
0.36965
0.36907
0.368492
0.367912
0.367328
0.36674
0.366146
0.365546
0.364941
0.364331
0.363718
0.363101
0.362483
0.361864
0.361245
0.360627
0.360012
0.3594
0.358793
0.35819
0.357593
0.357003
0.35642
0.355843
0.355275
0.354713
0.354159
0.353615
0.35309
0.374146
0.373405
0.372694
0.372015
0.371367
0.370744
0.370143
0.369557
0.368983
0.368417
0.367854
0.367293
0.366731
0.366168
0.365603
0.365036
0.364466
0.363895
0.363322
0.362748
0.362175
0.361602
0.361031
0.360463
0.359898
0.359336
0.35878
0.358229
0.357683
0.357144
0.356611
0.356084
0.355564
0.355051
0.354546
0.35406
0.374131
0.373377
0.372653
0.37196
0.371296
0.370661
0.370049
0.369457
0.368881
0.368317
0.367762
0.367213
0.366668
0.366126
0.365585
0.365046
0.364507
0.363968
0.363429
0.362892
0.362356
0.361821
0.361289
0.36076
0.360235
0.359713
0.359197
0.358685
0.358178
0.357677
0.357182
0.356693
0.35621
0.355732
0.355263
0.35481
0.374119
0.373354
0.372618
0.371911
0.371234
0.370584
0.36996
0.369357
0.368773
0.368205
0.36765
0.367104
0.366567
0.366037
0.365511
0.364989
0.364471
0.363956
0.363443
0.362933
0.362426
0.361921
0.361421
0.360924
0.360431
0.359942
0.359458
0.358979
0.358506
0.358037
0.357575
0.357118
0.356666
0.35622
0.355781
0.355358
0.374108
0.373334
0.372588
0.371869
0.371179
0.370516
0.369878
0.369263
0.368668
0.368092
0.36753
0.366982
0.366445
0.365918
0.365399
0.364886
0.36438
0.363879
0.363384
0.362892
0.362406
0.361924
0.361446
0.360974
0.360506
0.360043
0.359585
0.359133
0.358686
0.358244
0.357808
0.357378
0.356953
0.356533
0.35612
0.355722
0.374099
0.373318
0.372562
0.371833
0.371132
0.370456
0.369806
0.369178
0.368571
0.367984
0.367413
0.366857
0.366315
0.365785
0.365266
0.364756
0.364254
0.363761
0.363274
0.362794
0.36232
0.361852
0.36139
0.360934
0.360484
0.36004
0.359602
0.359169
0.358742
0.358322
0.357906
0.357497
0.357092
0.356694
0.356302
0.355925
0.374092
0.373304
0.372541
0.371803
0.371092
0.370406
0.369743
0.369103
0.368485
0.367885
0.367304
0.366739
0.366189
0.365652
0.365128
0.364615
0.364112
0.363619
0.363134
0.362659
0.362191
0.36173
0.361277
0.360831
0.360392
0.35996
0.359534
0.359115
0.358702
0.358296
0.357895
0.357501
0.357112
0.356729
0.356353
0.355992
0.374086
0.373292
0.372522
0.371778
0.371058
0.370362
0.36969
0.369039
0.36841
0.367799
0.367207
0.366632
0.366072
0.365526
0.364994
0.364475
0.363967
0.363471
0.362984
0.362507
0.36204
0.361581
0.361131
0.360689
0.360255
0.359828
0.359409
0.358998
0.358593
0.358195
0.357804
0.357419
0.357041
0.356668
0.356304
0.355953
0.37408
0.373282
0.372507
0.371756
0.37103
0.370326
0.369645
0.368985
0.368346
0.367725
0.367123
0.366538
0.365968
0.365414
0.364873
0.364346
0.363831
0.363328
0.362836
0.362355
0.361884
0.361423
0.360972
0.360529
0.360095
0.35967
0.359253
0.358844
0.358442
0.358048
0.357661
0.357281
0.356908
0.356542
0.356183
0.355839
0.374076
0.373274
0.372495
0.371739
0.371006
0.370296
0.369607
0.36894
0.368292
0.367663
0.367052
0.366457
0.365879
0.365316
0.364767
0.364231
0.363709
0.363198
0.3627
0.362213
0.361737
0.361271
0.360815
0.360369
0.359933
0.359505
0.359086
0.358676
0.358274
0.35788
0.357494
0.357115
0.356743
0.356378
0.356022
0.355681
0.374072
0.373267
0.372484
0.371724
0.370986
0.37027
0.369576
0.368902
0.368247
0.36761
0.366992
0.36639
0.365803
0.365232
0.364676
0.364132
0.363603
0.363085
0.36258
0.362086
0.361604
0.361133
0.360671
0.36022
0.359779
0.359348
0.358925
0.358512
0.358107
0.35771
0.357321
0.356941
0.356568
0.356202
0.355846
0.355504
0.374069
0.373261
0.372475
0.371712
0.37097
0.370249
0.36955
0.36887
0.368209
0.367567
0.366942
0.366333
0.36574
0.365162
0.364599
0.364049
0.363513
0.362989
0.362477
0.361977
0.361489
0.361012
0.360545
0.360089
0.359642
0.359206
0.358779
0.358361
0.357951
0.357551
0.357159
0.356775
0.356399
0.356031
0.355672
0.355329
0.374067
0.373257
0.372468
0.371702
0.370956
0.370232
0.369528
0.368844
0.368178
0.367531
0.3669
0.366286
0.365688
0.365104
0.364535
0.36398
0.363438
0.362908
0.362391
0.361886
0.361392
0.360909
0.360437
0.359976
0.359524
0.359083
0.358651
0.358229
0.357815
0.35741
0.357014
0.356627
0.356247
0.355876
0.355514
0.355167
0.374065
0.373253
0.372463
0.371694
0.370945
0.370218
0.369511
0.368822
0.368153
0.367501
0.366866
0.366248
0.365645
0.365056
0.364483
0.363922
0.363375
0.362841
0.362319
0.361809
0.361311
0.360824
0.360347
0.359881
0.359425
0.35898
0.358543
0.358117
0.357699
0.357291
0.356891
0.356499
0.356116
0.355741
0.355376
0.355027
0.374063
0.37325
0.372458
0.371687
0.370937
0.370207
0.369496
0.368805
0.368132
0.367477
0.366838
0.366216
0.365609
0.365017
0.36444
0.363875
0.363325
0.362786
0.362261
0.361747
0.361244
0.360753
0.360273
0.359803
0.359344
0.358894
0.358454
0.358024
0.357603
0.357191
0.356788
0.356393
0.356007
0.355629
0.35526
0.354908
0.374062
0.373248
0.372455
0.371682
0.37093
0.370198
0.369485
0.368791
0.368116
0.367458
0.366816
0.366191
0.365581
0.364986
0.364405
0.363837
0.363283
0.362742
0.362213
0.361696
0.36119
0.360696
0.360213
0.35974
0.359277
0.358825
0.358382
0.357949
0.357525
0.35711
0.356704
0.356306
0.355917
0.355537
0.355166
0.354811
0.374061
0.373246
0.372452
0.371678
0.370925
0.370191
0.369477
0.368781
0.368103
0.367443
0.366799
0.366171
0.365559
0.364961
0.364377
0.363807
0.363251
0.362707
0.362175
0.361655
0.361147
0.36065
0.360164
0.359689
0.359224
0.358769
0.358324
0.357888
0.357462
0.357045
0.356636
0.356237
0.355846
0.355463
0.35509
0.354734
0.374061
0.373245
0.37245
0.371676
0.370921
0.370186
0.36947
0.368773
0.368094
0.367432
0.366786
0.366156
0.365542
0.364942
0.364356
0.363784
0.363226
0.36268
0.362146
0.361624
0.361114
0.360615
0.360127
0.35965
0.359183
0.358726
0.358279
0.357842
0.357413
0.356995
0.356585
0.356183
0.35579
0.355406
0.355032
0.354674
0.37406
0.373244
0.372449
0.371674
0.370919
0.370183
0.369466
0.368768
0.368087
0.367424
0.366777
0.366146
0.36553
0.364929
0.364342
0.363768
0.363208
0.36266
0.362125
0.361602
0.36109
0.36059
0.3601
0.359621
0.359153
0.358695
0.358246
0.357807
0.357378
0.356958
0.356547
0.356144
0.35575
0.355365
0.354989
0.35463
0.37406
0.373244
0.372449
0.371673
0.370918
0.370182
0.369465
0.368766
0.368084
0.36742
0.366772
0.36614
0.365523
0.364921
0.364333
0.363759
0.363197
0.362649
0.362112
0.361588
0.361075
0.360574
0.360084
0.359604
0.359135
0.358675
0.358226
0.357786
0.357356
0.356935
0.356523
0.35612
0.355725
0.355339
0.354963
0.354603
0.37406
0.373245
0.372449
0.371674
0.370918
0.370182
0.369465
0.368766
0.368084
0.36742
0.366772
0.366139
0.365522
0.364919
0.364331
0.363756
0.363194
0.362645
0.362108
0.361583
0.36107
0.360568
0.360077
0.359597
0.359127
0.358668
0.358218
0.357778
0.357347
0.356926
0.356513
0.35611
0.355715
0.355328
0.354952
0.354592
0.374061
0.373245
0.37245
0.371675
0.37092
0.370184
0.369467
0.368768
0.368087
0.367422
0.366774
0.366142
0.365525
0.364922
0.364334
0.363759
0.363197
0.362648
0.362111
0.361586
0.361073
0.360571
0.36008
0.3596
0.35913
0.35867
0.358221
0.35778
0.35735
0.356928
0.356516
0.356112
0.355717
0.355331
0.354955
0.354595
0.374061
0.373246
0.372452
0.371677
0.370923
0.370187
0.369471
0.368772
0.368092
0.367428
0.36678
0.366148
0.365532
0.364929
0.364341
0.363767
0.363205
0.362656
0.36212
0.361596
0.361083
0.360581
0.360091
0.359611
0.359141
0.358682
0.358232
0.357793
0.357362
0.356941
0.356529
0.356126
0.355731
0.355345
0.354969
0.35461
0.374062
0.373248
0.372454
0.37168
0.370926
0.370192
0.369476
0.368779
0.368099
0.367436
0.366789
0.366158
0.365542
0.364941
0.364353
0.36378
0.363219
0.362671
0.362135
0.361612
0.361099
0.360599
0.360109
0.359629
0.359161
0.358702
0.358253
0.357814
0.357385
0.356964
0.356553
0.35615
0.355756
0.355371
0.354995
0.354637
0.374063
0.37325
0.372457
0.371684
0.370931
0.370198
0.369484
0.368787
0.368109
0.367447
0.366801
0.366172
0.365557
0.364957
0.36437
0.363798
0.363238
0.362691
0.362157
0.361634
0.361123
0.360624
0.360135
0.359657
0.359189
0.358731
0.358284
0.357846
0.357417
0.356997
0.356587
0.356185
0.355792
0.355407
0.355032
0.354674
0.374065
0.373252
0.372461
0.371689
0.370938
0.370206
0.369493
0.368798
0.368121
0.367461
0.366817
0.366189
0.365576
0.364977
0.364393
0.363822
0.363264
0.362719
0.362186
0.361665
0.361155
0.360657
0.360169
0.359693
0.359226
0.35877
0.358323
0.357886
0.357459
0.35704
0.35663
0.356229
0.355837
0.355453
0.355079
0.354721
0.374066
0.373255
0.372465
0.371695
0.370946
0.370216
0.369505
0.368812
0.368137
0.367479
0.366837
0.366211
0.3656
0.365004
0.364422
0.363853
0.363297
0.362753
0.362222
0.361703
0.361195
0.360699
0.360213
0.359737
0.359272
0.358817
0.358371
0.357935
0.357508
0.35709
0.35668
0.356279
0.355887
0.355503
0.355128
0.35477
0.374069
0.373259
0.372471
0.371703
0.370956
0.370228
0.36952
0.36883
0.368157
0.367502
0.366863
0.36624
0.365631
0.365037
0.364458
0.363891
0.363337
0.362796
0.362267
0.361749
0.361243
0.360748
0.360263
0.359788
0.359323
0.358868
0.358422
0.357986
0.357558
0.357138
0.356728
0.356325
0.35593
0.355544
0.355167
0.354806
0.374071
0.373264
0.372478
0.371713
0.370969
0.370244
0.369539
0.368852
0.368183
0.367531
0.366895
0.366275
0.365669
0.365078
0.364501
0.363937
0.363385
0.362845
0.362317
0.3618
0.361294
0.360798
0.360312
0.359836
0.359369
0.358912
0.358463
0.358023
0.357591
0.357168
0.356752
0.356344
0.355944
0.355552
0.355168
0.354801
0.374075
0.373271
0.372488
0.371726
0.370985
0.370264
0.369562
0.36888
0.368214
0.367566
0.366934
0.366317
0.365714
0.365125
0.364549
0.363986
0.363434
0.362894
0.362364
0.361845
0.361335
0.360835
0.360345
0.359863
0.35939
0.358925
0.358468
0.358019
0.357578
0.357145
0.356719
0.3563
0.355888
0.355484
0.355088
0.354708
0.374079
0.373279
0.3725
0.371742
0.371005
0.370289
0.369592
0.368914
0.368253
0.367608
0.366978
0.366363
0.365761
0.365172
0.364594
0.364028
0.363472
0.362926
0.362389
0.361861
0.361342
0.360831
0.360328
0.359833
0.359346
0.358866
0.358393
0.357927
0.357469
0.357017
0.356572
0.356134
0.355702
0.355278
0.354861
0.354461
0.374085
0.373289
0.372515
0.371763
0.371032
0.370321
0.369629
0.368954
0.368296
0.367653
0.367023
0.366405
0.365799
0.365203
0.364617
0.36404
0.363471
0.36291
0.362357
0.361811
0.361271
0.360739
0.360213
0.359694
0.359181
0.358674
0.358174
0.35768
0.357193
0.356711
0.356237
0.355768
0.355306
0.354851
0.354404
0.353973
0.374093
0.373303
0.372536
0.371789
0.371064
0.370358
0.36967
0.368997
0.368337
0.367689
0.367052
0.366424
0.365803
0.36519
0.364583
0.363983
0.363387
0.362798
0.362213
0.361634
0.361059
0.36049
0.359926
0.359368
0.358814
0.358267
0.357725
0.357189
0.356659
0.356134
0.355616
0.355104
0.354599
0.3541
0.35361
0.353137
0.374103
0.373322
0.372562
0.371823
0.371102
0.370399
0.369709
0.369029
0.368359
0.367695
0.367036
0.366381
0.36573
0.365082
0.364436
0.363793
0.363152
0.362514
0.361879
0.361247
0.360618
0.359994
0.359373
0.358756
0.358145
0.357538
0.356937
0.356341
0.355752
0.355168
0.354591
0.35402
0.353456
0.352899
0.352352
0.351823
0.374117
0.373346
0.372595
0.371861
0.371141
0.370431
0.369727
0.369027
0.368327
0.367626
0.366924
0.36622
0.365514
0.364806
0.364096
0.363385
0.362674
0.361962
0.361252
0.360542
0.359835
0.35913
0.358429
0.357732
0.357039
0.356352
0.35567
0.354993
0.354324
0.35366
0.353004
0.352356
0.351715
0.351082
0.350459
0.349856
0.374136
0.373378
0.372633
0.371896
0.371164
0.37043
0.369691
0.368943
0.368186
0.367419
0.366642
0.365856
0.365062
0.364261
0.363454
0.362642
0.361827
0.361009
0.36019
0.359371
0.358554
0.357739
0.356927
0.356119
0.355316
0.354518
0.353727
0.352943
0.352166
0.351397
0.350637
0.349885
0.349143
0.34841
0.347689
0.346991
0.374161
0.373415
0.372668
0.371912
0.371141
0.370353
0.369542
0.368708
0.367852
0.366976
0.366081
0.365168
0.364241
0.363302
0.362352
0.361393
0.360428
0.359459
0.358487
0.357514
0.356543
0.355573
0.354607
0.353646
0.352692
0.351744
0.350805
0.349874
0.348953
0.348043
0.347143
0.346254
0.345378
0.344513
0.343663
0.34284
0.374192
0.373451
0.372681
0.37187
0.371019
0.370127
0.369191
0.368215
0.367201
0.366153
0.365076
0.363972
0.362845
0.361698
0.360536
0.359362
0.358178
0.356988
0.355795
0.3546
0.353407
0.352218
0.351034
0.349858
0.348691
0.347534
0.346389
0.345257
0.344138
0.343034
0.341945
0.340872
0.339816
0.338777
0.337756
0.336767
0.374227
0.373468
0.372632
0.371709
0.37071
0.369638
0.368496
0.367288
0.366021
0.364703
0.363338
0.361933
0.360495
0.359028
0.35754
0.356035
0.354518
0.352994
0.351467
0.349942
0.348422
0.34691
0.345409
0.343922
0.34245
0.340997
0.339563
0.33815
0.336759
0.335392
0.334049
0.332731
0.331438
0.330172
0.328932
0.327732
0.374255
0.373431
0.372454
0.371325
0.370066
0.368685
0.367189
0.365589
0.363896
0.36212
0.360274
0.358368
0.356414
0.354422
0.352403
0.350365
0.348319
0.346271
0.344229
0.3422
0.340189
0.338201
0.33624
0.33431
0.332414
0.330555
0.328735
0.326955
0.325217
0.323522
0.321872
0.320265
0.318704
0.317188
0.315718
0.314303
0.374259
0.373281
0.372033
0.370523
0.368783
0.36683
0.364679
0.362352
0.359873
0.357265
0.354552
0.351759
0.348909
0.346025
0.343127
0.340233
0.33736
0.334524
0.331736
0.329006
0.326344
0.323755
0.321246
0.318819
0.316479
0.314227
0.312066
0.309995
0.308018
0.306131
0.304338
0.302634
0.301021
0.299496
0.298061
0.296716
0.374231
0.372961
0.371181
0.368912
0.366202
0.363097
0.359645
0.355907
0.351947
0.347833
0.343629
0.339398
0.335198
0.331078
0.327082
0.323247
0.319606
0.316179
0.312984
0.310024
0.307306
0.304823
0.30258
0.300565
0.298782
0.297216
0.295871
0.294728
0.293793
0.293047
0.292494
0.292116
0.291916
0.291877
0.292004
0.292277
0.374444
0.373038
0.370573
0.367187
0.363067
0.358382
0.35333
0.348119
0.342955
0.338014
0.333464
0.329432
0.326037
0.32335
0.321433
0.320298
0.319961
0.320384
0.321452
0.323065
0.32517
0.327688
0.33059
0.333812
0.337339
0.341116
0.34514
0.34936
0.35378
0.358351
0.363086
0.367936
0.37292
0.37799
0.383171
0.388406
0.382616
0.391983
0.401166
0.410028
0.418196
0.425407
0.431842
0.437874
0.443894
0.450264
0.457307
0.465287
0.474417
0.48484
0.496644
0.509802
0.52422
0.539519
0.554083
0.567983
0.581257
0.593947
0.606085
0.617703
0.628831
0.639491
0.649712
0.65951
0.668915
0.677936
0.686602
0.694919
0.702914
0.710589
0.717972
0.725049
0.690163
0.947965
1.13653
1.26043
1.33219
1.36509
1.37008
1.35602
1.32938
1.29508
1.25634
1.21565
1.17451
1.13414
1.09513
1.05806
1.023
0.990214
0.959563
0.931043
0.904414
0.879685
0.856613
0.835223
0.815274
0.796805
0.77958
0.763653
0.748789
0.735061
0.722235
0.7104
0.699323
0.689109
0.679526
0.670697
3.32536e-08
4.19793e-07
1.51777e-06
3.92964e-06
8.17883e-06
1.47036e-05
2.38073e-05
3.56653e-05
5.0532e-05
6.92381e-05
9.6029e-05
0.000128889
0.000165363
0.000203026
0.000250902
0.000330255
0.000424578
0.000525606
0.0006294
0.000733182
0.000834718
0.000933287
0.00102746
0.00111621
0.00119874
0.00127451
0.00134311
0.00140425
0.00145771
0.00150331
0.00154091
0.00157045
0.00159188
0.00160522
0.00161053
0.00160797
0.00159788
0.00158285
0.00156393
0.001539
0.00150741
0.00146953
0.00142581
0.00137686
0.00132334
0.00126603
0.00120573
0.00114327
0.00107951
0.00101527
0.000951345
0.000888476
0.000827341
0.000768532
0.000712557
0.000659821
0.000610637
0.000565217
0.000523684
0.00048608
0.000452376
0.000422488
0.000396287
0.000373619
0.000354316
0.000338206
0.000325127
0.000314934
0.000307508
0.000302769
0.000300782
0.000301963
0.000305909
0.000312638
0.000322627
0.000336108
0.000353288
0.000374461
0.00039998
0.000430245
0.000465683
0.000506723
0.000553771
0.000607173
0.000667181
0.00073392
0.000807367
0.000887343
0.000973528
0.00106549
0.00116272
0.00126466
0.00137076
0.00148048
0.00159327
0.00170862
0.00182619
0.00194591
0.0020677
0.00219129
0.00231626
0.00244238
0.00256898
0.0026943
0.00281552
0.00293218
0.00304566
0.00315416
0.00325264
0.00334053
0.00342297
0.00349383
0.00356136
0.00361148
0.00362166
0.00358857
0.00352612
0.00345793
0.00349521
0.00386249
0.00510338
0.00631629
0.00655692
0.00590271
0.00551386
0.00503001
0.00449597
0.00465407
0.00954306
0.0166622
0.0245022
0.0325701
0.0404733
0.0480735
0.055274
0.0620716
0.0684642
0.0744855
0.0801592
0.0855235
0.0906055
0.0954384
0.100046
0.104456
0.108687
0.112759
0.116689
0.120491
0.124176
0.127758
0.131244
0.134644
0.137964
0.141211
0.144389
0.147505
0.150562
0.153564
0.156513
0.159414
0.162268
0.165077
0.167843
0.170569
0.173254
0.1759
0.178507
0.181078
0.183614
0.186118
0.18859
0.191031
0.193442
0.195823
0.198174
0.200498
0.202794
0.205062
0.207304
0.209519
0.211709
0.213872
0.216011
0.218125
0.220214
0.22228
0.224321
0.226339
0.228334
0.230306
0.232255
0.234182
0.236087
0.237969
0.239831
0.24167
0.243489
0.245286
0.247063
0.248818
0.250554
0.252269
0.253964
0.255638
0.257293
0.258928
0.260544
0.262139
0.263715
0.265272
0.266808
0.268326
0.269824
0.271303
0.272763
0.274203
0.275623
0.277025
0.278406
0.279768
0.281107
0.282427
0.283729
0.285019
0.286306
0.287578
0.288831
0.290065
0.291279
0.292473
0.293647
0.294801
0.295934
0.297045
0.298135
0.299203
0.300248
0.30127
0.302269
0.303243
0.304193
0.305117
0.306016
0.306888
0.307733
0.30855
0.309338
0.310097
0.310824
0.311518
0.312176
0.312794
0.313374
0.313917
0.314422
0.314888
0.315314
0.3157
0.316045
0.316348
0.316607
0.316822
0.316993
0.317117
0.317194
0.317224
0.317204
0.317136
0.317017
0.316847
0.316625
0.31635
0.316022
0.31564
0.315203
0.314711
0.314163
0.313558
0.312897
0.312178
0.311401
0.310566
0.309672
0.308719
0.307707
0.306635
0.305504
0.304312
0.30306
0.301748
0.300375
0.298942
0.297448
0.295893
0.294277
0.2926
0.290862
0.289063
0.287202
0.28528
0.283296
0.281252
0.279147
0.276982
0.274757
0.272472
0.270126
0.26772
0.265254
0.262727
0.260142
0.257496
0.254791
0.252026
0.249202
0.246318
0.243375
0.240372
0.237311
0.234189
0.231007
0.227766
0.224463
0.221094
0.21766
0.214167
0.210611
0.206996
0.203325
0.1996
0.19583
0.19201
0.188166
0.184319
0.180469
0.176744
0.175235
0.175318
0.175457
0.175527
0.17548
0.175332
0.175087
0.174745
0.174307
0.173768
0.173128
0.172362
0.17149
0.170451
0.16931
0.167887
0.166379
0.164322
0.162232
0.158932
0.155638
0.149233
0.143513
0.131099
5.16273e-07
7.96936e-07
4.35731e-06
1.32989e-05
3.08759e-05
6.33985e-05
0.000122349
0.000227508
0.000411279
0.000702806
0.00108136
0.00154932
0.00207245
0.00259845
0.00311703
0.00361425
0.00407727
0.0044975
0.00486902
0.00518867
0.00545585
0.00567177
0.00583871
0.00595979
0.00603859
0.00607882
0.00608419
0.00605825
0.00600436
0.00592564
0.00582498
0.00570499
0.00556809
0.00541646
0.0052521
0.00507679
0.00489164
0.00469372
0.00448044
0.00425438
0.00402365
0.00380332
0.00359185
0.00338882
0.00319406
0.00300754
0.0028293
0.00265942
0.00249797
0.00234499
0.0022005
0.00206447
0.00193683
0.00181749
0.00170631
0.00160312
0.00150773
0.00141992
0.00133947
0.00126613
0.00119966
0.00113981
0.00108635
0.00103909
0.000997836
0.000962465
0.000932901
0.000909145
0.000891285
0.000879491
0.00087379
0.000873497
0.000879267
0.000893367
0.000926155
0.000976996
0.00104653
0.00113757
0.00125344
0.00139795
0.00157525
0.00178972
0.0020456
0.00234671
0.00269607
0.00309554
0.00354561
0.00404531
0.00459232
0.0051832
0.00581366
0.00647894
0.0071741
0.0078941
0.00863385
0.00938871
0.0101557
0.0109365
0.01173
0.0125337
0.0133457
0.0141662
0.0149933
0.0158188
0.0166333
0.0174582
0.0183366
0.0192518
0.0201959
0.0211695
0.0222151
0.023345
0.0244367
0.025339
0.0259803
0.0265293
0.0271846
0.0282818
0.031319
0.0386167
0.0476463
0.0510922
0.052113
0.0524175
0.053093
0.0556279
0.0603156
0.0672355
0.0762441
0.0869726
0.0982885
0.109686
0.121018
0.132123
0.142964
0.153481
0.163671
0.173513
0.183022
0.192202
0.201078
0.209662
0.217982
0.226056
0.233907
0.241554
0.249018
0.256314
0.263459
0.270466
0.277349
0.284118
0.290784
0.297354
0.303838
0.310242
0.316571
0.322831
0.329026
0.335161
0.34124
0.347264
0.353238
0.359163
0.365043
0.370878
0.376672
0.382423
0.388131
0.393796
0.399421
0.405005
0.41055
0.416056
0.421524
0.426955
0.432348
0.437705
0.443026
0.448311
0.45356
0.458774
0.463953
0.469097
0.474206
0.479282
0.484323
0.48933
0.494303
0.499243
0.504149
0.509022
0.513863
0.51867
0.523445
0.528188
0.532898
0.537577
0.542223
0.546838
0.551422
0.555975
0.560497
0.564988
0.569448
0.573879
0.578279
0.582649
0.586989
0.5913
0.595582
0.599835
0.604058
0.608254
0.61242
0.61656
0.620671
0.624753
0.628814
0.632856
0.636854
0.640807
0.644712
0.648568
0.652373
0.656144
0.659891
0.663614
0.667314
0.67099
0.674642
0.678271
0.681875
0.685455
0.689011
0.692542
0.696048
0.699528
0.702983
0.706412
0.709814
0.71319
0.716539
0.71986
0.723154
0.72642
0.729658
0.732869
0.736053
0.73921
0.742342
0.74545
0.748525
0.751562
0.754561
0.75752
0.760438
0.763314
0.766146
0.768935
0.771677
0.774373
0.777021
0.77962
0.782167
0.784663
0.787106
0.789495
0.791828
0.794105
0.796323
0.798483
0.800582
0.80262
0.804595
0.806506
0.808353
0.810134
0.811848
0.813494
0.815071
0.816578
0.818014
0.819378
0.820669
0.821886
0.823028
0.824093
0.825082
0.825992
0.826824
0.827575
0.828245
0.828832
0.829335
0.829753
0.830084
0.830327
0.830479
0.83054
0.830507
0.830379
0.830153
0.829828
0.829402
0.828873
0.828238
0.827496
0.826644
0.825679
0.824599
0.8234
0.82208
0.820635
0.819061
0.817354
0.815511
0.813527
0.811398
0.809118
0.806684
0.804089
0.801331
0.798396
0.79527
0.791946
0.788426
0.784709
0.780796
0.776668
0.772369
0.767833
0.763081
0.758193
0.753075
0.747726
0.742325
0.736864
0.731202
0.725288
0.719112
0.712696
0.706053
0.699209
0.692153
0.684932
0.677484
0.669916
0.662056
0.654156
0.645802
0.637547
0.628492
0.61977
0.609553
0.599986
0.587526
0.575568
0.555
0.530872
1.67958e-06
2.37138e-06
1.41111e-05
4.69344e-05
0.000114785
0.00024121
0.000468398
0.000869123
0.00150431
0.00226434
0.00311974
0.00403482
0.00497407
0.00590655
0.00680892
0.00766395
0.00845954
0.00918775
0.00984417
0.0104273
0.0109381
0.011379
0.0117536
0.0120662
0.0123213
0.0125235
0.012677
0.0127863
0.012855
0.0128869
0.0128852
0.0128529
0.0127925
0.0127065
0.012597
0.0124658
0.0123147
0.0121447
0.0119566
0.01175
0.0115196
0.0112554
0.01097
0.0106735
0.0103669
0.0100514
0.00972865
0.00940051
0.00906897
0.00873614
0.00840421
0.00807535
0.0077517
0.00743529
0.00712804
0.00683171
0.00654787
0.00627793
0.00602311
0.00578449
0.00556299
0.00535943
0.00517454
0.00500906
0.00486373
0.00473941
0.00463713
0.00455818
0.00450424
0.0044775
0.00448077
0.00451757
0.00459234
0.00470941
0.00486712
0.00507487
0.00534522
0.00570791
0.00617103
0.00674329
0.00743319
0.00824796
0.00919242
0.0102681
0.0114725
0.0127997
0.0142402
0.0157825
0.0174137
0.019121
0.0208925
0.0227175
0.0245869
0.0264928
0.0284294
0.0303927
0.0323874
0.034441
0.0365453
0.0387023
0.0409226
0.0432189
0.0456046
0.0480976
0.0507139
0.053443
0.056276
0.0592279
0.0623313
0.065576
0.0692633
0.0734784
0.0781891
0.0827411
0.0869198
0.0907836
0.0940004
0.0962857
0.0978003
0.0988856
0.0996254
0.10024
0.101692
0.104425
0.109445
0.117287
0.127864
0.140932
0.156059
0.172568
0.189735
0.207087
0.224311
0.241186
0.257586
0.273426
0.28868
0.303335
0.317415
0.330946
0.343967
0.356519
0.368644
0.380382
0.391772
0.402847
0.41364
0.42418
0.434491
0.444596
0.454515
0.464265
0.473862
0.483317
0.492645
0.501853
0.510952
0.519949
0.52885
0.537662
0.546389
0.555037
0.563609
0.572108
0.580538
0.588901
0.597199
0.605434
0.613607
0.621721
0.629776
0.637774
0.645716
0.653603
0.661436
0.669215
0.676942
0.684616
0.692239
0.699811
0.707332
0.714802
0.722223
0.729593
0.736915
0.744187
0.75141
0.758585
0.765711
0.772788
0.779818
0.786799
0.793733
0.800619
0.807458
0.814249
0.820994
0.827691
0.834342
0.840946
0.847504
0.854015
0.86048
0.8669
0.873274
0.879602
0.885885
0.892123
0.898316
0.904464
0.910567
0.916627
0.922642
0.928613
0.934541
0.940425
0.946269
0.95205
0.957761
0.9634
0.968987
0.974526
0.980019
0.985467
0.990873
0.996238
1.00156
1.00685
1.01209
1.0173
1.02246
1.02759
1.03267
1.03771
1.04271
1.04766
1.05258
1.05745
1.06227
1.06706
1.07179
1.07648
1.08113
1.08573
1.09028
1.09478
1.09923
1.10363
1.10798
1.11228
1.11652
1.12071
1.12484
1.1289
1.13291
1.13685
1.14073
1.14455
1.14829
1.15197
1.15558
1.15911
1.16257
1.16596
1.16927
1.1725
1.17566
1.17873
1.18172
1.18463
1.18745
1.19019
1.19284
1.19539
1.19786
1.20024
1.20253
1.20472
1.20681
1.20881
1.21072
1.21252
1.21422
1.21583
1.21733
1.21872
1.22002
1.2212
1.22228
1.22325
1.22412
1.22487
1.22551
1.22604
1.22645
1.22674
1.22692
1.22697
1.22691
1.22672
1.2264
1.22595
1.22537
1.22465
1.2238
1.2228
1.22166
1.22038
1.21895
1.21736
1.21562
1.21372
1.21166
1.20942
1.20701
1.20443
1.20166
1.19869
1.19554
1.19218
1.18861
1.18482
1.18081