/*--------------------------------*- C++ -*----------------------------------*\
| =========                 |                                                 |
| \\      /  F ield         | OpenFOAM: The Open Source CFD Toolbox           |
|  \\    /   O peration     | Version:  2.4.0                                 |
|   \\  /    A nd           | Web:      www.OpenFOAM.org                      |
|    \\/     M anipulation  |                                                 |
\*---------------------------------------------------------------------------*/
FoamFile
{
    version     2.0;
    format      ascii;
    class       volScalarField;
    location    "3150";
    object      p;
}
// * * * * * * * * * * * * * * * * * * * * * * * * * * * * * * * * * * * * * //

dimensions      [0 2 -2 0 0 0 0];

internalField   nonuniform List<scalar> 
48900
(
-0.468122
-1.78532
-2.36159
-2.58209
-2.83525
-3.08758
-3.30144
-3.49401
-3.6709
-3.83162
-3.97289
-4.09704
-4.20876
-4.3112
-4.4023
-4.48293
-4.5531
-4.61517
-4.66902
-4.7176
-4.75998
-4.80004
-4.8361
-4.87325
-4.90709
-4.94494
-4.97928
-5.0209
-5.05785
-5.10618
-5.14777
-5.20649
-5.25568
-5.33087
-5.39298
-5.4869
-0.759896
-1.86192
-2.37452
-2.59176
-2.84157
-3.09082
-3.3026
-3.49323
-3.66813
-3.827
-3.96727
-4.09203
-4.20403
-4.30593
-4.39627
-4.47646
-4.54623
-4.60828
-4.66205
-4.71094
-4.75337
-4.79364
-4.82975
-4.86724
-4.90124
-4.93943
-4.97392
-5.01578
-5.05286
-5.1012
-5.14289
-5.20111
-5.25027
-5.32341
-5.38389
-5.47135
-1.05121
-1.88032
-2.36552
-2.60022
-2.84853
-3.09183
-3.29883
-3.48525
-3.65612
-3.81187
-3.95034
-4.07465
-4.18557
-4.2866
-4.3762
-4.4565
-4.52636
-4.58916
-4.64345
-4.69338
-4.73676
-4.77882
-4.81578
-4.85451
-4.88901
-4.92806
-4.96288
-5.00502
-5.04243
-5.08999
-5.13231
-5.18751
-5.23786
-5.30193
-5.36085
-5.4123
-1.31041
-1.93591
-2.39093
-2.62769
-2.86588
-3.09912
-3.30031
-3.48274
-3.64999
-3.80313
-3.93966
-4.06274
-4.17231
-4.27259
-4.36137
-4.44164
-4.51125
-4.57457
-4.62901
-4.67981
-4.72383
-4.76725
-4.80461
-4.84418
-4.87878
-4.9183
-4.95297
-4.995
-5.03198
-5.07851
-5.11992
-5.17227
-5.22024
-5.27664
-5.32716
-5.36003
-1.53669
-2.0187
-2.4278
-2.65749
-2.88585
-3.10933
-3.30452
-3.48227
-3.64511
-3.79464
-3.92824
-4.04941
-4.15737
-4.25656
-4.34426
-4.42422
-4.49351
-4.55728
-4.61201
-4.66384
-4.70842
-4.75272
-4.79065
-4.831
-4.86618
-4.90597
-4.9411
-4.98258
-5.0198
-5.06453
-5.1056
-5.15413
-5.19976
-5.24878
-5.29162
-5.3185
-1.72791
-2.10801
-2.47141
-2.69223
-2.91121
-3.12452
-3.3129
-3.48529
-3.64338
-3.78895
-3.91951
-4.03856
-4.14477
-4.24259
-4.32913
-4.40853
-4.47747
-4.54141
-4.59635
-4.64878
-4.69375
-4.73874
-4.77733
-4.81826
-4.85398
-4.89386
-4.9293
-4.9701
-5.00726
-5.05015
-5.09039
-5.13525
-5.17814
-5.22077
-5.25796
-5.28067
-1.89123
-2.19481
-2.51839
-2.72982
-2.93926
-3.14242
-3.32377
-3.49057
-3.6438
-3.78524
-3.9126
-4.0292
-4.13348
-4.2297
-4.315
-4.39361
-4.46213
-4.52595
-4.58107
-4.63379
-4.67929
-4.72467
-4.76398
-4.80514
-4.84148
-4.88115
-4.91697
-4.95689
-4.99393
-5.03499
-5.0741
-5.11574
-5.15556
-5.19333
-5.22565
-5.24556
-2.03555
-2.27839
-2.56674
-2.76832
-2.96803
-3.16144
-3.33585
-3.49706
-3.64546
-3.78273
-3.90685
-4.02084
-4.12313
-4.21762
-4.30169
-4.37935
-4.44745
-4.51098
-4.56629
-4.61913
-4.66517
-4.71076
-4.75079
-4.79203
-4.829
-4.86835
-4.90449
-4.9435
-4.98028
-5.01958
-5.05738
-5.09611
-5.13297
-5.16684
-5.19523
-5.21346
-2.16635
-2.36008
-2.61607
-2.80705
-2.99676
-3.18074
-3.34834
-3.50398
-3.64763
-3.78077
-3.90167
-4.01299
-4.11328
-4.20598
-4.28883
-4.36544
-4.43311
-4.49624
-4.55173
-4.60454
-4.65111
-4.69678
-4.73748
-4.7787
-4.81622
-4.8552
-4.89155
-4.92966
-4.966
-5.00368
-5.04003
-5.07621
-5.11034
-5.14103
-5.16645
-5.18351
-2.28641
-2.44065
-2.66663
-2.84618
-3.02549
-3.20017
-3.36095
-3.511
-3.64993
-3.779
-3.8967
-4.00533
-4.10362
-4.1945
-4.27615
-4.35168
-4.41891
-4.48155
-4.53717
-4.58988
-4.63692
-4.6826
-4.72389
-4.76503
-4.80299
-4.84159
-4.878
-4.91526
-4.95104
-4.98721
-5.02209
-5.05603
-5.08772
-5.11584
-5.13904
-5.15524
-2.39735
-2.52019
-2.71858
-2.88602
-3.05458
-3.21993
-3.37377
-3.51811
-3.65231
-3.7773
-3.89181
-3.99772
-4.09399
-4.18305
-4.26349
-4.33791
-4.40466
-4.46679
-4.52248
-4.57503
-4.62245
-4.66811
-4.70986
-4.7509
-4.78918
-4.82741
-4.86376
-4.90021
-4.93532
-4.97013
-5.00356
-5.03553
-5.06512
-5.09117
-5.11272
-5.12833
-2.5003
-2.59846
-2.77182
-2.92679
-3.08438
-3.24032
-3.38703
-3.52551
-3.65487
-3.77573
-3.88699
-3.99014
-4.08435
-4.17157
-4.25077
-4.32407
-4.3903
-4.45188
-4.50756
-4.55992
-4.60763
-4.65322
-4.69533
-4.73626
-4.77472
-4.81259
-4.84875
-4.88446
-4.91883
-4.9524
-4.98446
-5.01473
-5.04255
-5.06694
-5.08728
-5.10251
-2.59611
-2.67503
-2.82606
-2.9685
-3.1151
-3.2616
-3.401
-3.53343
-3.65783
-3.77447
-3.88239
-3.98271
-4.07477
-4.16012
-4.23803
-4.31018
-4.37582
-4.43681
-4.4924
-4.54453
-4.59241
-4.63792
-4.68025
-4.72105
-4.75958
-4.7971
-4.83298
-4.86798
-4.9016
-4.93404
-4.96485
-4.99366
-5.02001
-5.0431
-5.06257
-5.07758
-2.68571
-2.74955
-2.88093
-3.011
-3.14679
-3.2839
-3.41585
-3.54211
-3.6614
-3.77371
-3.87817
-3.97557
-4.06538
-4.1488
-4.22534
-4.29631
-4.36125
-4.42163
-4.477
-4.52887
-4.57681
-4.6222
-4.66464
-4.70528
-4.74377
-4.78094
-4.81647
-4.85081
-4.88368
-4.9151
-4.94479
-4.97236
-4.99752
-5.01958
-5.03846
-5.05337
-2.75948
-2.81277
-2.92924
-3.0487
-3.17527
-3.30428
-3.42965
-3.55041
-3.66512
-3.77357
-3.87489
-3.96966
-4.05741
-4.13909
-4.21434
-4.28424
-4.34848
-4.40829
-4.46338
-4.51498
-4.56286
-4.60812
-4.65055
-4.69104
-4.7294
-4.76627
-4.80144
-4.83524
-4.86748
-4.89811
-4.92693
-4.9536
-4.9779
-4.99928
-5.0178
-5.03268
-2.8211
-2.86697
-2.97144
-3.08218
-3.20084
-3.32284
-3.44244
-3.55831
-3.66894
-3.77392
-3.87241
-3.9648
-4.05067
-4.13076
-4.20481
-4.27371
-4.33729
-4.39653
-4.45132
-4.50264
-4.55041
-4.5955
-4.63786
-4.67819
-4.7164
-4.75298
-4.78784
-4.82117
-4.85287
-4.88287
-4.91101
-4.93698
-4.96066
-4.98155
-4.99984
-5.01475
-2.88205
-2.92166
-3.01483
-3.11707
-3.22779
-3.34266
-3.45632
-3.56712
-3.67347
-3.7748
-3.8703
-3.96016
-4.044
-4.12238
-4.19513
-4.26295
-4.32577
-4.38438
-4.43878
-4.48975
-4.53734
-4.58223
-4.62446
-4.66457
-4.7026
-4.73887
-4.77337
-4.80625
-4.83742
-4.86682
-4.89432
-4.91967
-4.94281
-4.9633
-4.98143
-4.99642
-2.94224
-2.9765
-3.05925
-3.15321
-3.25604
-3.36375
-3.47133
-3.57688
-3.67877
-3.77629
-3.86863
-3.95581
-4.03748
-4.11404
-4.18537
-4.25201
-4.31397
-4.37186
-4.42579
-4.47635
-4.52368
-4.56831
-4.61035
-4.65021
-4.68799
-4.72393
-4.75807
-4.79048
-4.82114
-4.84997
-4.8769
-4.9017
-4.92438
-4.94456
-4.96257
-4.97767
-3.00146
-3.03118
-3.10445
-3.19041
-3.28548
-3.38604
-3.48745
-3.58761
-3.6849
-3.77846
-3.86748
-3.95183
-4.0312
-4.10581
-4.1756
-4.24096
-4.30195
-4.35905
-4.41241
-4.46249
-4.50947
-4.55378
-4.59556
-4.63513
-4.67261
-4.7082
-4.74194
-4.7739
-4.80407
-4.83237
-4.85878
-4.88311
-4.9054
-4.92533
-4.94328
-4.95852
-3.05954
-3.08542
-3.15013
-3.22843
-3.31595
-3.40943
-3.50463
-3.59932
-3.69188
-3.78135
-3.86691
-3.9483
-4.02523
-4.09778
-4.1659
-4.22987
-4.28979
-4.34601
-4.39869
-4.44821
-4.49477
-4.53868
-4.58013
-4.61936
-4.65651
-4.69171
-4.72505
-4.75655
-4.78625
-4.81407
-4.84001
-4.86393
-4.8859
-4.90565
-4.92358
-4.93898
-3.11632
-3.13895
-3.19599
-3.26701
-3.34726
-3.4338
-3.5228
-3.61198
-3.69971
-3.78498
-3.86695
-3.94527
-4.01962
-4.08999
-4.15633
-4.21882
-4.27755
-4.33278
-4.3847
-4.43358
-4.47962
-4.52307
-4.56412
-4.60296
-4.63972
-4.67452
-4.70744
-4.7385
-4.76774
-4.79512
-4.82065
-4.84422
-4.86593
-4.88555
-4.90348
-4.91908
-3.17162
-3.19146
-3.2417
-3.30587
-3.37918
-3.45898
-3.54184
-3.6255
-3.70836
-3.78935
-3.86763
-3.94277
-4.01443
-4.08252
-4.14696
-4.20786
-4.26529
-4.31945
-4.37049
-4.41864
-4.46408
-4.50701
-4.54759
-4.58599
-4.62232
-4.65669
-4.68918
-4.71981
-4.74862
-4.77559
-4.80075
-4.82403
-4.84553
-4.86507
-4.88304
-4.89883
-3.22522
-3.24267
-3.2869
-3.34469
-3.41143
-3.48475
-3.5616
-3.63979
-3.71776
-3.79442
-3.86894
-3.94082
-4.00969
-4.07539
-4.13783
-4.19704
-4.25307
-4.30606
-4.35614
-4.40347
-4.44822
-4.49055
-4.5306
-4.56851
-4.60438
-4.6383
-4.67035
-4.70055
-4.72895
-4.75555
-4.78039
-4.80342
-4.82476
-4.84426
-4.86227
-4.87827
-3.27689
-3.29228
-3.33124
-3.38314
-3.44372
-3.51085
-3.58187
-3.65468
-3.7278
-3.80013
-3.87085
-3.9394
-4.0054
-4.06864
-4.12898
-4.18641
-4.24095
-4.29267
-4.34169
-4.38813
-4.43212
-4.47378
-4.51324
-4.5506
-4.58597
-4.61943
-4.65103
-4.68081
-4.70883
-4.73509
-4.75965
-4.78247
-4.80368
-4.82316
-4.84124
-4.85745
-3.32638
-3.33998
-3.37433
-3.42084
-3.4757
-3.53699
-3.60241
-3.67
-3.73834
-3.80638
-3.87328
-3.93848
-4.00155
-4.06226
-4.12043
-4.176
-4.22896
-4.27934
-4.32722
-4.37268
-4.41583
-4.45676
-4.49557
-4.53236
-4.5672
-4.60017
-4.63132
-4.66069
-4.68835
-4.7143
-4.7386
-4.76125
-4.78236
-4.80184
-4.82
-4.83642
-3.37339
-3.38542
-3.41576
-3.45741
-3.50699
-3.56283
-3.62292
-3.68549
-3.74919
-3.81301
-3.87613
-3.93797
-3.9981
-4.05624
-4.11218
-4.16583
-4.21714
-4.26611
-4.31278
-4.3572
-4.39944
-4.43958
-4.4777
-4.51387
-4.54815
-4.58062
-4.61132
-4.6403
-4.6676
-4.69327
-4.71735
-4.73985
-4.76088
-4.78039
-4.79863
-4.81526
-3.41759
-3.42826
-3.45512
-3.4924
-3.53717
-3.58796
-3.64306
-3.70086
-3.76011
-3.81983
-3.87925
-3.93778
-3.99497
-4.05052
-4.10421
-4.1559
-4.20551
-4.25301
-4.29841
-4.34173
-4.38302
-4.42233
-4.45971
-4.49523
-4.52894
-4.5609
-4.59115
-4.61974
-4.64671
-4.67211
-4.69599
-4.71836
-4.73934
-4.75888
-4.77721
-4.79405
-3.45861
-3.4681
-3.49195
-3.52535
-3.56578
-3.61197
-3.66245
-3.71577
-3.77079
-3.82659
-3.88243
-3.93773
-3.99204
-4.04503
-4.09647
-4.14618
-4.19407
-4.24007
-4.28416
-4.32635
-4.36664
-4.40508
-4.44171
-4.47656
-4.50969
-4.54113
-4.57093
-4.59914
-4.6258
-4.65095
-4.67465
-4.69692
-4.71785
-4.73743
-4.75585
-4.77288
-3.49604
-3.50449
-3.52577
-3.55576
-3.59233
-3.63437
-3.68062
-3.72981
-3.78088
-3.83299
-3.88543
-3.93763
-3.98915
-4.03964
-4.08886
-4.13662
-4.18279
-4.22729
-4.27006
-4.31109
-4.35038
-4.38794
-4.42379
-4.45797
-4.49051
-4.52144
-4.5508
-4.57864
-4.605
-4.62992
-4.65345
-4.67562
-4.69653
-4.71615
-4.73466
-4.75187
-3.52937
-3.53695
-3.55603
-3.58308
-3.61625
-3.65461
-3.69708
-3.74251
-3.78997
-3.83866
-3.88792
-3.93721
-3.98608
-4.03419
-4.08128
-4.12715
-4.17164
-4.21465
-4.25613
-4.29601
-4.3343
-4.37098
-4.40606
-4.43957
-4.47152
-4.50195
-4.5309
-4.55838
-4.58446
-4.60916
-4.63255
-4.65464
-4.67552
-4.69518
-4.71377
-4.73116
-3.55805
-3.56489
-3.58212
-3.60668
-3.63693
-3.6721
-3.71124
-3.75335
-3.79758
-3.84318
-3.88955
-3.93616
-3.98258
-4.02847
-4.07356
-4.11763
-4.16053
-4.20213
-4.24235
-4.28113
-4.31845
-4.35428
-4.38862
-4.42148
-4.45287
-4.48282
-4.51136
-4.53852
-4.56434
-4.58885
-4.6121
-4.63412
-4.65498
-4.67469
-4.69336
-4.71091
-3.5814
-3.58763
-3.60336
-3.62584
-3.65366
-3.68614
-3.72246
-3.76172
-3.80314
-3.84605
-3.88987
-3.9341
-3.97833
-4.02222
-4.0655
-4.10793
-4.14936
-4.18965
-4.22871
-4.26647
-4.30288
-4.33791
-4.37156
-4.40381
-4.43469
-4.4642
-4.49237
-4.51923
-4.54481
-4.56915
-4.59228
-4.61424
-4.6351
-4.65486
-4.67362
-4.69131
-3.5986
-3.60435
-3.6189
-3.63976
-3.66564
-3.69596
-3.72999
-3.76692
-3.80603
-3.8467
-3.88838
-3.93061
-3.97297
-4.01514
-4.05684
-4.09786
-4.13801
-4.17715
-4.21518
-4.25203
-4.28763
-4.32196
-4.35498
-4.3867
-4.41712
-4.44624
-4.47409
-4.5007
-4.52608
-4.55027
-4.57331
-4.59524
-4.61609
-4.63591
-4.65475
-4.67259
-3.60864
-3.61405
-3.62775
-3.64743
-3.67191
-3.70064
-3.73297
-3.76815
-3.80551
-3.84447
-3.88451
-3.92517
-3.96606
-4.00687
-4.04732
-4.0872
-4.12631
-4.16451
-4.20171
-4.23781
-4.27275
-4.30649
-4.33901
-4.37029
-4.40033
-4.42914
-4.45674
-4.48313
-4.50836
-4.53245
-4.55543
-4.57734
-4.59822
-4.6181
-4.63703
-4.65502
-3.61019
-3.61541
-3.62865
-3.64767
-3.67134
-3.69916
-3.73049
-3.76463
-3.80093
-3.83883
-3.87783
-3.91749
-3.95744
-3.99736
-4.03699
-4.07609
-4.1145
-4.15207
-4.18869
-4.22427
-4.25875
-4.29209
-4.32426
-4.35524
-4.38503
-4.41363
-4.44105
-4.46732
-4.49246
-4.5165
-4.53946
-4.56139
-4.58231
-4.60226
-4.62129
-4.63941
-3.60325
-3.60843
-3.62159
-3.64049
-3.664
-3.6916
-3.72268
-3.75652
-3.79249
-3.83004
-3.86867
-3.90796
-3.94753
-3.98708
-4.02635
-4.06511
-4.1032
-4.14047
-4.17682
-4.21216
-4.24642
-4.27957
-4.31156
-4.3424
-4.37207
-4.40058
-4.42794
-4.45417
-4.47929
-4.50333
-4.52632
-4.54829
-4.56928
-4.58932
-4.60844
-4.62669
-3.58912
-3.59441
-3.60784
-3.62711
-3.65102
-3.67904
-3.71051
-3.74471
-3.781
-3.81881
-3.85766
-3.89711
-3.93681
-3.97645
-4.01578
-4.05458
-4.09269
-4.12997
-4.16632
-4.20165
-4.2359
-4.26903
-4.30103
-4.33186
-4.36154
-4.39006
-4.41745
-4.44371
-4.46887
-4.49296
-4.51601
-4.53805
-4.55912
-4.57926
-4.59848
-4.61685
-3.56883
-3.57437
-3.58841
-3.60848
-3.63331
-3.66231
-3.69476
-3.72989
-3.76705
-3.80565
-3.84521
-3.88529
-3.92553
-3.96565
-4.00538
-4.04453
-4.08294
-4.12047
-4.15704
-4.19255
-4.22697
-4.26025
-4.29237
-4.32332
-4.3531
-4.38172
-4.4092
-4.43555
-4.4608
-4.48498
-4.50812
-4.53026
-4.55142
-4.57165
-4.59097
-4.60945
-3.54317
-3.5491
-3.56407
-3.58539
-3.61163
-3.64212
-3.67607
-3.71265
-3.75117
-3.79102
-3.8317
-3.87279
-3.91393
-3.95483
-3.99526
-4.03501
-4.07394
-4.11193
-4.1489
-4.18476
-4.21948
-4.25302
-4.28538
-4.31653
-4.3465
-4.37528
-4.40291
-4.4294
-4.45477
-4.47907
-4.50232
-4.52457
-4.54583
-4.56616
-4.58557
-4.60415
-3.51272
-3.51916
-3.53542
-3.55844
-3.58659
-3.61908
-3.65502
-3.69352
-3.73383
-3.77532
-3.81749
-3.85991
-3.90224
-3.94419
-3.98553
-4.02609
-4.06573
-4.10434
-4.14184
-4.17817
-4.2133
-4.24721
-4.27987
-4.31131
-4.34151
-4.37052
-4.39833
-4.42499
-4.45052
-4.47496
-4.49833
-4.52069
-4.54206
-4.56249
-4.58199
-4.60067
-3.4779
-3.48502
-3.50296
-3.52817
-3.55873
-3.59371
-3.63212
-3.67297
-3.71546
-3.75894
-3.8029
-3.84693
-3.89068
-3.93388
-3.97633
-4.01785
-4.05834
-4.09769
-4.13583
-4.17273
-4.20835
-4.24268
-4.27572
-4.30749
-4.33798
-4.36723
-4.39527
-4.42212
-4.44782
-4.47241
-4.49592
-4.51839
-4.53986
-4.56039
-4.57998
-4.59873
-3.43901
-3.447
-3.46708
-3.49502
-3.52852
-3.5665
-3.60784
-3.65144
-3.69644
-3.74221
-3.78822
-3.83407
-3.87943
-3.92405
-3.96774
-4.01035
-4.05179
-4.09197
-4.13084
-4.16837
-4.20454
-4.23935
-4.27281
-4.30493
-4.33574
-4.36527
-4.39354
-4.4206
-4.44648
-4.47123
-4.49487
-4.51747
-4.53904
-4.55966
-4.57932
-4.59815
-3.39627
-3.40535
-3.42813
-3.45941
-3.49641
-3.5379
-3.5826
-3.62931
-3.67714
-3.72545
-3.77372
-3.82155
-3.86866
-3.91482
-3.95985
-4.00365
-4.04611
-4.08718
-4.12682
-4.16503
-4.20179
-4.23711
-4.27102
-4.30353
-4.33467
-4.36449
-4.39301
-4.42028
-4.44635
-4.47125
-4.49503
-4.51774
-4.5394
-4.5601
-4.57983
-4.59872
-3.34979
-3.36024
-3.3864
-3.42172
-3.4628
-3.5083
-3.55679
-3.60695
-3.65787
-3.70892
-3.7596
-3.80956
-3.85852
-3.9063
-3.95275
-3.99777
-4.0413
-4.0833
-4.12376
-4.16266
-4.20003
-4.23589
-4.27025
-4.30316
-4.33464
-4.36475
-4.39353
-4.42102
-4.44726
-4.47232
-4.49622
-4.51904
-4.54079
-4.56156
-4.58135
-4.60028
-3.29957
-3.31177
-3.34218
-3.38232
-3.4281
-3.47813
-3.5308
-3.5847
-3.63891
-3.69286
-3.74607
-3.79823
-3.84912
-3.89856
-3.94646
-3.99274
-4.03737
-4.08032
-4.12159
-4.16121
-4.1992
-4.23558
-4.27041
-4.30371
-4.33554
-4.36594
-4.39497
-4.42267
-4.44909
-4.47429
-4.49831
-4.52122
-4.54305
-4.56388
-4.58371
-4.60267
-3.24557
-3.26001
-3.29577
-3.34159
-3.3927
-3.44776
-3.50498
-3.56285
-3.62053
-3.67747
-3.73329
-3.7877
-3.84053
-3.89166
-3.94102
-3.98857
-4.03429
-4.07818
-4.12027
-4.1606
-4.1992
-4.23611
-4.27139
-4.30509
-4.33725
-4.36794
-4.3972
-4.4251
-4.45168
-4.47702
-4.50115
-4.52414
-4.54603
-4.56691
-4.58677
-4.60575
-3.1876
-3.205
-3.2475
-3.29994
-3.35701
-3.41758
-3.47966
-3.54168
-3.60292
-3.66292
-3.72136
-3.77803
-3.83281
-3.88562
-3.93643
-3.98522
-4.03201
-4.07683
-4.11973
-4.16074
-4.19993
-4.23736
-4.27308
-4.30715
-4.33964
-4.3706
-4.40009
-4.42818
-4.45492
-4.48037
-4.5046
-4.52766
-4.5496
-4.57051
-4.59039
-4.60937
-3.12539
-3.14675
-3.19775
-3.2578
-3.3214
-3.38794
-3.45513
-3.52142
-3.58627
-3.64933
-3.71038
-3.76927
-3.82596
-3.88041
-3.93263
-3.98264
-4.03048
-4.07619
-4.11985
-4.16152
-4.20129
-4.2392
-4.27535
-4.30978
-4.34258
-4.37379
-4.4035
-4.43176
-4.45864
-4.48421
-4.50851
-4.53163
-4.55361
-4.57454
-4.59442
-4.6134
-3.05853
-3.08531
-3.14696
-3.21559
-3.28629
-3.35918
-3.43166
-3.50225
-3.57068
-3.63675
-3.70035
-3.7614
-3.81994
-3.87598
-3.92956
-3.98073
-4.02956
-4.07613
-4.12052
-4.16281
-4.20312
-4.2415
-4.27805
-4.31282
-4.34591
-4.37737
-4.40728
-4.43571
-4.46272
-4.48838
-4.51275
-4.53592
-4.55793
-4.57886
-4.59874
-4.61771
-2.98643
-3.02075
-3.09569
-3.1738
-3.25203
-3.33159
-3.40944
-3.48428
-3.5562
-3.62518
-3.69121
-3.75433
-3.81464
-3.87219
-3.92707
-3.97934
-4.02912
-4.07648
-4.12156
-4.16445
-4.20526
-4.24408
-4.28101
-4.31612
-4.34949
-4.38118
-4.41129
-4.43987
-4.467
-4.49275
-4.51719
-4.5404
-4.56243
-4.58337
-4.60324
-4.62218
-2.90833
-2.95325
-3.04459
-3.13288
-3.21894
-3.30538
-3.38857
-3.46749
-3.54275
-3.61449
-3.68283
-3.7479
-3.80988
-3.86886
-3.92497
-3.97829
-4.02896
-4.07708
-4.12281
-4.16625
-4.20755
-4.2468
-4.2841
-4.31953
-4.35318
-4.3851
-4.41541
-4.44414
-4.4714
-4.49724
-4.52174
-4.54499
-4.56703
-4.58797
-4.60783
-4.62675
-2.82322
-2.88308
-2.99436
-3.09323
-3.18721
-3.2806
-3.36898
-3.45176
-3.53015
-3.60447
-3.67498
-3.74187
-3.80543
-3.86577
-3.92307
-3.97739
-4.02892
-4.07776
-4.12412
-4.16808
-4.20987
-4.24953
-4.28721
-4.32296
-4.3569
-4.38906
-4.41957
-4.44847
-4.47586
-4.50179
-4.52636
-4.54964
-4.57171
-4.59264
-4.6125
-4.63139
-2.72983
-2.81066
-2.9457
-3.05506
-3.15678
-3.25709
-3.35044
-3.4368
-3.51809
-3.59483
-3.66738
-3.736
-3.80109
-3.86276
-3.92121
-3.97652
-4.02891
-4.07845
-4.12543
-4.16992
-4.21218
-4.25227
-4.29035
-4.32643
-4.36067
-4.39308
-4.42382
-4.45288
-4.48042
-4.50644
-4.5311
-4.55441
-4.5765
-4.59742
-4.61728
-4.63614
-2.62651
-2.73635
-2.89907
-3.01826
-3.12729
-3.23447
-3.33259
-3.42228
-3.50631
-3.58536
-3.65989
-3.73021
-3.79682
-3.85981
-3.91944
-3.97575
-4.02899
-4.07924
-4.12685
-4.17185
-4.21461
-4.25513
-4.29362
-4.33004
-4.36461
-4.39727
-4.42825
-4.45748
-4.48518
-4.51129
-4.53603
-4.55936
-4.58148
-4.60237
-4.62222
-4.64104
-2.51071
-2.65968
-2.85444
-2.98255
-3.09834
-3.21243
-3.31527
-3.40813
-3.49484
-3.57619
-3.6527
-3.72472
-3.79287
-3.85721
-3.91804
-3.97536
-4.02947
-4.08043
-4.12865
-4.17418
-4.21746
-4.25842
-4.29734
-4.33411
-4.36902
-4.40195
-4.43319
-4.4626
-4.49047
-4.51669
-4.54152
-4.56488
-4.58702
-4.60788
-4.62773
-4.64652
-2.37689
-2.5787
-2.81129
-2.94802
-3.07033
-3.1915
-3.299
-3.39491
-3.48428
-3.56793
-3.64644
-3.72019
-3.78992
-3.85563
-3.91768
-3.97599
-4.03093
-4.08252
-4.13125
-4.17718
-4.22093
-4.26231
-4.30161
-4.33869
-4.3739
-4.40705
-4.43849
-4.46804
-4.49604
-4.52231
-4.54719
-4.57052
-4.59264
-4.6134
-4.6332
-4.65187
-2.21276
-2.49489
-2.77053
-2.91592
-3.04573
-3.17435
-3.28609
-3.38451
-3.47608
-3.5617
-3.64194
-3.71725
-3.78846
-3.85552
-3.91883
-3.97821
-4.03405
-4.08646
-4.13579
-4.18214
-4.22634
-4.26813
-4.30783
-4.34525
-4.38078
-4.41417
-4.44584
-4.47553
-4.50367
-4.52999
-4.55493
-4.57822
-4.60029
-4.62092
-4.64061
-4.65932
-2.0037
-2.42614
-2.73716
-2.88319
-3.0215
-3.15934
-3.27623
-3.37779
-3.47193
-3.55957
-3.64135
-3.71785
-3.79004
-3.85789
-3.92178
-3.98157
-4.03756
-4.09016
-4.13982
-4.18646
-4.23091
-4.2729
-4.31276
-4.35033
-4.38598
-4.41947
-4.45121
-4.48095
-4.5091
-4.53542
-4.56033
-4.58355
-4.60552
-4.62599
-4.6454
-4.66372
-1.74532
-2.40022
-2.74908
-2.87706
-3.01221
-3.15211
-3.2697
-3.37198
-3.46755
-3.55694
-3.6405
-3.71878
-3.7927
-3.86215
-3.92747
-3.98835
-4.04507
-4.09761
-4.14695
-4.19388
-4.23877
-4.28112
-4.3213
-4.35913
-4.39501
-4.42869
-4.46057
-4.49042
-4.51866
-4.54501
-4.56994
-4.59313
-4.61505
-4.63536
-4.65454
-4.67243
-1.4735
-2.31005
-2.73578
-2.8711
-3.01143
-3.15534
-3.27394
-3.37614
-3.47157
-3.56095
-3.64465
-3.72325
-3.7977
-3.86779
-3.93385
-3.99532
-4.05251
-4.10452
-4.1527
-4.19938
-4.24438
-4.28689
-4.32722
-4.36521
-4.40122
-4.435
-4.46697
-4.49687
-4.52514
-4.5515
-4.57643
-4.59957
-4.62146
-4.64163
-4.66069
-4.67816
-5.55262
-5.55268
-5.5527
-5.55267
-5.55259
-5.55244
-5.55221
-5.55189
-5.55144
-5.55086
-5.55015
-5.54934
-5.54848
-5.54764
-5.54689
-5.54633
-5.54601
-5.54602
-5.54637
-5.5471
-5.54818
-5.54961
-5.55135
-5.55339
-5.55567
-5.55815
-5.56079
-5.56354
-5.56638
-5.56926
-5.57216
-5.57505
-5.57791
-5.58071
-5.58345
-5.5861
-5.58866
-5.59112
-5.59348
-5.59572
-5.59785
-5.59987
-5.60178
-5.60357
-5.60524
-5.6068
-5.60826
-5.6096
-5.61084
-5.61198
-5.61302
-5.61397
-5.61482
-5.61559
-5.61628
-5.61689
-5.61743
-5.61789
-5.6183
-5.61865
-5.61894
-5.6192
-5.61942
-5.61961
-5.61977
-5.61993
-5.62008
-5.62023
-5.62039
-5.62057
-5.62078
-5.62102
-5.62131
-5.62165
-5.62205
-5.62252
-5.62306
-5.62369
-5.62441
-5.62524
-5.62617
-5.62723
-5.6284
-5.62971
-5.63117
-5.63276
-5.63451
-5.63641
-5.63848
-5.64071
-5.6431
-5.64567
-5.64841
-5.65133
-5.65442
-5.6577
-5.66116
-5.66482
-5.66866
-5.67271
-5.67697
-5.68144
-5.68612
-5.69103
-5.69616
-5.7015
-5.70705
-5.7128
-5.71874
-5.72483
-5.73107
-5.73749
-5.74404
-5.75059
-5.75698
-5.76311
-5.76901
-5.77468
-5.78018
-5.78659
-5.79583
-5.81026
-5.83046
-5.85244
-5.86941
-5.87449
-5.86312
-5.83986
-5.81458
-5.79828
-5.79694
-5.80985
-5.8348
-5.86874
-5.90889
-5.95274
-5.9983
-6.04405
-6.08893
-6.13218
-6.17333
-6.21208
-6.24831
-6.28196
-6.31306
-6.34166
-6.36784
-6.3917
-6.41334
-6.43284
-6.4503
-6.46581
-6.47945
-6.49128
-6.50138
-6.50981
-6.51661
-6.52183
-6.52552
-6.52771
-6.52844
-6.52775
-6.52565
-6.52218
-6.51736
-6.51123
-6.50377
-6.49499
-6.48491
-6.47355
-6.46093
-6.44706
-6.43196
-6.41563
-6.39809
-6.37935
-6.35941
-6.33829
-6.316
-6.29253
-6.26791
-6.24214
-6.21523
-6.18718
-6.158
-6.12769
-6.09627
-6.06374
-6.03011
-5.99538
-5.95956
-5.92265
-5.88466
-5.84559
-5.80544
-5.76423
-5.72196
-5.67863
-5.63423
-5.58878
-5.54228
-5.49473
-5.44613
-5.39648
-5.34579
-5.29404
-5.24125
-5.1874
-5.1325
-5.07655
-5.01954
-4.96147
-4.90234
-4.84213
-4.78085
-4.71848
-4.65502
-4.59047
-4.5248
-4.45802
-4.39011
-4.32106
-4.25086
-4.17948
-4.10691
-4.03314
-3.95815
-3.88192
-3.80443
-3.72566
-3.64558
-3.56419
-3.48145
-3.39735
-3.31185
-3.22493
-3.13658
-3.04675
-2.95544
-2.8626
-2.76821
-2.67226
-2.5747
-2.47551
-2.37467
-2.27215
-2.16792
-2.06196
-1.95425
-1.84477
-1.7335
-1.62039
-1.50539
-1.3885
-1.2697
-1.14898
-1.02631
-0.901686
-0.77509
-0.646509
-0.515932
-0.38335
-0.248756
-0.112145
0.0264855
0.167135
0.309801
0.454477
0.601156
0.749826
0.900472
1.05308
1.20762
1.36408
1.52243
1.68264
1.84467
2.00848
2.17405
2.34131
2.51023
2.68076
2.85283
3.0264
3.20139
3.37775
3.55541
3.73429
3.91432
4.09542
4.27751
4.4605
4.64431
4.82883
5.01399
5.19968
5.38579
5.57222
5.75888
5.94564
6.13239
6.31902
6.5054
6.69143
6.87701
7.06199
7.24626
7.42969
7.61213
7.79347
7.97357
8.15228
8.32947
8.505
8.67872
8.8505
9.02018
9.18762
9.35267
9.51518
9.675
9.83199
9.98597
10.1368
10.2844
10.4286
10.5693
10.7063
10.8395
10.9688
11.094
11.2149
11.3316
11.4437
11.5515
11.6548
11.7535
11.8474
11.9366
12.0211
12.1009
12.176
12.2463
12.3118
12.3728
12.429
12.4808
12.5279
12.5712
12.6099
12.6454
12.6764
12.7056
12.7301
12.7555
12.7757
12.8022
12.8236
12.8636
12.8992
-5.55264
-5.5527
-5.55274
-5.55275
-5.55274
-5.55269
-5.55258
-5.55237
-5.55204
-5.55156
-5.55094
-5.55021
-5.54942
-5.54866
-5.548
-5.54753
-5.54732
-5.5474
-5.54782
-5.5486
-5.54973
-5.55121
-5.55299
-5.55504
-5.55731
-5.55977
-5.56238
-5.56509
-5.56788
-5.57071
-5.57356
-5.57639
-5.57919
-5.58194
-5.58462
-5.58722
-5.58973
-5.59214
-5.59445
-5.59664
-5.59872
-5.60068
-5.60253
-5.60426
-5.60588
-5.60738
-5.60877
-5.61005
-5.61123
-5.6123
-5.61328
-5.61416
-5.61495
-5.61566
-5.61629
-5.61684
-5.61733
-5.61775
-5.61811
-5.61842
-5.61869
-5.61892
-5.61912
-5.61929
-5.61945
-5.6196
-5.61975
-5.6199
-5.62007
-5.62027
-5.62049
-5.62075
-5.62105
-5.62141
-5.62183
-5.62232
-5.62288
-5.62353
-5.62428
-5.62512
-5.62608
-5.62715
-5.62834
-5.62967
-5.63112
-5.63272
-5.63447
-5.63637
-5.63842
-5.64063
-5.64301
-5.64555
-5.64827
-5.65116
-5.65423
-5.65748
-5.66091
-5.66453
-5.66835
-5.67236
-5.67658
-5.68101
-5.68567
-5.69055
-5.69565
-5.70096
-5.70649
-5.71223
-5.71812
-5.72408
-5.73017
-5.73655
-5.74314
-5.74975
-5.75611
-5.76223
-5.76842
-5.77456
-5.78001
-5.78406
-5.78751
-5.7938
-5.80617
-5.82715
-5.85282
-5.87283
-5.87449
-5.85773
-5.83418
-5.821
-5.8222
-5.83643
-5.86167
-5.89482
-5.9335
-5.97534
-6.0187
-6.06215
-6.10479
-6.14588
-6.18506
-6.22203
-6.25668
-6.28893
-6.31881
-6.34634
-6.37161
-6.39468
-6.41564
-6.43456
-6.45152
-6.4666
-6.47987
-6.49139
-6.50121
-6.5094
-6.516
-6.52104
-6.52458
-6.52664
-6.52725
-6.52645
-6.52425
-6.52068
-6.51576
-6.50949
-6.50192
-6.49309
-6.48298
-6.47162
-6.459
-6.44513
-6.43004
-6.41373
-6.39621
-6.37749
-6.35758
-6.33649
-6.31423
-6.2908
-6.26622
-6.24049
-6.21361
-6.1856
-6.15647
-6.12621
-6.09484
-6.06236
-6.02878
-5.9941
-5.95833
-5.92147
-5.88353
-5.84452
-5.80443
-5.76328
-5.72107
-5.67779
-5.63346
-5.58808
-5.54164
-5.49415
-5.44562
-5.39603
-5.3454
-5.29373
-5.241
-5.18723
-5.13241
-5.07653
-5.0196
-4.9616
-4.90255
-4.84242
-4.78122
-4.71894
-4.65556
-4.5911
-4.52552
-4.45884
-4.39102
-4.32207
-4.25196
-4.18068
-4.10822
-4.03456
-3.95968
-3.88357
-3.8062
-3.72755
-3.64761
-3.56635
-3.48374
-3.39978
-3.31442
-3.22765
-3.13945
-3.04978
-2.95862
-2.86594
-2.77172
-2.67593
-2.57855
-2.47954
-2.37887
-2.27653
-2.17248
-2.06669
-1.95914
-1.84979
-1.73861
-1.62562
-1.5108
-1.3941
-1.2755
-1.15499
-1.03254
-0.908132
-0.781758
-0.653401
-0.523052
-0.3907
-0.256339
-0.119963
0.0184292
0.158839
0.301262
0.445695
0.592128
0.740551
0.890949
1.04331
1.1976
1.35381
1.51191
1.67186
1.83364
1.9972
2.16252
2.32953
2.4982
2.66848
2.84031
3.01363
3.18838
3.3645
3.54192
3.72056
3.90036
4.08123
4.26309
4.44586
4.62945
4.81376
4.99871
5.18419
5.3701
5.55635
5.74281
5.92939
6.11597
6.30242
6.48864
6.67451
6.85994
7.04478
7.22892
7.41222
7.59456
7.7758
7.95581
8.13444
8.31156
8.48703
8.66071
8.83246
9.00213
9.16957
9.33463
9.49717
9.65705
9.81411
9.96816
10.1191
10.2668
10.4113
10.5522
10.6895
10.823
10.9526
11.0782
11.1996
11.3167
11.4293
11.5373
11.6408
11.7397
11.8338
11.923
12.0076
12.0874
12.1626
12.2331
12.2989
12.36
12.4165
12.4686
12.5162
12.5598
12.5989
12.635
12.6664
12.6962
12.7212
12.7473
12.768
12.7953
12.8168
12.8564
12.8877
-5.55302
-5.55307
-5.55311
-5.55316
-5.55319
-5.55321
-5.55317
-5.55304
-5.55279
-5.5524
-5.5519
-5.55134
-5.55078
-5.55029
-5.54996
-5.54985
-5.55001
-5.55047
-5.55125
-5.55233
-5.5537
-5.55535
-5.55722
-5.55931
-5.56157
-5.56397
-5.56647
-5.56906
-5.5717
-5.57437
-5.57704
-5.57969
-5.5823
-5.58486
-5.58736
-5.58978
-5.59212
-5.59436
-5.59651
-5.59856
-5.60049
-5.60232
-5.60405
-5.60566
-5.60715
-5.60854
-5.60983
-5.611
-5.61207
-5.61305
-5.61392
-5.6147
-5.6154
-5.61601
-5.61654
-5.61701
-5.6174
-5.61773
-5.61801
-5.61825
-5.61844
-5.6186
-5.61873
-5.61884
-5.61894
-5.61904
-5.61914
-5.61925
-5.61938
-5.61953
-5.61972
-5.61996
-5.62024
-5.62057
-5.62098
-5.62145
-5.62201
-5.62266
-5.6234
-5.62425
-5.62522
-5.62631
-5.62752
-5.62888
-5.63037
-5.63201
-5.6338
-5.63574
-5.63783
-5.64007
-5.64247
-5.64501
-5.64772
-5.65059
-5.65362
-5.65682
-5.66018
-5.66373
-5.66745
-5.67136
-5.67545
-5.67973
-5.68423
-5.68895
-5.69386
-5.69891
-5.70416
-5.70968
-5.71544
-5.7212
-5.72696
-5.733
-5.73921
-5.74509
-5.74987
-5.75348
-5.75708
-5.76214
-5.76969
-5.77895
-5.78776
-5.7963
-5.80759
-5.82236
-5.84009
-5.85708
-5.86759
-5.86964
-5.86733
-5.86789
-5.87561
-5.8913
-5.91448
-5.94357
-5.97706
-6.01331
-6.05109
-6.08927
-6.1271
-6.16393
-6.19937
-6.23312
-6.265
-6.29491
-6.32281
-6.34868
-6.37255
-6.39445
-6.41442
-6.43252
-6.4488
-6.46332
-6.47612
-6.48725
-6.49676
-6.50469
-6.51108
-6.51596
-6.51937
-6.52134
-6.52189
-6.52105
-6.51884
-6.51528
-6.51039
-6.50418
-6.49666
-6.48786
-6.4778
-6.46648
-6.45391
-6.44012
-6.42509
-6.40886
-6.39142
-6.37279
-6.35297
-6.33197
-6.3098
-6.28647
-6.26199
-6.23636
-6.2096
-6.18169
-6.15267
-6.12252
-6.09126
-6.0589
-6.02543
-5.99087
-5.95522
-5.91848
-5.88067
-5.84178
-5.80181
-5.76079
-5.7187
-5.67555
-5.63134
-5.58609
-5.53978
-5.49243
-5.44402
-5.39457
-5.34408
-5.29254
-5.23996
-5.18632
-5.13164
-5.07591
-5.01912
-4.96128
-4.90237
-4.8424
-4.78135
-4.71923
-4.65602
-4.59171
-4.52631
-4.4598
-4.39216
-4.32339
-4.25347
-4.18238
-4.11012
-4.03666
-3.96199
-3.88608
-3.80893
-3.7305
-3.65078
-3.56975
-3.48738
-3.40366
-3.31855
-3.23203
-3.14409
-3.05468
-2.9638
-2.8714
-2.77747
-2.68197
-2.58488
-2.48618
-2.38583
-2.28381
-2.18009
-2.07464
-1.96744
-1.85847
-1.74768
-1.63506
-1.52061
-1.40428
-1.28606
-1.16593
-1.04387
-0.919859
-0.793886
-0.665935
-0.535996
-0.40406
-0.270118
-0.134166
0.00379962
0.143778
0.285768
0.429764
0.575758
0.72374
0.873695
1.02561
1.17946
1.33522
1.49287
1.65238
1.81371
1.97683
2.1417
2.30827
2.4765
2.64634
2.81773
2.99062
3.16494
3.34063
3.51763
3.69586
3.87524
4.05571
4.23717
4.41954
4.60274
4.78667
4.97124
5.15635
5.34191
5.5278
5.71392
5.90016
6.08642
6.27254
6.45844
6.64402
6.82917
7.01375
7.19765
7.38071
7.56283
7.74386
7.92367
8.10213
8.27909
8.45441
8.62796
8.7996
8.96917
9.13653
9.30153
9.46403
9.62389
9.78094
9.93502
10.086
10.2337
10.3781
10.5191
10.6564
10.79
10.9196
11.0453
11.1668
11.284
11.3969
11.5053
11.6092
11.7086
11.8032
11.8931
11.9783
12.0588
12.1347
12.2059
12.2724
12.3344
12.3917
12.4446
12.493
12.5376
12.5776
12.6147
12.6471
12.678
12.7041
12.7314
12.7531
12.7815
12.8032
12.8409
12.8685
-5.55355
-5.55357
-5.55359
-5.55362
-5.55364
-5.55364
-5.55359
-5.55346
-5.55324
-5.55294
-5.55262
-5.55232
-5.55212
-5.55206
-5.55221
-5.55259
-5.55324
-5.55415
-5.55531
-5.55672
-5.55835
-5.56018
-5.56218
-5.56432
-5.56658
-5.56894
-5.57136
-5.57383
-5.57633
-5.57883
-5.58132
-5.58377
-5.58619
-5.58855
-5.59084
-5.59306
-5.59519
-5.59723
-5.59918
-5.60102
-5.60277
-5.60442
-5.60596
-5.6074
-5.60874
-5.60997
-5.6111
-5.61212
-5.61306
-5.61389
-5.61464
-5.6153
-5.61587
-5.61636
-5.61678
-5.61713
-5.61741
-5.61764
-5.61781
-5.61794
-5.61803
-5.61808
-5.61812
-5.61814
-5.61815
-5.61816
-5.61818
-5.61822
-5.61828