/*--------------------------------*- C++ -*----------------------------------*\
| =========                 |                                                 |
| \\      /  F ield         | OpenFOAM: The Open Source CFD Toolbox           |
|  \\    /   O peration     | Version:  2.4.0                                 |
|   \\  /    A nd           | Web:      www.OpenFOAM.org                      |
|    \\/     M anipulation  |                                                 |
\*---------------------------------------------------------------------------*/
FoamFile
{
    version     2.0;
    format      ascii;
    class       volScalarField;
    location    "350";
    object      k;
}
// * * * * * * * * * * * * * * * * * * * * * * * * * * * * * * * * * * * * * //

dimensions      [0 2 -2 0 0 0 0];

internalField   nonuniform List<scalar> 
10000
(
0.00323197
0.00321536
0.00320077
0.00318796
0.00317669
0.00316679
0.00315808
0.00315042
0.00314371
0.00313783
0.0031327
0.00312826
0.00312447
0.00312131
0.00311883
0.00311716
0.00311665
0.00311827
0.00312631
0.00319039
0.00323197
0.00321536
0.00320077
0.00318796
0.00317669
0.00316679
0.00315808
0.00315042
0.00314371
0.00313782
0.0031327
0.00312825
0.00312446
0.00312129
0.0031188
0.00311709
0.00311648
0.00311767
0.00312201
0.00313502
0.00323197
0.00321536
0.00320077
0.00318796
0.00317669
0.00316679
0.00315808
0.00315042
0.0031437
0.00313782
0.00313269
0.00312825
0.00312444
0.00312126
0.00311873
0.00311694
0.00311613
0.00311669
0.00311911
0.00312344
0.00323197
0.00321536
0.00320077
0.00318796
0.00317669
0.00316679
0.00315808
0.00315042
0.0031437
0.00313782
0.00313268
0.00312823
0.00312442
0.00312122
0.00311864
0.00311674
0.00311566
0.00311559
0.00311657
0.00311814
0.00323197
0.00321536
0.00320077
0.00318796
0.00317669
0.00316679
0.00315808
0.00315042
0.0031437
0.00313781
0.00313267
0.00312822
0.00312439
0.00312116
0.00311852
0.0031165
0.00311517
0.00311457
0.00311464
0.003115
0.00323197
0.00321536
0.00320077
0.00318796
0.00317669
0.00316679
0.00315807
0.00315042
0.0031437
0.00313781
0.00313266
0.00312819
0.00312435
0.00312109
0.00311839
0.00311625
0.00311469
0.00311369
0.00311316
0.00311287
0.00323197
0.00321536
0.00320077
0.00318796
0.00317669
0.00316678
0.00315807
0.00315042
0.00314369
0.0031378
0.00313265
0.00312817
0.00312431
0.00312101
0.00311825
0.00311601
0.00311425
0.00311296
0.00311203
0.00311132
0.00323197
0.00321536
0.00320077
0.00318796
0.00317669
0.00316678
0.00315807
0.00315041
0.00314369
0.00313779
0.00313263
0.00312814
0.00312426
0.00312093
0.00311811
0.00311577
0.00311387
0.00311235
0.00311115
0.00311015
0.00323197
0.00321536
0.00320077
0.00318796
0.00317669
0.00316678
0.00315807
0.00315041
0.00314368
0.00313778
0.00313262
0.00312811
0.00312421
0.00312084
0.00311797
0.00311555
0.00311353
0.00311185
0.00311045
0.00310926
0.00323197
0.00321536
0.00320077
0.00318796
0.00317669
0.00316678
0.00315807
0.00315041
0.00314367
0.00313777
0.0031326
0.00312808
0.00312416
0.00312076
0.00311784
0.00311535
0.00311323
0.00311143
0.0031099
0.00310856
0.00323197
0.00321536
0.00320077
0.00318796
0.00317669
0.00316678
0.00315807
0.0031504
0.00314367
0.00313776
0.00313258
0.00312805
0.0031241
0.00312068
0.00311772
0.00311516
0.00311297
0.00311108
0.00310945
0.00310801
0.00323197
0.00321536
0.00320077
0.00318796
0.00317669
0.00316678
0.00315806
0.0031504
0.00314366
0.00313774
0.00313256
0.00312802
0.00312405
0.0031206
0.0031176
0.003115
0.00311274
0.00311079
0.00310908
0.00310757
0.00323197
0.00321536
0.00320077
0.00318796
0.00317669
0.00316678
0.00315806
0.00315039
0.00314365
0.00313773
0.00313253
0.00312798
0.003124
0.00312052
0.00311749
0.00311485
0.00311255
0.00311054
0.00310877
0.0031072
0.00323197
0.00321536
0.00320077
0.00318796
0.00317669
0.00316678
0.00315806
0.00315039
0.00314364
0.00313772
0.00313251
0.00312795
0.00312395
0.00312045
0.00311739
0.00311472
0.00311238
0.00311032
0.00310852
0.00310691
0.00323197
0.00321536
0.00320077
0.00318796
0.00317669
0.00316678
0.00315806
0.00315038
0.00314364
0.0031377
0.00313249
0.00312792
0.0031239
0.00312039
0.0031173
0.0031146
0.00311223
0.00311014
0.0031083
0.00310666
0.00323197
0.00321536
0.00320077
0.00318796
0.00317669
0.00316677
0.00315805
0.00315038
0.00314363
0.00313769
0.00313247
0.00312788
0.00312386
0.00312032
0.00311722
0.00311449
0.00311209
0.00310998
0.00310812
0.00310645
0.00323197
0.00321536
0.00320077
0.00318796
0.00317669
0.00316677
0.00315805
0.00315037
0.00314362
0.00313767
0.00313245
0.00312785
0.00312381
0.00312026
0.00311714
0.0031144
0.00311198
0.00310985
0.00310796
0.00310627
0.00323197
0.00321536
0.00320077
0.00318796
0.00317669
0.00316677
0.00315805
0.00315037
0.00314361
0.00313766
0.00313243
0.00312782
0.00312377
0.00312021
0.00311707
0.00311431
0.00311187
0.00310973
0.00310782
0.00310611
0.00323197
0.00321536
0.00320077
0.00318796
0.00317669
0.00316677
0.00315804
0.00315036
0.0031436
0.00313765
0.00313241
0.00312779
0.00312373
0.00312016
0.00311701
0.00311423
0.00311178
0.00310962
0.0031077
0.00310598
0.00323197
0.00321536
0.00320077
0.00318796
0.00317668
0.00316677
0.00315804
0.00315036
0.00314359
0.00313763
0.00313239
0.00312777
0.0031237
0.00312011
0.00311695
0.00311416
0.0031117
0.00310953
0.0031076
0.00310586
0.00323197
0.00321536
0.00320077
0.00318796
0.00317668
0.00316677
0.00315804
0.00315035
0.00314358
0.00313762
0.00313237
0.00312774
0.00312366
0.00312007
0.0031169
0.0031141
0.00311163
0.00310944
0.00310751
0.00310576
0.00323197
0.00321536
0.00320077
0.00318796
0.00317668
0.00316677
0.00315803
0.00315035
0.00314357
0.00313761
0.00313235
0.00312772
0.00312363
0.00312003
0.00311685
0.00311404
0.00311156
0.00310937
0.00310742
0.00310568
0.00323197
0.00321536
0.00320077
0.00318796
0.00317668
0.00316676
0.00315803
0.00315034
0.00314357
0.0031376
0.00313233
0.00312769
0.0031236
0.00311999
0.00311681
0.00311399
0.00311151
0.00310931
0.00310735
0.0031056
0.00323197
0.00321536
0.00320077
0.00318796
0.00317668
0.00316676
0.00315803
0.00315033
0.00314356
0.00313758
0.00313232
0.00312767
0.00312358
0.00311996
0.00311677
0.00311395
0.00311145
0.00310925
0.00310729
0.00310553
0.00323197
0.00321536
0.00320077
0.00318796
0.00317668
0.00316676
0.00315802
0.00315033
0.00314355
0.00313757
0.0031323
0.00312765
0.00312355
0.00311993
0.00311673
0.00311391
0.00311141
0.0031092
0.00310723
0.00310547
0.00323197
0.00321536
0.00320077
0.00318796
0.00317668
0.00316676
0.00315802
0.00315033
0.00314354
0.00313756
0.00313229
0.00312763
0.00312353
0.0031199
0.0031167
0.00311387
0.00311137
0.00310915
0.00310719
0.00310542
0.00323197
0.00321536
0.00320077
0.00318796
0.00317668
0.00316676
0.00315802
0.00315032
0.00314354
0.00313755
0.00313227
0.00312762
0.00312351
0.00311988
0.00311667
0.00311384
0.00311133
0.00310911
0.00310714
0.00310537
0.00323198
0.00321536
0.00320078
0.00318796
0.00317668
0.00316676
0.00315802
0.00315032
0.00314353
0.00313754
0.00313226
0.0031276
0.00312349
0.00311985
0.00311664
0.00311381
0.0031113
0.00310908
0.0031071
0.00310533
0.00323198
0.00321536
0.00320078
0.00318796
0.00317668
0.00316675
0.00315801
0.00315031
0.00314352
0.00313753
0.00313225
0.00312759
0.00312347
0.00311983
0.00311662
0.00311378
0.00311127
0.00310904
0.00310707
0.00310529
0.00323198
0.00321536
0.00320078
0.00318796
0.00317668
0.00316675
0.00315801
0.00315031
0.00314352
0.00313753
0.00313224
0.00312757
0.00312345
0.00311981
0.0031166
0.00311376
0.00311124
0.00310902
0.00310704
0.00310526
0.00323198
0.00321536
0.00320078
0.00318796
0.00317668
0.00316675
0.00315801
0.0031503
0.00314351
0.00313752
0.00313223
0.00312756
0.00312344
0.0031198
0.00311658
0.00311373
0.00311122
0.00310899
0.00310701
0.00310523
0.00323198
0.00321536
0.00320078
0.00318796
0.00317668
0.00316675
0.00315801
0.0031503
0.00314351
0.00313751
0.00313222
0.00312755
0.00312343
0.00311978
0.00311656
0.00311372
0.0031112
0.00310897
0.00310698
0.0031052
0.00323198
0.00321536
0.00320078
0.00318796
0.00317668
0.00316675
0.00315801
0.0031503
0.0031435
0.00313751
0.00313221
0.00312754
0.00312342
0.00311977
0.00311655
0.0031137
0.00311118
0.00310895
0.00310696
0.00310518
0.00323198
0.00321536
0.00320078
0.00318796
0.00317668
0.00316675
0.003158
0.0031503
0.0031435
0.0031375
0.00313221
0.00312753
0.00312341
0.00311976
0.00311653
0.00311368
0.00311116
0.00310893
0.00310694
0.00310516
0.00323198
0.00321537
0.00320078
0.00318796
0.00317668
0.00316675
0.003158
0.00315029
0.00314349
0.0031375
0.0031322
0.00312753
0.0031234
0.00311975
0.00311652
0.00311367
0.00311115
0.00310891
0.00310693
0.00310514
0.00323198
0.00321537
0.00320078
0.00318796
0.00317668
0.00316675
0.003158
0.00315029
0.00314349
0.00313749
0.0031322
0.00312752
0.00312339
0.00311974
0.00311651
0.00311366
0.00311113
0.0031089
0.00310691
0.00310512
0.00323198
0.00321537
0.00320078
0.00318796
0.00317668
0.00316675
0.003158
0.00315029
0.00314349
0.00313749
0.00313219
0.00312751
0.00312338
0.00311973
0.0031165
0.00311365
0.00311112
0.00310889
0.0031069
0.00310511
0.00323198
0.00321537
0.00320078
0.00318796
0.00317668
0.00316675
0.003158
0.00315029
0.00314349
0.00313748
0.00313219
0.00312751
0.00312337
0.00311972
0.00311649
0.00311364
0.00311111
0.00310888
0.00310689
0.0031051
0.00323198
0.00321537
0.00320078
0.00318796
0.00317668
0.00316675
0.003158
0.00315028
0.00314348
0.00313748
0.00313218
0.0031275
0.00312337
0.00311971
0.00311649
0.00311363
0.0031111
0.00310887
0.00310688
0.00310509
0.00323198
0.00321537
0.00320078
0.00318796
0.00317668
0.00316675
0.003158
0.00315028
0.00314348
0.00313748
0.00313218
0.0031275
0.00312336
0.00311971
0.00311648
0.00311362
0.0031111
0.00310886
0.00310687
0.00310508
0.00323198
0.00321537
0.00320078
0.00318796
0.00317668
0.00316675
0.003158
0.00315028
0.00314348
0.00313747
0.00313217
0.00312749
0.00312336
0.0031197
0.00311647
0.00311362
0.00311109
0.00310885
0.00310686
0.00310507
0.00323198
0.00321537
0.00320078
0.00318796
0.00317668
0.00316674
0.00315799
0.00315028
0.00314348
0.00313747
0.00313217
0.00312749
0.00312335
0.0031197
0.00311647
0.00311361
0.00311108
0.00310884
0.00310685
0.00310506
0.00323198
0.00321537
0.00320078
0.00318796
0.00317668
0.00316674
0.00315799
0.00315028
0.00314347
0.00313747
0.00313217
0.00312749
0.00312335
0.00311969
0.00311646
0.0031136
0.00311108
0.00310884
0.00310685
0.00310505
0.00323198
0.00321537
0.00320078
0.00318796
0.00317668
0.00316674
0.00315799
0.00315028
0.00314347
0.00313747
0.00313217
0.00312748
0.00312335
0.00311969
0.00311646
0.0031136
0.00311107
0.00310883
0.00310684
0.00310505
0.00323198
0.00321537
0.00320078
0.00318796
0.00317668
0.00316674
0.00315799
0.00315028
0.00314347
0.00313747
0.00313216
0.00312748
0.00312334
0.00311969
0.00311645
0.0031136
0.00311107
0.00310883
0.00310683
0.00310504
0.00323198
0.00321537
0.00320078
0.00318796
0.00317668
0.00316674
0.00315799
0.00315028
0.00314347
0.00313746
0.00313216
0.00312748
0.00312334
0.00311968
0.00311645
0.00311359
0.00311106
0.00310882
0.00310683
0.00310504
0.00323198
0.00321537
0.00320078
0.00318796
0.00317668
0.00316674
0.00315799
0.00315027
0.00314347
0.00313746
0.00313216
0.00312748
0.00312334
0.00311968
0.00311645
0.00311359
0.00311106
0.00310882
0.00310683
0.00310503
0.00323198
0.00321537
0.00320078
0.00318796
0.00317667
0.00316674
0.00315799
0.00315027
0.00314347
0.00313746
0.00313216
0.00312747
0.00312334
0.00311968
0.00311644
0.00311359
0.00311106
0.00310881
0.00310682
0.00310503
0.00323198
0.00321537
0.00320078
0.00318796
0.00317667
0.00316674
0.00315799
0.00315027
0.00314347
0.00313746
0.00313216
0.00312747
0.00312333
0.00311968
0.00311644
0.00311358
0.00311105
0.00310881
0.00310682
0.00310503
0.00323198
0.00321537
0.00320078
0.00318796
0.00317667
0.00316674
0.00315799
0.00315027
0.00314347
0.00313746
0.00313215
0.00312747
0.00312333
0.00311967
0.00311644
0.00311358
0.00311105
0.00310881
0.00310681
0.00310502
0.00323198
0.00321537
0.00320078
0.00318796
0.00317667
0.00316674
0.00315799
0.00315027
0.00314346
0.00313746
0.00313215
0.00312747
0.00312333
0.00311967
0.00311644
0.00311358
0.00311105
0.0031088
0.00310681
0.00310502
0.00323198
0.00321537
0.00320078
0.00318795
0.00317667
0.00316674
0.00315799
0.00315027
0.00314346
0.00313746
0.00313215
0.00312747
0.00312333
0.00311967
0.00311643
0.00311357
0.00311104
0.0031088
0.00310681
0.00310502
0.00323198
0.00321537
0.00320078
0.00318795
0.00317667
0.00316674
0.00315799
0.00315027
0.00314346
0.00313745
0.00313215
0.00312746
0.00312332
0.00311967
0.00311643
0.00311357
0.00311104
0.0031088
0.00310681
0.00310501
0.00323198
0.00321537
0.00320078
0.00318795
0.00317667
0.00316674
0.00315798
0.00315027
0.00314346
0.00313745
0.00313215
0.00312746
0.00312332
0.00311966
0.00311643
0.00311357
0.00311104
0.0031088
0.0031068
0.00310501
0.00323198
0.00321537
0.00320078
0.00318795
0.00317667
0.00316674
0.00315798
0.00315027
0.00314346
0.00313745
0.00313215
0.00312746
0.00312332
0.00311966
0.00311643
0.00311357
0.00311104
0.00310879
0.0031068
0.00310501
0.00323198
0.00321537
0.00320078
0.00318795
0.00317667
0.00316674
0.00315798
0.00315026
0.00314346
0.00313745
0.00313214
0.00312746
0.00312332
0.00311966
0.00311642
0.00311356
0.00311103
0.00310879
0.0031068
0.003105
0.00323198
0.00321536
0.00320078
0.00318795
0.00317667
0.00316673
0.00315798
0.00315026
0.00314346
0.00313745
0.00313214
0.00312746
0.00312332
0.00311966
0.00311642
0.00311356
0.00311103
0.00310879
0.00310679
0.003105
0.00323198
0.00321536
0.00320078
0.00318795
0.00317667
0.00316673
0.00315798
0.00315026
0.00314345
0.00313745
0.00313214
0.00312745
0.00312331
0.00311965
0.00311642
0.00311356
0.00311103
0.00310878
0.00310679
0.003105
0.00323198
0.00321536
0.00320077
0.00318795
0.00317667
0.00316673
0.00315798
0.00315026
0.00314345
0.00313744
0.00313214
0.00312745
0.00312331
0.00311965
0.00311642
0.00311356
0.00311102
0.00310878
0.00310679
0.00310499
0.00323198
0.00321536
0.00320077
0.00318795
0.00317667
0.00316673
0.00315798
0.00315026
0.00314345
0.00313744
0.00313214
0.00312745
0.00312331
0.00311965
0.00311641
0.00311355
0.00311102
0.00310878
0.00310679
0.00310499
0.00323198
0.00321536
0.00320077
0.00318795
0.00317667
0.00316673
0.00315798
0.00315026
0.00314345
0.00313744
0.00313213
0.00312745
0.00312331
0.00311965
0.00311641
0.00311355
0.00311102
0.00310878
0.00310678
0.00310499
0.00323198
0.00321536
0.00320077
0.00318795
0.00317666
0.00316673
0.00315797
0.00315026
0.00314345
0.00313744
0.00313213
0.00312745
0.00312331
0.00311965
0.00311641
0.00311355
0.00311102
0.00310877
0.00310678
0.00310499
0.00323198
0.00321536
0.00320077
0.00318795
0.00317666
0.00316673
0.00315797
0.00315025
0.00314345
0.00313744
0.00313213
0.00312744
0.0031233
0.00311964
0.00311641
0.00311355
0.00311101
0.00310877
0.00310678
0.00310498
0.00323198
0.00321536
0.00320077
0.00318795
0.00317666
0.00316673
0.00315797
0.00315025
0.00314344
0.00313743
0.00313213
0.00312744
0.0031233
0.00311964
0.0031164
0.00311354
0.00311101
0.00310877
0.00310677
0.00310498
0.00323198
0.00321536
0.00320077
0.00318795
0.00317666
0.00316673
0.00315797
0.00315025
0.00314344
0.00313743
0.00313213
0.00312744
0.0031233
0.00311964
0.0031164
0.00311354
0.00311101
0.00310877
0.00310677
0.00310498
0.00323198
0.00321536
0.00320077
0.00318794
0.00317666
0.00316672
0.00315797
0.00315025
0.00314344
0.00313743
0.00313212
0.00312744
0.0031233
0.00311964
0.0031164
0.00311354
0.00311101
0.00310876
0.00310677
0.00310497
0.00323197
0.00321536
0.00320077
0.00318794
0.00317666
0.00316672
0.00315797
0.00315025
0.00314344
0.00313743
0.00313212
0.00312744
0.00312329
0.00311963
0.0031164
0.00311354
0.003111
0.00310876
0.00310677
0.00310497
0.00323197
0.00321536
0.00320077
0.00318794
0.00317666
0.00316672
0.00315797
0.00315025
0.00314344
0.00313743
0.00313212
0.00312743
0.00312329
0.00311963
0.0031164
0.00311353
0.003111
0.00310876
0.00310676
0.00310497
0.00323197
0.00321536
0.00320077
0.00318794
0.00317666
0.00316672
0.00315797
0.00315025
0.00314344
0.00313743
0.00313212
0.00312743
0.00312329
0.00311963
0.00311639
0.00311353
0.003111
0.00310876
0.00310676
0.00310497
0.00323197
0.00321536
0.00320077
0.00318794
0.00317666
0.00316672
0.00315796
0.00315024
0.00314343
0.00313742
0.00313212
0.00312743
0.00312329
0.00311963
0.00311639
0.00311353
0.003111
0.00310875
0.00310676
0.00310496
0.00323197
0.00321536
0.00320077
0.00318794
0.00317666
0.00316672
0.00315796
0.00315024
0.00314343
0.00313742
0.00313212
0.00312743
0.00312329
0.00311963
0.00311639
0.00311353
0.00311099
0.00310875
0.00310676
0.00310496
0.00323197
0.00321536
0.00320077
0.00318794
0.00317665
0.00316672
0.00315796
0.00315024
0.00314343
0.00313742
0.00313211
0.00312743
0.00312328
0.00311962
0.00311639
0.00311352
0.00311099
0.00310875
0.00310675
0.00310496
0.00323197
0.00321536
0.00320077
0.00318794
0.00317665
0.00316672
0.00315796
0.00315024
0.00314343
0.00313742
0.00313211
0.00312742
0.00312328
0.00311962
0.00311638
0.00311352
0.00311099
0.00310875
0.00310675
0.00310496
0.00323197
0.00321536
0.00320076
0.00318794
0.00317665
0.00316672
0.00315796
0.00315024
0.00314343
0.00313742
0.00313211
0.00312742
0.00312328
0.00311962
0.00311638
0.00311352
0.00311099
0.00310874
0.00310675
0.00310495
0.00323197
0.00321536
0.00320076
0.00318794
0.00317665
0.00316671
0.00315796
0.00315024
0.00314343
0.00313742
0.00313211
0.00312742
0.00312328
0.00311962
0.00311638
0.00311352
0.00311099
0.00310874
0.00310675
0.00310495
0.00323197
0.00321536
0.00320076
0.00318794
0.00317665
0.00316671
0.00315796
0.00315024
0.00314343
0.00313742
0.00313211
0.00312742
0.00312328
0.00311962
0.00311638
0.00311352
0.00311098
0.00310874
0.00310674
0.00310495
0.00323197
0.00321536
0.00320076
0.00318794
0.00317665
0.00316671
0.00315796
0.00315024
0.00314343
0.00313741
0.00313211
0.00312742
0.00312328
0.00311961
0.00311638
0.00311351
0.00311098
0.00310874
0.00310674
0.00310495
0.00323197
0.00321535
0.00320076
0.00318794
0.00317665
0.00316671
0.00315796
0.00315023
0.00314342
0.00313741
0.00313211
0.00312742
0.00312327
0.00311961
0.00311638
0.00311351
0.00311098
0.00310874
0.00310674
0.00310495
0.00323197
0.00321535
0.00320076
0.00318793
0.00317665
0.00316671
0.00315795
0.00315023
0.00314342
0.00313741
0.0031321
0.00312742
0.00312327
0.00311961
0.00311637
0.00311351
0.00311098
0.00310873
0.00310674
0.00310494
0.00323197
0.00321535
0.00320076
0.00318793
0.00317665
0.00316671
0.00315795
0.00315023
0.00314342
0.00313741
0.0031321
0.00312741
0.00312327
0.00311961
0.00311637
0.00311351
0.00311098
0.00310873
0.00310674
0.00310494
0.00323197
0.00321535
0.00320076
0.00318793
0.00317665
0.00316671
0.00315795
0.00315023
0.00314342
0.00313741
0.0031321
0.00312741
0.00312327
0.00311961
0.00311637
0.00311351
0.00311098
0.00310873
0.00310674
0.00310494
0.00323197
0.00321535
0.00320076
0.00318793
0.00317665
0.00316671
0.00315795
0.00315023
0.00314342
0.00313741
0.0031321
0.00312741
0.00312327
0.00311961
0.00311637
0.00311351
0.00311097
0.00310873
0.00310673
0.00310494
0.00323197
0.00321535
0.00320076
0.00318793
0.00317665
0.00316671
0.00315795
0.00315023
0.00314342
0.00313741
0.0031321
0.00312741
0.00312327
0.00311961
0.00311637
0.00311351
0.00311097
0.00310873
0.00310673
0.00310494
0.00323197
0.00321535
0.00320076
0.00318793
0.00317665
0.00316671
0.00315795
0.00315023
0.00314342
0.00313741
0.0031321
0.00312741
0.00312327
0.0031196
0.00311637
0.0031135
0.00311097
0.00310873
0.00310673
0.00310494
0.00323197
0.00321535
0.00320076
0.00318793
0.00317665
0.00316671
0.00315795
0.00315023
0.00314342
0.00313741
0.0031321
0.00312741
0.00312327
0.0031196
0.00311637
0.0031135
0.00311097
0.00310873
0.00310673
0.00310493
0.00323197
0.00321535
0.00320076
0.00318793
0.00317665
0.00316671
0.00315795
0.00315023
0.00314342
0.0031374
0.0031321
0.00312741
0.00312326
0.0031196
0.00311636
0.0031135
0.00311097
0.00310872
0.00310673
0.00310493
0.00323197
0.00321535
0.00320076
0.00318793
0.00317664
0.00316671
0.00315795
0.00315023
0.00314342
0.0031374
0.0031321
0.00312741
0.00312326
0.0031196
0.00311636
0.0031135
0.00311097
0.00310872
0.00310673
0.00310493
0.00323197
0.00321535
0.00320076
0.00318793
0.00317664
0.00316671
0.00315795
0.00315023
0.00314342
0.0031374
0.00313209
0.00312741
0.00312326
0.0031196
0.00311636
0.0031135
0.00311097
0.00310872
0.00310673
0.00310493
0.00323197
0.00321535
0.00320076
0.00318793
0.00317664
0.00316671
0.00315795
0.00315023
0.00314341
0.0031374
0.00313209
0.00312741
0.00312326
0.0031196
0.00311636
0.0031135
0.00311097
0.00310872
0.00310673
0.00310493
0.00323197
0.00321535
0.00320076
0.00318793
0.00317664
0.0031667
0.00315795
0.00315023
0.00314341
0.0031374
0.00313209
0.0031274
0.00312326
0.0031196
0.00311636
0.0031135
0.00311096
0.00310872
0.00310672
0.00310493
0.00323197
0.00321535
0.00320076
0.00318793
0.00317664
0.0031667
0.00315795
0.00315023
0.00314341
0.0031374
0.00313209
0.0031274
0.00312326
0.0031196
0.00311636
0.0031135
0.00311096
0.00310872
0.00310672
0.00310493
0.00323197
0.00321535
0.00320076
0.00318793
0.00317664
0.0031667
0.00315795
0.00315023
0.00314341
0.0031374
0.00313209
0.0031274
0.00312326
0.0031196
0.00311636
0.0031135
0.00311096
0.00310872
0.00310672
0.00310493
0.00323197
0.00321535
0.00320076
0.00318793
0.00317664
0.0031667
0.00315795
0.00315022
0.00314341
0.0031374
0.00313209
0.0031274
0.00312326
0.0031196
0.00311636
0.0031135
0.00311096
0.00310872
0.00310672
0.00310493
0.00323197
0.00321535
0.00320076
0.00318793
0.00317664
0.0031667
0.00315795
0.00315022
0.00314341
0.0031374
0.00313209
0.0031274
0.00312326
0.0031196
0.00311636
0.0031135
0.00311096
0.00310872
0.00310672
0.00310493
0.00323197
0.00321535
0.00320076
0.00318793
0.00317664
0.0031667
0.00315795
0.00315022
0.00314341
0.0031374
0.00313209
0.0031274
0.00312326
0.0031196
0.00311636
0.0031135
0.00311096
0.00310872
0.00310672
0.00310493
0.00323197
0.00321535
0.00320076
0.00318793
0.00317664
0.0031667
0.00315795
0.00315022
0.00314341
0.0031374
0.00313209
0.0031274
0.00312326
0.0031196
0.00311636
0.0031135
0.00311096
0.00310872
0.00310672
0.00310493
0.00323197
0.00321535
0.00320076
0.00318793
0.00317664
0.0031667
0.00315795
0.00315022
0.00314341
0.0031374
0.00313209
0.0031274
0.00312326
0.0031196
0.00311636
0.0031135
0.00311096
0.00310872
0.00310672
0.00310493
0.00323197
0.00321535
0.00320076
0.00318793
0.00317664
0.0031667
0.00315795
0.00315022
0.00314341
0.0031374
0.00313209
0.0031274
0.00312326
0.0031196
0.00311636
0.0031135
0.00311096
0.00310872
0.00310672
0.00310493
0.00323197
0.00321535
0.00320076
0.00318793
0.00317664
0.0031667
0.00315795
0.00315023
0.00314341
0.0031374
0.00313209
0.0031274
0.00312326
0.0031196
0.00311636
0.0031135
0.00311096
0.00310872
0.00310672
0.00310493
0.00323197
0.00321535
0.00320076
0.00318793
0.00317664
0.0031667
0.00315795
0.00315023
0.00314342
0.0031374
0.0031321
0.00312741
0.00312326
0.0031196
0.00311636
0.0031135
0.00311097
0.00310872
0.00310673
0.00310493
0.00525889
0.0076463
0.0101494
0.0126384
0.0150041
0.0171641
0.0190641
0.0206758
0.021993
0.0230262
0.0237973
0.024335
0.024671
0.024837
0.0248629
0.0247759
0.0245996
0.0243541
0.0240561
0.0237193
0.0233546
0.0229706
0.0225742
0.0221706
0.0217639
0.0213574
0.0209535
0.0205543
0.0201614
0.0197762
0.0194
0.0190338
0.0186788
0.0183358
0.0180058
0.0176896
0.0173879
0.0171014
0.0168305
0.0165757
0.0163372
0.016115
0.0159089
0.0157187
0.015544
0.0153841
0.0152382
0.0151055
0.0149848
0.0148748
0.0147743
0.0146817
0.0145958
0.0145153
0.0144388
0.0143654
0.0142941
0.0142242
0.014155
0.0140862
0.0140174
0.0139484
0.013879
0.0138093
0.0137391
0.0136686
0.0135978
0.0135268
0.0134558
0.0133849
0.0133142
0.0132441
0.0131749
0.0131068
0.0130406
0.0129764
0.0129165
0.0128569
0.0128153
0.0127241
0.00322062
0.00335274
0.00352364
0.0037284
0.00395982
0.00420879
0.00446574
0.00472184
0.00496977
0.00520403
0.00542098
0.00561865
0.00579651
0.00595514
0.00609594
0.00622092
0.00633244
0.00643303
0.0065253
0.00661182
0.00669506
0.00677732
0.00686076
0.00694733
0.00703881
0.00713676
0.00724259
0.00735747
0.0074824
0.00761815
0.00776523
0.00792391
0.00809414
0.00827555
0.00846743
0.00866871
0.00887795
0.00909341
0.00931312
0.00953494
0.00975667
0.00997619
0.0101915
0.0104008
0.0106026
0.0107952
0.0109776
0.0111483
0.0113062
0.0114503
0.0115798
0.011694
0.0117926
0.0118759
0.0119442
0.0119982
0.0120389
0.0120674
0.0120849
0.0120925
0.0120915
0.012083
0.012068
0.0120475
0.0120224
0.0119934
0.0119612
0.0119262
0.0118891
0.0118502
0.0118101
0.011769
0.0117275
0.0116862
0.0116457
0.0116069
0.0115709
0.0115391
0.0115131
0.011483
0.00313325
0.00314666
0.00316246
0.00317968
0.00319735
0.00321449
0.00323011
0.00324325
0.00325306
0.00325883
0.0032601
0.00325665
0.00324855
0.00323614
0.00322
0.00320096
0.00317998
0.00315815
0.00313666
0.00311671
0.00309955
0.0030864
0.00307847
0.00307698
0.00308313
0.0030981
0.00312314
0.00315949
0.00320845
0.00327138
0.00334972
0.00344496
0.00355866
0.00369239
0.00384771
0.0040261
0.00422881
0.00445679
0.0047105
0.00498975
0.0052935
0.00561977
0.00596551
0.00632667
0.00669828
0.00707476
0.00745023
0.00781897
0.00817577
0.00851623
0.00883692
0.00913543
0.00941028
0.00966076
0.00988684
0.010089
0.010268
0.0104251
0.0105618
0.0106796
0.0107801
0.0108652
0.0109363
0.0109951
0.0110429
0.0110812
0.0111111
0.0111336
0.0111498
0.0111604
0.0111662
0.0111681
0.0111665
0.0111625
0.0111568
0.0111507
0.0111452
0.0111431
0.0111434
0.0111558
0.00312018
0.0031223
0.00312431
0.00312592
0.00312682
0.00312667
0.00312514
0.00312188
0.00311657
0.00310891
0.00309861
0.00308543
0.00306919
0.00304978
0.00302715
0.00300136
0.00297253
0.00294088
0.00290674
0.0028705
0.00283262
0.00279366
0.00275421
0.00271494
0.00267656
0.00263983
0.00260553
0.00257452
0.00254769
0.00252596
0.00251035
0.00250193
0.00250185
0.00251138
0.00253193
0.00256501
0.00261232
0.00267572
0.00275722
0.00285898
0.00298324
0.00313222
0.00330797
0.00351221
0.00374605
0.00400975
0.00430245
0.00462193
0.00496459
0.00532546
0.00569848
0.00607693
0.00645398
0.0068232
0.00717907
0.00751724
0.00783463
0.00812937
0.00840062
0.00864834
0.00887312
0.00907595
0.00925812
0.00942106
0.0095663
0.00969538
0.0098098
0.00991098
0.0100002
0.0100788
0.0101479
0.0102085
0.0102618
0.0103087
0.0103505
0.0103885
0.0104243
0.0104609
0.0104985
0.0105511
0.00311533
0.00311537
0.00311506
0.00311433
0.0031131
0.00311123
0.00310858
0.00310501
0.00310038
0.00309454
0.00308735
0.00307866
0.00306835
0.00305629
0.00304238
0.00302652
0.00300866
0.00298875
0.00296679
0.0029428
0.00291685
0.00288904
0.00285951
0.00282845
0.00279606
0.00276261
0.00272841
0.0026938
0.00265916
0.00262491
0.00259152
0.00255951
0.00252943
0.00250191
0.00247762
0.0024573
0.0024418
0.00243203
0.00242906
0.00243407
0.0024484
0.00247359
0.00251136
0.00256367
0.00263264
0.00272059
0.00282991
0.00296295
0.00312184
0.00330824
0.00352303
0.00376608
0.00403598
0.00432993
0.00464382
0.0049724
0.00530975
0.00564971
0.00598647
0.00631491
0.00663089
0.00693138
0.00721439
0.00747883
0.00772433
0.00795108
0.00815965
0.00835087
0.00852573
0.00868532
0.00883078
0.00896325
0.00908391
0.009194
0.00929489
0.0093882
0.00947569
0.00956063
0.00964475
0.0097418
0.00311253
0.00311195
0.00311109
0.0031099
0.00310834
0.00310636
0.0031039
0.00310089
0.00309724
0.0030929
0.00308778
0.00308181
0.00307489
0.00306696
0.00305794
0.00304776
0.00303634
0.00302364
0.00300959
0.00299415
0.00297731
0.00295903
0.00293932
0.00291821
0.00289573
0.00287194
0.00284692
0.00282078
0.00279365
0.00276568
0.00273705
0.00270798
0.0026787
0.00264948
0.00262062
0.00259244
0.00256533
0.00253969
0.00251598
0.00249472
0.00247649
0.00246195
0.00245186
0.00244708
0.00244863
0.00245767
0.00247557
0.00250388
0.00254437
0.00259902
0.00266998
0.00275948
0.00286972
0.00300269
0.00315995
0.00334237
0.0035499
0.0037814
0.00403454
0.00430592
0.00459127
0.00488575
0.00518441
0.00548255
0.00577599
0.00606129
0.00633582
0.00659772
0.0068458
0.00707944
0.00729849
0.00750314
0.00769388
0.00787146
0.00803694
0.00819175
0.00833767
0.00847783
0.008615
0.00876142
0.0031106
0.00310973
0.00310866
0.00310735
0.00310577
0.00310389
0.00310168
0.0030991
0.0030961
0.00309264
0.00308868
0.00308417
0.00307905
0.00307328
0.00306681
0.00305959
0.00305156
0.00304267
0.00303289
0.00302216
0.00301045
0.00299772
0.00298394
0.00296909
0.00295316
0.00293614
0.00291805
0.00289889
0.00287871
0.00285754
0.00283546
0.00281253
0.00278886
0.00276456
0.00273975
0.0027146
0.00268927
0.00266395
0.00263887
0.00261426
0.0025904
0.00256759
0.00254616
0.0025265
0.00250903
0.00249427
0.00248277
0.00247521
0.00247236
0.00247514
0.00248463
0.00250206
0.00252887
0.0025667
0.00261734
0.00268271
0.00276479
0.00286545
0.00298632
0.0031286
0.00329285
0.00347882
0.00368532
0.00391029
0.0041508
0.00440334
0.00466405
0.00492901
0.00519453
0.0054573
0.0057146
0.00596427
0.00620477
0.00643515
0.00665509
0.00686492
0.00706562
0.00725959
0.0074497
0.00764601
0.00310918
0.00310811
0.00310692
0.00310555
0.00310399
0.0031022
0.00310018
0.00309789
0.0030953
0.00309238
0.00308911
0.00308545
0.00308137
0.00307683
0.0030718
0.00306624
0.00306013
0.0030534
0.00304604
0.00303801
0.00302927
0.00301978
0.00300952
0.00299845
0.00298656
0.00297381
0.0029602
0.00294571
0.00293034
0.00291409
0.00289698
0.00287904
0.00286028
0.00284076
0.00282053
0.00279965
0.00277822
0.00275631
0.00273405
0.00271156
0.00268896
0.00266643
0.00264413
0.00262225
0.00260102
0.00258067
0.00256147
0.00254374
0.00252781
0.00251409
0.00250305
0.00249523
0.00249127
0.00249194
0.0024981
0.0025108
0.00253123
0.00256074
0.00260085
0.0026532
0.00271948
0.00280136
0.00290035
0.00301767
0.00315408
0.00330973
0.00348407
0.00367581
0.00388293
0.00410287
0.00433264
0.00456913
0.00480928
0.00505035
0.00529013
0.00552712
0.0057607
0.0059917
0.00622199
0.00645863
0.0031081
0.00310688
0.00310557
0.00310415
0.00310258
0.00310086
0.00309895
0.00309684
0.00309451
0.00309194
0.0030891
0.00308598
0.00308254
0.00307876
0.00307462
0.00307009
0.00306514
0.00305974
0.00305386
0.00304748
0.00304057
0.00303309
0.00302503
0.00301634
0.00300701
0.00299701
0.00298632
0.00297493
0.0029628
0.00294994
0.00293634
0.00292198
0.00290689
0.00289107
0.00287453
0.00285731
0.00283944
0.00282096
0.00280193
0.0027824
0.00276246
0.00274219
0.00272167
0.00270103
0.00268039
0.00265986
0.00263961
0.0026198
0.00260062