/*--------------------------------*- C++ -*----------------------------------*\
| =========                 |                                                 |
| \\      /  F ield         | OpenFOAM: The Open Source CFD Toolbox           |
|  \\    /   O peration     | Version:  2.4.0                                 |
|   \\  /    A nd           | Web:      www.OpenFOAM.org                      |
|    \\/     M anipulation  |                                                 |
\*---------------------------------------------------------------------------*/
FoamFile
{
    version     2.0;
    format      ascii;
    class       volScalarField;
    location    "4.01";
    object      k;
}
// * * * * * * * * * * * * * * * * * * * * * * * * * * * * * * * * * * * * * //

dimensions      [0 2 -2 0 0 0 0];

internalField   nonuniform List<scalar> 
6000
(
0.168225
0.0132692
0.000979505
0.00362084
0.002506
0.00292752
0.00242419
0.00239508
0.00213064
0.00205768
0.00192557
0.00188936
0.00185693
0.0018894
0.00194942
0.00205508
0.00218584
0.0023464
0.002532
0.00275238
0.00301483
0.00332945
0.00370063
0.00412874
0.00460832
0.00513034
0.00568263
0.00625147
0.00682179
0.00737752
0.00790124
0.00837395
0.00877486
0.00908129
0.00926724
0.00930609
0.00917204
0.00884087
0.00829588
0.00753257
0.00657534
0.00548644
0.00435682
0.00459375
0.00623683
0.00831532
0.0108205
0.0137884
0.0170573
0.0207651
0.0244765
0.0288609
0.0326495
0.0382727
0.0416045
0.0506655
0.0519441
0.0708527
0.0657367
0.108779
0.076205
0.0101503
0.000945201
0.00240489
0.00171431
0.00192297
0.00161014
0.00157162
0.0014051
0.00135022
0.00126628
0.00123934
0.00121835
0.00123663
0.00127346
0.00133793
0.00141861
0.00151772
0.0016331
0.00177031
0.00193366
0.00212841
0.00235626
0.00261634
0.00290458
0.00321524
0.00354143
0.00387606
0.00421204
0.00454244
0.00486037
0.00515875
0.00543034
0.00566754
0.00586114
0.00600296
0.00608528
0.00610195
0.00605081
0.00593602
0.00577477
0.00559846
0.00542262
0.00562367
0.0062504
0.00702013
0.00795861
0.00909287
0.0103696
0.0118464
0.0133662
0.0151845
0.0168388
0.0192418
0.0208791
0.0247582
0.025857
0.0337975
0.0328568
0.0504068
0.0412218
0.00802957
0.000973846
0.00168789
0.00122357
0.00131362
0.00110843
0.0010689
0.000960224
0.000919615
0.000866285
0.000849051
0.000839233
0.000855491
0.000886394
0.0009368
0.00100064
0.00107947
0.00117309
0.00128565
0.00142073
0.00158195
0.00177049
0.00198545
0.00222384
0.00248157
0.00275412
0.00303715
0.00332678
0.00361972
0.00391327
0.00420521
0.00449391
0.00477816
0.00505559
0.00532527
0.00558764
0.00584448
0.0061001
0.0063618
0.00664094
0.00694713
0.00723611
0.00745492
0.00765794
0.00782378
0.00800659
0.00824626
0.00854808
0.00894858
0.0094046
0.0100165
0.0106252
0.0115708
0.0123068
0.0139637
0.0146804
0.0181312
0.0183365
0.0258084
0.0260623
0.00677398
0.00107108
0.00126674
0.000916398
0.000934837
0.000790873
0.00075282
0.000679289
0.000649734
0.000616892
0.000608948
0.000609767
0.000630193
0.000664192
0.000714796
0.000779299
0.000859472
0.000956659
0.00107487
0.00121793
0.00138931
0.00159046
0.00182088
0.00207823
0.00235917
0.00266002
0.00297737
0.00330838
0.00365096
0.00400381
0.0043664
0.00473902
0.00512235
0.00551416
0.00591632
0.00633097
0.0067608
0.00720952
0.00768125
0.00817946
0.00869837
0.00916252
0.0094275
0.00953184
0.00949717
0.00937448
0.00920472
0.00901976
0.00885547
0.00872286
0.00867088
0.00866459
0.00882808
0.00898777
0.00954859
0.00986587
0.0112914
0.011639
0.0148571
0.0187963
0.00609205
0.00123244
0.00103251
0.000726925
0.000696626
0.000586531
0.000549905
0.000498099
0.00047711
0.000458785
0.000459679
0.000470877
0.000499073
0.000541549
0.000600753
0.000676258
0.000770408
0.000885821
0.00102693
0.00119821
0.00140356
0.00164495
0.0019222
0.00223319
0.00257459
0.0029426
0.00333358
0.00374449
0.00417305
0.0046178
0.00507806
0.005554
0.00604407
0.0065449
0.0070586
0.007586
0.00812784
0.00868518
0.00925856
0.00984724
0.0104389
0.0109513
0.0112622
0.0113864
0.0113337
0.0111399
0.010835
0.010452
0.010022
0.00957655
0.00914882
0.00875732
0.00844987
0.00820142
0.00813897
0.00808999
0.00849495
0.0086547
0.00997028
0.0150489
0.00576623
0.00144842
0.00092515
0.000617238
0.000548022
0.000454687
0.00041831
0.000379953
0.000365641
0.000358257
0.000367712
0.000389353
0.000427735
0.000482297
0.000555534
0.000648633
0.00076459
0.000907003
0.00108086
0.0012913
0.00154274
0.00183754
0.00217558
0.0025545
0.0029704
0.00341872
0.00389497
0.00439523
0.00491635
0.00545597
0.00601246
0.00658511
0.00716702
0.00775685
0.00835496
0.00896044
0.0095721
0.0101891
0.01081
0.0114333
0.0120426
0.0125624
0.0129061
0.0130676
0.0130436
0.0128589
0.0125342
0.0120976
0.0115722
0.0109921
0.0103804
0.00977437
0.00919345
0.00867097
0.00823081
0.00788117
0.00771657
0.00760623
0.00801674
0.0130162
0.00565588
0.00170779
0.000910053
0.000565439
0.000459439
0.0003713
0.000333456
0.000303171
0.000294075
0.000295449
0.000313359
0.000345723
0.000396056
0.000465268
0.000556167
0.000671057
0.000813462
0.000987615
0.00119892
0.00145305
0.00175482
0.00210679
0.00250873
0.00295774
0.00344911
0.00397729
0.00453673
0.00512243
0.00573014
0.00635641
0.00699844
0.0076532
0.00831136
0.00897241
0.00963513
0.0102972
0.010956
0.0116096
0.0122557
0.012893
0.0134997
0.0140153
0.0143767
0.0145635
0.0145649
0.0143992
0.014082
0.0136384
0.0130864
0.0124593
0.0117728
0.0110685
0.0103512
0.00967393
0.00901964
0.00846102
0.00796758
0.00761222
0.00756173
0.0118779
0.00567209
0.00199839
0.000965653
0.000559374
0.000413513
0.000321897
0.000280547
0.000254592
0.000249517
0.000258258
0.000284609
0.00032805
0.000391633
0.000477274
0.000588123
0.000727178
0.000898248
0.00110586
0.0013557
0.00165384
0.00200545
0.00241331
0.00287698
0.00339302
0.00395589
0.00455897
0.00519563
0.00585972
0.0065459
0.0072496
0.00796691
0.00869142
0.0094142
0.0101343
0.0108492
0.0115555
0.0122496
0.0129286
0.0135901
0.0142323
0.0148281
0.0153347
0.0157004
0.0158965
0.0159091
0.0157523
0.0154393
0.0149938
0.0144315
0.0137857
0.0130685
0.0123229
0.0115457
0.0107959
0.0100368
0.00936077
0.0086899
0.00816133
0.00786196
0.0112303
0.00575862
0.00230757
0.00107797
0.000591286
0.000400178
0.000297726
0.000250537
0.00022606
0.000223938
0.000239076
0.000273852
0.000328673
0.000406386
0.000509552
0.000641558
0.000805717
0.00100589
0.00124669
0.00153403
0.00187441
0.00227348
0.00273422
0.00325607
0.00383505
0.00446475
0.0051375
0.00584555
0.00658161
0.00733925
0.00811283
0.00889757
0.00968259
0.0104617
0.0112326
0.0119914
0.0127339
0.0134557
0.0141536
0.0148246
0.0154649
0.0160461
0.0165396
0.0168984
0.01709
0.0171
0.01694
0.0166214
0.0161676
0.0155936
0.014933
0.0141967
0.0134293
0.0126239
0.0118423
0.0110382
0.0103098
0.00955616
0.00893155
0.00849301
0.0108621
0.00588003
0.00262284
0.00123596
0.000656387
0.000413968
0.000293603
0.000237897
0.000212469
0.000212243
0.000232985
0.000276095
0.000342461
0.000434796
0.000556003
0.000709536
0.00089874
0.00112739
0.00140012
0.00172315
0.00210352
0.00254739
0.00305803
0.00363474
0.00427295
0.00496539
0.00570331
0.00647785
0.00728058
0.00810402
0.00894146
0.00978651
0.010626
0.0114552
0.0122703
0.0130668
0.0138395
0.0145834
0.0152949
0.0159709
0.0166023
0.0171669
0.0176427
0.0179857
0.0181621
0.0181584
0.0179848
0.0176517
0.0171824
0.0165915
0.0159134
0.0151585
0.0143732
0.0135491
0.0127506
0.0119271
0.0111804
0.0103951
0.00973165
0.00921245
0.010657
0.0060145
0.00293276
0.00142947
0.000751296
0.000452185
0.000306688
0.000239341
0.000210651
0.000211181
0.000236755
0.000287976
0.000365876
0.000472988
0.000612308
0.000787196
0.00100085
0.00125691
0.0015601
0.00191704
0.00233535
0.00282176
0.00337979
0.00400853
0.00470283
0.00545453
0.00625377
0.00709063
0.00795555
0.00884004
0.00973639
0.0106359
0.0115248
0.0123987
0.0132528
0.0140817
0.0148794
0.0156404
0.0163609
0.0170362
0.0176538
0.018199
0.0186525
0.0189721
0.019125
0.0190993
0.0189043
0.0185499
0.0180594
0.0174472
0.0167483
0.0159731
0.0151692
0.0143282
0.0135164
0.0126822
0.01193
0.0111364
0.0104666
0.0098969
0.0105488
0.00614914
0.00322777
0.00164839
0.000873615
0.000512935
0.000335769
0.00025309
0.000218729
0.000218711
0.000248266
0.000307215
0.000396457
0.000518252
0.000675477
0.000871279
0.00110862
0.00139104
0.00172339
0.00211275
0.00256737
0.00309446
0.00369775
0.00437608
0.00512369
0.00593152
0.00678865
0.00768409
0.00860719
0.00954851
0.0104995
0.0114481
0.012382
0.0132959
0.0141842
0.0150405
0.0158585
0.016632
0.017357
0.0180248
0.0186253
0.0191477
0.0195744
0.0198644
0.0199873
0.0199333
0.019711
0.0193305
0.0188148
0.0181783
0.0174564
0.0166595
0.0158363
0.0149784
0.0141538
0.0133109
0.0125567
0.0117634
0.0111019
0.0104967
0.0104985
0.00627691
0.00350074
0.00188254
0.00102054
0.000594814
0.000380866
0.000278432
0.000235734
0.000233638
0.000266175
0.000332299
0.000432533
0.000568746
0.000743536
0.000959752
0.00122007
0.00152797
0.00188848
0.00230912
0.00279871
0.0033649
0.00401154
0.00473722
0.00553552
0.00639653
0.00730827
0.00825877
0.00923631
0.0102305
0.011232
0.0122252
0.0131996
0.0141491
0.0150671
0.0159463
0.0167799
0.0175614
0.0182854
0.0189401
0.0195202
0.0200163
0.0204115
0.0206667
0.0207546
0.0206673
0.0204137
0.0200036
0.0194601
0.0187978
0.0180519
0.0172333
0.0163906
0.0155162
0.014679
0.0138279
0.0130724
0.0122814
0.0116335
0.0110006
0.0104827
0.00639446
0.00374716
0.00212202
0.00118835
0.00069695
0.000442088
0.000315467
0.000261371
0.000255388
0.000289709
0.000362278
0.000473025
0.000623293
0.000815274
0.00105145
0.00133419
0.00166693
0.00205484
0.00250586
0.00302928
0.00363313
0.00432132
0.00509213
0.00593854
0.00684982
0.00781296
0.00881509
0.00984342
0.0108867
0.0119341
0.0129679
0.0139789
0.0149597
0.0159029
0.0168006
0.0176454
0.0184304
0.0191465
0.0197842
0.0203405
0.0208065
0.0211658
0.0213818
0.0214305
0.0213062
0.021018
0.0205762
0.0200035
0.0193149
0.0185452
0.0177055
0.0168445
0.0159547
0.0151059
0.0142473
0.0134906
0.0127023
0.0120694
0.0114135
0.010487
0.0065007
0.00396497
0.00235779
0.00137221
0.000818388
0.000519341
0.00036495
0.000295882
0.000283867
0.000318536
0.000396639
0.000517296
0.000681199
0.000890007
0.00114578
0.00145054
0.00180767
0.00222243
0.00270308
0.00325931
0.00389941
0.00462733
0.00544106
0.00633296
0.00729155
0.00830287
0.00935318
0.0104287
0.0115174
0.0126062
0.0136768
0.0147202
0.0157281
0.0166922
0.0176039
0.0184555
0.0192384
0.0199411
0.0205583
0.021087
0.021519
0.0218385
0.0220113
0.0220173
0.0218529
0.0215279
0.0210528
0.0204505
0.0197358
0.0189434
0.0180843
0.0172067
0.0163037
0.0154449
0.0145802
0.0138232
0.0130378
0.0124199
0.0117451
0.0105025
0.00659579
0.00415412
0.00258225
0.00156632
0.000957462
0.000612579
0.000427722
0.000339963
0.000319379
0.000352676
0.000435201
0.000565045
0.000742112
0.000967404
0.0012425
0.00156901
0.00195024
0.00239143
0.00290107
0.00348911
0.00416405
0.00492985
0.00578418
0.00671886
0.00772176
0.00877796
0.009873
0.010992
0.0121224
0.0132482
0.0143517
0.0154234
0.0164542
0.0174349
0.0183564
0.0192101
0.0199839
0.0206696
0.0212625
0.0217598
0.0221541
0.0224298
0.0225561
0.0225164
0.0223095
0.0219459
0.0214366
0.0208046
0.0200649
0.0192514
0.0183752
0.0174838
0.0165702
0.0157039
0.0148354
0.0140794
0.0132977
0.0126947
0.012005
0.0105238
0.00668051
0.00431612
0.00278953
0.00176426
0.00111154
0.000721735
0.000504175
0.000394717
0.000362574
0.000392451
0.000478051
0.000616213
0.000805911
0.00104735
0.00134156
0.00168964
0.00209478
0.00256208
0.0031001
0.00371897
0.0044273
0.00522905
0.00612163
0.0070963
0.0081404
0.00923812
0.0103743
0.0115332
0.0127015
0.0138599
0.0149924
0.0160883
0.0171378
0.0181309
0.0190577
0.0199069
0.0206672
0.021332
0.0218967
0.0223589
0.0227116
0.02294
0.0230166
0.0229286
0.0226771
0.0222735
0.0217297
0.0210685
0.0203051
0.0194728
0.0185824
0.0176801
0.0167593
0.0158887
0.0150191
0.0142662
0.0134897
0.0129019
0.0122014
0.0105474
0.00675593
0.00445345
0.00297577
0.00195948
0.00127692
0.000846105
0.000594609
0.000461254
0.000414422
0.000438452
0.000525506
0.000670934
0.000872641
0.00112986
0.00144302
0.00181254
0.00224149
0.00273461
0.00330045
0.00394916
0.0046894
0.00552511
0.00645347
0.00746524
0.00854736
0.00968315
0.0108569
0.0120519
0.0132537
0.0144409
0.0155982
0.0167143
0.0177782
0.0187794
0.0197057
0.020545
0.0212879
0.0219279
0.0224606
0.0228838
0.0231911
0.0233688
0.0233929
0.0232544
0.0229565
0.0225118
0.0219333
0.0212438
0.0204586
0.01961
0.0187085
0.0177991
0.0168749
0.0160034
0.0151361
0.014389
0.0136198
0.0130479
0.0123408
0.0105712
0.00682311
0.00456912
0.00313899
0.00214592
0.00144897
0.00098412
0.000699219
0.000540253
0.000476188
0.000491529
0.000578089
0.000729501
0.000942466
0.00121505
0.00154696
0.00193784
0.00239051
0.00290924
0.00350234
0.00417988
0.00495051
0.00581815
0.00677977
0.00782568
0.00894254
0.0101129
0.0113206
0.0125477
0.0137787
0.0149907
0.0161689
0.0173008
0.018375
0.0193789
0.0202987
0.0211241
0.0218456
0.0224569
0.0229537
0.023334
0.0235923
0.0237161
0.023685
0.0234937
0.0231479
0.0226614
0.0220483
0.0213316
0.0205266
0.0196647
0.0187558
0.0178431
0.0169197
0.0160513
0.0151901
0.0144516
0.0136925
0.0131375
0.0124285
0.0105941
0.00688305
0.00466632
0.00327888
0.00231848
0.00162243
0.00113321
0.000817609
0.000632272
0.000549072
0.000552789
0.000636534
0.000792361
0.00101566
0.00130307
0.00165354
0.00206565
0.00254199
0.0030861
0.00370593
0.00441131
0.00521079
0.00610826
0.00710057
0.00817759
0.00932586
0.0105271
0.0117649
0.0130205
0.014276
0.0155089
0.0167037
0.0178474
0.0189267
0.019927
0.0208362
0.0216436
0.0223399
0.0229184
0.0233753
0.023709
0.0239147
0.0239815
0.0238928
0.0236467
0.0232515
0.0227227
0.0220754
0.0213328
0.0205104
0.0196382
0.0187257
0.0178139
0.0168958
0.0160347
0.0151837
0.0144572
0.0137113
0.0131748
0.0124684
0.0106153
0.00693661
0.00474813
0.00339645
0.00247334
0.00179176
0.00128982
0.000948592
0.00073755
0.000633988
0.000623588
0.00070178
0.000860112
0.00109258
0.00139415
0.00176288
0.00219606
0.002696
0.00326528
0.00391131
0.00464355
0.00547033
0.00639554
0.00741594
0.00852097
0.00969725
0.0109257
0.0121899
0.0134699
0.0147455
0.015995
0.0172023
0.0183527
0.0194309
0.0204234
0.0213179
0.0221032
0.02277
0.0233118
0.0237249
0.0240081
0.0241578
0.0241647
0.024016
0.0237134
0.0232677
0.0226961
0.022015
0.021248
0.0204106
0.0195315
0.0186196
0.0177131
0.016805
0.0159557
0.0151193
0.0144083
0.0136791
0.0131628
0.0124638
0.0106345
0.00698454
0.00481732
0.00349365
0.00260816
0.00195173
0.00144951
0.00109005
0.000855724
0.000731485
0.000705395
0.000774975
0.000933516
0.00117369
0.00148855
0.00187515
0.00232914
0.00285258
0.00344681
0.00411853
0.00487665
0.0057292
0.00668005
0.00772593
0.00885585
0.0100567
0.0113087
0.0125953
0.013895
0.0151867
0.0164487
0.0176631
0.0188142
0.019887
0.0208676
0.0217432
0.0225023
0.0231356
0.0236366
0.0240019
0.024231
0.0243212
0.0242653
0.0240545
0.0236937
0.0231964
0.0225817
0.0218676
0.0210778
0.0202282
0.0193457
0.0184385
0.0175421
0.0166487
0.0158159
0.0149986
0.0143069
0.0135981
0.0131041
0.0124174
0.0106516
0.00702745
0.00487634
0.00357301
0.00272205
0.00209778
0.00160733
0.00123887
0.000985648
0.000841652
0.000799062
0.000857875
0.00101351
0.00125958
0.0015866
0.0019905
0.00246493
0.00301169
0.0036306
0.00432751
0.00511058
0.00598742
0.00696182
0.00803061
0.00918226
0.0104042
0.0116759
0.0129811
0.0142958
0.0155995
0.0168681
0.0180843
0.0192317
0.0202949
0.0212593
0.0221116
0.0228403
0.0234359
0.0238921
0.0242058
0.024377
0.0244045
0.0242833
0.0240082
0.0235877
0.023038
0.0223802
0.0216338
0.0208232
0.019964
0.0190819
0.0181836
0.017302
0.0164284
0.0156168
0.0148235
0.0141549
0.0134705
0.0130009
0.0123316
0.0106666
0.00706587
0.0049272
0.00363729
0.00281544
0.00222646
0.00175816
0.00139106
0.00112526
0.000963934
0.000904935
0.000951725
0.00110185
0.00135093
0.00168866
0.00210911
0.00260342
0.00317323
0.00381653
0.00453811
0.00534523
0.00624492
0.00724084
0.00832997
0.00950022
0.0107398
0.0120274
0.0133471
0.014672
0.0159812
0.0172517
0.0184653
0.0196048
0.020654
0.0215978
0.0224227
0.0231168
0.0236705
0.0240778
0.024336
0.0244458
0.0244074
0.0242183
0.0238771
0.0233956
0.0227928
0.022092
0.0213145
0.0204849
0.0196192
0.018741
0.0178563
0.0169942
0.0161455
0.0153601
0.0145954
0.013954
0.013298
0.0128554
0.0122084
0.0106796
0.00710024
0.00497155
0.00368924
0.00288977
0.00233561
0.00189719
0.00154193
0.0012715
0.00109696
0.00102281
0.00105695
0.00120001
0.00144953
0.00179517
0.00223112
0.00274459
0.00333703
0.00400431
0.00475005
0.00558035
0.00650152
0.00751699
0.00862399
0.00980971
0.0110634
0.012363
0.0136914
0.0150211
0.0163314
0.0175995
0.018806
0.0199331
0.0209639
0.0218828
0.0226759
0.0233311
0.0238388
0.0241931
0.024392
0.0244369
0.0243297
0.0240704
0.0236614
0.0231178
0.0224614
0.021718
0.0209106
0.0200643
0.019195
0.0183248
0.017458
0.0166203
0.0158016
0.0150472
0.0143161
0.0137058
0.0130824
0.0126693
0.0120497
0.0106909
0.00713094
0.00501068
0.00373143
0.00294721
0.0024244
0.00202036
0.00168645
0.00142043
0.00123843
0.00115175
0.00117352
0.00130835
0.00155652
0.00190832
0.00235671
0.00288831
0.0035028
0.00419356
0.00496289
0.00581556
0.0067569
0.00779004
0.00891252
0.0101106
0.0113737
0.0126805
0.0140127
0.0153427
0.0166497
0.0179109
0.0191059
0.0202161
0.021224
0.0221136
0.0228706
0.0234825
0.02394
0.0242375
0.0243733
0.02435
0.0241711
0.0238395
0.0233611
0.0227546
0.0220447
0.0212593
0.0204235
0.0195629
0.0186933
0.0178348
0.0169905
0.0161821
0.0153984
0.01468
0.0139872
0.0134122
0.0128255
0.0124446
0.0118573
0.0107005
0.00715832
0.00504556
0.0037661
0.00299035
0.00249327
0.00212471
0.00181971
0.00156736
0.00138506
0.00128995
0.00130072
0.00142682
0.00167203
0.00202815
0.0024874
0.00303575
0.00367039
0.00438373
0.00517603
0.00605026
0.00701057
0.00805937
0.00919365
0.0104007
0.0116693
0.0129793
0.0143105
0.0156365
0.0169359
0.0181855
0.0193645
0.0204532
0.0214338
0.0222897
0.023006
0.0235705
0.0239737
0.0242103
0.0242795
0.0241847
0.0239316
0.0235257
0.0229769
0.022307
0.0215437
0.0207174
0.019855
0.0189827
0.0181161
0.0172734
0.016456
0.0156817
0.014938
0.0142605
0.0136106
0.013075
0.012529
0.0121832
0.0116331
0.0107087
0.00718269
0.00507693
0.00379515
0.0030219
0.00254373
0.00220856
0.00193731
0.0017072
0.00153265
0.00143461
0.00143705
0.00155477
0.00179582
0.00215445
0.00262278
0.00318629
0.00383977
0.00457452
0.00538863
0.00628311
0.00726071
0.00832299
0.00946639
0.0106791
0.0119496
0.0132586
0.0145843
0.0159019
0.0171891
0.0184228
0.019581
0.0206438
0.0215925
0.0224101
0.0230814
0.0235942
0.0239389
0.0241109
0.0241099
0.0239408
0.0236111
0.0231294
0.0225093
0.0217759
0.02096
0.0200943
0.0192075
0.0183263
0.0174662
0.0166433
0.0158573
0.0151217
0.0144228
0.0137908
0.0131885
0.0126963
0.0121949
0.0118869
0.0113788
0.0107156
0.00720436
0.00510536
0.00382007
0.0030445
0.002578
0.00227158
0.00203583
0.00183489
0.00167631
0.00158198
0.00158005
0.00169079
0.0019271
0.00228662
0.00276216
0.00333903
0.00400982
0.00476457
0.00559919
0.00651256
0.00750582
0.00857949
0.0097295
0.0109447
0.0122136
0.0135171
0.0148333
0.0161381
0.0174087
0.0186217
0.0197546
0.0207868
0.0216991
0.0224739
0.0230959
0.0235526
0.0238349
0.0239385
0.0238642
0.023618
0.0232096
0.0226509
0.0219592
0.0211628
0.0202955
0.0193923
0.0184838
0.0175969
0.016747
0.0159479
0.0151976
0.0145053
0.0138558
0.0132738
0.0127234
0.0122783
0.0118253
0.011558
0.0110963
0.0107215
0.00722357
0.00513124
0.00384205
0.00306053
0.0025988
0.00231471
0.00211307
0.00194584
0.00181078
0.00172742
0.00172626
0.00183258
0.00206436
0.00242353
0.00290446
0.00349273
0.00417907
0.00495221
0.00580586
0.00673667
0.00774398
0.0088271
0.00998133
0.0111961
0.01246
0.0137538
0.0150563
0.0163439
0.0175935
0.0187813
0.0198843
0.0208812
0.0217524
0.0224799
0.0230482
0.0234448
0.0236608
0.0236925
0.0235417
0.023216
0.0227275
0.0220911
0.0213279
0.0204696
0.0195526
0.0186145
0.0176874
0.0167984
0.0159625
0.0151913
0.0144809
0.0138361
0.0132403
0.0127124
0.012218
0.0118236
0.0114226
0.0111987
0.0107878
0.0107263
0.0072406
0.00515487
0.00386193
0.00307206
0.002609
0.00233986
0.00216825
0.00203638
0.00193084
0.00186568
0.00187131
0.00197685
0.00220526
0.00256338
0.00304803
0.0036457
0.00434567
0.00513538
0.0060064
0.00695312
0.00797288
0.00906359
0.0102198
0.0114313
0.0126868
0.013967
0.0152518
0.016518
0.0177421
0.0189
0.0199685
0.0209256
0.0217511
0.0224269
0.0229372
0.0232695
0.0234154
0.0233719
0.023142
0.0227349
0.0221651
0.0214508
0.0206171
0.0196985
0.0187346
0.0177648
0.0168227
0.0159356
0.0151178
0.0143785
0.013712
0.0131187
0.0125805
0.0121105
0.0116757
0.0113351
0.0109893
0.0108114
0.0104554
0.0107304
0.00725568
0.00517649
0.00388031
0.00308074
0.00261139
0.0023497
0.00220196
0.00210409
0.00203181
0.00199124
0.00201002
0.00211935
0.00234653
0.00270359
0.00319061
0.00379572
0.00450726
0.00531155
0.00619812
0.00715909
0.00818969
0.00928623
0.0104423
0.0116479
0.0128916
0.0141547
0.0154179
0.0166585
0.0178526
0.0189762
0.0200055
0.0209182
0.0216935
0.0223132
0.0227612
0.0230253
0.0230976
0.022976
0.0226646
0.0221746
0.021523
0.0207315
0.0198287
0.0188526
0.0178452
0.0168478
0.0158951
0.0150142
0.0142188
0.0135154
0.0128965
0.0123583
0.011881
0.0114721
0.0111
0.0108162
0.0105282
0.0103991
0.0101014
0.0107337
0.00726901
0.00519629
0.00389758
0.00308786
0.00260852
0.0023473
0.00221599
0.00214806
0.00211002
0.00209882
0.00213679
0.00225503
0.00248399
0.00284071
0.00332919
0.00393992
0.00466094
0.00547766
0.00637779
0.00735124
0.00839103
0.0094917
0.0106457
0.011843
0.0130715
0.0143142
0.0155522
0.016763
0.0179229
0.0190077
0.0199933
0.0208569
0.0215777
0.0221368
0.0225186
0.0227108
0.0227063
0.0225039
0.0221092
0.0215354
0.0208022
0.0199349
0.0189657
0.0179357
0.0168892
0.0158692
0.014911
0.0140413
0.0132726
0.012609
0.0120412
0.0115609
0.0111473
0.0108023
0.0104954
0.0102707
0.0100427
0.00996506
0.00972862
0.0107365
0.00728082
0.00521442
0.003914
0.00309433
0.00260256
0.0023358
0.00221308
0.00216885
0.00216315
0.00218384
0.002246
0.00237827
0.00261263
0.00297046
0.00345999
0.00407473
0.00480314
0.00563008
0.00654164
0.00752565
0.00857291
0.00967606
0.0108261
0.0120127
0.0132234
0.0144425
0.0156516
0.0168287
0.0179502
0.0189918
0.0199292
0.0207394
0.0214012
0.0218958
0.0222074
0.0223243
0.0222401
0.0219548
0.0214756
0.0208179
0.0200042
0.0190635
0.0180315
0.0169523
0.0158724
0.0148358
0.0138781
0.0130249
0.0122876
0.0116677
0.0111537
0.0107339
0.010386
0.0101066
0.00986667
0.00970268
0.00953671
0.00951257
0.00933975
0.0107388
0.00729127
0.00523102
0.0039297
0.0031008
0.00259528
0.00231823
0.00219654
0.00216837
0.00219048
0.0022429
0.00233248
0.00248329
0.00272687
0.00308781
0.00357847
0.0041959
0.00492968
0.00576453
0.00668525
0.00767777
0.00873071
0.00983468
0.0109791
0.0121526
0.013343
0.0145356
0.0157125
0.0168522
0.0179313
0.0189255
0.0198104
0.0205629
0.0211616
0.0215877
0.0218256
0.0218642
0.0216979
0.021328
0.0207638
0.0200229
0.019131
0.0181204
0.0170307
0.0159084
0.014802
0.0137559
0.0128055
0.0119749
0.0112737
0.0107009
0.0102432
0.00988549
0.00960431
0.00939164
0.00921945
0.00911712
0.00901479
0.00904551
0.00893796
0.0107407
0.00730054
0.00524622
0.00394474
0.00310763
0.00258799
0.00229725
0.0021699
0.00214963
0.00219291
0.00227415
0.00239209
0.00256465
0.00282095
0.00318723
0.0036795
0.00429855
0.00503574
0.00587616
0.00680366
0.00780248
0.00885918
0.00996228
0.0110993
0.0122577
0.0134257
0.0145891
0.0157307
0.0168295
0.0178624
0.0188051
0.0196335
0.0203243
0.020856
0.0212099
0.0213709
0.0213286
0.0210784
0.0206232
0.0199743
0.019152
0.0181852
0.0171098
0.0159688
0.0148111
0.0136865
0.0126394
0.011704
0.0109025
0.0102423
0.00971978
0.00932013
0.00902513
0.0088107
0.00866464
0.00856003
0.00851935
0.00848165
0.00856811
0.00852685
0.0107422
0.00730877
0.00526013
0.00395915
0.003115
0.00258162
0.00227509
0.00213665
0.00211633
0.00217283
0.00227749
0.00242214
0.00261776
0.00288933
0.00326304
0.00375753
0.00437731
0.00511601
0.00595959
0.00689132
0.00789409
0.00895248
0.0100529
0.0111809
0.0123223
0.0134659
0.0145979
0.0157013
0.0167559
0.017739
0.0186267
0.0193947
0.0200199
0.0204811
0.0207597
0.0208411
0.0207158
0.0203806
0.0198402
0.0191081
0.0182075
0.0171706
0.016037
0.0148528
0.0136692
0.0125363
0.0114978
0.0105862
0.00982064
0.00920635
0.00873692
0.00839614
0.00816351
0.00801464
0.00793389
0.00789549
0.00791536
0.00794255
0.00808501
0.00811096
0.0107434
0.0073161
0.00527287
0.00397293
0.00312297
0.00257674
0.00225347
0.00209994
0.00207248
0.00213375
0.00225459
0.00242171
0.00263942
0.00292731
0.00330982
0.00380702
0.00442664
0.00516491
0.00600908
0.00694234
0.00794646
0.00900427
0.0101002
0.0112172
0.0123402
0.0134576
0.0145559
0.0156187
0.0166263
0.0175565
0.0183856
0.0190899
0.0196462
0.0200337
0.0202343
0.0202341
0.0200245
0.0196041
0.0189795
0.018167
0.0171927
0.0160922
0.0149088
0.0136916
0.0124931
0.0113635
0.0103447
0.00946634
0.00874419
0.00818052
0.00776635
0.00748436
0.00731252
0.00722663
0.00720855
0.00723364
0.00731266
0.00740338
0.0076013
0.00769447
0.0107444
0.00732266
0.00528454
0.00398608
0.00313148
0.00257367
0.00223365
0.00206242
0.00202207
0.00207998
0.00220862
0.00239184
0.00262821
0.00293152
0.00332303
0.00382286
0.00444118
0.00517685
0.00601884
0.00695062
0.0079532
0.00900789
0.0100972
0.0112015
0.0123045
0.0133941
0.014457
0.015477
0.016435
0.0173094
0.0180771
0.0187145
0.0191992
0.0195105
0.019631
0.0195477
0.0192536
0.0187488
0.0180425
0.0171537
0.0161119
0.0149564
0.0137337
0.0124957
0.0112956
0.0101825
0.00919562
0.00836074
0.00768949
0.00718085
0.00682338
0.00659902
0.00648507
0.00645814
0.00649863
0.00658305
0.00671893
0.00687057
0.00712253
0.00728189
0.0107452
0.00732853
0.00529525
0.0039986
0.00314045
0.00257248
0.00221642
0.00202621
0.00196868
0.00201611
0.00214396
0.00233535
0.00258474
0.00290039
0.00329949
0.00380086
0.0044162
0.00514672
0.00598334
0.00691021
0.00790796
0.00895661
0.0100368
0.0111265
0.012208
0.0132684
0.0142943
0.0152696
0.016176
0.0169923
0.017696
0.0182642
0.0186749
0.018908
0.0189472
0.0187805
0.0184025
0.0178155
0.0170314
0.0160724
0.0149715
0.0137716
0.0125225
0.011278
0.0100914
0.00900964
0.00806787
0.00728711
0.00667418
0.00622442
0.00592421
0.00575516
0.00569484
0.00572137
0.00581483
0.00595289
0.00614215
0.00635101
0.0066546
0.00687808
0.0107458
0.00733382
0.0053051
0.00401048
0.00314975
0.0025731
0.00220222
0.00199282
0.00191539
0.0019466
0.00206565
0.00225661
0.00251165
0.00283446
0.00323785
0.00373839
0.00434816
0.00507033
0.00589779
0.00681577
0.00780482
0.00884398
0.0099123
0.0109851
0.0120434
0.0130733
0.0140607
0.01499
0.015843
0.0165993
0.0172372
0.0177344
0.0180695
0.0182235
0.0181809
0.0179315
0.0174716
0.0168062
0.01595
0.0149289
0.0137795
0.0125483
0.0112881
0.0100538
0.00889766
0.00786316
0.00698029
0.00626422
0.00571646
0.00532861
0.00508517
0.00496795
0.00495574
0.00502885
0.00516827
0.00535277
0.00559083
0.00585202
0.00620382
0.00648818
0.0107463
0.00733861
0.00531417
0.00402173
0.00315925
0.00257537
0.00219118
0.00196324
0.00186458
0.00187548
0.00197891
0.00216103
0.00241341
0.00273646
0.00313902
0.00363474
0.00423524
0.00494496
0.0057587
0.00666302
0.00763877
0.00866429
0.00971723
0.0107707
0.011804
0.0128018
0.0137496
0.0146315
0.0154299
0.0161251
0.0166959
0.0171209
0.0173797
0.0174544
0.017331
0.0170008
0.0164627
0.0157244
0.014804
0.0137311
0.0125464
0.0112997
0.0100461
0.00884072
0.00773344
0.00676281
0.00595242
0.00531085
0.00483404
0.00450997
0.00432174
0.00425184
0.00428117
0.00439291
0.00457009
0.00479365
0.00507381
0.00538119
0.00577669
0.00611758
0.0107467
0.00734296
0.00532255
0.00403239
0.00316884
0.00257906
0.00218323
0.00193801
0.00181797
0.00180611
0.00188871
0.00205453
0.0022958
0.00261115
0.00300617
0.00349159
0.00407781
0.00476994
0.00556446
0.0064494
0.00740632
0.00841317
0.00944645
0.0104774
0.0114834
0.0124476
0.0133545
0.0141882
0.0149312
0.0155644
0.0160676
0.0164202
0.0166031
0.0165996
0.0163974
0.0159901
0.0153791
0.0145755
0.0136011
0.0124896
0.0112856
0.0100418
0.00881484
0.00765874
0.00661931
0.00572878
0.00500331
0.00444445
0.00404269
0.00378284
0.00364718
0.00361937
0.00368307
0.00382486
0.00403085
0.00428575
0.00459988
0.00494617
0.00537985
0.00577176
0.010747
0.00734694
0.00533031
0.00404246
0.0031784
0.00258393
0.00217813
0.00191727
0.00177664
0.00174103
0.00179935
0.00194292
0.00216538
0.00246483
0.00284468
0.00331302
0.00387873
0.00454705
0.00531582
0.00617466
0.00710612
0.0080882
0.00909655
0.0101011
0.0110768
0.0120055
0.0128703
0.013655
0.0143422
0.0149134
0.0153491
0.01563
0.0157383
0.015659
0.0153818
0.0149028
0.0142265
0.0133676
0.0123522
0.0112181
0.0100134
0.00879355
0.00761504
0.00652924
0.00557618
0.00478038
0.00414991
0.00367943
0.00335461
0.00315782
0.00307119
0.00307992
0.00317081
0.00333415
0.00355987
0.00383773
0.00417729
0.00455438
0.00501983
0.00545622
0.0107473
0.0073506
0.00533753
0.00405198
0.00318785
0.00258974
0.00217557
0.00190091
0.00174113
0.00168201
0.0017143
0.00183146
0.00202884
0.00230482
0.00266164
0.00310541
0.00364348
0.00428084
0.00501639
0.00584138
0.00673965
0.00768966
0.00866664
0.00963978
0.0105816
0.0114722
0.0122935
0.0130285
0.0136598
0.0141694
0.0145387
0.0147498
0.0147862
0.014635
0.0142882
0.013745
0.0130134
0.012112
0.0110714
0.00993342
0.00874963
0.0075765
0.00646909
0.00547398
0.00462372
0.00393414
0.00340523
0.00302548
0.00277691
0.00264045
0.00259871
0.00263865
0.00275027
0.00292751
0.00316448
0.003457
0.00381335
0.00421269
0.00470283
0.00517625
0.0107475
0.007354
0.00534427
0.00406099
0.00319713
0.00259626
0.0021752
0.00188862
0.00171153
0.00163006
0.00163605
0.00172452
0.00189233
0.00213862
0.00246524
0.00287697
0.00337989
0.0039786
0.00467283
0.00545538
0.0063117
0.00722117
0.00815907
0.00909454
0.00999782
0.0108471
0.0116231
0.0123076
0.0128833
0.0133323
0.0136372
0.0137812
0.0137498
0.0135324
0.0131236
0.0125261
0.0117517
0.0108235
0.00977647
0.00865633
0.00751686
0.00641422
0.00539978
0.00451328
0.00377839
0.00320193
0.00277666
0.00248634
0.00231082
0.00223066
0.00222951
0.00229608
0.00242324
0.0026083
0.00284944
0.00314911
0.00351401
0.00392704
0.00443444
0.00493678
0.0107476
0.00735716
0.00535059
0.00406952
0.00320618
0.00260329
0.00217666
0.00187997
0.00168763
0.00158561
0.00156622