/*--------------------------------*- C++ -*----------------------------------*\
| =========                 |                                                 |
| \\      /  F ield         | OpenFOAM: The Open Source CFD Toolbox           |
|  \\    /   O peration     | Version:  2.4.0                                 |
|   \\  /    A nd           | Web:      www.OpenFOAM.org                      |
|    \\/     M anipulation  |                                                 |
\*---------------------------------------------------------------------------*/
FoamFile
{
    version     2.0;
    format      ascii;
    class       volVectorField;
    location    "1.55";
    object      U_0;
}
// * * * * * * * * * * * * * * * * * * * * * * * * * * * * * * * * * * * * * //

dimensions      [0 1 -1 0 0 0 0];

internalField   nonuniform List<vector> 
2320
(
(0.745742 -0.0254119 0)
(1.34431 0.00516002 0)
(0.757256 0.0291607 0)
(1.32336 -0.00290552 0)
(0.705102 -0.0056271 0)
(1.28287 -0.00569482 0)
(0.751171 -0.00596399 0)
(1.25234 -0.0498738 0)
(1.00469 0.0766002 0)
(0.944914 -0.0349776 0)
(1.15338 0.0252162 0)
(0.693701 -0.00457019 0)
(1.13789 -0.0306284 0)
(0.818909 0.00398974 0)
(1.06601 -0.0598243 0)
(1.03985 0.0545211 0)
(0.798534 -0.0582445 0)
(1.34991 -0.00657697 0)
(0.528112 0.0054292 0)
(1.48295 -0.0404582 0)
(0.999217 -0.0172593 0)
(1.01125 -0.0200496 0)
(0.98307 -0.00993492 0)
(1.12801 0.0223027 0)
(0.990903 0.0297543 0)
(1.04405 -0.0186677 0)
(0.98368 0.0220864 0)
(0.979415 -0.0804549 0)
(0.990309 0.0742789 0)
(1.02121 -0.0380687 0)
(1.0828 0.0832825 0)
(0.921403 0.0212901 0)
(1.07595 -0.0329155 0)
(0.876002 0.0222269 0)
(1.08584 -0.0384206 0)
(0.815548 0.0610631 0)
(1.12593 -0.0868804 0)
(0.902378 0.121565 0)
(0.960495 -0.0712454 0)
(1.02163 -0.0577422 0)
(1.05658 -0.0221633 0)
(0.97944 0.00259298 0)
(0.979285 -0.0212929 0)
(0.922346 -0.00765475 0)
(1.06845 0.0372188 0)
(0.962151 -0.00363771 0)
(0.996312 0.0266424 0)
(0.985382 -0.0555619 0)
(0.934175 0.0696464 0)
(0.996996 -0.0774143 0)
(0.956471 0.0832053 0)
(1.04468 0.00469492 0)
(0.996195 -0.00414945 0)
(0.988097 -0.00628027 0)
(0.962241 -0.0181451 0)
(1.03895 0.0314478 0)
(0.900673 -0.0803524 0)
(0.995929 0.0828125 0)
(1.00553 -0.0408574 0)
(0.876734 -0.0781006 0)
(0.968492 -0.0330077 0)
(1.01957 0.0074052 0)
(0.98765 0.0272633 0)
(0.919178 -0.0288049 0)
(1.0021 0.0103966 0)
(1.00756 0.0173661 0)
(0.993549 0.0106586 0)
(1.01044 -0.0471035 0)
(0.958213 0.0675691 0)
(1.0107 -0.0555697 0)
(0.914158 0.0537686 0)
(1.07808 0.00473772 0)
(0.940234 -0.00998423 0)
(1.09544 0.0346446 0)
(0.880816 -0.05943 0)
(1.12544 0.0721213 0)
(0.874655 -0.0613581 0)
(1.0703 0.0479314 0)
(1.00036 -0.00397046 0)
(0.966303 -0.0818125 0)
(0.997876 -0.0116315 0)
(0.970651 -0.015434 0)
(1.01754 0.0364551 0)
(0.985891 -0.0175033 0)
(0.978815 -0.00333969 0)
(1.01015 0.000510401 0)
(1.02664 0.0238637 0)
(0.976162 -0.0390033 0)
(1.01711 0.0651054 0)
(1.02308 -0.048842 0)
(0.987594 0.0432087 0)
(1.05898 -0.000624462 0)
(0.991757 -0.0161904 0)
(1.06603 0.0245498 0)
(1.00183 -0.0253725 0)
(1.01581 0.0328372 0)
(1.03944 -0.0378613 0)
(1.01192 0.015088 0)
(1.05874 0.0184946 0)
(0.983006 -0.0700268 0)
(1.00819 -0.0116804 0)
(0.990063 -0.0133542 0)
(0.987404 0.0284007 0)
(1.00486 -0.0119691 0)
(1.00519 -0.00296657 0)
(0.996557 -0.00468889 0)
(1.02296 0.0243151 0)
(0.979908 -0.039338 0)
(1.01165 0.0419553 0)
(1.02207 -0.034167 0)
(0.98577 0.0255687 0)
(1.04893 0.00866762 0)
(0.998879 -0.0179825 0)
(1.03015 0.0293733 0)
(1.01083 -0.0294853 0)
(1.0155 0.0417565 0)
(1.02077 -0.0491372 0)
(1.00984 0.0231219 0)
(1.05364 0.0158456 0)
(0.989992 -0.0505449 0)
(1.00711 -0.00723204 0)
(0.985507 -0.0125857 0)
(0.983688 0.0332095 0)
(1.01941 -0.0262424 0)
(0.989488 -0.00228657 0)
(1.00365 -0.00391911 0)
(1.00776 0.024927 0)
(0.994828 -0.0243715 0)
(0.984302 0.0362775 0)
(1.0267 -0.0298274 0)
(0.954928 0.0256245 0)
(1.03954 -0.00343217 0)
(0.977757 -0.00701964 0)
(1.03119 0.0166478 0)
(0.977416 -0.0131386 0)
(1.00432 0.0198977 0)
(1.0055 -0.028046 0)
(0.989977 -0.00595062 0)
(1.03565 0.0351376 0)
(0.962283 -0.0405651 0)
(1.00981 -0.00350337 0)
(0.969411 -0.00956611 0)
(1.00673 0.0148305 0)
(1.00665 -0.0121469 0)
(0.989715 0.00138417 0)
(0.985996 -0.00780931 0)
(1.01548 0.02221 0)
(0.984177 -0.0200673 0)
(1.0044 0.0183207 0)
(1.01308 -0.0118599 0)
(0.972098 0.0132897 0)
(1.02151 0.000512784 0)
(1.00191 -0.0136811 0)
(1.01693 0.0244491 0)
(0.981104 -0.00819546 0)
(1.00799 0.0169423 0)
(1.00301 -0.0310889 0)
(0.991364 0.000400141 0)
(0.996203 0.0323413 0)
(1.00839 -0.043756 0)
(1.00306 0.0058038 0)
(0.982257 -0.0160928 0)
(1.00379 0.0150538 0)
(1.00552 -0.0141624 0)
(0.996643 0.00256233 0)
(0.977591 -0.0106486 0)
(1.03309 0.0168824 0)
(0.981005 -0.01135 0)
(1.01474 0.0139489 0)
(0.999013 -0.0071482 0)
(0.991045 0.0148817 0)
(0.996382 -0.0142812 0)
(1.01995 -0.0065083 0)
(1.00546 0.0260939 0)
(0.988886 -0.00407878 0)
(1.02631 0.00276482 0)
(1.01134 -0.013349 0)
(0.993268 -0.00831568 0)
(0.99878 0.0302972 0)
(1.01937 -0.041463 0)
(1.00466 0.00694616 0)
(0.98749 -0.0149922 0)
(0.996357 0.00260183 0)
(1.01325 -0.00324562 0)
(0.982746 0.00986364 0)
(0.999479 -0.0189918 0)
(1.00267 0.0129429 0)
(1.00414 -0.00291118 0)
(0.997775 0.00259732 0)
(1.00007 0.00612804 0)
(0.99843 0.0101166 0)
(0.98844 -0.0114719 0)
(1.02045 -0.01824 0)
(0.991045 0.0366444 0)
(1.01635 -0.0117981 0)
(1.00135 -0.00286426 0)
(1.0316 -0.00635751 0)
(0.967225 0.000597312 0)
(1.01334 0.0214615 0)
(1.01425 -0.0393331 0)
(1.01198 0.0111191 0)
(0.994704 -0.0139157 0)
(0.984776 -0.00011231 0)
(1.00553 -0.00161516 0)
(0.982905 0.00360163 0)
(1.01668 -0.0134513 0)
(0.972844 0.00677592 0)
(1.03776 -0.00104129 0)
(0.97049 0.00886225 0)
(1.01699 -0.000916959 0)
(0.985356 0.014922 0)
(1.01 -0.0212383 0)
(0.995652 -0.00969018 0)
(0.99226 0.0275221 0)
(1.02985 -0.00553028 0)
(0.982537 -0.0103644 0)
(1.03964 0.00908074 0)
(0.947576 -0.00332266 0)
(1.03683 0.00819714 0)
(0.998859 -0.0280634 0)
(1.02505 0.00592335 0)
(0.98924 -0.00399697 0)
(0.999532 -0.00536 0)
(0.985161 0.0031634 0)
(1.00768 -0.000907898 0)
(0.99617 -0.00773568 0)
(0.982071 -0.00465187 0)
(1.02259 0.00472118 0)
(0.984649 0.00719926 0)
(1.00586 0.00384649 0)
(0.988801 0.00942454 0)
(1.03226 -0.0133145 0)
(0.953227 -0.00977385 0)
(1.01453 0.0171313 0)
(1.00761 -0.00170087 0)
(0.993124 -0.0140069 0)
(1.01158 0.0171153 0)
(0.984355 -0.00302582 0)
(1.01869 -0.00197009 0)
(1.00229 -0.0186172 0)
(1.00852 0.00456995 0)
(0.992281 -0.0016177 0)
(1.0062 -0.00134742 0)
(0.974916 -0.000502014 0)
(1.02213 -0.00641821 0)
(0.975984 0.00456673 0)
(1.0064 -0.013034 0)
(0.989298 0.00384503 0)
(1.01354 0.0111621 0)
(0.993494 0.00280097 0)
(1.00976 -0.0035913 0)
(1.03056 0.000433195 0)
(0.965946 -0.00316614 0)
(1.00503 0.000810665 0)
(1.00528 0.00615742 0)
(1.00048 -0.0150713 0)
(0.980945 0.0176287 0)
(1.02519 -0.0101048 0)
(0.98986 0.00127723 0)
(1.02286 -0.0238475 0)
(0.98512 0.00736667 0)
(1.00686 -0.00448914 0)
(0.994074 0.00130406 0)
(0.99997 -0.00187004 0)
(1.01047 -0.00334953 0)
(0.974766 0.00338423 0)
(1.02285 -0.0152639 0)
(0.967516 0.00492573 0)
(1.01839 0.00165977 0)
(0.996707 0.00933119 0)
(1.01873 -0.0125848 0)
(1.0069 0.0111254 0)
(1.00309 0.00105892 0)
(0.992007 -0.00212988 0)
(1.01079 0.00150438 0)
(1.00654 -0.00411319 0)
(0.977462 0.00775234 0)
(1.02834 -0.00964342 0)
(0.986161 0.000335002 0)
(1.01927 -0.0168582 0)
(0.989547 0.00828555 0)
(1.00105 -0.00560618 0)
(0.99712 -0.000340014 0)
(0.997083 -0.00613735 0)
(1.01458 0.00503915 0)
(0.97683 0.00055059 0)
(1.02447 -0.0120585 0)
(0.970578 0.00857058 0)
(1.00531 -0.00627387 0)
(0.998375 0.00630934 0)
(1.01692 -0.0124896 0)
(0.984539 0.0118561 0)
(1.01745 0.00154424 0)
(0.993086 -0.000917308 0)
(1.00373 -0.00255399 0)
(1.00833 0.00258572 0)
(0.988637 0.00627941 0)
(1.01485 -0.0146425 0)
(0.994946 0.00596027 0)
(1.01081 -0.0185732 0)
(0.986065 0.0134403 0)
(1.00989 -0.00955225 0)
(0.988759 0.00317201 0)
(1.00706 -0.0120175 0)
(0.99528 0.00928404 0)
(1.00043 -0.00309894 0)
(1.00936 -0.0110084 0)
(0.98662 0.0124215 0)
(1.00636 -0.0109281 0)
(0.994881 0.00310239 0)
(1.01509 -0.00612272 0)
(0.971184 0.0122141 0)
(1.0267 -0.00508326 0)
(0.983289 0.00678498 0)
(1.01756 -0.0081824 0)
(0.987039 0.00543423 0)
(1.01185 0.00241047 0)
(0.994537 -0.0111614 0)
(1.00121 0.000921312 0)
(1.00571 -0.0113176 0)
(0.985666 0.00838406 0)
(1.01755 -0.0038899 0)
(0.989755 -0.00069038 0)
(1.01398 -0.00937815 0)
(0.983175 0.00965241 0)
(1.01415 -0.007015 0)
(0.991386 -0.00421262 0)
(0.998302 0.00837829 0)
(1.00196 -0.00962304 0)
(0.996353 0.00295573 0)
(1.00261 -0.00231477 0)
(0.97767 0.00833923 0)
(1.01818 -0.00710287 0)
(0.986249 0.00639473 0)
(1.01557 -0.00736114 0)
(0.984662 0.00892824 0)
(1.01308 -0.00102565 0)
(0.987607 -0.00548995 0)
(1.00472 -0.00257441 0)
(0.992636 -0.0101814 0)
(0.994148 0.0117011 0)
(1.00499 -0.0105438 0)
(1.00348 0.00577636 0)
(1.00675 -0.0128906 0)
(0.983742 0.0133877 0)
(1.02252 -0.0105783 0)
(0.979456 0.000507511 0)
(1.01206 0.00302125 0)
(0.994907 -0.00684297 0)
(0.997651 0.000642361 0)
(0.995437 0.00506335 0)
(0.990139 0.00235244 0)
(1.00745 -0.0078339 0)
(0.989425 0.00722396 0)
(1.01513 -0.00763114 0)
(0.977504 0.00863011 0)
(1.02245 -0.00256528 0)
(0.976098 -0.00203679 0)
(1.01429 -0.00645445 0)
(0.980994 -0.00634157 0)
(1.00995 0.00608315 0)
(0.999523 -0.00415603 0)
(1.00553 -0.00278053 0)
(1.00451 -0.000493077 0)
(0.983812 0.00186602 0)
(1.02327 -0.00399486 0)
(0.972842 0.0013673 0)
(1.01738 0.0003571 0)
(0.986685 -0.00402287 0)
(0.995343 0.00515668 0)
(0.996868 -0.000815554 0)
(0.996979 0.00481896 0)
(1.00486 -0.00965522 0)
(0.984355 0.00565496 0)
(1.01703 -0.00494469 0)
(0.973507 0.00997025 0)
(1.02382 -0.00551936 0)
(0.978324 0.00527204 0)
(1.01438 -0.0127416 0)
(0.976852 -0.000636532 0)
(1.06207 0.00530541 0)
(0.956635 -0.00559066 0)
(1.05013 0.00397559 0)
(0.958629 -0.00581137 0)
(1.03302 0.0064907 0)
(0.976112 -0.00740822 0)
(1.0114 0.00682695 0)
(0.992925 -0.00706657 0)
(0.999001 0.0062857 0)
(0.992617 -0.00634684 0)
(1.00224 0.00695945 0)
(1.001 -0.00495284 0)
(1.00365 0.00218587 0)
(0.986975 -0.00264817 0)
(1.00491 0.00113988 0)
(0.987183 0.00296357 0)
(1.02014 -0.0043793 0)
(0.978805 0.00559055 0)
(1.02911 -0.00903084 0)
(0.950759 0.00353982 0)
(0.723446 0.0205801 0)
(1.42934 0.0207711 0)
(0.549392 -0.0338861 0)
(1.54835 0.0368342 0)
(0.406795 0.0165486 0)
(1.34924 -0.113411 0)
(0.898423 0.0867879 0)
(0.761245 -0.120617 0)
(1.01959 0.009706 0)
(1.05404 0.057352 0)
(1.06155 -0.0280586 0)
(1.00577 0.028302 0)
(1.12577 0.0955366 0)
(0.883117 -0.134613 0)
(1.14495 0.182005 0)
(0.763073 -0.110257 0)
(1.05041 0.0138901 0)
(0.84616 0.00362451 0)
(1.17391 -0.00758554 0)
(0.801536 0.0135683 0)
(1.138 0.0713235 0)
(0.934114 -0.129934 0)
(1.03016 0.173359 0)
(1.0913 -0.0992337 0)
(0.964379 0.0294544 0)
(1.01433 -0.013108 0)
(1.04028 -0.0113501 0)
(0.942109 0.0483334 0)
(1.13058 0.0388154 0)
(0.930278 -0.0926486 0)
(1.11123 0.115123 0)
(1.03157 -0.0677357 0)
(0.991353 -0.00648167 0)
(1.00136 -0.0308758 0)
(1.05915 0.0233266 0)
(0.936354 -0.0192512 0)
(1.14249 0.0712246 0)
(0.94545 -0.119637 0)
(1.10294 0.102047 0)
(1.0791 -0.0346925 0)
(0.994272 0.0186105 0)
(0.983792 -0.044091 0)
(1.03573 0.00929012 0)
(0.954533 0.0143767 0)
(1.07343 0.0242854 0)
(1.00602 -0.0664439 0)
(1.03675 0.0480926 0)
(1.06635 -0.00594755 0)
(1.02192 -0.00590154 0)
(1.00172 -0.0397317 0)
(0.983081 0.0269917 0)
(0.990061 -0.0222386 0)
(1.03755 0.0307553 0)
(1.01112 -0.0818332 0)
(1.00556 0.055784 0)
(1.03245 -0.0149239 0)
(1.00396 -0.00898661 0)
(1.00656 -0.0154912 0)
(0.99024 0.0030273 0)
(0.968303 -0.00264183 0)
(1.04791 0.00168229 0)
(0.990097 -0.0424499 0)
(1.00063 0.0277258 0)
(1.01633 0.00112784 0)
(0.994553 -0.0122723 0)
(1.02207 -0.0200004 0)
(0.97379 0.0299845 0)
(0.990727 -0.0341923 0)
(1.03383 0.00458066 0)
(0.993577 -0.0405344 0)
(1.00859 0.0295245 0)
(0.995507 -0.00474236 0)
(0.991459 -0.0171217 0)
(1.01184 0.00341396 0)
(0.978707 0.00944474 0)
(1.01276 -0.0231619 0)
(0.997467 -0.0101289 0)
(1.00888 -0.0216639 0)
(0.988424 0.0173482 0)
(1.00617 -0.000657475 0)
(0.995802 -0.0175588 0)
(0.986628 -0.00243782 0)
(1.00589 0.0158926 0)
(1.01179 -0.0287484 0)
(0.985766 -0.00619228 0)
(1.01439 -0.0226814 0)
(0.965353 0.0205672 0)
(1.03643 -0.011235 0)
(1.01112 -0.0151187 0)
(0.960114 0.00410731 0)
(1.03591 -0.0100184 0)
(0.995734 -0.007142 0)
(1.0176 -0.0179126 0)
(0.994954 -0.00450971 0)
(0.984733 -0.000460326 0)
(1.03426 -0.00066605 0)
(0.986787 -0.000363546 0)
(0.989818 -0.00866426 0)
(1.01699 -0.00921923 0)
(0.992572 -0.011455 0)
(1.03381 -0.0138153 0)
(0.975768 0.00119206 0)
(1.01597 -0.00706388 0)
(0.997349 -0.0039352 0)
(0.975529 -0.000119303 0)
(1.00892 -0.0101113 0)
(0.998869 -0.0118976 0)
(0.999455 -0.0157048 0)
(1.01945 -0.00629364 0)
(0.982288 0.00324278 0)
(1.01189 -0.0101027 0)
(0.987833 0.0012535 0)
(0.984077 0.00370547 0)
(1.00789 -0.0193629 0)
(1.0085 -0.00682201 0)
(0.995331 -0.0197629 0)
(1.01752 -0.00654741 0)
(0.983995 0.00439423 0)
(1.01732 -0.00902809 0)
(0.973068 -0.00616884 0)
(0.987431 0.00172493 0)
(1.01303 -0.0246283 0)
(0.998229 -0.00116921 0)
(1.01534 -0.0211852 0)
(0.986908 0.00278017 0)
(1.00509 0.000805244 0)
(1.00685 0.00200656 0)
(0.979066 -0.00180155 0)
(1.00488 -0.000501571 0)
(1.00351 -0.0310916 0)
(1.00723 -0.0025743 0)
(1.01385 -0.019706 0)
(0.98783 0.00219796 0)
(1.00564 -0.0125653 0)
(1.00561 0.0144286 0)
(0.97633 -0.0122267 0)
(1.0098 -0.00633818 0)
(0.999461 -0.0262253 0)
(1.00734 0.00333798 0)
(1.01185 -0.0188215 0)
(0.99524 0.0147451 0)
(1.01509 -0.0137072 0)
(0.998582 0.0304537 0)
(0.976829 -0.00437166 0)
(1.01373 -0.0224367 0)
(0.991607 -0.0289242 0)
(1.00859 -0.00366322 0)
(1.00054 -0.0239556 0)
(1.00354 0.00393505 0)
(1.01772 -0.021961 0)
(0.97981 0.0525899 0)
(0.962405 -0.0240048 0)
(1.03784 -0.0233587 0)
(0.892668 -0.00644673 0)
(1.03056 -0.00692205 0)
(0.868789 -0.020233 0)
(0.999737 0.0144063 0)
(0.882431 -0.0128543 0)
(0.975634 0.0833471 0)
(0.882464 -0.0243756 0)
(1.34452 0.0149588 0)
(0.745294 0.0408079 0)
(0.84527 -0.170843 0)
(1.53612 -0.00367841 0)
(0.687866 0.0523318 0)
(1.16963 -0.150512 0)
(1.30832 -0.0587992 0)
(1.11616 0.0278221 0)
(0.955082 -0.0631614 0)
(1.74639 -0.0740762 0)
(0.767349 -0.0341852 0)
(2.22252 -0.0438526 0)
(0.753188 0.0358619 0)
(2.17304 -0.132583 0)
(1.5014 -0.0554136 0)
(2.55894 -0.0831513 0)
(1.82326 -0.0320158 0)
(2.87692 -0.0722992 0)
(2.14903 -0.0446323 0)
(3.22144 -0.0660295 0)
(2.39756 -0.0260811 0)
(3.46808 -0.0440792 0)
(2.51231 0.00394312 0)
(3.59875 -0.0346513 0)
(2.42668 0.0478668 0)
(3.60153 -0.0314859 0)
(2.12663 0.087719 0)
(3.39885 0.00266033 0)
(1.16291 -0.0160831 0)
(0.769271 0.197226 0)
(1.24835 -0.239075 0)
(0.8559 0.0637458 0)
(1.31966 0.127156 0)
(0.874566 -0.182331 0)
(1.28014 0.100162 0)
(0.916869 0.117012 0)
(1.33321 -0.254656 0)
(1.33901 0.153652 0)
(1.06978 -0.195776 0)
(1.75835 -0.0111324 0)
(1.32792 0.0847121 0)
(1.80393 -0.350991 0)
(1.6804 -0.080432 0)
(2.14267 -0.119946 0)
(2.01428 -0.13209 0)
(2.58553 -0.0940921 0)
(2.30986 -0.102077 0)
(2.97409 -0.113997 0)
(2.52442 -0.0271595 0)
(3.22472 -0.0716394 0)
(2.6475 -0.0117221 0)
(3.31298 0.0191656 0)
(2.58856 0.0236683 0)
(3.24752 0.0868046 0)
(2.34861 0.139263 0)
(2.99435 0.153826 0)
(0.932249 0.0249728 0)
(0.967162 0.0145949 0)
(1.21434 -0.166423 0)
(0.742733 -0.00653413 0)
(1.35992 0.0454113 0)
(0.815748 -0.130302 0)
(1.13393 -0.0284179 0)
(1.21523 -0.00339218 0)
(1.19025 -0.24004 0)
(1.05412 0.0845917 0)
(1.57775 -0.205792 0)
(1.29324 -0.229839 0)
(1.69425 0.0685892 0)
(1.6651 -0.371993 0)
(1.89234 -0.158027 0)
(1.98822 -0.274244 0)
(2.26816 -0.254953 0)
(2.36025 -0.213341 0)
(2.59358 -0.22287 0)
(2.79268 -0.204807 0)
(2.76217 -0.100596 0)
(3.11207 -0.145535 0)
(2.84161 -0.000498736 0)
(3.21201 -0.0292718 0)
(2.80081 0.112257 0)
(3.07363 0.0638922 0)
(2.61581 0.261442 0)
(2.78148 0.181503 0)
(1.00312 0.0253076 0)
(1.10869 0.0371255 0)
(1.03353 -0.151698 0)
(0.991544 -0.024814 0)
(1.10197 0.0850865 0)
(1.12006 -0.0955848 0)
(1.08444 -0.0908838 0)
(1.1321 0.0496874 0)
(1.35551 -0.172776 0)
(0.991984 -0.0536575 0)
(1.62651 -0.280298 0)
(1.12217 -0.13395 0)
(1.72255 -0.0328131 0)
(1.71855 -0.485269 0)
(1.87201 -0.19749 0)
(2.02383 -0.342927 0)
(2.28244 -0.303323 0)
(2.35502 -0.273167 0)
(2.70615 -0.29701 0)
(2.6908 -0.234989 0)
(2.94703 -0.145154 0)
(2.97502 -0.155975 0)
(3.0171 -0.0113311 0)
(3.10439 0.00319343 0)
(2.94012 0.129031 0)
(3.02055 0.157598 0)
(2.73806 0.31443 0)
(2.78416 0.283377 0)
(1.00404 -0.0195308 0)
(1.1233 0.0153486 0)
(1.09144 -0.099693 0)
(1.014 -0.0430618 0)
(1.08069 0.0103975 0)
(1.15586 -0.125557 0)
(1.07199 -0.0308425 0)
(1.21987 -0.121686 0)
(1.19067 -0.171683 0)
(1.26368 -0.0853723 0)
(1.34366 -0.240291 0)
(1.27632 -0.320618 0)
(1.62954 -0.197439 0)
(1.6932 -0.460703 0)
(1.70007 -0.305189 0)
(2.10052 -0.469819 0)
(2.15555 -0.432212 0)
(2.45466 -0.413333 0)
(2.61527 -0.396836 0)
(2.75616 -0.311099 0)
(2.96484 -0.227048 0)
(2.99762 -0.194388 0)
(3.10828 -0.0264118 0)
(3.10146 -0.000379466 0)
(3.05377 0.160623 0)
(3.04429 0.197054 0)
(2.84783 0.362722 0)
(2.80832 0.356486 0)
(1.01452 -0.0113143 0)
(1.06506 0.00183478 0)
(1.09067 -0.0996474 0)
(0.959765 -0.0320091 0)
(1.11726 0.0190413 0)
(1.08214 -0.113219 0)
(1.0589 -0.10676 0)
(1.22081 -0.0348866 0)
(1.13513 -0.172275 0)
(1.22478 -0.167358 0)
(1.3216 -0.249557 0)
(1.32926 -0.297513 0)
(1.5051 -0.248748 0)
(1.65308 -0.498371 0)
(1.78978 -0.45782 0)
(2.0982 -0.533442 0)
(2.14805 -0.510283 0)
(2.50082 -0.497047 0)
(2.60926 -0.471756 0)
(2.84904 -0.382738 0)
(2.96867 -0.301776 0)
(3.06706 -0.21886 0)
(3.13175 -0.0518585 0)
(3.15915 0.00901648 0)
(3.11228 0.185095 0)
(3.09404 0.245405 0)
(2.94022 0.431296 0)
(2.85133 0.453099 0)
(1.00999 -0.0247256 0)
(1.04611 -0.0215089 0)
(1.05053 -0.045669 0)
(0.977608 -0.0572846 0)
(1.03483 -0.0423186 0)
(1.09848 -0.0889193 0)
(1.03351 -0.101042 0)
(1.12667 -0.144391 0)
(1.16367 -0.161109 0)
(1.19704 -0.191954 0)
(1.25551 -0.261189 0)
(1.32171 -0.425026 0)
(1.47563 -0.387531 0)
(1.61042 -0.53114 0)
(1.76997 -0.599522 0)
(2.00989 -0.609293 0)
(2.17297 -0.648197 0)
(2.52753 -0.661723 0)
(2.60964 -0.579009 0)
(2.84356 -0.479501 0)
(2.9133 -0.376437 0)
(3.00284 -0.245198 0)
(3.06368 -0.0868802 0)
(3.06574 0.0150415 0)
(3.045 0.195355 0)
(3.02807 0.288004 0)
(2.89748 0.463944 0)
(2.85399 0.520952 0)
(1.00213 -0.0260842 0)
(1.02944 -0.0139212 0)
(1.02054 -0.0605872 0)
(1.01241 -0.0365484 0)
(1.02077 -0.0308463 0)
(1.02986 -0.124622 0)
(1.08005 -0.122053 0)
(1.07426 -0.104292 0)
(1.12352 -0.207805 0)
(1.16426 -0.23891 0)
(1.24676 -0.301687 0)
(1.33411 -0.391914 0)
(1.38775 -0.443036 0)
(1.59343 -0.613341 0)
(1.75816 -0.699711 0)
(1.9771 -0.717877 0)
(2.23464 -0.792878 0)
(2.45946 -0.754788 0)
(2.50816 -0.625288 0)
(2.70514 -0.539251 0)
(2.7056 -0.410365 0)
(2.81303 -0.259214 0)
(2.80716 -0.100195 0)
(2.84388 0.0179181 0)
(2.80991 0.223182 0)
(2.81522 0.3211 0)
(2.71618 0.503759 0)
(2.70874 0.595805 0)
(1.02654 -0.0362241 0)
(0.996605 -0.0276117 0)
(1.0462 -0.0363874 0)
(0.999555 -0.0554752 0)
(1.01688 -0.0538759 0)
(1.06039 -0.107704 0)
(1.00953 -0.127138 0)
(1.07446 -0.164657 0)
(1.11932 -0.190074 0)
(1.11851 -0.25711 0)
(1.19675 -0.344423 0)
(1.28133 -0.481743 0)
(1.36771 -0.541629 0)
(1.53297 -0.66677 0)
(1.74221 -0.821222 0)
(1.9749 -0.874933 0)
(2.16361 -0.888818 0)
(2.21481 -0.811097 0)
(2.30297 -0.681031 0)
(2.39285 -0.592058 0)
(2.39045 -0.424088 0)
(2.42982 -0.268423 0)
(2.46223 -0.120868 0)
(2.44227 0.0311509 0)
(2.47694 0.227365 0)
(2.45066 0.326799 0)
(2.40651 0.530063 0)
(2.4284 0.615477 0)
(1.01722 -0.0337462 0)
(0.974155 -0.0221886 0)
(1.03187 -0.0592939 0)
(0.98961 -0.0295463 0)
(1.02423 -0.0546008 0)
(1.0053 -0.124344 0)
(1.01406 -0.126094 0)
(1.04223 -0.159328 0)
(1.03725 -0.227174 0)
(1.0829 -0.28533 0)
(1.1848 -0.380891 0)
(1.20928 -0.462123 0)
(1.28101 -0.608284 0)
(1.53277 -0.804358 0)
(1.70163 -0.943277 0)
(1.82644 -0.947167 0)
(1.87731 -0.903965 0)
(1.90132 -0.820776 0)
(1.98471 -0.711618 0)
(1.97091 -0.586198 0)
(1.94839 -0.406933 0)
(2.01641 -0.287464 0)
(2.01027 -0.124193 0)
(2.01878 0.0441206 0)
(2.03569 0.221766 0)
(2.03166 0.339125 0)
(2.01898 0.548344 0)
(2.05126 0.629048 0)
(0.976787 -0.0234635 0)
(0.99523 -0.03385 0)
(1.00297 -0.0420728 0)
(0.961554 -0.0497671 0)
(1.0393 -0.0660313 0)
(0.977692 -0.0915081 0)
(0.992822 -0.153419 0)
(1.01783 -0.174604 0)
(1.00424 -0.203339 0)
(1.06451 -0.332977 0)
(1.07416 -0.408997 0)
(1.13531 -0.518804 0)
(1.30376 -0.711109 0)
(1.45175 -0.87665 0)
(1.52055 -0.972402 0)
(1.54695 -0.969505 0)
(1.5872 -0.926818 0)
(1.57066 -0.850602 0)
(1.57262 -0.709081 0)
(1.50149 -0.570603 0)
(1.5255 -0.427688 0)
(1.5567 -0.308003 0)
(1.50785 -0.121867 0)
(1.52749 0.0468726 0)
(1.55439 0.206471 0)
(1.55641 0.342907 0)
(1.58541 0.537087 0)
(1.63204 0.626442 0)
(0.984361 -0.0165048 0)
(1.0076 -0.0364915 0)
(0.972155 -0.0370486 0)
(0.985252 -0.0541673 0)
(1.00026 -0.0581509 0)
(0.981108 -0.101161 0)
(0.990892 -0.14408 0)
(0.958807 -0.162585 0)
(0.99687 -0.246703 0)
(1.01597 -0.322577 0)
(0.995138 -0.408519 0)
(1.0928 -0.573494 0)
(1.21092 -0.78595 0)
(1.27942 -0.932475 0)
(1.29134 -0.99603 0)
(1.26114 -0.971281 0)
(1.22359 -0.907462 0)
(1.12281 -0.79701 0)
(1.11232 -0.66425 0)
(1.04818 -0.573436 0)
(1.05215 -0.43264 0)
(0.977723 -0.257716 0)
(0.962774 -0.0852728 0)
(1.02014 0.0208969 0)
(1.03874 0.185807 0)
(1.0208 0.353569 0)
(1.09091 0.525714 0)
(1.14669 0.600987 0)
(1.01612 -0.0171606 0)
(0.995573 -0.0235011 0)
(0.979289 -0.0336245 0)
(0.980979 -0.0609281 0)
(0.973524 -0.0629765 0)
(0.980734 -0.0869843 0)
(0.962745 -0.141207 0)
(0.928278 -0.1744 0)
(0.97369 -0.231922 0)
(0.928037 -0.326835 0)
(0.932032 -0.449351 0)
(1.04044 -0.624324 0)
(1.10613 -0.80455 0)
(1.06399 -0.908725 0)
(0.996537 -0.956049 0)
(0.890857 -0.92549 0)
(0.82937 -0.86324 0)
(0.704151 -0.788461 0)
(0.667885 -0.652445 0)
(0.527125 -0.52758 0)
(0.50107 -0.399687 0)
(0.461004 -0.274401 0)
(0.472133 -0.130421 0)
(0.457834 0.0256022 0)
(0.439138 0.215172 0)
(0.493444 0.329446 0)
(0.605177 0.465883 0)
(0.630634 0.588119 0)
(1.01818 -0.0191974 0)
(0.982199 -0.0156408 0)
(0.990457 -0.0302125 0)
(0.979578 -0.0468423 0)
(0.964969 -0.0607896 0)
(0.953044 -0.0915468 0)
(0.954015 -0.116773 0)
(0.910603 -0.166936 0)
(0.927338 -0.245693 0)
(0.885697 -0.298383 0)
(0.874472 -0.458671 0)
(0.941618 -0.660435 0)
(0.907728 -0.812153 0)
(0.785377 -0.878765 0)
(0.684845 -0.902892 0)
(0.544145 -0.872049 0)
(0.406436 -0.796365 0)
(0.231248 -0.708478 0)
(0.165703 -0.59122 0)
(0.0324941 -0.487663 0)
(-0.0344397 -0.371659 0)
(-0.119565 -0.234796 0)
(-0.126021 -0.0960731 0)
(-0.145145 0.0327016 0)
(-0.0957441 0.165854 0)
(-0.0463597 0.282993 0)
(0.0346327 0.447986 0)
(0.0949782 0.550973 0)
(1.01496 -0.0211193 0)
(0.97728 -0.00737696 0)
(0.98171 -0.033609 0)
(0.97744 -0.0456357 0)
(0.953689 -0.050488 0)
(0.947155 -0.0836923 0)
(0.916289 -0.114677 0)
(0.898918 -0.161234 0)
(0.875377 -0.214392 0)
(0.813947 -0.299573 0)
(0.831717 -0.475913 0)
(0.810159 -0.634428 0)
(0.69081 -0.734936 0)
(0.524679 -0.809632 0)
(0.34628 -0.836798 0)
(0.146317 -0.780934 0)
(-0.0140585 -0.714771 0)
(-0.227987 -0.650786 0)
(-0.333637 -0.539959 0)
(-0.485951 -0.433872 0)
(-0.579023 -0.332388 0)
(-0.668424 -0.218547 0)
(-0.686381 -0.0987543 0)
(-0.701906 0.026728 0)
(-0.662524 0.156876 0)
(-0.624978 0.262967 0)
(-0.5046 0.397684 0)
(-0.427069 0.47688 0)
(0.99619 -0.0222515 0)
(0.969626 0.00106868 0)
(0.992472 -0.0268829 0)
(0.954051 -0.0318932 0)
(0.953352 -0.0471304 0)
(0.918745 -0.0719096 0)
(0.907323 -0.0918043 0)
(0.876539 -0.148702 0)
(0.814362 -0.197489 0)
(0.774532 -0.273467 0)
(0.748593 -0.455691 0)
(0.630536 -0.591491 0)
(0.440054 -0.666114 0)
(0.250598 -0.700289 0)
(-0.00767966 -0.713872 0)
(-0.239691 -0.684652 0)
(-0.418727 -0.611397 0)
(-0.681194 -0.546333 0)
(-0.831975 -0.458336 0)
(-1.00469 -0.368907 0)
(-1.1106 -0.281087 0)
(-1.20885 -0.183033 0)
(-1.23517 -0.0825172 0)
(-1.25169 0.0228127 0)
(-1.20843 0.12466 0)
(-1.15437 0.221905 0)
(-1.03781 0.33497 0)
(-0.933412 0.408805 0)
(0.981937 -0.0173555 0)
(0.967531 -0.00268699 0)
(0.984124 -0.0218208 0)
(0.951956 -0.0241794 0)
(0.941825 -0.0349767 0)
(0.911803 -0.0589992 0)
(0.88008 -0.0876049 0)
(0.860464 -0.115422 0)
(0.777824 -0.157821 0)
(0.719705 -0.265008 0)
(0.650306 -0.398853 0)
(0.449096 -0.481977 0)
(0.188993 -0.558145 0)
(-0.0688449 -0.593098 0)
(-0.339326 -0.593408 0)
(-0.625325 -0.57151 0)
(-0.845044 -0.504458 0)
(-1.10937 -0.445216 0)
(-1.29971 -0.370351 0)
(-1.49026 -0.29518 0)
(-1.60969 -0.22437 0)
(-1.7172 -0.146398 0)
(-1.74359 -0.0633551 0)
(-1.76823 0.0191702 0)
(-1.71579 0.103279 0)
(-1.66101 0.17822 0)
(-1.53012 0.261095 0)
(-1.39894 0.324713 0)
(0.967695 -0.0162616 0)
(0.975765 0.00343032 0)
(0.971567 -0.0183571 0)
(0.946344 -0.0136723 0)
(0.928424 -0.0294539 0)
(0.910356 -0.0422032 0)
(0.86472 -0.0647256 0)
(0.823723 -0.101206 0)
(0.746573 -0.119395 0)
(0.679063 -0.216563 0)
(0.519836 -0.323408 0)
(0.275597 -0.3622 0)
(-0.00792847 -0.410161 0)
(-0.355254 -0.437098 0)
(-0.654627 -0.446458 0)
(-0.991666 -0.428685 0)
(-1.26006 -0.375409 0)
(-1.52698 -0.329639 0)
(-1.73927 -0.275042 0)
(-1.94153 -0.223015 0)
(-2.07193 -0.169544 0)
(-2.19042 -0.1103 0)
(-2.21601 -0.0498308 0)
(-2.24977 0.01313 0)
(-2.18434 0.0735265 0)
(-2.13499 0.134199 0)
(-1.98584 0.192284 0)
(-1.84719 0.248275 0)
(0.955381 -0.00396789 0)
(0.973246 0.000319696 0)
(0.951237 -0.00608469 0)
(0.935115 -0.0059991 0)
(0.921729 -0.0154239 0)
(0.887454 -0.0260844 0)
(0.859895 -0.0379219 0)
(0.784538 -0.0541645 0)
(0.70913 -0.0803283 0)
(0.616783 -0.142037 0)
(0.392828 -0.202472 0)
(0.112159 -0.231314 0)
(-0.187425 -0.257991 0)
(-0.560331 -0.27712 0)
(-0.915885 -0.282731 0)
(-1.29877 -0.264433 0)
(-1.61425 -0.228223 0)
(-1.91279 -0.193809 0)
(-2.13576 -0.161891 0)
(-2.34907 -0.130329 0)
(-2.48421 -0.0987545 0)
(-2.5987 -0.0647778 0)
(-2.63211 -0.0261949 0)
(-2.65315 0.00628584 0)
(-2.59597 0.0468531 0)
(-2.52858 0.0784757 0)
(-2.37972 0.11527 0)
(-2.22704 0.146255 0)
(0.911767 -0.0042568 0)
(0.937178 0.00479688 0)
(0.905701 -0.0038528 0)
(0.903771 -0.00120153 0)
(0.89264 -0.00883296 0)
(0.855361 -0.00992794 0)
(0.823433 -0.0141702 0)
(0.75795 -0.0262648 0)
(0.6637 -0.0292466 0)
(0.548016 -0.0667959 0)
(0.243701 -0.0725951 0)
(-0.0236502 -0.0686006 0)
(-0.361686 -0.0759364 0)
(-0.715457 -0.0823455 0)
(-1.0993 -0.0949551 0)
(-1.49841 -0.0917881 0)
(-1.81911 -0.0846164 0)
(-2.12982 -0.0734612 0)
(-2.36524 -0.0617876 0)
(-2.59128 -0.0526664 0)
(-2.74423 -0.0420031 0)
(-2.87275 -0.0279434 0)
(-2.91655 -0.0158031 0)
(-2.94719 0.000568762 0)
(-2.89425 0.0110579 0)
(-2.83281 0.0279306 0)
(-2.68185 0.0403067 0)
(-2.52509 0.0570775 0)
(1.63928 0.265678 0)
(2.57894 0.310071 0)
(1.31316 0.344783 0)
(1.38942 0.146307 0)
(1.28199 0.007674 0)
(1.06647 -0.367519 0)
(1.206 -0.858343 0)
(0.521257 -0.839236 0)
(2.06696 0.502844 0)
(2.58945 0.27086 0)
(2.02093 0.506442 0)
(2.1354 0.250918 0)
(1.78919 -0.0838977 0)
(1.6562 -0.217897 0)
(1.46737 -0.471617 0)
(1.3848 -0.759431 0)
(2.36147 0.451313 0)
(2.43902 0.365576 0)
(2.27505 0.426038 0)
(2.10691 0.351419 0)
(2.30268 0.119786 0)
(1.29249 -0.0577791 0)
(1.64729 -0.597153 0)
(0.357595 -0.310435 0)
(2.46527 0.510501 0)
(2.48561 0.426897 0)
(2.33336 0.554632 0)
(2.16344 0.352523 0)
(2.1759 0.303301 0)
(1.67976 0.0506965 0)
(1.54867 -0.0745167 0)
(0.473765 0.268717 0)
(2.50927 0.534837 0)
(2.48529 0.496647 0)
(2.26233 0.582511 0)
(2.23271 0.446679 0)
(1.97056 0.386463 0)
(1.92685 0.185326 0)
(1.31756 0.171616 0)
(1.21364 -0.0887053 0)
(2.60407 0.62605 0)
(2.49527 0.578385 0)
(2.24755 0.638128 0)
(2.16974 0.536618 0)
(1.94134 0.458136 0)
(1.83799 0.340845 0)
(1.45334 0.270945 0)
(1.36125 0.301894 0)
(2.62355 0.682156 0)
(2.53421 0.680189 0)
(2.22146 0.721364 0)
(2.13361 0.628422 0)
(1.89231 0.570322 0)
(1.75072 0.421582 0)
(1.46201 0.444465 0)
(1.29532 0.306342 0)
(2.53891 0.732107 0)
(2.50341 0.772516 0)
(2.22247 0.79874 0)
(2.12043 0.721394 0)
(1.87788 0.663392 0)
(1.7198 0.514622 0)
(1.42521 0.536738 0)
(1.33355 0.379072 0)
(2.29727 0.781418 0)
(2.33324 0.834155 0)
(2.13153 0.891375 0)
(2.05492 0.81054 0)
(1.84973 0.783481 0)
(1.67916 0.62804 0)
(1.42977 0.62764 0)
(1.32401 0.493921 0)
(1.97627 0.791641 0)
(2.06335 0.847767 0)
(1.93804 0.929826 0)
(1.92494 0.862038 0)
(1.76255 0.864847 0)
(1.64605 0.72143 0)
(1.42845 0.722524 0)
(1.32373 0.569217 0)
(1.59428 0.798833 0)
(1.70601 0.852565 0)
(1.66155 0.954133 0)
(1.69422 0.908963 0)
(1.62066 0.906418 0)
(1.55651 0.772099 0)
(1.41976 0.769995 0)
(1.33199 0.610148 0)
(1.19317 0.773416 0)
(1.29666 0.802526 0)
(1.31542 0.943396 0)
(1.4296 0.916944 0)
(1.38861 0.953985 0)
(1.36573 0.824368 0)
(1.3432 0.825449 0)
(1.31033 0.677646 0)
(0.74302 0.759078 0)
(0.834352 0.757058 0)
(0.941341 0.891296 0)
(1.0988 0.85685 0)
(1.14804 0.924531 0)
(1.15274 0.789541 0)
(1.18173 0.816418 0)
(1.22406 0.692728 0)
(0.290162 0.681644 0)
(0.376701 0.699829 0)
(0.516807 0.86873 0)
(0.698414 0.83124 0)
(0.833145 0.922922 0)
(0.915046 0.757453 0)
(1.00339 0.779462 0)
(1.08705 0.670375 0)
(-0.196824 0.603735 0)
(-0.115928 0.60699 0)
(0.145507 0.742733 0)
(0.275271 0.689787 0)
(0.51638 0.85993 0)
(0.615635 0.696482 0)
(0.768993 0.767524 0)
(0.913032 0.635985 0)
(-0.677351 0.528393 0)
(-0.625001 0.552147 0)
(-0.274634 0.688033 0)
(-0.18 0.61883 0)
(0.159104 0.768048 0)
(0.279579 0.566243 0)
(0.544766 0.674648 0)
(0.720286 0.545618 0)
(-1.15768 0.418015 0)
(-1.06155 0.407786 0)
(-0.602674 0.508067 0)
(-0.618334 0.485747 0)
(-0.162904 0.661402 0)
(-0.0631113 0.483017 0)
(0.266897 0.587456 0)
(0.497886 0.426414 0)
(-1.62001 0.319173 0)
(-1.46523 0.316795 0)
(-1.06905 0.440074 0)
(-1.06196 0.418094 0)
(-0.409086 0.479384 0)
(-0.340171 0.319523 0)
(0.0760871 0.440442 0)
(0.273268 0.300633 0)
(-2.00275 0.179784 0)
(-1.79447 0.179792 0)
(-1.4377 0.253667 0)
(-1.29539 0.203504 0)
(-0.660523 0.261773 0)
(-0.726148 0.252575 0)
(-0.145708 0.291837 0)
(0.0356849 0.160931 0)
(-2.29584 0.0737717 0)
(-2.04977 0.0802038 0)
(-1.73591 0.116172 0)
(-1.46029 0.098145 0)
(-0.984258 0.124124 0)
(-0.848299 0.0970859 0)
(-0.192202 0.0479023 0)
(-0.217771 0.0275632 0)