/*--------------------------------*- C++ -*----------------------------------*\
| =========                 |                                                 |
| \\      /  F ield         | OpenFOAM: The Open Source CFD Toolbox           |
|  \\    /   O peration     | Version:  2.4.0                                 |
|   \\  /    A nd           | Web:      www.OpenFOAM.org                      |
|    \\/     M anipulation  |                                                 |
\*---------------------------------------------------------------------------*/
FoamFile
{
    version     2.0;
    format      ascii;
    class       volScalarField;
    location    "2.25";
    object      epsilon;
}
// * * * * * * * * * * * * * * * * * * * * * * * * * * * * * * * * * * * * * //

dimensions      [0 2 -3 0 0 0 0];

internalField   nonuniform List<scalar> 
6000
(
0.995037
0.382865
0.0492847
0.00536727
0.00131489
0.00294082
0.0020286
0.00363114
0.00574287
0.0103965
0.0237118
0.052595
0.0737265
0.077951
0.06184
0.0390523
0.0315704
0.0368527
0.0379295
0.0754383
0.123355
0.1536
0.158687
0.144809
0.1213
0.0963362
0.0741862
0.0553813
0.039914
0.0274776
0.0178844
0.00994539
0.00467915
0.00477132
0.00680653
0.00947497
0.0122218
0.0145806
0.0163831
0.0176546
0.0187352
0.0199228
0.0214079
0.0233169
0.0257854
0.0289947
0.033127
0.0384024
0.0451103
0.0536465
0.0645629
0.078654
0.0970468
0.121502
0.154383
0.200452
0.263686
0.364191
0.488737
0.770056
0.558252
0.356275
0.0228611
0.00530333
0.000639446
0.0010942
0.00132443
0.00218773
0.00360715
0.00617663
0.0129619
0.0236349
0.0278836
0.0242473
0.0222495
0.0187408
0.0165489
0.0461134
0.12159
0.094432
0.0566175
0.0401242
0.030214
0.0231968
0.0188002
0.0164038
0.0142312
0.0122185
0.0102835
0.00833888
0.00632943
0.00430077
0.00266335
0.00200933
0.00177883
0.00177583
0.0019469
0.00222812
0.00255495
0.00291672
0.00323778
0.00352216
0.00381147
0.00415454
0.00459115
0.00513907
0.00582809
0.00669461
0.00778475
0.00915956
0.0109028
0.0131317
0.0160162
0.0197992
0.0248662
0.0317366
0.0414676
0.0550445
0.0766833
0.109747
0.416717
0.41213
0.0305478
0.00368754
0.000581876
0.000840603
0.00131037
0.00208775
0.00351406
0.00590614
0.0115775
0.0206319
0.0243056
0.0198086
0.0164364
0.0140387
0.0208769
0.080587
0.0964024
0.0439408
0.022007
0.0147951
0.0115478
0.0101458
0.00979174
0.00976667
0.00966302
0.00938955
0.00884807
0.00793312
0.00657746
0.00486655
0.00314903
0.00206542
0.00140955
0.00100303
0.000793142
0.000718899
0.000726748
0.000785477
0.000860831
0.000933256
0.00100364
0.0010829
0.00118354
0.00130742
0.0014605
0.00165033
0.00188613
0.00217969
0.00254679
0.00300876
0.00359668
0.00435132
0.00534524
0.0066427
0.00848451
0.0107814
0.0147789
0.0184823
0.367356
0.406543
0.0516482
0.00235177
0.000615316
0.000808876
0.0013636
0.00215694
0.00363792
0.00599981
0.0110313
0.0196256
0.0245362
0.0200257
0.016144
0.0150756
0.0310368
0.0911084
0.0614548
0.0229641
0.0122674
0.00931708
0.00850562
0.0085822
0.00908181
0.00961998
0.0100103
0.0101486
0.00991686
0.0091827
0.00784863
0.00597756
0.00392576
0.00254676
0.00165631
0.00105768
0.000694419
0.000499784
0.000410275
0.000380625
0.000381573
0.000393384
0.000409497
0.000430745
0.000459722
0.000496124
0.000541027
0.000596079
0.000663396
0.000745701
0.000846629
0.000970974
0.00112565
0.00131912
0.00156727
0.00187959
0.0023134
0.00280858
0.00370042
0.00422222
0.343013
0.376414
0.0740593
0.00200695
0.000671716
0.000825497
0.00141073
0.00223726
0.00374222
0.0060427
0.0104614
0.0183036
0.0247616
0.02085
0.0169405
0.017836
0.042769
0.082884
0.0387969
0.0145408
0.00917978
0.00820075
0.00838587
0.00905885
0.0099302
0.0107324
0.0113275
0.0116076
0.0114504
0.0107112
0.00927135
0.00717039
0.00477628
0.00314363
0.00205585
0.001299
0.000807693
0.000519127
0.000366464
0.000293358
0.000263211
0.000253092
0.000252639
0.000258279
0.000268931
0.000283612
0.000302199
0.000324925
0.000352303
0.000385138
0.000424601
0.000472263
0.000530415
0.000601733
0.00069142
0.000801902
0.00095248
0.00111961
0.0014187
0.00160324
0.329443
0.340282
0.0972691
0.00320935
0.000756115
0.000853443
0.00143527
0.00228419
0.00376307
0.00593932
0.00978174
0.0164336
0.0241058
0.0214773
0.0179871
0.0214456
0.0530043
0.067204
0.0259237
0.010917
0.0083881
0.00843238
0.00917685
0.010211
0.011318
0.0122716
0.0129516
0.0132585
0.0130797
0.0122702
0.0106955
0.00836999
0.00566067
0.00378084
0.00250087
0.00160508
0.000999442
0.000618588
0.000402018
0.00028954
0.000235708
0.000211515
0.000202198
0.000201081
0.000205152
0.000212707
0.000223007
0.000235768
0.000251008
0.000268991
0.000290242
0.000315528
0.000346012
0.000383038
0.000429323
0.000486097
0.000563671
0.000651036
0.00081304
0.000946016
0.321266
0.305804
0.114426
0.00859135
0.000920412
0.000885694
0.00143852
0.00228703
0.00369221
0.00569415
0.00901565
0.0143586
0.0223917
0.0217454
0.0190559
0.025576
0.0586025
0.0520228
0.0186887
0.00939611
0.00855199
0.00924801
0.0104044
0.0117137
0.0129921
0.0140285
0.0147173
0.0149784
0.0147195
0.0138045
0.0120878
0.00955542
0.00656846
0.00444551
0.00296101
0.0019306
0.001227
0.000760962
0.000477522
0.000321366
0.000242029
0.00020365
0.000186384
0.000180328
0.000180654
0.000184845
0.000191657
0.000200477
0.000211071
0.000223486
0.000238016
0.000255168
0.000275776
0.000300804
0.000332332
0.000371262
0.000426026
0.000488246
0.000615381
0.000733237
0.315835
0.275727
0.126276
0.0183596
0.00128685
0.00092825
0.00143122
0.00225375
0.00355232
0.00535961
0.00823159
0.0124691
0.0198219
0.02176
0.0201165
0.0299746
0.0593237
0.0400278
0.0145548
0.00893635
0.00919511
0.0104045
0.0119188
0.0134633
0.0148705
0.015935
0.0165706
0.0167252
0.0163377
0.0152891
0.0134273
0.010708
0.00748813
0.00513578
0.0034334
0.00225768
0.00146563
0.000927689
0.000579937
0.00037621
0.000267323
0.000212213
0.000185759
0.000174486
0.000171523
0.000173311
0.000178057
0.000184838
0.000193225
0.000203118
0.000214684
0.000228306
0.000244682
0.000264634
0.000290048
0.000321705
0.000367659
0.000420112
0.000535646
0.000646617
0.311904
0.250629
0.13356
0.0308178
0.00214665
0.000997703
0.00142898
0.00220406
0.00338344
0.00500918
0.00753454
0.0109865
0.0168835
0.0217247
0.0212176
0.0343637
0.0564019
0.0312023
0.0121763
0.00906698
0.0101319
0.0118088
0.0136616
0.0154177
0.0169169
0.0179595
0.0184837
0.0184746
0.017912
0.0167031
0.0146934
0.0118072
0.00840456
0.00584605
0.00392165
0.00258443
0.00170135
0.00110401
0.000700539
0.000449233
0.000307066
0.000231984
0.000194282
0.000176676
0.000169959
0.000169308
0.000172277
0.000177596
0.000184636
0.000193159
0.000203225
0.000215126
0.000229475
0.000247019
0.000269572
0.000297858
0.000339975
0.000388038
0.000499971
0.000606713
0.308908
0.2302
0.137004
0.0442909
0.00423404
0.0011265
0.00144874
0.00216285
0.00322999
0.00471206
0.00700367
0.00996242
0.0141579
0.0217435
0.0224089
0.0383809
0.0511653
0.0248634
0.0108464
0.00955598
0.0112821
0.0134177
0.0156017
0.0175496
0.0191048
0.0200769
0.020434
0.0202058
0.0194233
0.0180276
0.0158665
0.0128325
0.00930078
0.00656497
0.00442605
0.00291533
0.0019297
0.0012786
0.00083068
0.000536001
0.000359078
0.000261176
0.000209932
0.000184499
0.000173147
0.000169574
0.000170562
0.00017444
0.000180352
0.000187916
0.000197082
0.000208053
0.000221363
0.000237697
0.000258828
0.000285445
0.000325766
0.000371712
0.000482656
0.000586373
0.30656
0.213813
0.137403
0.0569641
0.00889671
0.00137962
0.0015068
0.00215366
0.0031299
0.00451686
0.00667192
0.00929443
0.0121024
0.02166
0.0236803
0.0414578
0.0448259
0.0203395
0.0101808
0.0102832
0.0126058
0.0152041
0.017714
0.019833
0.0214077
0.0222622
0.0223993
0.0219
0.0208552
0.0192472
0.0169302
0.0137656
0.0101605
0.00727734
0.0049415
0.00325417
0.00215248
0.00144488
0.000962023
0.000631547
0.000421219
0.000298812
0.00023198
0.000197146
0.000180096
0.000172903
0.00017146
0.000173635
0.000178319
0.000184974
0.000193435
0.000203804
0.000216535
0.000232244
0.00025266
0.000278441
0.000317894
0.000362801
0.000473437
0.000574781
0.304684
0.200785
0.135557
0.0678744
0.0153988
0.00188233
0.00161974
0.00219402
0.00310846
0.00444888
0.00654144
0.00892288
0.0108037
0.0210712
0.024949
0.0428777
0.0384824
0.0171172
0.00995905
0.0111833
0.0140782
0.0171455
0.0199731
0.0222397
0.0237971
0.02449
0.0243584
0.0235402
0.0221944
0.0203506
0.017873
0.0145925
0.01097
0.00796677
0.00545883
0.00360123
0.00237362
0.00160104
0.00108789
0.000730189
0.000490563
0.000343666
0.000259877
0.000214256
0.000190444
0.000178866
0.000174441
0.000174518
0.000177709
0.000183308
0.000191029
0.000200876
0.00021321
0.000228571
0.000248628
0.000274005
0.000313035
0.000357441
0.000467743
0.000567074
0.303161
0.190484
0.132201
0.0765001
0.0231395
0.00290675
0.00180989
0.00229395
0.00317766
0.00451674
0.00660209
0.00881828
0.0101175
0.0195859
0.0260982
0.0424292
0.032753
0.0148325
0.0100477
0.0122186
0.0156804
0.0192195
0.0223521
0.0247404
0.0262444
0.0267353
0.0262915
0.0251121
0.0234311
0.0213309
0.0186876
0.0153042
0.0117193
0.00861797
0.00596687
0.00395324
0.00259621
0.00174853
0.00120426
0.00082644
0.000563438
0.00039391
0.000292784
0.000235409
0.000203926
0.000187253
0.000179298
0.000176849
0.000178213
0.000182512
0.000189338
0.000198593
0.000210548
0.000225659
0.00024552
0.000270712
0.000309527
0.000353705
0.000463414
0.000560924
0.301912
0.18237
0.127949
0.082693
0.0312898
0.00510417
0.00211781
0.00245771
0.00333888
0.00471641
0.00684105
0.00895297
0.00978924
0.0173239
0.0269915
0.0403059
0.0278532
0.0132329
0.0103626
0.0133655
0.0173956
0.021404
0.0248245
0.0273066
0.0287229
0.0289753
0.0281811
0.0266038
0.0245586
0.0221846
0.0193712
0.0159054
0.0123911
0.0092178
0.0064543
0.0043045
0.00282126
0.00189024
0.0013098
0.000915813
0.000635798
0.000447098
0.000329411
0.000259917
0.000220142
0.000197811
0.000185863
0.000180503
0.000179719
0.000182448
0.000188166
0.000196683
0.000208178
0.000223026
0.000242733
0.000267833
0.000306516
0.000350592
0.000459409
0.00055519
0.300878
0.175995
0.123286
0.0865595
0.0392926
0.00883374
0.0026227
0.00268825
0.00358658
0.00503866
0.00724705
0.00930564
0.00962771
0.0149723
0.0273011
0.0368624
0.0237985
0.0121432
0.0108487
0.014607
0.0192071
0.0236771
0.027365
0.0299124
0.0312087
0.0311901
0.0300123
0.028006
0.025573
0.0229115
0.0199242
0.0164072
0.0129701
0.0097561
0.0069109
0.00464815
0.00304767
0.00202892
0.00140512
0.000995303
0.000703765
0.000500384
0.000368047
0.000286788
0.000238483
0.00021015
0.000193886
0.000185329
0.000182134
0.000183054
0.000187452
0.000195053
0.000205957
0.000220461
0.000239984
0.000265004
0.000303566
0.000347584
0.000455236
0.000549332
0.300018
0.170997
0.118568
0.0883651
0.0466951
0.0140205
0.0034859
0.00299418
0.00391164
0.00547284
0.00781197
0.00987213
0.00963817
0.0130316
0.0262655
0.0327453
0.0205185
0.0114405
0.0114689
0.0159299
0.021099
0.0260182
0.029951
0.0325356
0.0336818
0.0333632
0.0317732
0.029312
0.0264726
0.023514
0.0203494
0.0168149
0.0134519
0.0102257
0.00732821
0.00497717
0.00327272
0.00216631
0.00149235
0.0010641
0.000764506
0.000551016
0.000406766
0.000314795
0.000258161
0.000223742
0.000203012
0.000191098
0.000185327
0.000184264
0.000187164
0.00019368
0.000203846
0.000217894
0.000237154
0.000262056
0.000300462
0.000344415
0.000450681
0.000543111
0.2993
0.167087
0.114039
0.0884627
0.0531032
0.0202359
0.00505857
0.00340069
0.0043043
0.00600785
0.0085298
0.0106594
0.00987572
0.0115035
0.0239747
0.0285531
0.0179141
0.011037
0.0121975
0.0173226
0.0230559
0.0284087
0.0325631
0.0351582
0.0361262
0.0354813
0.033454
0.0305168
0.0272575
0.0239959
0.0206525
0.0171343
0.0138359
0.0106217
0.00769972
0.00528509
0.00349278
0.00230289
0.00157408
0.00112306
0.000816448
0.000596665
0.000443629
0.000342584
0.000278264
0.000237955
0.0002128
0.000197507
0.000189103
0.000185969
0.000187255
0.000192553
0.000201844
0.000215311
0.000234209
0.00025892
0.000297108
0.000340958
0.000445666
0.000536438
0.298698
0.164036
0.109852
0.0872373
0.0582378
0.0269413
0.00766881
0.00396649
0.00475748
0.00663193
0.00939478
0.0116771
0.0103901
0.0103792
0.0209919
0.024673
0.0158846
0.0108691
0.0130158
0.0187741
0.0250629
0.0308318
0.0351855
0.0377658
0.0385297
0.0375341
0.0350473
0.0316171
0.0279292
0.0243628
0.0208416
0.017372
0.0141234
0.0109417
0.00802074
0.00556644
0.00370388
0.002438
0.00165248
0.00117402
0.000859278
0.000635701
0.000476906
0.000368807
0.000297838
0.000252113
0.000222761
0.000204208
0.000193224
0.000188019
0.000187645
0.000191642
0.000199952
0.000212726
0.000231153
0.000255586
0.000293473
0.000337163
0.000440178
0.000529301
0.298191
0.161662
0.106092
0.0850655
0.0619546
0.0336538
0.0113918
0.00481454
0.00527228
0.00733256
0.0103994
0.012933
0.0112156
0.00966067
0.0179473
0.0213082
0.0143388
0.0108901
0.0139097
0.0202742
0.0271061
0.0332728
0.0378048
0.0403474
0.0408824
0.0395131
0.0365469
0.0326104
0.02849
0.0246203
0.0209313
0.0175301
0.0143172
0.0111849
0.00828832
0.00581693
0.00390221
0.00257016
0.00172891
0.00121911
0.000893749
0.000667355
0.000505285
0.00039226
0.000315971
0.000265551
0.000232405
0.000210839
0.000197429
0.000190237
0.000188229
0.000190897
0.00019816
0.000210149
0.000228006
0.000252065
0.000289559
0.000333016
0.000434235
0.000521716
0.297764
0.159822
0.102792
0.0822871
0.0642371
0.0399315
0.0160688
0.00615412
0.00586791
0.00809711
0.0115326
0.0144309
0.0123743
0.00935053
0.0152886
0.0185324
0.0131986
0.011065
0.0148678
0.0218124
0.0291722
0.0357183
0.0404098
0.0428937
0.0431762
0.041411
0.0379472
0.033495
0.0289428
0.0247744
0.0209519
0.0175968
0.0144212
0.0113526
0.00850098
0.00603349
0.00408437
0.00269744
0.00180389
0.00126039
0.000921344
0.000691733
0.000528026
0.000412022
0.000331877
0.000277666
0.000241278
0.000217054
0.000201458
0.000192438
0.000188883
0.00019025
0.000196443
0.000207586
0.000224789
0.000248381
0.000285389
0.00032853
0.000427865
0.000513712
0.297403
0.158403
0.0999519
0.0791893
0.0651772
0.0454112
0.0214509
0.00817956
0.00659999
0.00891518
0.0127788
0.0161707
0.0138827
0.0094497
0.013225
0.0163392
0.0123991
0.0113673
0.0158802
0.0233786
0.0312486
0.0381562
0.0429903
0.0453964
0.0454034
0.0432205
0.0392429
0.0342691
0.0292908
0.0248311
0.0209173
0.0175769
0.0144408
0.0114473
0.00865862
0.0062142
0.00424765
0.00281778
0.00187725
0.00129941
0.000943861
0.000709657
0.000545003
0.000427551
0.000344974
0.00028797
0.000248997
0.000222554
0.000205078
0.000194441
0.000189479
0.000189621
0.000194761
0.00020503
0.000221517
0.000244562
0.00028099
0.000323729
0.000421105
0.000505324
0.297097
0.157315
0.0975482
0.0760001
0.0649464
0.0498275
0.0272033
0.0110315
0.00757466
0.00978324
0.0141166
0.0181466
0.0157545
0.00995529
0.0117905
0.014682
0.0118873
0.0117769
0.0169379
0.0249623
0.0333228
0.0405745
0.0455361
0.0478471
0.0475557
0.0449337
0.0404279
0.034931
0.0295369
0.0247976
0.0208374
0.0174774
0.0143822
0.0114728
0.0087623
0.0063582
0.00439
0.00292924
0.00194828
0.00133716
0.000963046
0.000722413
0.000556657
0.000438726
0.000354941
0.000296131
0.000255275
0.000227104
0.000208095
0.000196095
0.000189902
0.000188929
0.000193071
0.000202468
0.000218201
0.000240632
0.000276396
0.000318647
0.000413995
0.000496591
0.296838
0.15649
0.0955443
0.0728888
0.0637659
0.0530227
0.0329497
0.0147512
0.00893089
0.0107172
0.0155187
0.0203458
0.0180029
0.0108598
0.0109338
0.0134988
0.0116199
0.0122776
0.0180323
0.0265531
0.0353823
0.042961
0.0480367
0.0502358
0.0496235
0.0465412
0.0414955
0.0354784
0.0296841
0.0247004
0.0207024
0.0173049
0.0142522
0.0114337
0.00881408
0.00646554
0.00451014
0.00303014
0.00201601
0.00137403
0.000980337
0.000731463
0.000563848
0.000445826
0.000361715
0.000301992
0.000259943
0.000230545
0.000210371
0.000197276
0.000190051
0.0001881
0.000191324
0.000199879
0.000214843
0.000236612
0.000271638
0.000313318
0.000406578
0.000487552
0.296617
0.155871
0.0938974
0.0699722
0.0618767
0.0549468
0.0383168
0.0192509
0.0107947
0.0117878
0.016954
0.0227454
0.0206402
0.0121519
0.0105832
0.0127283
0.0115616
0.0128567
0.0191547
0.0281402
0.0374144
0.0453031
0.0504801
0.0525511
0.0515953
0.0480323
0.0424379
0.0359093
0.0297345
0.0245671
0.0205023
0.0170659
0.0140576
0.0113355
0.0088169
0.00653706
0.00460747
0.00311918
0.00207939
0.00140998
0.000996745
0.0007382
0.00056767
0.000449447
0.000365514
0.000305579
0.00026295
0.000232802
0.000211821
0.000197905
0.000189853
0.000187075
0.000189478
0.000197243
0.000211445
0.000232519
0.000266748
0.000307781
0.000398899
0.000478252
0.296429
0.155415
0.092563
0.0673224
0.0595155
0.0556468
0.0429737
0.0243186
0.0132766
0.0131067
0.0183938
0.0253084
0.0236769
0.0138192
0.010676
0.0123163
0.0116837
0.0135034
0.0202964
0.0297124
0.0394062
0.0475868
0.0528528
0.0547789
0.0534571
0.0493943
0.0432465
0.0362213
0.029691
0.0244104
0.0202398
0.0167668
0.0138056
0.011184
0.0087744
0.00657433
0.00468199
0.00319547
0.00213741
0.00144465
0.00101284
0.000743771
0.000569253
0.00045038
0.000366771
0.000307082
0.000264362
0.000233879
0.000212421
0.000197941
0.000189262
0.000185808
0.0001875
0.000194538
0.000208002
0.000228368
0.000261753
0.000302074
0.000391007
0.000468737
0.296267
0.155088
0.0914975
0.0649765
0.0568956
0.0552502
0.0466624
0.0296489
0.0164384
0.0147544
0.0198854
0.0279807
0.0271194
0.0158516
0.0111661
0.0122176
0.0119623
0.0142085
0.0214485
0.0312585
0.041344
0.0497974
0.0551392
0.0569018
0.0551929
0.0506129
0.0439122
0.0364127
0.0295914
0.0242061
0.0199185
0.0164141
0.013503
0.0109852
0.00869073
0.00657947
0.00473428
0.00325856
0.00218926
0.00147749
0.0010288
0.000748992
0.000569612
0.000449471
0.000366053
0.000306821
0.000264344
0.000233853
0.000212196
0.000197381
0.00018826
0.000184277
0.000185367
0.000191751
0.000204512
0.000224168
0.00025668
0.000296232
0.000382946
0.000459054
0.296129
0.154862
0.0906604
0.0629448
0.0541961
0.0539408
0.0492176
0.0348863
0.0202627
0.0168078
0.0214738
0.0306862
0.030965
0.0182481
0.0120207
0.0123964
0.0123778
0.0149636
0.0226018
0.0327669
0.0432136
0.0519186
0.0573216
0.058902
0.0567844
0.0516727
0.0444253
0.036482
0.0294654
0.0239399
0.0195424
0.0160139
0.013157
0.0107455
0.00857046
0.00655509
0.00476536
0.00330838
0.00223432
0.00150794
0.00104454
0.000754343
0.000569542
0.000447512
0.000363967
0.000305192
0.000263132
0.000232858
0.000211218
0.000196256
0.000186853
0.000182474
0.000183067
0.000188872
0.000200973
0.000219931
0.00025155
0.00029029
0.000374764
0.00044925
0.29601
0.154715
0.0900154
0.0612195
0.0515565
0.0519341
0.0505752
0.0396718
0.0246351
0.0193295
0.0232864
0.033327
0.035195
0.0210236
0.0132156
0.0128241
0.0129142
0.0157612
0.0237474
0.0342257
0.0449999
0.0539324
0.05938
0.0607579
0.058211
0.0525576
0.0447771
0.0364581
0.0292996
0.0236103
0.0191157
0.0155724
0.0127742
0.0104711
0.00841842
0.00650418
0.00477666
0.00334521
0.00227218
0.00153547
0.00105979
0.000760015
0.000569585
0.000445152
0.000361089
0.000302612
0.000261004
0.000231067
0.00020959
0.000194624
0.00018507
0.000180409
0.0001806
0.000185899
0.000197389
0.000215667
0.000246386
0.00028428
0.000366505
0.000439373
0.295907
0.154632
0.08953
0.0597805
0.0490768
0.049453
0.050768
0.0436846
0.029346
0.022348
0.0253529
0.0358894
0.0397635
0.0242151
0.0147318
0.0134787
0.0135582
0.0165947
0.0248767
0.035623
0.046687
0.0558194
0.0612917
0.062445
0.0594506
0.053251
0.0449595
0.0363896
0.0290612
0.0232186
0.0186431
0.0150956
0.0123614
0.0101685
0.00823962
0.00643002
0.00476991
0.00336963
0.00230271
0.00155966
0.0010742
0.000765979
0.00057004
0.000442864
0.0003579
0.000299477
0.000258241
0.00022867
0.000207435
0.000192562
0.000182956
0.000178106
0.000177977
0.000182838
0.000193763
0.000211385
0.000241206
0.000278231
0.00035821
0.000429467
0.295817
0.154597
0.0891766
0.0586009
0.0468214
0.0467073
0.0499122
0.046677
0.0341107
0.0258369
0.0277015
0.03837
0.0445835
0.0278845
0.016555
0.0143438
0.0142995
0.0174597
0.0259827
0.0369468
0.0482577
0.0575577
0.0630309
0.0639356
0.0604794
0.053737
0.0450168
0.0362541
0.0287415
0.0227671
0.0181291
0.0145892
0.0119248
0.00984365
0.00803907
0.00633608
0.0047471
0.00338251
0.00232603
0.00158022
0.00108744
0.00077207
0.000571007
0.000440939
0.000354762
0.00029612
0.000255108
0.000225857
0.000204884
0.000190158
0.000180567
0.000175598
0.000175218
0.000179699
0.000190105
0.000207097
0.00023603
0.00027217
0.000349917
0.000419575
0.295739
0.154601
0.0889312
0.0576507
0.0448249
0.0438792
0.0481862
0.0484965
0.0386031
0.029701
0.0303455
0.040806
0.0495087
0.0321135
0.0186751
0.0154095
0.0151319
0.0183577
0.0270628
0.0381856
0.0496921
0.0591219
0.0645675
0.0651984
0.0612725
0.0540144
0.0449915
0.0360179
0.0283387
0.0222594
0.0175787
0.014059
0.0114707
0.00950259
0.00782179
0.00622592
0.00471041
0.00338488
0.00234241
0.00159698
0.00109918
0.000778053
0.00057244
0.000439512
0.000351911
0.000292795
0.000251828
0.000222805
0.000202067
0.000187502
0.000177965
0.000172927
0.000172348
0.000176498
0.000186427
0.000202817
0.000230874
0.000266124
0.000341662
0.000409737
0.295671
0.154633
0.0887737
0.0568993
0.0430983
0.0411143
0.0458053
0.0490962
0.0424968
0.0337711
0.0332684
0.0432539
0.0543607
0.0369893
0.0210861
0.0166732
0.0160554
0.019308
0.0281257
0.039329
0.050966
0.0604813
0.0658658
0.0661979
0.0618114
0.0541462
0.0448425
0.0356695
0.0278545
0.0216994
0.0169967
0.0135107
0.011005
0.00915105
0.00759268
0.00610318
0.00466212
0.00337797
0.00235232
0.00160992
0.0011092
0.000783676
0.000574204
0.000438599
0.000349472
0.000289681
0.000248578
0.000219662
0.0001991
0.000184682
0.000175212
0.000170136
0.000169397
0.000173256
0.000182743
0.000198557
0.000225756
0.000260116
0.000333477
0.000399989
0.295612
0.154687
0.088687
0.0563177
0.0416362
0.0385196
0.0429957
0.0485311
0.0455057
0.0378138
0.0364101
0.0457192
0.0589772
0.0425796
0.0237868
0.0181406
0.0170826
0.0203329
0.0291689
0.0403858
0.0520776
0.0616042
0.0668816
0.0669154
0.0621307
0.0541108
0.044551
0.0352064
0.0272926
0.0210921
0.0163884
0.0129496
0.0105333
0.00879449
0.00735647
0.00597143
0.00460462
0.00336311
0.00235634
0.00161916
0.00111733
0.00078871
0.000576124
0.000438131
0.00034748
0.000286883
0.000245481
0.000216549
0.000196086
0.000181779
0.00017237
0.00016727
0.000166395
0.000169995
0.000179071
0.000194334
0.000220694
0.000254166
0.00032539
0.000390364
0.29556
0.154756
0.0886569
0.0558789
0.0404213
0.0361645
0.0399725
0.0469437
0.0474197
0.0415529
0.0396588
0.0481917
0.0631855
0.0488916
0.026786
0.019821
0.0182216
0.0214159
0.0301851
0.0413496
0.0530211
0.0624917
0.0676202
0.0673634
0.0622288
0.0538953
0.0441095
0.0346307
0.0266581
0.0204428
0.0157591
0.0123812
0.0100611
0.00843808
0.00711769
0.00583421
0.00454028
0.0033417
0.00235516
0.00162489
0.00112351
0.000792965
0.000578014
0.000437997
0.000345909
0.000284439
0.000242615
0.000213551
0.000193105
0.000178861
0.000169494
0.00016437
0.000163375
0.000166737
0.000175427
0.000190161
0.000215702
0.000248296
0.000317429
0.000380891
0.295514
0.154837
0.0886715
0.0555591
0.0394304
0.0340864
0.0369217
0.0445403
0.048128
0.0447012
0.0428503
0.0506434
0.0668296
0.0558162
0.0301216
0.0217085
0.0194778
0.0225514
0.031169
0.0422154
0.0537936
0.0631458
0.0680892
0.0675506
0.0621043
0.0534939
0.0435176
0.0339479
0.0259576
0.0197574
0.0151139
0.0118105
0.00959345
0.00808665
0.00688062
0.00569492
0.0044715
0.00331522
0.00234955
0.00162741
0.00112774
0.000796306
0.000579705
0.000438065
0.00034469
0.000282344
0.000240017
0.000210726
0.000190218
0.000175986
0.000166633
0.000161477
0.000160367
0.000163506
0.00017183
0.000186054
0.000210798
0.000242523
0.000309616
0.000371596
0.295474
0.154926
0.0887208
0.0553372
0.0386368
0.0322967
0.0339908
0.0415616
0.0476291
0.0469972
0.0457769
0.0530012
0.0699345
0.0629458
0.0338979
0.0238045
0.0208596
0.0237342
0.0321169
0.0429798
0.0543941
0.0635702
0.0682967
0.067484
0.0617576
0.0529059
0.0427795
0.0331653
0.0251983
0.019042
0.0144584
0.0112426
0.00913507
0.0077447
0.00664928
0.00555678
0.00440061
0.00328512
0.00234032
0.00162707
0.00113009
0.00079865
0.000581057
0.000438202
0.000343737
0.000280562
0.000237692
0.000208106
0.000187469
0.000173196
0.000163826
0.000158624
0.000157399
0.000160324
0.000168297
0.000182028
0.000205994
0.000236864
0.000301971
0.000362502
0.295439
0.155019
0.0887966
0.0551951
0.0380135
0.0307883
0.0312846
0.0382546
0.0460264
0.0482405
0.0482065
0.0550635
0.0724822
0.0697963
0.0383213
0.0261712
0.0223753
0.0249596
0.033027
0.0436409
0.0548239
0.0637703
0.0682511
0.0671704
0.0611914
0.0521347
0.0419025
0.0322924
0.0243886
0.0183028
0.0137976
0.0106822
0.00869041
0.00741642
0.00642741
0.0054229
0.00432987
0.00325287
0.00232833
0.0016243
0.0011307
0.00079997
0.000581965
0.00043829
0.000342956
0.000279039
0.000235626
0.0002057
0.000184883
0.000170526
0.000161107
0.000155841
0.000154495
0.00015721
0.000164843
0.000178098
0.000201305
0.000231334
0.000294512
0.000353627
0.295408
0.155114
0.088892
0.0551174
0.0375347
0.0295414
0.0288673
0.0348463
0.0435091
0.0483195
0.0499091
0.0566942
0.0744184
0.0761029
0.0434628
0.0288068
0.0240319
0.0262243
0.0338987
0.0441981
0.0550857
0.0637525
0.0679616
0.0666171
0.0604109
0.0511871
0.0408968
0.0313399
0.023537
0.0175464
0.0131366
0.0101336
0.00826358
0.00710563
0.00621847
0.00529614
0.00426145
0.00321988
0.00231444
0.00161956
0.00112976
0.000800283
0.000582358
0.000438233
0.000342259
0.000277712
0.000233786
0.000203506
0.000182473
0.000167995
0.000158498
0.00015315
0.000151676
0.000154182
0.000161485
0.000174274
0.000196743
0.000225947
0.000287254
0.000344988
0.29538
0.155209
0.0890013
0.055091
0.0371767
0.0285293
0.026768
0.0315257
0.0403234
0.0472284
0.0506882
0.0577333
0.0756617
0.0816925
0.0492087
0.0317191
0.0258339
0.0275262
0.0347325
0.0446523
0.0551839
0.0635246
0.0674377
0.0658328
0.0594238
0.0500729
0.0397744
0.0303194
0.0226525
0.016779
0.0124804
0.00960118
0.00785836
0.00681585
0.00602566
0.00517922
0.00419742
0.00318751
0.00229955
0.00161333
0.00112749
0.000799647
0.000582204
0.000437957
0.000341568
0.000276521
0.000232138
0.000201508
0.000180241
0.000165615
0.000156017
0.000150571
0.000148959
0.000151256
0.000158234
0.00017057
0.000192319
0.000220713
0.000280209
0.000336599
0.295356
0.155303
0.0891199
0.0551051
0.0369185
0.0277222
0.0249891
0.0284337
0.0367388
0.0450684
0.0504104
0.0580192
0.076108
0.0863595
0.0554007
0.0349251
0.0277834
0.028864
0.0355297
0.0450059
0.0551239
0.0630951
0.0666897
0.0648273
0.0582403
0.0488042
0.0385494
0.0292435
0.0217441
0.0160066
0.0118335
0.00908867
0.00747824
0.00655032
0.00585192
0.00507465
0.00413974
0.00315722
0.00228466
0.00160617
0.00112415
0.000798151
0.000581497
0.000437411
0.000340821
0.000275411
0.00023064
0.000199685
0.000178181
0.000163393
0.000153675
0.000148115
0.000146357
0.000148443
0.000155102
0.000166994
0.000188042
0.000215643
0.000273388
0.000328471
0.295335
0.155396
0.089244
0.0551503
0.0367417
0.02709
0.0235136
0.0256612
0.033015
0.0420323
0.0490299
0.057413
0.0756301
0.0898913
0.0618245
0.0384427
0.0298819
0.030237
0.036292
0.0452622
0.0549124
0.0624735
0.0657289
0.0636121
0.0568727
0.0473955
0.037237
0.0281252
0.0208206
0.015235
0.0112002
0.00859966
0.0071264
0.00631203
0.00569997
0.00498477
0.00409024
0.00313099
0.0022707
0.00159857
0.00111999
0.00079591
0.000580261
0.000436568
0.00033997
0.000274332
0.000229257
0.000198015
0.000176283
0.000161326
0.000151478
0.000145793
0.000143881
0.000145753
0.000152097
0.000163554
0.00018392
0.000210745
0.000266799
0.000320611
0.295316
0.155485
0.0893708
0.0552189
0.0366307
0.0266045
0.0223132
0.0232533
0.0293756
0.0383777
0.0466014
0.055824
0.0740942
0.0920827
0.0682065
0.0422786
0.0321316
0.0316451
0.0370214
0.0454255
0.0545568
0.0616699
0.0645672
0.0622001
0.0553353
0.0458632
0.0358538
0.0269776
0.0198902
0.0144694
0.0105843
0.00813739
0.00680581
0.00610375
0.00557233
0.00491173
0.00405067
0.0031097
0.00225843
0.00159104
0.00111531
0.000793061
0.000578541
0.000435421
0.000338982
0.000273247
0.000227955
0.000196474
0.000174534
0.000159412
0.000149427
0.000143608
0.000141537
0.000143194
0.000149226
0.000160257
0.000179958
0.000206026
0.000260448
0.000313028
0.295299
0.155571
0.0894978
0.0553048
0.0365721
0.0262402
0.0213537
0.021219
0.0259903
0.0343895
0.0432782
0.0532339
0.0715066
0.0927473
0.0742221
0.0464145
0.0345355
0.0330891
0.0377202
0.0455008
0.0540654
0.0606956
0.0632177
0.0606061
0.0536448
0.0442256
0.0344171
0.0258133
0.0189607
0.0137145
0.00998944
0.00770482
0.00651926
0.0059281
0.00547134
0.00485757
0.00402264
0.00309451
0.00224865
0.00158408
0.00111038
0.000789755
0.000576403
0.000433983
0.000337843
0.000272128
0.000226705
0.000195041
0.000172922
0.000157644
0.000147521
0.000141564
0.000139329
0.000140769
0.000146494
0.000157108
0.000176162
0.000201489
0.00025434
0.000305724
0.295285
0.155654
0.0896234
0.0554027
0.0365548
0.0259748
0.0205996
0.0195406
0.0229696
0.0303429
0.0392942
0.049711
0.067877
0.0917428
0.079517
0.0507932
0.0370962
0.0345712
0.0383911
0.0454937
0.0534474
0.0595626
0.0616946
0.0588461
0.0518195
0.0425025
0.0329447
0.0246447
0.0180388
0.0129745
0.0094187
0.00730468
0.0062694
0.00578761
0.00539922
0.00482413
0.00400768
0.00308657
0.00224217
0.00157819
0.00110552
0.000786161
0.000573928
0.000432281
0.000336549
0.000270959
0.000225488
0.000193697
0.000171431
0.000156013
0.000145757
0.000139661
0.000137259
0.000138483
0.000143904
0.000154109
0.000172533
0.000197139
0.000248477
0.000298703
0.295272
0.155732
0.0897462
0.0555083
0.0365694
0.0257893
0.0200169
0.0181844
0.0203679
0.0264714
0.0349324
0.0454134
0.0632739
0.0890979
0.0837419
0.0553093
0.0398114
0.0360955
0.0390374
0.0454106
0.0527126
0.0582836
0.0600134
0.0569383
0.0498798
0.0407148
0.0314542
0.023483
0.0171304
0.0122529
0.00887486
0.00693947
0.00605888
0.0056848
0.00535805
0.00481313
0.00400724
0.00308703
0.0022398
0.00157389
0.00110104
0.000782457
0.000571211
0.000430357
0.000335109
0.000269731
0.000224288
0.000192428
0.000170052
0.000154512
0.00014413
0.000137896
0.000135327
0.000136335
0.000141457
0.000151261
0.000169074
0.000192977
0.00024286
0.000291965
0.29526
0.155807
0.0898652
0.0556185
0.0366083
0.0256674
0.019575
0.0171083
0.0181938
0.0229461
0.0304847
0.0405758
0.0578359
0.0849036
0.0865804
0.0598044
0.0426682
0.0376672
0.0396643
0.0452588
0.0518717
0.0568729
0.058191
0.0549025
0.0478482
0.0388848
0.0299632
0.0223385
0.0162403
0.0115528
0.00836035
0.00661162