/*--------------------------------*- C++ -*----------------------------------*\
| =========                 |                                                 |
| \\      /  F ield         | OpenFOAM: The Open Source CFD Toolbox           |
|  \\    /   O peration     | Version:  2.4.0                                 |
|   \\  /    A nd           | Web:      www.OpenFOAM.org                      |
|    \\/     M anipulation  |                                                 |
\*---------------------------------------------------------------------------*/
FoamFile
{
    version     2.0;
    format      ascii;
    class       volScalarField;
    location    "7.07";
    object      nut;
}
// * * * * * * * * * * * * * * * * * * * * * * * * * * * * * * * * * * * * * //

dimensions      [0 2 -1 0 0 0 0];

internalField   nonuniform List<scalar> 
6000
(
1.24054e-05
1.01564e-05
5.6895e-06
3.08043e-06
1.71845e-06
2.898e-06
2.65865e-06
3.51081e-06
3.8249e-06
4.48762e-06
4.98566e-06
5.62116e-06
6.21645e-06
6.87678e-06
7.53071e-06
8.20703e-06
8.87703e-06
9.54717e-06
1.02065e-05
1.08556e-05
1.14929e-05
1.21398e-05
1.27895e-05
1.34164e-05
1.40183e-05
1.45932e-05
1.51386e-05
1.56526e-05
1.61329e-05
1.65779e-05
1.69871e-05
1.73574e-05
1.76855e-05
1.79701e-05
1.82092e-05
1.84012e-05
1.85443e-05
1.86373e-05
1.86785e-05
1.86676e-05
1.86026e-05
1.84853e-05
1.83115e-05
1.80868e-05
1.78054e-05
1.74701e-05
1.73123e-05
1.71986e-05
1.70057e-05
1.68346e-05
1.65426e-05
1.63375e-05
1.59303e-05
1.57359e-05
1.51827e-05
1.50773e-05
1.43234e-05
1.44492e-05
1.34345e-05
1.42794e-05
2.33582e-05
3.47755e-05
1.72155e-05
7.9114e-06
4.1218e-06
6.64541e-06
1.21262e-05
1.43567e-05
1.86602e-05
2.27947e-05
2.70578e-05
3.20351e-05
3.68833e-05
4.25215e-05
4.82361e-05
5.44712e-05
6.08046e-05
6.73778e-05
7.39968e-05
8.06811e-05
8.72764e-05
9.35831e-05
9.96094e-05
0.000105548
0.000111406
0.000117175
0.00012284
0.000128394
0.000133825
0.00013912
0.000144227
0.000148932
0.000153437
0.000157731
0.000161797
0.000165621
0.000169182
0.000172465
0.000175448
0.000178118
0.000180445
0.000182428
0.00018402
0.000185232
0.000185988
0.000186171
0.000182463
0.000177235
0.000171491
0.000164982
0.000158026
0.000150399
0.000142313
0.000133806
0.000124669
0.000115642
0.000104962
9.6319e-05
8.43229e-05
7.92198e-05
2.89001e-05
5.03113e-05
2.44387e-05
9.91082e-06
9.48842e-06
1.56576e-05
2.63803e-05
3.27792e-05
4.15752e-05
5.11541e-05
6.03904e-05
7.13687e-05
8.20358e-05
9.43314e-05
0.000106861
0.000120416
0.000134215
0.000148469
0.000162815
0.000177248
0.000191487
0.000205289
0.000218676
0.000231868
0.000244859
0.00025762
0.000270114
0.00028231
0.000294177
0.000305662
0.000316644
0.000326872
0.000336613
0.000345842
0.00035452
0.00036261
0.000370067
0.000376856
0.000382925
0.000388248
0.000392758
0.00039645
0.000399225
0.000401087
0.000401843
0.000401091
0.0003946
0.00038564
0.000375325
0.000363692
0.000350661
0.000336694
0.000320965
0.000305194
0.000286709
0.000270027
0.000248127
0.000232205
0.000206249
0.000201253
3.21952e-05
5.72156e-05
2.78243e-05
1.07075e-05
1.56606e-05
2.60515e-05
4.06744e-05
5.19126e-05
6.50888e-05
8.00432e-05
9.43783e-05
0.00011112
0.000127628
0.000146299
0.000165477
0.000186028
0.000207007
0.000228593
0.000250326
0.000272148
0.000293717
0.0003148
0.0003354
0.000355689
0.000375639
0.000395195
0.000414296
0.000432888
0.000450916
0.000468297
0.000484863
0.000500393
0.000515138
0.000529058
0.000542094
0.000554188
0.000565273
0.000575293
0.000584175
0.000591875
0.000598298
0.000603428
0.000607128
0.000609366
0.0006098
0.000607939
0.000599794
0.000588609
0.000575288
0.000560225
0.000542874
0.000524407
0.000502991
0.000481861
0.000456221
0.000433748
0.000403236
0.000381707
0.000346822
0.000342292
3.39567e-05
5.94461e-05
3.42341e-05
1.13931e-05
2.09417e-05
3.54754e-05
5.34215e-05
6.93627e-05
8.68422e-05
0.000106756
0.000126056
0.000148124
0.00017019
0.000194761
0.000220147
0.000247163
0.000274798
0.000303155
0.000331718
0.000360369
0.000388736
0.000416594
0.000443916
0.000470809
0.000497219
0.000523067
0.000548267
0.000572744
0.000596423
0.000619202
0.000640872
0.000661264
0.000680589
0.000698794
0.000715801
0.000731536
0.000745914
0.000758863
0.000770292
0.00078014
0.000788294
0.000794718
0.000799251
0.000801806
0.000801899
0.000799164
0.000790082
0.000777559
0.000762267
0.000744846
0.000724455
0.000702685
0.000677146
0.000651884
0.000621029
0.000593845
0.000557194
0.000530763
0.000490227
0.000485358
3.49043e-05
5.90453e-05
4.15986e-05
1.17863e-05
2.39087e-05
4.31056e-05
6.4117e-05
8.45464e-05
0.000106222
0.000130709
0.000154756
0.000181754
0.000209044
0.000239063
0.0002702
0.000303161
0.000336923
0.000371497
0.00040633
0.000441249
0.000475865
0.000509954
0.000543449
0.000576398
0.000608719
0.000640308
0.000671057
0.000700873
0.000729663
0.000757318
0.000783583
0.000808358
0.000831804
0.000853855
0.000874422
0.000893416
0.00091074
0.000926308
0.000940015
0.000951788
0.0009615
0.000969098
0.000974397
0.000977247
0.000977084
0.000973758
0.000964207
0.000950911
0.000934367
0.000915323
0.000892827
0.000868611
0.000840136
0.000811642
0.000777082
0.000745986
0.000705128
0.000674281
0.000630308
0.00062408
3.5415e-05
5.72036e-05
4.71228e-05
1.43916e-05
2.33233e-05
4.86005e-05
7.25749e-05
9.73508e-05
0.000123093
0.00015184
0.000180397
0.000211983
0.00024417
0.000279233
0.000315692
0.000354124
0.000393518
0.000433795
0.000474376
0.000515038
0.00055538
0.000595172
0.000634308
0.000672779
0.000710477
0.000747274
0.000783042
0.00081767
0.000851055
0.00088309
0.000913458
0.000942149
0.000969267
0.000994738
0.00101846
0.00104035
0.00106028
0.00107816
0.00109388
0.00110736
0.00111847
0.00112712
0.00113311
0.00113624
0.00113595
0.00113227
0.00112256
0.00110887
0.00109158
0.00107145
0.00104754
0.00102153
0.000991027
0.000960019
0.000922914
0.000888583
0.000844987
0.000810189
0.000764383
0.000755886
3.56743e-05
5.46514e-05
5.08095e-05
2.14572e-05
2.04493e-05
5.16889e-05
7.87052e-05
0.000107777
0.000137456
0.000170216
0.000203052
0.000238935
0.000275714
0.000315466
0.000356854
0.000400329
0.000444904
0.000490417
0.000536269
0.000582193
0.00062778
0.000672784
0.000717065
0.000760562
0.000803141
0.000844652
0.000884948
0.000923903
0.000961404
0.000997352
0.00103138
0.00106355
0.00109392
0.00112242
0.00114893
0.00117335
0.00119557
0.00121548
0.00123298
0.00124796
0.00126028
0.00126986
0.00127648
0.00127986
0.00127959
0.00127572
0.00126606
0.00125223
0.00123456
0.00121373
0.00118894
0.00116165
0.00112981
0.00109688
0.00105813
0.00102116
0.00097594
0.000937677
0.000891191
0.000879756
3.57842e-05
5.18377e-05
5.29262e-05
2.99129e-05
1.85219e-05
5.20679e-05
8.24491e-05
0.000115839
0.000149344
0.000185927
0.000222828
0.000262758
0.000303852
0.000347976
0.000393941
0.000442077
0.000491428
0.000541753
0.000592446
0.000643196
0.000693587
0.000743357
0.00079233
0.000840401
0.00088741
0.000933186
0.000977566
0.00102041
0.0010616
0.00110103
0.00113832
0.00117357
0.00120682
0.00123798
0.00126694
0.00129358
0.0013178
0.00133948
0.00135851
0.00137479
0.00138818
0.00139857
0.00140574
0.00140935
0.0014092
0.00140528
0.00139579
0.001382
0.00136421
0.00134299
0.0013177
0.00128954
0.00125689
0.00122255
0.00118282
0.00114377
0.00109776
0.00105653
0.00101019
0.000995394
3.58064e-05
4.90331e-05
5.37466e-05
3.79928e-05
1.92311e-05
4.94492e-05
8.37694e-05
0.000121546
0.000158786
0.000199051
0.000239826
0.000283587
0.000328747
0.000376965
0.000427191
0.000479644
0.000533406
0.000588167
0.000643312
0.000698494
0.000753292
0.000807424
0.000860681
0.000912919
0.000963954
0.00101359
0.00106166
0.001108
0.00115249
0.00119502
0.00123522
0.00127321
0.00130899
0.00134249
0.00137358
0.00140216
0.00142811
0.00145133
0.00147168
0.00148908
0.00150338
0.00151447
0.0015221
0.00152596
0.00152599
0.0015221
0.00151286
0.00149923
0.00148149
0.00146009
0.0014346
0.00140589
0.00137286
0.00133751
0.00129736
0.00125671
0.00121056
0.00116685
0.00112124
0.00110285
3.57786e-05
4.63919e-05
5.35444e-05
4.46931e-05
2.31722e-05
4.40431e-05
8.26733e-05
0.000124892
0.000165803
0.000209647
0.000254128
0.000301535
0.000350538
0.000402602
0.000456807
0.000513273
0.000571119
0.000629976
0.000689225
0.000748488
0.000807335
0.000865467
0.000922643
0.000978684
0.00103338
0.00108653
0.00113793
0.00118742
0.00123487
0.00128017
0.00132295
0.00136336
0.00140139
0.00143694
0.0014699
0.00150016
0.00152761
0.00155213
0.00157362
0.00159198
0.00160705
0.00161872
0.00162673
0.00163084
0.00163108
0.00162727
0.00161831
0.00160491
0.00158735
0.00156594
0.00154047
0.00151147
0.00147836
0.00144237
0.00140219
0.00136039
0.00131458
0.00126888
0.00122442
0.00120237
3.57236e-05
4.39935e-05
5.25784e-05
4.98112e-05
2.97929e-05
3.76294e-05
7.92689e-05
0.000125877
0.000170408
0.000217758
0.000265801
0.000316693
0.000369339
0.000425029
0.000482962
0.000543169
0.000604808
0.000667458
0.0007305
0.000793528
0.000856105
0.000917912
0.000978681
0.0010382
0.00109625
0.00115259
0.00120701
0.00125934
0.00130945
0.00135722
0.00140231
0.00144487
0.00148487
0.00152222
0.00155681
0.00158853
0.00161726
0.00164292
0.00166537
0.00168452
0.00170023
0.00171237
0.0017207
0.00172507
0.0017255
0.00172181
0.00171314
0.0017
0.0016827
0.0016614
0.0016361
0.00160703
0.00157407
0.00153775
0.00149786
0.00145528
0.00141019
0.00136294
0.00131992
0.00129427
3.5655e-05
4.18697e-05
5.10795e-05
5.33649e-05
3.6968e-05
3.25552e-05
7.38501e-05
0.000124527
0.000172616
0.000223418
0.000274894
0.000329132
0.000385243
0.000444364
0.0005058
0.000569506
0.000634677
0.000700851
0.000767408
0.000833919
0.000899941
0.000965134
0.00102921
0.00109192
0.00115303
0.00121228
0.00126945
0.00132436
0.00137687
0.00142685
0.00147401
0.00151847
0.00156021
0.00159914
0.00163515
0.00166813
0.00169797
0.00172458
0.00174783
0.00176765
0.00178388
0.0017964
0.00180499
0.00180959
0.0018102
0.00180662
0.00179823
0.00178537
0.00176837
0.00174726
0.00172225
0.00169326
0.00166064
0.00162423
0.00158488
0.00154188
0.00149778
0.00144942
0.00140803
0.00137891
3.55811e-05
4.00229e-05
4.92428e-05
5.54928e-05
4.3586e-05
3.05167e-05
6.69899e-05
0.000120931
0.000172458
0.000226655
0.00028145
0.000338911
0.000398326
0.000460703
0.000525441
0.000592431
0.000660903
0.00073036
0.000800184
0.000869927
0.000939139
0.00100746
0.00107458
0.00114024
0.00120416
0.00126608
0.00132576
0.00138301
0.00143768
0.00148965
0.00153866
0.00158482
0.00162811
0.00166843
0.00170567
0.00173974
0.00177053
0.00179793
0.00182186
0.00184221
0.00185885
0.00187165
0.00188046
0.00188525
0.001886
0.00188254
0.00187441
0.00186182
0.00184513
0.00182428
0.00179962
0.00177084
0.0017387
0.00170241
0.00166377
0.00162065
0.00157776
0.00152867
0.00148903
0.00145666
3.55071e-05
3.84386e-05
4.72259e-05
5.63899e-05
4.928e-05
3.3626e-05
5.97945e-05
0.000115291
0.000170003
0.000227507
0.000285509
0.00034608
0.00040865
0.000474126
0.000541987
0.000612068
0.000683635
0.000756161
0.000829032
0.000901784
0.000973959
0.00104519
0.00111513
0.0011835
0.00125002
0.00131439
0.00137637
0.00143576
0.0014924
0.00154616
0.00159683
0.00164451
0.00168917
0.00173071
0.00176903
0.00180403
0.00183562
0.0018637
0.00188817
0.00190894
0.00192589
0.0019389
0.00194789
0.00195281
0.00195367
0.0019503
0.00194239
0.00193006
0.00191368
0.00189311
0.00186885
0.00184039
0.00180881
0.00177281
0.00173503
0.00169205
0.00165052
0.00160106
0.00156325
0.00152788
3.54358e-05
3.70934e-05
4.51509e-05
5.6271e-05
5.38787e-05
3.95936e-05
5.36703e-05
0.000107989
0.000165381
0.000226036
0.000287118
0.000350689
0.000416276
0.000484706
0.000555526
0.000628525
0.000703003
0.000778407
0.00085413
0.000929691
0.00100463
0.00107856
0.00115112
0.00122202
0.00129093
0.00135757
0.00142167
0.00148302
0.00154145
0.00159684
0.00164901
0.00169805
0.00174392
0.00178654
0.0018258
0.00186161
0.00189388
0.00192251
0.00194741
0.00196851
0.00198568
0.00199884
0.00200795
0.00201295
0.00201387
0.00201056
0.00200283
0.00199073
0.00197464
0.00195438
0.00193054
0.00190245
0.00187151
0.00183594
0.00179912
0.00175652
0.00171646
0.00166695
0.00163101
0.00159293
3.53691e-05
3.59604e-05
4.3108e-05
5.53504e-05
5.73077e-05
4.64839e-05
4.97996e-05
9.96428e-05
0.000158821
0.000222345
0.000286347
0.000352798
0.000421262
0.000492508
0.000566138
0.000641899
0.000719122
0.000797235
0.000875633
0.000953827
0.00103135
0.0011078
0.00118281
0.00125605
0.0013272
0.00139595
0.001462
0.00152515
0.00158522
0.00164209
0.00169562
0.00174589
0.00179285
0.00183642
0.0018765
0.00191301
0.00194584
0.00197492
0.00200017
0.0020215
0.00203882
0.00205207
0.00206123
0.00206626
0.0020672
0.00206392
0.00205632
0.00204441
0.0020286
0.00200863
0.00198522
0.00195756
0.00192729
0.00189227
0.00185648
0.00181444
0.00177594
0.00172666
0.00169262
0.00165213
3.53077e-05
3.50121e-05
4.11602e-05
5.38299e-05
5.95689e-05
5.31543e-05
5.02609e-05
9.1182e-05
0.00015068
0.000216599
0.000283293
0.000352481
0.000423677
0.000497604
0.000573901
0.000652279
0.000732098
0.000812765
0.000893683
0.000974353
0.0010543
0.00113312
0.00121042
0.00128585
0.00135909
0.0014298
0.00149767
0.00156248
0.00162406
0.00168228
0.00173705
0.00178843
0.00183637
0.00188078
0.00192158
0.00195868
0.00199199
0.00202143
0.00204693
0.00206842
0.00208582
0.0020991
0.00210827
0.00211327
0.00211419
0.00211089
0.00210338
0.00209161
0.00207604
0.00205636
0.00203338
0.00200618
0.0019766
0.00194221
0.00190751
0.00186619
0.00182931
0.00178053
0.00174838
0.0017058
3.5252e-05
3.42225e-05
3.93486e-05
5.18909e-05
6.07245e-05
5.90168e-05
5.41554e-05
8.36989e-05
0.000141471
0.000209047
0.000278103
0.000349842
0.000423606
0.000500071
0.000578894
0.000659753
0.00074203
0.000825112
0.000908408
0.000991411
0.00107364
0.00115468
0.00123413
0.00131163
0.00138682
0.00145936
0.00152893
0.00159529
0.00165827
0.00171773
0.00177364
0.00182602
0.00187484
0.00192001
0.00196144
0.00199904
0.00203274
0.00206247
0.00208815
0.00210973
0.00212716
0.00214042
0.00214953
0.00215445
0.00215529
0.00215194
0.00214447
0.00213281
0.00211744
0.00209802
0.00207546
0.00204872
0.00201986
0.00198616
0.00195258
0.00191212
0.0018769
0.00182884
0.00179856
0.00175422
3.52019e-05
3.35678e-05
3.76968e-05
4.96906e-05
6.08812e-05
6.37717e-05
5.97877e-05
7.85435e-05
0.000131871
0.000200044
0.000270986
0.000345023
0.000421159
0.000500005
0.000581208
0.000664413
0.000749015
0.000834383
0.000919928
0.00100514
0.00108953
0.00117266
0.00125414
0.00133358
0.00141061
0.00148488
0.00155604
0.00162384
0.0016881
0.00174871
0.00180567
0.00185898
0.0019086
0.00195444
0.00199642
0.00203446
0.00206848
0.00209842
0.00212421
0.00214582
0.00216323
0.00217641
0.00218541
0.00219021
0.00219093
0.00218749
0.00218
0.00216841
0.00215319
0.00213402
0.00211185
0.00208559
0.00205743
0.00202448
0.00199203
0.00195255
0.001919
0.00187187
0.00184345
0.00179769
3.51572e-05
3.30269e-05
3.62149e-05
4.73604e-05
6.01758e-05
6.72848e-05
6.58395e-05
7.72644e-05
0.000122694
0.000190059
0.000262222
0.000338214
0.000416477
0.000497522
0.000580948
0.000666358
0.000753157
0.000840687
0.00092836
0.00101566
0.00110209
0.00118721
0.0012706
0.00135187
0.00143064
0.00150654
0.0015792
0.00164834
0.00171381
0.0017755
0.00183342
0.00188758
0.00193792
0.00198437
0.00202683
0.00206523
0.00209951
0.00212961
0.00215547
0.00217706
0.00219439
0.00220745
0.00221629
0.00222092
0.00222148
0.0022179
0.00221035
0.00219878
0.00218368
0.00216472
0.00214291
0.00211712
0.00208965
0.00205749
0.00202618
0.00198777
0.0019559
0.00190987
0.00188329
0.00183643
3.51175e-05
3.25816e-05
3.49036e-05
4.50055e-05
5.87621e-05
6.95273e-05
7.15442e-05
7.94827e-05
0.000114793
0.000179669
0.000252179
0.000329666
0.000409747
0.000492769
0.000578238
0.000665704
0.000754566
0.000844134
0.000933819
0.00102309
0.00111145
0.00119845
0.00128366
0.00136667
0.00144709
0.00152453
0.0015986
0.00166901
0.0017356
0.00179829
0.00185712
0.00191206
0.00196306
0.00201005
0.00205294
0.00209166
0.00212614
0.00215634
0.00218221
0.00220374
0.00222095
0.00223384
0.00224248
0.00224691
0.00224725
0.0022435
0.00223585
0.00222425
0.00220923
0.00219045
0.00216896
0.00214364
0.00211685
0.00208549
0.00205531
0.00201805
0.00198786
0.00194309
0.00191832
0.0018707
3.50825e-05
3.2216e-05
3.37566e-05
4.27071e-05
5.67993e-05
7.05439e-05
7.64393e-05
8.37372e-05
0.000110007
0.000169525
0.000241307
0.000319693
0.000401201
0.000485929
0.000573232
0.000662583
0.000753366
0.000844846
0.000936425
0.00102756
0.00111776
0.00120654
0.00129346
0.00137812
0.00146011
0.00153901
0.00161441
0.00168602
0.00175366
0.0018173
0.00187697
0.00193264
0.00198425
0.00203173
0.00207499
0.00211397
0.00214861
0.00217886
0.00220471
0.00222614
0.00224318
0.00225587
0.00226428
0.00226845
0.00226855
0.00226459
0.00225679
0.00224512
0.00223014
0.00221151
0.00219031
0.00216543
0.0021393
0.00210875
0.0020797
0.00204364
0.00201513
0.00197175
0.00194877
0.0019007
3.50517e-05
3.19169e-05
3.27636e-05
4.0524e-05
5.44425e-05
7.04328e-05
8.0248e-05
8.88133e-05
0.000108793
0.000160582
0.000230126
0.000308674
0.000391124
0.000477228
0.000566111
0.000657152
0.000749696
0.000842952
0.000936306
0.0010292
0.00112112
0.00121159
0.00130015
0.00138637
0.00146984
0.00155013
0.0016268
0.00169954
0.00176817
0.0018327
0.00189317
0.0019495
0.00200168
0.0020496
0.00209319
0.00213239
0.00216714
0.00219741
0.00222319
0.00224449
0.00226134
0.00227378
0.00228192
0.0022858
0.00228563
0.00228142
0.00227343
0.00226166
0.00224667
0.00222816
0.00220722
0.00218276
0.00215726
0.00212753
0.00209959
0.00206478
0.00203792
0.00199606
0.00197485
0.00192665
3.50247e-05
3.16728e-05
3.19116e-05
3.84963e-05
5.18352e-05
6.933e-05
8.28207e-05
9.38425e-05
0.000110391
0.000154152
0.000219192
0.000297039
0.000379854
0.000466931
0.000557096
0.000649595
0.000743718
0.000838598
0.000933596
0.00102814
0.00112168
0.00121374
0.00130384
0.00139155
0.00147643
0.00155804
0.00163591
0.00170972
0.00177928
0.00184466
0.00190587
0.00196283
0.00201552
0.00206385
0.00210772
0.0021471
0.00218193
0.00221219
0.00223788
0.00225901
0.00227563
0.0022878
0.00229563
0.0022992
0.00229871
0.00229422
0.00228602
0.00227411
0.00225907
0.00224064
0.00221993
0.00219587
0.00217097
0.00214206
0.0021152
0.00208168
0.00205645
0.0020162
0.00199675
0.00194872
3.5001e-05
3.14743e-05
3.11864e-05
3.66475e-05
4.91046e-05
6.73968e-05
8.41037e-05
9.82379e-05
0.000113755
0.000150557
0.000209702
0.000285253
0.000367773
0.000455348
0.000546441
0.000640126
0.000735615
0.000831948
0.000928447
0.00102451
0.00111957
0.00121312
0.00130467
0.00139379
0.00148001
0.00156286
0.00164188
0.00171669
0.00178713
0.00185332
0.00191523
0.00197278
0.00202595
0.00207463
0.00211875
0.00215828
0.00219316
0.00222337
0.00224894
0.00226987
0.00228624
0.00229811
0.00230561
0.00230884
0.00230801
0.00230322
0.00229476
0.00228267
0.00226756
0.00224918
0.00222866
0.00220498
0.00218065
0.00215254
0.00212675
0.00209454
0.00207092
0.00203237
0.00201466
0.0019671
3.49803e-05
3.13134e-05
3.05737e-05
3.49889e-05
4.63576e-05
6.48069e-05
8.41203e-05
0.000101616
0.000117898
0.000149573
0.000202275
0.000274218
0.000355323
0.000442825
0.000534435
0.000628987
0.000725598
0.000823185
0.00092102
0.00101847
0.00111492
0.00120986
0.00130278
0.00139321
0.0014807
0.00156474
0.00164482
0.00172058
0.00179187
0.00185881
0.00192138
0.00197948
0.00203307
0.00208208
0.00212643
0.00216607
0.00220097
0.00223112
0.00225654
0.00227726
0.00229335
0.0023049
0.00231204
0.00231491
0.00231371
0.00230858
0.00229984
0.00228755
0.00227233
0.00225397
0.00223361
0.00221028
0.0021865
0.00215919
0.00213442
0.00210354
0.0020815
0.00204474
0.00202875
0.00198195
3.49623e-05
3.11836e-05
3.00596e-05
3.35214e-05
4.36806e-05
6.17365e-05
8.29559e-05
0.000103743
0.000122024
0.000150591
0.000197213
0.000264484
0.000343199
0.000429857
0.000521398
0.000616451
0.0007139
0.000812511
0.000911497
0.00101017
0.0011079
0.00120411
0.00129829
0.00138996
0.00147862
0.00156378
0.00164487
0.00172152
0.00179361
0.00186126
0.00192444
0.00198304
0.00203704
0.00208634
0.00213088
0.00217061
0.00220552
0.00223558
0.00226083
0.00228131
0.0022971
0.00230831
0.00231508
0.00231755
0.00231598
0.00231049
0.00230144
0.00228892
0.00227356
0.0022552
0.00223497
0.00221197
0.00218869
0.00216216
0.0021384
0.00210885
0.00208837
0.00205345
0.00203918
0.00199342
3.49465e-05
3.10792e-05
2.96312e-05
3.22389e-05
4.11387e-05
5.83547e-05
8.07445e-05
0.0001045
0.00012554
0.00015284
0.000194445
0.000256465
0.000331885
0.000416923
0.000507806
0.000602903
0.000700784
0.00080015
0.000900074
0.000999804
0.00109865
0.00119601
0.00129135
0.00138415
0.00147391
0.00156011
0.00164214
0.00171959
0.00179245
0.00186076
0.00192451
0.00198359
0.00203796
0.00208752
0.00213223
0.00217204
0.00220692
0.00223687
0.00226193
0.00228216
0.00229764
0.00230848
0.00231486
0.00231693
0.00231495
0.00230909
0.00229971
0.00228694
0.00227142
0.00225302
0.0022329
0.0022102
0.00218741
0.00216164
0.00213885
0.00211064
0.00209168
0.00205867
0.0020461
0.00200165
3.49327e-05
3.09956e-05
2.92763e-05
3.11302e-05
3.87776e-05
5.48158e-05
7.76555e-05
0.00010386
0.00012802
0.000155558
0.000193584
0.000250367
0.000321789
0.000404437
0.000494039
0.000588674
0.000686589
0.00078639
0.000886992
0.000987567
0.00108735
0.00118572
0.00128208
0.00137591
0.00146668
0.00155383
0.00163673
0.00171493
0.0017885
0.00185744
0.00192172
0.00198124
0.00203594
0.00208575
0.0021306
0.00217045
0.00220528
0.00223511
0.00225997
0.00227992
0.00229507
0.00230554
0.00231151
0.00231316
0.00231077
0.00230451
0.00229479
0.00228175
0.00226605
0.00224759
0.00222756
0.00220514
0.00218281
0.00215778
0.00213593
0.00210906
0.00209158
0.00206053
0.00204967
0.00200677
3.49206e-05
3.09292e-05
2.89844e-05
3.01813e-05
3.6626e-05
5.12541e-05
7.38799e-05
0.000101877
0.000129182
0.000158082
0.000194045
0.00024615
0.000313195
0.000392768
0.000480463
0.0005741
0.000671614
0.000771492
0.000872484
0.000973664
0.0010742
0.0011734
0.00127065
0.00136538
0.00145705
0.00154506
0.00162875
0.00170765
0.00178187
0.00185139
0.00191617
0.00197608
0.00203109
0.00208111
0.00212607
0.00216595
0.00220072
0.0022304
0.00225504
0.0022747
0.00228951
0.00229959
0.00230515
0.00230637
0.00230355
0.00229689
0.0022868
0.00227348
0.00225758
0.00223905
0.00221908
0.00219692
0.00217502
0.00215072
0.00212979
0.00210425
0.00208822
0.00205917
0.00205001
0.00200892
3.49101e-05
3.08767e-05
2.87459e-05
2.93765e-05
3.46977e-05
4.77803e-05
6.9617e-05
9.86687e-05
0.000128864
0.000159877
0.000195171
0.000243544
0.000306217
0.000382205
0.000467413
0.000559507
0.00065616
0.000755728
0.000856788
0.000958309
0.00105937
0.00115922
0.0012572
0.0013527
0.00144515
0.00153393
0.00161832
0.00169785
0.00177267
0.00184272
0.00190794
0.00196822
0.0020235
0.0020737
0.00211875
0.00215863
0.00219332
0.00222284
0.00224724
0.00226661
0.00228106
0.00229074
0.00229588
0.00229666
0.0022934
0.00228632
0.00227587
0.00226225
0.00224613
0.00222752
0.00220759
0.00218568
0.00216419
0.0021406
0.00212055
0.00209634
0.00208173
0.00205471
0.00204725
0.0020082
3.49009e-05
3.08355e-05
2.85525e-05
2.86997e-05
3.2995e-05
4.44809e-05
6.50623e-05
9.44066e-05
0.000127006
0.000160537
0.000196327
0.000242108
0.000300785
0.000372923
0.000455162
0.000545194
0.000640519
0.000739365
0.000840149
0.00094172
0.00104306
0.00114336
0.00124189
0.00133801
0.00143112
0.00152056
0.00160555
0.00168564
0.001761
0.00183153
0.00189715
0.00195775
0.00201326
0.0020636
0.00210872
0.00214858
0.00218316
0.00221251
0.00223666
0.00225571
0.0022698
0.00227908
0.00228378
0.00228412
0.00228041
0.00227292
0.00226209
0.00224816
0.00223183
0.00221312
0.00219322
0.00217153
0.00215043
0.00212754
0.00210834
0.00208545
0.00207223
0.00204728
0.00204152
0.00200472
3.48929e-05
3.08035e-05
2.83967e-05
2.81351e-05
3.15112e-05
4.14175e-05
6.03969e-05
8.92998e-05
0.000123642
0.000159775
0.000196951
0.000241309
0.000296657
0.000364957
0.000443897
0.000531412
0.000624957
0.000722663
0.000822806
0.000924117
0.00102548
0.001126
0.00122488
0.00132147
0.00141509
0.00150506
0.00159054
0.00167113
0.00174696
0.0018179
0.00188386
0.00194474
0.00200045
0.00205091
0.00209606
0.00213587
0.00217033
0.00219948
0.00222337
0.0022421
0.00225582
0.00226469
0.00226895
0.00226884
0.00226469
0.00225678
0.00224556
0.00223133
0.00221476
0.00219595
0.00217607
0.0021546
0.00213387
0.00211165
0.00209329
0.0020717
0.00205984
0.00203697
0.00203292
0.00199859
3.48858e-05
3.07789e-05
2.82725e-05
2.76677e-05
3.02336e-05
3.863e-05
5.57791e-05
8.35801e-05
0.000118884
0.000157419
0.000196577
0.000240588
0.000293456
0.000358204
0.000433703
0.000518346
0.000609702
0.000705861
0.000804992
0.000905714
0.00100681
0.0011073
0.00120635
0.00130321
0.0013972
0.00148757
0.00157341
0.00165442
0.00173064
0.00180193
0.00186818
0.00192928
0.00198514
0.00203568
0.00208083
0.00212057
0.00215489
0.00218383
0.00220744
0.00222584
0.00223918
0.00224764
0.00225146
0.00225089
0.0022463
0.00223797
0.00222637
0.00221183
0.00219503
0.00217611
0.00215624
0.00213498
0.00211461
0.00209305
0.00207549
0.0020552
0.00204467
0.00202391
0.00202157
0.00198991
3.48797e-05
3.07603e-05
2.81743e-05
2.72839e-05
2.91453e-05
3.61382e-05
5.13391e-05
7.74862e-05
0.000112917
0.000153401
0.000194844
0.000239416
0.000290723
0.000352427
0.000424547
0.000506099
0.000594927
0.000689161
0.000786915
0.000886714
0.000987249
0.00108746
0.00118644
0.00128338
0.00137756
0.0014682
0.00155428
0.00163562
0.00171214
0.0017837
0.00185018
0.00191145
0.00196742
0.002018
0.00206312
0.00210276
0.00213692
0.00216562
0.00218895
0.002207
0.00221996
0.00222799
0.00223137
0.00223036
0.00222532
0.00221657
0.0022046
0.00218975
0.00217272
0.00215369
0.00213383
0.00211277
0.00209275
0.00207184
0.00205507
0.00203606
0.00202682
0.00200819
0.00200756
0.00197877
3.48743e-05
3.07464e-05
2.80976e-05
2.69713e-05
2.82275e-05
3.39461e-05
4.71767e-05
7.12483e-05
0.000105977
0.000147755
0.000191497
0.000237322
0.000287966
0.000347289
0.000416287
0.000494682
0.000580738
0.000672722
0.000768756
0.000867304
0.000966978
0.00106664
0.00116531
0.00126213
0.00135633
0.00144706
0.00153327
0.00161482
0.00169155
0.00176331
0.00182995
0.00189133
0.00194735
0.00199793
0.00204299
0.0020825
0.00211646
0.00214492
0.00216794
0.00218565
0.00219821
0.00220582
0.00220876
0.0022073
0.00220182
0.00219266
0.00218032
0.00216516
0.00214791
0.00212878
0.00210892
0.00208807
0.00206838
0.00204812
0.00203211
0.00201437
0.0020064
0.00198992
0.001991
0.00196525
3.48695e-05
3.07364e-05
2.80384e-05
2.67188e-05
2.74607e-05
3.20452e-05
4.3361e-05
6.50748e-05
9.83386e-05
0.000140608
0.000186388
0.000233915
0.0002847
0.000342384
0.000408678
0.00048401
0.000567166
0.000656646
0.000750657
0.000847641
0.000946155
0.001045
0.00114311
0.00123959
0.00133361
0.00142428
0.00151048
0.00159212
0.00166897
0.00174083
0.00180755
0.00186898
0.00192501
0.00197553
0.00202049
0.00205984
0.00209359
0.00212177
0.00214448
0.00216183
0.00217399
0.00218118
0.00218368
0.00218178
0.00217586
0.0021663
0.0021536
0.00213814
0.00212067
0.00210144
0.0020816
0.00206095
0.00204159
0.00202197
0.00200671
0.00199023
0.0019835
0.00196917
0.00197198
0.00194943
3.48654e-05
3.07294e-05
2.79936e-05
2.65168e-05
2.68257e-05
3.0418e-05
3.99325e-05
5.91418e-05
9.02924e-05
0.000132168
0.000179477
0.000228894
0.000280478
0.000337271
0.0004014
0.00047391
0.000554161
0.000640974
0.000732712
0.00082785
0.00092492
0.00102267
0.00111998
0.0012159
0.00130954
0.00139997
0.00148603
0.00156762
0.00164447
0.00171634
0.00178307
0.00184448
0.00190045
0.00195087
0.00199568
0.00203484
0.00206835
0.00209624
0.00211862
0.00213559
0.00214736
0.00215412
0.00215619
0.00215385
0.00214751
0.00213755
0.00212449
0.00210875
0.00209108
0.00207176
0.00205194
0.00203149
0.00201247
0.00199348
0.00197896
0.00196373
0.00195822
0.00194606
0.00195058
0.0019314
3.48617e-05
3.07248e-05
2.79604e-05
2.63567e-05
2.63044e-05
2.90415e-05
3.69075e-05
5.35871e-05
8.21265e-05
0.000122714
0.00017083
0.000222055
0.000274911
0.00033151
0.000394077
0.00046413
0.000541596
0.000625676
0.000714962
0.000808014
0.00090338
0.000999773
0.00109604
0.00119116
0.00128423
0.00137422
0.00146
0.00154142
0.00161815
0.00168993
0.00175657
0.00181788
0.00187373
0.001924
0.00196862
0.00200755
0.00204079
0.00206837
0.0020904
0.002107
0.00211835
0.0021247
0.00212633
0.00212356
0.0021168
0.00210646
0.00209307
0.00207706
0.00205919
0.0020398
0.00202001
0.00199977
0.00198109
0.00196274
0.00194894
0.00193495
0.00193064
0.00192064
0.0019269
0.00191123
3.48586e-05
3.07221e-05
2.79364e-05
2.62313e-05
2.58803e-05
2.78895e-05
3.42818e-05
4.85075e-05
7.41056e-05
0.000112574
0.000160617
0.000213303
0.000267684
0.000324688
0.00038631
0.00045436
0.000529272
0.000610656
0.00069739
0.000788171
0.000881605
0.000976405
0.00107138
0.00116549
0.00125777
0.00134714
0.00143248
0.00151358
0.00159007
0.00166166
0.00172812
0.00178926
0.00184492
0.00189498
0.00193936
0.00197802
0.00201096
0.00203821
0.00205988
0.00207608
0.00208703
0.00209295
0.00209415
0.00209096
0.0020838
0.00207309
0.00205937
0.00204311
0.00202507
0.00200562
0.00198587
0.00196587
0.00194753
0.00192981
0.00191673
0.00190398
0.00190084
0.00189302
0.001901
0.00188898
3.48558e-05
3.07209e-05
2.79199e-05
2.61343e-05
2.55382e-05
2.6935e-05
3.20364e-05
4.3961e-05
6.64555e-05
0.000102101
0.000149103
0.00020265
0.000258571
0.000316432
0.000377697
0.000444249
0.000516932
0.000595756
0.000679919
0.000768309
0.00085963
0.000952623
0.00104609
0.00113897
0.00123026
0.00131881
0.00140356
0.0014842
0.00156032
0.0016316
0.00169778
0.00175866
0.00181406
0.00186385
0.00190795
0.0019463
0.00197891
0.0020058
0.00202709
0.00204289
0.00205342
0.00205892
0.00205969
0.00205609
0.00204854
0.00203748
0.00202346
0.00200697
0.00198877
0.00196928
0.0019496
0.00192984
0.00191185
0.00189478
0.00188241
0.00187089
0.0018689
0.00186327
0.00187298
0.00186473
3.48533e-05
3.07208e-05
2.79092e-05
2.60606e-05
2.52649e-05
2.61516e-05
3.01418e-05
3.997e-05
5.93518e-05
9.16449e-05
0.000136632
0.000190226
0.000247445
0.000306437
0.000367857
0.000433431
0.000504274
0.000580759
0.000662417
0.000748365
0.000837442
0.000928452
0.00102022
0.00111166
0.00120175
0.0012893
0.00137331
0.00145334
0.00152896
0.00159981
0.00166562
0.00172615
0.00178121
0.00183067
0.00187443
0.00191243
0.00194467
0.00197118
0.00199207
0.00200746
0.00201757
0.00202265
0.00202301
0.00201901
0.00201108
0.00199968
0.00198538
0.00196868