/*--------------------------------*- C++ -*----------------------------------*\
| =========                 |                                                 |
| \\      /  F ield         | OpenFOAM: The Open Source CFD Toolbox           |
|  \\    /   O peration     | Version:  2.4.0                                 |
|   \\  /    A nd           | Web:      www.OpenFOAM.org                      |
|    \\/     M anipulation  |                                                 |
\*---------------------------------------------------------------------------*/
FoamFile
{
    version     2.0;
    format      ascii;
    class       surfaceScalarField;
    location    "4.54";
    object      phi;
}
// * * * * * * * * * * * * * * * * * * * * * * * * * * * * * * * * * * * * * //

dimensions      [0 3 -1 0 0 0 0];

internalField   nonuniform List<scalar> 
11840
(
7.83571e-07
9.21643e-06
-9.3611e-07
1.71968e-06
6.58418e-07
-1.59453e-06
1.45935e-07
5.12482e-07
-2.0615e-07
3.52086e-07
-3.01537e-07
9.53869e-08
-3.99276e-07
9.77387e-08
-4.91229e-07
9.19532e-08
-6.85596e-07
1.94367e-07
-8.77208e-07
1.91613e-07
-1.17003e-06
2.9282e-07
-1.42663e-06
2.56602e-07
-1.69256e-06
2.65926e-07
-1.862e-06
1.69445e-07
-1.9276e-06
6.55954e-08
-1.84846e-06
-7.91396e-08
-1.68419e-06
-1.64269e-07
-1.5525e-06
-1.31692e-07
-1.64312e-06
9.0623e-08
-2.04999e-06
4.06875e-07
-2.65453e-06
6.04531e-07
-3.21919e-06
5.64669e-07
-3.62594e-06
4.06744e-07
-3.90226e-06
2.76326e-07
-4.0976e-06
1.95334e-07
-4.23778e-06
1.40183e-07
-4.33659e-06
9.88069e-08
-4.40052e-06
6.3936e-08
-4.43378e-06
3.32577e-08
-4.43735e-06
3.57327e-09
-4.41291e-06
-2.44493e-08
-4.36266e-06
-5.02433e-08
-4.28852e-06
-7.41389e-08
-4.19105e-06
-9.74742e-08
-4.07029e-06
-1.2076e-07
-3.92568e-06
-1.44612e-07
-3.7565e-06
-1.69182e-07
-3.56125e-06
-1.95248e-07
-3.33883e-06
-2.22415e-07
-3.08657e-06
-2.52264e-07
-2.80384e-06
-2.82726e-07
-2.48583e-06
-3.18007e-07
-2.13474e-06
-3.51093e-07
-1.74061e-06
-3.94127e-07
-1.31408e-06
-4.26535e-07
-8.33549e-07
-4.8053e-07
-3.26011e-07
-5.07538e-07
2.44344e-07
-5.70355e-07
8.22609e-07
-5.78265e-07
1.49354e-06
-6.7093e-07
2.11625e-06
-6.22708e-07
2.89456e-06
-7.78313e-07
3.4997e-06
-6.05142e-07
4.3907e-06
-8.91004e-07
4.84444e-06
-4.5373e-07
5.88062e-06
-1.03619e-06
5.96758e-06
-8.69552e-08
7.25043e-06
-1.28286e-06
6.77676e-06
4.73679e-07
-2.24589e-06
2.45149e-06
1.67649e-05
-5.06733e-07
4.6779e-06
3.6807e-07
-2.46933e-06
-8.68783e-08
9.6743e-07
-3.11793e-07
5.77e-07
-4.61939e-07
2.45533e-07
-5.54737e-07
1.90536e-07
-6.70979e-07
2.08196e-07
-8.73524e-07
3.96911e-07
-1.09485e-06
4.12939e-07
-1.3796e-06
5.77567e-07
-1.64108e-06
5.18083e-07
-1.87753e-06
5.02381e-07
-2.02769e-06
3.19603e-07
-2.07696e-06
1.14862e-07
-2.01174e-06
-1.44362e-07
-1.8786e-06
-2.9741e-07
-1.79573e-06
-2.14557e-07
-1.9423e-06
2.37194e-07
-2.39213e-06
8.56706e-07
-2.97576e-06
1.18816e-06
-3.46125e-06
1.05015e-06
-3.79343e-06
7.38921e-07
-4.0229e-06
5.05802e-07
-4.1862e-06
3.58629e-07
-4.3013e-06
2.55289e-07
-4.37772e-06
1.75219e-07
-4.42081e-06
1.07026e-07
-4.43401e-06
4.64592e-08
-4.42039e-06
-1.00431e-08
-4.38136e-06
-6.34788e-08
-4.31788e-06
-1.13729e-07
-4.2307e-06
-1.61318e-07
-4.12035e-06
-2.07825e-07
-3.98684e-06
-2.54267e-07
-3.82967e-06
-3.01778e-07
-3.648e-06
-3.50857e-07
-3.44044e-06
-4.02805e-07
-3.20549e-06
-4.57367e-07
-2.94096e-06
-5.16791e-07
-2.64505e-06
-5.78638e-07
-2.31477e-06
-6.48292e-07
-1.94871e-06
-7.17144e-07
-1.54293e-06
-7.99909e-07
-1.0976e-06
-8.71866e-07
-6.07907e-07
-9.70225e-07
-7.64124e-08
-1.03903e-06
5.01892e-07
-1.14866e-06
1.11575e-06
-1.19212e-06
1.78392e-06
-1.3391e-06
2.47056e-06
-1.30935e-06
3.21884e-06
-1.5266e-06
3.93693e-06
-1.32323e-06
4.73907e-06
-1.69314e-06
5.3994e-06
-1.11406e-06
6.23083e-06
-1.86762e-06
6.68714e-06
-5.4327e-07
7.60782e-06
-2.20353e-06
7.78426e-06
2.97238e-07
-3.69604e-06
3.60702e-06
2.31579e-05
1.73515e-08
8.26757e-06
5.83079e-08
-2.51029e-06
-3.04856e-07
1.33059e-06
-3.67524e-07
6.39668e-07
-5.27093e-07
4.05102e-07
-6.0855e-07
2.71993e-07
-7.33848e-07
3.33494e-07
-9.2079e-07
5.83853e-07
-1.14357e-06
6.35718e-07
-1.40663e-06
8.40632e-07
-1.66074e-06
7.72187e-07
-1.88512e-06
7.26769e-07
-2.03885e-06
4.73328e-07
-2.09969e-06
1.75698e-07
-2.0586e-06
-1.85448e-07
-1.956e-06
-4.00011e-07
-1.90112e-06
-2.69435e-07
-2.05074e-06
3.86811e-07
-2.46515e-06
1.27112e-06
-2.98856e-06
1.71158e-06
-3.42356e-06
1.48515e-06
-3.72924e-06
1.04461e-06
-3.94472e-06
7.21284e-07
-4.09776e-06
5.11662e-07
-4.20387e-06
3.61405e-07
-4.27175e-06
2.43098e-07
-4.30665e-06
1.41921e-07
-4.31203e-06
5.18387e-08
-4.29051e-06
-3.15575e-08
-4.24406e-06
-1.09932e-07
-4.17365e-06
-1.84136e-07
-4.08009e-06
-2.5488e-07
-3.96389e-06
-3.24027e-07
-3.82508e-06
-3.93078e-07
-3.6632e-06
-4.63657e-07
-3.47738e-06
-5.36674e-07
-3.2663e-06
-6.13881e-07
-3.02835e-06
-6.95322e-07
-2.76147e-06
-7.83675e-07
-2.46353e-06
-8.76573e-07
-2.132e-06
-9.79827e-07
-1.76457e-06
-1.08457e-06
-1.35867e-06
-1.20582e-06
-9.12053e-07
-1.31848e-06
-4.2346e-07
-1.45882e-06
1.09639e-07
-1.57213e-06
6.86159e-07
-1.72518e-06
1.3061e-06
-1.81206e-06
1.9699e-06
-2.0029e-06
2.66928e-06
-2.00873e-06
3.40475e-06
-2.26207e-06
4.15023e-06
-2.06872e-06
4.91816e-06
-2.46106e-06
5.64114e-06
-1.83705e-06
6.38618e-06
-2.61266e-06
6.98847e-06
-1.14557e-06
7.69558e-06
-2.91064e-06
8.18224e-06
-1.89425e-07
-4.67823e-06
4.52853e-06
2.86294e-05
7.56604e-07
1.20395e-05
-2.339e-07
-1.51978e-06
-4.60408e-07
1.5571e-06
-3.98211e-07
5.77471e-07
-5.59668e-07
5.66559e-07
-6.32579e-07
3.44904e-07
-7.61783e-07
4.62697e-07
-9.34081e-07
7.56152e-07
-1.15104e-06
8.52675e-07
-1.39736e-06
1.08695e-06
-1.64314e-06
1.01797e-06
-1.86128e-06
9.44904e-07
-2.01988e-06
6.31932e-07
-2.09412e-06
2.49936e-07
-2.07609e-06
-2.03482e-07
-2.00107e-06
-4.75022e-07
-1.96758e-06
-3.02929e-07
-2.1121e-06
5.31329e-07
-2.48524e-06
1.64426e-06
-2.95322e-06
2.17956e-06
-3.34912e-06
1.88105e-06
-3.63538e-06
1.33087e-06
-3.83985e-06
9.2575e-07
-3.98452e-06
6.56338e-07
-4.08326e-06
4.60139e-07
-4.1442e-06
3.0404e-07
-4.1725e-06
1.70218e-07
-4.17158e-06
5.09268e-08
-4.14407e-06
-5.90725e-08
-4.09191e-06
-1.62089e-07
-4.01631e-06
-2.59737e-07
-3.9181e-06
-3.53094e-07
-3.79779e-06
-4.44332e-07
-3.65545e-06
-5.35417e-07
-3.49066e-06
-6.28452e-07
-3.30255e-06
-7.24787e-07
-3.08982e-06
-8.26608e-07
-2.85082e-06
-9.34318e-07
-2.58355e-06
-1.05094e-06
-2.28576e-06
-1.17436e-06
-1.95504e-06
-1.31055e-06
-1.58878e-06
-1.45083e-06
-1.1848e-06
-1.60979e-06
-7.40087e-07
-1.7632e-06
-2.54312e-07
-1.94459e-06
2.7645e-07
-2.10289e-06
8.49758e-07
-2.29849e-06
1.46883e-06
-2.43114e-06
2.12838e-06
-2.66245e-06
2.82875e-06
-2.7091e-06
3.5566e-06
-2.98992e-06
4.30773e-06
-2.81985e-06
5.05975e-06
-3.21307e-06
5.80106e-06
-2.57836e-06
6.50941e-06
-3.32101e-06
7.16355e-06
-1.79971e-06
7.77916e-06
-3.52624e-06
8.38638e-06
-7.96651e-07
-5.42982e-06
5.30464e-06
3.33248e-05
1.49063e-06
1.58535e-05
-2.59834e-07
2.30681e-07
-5.51583e-07
1.84885e-06
-4.19195e-07
4.45083e-07
-5.77827e-07
7.2519e-07
-6.44328e-07
4.11406e-07
-7.73693e-07
5.92062e-07
-9.33297e-07
9.15756e-07
-1.1413e-06
1.06068e-06
-1.37342e-06
1.31907e-06
-1.61077e-06
1.25532e-06
-1.82452e-06
1.15865e-06
-1.98799e-06
7.95401e-07
-2.07564e-06
3.37586e-07
-2.0796e-06
-1.99527e-07
-2.0301e-06
-5.24521e-07
-2.01425e-06
-3.18775e-07
-2.14995e-06
6.67029e-07
-2.48132e-06
1.97563e-06
-2.89813e-06
2.59637e-06
-3.25981e-06
2.24273e-06
-3.52883e-06
1.59989e-06
-3.7231e-06
1.12002e-06
-3.86003e-06
7.93263e-07
-3.95196e-06
5.52071e-07
-4.00657e-06
3.58653e-07
-4.02889e-06
1.92535e-07
-4.02232e-06
4.43619e-08
-3.98949e-06
-9.19064e-08
-3.93235e-06
-2.19225e-07
-3.85225e-06
-3.3984e-07
-3.75007e-06
-4.55279e-07
-3.62635e-06
-5.68053e-07
-3.48118e-06
-6.80585e-07
-3.31417e-06
-7.95455e-07
-3.12449e-06
-9.14472e-07
-2.91085e-06
-1.04025e-06
-2.67158e-06
-1.17359e-06
-2.4047e-06
-1.31783e-06
-2.1079e-06
-1.47116e-06
-1.77882e-06
-1.63963e-06
-1.41468e-06
-1.81496e-06
-1.01348e-06
-2.011e-06
-5.71833e-07
-2.20484e-06
-8.96664e-08
-2.42676e-06
4.37373e-07
-2.62993e-06
1.00663e-06
-2.86774e-06
1.62238e-06
-3.04689e-06
2.27713e-06
-3.31719e-06
2.97459e-06
-3.40656e-06
3.6958e-06
-3.71113e-06
4.44567e-06
-3.56972e-06
5.18694e-06
-3.95434e-06
5.93235e-06
-3.32377e-06
6.62018e-06
-4.00883e-06
7.29369e-06
-2.47322e-06
7.86336e-06
-4.09592e-06
8.5172e-06
-1.4505e-06
-6.05267e-06
5.97552e-06
3.73492e-05
2.24017e-06
1.95889e-05
-6.28877e-08
2.53374e-06
-5.83088e-07
2.36905e-06
-4.36788e-07
2.98784e-07
-5.87559e-07
8.75961e-07
-6.48966e-07
4.72813e-07
-7.76193e-07
7.19289e-07
-9.24206e-07
1.06377e-06
-1.12188e-06
1.25835e-06
-1.34097e-06
1.53816e-06
-1.56988e-06
1.48423e-06
-1.77986e-06
1.36863e-06
-1.94789e-06
9.63431e-07
-2.04853e-06
4.38222e-07
-2.07348e-06
-1.74575e-07
-2.04782e-06
-5.50175e-07
-2.04703e-06
-3.19565e-07
-2.17185e-06
7.91842e-07
-2.46221e-06
2.266e-06
-2.83121e-06
2.96536e-06
-3.16136e-06
2.57288e-06
-3.41405e-06
1.85257e-06
-3.5984e-06
1.30438e-06
-3.7278e-06
9.2266e-07
-3.81318e-06
6.3745e-07
-3.86174e-06
4.07212e-07
-3.87836e-06
2.0916e-07
-3.86645e-06
3.24501e-08
-3.82862e-06
-1.29739e-07
-3.76685e-06
-2.80987e-07
-3.68259e-06
-4.24107e-07
-3.57677e-06
-5.61096e-07
-3.44998e-06
-6.94846e-07
-3.30233e-06
-8.28229e-07
-3.13349e-06
-9.64304e-07
-2.94261e-06
-1.10535e-06
-2.72844e-06
-1.25442e-06
-2.48931e-06
-1.41271e-06
-2.22325e-06
-1.58389e-06
-1.9279e-06
-1.76651e-06
-1.60092e-06
-1.96661e-06
-1.23945e-06
-2.17643e-06
-8.41521e-07
-2.40893e-06
-4.03594e-07
-2.64277e-06
7.44464e-08
-2.9048e-06
5.97012e-07
-3.1525e-06
1.16159e-06
-3.43232e-06
1.77277e-06
-3.65807e-06
2.42212e-06
-3.96653e-06
3.11485e-06
-4.0993e-06
3.82939e-06
-4.42568e-06
4.57502e-06
-4.31534e-06
5.30718e-06
-4.6865e-06
6.05086e-06
-4.06745e-06
6.72421e-06
-4.68219e-06
7.40392e-06
-3.15293e-06
7.9459e-06
-4.6379e-06
8.61619e-06
-2.12078e-06
-6.59075e-06
6.56078e-06
4.07885e-05
2.97409e-06
2.31755e-05
2.30343e-07
5.27748e-06
-5.36341e-07
3.13574e-06
-4.52081e-07
2.14524e-07
-5.91304e-07
1.01518e-06
-6.48421e-07
5.2993e-07
-7.72191e-07
8.43059e-07
-9.09224e-07
1.2008e-06
-1.09592e-06
1.44505e-06
-1.30257e-06
1.74481e-06
-1.52297e-06
1.70463e-06
-1.72927e-06
1.57493e-06
-1.90139e-06
1.13556e-06
-2.01439e-06
5.51223e-07
-2.05935e-06
-1.29619e-07
-2.05607e-06
-5.53454e-07
-2.06838e-06
-3.07255e-07
-2.1812e-06
9.04662e-07
-2.43192e-06
2.51672e-06
-2.7559e-06
3.28934e-06
-3.05624e-06
2.87322e-06
-3.29295e-06
2.08928e-06
-3.4674e-06
1.47883e-06
-3.5893e-06
1.04456e-06
-3.66821e-06
7.16361e-07
-3.71084e-06
4.49836e-07
-3.72191e-06
2.20229e-07
-3.70479e-06
1.5338e-08
-3.66212e-06
-1.7241e-07
-3.59591e-06
-3.47197e-07
-3.50766e-06
-5.12355e-07
-3.39839e-06
-6.70367e-07
-3.26872e-06
-8.24522e-07
-3.1188e-06
-9.7815e-07
-2.94831e-06
-1.13479e-06
-2.75646e-06
-1.2972e-06
-2.54201e-06
-1.46887e-06
-2.30328e-06
-1.65144e-06
-2.03831e-06
-1.84887e-06
-1.74471e-06
-2.06011e-06
-1.42015e-06
-2.29116e-06
-1.06171e-06
-2.53488e-06
-6.67409e-07
-2.80322e-06
-2.33629e-07
-3.07655e-06
2.39893e-07
-3.37832e-06
7.57474e-07
-3.67008e-06
1.31686e-06
-3.99171e-06
1.92266e-06
-4.26387e-06
2.56608e-06
-4.60996e-06
3.25298e-06
-4.78619e-06
3.96058e-06
-5.13328e-06
4.70032e-06
-5.05509e-06
5.42389e-06
-5.41007e-06
6.16288e-06
-4.80644e-06
6.8244e-06
-5.3437e-06
7.50384e-06
-3.83238e-06
8.0265e-06
-5.16056e-06
8.69904e-06
-2.79331e-06
-7.06606e-06
7.07181e-06
4.37166e-05
3.68667e-06
2.65607e-05
6.53876e-07
8.31028e-06
-4.06489e-07
4.1961e-06
-4.6109e-07
2.69125e-07
-5.90026e-07
1.14412e-06
-6.43498e-07
5.83403e-07
-7.63131e-07
9.62692e-07
-8.89585e-07
1.32726e-06
-1.06499e-06
1.62045e-06
-1.25949e-06
1.93932e-06
-1.47126e-06
1.9164e-06
-1.67369e-06
1.77736e-06
-1.84932e-06
1.31118e-06
-1.97393e-06
6.75827e-07
-2.03785e-06
-6.56958e-08
-2.05558e-06
-5.35725e-07
-2.07946e-06
-2.83377e-07
-2.17985e-06
1.00505e-06
-2.39268e-06
2.72955e-06
-2.6741e-06
3.57075e-06
-2.94579e-06
3.14491e-06
-3.16658e-06
2.31007e-06
-3.331e-06
1.64325e-06
-3.44534e-06
1.15891e-06
-3.51777e-06
7.88793e-07
-3.55449e-06
4.86552e-07
-3.56005e-06
2.25789e-07
-3.5378e-06
-6.91533e-09
-3.49036e-06
-2.19849e-07
-3.41979e-06
-4.17768e-07
-3.32765e-06
-6.04495e-07
-3.21502e-06
-7.82996e-07
-3.08256e-06
-9.56978e-07
-2.93048e-06
-1.13023e-06
-2.75849e-06
-1.30678e-06
-2.56581e-06
-1.48988e-06
-2.35123e-06
-1.68345e-06
-2.11308e-06
-1.8896e-06
-1.84938e-06
-2.11256e-06
-1.55775e-06
-2.35174e-06
-1.23585e-06
-2.61306e-06
-8.80698e-07
-2.89004e-06
-4.90305e-07
-3.19362e-06
-6.09933e-08
-3.50586e-06
4.07674e-07
-3.84699e-06
9.19874e-07
-4.18228e-06
1.47364e-06
-4.54548e-06
2.07345e-06
-4.86367e-06
2.71047e-06
-5.24698e-06
3.39076e-06
-5.46648e-06
4.09108e-06
-5.8336e-06
4.82389e-06
-5.78789e-06
5.53895e-06
-6.12513e-06
6.27147e-06
-5.53896e-06
6.92236e-06
-5.99459e-06
7.59789e-06
-4.5079e-06
8.10545e-06
-5.66812e-06
8.77269e-06
-3.46056e-06
-7.49113e-06
7.51725e-06
4.61994e-05
4.37164e-06
2.97063e-05
1.18055e-06
1.15014e-05
-2.07513e-07
5.58416e-06
-4.54386e-07
5.15997e-07
-5.83695e-07
1.27343e-06
-6.34479e-07
6.34186e-07
-7.49757e-07
1.07797e-06
-8.65976e-07
1.44347e-06
-1.02999e-06
1.78447e-06
-1.21249e-06
2.12182e-06
-1.41543e-06
2.11933e-06
-1.61366e-06
1.9756e-06
-1.79211e-06
1.48963e-06
-1.92744e-06
8.11162e-07
-2.00924e-06
1.60959e-08
-2.04667e-06
-4.9829e-07
-2.08092e-06
-2.49131e-07
-2.16895e-06
1.09308e-06
-2.34586e-06
2.90647e-06
-2.58696e-06
3.81185e-06
-2.83084e-06
3.38879e-06
-3.03562e-06
2.51486e-06
-3.18979e-06
1.79741e-06
-3.29642e-06
1.26554e-06
-3.3623e-06
8.54672e-07
-3.39308e-06
5.17329e-07
-3.39313e-06
2.25833e-07
-3.36574e-06
-3.4304e-08
-3.31355e-06
-2.72036e-07
-3.23865e-06
-4.9267e-07
-3.14265e-06
-7.00489e-07
-3.02671e-06
-8.98939e-07
-2.89153e-06
-1.09216e-06
-2.73735e-06
-1.28441e-06
-2.56393e-06
-1.4802e-06
-2.37052e-06
-1.68329e-06
-2.15592e-06
-1.89805e-06
-1.91847e-06
-2.12705e-06
-1.6562e-06
-2.37483e-06
-1.36671e-06
-2.64123e-06
-1.04765e-06
-2.93212e-06
-6.95994e-07
-3.24169e-06
-3.09727e-07
-3.57988e-06
1.14854e-07
-3.93044e-06
5.78375e-07
-4.31051e-06
1.08486e-06
-4.68876e-06
1.63262e-06
-5.09324e-06
2.22595e-06
-5.457e-06
2.85615e-06
-5.87717e-06
3.52923e-06
-6.13956e-06
4.22191e-06
-6.52628e-06
4.947e-06
-6.51298e-06
5.65343e-06
-6.83156e-06
6.37829e-06
-6.26382e-06
7.01912e-06
-6.63542e-06
7.68841e-06
-5.1772e-06
8.1831e-06
-6.1628e-06
8.84065e-06
-4.11811e-06
-7.87386e-06
7.90476e-06
4.82946e-05
5.02311e-06
3.2588e-05
1.7734e-06
1.47511e-05
5.77191e-08
7.29984e-06
-4.21924e-07
9.9564e-07
-5.71267e-07
1.42277e-06
-6.21295e-07
6.84214e-07
-7.32406e-07
1.18908e-06
-8.38773e-07
1.54984e-06
-9.9144e-07
1.93714e-06
-1.16201e-06
2.29238e-06
-1.35587e-06
2.31319e-06
-1.54946e-06
2.16918e-06
-1.72996e-06
1.67014e-06
-1.87505e-06
9.56253e-07
-1.97355e-06
1.14591e-07
-2.02942e-06
-4.42413e-07
-2.0731e-06
-2.05455e-07
-2.14923e-06
1.16921e-06
-2.29239e-06
3.04963e-06
-2.49525e-06
4.01471e-06
-2.71197e-06
3.60551e-06
-2.90054e-06
2.70344e-06
-3.04417e-06
1.94104e-06
-3.14291e-06
1.36428e-06
-3.20213e-06
9.13885e-07
-3.2269e-06
5.421e-07
-3.22138e-06
2.20319e-07
-3.18883e-06
-6.68565e-08
-3.13188e-06
-3.28991e-07
-3.05264e-06
-5.71909e-07
-2.95279e-06
-8.00331e-07
-2.83355e-06
-1.01818e-06
-2.69567e-06
-1.23004e-06
-2.53943e-06
-1.44065e-06
-2.36463e-06
-1.655e-06
-2.17055e-06
-1.87737e-06
-1.956e-06
-2.11259e-06
-1.71934e-06
-2.36372e-06
-1.45861e-06
-2.63556e-06
-1.17139e-06
-2.92846e-06
-8.55318e-07
-3.24819e-06
-5.07343e-07
-3.58966e-06
-1.2539e-07
-3.96184e-06
2.94238e-07
-4.35007e-06
7.52347e-07
-4.76862e-06
1.25282e-06
-5.18923e-06
1.79423e-06
-5.63466e-06
2.38068e-06
-6.04345e-06
3.00365e-06
-6.50014e-06
3.66903e-06
-6.80495e-06
4.35369e-06
-7.21094e-06
5.07046e-06
-7.22975e-06
5.76804e-06
-7.52915e-06
6.48436e-06
-6.98014e-06
7.11531e-06
-7.26636e-06
7.77678e-06
-5.83868e-06
8.25979e-06
-6.64581e-06
8.90489e-06
-4.76321e-06
-8.21959e-06
8.24133e-06
5.00533e-05
5.63648e-06
3.51928e-05
2.41079e-06
1.79768e-05
4.34715e-07
9.27592e-06
-3.52989e-07
1.78334e-06
-5.50308e-07
1.62009e-06
-6.03545e-07
7.37451e-07
-7.1113e-07
1.29667e-06
-8.08141e-07
1.64685e-06
-9.49621e-07
2.07862e-06
-1.1083e-06
2.45107e-06
-1.29284e-06
2.49773e-06
-1.48126e-06
2.3576e-06
-1.66298e-06
1.85186e-06
-1.81676e-06
1.11004e-06
-1.93073e-06
2.28554e-07
-2.00382e-06
-3.69324e-07
-2.05621e-06
-1.53064e-07
-2.1212e-06
1.23421e-06
-2.2329e-06
3.16134e-06
-2.39952e-06
4.18132e-06
-2.58959e-06
3.79558e-06
-2.76169e-06
2.87554e-06
-2.89447e-06
2.07382e-06
-2.98509e-06
1.4549e-06
-3.03749e-06
9.66283e-07
-3.05615e-06
5.60766e-07
-3.04501e-06
2.0918e-07
-3.00725e-06
-1.04624e-07
-2.94549e-06
-3.90751e-07
-2.86188e-06
-6.55511e-07
-2.75817e-06
-9.04041e-07
-2.63562e-06
-1.14074e-06
-2.49503e-06
-1.37063e-06
-2.33675e-06
-1.59893e-06
-2.16059e-06
-1.83115e-06
-1.96588e-06
-2.07208e-06
-1.75145e-06
-2.32702e-06
-1.51566e-06
-2.59951e-06
-1.25655e-06
-2.89466e-06
-9.71705e-07
-3.21331e-06
-6.58749e-07
-3.56114e-06
-3.14602e-07
-3.93381e-06
6.28722e-08
-4.33931e-06
4.77349e-07
-4.76455e-06
9.29804e-07
-5.22107e-06
1.42399e-06
-5.68342e-06
1.95874e-06
-6.1694e-06
2.53794e-06
-6.62265e-06
3.15332e-06
-7.11552e-06
3.81057e-06
-7.46219e-06
4.48685e-06
-7.88723e-06
5.19479e-06
-7.93769e-06
5.88325e-06
-8.2176e-06
6.59033e-06
-7.68723e-06
7.21137e-06
-7.8874e-06
7.86385e-06
-6.49116e-06
8.33576e-06
-7.11771e-06
8.96661e-06
-5.39406e-06
-8.53219e-06
8.53316e-06
5.15201e-05
6.20845e-06
3.75175e-05
3.07047e-06
2.11148e-05
8.68103e-07
1.14783e-05
-2.21511e-07
2.87296e-06
-5.16058e-07
1.91464e-06
-5.80381e-07
8.01775e-07
-6.85727e-07
1.40201e-06
-7.74076e-07
1.7352e-06
-9.04666e-07
2.20921e-06
-1.05152e-06
2.59792e-06
-1.22647e-06
2.67268e-06
-1.40916e-06
2.5403e-06
-1.59121e-06
2.03391e-06
-1.75254e-06
1.27137e-06
-1.88068e-06
3.56686e-07
-1.96977e-06
-2.80232e-07
-2.03034e-06
-9.24967e-08
-2.08519e-06
1.28906e-06
-2.1678e-06
3.24395e-06
-2.30011e-06
4.31362e-06
-2.464e-06
3.95947e-06
-2.61935e-06
3.03089e-06
-2.74093e-06
2.1954e-06
-2.82317e-06
1.53714e-06
-2.86858e-06
1.0117e-06
-2.88103e-06
5.73213e-07
-2.86418e-06
1.92331e-07
-2.82113e-06
-1.47674e-07
-2.75451e-06
-4.57372e-07
-2.6665e-06
-7.43518e-07
-2.55889e-06
-1.01165e-06
-2.43301e-06
-1.26663e-06
-2.2897e-06
-1.51393e-06
-2.12937e-06
-1.75927e-06
-1.95188e-06
-2.00864e-06
-1.75656e-06
-2.2674e-06
-1.54228e-06
-2.5413e-06
-1.30741e-06
-2.83438e-06
-1.05001e-06
-3.15207e-06
-7.67626e-07
-3.49569e-06
-4.57891e-07
-3.87088e-06
-1.17701e-07
-4.274e-06
2.55147e-07
-4.71216e-06
6.64292e-07
-5.17369e-06
1.11087e-06
-5.66765e-06
1.59854e-06
-6.17109e-06
2.12632e-06
-6.69718e-06
2.69794e-06
-7.19428e-06
3.30539e-06
-7.72297e-06
3.95412e-06
-8.11092e-06
4.62168e-06
-8.55479e-06
5.32033e-06
-8.63633e-06
5.99936e-06
-8.89663e-06
6.69661e-06
-8.38448e-06
7.30762e-06
-8.49841e-06
7.95019e-06
-7.13373e-06
8.41123e-06
-7.57875e-06
9.02658e-06
-6.00942e-06
-8.81455e-06
8.78581e-06
5.27343e-05
6.73707e-06
3.95662e-05
3.73643e-06
2.41154e-05
1.36221e-06
1.38525e-05
-6.72067e-09
4.24189e-06
-4.5996e-07
2.36788e-06
-5.50258e-07
8.92073e-07
-6.5572e-07
1.50747e-06
-7.36405e-07
1.81589e-06
-8.5657e-07
2.32937e-06
-9.91689e-07
2.73304e-06
-1.15681e-06
2.8378e-06
-1.3332e-06
2.71668e-06
-1.51465e-06
2.21536e-06
-1.68232e-06
1.43904e-06
-1.82326e-06
4.97627e-07
-1.92716e-06
-1.76334e-07
-1.99551e-06
-2.41483e-08
-2.0414e-06
1.33496e-06
-2.09736e-06
3.29991e-06
-2.19726e-06
4.41352e-06
-2.33542e-06
4.09763e-06
-2.47371e-06
3.16919e-06
-2.58374e-06
2.30542e-06
-2.65733e-06
1.61074e-06
-2.69558e-06
1.04994e-06
-2.70168e-06
5.79311e-07
-2.67902e-06
1.69677e-07
-2.63062e-06
-1.96082e-07
-2.55907e-06
-5.28916e-07
-2.46661e-06
-8.35983e-07
-2.35506e-06
-1.1232e-06
-2.22581e-06
-1.39588e-06
-2.07977e-06
-1.65997e-06
-1.91738e-06
-1.92166e-06
-1.73855e-06
-2.18747e-06
-1.54264e-06
-2.4633e-06
-1.32855e-06
-2.75539e-06
-1.09465e-06
-3.06828e-06
-8.39e-07
-3.40772e-06
-5.5916e-07
-3.77553e-06
-2.52738e-07
-4.1773e-06
8.33824e-08
-4.61012e-06
4.51467e-07
-5.08024e-06
8.55116e-07
-5.57734e-06
1.29561e-06
-6.10815e-06
1.77653e-06
-6.65201e-06
2.29708e-06
-7.21773e-06
2.86082e-06
-7.75803e-06
3.46003e-06
-8.32218e-06
4.09989e-06
-8.75078e-06
4.75838e-06
-9.21329e-06
5.44732e-06
-9.32528e-06
6.1166e-06
-9.56591e-06
6.80353e-06
-9.07141e-06
7.40429e-06
-9.09917e-06
8.03618e-06
-7.76562e-06
8.48636e-06
-8.02893e-06
9.08534e-06
-6.6084e-06
-9.06895e-06
9.00427e-06
5.37301e-05
7.22161e-06
4.13489e-05
4.39653e-06
2.69405e-05
1.90666e-06
1.63424e-05
2.38348e-07
5.9102e-06
-3.68646e-07
2.97487e-06
-5.10513e-07
1.03394e-06
-6.20282e-07
1.61724e-06
-6.9478e-07
1.89038e-06
-8.05194e-07
2.43979e-06
-9.28767e-07
2.85661e-06
-1.08386e-06
2.99289e-06
-1.25336e-06
2.88618e-06
-1.43326e-06
2.39527e-06
-1.60601e-06
1.61178e-06
-1.75834e-06
6.49962e-07
-1.87585e-06
-5.88238e-08
-1.95169e-06
5.16889e-08
-1.98993e-06
1.37321e-06
-2.02171e-06
3.33168e-06
-2.0911e-06
4.48291e-06
-2.204e-06
4.21053e-06
-2.32496e-06
3.29015e-06
-2.42306e-06
2.40352e-06
-2.48773e-06
1.67541e-06
-2.51861e-06
1.08083e-06
-2.51822e-06
5.78921e-07
-2.48966e-06
1.41113e-07
-2.43581e-06
-2.4993e-07
-2.35928e-06
-6.0545e-07
-2.2623e-06
-9.3296e-07
-2.14677e-06
-1.23873e-06
-2.01411e-06
-1.52854e-06
-1.86532e-06
-1.80876e-06
-1.70086e-06
-2.08612e-06
-1.52068e-06
-2.36765e-06
-1.3242e-06
-2.65979e-06
-1.11031e-06
-2.96927e-06
-8.77413e-07
-3.30118e-06
-6.23575e-07
-3.66155e-06
-3.46343e-07
-4.05276e-06
-4.33147e-08
-4.48033e-06
2.88635e-07
-4.94207e-06
6.51828e-07
-5.44344e-06
1.04983e-06
-5.97534e-06
1.48405e-06
-6.54237e-06
1.95801e-06
-7.12596e-06
2.47107e-06
-7.73079e-06
3.02667e-06
-8.31362e-06
3.61733e-06
-8.91283e-06
4.24799e-06
-9.38144e-06
4.89708e-06
-9.86238e-06
5.57595e-06
-1.00041e-05
6.23515e-06
-1.02251e-05
6.91128e-06
-9.74753e-06
7.50152e-06
-9.68941e-06
8.12209e-06
-8.3862e-06
8.56129e-06
-8.46812e-06
9.14325e-06
-7.19035e-06
-9.29721e-06
9.19307e-06
5.4537e-05
7.66233e-06
4.28796e-05
5.04121e-06
2.95616e-05
2.49251e-06
1.88911e-05
5.76581e-07
7.82614e-06
-2.29602e-07
3.78105e-06
-4.56867e-07
1.2612e-06
-5.78097e-07
1.73847e-06
-6.48633e-07
1.96092e-06
-7.50263e-07
2.54142e-06
-8.62605e-07
2.96895e-06
-1.00752e-06
3.13781e-06
-1.16958e-06
3.04824e-06
-1.34699e-06
2.57267e-06
-1.5235e-06
1.7883e-06
-1.68577e-06
8.12231e-07
-1.8157e-06
7.11029e-08
-1.8988e-06
1.34794e-07
-1.93078e-06
1.40518e-06
-1.94087e-06
3.34177e-06
-1.98168e-06
4.52371e-06
-2.06982e-06
4.29867e-06
-2.1732e-06
3.39353e-06
-2.25902e-06
2.48934e-06
-2.31448e-06
1.73087e-06
-2.33779e-06
1.10414e-06
-2.33077e-06
5.71898e-07
-2.29619e-06
1.06533e-07
-2.23681e-06
-3.09304e-07
-2.15522e-06
-6.87046e-07
-2.05367e-06
-1.03451e-06
-1.93411e-06
-1.3583e-06
-1.79802e-06
-1.66463e-06
-1.64643e-06
-1.96034e-06
-1.47989e-06
-2.25267e-06
-1.29837e-06
-2.54916e-06
-1.10131e-06
-2.85685e-06
-8.87648e-07
-3.18294e-06
-6.55783e-07
-3.53305e-06
-4.03797e-07
-3.91354e-06
-1.29232e-07
-4.32733e-06
1.70332e-07
-4.77989e-06
4.98017e-07
-5.26976e-06
8.56201e-07
-5.80162e-06
1.24841e-06
-6.36755e-06
1.67619e-06
-6.97015e-06
2.14299e-06
-7.59276e-06
2.64834e-06
-8.23613e-06
3.19552e-06
-8.86081e-06
3.77735e-06
-9.49466e-06
4.39851e-06
-1.00026e-05
5.03789e-06
-1.05018e-05
5.70632e-06
-1.06726e-05
6.35512e-06
-1.08739e-05
7.02002e-06
-1.04124e-05
7.59945e-06
-1.02688e-05
8.20813e-06
-8.99488e-06
8.63613e-06
-8.89612e-06
9.20058e-06
-7.75481e-06
-9.50084e-06
9.35626e-06
5.51807e-05
8.06037e-06
4.41755e-05
5.66288e-06
3.19591e-05
3.10939e-06
2.14445e-05
9.94573e-07
9.94096e-06
-4.0031e-08
4.81566e-06
-3.831e-07
1.60427e-06
-5.27133e-07
1.88251e-06
-5.97117e-07
2.0309e-06
-6.91333e-07
2.63564e-06
-7.92949e-07
3.07057e-06
-9.27661e-07
3.27252e-06
-1.08177e-06
3.20235e-06
-1.25573e-06
2.74663e-06
-1.43469e-06
1.96726e-06
-1.6054e-06
9.82938e-07
-1.74653e-06
2.12237e-07
-1.83673e-06
2.24986e-07
-1.86387e-06
1.43233e-06
-1.85477e-06
3.33268e-06
-1.86894e-06
4.53788e-06
-1.93291e-06
4.36265e-06
-2.0185e-06
3.47912e-06
-2.0917e-06
2.56254e-06
-2.13766e-06
1.77683e-06
-2.1532e-06
1.11967e-06
-2.13939e-06
5.58095e-07
-2.09869e-06
6.58281e-08
-2.03371e-06
-3.74288e-07
-1.94698e-06
-7.73769e-07
-1.84081e-06
-1.14068e-06
-1.71717e-06
-1.48194e-06
-1.5776e-06
-1.80419e-06
-1.42321e-06
-2.11474e-06
-1.25456e-06
-2.42132e-06
-1.07169e-06
-2.73203e-06
-8.74064e-07
-3.05448e-06
-6.60642e-07
-3.39636e-06
-4.29839e-07
-3.76385e-06
-1.79741e-07
-4.16364e-06
9.21053e-08
-4.59918e-06
3.88138e-07
-5.07592e-06
7.11472e-07
-5.59309e-06
1.06454e-06
-6.15468e-06
1.45083e-06
-6.75384e-06
1.872e-06
-7.39133e-06
2.33147e-06
-8.05222e-06
2.82887e-06
-8.73354e-06
3.36741e-06
-9.39934e-06
3.94014e-06
-1.00674e-05
4.5515e-06
-1.0614e-05
5.18087e-06
-1.11311e-05
5.83853e-06
-1.13302e-05
6.4766e-06
-1.1512e-05
7.12987e-06
-1.10657e-05
7.69817e-06
-1.08371e-05
8.29445e-06
-9.59116e-06
8.71097e-06
-9.31263e-06
9.25755e-06
-8.30139e-06
-9.6811e-06
9.49748e-06
5.56832e-05
8.4175e-06
4.52555e-05
6.25552e-06
3.41211e-05
3.74655e-06
2.39535e-05
1.48329e-06
1.22042e-05
2.30898e-07
6.06805e-06
-2.81061e-07
2.11623e-06
-4.64308e-07
2.06575e-06
-5.39011e-07
2.10561e-06
-6.27759e-07
2.72438e-06
-7.19424e-07
3.16223e-06
-8.44029e-07
3.39713e-06
-9.89759e-07
3.34808e-06
-1.15936e-06
2.91623e-06
-1.33946e-06
2.14736e-06
-1.51708e-06
1.16056e-06
-1.66819e-06
3.63351e-07
-1.7653e-06
3.22094e-07
-1.78903e-06
1.45606e-06
-1.76325e-06
3.30689e-06
-1.75276e-06
4.5274e-06
-1.79323e-06
4.40311e-06
-1.8609e-06
3.54679e-06
-1.92116e-06
2.6228e-06
-1.95734e-06
1.81301e-06
-1.96489e-06
1.12723e-06
-1.94417e-06
5.37368e-07
-1.89723e-06
1.88926e-08
-1.82656e-06
-4.44962e-07
-1.73464e-06
-8.65686e-07
-1.62379e-06
-1.25153e-06
-1.49603e-06
-1.6097e-06
-1.35296e-06
-1.94726e-06
-1.19573e-06
-2.27197e-06
-1.02497e-06
-2.59208e-06
-8.40742e-07
-2.91626e-06
-6.42552e-07
-3.25267e-06
-4.29383e-07
-3.60953e-06
-1.99665e-07
-3.99357e-06
4.8508e-08
-4.41181e-06
3.17589e-07
-4.86826e-06
6.10026e-07
-5.36836e-06
9.28928e-07
-5.91199e-06
1.27677e-06
-6.50252e-06
1.65702e-06
-7.1341e-06
2.07144e-06
-7.80575e-06
2.52339e-06
-8.50417e-06
3.01266e-06
-9.22281e-06
3.54232e-06
-9.92901e-06
4.1057e-06
-1.06308e-05
4.70701e-06
-1.12153e-05
5.32607e-06
-1.17502e-05
5.97264e-06
-1.19768e-05
6.59965e-06
-1.2139e-05
7.24092e-06
-1.1707e-05
7.79776e-06
-1.1394e-05
8.38115e-06
-1.01746e-05
8.78588e-06
-9.71736e-06
9.31431e-06
-8.82982e-06
-9.83906e-06
9.62e-06
5.60633e-05
8.73601e-06
4.61395e-05
6.81454e-06
3.60426e-05
4.39348e-06
2.63746e-05
2.03018e-06
1.45675e-05
5.62922e-07
7.53532e-06
-1.3682e-07
2.81598e-06
-3.85017e-07
2.31395e-06
-4.72575e-07
2.19316e-06
-5.58631e-07
2.81044e-06
-6.41502e-07
3.2451e-06
-7.56291e-07
3.51192e-06
-8.93323e-07
3.48511e-06
-1.05773e-06
3.08064e-06
-1.23764e-06
2.32727e-06
-1.42064e-06
1.34356e-06
-1.58049e-06
5.23197e-07
-1.68432e-06
4.25929e-07
-1.70606e-06
1.4778e-06
-1.66605e-06
3.26688e-06
-1.63295e-06
4.4943e-06
-1.65068e-06
4.42084e-06
-1.70037e-06
3.59649e-06
-1.74741e-06
2.66983e-06
-1.77354e-06
1.83914e-06
-1.77292e-06
1.1266e-06
-1.74512e-06
5.09575e-07
-1.69185e-06
-3.4375e-08
-1.61541e-06
-5.21403e-07
-1.51825e-06
-9.62854e-07
-1.40267e-06
-1.3671e-06
-1.27076e-06
-1.74162e-06
-1.12416e-06
-2.09385e-06
-9.64083e-07
-2.43205e-06
-7.9119e-07
-2.76498e-06
-6.05607e-07
-3.10184e-06
-4.0686e-07
-3.45141e-06
-1.9396e-07
-3.82243e-06
3.46479e-08
-4.22218e-06
2.80864e-07
-4.65803e-06
5.47132e-07
-5.13453e-06
8.35914e-07
-5.65714e-06
1.15031e-06
-6.22639e-06
1.49283e-06
-6.84505e-06
1.86693e-06
-7.5082e-06
2.27446e-06
-8.21328e-06
2.71874e-06
-8.94845e-06
3.19967e-06
-9.70374e-06
3.72025e-06
-1.04496e-05
4.27405e-06
-1.11846e-05
4.86504e-06
-1.18063e-05
5.4735e-06
-1.23587e-05
6.10868e-06
-1.2612e-05
6.72432e-06
-1.27546e-05
7.35322e-06
-1.23359e-05
7.89826e-06
-1.1939e-05
8.46833e-06
-1.07446e-05
8.86094e-06
-1.011e-05
9.37098e-06
-9.33985e-06
-9.97565e-06
9.72667e-06
5.63366e-05
9.01858e-06
4.68476e-05
7.33663e-06
3.77245e-05
5.04035e-06
2.86709e-05
2.62329e-06
1.69846e-05
9.58687e-07
9.19992e-06
5.94958e-08
3.71517e-06
-2.82752e-07
2.6562e-06
-3.9535e-07
2.30576e-06
-4.82697e-07
2.89779e-06
-5.58465e-07
3.32087e-06
-6.63986e-07
3.61744e-06
-7.92155e-07
3.61328e-06
-9.50598e-07
3.23908e-06
-1.12908e-06
2.50575e-06
-1.31592e-06
1.5304e-06
-1.48323e-06
6.90502e-07
-1.59356e-06
5.36266e-07
-1.61466e-06
1.49889e-06
-1.56285e-06
3.21507e-06
-1.50923e-06
4.44068e-06
-1.5051e-06
4.41671e-06
-1.53685e-06
3.62823e-06
-1.57042e-06
2.7034e-06
-1.58627e-06
1.85498e-06
-1.57727e-06
1.11761e-06
-1.54228e-06
4.74585e-07
-1.48259e-06
-9.40688e-08
-1.40031e-06
-6.0368e-07
-1.29784e-06
-1.06532e-06
-1.17751e-06
-1.48743e-06
-1.04142e-06
-1.87771e-06
-8.91271e-07
-2.244e-06
-7.28327e-07
-2.59499e-06
-5.53305e-07
-2.94e-06
-3.66367e-07
-3.28878e-06
-1.67074e-07
-3.65071e-06
4.55389e-08
-4.03504e-06
2.73011e-07
-4.44965e-06
5.17235e-07
-4.90225e-06
7.80645e-07
-5.39794e-06
1.06571e-06
-5.94221e-06
1.37552e-06
-6.5362e-06
1.71264e-06
-7.18216e-06
2.08048e-06
-7.87604e-06
2.48098e-06
-8.61378e-06
2.91744e-06
-9.38491e-06
3.38986e-06
-1.01762e-05
3.90116e-06
-1.09609e-05
4.44516e-06
-1.17286e-05
5.02559e-06
-1.23867e-05
5.62319e-06
-1.29563e-05
6.24669e-06
-1.32355e-05
6.85064e-06
-1.33586e-05
7.46682e-06
-1.2952e-05
7.99972e-06
-1.24719e-05
8.55606e-06
-1.1301e-05
8.9362e-06
-1.04901e-05
9.42765e-06
-9.8313e-06
-1.00917e-05
9.82004e-06
5.65165e-05
9.26814e-06
4.73995e-05
7.81966e-06
3.9173e-05
5.67816e-06
3.08124e-05
3.2517e-06
1.9411e-05
1.41675e-06
1.10349e-05
3.07084e-07
4.82483e-06
-1.49259e-07
3.11254e-06
-3.03907e-07
2.46041e-06
-3.9824e-07
2.99212e-06
-4.69352e-07
3.39198e-06
-5.66502e-07
3.71459e-06
-6.85849e-07
3.73263e-06
-8.37696e-07
3.39093e-06
-1.01355e-06
2.6816e-06
-1.20273e-06
1.71959e-06
-1.37621e-06
8.63978e-07
-1.49276e-06
6.52822e-07
-1.51448e-06
1.52061e-06
-1.45326e-06
3.15385e-06
-1.38124e-06
4.36867e-06
-1.35627e-06
4.39174e-06
-1.37021e-06
3.64217e-06
-1.39014e-06
2.72334e-06
-1.39548e-06
1.86032e-06
-1.37795e-06
1.10008e-06
-1.33564e-06
4.32275e-07
-1.26944e-06
-1.60272e-07
-1.18127e-06
-6.91849e-07
-1.07346e-06
-1.17313e-06
-9.48338e-07
-1.61255e-06
-8.08045e-07
-2.01801e-06
-6.54341e-07
-2.3977e-06
-4.88531e-07
-2.7608e-06
-3.11383e-07
-3.11715e-06
-1.23101e-07