/*--------------------------------*- C++ -*----------------------------------*\
| =========                 |                                                 |
| \\      /  F ield         | OpenFOAM: The Open Source CFD Toolbox           |
|  \\    /   O peration     | Version:  2.4.0                                 |
|   \\  /    A nd           | Web:      www.OpenFOAM.org                      |
|    \\/     M anipulation  |                                                 |
\*---------------------------------------------------------------------------*/
FoamFile
{
    version     2.0;
    format      ascii;
    class       volScalarField;
    location    "205";
    object      epsilon;
}
// * * * * * * * * * * * * * * * * * * * * * * * * * * * * * * * * * * * * * //

dimensions      [0 2 -3 0 0 0 0];

internalField   nonuniform List<scalar> 
10000
(
0.000756812
0.000749399
0.000742955
0.000737383
0.000732618
0.000728623
0.000725389
0.000722939
0.000721326
0.000720648
0.000721073
0.000722892
0.000726646
0.000733378
0.000745199
0.000766937
0.000812913
0.000941855
0.00151966
0.00714518
0.000756812
0.000749399
0.000742955
0.000737384
0.000732621
0.00072863
0.000725404
0.000722967
0.000721377
0.000720734
0.000721214
0.000723119
0.000727018
0.000733995
0.000746199
0.000768246
0.000812138
0.000916795
0.00123477
0.00253263
0.000756812
0.000749398
0.000742952
0.000737376
0.000732604
0.000728599
0.00072535
0.000722878
0.000721237
0.000720522
0.000720902
0.000722673
0.00072639
0.000733116
0.000744907
0.000765889
0.000805173
0.000885396
0.00106607
0.0015061
0.000756812
0.000749397
0.000742947
0.000737364
0.000732577
0.000728546
0.000725255
0.000722719
0.000720982
0.000720129
0.000720313
0.000721807
0.000725126
0.000731262
0.0007421
0.000761193
0.000795315
0.000857588
0.000972542
0.00118093
0.000756812
0.000749395
0.000742942
0.000737349
0.000732544
0.000728481
0.000725138
0.000722521
0.000720662
0.000719633
0.000719564
0.000720694
0.000723482
0.000728811
0.000738348
0.000755106
0.000784244
0.000833994
0.000915994
0.0010433
0.000756811
0.000749394
0.000742936
0.000737334
0.000732509
0.000728412
0.000725012
0.000722306
0.000720315
0.000719093
0.000718744
0.000719471
0.000721663
0.000726075
0.000734135
0.000748368
0.000772853
0.000813395
0.000876829
0.000968814
0.000756811
0.000749392
0.00074293
0.000737318
0.000732475
0.000728343
0.000724886
0.000722092
0.000719968
0.000718551
0.000717922
0.000718241
0.000719825
0.000723298
0.000729842
0.000741542
0.000761709
0.000794859
0.000845947
0.000918499
0.000756811
0.000749391
0.000742925
0.000737304
0.000732442
0.000728277
0.000724768
0.000721889
0.000719639
0.000718038
0.000717142
0.000717073
0.000718079
0.000720654
0.000725747
0.000735043
0.000751238
0.000778031
0.000819495
0.000878513
0.000756811
0.00074939
0.00074292
0.000737291
0.000732412
0.000728218
0.000724659
0.000721704
0.000719339
0.000717571
0.000716433
0.000716013
0.000716495
0.000718257
0.000722034
0.000729151
0.00074177
0.000762939
0.000796143
0.000844012
0.000756811
0.000749389
0.000742916
0.000737279
0.000732386
0.000728165
0.000724563
0.00072154
0.000719074
0.000717159
0.00071581
0.000715083
0.00071511
0.000716167
0.000718803
0.000724027
0.000733524
0.000749753
0.000775658
0.000813654
0.000756811
0.000749388
0.000742912
0.000737269
0.000732363
0.00072812
0.00072448
0.000721399
0.000718846
0.000716804
0.000715275
0.000714289
0.000713934
0.000714402
0.000716088
0.000719733
0.000726603
0.000738611
0.000758154
0.000787368
0.000756811
0.000749387
0.000742909
0.00073726
0.000732343
0.00072808
0.000724408
0.000721278
0.000718652
0.000716505
0.000714826
0.000713626
0.000712958
0.00071295
0.000713872
0.000716249
0.000720995
0.000729532
0.000743723
0.000765355
0.000756811
0.000749387
0.000742907
0.000737253
0.000732327
0.000728047
0.000724349
0.000721177
0.00071849
0.000716256
0.000714455
0.000713082
0.000712165
0.000711781
0.000712109
0.000713503
0.000716595
0.000722398
0.000732283
0.000747653
0.000756812
0.000749386
0.000742905
0.000737247
0.000732313
0.000728019
0.000724298
0.000721093
0.000718356
0.000716052
0.000714152
0.000712642
0.000711529
0.000710857
0.000710734
0.00071139
0.000713244
0.000716981
0.00072356
0.000734015
0.000756812
0.000749386
0.000742903
0.000737242
0.000732301
0.000727996
0.000724257
0.000721023
0.000718246
0.000715885
0.000713907
0.00071229
0.000711026
0.000710135
0.000709678
0.000709796
0.000710752
0.000712992
0.000717149
0.000723936
0.000756812
0.000749386
0.000742902
0.000737237
0.000732291
0.000727977
0.000724222
0.000720966
0.000718157
0.00071575
0.00071371
0.000712009
0.000710631
0.000709577
0.000708877
0.00070861
0.000708937
0.000710129
0.000712586
0.000716767
0.000756812
0.000749386
0.0007429
0.000737234
0.000732283
0.000727961
0.000724194
0.000720919
0.000718083
0.00071564
0.000713552
0.000711786
0.000710321
0.000709147
0.000708272
0.000707736
0.000707631
0.000708114
0.000709423
0.000711835
0.000756813
0.000749386
0.0007429
0.000737231
0.000732276
0.000727947
0.00072417
0.00072088
0.000718023
0.000715551
0.000713424
0.000711609
0.000710078
0.000708815
0.000707815
0.000707094
0.000706698
0.000706713
0.000707272
0.000708528
0.000756813
0.000749386
0.000742899
0.000737228
0.00073227
0.000727936
0.00072415
0.000720848
0.000717973
0.000715478
0.000713322
0.000711467
0.000709887
0.000708558
0.000707469
0.00070662
0.00070603
0.000705741
0.000705823
0.000706349
0.000756813
0.000749386
0.000742898
0.000737226
0.000732265
0.000727926
0.000724133
0.000720821
0.000717932
0.000715419
0.000713238
0.000711354
0.000709735
0.000708358
0.000707205
0.000706267
0.000705548
0.000705064
0.000704846
0.000704922
0.000756814
0.000749386
0.000742898
0.000737224
0.000732261
0.000727918
0.000724119
0.000720798
0.000717898
0.000715369
0.000713169
0.000711261
0.000709613
0.000708199
0.000706999
0.000706
0.000705194
0.000704585
0.00070418
0.000703983
0.000756814
0.000749387
0.000742898
0.000737223
0.000732257
0.000727911
0.000724107
0.000720778
0.000717869
0.000715328
0.000713112
0.000711185
0.000709514
0.000708072
0.000706838
0.000705794
0.000704929
0.000704237
0.000703715
0.000703351
0.000756814
0.000749387
0.000742897
0.000737222
0.000732254
0.000727905
0.000724096
0.000720762
0.000717844
0.000715293
0.000713065
0.000711122
0.000709433
0.000707969
0.000706708
0.000705631
0.000704725
0.000703978
0.00070338
0.000702914
0.000756815
0.000749387
0.000742897
0.000737221
0.000732251
0.000727899
0.000724087
0.000720747
0.000717822
0.000715263
0.000713024
0.000711069
0.000709365
0.000707884
0.000706602
0.000705501
0.000704564
0.000703779
0.000703131
0.000702599
0.000756815
0.000749388
0.000742897
0.00073722
0.000732249
0.000727894
0.000724079
0.000720734
0.000717804
0.000715236
0.000712989
0.000711024
0.000709307
0.000707812
0.000706514
0.000705394
0.000704434
0.00070362
0.000702938
0.000702362
0.000756816
0.000749388
0.000742897
0.000737219
0.000732247
0.00072789
0.000724071
0.000720723
0.000717787
0.000715214
0.000712959
0.000710984
0.000709258
0.000707751
0.00070644
0.000705304
0.000704326
0.000703491
0.000702783
0.000702177
0.000756816
0.000749388
0.000742897
0.000737218
0.000732245
0.000727886
0.000724065
0.000720713
0.000717773
0.000715194
0.000712932
0.000710951
0.000709216
0.000707699
0.000706377
0.000705228
0.000704236
0.000703384
0.000702655
0.000702027
0.000756816
0.000749389
0.000742898
0.000737218
0.000732243
0.000727883
0.000724059
0.000720704
0.00071776
0.000715176
0.000712909
0.000710921
0.000709178
0.000707654
0.000706322
0.000705163
0.000704159
0.000703293
0.000702548
0.000701901
0.000756817
0.000749389
0.000742898
0.000737217
0.000732242
0.00072788
0.000724054
0.000720696
0.000717748
0.00071516
0.000712888
0.000710894
0.000709146
0.000707614
0.000706274
0.000705106
0.000704092
0.000703214
0.000702456
0.000701795
0.000756817
0.00074939
0.000742898
0.000737217
0.00073224
0.000727877
0.000724049
0.000720689
0.000717738
0.000715146
0.00071287
0.000710871
0.000709117
0.000707579
0.000706233
0.000705057
0.000704033
0.000703146
0.000702376
0.000701702
0.000756818
0.00074939
0.000742898
0.000737217
0.000732239
0.000727874
0.000724044
0.000720682
0.000717728
0.000715133
0.000712853
0.00071085
0.000709091
0.000707548
0.000706196
0.000705013
0.000703982
0.000703085
0.000702307
0.000701622
0.000756818
0.00074939
0.000742898
0.000737216
0.000732238
0.000727872
0.000724041
0.000720676
0.00071772
0.000715122
0.000712839
0.000710832
0.000709068
0.00070752
0.000706163
0.000704974
0.000703936
0.000703032
0.000702245
0.000701551
0.000756819
0.000749391
0.000742898
0.000737216
0.000732237
0.00072787
0.000724037
0.00072067
0.000717712
0.000715112
0.000712825
0.000710815
0.000709048
0.000707496
0.000706133
0.00070494
0.000703896
0.000702985
0.000702191
0.000701489
0.000756819
0.000749391
0.000742899
0.000737216
0.000732236
0.000727868
0.000724034
0.000720665
0.000717705
0.000715102
0.000712813
0.0007108
0.00070903
0.000707474
0.000706107
0.000704909
0.00070386
0.000702943
0.000702142
0.000701433
0.000756819
0.000749392
0.000742899
0.000737216
0.000732235
0.000727866
0.000724031
0.000720661
0.000717699
0.000715094
0.000712802
0.000710786
0.000709013
0.000707454
0.000706083
0.000704881
0.000703827
0.000702906
0.000702099
0.000701383
0.00075682
0.000749392
0.000742899
0.000737215
0.000732234
0.000727864
0.000724028
0.000720657
0.000717693
0.000715086
0.000712792
0.000710774
0.000708998
0.000707436
0.000706062
0.000704856
0.000703798
0.000702872
0.00070206
0.000701339
0.00075682
0.000749392
0.000742899
0.000737215
0.000732233
0.000727863
0.000724025
0.000720653
0.000717687
0.000715079
0.000712783
0.000710763
0.000708984
0.000707419
0.000706043
0.000704834
0.000703772
0.000702842
0.000702025
0.000701299
0.00075682
0.000749393
0.000742899
0.000737215
0.000732233
0.000727861
0.000724023
0.000720649
0.000717682
0.000715072
0.000712775
0.000710753
0.000708972
0.000707405
0.000706026
0.000704813
0.000703749
0.000702814
0.000701993
0.000701263
0.000756821
0.000749393
0.0007429
0.000737215
0.000732232
0.00072786
0.00072402
0.000720646
0.000717678
0.000715066
0.000712767
0.000710743
0.000708961
0.000707391
0.00070601
0.000704795
0.000703727
0.00070279
0.000701965
0.000701231
0.000756821
0.000749393
0.0007429
0.000737215
0.000732231
0.000727859
0.000724018
0.000720643
0.000717674
0.000715061
0.00071276
0.000710735
0.00070895
0.000707379
0.000705996
0.000704778
0.000703708
0.000702767
0.000701939
0.000701201
0.000756821
0.000749393
0.0007429
0.000737214
0.000732231
0.000727857
0.000724016
0.00072064
0.00071767
0.000715056
0.000712754
0.000710727
0.000708941
0.000707368
0.000705983
0.000704763
0.00070369
0.000702747
0.000701916
0.000701175
0.000756821
0.000749394
0.0007429
0.000737214
0.00073223
0.000727856
0.000724014
0.000720637
0.000717666
0.000715051
0.000712748
0.00071072
0.000708932
0.000707358
0.000705971
0.000704749
0.000703674
0.000702728
0.000701894
0.00070115
0.000756822
0.000749394
0.0007429
0.000737214
0.000732229
0.000727855
0.000724013
0.000720635
0.000717663
0.000715047
0.000712743
0.000710713
0.000708924
0.000707348
0.00070596
0.000704736
0.000703659
0.000702711
0.000701875
0.000701128
0.000756822
0.000749394
0.0007429
0.000737214
0.000732229
0.000727854
0.000724011
0.000720632
0.000717659
0.000715042
0.000712738
0.000710707
0.000708917
0.00070734
0.00070595
0.000704725
0.000703646
0.000702696
0.000701857
0.000701108
0.000756822
0.000749394
0.0007429
0.000737213
0.000732228
0.000727853
0.000724009
0.00072063
0.000717656
0.000715039
0.000712733
0.000710701
0.00070891
0.000707332
0.00070594
0.000704714
0.000703634
0.000702682
0.000701841
0.00070109
0.000756822
0.000749394
0.000742899
0.000737213
0.000732227
0.000727852
0.000724008
0.000720628
0.000717653
0.000715035
0.000712728
0.000710696
0.000708904
0.000707324
0.000705932
0.000704704
0.000703622
0.000702669
0.000701826
0.000701073
0.000756822
0.000749394
0.000742899
0.000737212
0.000732227
0.000727851
0.000724006
0.000720625
0.000717651
0.000715031
0.000712724
0.000710691
0.000708898
0.000707317
0.000705924
0.000704695
0.000703612
0.000702657
0.000701812
0.000701057
0.000756822
0.000749394
0.000742899
0.000737212
0.000732226
0.000727849
0.000724004
0.000720623
0.000717648
0.000715028
0.00071272
0.000710686
0.000708892
0.000707311
0.000705916
0.000704686
0.000703602
0.000702645
0.0007018
0.000701043
0.000756822
0.000749394
0.000742899
0.000737211
0.000732225
0.000727848
0.000724003
0.000720621
0.000717645
0.000715025
0.000712716
0.000710681
0.000708887
0.000707305
0.000705909
0.000704678
0.000703593
0.000702635
0.000701788
0.00070103
0.000756822
0.000749393
0.000742898
0.000737211
0.000732224
0.000727847
0.000724001
0.000720619
0.000717643
0.000715022
0.000712713
0.000710677
0.000708882
0.000707299
0.000705903
0.000704671
0.000703584
0.000702625
0.000701777
0.000701018
0.000756822
0.000749393
0.000742898
0.00073721
0.000732223
0.000727846
0.000724
0.000720617
0.00071764
0.000715019
0.000712709
0.000710673
0.000708877
0.000707294
0.000705896
0.000704664
0.000703576
0.000702616
0.000701767
0.000701006
0.000756822
0.000749393
0.000742897
0.00073721
0.000732222
0.000727845
0.000723998
0.000720615
0.000717638
0.000715016
0.000712706
0.000710669
0.000708873
0.000707288
0.00070589
0.000704657
0.000703569
0.000702608
0.000701757
0.000700996
0.000756821
0.000749393
0.000742897
0.000737209
0.000732221
0.000727843
0.000723996
0.000720613
0.000717636
0.000715013
0.000712703
0.000710665
0.000708869
0.000707284
0.000705885
0.000704651
0.000703562
0.0007026
0.000701748
0.000700986
0.000756821
0.000749392
0.000742896
0.000737208
0.00073222
0.000727842
0.000723995
0.000720611
0.000717633
0.000715011
0.000712699
0.000710662
0.000708864
0.000707279
0.00070588
0.000704645
0.000703555
0.000702592
0.00070174
0.000700976
0.000756821
0.000749392
0.000742896
0.000737207
0.000732219
0.000727841
0.000723993
0.000720609
0.000717631
0.000715008
0.000712696
0.000710658
0.00070886
0.000707274
0.000705875
0.000704639
0.000703549
0.000702585
0.000701732
0.000700968
0.000756821
0.000749391
0.000742895
0.000737207
0.000732218
0.00072784
0.000723992
0.000720608
0.000717629
0.000715005
0.000712693
0.000710655
0.000708857
0.00070727
0.00070587
0.000704634
0.000703543
0.000702579
0.000701725
0.000700959
0.00075682
0.000749391
0.000742895
0.000737206
0.000732217
0.000727838
0.00072399
0.000720606
0.000717627
0.000715003
0.00071269
0.000710652
0.000708853
0.000707266
0.000705865
0.000704629
0.000703537
0.000702572
0.000701718
0.000700952
0.00075682
0.000749391
0.000742894
0.000737205
0.000732216
0.000727837
0.000723989
0.000720604
0.000717625
0.000715
0.000712688
0.000710648
0.000708849
0.000707262
0.000705861
0.000704624
0.000703532
0.000702566
0.000701711
0.000700944
0.00075682
0.00074939
0.000742893
0.000737204
0.000732215
0.000727836
0.000723987
0.000720602
0.000717622
0.000714998
0.000712685
0.000710645
0.000708846
0.000707258
0.000705857
0.000704619
0.000703526
0.000702561
0.000701705
0.000700937
0.000756819
0.00074939
0.000742893
0.000737203
0.000732214
0.000727834
0.000723985
0.0007206
0.00071762
0.000714995
0.000712682
0.000710642
0.000708843
0.000707254
0.000705852
0.000704615
0.000703521
0.000702555
0.000701699
0.000700931
0.000756819
0.000749389
0.000742892
0.000737202
0.000732213
0.000727833
0.000723984
0.000720598
0.000717618
0.000714993
0.000712679
0.000710639
0.000708839
0.000707251
0.000705848
0.00070461
0.000703517
0.00070255
0.000701693
0.000700924
0.000756819
0.000749388
0.000742891
0.000737201
0.000732212
0.000727831
0.000723982
0.000720596
0.000717616
0.000714991
0.000712677
0.000710636
0.000708836
0.000707247
0.000705845
0.000704606
0.000703512
0.000702545
0.000701687
0.000700919
0.000756818
0.000749388
0.00074289
0.0007372
0.000732211
0.00072783
0.000723981
0.000720595
0.000717614
0.000714988
0.000712674
0.000710634
0.000708833
0.000707244
0.000705841
0.000704602
0.000703508
0.00070254
0.000701682
0.000700913
0.000756818
0.000749387
0.00074289
0.000737199
0.000732209
0.000727829
0.000723979
0.000720593
0.000717612
0.000714986
0.000712672
0.000710631
0.00070883
0.000707241
0.000705837
0.000704598
0.000703503
0.000702536
0.000701677
0.000700908
0.000756817
0.000749387
0.000742889
0.000737198
0.000732208
0.000727827
0.000723977
0.000720591
0.00071761
0.000714984
0.000712669
0.000710628
0.000708827
0.000707237
0.000705834
0.000704594
0.000703499
0.000702531
0.000701673
0.000700902
0.000756817
0.000749386
0.000742888
0.000737197
0.000732207
0.000727826
0.000723976
0.000720589
0.000717608
0.000714982
0.000712667
0.000710625
0.000708824
0.000707234
0.000705831
0.000704591
0.000703495
0.000702527
0.000701668
0.000700898
0.000756817
0.000749385
0.000742887
0.000737196
0.000732206
0.000727825
0.000723974
0.000720587
0.000717606
0.00071498
0.000712665
0.000710623
0.000708821
0.000707231
0.000705827
0.000704587
0.000703492
0.000702523
0.000701664
0.000700893
0.000756816
0.000749385
0.000742886
0.000737195
0.000732205
0.000727823
0.000723973
0.000720586
0.000717604
0.000714978
0.000712662
0.00071062
0.000708819
0.000707228
0.000705824
0.000704584
0.000703488
0.000702519
0.000701659
0.000700888
0.000756816
0.000749384
0.000742886
0.000737194
0.000732204
0.000727822
0.000723971
0.000720584
0.000717602
0.000714976
0.00071266
0.000710618
0.000708816
0.000707226
0.000705821
0.000704581
0.000703485
0.000702515
0.000701655
0.000700884
0.000756815
0.000749384
0.000742885
0.000737193
0.000732202
0.000727821
0.00072397
0.000720582
0.0007176
0.000714974
0.000712658
0.000710616
0.000708814
0.000707223
0.000705818
0.000704578
0.000703481
0.000702512
0.000701652
0.00070088
0.000756815
0.000749383
0.000742884
0.000737192
0.000732201
0.000727819
0.000723968
0.000720581
0.000717599
0.000714972
0.000712656
0.000710613
0.000708811
0.00070722
0.000705815
0.000704575
0.000703478
0.000702508
0.000701648
0.000700876
0.000756815
0.000749383
0.000742883
0.000737192
0.0007322
0.000727818
0.000723967
0.000720579
0.000717597
0.00071497
0.000712654
0.000710611
0.000708809
0.000707218
0.000705813
0.000704572
0.000703475
0.000702505
0.000701644
0.000700872
0.000756814
0.000749382
0.000742883
0.000737191
0.000732199
0.000727817
0.000723966
0.000720578
0.000717595
0.000714968
0.000712652
0.000710609
0.000708806
0.000707215
0.00070581
0.000704569
0.000703472
0.000702502
0.000701641
0.000700869
0.000756814
0.000749381
0.000742882
0.00073719
0.000732198
0.000727816
0.000723964
0.000720576
0.000717594
0.000714966
0.00071265
0.000710607
0.000708804
0.000707213
0.000705807
0.000704566
0.000703469
0.000702499
0.000701638
0.000700865
0.000756813
0.000749381
0.000742881
0.000737189
0.000732197
0.000727814
0.000723963
0.000720575
0.000717592
0.000714964
0.000712648
0.000710605
0.000708802
0.00070721
0.000705805
0.000704563
0.000703466
0.000702496
0.000701635
0.000700862
0.000756813
0.00074938
0.00074288
0.000737188
0.000732196
0.000727813
0.000723961
0.000720573
0.00071759
0.000714962
0.000712646
0.000710603
0.0007088
0.000707208
0.000705803
0.000704561
0.000703463
0.000702493
0.000701632
0.000700859
0.000756813
0.00074938
0.00074288
0.000737187
0.000732195
0.000727812
0.00072396
0.000720572
0.000717589
0.000714961
0.000712644
0.000710601
0.000708798
0.000707206
0.0007058
0.000704558
0.000703461
0.00070249
0.000701629
0.000700856
0.000756812
0.000749379
0.000742879
0.000737186
0.000732194
0.000727811
0.000723959
0.00072057
0.000717587
0.000714959
0.000712642
0.000710599
0.000708796
0.000707204
0.000705798
0.000704556
0.000703458
0.000702487
0.000701626
0.000700853
0.000756812
0.000749379
0.000742878
0.000737185
0.000732193
0.00072781
0.000723958
0.000720569
0.000717586
0.000714958
0.000712641
0.000710597
0.000708794
0.000707202
0.000705796
0.000704554
0.000703456
0.000702485
0.000701623
0.00070085
0.000756812
0.000749378
0.000742878
0.000737185
0.000732192
0.000727809
0.000723957
0.000720568
0.000717584
0.000714956
0.000712639
0.000710595
0.000708792
0.0007072
0.000705794
0.000704552
0.000703454
0.000702482
0.000701621
0.000700847
0.000756811
0.000749378
0.000742877
0.000737184
0.000732191
0.000727808
0.000723955
0.000720567
0.000717583
0.000714955
0.000712637
0.000710594
0.00070879
0.000707198
0.000705792
0.000704549
0.000703451
0.00070248
0.000701618
0.000700845
0.000756811
0.000749377
0.000742876
0.000737183
0.00073219
0.000727807
0.000723954
0.000720565
0.000717582
0.000714953
0.000712636
0.000710592
0.000708788
0.000707196
0.00070579
0.000704547
0.000703449
0.000702478
0.000701616
0.000700842
0.000756811
0.000749377
0.000742876
0.000737182
0.00073219
0.000727806
0.000723953
0.000720564
0.00071758
0.000714952
0.000712634
0.000710591
0.000708787
0.000707194
0.000705788
0.000704546
0.000703447
0.000702476
0.000701614
0.00070084
0.00075681
0.000749376
0.000742875
0.000737182
0.000732189
0.000727805
0.000723952
0.000720563
0.000717579
0.00071495
0.000712633
0.000710589
0.000708785
0.000707193
0.000705786
0.000704544
0.000703445
0.000702474
0.000701612
0.000700838
0.00075681
0.000749376
0.000742875
0.000737181
0.000732188
0.000727804
0.000723951
0.000720562
0.000717578
0.000714949
0.000712632
0.000710588
0.000708784
0.000707191
0.000705785
0.000704542
0.000703444
0.000702472
0.00070161
0.000700836
0.00075681
0.000749375
0.000742874
0.00073718
0.000732187
0.000727803
0.00072395
0.000720561
0.000717577
0.000714948
0.00071263
0.000710586
0.000708782
0.00070719
0.000705783
0.00070454
0.000703442
0.00070247
0.000701608
0.000700834
0.000756809
0.000749375
0.000742874
0.00073718
0.000732187
0.000727803
0.000723949
0.00072056
0.000717576
0.000714947
0.000712629
0.000710585
0.000708781
0.000707188
0.000705782
0.000704539
0.00070344
0.000702468
0.000701606
0.000700832
0.000756809
0.000749375
0.000742873
0.000737179
0.000732186
0.000727802
0.000723949
0.000720559
0.000717575
0.000714946
0.000712628
0.000710584
0.00070878
0.000707187
0.00070578
0.000704537
0.000703439
0.000702467
0.000701604
0.00070083
0.000756809
0.000749374
0.000742873
0.000737179
0.000732185
0.000727801
0.000723948
0.000720558
0.000717574
0.000714945
0.000712627
0.000710583
0.000708778
0.000707186
0.000705779
0.000704536
0.000703437
0.000702465
0.000701603
0.000700829
0.000756809
0.000749374
0.000742872
0.000737178
0.000732185
0.0007278
0.000723947
0.000720557
0.000717573
0.000714944
0.000712626
0.000710582
0.000708777
0.000707184
0.000705778
0.000704535
0.000703436
0.000702464
0.000701601
0.000700827
0.000756808
0.000749374
0.000742872
0.000737178
0.000732184
0.0007278
0.000723946
0.000720557
0.000717572
0.000714943
0.000712625
0.000710581
0.000708776
0.000707183
0.000705776
0.000704533
0.000703435
0.000702463
0.0007016
0.000700826
0.000756808
0.000749373
0.000742871
0.000737177
0.000732183
0.000727799
0.000723946
0.000720556
0.000717571
0.000714942
0.000712624
0.00071058
0.000708775
0.000707182
0.000705776
0.000704532
0.000703434
0.000702462
0.000701599
0.000700825
0.000756808
0.000749373
0.000742871
0.000737177
0.000732183
0.000727798
0.000723945
0.000720555
0.000717571
0.000714942
0.000712624
0.000710579
0.000708775
0.000707182
0.000705775
0.000704532
0.000703433
0.000702461
0.000701598
0.000700824
0.000756808
0.000749373
0.000742871
0.000737176
0.000732182
0.000727798
0.000723945
0.000720555
0.00071757
0.000714941
0.000712623
0.000710578
0.000708774
0.000707181
0.000705774
0.000704531
0.000703432
0.00070246
0.000701597
0.000700823
0.000756807
0.000749372
0.00074287
0.000737176
0.000732182
0.000727798
0.000723944
0.000720554
0.00071757
0.000714941
0.000712623
0.000710578
0.000708774
0.000707181
0.000705774
0.000704531
0.000703432
0.000702459
0.000701597
0.000700822
0.000756807
0.000749372
0.00074287
0.000737176
0.000732182
0.000727797
0.000723944
0.000720554
0.00071757
0.00071494
0.000712622
0.000710578
0.000708774
0.000707181
0.000705774
0.00070453
0.000703432
0.000702459
0.000701597
0.000700822
0.000756807
0.000749372
0.00074287
0.000737175
0.000732182
0.000727797
0.000723944
0.000720554
0.00071757
0.00071494
0.000712623
0.000710578
0.000708774
0.000707181
0.000705774
0.000704531
0.000703432
0.00070246
0.000701597
0.000700823
0.000756807
0.000749371
0.00074287
0.000737175
0.000732182
0.000727797
0.000723944
0.000720554
0.00071757
0.000714941
0.000712623
0.000710579
0.000708775
0.000707182
0.000705775
0.000704532
0.000703433
0.000702461
0.000701598
0.000700824
0.000756807
0.000749371
0.00074287
0.000737175
0.000732182
0.000727798
0.000723945
0.000720555
0.000717571
0.000714942
0.000712625
0.000710581
0.000708776
0.000707184
0.000705777
0.000704534
0.000703435
0.000702463
0.000701601
0.000700826
0.000756806
0.000749371
0.00074287
0.000737176
0.000732182
0.000727799
0.000723946
0.000720557
0.000717573
0.000714944
0.000712627
0.000710583
0.000708779
0.000707186
0.00070578
0.000704537
0.000703438
0.000702466
0.000701604
0.00070083
0.203282
0.337127
0.494615
0.665097
0.837478
1.0019
1.15074
1.279
1.38423
1.46608
1.52577
1.5655
1.58803
1.59625
1.59297
1.58079
1.56197
1.53846
1.51192
1.4837
1.45493
1.42652
1.3992
1.37354
1.34994
1.32863
1.30969
1.29303
1.2784
1.26546
1.25376
1.24286
1.23229
1.22163
1.21055
1.19879
1.18616
1.17258
1.158
1.14247
1.12602
1.10876
1.09079
1.07222
1.05316
1.03371
1.014
0.994096
0.974102
0.954092
0.934134
0.914291
0.894613
0.875149
0.855937
0.837011
0.8184
0.800127
0.782211
0.764667
0.747508
0.73074
0.714368
0.698394
0.682817
0.667631
0.652829
0.638404
0.624341
0.61063
0.597258
0.584205
0.571464
0.558996
0.546862
0.534836
0.52344
0.511164
0.501864
0.484116
0.0113631
0.0227932
0.037427
0.0552724
0.0757898
0.0980444
0.120927
0.143367
0.164484
0.183654
0.20053
0.215003
0.227159
0.237216
0.245478
0.252292
0.258017
0.263006
0.267585
0.272043
0.276625
0.281519
0.286854
0.292686
0.299005
0.30573
0.312716
0.319777
0.326694
0.333243
0.339216
0.344435
0.348762
0.352112
0.354441
0.355752
0.356083
0.355495
0.35407
0.351901
0.349083
0.34571
0.341874
0.337658
0.333136
0.328375
0.323434
0.31836
0.313196
0.307975
0.302728
0.297475
0.292237
0.287028
0.28186
0.276741
0.271679
0.266678
0.261743
0.256877
0.252081
0.247357
0.242705
0.238126
0.23362
0.229186
0.224822
0.220529
0.216303
0.212145
0.208051
0.204019
0.200049
0.196139
0.192283
0.188488
0.184734
0.181059
0.177357
0.173968
0.0027282
0.00448439
0.00676154
0.00958941
0.0129856
0.016935
0.0213861
0.0262563
0.0314423
0.0368317
0.0423157
0.0478001
0.0532129
0.058509
0.0636705
0.0687051
0.0736415
0.0785245
0.0834081
0.0883496
0.0934033
0.0986146
0.104015
0.109618
0.115414
0.121371
0.12743
0.133513
0.139521
0.145344
0.15087
0.15599
0.160608
0.16465
0.168061
0.170813
0.172901
0.174341
0.175166
0.175422
0.175164
0.174451
0.173343
0.1719
0.170179
0.168233
0.166108
0.163846
0.161484
0.159052
0.156578
0.154083
0.151584
0.149096
0.146629
0.144193
0.141792
0.139432
0.137115
0.134842
0.132613
0.130429
0.128288
0.126188
0.124128
0.122106
0.120118
0.118163
0.116239
0.114343
0.112471
0.110624
0.108797
0.106993
0.105201
0.103439
0.101662
0.0999939
0.0981286
0.0971201
0.00156232
0.00211071
0.00282623
0.00371819
0.00480036
0.00608661
0.00758839
0.00931335
0.0112647
0.0134413
0.015838
0.0184467
0.0212577
0.0242604
0.027445
0.0308029
0.0343268
0.0380114
0.0418523
0.0458455
0.049986
0.0542668
0.0586769
0.0632002
0.0678137
0.0724861
0.0771778
0.0818399
0.086416
0.0908438
0.0950584
0.0989955
0.102596
0.105808
0.108593
0.110923
0.112787
0.114185
0.115129
0.115643
0.115759
0.115513
0.114944
0.114096
0.113008
0.111722
0.110274
0.108699
0.107028
0.105289
0.103506
0.101699
0.0998862
0.0980817
0.0962973
0.0945425
0.0928246
0.091149
0.0895194
0.0879384
0.086407
0.0849256
0.0834935
0.0821092
0.080771
0.0794763
0.0782225
0.0770065
0.0758252
0.0746756
0.0735538
0.0724567
0.0713809
0.0703255
0.0692828
0.0682615
0.0672335
0.0662766
0.0652058
0.0647306
0.00123796
0.00151156
0.00187109
0.00232492
0.00288373
0.0035602
0.00436834
0.00532298
0.00643913
0.0077314
0.00921338
0.010897
0.0127919
0.014905
0.0172398
0.0197962
0.0225702
0.0255537
0.0287346
0.0320973
0.0356224
0.039287
0.0430653
0.0469282
0.0508437
0.0547766
0.0586888
0.0625391
0.0662843
0.0698797
0.0732804
0.0764433
0.0793289
0.0819029
0.0841381
0.0860156
0.0875255
0.0886666
0.0894462
0.0898793
0.0899868
0.0897947
0.0893321
0.0886303
0.0877212
0.0866363
0.0854061
0.0840595
0.0826228
0.0811203
0.0795736
0.0780017
0.076421
0.0748457
0.0732876
0.0717565
0.0702604
0.0688055
0.0673965
0.0660368
0.0647287
0.0634733
0.0622708
0.0611207
0.0600218
0.0589723
0.0579697
0.0570114
0.0560943
0.0552152
0.0543703
0.0535561
0.0527689
0.0520063
0.0512624
0.0505399
0.0498229
0.0491536
0.0484347
0.0480871
0.00109949
0.00127943
0.00151693
0.00182061
0.00220041
0.00266792
0.00323638
0.00392054
0.00473631
0.00570032
0.00682926
0.00813915
0.00964445
0.0113571
0.0132856
0.0154343
0.0178024
0.0203841
0.0231678
0.0261366
0.0292688
0.032538
0.0359144
0.0393648
0.042854
0.0463449
0.0497995
0.0531791
0.0564455
0.0595609
0.0624895
0.0651979
0.0676566
0.0698405
0.0717301
0.0733119
0.0745791
0.0755314
0.0761748
0.0765209
0.0765861
0.0763909
0.0759585
0.0753141
0.0744838
0.0734941
0.0723707
0.0711383
0.0698201
0.0684377
0.0670106
0.0655563
0.0640902
0.0626259
0.061175
0.0597472
0.0583509
0.0569924
0.0556773
0.0544093
0.0531915
0.0520256
0.0509126
0.0498526
0.0488451
0.0478888
0.0469819
0.0461221
0.0453067
0.0445328
0.0437968
0.0430954
0.0424249
0.0417823
0.0411629
0.0405665
0.0399837
0.0394366
0.0388756
0.0385495
0.00101911
0.00115641
0.00133829
0.00157322
0.00187073
0.00224182
0.00269901
0.00325637
0.00392929
0.00473414
0.0056877
0.00680644
0.00810565
0.00959848
0.0112949
0.013201
0.0153176
0.0176404
0.0201594
0.0228587
0.0257171
0.0287085
0.0318028
0.0349667
0.0381648
0.0413601
0.0445153
0.0475935
0.0505589
0.0533774
0.0560175
0.0584509
0.060653
0.0626035
0.0642872
0.0656937
0.0668183
0.0676612
0.068228
0.0685285
0.0685766
0.0683895
0.0679869
0.0673901
0.0666217
0.0657043
0.0646607
0.0635126
0.0622809
0.0609851
0.0596433
0.0582716
0.0568847
0.0554957
0.0541157
0.0527545
0.0514204
0.0501202
0.0488595
0.0476426
0.046473
0.0453528
0.0442836
0.0432661
0.0423
0.0413847
0.0405188
0.0397004
0.0389272
0.0381966
0.0375053
0.0368503
0.036228
0.0356355
0.0350687
0.0345259
0.0340015
0.0335064
0.0330161
0.0326816
0.000960309
0.00107219
0.00122139
0.0014159