/*--------------------------------*- C++ -*----------------------------------*\
| =========                 |                                                 |
| \\      /  F ield         | OpenFOAM: The Open Source CFD Toolbox           |
|  \\    /   O peration     | Version:  2.4.0                                 |
|   \\  /    A nd           | Web:      www.OpenFOAM.org                      |
|    \\/     M anipulation  |                                                 |
\*---------------------------------------------------------------------------*/
FoamFile
{
    version     2.0;
    format      ascii;
    class       volScalarField;
    location    "335";
    object      k;
}
// * * * * * * * * * * * * * * * * * * * * * * * * * * * * * * * * * * * * * //

dimensions      [0 2 -2 0 0 0 0];

internalField   nonuniform List<scalar> 
6000
(
0.0139122
0.00612145
0.00167803
0.0012451
0.00114113
0.00110895
0.0010882
0.00108147
0.00107783
0.0010714
0.0010606
0.00105012
0.00104525
0.00104711
0.00105048
0.0010458
0.00102217
0.00097081
0.000881373
0.000758581
0.000631546
0.000553695
0.00056792
0.000675753
0.000855139
0.00108373
0.00133725
0.00159959
0.00187237
0.00215503
0.00241596
0.0026481
0.00284738
0.00301255
0.00314526
0.00325176
0.0033305
0.00338524
0.00342113
0.00344313
0.00345585
0.00346283
0.00346566
0.00346319
0.00344848
0.00341006
0.00331794
0.00318068
0.00329479
0.0034287
0.00354238
0.00370755
0.00387296
0.00416626
0.00446386
0.00502804
0.00553852
0.0066238
0.00738373
0.0100105
0.0108007
0.00614835
0.0034946
0.00187599
0.00150329
0.00147608
0.0014913
0.00152169
0.00155356
0.0015752
0.00158052
0.0015742
0.00156616
0.00156368
0.00156575
0.00156348
0.00154189
0.00148133
0.00136202
0.00118386
0.000994639
0.000898467
0.000971879
0.00117192
0.00144379
0.0017536
0.0020807
0.00241194
0.00274043
0.00306064
0.00336544
0.00365318
0.00392262
0.00417387
0.0044082
0.0046289
0.00483383
0.00502989
0.0052225
0.00541724
0.0056196
0.00583373
0.00606052
0.00629523
0.00652212
0.00671237
0.00679332
0.00668213
0.00662546
0.00651601
0.0063348
0.00610522
0.00582914
0.00556654
0.00529119
0.00511175
0.00489449
0.00497134
0.0049614
0.00578105
0.0105284
0.00643562
0.00416219
0.00286975
0.00217265
0.00199526
0.00196404
0.00197938
0.0020081
0.00202968
0.00203387
0.00202442
0.00201214
0.0020053
0.0020029
0.00199493
0.00196418
0.00188725
0.00173815
0.00151466
0.00127554
0.00115639
0.00126057
0.00153288
0.00189429
0.00229722
0.00271519
0.00313267
0.00354074
0.00393358
0.00430694
0.00465922
0.00498935
0.00529768
0.00558599
0.00585332
0.00610237
0.00633982
0.00657254
0.00680785
0.00705301
0.00731374
0.00759153
0.0078799
0.00815787
0.00838129
0.00844123
0.00830487
0.00819347
0.00799568
0.00770692
0.00734462
0.00692811
0.00650668
0.00607973
0.00573658
0.00540481
0.00537042
0.0053378
0.0064049
0.0106764
0.00664305
0.00447292
0.00353571
0.00289787
0.00250797
0.00239545
0.00237743
0.00239174
0.00240677
0.00240701
0.00239375
0.00237712
0.00236532
0.00235729
0.00234266
0.00230328
0.00221383
0.00204333
0.0017871
0.00151077
0.00137294
0.00149996
0.00183099
0.00226797
0.0027509
0.00324702
0.00373783
0.00421294
0.0046662
0.00509392
0.00549443
0.00586674
0.00621147
0.00653075
0.00682207
0.00709026
0.00734239
0.00758673
0.00783225
0.00808804
0.00836158
0.00865544
0.0089623
0.00925678
0.00947861
0.00949676
0.00935174
0.00920026
0.00893883
0.00857498
0.00812538
0.00762227
0.00710963
0.00660789
0.00619408
0.00585023
0.00582484
0.00594753
0.00722659
0.010787
0.00678394
0.00463053
0.00386666
0.00362796
0.00305403
0.0028269
0.00275888
0.0027498
0.00275362
0.00274782
0.00272988
0.00270823
0.00269068
0.00267638
0.00265515
0.00260841
0.00250947
0.00232275
0.00204054
0.00173271
0.00157594
0.00171835
0.00209837
0.0026014
0.0031556
0.003722
0.00427908
0.00481499
0.00532296
0.00579918
0.00624161
0.00664897
0.00702176
0.00736203
0.00766646
0.00794107
0.00819377
0.00843418
0.00867299
0.00892121
0.00918845
0.00947888
0.00978499
0.0100773
0.0102779
0.010255
0.010111
0.00992655
0.00961365
0.00918975
0.00867306
0.00810573
0.00752918
0.00698106
0.00653099
0.00620581
0.00623008
0.00654208
0.00796945
0.0108513
0.00688296
0.00471499
0.00400066
0.00421151
0.00364753
0.00328164
0.0031465
0.00310481
0.00309262
0.00307848
0.00305472
0.00302718
0.00300309
0.00298201
0.00295429
0.00290124
0.00279515
0.00259593
0.00229206
0.00195542
0.00177718
0.00192733
0.00234848
0.00291098
0.00353104
0.00416353
0.00478385
0.00537842
0.0059395
0.00646251
0.00694459
0.00738374
0.00777992
0.00813485
0.00844458
0.00871622
0.00895867
0.00918295
0.00940153
0.00962758
0.00987309
0.0101444
0.0104347
0.0107106
0.0108756
0.0108238
0.0106855
0.0104742
0.0101195
0.00964661
0.00907644
0.00845909
0.00783547
0.00725776
0.00679271
0.00650582
0.00660184
0.00710558
0.00864382
0.0108871
0.00695334
0.00476237
0.00402512
0.00455529
0.00426766
0.00377128
0.00355278
0.00346884
0.00343545
0.00341035
0.0033794
0.00334504
0.00331364
0.00328531
0.00325123
0.00319279
0.00308157
0.00287295
0.00255078
0.00218672
0.00198338
0.00213339
0.00258865
0.00320566
0.00388815
0.00458469
0.00526736
0.00592055
0.006535
0.00710481
0.00762583
0.00809489
0.00851115
0.00887577
0.00918434
0.00944518
0.00966822
0.00986592
0.0100526
0.0102436
0.0104538
0.0106923
0.0109535
0.0112005
0.0113217
0.0112575
0.0111269
0.0108953
0.0105078
0.00999539
0.00938246
0.00872579
0.00806745
0.00747255
0.00700885
0.00677572
0.00695799
0.00764685
0.00927045
0.0109042
0.00700327
0.00479065
0.00399376
0.00467499
0.00484287
0.00429787
0.00398498
0.00384921
0.00378901
0.00374998
0.00371029
0.00366814
0.00362869
0.00359272
0.00355242
0.00348945
0.00337504
0.00316001
0.00282257
0.00243196
0.00219946
0.00234126
0.00282376
0.0034911
0.00423372
0.00499349
0.00573881
0.00645153
0.00712042
0.00773772
0.00829751
0.00879517
0.0092288
0.00959883
0.00990072
0.010144
0.0103398
0.0105018
0.0106463
0.0107911
0.0109537
0.0111466
0.0113669
0.0115742
0.0116498
0.0115883
0.0114672
0.0112222
0.0108106
0.0102674
0.00962075
0.00893347
0.0082502
0.00764824
0.0071994
0.00703268
0.00731055
0.00817449
0.00986306
0.0109089
0.00703891
0.00480922
0.003938
0.00463712
0.00528168
0.00485056
0.00444644
0.00425048
0.00415771
0.0041015
0.00405133
0.00400038
0.00395222
0.00390827
0.00386194
0.00379538
0.00367968
0.00346126
0.00311166
0.00269535
0.0024296
0.00255494
0.00305761
0.00377136
0.00457243
0.00539524
0.00620401
0.0069776
0.00770224
0.00836784
0.00896641
0.00949153
0.00994015
0.0103118
0.0106022
0.0108222
0.010984
0.0111028
0.0111964
0.0112849
0.0113891
0.0115251
0.0116934
0.0118511
0.0118861
0.0118381
0.0117289
0.0114778
0.0110506
0.0104847
0.00981217
0.00910161
0.0084015
0.00780113
0.00737865
0.00728838
0.00766711
0.00869452
0.0104302
0.0109057
0.00706479
0.0048231
0.00387539
0.00450097
0.0055352
0.005396
0.00493604
0.00467512
0.00454438
0.00446754
0.00440502
0.00434425
0.00428678
0.0042346
0.0041825
0.00411336
0.00399826
0.00377966
0.00342126
0.00298045
0.00267768
0.00277822
0.00329354
0.00404968
0.0049077
0.00579362
0.00666682
0.00750263
0.00828424
0.00899887
0.00963609
0.0101876
0.010649
0.0110188
0.0112936
0.0114856
0.0116079
0.0116772
0.0117127
0.0117367
0.011773
0.0118418
0.011948
0.0120475
0.0120514
0.0120235
0.0119289
0.0116793
0.0112447
0.0106638
0.00997242
0.00924488
0.00853474
0.00794346
0.00755705
0.00755075
0.00803238
0.00921086
0.0109773
0.0108979
0.00708402
0.00483493
0.00381522
0.00431265
0.00561083
0.00587537
0.00544585
0.00512346
0.0049506
0.00484976
0.00477292
0.00470128
0.00463398
0.00457343
0.00451589
0.00444534
0.00433266
0.00411724
0.00375383
0.00329034
0.00294736
0.00301482
0.0035347
0.00432886
0.00524225
0.00619131
0.00712983
0.00802898
0.00886851
0.00963257
0.0103081
0.0108847
0.0113569
0.0117218
0.0119775
0.0121374
0.0122161
0.0122309
0.0122029
0.0121558
0.0121163
0.012109
0.0121436
0.0121784
0.0121629
0.0121573
0.0120807
0.0118401
0.0114063
0.0108177
0.0101137
0.00937466
0.00866032
0.00808466
0.00774234
0.00782516
0.00840915
0.00972565
0.0115076
0.0108874
0.00709872
0.00484609
0.00376201
0.00410477
0.00553682
0.00623645
0.00595665
0.00559298
0.00537667
0.00524898
0.00515586
0.00507237
0.00499478
0.00492579
0.00486324
0.00479254
0.00468401
0.00447529
0.0041111
0.0036276
0.00324213
0.00326847
0.00378426
0.00461146
0.00557833
0.00659033
0.00759472
0.00855796
0.00945592
0.0102694
0.0109827
0.0115831
0.0120639
0.012421
0.0126546
0.0127794
0.0128111
0.0127682
0.0126726
0.0125496
0.0124282
0.0123373
0.0122919
0.0122591
0.0122335
0.0122501
0.012195
0.0119709
0.0115458
0.0109564
0.0102457
0.00949996
0.00878648
0.00823205
0.00794027
0.00811518
0.008799
0.0102394
0.0120233
0.0108755
0.00711035
0.0048573
0.00371752
0.00389856
0.00534985
0.00645336
0.00643346
0.00607683
0.00582141
0.0056652
0.00555412
0.00545784
0.00536962
0.00529222
0.0052251
0.00515536
0.00505284
0.00485438
0.00449412
0.00399425
0.00356518
0.00354285
0.00404541
0.00489996
0.00591791
0.00699221
0.00806257
0.00909014
0.0100465
0.0109091
0.011659
0.0122816
0.0127691
0.0131156
0.0133245
0.0134118
0.0133943
0.0132913
0.0131257
0.0129238
0.0127163
0.0125362
0.0124033
0.0123042
0.0122734
0.0123103
0.0122803
0.01208
0.0116713
0.011088
0.0103759
0.00962794
0.00891975
0.00839136
0.00815502
0.00842312
0.00920267
0.0107529
0.0125254
0.0108631
0.00711987
0.00486887
0.00368204
0.00370665
0.0050872
0.00652133
0.00683774
0.00656136
0.0062815
0.00609751
0.00596738
0.00585755
0.00575847
0.00567278
0.00560157
0.00553385
0.0054391
0.00525448
0.00490323
0.00439169
0.00391934
0.00384157
0.00432143
0.00519678
0.00626274
0.00739812
0.00853398
0.00962554
0.0106398
0.0115504
0.0123356
0.0129785
0.0134706
0.0138039
0.0139859
0.0140338
0.0139656
0.0138015
0.0135649
0.0132826
0.0129867
0.0127132
0.0124874
0.0123271
0.0122906
0.012345
0.0123432
0.0121736
0.0117891
0.0112186
0.0105103
0.00976426
0.00906532
0.00856702
0.00838966
0.00875044
0.00962035
0.0112662
0.0130145
0.0108507
0.00712797
0.00488091
0.00365505
0.00353557
0.00478219
0.0064502
0.0071408
0.00702324
0.00675052
0.00654379
0.00639468
0.00627093
0.00616091
0.00606714
0.00599236
0.00592763
0.00584229
0.00567492
0.00533807
0.00482062
0.00430696
0.00416809
0.0046156
0.00550438
0.00661444
0.00780898
0.0090092
0.0101637
0.0112347
0.012192
0.0130106
0.0136718
0.0141662
0.0144838
0.0146369
0.014644
0.0145242
0.0142987
0.013991
0.0136286
0.0132435
0.0128744
0.0125539
0.0123385
0.0122918
0.0123598
0.0123887
0.0122566
0.0119037
0.0113527
0.0106535
0.00991337
0.00922727
0.00876244
0.00864631
0.00909796
0.0100518
0.011779
0.0134906
0.0108385
0.00713509
0.00489341
0.00363566
0.00338779
0.00446194
0.00625999
0.0073239
0.00743625
0.00721728
0.00700021
0.0068343
0.00669689
0.00657612
0.0064746
0.00639676
0.00633592
0.00626148
0.00611454
0.00579763
0.00528097
0.00472977
0.00452557
0.00493124
0.00582521
0.00697453
0.00822548
0.00948819
0.010704
0.0118299
0.0128318
0.0136818
0.0143589
0.0148532
0.0151527
0.0152752
0.0152402
0.0150685
0.0147818
0.0144041
0.0139627
0.0134895
0.0130243
0.0126131
0.0123463
0.0122824
0.0123591
0.0124206
0.012332
0.0120184
0.0114936
0.0108089
0.0100787
0.00940878
0.00898022
0.00892647
0.00946603
0.0104963
0.0122903
0.0139535
0.0108269
0.00714156
0.00490632
0.00362288
0.00326328
0.00414678
0.00597659
0.00737844
0.00777735
0.00766485
0.00746048
0.00728348
0.00713379
0.00700285
0.00689408
0.00681373
0.00675758
0.00669536
0.00657168
0.00628023
0.00577189
0.00518877
0.00491683
0.00527157
0.00616174
0.00734445
0.00864817
0.00997068
0.0112454
0.0124238
0.0134679
0.0143466
0.0150372
0.0155289
0.0158079
0.0158981
0.0158202
0.0155964
0.0152494
0.0148032
0.0142849
0.0137257
0.0131664
0.0126742
0.0123562
0.0122667
0.0123467
0.0124413
0.0124019
0.0121351
0.0116437
0.010979
0.0102628
0.00961227
0.00922225
0.00923104
0.00985461
0.010953
0.012799
0.0144023
0.0108159
0.00714758
0.00491955
0.00361571
0.00316057
0.00385058
0.00562786
0.00730581
0.00802634
0.00807523
0.00791466
0.007738
0.00757929
0.00743943
0.00732416
0.00724189
0.00719114
0.00714231
0.00704426
0.00678364
0.00629175
0.00568415
0.00534416
0.00563965
0.00651643
0.00772561
0.00907745
0.0104562
0.0117867
0.0130147
0.0140979
0.0150026
0.0157038
0.0161903
0.0164467
0.016503
0.0163815
0.0161058
0.0156994
0.0151866
0.0145941
0.0139521
0.0133061
0.012743
0.0123719
0.0122483
0.0123251
0.0124525
0.0124674
0.0122548
0.0118042
0.0111653
0.0104674
0.00983953
0.00948989
0.00956053
0.0102633
0.0114206
0.0133037
0.0148363
0.0108055
0.0071533
0.004933
0.00361321
0.00307744
0.0035818
0.00524069
0.00711614
0.00816806
0.00843012
0.00835049
0.0081915
0.0080301
0.00788362
0.00776298
0.0076795
0.00763478
0.00760044
0.00752988
0.0073051
0.00683816
0.00621521
0.00580927
0.00603831
0.00689167
0.00811932
0.00951359
0.0109442
0.0123267
0.0136005
0.0147196
0.015647
0.0163561
0.0168345
0.0170663
0.0170875
0.0169217
0.0165945
0.0161299
0.0155524
0.0148887
0.0141683
0.0134488
0.0128221
0.0123955
0.0122299
0.0122965
0.0124551
0.0125285
0.0123777
0.0119755
0.0113688
0.0106939
0.0100918
0.00978402
0.00991502
0.0106914
0.0118974
0.0138025
0.0152544
0.0107958
0.00715881
0.00494658
0.00361456
0.00301144
0.00334458
0.00483892
0.00682623
0.00819383
0.00871166
0.00875455
0.00863565
0.00848157
0.00833252
0.00820827
0.00812448
0.00808638
0.00806763
0.00802583
0.00784142
0.00740804
0.00678032
0.00631309
0.00647004
0.0072898
0.00852687
0.00995677
0.0114339
0.0128637
0.0141793
0.0153305
0.0162772
0.0169913
0.0174589
0.0176643
0.0176491
0.0174387
0.0170602
0.0165386
0.0158987
0.0151667
0.0143779
0.0135967
0.0129122
0.0124281
0.0122134
0.0122625
0.0124496
0.012585
0.0125032
0.0121574
0.0115896
0.0109429
0.0103697
0.0101051
0.0102942
0.0111379
0.0123815
0.0142936
0.0156555
0.0107868
0.00716418
0.00496021
0.00361902
0.00296013
0.00313992
0.00444213
0.00645724
0.00810205
0.00890409
0.00911205
0.00906107
0.00892769
0.00878227
0.00865724
0.00857436
0.0085435
0.00854148
0.00852918
0.00838903
0.00799763
0.00737687
0.00685572
0.0069369
0.00771301
0.00894947
0.0104071
0.0119245
0.0133964
0.0147491
0.0159281
0.0168906
0.0176067
0.0180604
0.0182382
0.0181855
0.0179303
0.0175011
0.0169238
0.0162234
0.0154291
0.0145836
0.0137498
0.0130122
0.0124695
0.0122002
0.0122243
0.0124359
0.0126357
0.0126301
0.0123491
0.0118276
0.0112144
0.0106737
0.010453
0.0106975
0.0116011
0.0128708
0.0147748
0.0160384
0.0107785
0.00716945
0.00497383
0.00362599
0.00292122
0.00296674
0.00406513
0.00603236
0.00789794
0.00899518
0.00940778
0.00945676
0.00936169
0.00922818
0.00910636
0.00902625
0.00900333
0.00901938
0.00903677
0.00894409
0.00860265
0.00800136
0.00743629
0.00744042
0.00816332
0.00938832
0.0108646
0.0124152
0.0139231
0.0153077
0.0165101
0.0174846
0.0181997
0.0186369
0.0187857
0.0186948
0.0183946
0.0179153
0.0172836
0.0165261
0.0156793
0.0147859
0.0139067
0.0131201
0.012519
0.0121907
0.0121826
0.0124136
0.0126793
0.0127568
0.0125493
0.0120819
0.0115081
0.0110034
0.0108275
0.0111238
0.0120794
0.0133628
0.0152439
0.0164021
0.0107707
0.00717463
0.00498735
0.00363492
0.00289264
0.00282264
0.00371806
0.00557481
0.00759274
0.00897737
0.00962718
0.00981043
0.00977544
0.00966498
0.00955167
0.00947682
0.00946276
0.00949839
0.00954525
0.00950247
0.0092183
0.00864934
0.00805285
0.00798148
0.00864255
0.00984456
0.0113294
0.0129049
0.0144422
0.015853
0.017074
0.0180565
0.0187677
0.0191859
0.0193045
0.0191749
0.0188298
0.0183012
0.0176171
0.0168103
0.0159185
0.0149843
0.0140654
0.0132333
0.0125751
0.0121853
0.0121381
0.0123824
0.0127143
0.0128813
0.0127563
0.0123512
0.0118233
0.0113582
0.0112277
0.0115716
0.0125704
0.0138549
0.0156988
0.0167455
0.0107636
0.00717975
0.00500073
0.00364538
0.00287261
0.00270458
0.00340692
0.00510607
0.00720251
0.00884837
0.00975745
0.0101091
0.0101595
0.0100864
0.00998875
0.00992246
0.00991847
0.00997444
0.0100511
0.0100599
0.00983938
0.00931556
0.00870235
0.00856019
0.00915226
0.0103193
0.0118014
0.0133929
0.014952
0.0163829
0.0176174
0.0186037
0.019308
0.0197051
0.0197926
0.0196239
0.0192343
0.0186582
0.0179276
0.0170777
0.016147
0.0151777
0.0142236
0.0133494
0.012636
0.0121837
0.0120912
0.0123417
0.0127388
0.0130012
0.0129678
0.0126339
0.0121586
0.0117372
0.0116522
0.0120391
0.0130717
0.0143442
0.0161373
0.0170675
0.0107571
0.00718481
0.00501393
0.00365701
0.00285957
0.00260928
0.00313422
0.00464471
0.00674659
0.00861133
0.00978864
0.0103398
0.0105034
0.0104851
0.0104124
0.0103591
0.010367
0.0104434
0.0105506
0.0106117
0.0104604
0.00999399
0.00938053
0.00917578
0.00969371
0.0108138
0.0122807
0.0138781
0.0154509
0.0168952
0.0181378
0.0191238
0.0198181
0.0201919
0.0202476
0.0200399
0.0196079
0.0189885
0.0182165
0.0173288
0.0163645
0.0153646
0.0143789
0.0134657
0.0126999
0.012185
0.0120419
0.012291
0.012751
0.0131141
0.0131814
0.0129279
0.0125125
0.0121387
0.0120994
0.012524
0.0135803
0.0148279
0.0165573
0.0173675
0.0107511
0.0071898
0.0050269
0.00366949
0.00285222
0.0025335
0.00289989
0.00420555
0.00624602
0.00827462
0.00971445
0.0104902
0.0107959
0.0108526
0.0108166
0.0107823
0.0108045
0.0109018
0.0110404
0.0111537
0.0110754
0.0106779
0.0100821
0.00982535
0.0102665
0.0113295
0.012769
0.01436
0.0159373
0.0173878
0.0186327
0.019614
0.0202952
0.020644
0.020668
0.0204231
0.0199519
0.0192934
0.0184847
0.017564
0.0165704
0.0155434
0.0145292
0.0135798
0.0127649
0.0121886
0.0119905
0.01223
0.012749
0.0132171
0.0133943
0.0132308
0.0128828
0.0125608
0.012567
0.0130235
0.0140929
0.0153031
0.0169569
0.0176448
0.0107456
0.00719473
0.00503962
0.00368258
0.00284945
0.00247423
0.00270198
0.00379944
0.00572199
0.00785119
0.00953283
0.0105499
0.0110254
0.0111798
0.0111945
0.0111868
0.0112267
0.0113457
0.011517
0.0116819
0.0116793
0.0113607
0.0107999
0.0105037
0.0108682
0.0118654
0.0132658
0.0148393
0.0164112
0.0178597
0.0191004
0.0200721
0.0207372
0.0210601
0.0210535
0.0207741
0.0202672
0.0195735
0.0187325
0.0177831
0.0167637
0.0157127
0.0146723
0.0136898
0.012829
0.0121934
0.0119368
0.0121583
0.0127312
0.0133074
0.0136032
0.0135395
0.0132669
0.0130009
0.0130523
0.0135346
0.0146064
0.015767
0.0173344
0.0178988
0.0107405
0.00719959
0.00505205
0.00369607
0.00285034
0.00242874
0.00253742
0.00343327
0.00519441
0.00735763
0.00924634
0.0105107
0.0111806
0.0114567
0.0115385
0.0115667
0.0116291
0.0117711
0.0119764
0.0121925
0.0122671
0.0120356
0.0115259
0.0112045
0.011495
0.0124195
0.01377
0.0153149
0.0168715
0.0183097
0.0195398
0.0204973
0.0211435
0.0214402
0.0214046
0.0210934
0.0205542
0.0198295
0.0189601
0.0179855
0.0169435
0.0158708
0.0148066
0.0137935
0.0128905
0.0121981
0.0118808
0.0120758
0.0126957
0.013382
0.0138049
0.0138509
0.0136618
0.0134563
0.0135522
0.0140538
0.0151171
0.0162167
0.0176885
0.0181293
0.0107359
0.00720438
0.00506418
0.00370979
0.00285414
0.00239467
0.00240255
0.00311046
0.00468076
0.00681304
0.00886208
0.0103676
0.0112513
0.011673
0.0118403
0.0119158
0.0120064
0.0121736
0.0124148
0.0126812
0.0128338
0.0126957
0.0122518
0.0119204
0.0121424
0.0129894
0.01428
0.0157857
0.0173171
0.0187369
0.01995
0.0208889
0.0215139
0.0217844
0.0217215
0.0213813
0.0208133
0.0200613
0.0191672
0.0181706
0.0171085
0.0160163
0.0149303
0.0138893
0.0129476
0.0122017
0.0118223
0.0119824
0.0126412
0.0134379
0.0139957
0.0141615
0.0140642
0.0139234
0.0140631
0.0145774
0.0156215
0.0166496
0.0180178
0.0183361
0.0107317
0.00720908
0.005076
0.00372361
0.00286022
0.00236995
0.0022935
0.00283152
0.00419531
0.00623773
0.00839144
0.0101193
0.0112287
0.0118185
0.0120909
0.0122269
0.0123532
0.0125484
0.0128274
0.0131439
0.0133745
0.0133345
0.0129691
0.0126434
0.0128046
0.0135716
0.014794
0.0162503
0.017747
0.0191404
0.0203303
0.0212466
0.0218481
0.0220927
0.0220042
0.0216379
0.0210445
0.0202688
0.0193533
0.0183374
0.0172577
0.0161478
0.0150419
0.0139756
0.0129988
0.0122029
0.0117611
0.0118783
0.0125664
0.013472
0.0141718
0.0144672
0.0144702
0.0143984
0.0145811
0.0151014
0.0161159
0.0170633
0.0183213
0.0185192
0.0107278
0.0072137
0.0050875
0.00373742
0.00286807
0.00235284
0.00220653
0.00259481
0.00374861
0.00565189
0.00784949
0.00976864
0.0111065
0.0118835
0.0122813
0.0124924
0.0126633
0.0128905
0.0132087
0.0135761
0.0138842
0.0139454
0.0136693
0.013365
0.0134752
0.0141621
0.0153094
0.0167072
0.0181601
0.0195193
0.0206803
0.0215702
0.0221463
0.0223653
0.022253
0.0218635
0.0212478
0.0204516
0.0195176
0.0184851
0.0173897
0.016264
0.0151401
0.014051
0.0130425
0.0122005
0.0116969
0.0117639
0.0124702
0.0134815
0.014329
0.0147637
0.0148755
0.0148772
0.0151017
0.0156216
0.0165969
0.0174555
0.0185983
0.0186788
0.0107243
0.00721823
0.00509865
0.00375113
0.00287725
0.00234189
0.00213814
0.00239717
0.00334744
0.00507437
0.00725414
0.00932241
0.0108811
0.0118596
0.0124021
0.0127044
0.0129301
0.0131946
0.0135526
0.0139728
0.0143578
0.014522
0.014344
0.0140761
0.014147
0.0147559
0.0158233
0.0171544
0.0185552
0.019873
0.0209995
0.0218593
0.0224084
0.0226023
0.0224679
0.0220577
0.0214229
0.0206091
0.0196594
0.0186125
0.0175034
0.0163635
0.0152234
0.014114
0.0130774
0.0121931
0.0116292
0.0116394
0.012352
0.0134635
0.0144634
0.0150465
0.0152755
0.015355
0.0156203
0.0161338
0.0170609
0.0178244
0.0188482
0.0188152
0.0107211
0.00722265
0.00510947
0.00376466
0.00288744
0.00233587
0.00208522
0.0022346
0.00299511
0.00452159
0.00662513
0.00879157
0.0105523
0.0117397
0.0124446
0.0128547
0.013147
0.013455
0.0138543
0.0143292
0.0147902
0.015058
0.014985
0.0147676
0.014812
0.0153476
0.0163322
0.01759
0.0189309
0.0202006
0.0212875
0.022114
0.0226345
0.0228036
0.0226488
0.0222205
0.0215692
0.0207407
0.0197777
0.0187186
0.0175975
0.0164452
0.0152908
0.0141634
0.0131019
0.0121795
0.0115576
0.0115053
0.0122113
0.0134154
0.0145705
0.0153108
0.0156651
0.0158269
0.0161322
0.0166336
0.0175049
0.018168
0.0190708
0.0189286
0.0107182
0.00722697
0.00511994
0.00377797
0.00289835
0.00233378
0.00204504
0.00210271
0.00269188
0.00400671
0.00598277
0.00819068
0.0101237
0.0115193
0.0124007
0.012935
0.0133065
0.0136657
0.0141086
0.0146398
0.0151762
0.0155473
0.0155845
0.0154306
0.0154621
0.0159311
0.016832
0.0180113
0.019286
0.0205014
0.021544
0.022334
0.0228247
0.0229694
0.0227957
0.0223514
0.0216862
0.0208455
0.0198716
0.0188023
0.017671
0.0165079
0.015341
0.014198
0.0131149
0.0121584
0.0114815
0.0113624
0.0120482
0.0133347
0.0146462
0.0155513
0.0160391
0.0162877
0.0166322
0.0171169
0.0179256
0.0184848
0.0192659
0.0190196
0.0107155
0.00723118
0.00513006
0.00379101
0.00290975
0.00233481
0.00201524
0.00199712
0.00243572
0.00353918
0.00534677
0.0075373
0.00960265
0.0111965
0.0122638
0.0129375
0.0134015
0.0138204
0.0143102
0.0148989
0.0155102
0.0159838
0.0161349
0.016056
0.0160888
0.0164997
0.0173183
0.0184156
0.0196187
0.0207746
0.0217686
0.0225195
0.0229788
0.0230995
0.0229082
0.0224501
0.0217734
0.0209228
0.0199401
0.0188624
0.0177227
0.0165505
0.015373
0.0142167
0.013115
0.0121287
0.0114002
0.0112112
0.011863
0.0132194
0.0146861
0.0157629
0.016392
0.0167319
0.0171153
0.0175794
0.0183203
0.0187736
0.0194334
0.0190886
0.0107131
0.00723528
0.00513984
0.00380373
0.00292147
0.00233826
0.00199386
0.0019137
0.00222294
0.00312465
0.004735
0.00685111
0.00900059
0.0107727
0.0120289
0.0128548
0.0134248
0.0139129
0.0144537
0.0150997
0.0157865
0.0163614
0.0166289
0.0166353
0.0166833
0.0170464
0.0177862
0.0187998
0.0199272
0.0210191
0.0219608
0.0226701
0.0230971
0.0231939
0.0229863
0.0225161
0.02183
0.0209717
0.0199821
0.018898
0.0177516
0.016572
0.0153857
0.0142184
0.0131012
0.0120889
0.0113131
0.0110523
0.0116564
0.0130679
0.0146862
0.0159401
0.016718
0.0171538
0.0175762
0.0180169
0.0186862
0.0190333
0.0195735
0.0191363
0.0107109
0.00723926
0.00514928
0.00381613
0.00293334
0.0023436
0.00197924
0.00184871
0.00204891
0.00276518
0.00416245
0.00615282
0.0083324
0.0102529
0.0116934
0.0126809
0.0133693
0.0139367
0.0145337
0.0152364
0.0159994
0.016674
0.0170597
0.0171604
0.0172373
0.017564
0.0182304
0.0191605
0.0202094
0.021234
0.0221203
0.0227858
0.0231793
0.0232526
0.0230296
0.022549
0.0218554
0.0209913
0.0199969
0.018908
0.0177566
0.0165714
0.0153783
0.0142022
0.0130722
0.0120381
0.0112193
0.0108864
0.0114296
0.0128789
0.0146426
0.0160777
0.0170111
0.0175477
0.01801
0.0184256
0.019021
0.0192628
0.0196864
0.019163
0.0107089
0.00724311
0.00515837
0.00382817
0.00294526
0.00235038
0.00197002
0.00179885
0.0019086
0.00245983
0.00364048
0.0054629
0.00761603
0.00964581
0.0112576
0.0124111
0.0132288
0.0138857
0.0145448
0.0153044
0.0161425
0.0169151
0.0174207
0.0176233
0.0177424
0.0180452
0.0186453
0.0194939
0.0204632
0.0214178
0.0222463
0.0228663
0.0232254
0.0232752
0.0230378
0.0225483
0.0218489
0.0209809
0.0199833
0.0188916
0.017737
0.0165478
0.0153498
0.0141671
0.0130272
0.0119749
0.0111178
0.0107138
0.0111839
0.0126519
0.0145516
0.0161702
0.0172656
0.0179079
0.0184114
0.0188017
0.0193225
0.0194614
0.0197724
0.0191695
0.0107071
0.00724685
0.00516712
0.00383984
0.00295714
0.00235822
0.00196508
0.00176128
0.001797
0.00220533
0.00317643
0.00480033
0.00687173
0.0089639
0.010725
0.0120429
0.012998
0.0137541
0.0144816
0.0152992
0.0162097
0.0170792
0.0177055
0.0180168
0.0181906
0.0184825
0.0190252
0.019796
0.0206859
0.0215693
0.0223382
0.0229113
0.0232351
0.0232618
0.0230107
0.0225135
0.0218098
0.0209396
0.0199407
0.0188478
0.0176917
0.0165005
0.0152994
0.0141123
0.0129652
0.0118983
0.0110078
0.0105351
0.0109213
0.0123867
0.0144101
0.0162125
0.0174754
0.0182286
0.0187757
0.0191416
0.0195887
0.0196285
0.0198317
0.0191562
0.0107054
0.00725046
0.00517554
0.00385114
0.00296888
0.00236686
0.00196351
0.00173362
0.00170938
0.00199686
0.00277362
0.00418141
0.0061209
0.00822329
0.0101025
0.0115762
0.0126731
0.0135367
0.0143392
0.0152163
0.0161964
0.0171612
0.0179084
0.0183339
0.0185742
0.0188686
0.019364
0.0200625
0.0208749
0.0216867
0.0223951
0.0229205
0.0232082
0.023212
0.0229479
0.022444
0.0217377
0.0208668
0.0198683
0.0187759
0.0176202
0.0164287
0.0152266
0.0140371
0.0128852
0.0118072
0.0108882
0.0103504
0.0106438
0.0120842
0.0142155
0.0161996
0.0176348
0.0185042
0.019098
0.019442
0.0198178
0.0197635
0.0198647
0.0191235
0.0107039
0.00725394
0.00518363
0.00386206
0.00298044
0.00237604
0.00196456
0.00171389
0.00164152
0.0018288
0.00243177
0.0036187
0.00538489
0.00744306
0.00940102
0.0110137
0.0122518
0.0132293
0.0141132
0.0150519
0.0160988
0.0171562
0.0180237
0.0185684
0.018886
0.0191964
0.0196558
0.0202891
0.0210272
0.0217684
0.0224161
0.0228932
0.0231443
0.0231257
0.0228492
0.0223396
0.0216318
0.0207618
0.0197653
0.0186752
0.0175216
0.0163317
0.0151305
0.0139408
0.0127866
0.0117008
0.0107582
0.0101599
0.0103537
0.0117459
0.0139658
0.0161269
0.0177382
0.0187293
0.0193738
0.0196997
0.0200081
0.019866
0.0198717
0.0190721
0.0107026
0.00725729
0.00519139
0.00387259
0.00299176
0.00238557
0.00196763
0.00170044
0.00158971
0.00169527
0.00214767
0.00312046
0.00468357
0.00664458
0.008635
0.0103617
0.0117346
0.012829
0.0137996
0.0148024
0.0159137
0.01706
0.0180462
0.0187141
0.0191192
0.019459
0.0198946
0.020471
0.0211397
0.0218124
0.0224
0.022829
0.0230435
0.0230026
0.0227142
0.0221999
0.0214917
0.0206241
0.0196312
0.0185451
0.0173954
0.016209
0.0150106
0.0138229
0.0126687
0.0115781
0.0106165
0.00996332
0.0100534
0.0113739
0.0136598
0.0159902
0.0177802
0.0188987
0.0195988
0.0199119
0.0201583
0.0199356
0.019853
0.0190022
0.0107014
0.00726052
0.00519883
0.00388273
0.00300282
0.00239532
0.00197225
0.00169195
0.00155081
0.00159062
0.00191609
0.00269048
0.00403395
0.0058503
0.00782246
0.00963005
0.0111242
0.0123349
0.0133959
0.0144649
0.0156383
0.0168691
0.0179714
0.0187654
0.0192675
0.0196497
0.0200743
0.0206037
0.0212089
0.0218164
0.0223456
0.0227271
0.0229054
0.0228426
0.0225426
0.0220244
0.0213171
0.0204532
0.0194655
0.0183851
0.0172411
0.0160601
0.0148665
0.0136826
0.0125308
0.0114384
0.0104624
0.00976041
0.00974527
0.0109714
0.0132972
0.0157861
0.0177558
0.0190073
0.019769
0.0200759
0.020267
0.0199719
0.0198087
0.0189141
0.0107003
0.00726362
0.00520595
0.00389249
0.00301358
0.00240516
0.00197803
0.00168733
0.00152219
0.00150969
0.0017306
0.00232838
0.00344904
0.00508242
0.00698434
0.00883237
0.010427
0.0117479
0.0129005
0.0140373
0.0152704
0.0165803
0.017795
0.0187172
0.0193249
0.0197625
0.0201893
0.0206824
0.0212315
0.0217782
0.0222513
0.0225867
0.0227297
0.0226453
0.0223344
0.0218129
0.0211075
0.0202487
0.0192677
0.0181947
0.0170582
0.0158845
0.0146976
0.0135197
0.0123724
0.0112809
0.0102949
0.00955062
0.00943152
0.0105421
0.0128787
0.0155118
0.0176605
0.0190507
0.0198807
0.0201892
0.020333
0.0199747
0.0197392
0.0188083
0.0106992
0.00726659
0.00521277
0.00390187
0.00302403
0.00241499
0.00198466
0.00168573
0.0015017
0.00144795
0.00158438
0.00203036
0.00293701
0.0043613
0.00614358
0.00798601
0.00965252
0.0110718
0.0123138
0.0135186
0.0148088
0.0161917
0.0175136
0.0185647
0.0192857
0.0197911
0.0202339
0.0207023
0.0212038
0.0216953
0.0221157
0.0224068
0.0225157
0.0224104
0.022089
0.0215651
0.0208628
0.0200102
0.0190375
0.0179736
0.0168465
0.0156819
0.0145037
0.0133338
0.012193
0.0111051
0.0101129
0.00933329
0.0091141
0.0100905
0.0124061
0.0151652
0.0174905
0.0190246
0.0199306
0.0202497
0.0203553
0.0199436
0.0196446
0.0186848
0.0106983
0.00726943
0.00521929
0.00391086
0.00303414
0.00242473
0.0019919
0.00168645
0.00148758
0.00140151
0.00147078
0.00179023
0.00250098
0.00370391
0.00532383
0.00711167
0.00881435
0.0103134
0.0116383
0.0129093
0.0142533
0.0157021
0.0171245
0.0183036
0.0191447
0.0197301
0.0202024
0.0206586
0.0211221
0.021565
0.021937
0.0221864
0.0222629
0.0221374
0.0218064
0.0212809
0.0205825
0.0197377
0.0187746
0.0177216
0.0166056
0.015452
0.0142844
0.0131244
0.0119923
0.0109103
0.00991585
0.00910757
0.00879458
0.0096217
0.0118825
0.0147455
0.0172423
0.0189253
0.0199155
0.0202554
0.0203329
0.0198784
0.0195249
0.0185439
0.0106975
0.00727215
0.00522552
0.00391949
0.00304391
0.00243434
0.00199954
0.00168894
0.00147843
0.00136717
0.00138374
0.0016004
0.0021394
0.00312247
0.00454783
0.00623266
0.00792985
0.00948307
0.0108791
0.0122116
0.0136049
0.0151117
0.0166261
0.0179307
0.0188973
0.0195739
0.0200896
0.0205466
0.0209826
0.0213845
0.0217132
0.0219242
0.0219704
0.021826
0.0214862
0.02096
0.0202667
0.0194308
0.018479
0.0174384
0.0163353
0.0151946
0.0140396
0.0128913
0.0117698
0.0106961
0.00970279
0.00887252
0.00847404
0.00914113
0.0113122
0.0142527
0.0169135
0.0187496
0.0198327
0.0202046
0.0202649
0.0197788