/*--------------------------------*- C++ -*----------------------------------*\
| =========                 |                                                 |
| \\      /  F ield         | OpenFOAM: The Open Source CFD Toolbox           |
|  \\    /   O peration     | Version:  2.4.0                                 |
|   \\  /    A nd           | Web:      www.OpenFOAM.org                      |
|    \\/     M anipulation  |                                                 |
\*---------------------------------------------------------------------------*/
FoamFile
{
    version     2.0;
    format      ascii;
    class       volScalarField;
    location    "3.99";
    object      k;
}
// * * * * * * * * * * * * * * * * * * * * * * * * * * * * * * * * * * * * * //

dimensions      [0 2 -2 0 0 0 0];

internalField   nonuniform List<scalar> 
6000
(
0.168225
0.0132692
0.000979531
0.00362082
0.00250601
0.00292757
0.00242427
0.00239521
0.00213082
0.00205789
0.00192579
0.00188957
0.00185723
0.00188997
0.00195038
0.00205637
0.00218711
0.0023471
0.00253161
0.0027507
0.00301217
0.00332673
0.00369923
0.00413033
0.00461462
0.00514291
0.00570277
0.00628012
0.00685956
0.00742472
0.0079579
0.00843977
0.00884919
0.009163
0.00935466
0.00939676
0.00926271
0.0089274
0.00837336
0.00759567
0.0066193
0.00550864
0.00435717
0.00462913
0.00629976
0.00841606
0.0109671
0.0139819
0.0172947
0.0210336
0.0247661
0.0291478
0.03293
0.0385132
0.0418258
0.0508143
0.0520906
0.0708852
0.0658189
0.108639
0.076205
0.0101503
0.000945219
0.00240488
0.00171432
0.001923
0.00161019
0.0015717
0.00140521
0.00135036
0.00126641
0.00123947
0.00121853
0.00123696
0.00127402
0.00133866
0.00141931
0.00151809
0.00163287
0.00176943
0.00193241
0.00212737
0.00235627
0.00261833
0.00290943
0.00322368
0.00355399
0.00389303
0.00423356
0.00456848
0.00489077
0.00519324
0.00546852
0.00570884
0.00590484
0.00604803
0.00613046
0.00614568
0.00609133
0.00597151
0.00580374
0.00562027
0.00543618
0.00564381
0.00627622
0.00705696
0.00801057
0.00916114
0.0104537
0.0119418
0.0134696
0.0152868
0.0169391
0.0193268
0.0209572
0.0248082
0.0259061
0.0338026
0.0328805
0.0503456
0.0412218
0.00802955
0.00097386
0.00168789
0.00122358
0.00131364
0.00110847
0.00106895
0.0009603
0.000919705
0.000866373
0.000849134
0.000839345
0.000855692
0.000886724
0.000937225
0.00100104
0.00107968
0.00117301
0.00128532
0.00142042
0.00158214
0.0017718
0.00198853
0.00222924
0.00248971
0.00276523
0.0030513
0.0033439
0.00363965
0.00393576
0.00422998
0.00452065
0.00480655
0.00508527
0.00535583
0.00561864
0.00587546
0.00613066
0.00639164
0.00666988
0.00697506
0.00726017
0.00747217
0.00766889
0.00783088
0.00801233
0.00825267
0.00855667
0.00895934
0.00941762
0.0100294
0.0106384
0.0115795
0.0123147
0.0139619
0.0146796
0.0181146
0.0183278
0.0257668
0.0260623
0.00677398
0.0010711
0.00126674
0.000916405
0.000934851
0.000790898
0.00075286
0.000679347
0.000649802
0.000616958
0.000609006
0.000609838
0.000630313
0.000664385
0.000715044
0.00077954
0.000859631
0.000956723
0.00107496
0.00121836
0.00139054
0.00159307
0.00182542
0.00208518
0.00236886
0.00267259
0.00299282
0.00332656
0.00367165
0.00402674
0.00439127
0.00476555
0.00515036
0.00554341
0.00594661
0.00636217
0.00679282
0.00724239
0.00771505
0.00821414
0.00873345
0.00919386
0.00944794
0.0095405
0.00949397
0.00936002
0.00918053
0.00898793
0.00881821
0.00868237
0.00862859
0.00862226
0.00878555
0.00894701
0.00950714
0.00982771
0.0112504
0.0116034
0.0148094
0.0187963
0.00609205
0.00123245
0.00103251
0.000726931
0.000696638
0.000586552
0.000549938
0.000498148
0.000477168
0.00045884
0.000459723
0.00047092
0.000499138
0.000541655
0.000600897
0.000676419
0.000770575
0.000886047
0.0010274
0.00119927
0.00140573
0.00164882
0.00192836
0.00224216
0.0025867
0.00295801
0.00335229
0.00376634
0.00419779
0.00464513
0.00510769
0.00558563
0.00607759
0.00657999
0.00709506
0.00762369
0.00816666
0.0087251
0.00929953
0.00988893
0.0104804
0.0109881
0.0112874
0.0113977
0.0113294
0.0111191
0.010798
0.0104001
0.00995756
0.00950259
0.00906863
0.00867403
0.00836617
0.00811964
0.0080602
0.00801629
0.00842475
0.00859044
0.00990262
0.0150489
0.00576623
0.00144843
0.000925154
0.000617245
0.000548033
0.000454706
0.000418341
0.000379999
0.000365696
0.000358309
0.00036775
0.000389379
0.000427763
0.000482346
0.000555618
0.000648764
0.0007648
0.000907393
0.00108165
0.0012929
0.00154572
0.00184257
0.00218335
0.00256559
0.00298523
0.00343749
0.00391771
0.0044218
0.00494648
0.00548935
0.00604875
0.00662397
0.00720833
0.00780009
0.0083998
0.00900661
0.00961931
0.0102371
0.0108585
0.0114816
0.0120894
0.0126036
0.0129356
0.0130821
0.0130407
0.0128368
0.0124923
0.0120363
0.0114933
0.0108983
0.0102753
0.00966161
0.0090772
0.00855436
0.00811718
0.00777261
0.00761409
0.00751071
0.00792133
0.0130162
0.00565588
0.0017078
0.000910059
0.000565447
0.000459451
0.000371319
0.000333488
0.000303218
0.000294133
0.000295503
0.000313395
0.000345737
0.000396058
0.000465281
0.00055622
0.000671189
0.000813736
0.000988158
0.0012
0.0014551
0.00175849
0.00211286
0.00251799
0.00297089
0.00346668
0.00399955
0.00456375
0.00515406
0.00576612
0.00639639
0.007042
0.00770003
0.00836101
0.00902428
0.00968871
0.010352
0.0110116
0.0116654
0.0123112
0.0129473
0.0135509
0.01406
0.0144095
0.0145804
0.0145631
0.0143764
0.0140373
0.0135716
0.0129989
0.0123532
0.0116517
0.0109356
0.0102113
0.00953024
0.00887666
0.00832105
0.00783357
0.0074849
0.00743561
0.0118779
0.00567209
0.0019984
0.00096566
0.000559383
0.000413526
0.000321917
0.00028058
0.000254643
0.000249581
0.00025832
0.000284648
0.000328057
0.000391618
0.000477265
0.000588167
0.000727331
0.000898591
0.00110654
0.001357
0.00165625
0.00200971
0.0024203
0.00288764
0.00340818
0.00397617
0.00458474
0.00522698
0.00589653
0.00658786
0.00729629
0.00801784
0.00874621
0.00947213
0.0101946
0.0109113
0.0116186
0.0123129
0.0129915
0.0136517
0.0142916
0.014883
0.0153822
0.0157353
0.0159145
0.0159072
0.0157281
0.0153915
0.0149221
0.0143371
0.0136705
0.0129357
0.0121758
0.0113888
0.0106323
0.00987126
0.00919521
0.00852864
0.00800491
0.00770659
0.0112303
0.00575862
0.00230758
0.00107798
0.000591297
0.000400193
0.000297748
0.000250573
0.000226117
0.000224011
0.000239147
0.000273897
0.000328679
0.000406362
0.000509536
0.000641607
0.000805902
0.0010063
0.00124748
0.0015355
0.00187712
0.00227825
0.00274208
0.00326809
0.00385219
0.00448774
0.00516678
0.00588126
0.0066236
0.00738716
0.00816615
0.00895571
0.00974509
0.0105276
0.0113009
0.0120613
0.0128045
0.013526
0.0142227
0.0148915
0.0155282
0.0161039
0.0165887
0.0169342
0.0171079
0.0170967
0.0169131
0.0165696
0.0160907
0.0154924
0.0148095
0.0140541
0.0132706
0.0124538
0.0116635
0.0108556
0.0101244
0.00937328
0.00875089
0.00831286
0.0108621
0.00588003
0.00262285
0.00123597
0.000656399
0.000413984
0.000293627
0.000237937
0.000212534
0.000212329
0.000233069
0.000276151
0.000342472
0.000434772
0.000555989
0.000709602
0.000898963
0.00112786
0.001401
0.00172477
0.00210649
0.00255264
0.00306673
0.00364809
0.00429207
0.0049911
0.00573611
0.00651788
0.00732767
0.00815775
0.00900124
0.00985171
0.0106958
0.0115285
0.0123461
0.013144
0.013917
0.01466
0.0153694
0.0160422
0.0166687
0.0172264
0.0176925
0.018021
0.0181783
0.0181524
0.0179541
0.017595
0.0170994
0.0164832
0.0157817
0.0150066
0.0142041
0.0133676
0.0125592
0.0117308
0.0109793
0.0101954
0.00953178
0.00901274
0.010657
0.0060145
0.00293277
0.00142948
0.000751311
0.000452203
0.000306715
0.000239386
0.000210725
0.00021128
0.000236856
0.000288047
0.000365897
0.000472973
0.000612309
0.000787288
0.00100111
0.00125744
0.00156106
0.00191878
0.00233858
0.0028275
0.00338933
0.00402323
0.00472393
0.00548293
0.00629003
0.00713489
0.0080076
0.00889938
0.00980233
0.0107077
0.0116015
0.012479
0.0133355
0.0141654
0.0149629
0.0157223
0.0164398
0.0171108
0.0177223
0.0182593
0.0187018
0.0190057
0.0191383
0.0190893
0.0188686
0.0184873
0.0179695
0.0173312
0.0166081
0.015812
0.0149903
0.0141361
0.0133139
0.0124741
0.0117165
0.0109232
0.0102515
0.00968203
0.0105488
0.00614914
0.00322778
0.00164841
0.000873632
0.000512956
0.000335798
0.00025314
0.000218812
0.000218825
0.000248387
0.000307306
0.000396496
0.000518255
0.000675502
0.000871408
0.00110893
0.00139162
0.00172443
0.00211464
0.00257086
0.0031007
0.00370814
0.00439213
0.00514673
0.00596256
0.00682826
0.00773241
0.00866397
0.00961318
0.0105712
0.0115262
0.0124651
0.0133826
0.014273
0.01513
0.0159472
0.0167183
0.0174394
0.0181017
0.0186948
0.0192077
0.0196219
0.0198948
0.0199964
0.019918
0.0196691
0.0192609
0.0187172
0.0180541
0.0173074
0.0164892
0.0156477
0.0147763
0.0139409
0.0130921
0.0123323
0.0115388
0.0108742
0.0102697
0.0104985
0.00627691
0.00350075
0.00188255
0.00102056
0.000594838
0.000380899
0.000278488
0.000235827
0.000233769
0.000266318
0.000332414
0.000432596
0.000568776
0.000743597
0.000959927
0.00122044
0.00152863
0.00188961
0.00231116
0.00280248
0.00337164
0.0040228
0.00475459
0.00556045
0.00643009
0.00735107
0.00831093
0.00929753
0.0103001
0.0113092
0.0123089
0.0132885
0.0142415
0.0151613
0.0160408
0.016873
0.0176512
0.0183703
0.0190181
0.0195895
0.0200747
0.0204559
0.0206928
0.0207581
0.0206454
0.0203643
0.0199259
0.019354
0.0186647
0.0178938
0.0170535
0.0161925
0.0153044
0.0144563
0.0135993
0.012838
0.0120468
0.011395
0.0107635
0.0104827
0.00639446
0.00374717
0.00212203
0.00118837
0.000696977
0.000442125
0.000315528
0.000261473
0.000255537
0.000289878
0.000362423
0.000473119
0.000623359
0.00081538
0.00105168
0.00133463
0.00166767
0.00205608
0.00250807
0.00303336
0.0036404
0.00433342
0.00511078
0.00596528
0.00688576
0.00785873
0.00887079
0.00990871
0.0109609
0.0120162
0.0130568
0.0140728
0.015057
0.0160017
0.0168991
0.0177418
0.0185227
0.0192326
0.0198623
0.0204085
0.020862
0.0212059
0.0214021
0.0214271
0.0212764
0.0209601
0.0204894
0.019888
0.0191722
0.0183775
0.0175162
0.0166369
0.0157335
0.0148738
0.0140094
0.013247
0.0124585
0.0118213
0.0111677
0.010487
0.0065007
0.00396497
0.00235781
0.00137223
0.000818418
0.000519382
0.000365016
0.000295995
0.000284034
0.000318732
0.000396818
0.000517429
0.00068131
0.000890171
0.00114609
0.00145107
0.00180852
0.00222381
0.00270551
0.00326372
0.00390721
0.00464027
0.00546092
0.00636136
0.00732967
0.00835134
0.00941209
0.0104976
0.0115955
0.0126926
0.01377
0.0148184
0.0158294
0.0167947
0.0177056
0.0185543
0.0193319
0.0200274
0.0206352
0.0211524
0.0215705
0.0218729
0.0220245
0.0220057
0.0218141
0.0214602
0.0209559
0.0203247
0.0195829
0.0187656
0.0178852
0.0169896
0.0160732
0.0152039
0.0143336
0.013571
0.0127856
0.0121633
0.0114916
0.0105025
0.00659579
0.00415413
0.00258226
0.00156635
0.000957495
0.000612624
0.000427794
0.000340085
0.000319565
0.000352903
0.000435419
0.000565224
0.000742277
0.000967635
0.0012429
0.00156965
0.00195122
0.00239298
0.00290373
0.00349387
0.00417238
0.00494357
0.00580517
0.00674878
0.00776183
0.00882882
0.00993471
0.0110641
0.0122039
0.0133383
0.0144486
0.0155252
0.0165589
0.0175403
0.0184603
0.0193102
0.0200778
0.020755
0.0213371
0.0218215
0.0222002
0.0224573
0.0225609
0.0224953
0.0222603
0.0218673
0.0213285
0.0206677
0.0199011
0.0190631
0.0181661
0.0172571
0.0163307
0.0154542
0.0145804
0.0138192
0.0130378
0.0124305
0.0117447
0.0105238
0.00668051
0.00431612
0.00278955
0.00176428
0.00111157
0.000721784
0.000504251
0.000394848
0.000362778
0.000392709
0.000478313
0.000616444
0.000806138
0.00104766
0.00134206
0.00169041
0.00209593
0.00256384
0.00310304
0.0037241
0.00443616
0.00524351
0.00614361
0.00712754
0.00818215
0.00929101
0.0104384
0.011608
0.0127859
0.013953
0.0150922
0.0161928
0.0172448
0.0182381
0.0191628
0.0200072
0.0207602
0.0214153
0.0219679
0.0224155
0.0227511
0.0229592
0.0230117
0.0228967
0.0226163
0.0221828
0.0216094
0.0209196
0.0201297
0.0192735
0.0183629
0.0174438
0.0165109
0.0156306
0.0147563
0.0139986
0.0132228
0.0126309
0.011935
0.0105474
0.00675593
0.00445345
0.00297579
0.0019595
0.00127695
0.000846157
0.000594691
0.000461393
0.000414643
0.000438742
0.000525814
0.000671222
0.000872937
0.00113026
0.00144362
0.00181346
0.00224283
0.00273662
0.00330369
0.00395469
0.00469877
0.00554024
0.00647633
0.0074976
0.0085905
0.0097377
0.010923
0.0121288
0.0133404
0.0145363
0.0157003
0.0168208
0.0178868
0.0188876
0.0198109
0.0206445
0.021379
0.022008
0.0225271
0.0229342
0.0232227
0.0233785
0.023377
0.0232103
0.0228827
0.0224079
0.0217998
0.021082
0.0202709
0.0193992
0.0184785
0.0175532
0.0166177
0.0157373
0.0148659
0.0141144
0.0133464
0.0127707
0.012069
0.0105712
0.00682311
0.00456913
0.00313901
0.00214595
0.00144901
0.000984176
0.000699306
0.0005404
0.000476426
0.000491852
0.000578448
0.000729852
0.000942838
0.00121554
0.00154769
0.00193892
0.00239207
0.00291153
0.00350593
0.00418582
0.00496037
0.00583388
0.00680336
0.00785894
0.00898678
0.0101687
0.011388
0.0126262
0.013867
0.0150877
0.0162723
0.0174084
0.0184842
0.019487
0.020403
0.0212217
0.0219337
0.0225326
0.0230143
0.023377
0.0236148
0.023715
0.0236569
0.0234364
0.0230602
0.0225432
0.0219006
0.0211561
0.0203261
0.019442
0.018515
0.0175874
0.0166538
0.0157774
0.0149128
0.0141706
0.0134131
0.0128549
0.0121519
0.0105941
0.00688305
0.00466633
0.00327889
0.0023185
0.00162247
0.00113327
0.0008177
0.000632426
0.000549324
0.000553143
0.000636944
0.000792779
0.00101611
0.00130366
0.0016544
0.00206691
0.0025438
0.0030887
0.00370989
0.00441768
0.00522112
0.00612452
0.00712475
0.00821151
0.00937087
0.0105838
0.0118333
0.0130999
0.0143654
0.0156067
0.0168078
0.0179552
0.0190356
0.0200341
0.0209386
0.0217383
0.0224238
0.0229887
0.023429
0.0237434
0.0239269
0.0239684
0.0238513
0.023575
0.0231487
0.0225892
0.0219126
0.0211428
0.0202963
0.0194032
0.0184739
0.0175486
0.0166213
0.0157533
0.0148998
0.0141703
0.0134266
0.0128873
0.0121877
0.0106153
0.00693661
0.00474813
0.00339646
0.00247336
0.0017918
0.00128988
0.000948687
0.000737709
0.000634254
0.000623972
0.000702242
0.0008606
0.00109311
0.00139485
0.00176388
0.00219752
0.00269808
0.00326823
0.00391568
0.00465035
0.00548111
0.00641224
0.00744056
0.00855533
0.00974272
0.0109828
0.0122588
0.0135497
0.0148351
0.016093
0.0173062
0.0184598
0.0195385
0.0205285
0.0214174
0.022194
0.0228489
0.0233756
0.0237706
0.0240328
0.0241586
0.0241385
0.0239601
0.0236261
0.0231487
0.0225462
0.0218362
0.0210427
0.0201824
0.0192838
0.0183565
0.0174381
0.0165221
0.0156671
0.0148292
0.014116
0.0133896
0.012871
0.0121796
0.0106345
0.00698454
0.00481732
0.00349365
0.00260817
0.00195176
0.00144957
0.00109015
0.000855888
0.000731762
0.000705806
0.000775488
0.000934077
0.00117431
0.00148936
0.00187629
0.0023308
0.00285494
0.00345012
0.00412331
0.00488389
0.0057404
0.00669713
0.00775084
0.00889042
0.0101023
0.0113658
0.0126641
0.0139748
0.015276
0.0165461
0.017766
0.0189198
0.0199925
0.0209699
0.0218389
0.0225883
0.0232083
0.0236928
0.0240385
0.0242449
0.0243095
0.024225
0.023983
0.0235899
0.0230603
0.0224147
0.021672
0.0208568
0.0199854
0.019085
0.0181641
0.0172573
0.0163577
0.0155205
0.0147028
0.0140098
0.0133045
0.0128087
0.0121303
0.0106516
0.00702746
0.00487634
0.00357301
0.00272207
0.00209782
0.00160739
0.00123897
0.000985817
0.000841937
0.000799497
0.000858438
0.00101414
0.00126029
0.00158751
0.00199177
0.00246679
0.00301433
0.00363429
0.00433274
0.00511827
0.00599902
0.0069792
0.00805567
0.00921683
0.0104497
0.0117327
0.0130494
0.0143749
0.0156879
0.0169641
0.0181853
0.019335
0.0203974
0.0213578
0.0222027
0.0229205
0.0235016
0.0239399
0.0242323
0.0243791
0.0243793
0.0242279
0.0239203
0.0234664
0.0228839
0.0221951
0.0214208
0.0205857
0.0197063
0.0188079
0.0178978
0.0170076
0.0161294
0.0153149
0.0145223
0.0138534
0.0131732
0.0127026
0.0120422
0.0106666
0.00706587
0.0049272
0.00363729
0.00281545
0.00222649
0.00175821
0.00139116
0.00112543
0.000964225
0.000905388
0.000952333
0.00110256
0.00135173
0.00168967
0.00211051
0.00260548
0.00317615
0.00382059
0.00454378
0.00535337
0.00625689
0.00725846
0.00835506
0.00953458
0.0107848
0.0120835
0.0134145
0.0147499
0.0160679
0.0173457
0.0185639
0.019705
0.0207527
0.0216918
0.0225083
0.0231903
0.0237283
0.0241162
0.0243515
0.0244352
0.0243678
0.0241469
0.0237718
0.0232561
0.02262
0.0218883
0.0210834
0.0202306
0.0193462
0.0184537
0.0175591
0.0166904
0.0158389
0.0150521
0.0142895
0.0136488
0.0129977
0.0125547
0.0119173
0.0106796
0.00710024
0.00497155
0.00368924
0.00288978
0.00233563
0.00189724
0.00154202
0.00127167
0.00109726
0.00102328
0.0010576
0.00120078
0.00145042
0.00179628
0.00223264
0.00274681
0.00334022
0.00400875
0.00475616
0.00558894
0.00651384
0.00753479
0.008649
0.00984367
0.0111078
0.0124181
0.0137574
0.0150971
0.0164159
0.0176907
0.0189014
0.0200295
0.0210581
0.0219714
0.0227551
0.0233971
0.0238877
0.0242212
0.0243956
0.0244128
0.0242748
0.0239821
0.0235379
0.0229592
0.0222692
0.0214951
0.0206611
0.0197928
0.0189066
0.0180241
0.0171495
0.0163073
0.0154876
0.0147337
0.0140058
0.0133975
0.0127797
0.0123669
0.0117575
0.0106909
0.00713094
0.00501068
0.00373143
0.00294722
0.00242442
0.0020204
0.00168655
0.0014206
0.00123872
0.00115222
0.00117419
0.00130919
0.0015575
0.00190952
0.00235835
0.00289069
0.00350623
0.00419835
0.00496944
0.00582458
0.00676956
0.00780797
0.00893735
0.010144
0.011417
0.0127341
0.0140768
0.0154164
0.0167316
0.0179989
0.0191974
0.0203081
0.0213131
0.0221962
0.0229427
0.0235403
0.0239795
0.0242546
0.0243643
0.0243115
0.0241002
0.0237336
0.023219
0.0225765
0.0218326
0.0210169
0.0201553
0.0192742
0.0183896
0.0175209
0.0166711
0.0158603
0.0150776
0.0143614
0.0136732
0.0131013
0.0125209
0.0121411
0.0115647
0.0107005
0.00715832
0.00504556
0.0037661
0.00299035
0.00249329
0.00212474
0.00181979
0.00156752
0.00138534
0.00129042
0.00130142
0.00142771
0.00167309
0.00202945
0.00248913
0.00303827
0.00367402
0.00438883
0.00518298
0.0060597
0.00702354
0.00807736
0.00921818
0.0104334
0.0117114
0.0130312
0.0143724
0.0157075
0.0170144
0.0182697
0.0194515
0.0205401
0.021517
0.0223655
0.0230704
0.0236193
0.0240028
0.0242156
0.0242571
0.0241312
0.0238439
0.0234016
0.0228154
0.0221089
0.0213115
0.0204553
0.0195682
0.0186769
0.0177973
0.0169467
0.0161261
0.0153517
0.014611
0.0139374
0.0132937
0.0127623
0.0122233
0.0118793
0.0113406
0.0107087
0.00718269
0.00507693
0.00379515
0.0030219
0.00254374
0.00220859
0.00193739
0.00170735
0.00153292
0.00143509
0.00143776
0.00155571
0.00179695
0.00215583
0.0026246
0.00318892
0.00384358
0.00457989
0.00539594
0.00629293
0.00727395
0.00834097
0.00949053
0.0107109
0.0119903
0.0133085
0.0146436
0.0159697
0.017264
0.0185026
0.0196631
0.020725
0.0216692
0.0224785
0.0231374
0.0236334
0.0239571
0.0241038
0.0240735
0.0238716
0.0235062
0.0229867
0.0223282
0.0215576
0.0207076
0.0198125
0.0189023
0.0180038
0.0171328
0.0163043
0.0155175
0.0147841
0.0140904
0.0134641
0.0128694
0.0123824
0.0118888
0.0115834
0.0110872
0.0107156
0.00720436
0.00510536
0.00382007
0.0030445
0.00257801
0.00227161
0.00203589
0.00183503
0.00167657
0.00158244
0.00158076
0.00169176
0.00192828
0.00228807
0.00276406
0.00334173
0.00401375
0.00477015
0.00560679
0.00652269
0.00751925
0.0085974
0.00975314
0.0109755
0.0122526
0.0135648
0.0148897
0.0162024
0.0174794
0.0186967
0.0198313
0.0208618
0.0217688
0.0225343
0.0231429
0.0235816
0.0238416
0.0239184
0.0238132
0.0235326
0.023087
0.0224893
0.0217583
0.0209243
0.0200231
0.0190913
0.0181606
0.0172584
0.0163997
0.0155975
0.0148488
0.0141611
0.0135188
0.0129443
0.0124028
0.0119641
0.0115196
0.0112555
0.0108063
0.0107215
0.00722357
0.00513124
0.00384205
0.00306053
0.00259881
0.00231472
0.00211312
0.00194596
0.00181102
0.00172786
0.00172696
0.00183356
0.00206559
0.00242504
0.0029064
0.00349548
0.00418308
0.00495793
0.00581367
0.00674703
0.00775754
0.00884485
0.0100044
0.0112257
0.0124972
0.013799
0.0151095
0.0164044
0.0176597
0.0188511
0.019955
0.0209496
0.0218146
0.0225319
0.0230857
0.0234631
0.0236553
0.0236588
0.0234757
0.0231141
0.0225869
0.0219104
0.0211072
0.0202111
0.0192606
0.0182949
0.0173472
0.0164448
0.0156026
0.0148307
0.0141243
0.0134864
0.0128998
0.0123812
0.011897
0.01151
0.011118
0.0108982
0.0105002
0.0107263
0.0072406
0.00515487
0.00386193
0.00307206
0.002609
0.00233987
0.00216828
0.00203647
0.00193105
0.00186608
0.00187198
0.00197782
0.00220651
0.00256492
0.00305
0.00364846
0.00434969
0.00514115
0.00601433
0.00696362
0.00798648
0.00908111
0.0102422
0.0114596
0.012722
0.0140096
0.0153017
0.0165744
0.0178035
0.0189643
0.0200329
0.0209868
0.0218054
0.02247
0.0229646
0.0232765
0.0233974
0.0233243
0.0230605
0.0226161
0.0220064
0.021251
0.0203767
0.0194205
0.0184237
0.0174276
0.0164667
0.0155684
0.0147466
0.0140091
0.0133491
0.0127649
0.0122378
0.0117787
0.0113552
0.0110232
0.0106867
0.010514
0.0101709
0.0107304
0.00725568
0.00517649
0.00388031
0.00308074
0.00261139
0.0023497
0.00220198
0.00210417
0.00203199
0.00199161
0.00201065
0.0021203
0.00234778
0.00270514
0.00319259
0.00379845
0.00451123
0.00531728
0.00620606
0.00716961
0.00820322
0.00930342
0.010464
0.0116749
0.0129247
0.0141945
0.0154642
0.0167105
0.017909
0.0190347
0.0200633
0.0209719
0.0217394
0.0223469
0.0227782
0.0230207
0.0230667
0.022914
0.0225674
0.0220388
0.0213461
0.0205128
0.0195693
0.0185558
0.0175166
0.0164944
0.015525
0.0146353
0.0138383
0.0131392
0.0125291
0.012002
0.0115376
0.0111411
0.0107815
0.0105069
0.0102286
0.0101059
0.00982107
0.0107337
0.00726901
0.00519629
0.00389758
0.00308785
0.00260851
0.00234729
0.00221601
0.00214812
0.00211017
0.00209914
0.00213738
0.00225593
0.00248522
0.00284225
0.00333115
0.00394259
0.0046648
0.00548327
0.00638562
0.00736165
0.00840437
0.00950846
0.0106665
0.0118686
0.0131026
0.0143511
0.0155948
0.0168105
0.017974
0.0190601
0.0200442
0.0209029
0.0216149
0.0221609
0.0225247
0.0226942
0.0226621
0.0224273
0.0219962
0.0213825
0.0206074
0.0196978
0.018688
0.0176213
0.0165443
0.0155015
0.0145289
0.0136529
0.0128852
0.0122283
0.0116714
0.0112043
0.0108051
0.0104737
0.0101801
0.00996524
0.0097475
0.00967691
0.00945321
0.0107365
0.00728082
0.00521442
0.003914
0.00309433
0.00260256
0.00233579
0.00221308
0.00216888
0.00216326
0.00218411
0.00224652
0.00237911
0.00261381
0.00297197
0.0034619
0.0040773
0.00480683
0.00563546
0.00654922
0.00753579
0.00858591
0.00969226
0.010846
0.0120367
0.0132522
0.0144763
0.0156903
0.0168716
0.0179958
0.0190379
0.0199729
0.0207774
0.0214294
0.0219098
0.0222025
0.0222955
0.0221824
0.0218635
0.0213466
0.0206481
0.0197919
0.0188087
0.0177366
0.0166219
0.0155133
0.0144562
0.0134868
0.01263
0.0118962
0.0112853
0.0107843
0.0103792
0.010047
0.00978232
0.00955622
0.00940246
0.00924744
0.0092307
0.00907027
0.0107388
0.00729127
0.00523102
0.0039297
0.0031008
0.00259527
0.00231822
0.00219653
0.00216838
0.00219056
0.00224311
0.00233293
0.00248405
0.00272798
0.00308926
0.0035803
0.00419833
0.00493314
0.0057696
0.00669247
0.00768751
0.00874321
0.00985018
0.0109978
0.012175
0.0133695
0.0145664
0.0157473
0.0168903
0.0179712
0.018965
0.0198468
0.0205926
0.0211806
0.0215915
0.0218093
0.0218228
0.0216265
0.0212219
0.020619
0.0198365
0.0189017
0.0178489
0.01672
0.015564
0.0144312
0.0133675
0.0124082
0.0115769
0.0108819
0.0103203
0.00987719
0.00953552
0.0092709
0.00907363
0.00891558
0.00882355
0.00873275
0.00877115
0.00867542
0.0107407
0.00730054
0.00524622
0.00394474
0.00310763
0.00258798
0.00229724
0.00216989
0.00214962
0.00219296
0.00227431
0.00239246
0.00256531
0.00282195
0.00318858
0.00368121
0.0043008
0.00503892
0.00588083
0.00681037
0.00781164
0.00887101
0.00997692
0.0111168
0.0122784
0.0134497
0.0146167
0.0157615
0.0168627
0.0178965
0.018838
0.0196623
0.0203455
0.0208655
0.0212032
0.0213431
0.0212746
0.0209932
0.0205023
0.0198139
0.0189496
0.0179399
0.0168231
0.0156444
0.0144553
0.0133072
0.0122457
0.0113048
0.0105056
0.00985413
0.00934477
0.00896105
0.00868302
0.00848564
0.00835526
0.00826469
0.00823401
0.00820833
0.00830258
0.00827281
0.0107422
0.00730877
0.00526013
0.00395915
0.003115
0.00258161
0.00227507
0.00213663
0.00211631
0.00217284
0.0022776
0.00242242
0.00261831
0.00289021
0.00326426
0.0037591
0.00437936
0.00511887
0.00596379
0.00689742
0.00790252
0.00896346
0.0100666
0.011197
0.0123412
0.0134875
0.0146222
0.015728
0.0167842
0.0177673
0.0186528
0.0194158
0.0200325
0.020481
0.0207424
0.0208017
0.0206491
0.0202818
0.0197048
0.0189327
0.0179899
0.0169107
0.0157368
0.0145172
0.013305
0.0121523
0.0111031
0.0101897
0.00942966
0.00882653
0.00837193
0.00804803
0.00783279
0.00770094
0.00763569
0.00761079
0.00764099
0.00767962
0.00782973
0.00786662
0.0107434
0.0073161
0.00527287
0.00397293
0.00312297
0.00257674
0.00225346
0.00209991
0.00207246
0.00213374
0.00225464
0.00242191
0.00263986
0.00292805
0.00331089
0.00380842
0.00442845
0.0051674
0.00601274
0.00694772
0.00795399
0.00901421
0.0101126
0.0112319
0.012357
0.0134766
0.014577
0.0156413
0.0166495
0.0175788
0.0184049
0.0191032
0.0196501
0.0200239
0.0202063
0.0201829
0.0199452
0.0194918
0.01883
0.0179771
0.016961
0.0158192
0.0145976
0.0133477
0.0121245
0.0109792
0.00995411
0.00907785
0.00836448
0.00781426
0.00741625
0.00715161
0.00699703
0.00692759
0.00692432
0.00696185
0.00705138
0.0071526
0.00735778
0.00746107
0.0107444
0.00732266
0.00528454
0.00398608
0.00313148
0.00257367
0.00223363
0.00206239
0.00202203
0.00207995
0.00220863
0.00239196
0.00262852
0.00293211
0.00332392
0.00382405
0.00444272
0.00517895
0.00602191
0.00695517
0.00795971
0.00901661
0.0101081
0.0112144
0.0123191
0.0134104
0.0144746
0.0154954
0.0164531
0.0173258
0.0180894
0.01872
0.0191942
0.0194909
0.0195922
0.0194848
0.0191617
0.0186233
0.0178794
0.0169504
0.0158676
0.0146725
0.0134143
0.0121473
0.0109269
0.00980309
0.00881469
0.00798611
0.00732687
0.00683373
0.00649334
0.00628626
0.00618886
0.00617724
0.00623129
0.00632654
0.00647273
0.00663376
0.00689231
0.00706076
0.0107452
0.00732853
0.00529525
0.0039986
0.00314045
0.00257248
0.00221641
0.00202618
0.00196864
0.00201606
0.00214393
0.00233539
0.00258494
0.00290082
0.00330018
0.00380182
0.00441743
0.00514839
0.00598576
0.00691388
0.00791332
0.00896394
0.0100462
0.0111374
0.0122203
0.0132818
0.0143083
0.0152837
0.0161889
0.0170025
0.0177013
0.0182617
0.018661
0.0188786
0.0188976
0.018706
0.0182983
0.0176773
0.0168556
0.015857
0.0147165
0.0134794
0.0121983
0.0109294
0.00972783
0.00864083
0.00770273
0.00693257
0.00633471
0.00590216
0.00561946
0.00546708
0.00542203
0.00546214
0.00556738
0.00571407
0.00591318
0.00613006
0.00643931
0.00667059
0.0107458
0.00733382
0.0053051
0.00401048
0.00314975
0.0025731
0.00220221
0.00199279
0.00191534
0.00194654
0.00206559
0.00225659
0.00251175
0.00283473
0.00323834
0.00373909
0.00434907
0.00507154
0.00589955
0.00681849
0.00780894
0.00884978
0.00991982
0.0109939
0.0120533
0.0130837
0.0140711
0.0149996
0.0158507
0.0166035
0.0172356
0.0177239
0.0180467
0.0181843
0.0181208
0.0178457
0.0173557
0.0166561
0.0157627
0.0147031
0.0135162
0.0122511
0.0109633
0.00971005
0.00854492
0.00751117
0.00663729
0.005936
0.00540604
0.00503665
0.00481067
0.00470899
0.00471023
0.00479472
0.00494366
0.0051352
0.00538134
0.00564883
0.00600505
0.00629573
0.0107463
0.00733861
0.00531417
0.00402173
0.00315925
0.00257537
0.00219117
0.00196322
0.00186453
0.00187542
0.00197883
0.00216097
0.0024134
0.00273658
0.0031393
0.00363519
0.00423582
0.0049457
0.00575979
0.00666477
0.00764158
0.00866845
0.00972278
0.0107772
0.0118111
0.012809
0.0137562
0.0146367
0.0154324
0.0161231
0.0166871
0.0171025
0.0173481
0.0174056
0.0172605
0.0169042
0.0163356
0.0155633
0.0146066
0.0134971
0.0122778
0.0110014
0.0097255
0.00850743
0.00739768
0.00643398
0.00563777
0.00501475
0.00455796
0.00425304
0.0040817
0.00402579
0.00406637
0.00418693
0.00437101
0.00460018
0.00488596
0.0051976
0.00559605
0.00594155
0.0107467
0.00734296
0.00532255
0.00403239
0.00316884
0.00257906
0.00218322
0.00193799
0.00181793
0.00180604
0.00188861
0.00205442
0.00229571
0.00261113
0.00300626
0.00349177
0.00407805
0.00477021
0.00556486
0.00645018
0.00740778
0.0084156
0.00944991
0.0104815
0.0114876
0.0124514
0.0133572
0.0141887
0.0149283
0.0155563
0.0160518
0.0163939
0.0165628
0.0165414
0.0163169
0.0158832
0.0152419
0.0144049
0.0133957
0.0122501
0.0110152
0.00974684
0.00850382
0.00734185
0.00630674
0.00542916
0.00472254
0.00418528
0.003805
0.00356439
0.00344461
0.00342895
0.00350153
0.00364944
0.00385953
0.0041182
0.00443554
0.00478387
0.00521882
0.00561348
0.010747
0.00734694
0.00533031
0.00404246
0.0031784
0.00258393
0.00217812
0.00191725
0.0017766
0.00174096
0.00179925
0.00194278
0.00216524
0.00246471
0.00284459
0.00331296
0.00387864
0.00454687
0.00531557
0.00617449
0.00710626
0.00808889
0.00909784
0.0101026
0.0110781
0.0120058
0.012869
0.0136509
0.0143339
0.014899
0.0153264
0.0155961
0.0156896
0.0155918
0.0152919
0.0147864
0.0140803
0.0131893
0.0121413
0.0109763
0.00974558
0.008507
0.00731932
0.00623477
0.00529262
0.00451512
0.00390723
0.00346038
0.00315762
0.00297954
0.00290745
0.00292642
0.00302389
0.0031908
0.00341787
0.00369753
0.00403797
0.00441482
0.00487974
0.0053169
0.0107473
0.0073506
0.00533753
0.00405198
0.00318785
0.00258974
0.00217557
0.0019009
0.0017411
0.00168194
0.00171419
0.00183131
0.00202865
0.0023046
0.00266141
0.00310514
0.00364309
0.00428024
0.00501553
0.00584031
0.00673851
0.00768862
0.00866575
0.00963863
0.0105798
0.011469
0.012288
0.0130197
0.0136461
0.014149
0.0145092
0.0147083
0.0147294
0.0145593
0.0141898
0.0136204
0.0128599
0.0119282
0.0108579
0.00969342
0.00848906
0.00730388
0.00619448
0.00520754
0.00437403
0.00370693
0.00320299
0.00284769
0.00262087
0.00250206
0.00247336
0.00252176
0.00263795
0.00281661
0.00305246
0.00334505
0.00370007
0.00409697
0.00458476
0.00505697
0.0107475
0.007354
0.00534427
0.00406099
0.00319713
0.00259626
0.0021752
0.0018886
0.0017115
0.00163
0.00163595
0.00172436
0.00189212
0.00213835
0.00246489
0.00287651
0.00337924
0.00397763
0.00467143
0.0054535
0.00630938
0.0072185
0.00815605
0.00909079
0.00999289
0.0108403
0.0116135
0.0122941
0.0128643
0.0133059
0.0136011
0.0137326
0.0136856
0.013449
0.0130177
0.0123948
0.011593
0.0106371
0.0095641
0.00842251
0.00726875
0.00616107
0.00515167
0.00427945
0.00356579
0.00301444
0.00261503
0.0023488
0.00219393
0.00213001
0.00214042
0.00221397
0.00234418
0.00252912
0.00276832
0.00306566
0.0034272
0.00383583
0.00433915
0.00483837
0.0107476
0.00735716
0.00535059
0.00406952
0.00320618
0.00260329
0.00217665
0.00187996
0.00168761
0.00158556