/*--------------------------------*- C++ -*----------------------------------*\
| =========                 |                                                 |
| \\      /  F ield         | OpenFOAM: The Open Source CFD Toolbox           |
|  \\    /   O peration     | Version:  2.4.0                                 |
|   \\  /    A nd           | Web:      www.OpenFOAM.org                      |
|    \\/     M anipulation  |                                                 |
\*---------------------------------------------------------------------------*/
FoamFile
{
    version     2.0;
    format      ascii;
    class       volScalarField;
    location    "2.99";
    object      nut;
}
// * * * * * * * * * * * * * * * * * * * * * * * * * * * * * * * * * * * * * //

dimensions      [0 2 -1 0 0 0 0];

internalField   nonuniform List<scalar> 
6000
(
1.24052e-05
1.01589e-05
5.69436e-06
3.04657e-06
1.77154e-06
2.9461e-06
2.44116e-06
3.22411e-06
3.70398e-06
5.02893e-06
6.60145e-06
8.40131e-06
1.01896e-05
1.20532e-05
1.41667e-05
1.64068e-05
1.84894e-05
1.80056e-05
1.63793e-05
1.37094e-05
1.12759e-05
1.3169e-05
1.61277e-05
2.00506e-05
2.33216e-05
2.56619e-05
2.72012e-05
2.82112e-05
2.88467e-05
2.92141e-05
2.93672e-05
2.93386e-05
2.9154e-05
2.88289e-05
2.83676e-05
2.77596e-05
2.69779e-05
2.59771e-05
2.46345e-05
2.42937e-05
2.39583e-05
2.3384e-05
2.26019e-05
2.16525e-05
2.05553e-05
1.92952e-05
1.78588e-05
1.62719e-05
1.46524e-05
1.31481e-05
1.19284e-05
1.11503e-05
1.06723e-05
1.04249e-05
1.03165e-05
1.03272e-05
1.03604e-05
1.05435e-05
1.04887e-05
1.09709e-05
2.33581e-05
3.47985e-05
1.71703e-05
8.0909e-06
5.2283e-06
7.68422e-06
1.56439e-05
1.745e-05
2.31311e-05
2.8337e-05
3.59783e-05
4.75438e-05
6.42195e-05
8.73129e-05
0.000114084
0.000144139
0.000151468
0.00012094
7.68119e-05
5.36721e-05
5.32236e-05
7.08445e-05
8.51753e-05
8.60996e-05
9.94246e-05
0.000118508
0.000134889
0.000148717
0.000161078
0.000171574
0.000180649
0.000189627
0.000198617
0.000207656
0.000216644
0.000225227
0.000232728
0.000238176
0.000239953
0.00022525
0.000206517
0.000184999
0.000161781
0.000138153
0.000115225
9.21087e-05
7.24538e-05
5.82304e-05
4.83656e-05
4.06982e-05
3.37594e-05
2.7385e-05
2.18821e-05
1.74645e-05
1.4077e-05
1.16193e-05
9.94781e-06
8.65178e-06
7.95609e-06
7.12632e-06
2.88999e-05
5.03285e-05
2.43864e-05
1.0311e-05
1.16574e-05
1.77698e-05
2.98655e-05
3.42181e-05
4.30021e-05
5.37842e-05
6.98858e-05
9.39593e-05
0.000126392
0.000168054
0.000215997
0.000266309
0.000284257
0.000229594
0.000154407
9.97129e-05
9.11572e-05
0.000114503
0.00013127
0.00015349
0.000217417
0.000276461
0.000317348
0.000347462
0.00037106
0.000389184
0.00040409
0.000417465
0.000429701
0.000441024
0.000451371
0.000460166
0.00046623
0.000467914
0.000462679
0.000439584
0.000409925
0.000374462
0.000334623
0.000292344
0.000249532
0.00020465
0.000160298
0.000121596
9.15051e-05
6.97319e-05
5.39296e-05
4.2099e-05
3.30383e-05
2.60475e-05
2.04567e-05
1.60646e-05
1.26891e-05
1.00964e-05
8.19166e-06
6.58799e-06
3.2195e-05
5.72264e-05
2.77526e-05
1.14551e-05
1.81463e-05
2.78045e-05
4.1349e-05
4.82704e-05
6.00035e-05
7.65272e-05
0.000100795
0.000135361
0.000179358
0.000233221
0.000294489
0.000356461
0.000379037
0.000307422
0.00021625
0.000143672
0.000125138
0.000150991
0.000174574
0.000240268
0.000357848
0.000446332
0.000503812
0.000543992
0.000573309
0.000594371
0.000610342
0.000623025
0.000633189
0.000641368
0.000647683
0.00065155
0.000651597
0.00064592
0.00063194
0.00060371
0.000567873
0.000524803
0.000475896
0.000423151
0.000368579
0.000311386
0.000252803
0.000197422
0.000149738
0.000112208
8.42732e-05
6.39101e-05
4.90048e-05
3.80122e-05
2.95734e-05
2.31339e-05
1.81098e-05
1.45141e-05
1.14889e-05
1.0185e-05
3.39566e-05
5.94524e-05
3.41687e-05
1.24178e-05
2.32557e-05
3.59721e-05
5.06273e-05
6.00589e-05
7.4782e-05
9.65911e-05
0.000127972
0.000170772
0.000222954
0.000284583
0.000353613
0.000421572
0.000444152
0.00035986
0.000260675
0.000180078
0.000153543
0.00018445
0.000220684
0.000338387
0.0004975
0.000605313
0.000673498
0.000719409
0.000750977
0.000772035
0.000786162
0.000795333
0.000800701
0.000803127
0.000802982
0.0007998
0.000792212
0.000778304
0.000756156
0.000723807
0.000683775
0.000636237
0.000582417
0.000524124
0.000463197
0.000399437
0.000333394
0.000268718
0.000209777
0.000160177
0.00012115
9.18061e-05
7.01903e-05
5.44462e-05
4.27347e-05
3.40811e-05
2.7503e-05
2.32377e-05
1.95649e-05
1.97544e-05
3.49042e-05
5.90487e-05
4.15229e-05
1.27619e-05
2.6073e-05
4.22458e-05
5.82711e-05
7.02566e-05
8.78919e-05
0.000114394
0.000151793
0.000200971
0.000258831
0.000325098
0.000398011
0.000467953
0.000487933
0.000393718
0.000290804
0.000208344
0.00017689
0.000215953
0.000270762
0.000439656
0.000628138
0.000748771
0.000823949
0.000872934
0.000904712
0.000923983
0.000934563
0.000938654
0.000937753
0.000933044
0.00092518
0.00091389
0.000897931
0.000875539
0.000846095
0.000809998
0.000766846
0.000716693
0.000660497
0.000599726
0.00053589
0.000469038
0.000399334
0.0003297
0.00026406
0.000206324
0.000158816
0.000121794
9.39372e-05
7.34991e-05
5.84894e-05
4.76414e-05
3.97011e-05
3.49356e-05
3.13188e-05
3.29238e-05
3.5415e-05
5.72054e-05
4.70458e-05
1.50959e-05
2.57524e-05
4.67861e-05
6.46049e-05
7.92846e-05
9.97017e-05
0.000130317
0.00017276
0.000226857
0.000288531
0.000357171
0.000431187
0.000500171
0.00051632
0.000414185
0.000309756
0.000229293
0.000196265
0.000246008
0.0003243
0.000538935
0.000747587
0.00087704
0.000956945
0.00100745
0.00103827
0.0010547
0.00106075
0.00105887
0.00105084
0.00103817
0.00102181
0.00100173
0.000976923
0.00094587
0.000909943
0.00087023
0.000824668
0.000773175
0.000716363
0.000655238
0.000590845
0.000523184
0.00045211
0.000380017
0.000310406
0.000247233
0.000193473
0.000150295
0.000117074
9.2357e-05
7.42089e-05
6.12334e-05
5.20393e-05
4.66847e-05
4.34419e-05
4.55311e-05
3.56743e-05
5.46526e-05
5.07399e-05
2.19153e-05
2.316e-05
4.95998e-05
6.97526e-05
8.73722e-05
0.000110456
0.000144667
0.000191328
0.000249202
0.000313294
0.00038264
0.00045573
0.000521653
0.000533491
0.000425216
0.000319993
0.000244045
0.000212788
0.000274886
0.000380201
0.000633489
0.000855911
0.000991774
0.00107508
0.00112625
0.00115547
0.00116847
0.00116943
0.00116104
0.00114535
0.00112414
0.0010987
0.00106931
0.00103521
0.000995336
0.000953527
0.000910236
0.000862772
0.000810893
0.000754798
0.000694922
0.000631722
0.000564906
0.000494015
0.000421029
0.000349114
0.000282212
0.000223752
0.000175624
0.000137859
0.000109351
8.83106e-05
7.32969e-05
6.28721e-05
5.67911e-05
5.38273e-05
5.57874e-05
3.57842e-05
5.18389e-05
5.28669e-05
3.01793e-05
2.09562e-05
5.0528e-05
7.3684e-05
9.46158e-05
0.000120317
0.000157688
0.000207879
0.000268638
0.000334098
0.000402917
0.000473618
0.000535084
0.000542541
0.000430008
0.000323468
0.000253731
0.000227523
0.00030269
0.00043729
0.000722055
0.000953968
0.00109483
0.00118081
0.00123222
0.00125953
0.00126879
0.00126434
0.0012491
0.00122535
0.00119518
0.00116017
0.00112097
0.00107717
0.00102837
0.000981012
0.000934138
0.000885129
0.000833588
0.000779258
0.000721914
0.000661304
0.000596645
0.00052712
0.00045436
0.000381265
0.000311777
0.000249699
0.000197536
0.00015592
0.00012411
0.000100483
8.35863e-05
7.19702e-05
6.50994e-05
6.22182e-05
6.3805e-05
3.58065e-05
4.90346e-05
5.36982e-05
3.81218e-05
2.09919e-05
4.93281e-05
7.62787e-05
0.00010101
0.000129376
0.000169567
0.000222725
0.000285674
0.000351716
0.000419118
0.000486421
0.000542651
0.000545876
0.000431263
0.000321782
0.000259429
0.000241587
0.000329376
0.000494508
0.000804208
0.00104284
0.00118791
0.00127622
0.00132771
0.00135299
0.00135834
0.00134831
0.00132599
0.0012939
0.00125438
0.00120939
0.00115993
0.00110599
0.00104829
0.000995472
0.000944958
0.000894623
0.000843954
0.000792217
0.000738454
0.000681601
0.000620213
0.000553053
0.000481419
0.000408005
0.000336785
0.000271905
0.000216432
0.000171559
0.000136905
0.00011102
9.2438e-05
7.97071e-05
7.20471e-05
6.90605e-05
7.01854e-05
3.57787e-05
4.63939e-05
5.35063e-05
4.47363e-05
2.42517e-05
4.60042e-05
7.73653e-05
0.000106464
0.000137671
0.000180443
0.000236117
0.000300715
0.000366761
0.000432149
0.000495438
0.000546191
0.000545444
0.000431264
0.000316308
0.000262152
0.000255665
0.000355309
0.000550975
0.000879981
0.00112359
0.00127246
0.00136299
0.00141453
0.00143777
0.00143916
0.00142344
0.00139388
0.00135322
0.00130404
0.00124868
0.00118854
0.00112405
0.00105761
0.000999257
0.000944985
0.000893422
0.000843986
0.000795473
0.000746148
0.000694047
0.000636911
0.000573009
0.000503301
0.000430304
0.000358055
0.000291043
0.000232866
0.00018525
0.000148167
0.000120332
0.00010027
8.65202e-05
7.81033e-05
7.48672e-05
7.54878e-05
3.57238e-05
4.39959e-05
5.25498e-05
4.98027e-05
3.04475e-05
4.15948e-05
7.67982e-05
0.000110804
0.000145177
0.000190413
0.000248253
0.000314086
0.000379727
0.000442724
0.000501765
0.000547272
0.000542904
0.000431775
0.000308296
0.000262838
0.000269934
0.000380736
0.000606002
0.000949651
0.00119719
0.00134969
0.00144242
0.00149409
0.00151534
0.00151275
0.00149127
0.00145437
0.00140493
0.00134583
0.00127977
0.00120859
0.00113317
0.00105838
0.000994225
0.000936029
0.000883226
0.000835222
0.000790379
0.000746172
0.000699668
0.00064766
0.000587846
0.000520809
0.000448904
0.000376254
0.000307694
0.000247339
0.000197426
0.000158276
0.000128761
0.000107406
9.27358e-05
8.36058e-05
8.00244e-05
8.01124e-05
3.56552e-05
4.18725e-05
5.10591e-05
5.33278e-05
3.73507e-05
3.77146e-05
7.45638e-05
0.000113793
0.000151809
0.000199532
0.000259284
0.000326046
0.00039101
0.00045143
0.00050634
0.000547219
0.000540055
0.000433457
0.000298992
0.000262356
0.000284388
0.000405799
0.000659076
0.00101361
0.00126448
0.00142054
0.00151555
0.00156743
0.00158676
0.00158021
0.00155295
0.00150861
0.00145025
0.001381
0.00130396
0.00122144
0.00113477
0.00105229
0.000981902
0.000919585
0.00086544
0.000818921
0.000778014
0.00073943
0.000699223
0.000653124
0.000598171
0.000534518
0.000464347
0.00039188
0.000322302
0.000260235
0.000208416
0.000167506
0.000136543
0.000114055
9.8557e-05
8.87593e-05
8.47779e-05
8.43128e-05
3.55813e-05
4.0026e-05
4.92295e-05
5.54423e-05
4.38217e-05
3.57383e-05
7.0894e-05
0.000115158
0.000157413
0.000207812
0.00026932
0.000336797
0.000400934
0.000458783
0.000509945
0.000547108
0.000538255
0.000436639
0.000289792
0.000261491
0.000298951
0.000430577
0.000709839
0.00107228
0.00132615
0.00148579
0.00158315
0.00163534
0.00165283
0.00164235
0.0016093
0.00155745
0.00149005
0.00141049
0.00132226
0.00122815
0.00113027
0.0010405
0.000963576
0.000896942
0.000841288
0.000796173
0.000759295
0.000726661
0.000693305
0.000653794
0.000604423
0.000544835
0.000477019
0.00040529
0.000335186
0.000271828
0.000218446
0.000176042
0.000143825
0.00012034
0.000104095
9.36731e-05
8.92663e-05
8.82354e-05
3.55072e-05
3.84419e-05
4.72185e-05
5.63359e-05
4.94254e-05
3.8047e-05
6.64557e-05
0.000114659
0.000161765
0.000215221
0.000278432
0.000346499
0.000409759
0.000465203
0.000513208
0.000547738
0.000538409
0.000441379
0.000282395
0.000260923
0.000313496
0.000455108
0.00075806
0.0011261
0.00138281
0.00154604
0.00164582
0.00169841
0.00171413
0.00169976
0.00166091
0.00160152
0.00152501
0.00143499
0.00133541
0.00122957
0.00112092
0.001024
0.000940368
0.000869252
0.000811886
0.000767983
0.000735058
0.000708519
0.000682406
0.000650055
0.000606924
0.000552054
0.00048719
0.000416733
0.000346567
0.000282305
0.000227665
0.000183997
0.000150692
0.000126325
0.000109404
9.83968e-05
9.35578e-05
9.19559e-05
3.5436e-05
3.70968e-05
4.51482e-05
5.62197e-05
5.39663e-05
4.31394e-05
6.22223e-05
0.000112192
0.000164566
0.000221677
0.000286656
0.000355266
0.00041769
0.000471019
0.000516579
0.000549615
0.000540998
0.000447667
0.000278782
0.000261173
0.000327829
0.000479404
0.000803609
0.00117547
0.00143494
0.00160177
0.00170402
0.00175709
0.00177109
0.00175287
0.00170823
0.00164128
0.00155559
0.00145505
0.00134403
0.00122637
0.00110779
0.00100367
0.000913269
0.000837569
0.000778287
0.000735317
0.00070611
0.000685622
0.000666977
0.000642235
0.000605928
0.000556388
0.000495053
0.000426382
0.000356593
0.000291786
0.000236165
0.000191438
0.000157188
0.000132038
0.000114503
0.000102946
9.76785e-05
9.55069e-05
3.53692e-05
3.59637e-05
4.31089e-05
5.53056e-05
5.73586e-05
4.93115e-05
5.90993e-05
0.000107933
0.000165468
0.000227033
0.00029399
0.000363178
0.000424882
0.000476463
0.000520334
0.000552969
0.000546164
0.000456183
0.000279639
0.000262512
0.000341679
0.00050346
0.000846432
0.00122075
0.00148294
0.00165336
0.0017581
0.00181168
0.00182403
0.00180199
0.00175158
0.00167707
0.00158219
0.00147108
0.0013486
0.0012191
0.00109185
0.000980277
0.000883166
0.000802866
0.000741497
0.000699128
0.000673263
0.000658591
0.000647454
0.000630635
0.000601653
0.000558006
0.000500749
0.000434355
0.000365363
0.000300349
0.000244003
0.0001984
0.000163333
0.000137489
0.000119393
0.000107317
0.000101631
9.88964e-05
3.53078e-05
3.50153e-05
4.11639e-05
5.37934e-05
5.95973e-05
5.54192e-05
5.89603e-05
0.000102473
0.000164124
0.000231069
0.000300387
0.000370275
0.000431436
0.000481675
0.00052458
0.000557785
0.000553793
0.000467376
0.000285562
0.000265565
0.00035492
0.000527267
0.000886538
0.00126229
0.00152713
0.00170109
0.0018083
0.00186243
0.00187316
0.00184734
0.0017912
0.00170913
0.00160506
0.0014834
0.00134949
0.00120849
0.00107367
0.00095449
0.000850846
0.000766043
0.000702483
0.000660371
0.000637352
0.000628074
0.000624289
0.000615554
0.000594295
0.000557048
0.000504384
0.000440739
0.000372943
0.000308041
0.00025121
0.000204901
0.000169134
0.000142674
0.000124065
0.0001115
0.000105407
0.00010212
3.52521e-05
3.42255e-05
3.93543e-05
5.18634e-05
6.07403e-05
6.08366e-05
6.17865e-05
9.67713e-05
0.000160301
0.000233477
0.000305752
0.000376559
0.000437406
0.000486711
0.000529281
0.000563869
0.000563606
0.000481462
0.000297012
0.000270824
0.000367712
0.000550809
0.000923973
0.00130036
0.0015678
0.0017452
0.00185483
0.00190952
0.00191865
0.00188909
0.00182724
0.00173766
0.00162443
0.00149226
0.00134701
0.00119539
0.00105356
0.000926878
0.000817001
0.000727915
0.000662163
0.000619987
0.000599235
0.000594753
0.000597963
0.000597307
0.000584055
0.000553644
0.000506047
0.000445596
0.000379379
0.000314893
0.000257804
0.000210948
0.000174589
0.000147583
0.000128508
0.000115481
0.000108994
0.000105168
3.5202e-05
3.35706e-05
3.77038e-05
4.9672e-05
6.08912e-05
6.52384e-05
6.64121e-05
9.18706e-05
0.000154047
0.000233865
0.000309927
0.000381983
0.000442796
0.000491552
0.000534292
0.000570906
0.000575221
0.000498429
0.000314287
0.000278234
0.000380235
0.00057407
0.000958818
0.00133523
0.00160514
0.00178585
0.00189783
0.00195305
0.00196062
0.00192734
0.00185982
0.00176277
0.00164044
0.00149784
0.00134141
0.00118052
0.00103181
0.00089792
0.000782226
0.000689204
0.000621382
0.000578893
0.000559793
0.000559355
0.000568993
0.000576231
0.000571142
0.000547921
0.00050582
0.000448978
0.000384702
0.000320923
0.000263791
0.000216541
0.000179693
0.000152207
0.000132708
0.000119246
0.000112379
0.000108029
3.51573e-05
3.30295e-05
3.62227e-05
4.73499e-05
6.01848e-05
6.84709e-05
7.15621e-05
8.98399e-05
0.000145893
0.00023179
0.00031267
0.000386452
0.000447562
0.000496126
0.000539405
0.000578516
0.000588196
0.000518058
0.000337032
0.000287628
0.000392681
0.000597035
0.000991173
0.00136712
0.00163933
0.00182318
0.00193739
0.00199311
0.00199912
0.00196218
0.00188904
0.00178456
0.00165322
0.0015003
0.00133294
0.00116446
0.00100871
0.000868011
0.000747017
0.000650528
0.000580891
0.000537951
0.000519901
0.00052264
0.000537944
0.000552701
0.000555782
0.000540013
0.00050378
0.000450933
0.000388939
0.000326144
0.000269176
0.000221678
0.000184438
0.000156537
0.000136655
0.000122784
0.00011555
0.000110696
3.51176e-05
3.25839e-05
3.49117e-05
4.50021e-05
5.87731e-05
7.04902e-05
7.64683e-05
9.09549e-05
0.000136913
0.000226853
0.000313647
0.000389805
0.000451611
0.00050032
0.000544374
0.000586293
0.000602059
0.000539967
0.000364564
0.000298909
0.000405245
0.000619692
0.00102115
0.00139622
0.00167051
0.00185729
0.00197359
0.00202977
0.00203422
0.00199365
0.00191494
0.00180311
0.00166285
0.00149976
0.00132231
0.00114719
0.000984482
0.000837468
0.000711775
0.000612394
0.000541326
0.000497934
0.000480404
0.000485388
0.000505418
0.000527125
0.000538227
0.000530067
0.00050001
0.000451504
0.000392113
0.000330565
0.000273962
0.000226357
0.00018882
0.000160565
0.000140339
0.000126086
0.000118498
0.00011316
3.50826e-05
3.22181e-05
3.37648e-05
4.27096e-05
5.68142e-05
7.13293e-05
8.06601e-05
9.41154e-05
0.00012954
0.000218883
0.000312416
0.0003918
0.000454798
0.000503994
0.000548953
0.000593834
0.000616321
0.000563664
0.000396073
0.000312119
0.000418123
0.000642035
0.00104888
0.00142268
0.00169878
0.00188824
0.00200649
0.00206306
0.00206595
0.00202177
0.00193756
0.00181846
0.00166939
0.00149629
0.00131015
0.00112871
0.000959305
0.000806541
0.000676813
0.000575194
0.000503195
0.000459493
0.000442077
0.000448373
0.000472049
0.000499948
0.000518757
0.000518244
0.0004946
0.000450742
0.000394249
0.000334197
0.00027815
0.000230573
0.000192832
0.000164284
0.000143753
0.000129145
0.000121218
0.000115419
3.50518e-05
3.19187e-05
3.27716e-05
4.05311e-05
5.44621e-05
7.10771e-05
8.38528e-05
9.81543e-05
0.000125343
0.000208413
0.000308554
0.000392207
0.000456917
0.000506981
0.000552906
0.000600759
0.000630489
0.00058859
0.000430734
0.000327456
0.000431504
0.000664066
0.00107449
0.00144664
0.00172422
0.00191609
0.0020361
0.00209298
0.00209431
0.00204657
0.00195691
0.00183063
0.00167289
0.00149012
0.00129687
0.00110906
0.000933328
0.000775423
0.000642367
0.000539217
0.000466869
0.000423139
0.000405588
0.000412335
0.000438489
0.00047165
0.000497675
0.000504722
0.000487651
0.000448698
0.000395373
0.000337052
0.000281742
0.000234327
0.000196472
0.00016769
0.000146892
0.000131956
0.000123708
0.00011747
3.50248e-05
3.16744e-05
3.19191e-05
3.85067e-05
5.18598e-05
6.98623e-05
8.58892e-05
0.000102208
0.000124353
0.000196828
0.000301704
0.000390758
0.000457786
0.000509086
0.000556017
0.000606716
0.00064408
0.000614159
0.000467774
0.000345266
0.000445571
0.000685802
0.00109814
0.00146823
0.00174688
0.00194087
0.00206244
0.00211956
0.0021193
0.00206804
0.00197301
0.00183964
0.00167335
0.00148186
0.00128233
0.00108827
0.000906665
0.000744261
0.000608609
0.000504662
0.000432598
0.000389227
0.000371468
0.000377938
0.000405382
0.000442732
0.000475316
0.000489701
0.000479272
0.000445433
0.000395515
0.000339141
0.000284744
0.000237617
0.000199736
0.00017078
0.000149753
0.000134519
0.000125965
0.000119315
3.50011e-05
3.14757e-05
3.11934e-05
3.66603e-05
4.91336e-05
6.784e-05
8.67084e-05
0.00010569
0.000125751
0.000185933
0.000291778
0.000387086
0.00045722
0.000510095
0.000558095
0.000611397
0.000656626
0.000639774
0.000506498
0.00036601
0.0004605
0.000707283
0.00111998
0.00148753
0.0017668
0.00196258
0.00208551
0.00214277
0.00214092
0.00208618
0.00198584
0.00184547
0.0016708
0.00147209
0.00126645
0.00106638
0.000879407
0.000713169
0.000575662
0.000471657
0.000400525
0.000357972
0.00034009
0.00034574
0.000373342
0.000413708
0.000452033
0.000473396
0.000469588
0.000441013
0.000394709
0.000340483
0.000287162
0.000240447
0.000202625
0.000173552
0.000152335
0.000136833
0.000127992
0.000120957
3.49804e-05
3.13147e-05
3.05801e-05
3.50031e-05
4.63904e-05
6.51792e-05
8.63263e-05
0.000108217
0.000128467
0.000177268
0.000279161
0.000380826
0.000454956
0.000509813
0.000558952
0.000614536
0.00066768
0.000664848
0.000546284
0.000390213
0.000476469
0.000728592
0.00114018
0.0015046
0.00178399
0.00198122
0.00210531
0.0021626
0.00215913
0.00210095
0.00199538
0.00184813
0.00166576
0.00146071
0.00124918
0.00104342
0.00085163
0.000682237
0.000543614
0.000440274
0.000370712
0.000329465
0.000311672
0.000316166
0.00034292
0.000385086
0.000428197
0.000456042
0.000458732
0.000435513
0.000392996
0.000341097
0.000289006
0.00024282
0.00020514
0.000176008
0.000154639
0.000138899
0.000129791
0.0001224
3.49623e-05
3.11846e-05
3.00654e-05
3.35362e-05
4.37162e-05
6.20523e-05
8.48213e-05
0.000109558
0.00013154
0.000171565
0.000264836
0.000371701
0.000450697
0.000508019
0.000558419
0.000615916
0.000676824
0.000688804
0.000586549
0.000418385
0.00049367
0.000749887
0.00115896
0.00151949
0.00179844
0.00199678
0.0021218
0.00217903
0.00217393
0.00211234
0.00200161
0.00184766
0.00165867
0.00144766
0.00123049
0.00101944
0.0008234
0.000651538
0.000512531
0.000410554
0.000343165
0.000303705
0.000286292
0.000289491
0.000314581
0.000357349
0.000404187
0.000437886
0.000446853
0.000429015
0.000390419
0.000341007
0.000290289
0.000244743
0.000207285
0.00017815
0.000156668
0.000140722
0.000131368
0.000123649
3.49465e-05
3.10801e-05
2.96363e-05
3.22536e-05
4.11759e-05
5.86251e-05
8.23205e-05
0.000109597
0.000134226
0.000168667
0.000250256
0.000359652
0.00044414
0.000504503
0.000556292
0.000615363
0.000683677
0.00071108
0.000626717
0.000450894
0.000512333
0.000771456
0.00117652
0.00153219
0.00181013
0.00200922
0.00213496
0.00219202
0.00218526
0.0021203
0.00200448
0.0018445
0.00164948
0.00143286
0.00121036
0.000994468
0.000794777
0.000621139
0.000482464
0.000382511
0.000317855
0.000280627
0.000263922
0.000265853
0.000288679
0.000330933
0.000380373
0.000419186
0.000434108
0.000421611
0.00038703
0.00034024
0.000291024
0.000246224
0.000209066
0.000179982
0.000158425
0.000142305
0.000132729
0.000124713
3.49327e-05
3.09964e-05
2.92809e-05
3.11445e-05
3.88155e-05
5.50494e-05
7.89867e-05
0.000108308
0.000136004
0.00016783
0.000236949
0.000344984
0.00043502
0.000499044
0.000552351
0.000612773
0.000687896
0.000731133
0.00066619
0.00048784
0.000532765
0.000793823
0.00119305
0.0015426
0.00181899
0.0020185
0.00214476
0.00220154
0.00219309
0.0021248
0.00200426
0.00183878
0.00163818
0.00141629
0.00118881
0.000968549
0.000765821
0.000591103
0.000453454
0.000356149
0.000294732
0.000260133
0.000244456
0.000245263
0.000265454
0.000306209
0.000357113
0.000400201
0.000420662
0.000413397
0.000382885
0.000338828
0.000291231
0.000247274
0.000210489
0.000181511
0.000159916
0.000143656
0.000133879
0.000125598
3.49207e-05
3.09299e-05
2.89884e-05
3.01949e-05
3.66636e-05
5.14575e-05
7.50048e-05
0.000105746
0.000136533
0.0001681
0.000226029
0.00032846
0.00042319
0.000491429
0.00054653
0.000608139
0.000689193
0.000748442
0.00070433
0.000528947
0.000555388
0.000817898
0.00120784
0.00155088
0.00182519
0.00202463
0.00215115
0.00220755
0.0021974
0.00212598
0.00200105
0.00183049
0.00162473
0.00139791
0.00116584
0.000941729
0.000736596
0.00056149
0.000425539
0.000331462
0.000273736
0.000242107
0.000227748
0.000227641
0.000245027
0.00028347
0.000334728
0.00038119
0.000406686
0.000404479
0.000378043
0.000336806
0.000290929
0.000247906
0.000211564
0.000182742
0.000161147
0.000144779
0.000134828
0.000126311
3.49101e-05
3.08772e-05
2.87494e-05
2.93891e-05
3.47342e-05
4.79586e-05
7.05684e-05
0.000102024
0.000135624
0.000168567
0.000217904
0.000311247
0.000408719
0.000481482
0.000538755
0.000601453
0.000687331
0.000762507
0.000740466
0.000573537
0.000580795
0.000843325
0.0012209
0.00155712
0.00182882
0.00202773
0.00215421
0.00221009
0.00219826
0.00212388
0.00199489
0.00181966
0.00160911
0.00137771
0.00114147
0.000914059
0.000707167
0.000532362
0.000398751
0.000308439
0.000254803
0.000226428
0.000213633
0.000212844
0.000227416
0.00026292
0.000313503
0.0003624
0.000392355
0.000394964
0.000372571
0.000334212
0.000290143
0.000248135
0.000212301
0.000183685
0.000162127
0.000145683
0.000135581
0.000126861
3.49009e-05
3.0836e-05
2.85555e-05
2.87111e-05
3.30297e-05
4.46378e-05
6.58681e-05
9.73101e-05
0.000133205
0.000168495
0.000212288
0.000294666
0.000391996
0.000469111
0.000528959
0.00059271
0.000682206
0.00077286
0.000773907
0.000620583
0.00060984
0.000869278
0.00123236
0.00156138
0.00182994
0.00202789
0.00215402
0.00220924
0.00219574
0.00211859
0.00198583
0.00180628
0.00159132
0.00135571
0.00111575
0.000885597
0.000677603
0.000503779
0.000373122
0.000287069
0.000237868
0.000212974
0.000201944
0.000200699
0.000212558
0.000244678
0.000293668
0.000344062
0.00037784
0.000384966
0.000366538
0.000331089
0.000288898
0.000247978
0.000212713
0.00018435
0.000162864
0.000146376
0.000136148
0.000127256
3.48929e-05
3.08039e-05
2.83993e-05
2.81453e-05
3.15436e-05
4.1556e-05
6.10803e-05
9.18082e-05
0.000129308
0.000167348
0.000208444
0.000279839
0.000373761
0.000454374
0.000517101
0.000582005
0.000673975
0.000779067
0.000803968
0.000668821
0.000643033
0.00089504
0.00124234
0.00156371
0.00182863
0.00202517
0.00215066
0.00220506
0.00218991
0.00211015
0.0019739
0.00179038
0.00157135
0.00133191
0.00108871
0.000856408
0.000647979
0.000475802
0.000348678
0.000267335
0.000222866
0.000201631
0.000192522
0.000191023
0.000200333
0.000228786
0.000275401
0.000326385
0.000363311
0.000374599
0.000360017
0.000327483
0.000287223
0.000247455
0.000212813
0.000184748
0.000163368
0.000146867
0.000136537
0.000127502
3.48858e-05
3.07792e-05
2.82746e-05
2.76768e-05
3.02634e-05
3.87521e-05
5.63595e-05
8.57443e-05
0.000124046
0.000164784
0.000205461
0.00026739
0.00035503
0.000437545
0.000503204
0.000569415
0.000662915
0.000780736
0.000829983
0.000716868
0.000680018
0.000920393
0.00125089
0.00156413
0.00182493
0.00201964
0.00214419
0.00219762
0.00218083
0.0020986
0.00195913
0.00177196
0.00154921
0.00130635
0.00106041
0.000826563
0.000618372
0.00044849
0.000325444
0.00024922
0.00020973
0.00019229
0.000185218
0.000183636
0.000190587
0.000215222
0.000258826
0.000309549
0.000348929
0.00036398
0.000353083
0.00032344
0.000285149
0.000246586
0.000212618
0.000184891
0.000163649
0.000147165
0.000136757
0.00012761
3.48797e-05
3.07605e-05
2.81761e-05
2.72919e-05
2.91723e-05
3.62457e-05
5.18327e-05
7.9351e-05
0.000117602
0.000160628
0.000202469
0.000257339
0.000336894
0.000419149
0.000487386
0.000555013
0.000649403
0.000777528
0.000851325
0.000763336
0.000720061
0.000945121
0.00125803
0.00156265
0.00181889
0.00201135
0.00213467
0.00218699
0.00216855
0.00208401
0.00194156
0.00175104
0.00152493
0.00127907
0.00103091
0.000796141
0.000588862
0.0004219
0.00030344
0.000232705
0.000198396
0.000184845
0.000179898
0.000178377
0.000183162
0.000203922
0.000244018
0.000293707
0.000334843
0.000353222
0.000345813
0.000319012
0.000282709
0.000245394
0.000212144
0.000184793
0.00016372
0.00014728
0.000136818
0.000127585
3.48743e-05
3.07466e-05
2.80991e-05
2.69783e-05
2.82517e-05
3.40404e-05
4.75966e-05
7.2853e-05
0.000110215
0.000154851
0.000198754
0.000249208
0.000320251
0.00039993
0.000469901
0.000538894
0.000633652
0.000769559
0.000867411
0.000806895
0.000762037
0.000968987
0.00126374
0.00155925
0.0018105
0.00200034
0.00212215
0.00217321
0.00215313
0.0020664
0.00192122
0.00172765
0.00149852
0.00125011
0.00100028
0.000765225
0.000559531
0.000396087
0.000282686
0.00021777
0.000188799
0.000179199
0.000176441
0.000175095
0.000177895
0.000194791
0.00023101
0.00027898
0.00032119
0.000342435
0.000338285
0.00031425
0.000279937
0.000243902
0.000211409
0.000184469
0.000163593
0.000147223
0.000136728
0.000127436
3.48695e-05
3.07366e-05
2.80397e-05
2.67248e-05
2.74821e-05
3.21276e-05
4.37181e-05
6.6453e-05
0.000102156
0.000147541
0.000193803
0.00024223
0.000305585
0.000380738
0.000451152
0.000521195
0.000615843
0.000757214
0.000877702
0.0008463
0.000804468
0.000991705
0.00126795
0.00155388
0.00179977
0.00198663
0.00210666
0.00215633
0.00213461
0.00204582
0.00189812
0.0017018
0.00147003
0.00121953
0.000968605
0.000733906
0.00053046
0.000371102
0.000263197
0.000204392
0.000180875
0.000175261
0.000174736
0.000173661
0.00017462
0.000187719
0.000219798
0.000265459
0.000308092
0.000331725
0.000330576
0.000309207
0.00027687
0.000242138
0.000210432
0.000183933
0.000163279
0.000147005
0.000136497
0.000127171
3.48654e-05
3.07295e-05
2.79947e-05
2.65218e-05
2.68445e-05
3.04897e-05
4.0236e-05
6.03228e-05
9.37151e-05
0.000138892
0.000187307
0.000235558
0.000292897
0.000362351
0.000431669
0.000502102
0.000596152
0.000741105
0.000881691
0.000880406
0.000845785
0.00101295
0.00127056
0.00154645
0.00178667
0.00197025
0.00208826
0.00213639
0.00211303
0.00202231
0.00187232
0.00167354
0.00143951
0.0011874
0.00093596
0.000702277
0.000501731
0.00034699
0.000244987
0.000192544
0.000174558
0.000172943
0.000174683
0.000173957
0.0001732
0.00018259
0.000210355
0.000253207
0.000295652
0.00032119
0.000322762
0.000303937
0.000273545
0.000240127
0.000209234
0.000183202
0.000162794
0.000146637
0.000136136
0.000126798
3.48617e-05
3.07249e-05
2.79612e-05
2.6361e-05
2.63207e-05
2.91035e-05
3.71648e-05
5.45959e-05
8.51782e-05
0.000129172
0.000179143
0.000228429
0.000281764
0.000345295
0.000412041
0.00048184
0.000574762
0.000721567
0.00087937
0.000908165
0.000884474
0.00103235
0.00127142
0.00153688
0.00177116
0.00195118
0.00206695
0.00211343
0.00208844
0.0019959
0.00184383
0.0016429
0.001407
0.00115379
0.000902441
0.000670437
0.000473425
0.000323794
0.000228067
0.000182198
0.000169784
0.000172166
0.000176186
0.000175873
0.000173509
0.000179288
0.000202629
0.000242261
0.000283958
0.000310923
0.000314918
0.000298494
0.00027
0.000237896
0.000207835
0.000182293
0.000162151
0.000146132
0.000135654
0.000126324
3.48586e-05
3.07222e-05
2.79371e-05
2.62349e-05
2.58942e-05
2.79428e-05
3.44995e-05
4.9366e-05
7.68085e-05
0.000118708
0.000169358
0.000220245
0.000271513
0.000329736
0.000392803
0.000460685
0.000551874
0.000698835
0.000870978
0.000928852
0.000919195
0.00104951
0.00127038
0.00152506
0.00175315
0.0019294
0.00204274
0.00208747
0.00206086
0.00196662
0.0018127
0.00160993
0.00137258
0.0011188
0.000868148
0.000638487
0.000445618
0.000301555
0.00021245
0.000173322
0.00016649
0.00017285
0.000179157
0.000179305
0.000175429
0.000177699
0.000196558
0.000232636
0.000273081
0.000301006
0.000307113
0.000292931
0.000266274
0.000235475
0.000206257
0.000181222
0.000161365
0.0001455
0.000135062
0.000125759
3.48558e-05
3.07209e-05
2.79204e-05
2.61373e-05
2.55501e-05
2.69805e-05
3.22198e-05
4.46881e-05
6.88312e-05
0.000107854
0.000158139
0.000210617
0.000261383
0.000315476
0.000374326
0.000439245
0.000527729
0.000673177
0.000856712
0.000942227
0.000948851
0.00106406
0.00126729
0.00151086
0.00173258
0.00190489
0.00201565
0.00205854
0.00203032
0.00193451
0.00177896