/*--------------------------------*- C++ -*----------------------------------*\
| =========                 |                                                 |
| \\      /  F ield         | OpenFOAM: The Open Source CFD Toolbox           |
|  \\    /   O peration     | Version:  2.4.0                                 |
|   \\  /    A nd           | Web:      www.OpenFOAM.org                      |
|    \\/     M anipulation  |                                                 |
\*---------------------------------------------------------------------------*/
FoamFile
{
    version     2.0;
    format      ascii;
    class       volScalarField;
    location    "360";
    object      epsilon;
}
// * * * * * * * * * * * * * * * * * * * * * * * * * * * * * * * * * * * * * //

dimensions      [0 2 -3 0 0 0 0];

internalField   nonuniform List<scalar> 
6000
(
1.28837
0.343829
0.0455661
0.0271095
0.0222882
0.0201204
0.0185196
0.0174765
0.0167113
0.0160801
0.0154701
0.0148619
0.0142857
0.0137703
0.0132844
0.0127402
0.0120268
0.0110752
0.00990123
0.00861557
0.00750094
0.00687558
0.00695102
0.00787377
0.00964448
0.0122516
0.0156243
0.0196396
0.024246
0.0297458
0.0354669
0.0411642
0.0466084
0.0516138
0.056057
0.059907
0.0632162
0.0658498
0.0678783
0.0694025
0.0705418
0.0714326
0.0722042
0.0729957
0.0738373
0.0747796
0.0755998
0.0741692
0.0792153
0.0888199
0.0992693
0.112936
0.126943
0.14921
0.171979
0.216808
0.261205
0.368416
0.462157
0.802202
0.483861
0.207656
0.0748468
0.0200322
0.0090556
0.00737427
0.00667285
0.00628496
0.0060228
0.00580465
0.0055892
0.00536878
0.00515287
0.00494558
0.00473252
0.00448439
0.00417331
0.00379537
0.00338022
0.00297151
0.00268006
0.00262576
0.00289285
0.00354261
0.00455617
0.00588341
0.00744378
0.00915255
0.0109606
0.0128613
0.0147092
0.0164524
0.0180577
0.0195104
0.0208142
0.0220023
0.0231592
0.0241863
0.0251078
0.0259551
0.0267653
0.0275804
0.0284435
0.0293969
0.0304604
0.031638
0.0328516
0.0332122
0.0349764
0.037935
0.0412153
0.0448859
0.0488027
0.0536228
0.0593601
0.067188
0.0788708
0.0929407
0.124082
0.146575
0.351399
0.169544
0.0782412
0.030727
0.0100266
0.0063584
0.0052177
0.00469881
0.00439858
0.0041826
0.00399398
0.00381423
0.00364225
0.00347669
0.003307
0.00311577
0.00288872
0.00262656
0.00234824
0.00208811
0.00192765
0.00196057
0.00225574
0.00285078
0.0037187
0.00480033
0.00601439
0.00728844
0.008579
0.00986139
0.0110829
0.0122286
0.013293
0.0142788
0.0151965
0.0160701
0.0169219
0.0177088
0.0184449
0.0191497
0.0198469
0.0205646
0.0213324
0.0221795
0.0231228
0.0241572
0.0252145
0.0255767
0.0266625
0.0282896
0.0300692
0.031813
0.033617
0.0353967
0.0376227
0.0399282
0.044185
0.0476405
0.0601548
0.0627718
0.320755
0.155187
0.077515
0.0392567
0.0142748
0.00729983
0.00534097
0.00453241
0.00410171
0.00382198
0.00360396
0.00341344
0.00323974
0.00307705
0.00291523
0.00274075
0.00254314
0.00232226
0.0020904
0.00187613
0.00175139
0.00180684
0.00211272
0.00269653
0.00352584
0.00453484
0.00564234
0.00678224
0.00791597
0.00902147
0.0100739
0.0110681
0.012004
0.0128849
0.0137185
0.0145188
0.0152845
0.0159932
0.0166554
0.0172862
0.0179053
0.0185367
0.0192067
0.019941
0.0207563
0.0216412
0.0225058
0.0227563
0.0235609
0.0246458
0.0257995
0.0267951
0.0277627
0.0284954
0.0294648
0.0301741
0.03208
0.0331003
0.0393814
0.0403573
0.310659
0.149283
0.0763096
0.0433393
0.0207721
0.00928946
0.00608699
0.00485475
0.0042343
0.00385729
0.00358633
0.00336605
0.00317481
0.00300175
0.00283582
0.00266481
0.00247927
0.00227715
0.00206563
0.00186762
0.00175046
0.00180833
0.00211916
0.00270668
0.00353302
0.00452646
0.00560588
0.00670931
0.00780168
0.00886405
0.00988184
0.010852
0.0117739
0.0126482
0.013478
0.0142698
0.0150102
0.0156861
0.0163054
0.0168816
0.0174329
0.0179816
0.0185536
0.0191741
0.0198601
0.0205935
0.0212506
0.0214042
0.0220394
0.0228153
0.0236075
0.0241943
0.0247035
0.0249181
0.0252637
0.0252915
0.0261661
0.0263384
0.0301028
0.0310725
0.306587
0.146935
0.0754011
0.0449379
0.0272473
0.012289
0.0073105
0.00548506
0.00460692
0.00409883
0.00375486
0.00349099
0.00327192
0.00308053
0.00290376
0.00272949
0.00254805
0.00235498
0.00215293
0.00195843
0.00183544
0.00188426
0.00219475
0.00279161
0.00363137
0.00463648
0.00572559
0.00683952
0.00794547
0.00902605
0.0100699
0.0110729
0.0120312
0.0129413
0.0138014
0.0146115
0.0153505
0.0160097
0.0165957
0.0171209
0.0176031
0.0180646
0.0185315
0.0190297
0.0195774
0.0201475
0.0205882
0.0206704
0.0211783
0.0217435
0.0222896
0.0226106
0.022823
0.0227262
0.0227005
0.0223649
0.0226911
0.0224947
0.0250838
0.0262548
0.30471
0.146148
0.0748805
0.0452741
0.0319969
0.0163336
0.0090272
0.00639085
0.00516984
0.0044904
0.00405125
0.00372997
0.00347368
0.00325721
0.0030644
0.00288226
0.00270021
0.00251101
0.0023129
0.00211512
0.0019779
0.00200868
0.00231278
0.00292036
0.00378256
0.00481559
0.00593729
0.00709027
0.00824282
0.00937755
0.0104828
0.0115511
0.0125742
0.0135436
0.0144523
0.0152938
0.0160417
0.0166896
0.0172433
0.0177148
0.018122
0.0184876
0.0188389
0.0192026
0.0195984
0.019988
0.0202136
0.0202427
0.0206417
0.0210478
0.0214112
0.0215428
0.0215461
0.0212414
0.0209707
0.0204153
0.0204165
0.020048
0.0220452
0.0234512
0.303653
0.146043
0.0746854
0.0450528
0.0345932
0.0210324
0.0112974
0.00758697
0.00591651
0.00501632
0.00445577
0.00406152
0.00375802
0.00350967
0.00329593
0.00310206
0.00291596
0.00272733
0.00253004
0.00232497
0.00216752
0.00217226
0.00246301
0.00308008
0.00396999
0.00504199
0.00621228
0.0074243
0.00864639
0.00985972
0.0110501
0.0122054
0.0133119
0.0143552
0.0153231
0.0162025
0.0169633
0.0176003
0.018119
0.0185315
0.0188559
0.019116
0.01934
0.0195558
0.0197844
0.0199739
0.0199985
0.0199814
0.0202807
0.0205587
0.0207803
0.020771
0.0206206
0.0201693
0.0197281
0.0190302
0.0188284
0.0183881
0.0200992
0.0217324
0.302902
0.146234
0.0747334
0.04465
0.0355823
0.0254471
0.0141725
0.00910872
0.00685876
0.00567746
0.004964
0.00447853
0.00411651
0.00382886
0.00358906
0.00337972
0.00318666
0.00299621
0.0027978
0.00258309
0.00240098
0.00237232
0.00264184
0.00326515
0.00418557
0.00530454
0.00653554
0.00782184
0.00913078
0.0104409
0.0117339
0.0129917
0.0141942
0.0153212
0.0163546
0.0172745
0.0180485
0.0186725
0.0191518
0.019499
0.0197328
0.0198779
0.0199637
0.0200184
0.0200643
0.0200359
0.019884
0.0198176
0.0200216
0.0201924
0.0203015
0.0201859
0.0199212
0.0193644
0.0188014
0.0180091
0.0176794
0.0172267
0.0188207
0.020673
0.302277
0.146552
0.0749537
0.0442517
0.0355171
0.0287914
0.017625
0.0109986
0.00801807
0.00648317
0.00557905
0.00498078
0.00454706
0.00421169
0.00394021
0.00371147
0.00350865
0.00331441
0.00311358
0.00288802
0.00267813
0.00260932
0.00284893
0.00347338
0.0044251
0.0055969
0.00689816
0.00827087
0.00968031
0.0111013
0.0125101
0.0138819
0.0151895
0.0164061
0.0175085
0.0184686
0.0192543
0.0198615
0.0202964
0.020572
0.0207081
0.0207299
0.020668
0.0205503
0.020399
0.0201423
0.0198409
0.0197157
0.0198263
0.0199049
0.0199242
0.0197285
0.0193799
0.0187478
0.0180979
0.0172438
0.016837
0.0164112
0.0179893
0.0200511
0.301715
0.146921
0.0752925
0.0439402
0.0348476
0.0309081
0.0212486
0.0132905
0.00942105
0.00744785
0.00630843
0.00557186
0.00505103
0.00465822
0.00434867
0.00409623
0.00388076
0.00368096
0.00347673
0.00324
0.00300041
0.00288551
0.00308588
0.00370456
0.00468646
0.00591512
0.0072942
0.00876311
0.010284
0.0118269
0.0133617
0.0148559
0.0162746
0.0175842
0.0187564
0.0197547
0.0205486
0.0211347
0.0215198
0.0217181
0.0217503
0.0216423
0.0214253
0.0211261
0.0207648
0.0202824
0.0198533
0.0196571
0.019675
0.0196723
0.0196198
0.0193656
0.0189576
0.0182737
0.0175634
0.0166719
0.0162245
0.0158533
0.0174799
0.0197395
0.301195
0.147303
0.0757107
0.0437444
0.033896
0.031884
0.0245496
0.0159835
0.011095
0.00858903
0.00716253
0.00625782
0.00563186
0.00517032
0.00481541
0.00453443
0.00430316
0.00409618
0.00388756
0.00364008
0.00337008
0.00320411
0.00335551
0.00395979
0.00496882
0.00625661
0.00771932
0.00929226
0.0109334
0.0126068
0.0142749
0.0158974
0.0174306
0.0188343
0.0200754
0.0211081
0.0219058
0.0224655
0.0227955
0.0229114
0.0228349
0.0225924
0.0222152
0.021728
0.0211466
0.020457
0.0199123
0.0196326
0.019557
0.0194811
0.0193715
0.0190768
0.01863
0.0179139
0.0171647
0.0162547
0.0157947
0.0154984
0.0172155
0.0196596
0.300709
0.147683
0.0761805
0.043666
0.0328727
0.0319289
0.0272039
0.0189151
0.0130603
0.00992552
0.00815368
0.00704643
0.00629441
0.00575106
0.00534237
0.00502734
0.00477678
0.00456082
0.00434691
0.00408966
0.00378972
0.00356894
0.00366162
0.00424121
0.00527225
0.00661963
0.00817008
0.00985307
0.011621
0.0134313
0.0152382
0.0169922
0.0186413
0.0201382
0.0214453
0.0225073
0.0233035
0.0238313
0.0241009
0.0241298
0.0239408
0.023561
0.0230207
0.0223415
0.0215374
0.020669
0.0200125
0.0196377
0.0194672
0.0193237
0.0191692
0.0188493
0.0183815
0.0176499
0.0168798
0.0159672
0.0155169
0.0153106
0.017146
0.0197594
0.300255
0.148055
0.0766823
0.0436947
0.0319034
0.0312949
0.0290558
0.0218119
0.0153178
0.0114748
0.00929518
0.00794669
0.0070446
0.00640433
0.00593218
0.00557681
0.00530297
0.00507589
0.00485588
0.00459025
0.00426196
0.00398408
0.00400865
0.00455183
0.00559759
0.00700307
0.0086436
0.0104409
0.0123405
0.014292
0.0162406
0.0181277
0.019892
0.0214792
0.0228471
0.0239332
0.0247217
0.0252117
0.0254158
0.0253535
0.0250494
0.0245306
0.0238265
0.0229538
0.0219381
0.020919
0.0201504
0.0196705
0.0194029
0.0191956
0.0190058
0.018674
0.018201
0.017469
0.0166937
0.0157923
0.0153699
0.0152649
0.0172368
0.0200029
0.299832
0.148415
0.0772023
0.0438154
0.0310548
0.0302248
0.0300675
0.024442
0.0177753
0.0132482
0.0106001
0.00896829
0.00788911
0.00713467
0.00658793
0.006185
0.00588334
0.00564267
0.00541563
0.00514329
0.00478928
0.00445364
0.00440155
0.00489545
0.00594642
0.00740637
0.00913746
0.0110515
0.0130857
0.0151807
0.0172722
0.0192917
0.0211688
0.0228422
0.0242645
0.0253681
0.0261422
0.0265881
0.0267215
0.0265644
0.0261431
0.0254851
0.0246177
0.0235523
0.0223539
0.0212049
0.0203225
0.0197297
0.0193625
0.0190936
0.0188761
0.018544
0.01808
0.0173614
0.0165953
0.0157175
0.0153386
0.0153433
0.017463
0.0203638
0.299439
0.148763
0.0777306
0.044012
0.0303552
0.0289245
0.0302959
0.0266227
0.0202789
0.0152406
0.0120794
0.010121
0.00883508
0.00794705
0.00731307
0.00685432
0.00651961
0.00626251
0.00602732
0.00575001
0.00537382
0.00498151
0.00484557
0.00527661
0.00632108
0.00782952
0.00964961
0.011681
0.0138508
0.0160897
0.0183233
0.020473
0.0224588
0.0242128
0.0256822
0.0267961
0.0275484
0.0279439
0.0280015
0.0277462
0.0272061
0.0264092
0.0253802
0.0241329
0.0227859
0.021522
0.0205251
0.0198141
0.0193449
0.019015
0.0187757
0.0184533
0.0180114
0.0173193
0.0165761
0.0157334
0.0154116
0.0155321
0.0178054
0.0208221
0.299075
0.149099
0.0782603
0.0442696
0.0298093
0.0275523
0.0298615
0.0282241
0.0226912
0.0173828
0.0137381
0.0114135
0.00988975
0.00884671
0.00811123
0.00758727
0.00721353
0.0069367
0.00669202
0.00641139
0.00601727
0.00557117
0.00534604
0.00570047
0.00672466
0.00827312
0.0101784
0.0123257
0.0146303
0.0170118
0.0193849
0.0216607
0.0237498
0.0255778
0.027086
0.0282021
0.0289252
0.0292639
0.0292407
0.0288838
0.0282236
0.0272886
0.0260999
0.0246976
0.0232304
0.0218637
0.0207535
0.0199218
0.0193485
0.0189572
0.0187006
0.0183966
0.0179891
0.0173361
0.0166289
0.0158325
0.0155798
0.0158203
0.0182492
0.0213616
0.298739
0.149423
0.0787863
0.0445748
0.029409
0.0262196
0.0289178
0.0291796
0.0248695
0.0195923
0.0155553
0.0128518
0.0110598
0.00983894
0.00898619
0.00838644
0.00796683
0.00766638
0.00741066
0.00712808
0.00672079
0.00622552
0.00590815
0.00617272
0.00716108
0.00873844
0.0107227
0.0129824
0.0154189
0.0179397
0.0204481
0.0228446
0.0250302
0.0269246
0.0284627
0.0295728
0.0302592
0.0305345
0.0304257
0.0299641
0.0291828
0.0281106
0.0267725
0.0252462
0.0236808
0.022222
0.021002
0.02005
0.0193713
0.0189177
0.0186466
0.0183687
0.018007
0.0174056
0.0167475
0.0160083
0.0158357
0.0161987
0.0187818
0.021969
0.298429
0.149737
0.079305
0.0449163
0.0291393
0.0249971
0.0276255
0.0294856
0.0266841
0.0217782
0.0174863
0.0144312
0.0123506
0.0109287
0.00994167
0.00925434
0.00878112
0.00845255
0.00818398
0.00790036
0.00748493
0.00694672
0.00653674
0.0066994
0.00763505
0.00922753
0.0112818
0.013648
0.0162116
0.0188668
0.0215045
0.0240147
0.026289
0.0282416
0.0298003
0.030896
0.031538
0.0317439
0.0315449
0.0309757
0.0300722
0.0288644
0.0274008
0.025775
0.0241289
0.0225877
0.0212641
0.0201948
0.0194109
0.0188935
0.0186096
0.0183644
0.0180595
0.0175221
0.0169261
0.016255
0.0161728
0.0166595
0.0193923
0.0226328
0.298144
0.15004
0.0798139
0.0452844
0.0289832
0.0239234
0.026134
0.0291915
0.0280335
0.0238374
0.0194819
0.0161278
0.0137614
0.0121201
0.0109811
0.0101934
0.00965783
0.00929592
0.00901249
0.00872812
0.0083096
0.00773603
0.00723598
0.0072867
0.00815202
0.00974333
0.0118558
0.0143201
0.0170039
0.0197865
0.0225462
0.025162
0.0275161
0.029518
0.0310875
0.0321605
0.0327511
0.0328818
0.0325883
0.031909
0.0308823
0.0295517
0.0279849
0.0262789
0.0245658
0.0229515
0.0215324
0.0203516
0.019464
0.0188815
0.0185856
0.0183787
0.0181409
0.0176799
0.0171592
0.0165672
0.0165848
0.0171952
0.0200709
0.0233427
0.297882
0.150333
0.0803112
0.0456713
0.0289231
0.0230142
0.02457
0.0283865
0.0288534
0.0256646
0.0214774
0.0179157
0.0152797
0.0134125
0.0121073
0.0112056
0.0105981
0.0101969
0.00989641
0.0096108
0.00919403
0.00859376
0.00800919
0.00794071
0.00871815
0.0102897
0.0124457
0.0149971
0.0177917
0.020693
0.0235656
0.0262775
0.0287018
0.0307435
0.0323142
0.0333567
0.0338889
0.0339391
0.0335475
0.0327559
0.0316119
0.0301757
0.0285234
0.0267521
0.0249828
0.0233044
0.0217992
0.0205149
0.0195269
0.0188783
0.0185703
0.0184063
0.0182456
0.0178735
0.0174414
0.0169395
0.0170658
0.0177987
0.0208084
0.0240893
0.297642
0.150616
0.0807956
0.0460706
0.0289428
0.0222693
0.023032
0.027183
0.0291214
0.0271627
0.0233963
0.0197569
0.0168914
0.0147995
0.0133185
0.0122926
0.0116029
0.0111554
0.0108356
0.0105474
0.0101367
0.00951914
0.00885856
0.00866711
0.00934013
0.0108714
0.0130531
0.0156777
0.0185715
0.0215807
0.0245558
0.0273532
0.0298372
0.031909
0.0334712
0.0344755
0.0349432
0.0349084
0.0344155
0.033514
0.0322653
0.0307382
0.0290146
0.0271894
0.0253724
0.023638
0.0220568
0.0206787
0.0195954
0.0188803
0.0185595
0.0184423
0.0183679
0.0180971
0.0177673
0.0173666
0.01761
0.018463
0.0215958
0.0248637
0.297422
0.150889
0.0812662
0.0464769
0.0290277
0.0216791
0.0215901
0.0257026
0.0288552
0.0282524
0.0251557
0.021602
0.0185741
0.0162728
0.0146115
0.0134517
0.0126718
0.0121709
0.0118293
0.0115363
0.0111354
0.0105103
0.00978494
0.00947087
0.010025
0.0114943
0.0136809
0.0163619
0.0193406
0.0224448
0.0255102
0.0283815
0.030914
0.0330055
0.0345499
0.035509
0.0359067
0.0357828
0.0351897
0.034187
0.0328455
0.0312402
0.0294567
0.0275863
0.0257282
0.0239453
0.0222983
0.0208371
0.0196651
0.018884
0.0185493
0.0184816
0.0185022
0.018345
0.0181311
0.0178429
0.0182112
0.0191811
0.0224245
0.0256575
0.297221
0.151154
0.0817225
0.046886
0.029165
0.0212285
0.0202886
0.0240631
0.028107
0.0288797
0.0266724
0.0233915
0.0202965
0.0178185
0.0159806
0.0146806
0.0138024
0.0132413
0.0128757
0.0125753
0.0121872
0.0115641
0.0107877
0.0103559
0.0107798
0.0121652
0.0143331
0.0170505
0.0200969
0.0232811
0.0264231
0.0293553
0.0319245
0.034025
0.0355425
0.0364498
0.036773
0.0365601
0.0358726
0.0347782
0.0333551
0.0316826
0.0298482
0.0279391
0.0260452
0.0242205
0.0225173
0.0209841
0.0197313
0.0188857
0.0185357
0.0185194
0.0186429
0.0186113
0.0185271
0.0183624
0.0188628
0.0199454
0.0232855
0.0264627
0.297037
0.15141
0.0821641
0.0472945
0.0293438
0.0209004
0.0191506
0.0223692
0.0269555
0.02902
0.0278703
0.0250588
0.0220183
0.0194163
0.0174164
0.0159748
0.014992
0.014364
0.0139695
0.0136612
0.0132882
0.0126765
0.0118644
0.0113239
0.0116093
0.0128911
0.0150172
0.017746
0.0208396
0.0240862
0.0272892
0.0302681
0.0328614
0.0349598
0.0364418
0.0372914
0.0375392
0.0372417
0.0364671
0.0352907
0.0337961
0.0320658
0.0301878
0.0282453
0.0263201
0.0244592
0.0227087
0.0211143
0.0197896
0.0188821
0.018515
0.018551
0.0187843
0.0188901
0.0189491
0.018919
0.019558
0.0207483
0.0241701
0.0272713
0.296869
0.151656
0.0825909
0.0476998
0.0295548
0.0206776
0.0181829
0.0207072
0.0254958
0.0286791
0.028687
0.0265341
0.0236908
0.0210388
0.0189049
0.017327
0.016236
0.0155357
0.0151072
0.0147906
0.014434
0.0138426
0.013011
0.012373
0.0125151
0.013675
0.0157357
0.0184527
0.0215716
0.0248604
0.0281057
0.0311146
0.0337176
0.0358021
0.0372421
0.038032
0.0382064
0.0378296
0.0369759
0.0357268
0.0341702
0.0323904
0.0304751
0.0285034
0.0265504
0.0246584
0.0228682
0.021223
0.0198356
0.0188696
0.0184839
0.0185719
0.0189208
0.0191751
0.0193906
0.0195058
0.0202892
0.0215816
0.0250694
0.0280759
0.296716
0.151894
0.0830029
0.0480997
0.0297902
0.0205434
0.0173811
0.0191419
0.0238297
0.0278918
0.029079
0.0277493
0.0252587
0.0226513
0.0204267
0.0187266
0.0175283
0.0167516
0.0162844
0.0159594
0.0156202
0.0150568
0.0142214
0.0134993
0.0134972
0.0145193
0.0164911
0.0191715
0.0222921
0.0256013
0.0288693
0.031891
0.0344898
0.0365496
0.0379422
0.0386718
0.0387761
0.0383261
0.0374014
0.0360887
0.0344787
0.0326568
0.0307094
0.0287123
0.0267349
0.024816
0.0229931
0.0213061
0.0198654
0.0188452
0.0184392
0.0185779
0.019047
0.01946
0.0198447
0.0201156
0.0210485
0.0224367
0.0259743
0.028869
0.296577
0.152124
0.0834001
0.0484926
0.0300438
0.0204829
0.0167334
0.017717
0.0220564
0.026717
0.0290258
0.0286432
0.0266628
0.0242122
0.0219567
0.0201589
0.0188597
0.0180054
0.0174958
0.0171629
0.0168415
0.0163129
0.0154884
0.0146974
0.0145539
0.015425
0.0172851
0.0199036
0.023001
0.0263076
0.029578
0.0325951
0.0351759
0.0372011
0.0385423
0.0392117
0.0392501
0.0387334
0.0377459
0.0363782
0.0347228
0.0328654
0.0308909
0.0288718
0.0268729
0.0249311
0.0230812
0.0213607
0.0198754
0.0188059
0.018378
0.0185649
0.0191574
0.0197383
0.0203042
0.0207408
0.0218273
0.0233048
0.0268759
0.0296436
0.296449
0.152345
0.0837826
0.048877
0.03031
0.0204827
0.0162241
0.0164575
0.0202657
0.0252319
0.0285311
0.0291667
0.027843
0.0256744
0.0234637
0.021605
0.0202185
0.0192889
0.0187347
0.0183948
0.0180916
0.0176037
0.0168039
0.0159604
0.0156818
0.016392
0.0181191
0.0206501
0.0236985
0.0269788
0.0302306
0.0332257
0.0357751
0.0377563
0.0390431
0.0396533
0.0396302
0.0390537
0.0380114
0.0365969
0.0349034
0.0330166
0.0310195
0.0289817
0.0269645
0.0250034
0.0231316
0.0213844
0.0198627
0.0187491
0.0182978
0.0185295
0.0192466
0.0200034
0.0207615
0.0213729
0.0226164
0.0241766
0.0277651
0.0303928
0.296334
0.152559
0.0841507
0.0492521
0.0305847
0.0205315
0.0158361
0.0153727
0.0185321
0.0235246
0.0276229
0.0292863
0.0287428
0.0269863
0.0249112
0.0230411
0.0215892
0.0205915
0.0199926
0.0196477
0.0193633
0.0189213
0.0181588
0.0172799
0.0168757
0.0174186
0.0189936
0.0214121
0.0243855
0.027615
0.0308269
0.0337826
0.0362876
0.0382163
0.0394461
0.0399986
0.0399188
0.039289
0.0381996
0.0367459
0.0350213
0.0331109
0.0310955
0.0290424
0.02701
0.0250329
0.0231436
0.0213758
0.019825
0.0186726
0.0181966
0.0184681
0.0193095
0.0202484
0.0212087
0.0220033
0.0234064
0.0250424
0.028633
0.0311101
0.296228
0.152764
0.0845046
0.0496171
0.0308643
0.0206192
0.0155519
0.0144604
0.0169128
0.0216864
0.0263511
0.0289879
0.0293127
0.0280952
0.0262575
0.0244384
0.0229528
0.0219
0.0212595
0.0209109
0.020648
0.0202567
0.019543
0.0186461
0.0181286
0.0185016
0.0199081
0.0221902
0.0250626
0.0282169
0.0313676
0.0342666
0.0367146
0.0385825
0.0397535
0.04025
0.040118
0.0394415
0.0383123
0.0368266
0.0350773
0.0331485
0.0311191
0.0290541
0.0270097
0.0250202
0.0231173
0.0213339
0.0197603
0.0185743
0.0180725
0.018378
0.0193412
0.0204667
0.0216375
0.0226229
0.0241873
0.0258927
0.0294708
0.0317893
0.296133
0.152961
0.0848446
0.0499715
0.0311458
0.0207377
0.0153555
0.0137101
0.0154462
0.0198048
0.0247829
0.0282783
0.0295146
0.0289494
0.0274573
0.0257635
0.0242862
0.0231981
0.0225232
0.022171
0.0219355
0.0215999
0.0209456
0.0200482
0.0194321
0.0196364
0.0208609
0.0229846
0.025731
0.0287858
0.0318541
0.0346793
0.0370581
0.0388574
0.039968
0.04041
0.0402304
0.0395132
0.038351
0.0368399
0.0350719
0.0331299
0.0310907
0.0290175
0.0269644
0.0249657
0.023053
0.0212585
0.0196676
0.0184526
0.0179239
0.0182566
0.019337
0.0206515
0.0220397
0.0232222
0.0249487
0.0267176
0.03027
0.0324246
0.296045
0.15315
0.085171
0.0503148
0.031427
0.0208799
0.015232
0.0131069
0.0141542
0.0179576
0.0229979
0.0271853
0.029325
0.029502
0.0284635
0.0269791
0.0255622
0.0244666
0.0237691
0.0234161
0.0232145
0.0229395
0.0223546
0.021474
0.020776
0.0208164
0.0218494
0.023795
0.0263916
0.0293233
0.0322883
0.0350232
0.0373209
0.0390442
0.0400928
0.0404819
0.0402587
0.0395064
0.0383175
0.0367871
0.035006
0.0330556
0.0310107
0.0289329
0.0268747
0.0248703
0.0229514
0.0211496
0.0195459
0.0183064
0.0177498
0.0181018
0.0192925
0.0207961
0.0224065
0.0237916
0.0256804
0.0275072
0.0310222
0.0330104
0.295966
0.153332
0.0854841
0.050647
0.0317059
0.0210401
0.0151683
0.0126331
0.0130439
0.0162082
0.0210814
0.0257563
0.0287379
0.0297143
0.0292295
0.0280445
0.02675
0.0256826
0.0249802
0.0246324
0.0244718
0.0242629
0.0237568
0.0229104
0.0221489
0.022034
0.0228695
0.0246201
0.027045
0.0298313
0.032673
0.0353013
0.0375066
0.0391472
0.0401317
0.0404689
0.0402056
0.0394234
0.0382133
0.0366692
0.0348802
0.0329262
0.0308798
0.0288011
0.0267413
0.0247348
0.0228131
0.0210075
0.0193949
0.0181347
0.0175494
0.017912
0.0192039
0.0208941
0.0227297
0.0243212
0.0263717
0.0282521
0.0317197
0.0335416
0.295894
0.153506
0.0857842
0.0509678
0.0319811
0.0212136
0.0151532
0.0122711
0.0121114
0.0146035
0.0191179
0.0240551
0.0277658
0.0295587
0.029712
0.0289175
0.0278151
0.0268201
0.0261367
0.0258041
0.025692
0.0255557
0.0251379
0.0243432
0.023538
0.0232797
0.0239158
0.0254581
0.0276918
0.0303117
0.033011
0.0355173
0.0376191
0.0391711
0.0400886
0.0403746
0.0400743
0.0392664
0.0380403
0.0364877
0.0346957
0.0327423
0.0306984
0.0286227
0.026565
0.0245598
0.0226388
0.0208328
0.0192147
0.017937
0.0173221
0.017686
0.0190676
0.0209393
0.0230006
0.0248014
0.0270123
0.0289427
0.032355
0.0340135
0.295829
0.153673
0.0860717
0.0512771
0.0322514
0.0213963
0.015177
0.0120034
0.0113448
0.0131733
0.0171851
0.0221576
0.0264406
0.0290222
0.0298736
0.0295561
0.0287208
0.02785
0.0272162
0.0269133
0.0268551
0.026802
0.0264823
0.025757
0.0249295
0.0245429
0.0249819
0.0263061
0.0283317
0.0307663
0.0333053
0.0356751
0.0376628
0.0391204
0.0399679
0.0402029
0.0398679
0.0390382
0.0378005
0.036244
0.0344534
0.0325049
0.0304675
0.0283985
0.0263466
0.0243464
0.0224294
0.020626
0.0190056
0.0177131
0.0170678
0.0174232
0.018881
0.0209261
0.0232113
0.0252225
0.0275922
0.0295701
0.0329211
0.0344218
0.29577
0.153833
0.0863469
0.0515751
0.0325159
0.0215852
0.0152316
0.0118144
0.0107277
0.0119318
0.015349
0.0201459
0.0248119
0.0281079
0.0296863
0.0299209
0.0294291
0.0287405
0.0281933
0.02794
0.0279431
0.027984
0.0277731
0.0271355
0.0263083
0.0258115
0.0260597
0.0271602
0.0289643
0.0311968
0.0335594
0.0357789
0.0376425
0.039
0.0397743
0.0399579
0.03959
0.0387416
0.0374961
0.0359398
0.0341547
0.0322151
0.030188
0.0281294
0.026087
0.0240953
0.0221857
0.0203881
0.0187681
0.0174631
0.0167866
0.0171234
0.0186417
0.0208493
0.023354
0.0255754
0.0281015
0.0301257
0.0334116
0.0347627
0.295716
0.153986
0.0866101
0.0518619
0.0327739
0.0217775
0.0153103
0.0116901
0.0102415
0.0108796
0.01366
0.0181027
0.0229446
0.026837
0.0291339
0.0299773
0.0299022
0.0294582
0.0290407
0.0288619
0.0289375
0.0290813
0.028992
0.028461
0.0276583
0.0270723
0.0271402
0.0280156
0.029588
0.0316045
0.0337763
0.035833
0.0375633
0.0388149
0.0395126
0.0396441
0.0392443
0.0383798
0.0371297
0.0355771
0.0338012
0.0318742
0.0298611
0.0278165
0.0257872
0.0238075
0.0219086
0.0201197
0.0185027
0.0171874
0.0164788
0.016787
0.0183484
0.0207046
0.0234215
0.0258513
0.0285312
0.0306017
0.0338209
0.0350327
0.295668
0.154132
0.0868617
0.0521374
0.0330248
0.0219713
0.0154074
0.0116184
0.00986733
0.0100078
0.012152
0.0161051
0.0209146
0.0252481
0.0282146
0.0296987
0.0301047
0.0299686
0.029729
0.0296549
0.0298182
0.030073
0.0301196
0.0297148
0.0289621
0.0283109
0.0282131
0.0288662
0.0302009
0.0319904
0.0339589
0.0358418
0.0374301
0.0385702
0.0391878
0.0392659
0.0388349
0.037956
0.036704
0.0351582
0.0333948
0.0314838
0.0294881
0.027461
0.0254483
0.023484
0.0215989
0.0198217
0.0182103
0.0168866
0.0161453
0.016415
0.0180003
0.0204882
0.0234074
0.0260423
0.0288728
0.0309907
0.0341438
0.0352289
0.295624
0.154271
0.0871021
0.052402
0.0332682
0.0221647
0.0155184
0.0115887
0.00958706
0.00930057
0.010842
0.0142187
0.0188041
0.0233967
0.0269431
0.0290688
0.0300057
0.0302382
0.0302274
0.0302931
0.0305635
0.0309399
0.0311359
0.0308772
0.0302012
0.0295115
0.0292668
0.0297051
0.0307999
0.0323545
0.03411
0.0358096
0.0372482
0.0382713
0.0388052
0.0388284
0.0383661
0.0374739
0.0362221
0.0346856
0.0329377
0.0310457
0.0290707
0.0270644
0.0250715
0.0231259
0.0212577
0.0194948
0.0178915
0.0165613
0.0157868
0.0160087
0.0175976
0.0201975
0.0233062
0.0261409
0.0291185
0.0312863
0.0343759
0.0353487
0.295584
0.154404
0.0873315
0.0526557
0.0335038
0.0223565
0.0156395
0.0115926
0.00938436
0.00873845
0.0097328
0.0124944
0.0166947
0.0213521
0.025351
0.0280843
0.0295814
0.0302358
0.0305055
0.0307495
0.0311503
0.0316611
0.0320198
0.0319271
0.0313558
0.0306573
0.0302885
0.0305239
0.0313811
0.0326966
0.0342316
0.0357401
0.0370223
0.0379234
0.03837
0.0383363
0.0378422
0.0369375
0.0356873
0.0341623
0.0324323
0.0305621
0.0286106
0.0266282
0.0246583
0.0227343
0.0208859
0.01914
0.0175473
0.0162125
0.0154046
0.0155698
0.0171414
0.0198308
0.0231134
0.026141
0.0292618
0.0314828
0.0345134
0.0353902
0.295548
0.154531
0.0875504
0.0528989
0.0337316
0.0225456
0.0157676
0.0116226
0.00924484
0.00830091
0.00881559
0.0109658
0.0146621
0.0191932
0.0234869
0.0267568
0.0288175
0.0299347
0.0305337
0.0309966
0.0315546
0.032215
0.0327494
0.0328425
0.0324051
0.03173
0.031264
0.0313133
0.0319394
0.0330153
0.0343253
0.0356369
0.0367572
0.0375317
0.0378875
0.0377947
0.0372679
0.0363508
0.0351031
0.0335912
0.0318813
0.0300353
0.02811
0.0261541
0.02421
0.0223104
0.0204844
0.0187581
0.0171783
0.0158411
0.0149998
0.0151007
0.0166334
0.0193874
0.0228254
0.0260373
0.0292969
0.0315756
0.0345534
0.0353516
0.295515
0.154651
0.087759
0.0531316
0.0339512
0.0227311
0.0159003
0.011673
0.00915616
0.0079679
0.00807373
0.0096491
0.0127702
0.0170034
0.0214148
0.0251145
0.0277116
0.0293151
0.0302855
0.0310076
0.0317517
0.0325792
0.0333025
0.0336006
0.0333267
0.0327097
0.0321775
0.0320623
0.0324688
0.0333083
0.034392
0.035503
0.0364571
0.0371011
0.0373629
0.0372088
0.036648
0.0357181
0.0344735
0.0329758
0.0312875
0.0294677
0.0275708
0.0256441
0.0237282
0.0218556
0.0200544
0.01835
0.0167854
0.0154479
0.014574
0.0146037
0.0160765
0.0188681
0.0224402
0.0258258
0.0292193
0.0315609
0.0344936
0.0352318
0.295485
0.154766
0.0879577
0.0533543
0.0341628
0.0229124
0.0160355
0.0117388
0.0091079
0.00772097
0.00748615
0.00854506
0.0110664
0.0148639
0.0192105
0.0232023
0.0262756
0.0283661
0.0297388
0.0307573
0.0317177
0.032731
0.0336564
0.034178
0.0340972
0.0335753
0.033012
0.0327587
0.0329614
0.0335722
0.0344314
0.0353406
0.0361258
0.0366361
0.0368011
0.0365834
0.035987
0.0350437
0.0338022
0.0323194
0.030654
0.028862
0.0269955
0.0250999
0.0232146
0.021371
0.0195969
0.0179164
0.0163692
0.0150338
0.0141284
0.0140817
0.015474
0.0182747
0.0219569
0.0255037
0.0290259
0.031436
0.0343327
0.0350303
0.295458
0.154875
0.0881468
0.0535671
0.0343663
0.0230889
0.0161717
0.0118161
0.00909144
0.00754383
0.00703022
0.00764226
0.00958005
0.0128475
0.0169574
0.0210809
0.0245372
0.0270887
0.028879
0.0302244
0.0314297
0.0326485
0.0337891
0.0345509
0.0346922
0.0343041
0.0337485
0.0333882
0.0334084
0.0338023
0.0344423
0.0351511
0.0357662
0.0361408
0.0362067
0.0359234
0.0352898
0.034332
0.0330932
0.0316256
0.0299839
0.028221
0.0263864
0.0245236
0.0226707
0.0208581
0.0191128
0.0174581
0.0159303
0.0145995
0.0136647
0.0135377
0.0148304
0.01761
0.0213761
0.0250696
0.0287143
0.0311991
0.0340698
0.0347469
0.295434
0.154978
0.0883267
0.0537704
0.0345618
0.0232603
0.0163075
0.0119017
0.00909971
0.0074225
0.00668382
0.00692099
0.00832193
0.0110129
0.0147402
0.0188246
0.0225407
0.0254974
0.0277001
0.0293926
0.0308679
0.032311
0.0336789
0.0346959
0.0350868
0.034872
0.0343662
0.0339351
0.0337988
0.0339924
0.0344222
0.0349347
0.0353801
0.0356186
0.0355839
0.0352331
0.0345607
0.0335872
0.0323505
0.030898
0.0292803
0.0275473
0.0257457
0.0239172
0.0220981
0.0203181
0.0186032
0.0169758
0.0154694
0.0141457
0.013184
0.0129746
0.0141504
0.0168786
0.0206998
0.0245236
0.028284
0.0308497
0.0337051
0.0343818
0.295412
0.155076
0.0884977
0.0539643
0.0347493
0.0234263
0.0164421
0.011993
0.00912697
0.00734529
0.00642668
0.00635714
0.00728684
0.00940004
0.0126378
0.016517
0.0203464
0.0236224
0.0262083
0.0282529
0.0300163
0.0317003
0.0333062
0.0345907
0.035256
0.0352536
0.0348425
0.0343814
0.0341199
0.0341344
0.0343672
0.0346905
0.0349682
0.0350721
0.0349362
0.0345166
0.0338037
0.0328132
0.0315777
0.0301399
0.0285464
0.0268437
0.0250759
0.0232825
0.0214984
0.0197522
0.0180689
0.0164701
0.0149867
0.0136728
0.0126876
0.0123954
0.0134393
0.0160856
0.0199314
0.023867
0.0277354
0.0303879
0.0332394
0.0339357
0.295392
0.155169
0.08866
0.0541491
0.0349289
0.0235867
0.0165745
0.0120881
0.00916859
0.00730255
0.00624102
0.00592545
0.0064574
0.00802863
0.0107165
0.0142452
0.0180291
0.0215102
0.0244229
0.0268063
0.0288655
0.0308019
0.0326538
0.0342146
0.0351753
0.0354228
0.0351532
0.034707
0.0343568
0.0342184
0.0342713
0.0344161
0.0345309
0.034503
0.0342664
0.0337771
0.0330225
0.0320136
0.0307783
0.0293545
0.0277849
0.0261126
0.0243789
0.0226213
0.0208729
0.0191613
0.0175106
0.0159415
0.0144826
0.0131812
0.0121764
0.0118031
0.012703
0.0152376
0.0190759
0.0231028
0.0270703
0.0298153
0.0326742
0.03341
0.295374
0.155257
0.0888141
0.0543251
0.0351008
0.0237413
0.0167043
0.0121853
0.00922086
0.00728647
0.00611181
0.00560174
0.0058087
0.0068991
0.00902446
0.0120922
0.0156736
0.0192238
0.0223794
0.0250655
0.0274139
0.0296068
0.0317081
0.0335497
0.0348218
0.0353537
0.0352726
0.0348896
0.034492
0.034232
0.0341268
0.0341071
0.0340676
0.0339118
0.033576
0.033017