/*--------------------------------*- C++ -*----------------------------------*\
| =========                 |                                                 |
| \\      /  F ield         | OpenFOAM: The Open Source CFD Toolbox           |
|  \\    /   O peration     | Version:  2.4.0                                 |
|   \\  /    A nd           | Web:      www.OpenFOAM.org                      |
|    \\/     M anipulation  |                                                 |
\*---------------------------------------------------------------------------*/
FoamFile
{
    version     2.0;
    format      ascii;
    class       surfaceScalarField;
    location    "4.99";
    object      phi;
}
// * * * * * * * * * * * * * * * * * * * * * * * * * * * * * * * * * * * * * //

dimensions      [0 3 -1 0 0 0 0];

internalField   nonuniform List<scalar> 
11840
(
7.83547e-07
9.21645e-06
-9.36203e-07
1.71975e-06
6.5842e-07
-1.59462e-06
1.46013e-07
5.12407e-07
-2.06064e-07
3.52078e-07
-3.0459e-07
9.85259e-08
-4.08651e-07
1.04061e-07
-5.05009e-07
9.63576e-08
-6.974e-07
1.9239e-07
-8.69357e-07
1.71957e-07
-1.12603e-06
2.56669e-07
-1.33358e-06
2.07553e-07
-1.54456e-06
2.10982e-07
-1.67202e-06
1.27458e-07
-1.75215e-06
8.01307e-08
-1.79619e-06
4.40439e-08
-1.89503e-06
9.88322e-08
-2.10754e-06
2.12518e-07
-2.43429e-06
3.2675e-07
-2.79116e-06
3.5687e-07
-3.10276e-06
3.11599e-07
-3.35204e-06
2.4928e-07
-3.55471e-06
2.02665e-07
-3.7204e-06
1.65695e-07
-3.85404e-06
1.33637e-07
-3.95724e-06
1.03202e-07
-4.0299e-06
7.26613e-08
-4.0706e-06
4.06951e-08
-4.07599e-06
5.39039e-09
-4.04584e-06
-3.01463e-08
-3.9811e-06
-6.47399e-08
-3.88089e-06
-1.00218e-07
-3.74464e-06
-1.3625e-07
-3.57218e-06
-1.72461e-07
-3.36404e-06
-2.0814e-07
-3.12094e-06
-2.43093e-07
-2.84477e-06
-2.76168e-07
-2.53676e-06
-3.08019e-07
-2.20053e-06
-3.36222e-07
-1.83653e-06
-3.64003e-07
-1.45141e-06
-3.85123e-07
-1.04193e-06
-4.09473e-07
-6.20584e-07
-4.2135e-07
-1.7692e-07
-4.43664e-07
2.6715e-07
-4.4407e-07
7.3431e-07
-4.6716e-07
1.18113e-06
-4.46824e-07
1.67306e-06
-4.91931e-07
2.10695e-06
-4.33882e-07
2.63305e-06
-5.26104e-07
3.02467e-06
-3.91618e-07
3.61137e-06
-5.86704e-07
3.90768e-06
-2.96304e-07
4.61078e-06
-7.03105e-07
4.71919e-06
-1.08406e-07
5.63122e-06
-9.12038e-07
5.40406e-06
2.27164e-07
6.71286e-06
-1.3088e-06
6.06875e-06
6.44105e-07
-2.52634e-06
2.45144e-06
1.6765e-05
-5.06828e-07
4.67801e-06
3.68191e-07
-2.46964e-06
-8.68326e-08
9.67431e-07
-3.12331e-07
5.77576e-07
-4.66895e-07
2.5309e-07
-5.67348e-07
2.04515e-07
-6.87277e-07
2.16286e-07
-8.83819e-07
3.88933e-07
-1.08015e-06
3.68288e-07
-1.32544e-06
5.01963e-07
-1.53756e-06
4.1967e-07
-1.72531e-06
3.98728e-07
-1.84734e-06
2.49492e-07
-1.92502e-06
1.57807e-07
-1.99264e-06
1.11666e-07
-2.12369e-06
2.29886e-07
-2.36343e-06
4.52255e-07
-2.6873e-06
6.50622e-07
-3.01336e-06
6.82924e-07
-3.28836e-06
5.86606e-07
-3.51023e-06
4.71148e-07
-3.69141e-06
3.83844e-07
-3.8383e-06
3.1259e-07
-3.95389e-06
2.49225e-07
-4.03886e-06
1.88175e-07
-4.09282e-06
1.2662e-07
-4.11471e-06
6.25849e-08
-4.1046e-06
-4.72581e-09
-4.06081e-06
-7.39373e-08
-3.9817e-06
-1.43844e-07
-3.86621e-06
-2.15711e-07
-3.71383e-06
-2.88631e-07
-3.52453e-06
-3.6176e-07
-3.29888e-06
-4.33792e-07
-3.0379e-06
-5.04071e-07
-2.74331e-06
-5.70752e-07
-2.41706e-06
-6.3427e-07
-2.06192e-06
-6.91361e-07
-1.68029e-06
-7.45637e-07
-1.27579e-06
-7.89618e-07
-8.50693e-07
-8.34574e-07
-4.09079e-07
-8.62964e-07
4.70923e-08
-8.99836e-07
5.12824e-07
-9.09802e-07
9.89514e-07
-9.4385e-07
1.46769e-06
-9.24996e-07
1.95855e-06
-9.82796e-07
2.44015e-06
-9.15485e-07
2.94401e-06
-1.02996e-06
3.41557e-06
-8.63183e-07
3.93789e-06
-1.10902e-06
4.37496e-06
-7.33369e-07
4.93541e-06
-1.26355e-06
5.28991e-06
-4.62909e-07
5.943e-06
-1.56513e-06
6.13289e-06
3.72713e-08
6.99067e-06
-2.16658e-06
7.0235e-06
6.11279e-07
-4.13337e-06
3.60695e-06
2.31581e-05
1.72759e-08
8.26769e-06
5.84817e-08
-2.51085e-06
-3.0483e-07
1.33074e-06
-3.68238e-07
6.40984e-07
-5.31952e-07
4.16804e-07
-6.20132e-07
2.92694e-07
-7.48309e-07
3.44464e-07
-9.28231e-07
5.68854e-07
-1.12702e-06
5.67078e-07
-1.35335e-06
7.28295e-07
-1.56252e-06
6.28834e-07
-1.7428e-06
5.7901e-07
-1.87134e-06
3.78029e-07
-1.9588e-06
2.45269e-07
-2.03966e-06
1.92528e-07
-2.17441e-06
3.64638e-07
-2.40236e-06
6.80205e-07
-2.70031e-06
9.48574e-07
-2.99998e-06
9.82593e-07
-3.25719e-06
8.43808e-07
-3.46823e-06
6.82195e-07
-3.64104e-06
5.56654e-07
-3.78059e-06
4.52134e-07
-3.88926e-06
3.57898e-07
-3.96759e-06
2.66502e-07
-4.01514e-06
1.7417e-07
-4.03108e-06
7.85231e-08
-4.01459e-06
-2.12064e-08
-3.96443e-06
-1.241e-07
-3.87883e-06
-2.2944e-07
-3.75692e-06
-3.37623e-07
-3.59823e-06
-4.47326e-07
-3.40277e-06
-5.57216e-07
-3.17114e-06
-6.65425e-07
-2.90444e-06
-7.7077e-07
-2.60437e-06
-8.70825e-07
-2.27303e-06
-9.65602e-07
-1.91304e-06
-1.05136e-06
-1.5272e-06
-1.13147e-06
-1.11853e-06
-1.19829e-06
-6.90369e-07
-1.26274e-06
-2.45242e-07
-1.30809e-06
2.12871e-07
-1.35795e-06
6.82246e-07
-1.37918e-06
1.15989e-06
-1.42149e-06
1.64386e-06
-1.40897e-06
2.13305e-06
-1.47199e-06
2.62422e-06
-1.40665e-06
3.12015e-06
-1.52588e-06
3.61055e-06
-1.35359e-06
4.11078e-06
-1.60925e-06
4.58819e-06
-1.21078e-06
5.09497e-06
-1.77033e-06
5.53678e-06
-9.04725e-07
6.06724e-06
-2.09558e-06
6.44008e-06
-3.35567e-07
7.04268e-06
-2.76918e-06
7.41727e-06
2.36691e-07
-5.2232e-06
4.52847e-06
2.86296e-05
7.56552e-07
1.20396e-05
-2.33634e-07
-1.52066e-06
-4.60399e-07
1.55751e-06
-3.98769e-07
5.79354e-07
-5.63687e-07
5.81721e-07
-6.42042e-07
3.71049e-07
-7.73682e-07
4.76104e-07
-9.39054e-07
7.34226e-07
-1.13423e-06
7.62252e-07
-1.3471e-06
9.41168e-07
-1.552e-06
8.33737e-07
-1.72952e-06
7.56526e-07
-1.86422e-06
5.1273e-07
-1.96127e-06
3.42317e-07
-2.0517e-06
2.82959e-07
-2.18641e-06
4.99348e-07
-2.40011e-06
8.93908e-07
-2.67413e-06
1.22259e-06
-2.95205e-06
1.26051e-06
-3.19516e-06
1.08692e-06
-3.39727e-06
8.84305e-07
-3.56309e-06
7.22471e-07
-3.69652e-06
5.85565e-07
-3.79954e-06
4.60922e-07
-3.87256e-06
3.39518e-07
-3.91511e-06
2.16723e-07
-3.92633e-06
8.97437e-08
-3.90523e-06
-4.23151e-08
-3.85042e-06
-1.7891e-07
-3.76039e-06
-3.19468e-07
-3.63427e-06
-4.63745e-07
-3.47161e-06
-6.09985e-07
-3.27246e-06
-7.56367e-07
-3.03741e-06
-9.00468e-07
-2.76763e-06
-1.04055e-06
-2.4648e-06
-1.17366e-06
-2.13111e-06
-1.2993e-06
-1.76909e-06
-1.41337e-06
-1.38173e-06
-1.51883e-06
-9.71858e-07
-1.60816e-06
-5.43106e-07
-1.69149e-06
-9.76106e-08
-1.75359e-06
3.60252e-07
-1.81581e-06
8.29627e-07
-1.84855e-06
1.30639e-06
-1.89825e-06
1.7907e-06
-1.89329e-06
2.27786e-06
-1.95914e-06
2.7702e-06
-1.899e-06
3.26167e-06
-2.01735e-06
3.75609e-06
-1.848e-06
4.24661e-06
-2.09977e-06
4.73553e-06
-1.6997e-06
5.22062e-06
-2.25542e-06
5.6919e-06
-1.376e-06
6.17274e-06
-2.57643e-06
6.61478e-06
-7.77611e-07
7.11009e-06
-3.26449e-06
7.61927e-06
-2.72488e-07
-6.06393e-06
5.30458e-06
3.3325e-05
1.49058e-06
1.58536e-05
-2.59649e-07
2.29571e-07
-5.5157e-07
1.84943e-06
-4.1942e-07
4.47204e-07
-5.8073e-07
7.43031e-07
-6.51453e-07
4.41772e-07
-7.83022e-07
6.07673e-07
-9.36405e-07
8.8761e-07
-1.12519e-06
9.51035e-07
-1.32727e-06
1.14325e-06
-1.52748e-06
1.03395e-06
-1.70361e-06
9.32655e-07
-1.84381e-06
6.52937e-07
-1.94962e-06
4.4812e-07
-2.04769e-06
3.81031e-07
-2.18086e-06
6.32516e-07
-2.38008e-06
1.09313e-06
-2.63181e-06
1.47432e-06
-2.89004e-06
1.51874e-06
-3.12026e-06
1.31714e-06
-3.31393e-06
1.07798e-06
-3.47317e-06
8.81707e-07
-3.60091e-06
7.13303e-07
-3.69874e-06
5.5876e-07
-3.76696e-06
4.0773e-07
-3.80504e-06
2.54808e-07
-3.81208e-06
9.67862e-08
-3.78697e-06
-6.74254e-08
-3.7283e-06
-2.37588e-07
-3.63467e-06
-4.13094e-07
-3.50523e-06
-5.93184e-07
-3.33954e-06
-7.75673e-07
-3.13767e-06
-9.58238e-07
-2.90023e-06
-1.13791e-06
-2.6284e-06
-1.31239e-06
-2.32387e-06
-1.47818e-06
-1.98888e-06
-1.63429e-06
-1.62595e-06
-1.7763e-06
-1.23813e-06
-1.90665e-06
-8.28182e-07
-2.01811e-06
-3.99845e-07
-2.11982e-06
4.48483e-08
-2.19828e-06
5.01527e-07
-2.27249e-06
9.69512e-07
-2.31654e-06
1.44442e-06
-2.37316e-06
1.92712e-06
-2.37599e-06
2.41164e-06
-2.44365e-06
2.90238e-06
-2.38975e-06
3.3899e-06
-2.50486e-06
3.88366e-06
-2.34176e-06
4.36772e-06
-2.58384e-06
4.85913e-06
-2.19111e-06
5.33223e-06
-2.72853e-06
5.81415e-06
-1.85791e-06
6.26993e-06
-3.03221e-06
6.74098e-06
-1.24867e-06
7.18437e-06
-3.70788e-06
7.74814e-06
-8.36261e-07
-6.76579e-06
5.97548e-06
3.73495e-05
2.24013e-06
1.9589e-05
-6.28158e-08
2.53251e-06
-5.83075e-07
2.36969e-06
-4.36619e-07
3.00748e-07
-5.89269e-07
8.95681e-07
-6.538e-07
5.06303e-07
-7.83129e-07
7.37003e-07
-9.25979e-07
1.03046e-06
-1.10714e-06
1.1322e-06
-1.29962e-06
1.33573e-06
-1.49495e-06
1.22927e-06
-1.67005e-06
1.10776e-06
-1.81512e-06
7.98011e-07
-1.92884e-06
5.61834e-07
-2.0333e-06
4.85491e-07
-2.16415e-06
7.63373e-07
-2.34914e-06
1.27812e-06
-2.57983e-06
1.70501e-06
-2.81951e-06
1.75842e-06
-3.03731e-06
1.53494e-06
-3.22267e-06
1.26333e-06
-3.37544e-06
1.03448e-06
-3.49765e-06
8.3551e-07
-3.59051e-06
6.51618e-07
-3.65415e-06
4.71374e-07
-3.68803e-06
2.88682e-07
-3.69116e-06
9.99252e-08
-3.66238e-06
-9.62136e-08
-3.60024e-06
-2.9972e-07
-3.50346e-06
-5.09878e-07
-3.37117e-06
-7.25473e-07
-3.20295e-06
-9.43894e-07
-2.99887e-06
-1.16231e-06
-2.75957e-06
-1.37721e-06
-2.48623e-06
-1.58572e-06
-2.18058e-06
-1.78384e-06
-1.84486e-06
-1.97001e-06
-1.48161e-06
-2.13955e-06
-1.09391e-06
-2.29435e-06
-6.84516e-07
-2.42751e-06
-2.5717e-07
-2.54717e-06
1.8608e-07
-2.64153e-06
6.40992e-07
-2.7274e-06
1.10684e-06
-2.78238e-06
1.57925e-06
-2.84557e-06
2.05934e-06
-2.85608e-06
2.54067e-06
-2.92498e-06
3.0285e-06
-2.87758e-06
3.51193e-06
-2.9883e-06
4.00301e-06
-2.83284e-06
4.48155e-06
-3.06238e-06
4.97177e-06
-2.68132e-06
5.43636e-06
-3.19312e-06
5.92137e-06
-2.34293e-06
6.36163e-06
-3.47246e-06
6.8455e-06
-1.73253e-06
7.25931e-06
-4.1217e-06
7.84503e-06
-1.42198e-06
-7.37608e-06
6.56074e-06
4.07888e-05
2.97403e-06
2.31757e-05
2.30281e-07
5.27626e-06
-5.36343e-07
3.13631e-06
-4.51545e-07
2.1595e-07
-5.91854e-07
1.03599e-06
-6.51114e-07
5.65564e-07
-7.76971e-07
8.62859e-07
-9.10097e-07
1.16358e-06
-1.08306e-06
1.30517e-06
-1.26651e-06
1.51918e-06
-1.45678e-06
1.41954e-06
-1.6308e-06
1.28178e-06
-1.7801e-06
9.47313e-07
-1.90092e-06
6.82652e-07
-2.01084e-06
5.95414e-07
-2.13898e-06
8.91508e-07
-2.31019e-06
1.44933e-06
-2.52089e-06
1.91571e-06
-2.74277e-06
1.9803e-06
-2.94832e-06
1.74048e-06
-3.1253e-06
1.44032e-06
-3.27161e-06
1.18078e-06
-3.38832e-06
9.52222e-07
-3.47628e-06
7.39574e-07
-3.53546e-06
5.30559e-07
-3.56525e-06
3.18474e-07
-3.56464e-06
9.93092e-08
-3.53236e-06
-1.2849e-07
-3.46701e-06
-3.65067e-07
-3.36733e-06
-6.09557e-07
-3.23248e-06
-8.60331e-07
-3.06202e-06
-1.11435e-06
-2.85606e-06
-1.36828e-06
-2.61522e-06
-1.61805e-06
-2.34073e-06
-1.86022e-06
-2.0343e-06
-2.09026e-06
-1.69822e-06
-2.30609e-06
-1.33503e-06
-2.50274e-06
-9.47847e-07
-2.68153e-06
-5.39408e-07
-2.83595e-06
-1.13449e-07
-2.97313e-06
3.27933e-07
-3.08291e-06
7.80647e-07
-3.18012e-06
1.24385e-06
-3.24558e-06
1.71328e-06
-3.315e-06
2.19011e-06
-3.33291e-06
2.6678e-06
-3.40268e-06
3.15191e-06
-3.36169e-06
3.631e-06
-3.46739e-06
4.11827e-06
-3.32011e-06
4.59153e-06
-3.53564e-06
5.07865e-06
-3.16844e-06
5.53621e-06
-3.65068e-06
6.0206e-06
-2.82731e-06
6.44973e-06
-3.9016e-06
6.93857e-06
-2.22137e-06
7.33325e-06
-4.51637e-06
7.92549e-06
-2.01421e-06
-7.91861e-06
7.07178e-06
4.3717e-05
3.68661e-06
2.65608e-05
6.53724e-07
8.30915e-06
-4.06509e-07
4.19654e-06
-4.60282e-07
2.69723e-07
-5.89519e-07
1.16523e-06
-6.44252e-07
6.20296e-07
-7.66002e-07
9.8461e-07
-8.89911e-07
1.28749e-06
-1.05439e-06
1.46965e-06
-1.22908e-06
1.69387e-06
-1.41408e-06
1.60453e-06
-1.58678e-06
1.45447e-06
-1.73966e-06
1.10019e-06
-1.8668e-06
8.09797e-07
-1.98145e-06
7.10061e-07
-2.10667e-06
1.01673e-06
-2.26469e-06
1.60736e-06
-2.45634e-06
2.10737e-06
-2.66098e-06
2.18494e-06
-2.85431e-06
1.93381e-06
-3.02278e-06
1.6088e-06
-3.16252e-06
1.32052e-06
-3.27369e-06
1.0634e-06
-3.35676e-06
8.22635e-07
-3.41152e-06
5.85323e-07
-3.43729e-06
3.44241e-07
-3.43299e-06
9.50162e-08
-3.39734e-06
-1.64143e-07
-3.32893e-06
-4.33481e-07
-3.22652e-06
-7.11965e-07
-3.08928e-06
-9.97573e-07
-2.91679e-06
-1.28684e-06
-2.70915e-06
-1.57592e-06
-2.467e-06
-1.86019e-06
-2.19159e-06
-2.13563e-06
-1.88464e-06
-2.39721e-06
-1.54847e-06
-2.64226e-06
-1.18561e-06
-2.8656e-06
-7.9922e-07
-3.06793e-06
-3.92041e-07
-3.24313e-06
3.22268e-08
-3.3974e-06
4.71416e-07
-3.5221e-06
9.21583e-07
-3.63028e-06
1.38176e-06
-3.70576e-06
1.84782e-06
-3.78107e-06
2.3209e-06
-3.80599e-06
2.79457e-06
-3.87634e-06
3.27439e-06
-3.84151e-06
3.74884e-06
-3.94184e-06
4.23156e-06
-3.80283e-06
4.69951e-06
-4.00359e-06
5.18239e-06
-3.65133e-06
5.63354e-06
-4.10183e-06
6.11519e-06
-3.30896e-06
6.53544e-06
-4.32184e-06
7.02494e-06
-2.71088e-06
7.40586e-06
-4.89729e-06
7.99645e-06
-2.6048e-06
-8.40707e-06
7.51722e-06
4.61998e-05
4.37158e-06
2.97065e-05
1.18034e-06
1.15004e-05
-2.07562e-07
5.58445e-06
-4.53441e-07
5.15601e-07
-5.82292e-07
1.29408e-06
-6.33522e-07
6.71527e-07
-7.50963e-07
1.10205e-06
-8.66037e-07
1.40257e-06
-1.02192e-06
1.62553e-06
-1.18797e-06
1.85991e-06
-1.36746e-06
1.78402e-06
-1.53846e-06
1.62548e-06
-1.69424e-06
1.25597e-06
-1.82696e-06
9.42515e-07
-1.9457e-06
8.28807e-07
-2.06795e-06
1.13897e-06
-2.21344e-06
1.75285e-06
-2.38696e-06
2.28089e-06
-2.57482e-06
2.3728e-06
-2.75587e-06
2.11486e-06
-2.91565e-06
1.76857e-06
-3.04866e-06
1.45353e-06
-3.15422e-06
1.16896e-06
-3.23234e-06
9.00758e-07
-3.28268e-06
6.35655e-07
-3.30443e-06
3.65996e-07
-3.2965e-06
8.70811e-08
-3.25753e-06
-2.03105e-07
-3.18614e-06
-5.0487e-07
-3.08112e-06
-8.16993e-07
-2.94161e-06
-1.13708e-06
-2.76722e-06
-1.46123e-06
-2.55806e-06
-1.78508e-06
-2.31477e-06
-2.10348e-06
-2.03861e-06
-2.41179e-06
-1.73134e-06
-2.70449e-06
-1.39526e-06
-2.97834e-06
-1.03297e-06
-3.22789e-06
-6.47591e-07
-3.4533e-06
-2.41914e-07
-3.6488e-06
1.8041e-07
-3.81972e-06
6.17137e-07
-3.95883e-06
1.06446e-06
-4.07761e-06
1.52128e-06
-4.16258e-06
1.98364e-06
-4.24343e-06
2.4526e-06
-4.27494e-06
2.92187e-06
-4.34562e-06
3.39696e-06
-4.3166e-06
3.86646e-06
-4.41134e-06
4.3441e-06
-4.28047e-06
4.80658e-06
-4.46607e-06
5.28446e-06
-4.12921e-06
5.72945e-06
-4.54682e-06
6.20702e-06
-3.78653e-06
6.61957e-06
-4.73439e-06
7.1071e-06
-3.19841e-06
7.47721e-06
-5.2674e-06
8.06143e-06
-3.18902e-06
-8.85016e-06
7.90474e-06
4.82951e-05
5.02305e-06
3.25882e-05
1.77317e-06
1.47503e-05
5.76075e-08
7.30001e-06
-4.2098e-07
9.94188e-07
-5.69177e-07
1.44228e-06
-6.18883e-07
7.21234e-07
-7.3218e-07
1.21535e-06
-8.38788e-07
1.50918e-06
-9.86066e-07
1.77281e-06
-1.1435e-06
2.01735e-06
-1.31722e-06
1.95774e-06
-1.48609e-06
1.79435e-06
-1.64409e-06
1.41397e-06
-1.78163e-06
1.08006e-06
-1.90393e-06
9.51104e-07
-2.02324e-06
1.25829e-06
-2.15692e-06
1.88653e-06
-2.31319e-06
2.43715e-06
-2.48467e-06
2.54428e-06
-2.65338e-06
2.28358e-06
-2.80423e-06
1.91942e-06
-2.93035e-06
1.57964e-06
-3.03016e-06
1.26878e-06
-3.10328e-06
9.73871e-07
-3.14914e-06
6.81514e-07
-3.16686e-06
3.83723e-07
-3.15529e-06
7.55092e-08
-3.11305e-06
-2.45346e-07
-3.03874e-06
-5.79179e-07
-2.93117e-06
-9.24569e-07
-2.78949e-06
-1.27876e-06
-2.6133e-06
-1.63741e-06
-2.40272e-06
-1.99566e-06
-2.15842e-06
-2.34778e-06
-1.88166e-06
-2.68855e-06
-1.5742e-06
-3.01194e-06
-1.2384e-06
-3.31414e-06
-8.76833e-07
-3.58946e-06
-4.92668e-07
-3.83747e-06
-8.86992e-08
-4.05277e-06
3.3146e-07
-4.23988e-06
7.65487e-07
-4.39285e-06
1.2097e-06
-4.52182e-06
1.6629e-06
-4.61578e-06
2.12125e-06
-4.70178e-06
2.58574e-06
-4.73943e-06
3.05031e-06
-4.81019e-06
3.52029e-06
-4.78658e-06
3.98454e-06
-4.87559e-06
4.45665e-06
-4.75258e-06
4.91346e-06
-4.92289e-06
5.38575e-06
-4.6015e-06
5.82464e-06
-4.98571e-06
6.29719e-06
-4.25908e-06
6.7027e-06
-5.1399e-06
7.1865e-06
-3.68221e-06
7.54748e-06
-5.62837e-06
8.12241e-06
-3.76395e-06
-9.25386e-06
8.24131e-06
5.00537e-05
5.63642e-06
3.51931e-05
2.41054e-06
1.79761e-05
4.34573e-07
9.27598e-06
-3.52198e-07
1.78096e-06
-5.4779e-07
1.63787e-06
-5.99957e-07
7.73401e-07
-7.09697e-07
1.32509e-06
-8.08278e-07
1.60776e-06
-9.47047e-07
1.91158e-06
-1.09587e-06
2.16618e-06
-1.26354e-06
2.12541e-06
-1.4298e-06
1.9606e-06
-1.5893e-06
1.57346e-06
-1.73092e-06
1.22169e-06
-1.85627e-06
1.07645e-06
-1.97276e-06
1.37478e-06
-2.09539e-06
2.00915e-06
-2.23527e-06
2.57704e-06
-2.39078e-06
2.69978e-06
-2.54706e-06
2.43986e-06
-2.68875e-06
2.06111e-06
-2.80776e-06
1.69865e-06
-2.9017e-06
1.36271e-06
-2.9697e-06
1.04187e-06
-3.01102e-06
7.22836e-07
-3.02468e-06
3.97383e-07
-3.00946e-06
6.02855e-08
-2.96395e-06
-2.90854e-07
-2.88675e-06
-6.56376e-07
-2.77667e-06
-1.03465e-06
-2.63288e-06
-1.42255e-06
-2.45498e-06
-1.81532e-06
-2.24308e-06
-2.20756e-06
-1.99786e-06
-2.59299e-06
-1.72061e-06
-2.96581e-06
-1.4131e-06
-3.31945e-06
-1.07771e-06
-3.64953e-06
-7.17034e-07
-3.95013e-06
-3.34247e-07
-4.22026e-06
6.78288e-08
-4.45485e-06
4.85619e-07
-4.65767e-06
9.1673e-07
-4.82396e-06
1.35759e-06
-4.96268e-06
1.8069e-06
-5.06509e-06
2.26097e-06
-5.15586e-06
2.7207e-06
-5.19916e-06
3.18026e-06
-5.26974e-06
3.6448e-06
-5.25113e-06
4.1035e-06
-5.33428e-06
4.56972e-06
-5.21879e-06
5.02063e-06
-5.3738e-06
5.48687e-06
-5.06774e-06
5.91958e-06
-5.41841e-06
6.38643e-06
-4.72594e-06
6.78522e-06
-5.53869e-06
7.26406e-06
-4.16106e-06
7.61685e-06
-5.98116e-06
8.18062e-06
-4.32771e-06
-9.6225e-06
8.53315e-06
5.15206e-05
6.20839e-06
3.75178e-05
3.07023e-06
2.11143e-05
8.67938e-07
1.14783e-05
-2.21002e-07
2.8699e-06
-5.1342e-07
1.93029e-06
-5.75921e-07
8.35901e-07
-6.83304e-07
1.43247e-06
-7.74452e-07
1.6989e-06
-9.04921e-07
2.04205e-06
-1.04514e-06
2.3064e-06
-1.20649e-06
2.28676e-06
-1.36961e-06
2.12373e-06
-1.52989e-06
1.73374e-06
-1.67486e-06
1.36666e-06
-1.8028e-06
1.20439e-06
-1.91661e-06
1.4886e-06
-2.02895e-06
2.12149e-06
-2.15333e-06
2.70142e-06
-2.29325e-06
2.83971e-06
-2.43704e-06
2.58365e-06
-2.56934e-06
2.19341e-06
-2.68103e-06
1.81035e-06
-2.76892e-06
1.45059e-06
-2.83169e-06
1.10465e-06
-2.8684e-06
7.5954e-07
-2.87794e-06
4.06923e-07
-2.85903e-06
4.13804e-08
-2.81025e-06
-3.39637e-07
-2.73018e-06
-7.36446e-07
-2.61763e-06
-1.14719e-06
-2.47178e-06
-1.56841e-06
-2.29221e-06
-1.99489e-06
-2.07906e-06
-2.42071e-06
-1.83302e-06
-2.83904e-06
-1.55538e-06
-3.24345e-06
-1.24794e-06
-3.62689e-06
-9.13083e-07
-3.98439e-06
-5.53439e-07
-4.30978e-06
-1.72185e-07
-4.60151e-06
2.27828e-07
-4.85486e-06
6.43058e-07
-5.0729e-06
1.07105e-06
-5.25196e-06
1.50832e-06
-5.39995e-06
1.95351e-06
-5.51027e-06
2.40305e-06
-5.60539e-06
2.85774e-06
-5.65385e-06
3.312e-06
-5.72401e-06
3.7708e-06
-5.70993e-06
4.22367e-06
-5.78715e-06
4.68366e-06
-5.67878e-06
5.12842e-06
-5.81856e-06
5.58822e-06
-5.52755e-06
6.0146e-06
-5.84479e-06
6.47521e-06
-5.18654e-06
6.86741e-06
-5.93089e-06
7.34039e-06
-4.63404e-06
7.68549e-06
-6.32626e-06
8.23684e-06
-4.87907e-06
-9.95939e-06
8.7858e-06
5.27348e-05
6.73701e-06
3.95666e-05
3.73619e-06
2.41151e-05
1.36203e-06
1.38524e-05
-6.5195e-09
4.23845e-06
-4.57512e-07
2.38128e-06
-5.45258e-07
9.23647e-07
-6.52521e-07
1.53973e-06
-7.371e-07
1.78348e-06
-8.59617e-07
2.16457e-06
-9.91267e-07
2.43805e-06
-1.14603e-06
2.44152e-06
-1.30551e-06
2.2832e-06
-1.46584e-06
1.89408e-06
-1.61341e-06
1.51423e-06
-1.74348e-06
1.33446e-06
-1.85479e-06
1.59991e-06
-1.95762e-06
2.22431e-06
-2.06737e-06
2.81117e-06
-2.19214e-06
2.96448e-06
-2.32338e-06
2.71489e-06
-2.44606e-06
2.31609e-06
-2.55021e-06
1.9145e-06
-2.63188e-06
1.53226e-06
-2.6893e-06
1.16208e-06
-2.7213e-06
7.91535e-07
-2.72665e-06
4.12279e-07
-2.70402e-06
1.87538e-08
-2.65195e-06
-3.91711e-07
-2.56901e-06
-8.19386e-07
-2.45402e-06
-1.26219e-06
-2.30613e-06
-1.7163e-06
-2.12495e-06
-2.17607e-06
-1.91062e-06
-2.63504e-06
-1.66383e-06
-3.08582e-06
-1.38589e-06
-3.52139e-06
-1.07862e-06
-3.93416e-06
-7.44426e-07
-4.31858e-06
-3.85947e-07
-4.66826e-06
-6.37226e-09
-4.98109e-06
3.91415e-07
-5.25265e-06
8.03902e-07
-5.48539e-06
1.22858e-06
-5.67663e-06
1.66205e-06
-5.83343e-06
2.10289e-06
-5.95111e-06
2.54763e-06
-6.05014e-06
2.99703e-06
-6.10324e-06
3.44572e-06
-6.1727e-06
3.8985e-06
-6.16271e-06
4.34525e-06
-6.23391e-06
4.79871e-06
-6.13224e-06
5.23706e-06
-6.25691e-06
5.69009e-06
-5.98058e-06
6.10997e-06
-6.26467e-06
6.56388e-06
-5.64045e-06
6.94949e-06
-6.3165e-06
7.41589e-06
-5.10043e-06
7.75353e-06
-6.6639e-06
8.29162e-06
-5.41716e-06
-1.02671e-05
9.00427e-06
5.37305e-05
7.22155e-06
4.13493e-05
4.39629e-06
2.69404e-05
1.90645e-06
1.63423e-05
2.38056e-07
5.90684e-06
-3.66594e-07
2.98593e-06
-5.05332e-07
1.06238e-06
-6.16524e-07
1.65093e-06
-6.95836e-07
1.86279e-06
-8.10938e-07
2.27967e-06
-9.34127e-07
2.56123e-06
-1.08209e-06
2.58949e-06
-1.2374e-06
2.43851e-06
-1.39706e-06
2.05375e-06
-1.54649e-06
1.66366e-06
-1.67826e-06
1.46623e-06
-1.78724e-06
1.70889e-06
-1.88135e-06
2.31842e-06
-1.97734e-06
2.90717e-06
-2.08741e-06
3.07455e-06
-2.20608e-06
2.83356e-06
-2.31893e-06
2.42893e-06
-2.41533e-06
2.0109e-06
-2.49059e-06
1.60752e-06
-2.54253e-06
1.21402e-06
-2.56971e-06
8.18718e-07
-2.57081e-06
4.13378e-07
-2.54441e-06
-7.6413e-09
-2.48902e-06
-4.471e-07
-2.40321e-06
-9.05199e-07
-2.28578e-06
-1.37962e-06
-2.13589e-06
-1.86618e-06
-1.95315e-06
-2.35881e-06
-1.73769e-06
-2.85049e-06
-1.49023e-06
-3.33329e-06
-1.21208e-06
-3.79953e-06
-9.05087e-07
-4.24115e-06
-5.71664e-07
-4.652e-06
-2.1448e-07
-5.02544e-06
1.63273e-07
-5.35884e-06
5.58675e-07
-5.64805e-06
9.68241e-07
-5.89495e-06
1.38941e-06
-6.09781e-06
1.81887e-06
-6.26288e-06
2.25513e-06
-6.38737e-06
2.69485e-06
-6.48986e-06
3.1387e-06
-6.54709e-06
3.58156e-06
-6.61556e-06
4.02805e-06
-6.60919e-06
4.46842e-06
-6.67428e-06
4.91506e-06
-6.57888e-06
5.34674e-06
-6.68859e-06
5.79269e-06
-6.42652e-06
6.20586e-06
-6.67784e-06
6.65268e-06
-6.08728e-06
7.03163e-06
-6.69545e-06
7.49086e-06
-5.55967e-06
7.8211e-06
-6.99414e-06
8.34534e-06
-5.9414e-06
-1.05479e-05
9.19307e-06
5.45375e-05
7.66228e-06
4.28801e-05
5.04098e-06
2.95617e-05
2.49227e-06
1.8891e-05
5.75991e-07
7.82312e-06
-2.28034e-07
3.78995e-06
-4.51868e-07
1.28622e-06
-5.74005e-07
1.77306e-06
-6.50066e-07
1.93885e-06
-7.58552e-07
2.38815e-06
-8.73503e-07
2.67619e-06
-1.0145e-06
2.73049e-06
-1.16515e-06
2.58916e-06
-1.32343e-06
2.21202e-06
-1.47397e-06
1.8142e-06
-1.607e-06
1.59925e-06
-1.71383e-06
1.81572e-06
-1.79999e-06
2.40458e-06
-1.88312e-06
2.9903e-06
-1.97897e-06
3.1704e-06
-2.0851e-06
2.93969e-06
-2.18793e-06
2.53176e-06
-2.27635e-06
2.09932e-06
-2.34503e-06
1.67619e-06
-2.39134e-06
1.26032e-06
-2.41361e-06
8.40987e-07
-2.41037e-06
4.10146e-07
-2.38016e-06
-3.78564e-08
-2.32143e-06
-5.05834e-07
-2.23273e-06
-9.93893e-07
-2.11287e-06
-1.49948e-06
-1.96101e-06
-2.01805e-06
-1.77675e-06
-2.54307e-06
-1.56023e-06
-3.06701e-06
-1.31216e-06
-3.58135e-06
-1.03389e-06
-4.0778e-06
-7.2727e-07
-4.54778e-06
-3.94734e-07
-4.98454e-06
-3.89716e-08
-5.3812e-06
3.36816e-07
-5.73463e-06
7.29677e-07
-6.04091e-06
1.13614e-06
-6.30142e-06
1.55363e-06
-6.51529e-06
1.97886e-06
-6.68812e-06
2.41033e-06
-6.81884e-06
2.84479e-06
-6.92432e-06
3.28286e-06
-6.98516e-06
3.71963e-06
-7.05233e-06
4.15957e-06
-7.04913e-06
4.59329e-06
-7.108e-06
5.03285e-06
-7.01844e-06
5.4576e-06
-7.11334e-06
5.89616e-06
-6.86508e-06
6.3024e-06
-7.08408e-06
6.7418e-06
-6.52668e-06
7.11395e-06
-7.06759e-06
7.56553e-06
-6.01126e-06
7.88831e-06
-7.31692e-06
8.39829e-06
-6.45138e-06
-1.08034e-05
9.35626e-06
5.51812e-05
8.06032e-06
4.4176e-05
5.66266e-06
3.19593e-05
3.10913e-06
2.14445e-05
9.93816e-07
9.93843e-06
-3.90555e-08
4.82283e-06
-3.78611e-07
1.62577e-06
-5.22945e-07
1.9174e-06
-5.98918e-07
2.01483e-06
-7.01962e-07
2.4912e-06
-8.09072e-07
2.7833e-06
-9.43037e-07
2.86445e-06
-1.08859e-06
2.73471e-06
-1.24478e-06
2.36822e-06
-1.39571e-06
1.96512e-06
-1.52955e-06
1.7331e-06
-1.6344e-06
1.92057e-06
-1.71337e-06
2.48355e-06
-1.78453e-06
3.06145e-06
-1.86666e-06
3.25254e-06
-1.96032e-06
3.03335e-06
-2.05298e-06
2.62442e-06
-2.13323e-06
2.17957e-06
-2.19515e-06
1.73811e-06
-2.23568e-06
1.30086e-06
-2.25293e-06
8.58231e-07
-2.24529e-06
4.02503e-07
-2.2112e-06
-7.1945e-08
-2.14909e-06
-5.67941e-07
-2.0575e-06
-1.08548e-06
-1.93523e-06
-1.62175e-06
-1.78142e-06
-2.17186e-06
-1.59568e-06
-2.72881e-06
-1.37815e-06
-3.28454e-06
-1.12956e-06
-3.82994e-06
-8.51258e-07
-4.35611e-06
-5.4511e-07
-4.85393e-06
-2.13576e-07
-5.31608e-06
1.40634e-07
-5.73541e-06
5.14313e-07
-6.1083e-06
9.04474e-07
-6.43107e-06
1.30767e-06
-6.70461e-06
1.72127e-06
-6.92889e-06
2.14208e-06
-7.10892e-06
2.56854e-06
-7.2453e-06
2.99752e-06
-7.3533e-06
3.42956e-06
-7.4172e-06
3.86e-06
-7.48276e-06
4.29313e-06
-7.48226e-06
4.71994e-06
-7.53481e-06
5.15215e-06
-7.45065e-06
5.56972e-06
-7.53091e-06
6.00062e-06
-7.29599e-06
6.3997e-06
-7.48315e-06
6.83136e-06
-6.95834e-06
7.19653e-06
-7.43277e-06
7.64005e-06
-6.45477e-06
7.95524e-06
-7.6321e-06
8.45068e-06
-6.94683e-06
-1.10351e-05
9.49748e-06
5.56837e-05
8.41746e-06
4.52561e-05
6.25531e-06
3.41215e-05
3.74626e-06
2.39536e-05
1.48248e-06
1.22022e-05
2.31543e-07
6.07376e-06
-2.77336e-07
2.13465e-06
-4.60267e-07
2.10033e-06
-5.41155e-07
2.09571e-06
-6.40472e-07
2.59051e-06
-7.40386e-07
2.88321e-06
-8.67372e-07
2.99144e-06
-1.00745e-06
2.87478e-06
-1.16091e-06
2.52168e-06
-1.31149e-06
2.11571e-06
-1.44571e-06
1.86732e-06
-1.54872e-06
2.02357e-06
-1.62124e-06
2.55607e-06
-1.68131e-06
3.12153e-06
-1.75031e-06
3.32153e-06
-1.83162e-06
3.11466e-06
-1.91398e-06
2.70678e-06
-1.98587e-06
2.25146e-06
-2.04085e-06
1.7931e-06
-2.07548e-06
1.33549e-06
-2.0876e-06
8.70346e-07
-2.07547e-06
3.90371e-07
-2.03745e-06
-1.0996e-07
-1.97194e-06
-6.33453e-07
-1.87745e-06
-1.17996e-06
-1.75277e-06
-1.74643e-06
-1.59704e-06
-2.32759e-06
-1.40987e-06
-2.91599e-06
-1.1914e-06
-3.50301e-06
-9.42357e-07
-4.07898e-06
-6.64112e-07
-4.63435e-06
-3.58545e-07
-5.15949e-06
-2.81335e-08
-5.64649e-06
3.24391e-07
-6.08794e-06
6.95812e-07
-6.47972e-06
1.08311e-06
-6.81837e-06
1.48285e-06
-7.10436e-06
1.89239e-06
-7.33842e-06
2.30856e-06
-7.5251e-06
2.72981e-06
-7.66655e-06
3.15307e-06
-7.77657e-06
3.57887e-06
-7.843e-06
4.00272e-06
-7.90662e-06
4.42881e-06
-7.90835e-06
4.84845e-06
-7.95446e-06
5.27306e-06
-7.87525e-06
5.68318e-06
-7.94103e-06
6.10617e-06
-7.71897e-06
6.49784e-06
-7.87483e-06
6.92146e-06
-7.38196e-06
7.27947e-06
-7.79078e-06
7.71455e-06
-6.88985e-06
8.02197e-06
-7.93953e-06
8.50268e-06
-7.42754e-06
-1.12444e-05
9.62e-06
5.60637e-05
8.73597e-06
4.61401e-05
6.81434e-06
3.60431e-05
4.39317e-06
2.63747e-05
2.02936e-06
1.4566e-05
5.63174e-07
7.53995e-06
-1.33915e-07
2.83174e-06
-3.81355e-07
2.34777e-06
-4.75023e-07
2.18938e-06
-5.73124e-07
2.68862e-06
-6.66844e-07
2.97693e-06
-7.87084e-07
3.11168e-06
-9.21413e-07
3.00911e-06
-1.07153e-06
2.6718e-06
-1.22108e-06
2.26525e-06
-1.35523e-06
2.00147e-06
-1.45652e-06
2.12486e-06
-1.5233e-06
2.62285e-06
-1.57319e-06
3.17142e-06
-1.62965e-06
3.37798e-06
-1.69879e-06
3.1838e-06
-1.77077e-06
2.77877e-06
-1.83414e-06
2.31483e-06
-1.88204e-06
1.841e-06
-1.91062e-06
1.36408e-06
-1.91751e-06
8.77227e-07
-1.90081e-06
3.73674e-07
-1.85882e-06
-1.51953e-07
-1.78987e-06
-7.02398e-07
-1.69248e-06
-1.27736e-06
-1.56541e-06
-1.87351e-06
-1.40779e-06
-2.4852e-06
-1.21923e-06
-3.10455e-06
-9.99881e-07
-3.72236e-06
-7.50476e-07
-4.32838e-06
-4.72388e-07
-4.91244e-06
-1.67515e-07
-5.46437e-06
1.61649e-07
-5.97565e-06
5.12349e-07
-6.43864e-06
8.81359e-07
-6.84873e-06
1.26563e-06
-7.20264e-06
1.66174e-06
-7.50046e-06
2.06701e-06
-7.7437e-06
2.47834e-06
-7.93643e-06
2.89416e-06
-8.08236e-06
3.31148e-06
-8.19389e-06
3.7308e-06
-8.26232e-06
4.14783e-06
-8.32365e-06
4.56663e-06
-8.32715e-06
4.97885e-06
-8.36668e-06
5.39561e-06
-8.29201e-06
5.79804e-06
-8.34346e-06
6.21285e-06
-8.13379e-06
6.59687e-06
-8.25885e-06
7.01219e-06
-7.79728e-06
7.36282e-06
-8.14141e-06
7.78912e-06
-7.31615e-06
8.08856e-06
-8.23897e-06
8.55442e-06
-7.8934e-06
-1.14324e-05
9.72668e-06
5.6337e-05
9.01855e-06
4.68482e-05
7.33645e-06
3.77252e-05
5.04002e-06
2.86712e-05
2.62248e-06
1.69836e-05
9.58626e-07
9.2038e-06
6.13599e-08
3.72901e-06
-2.79647e-07
2.68878e-06
-3.98052e-07
2.30779e-06
-4.98617e-07
2.78918e-06
-5.87656e-07
3.06597e-06
-7.01626e-07
3.22565e-06
-8.30077e-07
3.13756e-06
-9.76343e-07
2.81806e-06
-1.12419e-06
2.4131e-06
-1.25783e-06
2.13511e-06
-1.35749e-06
2.22453e-06
-1.41922e-06
2.68458e-06
-1.45983e-06
3.21203e-06
-1.50439e-06
3.42254e-06
-1.56159e-06
3.241e-06
-1.62317e-06
2.84035e-06
-1.67789e-06
2.36954e-06
-1.71855e-06
1.88166e-06
-1.74097e-06
1.3865e-06
-1.74252e-06
8.78776e-07
-1.72119e-06
3.5234e-07
-1.67517e-06
-1.9797e-07
-1.60277e-06
-7.74798e-07
-1.50247e-06
-1.37766e-06
-1.37302e-06
-2.00296e-06
-1.21356e-06
-2.64467e-06
-1.02367e-06
-3.29444e-06
-8.03517e-07
-3.94251e-06
-5.53836e-07
-4.57806e-06
-2.7601e-07
-5.19027e-06
2.80486e-08
-5.76843e-06
3.55832e-07
-6.30343e-06
7.0456e-07
-6.78737e-06
1.071e-06
-7.21517e-06
1.45207e-06
-7.58371e-06
1.84435e-06
-7.89275e-06
2.24517e-06
-8.14451e-06
2.65146e-06
-8.34272e-06
3.06162e-06
-8.49253e-06
3.47278e-06
-8.60505e-06
3.88539e-06
-8.67492e-06
4.29536e-06
-8.73361e-06
4.70663e-06
-8.73842e-06
5.11119e-06
-8.77124e-06
5.51985e-06
-8.70067e-06
5.91433e-06
-8.73794e-06
6.32072e-06
-8.54018e-06
6.69685e-06
-8.63498e-06
7.1036e-06
-8.20403e-06
7.44662e-06
-8.48442e-06
7.86383e-06
-7.73336e-06
8.15507e-06
-8.53021e-06
8.606e-06
-8.34433e-06
-1.16e-05
9.82005e-06
5.6517e-05
9.26811e-06
4.74002e-05
7.81949e-06
3.91738e-05
5.67783e-06
3.08128e-05
3.2509e-06
1.94105e-05
1.41644e-06
1.10383e-05
3.08178e-07
4.83727e-06
-1.46808e-07
3.14376e-06
-3.06801e-07
2.46778e-06
-4.15191e-07
2.89757e-06
-5.01786e-07
3.15256e-06
-6.1029e-07
3.33415e-06
-7.32927e-07
3.2602e-06
-8.74927e-07
2.96006e-06
-1.02048e-06
2.55866e-06
-1.15317e-06
2.26779e-06
-1.25128e-06
2.32264e-06
-1.30859e-06
2.74189e-06
-1.34081e-06
3.24425e-06
-1.37417e-06
3.4559e-06
-1.41975e-06
3.28658e-06
-1.47094e-06
2.89154e-06
-1.51691e-06
2.41551e-06
-1.55021e-06
1.91496e-06
-1.56635e-06
1.40264e-06
-1.56248e-06
8.74907e-07
-1.53645e-06
3.26307e-07
-1.48637e-06
-2.48052e-07
-1.41049e-06
-8.50671e-07
-1.30729e-06
-1.48086e-06
-1.17549e-06
-2.13475e-06
-1.01423e-06
-2.80593e-06
-8.23078e-07
-3.48558e-06
-6.02203e-07
-4.16339e-06
-3.52345e-07
-4.82792e-06
-7.48955e-08
-5.46772e-06
2.28219e-07
-6.07154e-06
5.54479e-07
-6.62969e-06
9.0108e-07