/*--------------------------------*- C++ -*----------------------------------*\
| =========                 |                                                 |
| \\      /  F ield         | OpenFOAM: The Open Source CFD Toolbox           |
|  \\    /   O peration     | Version:  2.4.0                                 |
|   \\  /    A nd           | Web:      www.OpenFOAM.org                      |
|    \\/     M anipulation  |                                                 |
\*---------------------------------------------------------------------------*/
FoamFile
{
    version     2.0;
    format      ascii;
    class       volScalarField;
    location    "0.46";
    object      epsilon;
}
// * * * * * * * * * * * * * * * * * * * * * * * * * * * * * * * * * * * * * //

dimensions      [0 2 -3 0 0 0 0];

internalField   nonuniform List<scalar> 
6000
(
1.00221
0.292252
0.0155309
0.0599489
0.0470378
0.0343726
0.0185934
0.0113566
0.00781991
0.00802653
0.0127667
0.0182644
0.0236213
0.0280562
0.031017
0.0324677
0.0328297
0.0326279
0.0322313
0.0318376
0.0315514
0.031273
0.0309626
0.0306482
0.0303579
0.0301126
0.0299274
0.0298134
0.0297798
0.0298342
0.0299838
0.0302362
0.0305995
0.0310834
0.031699
0.0324601
0.0333832
0.0344874
0.0357953
0.0373331
0.0391398
0.041269
0.0437827
0.0467577
0.0502916
0.0545105
0.0595788
0.0657137
0.0732051
0.082448
0.093998
0.108954
0.128465
0.154309
0.188777
0.236938
0.301882
0.4052
0.531276
0.810892
0.554887
0.274631
0.0110339
0.0163615
0.0100354
0.00686747
0.00499926
0.0042018
0.00408057
0.00456182
0.00533517
0.00619762
0.00719054
0.00830672
0.00938179
0.0101298
0.0103851
0.0102441
0.00992285
0.00957449
0.00924968
0.0089463
0.00866207
0.00840135
0.0081693
0.00796875
0.00780021
0.00766298
0.00755598
0.00747818
0.00742875
0.00740719
0.00741336
0.00744759
0.00751068
0.00760403
0.00772991
0.00789166
0.0080935
0.00834127
0.00864163
0.00899961
0.0094245
0.00992865
0.0105278
0.011242
0.0120975
0.0131284
0.0143802
0.0159139
0.0178146
0.0202161
0.0233099
0.0273446
0.0327384
0.0399292
0.0503363
0.0643164
0.0876328
0.121907
0.413725
0.335495
0.0176823
0.0117434
0.00708827
0.00532405
0.00427219
0.00369718
0.00351658
0.00354842
0.00363522
0.00373376
0.00386568
0.00407173
0.0043476
0.0046003
0.00471656
0.004672
0.00452984
0.00436082
0.00419997
0.00405504
0.00392537
0.00381031
0.00370997
0.00362424
0.00355236
0.00349326
0.00344581
0.00340903
0.0033821
0.00336438
0.00335545
0.00335503
0.00336306
0.0033797
0.00340531
0.00344045
0.00348589
0.00354288
0.003613
0.00369755
0.00379861
0.00391894
0.00406204
0.0042324
0.00443576
0.00467953
0.0049734
0.00533017
0.00576734
0.00630914
0.00699183
0.00786083
0.00900036
0.0104653
0.0125813
0.0151448
0.0198097
0.0242851
0.365273
0.345633
0.0391218
0.0138444
0.00828507
0.00607272
0.0045849
0.00372472
0.00333202
0.00317603
0.00311029
0.00305599
0.00299246
0.00293884
0.00292419
0.00294351
0.00295567
0.00292967
0.00287054
0.00279976
0.00273231
0.00267285
0.00262121
0.0025765
0.00253818
0.00250585
0.00247901
0.0024571
0.00243955
0.0024259
0.00241575
0.00240878
0.0024048
0.00240364
0.00240526
0.00240965
0.00241691
0.00242719
0.00244072
0.00245794
0.00247925
0.00250512
0.00253626
0.00257356
0.00261814
0.0026714
0.00273514
0.00281164
0.00290382
0.00301547
0.00315167
0.00331906
0.00352736
0.00378793
0.00412364
0.00454232
0.00513965
0.00580703
0.00708661
0.00792019
0.341597
0.331667
0.0638559
0.0185586
0.0108753
0.00757072
0.00525416
0.00398021
0.00336047
0.0030824
0.00295133
0.00285582
0.00274753
0.00262427
0.00251478
0.00244194
0.00240005
0.00236919
0.00233825
0.00230749
0.00227983
0.00225635
0.00223663
0.00222001
0.00220605
0.00219445
0.00218495
0.0021773
0.00217125
0.0021666
0.00216319
0.00216089
0.00215961
0.00215929
0.0021599
0.00216146
0.002164
0.00216757
0.0021723
0.0021784
0.00218598
0.00219525
0.00220652
0.00222019
0.00223674
0.00225679
0.00228113
0.00231075
0.00234693
0.00239134
0.00244615
0.00251421
0.00259954
0.00270683
0.00284526
0.00301795
0.00326271
0.00353596
0.0040565
0.00439752
0.328495
0.308982
0.0873127
0.0257257
0.0144967
0.00964704
0.00617489
0.00438419
0.00350542
0.00310039
0.00290528
0.00278433
0.0026671
0.002532
0.00239817
0.00229428
0.00222937
0.00219258
0.00217001
0.0021541
0.00214209
0.00213281
0.00212547
0.00211951
0.0021146
0.00211058
0.00210732
0.00210472
0.0021027
0.00210117
0.00210007
0.00209937
0.00209903
0.00209904
0.00209939
0.00210008
0.00210114
0.0021026
0.00210451
0.00210696
0.00211003
0.00211383
0.00211852
0.00212429
0.00213139
0.00214016
0.002151
0.00216447
0.00218127
0.00220232
0.00222888
0.00226257
0.00230572
0.00236104
0.00243396
0.00252644
0.00266063
0.00281337
0.00311521
0.00334958
0.32063
0.284753
0.107439
0.0359997
0.0190819
0.0123167
0.00733747
0.00491032
0.00373072
0.00317726
0.00290413
0.00275236
0.00263084
0.00249951
0.00236513
0.00225427
0.00218151
0.00214148
0.00212106
0.00211026
0.00210396
0.00209987
0.00209695
0.00209467
0.00209279
0.00209123
0.00208993
0.00208888
0.00208805
0.00208742
0.00208698
0.00208673
0.00208664
0.00208672
0.00208697
0.00208741
0.00208804
0.00208889
0.00208999
0.00209138
0.0020931
0.00209523
0.00209787
0.00210113
0.00210517
0.00211019
0.00211646
0.00212432
0.00213424
0.00214683
0.00216296
0.00218374
0.00221083
0.00224621
0.00229384
0.0023558
0.0024477
0.00255422
0.00277722
0.00297229
0.315399
0.262063
0.122595
0.049882
0.0246393
0.0155897
0.00874479
0.0055453
0.00402366
0.00329578
0.00292982
0.00273785
0.00260801
0.00248226
0.00235393
0.00224454
0.00217028
0.00212903
0.00210902
0.00209978
0.00209534
0.00209293
0.00209137
0.00209016
0.00208911
0.00208818
0.00208736
0.00208666
0.00208608
0.00208563
0.00208532
0.00208513
0.00208507
0.00208514
0.00208536
0.00208571
0.00208622
0.0020869
0.00208778
0.0020889
0.00209029
0.00209201
0.00209412
0.00209671
0.0020999
0.00210384
0.00210873
0.00211483
0.00212251
0.00213223
0.00214466
0.00216069
0.00218167
0.00220919
0.00224659
0.00229561
0.00236995
0.00245658
0.00264718
0.00282313
0.311592
0.242069
0.13313
0.0657752
0.0312982
0.0194311
0.0104032
0.00628806
0.0043823
0.00344928
0.00297773
0.00273637
0.00259215
0.00246964
0.00234809
0.00224247
0.00216887
0.00212725
0.00210714
0.00209823
0.00209426
0.00209228
0.00209104
0.00209004
0.00208914
0.00208829
0.00208751
0.00208684
0.00208627
0.00208582
0.0020855
0.0020853
0.00208522
0.00208528
0.00208547
0.00208581
0.0020863
0.00208696
0.00208782
0.00208889
0.00209022
0.00209186
0.00209388
0.00209634
0.00209936
0.00210307
0.00210764
0.00211331
0.0021204
0.00212931
0.00214063
0.00215514
0.00217403
0.00219871
0.00223225
0.00227614
0.00234326
0.00242125
0.00259755
0.00276287
0.308673
0.225035
0.139398
0.0814507
0.0396105
0.0237482
0.0123093
0.00716884
0.00479261
0.00363278
0.0030456
0.00274709
0.00258239
0.00245969
0.0023439
0.00224228
0.00216985
0.00212805
0.00210764
0.00209861
0.00209466
0.00209271
0.00209147
0.00209046
0.00208952
0.00208863
0.00208782
0.00208711
0.00208651
0.00208604
0.00208569
0.00208547
0.00208539
0.00208543
0.00208562
0.00208595
0.00208643
0.00208709
0.00208795
0.00208903
0.00209037
0.00209202
0.00209404
0.0020965
0.00209952
0.00210321
0.00210776
0.00211338
0.00212037
0.00212913
0.00214022
0.00215436
0.0021727
0.00219655
0.00222883
0.00227095
0.00233537
0.00240989
0.00257964
0.00273856
0.306372
0.21082
0.141913
0.0948244
0.0489911
0.0284029
0.0145254
0.00816085
0.00524317
0.00384047
0.00313093
0.00276943
0.0025788
0.00245229
0.00234073
0.00224276
0.00217148
0.00212947
0.00210861
0.00209929
0.00209518
0.00209314
0.00209183
0.00209075
0.00208975
0.00208882
0.00208797
0.00208723
0.0020866
0.00208611
0.00208575
0.00208552
0.00208542
0.00208546
0.00208564
0.00208597
0.00208646
0.00208712
0.00208798
0.00208907
0.00209042
0.00209208
0.00209411
0.0020966
0.00209963
0.00210335
0.00210792
0.00211357
0.00212058
0.00212937
0.00214046
0.00215459
0.00217286
0.00219657
0.0022286
0.00227026
0.00233388
0.00240722
0.00257375
0.0027284
0.304523
0.19912
0.141349
0.10477
0.0581425
0.0330441
0.0168563
0.00919931
0.00571794
0.00406505
0.00323044
0.00280242
0.00258142
0.0024476
0.00233857
0.00224371
0.00217343
0.00213111
0.00210969
0.00209998
0.00209564
0.00209347
0.00209207
0.00209092
0.00208987
0.0020889
0.00208802
0.00208725
0.00208661
0.0020861
0.00208573
0.0020855
0.0020854
0.00208543
0.00208561
0.00208594
0.00208643
0.00208709
0.00208795
0.00208904
0.0020904
0.00209207
0.00209411
0.00209661
0.00209966
0.00210339
0.00210799
0.00211367
0.00212072
0.00212954
0.00214069
0.00215487
0.0021732
0.00219698
0.00222905
0.00227073
0.00233423
0.00240732
0.00257196
0.00272335
0.303017
0.189585
0.138464
0.110798
0.0659576
0.0372577
0.0190454
0.0102189
0.0061959
0.00429791
0.00334023
0.00284465
0.00259006
0.00244574
0.00233749
0.00224513
0.00217566
0.00213292
0.00211086
0.00210068
0.00209608
0.00209375
0.00209225
0.00209104
0.00208994
0.00208893
0.00208802
0.00208724
0.00208659
0.00208607
0.00208569
0.00208545
0.00208535
0.00208538
0.00208556
0.00208589
0.00208637
0.00208704
0.0020879
0.002089
0.00209035
0.00209203
0.00209408
0.00209658
0.00209964
0.00210339
0.002108
0.0021137
0.00212078
0.00212964
0.00214083
0.00215508
0.00217348
0.00219735
0.00222953
0.00227134
0.00233493
0.00240807
0.00257125
0.00271987
0.301778
0.181874
0.134007
0.112966
0.0715662
0.0406178
0.0209014
0.0111477
0.00665286
0.00452966
0.00345606
0.00289444
0.00260435
0.00244677
0.00233753
0.00224701
0.00217816
0.00213491
0.00211212
0.00210143
0.00209652
0.00209403
0.00209242
0.00209114
0.00208999
0.00208895
0.00208802
0.00208722
0.00208655
0.00208603
0.00208564
0.0020854
0.00208529
0.00208533
0.0020855
0.00208583
0.00208632
0.00208698
0.00208785
0.00208894
0.0020903
0.00209198
0.00209403
0.00209654
0.00209961
0.00210337
0.00210799
0.00211371
0.00212081
0.0021297
0.00214092
0.00215522
0.00217369
0.00219764
0.00222993
0.00227189
0.00233559
0.00240885
0.00257067
0.00271673
0.300752
0.175681
0.128648
0.111737
0.0744953
0.0427733
0.0222683
0.0119189
0.00706477
0.00475105
0.00357372
0.00294994
0.00262379
0.00245069
0.00233873
0.00224935
0.00218092
0.00213706
0.00211349
0.00210223
0.00209699
0.00209431
0.00209259
0.00209124
0.00209004
0.00208896
0.00208801
0.00208719
0.00208652
0.00208599
0.0020856
0.00208535
0.00208524
0.00208527
0.00208544
0.00208577
0.00208626
0.00208692
0.00208779
0.00208889
0.00209025
0.00209193
0.00209398
0.0020965
0.00209957
0.00210334
0.00210798
0.0021137
0.00212082
0.00212974
0.00214099
0.00215533
0.00217385
0.00219788
0.00223027
0.00227235
0.00233614
0.0024095
0.00256999
0.0027136
0.299899
0.170739
0.122938
0.107835
0.0747018
0.0435443
0.0230508
0.0124841
0.00741172
0.00495402
0.00368935
0.00300926
0.00264772
0.00245743
0.00234115
0.00225216
0.00218392
0.00213938
0.00211496
0.00210309
0.00209749
0.0020946
0.00209277
0.00209134
0.00209009
0.00208898
0.002088
0.00208717
0.00208648
0.00208594
0.00208555
0.0020853
0.00208518
0.00208521
0.00208539
0.00208571
0.0020862
0.00208687
0.00208773
0.00208883
0.0020902
0.00209188
0.00209394
0.00209646
0.00209954
0.00210331
0.00210796
0.0021137
0.00212083
0.00212977
0.00214105
0.00215542
0.002174
0.00219809
0.00223056
0.00227275
0.00233662
0.00241005
0.00256921
0.00271047
0.299187
0.166821
0.117299
0.102101
0.0725284
0.0429684
0.0232364
0.0128226
0.00768149
0.00513265
0.00379973
0.00307067
0.00267546
0.00246687
0.00234478
0.00225544
0.00218715
0.00214185
0.00211653
0.002104
0.00209802
0.00209492
0.00209295
0.00209144
0.00209014
0.00208899
0.002088
0.00208715
0.00208645
0.0020859
0.0020855
0.00208524
0.00208513
0.00208516
0.00208533
0.00208566
0.00208614
0.00208681
0.00208768
0.00208878
0.00209014
0.00209183
0.00209389
0.00209641
0.0020995
0.00210328
0.00210794
0.00211369
0.00212084
0.00212979
0.00214111
0.00215551
0.00217413
0.00219829
0.00223084
0.00227313
0.00233704
0.00241052
0.00256836
0.00270737
0.298591
0.163734
0.112019
0.0953681
0.0685935
0.0412856
0.0228968
0.0129449
0.00787147
0.00528388
0.00390258
0.00313262
0.00270626
0.00247886
0.00234967
0.00225919
0.00219061
0.00214446
0.00211819
0.00210498
0.00209859
0.00209525
0.00209315
0.00209155
0.00209019
0.00208901
0.00208799
0.00208712
0.00208641
0.00208586
0.00208545
0.00208519
0.00208508
0.0020851
0.00208528
0.0020856
0.00208609
0.00208675
0.00208762
0.00208872
0.00209009
0.00209178
0.00209385
0.00209637
0.00209946
0.00210325
0.00210792
0.00211368
0.00212085
0.00212982
0.00214116
0.0021556
0.00217426
0.00219848
0.00223109
0.00227348
0.00233744
0.00241092
0.0025675
0.00270436
0.298092
0.16132
0.107276
0.0883645
0.0636363
0.0388664
0.0221667
0.0128879
0.00798835
0.00540761
0.00399659
0.00319387
0.00273942
0.00249319
0.00235578
0.00226342
0.00219428
0.00214721
0.00211994
0.002106
0.00209918
0.00209559
0.00209335
0.00209166
0.00209025
0.00208903
0.00208798
0.0020871
0.00208638
0.00208582
0.00208541
0.00208514
0.00208503
0.00208505
0.00208522
0.00208555
0.00208603
0.0020867
0.00208757
0.00208867
0.00209004
0.00209173
0.0020938
0.00209633
0.00209943
0.00210322
0.0021079
0.00211367
0.00212085
0.00212985
0.00214121
0.00215568
0.00217439
0.00219866
0.00223134
0.00227381
0.0023378
0.00241129
0.00256663
0.00270144
0.297672
0.159447
0.103157
0.0816503
0.0583599
0.0360861
0.0212063
0.0127044
0.00804584
0.00550633
0.0040814
0.00325351
0.00277426
0.00250961
0.00236312
0.00226814
0.00219816
0.00215009
0.00212178
0.00210708
0.0020998
0.00209595
0.00209356
0.00209178
0.00209031
0.00208905
0.00208798
0.00208708
0.00208635
0.00208578
0.00208536
0.0020851
0.00208498
0.002085
0.00208517
0.00208549
0.00208598
0.00208665
0.00208752
0.00208862
0.00208999
0.00209169
0.00209376
0.00209629
0.00209939
0.0021032
0.00210788
0.00211366
0.00212086
0.00212987
0.00214126
0.00215576
0.00217451
0.00219883
0.00223158
0.00227413
0.00233815
0.00241163
0.00256578
0.00269864
0.297319
0.158006
0.0996797
0.0755982
0.0533162
0.0333364
0.0201746
0.0124516
0.00806128
0.00558429
0.00415747
0.00331098
0.00281021
0.00252786
0.00237163
0.00227336
0.00220225
0.00215309
0.0021237
0.00210821
0.00210045
0.00209633
0.00209378
0.0020919
0.00209037
0.00208908
0.00208798
0.00208706
0.00208632
0.00208574
0.00208532
0.00208505
0.00208493
0.00208495
0.00208512
0.00208544
0.00208593
0.0020866
0.00208747
0.00208857
0.00208995
0.00209164
0.00209372
0.00209625
0.00209936
0.00210317
0.00210786
0.00211365
0.00212086
0.00212989
0.0021413
0.00215584
0.00217462
0.002199
0.00223181
0.00227444
0.00233848
0.00241193
0.00256494
0.00269596
0.297022
0.15691
0.0968172
0.0704054
0.0488555
0.0309049
0.0192074
0.0121819
0.00805206
0.00564651
0.00422577
0.00336597
0.00284676
0.00254769
0.00238126
0.00227907
0.00220654
0.0021562
0.00212569
0.00210939
0.00210113
0.00209672
0.002094
0.00209203
0.00209044
0.0020891
0.00208797
0.00208704
0.00208629
0.0020857
0.00208528
0.002085
0.00208488
0.0020849
0.00208507
0.00208539
0.00208588
0.00208655
0.00208742
0.00208852
0.0020899
0.0020916
0.00209367
0.00209622
0.00209933
0.00210314
0.00210784
0.00211364
0.00212087
0.00212991
0.00214135
0.00215591
0.00217474
0.00219916
0.00223204
0.00227474
0.00233879
0.00241221
0.00256413
0.0026934
0.29677
0.156088
0.0945136
0.0661287
0.0451376
0.0288718
0.0183654
0.0119276
0.00803197
0.00569785
0.00428761
0.00341844
0.00288352
0.00256882
0.00239195
0.00228527
0.00221104
0.00215943
0.00212776
0.00211061
0.00210183
0.00209712
0.00209424
0.00209216
0.0020905
0.00208913
0.00208797
0.00208702
0.00208626
0.00208567
0.00208524
0.00208496
0.00208483
0.00208485
0.00208502
0.00208534
0.00208583
0.0020865
0.00208737
0.00208848
0.00208986
0.00209155
0.00209363
0.00209618
0.0020993
0.00210312
0.00210782
0.00211364
0.00212087
0.00212994
0.00214139
0.00215598
0.00217484
0.00219932
0.00223225
0.00227502
0.00233908
0.00241246
0.00256334
0.00269096
0.296557
0.155481
0.0926991
0.0627274
0.0421807
0.0272503
0.0176736
0.0117083
0.00801133
0.00574266
0.0043444
0.00346852
0.00292019
0.002591
0.0024036
0.00229194
0.00221572
0.00216275
0.00212989
0.00211187
0.00210256
0.00209754
0.00209448
0.00209229
0.00209057
0.00208915
0.00208797
0.00208701
0.00208623
0.00208563
0.00208519
0.00208491
0.00208479
0.0020848
0.00208497
0.00208529
0.00208578
0.00208645
0.00208733
0.00208843
0.00208981
0.00209151
0.0020936
0.00209614
0.00209927
0.00210309
0.0021078
0.00211363
0.00212088
0.00212996
0.00214143
0.00215605
0.00217495
0.00219947
0.00223246
0.0022753
0.00233936
0.0024127
0.00256257
0.00268863
0.296375
0.155045
0.0913001
0.0601035
0.0399166
0.0260075
0.0171327
0.0115332
0.00799715
0.00578448
0.00439752
0.00351646
0.00295655
0.002614
0.00241613
0.00229908
0.0022206
0.00216618
0.00213209
0.00211318
0.00210331
0.00209798
0.00209472
0.00209243
0.00209064
0.00208918
0.00208798
0.00208699
0.0020862
0.0020856
0.00208516
0.00208487
0.00208474
0.00208476
0.00208492
0.00208525
0.00208573
0.00208641
0.00208728
0.00208839
0.00208977
0.00209147
0.00209356
0.00209611
0.00209923
0.00210307
0.00210778
0.00211362
0.00212088
0.00212997
0.00214147
0.00215612
0.00217505
0.00219961
0.00223265
0.00227556
0.00233962
0.00241291
0.00256183
0.00268642
0.296221
0.154743
0.090246
0.0581347
0.0382381
0.025088
0.0167292
0.0114042
0.00799354
0.00582599
0.0044482
0.00356257
0.00299247
0.00263763
0.00242945
0.00230667
0.00222566
0.0021697
0.00213435
0.00211452
0.00210408
0.00209842
0.00209498
0.00209257
0.00209072
0.00208921
0.00208798
0.00208698
0.00208618
0.00208556
0.00208512
0.00208483
0.0020847
0.00208471
0.00208488
0.0020852
0.00208569
0.00208636
0.00208724
0.00208835
0.00208973
0.00209143
0.00209352
0.00209608
0.00209921
0.00210304
0.00210777
0.00211361
0.00212088
0.00212999
0.00214151
0.00215618
0.00217515
0.00219975
0.00223284
0.0022758
0.00233987
0.0024131
0.00256112
0.00268432
0.296088
0.154545
0.0894726
0.0566962
0.03703
0.024431
0.0164433
0.011319
0.00800243
0.00586906
0.00449747
0.00360718
0.00302785
0.00266169
0.00244346
0.00231468
0.00223091
0.00217331
0.00213667
0.00211591
0.00210488
0.00209888
0.00209524
0.00209272
0.00209079
0.00208924
0.00208798
0.00208696
0.00208615
0.00208553
0.00208508
0.00208479
0.00208466
0.00208467
0.00208484
0.00208516
0.00208565
0.00208632
0.00208719
0.00208831
0.00208969
0.00209139
0.00209349
0.00209604
0.00209918
0.00210302
0.00210775
0.0021136
0.00212089
0.00213001
0.00214154
0.00215624
0.00217524
0.00219989
0.00223303
0.00227604
0.00234011
0.00241328
0.00256043
0.00268232
0.295975
0.154428
0.0889242
0.0556744
0.0361863
0.0239796
0.016254
0.0112727
0.00802412
0.0059148
0.00454614
0.00365062
0.00306268
0.00268604
0.00245807
0.00232309
0.00223632
0.00217701
0.00213904
0.00211732
0.0021057
0.00209935
0.00209551
0.00209287
0.00209087
0.00208928
0.00208799
0.00208695
0.00208613
0.0020855
0.00208504
0.00208475
0.00208461
0.00208463
0.00208479
0.00208512
0.0020856
0.00208628
0.00208715
0.00208827
0.00208965
0.00209136
0.00209345
0.00209601
0.00209915
0.002103
0.00210774
0.0021136
0.00212089
0.00213003
0.00214158
0.0021563
0.00217533
0.00220002
0.0022332
0.00227627
0.00234033
0.00241344
0.00255977
0.00268042
0.295877
0.154374
0.0885537
0.0549721
0.0356178
0.0236851
0.0161418
0.0112596
0.00805786
0.00596376
0.00459477
0.00369317
0.00309694
0.00271053
0.00247318
0.00233187
0.0022419
0.00218078
0.00214146
0.00211877
0.00210653
0.00209983
0.00209578
0.00209302
0.00209095
0.00208931
0.00208799
0.00208694
0.0020861
0.00208547
0.00208501
0.00208471
0.00208458
0.00208459
0.00208475
0.00208507
0.00208556
0.00208624
0.00208711
0.00208823
0.00208961
0.00209132
0.00209342
0.00209598
0.00209912
0.00210298
0.00210772
0.00211359
0.00212089
0.00213004
0.00214161
0.00215636
0.00217541
0.00220014
0.00223336
0.00227648
0.00234053
0.00241358
0.00255913
0.00267863
0.295792
0.154368
0.0883225
0.0545108
0.0352531
0.0235083
0.0160905
0.0112737
0.00810226
0.00601607
0.00464375
0.00373506
0.00313064
0.00273507
0.00248871
0.002341
0.00224765
0.00218462
0.00214393
0.00212025
0.00210739
0.00210032
0.00209606
0.00209318
0.00209103
0.00208935
0.002088
0.00208693
0.00208608
0.00208544
0.00208497
0.00208468
0.00208454
0.00208455
0.00208471
0.00208504
0.00208553
0.0020862
0.00208708
0.00208819
0.00208958
0.00209129
0.00209339
0.00209595
0.0020991
0.00210296
0.0021077
0.00211358
0.00212089
0.00213006
0.00214164
0.00215641
0.00217549
0.00220025
0.00223352
0.00227669
0.00234073
0.00241371
0.00255851
0.00267693
0.295718
0.154399
0.0881988
0.0542286
0.0350377
0.0234186
0.0160839
0.0113091
0.00815576
0.00607161
0.00469332
0.00377648
0.00316382
0.00275955
0.00250457
0.00235043
0.00225354
0.00218853
0.00214644
0.00212176
0.00210826
0.00210082
0.00209635
0.00209334
0.00209111
0.00208938
0.00208801
0.00208692
0.00208606
0.00208541
0.00208494
0.00208464
0.0020845
0.00208451
0.00208468
0.002085
0.00208549
0.00208616
0.00208704
0.00208815
0.00208954
0.00209126
0.00209336
0.00209593
0.00209907
0.00210294
0.00210769
0.00211357
0.0021209
0.00213007
0.00214167
0.00215646
0.00217557
0.00220037
0.00223367
0.00227688
0.00234091
0.00241383
0.00255793
0.00267534
0.295654
0.154457
0.0881573
0.0540782
0.0349304
0.0233929
0.0161108
0.0113613
0.00821683
0.00613008
0.00474357
0.00381758
0.00319649
0.0027839
0.00252068
0.00236015
0.00225958
0.00219251
0.00214899
0.0021233
0.00210915
0.00210133
0.00209664
0.0020935
0.0020912
0.00208942
0.00208802
0.00208691
0.00208604
0.00208538
0.00208491
0.00208461
0.00208446
0.00208448
0.00208464
0.00208496
0.00208545
0.00208613
0.00208701
0.00208812
0.00208951
0.00209122
0.00209333
0.0020959
0.00209905
0.00210292
0.00210768
0.00211357
0.0021209
0.00213009
0.0021417
0.00215651
0.00217564
0.00220047
0.00223381
0.00227706
0.00234108
0.00241394
0.00255737
0.00267383
0.295598
0.154534
0.0881778
0.0540239
0.034901
0.0234136
0.0161627
0.0114264
0.00828401
0.00619106
0.0047945
0.00385844
0.00322868
0.00280807
0.00253697
0.00237012
0.00226576
0.00219655
0.00215157
0.00212485
0.00211006
0.00210184
0.00209693
0.00209367
0.00209129
0.00208946
0.00208803
0.0020869
0.00208602
0.00208536
0.00208488
0.00208458
0.00208443
0.00208444
0.0020846
0.00208493
0.00208542
0.00208609
0.00208697
0.00208809
0.00208948
0.00209119
0.0020933
0.00209587
0.00209903
0.0021029
0.00210766
0.00211356
0.0021209
0.0021301
0.00214173
0.00215655
0.00217571
0.00220057
0.00223395
0.00227723
0.00234124
0.00241403
0.00255684
0.00267242
0.29555
0.154625
0.0882439
0.054039
0.0349273
0.0234679
0.0162329
0.0115014
0.008356
0.00625412
0.00484605
0.00389911
0.00326041
0.00283198
0.00255336
0.0023803
0.00227206
0.00220064
0.00215418
0.00212643
0.00211097
0.00210237
0.00209723
0.00209383
0.00209138
0.0020895
0.00208804
0.00208689
0.002086
0.00208533
0.00208485
0.00208454
0.0020844
0.00208441
0.00208457
0.00208489
0.00208538
0.00208606
0.00208694
0.00208806
0.00208945
0.00209117
0.00209327
0.00209585
0.00209901
0.00210288
0.00210765
0.00211355
0.0021209
0.00213011
0.00214175
0.00215659
0.00217578
0.00220066
0.00223407
0.00227739
0.00234138
0.00241412
0.00255633
0.0026711
0.295507
0.154725
0.0883431
0.0541036
0.0349931
0.0235461
0.0163164
0.0115842
0.00843178
0.00631881
0.00489807
0.0039396
0.00329169
0.00285561
0.0025698
0.00239065
0.00227848
0.00220478
0.00215683
0.00212803
0.0021119
0.0021029
0.00209754
0.002094
0.00209147
0.00208954
0.00208805
0.00208689
0.00208599
0.00208531
0.00208482
0.00208452
0.00208437
0.00208438
0.00208454
0.00208486
0.00208535
0.00208603
0.00208691
0.00208803
0.00208942
0.00209114
0.00209325
0.00209583
0.00209899
0.00210286
0.00210764
0.00211355
0.0021209
0.00213012
0.00214178
0.00215663
0.00217584
0.00220075
0.00223419
0.00227754
0.00234152
0.0024142
0.00255585
0.00266987
0.29547
0.15483
0.0884652
0.0542028
0.0350865
0.0236411
0.0164092
0.0116719
0.00850982
0.0063845
0.00495037
0.00397988
0.00332253
0.00287891
0.00258622
0.00240115
0.00228501
0.00220898
0.0021595
0.00212965
0.00211285
0.00210344
0.00209785
0.00209418
0.00209156
0.00208959
0.00208807
0.00208688
0.00208597
0.00208529
0.0020848
0.00208449
0.00208434
0.00208435
0.00208451
0.00208483
0.00208532
0.002086
0.00208688
0.002088
0.00208939
0.00209111
0.00209322
0.00209581
0.00209897
0.00210285
0.00210763
0.00211354
0.0021209
0.00213013
0.0021418
0.00215667
0.0021759
0.00220083
0.0022343
0.00227768
0.00234164
0.00241427
0.0025554
0.00266873
0.295437
0.154937
0.0886024
0.0543255
0.0351986
0.0237472
0.0165081
0.011762
0.00858914
0.00645072
0.00500277
0.00401992
0.00335293
0.00290185
0.00260256
0.00241175
0.00229163
0.00221322
0.00216219
0.00213128
0.0021138
0.00210399
0.00209816
0.00209435
0.00209165
0.00208963
0.00208808
0.00208688
0.00208596
0.00208527
0.00208477
0.00208446
0.00208431
0.00208432
0.00208448
0.0020848
0.0020853
0.00208597
0.00208686
0.00208797
0.00208937
0.00209109
0.0020932
0.00209578
0.00209895
0.00210283
0.00210761
0.00211353
0.0021209
0.00213014
0.00214182
0.00215671
0.00217595
0.00220091
0.0022344
0.00227781
0.00234176
0.00241433
0.00255498
0.00266767
0.295408
0.155045
0.0887486
0.0544633
0.0353228
0.0238605
0.0166107
0.0118539
0.00866908
0.00651709
0.00505507
0.00405965
0.00338287
0.00292441
0.00261879
0.00242242
0.00229834
0.0022175
0.00216491
0.00213293
0.00211476
0.00210454
0.00209847
0.00209453
0.00209175
0.00208968
0.0020881
0.00208688
0.00208595
0.00208525
0.00208475
0.00208443
0.00208428
0.00208429
0.00208445
0.00208478
0.00208527
0.00208595
0.00208683
0.00208795
0.00208935
0.00209107
0.00209318
0.00209577
0.00209893
0.00210282
0.0021076
0.00211353
0.0021209
0.00213015
0.00214184
0.00215674
0.002176
0.00220098
0.0022345
0.00227793
0.00234186
0.00241438
0.00255458
0.0026667
0.295382
0.155152
0.0888993
0.0546099
0.0354542
0.0239778
0.016715
0.0119463
0.00874901
0.00658324
0.00510708
0.00409902
0.00341235
0.00294657
0.00263485
0.00243313
0.00230511
0.00222182
0.00216764
0.00213459
0.00211573
0.0021051
0.00209879
0.00209471
0.00209184
0.00208973
0.00208811
0.00208688
0.00208593
0.00208523
0.00208473
0.00208441
0.00208426
0.00208427
0.00208443
0.00208475
0.00208525
0.00208592
0.00208681
0.00208793
0.00208932
0.00209105
0.00209316
0.00209575
0.00209892
0.0021028
0.00210759
0.00211352
0.0021209
0.00213016
0.00214186
0.00215677
0.00217604
0.00220105
0.00223459
0.00227804
0.00234196
0.00241443
0.00255421
0.00266582
0.29536
0.155256
0.0890509
0.0547607
0.0355889
0.0240965
0.0168197
0.0120383
0.00882836
0.00664884
0.00515864
0.00413794
0.00344134
0.00296829
0.00265072
0.00244384
0.00231194
0.00222617
0.00217039
0.00213626
0.00211671
0.00210566
0.00209911
0.00209489
0.00209194
0.00208977
0.00208813
0.00208688
0.00208592
0.00208521
0.00208471
0.00208439
0.00208424
0.00208424
0.0020844
0.00208473
0.00208522
0.0020859
0.00208679
0.00208791
0.0020893
0.00209103
0.00209314
0.00209573
0.0020989
0.00210279
0.00210759
0.00211352
0.0021209
0.00213016
0.00214187
0.0021568
0.00217609
0.00220111
0.00223467
0.00227814
0.00234205
0.00241448
0.00255387
0.00266502
0.295341
0.155356
0.0892007
0.0549121
0.0357242
0.024215
0.0169235
0.0121293
0.00890669
0.00671358
0.00520956
0.00417634
0.00346982
0.00298958
0.00266635
0.00245453
0.00231881
0.00223055
0.00217316
0.00213794
0.00211769
0.00210623
0.00209943
0.00209507
0.00209204
0.00208982
0.00208815
0.00208688
0.00208591
0.0020852
0.00208469
0.00208437
0.00208421
0.00208422
0.00208438
0.00208471
0.0020852
0.00208588
0.00208677
0.00208789
0.00208929
0.00209101
0.00209313
0.00209572
0.00209889
0.00210278
0.00210758
0.00211351
0.0021209
0.00213017
0.00214189
0.00215682
0.00217612
0.00220116
0.00223474
0.00227823
0.00234212
0.00241452
0.00255356
0.0026643
0.295323
0.155453
0.0893469
0.0550616
0.035858
0.0243317
0.0170256
0.0122187
0.00898361
0.00677723
0.00525969
0.00421414
0.00349778
0.00301041
0.00268171
0.00246517
0.0023257
0.00223495
0.00217593
0.00213962
0.00211868
0.0021068
0.00209976
0.00209525
0.00209214
0.00208987
0.00208817
0.00208688
0.00208591
0.00208518
0.00208467
0.00208435
0.00208419
0.0020842
0.00208436
0.00208469
0.00208518
0.00208586
0.00208675
0.00208787
0.00208927
0.00209099
0.00209311
0.0020957
0.00209888
0.00210277
0.00210757
0.00211351
0.0021209
0.00213017
0.0021419
0.00215684
0.00217616
0.00220121
0.0022348
0.00227832
0.00234219
0.00241455
0.00255327
0.00266367
0.295308
0.155545
0.0894882
0.0552074
0.0359888
0.0244457
0.0171252
0.0123059
0.00905881
0.00683956
0.0053089
0.00425129
0.00352518
0.00303076
0.00269679
0.00247572
0.00233261
0.00223936
0.00217872
0.00214131
0.00211967
0.00210737
0.00210009
0.00209544
0.00209224
0.00208992
0.00208819
0.00208689
0.0020859
0.00208517
0.00208466
0.00208433
0.00208417
0.00208418
0.00208434
0.00208467
0.00208516
0.00208584
0.00208673
0.00208785
0.00208925
0.00209098
0.0020931
0.00209569
0.00209886
0.00210276
0.00210756
0.0021135
0.0021209
0.00213018
0.00214191
0.00215686
0.00217619
0.00220125
0.00223486
0.00227839
0.00234225
0.00241458
0.00255302
0.00266312
0.295294
0.155633
0.0896237
0.0553481
0.0361154
0.0245562
0.0172219
0.0123908
0.00913205
0.00690041
0.00535707
0.0042877
0.003552
0.00305064
0.00271156
0.00248617
0.00233951
0.00224379
0.00218151
0.00214301
0.00212066
0.00210794
0.00210042
0.00209562
0.00209234
0.00208998
0.00208822
0.00208689
0.00208589
0.00208516
0.00208464
0.00208431
0.00208416
0.00208416
0.00208433
0.00208465
0.00208515
0.00208583
0.00208672
0.00208784
0.00208924
0.00209097
0.00209308
0.00209568
0.00209885
0.00210275
0.00210756
0.0021135
0.0021209
0.00213018
0.00214192
0.00215688
0.00217621
0.00220129
0.00223491
0.00227845
0.0023423
0.00241461
0.00255279
0.00266264
0.295283
0.155715
0.0897527
0.0554829
0.0362372
0.0246626
0.0173154
0.012473
0.00920314
0.00695962
0.00540409
0.00432332
0.00357822
0.00307002
0.00272601
0.0024965
0.0023464
0.00224822
0.0021843
0.00214471
0.00212166
0.00210852
0.00210075
0.00209581
0.00209245
0.00209003
0.00208824
0.0020869
0.00208589
0.00208515
0.00208463
0.0020843
0.00208414
0.00208415
0.00208431
0.00208464
0.00208513
0.00208582
0.0020867
0.00208783
0.00208923
0.00209095
0.00209307
0.00209567
0.00209885
0.00210275
0.00210755
0.0021135
0.0021209
0.00213019
0.00214193
0.00215689
0.00217623
0.00220132
0.00223495
0.0022785
0.00234235
0.00241463
0.00255258
0.00266225
0.295272
0.155793
0.0898751
0.0556114
0.0363535
0.0247647
0.0174053
0.0125523
0.00927192
0.00701709
0.00544987
0.00435809
0.00360381
0.0030889
0.00274011
0.00250667
0.00235325
0.00225265
0.00218709
0.0021464
0.00212266
0.0021091
0.00210108
0.002096
0.00209255
0.00209009