/*--------------------------------*- C++ -*----------------------------------*\
| =========                 |                                                 |
| \\      /  F ield         | OpenFOAM: The Open Source CFD Toolbox           |
|  \\    /   O peration     | Version:  2.4.0                                 |
|   \\  /    A nd           | Web:      www.OpenFOAM.org                      |
|    \\/     M anipulation  |                                                 |
\*---------------------------------------------------------------------------*/
FoamFile
{
    version     2.0;
    format      ascii;
    class       volScalarField;
    location    "1.86";
    object      nut;
}
// * * * * * * * * * * * * * * * * * * * * * * * * * * * * * * * * * * * * * //

dimensions      [0 2 -1 0 0 0 0];

internalField   nonuniform List<scalar> 
6000
(
4.70168e-05
1.44268e-05
4.27791e-06
8.76795e-06
7.80521e-06
8.96975e-06
8.6345e-06
9.04386e-06
9.10023e-06
9.61496e-06
9.79359e-06
9.39998e-06
7.55534e-06
4.7719e-06
6.19134e-06
9.00191e-06
9.88981e-06
8.58956e-06
1.09435e-05
1.97588e-05
2.85343e-05
3.63427e-05
4.26008e-05
4.69549e-05
4.91697e-05
4.9036e-05
4.64442e-05
4.14322e-05
3.41159e-05
2.45701e-05
1.34785e-05
1.00273e-05
1.68387e-05
2.0734e-05
2.2672e-05
2.33628e-05
2.33181e-05
2.29245e-05
2.24655e-05
2.21338e-05
2.20438e-05
2.22428e-05
2.27293e-05
2.3467e-05
2.43972e-05
2.54564e-05
2.65744e-05
2.76999e-05
2.87633e-05
2.9759e-05
3.059e-05
3.13746e-05
3.18557e-05
3.2533e-05
3.25091e-05
3.3512e-05
3.24976e-05
3.49184e-05
3.17765e-05
3.70589e-05
2.94904e-05
9.49409e-06
3.19748e-06
7.01162e-06
6.33764e-06
7.05145e-06
6.83229e-06
7.10712e-06
7.18258e-06
7.53098e-06
7.6089e-06
7.22745e-06
5.9034e-06
4.45595e-06
5.82557e-06
7.53876e-06
8.16583e-06
8.17236e-06
1.10567e-05
1.64018e-05
2.12664e-05
2.51932e-05
2.79883e-05
2.95868e-05
2.99778e-05
2.91307e-05
2.71561e-05
2.41096e-05
1.99964e-05
1.47895e-05
9.56602e-06
9.46232e-06
1.25861e-05
1.45002e-05
1.54785e-05
1.58356e-05
1.58226e-05
1.56431e-05
1.54485e-05
1.53372e-05
1.53621e-05
1.55421e-05
1.58711e-05
1.63253e-05
1.68714e-05
1.74751e-05
1.81001e-05
1.87201e-05
1.9301e-05
1.98388e-05
2.02887e-05
2.07045e-05
2.09698e-05
2.13146e-05
2.13278e-05
2.18117e-05
2.13481e-05
2.24978e-05
2.10072e-05
2.33942e-05
2.1431e-05
8.15176e-06
2.83835e-06
5.89137e-06
5.34245e-06
5.71391e-06
5.55532e-06
5.74029e-06
5.83133e-06
6.07479e-06
6.09691e-06
5.76593e-06
4.92476e-06
4.56282e-06
5.61606e-06
6.6996e-06
7.42653e-06
8.53617e-06
1.11665e-05
1.44291e-05
1.70569e-05
1.88333e-05
1.97539e-05
1.99083e-05
1.94111e-05
1.83552e-05
1.69052e-05
1.50825e-05
1.28663e-05
1.03588e-05
8.96922e-06
8.931e-06
9.81322e-06
1.06139e-05
1.10839e-05
1.12779e-05
1.12926e-05
1.1228e-05
1.11639e-05
1.115e-05
1.12093e-05
1.135e-05
1.15657e-05
1.18426e-05
1.21633e-05
1.25101e-05
1.28653e-05
1.32153e-05
1.35437e-05
1.38463e-05
1.41034e-05
1.43349e-05
1.44937e-05
1.46731e-05
1.4706e-05
1.49267e-05
1.47408e-05
1.52373e-05
1.45955e-05
1.54804e-05
1.78744e-05
7.96403e-06
3.00716e-06
5.26705e-06
4.72279e-06
4.80155e-06
4.66032e-06
4.78113e-06
4.8875e-06
5.07172e-06
5.08091e-06
4.8504e-06
4.5022e-06
4.99574e-06
5.6469e-06
6.42443e-06
7.48888e-06
9.25302e-06
1.13373e-05
1.32706e-05
1.45349e-05
1.50922e-05
1.50722e-05
1.46564e-05
1.40146e-05
1.32887e-05
1.25204e-05
1.16901e-05
1.08099e-05
1.03028e-05
1.1445e-05
9.2552e-06
8.36337e-06
8.33473e-06
8.43336e-06
8.49633e-06
8.5055e-06
8.48795e-06
8.47755e-06
8.4954e-06
8.54957e-06
8.64323e-06
8.77224e-06
8.92987e-06
9.10844e-06
9.30026e-06
9.49752e-06
9.69343e-06
9.88043e-06
1.00542e-05
1.02064e-05
1.03403e-05
1.04408e-05
1.05351e-05
1.05727e-05
1.06602e-05
1.06053e-05
1.07712e-05
1.05466e-05
1.06753e-05
1.67542e-05
8.44185e-06
3.55183e-06
5.05027e-06
4.4303e-06
4.2256e-06
4.06317e-06
4.13276e-06
4.25802e-06
4.42306e-06
4.46696e-06
4.40165e-06
4.59831e-06
5.70608e-06
5.98411e-06
6.68528e-06
8.1741e-06
1.01071e-05
1.16419e-05
1.27264e-05
1.32274e-05
1.32745e-05
1.3103e-05
1.29448e-05
1.29946e-05
1.32589e-05
1.36132e-05
1.39712e-05
1.44235e-05
1.58884e-05
1.74907e-05
1.13444e-05
8.35826e-06
7.36372e-06
7.01737e-06
6.88891e-06
6.83264e-06
6.80385e-06
6.79527e-06
6.80568e-06
6.83306e-06
6.87697e-06
6.93525e-06
7.00595e-06
7.08726e-06
7.17716e-06
7.27332e-06
7.37278e-06
7.47229e-06
7.56779e-06
7.65582e-06
7.73213e-06
7.79491e-06
7.8419e-06
7.87307e-06
7.89329e-06
7.89116e-06
7.89646e-06
7.85619e-06
7.63504e-06
1.71081e-05
9.39624e-06
4.40722e-06
5.16306e-06
4.44278e-06
3.94159e-06
3.71888e-06
3.74095e-06
3.8933e-06
4.08091e-06
4.21843e-06
4.40507e-06
5.2286e-06
6.6796e-06
6.67781e-06
7.45484e-06
9.27148e-06
1.10726e-05
1.22026e-05
1.28631e-05
1.31981e-05
1.35213e-05
1.41904e-05
1.55121e-05
1.77192e-05
2.02764e-05
2.28328e-05
2.50202e-05
2.68611e-05
2.925e-05
2.7197e-05
1.63032e-05
1.02859e-05
7.75233e-06
6.66913e-06
6.18923e-06
5.96841e-06
5.86166e-06
5.80871e-06
5.7819e-06
5.76708e-06
5.75877e-06
5.75511e-06
5.75651e-06
5.76427e-06
5.77944e-06
5.80262e-06
5.83307e-06
5.86975e-06
5.90926e-06
5.94998e-06
5.98513e-06
6.01706e-06
6.03265e-06
6.0494e-06
6.03374e-06
6.04288e-06
5.97505e-06
6.00013e-06
5.64366e-06
1.8389e-05
1.07089e-05
5.53187e-06
5.5251e-06
4.73677e-06
3.93452e-06
3.61023e-06
3.58148e-06
3.77488e-06
4.03515e-06
4.34491e-06
4.90156e-06
6.42138e-06
7.92292e-06
7.74994e-06
8.6697e-06
1.06158e-05
1.22264e-05
1.32025e-05
1.39405e-05
1.48876e-05
1.66487e-05
1.98445e-05
2.49018e-05
3.17105e-05
3.82766e-05
4.37547e-05
4.72639e-05
4.86146e-05
4.79899e-05
3.95919e-05
2.48349e-05
1.49379e-05
9.89027e-06
7.49246e-06
6.35565e-06
5.80422e-06
5.52485e-06
5.37182e-06
5.27585e-06
5.20235e-06
5.13656e-06
5.07372e-06
5.01388e-06
4.95913e-06
4.91175e-06
4.87374e-06
4.84571e-06
4.82796e-06
4.81798e-06
4.81505e-06
4.8122e-06
4.81236e-06
4.79996e-06
4.79534e-06
4.75585e-06
4.75442e-06
4.65501e-06
4.68619e-06
4.3029e-06
2.02058e-05
1.22761e-05
6.88222e-06
6.08446e-06
5.25654e-06
4.20185e-06
3.73853e-06
3.65201e-06
3.9078e-06
4.30613e-06
4.89556e-06
5.96908e-06
8.16125e-06
9.44717e-06
9.18784e-06
1.02284e-05
1.21517e-05
1.36977e-05
1.48838e-05
1.63763e-05
1.90821e-05
2.41352e-05
3.24847e-05
4.4006e-05
5.6606e-05
6.64966e-05
7.28333e-05
7.49352e-05
7.28796e-05
6.65882e-05
5.31994e-05
3.62462e-05
2.27324e-05
1.43278e-05
9.8074e-06
7.52142e-06
6.37075e-06
5.77328e-06
5.44028e-06
5.23141e-06
5.07612e-06
4.94236e-06
4.81729e-06
4.69712e-06
4.58235e-06
4.47486e-06
4.37702e-06
4.29027e-06
4.21597e-06
4.15289e-06
4.10115e-06
4.05485e-06
4.01652e-06
3.97163e-06
3.93783e-06
3.87521e-06
3.85073e-06
3.73548e-06
3.74524e-06
3.38339e-06
2.22473e-05
1.39973e-05
8.40596e-06
6.83417e-06
5.91881e-06
4.72762e-06
4.11028e-06
3.96301e-06
4.31239e-06
4.93531e-06
5.94274e-06
7.67359e-06
1.03589e-05
1.12571e-05
1.09521e-05
1.20453e-05
1.39219e-05
1.56469e-05
1.75395e-05
2.07157e-05
2.67984e-05
3.75152e-05
5.32478e-05
7.14397e-05
8.71157e-05
9.69936e-05
0.000101237
0.000100024
9.38472e-05
8.27199e-05
6.67263e-05
4.8796e-05
3.28763e-05
2.11942e-05
1.39384e-05
9.91776e-06
7.79434e-06
6.66731e-06
6.03826e-06
5.65321e-06
5.38216e-06
5.16297e-06
4.96696e-06
4.7818e-06
4.60338e-06
4.43138e-06
4.26749e-06
4.1137e-06
3.97253e-06
3.84456e-06
3.73138e-06
3.62903e-06
3.53997e-06
3.45185e-06
3.37854e-06
3.28613e-06
3.22918e-06
3.09938e-06
3.07538e-06
2.75008e-06
2.4279e-05
1.57785e-05
1.00438e-05
7.77688e-06
6.66584e-06
5.4579e-06
4.71594e-06
4.52242e-06
5.0092e-06
5.96433e-06
7.54164e-06
9.9965e-06
1.2882e-05
1.33495e-05
1.30015e-05
1.40937e-05
1.60202e-05
1.82515e-05
2.14887e-05
2.75289e-05
3.88203e-05
5.68878e-05
7.95962e-05
0.000101333
0.000116273
0.00012367
0.000124626
0.000120022
0.000110553
9.64702e-05
7.94068e-05
6.10409e-05
4.38156e-05
2.97457e-05
1.98209e-05
1.36897e-05
1.02156e-05
8.30376e-06
7.22808e-06
6.5822e-06
6.14941e-06
5.82046e-06
5.54049e-06
5.28227e-06
5.03306e-06
4.78786e-06
4.54637e-06
4.31071e-06
4.08499e-06
3.87247e-06
3.67741e-06
3.49886e-06
3.34028e-06
3.19192e-06
3.06449e-06
2.92981e-06
2.83015e-06
2.67856e-06
2.61397e-06
2.32309e-06
2.61493e-05
1.75392e-05
1.17346e-05
8.89848e-06
7.49219e-06
6.30919e-06
5.51057e-06
5.31354e-06
5.99448e-06
7.39881e-06
9.67138e-06
1.27957e-05
1.56139e-05
1.57194e-05
1.53166e-05
1.64025e-05
1.85565e-05
2.16886e-05
2.70238e-05
3.71915e-05
5.5033e-05
8.02342e-05
0.000107183
0.000129088
0.000141264
0.000145388
0.00014305
0.000135577
0.000123747
0.000108272
9.08766e-05
7.23039e-05
5.43658e-05
3.88163e-05
2.68413e-05
1.86793e-05
1.36586e-05
1.07441e-05
9.06644e-06
8.06475e-06
7.41718e-06
6.95075e-06
6.57296e-06
6.23405e-06
5.90752e-06
5.5802e-06
5.24774e-06
4.91157e-06
4.57777e-06
4.25354e-06
3.94776e-06
3.6642e-06
3.40918e-06
3.17603e-06
2.97372e-06
2.77837e-06
2.62218e-06
2.43569e-06
2.32359e-06
2.05656e-06
2.77822e-05
1.9217e-05
1.34211e-05
1.01653e-05
8.42052e-06
7.21763e-06
6.42085e-06
6.28019e-06
7.21664e-06
9.17269e-06
1.21996e-05
1.58521e-05
1.84853e-05
1.83655e-05
1.79082e-05
1.90332e-05
2.16376e-05
2.61095e-05
3.43278e-05
4.96464e-05
7.42768e-05
0.000104823
0.000133184
0.00015323
0.000162209
0.000162997
0.000157605
0.000147704
0.000134178
0.00011834
0.000100965
8.23738e-05
6.40225e-05
4.75514e-05
3.41862e-05
2.44102e-05
1.79317e-05
1.39345e-05
1.15495e-05
1.0113e-05
9.20334e-06
8.57582e-06
8.09112e-06
7.66965e-06
7.26545e-06
6.85281e-06
6.42019e-06
5.96653e-06
5.49968e-06
5.03206e-06
4.5796e-06
4.15356e-06
3.76597e-06
3.41463e-06
3.10866e-06
2.82716e-06
2.59491e-06
2.35502e-06
2.18522e-06
1.92733e-06
2.91575e-05
2.07695e-05
1.50542e-05
1.15316e-05
9.46547e-06
8.16864e-06
7.38212e-06
7.33966e-06
8.57617e-06
1.11461e-05
1.49154e-05
1.89648e-05
2.14693e-05
2.12933e-05
2.08107e-05
2.20564e-05
2.53525e-05
3.16104e-05
4.33984e-05
6.43615e-05
9.49871e-05
0.000128783
0.000156769
0.000174194
0.000179941
0.000177465
0.000169188
0.000157106
0.000142407
0.00012666
0.00010957
9.11937e-05
7.26663e-05
5.5582e-05
4.12632e-05
3.03219e-05
2.26658e-05
1.76747e-05
1.45729e-05
1.2669e-05
1.14729e-05
1.06744e-05
1.00846e-05
9.58953e-06
9.11883e-06
8.62974e-06
8.09944e-06
7.52125e-06
6.90318e-06
6.26312e-06
5.62642e-06
5.01521e-06
4.45129e-06
3.93966e-06
3.49243e-06
3.09122e-06
2.75604e-06
2.43828e-06
2.19519e-06
1.92937e-06
3.02885e-05
2.21726e-05
1.65959e-05
1.29467e-05
1.06225e-05
9.18045e-06
8.36987e-06
8.42028e-06
9.95939e-06
1.31507e-05
1.76123e-05
2.20122e-05
2.45618e-05
2.45116e-05
2.4069e-05
2.55359e-05
2.97605e-05
3.82067e-05
5.40291e-05
8.05459e-05
0.000115903
0.000151331
0.000178061
0.000192646
0.000195172
0.000189464
0.00017837
0.000164212
0.000148766
0.000133219
0.000116622
9.87276e-05
8.02918e-05
6.28253e-05
4.78015e-05
3.60036e-05
2.74637e-05
2.16685e-05
1.79354e-05
1.55934e-05
1.41217e-05
1.31632e-05
1.24849e-05
1.19382e-05
1.1426e-05
1.08852e-05
1.02773e-05
9.5859e-06
8.81547e-06
7.98758e-06
7.13775e-06
6.30192e-06
5.51633e-06
4.79735e-06
4.16427e-06
3.60228e-06
3.12954e-06
2.70292e-06
2.36444e-06
2.07159e-06
3.12048e-05
2.34172e-05
1.80199e-05
1.43618e-05
1.18698e-05
1.02722e-05
9.39535e-06
9.49027e-06
1.12822e-05
1.50495e-05
2.01532e-05
2.49508e-05
2.77651e-05
2.80281e-05
2.7726e-05
2.95186e-05
3.48812e-05
4.58256e-05
6.58688e-05
9.74346e-05
0.000136285
0.000172311
0.000197396
0.000209077
0.000208363
0.000199407
0.000185507
0.000169361
0.000153429
0.000138031
0.000122078
0.000104931
8.68934e-05
6.92915e-05
5.37378e-05
4.12562e-05
3.20349e-05
2.56237e-05
2.13903e-05
1.86874e-05
1.69846e-05
1.58985e-05
1.5162e-05
1.45964e-05
1.40795e-05
1.3526e-05
1.28795e-05
1.21089e-05
1.12102e-05
1.02039e-05
9.13349e-06
8.04935e-06
7.00599e-06
6.03594e-06
5.17121e-06
4.4034e-06
3.75275e-06
3.18047e-06
2.71813e-06
2.37714e-06
3.19407e-05
2.45051e-05
1.93111e-05
1.57337e-05
1.31745e-05
1.14491e-05
1.04807e-05
1.05608e-05
1.25114e-05
1.67683e-05
2.24793e-05
2.77824e-05
3.10779e-05
3.1842e-05
3.18121e-05
3.40285e-05
4.06922e-05
5.4321e-05
7.85177e-05
0.000114443
0.000155785
0.000191791
0.000215056
0.000223785
0.000219779
0.000207539
0.000190828
0.000172907
0.000156455
0.000141147
0.000125927
0.000109763
9.24421e-05
7.49913e-05
5.90887e-05
4.6032e-05
3.62341e-05
2.93307e-05
2.47143e-05
2.17407e-05
1.9869e-05
1.86999e-05
1.79428e-05
1.73958e-05
1.69154e-05
1.63965e-05
1.57636e-05
1.49682e-05
1.3992e-05
1.28479e-05
1.15811e-05
1.02534e-05
8.93853e-06
7.68891e-06
6.55524e-06
5.53982e-06
4.67031e-06
3.91296e-06
3.29418e-06
2.88249e-06
3.25289e-05
2.54456e-05
2.04636e-05
1.70276e-05
1.44975e-05
1.27008e-05
1.16419e-05
1.16653e-05
1.36572e-05
1.82902e-05
2.45821e-05
3.05223e-05
3.44898e-05
3.59401e-05
3.63382e-05
3.90652e-05
4.71336e-05
6.35035e-05
9.16046e-05
0.00013118
0.000174257
0.000209864
0.000231208
0.000236917
0.000229558
0.000214008
0.000194497
0.000175136
0.000157946
0.000142654
0.0001282
0.000113196
9.68963e-05
7.99117e-05
6.38784e-05
5.03527e-05
4.00283e-05
3.26867e-05
2.77557e-05
2.45801e-05
2.25962e-05
2.13876e-05
2.06451e-05
2.01502e-05
1.97436e-05
1.93048e-05
1.87412e-05
1.7986e-05
1.70029e-05
1.57899e-05
1.43854e-05
1.28551e-05
1.12882e-05
9.75782e-06
8.33796e-06
7.04639e-06
5.92468e-06
4.94625e-06
4.13911e-06
3.63453e-06
3.29984e-05
2.62522e-05
2.14793e-05
1.82184e-05
1.57992e-05
1.40042e-05
1.28818e-05
1.28303e-05
1.4768e-05
1.96332e-05
2.64733e-05
3.31678e-05
3.7979e-05
4.02936e-05
4.12758e-05
4.46056e-05
5.41189e-05
7.3171e-05
0.00010482
0.000147387
0.000191631
0.000226582
0.000245914
0.00024852
0.000237754
0.000218902
0.000196851
0.000176087
0.000158027
0.000142673
0.000128967
0.000115239
0.000100218
8.40201e-05
6.81131e-05
5.42542e-05
4.34437e-05
3.56744e-05
3.04466e-05
2.70991e-05
2.50366e-05
2.38172e-05
2.3113e-05
2.26924e-05
2.23858e-05
2.20619e-05
2.16155e-05
2.09637e-05
2.00506e-05
1.88543e-05
1.73975e-05
1.57397e-05
1.39775e-05
1.22003e-05
1.0507e-05
8.93423e-06
7.54415e-06
6.3201e-06
5.3005e-06
4.68451e-06
3.33731e-05
2.69399e-05
2.23651e-05
1.92909e-05
1.70431e-05
1.53274e-05
1.41901e-05
1.40688e-05
1.59049e-05
2.08321e-05
2.81662e-05
3.57022e-05
4.15109e-05
4.48565e-05
4.65957e-05
5.06077e-05
6.15463e-05
8.31297e-05
0.000117916
0.000162891
0.000207855
0.000241942
0.00025916
0.000258573
0.000244371
0.000222293
0.000198149
0.000175835
0.000156835
0.000141346
0.000128339
0.000115932
0.000102389
8.72776e-05
7.17781e-05
5.77611e-05
4.6523e-05
3.83251e-05
3.2786e-05
2.92603e-05
2.71233e-05
2.59005e-05
2.52417e-05
2.49027e-05
2.47067e-05
2.45167e-05
2.42198e-05
2.37208e-05
2.29464e-05
2.18527e-05
2.04406e-05
1.87532e-05
1.68834e-05
1.49285e-05
1.3009e-05
1.11804e-05
9.53138e-06
8.05694e-06
6.81659e-06
6.07866e-06
3.36727e-05
2.75243e-05
2.31316e-05
2.02381e-05
1.81985e-05
1.66342e-05
1.55451e-05
1.53814e-05
1.70949e-05
2.19696e-05
2.96706e-05
3.80992e-05
4.5037e-05
4.95658e-05
5.22426e-05
5.70132e-05
6.93094e-05
9.3205e-05
0.000130696
0.000177557
0.000222863
0.00025589
0.000270867
0.000267011
0.000249381
0.000224493
0.000198361
0.000174467
0.000154511
0.000138835
0.000126451
0.000115356
0.000103419
8.96517e-05
7.48452e-05
6.08785e-05
4.93019e-05
4.06866e-05
3.48122e-05
3.10794e-05
2.88475e-05
2.7608e-05
2.69848e-05
2.67196e-05
2.66298e-05
2.65759e-05
2.64417e-05
2.61248e-05
2.55386e-05
2.46188e-05
2.33424e-05
2.17285e-05
1.9856e-05
1.78188e-05
1.57513e-05
1.37244e-05
1.18557e-05
1.01518e-05
8.70505e-06
7.8469e-06
3.39127e-05
2.80197e-05
2.37911e-05
2.10609e-05
1.9243e-05
1.78878e-05
1.69162e-05
1.67562e-05
1.83514e-05
2.31074e-05
3.10231e-05
4.03199e-05
4.8496e-05
5.43424e-05
5.81349e-05
6.375e-05
7.73045e-05
0.000103247
0.000143003
0.000191274
0.000236574
0.000268334
0.000280913
0.000273739
0.000252904
0.000225606
0.000197494
0.000172067
0.000151191
0.000135302
0.000123465
0.000113622
0.000103348
9.11264e-05
7.72826e-05
6.35939e-05
5.17998e-05
4.2803e-05
3.6577e-05
3.2602e-05
3.02407e-05
2.89566e-05
2.83464e-05
2.81356e-05
2.81354e-05
2.82056e-05
2.82299e-05
2.81033e-05
2.77309e-05
2.70327e-05
2.59629e-05
2.45143e-05
2.27438e-05
2.0731e-05
1.86145e-05
1.64726e-05
1.44518e-05
1.25666e-05
1.09539e-05
9.99221e-06
3.41053e-05
2.84395e-05
2.43568e-05
2.17651e-05
2.01622e-05
1.90546e-05
1.82674e-05
1.81701e-05
1.96745e-05
2.42698e-05
3.23041e-05
4.23196e-05
5.18142e-05
5.90936e-05
6.41686e-05
7.0733e-05
8.54361e-05
0.000113131
0.00015471
0.000203946
0.000248889
0.000279149
0.000289142
0.000278715
0.000255139
0.000225577
0.000195572
0.000168721
0.000147006
0.000130912
0.00011955
0.000110869
0.000102248
9.17083e-05
7.90637e-05
6.58721e-05
5.40202e-05
4.47062e-05
3.81299e-05
3.38831e-05
3.1355e-05
2.99917e-05
2.93648e-05
2.9182e-05
2.92473e-05
2.94198e-05
2.95853e-05
2.96394e-05
2.9484e-05
2.90288e-05
2.82101e-05
2.69953e-05
2.54162e-05
2.35298e-05
2.14696e-05
1.93112e-05
1.72268e-05
1.52316e-05
1.35174e-05
1.24843e-05
3.42604e-05
2.87951e-05
2.48412e-05
2.2361e-05
2.09506e-05
2.01067e-05
1.95604e-05
1.95914e-05
2.10512e-05
2.54691e-05
3.35297e-05
4.41397e-05
5.48929e-05
6.37153e-05
7.02224e-05
7.7865e-05
9.36204e-05
0.00012277
0.000165727
0.000215486
0.0002597
0.000288184
0.000295373
0.000282085
0.000256048
0.000224382
0.000192629
0.000164511
0.000142078
0.000125822
0.000114881
0.000107252
0.000100221
9.14292e-05
8.01739e-05
6.76948e-05
5.59562e-05
4.64135e-05
3.95092e-05
3.49742e-05
3.22471e-05
3.07704e-05
3.00952e-05
2.99118e-05
3.00155e-05
3.02637e-05
3.05449e-05
3.07577e-05
3.08048e-05
3.05913e-05
3.00411e-05
2.9101e-05
2.7778e-05
2.61029e-05
2.41961e-05
2.21216e-05
2.00716e-05
1.80527e-05
1.63197e-05
1.52597e-05
3.43854e-05
2.90966e-05
2.52563e-05
2.28607e-05
2.16096e-05
2.10241e-05
2.07583e-05
2.0982e-05
2.24568e-05
2.67054e-05
3.47107e-05
4.57967e-05
5.76823e-05
6.80947e-05
7.6164e-05
8.50372e-05
0.000101789
0.00013211
0.000175999
0.000225822
0.000268885
0.000295227
0.000299677
0.000283867
0.000255608
0.000222017
0.000188707
0.000159516
0.000136522
0.00012018
0.000109628
0.000102936
9.73868e-05
9.03458e-05
8.06145e-05
6.90436e-05
5.75941e-05
4.79304e-05
4.07404e-05
3.59167e-05
3.29685e-05
3.13489e-05
3.05966e-05
3.03853e-05
3.05003e-05
3.07968e-05
3.11651e-05
3.1508e-05
3.17318e-05
3.17415e-05
3.14549e-05
3.08039e-05
2.97743e-05
2.83707e-05
2.66964e-05
2.4796e-05
2.28762e-05
2.09246e-05
1.92636e-05
1.82294e-05
3.44865e-05
2.93525e-05
2.56126e-05
2.32774e-05
2.21468e-05
2.17955e-05
2.18287e-05
2.23005e-05
2.38571e-05
2.79662e-05
3.58517e-05
4.72782e-05
6.01852e-05
7.21332e-05
8.18571e-05
9.21314e-05
0.000109887
0.000141147
0.000185516
0.000234723
0.000276201
0.000300298
0.000302146
0.000284071
0.00025381
0.000218502
0.000183859
0.000153817
0.000130446
0.000114122
0.000103954
9.80896e-05
9.38841e-05
8.85368e-05
8.04046e-05
6.99071e-05
5.89181e-05
4.92532e-05
4.18372e-05
3.67397e-05
3.35601e-05
3.17761e-05
3.09227e-05
3.06596e-05
3.0762e-05
3.10811e-05
3.15083e-05
3.19508e-05
3.23198e-05
3.2524e-05
3.24798e-05
3.21106e-05
3.13866e-05
3.0289e-05
2.89025e-05
2.72483e-05
2.55424e-05
2.37435e-05
2.22439e-05
2.12909e-05
3.45683e-05
2.957e-05
2.59196e-05
2.36242e-05
2.2574e-05
2.24183e-05
2.27467e-05
2.35066e-05
2.52105e-05
2.9227e-05
3.69498e-05
4.85756e-05
6.23575e-05
7.5775e-05
8.71944e-05
9.90251e-05
0.000117838
0.000149712
0.000194008
0.000242087
0.000281683
0.000303465
0.000302844
0.000282715
0.000250666
0.000213869
0.000178143
0.000147499
0.000123957
0.000107777
9.80075e-05
9.28738e-05
8.98578e-05
8.60988e-05
7.95806e-05
7.02848e-05
5.9915e-05
5.03738e-05
4.2804e-05
3.74614e-05
3.40512e-05
3.20902e-05
3.11179e-05
3.0784e-05
3.08537e-05
3.11733e-05
3.16342e-05
3.2147e-05
3.26288e-05
3.29937e-05
3.31612e-05
3.30517e-05
3.26252e-05
3.18444e-05
3.07771e-05
2.94193e-05
2.79924e-05
2.6419e-05
2.51602e-05
2.43412e-05
3.46347e-05
2.97549e-05
2.6185e-05
2.39135e-05
2.29055e-05
2.28976e-05
2.34963e-05
2.45636e-05
2.64721e-05
3.04531e-05
3.79934e-05
4.96826e-05
6.41643e-05
7.89465e-05
9.2066e-05
0.000105527
0.000125419
0.000157634
0.000201374
0.000247902
0.000285378
0.000304795
0.000301828
0.000279828
0.000246207
0.000208169
0.000171633
0.000140649
0.000117155
0.000101261
9.1927e-05
8.74417e-05
8.54546e-05
8.31412e-05
7.81948e-05
7.01891e-05
6.05767e-05
5.12827e-05
4.36396e-05
3.80914e-05
3.44617e-05
3.23192e-05
3.12166e-05
3.07977e-05
3.0819e-05
3.11212e-05
3.15944e-05
3.2152e-05
3.27162e-05
3.32078e-05
3.35521e-05
3.36709e-05
3.35197e-05
3.3048e-05
3.23096e-05
3.12764e-05
3.01729e-05
2.88805e-05
2.79265e-05
2.72884e-05
3.46886e-05
2.99124e-05
2.64154e-05
2.41562e-05
2.3157e-05
2.32447e-05
2.40712e-05
2.54425e-05
2.7597e-05
3.16021e-05
3.89614e-05
5.05929e-05
6.55811e-05
8.15824e-05
9.63617e-05
0.000111454
0.000132425
0.000164755
0.000207539
0.000252176
0.000287342
0.000304354
0.000299157
0.000275454
0.000240482
0.000201467
0.000164407
0.00013336
0.000110141
9.46836e-05
8.58343e-05
8.19325e-05
8.08166e-05
7.97803e-05
7.63118e-05
6.96472e-05
6.09034e-05
5.19721e-05
4.43395e-05
3.8633e-05
3.48034e-05
3.24825e-05
3.12438e-05
3.07304e-05
3.06919e-05
3.0963e-05
3.14316e-05
3.20125e-05
3.26326e-05
3.32194e-05
3.37053e-05
3.40171e-05
3.41104e-05
3.3927e-05
3.351e-05
3.28104e-05
3.20544e-05
3.10803e-05
3.04772e-05
3.00581e-05
3.47324e-05
3.00466e-05
2.66163e-05
2.43618e-05
2.3344e-05
2.34756e-05
2.44749e-05
2.61239e-05
2.85451e-05
3.26279e-05
3.9824e-05
5.12986e-05
6.65922e-05
8.36285e-05
9.99854e-05
0.000116653
0.000138664
0.000170931
0.000212447
0.000254932
0.000287635
0.000302211
0.000294894
0.000269654
0.000233561
0.000193845
0.00015656
0.000125731
0.000103015
8.8144e-05
7.98376e-05
7.64699e-05
7.60767e-05
7.61346e-05
7.40318e-05
6.87001e-05
6.09038e-05
5.24373e-05
4.48986e-05
3.90861e-05
3.50827e-05
3.25922e-05
3.12168e-05
3.06038e-05
3.04978e-05
3.07278e-05
3.11789e-05
3.17663e-05
3.24202e-05
3.30747e-05
3.36696e-05
3.41391e-05
3.44422e-05
3.45179e-05
3.44026e-05
3.40301e-05
3.3628e-05
3.29922e-05
3.2768e-05
3.25966e-05
3.4768e-05
3.01611e-05
2.67922e-05
2.45382e-05
2.3481e-05
2.36089e-05
2.47187e-05
2.65995e-05
2.92841e-05
3.34844e-05
4.05447e-05
5.17874e-05
6.71897e-05
8.50432e-05
0.000102854
0.000121002
0.000143964
0.000176034
0.000216057
0.000256196
0.000286326
0.00029844
0.000289114
0.000262506
0.000225526
0.000185396
0.000148191
0.000117863
9.58735e-05
8.17336e-05
7.40304e-05
7.11603e-05
7.13548e-05
7.23192e-05
7.1442e-05
6.73975e-05
6.05953e-05
5.26788e-05
4.53125e-05
3.94484e-05
3.53019e-05
3.26557e-05
3.11472e-05
3.0433e-05
3.02549e-05
3.04372e-05
3.08616e-05
3.14427e-05
3.21132e-05
3.28123e-05
3.34877e-05
3.40817e-05
3.45593e-05
3.48609e-05
3.50198e-05
3.49568e-05
3.49006e-05
3.46082e-05
3.47748e-05
3.48704e-05
3.47969e-05
3.02588e-05
2.69467e-05
2.46917e-05
2.35809e-05
2.36645e-05
2.4821e-05
2.68722e-05
2.97929e-05
3.41307e-05
4.10839e-05
5.20431e-05
6.73714e-05
8.57996e-05
0.000104898
0.000124409
0.000148192
0.000179951
0.000218334
0.000256003
0.000283484
0.000293118
0.000281902
0.0002541
0.000216477
0.000176227
0.000139412
0.000109863
8.88097e-05
7.55352e-05
6.84925e-05
6.6093e-05
6.67553e-05
6.8442e-05
6.86306e-05
6.57957e-05
6.00028e-05
5.27021e-05
4.55794e-05
3.97176e-05
3.54614e-05
3.26771e-05
3.10426e-05
3.02285e-05
2.99765e-05
3.01071e-05
3.04986e-05
3.10641e-05
3.17377e-05
3.24632e-05
3.31949e-05
3.3884e-05
3.45029e-05
3.49965e-05
3.53977e-05
3.56191e-05
3.58908e-05
3.5935e-05
3.64902e-05
3.68634e-05
3.48204e-05
3.03423e-05
2.70827e-05
2.48272e-05
2.36549e-05
2.36615e-05
2.48041e-05
2.69552e-05
3.0063e-05
3.45351e-05
4.14026e-05
5.20456e-05
6.71385e-05
8.58855e-05
0.000106063
0.000126809
0.000151253
0.00018259
0.000219252
0.000254385
0.000279179
0.000286324
0.000273354
0.000244543
0.000206527
0.000166455
0.000130338
0.000101836
8.19132e-05
6.9622e-05
6.32899e-05
6.13403e-05
6.23663e-05
6.46008e-05
6.56856e-05
6.39563e-05
5.91584e-05
5.25182e-05
4.57001e-05
3.98922e-05
3.55609e-05
3.26584e-05
3.09078e-05
2.99975e-05
2.9672e-05
2.9749e-05
3.01035e-05
3.0647e-05
3.13141e-05
3.20516e-05
3.28202e-05
3.35791e-05
3.43093e-05
3.49621e-05
3.55729e-05
3.60494e-05
3.66239e-05
3.69889e-05
3.79201e-05
3.85737e-05
3.48396e-05
3.04137e-05
2.72028e-05
2.49484e-05
2.37117e-05
2.36177e-05
2.46927e-05
2.68702e-05
3.00993e-05
3.46784e-05
4.1468e-05
5.17739e-05
6.64952e-05
8.53036e-05
0.000106309
0.00012815
0.000153094
0.000183891
0.000218791
0.000251375
0.000273481
0.000278135
0.00026358
0.000233952
0.0001958
0.000156206
0.000121091
9.38868e-05
7.52666e-05
6.40572e-05
5.84758e-05
5.69584e-05
5.82588e-05
6.08808e-05
6.26903e-05
6.1943e-05
5.8099e-05
5.2143e-05
4.5679e-05
3.9972e-05
3.56e-05
3.26009e-05
3.07459e-05
2.97451e-05
2.93482e-05
2.93713e-05
2.96867e-05
3.02039e-05
3.08574e-05
3.15963e-05
3.23862e-05
3.31942e-05
3.40096e-05
3.47917e-05
3.55798e-05
3.62808e-05
3.71289e-05
3.7793e-05
3.90794e-05
4.00098e-05
3.48551e-05
3.04748e-05
2.73089e-05
2.50581e-05
2.37582e-05
2.35486e-05
2.4512e-05
2.66448e-05
2.99189e-05
3.4556e-05
4.12571e-05
5.12095e-05
6.54479e-05
8.40703e-05
0.000105619
0.000128396
0.000153698
0.000183827
0.000216945
0.000247009
0.000266461
0.000268693
0.000252699
0.000222458
0.000184428
0.000145615
0.000111794
8.61171e-05
6.89446e-05
5.88938e-05
5.40909e-05
5.29888e-05
5.44876e-05
5.73538e-05
5.97209e-05
5.9819e-05
5.68652e-05
5.15968e-05
4.55235e-05
3.99589e-05
3.5579e-05
3.25054e-05
3.05593e-05
2.94752e-05
2.90101e-05
2.89803e-05
2.92557e-05
2.97441e-05
3.0379e-05
3.11114e-05
3.19107e-05
3.2751e-05
3.36297e-05
3.45145e-05
3.54501e-05
3.63451e-05
3.74359e-05
3.83737e-05
3.99893e-05
4.11876e-05
3.48676e-05
3.0527e-05
2.74028e-05
2.51584e-05
2.37996e-05
2.34671e-05
2.42855e-05
2.631e-05
2.95491e-05
3.41784e-05
4.07608e-05
5.03407e-05
6.40067e-05
8.22151e-05
0.000103998
0.000127516
0.000153067
0.00018241
0.000213731
0.000241327
0.000258191
0.000258142
0.000240844
0.000210196
0.000172554
0.000134819
0.000102571
7.86214e-05
6.30122e-05
5.41738e-05
5.01645e-05
4.94598e-05
5.10925e-05
5.40778e-05
5.68448e-05
5.76444e-05
5.54994e-05
5.09029e-05
4.52441e-05
3.98566e-05
3.54994e-05
3.23732e-05
3.035e-05
2.91908e-05
2.86619e-05
2.85811e-05
2.88167e-05
2.92746e-05
2.98877e-05
3.06078e-05
3.14075e-05
3.22669e-05
3.31906e-05
3.41554e-05
3.52115e-05
3.62716e-05
3.75745e-05
3.87588e-05
4.06742e-05
4.21277e-05
3.48778e-05
3.05718e-05
2.7486e-05
2.52505e-05
2.38391e-05
2.33832e-05
2.40343e-05
2.58977e-05
2.90247e-05
3.35701e-05
3.99858e-05
4.91663e-05
6.21877e-05
7.97794e-05
0.000101476
0.000125499
0.000151213
0.000179685
0.000209191
0.000234386
0.00024875
0.000246581
0.000228146
0.000197311
0.000160322
0.000123959
9.35389e-05
7.14855e-05
5.75235e-05
4.99288e-05
4.67157e-05
4.63884e-05
4.81001e-05
5.10977e-05
5.41193e-05
5.54751e-05
5.40437e-05
5.00872e-05
4.48539e-05
3.96709e-05
3.53637e-05
3.22057e-05
3.01201e-05
2.88945e-05
2.83071e-05
2.81778e-05
2.83744e-05
2.88011e-05
2.93901e-05
3.00938e-05
3.08871e-05
3.17552e-05
3.27093e-05
3.37348e-05
3.48879e-05
3.60866e-05
3.75723e-05
3.89755e-05
4.11602e-05
4.28534e-05
3.48861e-05
3.06103e-05
2.75598e-05
2.53355e-05
2.3879e-05
2.33042e-05
2.37761e-05
2.54381e-05
2.83844e-05
3.2767e-05
3.89547e-05
4.76994e-05
6.00156e-05
7.68165e-05
9.81081e-05
0.000122352
0.000148146
0.000175713
0.0002034
0.000226265
0.00023823
0.000234122
0.000214747
0.000183951
0.000147883
0.000113175
8.48115e-05
6.47843e-05
5.25214e-05
4.61802e-05
4.37544e-05
4.3782e-05
4.55255e-05
4.8446e-05
5.15912e-05
5.33602e-05
5.25386e-05
4.91766e-05
4.43679e-05
3.94093e-05
3.51757e-05
3.20055e-05
2.98716e-05
2.85891e-05
2.79487e-05
2.77741e-05
2.79329e-05
2.83283e-05
2.88917e-05
2.95759e-05
3.03576e-05
3.12266e-05
3.21995e-05
3.32699e-05
3.44996e-05
3.58133e-05
3.74545e-05
3.90499e-05
4.14732e-05
4.33886e-05
3.48927e-05
3.06433e-05
2.76252e-05
2.54141e-05
2.39204e-05
2.32353e-05
2.3525e-05
2.49587e-05
2.76679e-05
3.1813e-05
3.77046e-05
4.59682e-05
5.7526e-05
7.33913e-05
9.39764e-05
0.000118114
0.000143876
0.000170553
0.000196449
0.000217062
0.000226737
0.000220895
0.000200789
0.000170262
0.000135387
0.000102605
7.64916e-05
5.85806e-05
4.80371e-05
4.29402e-05
4.12832e-05
4.16409e-05
4.33748e-05
4.61453e-05
4.92965e-05
5.13419e-05
5.10222e-05
4.81984e-05
4.38026e-05
3.90808e-05
3.49401e-05
3.17756e-05
2.96071e-05
2.8277e-05
2.75896e-05
2.73732e-05
2.74958e-05
2.78601e-05
2.83968e-05
2.90592e-05
2.98256e-05
3.06894e-05
3.1672e-05
3.27742e-05
3.40635e-05
3.54714e-05
3.72434e-05
3.90058e-05
4.16382e-05
4.37574e-05
3.4898e-05
3.06718e-05
2.76832e-05
2.54868e-05
2.39637e-05
2.31791e-05
2.32911e-05
2.44824e-05
2.6913e-05
3.0756e-05
3.62838e-05
4.40157e-05
5.47674e-05
6.95806e-05
8.91866e-05
0.000112863
0.000138426
0.000164253
0.000188432
0.000206891
0.000214387
0.000207033
0.000186415
0.000156395
0.000122985
9.23818e-05
6.86701e-05
5.29234e-05
4.40904e-05
4.02125e-05
3.92988e-05
3.99598e-05
4.16469e-05
4.42173e-05
4.72607e-05
4.94547e-05
4.95285e-05
4.71791e-05
4.31753e-05
3.86956e-05
3.4663e-05
3.15197e-05
2.93294e-05
2.7961e-05
2.72327e-05
2.69781e-05
2.70664e-05
2.73999e-05
2.79093e-05
2.85481e-05
2.92963e-05
3.01501e-05
3.11353e-05
3.2259e-05
3.35936e-05
3.50779e-05
3.69587e-05
3.88648e-05
4.16783e-05
4.39826e-05
3.49023e-05
3.06963e-05
2.77347e-05
2.5554e-05
2.40088e-05
2.31372e-05
2.30816e-05
2.40274e-05
2.61531e-05
2.96439e-05
3.47474e-05
4.18974e-05
5.18011e-05
6.54724e-05
8.38652e-05
0.000106715
0.000131845
0.000156849
0.00017943
0.000195862
0.000201287
0.000192668
0.000171763
0.000142496
0.000110827
8.26282e-05
6.1424e-05
4.7848e-05
4.06907e-05
3.79943e-05
3.77938e-05
3.87302e-05
4.03361e-05
4.26577e-05
4.54987e-05
4.77261e-05
4.80879e-05
4.61441e-05
4.25037e-05
3.82646e-05
3.43508e-05
3.12421e-05
2.90416e-05
2.76438e-05
2.68807e-05
2.65917e-05
2.66476e-05
2.6951e-05
2.74324e-05
2.80463e-05
2.87738e-05
2.96141e-05
3.05963e-05
3.17333e-05
3.31015e-05
3.4647e-05
3.66175e-05
3.86463e-05
4.16151e-05
4.4086e-05
3.49057e-05
3.07176e-05
2.77805e-05
2.56161e-05
2.40553e-05
2.31093e-05
2.29004e-05
2.36069e-05
2.54161e-05
2.85212e-05
3.31527e-05
3.96771e-05
4.86987e-05
6.11645e-05
7.8156e-05
9.98277e-05
0.000124226
0.000148382
0.0001695
0.000184064
0.000187519
0.000177925
0.000156966
0.000128714
9.90623e-05
7.34569e-05
5.48142e-05
4.33756e-05
3.78377e-05
3.62778e-05
3.6759e-05
3.79425e-05
3.94341e-05
4.14593e-05
4.40196e-05
4.61773e-05
4.67266e-05
4.51168e-05
4.18051e-05
3.77992e-05
3.40108e-05
3.09476e-05
2.87472e-05
2.73282e-05
2.65362e-05
2.62167e-05
2.62423e-05
2.65162e-05
2.69693e-05