/*--------------------------------*- C++ -*----------------------------------*\
| =========                 |                                                 |
| \\      /  F ield         | OpenFOAM: The Open Source CFD Toolbox           |
|  \\    /   O peration     | Version:  2.4.0                                 |
|   \\  /    A nd           | Web:      www.OpenFOAM.org                      |
|    \\/     M anipulation  |                                                 |
\*---------------------------------------------------------------------------*/
FoamFile
{
    version     2.0;
    format      ascii;
    class       volScalarField;
    location    "1.86";
    object      p;
}
// * * * * * * * * * * * * * * * * * * * * * * * * * * * * * * * * * * * * * //

dimensions      [0 2 -2 0 0 0 0];

internalField   nonuniform List<scalar> 
6000
(
0.062666
0.291788
0.288726
0.31212
0.317627
0.325385
0.328508
0.332172
0.334057
0.336101
0.337715
0.339766
0.341768
0.343285
0.343259
0.341076
0.336212
0.328424
0.317935
0.306381
0.296766
0.292472
0.296116
0.308959
0.330787
0.359975
0.393527
0.427579
0.458225
0.482666
0.499725
0.509685
0.513816
0.513757
0.511049
0.506927
0.502291
0.497745
0.493657
0.490193
0.487367
0.485068
0.483098
0.481198
0.479058
0.476343
0.472689
0.467744
0.461078
0.452398
0.441054
0.427082
0.408857
0.38811
0.358744
0.330918
0.278206
0.250686
0.131642
0.145456
0.0776855
0.290002
0.288769
0.311971
0.317543
0.325298
0.328451
0.332121
0.334026
0.336071
0.337677
0.339712
0.341704
0.343228
0.343236
0.34111
0.336341
0.328638
0.318223
0.306688
0.297019
0.292617
0.29613
0.30885
0.330582
0.359698
0.393238
0.427306
0.457987
0.482468
0.499563
0.509562
0.513734
0.513702
0.511008
0.506891
0.502256
0.497712
0.493621
0.490153
0.487319
0.485015
0.483039
0.481129
0.478974
0.476241
0.472561
0.467585
0.460883
0.452156
0.440758
0.426717
0.408422
0.387571
0.35815
0.330118
0.277436
0.249371
0.130744
0.143121
0.0915312
0.287926
0.288865
0.311853
0.317471
0.32523
0.328401
0.332081
0.333997
0.336043
0.337641
0.339659
0.341641
0.343176
0.343223
0.341163
0.336479
0.328873
0.318523
0.306983
0.297227
0.292681
0.296036
0.308616
0.330249
0.359319
0.392864
0.426983
0.457732
0.482279
0.499426
0.509472
0.513678
0.513661
0.510974
0.506857
0.50222
0.497672
0.493577
0.490106
0.487269
0.484959
0.482976
0.481056
0.478888
0.476136
0.472434
0.467429
0.460692
0.451924
0.44048
0.426382
0.408028
0.387091
0.357599
0.329405
0.276687
0.248204
0.129758
0.141037
0.103002
0.285748
0.289004
0.311762
0.317416
0.325175
0.328359
0.332047
0.333972
0.336017
0.337604
0.339606
0.341583
0.343135
0.34323
0.341241
0.336642
0.329122
0.318807
0.30721
0.297314
0.292586
0.295765
0.308207
0.329759
0.358813
0.392404
0.426618
0.457475
0.482115
0.499331
0.50943
0.513657
0.513644
0.51095
0.506825
0.50218
0.497624
0.493525
0.49005
0.487211
0.484898
0.48291
0.480982
0.478803
0.476036
0.472312
0.467281
0.460511
0.451704
0.440216
0.426063
0.407653
0.386634
0.357076
0.328733
0.275974
0.247126
0.12881
0.139272
0.112993
0.283576
0.289166
0.311693
0.317379
0.325128
0.328324
0.332018
0.33395
0.335992
0.337567
0.339553
0.341528
0.343105
0.343256
0.341344
0.336835
0.329388
0.319066
0.307352
0.297252
0.292302
0.295293
0.307607
0.329095
0.358159
0.391828
0.426173
0.457174
0.481938
0.499248
0.509412
0.513658
0.513639
0.51093
0.506789
0.502131
0.497566
0.493462
0.489985
0.487145
0.48483
0.482839
0.480905
0.478716
0.475934
0.47219
0.467132
0.46033
0.451484
0.439951
0.425744
0.407277
0.386178
0.356557
0.328068
0.275275
0.246074
0.127901
0.137706
0.122068
0.281477
0.289335
0.311649
0.317356
0.325089
0.328295
0.331993
0.333931
0.335967
0.337527
0.339498
0.341474
0.343084
0.3433
0.341476
0.337062
0.32967
0.319295
0.307394
0.297029
0.291824
0.294624
0.306819
0.328257
0.357342
0.391109
0.425612
0.456789
0.481713
0.499151
0.509389
0.513662
0.513636
0.510908
0.506747
0.502072
0.497497
0.493387
0.489909
0.487069
0.484755
0.482762
0.480824
0.478625
0.475828
0.472063
0.466979
0.460144
0.451258
0.43968
0.425417
0.406895
0.385715
0.356034
0.327399
0.274581
0.24503
0.12702
0.136271
0.130398
0.279492
0.289507
0.311623
0.317348
0.325058
0.328273
0.331972
0.333915
0.335943
0.337486
0.339439
0.341419
0.34307
0.343364
0.34164
0.337324
0.329966
0.319484
0.307325
0.296642
0.291164
0.293778
0.305864
0.327255
0.356366
0.39024
0.424925
0.456311
0.481432
0.499025
0.509347
0.513655
0.513626
0.510877
0.506693
0.502001
0.497416
0.493302
0.489823
0.486985
0.484672
0.482679
0.480736
0.478528
0.475716
0.471931
0.466818
0.45995
0.451024
0.4394
0.425083
0.406505
0.385245
0.355507
0.326726
0.27389
0.243992
0.126167
0.134946
0.13807
0.277644
0.28968
0.3116
0.317363
0.325034
0.328256
0.331955
0.333902
0.33592
0.337442
0.339376
0.341363
0.343065
0.343449
0.341839
0.337626
0.330276
0.319626
0.307141
0.296101
0.290345
0.292784
0.304769
0.326114
0.355253
0.389247
0.424139
0.455762
0.48111
0.498867
0.509277
0.513626
0.513601
0.510833
0.506627
0.501917
0.497322
0.493205
0.489728
0.486893
0.484583
0.48259
0.480643
0.478425
0.475598
0.47179
0.46665
0.459748
0.45078
0.439111
0.424738
0.406106
0.384767
0.354974
0.326051
0.273202
0.242965
0.125345
0.133718
0.145183
0.275944
0.289854
0.311585
0.31739
0.325019
0.328246
0.331943
0.333892
0.335897
0.337397
0.33931
0.341307
0.343067
0.343558
0.342078
0.337969
0.330598
0.319719
0.30685
0.295428
0.289402
0.291678
0.303567
0.324868
0.354045
0.388175
0.423295
0.455173
0.480757
0.498681
0.509181
0.513572
0.513553
0.51077
0.506543
0.501819
0.497216
0.493098
0.489625
0.486794
0.484488
0.482495
0.480544
0.478316
0.475473
0.471643
0.466473
0.459536
0.450527
0.438812
0.424385
0.4057
0.384283
0.354438
0.325374
0.272518
0.241949
0.124553
0.132577
0.151836
0.274401
0.290024
0.311574
0.317428
0.325013
0.328243
0.331935
0.333886
0.335876
0.33735
0.339241
0.341249
0.343079
0.343692
0.34236
0.338355
0.33093
0.319765
0.306466
0.294654
0.288368
0.290493
0.30229
0.323556
0.352778
0.387058
0.422417
0.454558
0.480379
0.498467
0.50906
0.513493
0.51348
0.510685
0.506441
0.501704
0.497096
0.492981
0.489513
0.486689
0.484387
0.482395
0.480439
0.478202
0.475341
0.471488
0.466288
0.459315
0.450263
0.438504
0.424022
0.405285
0.383792
0.353897
0.324696
0.271837
0.240947
0.123792
0.131513
0.158105
0.273016
0.290187
0.311562
0.317477
0.325013
0.328246
0.331932
0.333884
0.335857
0.337302
0.339169
0.341191
0.343099
0.343853
0.342685
0.338784
0.331273
0.319769
0.30601
0.293807
0.287274
0.289256
0.300966
0.322201
0.351476
0.385909
0.421514
0.453915
0.479971
0.498226
0.508915
0.513389
0.513382
0.510576
0.506319
0.501573
0.496964
0.492853
0.489394
0.486578
0.484281
0.48229
0.48033
0.478081
0.475203
0.471325
0.466094
0.459084
0.449991
0.438186
0.42365
0.404862
0.383296
0.353353
0.324019
0.271161
0.23996
0.12306
0.130515
0.164052
0.271793
0.290339
0.311545
0.317534
0.325021
0.328255
0.331933
0.333885
0.335839
0.337254
0.339095
0.341133
0.343129
0.344041
0.343055
0.339257
0.331627
0.319741
0.305502
0.292914
0.286145
0.287992
0.299618
0.320821
0.350147
0.384734
0.420584
0.453246
0.479534
0.497955
0.508741
0.513257
0.513258
0.510443
0.506175
0.501424
0.496819
0.492716
0.489267
0.486461
0.484171
0.482181
0.480216
0.477956
0.475058
0.471155
0.465892
0.458845
0.449709
0.437858
0.42327
0.404432
0.382794
0.352807
0.323344
0.270491
0.238992
0.122356
0.129578
0.169726
0.270732
0.290479
0.311522
0.317599
0.325034
0.328271
0.331938
0.333889
0.335825
0.337207
0.339019
0.341075
0.343168
0.344256
0.343468
0.339769
0.331989
0.31969
0.304961
0.291998
0.285004
0.28672
0.298261
0.319428
0.348802
0.383537
0.41963
0.452548
0.479065
0.497651
0.508535
0.513094
0.513104
0.510284
0.506009
0.501258
0.49666
0.492571
0.489135
0.48634
0.484057
0.482068
0.480098
0.477825
0.474908
0.470978
0.465682
0.458597
0.449417
0.437522
0.422882
0.403996
0.382289
0.352258
0.322673
0.269826
0.238043
0.121679
0.128696
0.175161
0.269833
0.290605
0.311491
0.317668
0.325052
0.328293
0.331947
0.333898
0.335813
0.337161
0.338943
0.341017
0.343216
0.344497
0.343922
0.340317
0.332362
0.319625
0.304406
0.29108
0.28387
0.285457
0.296909
0.318035
0.34745
0.382324
0.418656
0.451824
0.478564
0.49731
0.50829
0.512894
0.512918
0.510096
0.50582
0.501075
0.49649
0.492417
0.488997
0.486215
0.48394
0.481953
0.479977
0.477691
0.474753
0.470795
0.465465
0.458341
0.449118
0.437177
0.422486
0.403553
0.38178
0.351708
0.322005
0.269167
0.237115
0.121026
0.127863
0.180389
0.269095
0.290718
0.31145
0.317741
0.325074
0.32832
0.331959
0.33391
0.335804
0.337118
0.338867
0.340959
0.343271
0.344759
0.34441
0.340895
0.332742
0.319555
0.303853
0.290178
0.282761
0.284218
0.295577
0.316654
0.346101
0.381104
0.417669
0.451074
0.478028
0.496928
0.508001
0.512652
0.512694
0.509878
0.505608
0.500875
0.496308
0.492255
0.488854
0.486087
0.483821
0.481835
0.479853
0.477553
0.474593
0.470606
0.465241
0.458077
0.44881
0.436825
0.422084
0.403105
0.381268
0.351158
0.321343
0.268516
0.236208
0.120395
0.127074
0.185429
0.268514
0.290823
0.311398
0.317815
0.325099
0.328352
0.331975
0.333925
0.335799
0.337077
0.338792
0.340902
0.343333
0.345041
0.344927
0.341496
0.33313
0.319488
0.303315
0.289309
0.281692
0.283017
0.294277
0.315299
0.344768
0.379883
0.416675
0.450299
0.477456
0.4965
0.507662
0.512361
0.512428
0.509626
0.50537
0.500656
0.496113
0.492086
0.488707
0.485957
0.4837
0.481716
0.479728
0.477412
0.47443
0.470413
0.465011
0.457807
0.448496
0.436465
0.421675
0.402652
0.380755
0.350608
0.320686
0.267871
0.235324
0.119786
0.126328
0.1903
0.268086
0.290922
0.311334
0.317889
0.325127
0.32839
0.331993
0.333944
0.335798
0.33704
0.338719
0.340846
0.343399
0.345339
0.345465
0.342113
0.333524
0.319431
0.302808
0.288487
0.280677
0.281869
0.293025
0.313982
0.343462
0.378697
0.415652
0.449502
0.476843
0.49602
0.507266
0.512015
0.512113
0.509335
0.505104
0.500419
0.495908
0.49191
0.488557
0.485825
0.483578
0.481597
0.479601
0.477271
0.474264
0.470216
0.464777
0.457532
0.448176
0.4361
0.421261
0.402195
0.38024
0.350058
0.320037
0.267233
0.234463
0.119197
0.12562
0.195015
0.267805
0.291021
0.311259
0.31796
0.325155
0.328432
0.332015
0.333965
0.335801
0.337009
0.33865
0.340792
0.343469
0.345645
0.346017
0.342737
0.333921
0.31939
0.302341
0.287725
0.279727
0.280785
0.291831
0.312717
0.342194
0.377528
0.414632
0.44868
0.476186
0.495481
0.506806
0.511607
0.511744
0.509002
0.504809
0.500163
0.49569
0.491728
0.488404
0.485693
0.483457
0.481478
0.479475
0.477128
0.474097
0.470017
0.46454
0.457252
0.447851
0.43573
0.420843
0.401735
0.379724
0.34951
0.319394
0.266603
0.233625
0.118625
0.124947
0.199584
0.267666
0.291126
0.311174
0.318027
0.325183
0.328478
0.33204
0.33399
0.335807
0.336982
0.338586
0.34074
0.34354
0.345955
0.346573
0.343362
0.33432
0.319372
0.301925
0.287032
0.278853
0.279776
0.290707
0.311514
0.340977
0.376382
0.413618
0.447835
0.47548
0.494877
0.506273
0.511128
0.511314
0.508622
0.50448
0.499885
0.495461
0.49154
0.488249
0.48556
0.483337
0.48136
0.47935
0.476987
0.47393
0.469816
0.4643
0.456969
0.447522
0.435356
0.420422
0.401273
0.379209
0.348964
0.318759
0.265982
0.23281
0.11807
0.124307
0.204016
0.267661
0.291243
0.311081
0.318088
0.325211
0.328528
0.332067
0.334017
0.335817
0.336962
0.338528
0.340692
0.343611
0.346264
0.347126
0.343978
0.33472
0.319381
0.301566
0.286416
0.278065
0.278852
0.289665
0.310384
0.339816
0.375273
0.412614
0.446964
0.474719
0.494199
0.505659
0.51057
0.510817
0.50819
0.504116
0.499586
0.495219
0.491347
0.488091
0.485427
0.483218
0.481244
0.479227
0.476845
0.473762
0.469614
0.464058
0.456684
0.44719
0.43498
0.419999
0.40081
0.378695
0.348421
0.318132
0.265369
0.232018
0.117532
0.123698
0.208317
0.267782
0.291376
0.310983
0.318143
0.325237
0.328581
0.332096
0.334048
0.33583
0.336949
0.338477
0.340648
0.343681
0.346566
0.347665
0.34458
0.335117
0.31942
0.301272
0.285886
0.27737
0.278022
0.288714
0.309336
0.338722
0.374209
0.411622
0.446067
0.473899
0.493438
0.504953
0.509926
0.510245
0.507701
0.503713
0.499263
0.494966
0.491148
0.487933
0.485296
0.483101
0.48113
0.479105
0.476706
0.473595
0.469413
0.463815
0.456397
0.446857
0.434601
0.419575
0.400348
0.378184
0.347882
0.317515
0.264767
0.231249
0.117009
0.123118
0.212495
0.268021
0.29153
0.310885
0.31819
0.325261
0.328637
0.332128
0.334081
0.335847
0.336943
0.338436
0.34061
0.343749
0.346856
0.348185
0.345159
0.335511
0.319491
0.301045
0.285445
0.276774
0.277294
0.287862
0.30838
0.337707
0.373196
0.410645
0.445143
0.473013
0.492588
0.504148
0.509184
0.509591
0.50715
0.503267
0.498916
0.494699
0.490945
0.487775
0.485167
0.482988
0.48102
0.478987
0.476569
0.47343
0.469211
0.463572
0.456109
0.446522
0.434222
0.419151
0.399886
0.377676
0.347349
0.316909
0.264175
0.230504
0.116501
0.122566
0.216555
0.268371
0.291709
0.310788
0.318231
0.325282
0.328695
0.332162
0.334118
0.335869
0.336944
0.338406
0.340579
0.343814
0.34713
0.348677
0.345711
0.335899
0.319597
0.30089
0.285099
0.276283
0.276675
0.287118
0.307525
0.336777
0.372242
0.409687
0.444189
0.472058
0.491639
0.503233
0.508337
0.508846
0.50653
0.502776
0.498542
0.49442
0.490737
0.487618
0.485042
0.482879
0.480914
0.478872
0.476434
0.473266
0.469011
0.463329
0.45582
0.446187
0.433842
0.418728
0.399426
0.377172
0.346821
0.316313
0.263594
0.229783
0.11601
0.12204
0.220501
0.268822
0.291916
0.310698
0.318265
0.3253
0.328755
0.332199
0.334158
0.335894
0.336954
0.338386
0.340558
0.343876
0.347384
0.349136
0.346229
0.33628
0.319737
0.300806
0.28485
0.275903
0.276171
0.286489
0.30678
0.335941
0.371351
0.408749
0.443206
0.471026
0.490584
0.502198
0.507375
0.508003
0.505835
0.502236
0.49814
0.494129
0.490526
0.487462
0.48492
0.482774
0.480813
0.478761
0.476303
0.473104
0.468811
0.463085
0.455531
0.445851
0.433463
0.418305
0.398969
0.376674
0.346301
0.31573
0.263027
0.229086
0.115535
0.121539
0.224339
0.269368
0.292154
0.310618
0.318295
0.325316
0.328816
0.332239
0.334202
0.335924
0.336971
0.338377
0.340548
0.343937
0.347617
0.349557
0.346711
0.336649
0.319908
0.300795
0.2847
0.275637
0.275788
0.285983
0.30615
0.335206
0.370529
0.407835
0.442191
0.469915
0.489415
0.501035
0.506289
0.507054
0.50506
0.501643
0.497708
0.493824
0.490312
0.487308
0.484804
0.482676
0.480718
0.478656
0.476176
0.472945
0.468612
0.462842
0.455241
0.445515
0.433083
0.417884
0.398515
0.376181
0.345789
0.315159
0.262474
0.228413
0.115076
0.121063
0.228074
0.269999
0.292422
0.310552
0.318323
0.325328
0.328879
0.332282
0.33425
0.335959
0.336997
0.338381
0.340548
0.343998
0.347828
0.349937
0.347151
0.337003
0.320107
0.300855
0.284651
0.275488
0.275532
0.285604
0.305643
0.334576
0.36978
0.406944
0.441143
0.468719
0.488125
0.499736
0.50507
0.50599
0.504199
0.500994
0.497246
0.493506
0.490096
0.487159
0.484694
0.482586
0.48063
0.478556
0.476053
0.472789
0.468416
0.4626
0.454951
0.445178
0.432703
0.417464
0.398064
0.375694
0.345285
0.314602
0.261935
0.227765
0.114636
0.120612
0.23171
0.27071
0.292723
0.310502
0.318349
0.32534
0.328943
0.332328
0.334302
0.335999
0.337033
0.338397
0.340561
0.34406
0.348018
0.350275
0.347548
0.337338
0.320332
0.300985
0.284704
0.27546
0.275404
0.285357
0.305264
0.334058
0.369108
0.40608
0.440061
0.467434
0.486709
0.498293
0.50371
0.504805
0.503245
0.500284
0.49675
0.493175
0.489879
0.487015
0.484592
0.482504
0.48055
0.478464
0.475935
0.472637
0.468221
0.462358
0.454662
0.444841
0.432324
0.417046
0.397616
0.375213
0.34479
0.314057
0.261411
0.227141
0.114214
0.120184
0.235252
0.271493
0.293055
0.310472
0.318377
0.32535
0.329009
0.332378
0.33436
0.336045
0.337078
0.338428
0.340587
0.344123
0.348188
0.350572
0.3479
0.337651
0.32058
0.301183
0.284858
0.275554
0.275409
0.285247
0.305018
0.333657
0.368517
0.405243
0.438944
0.466058
0.485162
0.4967
0.502201
0.50349
0.502193
0.49951
0.496221
0.492832
0.489663
0.486878
0.4845
0.482432
0.480479
0.478379
0.475824
0.472489
0.468029
0.462118
0.454372
0.444505
0.431946
0.41663
0.397173
0.374738
0.344304
0.313527
0.260903
0.226542
0.113811
0.119778
0.238704
0.272341
0.293419
0.310462
0.318408
0.325362
0.329076
0.332433
0.334424
0.336099
0.337133
0.338473
0.340628
0.34419
0.348338
0.350826
0.348204
0.337939
0.320848
0.301447
0.285113
0.275769
0.275548
0.285277
0.304908
0.333376
0.36801
0.404434
0.43779
0.464588
0.483479
0.49495
0.500537
0.502039
0.501038
0.498669
0.495656
0.492476
0.489447
0.486749
0.484419
0.482371
0.480419
0.478303
0.47572
0.472346
0.46784
0.461879
0.454084
0.444168
0.431568
0.416216
0.396733
0.374271
0.343828
0.313011
0.260411
0.225968
0.113427
0.119395
0.242072
0.273248
0.293814
0.310475
0.318445
0.325376
0.329147
0.332493
0.334496
0.336161
0.3372
0.338533
0.340684
0.344263
0.348471
0.351038
0.34846
0.338203
0.321133
0.301775
0.285465
0.276106
0.275823
0.285449
0.304939
0.333219
0.367589
0.403653
0.4366
0.463022
0.481657
0.493039
0.498711
0.500446
0.499773
0.497756
0.495054
0.492107
0.489234
0.48663
0.484351
0.482324
0.480371
0.478237
0.475623
0.472208
0.467654
0.461643
0.453796
0.443833
0.431192
0.415804
0.396297
0.37381
0.343361
0.312509
0.259935
0.225418
0.113062
0.119033
0.245359
0.274209
0.294237
0.310511
0.31849
0.325395
0.329221
0.332559
0.334575
0.336233
0.337279
0.33861
0.340758
0.344342
0.348588
0.35121
0.34867
0.338441
0.321435
0.302162
0.285914
0.276564
0.276234
0.285765
0.305113
0.333189
0.367256
0.402901
0.435372
0.46136
0.479695
0.490964
0.496718
0.498705
0.498394
0.49677
0.494415
0.491727
0.489025
0.486523
0.484298
0.482291
0.480336
0.478183
0.475535
0.472077
0.467473
0.461408
0.45351
0.443498
0.430816
0.415395
0.395865
0.373356
0.342904
0.312021
0.259476
0.224891
0.112715
0.118692
0.248571
0.275218
0.294689
0.310571
0.318543
0.325419
0.329299
0.332632
0.334663
0.336316
0.337372
0.338703
0.34085
0.344429
0.348691
0.351343
0.348834
0.338652
0.321748
0.302605
0.286455
0.277141
0.276781
0.286228
0.305434
0.333289
0.367012
0.402179
0.434107
0.459601
0.477591
0.488721
0.494554
0.496811
0.496897
0.495707
0.493736
0.491336
0.488822
0.48643
0.484261
0.482275
0.480315
0.47814
0.475456
0.471952
0.467296
0.461177
0.453225
0.443165
0.430443
0.414988
0.395438
0.372909
0.342456
0.311547
0.259033
0.224389
0.112388
0.118371
0.251711
0.27627
0.295166
0.310655
0.318608
0.32545
0.329383
0.332713
0.334762
0.336412
0.33748
0.338815
0.340961
0.344527
0.348784
0.351441
0.348955
0.338838
0.322073
0.303102
0.287086
0.277836
0.277466
0.286839
0.305905
0.333521
0.366858
0.401486
0.432805
0.457746
0.475346
0.486308
0.492215
0.49476
0.495277
0.494565
0.493018
0.490934
0.488626
0.486352
0.484243
0.482277
0.480311
0.47811
0.475388
0.471835
0.467124
0.460949
0.452942
0.442833
0.430071
0.414585
0.395016
0.37247
0.342019
0.311088
0.258606
0.22391
0.112079
0.118069
0.254785
0.277361
0.295667
0.310763
0.318683
0.325489
0.329474
0.332804
0.334873
0.336521
0.337605
0.338946
0.341092
0.344638
0.348869
0.351508
0.349034
0.338999
0.322406
0.303647
0.287803
0.278645
0.278286
0.287599
0.306526
0.333886
0.366794
0.400823
0.431468
0.455797
0.472959
0.483725
0.489698
0.492546
0.493532
0.493341
0.492259
0.490522
0.488438
0.486292
0.484245
0.482298
0.480323
0.478095
0.47533
0.471726
0.466958
0.460724
0.452663
0.442504
0.429702
0.414185
0.3946
0.372039
0.341593
0.310644
0.258196
0.223454
0.111789
0.117785
0.257796
0.278485
0.296191
0.310894
0.318771
0.325538
0.329572
0.332905
0.334997
0.336647
0.337748
0.339098
0.341243
0.344761
0.348949
0.351547
0.349077
0.339137
0.322748
0.304239
0.288603
0.279568
0.279243
0.28851
0.3073
0.334385
0.366821
0.400189
0.430097
0.453756
0.470433
0.48097
0.487
0.490166
0.491656
0.492034
0.49146
0.490102
0.488261
0.486252
0.484269
0.482341
0.480355
0.478094
0.475284
0.471625
0.466798
0.460504
0.452386
0.442177
0.429336
0.41379
0.394189
0.371617
0.341177
0.310214
0.257803
0.223021
0.111516
0.11752
0.260749
0.27964
0.296735
0.311048
0.318871
0.325598
0.32968
0.333018
0.335135
0.33679
0.337911
0.339271
0.341417
0.3449
0.349028
0.351564
0.349087
0.339254
0.323098
0.304875
0.289483
0.280601
0.280334
0.289572
0.308228
0.335018
0.366937
0.399586
0.428694
0.451626
0.467769
0.478043
0.484118
0.487618
0.489648
0.490641
0.49062
0.489674
0.488097
0.486234
0.484318
0.482407
0.480406
0.47811
0.475251
0.471534
0.466645
0.460288
0.452112
0.441853
0.428973
0.413399
0.393785
0.371203
0.340773
0.3098
0.257427
0.22261
0.11126
0.117272
0.263649
0.280822
0.297299
0.311223
0.318985
0.32567
0.329797
0.333144
0.335288
0.336953
0.338096
0.339469
0.341613
0.345056
0.349108
0.351565
0.349072
0.339356
0.323457
0.305554
0.290441
0.281744
0.281562
0.290787
0.309312
0.335786
0.367142
0.399013
0.427263
0.449411
0.46497
0.474944
0.48105
0.484897
0.487505
0.489162
0.48974
0.489241
0.487948
0.48624
0.484393
0.482498
0.480478
0.478144
0.475231
0.471453
0.466499
0.460077
0.451842
0.441532
0.428614
0.413013
0.393388
0.370799
0.34038
0.309401
0.257067
0.222223
0.111021
0.117041
0.266498
0.282027
0.297879
0.311418
0.319111
0.325753
0.329924
0.333282
0.335458
0.337135
0.338304
0.339692
0.341834
0.34523
0.349194
0.351554
0.349036
0.339446
0.323829
0.306276
0.291477
0.282995
0.282926
0.292157
0.310553
0.336686
0.367435
0.398472
0.425807
0.447116
0.462038
0.471672
0.477794
0.482
0.485224
0.487595
0.488819
0.488802
0.487815
0.486273
0.484497
0.482615
0.480573
0.478195
0.475226
0.471382
0.46636
0.459872
0.451576
0.441215
0.42826
0.412633
0.392997
0.370404
0.34
0.309018
0.256725
0.221858
0.110799
0.116827
0.269302
0.283251
0.298474
0.311633
0.31925
0.325847
0.330063
0.333435
0.335645
0.33734
0.338537
0.339941
0.342081
0.345424
0.349288
0.351538
0.34899
0.339532
0.324217
0.307043
0.292589
0.284357
0.284428
0.293684
0.311949
0.337718
0.367813
0.397963
0.424329
0.444744
0.458976
0.468229
0.474348
0.478926
0.482803
0.485939
0.487859
0.48836
0.487701
0.486334
0.484631
0.48276
0.480692
0.478265
0.475234
0.471322
0.466229
0.459672
0.451315
0.440903
0.42791
0.412258
0.392615
0.37002
0.339632
0.308652
0.2564
0.221515
0.110593
0.11663
0.272065
0.284491
0.299083
0.311867
0.319401
0.325955
0.330212
0.333602
0.335849
0.337567
0.338797
0.34022
0.342355
0.34564
0.349393
0.351523
0.348939
0.339622
0.324628
0.307859
0.293782
0.285831
0.28607
0.295368
0.313501
0.338878
0.368274
0.397488
0.422833
0.4423
0.455786
0.464613
0.470709
0.47567
0.48024
0.484194
0.486859
0.487917
0.487608
0.486426
0.484798
0.482934
0.480836
0.478356
0.475259
0.471273
0.466106
0.459478
0.451058
0.440595
0.427565
0.411891
0.392241
0.369647
0.339277
0.308301
0.256092
0.221195
0.110403
0.116449
0.27479
0.285746
0.299704
0.312117
0.319564
0.326074
0.330372
0.333783
0.336072
0.337817
0.339083
0.340527
0.342658
0.34588
0.349515
0.351515
0.348894
0.339725
0.32507
0.308731
0.295059
0.28742
0.287856
0.297213
0.315208
0.340163
0.368817
0.397047
0.421326
0.439789
0.452472
0.460825
0.466876
0.472231
0.477534
0.48236
0.485822
0.487475
0.487538
0.486551
0.484999
0.48314
0.481006
0.478467
0.475299
0.471236
0.465991
0.459291
0.450807
0.440291
0.427226
0.41153
0.391877
0.369285
0.338935
0.307968
0.255802
0.220898
0.110229
0.116285
0.27748
0.287011
0.300335
0.312383
0.319739
0.326205
0.330544
0.333979
0.336312
0.33809
0.339397
0.340865
0.342991
0.346146
0.349655
0.351521
0.348863
0.339852
0.325552
0.309665
0.296427
0.289131
0.28979
0.299218
0.317066
0.341568
0.369438
0.396644
0.41981
0.437216
0.449035
0.456864
0.462848
0.468606
0.474682
0.480437
0.484748
0.487035
0.487493
0.486711
0.485236
0.483379
0.481204
0.478601
0.475355
0.471212
0.465886
0.45911
0.450561
0.439994
0.426893
0.411178
0.391522
0.368936
0.338608
0.307652
0.255531
0.220623
0.11007
0.116136
0.280141
0.288284
0.300975
0.312665
0.319925
0.326347
0.330726
0.334188
0.33657
0.338386
0.339739
0.341234
0.343355
0.34644
0.349818
0.351546
0.348855
0.340014
0.326086
0.310672
0.297894
0.290969
0.291875
0.301384
0.319073
0.343089
0.370136
0.396279
0.418291
0.434586
0.44548
0.452734
0.458624
0.464795
0.471685
0.478425
0.483639
0.486599
0.487477
0.486908
0.485512
0.483652
0.48143
0.478756
0.475429
0.471199
0.46579
0.458936
0.45032
0.439701
0.426567
0.410833
0.391177
0.368599
0.338296
0.307355
0.255277
0.220371
0.109926
0.116004
0.282775
0.289563
0.301622
0.312959
0.320121
0.326501
0.33092
0.334412
0.336846
0.338705
0.340108
0.341634
0.343751
0.346764
0.350009
0.351598
0.34888
0.34022
0.326683
0.311764
0.299469
0.292943
0.294116
0.30371
0.321221
0.344718
0.370906
0.395955
0.416774
0.431903
0.44181
0.448435
0.454205
0.460797
0.468543
0.476325
0.482497
0.486171
0.48749
0.487145
0.485827
0.483961
0.481685
0.478935
0.47552
0.4712
0.465703
0.458769
0.450086
0.439415
0.426247
0.410497
0.390843
0.368275
0.337999
0.307075
0.255042
0.220143
0.109797
0.115888
0.285385
0.290846
0.302276
0.313267
0.320326
0.326665
0.331124
0.334649
0.337138
0.339046
0.340503
0.342065
0.344179
0.347121
0.35023
0.351683
0.348945
0.340482
0.327354
0.31295
0.301162
0.295059
0.296515
0.306193
0.323504
0.346449
0.371747
0.395675
0.415265
0.429174
0.438029
0.443971
0.449593
0.456614
0.465256
0.474138
0.481324
0.485752
0.487536
0.487424
0.486184
0.484306
0.481971
0.479137
0.47563
0.471214
0.465625
0.458609
0.449858
0.439136
0.425936
0.410171
0.39052
0.367966
0.337717
0.306814
0.254827
0.219937
0.109683
0.115788
0.287976
0.292129
0.302933
0.313586
0.320541
0.32684
0.331338
0.334898
0.337446
0.339408
0.340924
0.342525
0.34464
0.34751
0.350486
0.351806
0.349059
0.340809
0.328109
0.314243
0.302984
0.297323
0.299073
0.308826
0.325912
0.348273
0.372657
0.39544
0.413767
0.426404
0.434144
0.439348
0.444795
0.452249
0.461826
0.471866
0.480122
0.485345
0.487617
0.487746
0.486584
0.484689
0.482288
0.479365
0.475757
0.471241
0.465557
0.458457
0.449636
0.438863
0.425632
0.409855
0.39021
0.367671
0.337452
0.306573
0.25463
0.219755
0.109584
0.115704
0.290551
0.29341
0.303594
0.313915
0.320764
0.327024
0.331562
0.33516
0.337768
0.339789
0.341369
0.343015
0.345132
0.347935
0.35078
0.351974
0.349229
0.34121
0.328958
0.31565
0.304941
0.299738
0.301786
0.311602
0.328435
0.350183
0.373632
0.395255
0.412288
0.4236
0.430163
0.434577
0.439817
0.447709
0.458258
0.469513
0.478894
0.484952
0.487734
0.488113
0.487029
0.485112
0.482637
0.479617
0.475903
0.471282
0.4655
0.458312
0.449421
0.438597
0.425337
0.409549
0.389912
0.367391
0.337204
0.306352
0.254453
0.219596
0.1095
0.115637
0.293113
0.294687
0.304256
0.314254
0.320996
0.327219
0.331795
0.335434
0.338105
0.340189
0.341837
0.343531
0.345656
0.348394
0.351114
0.352191
0.349462
0.341691
0.329907
0.317178
0.307038
0.302305
0.304648
0.314508
0.331059
0.35217
0.374671
0.395122
0.410833
0.420769
0.426097
0.429668
0.434673
0.443001
0.454557
0.467082
0.477643
0.484577
0.487891
0.488528
0.487519
0.485575
0.483019
0.479894
0.476069
0.471337
0.465452
0.458176
0.449213
0.438339
0.42505
0.409254
0.389627
0.367127
0.336973
0.30615
0.254296
0.219461
0.10943
0.115587
0.295665
0.295958
0.304919
0.314602
0.321234
0.327422
0.332038
0.335719
0.338456
0.340605
0.342325
0.344072
0.346209
0.348889
0.351491
0.352462
0.349763
0.342257
0.330961
0.31883
0.309275
0.305018
0.307649
0.317531
0.333773
0.354227
0.375774
0.395045
0.409408
0.417922
0.421959
0.42464
0.429379
0.438141
0.450731
0.464578
0.476374
0.484222
0.488091
0.488991
0.488058
0.486079
0.483435
0.480197
0.476253
0.471406
0.465415
0.458047
0.449013
0.438088
0.424773
0.408971
0.389357
0.366879
0.33676
0.30597
0.254159
0.21935
0.109374
0.115554
0.298212
0.297221
0.305581
0.314956
0.32148
0.327634
0.33229
0.336015
0.338818
0.341037
0.342832
0.344636
0.346789
0.349417
0.351911
0.352789
0.350137
0.342913
0.332122
0.320605
0.311647
0.307869
0.310775
0.320656
0.336563
0.356347
0.376938
0.395027
0.40802
0.41507
0.417766
0.419514
0.423958
0.433144
0.446792
0.462007
0.47509
0.483892
0.488334
0.489506
0.488644
0.486625
0.483884
0.480527
0.476457
0.471489
0.465387
0.457926
0.448819
0.437846
0.424506
0.408699
0.3891
0.366648
0.336566
0.30581
0.254043
0.219263
0.109333
0.115538
0.300755
0.298473
0.30624
0.315317
0.321731
0.327854
0.33255
0.33632
0.339193
0.341484
0.343357
0.345221
0.347395
0.349979
0.352375
0.353175
0.350586
0.343661
0.333389
0.3225
0.314146
0.310843
0.31401
0.323864
0.339417
0.358524
0.378165
0.395071
0.406676
0.412225
0.413539
0.414318
0.418436
0.428032
0.442752
0.459377
0.473795
0.483588
0.488624
0.490072
0.48928
0.487214
0.484368
0.480883
0.476681
0.471586
0.46537
0.457813
0.448634
0.437612
0.424249
0.408441
0.388859
0.366435
0.336391
0.305673
0.253948
0.219202
0.109306
0.11554
0.303299
0.299711
0.306896
0.315684
0.321988
0.328082
0.332818
0.336636
0.339579
0.341944
0.343897
0.345826
0.348025
0.350572
0.352883
0.353619
0.35111
0.344498
0.334759
0.324507
0.31676
0.313926
0.317335
0.327141
0.342323
0.360752
0.379454
0.395183
0.405385
0.409403
0.409303
0.409082
0.412846
0.422833
0.438629
0.456698
0.472496
0.483314
0.488962
0.490693
0.489967
0.487846
0.484887
0.481265
0.476924
0.471697
0.465364
0.457709
0.448456
0.437387
0.424002
0.408195
0.388633
0.366239
0.336235
0.305557
0.253873
0.219165
0.109294
0.115558
0.305847
0.300934
0.307546
0.316056
0.322251
0.328318
0.333094
0.336961
0.339975
0.342417
0.344452
0.346447
0.348677
0.351195
0.353433
0.354122
0.351709
0.345424
0.336227
0.326616
0.319476
0.3171
0.320733
0.33047
0.345271
0.363028
0.380806
0.395365
0.404156
0.406622
0.405087
0.403844
0.407226
0.417575
0.434444
0.453981
0.471199
0.483074
0.489352
0.491368
0.490705
0.488521
0.48544
0.481675
0.477187
0.471822
0.465367
0.457612
0.448286
0.437171
0.423767
0.407964
0.388423
0.366062
0.336099
0.305464
0.25382
0.219153
0.109296
0.115594
0.308403
0.302139
0.308191
0.316431
0.322518
0.328561
0.333378
0.337295
0.340381
0.342901
0.34502
0.347084
0.349349
0.351846
0.354024
0.354683
0.352381
0.346434
0.337784
0.328816
0.322277
0.320346
0.324185
0.333837
0.348252
0.365348
0.382221
0.395623
0.402999
0.403902
0.400922
0.398645
0.401617
0.412296
0.430219
0.451238
0.469909
0.482872
0.489795
0.492099
0.491494
0.489241
0.486029
0.482111
0.477469
0.471961
0.465381
0.457525
0.448124
0.436964
0.423543
0.407746
0.38823
0.365905
0.335983
0.305393
0.253789
0.219166
0.109312
0.115648
0.310968
0.303324
0.308828
0.316808
0.322789
0.328811
0.33367
0.337638
0.340797
0.343396
0.3456
0.347736
0.350038
0.352523
0.354653
0.355298
0.353123
0.347523
0.339424
0.331094
0.325147
0.323648
0.327675
0.337231
0.351259
0.367711
0.3837
0.395959
0.401924
0.401265
0.396843
0.393525
0.396062
0.407032
0.42598
0.448485
0.468634
0.482712