/*--------------------------------*- C++ -*----------------------------------*\
| =========                 |                                                 |
| \\      /  F ield         | OpenFOAM: The Open Source CFD Toolbox           |
|  \\    /   O peration     | Version:  2.4.0                                 |
|   \\  /    A nd           | Web:      www.OpenFOAM.org                      |
|    \\/     M anipulation  |                                                 |
\*---------------------------------------------------------------------------*/
FoamFile
{
    version     2.0;
    format      ascii;
    class       volScalarField;
    location    "2.2";
    object      epsilon;
}
// * * * * * * * * * * * * * * * * * * * * * * * * * * * * * * * * * * * * * //

dimensions      [0 2 -3 0 0 0 0];

internalField   nonuniform List<scalar> 
6000
(
56.3177
0.599947
0.00958108
0.127157
0.0751893
0.0914673
0.0639488
0.0630523
0.0504092
0.0486799
0.0447949
0.0455898
0.043676
0.039881
0.0308547
0.0221723
0.0170378
0.0190105
0.0309136
0.0601833
0.117889
0.212734
0.346753
0.516184
0.705697
0.899703
1.07924
1.21758
1.2638
1.16319
0.89911
0.543962
0.221724
0.0478424
0.0505577
0.158897
0.285292
0.386935
0.441362
0.454663
0.443579
0.421101
0.395685
0.382428
0.376563
0.412299
0.444136
0.548782
0.65292
0.87587
1.09575
1.53176
1.93739
2.78062
3.47509
5.21463
6.26291
10.5623
10.9935
27.8205
18.7072
0.808703
0.0144368
0.0702851
0.0431248
0.0499417
0.0356127
0.0343731
0.0277184
0.0264236
0.0242567
0.0243294
0.023095
0.0208892
0.016235
0.0118257
0.00934208
0.0106783
0.0171709
0.0316924
0.0575744
0.0961
0.145972
0.20412
0.264763
0.323085
0.373664
0.408803
0.414797
0.378487
0.296714
0.187978
0.0834016
0.0227289
0.029467
0.0704195
0.113607
0.146846
0.164574
0.169579
0.166946
0.160727
0.153579
0.151057
0.151123
0.165956
0.180603
0.220179
0.261937
0.343716
0.427448
0.582976
0.73435
1.02828
1.28911
1.8832
2.30092
3.73287
4.08915
9.36525
7.20564
0.64326
0.0187909
0.041063
0.025932
0.0286476
0.0207861
0.0196796
0.0160153
0.0151166
0.013884
0.0137767
0.012999
0.0116901
0.00917605
0.0068657
0.00570977
0.00686505
0.0110871
0.019603
0.033349
0.0519537
0.0740311
0.0976766
0.12049
0.140784
0.156876
0.166093
0.164486
0.148637
0.118277
0.0787359
0.0386852
0.0145668
0.0194983
0.0357626
0.0512021
0.0626454
0.068768
0.0706889
0.070027
0.0681852
0.0660359
0.0659188
0.0668129
0.0733749
0.0805656
0.096871
0.115265
0.14827
0.1835
0.244946
0.30769
0.421763
0.530871
0.757365
0.941324
1.47451
1.69393
3.52283
3.30943
0.477352
0.0214455
0.0254988
0.016352
0.0172211
0.0126739
0.0117906
0.00969048
0.00908815
0.00838093
0.0082656
0.00778814
0.00700619
0.00560271
0.00438276
0.00393624
0.00508427
0.0083153
0.0141997
0.0228619
0.0335967
0.0452971
0.0567852
0.0669613
0.0752093
0.0810618
0.0833041
0.0808404
0.0726563
0.0588695
0.0413828
0.0234209
0.0125277
0.0149993
0.0214227
0.0267938
0.030429
0.0322528
0.0327582
0.0324521
0.031822
0.0311205
0.0314024
0.0321393
0.0351823
0.0388666
0.0460958
0.0547841
0.0692339
0.0852611
0.111732
0.139995
0.188489
0.238174
0.332981
0.420435
0.638754
0.765291
1.45472
1.78003
0.361563
0.0234125
0.0170606
0.0108589
0.0108521
0.00806634
0.00738277
0.00613371
0.00573872
0.00533554
0.00525919
0.0049776
0.00451301
0.00371536
0.00309851
0.00307468
0.00429001
0.00708658
0.0117293
0.0180226
0.0252243
0.0324716
0.0390221
0.0443492
0.0482767
0.0506908
0.0510039
0.0489669
0.0442687
0.037078
0.0281141
0.0188557
0.0128951
0.0134674
0.0153833
0.0166964
0.0172627
0.0172465
0.0169651
0.0165801
0.0162393
0.0159473
0.0161828
0.0166593
0.0181219
0.0200599
0.0234733
0.0277956
0.0345732
0.0423269
0.0545928
0.0681896
0.090449
0.114625
0.157593
0.201639
0.298598
0.370542
0.650445
1.10256
0.284572
0.0253785
0.0125469
0.00766408
0.00719289
0.00536846
0.00483564
0.0040648
0.00381085
0.00358744
0.00355498
0.00340024
0.00312996
0.00268815
0.00242992
0.0026978
0.00400927
0.00662474
0.0106361
0.0156959
0.0210972
0.0261818
0.0304996
0.0338174
0.0361512
0.0373998
0.0374372
0.0361623
0.0334902
0.0294172
0.0241404
0.0183532
0.014333
0.013477
0.0131353
0.0124808
0.0116332
0.0107296
0.00996291
0.00939953
0.00906349
0.00885535
0.00897567
0.0092487
0.00996885
0.0110027
0.0127007
0.0149394
0.0183081
0.0222517
0.0282944
0.0351935
0.0460916
0.0584869
0.0793273
0.102515
0.148679
0.189691
0.311516
0.769966
0.235025
0.0276811
0.0103369
0.00583043
0.00505071
0.00375333
0.00332319
0.00282747
0.00266735
0.00255166
0.00255553
0.00248324
0.00233704
0.00212535
0.00210624
0.0025937
0.00400944
0.00656227
0.0102314
0.014599
0.0190387
0.0230732
0.0264431
0.0290459
0.0309166
0.0319313
0.032156
0.0315692
0.0300855
0.0275016
0.0238046
0.0195919
0.016249
0.0143665
0.0127061
0.0109611
0.00927677
0.00783102
0.00672696
0.00598165
0.00556523
0.00533545
0.00535288
0.00548652
0.00584315
0.00639672
0.00727732
0.00847759
0.010237
0.0123326
0.0154679
0.0191312
0.024766
0.0314032
0.0421121
0.0547667
0.0780967
0.101725
0.158441
0.596844
0.19953
0.0304069
0.00958643
0.0048555
0.00379862
0.00277751
0.00240848
0.00207248
0.00197287
0.00192217
0.00195337
0.00193687
0.00188055
0.0018272
0.00198986
0.0026501
0.00416763
0.00671523
0.0102117
0.0142115
0.0181976
0.0218273
0.0249301
0.0274237
0.0292827
0.030386
0.0308278
0.0306905
0.0298346
0.0280183
0.0251308
0.0215943
0.0183584
0.0157235
0.0132073
0.0107482
0.0085016
0.00662454
0.0052311
0.00430851
0.00378801
0.00350499
0.00343825
0.00348005
0.00365075
0.00394396
0.00441459
0.00507982
0.00603826
0.00720208
0.00890272
0.0109349
0.013988
0.0176856
0.0234681
0.0305982
0.0430106
0.0568435
0.085031
0.501332
0.175549
0.0336121
0.00983166
0.00446725
0.00310058
0.00219774
0.00185389
0.00160871
0.00154579
0.00153449
0.00158636
0.00161114
0.00162652
0.00169504
0.00200314
0.00280649
0.00442745
0.00701268
0.010435
0.0143073
0.0181838
0.0217837
0.0249564
0.0275901
0.0296016
0.0308708
0.0314886
0.0316196
0.0311366
0.0297287
0.0272082
0.0238861
0.0204988
0.0173029
0.0142085
0.0112321
0.00853388
0.00629046
0.00461671
0.00350494
0.00286805
0.00252108
0.00238508
0.00236375
0.00243465
0.00258367
0.00283956
0.00321907
0.00376255
0.00443797
0.00540064
0.00657913
0.00830375
0.0104496
0.0137062
0.0178532
0.0247621
0.0330202
0.0479687
0.443274
0.163189
0.0373574
0.0108118
0.0045184
0.00277558
0.00187949
0.00152832
0.00132956
0.00128622
0.00129894
0.00136715
0.00142633
0.00150342
0.00167255
0.00210217
0.0030301
0.00475646
0.00741557
0.0108728
0.0147625
0.0187202
0.0224868
0.0258844
0.0287746
0.0310122
0.0324645
0.0332284
0.0335042
0.0332187
0.0319897
0.029573
0.0262065
0.0225558
0.0189396
0.0154498
0.0120976
0.00903038
0.00644475
0.00449177
0.00317475
0.00240524
0.00198503
0.00178985
0.00171903
0.00173209
0.00180118
0.00193886
0.00215988
0.00248053
0.00289026
0.00345944
0.00417417
0.0051902
0.00648918
0.00839624
0.0108895
0.0148999
0.0199338
0.0283861
0.406888
0.156709
0.0415237
0.0124105
0.00492217
0.00272745
0.00174921
0.00135948
0.0011754
0.00113895
0.00116567
0.00124784
0.00133843
0.00147123
0.00172668
0.00226175
0.00330372
0.00514227
0.00791087
0.0114841
0.0155299
0.0197107
0.0237472
0.0274327
0.0306042
0.0330759
0.0346938
0.0355643
0.0358959
0.0356706
0.0344539
0.0319606
0.0283931
0.0244378
0.0205087
0.0167636
0.013155
0.00979398
0.00689298
0.00465714
0.00312498
0.0022068
0.0017012
0.00144904
0.00133727
0.00130992
0.0013345
0.00140433
0.00153347
0.00172935
0.00198921
0.00234085
0.00279462
0.00341961
0.00424029
0.00540281
0.00696019
0.00937878
0.0125186
0.0176073
0.383598
0.153279
0.0459147
0.0144867
0.00565522
0.00290131
0.00176848
0.00130817
0.00111347
0.00107341
0.00110678
0.00120155
0.00132223
0.00150636
0.00183797
0.00246776
0.00361933
0.00558039
0.00849205
0.0122442
0.0165238
0.0209926
0.0253406
0.029334
0.0327953
0.0355046
0.0372757
0.038217
0.0385302
0.0382474
0.0369093
0.0342048
0.0303375
0.0260681
0.0219087
0.0180264
0.014276
0.0107043
0.00752512
0.00501221
0.00324982
0.00217347
0.00156979
0.00125783
0.00110835
0.00104886
0.00104459
0.00107614
0.00114966
0.00127102
0.0014432
0.00166974
0.00197132
0.00237247
0.0029139
0.00365235
0.00466376
0.00618225
0.00819029
0.0114395
0.368472
0.151462
0.0503285
0.0169412
0.00667921
0.00328206
0.00191728
0.00135381
0.00112644
0.00107302
0.00110685
0.00121289
0.00136265
0.001595
0.00199521
0.00271269
0.00397333
0.00606878
0.00915225
0.0131276
0.0176847
0.0224697
0.0271389
0.0314368
0.0351807
0.0381186
0.0400245
0.0410058
0.0412325
0.0407891
0.0392184
0.0361973
0.0319645
0.0273834
0.0230564
0.0191397
0.015362
0.0116751
0.00827061
0.00549557
0.00350068
0.00224752
0.00153731
0.00116014
0.000972366
0.000885794
0.00085834
0.000867415
0.00090694
0.00098165
0.00109958
0.00125116
0.00146055
0.00172833
0.00210081
0.00258896
0.00327147
0.00426538
0.00558278
0.00777403
0.358579
0.150519
0.0545891
0.0196757
0.00797147
0.00385676
0.00219429
0.00148905
0.00120614
0.00112862
0.00115697
0.00127312
0.00145188
0.00172946
0.00219239
0.0029928
0.00436393
0.00660493
0.00988197
0.0141071
0.018961
0.0240663
0.0290479
0.0336334
0.0376409
0.0407882
0.0428047
0.0438033
0.0438798
0.0431869
0.0412899
0.0378671
0.0332226
0.0283356
0.0238867
0.0200232
0.0163308
0.0126358
0.0090764
0.00606733
0.0038404
0.00240321
0.00157224
0.00112489
0.000896189
0.000784223
0.000737367
0.000729806
0.000749958
0.000794912
0.000876339
0.000981656
0.00113321
0.00131823
0.00158457
0.00191894
0.00239633
0.00307347
0.00396289
0.00550827
0.352106
0.150066
0.058561
0.0225883
0.00950606
0.00461979
0.00259763
0.00171441
0.00135284
0.0012391
0.00125529
0.00137897
0.00158535
0.00190604
0.0024269
0.00330656
0.00478964
0.00718466
0.0106689
0.0151554
0.0203075
0.0257222
0.030996
0.0358424
0.0400856
0.0434148
0.0455155
0.0465105
0.0463827
0.0453661
0.0430641
0.0391697
0.0340722
0.0288554
0.0243138
0.0206
0.0171126
0.0135241
0.00989701
0.0066971
0.0042462
0.00262048
0.0016584
0.00113413
0.000861007
0.000723343
0.000659577
0.000637687
0.000646344
0.000672544
0.000728694
0.00080433
0.000918447
0.00105032
0.00124764
0.00148389
0.0018288
0.00230696
0.00292526
0.00405438
0.347891
0.149914
0.0621531
0.0255758
0.0112491
0.00556698
0.00313195
0.00203264
0.00156842
0.00140437
0.00140079
0.00152866
0.00176138
0.00212382
0.00269843
0.00365363
0.00524863
0.00780195
0.0114986
0.0162457
0.0216848
0.0273882
0.0329263
0.0380003
0.0424448
0.0459212
0.04808
0.0490469
0.0486789
0.0472764
0.044504
0.0400823
0.034471
0.0289904
0.0243854
0.0208228
0.0176463
0.0142838
0.0106902
0.00735799
0.0047014
0.00288604
0.00178652
0.00117621
0.000855775
0.000690997
0.000611268
0.00057669
0.000577405
0.000592028
0.000630684
0.00068652
0.000775731
0.000872563
0.00102373
0.00119527
0.001452
0.00180024
0.00224276
0.00309115
0.345173
0.149952
0.0653161
0.0285382
0.0131566
0.00669015
0.0038025
0.00245015
0.00185833
0.00162824
0.00159562
0.00172309
0.0019803
0.0023837
0.00300831
0.00403452
0.00573863
0.00844937
0.0123557
0.0173527
0.0230587
0.0290237
0.0347936
0.040057
0.0446633
0.0482474
0.0504382
0.0513499
0.0507247
0.0488867
0.045588
0.0405601
0.0345139
0.0287339
0.0240636
0.0207179
0.0178725
0.014865
0.0114156
0.0080243
0.00519156
0.00319083
0.00194829
0.00124715
0.000873361
0.000679852
0.000584154
0.000538204
0.000531732
0.000539756
0.000566373
0.000608552
0.000680733
0.000753976
0.000873642
0.00100138
0.00119813
0.00145852
0.00178459
0.00243713
0.343448
0.150111
0.0680376
0.0313851
0.015175
0.00797399
0.00461243
0.00297458
0.00222946
0.00191691
0.00184361
0.00196482
0.00224385
0.00268789
0.0033591
0.00445044
0.00625729
0.00911887
0.0132248
0.0184535
0.0243996
0.0305953
0.0365613
0.0419733
0.0466985
0.0503477
0.0525439
0.0533723
0.0524899
0.0501787
0.0462989
0.040677
0.0341441
0.0280693
0.0233428
0.0202352
0.017809
0.0152196
0.0120342
0.00867059
0.00570289
0.00352727
0.00213883
0.0013413
0.000910261
0.000685293
0.000573053
0.000516502
0.000502989
0.000506921
0.000525402
0.000558008
0.000618119
0.000675236
0.000773036
0.000870512
0.00102592
0.00122518
0.00147276
0.00198551
0.342375
0.150412
0.0703369
0.034041
0.0172432
0.00939411
0.00556028
0.00361272
0.00268965
0.00227766
0.00215016
0.00225774
0.00255473
0.0030394
0.00375434
0.00490336
0.0068026
0.00980252
0.0140913
0.0195276
0.0256822
0.0320756
0.0382005
0.0437186
0.0485185
0.0521894
0.0543628
0.0550797
0.0539563
0.0511435
0.0466203
0.0404162
0.0333759
0.0270276
0.0222537
0.0193909
0.0174147
0.0153178
0.0125103
0.00927179
0.00622151
0.00388825
0.0023542
0.00145578
0.000963585
0.000704294
0.000574363
0.000507707
0.000487241
0.000488031
0.000500937
0.000526746
0.000577803
0.000623792
0.000706147
0.000782377
0.000909054
0.00106478
0.00125876
0.00167043
0.341727
0.15081
0.0722536
0.0364496
0.0192971
0.0109165
0.00663777
0.00436873
0.00324668
0.00271806
0.002522
0.00260682
0.00291632
0.00344168
0.00419824
0.00539609
0.00737344
0.0104934
0.0149422
0.0205571
0.0268863
0.0334427
0.0396887
0.0452704
0.0501009
0.0537516
0.055871
0.0564525
0.0551101
0.0517756
0.0466336
0.0397721
0.0322413
0.0256518
0.0208451
0.0182225
0.0166995
0.0151443
0.012811
0.00980377
0.00673348
0.00426664
0.0025908
0.00158833
0.00103124
0.000735153
0.000585937
0.000508655
0.000481623
0.000479318
0.000488666
0.000509301
0.000553148
0.000591265
0.00066241
0.000723532
0.000830079
0.000954211
0.00111126
0.00144929
0.341348
0.151292
0.0738406
0.038576
0.0212737
0.0124984
0.00782811
0.00524206
0.00390659
0.00324566
0.00296619
0.00301785
0.00333241
0.00389827
0.00469553
0.00593236
0.00797001
0.0111862
0.0157668
0.0215268
0.0279961
0.0346794
0.0410093
0.0466132
0.0514313
0.0550237
0.0570516
0.0574841
0.0559431
0.0520653
0.0462898
0.0387682
0.0307785
0.0239952
0.0191804
0.0167872
0.0156948
0.0146813
0.0129076
0.0102445
0.00722514
0.00465514
0.00284503
0.00173696
0.00111174
0.000776237
0.000606145
0.000517682
0.000483728
0.000477766
0.000484897
0.000501849
0.000539704
0.000571949
0.000634578
0.000684878
0.000777078
0.000877911
0.00100933
0.00129347
0.341134
0.151834
0.0751555
0.0404056
0.0231168
0.0140905
0.00910524
0.0062257
0.00467218
0.00386673
0.00348953
0.00349729
0.00380697
0.00441236
0.00525089
0.00651685
0.00859417
0.0118779
0.0165569
0.0224258
0.028999
0.0357731
0.0421509
0.0477372
0.0525028
0.0560007
0.0579
0.0581765
0.0564424
0.052074
0.0456053
0.0374311
0.029031
0.0221181
0.0173341
0.0151587
0.0144519
0.0139355
0.0127757
0.0105757
0.00768408
0.00504634
0.00311312
0.00189969
0.00120377
0.000826437
0.00063378
0.000533333
0.000492263
0.000481815
0.000487102
0.000501041
0.000534151
0.000561997
0.000617649
0.000660171
0.000741769
0.000825193
0.000938656
0.00118316
0.341011
0.152408
0.0762528
0.0419429
0.0247806
0.0156411
0.0104342
0.00730465
0.00554131
0.00458482
0.00409803
0.00405084
0.00434447
0.00498648
0.00586827
0.00715512
0.00924954
0.0125684
0.0173079
0.0232469
0.029886
0.0367155
0.0431067
0.0486385
0.0533141
0.0566838
0.0584162
0.0585264
0.05662
0.0517708
0.0445963
0.03579
0.0270468
0.0200856
0.0153864
0.0134214
0.0130396
0.0129432
0.0123844
0.0107835
0.00810095
0.00543295
0.00339106
0.00207447
0.00130612
0.0008848
0.000667889
0.000554493
0.000505977
0.000490294
0.00049388
0.000505115
0.000533703
0.000558387
0.00060818
0.000645033
0.000718361
0.00078863
0.000889352
0.00110448
0.340931
0.152989
0.0771806
0.0432073
0.0262334
0.0170993
0.0117726
0.00845519
0.00650529
0.00539929
0.00479557
0.00468262
0.00494988
0.00562195
0.00655046
0.00785299
0.00994129
0.0132603
0.0180185
0.0239867
0.030652
0.0375021
0.0438744
0.0493176
0.0538697
0.0570783
0.0586121
0.0585735
0.0564963
0.0511662
0.0432796
0.0338771
0.0248777
0.0179643
0.0134181
0.0116625
0.0115394
0.0117775
0.0117537
0.0107873
0.00847353
0.00580776
0.0036746
0.00225907
0.0014175
0.00095044
0.000707656
0.000580264
0.000523849
0.000502246
0.000503943
0.000512589
0.000536861
0.000558751
0.000603706
0.000636195
0.000702912
0.000763029
0.000854519
0.0010476
0.340864
0.153561
0.0779793
0.0442296
0.0274586
0.0184205
0.0130739
0.00964507
0.00754758
0.00630377
0.00558244
0.00539525
0.00562693
0.00631882
0.00729862
0.00861549
0.0106756
0.0139592
0.0186911
0.0246452
0.0312958
0.0381323
0.0444554
0.049779
0.0541779
0.0571974
0.0585124
0.0583246
0.056066
0.0502684
0.0416718
0.0317274
0.0225784
0.0158202
0.0115048
0.00996309
0.0100022
0.0104706
0.0110145
0.0105425
0.00877201
0.00616245
0.00395916
0.00245106
0.00153657
0.00102247
0.000752339
0.000609893
0.000545009
0.000516968
0.000516185
0.000522285
0.000542377
0.000561839
0.00060238
0.000631356
0.000692585
0.000744741
0.000829327
0.00100555
0.340793
0.154107
0.0786811
0.045048
0.0284552
0.0195691
0.0142905
0.010835
0.0086431
0.00728485
0.00645401
0.00618856
0.00637717
0.0070757
0.00811149
0.00944584
0.0114591
0.0146734
0.0193314
0.0252263
0.0318198
0.0386089
0.0448544
0.0500309
0.0542507
0.0570573
0.0581324
0.0577943
0.0553444
0.0490846
0.0397902
0.0293799
0.0202066
0.0137159
0.0097113
0.00837804
0.00848962
0.00909632
0.0101839
0.0101054
0.00892106
0.00648937
0.00424005
0.0026478
0.00166184
0.00109998
0.000801222
0.000642712
0.000568698
0.000533922
0.000529472
0.000533407
0.000549321
0.000566529
0.000602791
0.000628872
0.000685354
0.000731195
0.000810386
0.000973416
0.340709
0.154614
0.0793101
0.0457039
0.0292353
0.0205222
0.0153784
0.0119812
0.00975833
0.00832127
0.00739932
0.00705825
0.00719899
0.0078894
0.00898457
0.0103444
0.0122974
0.0154126
0.0199485
0.0257371
0.0322296
0.0389378
0.0450794
0.050084
0.0541025
0.0566736
0.057497
0.0570035
0.0543469
0.0476199
0.037653
0.0268774
0.0178211
0.0117083
0.00808501
0.00694498
0.00708376
0.00774008
0.0092278
0.00958505
0.00885913
0.00679874
0.00451279
0.00284646
0.00179171
0.00118197
0.000853592
0.000678104
0.000594257
0.000552414
0.000543419
0.000545049
0.000556928
0.000571981
0.000604042
0.00062758
0.000679762
0.000720584
0.000795314
0.000947702
0.340611
0.155073
0.0798874
0.0462322
0.029821
0.02127
0.0163008
0.0130389
0.0108526
0.00938385
0.0084
0.00799455
0.00808637
0.00875439
0.00990941
0.0113074
0.0131941
0.0161863
0.0205541
0.0261881
0.0325341
0.039128
0.0451405
0.0499539
0.053749
0.0560646
0.056633
0.0559736
0.0530889
0.0458782
0.0352812
0.0242679
0.0154809
0.0098452
0.00665356
0.00569285
0.00583276
0.00648093
0.00815904
0.00901999
0.00864429
0.00703811
0.00476992
0.00304387
0.00192444
0.00126741
0.000908719
0.000715479
0.000621103
0.00057182
0.000557791
0.000556354
0.000564661
0.000577552
0.000605409
0.00062664
0.000674787
0.000711643
0.00078242
0.000925969
0.340502
0.155477
0.0804306
0.0466622
0.0302406
0.0218162
0.0170321
0.0139665
0.0118807
0.0104364
0.00942964
0.00898111
0.00902773
0.0096623
0.0108732
0.0123256
0.0141498
0.0170017
0.021162
0.0265921
0.0327448
0.0391903
0.0450525
0.0496513
0.0532071
0.055249
0.055568
0.0547257
0.0515842
0.0438625
0.0326999
0.0216041
0.0132417
0.00816313
0.00542691
0.00463399
0.00476102
0.00535907
0.00703996
0.00840274
0.00830133
0.0071698
0.0050065
0.00323697
0.00205819
0.00135518
0.000965861
0.000754254
0.000648705
0.000591587
0.000572332
0.000566561
0.00057223
0.00058274
0.000606293
0.000625444
0.000669732
0.000703497
0.000770494
0.000906538
0.340387
0.155824
0.080948
0.0470244
0.0305266
0.0221762
0.0175594
0.0147293
0.0127965
0.0114378
0.010454
0.00999419
0.0100049
0.0106013
0.0118585
0.0133829
0.0151601
0.01786
0.0217865
0.0269639
0.0328753
0.0391395
0.0448254
0.049193
0.0524934
0.0542452
0.0543297
0.0532777
0.0498437
0.0415768
0.0299409
0.0189433
0.0111532
0.00668472
0.00440104
0.0037643
0.0038729
0.0043964
0.00593422
0.00772548
0.00790075
0.00715564
0.00523265
0.00342324
0.00219108
0.00144407
0.00102426
0.000793842
0.00067657
0.000611243
0.000586587
0.000575676
0.000579112
0.000587068
0.000606387
0.000623582
0.000664133
0.000695339
0.000758842
0.000888306
0.34027
0.156113
0.0814397
0.0473477
0.0307141
0.022375
0.0178841
0.0153016
0.0135594
0.0123438
0.0114322
0.0110026
0.0109922
0.0115553
0.0128431
0.0144557
0.0162144
0.0187544
0.0224403
0.0273185
0.0329405
0.0389878
0.0444737
0.0485955
0.051624
0.0530701
0.0529457
0.0516421
0.0478751
0.0390274
0.0270445
0.0163453
0.00925491
0.00541852
0.0035621
0.0030674
0.00315739
0.00359726
0.0049007
0.00698825
0.00748497
0.007028
0.00542549
0.0035987
0.00232106
0.00153284
0.00108317
0.000833656
0.000704235
0.00063039
0.000600139
0.000583695
0.000584938
0.000590195
0.000605396
0.000620783
0.00065769
0.000686667
0.000746951
0.000870545
0.340158
0.156348
0.0819015
0.0476548
0.0308377
0.0224432
0.0180202
0.0156692
0.0141379
0.0131114
0.0123199
0.0119678
0.0119573
0.0125002
0.0138036
0.0155129
0.0172926
0.0196695
0.0231307
0.0276704
0.0329551
0.0387485
0.044013
0.0478737
0.050613
0.0517441
0.0514244
0.0498365
0.045682
0.036227
0.0240616
0.0138697
0.00757385
0.00436031
0.00289014
0.00252016
0.00259392
0.00295228
0.00399432
0.00620768
0.00704666
0.00679804
0.00555621
0.00375782
0.00244593
0.0016202
0.00114176
0.000873138
0.000731267
0.000648687
0.000612633
0.000590621
0.000589257
0.000591882
0.000603254
0.000616906
0.000650211
0.000677187
0.000734493
0.000852786
0.340054
0.156536
0.0823275
0.0479604
0.0309284
0.0224226
0.0180005
0.0158313
0.0145119
0.013703
0.0130735
0.0128453
0.0128614
0.0134053
0.0147137
0.0165169
0.0183635
0.0205815
0.0238539
0.028031
0.0329338
0.0384367
0.0434563
0.047041
0.0494718
0.0502864
0.0497719
0.0478689
0.0432607
0.0331987
0.0210536
0.011571
0.00612274
0.00349601
0.00236234
0.00209756
0.00215813
0.00244368
0.00327154
0.00538574
0.00658299
0.00650869
0.00561045
0.00389789
0.0025637
0.00170483
0.00119923
0.000911749
0.000757268
0.000665838
0.000623797
0.000596359
0.000591919
0.000592114
0.000600023
0.000611888
0.000641586
0.000666748
0.000721282
0.000834754
0.339963
0.156685
0.0827131
0.0482696
0.0310109
0.0223495
0.0178783
0.0158097
0.0146746
0.0140911
0.0136545
0.0135864
0.0136619
0.0142358
0.0155434
0.0174249
0.0193854
0.0214597
0.0245876
0.0284068
0.0328857
0.0380636
0.0428143
0.0461074
0.0482088
0.0487136
0.0479919
0.0457389
0.0405981
0.0299841
0.018091
0.00949377
0.00490084
0.00280523
0.00195554
0.00177605
0.00182619
0.00205083
0.00270367
0.00458267
0.00609239
0.00618707
0.00557312
0.00402796
0.00267307
0.0017855
0.00125474
0.000948962
0.000781876
0.00068159
0.000633431
0.000600714
0.000593186
0.000590279
0.000595829
0.000605697
0.00063178
0.000655303
0.000707249
0.000816313
0.339886
0.156803
0.0830566
0.0485809
0.0311034
0.0222435
0.0176457
0.0156551
0.0146425
0.0142618
0.014036
0.0141374
0.0143191
0.0149552
0.0162577
0.0181923
0.0203073
0.0222682
0.0252872
0.0287945
0.0328165
0.037636
0.0420937
0.0450787
0.0468278
0.0470394
0.046082
0.0434372
0.03767
0.0266524
0.0152486
0.00766815
0.00389621
0.00226459
0.00164802
0.00153526
0.00157737
0.00175323
0.00226415
0.00384011
0.00557535
0.00586253
0.00545738
0.00413803
0.0027722
0.00186096
0.00130747
0.000984268
0.000804763
0.000695726
0.000641398
0.000603606
0.000593116
0.000586741
0.000590485
0.000598261
0.000620852
0.000642892
0.000692412
0.000797432
0.339825
0.156898
0.083358
0.0488895
0.0312158
0.0221396
0.0173633
0.0153489
0.0144531
0.0142256
0.0141947
0.0144708
0.0147888
0.015525
0.0168177
0.0187755
0.0210716
0.0229666
0.0258899
0.0291749
0.0327227
0.0371545
0.0412957
0.0439546
0.0453284
0.0452754
0.0440303
0.0409469
0.0344964
0.0232531
0.0125979
0.0061077
0.00308901
0.00185039
0.00142061
0.00135857
0.00139536
0.00153389
0.00193042
0.00318385
0.00504634
0.00553229
0.00527375
0.0042067
0.00285766
0.00192989
0.00135664
0.00101718
0.000825635
0.00070807
0.0006476
0.000604962
0.000591546
0.000581802
0.000583882
0.000589611
0.000608936
0.00062962
0.000676851
0.000778151
0.33978
0.15698
0.08362
0.0491898
0.0313518
0.0220573
0.0170664
0.0149576
0.0140865
0.01402
0.0141188
0.014575
0.0150452
0.0158987
0.01719
0.0191351
0.0216175
0.0235075
0.0263237
0.0295062
0.0325889
0.0366105
0.040414
0.0427266
0.0437089
0.0434145
0.0418236
0.0382456
0.0311078
0.0198636
0.0102008
0.00480991
0.00245492
0.00154039
0.00125716
0.00123298
0.00126934
0.0013814
0.00168479
0.00263024
0.00451648
0.00519653
0.00505297
0.00422763
0.00292668
0.00199104
0.00140146
0.00104725
0.000844235
0.000718484
0.000652016
0.000604932
0.000588498
0.000575737
0.000575964
0.000579858
0.000596222
0.000615632
0.00066069
0.000758567
0.33975
0.157056
0.0838467
0.0494765
0.0315102
0.0220088
0.0167859
0.0145187
0.0136109
0.0136219
0.0138316
0.0144542
0.0150641
0.0160392
0.0173457
0.0192406
0.0218887
0.0238356
0.0265211
0.0297185
0.0323866
0.0359841
0.0394328
0.0413774
0.0419706
0.0414287
0.0394442
0.0353125
0.0275501
0.016581
0.00810254
0.00375894
0.00196815
0.00131477
0.00114456
0.00115291
0.00120615
0.00129119
0.00151222
0.00220946
0.00397485
0.00485506
0.00480718
0.00420274
0.0029795
0.00204352
0.00144125
0.00107404
0.000860339
0.000726866
0.000654609
0.000603411
0.000584029
0.000568779
0.000566629
0.000569222
0.000582913
0.000601096
0.000644084
0.000738815
0.339735
0.157131
0.0840438
0.0497453
0.0316867
0.0220006
0.0165445
0.0140683
0.0130675
0.0130891
0.0133437
0.0140931
0.0148623
0.0159389
0.0172702
0.0190825
0.0218425
0.0238929
0.0264319
0.0297174
0.0320694
0.035242
0.038325
0.0398795
0.0401092
0.0392892
0.0368616
0.0321573
0.0238728
0.0135062
0.00632581
0.00292967
0.00160357
0.00115674
0.00107143
0.0011184
0.00119584
0.00125061
0.00139925
0.00190495
0.00344718
0.00450745
0.00454858
0.00412576
0.00302549
0.00208709
0.00147546
0.0010972
0.000873761
0.000733141
0.000655533
0.000600482
0.00057827
0.000560886
0.000556299
0.000557743
0.000569143
0.00058618
0.000627208
0.00071906
0.339733
0.157209
0.0842177
0.0499935
0.031876
0.0220227
0.0163564
0.0136381
0.0124948
0.0124651
0.0127204
0.0135038
0.0143986
0.0155868
0.0169546
0.0186444
0.021461
0.0236369
0.0260183
0.0294137
0.031567
0.0343371
0.0370513
0.0381969
0.0381178
0.0369584
0.03406
0.0287853
0.0201643
0.0107326
0.00487065
0.00229202
0.00133821
0.00105232
0.00103003
0.00112129
0.00123022
0.00125671
0.00133989
0.00169025
0.00296077
0.00415357
0.00429354
0.00399526
0.0030532
0.00212091
0.00150358
0.00111642
0.000884353
0.00073733
0.000654788
0.000596229
0.000571369
0.000552115
0.000545338
0.000545528
0.000555094
0.000571064
0.000610248
0.000699489
0.339739
0.157294
0.0843746
0.0502205
0.0320717
0.0220796
0.0162282
0.0132529
0.0119321
0.0117861
0.0120109
0.0127515
0.0137098
0.0149686
0.0163775
0.0179298
0.0207182
0.0230174
0.0252427
0.0287161
0.030788
0.0332132
0.0355605
0.0362946
0.035961
0.0344021
0.0310361
0.0252252
0.0165501
0.00833059
0.0037173
0.00181454
0.00115206
0.000991879
0.00101307
0.00118744
0.00131943
0.00131563
0.00133226
0.0015487
0.0025308
0.00380071
0.0040415
0.00383411
0.00305402
0.00214351
0.00152518
0.00113144
0.000892018
0.000739373
0.000652382
0.000590756
0.000563488
0.000542569
0.000534027
0.000532676
0.000540986
0.000555929
0.000593393
0.0006803
0.339755
0.157387
0.0845204
0.0504271
0.0322679
0.0221665
0.0161597
0.0129308
0.0114082
0.0110928
0.0112602
0.0118924
0.0128474
0.0141289
0.0155689
0.0169717
0.0196474
0.0220235
0.0241046
0.027581
0.0296398
0.0318079
0.0337934
0.0341485
0.033579
0.0315882
0.0278063
0.0215417
0.0131763
0.00633649
0.00283183
0.00146721
0.00102881
0.000962923
0.00101877
0.00132073
0.00146897
0.00143827
0.00136183
0.00147407
0.00217025
0.00345506
0.0037929
0.00365436
0.00303097
0.00215404
0.00153988
0.0011421
0.000896688
0.000739467
0.000648435
0.000584183
0.000554793
0.000532408
0.000522437
0.000519542
0.000526944
0.000540946
0.000576845
0.000661701
0.339777
0.157489
0.0846603
0.0506155
0.0324606
0.0222729
0.0161451
0.0126817
0.0109435
0.0104211
0.0105082
0.0109871
0.0118669
0.0131123
0.0145596
0.0158115
0.0182934
0.020678
0.0226164
0.026007
0.0280598
0.0300572
0.0316913
0.0317368
0.0309279
0.028512
0.0243854
0.0178425
0.0101803
0.00474878
0.00217274
0.00122327
0.000957404
0.00095281
0.00106783
0.00154276
0.0016977
0.0016361
0.00143691
0.00145867
0.00190516
0.00310699
0.00354772
0.00346396
0.00298077
0.0021524
0.00154748
0.00114825
0.000898449
0.000737503
0.000643062
0.000576649
0.000545452
0.000521808
0.000510711
0.00050643
0.000513142
0.000526301
0.000560811
0.000643905
0.339803
0.157598
0.0847984
0.0507886
0.0326468
0.0223925
0.0161664
0.0125066
0.0105519
0.00980351
0.00977907
0.0100991
0.0108274
0.0119765
0.0133949
0.0145017
0.0167212
0.0190336
0.0208145
0.0240353
0.0260365
0.0279147
0.0292116
0.0290529
0.02798
0.0252011
0.0208176
0.0142789
0.00765865
0.00353422
0.00169708
0.00106031
0.000923761
0.000952924
0.00117606
0.00187446
0.00202133
0.00192089
0.00158201
0.00147503
0.00174211
0.00276489
0.00330627
0.00326819
0.0029051
0.00214115
0.0015482
0.00114994
0.00089735
0.000733581
0.000636391
0.000568304
0.000535637
0.000510961
0.000499009
0.000493597
0.000499755
0.00051221
0.000545507
0.000627125
0.339832
0.157715
0.0849376
0.0509495
0.0328251
0.0225194
0.0162212
0.0124008
0.0102398
0.00927146
0.00907781
0.00926917
0.00980294
0.010787
0.0121314
0.0130955
0.0150152
0.0171721
0.018767
0.021741
0.0236179
0.0253757
0.0263666
0.0260658
0.0247629
0.0217185
0.017205
0.0110255
0.00564693
0.0026391
0.00136501
0.000959445
0.000911146
0.000984389
0.00137255
0.00232773
0.00245353
0.00230602
0.00181536
0.00151669
0.0016542
0.00245755
0.0030719
0.00307176
0.00280331
0.00212346
0.00154278
0.00114726
0.000893414
0.000727814
0.000628567
0.000559309
0.000525526
0.000500064
0.000487504
0.000481276
0.000486987
0.000498879
0.000531148
0.000611569
0.339862
0.157837
0.0850799
0.0511014
0.0329953
0.0226494
0.0163014
0.0123551
0.0100084
0.00883149
0.00843823
0.0085106
0.00885374
0.00960731
0.0108305
0.0116545
0.0132604
0.0151923
0.0165704
0.0192262
0.0209091
0.0224987
0.023214
0.0228115
0.0213373
0.0181646
0.0137038
0.00823687
0.00412109
0.00200169
0.00114224
0.000908156
0.000909673
0.00105269
0.00170199
0.00290501
0.00300838
0.00280527
0.00214579
0.00159526
0.00162339
0.00219598
0.0028469
0.0028816
0.00268267
0.00209615
0.00153075
0.00114027
0.000886811
0.000720351
0.00061975
0.000549838
0.000515297
0.000489324
0.000476388
0.000469686
0.000475049
0.000486519
0.000517946
0.000597447
0.339892
0.157964
0.0852263
0.0512471
0.0331576
0.0227796
0.0163954
0.0123569
0.00985255
0.00848381
0.00788842
0.00782263
0.00800621
0.00851241
0.00955137
0.0102413
0.0115359
0.0131973
0.0143376
0.0166126
0.0180556
0.0194074
0.0198667
0.0193961
0.0178139
0.0146847
0.010503
0.00600193
0.00301534
0.00156226
0.00100121