/*--------------------------------*- C++ -*----------------------------------*\
| =========                 |                                                 |
| \\      /  F ield         | OpenFOAM: The Open Source CFD Toolbox           |
|  \\    /   O peration     | Version:  2.4.0                                 |
|   \\  /    A nd           | Web:      www.OpenFOAM.org                      |
|    \\/     M anipulation  |                                                 |
\*---------------------------------------------------------------------------*/
FoamFile
{
    version     2.0;
    format      ascii;
    class       volScalarField;
    location    "2.01";
    object      k;
}
// * * * * * * * * * * * * * * * * * * * * * * * * * * * * * * * * * * * * * //

dimensions      [0 2 -2 0 0 0 0];

internalField   nonuniform List<scalar> 
6000
(
0.0117106
0.00657428
0.00176736
0.000413973
0.00021223
0.000306171
0.000309465
0.000461376
0.00083041
0.00162988
0.00250013
0.00287441
0.00279837
0.0023341
0.00204067
0.00210165
0.00204017
0.00337582
0.00470334
0.00539045
0.00539071
0.00489063
0.00412792
0.00335156
0.00265203
0.00205357
0.00157086
0.00112362
0.000722099
0.000425529
0.000376237
0.000522602
0.000668849
0.000796726
0.000899928
0.000981862
0.00105028
0.00111336
0.00117784
0.00124846
0.00132833
0.00141937
0.00152286
0.00163985
0.00177144
0.001919
0.00208434
0.00226985
0.00247862
0.00271469
0.00298329
0.00329151
0.00364833
0.00406778
0.00456378
0.00517321
0.005896
0.0069024
0.00789877
0.00996681
0.0120366
0.0117369
0.00207404
0.000728695
0.000270967
0.00040542
0.000634277
0.000931401
0.00157378
0.00264591
0.00360957
0.00338509
0.00263794
0.00226885
0.00235369
0.00423872
0.00614671
0.00442741
0.00296987
0.0023894
0.00213158
0.00201642
0.00199003
0.00196973
0.00191167
0.00179905
0.00161668
0.00135626
0.00104192
0.000730024
0.000521216
0.000431957
0.000394048
0.000387503
0.000398773
0.000419213
0.000444223
0.000471965
0.000502154
0.00053518
0.000571611
0.000611972
0.000656697
0.000706146
0.000760653
0.000820588
0.000886409
0.000958706
0.00103825
0.00112605
0.00122343
0.00133211
0.00145451
0.00159353
0.0017546
0.00194105
0.00217047
0.00242942
0.00279855
0.00324292
0.0115677
0.0151763
0.00285827
0.000694589
0.000374271
0.000511147
0.00082872
0.0011971
0.00193389
0.00316529
0.00440815
0.00428071
0.00341939
0.00293097
0.00361238
0.00627434
0.00502433
0.00267257
0.00197118
0.00192971
0.00201937
0.00213902
0.00226101
0.00234236
0.00235696
0.00227969
0.00208969
0.00178337
0.00139529
0.000995033
0.000686877
0.000515511
0.000413206
0.00035804
0.000332376
0.000323864
0.000325042
0.000331838
0.000342232
0.000355327
0.000370794
0.000388577
0.000408746
0.000431425
0.000456758
0.000484893
0.000515983
0.000550188
0.000587678
0.000628645
0.00067333
0.000722002
0.000775147
0.000833097
0.000897463
0.000967259
0.00105064
0.00113165
0.00124794
0.0013061
0.0114637
0.0160711
0.00395981
0.000606514
0.00045752
0.000593155
0.000956736
0.00136776
0.00211844
0.00335092
0.00479013
0.00493465
0.00410056
0.00374892
0.005008
0.00650463
0.00358341
0.00205525
0.0019487
0.00210078
0.00226794
0.00243949
0.00260316
0.00271908
0.00275514
0.00268106
0.00247157
0.00212244
0.00167546
0.00121371
0.000843897
0.000617062
0.000470499
0.000384343
0.000337665
0.000314413
0.000304409
0.000301851
0.000303623
0.000308101
0.000314444
0.000322231
0.000331283
0.000341571
0.000353158
0.000366152
0.00038068
0.000396861
0.000414798
0.000434565
0.000456217
0.000479761
0.000505243
0.000532541
0.0005621
0.000592848
0.000628461
0.000659089
0.00070747
0.000710982
0.0113765
0.0157621
0.00526793
0.00059816
0.000519029
0.00065637
0.00103672
0.00146767
0.00219095
0.00329234
0.00480983
0.00537517
0.00466828
0.00456546
0.00615099
0.00568243
0.0027119
0.00197453
0.00213078
0.00233894
0.00253784
0.00274517
0.00293965
0.00307629
0.00312037
0.00303974
0.00280694
0.0024159
0.00191313
0.00140208
0.000998639
0.000727876
0.000539369
0.000423045
0.000357444
0.00032282
0.000305785
0.000298466
0.000296543
0.000297693
0.000300642
0.000304678
0.000309422
0.000314708
0.000320514
0.000326907
0.000333999
0.000341921
0.000350799
0.000360746
0.00037186
0.000384206
0.000397866
0.000412818
0.000429347
0.000446944
0.000467642
0.000486782
0.000518178
0.000533425
0.0113037
0.0149364
0.00665804
0.000756487
0.000564595
0.000704047
0.00107695
0.00150605
0.0021666
0.00307653
0.00452189
0.00562009
0.00513501
0.00534828
0.00675609
0.00464933
0.00229611
0.00208456
0.00235586
0.00258618
0.00281559
0.00305496
0.00327418
0.00342296
0.00346671
0.00337431
0.00311765
0.00268711
0.00212813
0.00156405
0.00114575
0.000846535
0.000620498
0.000471424
0.000383847
0.000336295
0.00031201
0.000300589
0.000296197
0.000295665
0.000297239
0.000299913
0.000303112
0.00030654
0.000310088
0.000313771
0.000317682
0.000321948
0.000326717
0.000332138
0.000338368
0.000345554
0.000353884
0.000363495
0.000374797
0.000387746
0.00040418
0.000421772
0.000452901
0.000483829
0.011244
0.0139381
0.00769355
0.00127918
0.000608353
0.000740643
0.00108813
0.00149449
0.00207035
0.00279368
0.00402823
0.00568487
0.00551196
0.00605979
0.0067841
0.00379408
0.00215209
0.00226333
0.00259044
0.00284366
0.00310896
0.00337985
0.00361951
0.0037733
0.0038089
0.0036991
0.00341711
0.00294971
0.00233629
0.00170957
0.00127618
0.000963691
0.000712008
0.00053128
0.000418179
0.000354303
0.000320652
0.00030408
0.000296887
0.000294826
0.000295535
0.000297652
0.000300372
0.000303244
0.000306055
0.00030876
0.00031142
0.000314162
0.000317151
0.000320574
0.000324641
0.000329581
0.00033569
0.000343251
0.000352904
0.000364794
0.000381523
0.00040048
0.000437568
0.000479377
0.0111893
0.0129377
0.00840087
0.00216685
0.000674732
0.000772614
0.00108445
0.00145208
0.0019401
0.00252378
0.00346631
0.00556804
0.00580542
0.00664948
0.00637538
0.00318396
0.00215902
0.00247091
0.00283163
0.00312018
0.0034282
0.00373131
0.00398732
0.00413788
0.00415574
0.00402063
0.00370965
0.00320714
0.00254453
0.00185159
0.00138956
0.00106838
0.00080574
0.000601039
0.000461874
0.000378506
0.000332687
0.00030909
0.000297983
0.000293813
0.000293463
0.000295122
0.000297699
0.000300543
0.000303302
0.000305837
0.000308157
0.000310375
0.000312666
0.000315249
0.000318385
0.000322367
0.000327586
0.000334431
0.000343737
0.000355782
0.000373797
0.000394758
0.00043912
0.000488033
0.0111366
0.0120145
0.00882596
0.0032354
0.000805642
0.000807797
0.00108193
0.00140338
0.00181589
0.0023022
0.00297758
0.00524905
0.00601531
0.0070487
0.00570709
0.00278269
0.00224772
0.00269257
0.0030858
0.00342507
0.00378327
0.00411949
0.00438659
0.00452389
0.00451224
0.00434172
0.00399602
0.00345856
0.00275266
0.00199856
0.00149426
0.0011565
0.000891823
0.000674944
0.00051391
0.000409919
0.000349512
0.000316817
0.00030032
0.000293063
0.000291056
0.000291956
0.00029433
0.000297281
0.000300272
0.00030303
0.00030548
0.000307691
0.000309831
0.000312143
0.000314928
0.000318539
0.000323446
0.00033013
0.000339594
0.000352201
0.000371836
0.000394802
0.000445991
0.000499406
0.0110864
0.0111998
0.00901535
0.00432603
0.00108342
0.000854777
0.00109483
0.00137214
0.00172875
0.00215017
0.00263343
0.00471952
0.00613686
0.00714897
0.00497317
0.00253863
0.00238163
0.00292439
0.0033611
0.00376665
0.0041826
0.00455218
0.00482352
0.00493577
0.00488111
0.00466343
0.00427568
0.00370181
0.00295735
0.00215219
0.00159957
0.00123189
0.000964179
0.000745516
0.000570618
0.000447889
0.000371766
0.000328275
0.000304923
0.000293464
0.000288991
0.000288586
0.00029044
0.000293379
0.000296646
0.000299793
0.000302618
0.00030511
0.000307406
0.000309752
0.000312482
0.000315998
0.000320838
0.000327564
0.000337319
0.000350546
0.000371671
0.000396396
0.000453208
0.000509557
0.0110399
0.0105002
0.00901793
0.00529738
0.00161767
0.000923684
0.00113227
0.00137504
0.00169502
0.0020742
0.00243403
0.00403591
0.00615691
0.00691139
0.00430263
0.00240897
0.00254291
0.00316774
0.00366486
0.00415166
0.00463241
0.0050345
0.00530181
0.00537599
0.00526371
0.00498606
0.00454782
0.00393469
0.00315481
0.00230982
0.00171054
0.00130194
0.00102252
0.000806682
0.000626883
0.000490105
0.00039894
0.000343774
0.000312433
0.000295756
0.000287981
0.000285619
0.000286484
0.00028912
0.000292537
0.000296083
0.000299389
0.000302328
0.00030497
0.00030754
0.000310386
0.000313949
0.000318826
0.000325649
0.000335675
0.000349426
0.000371738
0.000397898
0.000458961
0.000517246
0.0109976
0.00990959
0.00888168
0.00609328
0.00233145
0.00102896
0.00119719
0.00141904
0.00171772
0.00206796
0.00231632
0.00337324
0.00602499
0.00639299
0.00374194
0.00236242
0.00272335
0.00342619
0.00400287
0.00458479
0.00513636
0.00556892
0.00582293
0.00584538
0.00566042
0.00530959
0.00481182
0.00415557
0.00334193
0.0024673
0.00182753
0.00137293
0.00107084
0.000855678
0.000677783
0.000533233
0.000429499
0.000362836
0.000322912
0.000300277
0.000288492
0.000283547
0.000282903
0.000284851
0.000288176
0.000292014
0.000295808
0.000299276
0.000302388
0.000305314
0.000308398
0.000312102
0.000317071
0.000323995
0.000334225
0.000348359
0.000371522
0.000398777
0.0004628
0.000522326
0.0109595
0.00941683
0.00865003
0.00669172
0.00313108
0.00119674
0.00128828
0.00150316
0.00179239
0.00212256
0.00225972
0.00287463
0.00560032
0.00570083
0.00329975
0.00237689
0.00291955
0.0037038
0.00437918
0.00506859
0.00569556
0.00615544
0.00638626
0.00634331
0.00607073
0.00563361
0.00506721
0.00436348
0.00351661
0.00262092
0.00194801
0.00144799
0.0011145
0.000893211
0.000719907
0.000573739
0.000461261
0.000384358
0.000335893
0.000306937
0.000290665
0.000282635
0.000280008
0.000280861
0.000283787
0.000287732
0.00029194
0.000295955
0.000299609
0.000302992
0.000306412
0.000310338
0.000315445
0.000322474
0.000332846
0.000347233
0.00037095
0.000398984
0.00046487
0.000525107
0.0109255
0.00900901
0.00835964
0.00709513
0.00392371
0.00148343
0.00140354
0.0016223
0.00191253
0.00223168
0.0022653
0.00252913
0.00490155
0.00496003
0.00296769
0.00243693
0.00313059
0.00400418
0.00479607
0.00560342
0.0063087
0.00679175
0.00698936
0.0068678
0.00649328
0.00595735
0.00531356
0.0045579
0.00367762
0.00276812
0.00206843
0.00152728
0.00115794
0.000922323
0.000751998
0.000608663
0.000491835
0.000406871
0.000350545
0.00031531
0.00029435
0.000282924
0.000277951
0.000277342
0.000279553
0.00028337
0.000287861
0.000292383
0.000296612
0.000300522
0.000304362
0.000308585
0.000313884
0.000321036
0.000331517
0.000346063
0.000370107
0.000398655
0.000465533
0.000526062
0.0108954
0.00867346
0.00803968
0.00732065
0.00465589
0.00192778
0.00154418
0.00177037
0.0020723
0.00239134
0.00233601
0.00230003
0.00409091
0.00426709
0.00273176
0.00253186
0.0033568
0.00433001
0.00525416
0.00618766
0.00697241
0.00747366
0.00762828
0.00741577
0.00692598
0.0062796
0.00555035
0.00473851
0.00382434
0.00290747
0.00218548
0.00160911
0.00120362
0.000946835
0.000774856
0.000636164
0.000519035
0.000428783
0.000365849
0.000324769
0.000299193
0.000284267
0.000276734
0.000274389
0.000275598
0.000279043
0.000283645
0.00028859
0.000293384
0.000297865
0.000302193
0.000306785
0.000312334
0.000319643
0.000330228
0.000344881
0.000369099
0.000397957
0.000465187
0.000525674
0.0108689
0.00839859
0.00771214
0.00739348
0.00529409
0.00252135
0.00171939
0.00194217
0.00226749
0.00259855
0.00247225
0.00217277
0.00334711
0.00367733
0.00257759
0.00265435
0.00359902
0.00468288
0.0057525
0.00681807
0.00768175
0.0081957
0.00829802
0.0079833
0.00736612
0.00659881
0.00577688
0.00490508
0.00395654
0.00303829
0.00229657
0.00169106
0.0012521
0.000970064
0.000790684
0.000655754
0.000541213
0.000448598
0.000380742
0.000334596
0.000304731
0.000286396
0.000276247
0.000272005
0.000271993
0.000274839
0.000279367
0.000284618
0.000289931
0.000294996
0.000299861
0.000304885
0.000310743
0.000318254
0.000328961
0.000343702
0.000368003
0.000397031
0.00046417
0.000524362
0.0108456
0.00817424
0.0073927
0.00734232
0.0058141
0.00321098
0.00195594
0.00213459
0.00249623
0.00285074
0.00267223
0.00214319
0.00277824
0.00321187
0.00249249
0.00279956
0.00385815
0.00506331
0.00628889
0.00749015
0.00843077
0.00895151
0.00899294
0.00856592
0.0078106
0.00691314
0.00599238
0.00505739
0.00407412
0.00316045
0.00239987
0.00177074
0.00130263
0.000994163
0.000802224
0.000668192
0.000557499
0.000465098
0.000394234
0.000344078
0.00031046
0.000288982
0.000276305
0.000270123
0.000268754
0.000270819
0.000275092
0.000280513
0.000286273
0.000291907
0.000297339
0.000302844
0.000309067
0.000316826
0.000327685
0.00034252
0.000366861
0.000395971
0.000462738
0.000522455
0.0108253
0.00799167
0.00709177
0.00719632
0.00620258
0.0039295
0.00228511
0.00234774
0.00275552
0.00314558
0.00293311
0.00220664
0.00240731
0.00287003
0.00246605
0.00296442
0.00413483
0.00547077
0.00686006
0.00819862
0.00921306
0.00973457
0.00970713
0.0091589
0.00825604
0.00722063
0.00619598
0.00519525
0.00418001
0.00327102
0.00249415
0.00184616
0.00135378
0.00102003
0.000811997
0.000675099
0.000567868
0.000477501
0.000405506
0.000352569
0.000315903
0.000291678
0.000276685
0.000268629
0.000265854
0.000267011
0.000270876
0.000276327
0.00028244
0.000288606
0.000294611
0.000300635
0.000307269
0.000315323
0.00032637
0.000341317
0.000365684
0.000394829
0.000461063
0.000520187
0.0108075
0.0078435
0.00681563
0.00698287
0.00645678
0.00461985
0.00272201
0.00258681
0.00303775
0.00348089
0.00325203
0.00235524
0.00220873
0.00264039
0.0024899
0.00314707
0.00442927
0.00590382
0.00746201
0.00893776
0.0100221
0.0105384
0.0104348
0.00975741
0.00869896
0.0075192
0.00638683
0.00531845
0.00427575
0.00336889
0.00257864
0.00191583
0.00140395
0.00104758
0.000821833
0.000678453
0.000573038
0.000485536
0.000413996
0.000359545
0.000320641
0.000294167
0.000277156
0.00026738
0.000263232
0.000263419
0.000266756
0.000272108
0.000278471
0.000285111
0.000291679
0.000298243
0.000305328
0.000313717
0.000324989
0.000340072
0.000364471
0.000393627
0.000459248
0.000517716
0.0107921
0.00772357
0.00656747
0.00672629
0.00658287
0.0052373
0.00325626
0.00286504
0.00333873
0.00385436
0.00362674
0.00257952
0.0021465
0.00250831
0.00255735
0.00334641
0.00474118
0.00636024
0.00809019
0.00970169
0.0108517
0.0113568
0.0111702
0.0103566
0.00913582
0.00780678
0.00656405
0.00542681
0.00436212
0.00345386
0.00265285
0.00197872
0.00145171
0.00107612
0.00083274
0.000680125
0.000574227
0.000489443
0.000419445
0.000364642
0.000324343
0.000296175
0.000277507
0.000266231
0.000260807
0.00026002
0.000262752
0.000267895
0.000274405
0.000281449
0.000288551
0.000295662
0.000303226
0.000311989
0.000323519
0.000338765
0.000363209
0.000392373
0.000457351
0.000515138
0.0107787
0.00762678
0.00634817
0.006447
0.00659383
0.00575025
0.00385661
0.00319995
0.00365511
0.00426301
0.00405592
0.00287033
0.00219158
0.00245982
0.0026629
0.00356176
0.00506971
0.00683719
0.00873968
0.0104846
0.0116958
0.0121843
0.0119081
0.0109518
0.00956306
0.00808132
0.00672678
0.00552021
0.00443996
0.00352584
0.00271644
0.00203415
0.00149587
0.00110468
0.000844994
0.000681564
0.000572847
0.000489874
0.000421913
0.000367683
0.000326788
0.000297496
0.000277563
0.000265046
0.000258494
0.000256779
0.000258871
0.000263719
0.00027028
0.00027765
0.000285245
0.000292898
0.00030096
0.000310126
0.000321945
0.000337382
0.000361888
0.000391063
0.000455402
0.000512508
0.010767
0.0075489
0.00615712
0.00616134
0.00650719
0.0061395
0.00448173
0.00360541
0.00398641
0.00470238
0.00453907
0.00321992
0.00232315
0.00248302
0.00280192
0.00379255
0.00541351
0.00733126
0.00940534
0.0112805
0.0125487
0.0130149
0.0126432
0.0115383
0.0099771
0.00834081
0.00687423
0.00559874
0.00451001
0.00358477
0.00276922
0.0020817
0.00153556
0.00113226
0.000858356
0.000683672
0.000570215
0.000487715
0.000421738
0.000368684
0.00032787
0.000297995
0.00027719
0.00026371
0.000256209
0.000253651
0.000255105
0.000259601
0.000266127
0.000273746
0.000281783
0.000289959
0.000298527
0.00030812
0.000320258
0.000335911
0.000360498
0.000389694
0.000453413
0.000509856
0.0107569
0.00748648
0.00599269
0.00588166
0.00634292
0.006397
0.00508813
0.00407926
0.00434122
0.00516572
0.00507595
0.00362265
0.00252735
0.00256817
0.00297041
0.00403818
0.00577074
0.00783863
0.0100818
0.0120839
0.013405
0.0138436
0.0133703
0.0121111
0.0103744
0.00858333
0.00700563
0.00566643
0.00456921
0.00363055
0.0028111
0.00212114
0.00157016
0.00115799
0.000872295
0.000686835
0.000567373
0.000483938
0.00041945
0.000367827
0.000327599
0.000297612
0.000276305
0.000262137
0.000253879
0.00025059
0.00025144
0.000255553
0.000261976
0.000269767
0.000278188
0.000286858
0.000295932
0.00030597
0.000318451
0.000334344
0.000359033
0.000388261
0.000451389
0.000507198
0.0107482
0.00743666
0.00585271
0.00561672
0.00612152
0.00652429
0.005636
0.00460742
0.00473037
0.00564298
0.00566567
0.00407548
0.00279374
0.00270728
0.00316491
0.00429781
0.0061391
0.00835512
0.0107637
0.0128888
0.0142591
0.014665
0.0140839
0.0126654
0.0107512
0.00880702
0.00712028
0.00572759
0.00461442
0.00366319
0.00284207
0.00215238
0.00159931
0.00118116
0.000886173
0.00069104
0.000565034
0.000479445
0.000415675
0.000365429
0.000326084
0.000296354
0.000274869
0.000260271
0.00025145
0.000247555
0.000247855
0.000251578
0.000257846
0.000265741
0.000274485
0.000283614
0.000293183
0.000303676
0.000316521
0.000332676
0.000357486
0.000386761
0.00044933
0.00050454
0.0107406
0.0073971
0.00573469
0.00537221
0.00586251
0.00653075
0.00609286
0.00516484
0.00515963
0.00612612
0.00630523
0.00457858
0.00311386
0.00289368
0.00338237
0.00457031
0.0065159
0.00887624
0.0114452
0.0136893
0.0151051
0.0154733
0.0147783
0.013196
0.0111039
0.00901008
0.00721771
0.00578343
0.00464548
0.00368284
0.00286225
0.00217541
0.0016228
0.00120126
0.000899371
0.00069602
0.000563525
0.000474925
0.000411034
0.000361874
0.000323514
0.00029429
0.000272889
0.000258087
0.000248882
0.000244511
0.000244333
0.000247677
0.000253754
0.000261693
0.0002707
0.000280244
0.000290291
0.000301241
0.000314465
0.000330905
0.000355854
0.00038519
0.000447237
0.000501886
0.0107341
0.00736591
0.00563611
0.00515133
0.00558331
0.0064316
0.0064356
0.00571913
0.00562374
0.00661229
0.00698763
0.00513559
0.00348085
0.00312174
0.00362013
0.00485424
0.00689811
0.00939729
0.0121206
0.0144791
0.0159368
0.0162623
0.0154472
0.0136973
0.0114288
0.00919071
0.00729987
0.00583277
0.00466241
0.00368974
0.00287184
0.00219032
0.00164054
0.00121794
0.000911357
0.000701387
0.000562894
0.000470821
0.000406079
0.000357567
0.000320124
0.000291535
0.000270404
0.000255585
0.000246157
0.000241434
0.000240855
0.000243847
0.000249713
0.000257644
0.000266855
0.000276769
0.000287267
0.000298672
0.000312286
0.000329027
0.000354135
0.000383548
0.000445108
0.000499235
0.0107284
0.00734153
0.0055545
0.00495535
0.00529855
0.00624587
0.00665129
0.00623519
0.0061109
0.00710152
0.00769949
0.00575336
0.00388938
0.00338679
0.00387582
0.0051478
0.00728241
0.00991334
0.0127838
0.0152515
0.0167474
0.0170247
0.0160835
0.0141636
0.0117221
0.00934698
0.00737633
0.00586746
0.00466515
0.00368421
0.00287112
0.0021973
0.00165258
0.001231
0.000921712
0.000706724
0.000563006
0.00046735
0.000401217
0.000352878
0.000316162
0.000288229
0.000267485
0.000252787
0.000243271
0.000238308
0.000237408
0.000240083
0.000245729
0.000253612
0.000262973
0.000273207
0.000284127
0.000295975
0.000309986
0.000327043
0.000352327
0.000381832
0.000442943
0.000496588
0.0107234
0.00732266
0.00548755
0.00478415
0.00501982
0.00599443
0.00673704
0.00667954
0.00660275
0.00759198
0.00842032
0.00644075
0.00433567
0.00368514
0.00414735
0.00544897
0.00766532
0.0104193
0.0134285
0.0159993
0.017529
0.0177526
0.0166796
0.0145887
0.0119805
0.00947685
0.0074503
0.00588599
0.00465379
0.00366661
0.00286045
0.00219658
0.00165902
0.00124035
0.000930134
0.000711647
0.000563625
0.000464559
0.000396704
0.00034811
0.00031187
0.000284527
0.000264215
0.000249732
0.000240233
0.000235129
0.000233982
0.00023638
0.000241809
0.000249613
0.000259075
0.00026958
0.000280886
0.000293162
0.000307569
0.000324954
0.00035043
0.000380044
0.000440741
0.000493945
0.0107191
0.00730827
0.00543316
0.00463662
0.00475565
0.0056982
0.00669895
0.00702393
0.00707538
0.00806271
0.00912765
0.00720615
0.00481743
0.0040143
0.00443311
0.00575566
0.00804326
0.0109099
0.0140478
0.0167146
0.0182731
0.0184369
0.017227
0.0149661
0.0122007
0.00959535
0.00750778
0.00588768
0.00462851
0.00363739
0.00284026
0.00218846
0.00166003
0.00124599
0.00093643
0.000715837
0.000564481
0.000462372
0.000392667
0.000343476
0.00030745
0.000280577
0.000260688
0.000246471
0.000237066
0.000231899
0.000230573
0.000232737
0.000237956
0.000245658
0.000255177
0.000265905
0.000277559
0.000290241
0.000305041
0.000322761
0.000348443
0.000378182
0.000438501
0.000491304
0.0107154
0.00729749
0.00538944
0.00451105
0.00451178
0.00537669
0.00655048
0.00724796
0.00750153
0.0085045
0.00979503
0.00805328
0.00533425
0.00437338
0.00473228
0.00606628
0.00841286
0.0113798
0.0146345
0.0173889
0.0189697
0.0190673
0.0177163
0.0152894
0.0123835
0.00970583
0.00754376
0.00587214
0.00458959
0.00359707
0.00281105
0.0021733
0.00165584
0.001248
0.000940494
0.000719049
0.000565315
0.00046065
0.00038913
0.000339121
0.000303067
0.000276514
0.000256997
0.000243061
0.000233796
0.000228628
0.000227182
0.000229151
0.000234175
0.000241758
0.000251296
0.000262201
0.000274162
0.000287225
0.000302408
0.000320467
0.000346367
0.000376246
0.000436223
0.000488665
0.0107121
0.00728963
0.00535471
0.00440537
0.00429156
0.00504691
0.00631043
0.00734059
0.00785351
0.00890427
0.0103951
0.00897483
0.00588886
0.00476338
0.00504616
0.0063813
0.00877157
0.0118233
0.0151801
0.0180122
0.0196076
0.0196324
0.0181379
0.0155522
0.0125489
0.00979035
0.00755639
0.00583921
0.00453741
0.00354621
0.00277337
0.00215154
0.00164672
0.0012465
0.000942296
0.000721112
0.000565897
0.000459223
0.000386049
0.000335117
0.000298834
0.00027245
0.000253228
0.000239557
0.000230458
0.000225332
0.000223811
0.000225623
0.000230467
0.000237921
0.000247446
0.000258485
0.000270712
0.000284127
0.000299678
0.000318076
0.000344203
0.000374237
0.000433906
0.000486028
0.0107093
0.0072841
0.00532752
0.00431741
0.00409643
0.00472277
0.00600072
0.00730059
0.00810616
0.00924571
0.0109205
0.00993116
0.00649002
0.0051868
0.00538209
0.00670703
0.00911955
0.012234
0.015674
0.018573
0.0201735
0.0201189
0.0184815
0.0157736
0.0126827
0.00984256
0.00754475
0.00578892
0.00447242
0.00348546
0.00272783
0.00212362
0.00163297
0.00124167
0.000941865
0.000721918
0.000566046
0.000457922
0.000383339
0.000331475
0.000294824
0.000268469
0.000249455
0.000236014
0.000227084
0.000222028
0.000220469
0.000222155
0.000226835
0.000234155
0.000243639
0.000254772
0.000267224
0.000280958
0.000296861
0.000315594
0.000341955
0.000372155
0.00043155
0.00048339
0.0107068
0.00728042
0.00530661
0.00424498
0.00392634
0.00441481
0.00564418
0.007136
0.00823974
0.00951016
0.0113624
0.0108702
0.00715643
0.00564596
0.00573825
0.00704103
0.00946055
0.0126195
0.0161178
0.0190568
0.0206512
0.0205143
0.0187587
0.0159484
0.0127733
0.00985974
0.00750841
0.00572152
0.00439519
0.00341552
0.00267509
0.00209006
0.00161493
0.0012337
0.000939271
0.000721417
0.000565623
0.000456595
0.000380896
0.000328166
0.000291071
0.000264633
0.000245738
0.000232482
0.00022371
0.000218736
0.000217164
0.000218752
0.000223284
0.000230465
0.000239886
0.000251075
0.000263712
0.000277732
0.000293965
0.000313026
0.000339624
0.000370003
0.000429154
0.000480753
0.0107046
0.00727821
0.00529089
0.004186
0.00378022
0.00413032
0.0052627
0.00686268
0.00824216
0.00967857
0.0117084
0.0117398
0.00790109
0.00614417
0.0061143
0.00738185
0.00979232
0.0129767
0.0165085
0.0194647
0.0210381
0.0208227
0.018967
0.016067
0.0128156
0.00984068
0.00744734
0.00563741
0.0043064
0.00333714
0.00261583
0.00205139
0.00159299
0.00122284
0.000934624
0.000719601
0.000564535
0.000455113
0.000378615
0.00032514
0.000287579
0.000260977
0.000242125
0.000229001
0.000220366
0.000215476
0.000213909
0.000215418
0.000219815
0.000226858
0.000236196
0.000247408
0.000260191
0.000274462
0.000291001
0.000310378
0.000337214
0.000367782
0.00042672
0.000478114
0.0107027
0.00727714
0.00527945
0.00413855
0.00365633
0.00387367
0.00487564
0.00650227
0.00811033
0.00973375
0.0119419
0.0125193
0.00870984
0.00667579
0.00650969
0.00772791
0.0101129
0.0133027
0.016844
0.0197961
0.0213356
0.0210457
0.0191033
0.0161238
0.0128071
0.00978511
0.00736186
0.00553721
0.0042068
0.00325111
0.00255079
0.00200817
0.00156752
0.00120932
0.000928056
0.000716502
0.000562727
0.000453377
0.000376398
0.000322335
0.000284332
0.000257519
0.000238646
0.000225606
0.00021708
0.000212269
0.000210713
0.000212158
0.000216433
0.000223337
0.000232577
0.000243782
0.000256673
0.00027116
0.000287979
0.000307659
0.00033473
0.000365494
0.000424248
0.000475475
0.010701
0.00727696
0.00527149
0.00410089
0.00355258
0.00364679
0.00449895
0.0060797
0.00785055
0.00966287
0.0120391
0.013182
0.00956755
0.00723409
0.0069227
0.00807752
0.0104205
0.0135956
0.0171227
0.0200509
0.0215454
0.0211843
0.019165
0.016116
0.0127472
0.00969345
0.00725271
0.00542174
0.00409726
0.00315831
0.00248071
0.00196099
0.00153893
0.00119342
0.000919722
0.000712176
0.000560177
0.000451314
0.00037416
0.000319688
0.000281298
0.000254262
0.000235322
0.000222321
0.000213876
0.000209131
0.000207589
0.00020898
0.000213141
0.000219907
0.000229036
0.000240207
0.000253172
0.000267839
0.000284909
0.000304876
0.000332178
0.000363143
0.000421738
0.000472833
0.0106995
0.00727746
0.00526633
0.00407148
0.00346668
0.00344976
0.00414461
0.0056207
0.00747785
0.00945958
0.0119949
0.0136999
0.0104514
0.00781505
0.00735037
0.00842868
0.0107137
0.0138537
0.0173442
0.0202297
0.0216692
0.021239
0.0191506
0.0160424
0.0126364
0.00956672
0.00712092
0.00529196
0.00397874
0.00305961
0.00240635
0.00191045
0.00150765
0.00117541
0.000909788
0.000706701
0.00055689
0.000448878
0.000371835
0.000317137
0.000278448
0.000251198
0.000232164
0.000219167
0.000210773
0.000206079
0.000204548
0.00020589
0.000209944
0.000216572
0.000225578
0.000236692
0.000249697
0.00026451
0.000281803
0.000302037
0.000329562
0.000360732
0.000419193
0.000470191
0.0106982
0.00727847
0.00526342
0.00404894
0.00339639
0.00328127
0.00382073
0.00514948
0.00701434
0.00912555
0.011805
0.0140464
0.0113302
0.00841672
0.00778883
0.00877897
0.010991
0.014076
0.0175084
0.0203339
0.0217088
0.0212105
0.0190598
0.0159035
0.0124761
0.00940658
0.00696787
0.00514905
0.00385225
0.00295593
0.0023285
0.00185714
0.00147411
0.00115558
0.000898434
0.00070017
0.000552889
0.000446042
0.000369371
0.000314631
0.000275744
0.000248311
0.000229173
0.000216154
0.000207787
0.000203125
0.000201598
0.000202892
0.000206844
0.000213335
0.00022221
0.000233244
0.00024626
0.000261185
0.000278671
0.00029915
0.00032689
0.000358265
0.000416613
0.000467548
0.0106971
0.00727985
0.00526228
0.0040321
0.00333955
0.00313918
0.00353182
0.00468696
0.00648677
0.00867099
0.0114691
0.0141891
0.0121649
0.00903763
0.00823396
0.00912548
0.0112509
0.0142618
0.017616
0.020365
0.0216663
0.0210999
0.0188933
0.0157008
0.0122686
0.00921518
0.00679521
0.00499427
0.0037189
0.00284821
0.00224794
0.00180167
0.00143873
0.00113421
0.000885843
0.000692689
0.000548218
0.000442802
0.000366733
0.000312128
0.000273154
0.000245584
0.000226348
0.00021329
0.000204927
0.000200282
0.00019875
0.000199994
0.000203845
0.000210199
0.000218934
0.000229871
0.000242868
0.000257874
0.000275522
0.000296225
0.000324167
0.000355748
0.000414002
0.000464905
0.0106961
0.0072815
0.00526252
0.00401994
0.00329417
0.00302086
0.0032795
0.00424961
0.00592378
0.00811438
0.0109924
0.0141255
0.0129131
0.00967458
0.00868202
0.00946484
0.0114919
0.0144107
0.0176678
0.0203249
0.021544
0.020909
0.0186527
0.0154371
0.0120171
0.00899515
0.00660484
0.00482905
0.00357981
0.0027374
0.00216544
0.00174465
0.00140195
0.0011116
0.000872205
0.000684369
0.00054293
0.000439166
0.000363902
0.000309595
0.000270645
0.000242998
0.00022368
0.000210577
0.000202202
0.000197557
0.00019601
0.000197201
0.000200951
0.000207166
0.000215755
0.000226577
0.000239531
0.000254586
0.000272368
0.00029327
0.0003214
0.000353184
0.000411363
0.000462263
0.0106952
0.00728332
0.00526381
0.00401159
0.00325848
0.00292349
0.00306311
0.003849
0.00535302
0.0074809
0.0103869
0.013858
0.0135314
0.0103204
0.00913005
0.00979354
0.0117121
0.0145225
0.0176651
0.0202158
0.0213446
0.0206402
0.0183407
0.0151159
0.0117252
0.00874951
0.00639882
0.00465485
0.00343616
0.00262446
0.00208178
0.00168668
0.0013642
0.00108805
0.000857713
0.000675327
0.00053709
0.000435159
0.000360872
0.00030701
0.000268195
0.000240534
0.000221162
0.000208014
0.000199616
0.000194957
0.000193383
0.000194515
0.000198164
0.00020424
0.000212675
0.000223369
0.000236255
0.00025133
0.000269216
0.000290294
0.000318598
0.000350579
0.000408697
0.000459624
0.0106945
0.00728525
0.00526589
0.00400629
0.00323087
0.00284427
0.00288048
0.00349192
0.00479874
0.00680015
0.00967209
0.0133947
0.0139798
0.0109621
0.00957579
0.0101083
0.0119093
0.014597
0.0176093
0.0200402
0.0210709
0.0202965
0.0179611
0.0147416
0.0113975
0.00848155
0.00617934
0.00447321
0.00328912
0.00251031
0.0019977
0.00162833
0.00132591
0.00106384
0.00084256
0.000665677
0.00053077
0.000430814
0.000357647
0.000304361
0.000265784
0.000238178
0.000218784
0.000205599
0.000197171
0.000192486
0.000190875
0.000191941
0.000195485
0.00020142
0.000209697
0.000220249
0.000233047
0.000248115
0.000266076
0.000287306
0.000315766
0.000347939
0.00040601
0.000456991
0.0106938
0.00728724
0.00526855
0.00400342
0.00320997
0.00278057
0.00272849
0.0031811
0.00428008
0.00610311
0.00887398
0.0127515
0.0142252
0.0115795
0.0100171
0.0104062
0.0120815
0.0146342
0.0175021
0.0198009
0.0207262
0.0198815
0.0175184
0.0143197
0.0110388
0.00819479
0.00594865
0.00428569
0.00313986
0.00239589
0.00191395
0.00157019
0.0012875
0.00103926
0.000826939
0.00065553
0.00052405
0.000426173
0.000354242
0.000301644
0.000263399
0.000235914
0.000216537
0.000203328
0.000194867
0.000190146
0.000188487
0.000189482
0.000192918
0.00019871
0.000206823
0.000217222
0.000229912
0.000244947
0.000262956
0.000284312
0.000312913
0.000345269
0.000403306
0.000454365
0.0106932
0.00728925
0.0052716
0.00400246
0.00319456
0.00272997
0.00260359
0.00291599
0.00381024
0.00541904
0.00802384
0.011952
0.0142446
0.0121458