/*--------------------------------*- C++ -*----------------------------------*\
| =========                 |                                                 |
| \\      /  F ield         | OpenFOAM: The Open Source CFD Toolbox           |
|  \\    /   O peration     | Version:  2.4.0                                 |
|   \\  /    A nd           | Web:      www.OpenFOAM.org                      |
|    \\/     M anipulation  |                                                 |
\*---------------------------------------------------------------------------*/
FoamFile
{
    version     2.0;
    format      ascii;
    class       volScalarField;
    location    "1.9";
    object      p;
}
// * * * * * * * * * * * * * * * * * * * * * * * * * * * * * * * * * * * * * //

dimensions      [0 2 -2 0 0 0 0];

internalField   nonuniform List<scalar> 
6000
(
0.303066
0.297652
0.295159
0.294291
0.293408
0.292319
0.291235
0.290232
0.289289
0.288383
0.287508
0.286665
0.285854
0.285071
0.28431
0.28357
0.282847
0.282139
0.281443
0.280757
0.280081
0.279412
0.27875
0.278094
0.277443
0.276799
0.276161
0.275529
0.274905
0.274289
0.273684
0.273092
0.272516
0.271958
0.271425
0.270922
0.270456
0.270037
0.269677
0.26939
0.269195
0.269117
0.269186
0.26944
0.269926
0.270706
0.271856
0.273471
0.275672
0.278605
0.282453
0.287437
0.293819
0.301894
0.312004
0.324389
0.339452
0.35644
0.377009
0.391686
0.299127
0.296868
0.295112
0.294286
0.293473
0.292458
0.291405
0.290407
0.289457
0.288539
0.287649
0.286792
0.285967
0.28517
0.284399
0.283649
0.282918
0.282203
0.2815
0.280809
0.280128
0.279455
0.278788
0.278129
0.277475
0.276828
0.276187
0.275553
0.274926
0.274309
0.273702
0.273109
0.272531
0.271972
0.271438
0.270934
0.270467
0.270046
0.269684
0.269395
0.269199
0.269118
0.269183
0.269432
0.269912
0.270685
0.271826
0.27343
0.275617
0.278532
0.282357
0.287311
0.293658
0.30169
0.31175
0.324087
0.339132
0.356123
0.376994
0.39152
0.298975
0.297362
0.295425
0.294315
0.293439
0.292421
0.291357
0.290352
0.289405
0.288494
0.287613
0.286764
0.285946
0.285156
0.284391
0.283646
0.282919
0.282207
0.281507
0.280819
0.28014
0.279469
0.278805
0.278147
0.277495
0.276849
0.276209
0.275575
0.274949
0.274332
0.273725
0.273131
0.272552
0.271992
0.271456
0.27095
0.270481
0.270057
0.269692
0.269399
0.269197
0.269111
0.269168
0.269408
0.269878
0.270637
0.27176
0.273341
0.275498
0.278375
0.282151
0.287039
0.293298
0.301212
0.311114
0.323238
0.338004
0.354641
0.375159
0.389042
0.298322
0.296926
0.295184
0.294111
0.293294
0.292344
0.291324
0.290346
0.289421
0.288525
0.287652
0.286807
0.285989
0.285198
0.284429
0.283679
0.282948
0.282231
0.281527
0.280835
0.280152
0.279477
0.27881
0.27815
0.277496
0.276848
0.276207
0.275573
0.274947
0.27433
0.273723
0.273129
0.27255
0.271991
0.271454
0.270947
0.270477
0.270051
0.269683
0.269386
0.269178
0.269083
0.269131
0.269357
0.269808
0.270544
0.271638
0.273181
0.275289
0.278103
0.281797
0.286579
0.292697
0.300426
0.310081
0.321878
0.336197
0.352263
0.371933
0.384922
0.297765
0.296681
0.295182
0.294108
0.293271
0.292339
0.291334
0.290361
0.289438
0.288543
0.287671
0.286825
0.286007
0.285214
0.284444
0.283694
0.282961
0.282243
0.281538
0.280845
0.280161
0.279486
0.278818
0.278157
0.277503
0.276855
0.276213
0.275578
0.274951
0.274332
0.273724
0.273129
0.272548
0.271987
0.271448
0.270938
0.270464
0.270034
0.26966
0.269355
0.269139
0.269033
0.269065
0.269273
0.269701
0.270407
0.271461
0.272955
0.274998
0.277728
0.281314
0.285954
0.291887
0.299373
0.308707
0.320085
0.333843
0.349215
0.367815
0.379905
0.297296
0.296441
0.295115
0.294039
0.293189
0.292285
0.291309
0.290351
0.289437
0.28855
0.287684
0.286842
0.286026
0.285234
0.284464
0.283713
0.282978
0.282259
0.281553
0.280858
0.280172
0.279496
0.278827
0.278164
0.277509
0.276859
0.276217
0.275581
0.274953
0.274333
0.273724
0.273127
0.272545
0.271982
0.271441
0.270928
0.270449
0.270015
0.269634
0.269321
0.269094
0.268974
0.268989
0.269174
0.269573
0.270242
0.271249
0.27268
0.274644
0.277272
0.280725
0.285192
0.290899
0.298088
0.307032
0.317904
0.330993
0.345553
0.362938
0.374205
0.296893
0.2962
0.295024
0.293975
0.293125
0.292247
0.291297
0.290352
0.289444
0.288564
0.287702
0.286862
0.286046
0.285254
0.284482
0.28373
0.282994
0.282273
0.281565
0.280869
0.280182
0.279504
0.278834
0.27817
0.277514
0.276863
0.27622
0.275583
0.274954
0.274334
0.273723
0.273125
0.272542
0.271976
0.271432
0.270916
0.270433
0.269992
0.269604
0.269282
0.269043
0.268907
0.268903
0.269063
0.26943
0.270057
0.271011
0.272374
0.27425
0.276763
0.280066
0.284338
0.289789
0.296643
0.305144
0.315437
0.327761
0.341398
0.357441
0.367965
0.29654
0.295966
0.294924
0.293914
0.293066
0.292207
0.29128
0.290348
0.289447
0.288572
0.287715
0.286878
0.286063
0.285271
0.284499
0.283746
0.283009
0.282287
0.281577
0.280879
0.280191
0.279512
0.278841
0.278176
0.277519
0.276868
0.276223
0.275585
0.274955
0.274334
0.273722
0.273122
0.272537
0.271969
0.271422
0.270901
0.270413
0.269966
0.26957
0.269238
0.268985
0.268833
0.268807
0.26894
0.269271
0.269853
0.270748
0.272037
0.273816
0.276205
0.279347
0.28341
0.288588
0.295083
0.303113
0.31279
0.324295
0.336939
0.351556
0.361362
0.29623
0.295746
0.294818
0.293853
0.29301
0.292167
0.291262
0.290344
0.28945
0.288581
0.287728
0.286893
0.286079
0.285287
0.284515
0.283761
0.283023
0.282299
0.281589
0.28089
0.2802
0.27952
0.278847
0.278182
0.277523
0.276871
0.276226
0.275587
0.274956
0.274333
0.27372
0.273119
0.272531
0.27196
0.27141
0.270885
0.270392
0.269938
0.269533
0.269189
0.268922
0.268752
0.268702
0.268805
0.269098
0.26963
0.270463
0.271671
0.273346
0.275602
0.278572
0.282413
0.287302
0.293424
0.300965
0.310011
0.320683
0.332319
0.345494
0.354531
0.295956
0.295541
0.29471
0.293792
0.292957
0.292128
0.291243
0.290338
0.289452
0.288588
0.287739
0.286906
0.286094
0.285303
0.28453
0.283775
0.283036
0.282311
0.281599
0.280899
0.280208
0.279527
0.278853
0.278187
0.277527
0.276874
0.276228
0.275588
0.274956
0.274332
0.273717
0.273114
0.272524
0.27195
0.271397
0.270867
0.270368
0.269907
0.269492
0.269136
0.268854
0.268663
0.268588
0.268658
0.26891
0.26939
0.270155
0.271277
0.272842
0.274956
0.277743
0.28135
0.285939
0.291673
0.298713
0.30712
0.316961
0.327605
0.339379
0.347558
0.295713
0.295351
0.294602
0.29373
0.292907
0.29209
0.291223
0.290332
0.289454
0.288594
0.287749
0.286919
0.286108
0.285317
0.284544
0.283788
0.283048
0.282322
0.281609
0.280908
0.280216
0.279533
0.278859
0.278191
0.277531
0.276877
0.27623
0.275589
0.274955
0.27433
0.273714
0.273109
0.272516
0.27194
0.271382
0.270847
0.270342
0.269873
0.269448
0.269079
0.26878
0.268568
0.268466
0.268502
0.26871
0.269134
0.269827
0.270857
0.272305
0.274269
0.276865
0.280227
0.284502
0.289836
0.296365
0.304126
0.313142
0.322817
0.333261
0.340508
0.295497
0.295177
0.294496
0.293669
0.292861
0.292055
0.291204
0.290326
0.289454
0.288599
0.287757
0.28693
0.28612
0.285329
0.284556
0.2838
0.283059
0.282333
0.281619
0.280916
0.280223
0.279539
0.278864
0.278196
0.277534
0.276879
0.276231
0.275589
0.274954
0.274328
0.27371
0.273103
0.272508
0.271928
0.271366
0.270826
0.270314
0.269836
0.2694
0.269018
0.268701
0.268467
0.268336
0.268335
0.268497
0.268861
0.269479
0.270413
0.271737
0.273544
0.275941
0.279048
0.282998
0.28792
0.293928
0.30104
0.309239
0.317966
0.327158
0.333442
0.295305
0.295018
0.294395
0.293609
0.292817
0.292021
0.291185
0.290319
0.289454
0.288603
0.287765
0.28694
0.286132
0.285341
0.284568
0.283811
0.28307
0.282342
0.281627
0.280923
0.28023
0.279545
0.278868
0.278199
0.277537
0.276881
0.276232
0.275589
0.274953
0.274325
0.273705
0.273096
0.272498
0.271914
0.271348
0.270803
0.270284
0.269797
0.26935
0.268952
0.268617
0.268359
0.268199
0.268159
0.268272
0.268574
0.269112
0.269945
0.271141
0.272784
0.274972
0.277815
0.281431
0.285932
0.291412
0.297871
0.305262
0.313061
0.321078
0.326408
0.295134
0.294874
0.294299
0.293552
0.292775
0.29199
0.291166
0.290311
0.289454
0.288607
0.287772
0.28695
0.286142
0.285352
0.284579
0.283821
0.283079
0.282351
0.281635
0.28093
0.280236
0.27955
0.278873
0.278203
0.277539
0.276883
0.276232
0.275588
0.274951
0.274321
0.2737
0.273088
0.272487
0.2719
0.271329
0.270778
0.270252
0.269755
0.269296
0.268884
0.268529
0.268246
0.268054
0.267974
0.268036
0.268273
0.268728
0.269456
0.270518
0.271991
0.273964
0.276534
0.279807
0.283878
0.288822
0.294628
0.301221
0.308112
0.315025
0.319433
0.294982
0.294744
0.29421
0.293497
0.292737
0.291961
0.291148
0.290304
0.289453
0.28861
0.287778
0.286958
0.286152
0.285362
0.284588
0.283831
0.283088
0.282359
0.281642
0.280936
0.280241
0.279555
0.278876
0.278205
0.277541
0.276884
0.276232
0.275587
0.274949
0.274317
0.273694
0.27308
0.272476
0.271885
0.27131
0.270752
0.270218
0.269712
0.26924
0.268811
0.268436
0.268128
0.267903
0.267781
0.267789
0.267959
0.268328
0.268946
0.26987
0.271168
0.272918
0.275209
0.27813
0.281764
0.286167
0.291317
0.297122
0.303126
0.309
0.312531
0.294849
0.294628
0.294128
0.293445
0.292701
0.291934
0.291132
0.290297
0.289452
0.288613
0.287784
0.286965
0.28616
0.28537
0.284597
0.283839
0.283096
0.282366
0.281648
0.280942
0.280246
0.279559
0.278879
0.278208
0.277543
0.276884
0.276232
0.275586
0.274946
0.274313
0.273687
0.273071
0.272464
0.271869
0.271289
0.270725
0.270183
0.269666
0.269181
0.268736
0.26834
0.268005
0.267745
0.267581
0.267534
0.267633
0.267914
0.268419
0.2692
0.270317
0.271839
0.273843
0.276406
0.279595
0.283453
0.287947
0.292974
0.29811
0.303004
0.305704
0.294731
0.294524
0.294053
0.293397
0.292669
0.29191
0.291116
0.29029
0.289451
0.288615
0.287788
0.286971
0.286167
0.285378
0.284605
0.283847
0.283103
0.282372
0.281654
0.280947
0.28025
0.279562
0.278882
0.27821
0.277544
0.276884
0.276231
0.275584
0.274942
0.274308
0.27368
0.273061
0.272451
0.271852
0.271266
0.270696
0.270146
0.269619
0.26912
0.268658
0.26824
0.267877
0.267583
0.267373
0.267269
0.267296
0.267486
0.267875
0.268509
0.269441
0.27073
0.272441
0.274639
0.277378
0.280687
0.284525
0.288783
0.293069
0.297033
0.298949
0.294629
0.294434
0.293986
0.293354
0.292639
0.291889
0.291102
0.290283
0.28945
0.288617
0.287792
0.286977
0.286174
0.285385
0.284612
0.283853
0.283109
0.282378
0.281659
0.280951
0.280254
0.279565
0.278884
0.278211
0.277545
0.276884
0.27623
0.275581
0.274939
0.274302
0.273673
0.273051
0.272438
0.271835
0.271243
0.270667
0.270107
0.269569
0.269057
0.268577
0.268137
0.267745
0.267415
0.267159
0.266997
0.26695
0.267046
0.267316
0.2678
0.268542
0.269593
0.271007
0.272835
0.275118
0.277875
0.281057
0.284553
0.288007
0.291083
0.292259
0.294541
0.294356
0.293927
0.293315
0.292613
0.29187
0.29109
0.290277
0.289448
0.288619
0.287795
0.286982
0.286179
0.285391
0.284618
0.283859
0.283114
0.282383
0.281663
0.280955
0.280257
0.279567
0.278886
0.278212
0.277545
0.276884
0.276228
0.275579
0.274935
0.274297
0.273665
0.27304
0.272424
0.271816
0.27122
0.270636
0.270068
0.269518
0.268992
0.268494
0.268031
0.26761
0.267243
0.26694
0.266718
0.266596
0.266596
0.266745
0.267075
0.267625
0.268433
0.269544
0.270997
0.272821
0.275022
0.277548
0.28029
0.282926
0.285151
0.285623
0.294467
0.29429
0.293877
0.293281
0.292591
0.291854
0.291079
0.290272
0.289447
0.28862
0.287798
0.286986
0.286184
0.285396
0.284623
0.283864
0.283119
0.282387
0.281667
0.280958
0.280259
0.279569
0.278887
0.278213
0.277545
0.276883
0.276226
0.275575
0.27493
0.27429
0.273656
0.273029
0.272409
0.271797
0.271195
0.270604
0.270027
0.269466
0.268926
0.268409
0.267922
0.267472
0.267067
0.266716
0.266434
0.266234
0.266136
0.266162
0.266337
0.26669
0.267253
0.268058
0.269132
0.270492
0.272135
0.274004
0.275996
0.277827
0.27923
0.279029
0.294407
0.294235
0.293835
0.293253
0.292571
0.29184
0.29107
0.290267
0.289446
0.288621
0.2878
0.286989
0.286188
0.2854
0.284627
0.283868
0.283122
0.28239
0.28167
0.28096
0.280261
0.279571
0.278888
0.278213
0.277544
0.276881
0.276224
0.275572
0.274925
0.274284
0.273647
0.273017
0.272394
0.271777
0.271169
0.270572
0.269985
0.269413
0.268857
0.268322
0.267812
0.267331
0.266887
0.266488
0.266144
0.265866
0.265669
0.26557
0.265587
0.265742
0.266057
0.266552
0.267243
0.268137
0.269218
0.27043
0.271677
0.272709
0.273313
0.272462
0.294358
0.294191
0.293801
0.29323
0.292556
0.291829
0.291063
0.290263
0.289445
0.288621
0.287802
0.286991
0.286191
0.285403
0.28463
0.283871
0.283125
0.282392
0.281672
0.280962
0.280262
0.279571
0.278888
0.278213
0.277543
0.27688
0.276221
0.275568
0.27492
0.274277
0.273638
0.273005
0.272378
0.271757
0.271143
0.270538
0.269943
0.269359
0.268788
0.268234
0.267699
0.267188
0.266705
0.266257
0.26585
0.265493
0.265197
0.264971
0.264829
0.264783
0.264847
0.26503
0.265336
0.26576
0.266278
0.266831
0.267333
0.267573
0.267393
0.265909
0.294323
0.294159
0.293776
0.293212
0.292544
0.291821
0.291057
0.29026
0.289444
0.288622
0.287803
0.286993
0.286193
0.285406
0.284632
0.283873
0.283127
0.282394
0.281673
0.280963
0.280263
0.279572
0.278888
0.278212
0.277542
0.276877
0.276218
0.275564
0.274914
0.274269
0.273629
0.272993
0.272362
0.271736
0.271117
0.270504
0.269899
0.269303
0.268718
0.268144
0.267585
0.267043
0.266521
0.266023
0.265553
0.265117
0.264719
0.264366
0.264063
0.263816
0.263627
0.263496
0.263416
0.263367
0.263319
0.263212
0.262968
0.262417
0.26146
0.259354
0.294299
0.294137
0.293759
0.2932
0.292536
0.291815
0.291053
0.290258
0.289443
0.288622
0.287804
0.286994
0.286195
0.285407
0.284634
0.283874
0.283128
0.282395
0.281674
0.280964
0.280263
0.279572
0.278888
0.278211
0.27754
0.276875
0.276215
0.275559
0.274908
0.274261
0.273619
0.27298
0.272345
0.271715
0.27109
0.27047
0.269856
0.269247
0.268647
0.268054
0.26747
0.266897
0.266336
0.265788
0.265255
0.264738
0.264239
0.263757
0.263294
0.262844
0.262402
0.261956
0.261486
0.260964
0.260347
0.259576
0.258583
0.257239
0.255507
0.25278
0.294287
0.294126
0.29375
0.293195
0.292533
0.291812
0.291051
0.290257
0.289443
0.288622
0.287805
0.286995
0.286195
0.285408
0.284634
0.283875
0.283129
0.282396
0.281674
0.280964
0.280263
0.279571
0.278887
0.278209
0.277538
0.276872
0.276211
0.275555
0.274902
0.274253
0.273608
0.272967
0.272329
0.271694
0.271063
0.270435
0.269811
0.269191
0.268575
0.267963
0.267355
0.26675
0.266149
0.265551
0.264955
0.264357
0.263757
0.263147
0.262522
0.261869
0.261174
0.260412
0.259553
0.258555
0.257368
0.255928
0.254182
0.252037
0.249524
0.24617
0.294287
0.294126
0.29375
0.293195
0.292533
0.291812
0.291051
0.290257
0.289443
0.288622
0.287805
0.286995
0.286195
0.285408
0.284634
0.283875
0.283128
0.282395
0.281674
0.280963
0.280262
0.27957
0.278885
0.278207
0.277536
0.276869
0.276207
0.27555
0.274896
0.274245
0.273598
0.272953
0.272312
0.271672
0.271035
0.2704
0.269767
0.269135
0.268503
0.267872
0.267239
0.266603
0.265963
0.265314
0.264654
0.263977
0.263275
0.262537
0.261751
0.260896
0.259946
0.258869
0.25762
0.256145
0.254385
0.252273
0.249765
0.246807
0.2435
0.239506
0.294299
0.294137
0.293759
0.2932
0.292536
0.291815
0.291053
0.290258
0.289443
0.288622
0.287804
0.286994
0.286194
0.285407
0.284633
0.283873
0.283127
0.282394
0.281672
0.280962
0.280261
0.279568
0.278883
0.278205
0.277533
0.276866
0.276203
0.275544
0.274889
0.274237
0.273587
0.27294
0.272294
0.27165
0.271008
0.270365
0.269722
0.269078
0.268431
0.26778
0.267123
0.266456
0.265776
0.265078
0.264355
0.263598
0.262794
0.261929
0.260982
0.259925
0.258724
0.257331
0.255693
0.253741
0.251405
0.248615
0.245335
0.241549
0.237426
0.23277
0.294323
0.294159
0.293776
0.293212
0.292544
0.291821
0.291057
0.29026
0.289443
0.288621
0.287803
0.286993
0.286193
0.285405
0.284631
0.283872
0.283125
0.282392
0.28167
0.28096
0.280259
0.279566
0.278881
0.278202
0.27753
0.276862
0.276198
0.275539
0.274882
0.274228
0.273576
0.272926
0.272277
0.271629
0.27098
0.27033
0.269677
0.269021
0.268359
0.267689
0.267008
0.26631
0.265591
0.264843
0.264057
0.263221
0.262317
0.261325
0.260219
0.258962
0.257509
0.255803
0.253776
0.251348
0.248434
0.244959
0.240894
0.236258
0.231291
0.225942
0.294358
0.294191
0.293801
0.293229
0.292556
0.291829
0.291062
0.290263
0.289444
0.288621
0.287802
0.286991
0.28619
0.285402
0.284628
0.283869
0.283123
0.282389
0.281668
0.280957
0.280256
0.279563
0.278878
0.278199
0.277526
0.276858
0.276194
0.275533
0.274875
0.274219
0.273565
0.272912
0.27226
0.271607
0.270952
0.270295
0.269633
0.268965
0.268288
0.267599
0.266893
0.266165
0.265407
0.26461
0.263762
0.262847
0.261844
0.260727
0.259463
0.258007
0.256305
0.254289
0.251875
0.24897
0.245476
0.24131
0.236444
0.230933
0.225084
0.219
0.294406
0.294235
0.293835
0.293252
0.292571
0.29184
0.29107
0.290267
0.289445
0.28862
0.2878
0.286988
0.286187
0.285399
0.284625
0.283865
0.283119
0.282386
0.281665
0.280954
0.280253
0.27956
0.278875
0.278196
0.277522
0.276854
0.276189
0.275527
0.274868
0.27421
0.273554
0.272898
0.272242
0.271585
0.270924
0.27026
0.269589
0.268909
0.268218
0.26751
0.26678
0.266022
0.265226
0.26438
0.263471
0.262478
0.261377
0.260137
0.258717
0.257065
0.255117
0.252793
0.249995
0.246615
0.242539
0.237673
0.231989
0.225571
0.218793
0.211923
0.294467
0.294289
0.293877
0.293281
0.29259
0.291853
0.291079
0.290271
0.289446
0.288619
0.287797
0.286984
0.286183
0.285394
0.28462
0.283861
0.283115
0.282382
0.281661
0.28095
0.280249
0.279557
0.278871
0.278192
0.277518
0.276849
0.276183
0.275521
0.27486
0.274201
0.273543
0.272884
0.272225
0.271563
0.270897
0.270225
0.269545
0.268854
0.268148
0.267421
0.266668
0.26588
0.265047
0.264154
0.263184
0.262115
0.260918
0.259556
0.257983
0.256138
0.253948
0.251319
0.248141
0.244288
0.239629
0.234055
0.227533
0.220172
0.212406
0.204687
0.294541
0.294356
0.293927
0.293315
0.292613
0.29187
0.291089
0.290277
0.289448
0.288618
0.287794
0.28698
0.286178
0.285389
0.284615
0.283855
0.28311
0.282377
0.281656
0.280946
0.280245
0.279553
0.278867
0.278188
0.277514
0.276844
0.276178
0.275514
0.274853
0.274192
0.273532
0.272871
0.272208
0.271541
0.27087
0.270191
0.269502
0.2688
0.268079
0.267334
0.266558
0.265741
0.264871
0.263932
0.262903
0.261759
0.260468
0.258987
0.257263
0.255229
0.2528
0.249872
0.246318
0.241994
0.236751
0.230461
0.223079
0.214735
0.205912
0.197268
0.294629
0.294434
0.293986
0.293353
0.292639
0.291889
0.291102
0.290283
0.289449
0.288616
0.287791
0.286975
0.286172
0.285383
0.284609
0.283849
0.283104
0.282371
0.281651
0.280941
0.28024
0.279548
0.278863
0.278183
0.277509
0.276839
0.276172
0.275508
0.274845
0.274183
0.27352
0.272857
0.27219
0.27152
0.270843
0.270157
0.26946
0.268746
0.268012
0.267249
0.266451
0.265605
0.264699
0.263714
0.262628
0.261412
0.260028
0.258431
0.25656
0.254341
0.251678
0.248455
0.244531
0.239742
0.233915
0.226901
0.218634
0.20926
0.199298
0.189639
0.294731
0.294524
0.294053
0.293397
0.292669
0.29191
0.291116
0.290289
0.28945
0.288614
0.287787
0.28697
0.286165
0.285376
0.284601
0.283842
0.283097
0.282365
0.281645
0.280935
0.280235
0.279543
0.278858
0.278178
0.277504
0.276834
0.276166
0.275501
0.274837
0.274173
0.273509
0.272843
0.272173
0.271499
0.270817
0.270124
0.269418
0.268694
0.267946
0.267166
0.266346
0.265473
0.264532
0.263503
0.262361
0.261073
0.2596
0.257889
0.255876
0.253476
0.250586
0.247075
0.242786
0.237536
0.231127
0.223381
0.214205
0.203748
0.192554
0.181773
0.294848
0.294627
0.294127
0.293445
0.292701
0.291934
0.291131
0.290296
0.289451
0.288612
0.287782
0.286963
0.286158
0.285368
0.284593
0.283834
0.28309
0.282358
0.281638
0.280929
0.280229
0.279537
0.278853
0.278173
0.277499
0.276828
0.27616
0.275494
0.274829
0.274164
0.273498
0.272829
0.272157
0.271478
0.270791
0.270092
0.269378
0.268643
0.267882
0.267086
0.266244
0.265344
0.264369
0.263297
0.262101
0.260745
0.259185
0.257365
0.255213
0.252638
0.249525
0.245734
0.241088
0.235385
0.228395
0.219911
0.209799
0.198204
0.185666
0.173639
0.294982
0.294744
0.29421
0.293496
0.292737
0.291961
0.291148
0.290303
0.289452
0.288609
0.287777
0.286956
0.286149
0.285359
0.284584
0.283826
0.283081
0.28235
0.281631
0.280922
0.280223
0.279532
0.278847
0.278168
0.277493
0.276822
0.276154
0.275487
0.274821
0.274155
0.273487
0.272816
0.27214
0.271458
0.270766
0.270061
0.269338
0.268594
0.26782
0.267007
0.266146
0.26522
0.264212
0.263099
0.26185
0.260428
0.258785
0.256858
0.254572
0.251828
0.248501
0.244437
0.239444
0.233294
0.22573
0.216503
0.205427
0.192634
0.178625
0.165207
0.295134
0.294873
0.294299
0.293551
0.292775
0.291989
0.291165
0.290311
0.289453
0.288606
0.287771
0.286948
0.28614
0.285349
0.284574
0.283816
0.283072
0.282341
0.281623
0.280915
0.280216
0.279525
0.278841
0.278162
0.277487
0.276816
0.276147
0.27548
0.274813
0.274146
0.273476
0.272803
0.272124
0.271438
0.270741
0.27003
0.2693
0.268546
0.26776
0.266932
0.26605
0.2651
0.264061
0.262908
0.26161
0.260124
0.2584
0.256372
0.253957
0.25105
0.247516
0.243189
0.237858
0.231272
0.223139
0.213166
0.201101
0.187046
0.17142
0.156446
0.295304
0.295018
0.294395
0.293609
0.292816
0.292021
0.291184
0.290318
0.289453
0.288602
0.287764
0.286938
0.286129
0.285338
0.284563
0.283805
0.283062
0.282332
0.281614
0.280907
0.280209
0.279518
0.278834
0.278156
0.277481
0.27681
0.276141
0.275473
0.274805
0.274136
0.273465
0.27279
0.272109
0.271419
0.270717
0.270001
0.269264
0.2685
0.267702
0.266859
0.265959
0.264985
0.263917
0.262726
0.261379
0.259833
0.258032
0.255907
0.253369
0.250306
0.246574
0.241993
0.236336
0.229326
0.220633
0.209915
0.196836
0.181453
0.164044
0.14732
0.295497
0.295177
0.294496
0.293669
0.29286
0.292054
0.291203
0.290325
0.289453
0.288597
0.287756
0.286928
0.286117
0.285326
0.284551
0.283794
0.283051
0.282322
0.281605
0.280899
0.280201
0.279511
0.278828
0.278149
0.277475
0.276804
0.276134
0.275466
0.274797
0.274127
0.273455
0.272777
0.272093
0.2714
0.270694
0.269972
0.269228
0.268456
0.267647
0.26679
0.265872
0.264876
0.263779
0.262552
0.26116
0.259556
0.257682
0.255465
0.25281
0.249598
0.245677
0.240854
0.234884
0.227464
0.218223
0.206764
0.192649
0.175871
0.156492
0.137796
0.295713
0.295351
0.294602
0.29373
0.292907
0.29209
0.291223
0.290331
0.289452
0.288592
0.287747
0.286916
0.286105
0.285312
0.284538
0.283781
0.283039
0.282311
0.281595
0.280889
0.280193
0.279504
0.27882
0.278143
0.277468
0.276797
0.276128
0.275459
0.274789
0.274118
0.273444
0.272765
0.272079
0.271382
0.270672
0.269945
0.269195
0.268414
0.267594
0.266724
0.26579
0.264772
0.263648
0.262388
0.260953
0.259295
0.257352
0.255047
0.252281
0.248929
0.24483
0.239776
0.233508
0.225694
0.215921
0.203728
0.188561
0.170321
0.148764
0.127838
0.295956
0.295541
0.29471
0.293791
0.292957
0.292127
0.291242
0.290337
0.289451
0.288586
0.287737
0.286904
0.286091
0.285298
0.284524
0.283768
0.283027
0.2823
0.281584
0.28088
0.280184
0.279495
0.278813
0.278135
0.277462
0.27679
0.276121
0.275451
0.274782
0.27411
0.273434
0.272753
0.272064
0.271365
0.270651
0.269919
0.269163
0.268374
0.267545
0.266662
0.265712
0.264674
0.263525
0.262233
0.260758
0.259049
0.257041
0.254654
0.251785
0.248302
0.244033
0.238764
0.232212
0.224023
0.213737
0.200826
0.184595
0.164833
0.140865
0.117412
0.29623
0.295746
0.294818
0.293853
0.293009
0.292166
0.291261
0.290343
0.289449
0.288579
0.287725
0.28689
0.286076
0.285283
0.284509
0.283754
0.283013
0.282287
0.281573
0.28087
0.280175
0.279487
0.278805
0.278128
0.277455
0.276784
0.276114
0.275444
0.274774
0.274101
0.273424
0.272741
0.272051
0.271348
0.270631
0.269895
0.269132
0.268337
0.267498
0.266604
0.265639
0.264583
0.263411
0.262089
0.260577
0.25882
0.256752
0.254289
0.251324
0.247717
0.243292
0.23782
0.231003
0.222461
0.211685
0.198076
0.180781
0.15944
0.132812
0.106483
0.29654
0.295966
0.294923
0.293914
0.293065
0.292207
0.29128
0.290347
0.289446
0.288571
0.287713
0.286875
0.286059
0.285266
0.284493
0.283738
0.282999
0.282274
0.281561
0.280859
0.280165
0.279478
0.278797
0.278121
0.277447
0.276777
0.276107
0.275437
0.274766
0.274092
0.273415
0.27273
0.272038
0.271333
0.270613
0.269872
0.269104
0.268301
0.267454
0.26655
0.265571
0.264498
0.263305
0.261956
0.260409
0.258609
0.256485
0.253952
0.250897
0.247178
0.242608
0.236949
0.229886
0.221014
0.209777
0.195501
0.177152
0.15419
0.124636
0.0950151
0.296892
0.2962
0.295024
0.293974
0.293124
0.292246
0.291296
0.290351
0.289443
0.288562
0.2877
0.286859
0.286042
0.285249
0.284476
0.283722
0.282984
0.28226
0.281549
0.280847
0.280155
0.279469
0.278789
0.278113
0.27744
0.276769
0.2761
0.27543
0.274758
0.274084
0.273405
0.27272
0.272025
0.271318
0.270595
0.26985
0.269078
0.268269
0.267414
0.2665
0.265509
0.264421
0.263207
0.261834
0.260257
0.258416
0.256242
0.253645
0.250509
0.246686
0.241985
0.236155
0.228869
0.219693
0.20803
0.193124
0.173751
0.149143
0.116395
0.0829768
0.297296
0.296441
0.295115
0.294039
0.293189
0.292285
0.291308
0.29035
0.289435
0.288549
0.287682
0.286839
0.286022
0.285229
0.284457
0.283704
0.282968
0.282246
0.281536
0.280836
0.280144
0.279459
0.27878
0.278105
0.277433
0.276763
0.276093
0.275423
0.274751
0.274076
0.273396
0.27271
0.272014
0.271304
0.270578
0.26983
0.269053
0.268239
0.267377
0.266454
0.265452
0.26435
0.26312
0.261725
0.260119
0.258243
0.256023
0.253369
0.250161
0.246246
0.241426
0.235443
0.227956
0.218508
0.206457
0.19097
0.170624
0.144372
0.108184
0.0703533
0.297765
0.296681
0.295181
0.294108
0.29327
0.292338
0.291333
0.29036
0.289436
0.288541
0.287669
0.286822
0.286003
0.285209
0.284438
0.283685
0.28295
0.282229
0.281521
0.280822
0.280132
0.279449
0.278771
0.278097
0.277425
0.276755
0.276086
0.275416
0.274744
0.274069
0.273388
0.2727
0.272003
0.271292
0.270563
0.269812
0.269031
0.268212
0.267344
0.266413
0.265401
0.264287
0.263041
0.261627
0.259997
0.25809
0.25583
0.253126
0.249854
0.245858
0.240935
0.234818
0.227154
0.217467
0.205073
0.189067
0.167823
0.139963
0.100134
0.0571157
0.298322
0.296926
0.295184
0.294111
0.293293
0.292343
0.291323
0.290345
0.289419
0.288523
0.28765
0.286803
0.285985
0.285192
0.284422
0.283671
0.282937
0.282217
0.281509
0.280812
0.280122
0.279439
0.278762
0.278088
0.277417
0.276747
0.276078
0.275408
0.274736
0.27406
0.27338
0.272691
0.271993
0.27128
0.27055
0.269797
0.269013
0.26819
0.267316
0.266378
0.265358
0.264233
0.262974
0.261544
0.259893
0.257961
0.255667
0.252919
0.249594
0.24553
0.240522
0.234295
0.226485
0.2166
0.203922
0.187478
0.16546
0.136101
0.0925497
0.0431585
0.298975
0.297362
0.295425
0.294315
0.293438
0.29242
0.291356
0.290351
0.289404
0.288492
0.28761
0.28676
0.285942
0.285151
0.284384
0.283637
0.282907
0.282192
0.281489
0.280796
0.28011
0.27943
0.278755
0.278084
0.277414
0.276746
0.276077
0.275407
0.274735
0.274058
0.273376
0.272686
0.271985
0.27127
0.270537
0.26978
0.268992
0.268164
0.267285
0.266341
0.265314
0.26418
0.262911
0.261468
0.259801
0.257848
0.255533
0.252756
0.249392
0.245281
0.240211
0.233906
0.225992
0.215964
0.203078
0.186308
0.1637
0.133088
0.0860381
0.0282977
0.299127
0.296868
0.295111
0.294286
0.293473
0.292457
0.291404
0.290405
0.289456
0.288537
0.287647
0.286788
0.285962
0.285165
0.284392
0.283641
0.282907
0.282188
0.281482
0.280786
0.280097
0.279416
0.278739
0.278065
0.277394
0.276724
0.276054
0.275383
0.274709
0.274032
0.273349
0.272659
0.271958
0.271243
0.270509
0.269751
0.268963
0.268134
0.267254
0.266308
0.265277
0.26414
0.262867
0.261418
0.259744
0.25778
0.255451
0.252657
0.249272
0.245134
0.24003
0.23368
0.225705
0.215592
0.202583
0.185612
0.162645
0.131151
0.0814184
0.0128554
0.303066
0.297652
0.295158
0.294291
0.293407
0.292318
0.291234
0.290231
0.289288
0.288381
0.287505
0.286662
0.28585
0.285065
0.284303
0.283561
0.282836
0.282124
0.281424
0.280733
0.28005
0.279372
0.278699
0.278029
0.277361
0.276694
0.276027
0.275358
0.274686
0.274011
0.273329
0.27264
0.271939
0.271224
0.270491
0.269733
0.268944
0.268114
0.267233
0.266285
0.265253
0.264114
0.262839
0.261393
0.259722
0.257757
0.255425
0.252627
0.249237
0.245092
0.239979
0.233617
0.225626
0.215489
0.202441
0.185402
0.162301
0.130445
0.079272
0.00233427
0.448053
0.368863
0.309777
0.280269
0.259588
0.240077
0.223732
0.212014
0.203999
0.198315
0.194324
0.191711
0.190393
0.190365
0.191755
0.195099
0.200997
0.212536
0.212237
0.186435
0.168769
0.159798
0.152225
0.143114
0.13233
0.119459
0.102951
0.0801677
0.046977
-0.00483832
-0.0939087
-0.277545
-0.706125
-0.748445
-0.331647
-0.362152
-0.310391
-0.281219
-0.239204
-0.199962
-0.161652
-0.127468
-0.098085
-0.073908
-0.0546274
-0.0396197
-0.0281571
-0.019519
-0.0130644
-0.00826385
-0.00470007
-0.00205535
-9.44212e-05
0.0013527
0.00240559
0.00314814
0.0036238
0.00388323
0.00373479
0.0031313
0.443566
0.362774
0.304592
0.277053
0.257181
0.238057
0.222152
0.21086
0.203142
0.197729
0.193953
0.191476
0.190272
0.190338
0.191816
0.195249
0.201151
0.210738
0.208563
0.184253
0.167303
0.158734
0.151263
0.142079
0.131165
0.11807
0.101153
0.0776773
0.0433052
-0.0105589
-0.102815
-0.279056
-0.601711
-0.67415
-0.35075
-0.363166
-0.314896
-0.285725
-0.244253
-0.205101
-0.166663
-0.132137
-0.102271
-0.0775464
-0.0577216
-0.0422114
-0.0303066
-0.0212925
-0.0145257
-0.0094697
-0.00569854
-0.00288589
-0.000788662
0.000769831
0.00191452
0.00273462
0.00327513
0.00360133
0.00347678
0.00312273
0.436112
0.358264
0.301736
0.275345
0.255855
0.236993
0.221411
0.210388
0.20287
0.197568
0.193734
0.19133
0.190187
0.190299
0.191807
0.195201
0.200671
0.208448
0.205538
0.183384
0.16692
0.15837
0.150867
0.141636
0.130667
0.117472
0.100364
0.0765601
0.0416401
-0.0129267
-0.10482
-0.264473
-0.520512
-0.60202
-0.36392
-0.361205
-0.31601
-0.287806
-0.246988
-0.208201
-0.169905
-0.135297
-0.105217
-0.0801888
-0.0600327
-0.0441987
-0.031997
-0.0227218
-0.0157318
-0.0104882
-0.00656096
-0.00361909
-0.00141482
0.000232768
0.00145206
0.00233601
0.00293018
0.00331473
0.00321339
0.00311613
0.426893
0.353659
0.298456
0.272815
0.253848
0.235407
0.220211
0.209494
0.202179
0.196995
0.193374
0.19109
0.190017
0.19017
0.19168
0.194948
0.199887
0.206099
0.202525
0.182087
0.166146
0.157672
0.150241
0.141057
0.130096
0.116853
0.099617
0.0755805
0.0403278
-0.0144239
-0.103888
-0.249217
-0.453724
-0.544514
-0.371637
-0.357467
-0.316604
-0.288785
-0.249121
-0.210571
-0.172439
-0.137769
-0.107535
-0.0822796
-0.0618704
-0.0457873
-0.033356
-0.0238783
-0.0167144
-0.0113241
-0.00727421
-0.00423013
-0.00194058
-0.000221432
0.00105836
0.00199461
0.00263413
0.00306919
0.00301065
0.00309874
0.416435
0.348545
0.294922
0.269966
0.251659
0.233756
0.218995
0.208615
0.201549
0.196563
0.19306