/*--------------------------------*- C++ -*----------------------------------*\
| =========                 |                                                 |
| \\      /  F ield         | OpenFOAM: The Open Source CFD Toolbox           |
|  \\    /   O peration     | Version:  2.4.0                                 |
|   \\  /    A nd           | Web:      www.OpenFOAM.org                      |
|    \\/     M anipulation  |                                                 |
\*---------------------------------------------------------------------------*/
FoamFile
{
    version     2.0;
    format      ascii;
    class       volScalarField;
    location    "260";
    object      p;
}
// * * * * * * * * * * * * * * * * * * * * * * * * * * * * * * * * * * * * * //

dimensions      [0 2 -2 0 0 0 0];

internalField   nonuniform List<scalar> 
10000
(
0.00238079
0.0024073
0.00243514
0.00248877
0.00253638
0.00260955
0.00267222
0.00276314
0.00283782
0.00294754
0.00303393
0.00316697
0.00326671
0.00343337
0.00355215
0.00377436
0.00393213
0.00426014
0.00452685
0.00505536
0.00238217
0.00240545
0.00243542
0.00248826
0.00253629
0.00260905
0.00267198
0.00276227
0.00283746
0.00294575
0.00303351
0.00316286
0.00326651
0.00342321
0.00355218
0.00374814
0.00392495
0.00418355
0.00444686
0.00477689
0.00238192
0.0024048
0.00243529
0.00248773
0.00253596
0.00260814
0.00267141
0.0027606
0.00283647
0.00294248
0.00303176
0.00315599
0.0032631
0.00340775
0.00354339
0.0037105
0.00389208
0.00407792
0.0043027
0.00444165
0.00238148
0.00240439
0.00243485
0.00248699
0.00253528
0.00260682
0.00267038
0.00275812
0.00283479
0.00293764
0.00302865
0.00314634
0.00325611
0.00338801
0.00352431
0.00366751
0.0038343
0.00397355
0.00414073
0.00421463
0.00238101
0.00240354
0.00243432
0.00248576
0.00253451
0.0026048
0.00266914
0.00275451
0.00283259
0.00293093
0.00302427
0.0031336
0.00324595
0.00336345
0.00349784
0.00361812
0.00376575
0.00387206
0.00399311
0.00404317
0.00238026
0.00240271
0.00243344
0.00248447
0.00253327
0.00260254
0.00266717
0.00275038
0.00282912
0.00292331
0.00301739
0.00311944
0.00323083
0.00333677
0.00346321
0.00356626
0.00369123
0.00377474
0.00386068
0.00389415
0.00237935
0.00240153
0.00243252
0.0024826
0.00253192
0.00259946
0.00266489
0.00274509
0.00282485
0.00291405
0.0030086
0.00310316
0.00321179
0.00330751
0.00342293
0.00351258
0.0036148
0.00368235
0.00374195
0.00376557
0.00237822
0.00240025
0.00243121
0.00248058
0.00253006
0.00259606
0.00266182
0.00273921
0.00281922
0.00290382
0.00299743
0.00308534
0.00318908
0.00327601
0.00337903
0.00345728
0.00353974
0.00359445
0.00363608
0.00365259
0.002377
0.00239851
0.00242979
0.00247805
0.00252792
0.002592
0.00265815
0.00273244
0.00281233
0.00289244
0.00298394
0.00306596
0.00316311
0.00324254
0.00333268
0.00340113
0.00346707
0.00351119
0.00354063
0.00355156
0.00237553
0.00239656
0.00242804
0.00247522
0.00252532
0.00258745
0.0026537
0.00272493
0.0028041
0.00287996
0.00296836
0.00304501
0.00313466
0.00320723
0.00328518
0.00334475
0.00339742
0.00343265
0.0034537
0.00346048
0.00237386
0.00239429
0.00242602
0.00247198
0.00252225
0.00258236
0.00264842
0.00271668
0.00279447
0.00286643
0.00295076
0.00302253
0.0031042
0.00317033
0.00323723
0.00328864
0.00333079
0.00335861
0.00337373
0.00337747
0.00237193
0.00239171
0.00242369
0.00246835
0.0025187
0.00257671
0.0026423
0.00270766
0.0027835
0.00285179
0.00293141
0.00299858
0.00307224
0.00313219
0.00318934
0.0032333
0.00326713
0.00328884
0.00329963
0.00330115
0.00236974
0.00238883
0.00242099
0.00246433
0.00251458
0.00257053
0.00263529
0.00269788
0.0027712
0.00283605
0.0029105
0.00297321
0.00303917
0.00309312
0.00314183
0.00317905
0.00320623
0.00322297
0.00323049
0.00323039
0.00236727
0.00238562
0.00241794
0.00245988
0.0025099
0.00256379
0.00262738
0.0026873
0.00275765
0.00281918
0.00288825
0.00294656
0.00300529
0.00305344
0.00309489
0.00312612
0.00314792
0.00316065
0.00316563
0.00316433
0.00236449
0.00238207
0.00241447
0.00245502
0.0025046
0.00255648
0.00261855
0.00267592
0.00274291
0.00280121
0.00286484
0.00291875
0.00297083
0.00301345
0.00304865
0.00307463
0.00309202
0.00310151
0.00310449
0.00310228
0.00236138
0.00237817
0.00241058
0.00244972
0.00249867
0.00254858
0.00260882
0.00266371
0.00272708
0.00278216
0.00284044
0.00288997
0.00293598
0.00297338
0.00300319
0.00302461
0.00303835
0.00304521
0.00304661
0.00304369
0.00235793
0.00237392
0.00240622
0.00244397
0.00249209
0.00254007
0.00259819
0.00265065
0.00271023
0.00276207
0.00281518
0.00286037
0.00290089
0.00293344
0.00295859
0.00297607
0.00298677
0.00299148
0.0029916
0.00298813
0.00235411
0.00236928
0.0024014
0.00243775
0.00248485
0.00253094
0.0025867
0.00263674
0.00269244
0.00274099
0.00278919
0.00283011
0.00286567
0.00289377
0.00291485
0.00292896
0.00293709
0.00294005
0.00293912
0.00293521
0.00234989
0.00236425
0.00239607
0.00243105
0.00247692
0.00252116
0.00257437
0.00262198
0.00267378
0.00271901
0.00276257
0.00279935
0.00283042
0.00285449
0.00287201
0.00288323
0.0028892
0.0028907
0.00288893
0.00288467
0.00234526
0.00235883
0.00239021
0.00242385
0.00246831
0.00251072
0.00256121
0.00260637
0.00265432
0.0026962
0.00273541
0.00276821
0.00279523
0.00281565
0.00283007
0.0028388
0.00284294
0.00284323
0.00284076
0.00283621
0.00234019
0.00235297
0.00238382
0.00241612
0.00245901
0.00249958
0.00254727
0.00258993
0.00263411
0.00267265
0.00270779
0.00273683
0.00276017
0.00277733
0.00278902
0.00279561
0.0027982
0.00279748
0.00279443
0.00278966
0.00233467
0.00234669
0.00237686
0.00240786
0.00244902
0.00248776
0.00253258
0.00257268
0.00261322
0.00264844
0.00267979
0.00270528
0.0027253
0.00273954
0.00274884
0.00275359
0.00275486
0.00275327
0.00274975
0.00274479
0.00232866
0.00233994
0.00236933
0.00239904
0.00243835
0.00247523
0.00251715
0.00255467
0.00259169
0.00262365
0.00265147
0.00267366
0.00269066
0.00270231
0.00270951
0.00271266
0.0027128
0.0027105
0.00270658
0.00270147
0.00232215
0.00233273
0.00236121
0.00238964
0.002427
0.00246199
0.00250102
0.00253592
0.00256958
0.00259837
0.00262289
0.00264203
0.0026563
0.00266564
0.00267099
0.00267277
0.00267194
0.00266903
0.00266477
0.00265955
0.00231513
0.00232502
0.0023525
0.00237964
0.00241498
0.00244805
0.00248421
0.00251647
0.00254693
0.00257265
0.00259412
0.00261044
0.00262225
0.00262954
0.00263327
0.00263385
0.00263219
0.00262876
0.00262422
0.00261891
0.00230755
0.00231681
0.00234317
0.00236903
0.00240229
0.0024334
0.00246675
0.00249638
0.00252378
0.00254658
0.0025652
0.00257894
0.00258852
0.00259398
0.00259629
0.00259583
0.00259346
0.00258959
0.00258482
0.00257943
0.00229943
0.00230806
0.00233323
0.00235779
0.00238894
0.00241807
0.00244867
0.00247569
0.00250018
0.0025202
0.00253619
0.00254757
0.00255513
0.00255898
0.00256003
0.00255867
0.00255568
0.00255143
0.00254647
0.00254103
0.00229072
0.00229878
0.00232267
0.00234592
0.00237494
0.00240205
0.00242998
0.00245443
0.00247617
0.00249356
0.00250711
0.00251634
0.0025221
0.0025245
0.00252445
0.0025223
0.00251879
0.00251422
0.00250909
0.00250361
0.00228143
0.00228892
0.00231149
0.0023334
0.0023603
0.00238538
0.00241072
0.00243266
0.00245179
0.00246671
0.00247801
0.00248528
0.00248941
0.00249053
0.00248952
0.00248669
0.00248271
0.00247788
0.00247262
0.00246711
0.00227153
0.00227849
0.00229967
0.00232024
0.00234503
0.00236806
0.00239091
0.00241041
0.00242708
0.00243969
0.00244891
0.00245441
0.00245708
0.00245706
0.0024552
0.00245177
0.0024474
0.00244234
0.00243697
0.00243145
0.00226101
0.00226745
0.00228722
0.00230641
0.00232913
0.00235013
0.00237057
0.00238772
0.00240207
0.00241254
0.00241985
0.00242374
0.00242509
0.00242407
0.00242145
0.00241751
0.0024128
0.00240754
0.00240209
0.00239657
0.00224985
0.0022558
0.00227414
0.00229194
0.00231262
0.00233159
0.00234974
0.00236464
0.00237679
0.00238527
0.00239083
0.00239326
0.00239344
0.00239153
0.00238826
0.00238386
0.00237887
0.00237345
0.00236793
0.00236241
0.00223806
0.00224352
0.00226042
0.00227681
0.00229551
0.00231249
0.00232842
0.00234118
0.00235129
0.00235792
0.00236188
0.002363
0.00236213
0.00235942
0.00235557
0.00235079
0.00234555
0.00233999
0.00233443
0.00232892
0.00222561
0.00223061
0.00224606
0.00226105
0.00227781
0.00229284
0.00230666
0.00231738
0.00232558
0.00233052
0.00233301
0.00233294
0.00233113
0.00232773
0.00232338
0.00231825
0.0023128
0.00230714
0.00230154
0.00229605
0.00221251
0.00221705
0.00223107
0.00224464
0.00225953
0.00227266
0.00228447
0.00229328
0.00229969
0.00230307
0.00230423
0.0023031
0.00230045
0.00229643
0.00229164
0.00228622
0.0022806
0.00227485
0.00226922
0.00226376
0.00219875
0.00220283
0.00221545
0.0022276
0.00224069
0.00225198
0.00226188
0.00226889
0.00227364
0.00227559
0.00227554
0.00227345
0.00227006
0.0022655
0.00226032
0.00225466
0.00224889
0.00224308
0.00223744
0.002232
0.00218431
0.00218795
0.0021992
0.00220995
0.00222129
0.00223082
0.00223891
0.00224424
0.00224745
0.0022481
0.00224696
0.00224401
0.00223996
0.00223492
0.00222942
0.00222355
0.00221765
0.00221179
0.00220615
0.00220075
0.00216921
0.00217241
0.00218232
0.00219169
0.00220137
0.0022092
0.00221559
0.00221935
0.00222115
0.0022206
0.00221848
0.00221477
0.00221013
0.00220468
0.00219889
0.00219284
0.00218685
0.00218095
0.00217532
0.00216996
0.00215345
0.00215621
0.00216482
0.00217284
0.00218092
0.00218715
0.00219194
0.00219424
0.00219474
0.00219312
0.0021901
0.00218571
0.00218056
0.00217475
0.00216871
0.00216252
0.00215645
0.00215053
0.00214492
0.0021396
0.00213701
0.00213935
0.00214671
0.00215341
0.00215997
0.00216468
0.00216797
0.00216894
0.00216824
0.00216564
0.00216183
0.00215683
0.00215123
0.00214511
0.00213887
0.00213256
0.00212643
0.00212051
0.00211492
0.00210965
0.00211991
0.00212183
0.00212799
0.00213343
0.00213855
0.00214182
0.00214372
0.00214344
0.00214166
0.00213818
0.00213366
0.00212813
0.00212214
0.00211575
0.00210933
0.00210293
0.00209676
0.00209084
0.00208528
0.00208007
0.00210216
0.00210366
0.00210868
0.0021129
0.00211665
0.00211859
0.00211919
0.00211778
0.00211501
0.00211074
0.00210559
0.00209959
0.00209326
0.00208665
0.00208009
0.00207361
0.00206742
0.00206152
0.002056
0.00205084
0.00208375
0.00208486
0.00208879
0.00209184
0.00209431
0.002095
0.0020944
0.00209196
0.0020883
0.00208332
0.00207761
0.00207121
0.00206459
0.00205779
0.00205111
0.00204459
0.00203839
0.00203251
0.00202703
0.00202194
0.00206471
0.00206543
0.00206833
0.00207027
0.00207154
0.00207107
0.00206938
0.002066
0.00206154
0.00205593
0.00204973
0.00204298
0.00203611
0.00202915
0.00202239
0.00201584
0.00200964
0.00200379
0.00199836
0.00199333
0.00204503
0.00204538
0.00204731
0.00204822
0.00204836
0.00204683
0.00204413
0.0020399
0.00203473
0.00202856
0.00202193
0.00201489
0.00200781
0.00200073
0.0019939
0.00198733
0.00198115
0.00197534
0.00196997
0.00196501
0.00202474
0.00202474
0.00202576
0.00202569
0.0020248
0.00202228
0.00201867
0.00201368
0.00200787
0.00200122
0.00199422
0.00198692
0.00197967
0.0019725
0.00196563
0.00195906
0.00195291
0.00194715
0.00194184
0.00193694
0.00200385
0.00200351
0.00200368
0.00200271
0.00200086
0.00199745
0.00199302
0.00198735
0.00198098
0.00197391
0.00196659
0.00195908
0.0019517
0.00194446
0.00193756
0.00193101
0.00192489
0.00191919
0.00191394
0.00190911
0.00198238
0.00198172
0.0019811
0.00197929
0.00197656
0.00197235
0.00196718
0.00196091
0.00195405
0.00194662
0.00193903
0.00193136
0.00192386
0.00191658
0.00190968
0.00190315
0.00189708
0.00189144
0.00188626
0.00188151
0.00196034
0.00195939
0.00195804
0.00195546
0.00195194
0.001947
0.00194117
0.00193438
0.00192709
0.00191935
0.00191155
0.00190374
0.00189617
0.00188886
0.00188197
0.00187548
0.00186946
0.00186389
0.00185879
0.00185411
0.00193775
0.00193654
0.00193452
0.00193125
0.001927
0.00192141
0.00191501
0.00190775
0.0019001
0.00189211
0.00188413
0.00187622
0.0018686
0.00186129
0.00185443
0.00184799
0.00184203
0.00183653
0.0018315
0.00182691
0.00191465
0.00191318
0.00191057
0.00190665
0.00190177
0.00189561
0.00188869
0.00188104
0.00187308
0.00186489
0.00185677
0.00184879
0.00184115
0.00183386
0.00182703
0.00182065
0.00181476
0.00180934
0.00180439
0.00179988
0.00189105
0.00188935
0.00188619
0.00188171
0.00187625
0.00186959
0.00186224
0.00185426
0.00184605
0.00183769
0.00182947
0.00182145
0.0018138
0.00180655
0.00179977
0.00179346
0.00178765
0.00178231
0.00177745
0.00177302
0.00186697
0.00186508
0.00186142
0.00185645
0.00185048
0.00184339
0.00183567
0.00182741
0.001819
0.00181051
0.00180223
0.00179419
0.00178656
0.00177935
0.00177264
0.00176641
0.00176068
0.00175543
0.00175065
0.00174631
0.00184245
0.00184038
0.00183629
0.00183087
0.00182448
0.00181701
0.00180898
0.0018005
0.00179193
0.00178336
0.00177504
0.00176701
0.00175942
0.00175227
0.00174563
0.00173949
0.00173385
0.00172869
0.001724
0.00171974
0.00181752
0.00181528
0.00181082
0.00180502
0.00179825
0.00179048
0.00178219
0.00177354
0.00176485
0.00175623
0.0017479
0.0017399
0.00173236
0.00172529
0.00171874
0.00171268
0.00170714
0.00170207
0.00169747
0.0016933
0.00179219
0.00178981
0.00178502
0.0017789
0.00177182
0.0017638
0.00175531
0.00174653
0.00173777
0.00172913
0.00172081
0.00171287
0.0017054
0.00169841
0.00169195
0.00168599
0.00168055
0.00167558
0.00167107
0.00166699
0.0017665
0.00176401
0.00175894
0.00175255
0.00174521
0.00173699
0.00172836
0.00171949
0.00171069
0.00170205
0.00169378
0.0016859
0.00167851
0.00167162
0.00166526
0.00165941
0.00165407
0.0016492
0.00164479
0.0016408
0.00174048
0.0017379
0.0017326
0.00172598
0.00171844
0.00171007
0.00170133
0.00169241
0.00168361
0.00167501
0.00166679
0.001659
0.00165171
0.00164493
0.00163867
0.00163293
0.0016277
0.00162293
0.00161861
0.00161471
0.00171417
0.0017115
0.00170601
0.00169922
0.00169153
0.00168306
0.00167425
0.00166532
0.00165654
0.001648
0.00163986
0.00163217
0.00162499
0.00161832
0.00161218
0.00160655
0.00160143
0.00159677
0.00159255
0.00158874
0.00168758
0.00168486
0.00167922
0.0016723
0.0016645
0.00165597
0.00164713
0.00163822
0.00162949
0.00162103
0.00161299
0.00160541
0.00159834
0.0015918
0.00158578
0.00158027
0.00157525
0.0015707
0.00156658
0.00156286
0.00166076
0.00165799
0.00165225
0.00164524
0.00163737
0.00162881
0.00161998
0.00161112
0.00160246
0.0015941
0.00158618
0.00157872
0.00157178
0.00156536
0.00155947
0.00155408
0.00154918
0.00154474
0.00154072
0.00153709
0.00163374
0.00163094
0.00162512
0.00161806
0.00161016
0.00160161
0.00159282
0.00158404
0.00157547
0.00156723
0.00155943
0.0015521
0.0015453
0.00153902
0.00153325
0.00152799
0.00152321
0.00151887
0.00151495
0.00151142
0.00160655
0.00160373
0.00159787
0.00159079
0.00158289
0.00157438
0.00156566
0.00155697
0.00154852
0.00154041
0.00153275
0.00152557
0.0015189
0.00151276
0.00150713
0.001502
0.00149733
0.0014931
0.00148929
0.00148585
0.00157921
0.00157639
0.00157052
0.00156345
0.00155558
0.00154714
0.00153852
0.00152995
0.00152163
0.00151366
0.00150614
0.00149912
0.0014926
0.0014866
0.00148111
0.0014761
0.00147155
0.00146744
0.00146373
0.00146038
0.00155177
0.00154896
0.0015431
0.00153606
0.00152826
0.00151992
0.0015114
0.00150297
0.00149479
0.00148699
0.00147963
0.00147276
0.00146639
0.00146054
0.00145519
0.00145031
0.00144588
0.00144188
0.00143827
0.00143502
0.00152425
0.00152147
0.00151563
0.00150867
0.00150095
0.00149272
0.00148434
0.00147606
0.00146804
0.0014604
0.0014532
0.0014465
0.00144029
0.00143459
0.00142937
0.00142463
0.00142032
0.00141643
0.00141292
0.00140977
0.0014967
0.00149394
0.00148816
0.00148128
0.00147367
0.00146557
0.00145734
0.00144922
0.00144137
0.00143391
0.00142688
0.00142034
0.0014143
0.00140875
0.00140367
0.00139906
0.00139487
0.0013911
0.00138769
0.00138463
0.00146913
0.00146641
0.0014607
0.00145392
0.00144643
0.00143849
0.00143042
0.00142248
0.00141481
0.00140753
0.00140068
0.00139431
0.00138842
0.00138303
0.00137809
0.00137361
0.00136955
0.00136588
0.00136257
0.0013596
0.00144158
0.00143891
0.00143329
0.00142663
0.00141928
0.0014115
0.0014036
0.00139585
0.00138837
0.00138127
0.0013746
0.00136841
0.00136268
0.00135744
0.00135265
0.0013483
0.00134436
0.0013408
0.00133759
0.00133471
0.00141409
0.00141147
0.00140595
0.00139942
0.00139222
0.00138462
0.00137691
0.00136935
0.00136206
0.00135515
0.00134867
0.00134265
0.00133709
0.001332
0.00132735
0.00132313
0.0013193
0.00131586
0.00131275
0.00130996
0.00138669
0.00138412
0.00137871
0.00137233
0.00136529
0.00135787
0.00135036
0.001343
0.0013359
0.00132919
0.00132288
0.00131704
0.00131165
0.00130671
0.0013022
0.00129811
0.00129441
0.00129107
0.00128806
0.00128536
0.0013594
0.0013569
0.0013516
0.00134538
0.00133851
0.00133128
0.00132396
0.00131681
0.00130991
0.00130339
0.00129727
0.00129161
0.00128637
0.00128159
0.00127722
0.00127326
0.00126967
0.00126644
0.00126353
0.00126092
0.00133226
0.00132983
0.00132466
0.00131859
0.0013119
0.00130488
0.00129776
0.00129081
0.00128411
0.00127779
0.00127185
0.00126636
0.00126129
0.00125666
0.00125243
0.0012486
0.00124512
0.001242
0.00123918
0.00123665
0.00130531
0.00130294
0.0012979
0.001292
0.0012855
0.00127867
0.00127175
0.00126501
0.00125852
0.00125239
0.00124664
0.00124132
0.00123641
0.00123193
0.00122783
0.00122412
0.00122077
0.00121774
0.00121502
0.00121257
0.00127857
0.00127627
0.00127137
0.00126564
0.00125931
0.00125269
0.00124598
0.00123945
0.00123315
0.00122722
0.00122165
0.0012165
0.00121175
0.00120741
0.00120346
0.00119987
0.00119662
0.0011937
0.00119107
0.00118871
0.00125208
0.00124984
0.00124508
0.00123952
0.00123339
0.00122697
0.00122046
0.00121414
0.00120804
0.0012023
0.00119691
0.00119193
0.00118733
0.00118314
0.00117931
0.00117585
0.00117271
0.00116989
0.00116734
0.00116506
0.00122586
0.0012237
0.00121908
0.00121369
0.00120774
0.00120152
0.00119523
0.0011891
0.0011832
0.00117765
0.00117244
0.00116762
0.00116318
0.00115913
0.00115543
0.00115208
0.00114905
0.00114632
0.00114386
0.00114166
0.00119996
0.00119787
0.00119338
0.00118817
0.0011824
0.00117639
0.00117029
0.00116437
0.00115866
0.00115329
0.00114825
0.0011436
0.00113931
0.0011354
0.00113182
0.00112859
0.00112566
0.00112303
0.00112065
0.00111853
0.0011744
0.00117238
0.00116803
0.00116299
0.00115741
0.00115159
0.00114569
0.00113997
0.00113445
0.00112926
0.00112439
0.0011199
0.00111575
0.00111197
0.00110852
0.0011054
0.00110257
0.00110003
0.00109773
0.00109568
0.00114922
0.00114726
0.00114306
0.00113818
0.00113278
0.00112716
0.00112145
0.00111592
0.00111059
0.00110558
0.00110087
0.00109653
0.00109252
0.00108887
0.00108554
0.00108252
0.00107979
0.00107734
0.00107512
0.00107314
0.00112445
0.00112256
0.00111849
0.00111378
0.00110855
0.00110312
0.00109761
0.00109226
0.00108711
0.00108227
0.00107772
0.00107353
0.00106966
0.00106614
0.00106292
0.00106001
0.00105737
0.001055
0.00105287
0.00105095
0.00110013
0.00109831
0.00109437
0.00108981
0.00108476
0.00107951
0.00107418
0.00106902
0.00106404
0.00105936
0.00105497
0.00105092
0.00104718
0.00104378
0.00104067
0.00103786
0.00103531
0.00103302
0.00103096
0.00102911
0.00107629
0.00107454
0.00107072
0.00106633
0.00106144
0.00105637
0.00105121
0.00104623
0.00104141
0.0010369
0.00103265
0.00102875
0.00102513
0.00102185
0.00101884
0.00101613
0.00101367
0.00101146
0.00100947
0.00100769
0.00105298
0.00105129
0.00104759
0.00104335
0.00103862
0.00103372
0.00102873
0.00102392
0.00101926
0.0010149
0.00101079
0.00100701
0.00100352
0.00100034
0.000997438
0.000994816
0.000992438
0.000990303
0.000988378
0.000986656
0.00103023
0.0010286
0.00102502
0.00102092
0.00101634
0.0010116
0.00100678
0.00100213
0.000997625
0.000993409
0.000989443
0.000985795
0.000982421
0.000979353
0.000976548
0.000974016
0.00097172
0.000969658
0.000967798
0.000966135
0.00100808
0.00100651
0.00100304
0.000999073
0.000994641
0.000990062
0.000985392
0.000980887
0.000976528
0.000972446
0.000968603
0.000965068
0.000961798
0.000958825
0.000956106
0.000953653
0.000951429
0.000949432
0.000947632
0.000946022
0.000986592
0.000985069
0.000981705
0.000977862
0.000973567
0.000969133
0.000964611
0.000960253
0.000956035
0.000952091
0.000948377
0.000944965
0.000941808
0.000938939
0.000936313
0.000933945
0.000931796
0.000929866
0.000928126
0.000926569
0.000965795
0.000964318
0.000961054
0.000957327
0.000953161
0.000948861
0.000944473
0.000940243
0.000936146
0.000932312
0.000928699
0.000925378
0.000922305
0.000919512
0.000916958
0.000914654
0.000912565
0.000910692
0.000909002
0.000907492
0.000945745
0.000944314
0.000941137
0.000937521
0.00093347
0.000929298
0.000925039
0.000920943
0.000916977
0.000913274
0.000909787
0.000906586
0.000903622
0.000900931
0.000898466
0.000896243
0.000894225
0.000892413
0.000890778
0.000889315
0.0009265
0.000925107
0.000922011
0.00091849
0.000914545
0.000910482
0.00090633
0.000902331
0.000898453
0.000894825
0.000891404
0.000888262
0.000885352
0.000882711
0.000880296
0.00087812
0.000876146
0.000874378
0.000872784
0.000871361
0.00090812
0.000906759
0.000903734
0.000900296
0.000896446
0.000892489
0.000888452
0.000884578
0.000880831
0.000877339
0.00087405
0.000871036
0.000868243
0.000865708
0.000863384
0.000861288
0.000859383
0.000857673
0.000856128
0.000854746
0.000890671
0.000889342
0.00088637
0.000883001
0.000879222
0.000875337
0.000871361
0.000867534
0.000863816
0.00086034
0.000857061
0.000854051
0.000851267
0.000848742
0.000846436
0.000844361
0.000842482
0.0008408
0.000839285
0.000837934
0.000874234
0.00087293
0.000869993
0.000866676
0.000862962
0.000859165
0.0008553
0.000851609
0.000848047
0.000844737
0.000841623
0.00083877
0.000836126
0.000833723
0.00083152
0.000829529
0.000827718
0.000826091
0.000824619
0.000823301
0.0008589
0.000857607
0.000854686
0.000851388
0.000847691
0.000843893
0.000840001
0.000836253
0.000832611
0.000829208
0.000826001
0.000823066
0.000820355
0.000817906
0.000815674
0.000813671
0.000811862
0.000810246
0.000808794
0.0008075
0.000844776
0.000843483
0.000840543
0.000837251
0.000833591
0.000829889
0.000826144
0.000822596
0.000819186
0.000816029
0.00081306
0.00081034
0.000807816
0.000805519
0.000803407
0.000801496
0.000799753
0.000798184
0.000796763
0.000795489
0.000832002
0.000830676
0.00082768
0.000824297
0.000820516
0.000816632
0.000812658
0.000808838
0.000805139
0.000801699
0.000798475
0.000795541
0.000792848
0.000790428
0.000788235
0.000786277
0.000784515
0.000782948
0.000781543
0.000780296
0.000820744
0.000819342
0.000816233
0.00081283
0.000809136
0.000805445
0.000801753
0.000798283
0.000794965
0.0007919
0.000789018
0.000786375
0.000783916
0.000781673
0.000779607
0.000777733
0.00077602
0.000774476
0.000773075
0.000771817
0.000811249
0.000809723
0.00080624
0.000802372
0.000798148
0.000793855
0.000789527
0.000785417
0.000781498
0.000777898
0.000774568
0.000771571
0.000768851
0.000766428
0.00076425
0.00076232
0.000760594
0.000759066
0.000757704
0.000756499
0.000803796
0.000802106
0.000798591
0.000794903
0.000790963
0.000787036
0.000783146
0.000779512
0.000776059
0.000772882
0.000769911
0.000767198
0.000764685
0.000762402
0.000760305
0.000758408
0.000756679
0.000755122
0.00075371
0.000752445
0.000799191
0.000795805
0.000790718
0.000785809
0.000780684
0.00077558
0.000770597
0.000765982
0.00076169
0.000757825
0.000754322
0.000751219
0.000748444
0.000746003
0.000743832
0.000741926
0.000740234
0.000738747
0.000737428
0.000736266
0.00538352
0.00449174
0.00397043
0.00376132
0.00358018
0.00341103
0.00327507
0.00316225
0.0030625
0.00297286
0.00289175
0.00281727
0.00274809
0.00268306
0.00262152
0.00256265
0.00250607
0.00245118
0.00239777
0.00234542
0.00229405
0.00224332
0.00219325
0.00214358
0.00209437
0.00204544
0.00199686
0.00194848
0.00190041
0.00185251
0.00180489
0.00175741
0.0017102
0.00166313
0.0016163
0.00156959
0.00152312
0.00147674
0.00143058
0.00138448
0.0013386
0.00129277
0.00124719
0.00120166
0.00115644
0.00111134
0.00106672
0.00102234
0.000978712
0.000935551
0.000893551
0.000852331
0.000812771
0.000774309
0.000737971
0.000702883
0.00067015
0.000638444
0.000608922
0.000579755
0.000552261
0.000524197
0.00049731
0.000469085
0.000441938
0.000413051
0.000385567
0.00035607
0.000328372
0.000298161
0.00027002
0.000238715
0.000209855
0.0001774
0.00014807
0.000114994
8.59469e-05
5.35097e-05
2.70317e-05
4.64977e-06
0.00503365
0.00457747
0.00424285
0.00408574
0.00393645
0.00378414
0.00365055
0.00353196
0.00342137
0.00331727
0.00321894
0.00312544
0.00303591
0.00294987
0.00286694
0.00278682
0.00270931
0.00263422
0.00256143
0.00249078
0.00242222
0.00235559
0.00229086
0.00222787
0.00216659
0.00210686
0.00204865
0.00199181
0.00193629
0.00188195
0.00182875
0.00177654
0.0017253
0.00167489
0.00162529
0.00157635
0.00152809
0.00148036
0.00143319
0.00138643
0.00134015
0.0012942
0.00124868
0.00120343
0.00115864
0.00111413
0.00107018
0.00102657
0.000983743
0.000941408
0.000900188
0.000859681
0.000820697
0.000782652
0.00074652
0.000711417
0.00067844
0.000646281
0.000616157
0.000586285
0.000558096
0.000529387
0.000502024
0.000473475
0.000446223
0.000417361
0.000390039
0.00036072
0.000333191
0.000303067
0.000274912
0.000243507
0.000214449
0.00018179
0.000152187
0.000118942
8.96125e-05
5.71471e-05
3.01014e-05
7.44134e-06
0.00455517
0.00431437
0.0040389
0.00385709
0.00369541
0.00353723
0.00339731
0.00327483
0.00316404
0.00306272
0.00296979
0.00288387
0.00280382
0.00272872
0.00265789
0.00259069
0.00252664
0.00246526
0.00240623
0.00234918
0.00229386
0.00224003
0.00218747
0.00213602
0.00208551
0.00203585
0.00198687
0.00193854
0.00189073
0.00184341
0.0017965
0.00174998
0.00170379
0.00165791
0.0016123
0.00156696
0.00152184
0.00147697
0.00143229
0.00138783
0.00134357
0.00129953
0.00125572
0.00121215
0.00116888
0.00112592
0.0010834
0.0010413
0.000999863
0.000959022
0.000919134
0.000880054
0.000842268
0.000805452
0.000770218
0.000735957
0.000703383
0.000671489
0.00064111
0.000610795
0.000581627
0.000551754
0.000522745
0.000492431
0.000463073
0.000432124
0.000402583
0.000371272
0.000341852
0.000310252
0.000280875
0.000248723
0.000219165
0.000186361
0.00015673
0.000123576
9.43484e-05
6.18183e-05
3.46996e-05
1.0512e-05
0.00428388
0.00416762
0.00398447
0.00384659
0.00372624
0.00360543
0.00349309
0.00339105
0.00329584
0.00320586
0.00312063
0.00303933
0.00296137
0.00288613
0.00281337
0.00274264
0.00267384
0.00260665
0.00254105
0.0024768
0.00241392
0.00235223
0.00229176
0.00223238
0.00217409
0.00211681
0.00206054
0.00200518
0.00195076
0.00189717
0.00184443
0.00179244
0.00174122
0.00169066
0.00164078
0.00159149
0.00154278
0.00149459
0.00144692
0.00139969
0.00135292
0.00130654
0.00126061
0.00121505
0.00116996
0.00112527
0.00108115
0.00103752
0.000994652
0.000952442
0.000911279
0.000871009
0.000832137
0.000794401
0.000758395
0.000723651
0.000690809
0.000659086
0.000629154
0.000599847
0.000571949
0.000543931
0.000516895
0.000489009
0.000461929
0.000433471
0.000405939
0.000376589
0.000348374
0.000317794
0.000288567
0.000256444
0.000226136
0.000192722
0.000161942
0.000128146
9.79109e-05
6.52097e-05
3.72891e-05
1.17348e-05
0.00407205
0.00400246
0.00387205
0.0037513
0.00363769
0.00352087
0.00340744
0.00330113
0.00320089
0.00310588
0.00301608
0.00293099
0.00285022
0.00277323
0.00269973
0.0026293
0.00256171
0.00249659
0.00243379
0.00237301
0.00231411
0.00225686
0.00220113
0.00214676
0.00209362
0.00204159
0.00199056
0.00194042
0.00189109
0.00184248
0.00179452
0.00174715
0.0017003
0.00165392
0.00160796
0.00156238
0.00151715
0.00147222
0.00142759
0.00138321
0.0013391
0.00129521
0.00125161
0.00120823
0.00116519
0.00112243
0.00108013
0.00103821
0.000996971
0.00095628
0.000916549
0.000877584
0.000839917
0.000803215
0.000768102
0.00073402
0.000701642
0.000670095
0.000640089
0.000610407
0.000581871
0.000552986
0.000524876
0.000495874
0.000467589
0.000438147
0.0004097
0.000379939
0.000351488
0.000321354
0.000292689
0.000261782
0.000232528
0.000200549
0.000170678
0.000137776
0.000107748
7.47705e-05
4.64488e-05
1.45382e-05
0.00390281
0.00385924
0.00377012
0.00367456
0.00358076
0.0034842
0.00338874
0.00329762
0.00321086
0.00312776
0.00304839
0.00297229
0.00289926
0.00282873
0.00276062
0.00269443
0.00263014
0.00256734
0.00250607
0.00244599
0.00238716
0.00232931
0.00227251
0.00221655
0.00216149
0.00210718
0.00205364
0.00200078
0.00194862
0.00189706
0.00184614
0.00179576
0.00174595
0.00169663
0.00164783
0.00159947
0.00155158
0.00150408
0.00145702
0.00141031
0.00136401
0.00131803
0.00127247
0.00122724
0.00118247
0.00113806
0.00109422
0.00105084
0.00100821
0.000966189
0.00092519
0.000885001
0.000846148
0.000808291
0.000772058
0.000736892
0.000703487
0.000670976
0.000640119
0.000609687
0.000580586
0.00055126
0.000522936
0.000493801
0.000465565
0.000436138
0.000407764
0.000377891
0.000349256
0.000318677
0.000289466
0.00025784
0.000227888
0.000195314
0.000165094
0.000132261
0.000102743
7.0704e-05
4.38777e-05
1.24592e-05
0.0037663
0.0037353
0.00367134
0.00359432
0.0035137
0.00342856
0.00334143
0.00325526
0.00317109
0.00308895
0.00300927
0.00293205
0.00285738
0.002785
0.00271495
0.00264694
0.002581
0.00251684
0.00245449
0.00239368
0.00233444
0.00227655
0.00222001
0.00216465
0.00211044
0.00205725
0.00200506
0.00195375
0.00190328
0.00185357
0.00180457
0.00175622
0.00170847
0.00166126
0.00161457
0.00156831
0.0015225
0.00147706
0.00143199
0.00138724
0.00134283
0.00129869
0.0012549
0.00121137
0.00116824
0.00112541
0.00108308
0.00104113
0.000999884
0.000959167
0.000919409
0.000880377
0.000842611
0.000805753
0.000770436
0.000736095
0.00070342
0.000671553
0.000641237
0.000611277
0.00058254
0.000553526
0.000525402
0.000496428
0.000468246
0.000438851
0.000410432
0.000380531
0.000351867
0.000321334
0.000292256
0.000260839
0.000231221
0.000198918
0.000169033
0.000136229
0.000106744
7.41986e-05
4.68375e-05
1.32656e-05
0.00364951
0.00362484
0.00357694
0.00351514
0.003447
0.00337371
0.0032974
0.00322053
0.00314455
0.0030698
0.00299684
0.00292573
0.00285669
0.00278947
0.00272417
0.00266048
0.00259847
0.00253783
0.00247861
0.00242055
0.00236367
0.00230776
0.00225286
0.00219877
0.00214554
0.00209301
0.00204121
0.00199003
0.00193946
0.00188944
0.00183997
0.00179097
0.00174245
0.00169435
0.00164668
0.00159937
0.00155246
0.00150587
0.00145965
0.00141371
0.00136813
0.00132282
0.00127789
0.00123323
0.00118901
0.0011451
0.00110174
0.00105879
0.00101657
0.000974892
0.000934209
0.000894251
0.000855582
0.000817804
0.000781581
0.000746307
0.000712717
0.000679911
0.000648693
0.00061783
0.000588261
0.000558453
0.00052963
0.000500028