/*--------------------------------*- C++ -*----------------------------------*\
| =========                 |                                                 |
| \\      /  F ield         | OpenFOAM: The Open Source CFD Toolbox           |
|  \\    /   O peration     | Version:  2.4.0                                 |
|   \\  /    A nd           | Web:      www.OpenFOAM.org                      |
|    \\/     M anipulation  |                                                 |
\*---------------------------------------------------------------------------*/
FoamFile
{
    version     2.0;
    format      ascii;
    class       volVectorField;
    location    "0.48";
    object      UMean;
}
// * * * * * * * * * * * * * * * * * * * * * * * * * * * * * * * * * * * * * //

dimensions      [0 1 -1 0 0 0 0];

internalField   nonuniform List<vector> 
2320
(
(0.943132 6.93798e-05 0)
(0.878135 -3.04767e-05 0)
(0.941275 0.0043804 0)
(0.882618 0.00157412 0)
(0.933234 0.00531775 0)
(0.893905 0.00310311 0)
(0.937058 0.00408517 0)
(0.896399 0.00285435 0)
(0.936709 0.00664653 0)
(0.899667 0.00577171 0)
(0.932686 0.00645545 0)
(0.905704 0.00652048 0)
(0.933058 0.00979154 0)
(0.906311 0.000638233 0)
(0.953855 0.00412475 0)
(0.916327 -0.00197765 0)
(0.977162 -0.00890993 0)
(0.960616 -0.0113501 0)
(1.02617 -0.0257717 0)
(1.03978 -0.0309832 0)
(0.900685 0.0112696 0)
(0.913049 -0.014146 0)
(0.90527 0.00802857 0)
(0.91959 -0.0153363 0)
(0.90451 0.00683471 0)
(0.936675 -0.024285 0)
(0.898988 0.0149456 0)
(0.953417 -0.0261898 0)
(0.898812 0.0150472 0)
(0.972258 -0.030314 0)
(0.898788 0.0172646 0)
(0.974757 -0.0377703 0)
(0.909112 0.0228914 0)
(0.976414 -0.0492508 0)
(0.920978 0.0309134 0)
(0.988931 -0.0571772 0)
(0.9557 0.0324446 0)
(1.01443 -0.0714666 0)
(1.01947 0.0386264 0)
(1.06922 -0.0868854 0)
(0.928112 0.0148586 0)
(0.894244 -0.0159983 0)
(0.936185 0.0162211 0)
(0.891294 -0.0157243 0)
(0.947207 0.0157333 0)
(0.885241 -0.0151146 0)
(0.949585 0.0166169 0)
(0.904388 -0.0200308 0)
(0.958245 0.0212604 0)
(0.913314 -0.0201638 0)
(0.973178 0.03276 0)
(0.900578 -0.0293325 0)
(1.00023 0.0420436 0)
(0.873149 -0.0428975 0)
(1.02564 0.0405801 0)
(0.869348 -0.060666 0)
(1.05434 0.0347682 0)
(0.860416 -0.0898341 0)
(1.10019 0.019778 0)
(0.912638 -0.133133 0)
(0.972078 0.0210653 0)
(0.842305 -0.0272613 0)
(0.977402 0.0232797 0)
(0.84871 -0.0313465 0)
(0.981425 0.026039 0)
(0.849582 -0.0379406 0)
(0.992822 0.0240483 0)
(0.85171 -0.0478809 0)
(1.00533 0.0339886 0)
(0.845104 -0.0582415 0)
(1.02261 0.0497565 0)
(0.845519 -0.0766797 0)
(1.04217 0.0670999 0)
(0.86727 -0.0936032 0)
(1.06441 0.0686823 0)
(0.894354 -0.115271 0)
(1.10148 0.0734949 0)
(0.932772 -0.149672 0)
(1.15523 0.0540715 0)
(1.01085 -0.19575 0)
(0.960608 0.0302616 0)
(0.848118 -0.0329505 0)
(0.967217 0.0280429 0)
(0.840327 -0.0360953 0)
(0.980603 0.0331501 0)
(0.834652 -0.040168 0)
(0.980778 0.0349811 0)
(0.821604 -0.0487092 0)
(0.993106 0.0483086 0)
(0.819383 -0.0543441 0)
(0.999828 0.0587929 0)
(0.813933 -0.0683732 0)
(1.0074 0.0665363 0)
(0.811257 -0.0890055 0)
(1.02038 0.0667495 0)
(0.831938 -0.115288 0)
(1.03785 0.0693661 0)
(0.863938 -0.158254 0)
(1.06367 0.0490775 0)
(0.939326 -0.226175 0)
(0.951597 0.034955 0)
(0.869713 -0.0439772 0)
(0.961822 0.0339828 0)
(0.85989 -0.050978 0)
(0.965981 0.0366806 0)
(0.850354 -0.0509927 0)
(0.972241 0.0376114 0)
(0.852589 -0.0693928 0)
(0.987681 0.0457213 0)
(0.849507 -0.0798019 0)
(1.00228 0.0648656 0)
(0.846794 -0.0991878 0)
(1.02783 0.077841 0)
(0.842739 -0.121742 0)
(1.06499 0.075631 0)
(0.839504 -0.157494 0)
(1.1192 0.0782182 0)
(0.850712 -0.20975 0)
(1.19958 0.0463305 0)
(0.882906 -0.276346 0)
(0.921946 0.042225 0)
(0.899354 -0.0464659 0)
(0.932522 0.0470653 0)
(0.894359 -0.046499 0)
(0.926623 0.0527773 0)
(0.883238 -0.0569443 0)
(0.949467 0.0520461 0)
(0.898379 -0.0699253 0)
(0.959776 0.0684733 0)
(0.892421 -0.0788864 0)
(0.970519 0.0820657 0)
(0.912405 -0.0995787 0)
(0.988703 0.0961435 0)
(0.929426 -0.12869 0)
(1.01124 0.0975047 0)
(0.94824 -0.166056 0)
(1.05617 0.0985554 0)
(0.963399 -0.224296 0)
(1.13376 0.0734715 0)
(0.991224 -0.311953 0)
(0.915869 0.0385382 0)
(0.913392 -0.0505082 0)
(0.934352 0.0407855 0)
(0.913998 -0.0497861 0)
(0.950408 0.0431009 0)
(0.91422 -0.0639515 0)
(0.96846 0.033739 0)
(0.912082 -0.074626 0)
(0.978252 0.0503121 0)
(0.918998 -0.0868885 0)
(1.00003 0.0576361 0)
(0.921653 -0.110492 0)
(1.02358 0.0699282 0)
(0.931449 -0.137108 0)
(1.04789 0.0684287 0)
(0.943645 -0.187652 0)
(1.07768 0.0784942 0)
(0.963786 -0.263231 0)
(1.12889 0.0551141 0)
(0.99726 -0.372837 0)
(0.904831 0.0470579 0)
(0.932006 -0.0608602 0)
(0.918245 0.0524421 0)
(0.94362 -0.0598498 0)
(0.933821 0.057861 0)
(0.949972 -0.0721432 0)
(0.943765 0.0574853 0)
(0.945691 -0.0794657 0)
(0.964758 0.0688345 0)
(0.954538 -0.0929099 0)
(0.984534 0.0812426 0)
(0.96558 -0.109726 0)
(0.99706 0.0890951 0)
(0.985795 -0.135888 0)
(1.01656 0.0860606 0)
(1.00616 -0.175199 0)
(1.03701 0.0796235 0)
(1.03327 -0.250972 0)
(1.08638 0.0471013 0)
(1.06701 -0.383284 0)
(0.895255 0.0303655 0)
(0.938655 -0.0478041 0)
(0.902289 0.0274957 0)
(0.940577 -0.0489741 0)
(0.914188 0.0306546 0)
(0.948217 -0.0567975 0)
(0.92369 0.0258574 0)
(0.947234 -0.0672485 0)
(0.948295 0.0307673 0)
(0.958849 -0.0762578 0)
(0.96474 0.0344029 0)
(0.964211 -0.090551 0)
(0.979294 0.0365826 0)
(0.973829 -0.113947 0)
(0.991051 0.0317969 0)
(0.985313 -0.155958 0)
(1.00393 0.0393552 0)
(1.00506 -0.239257 0)
(0.994509 0.0262532 0)
(1.05278 -0.396024 0)
(0.892627 0.0459586 0)
(0.954475 -0.0636876 0)
(0.87992 0.0464346 0)
(0.958461 -0.0659526 0)
(0.871212 0.0502799 0)
(0.965984 -0.0775485 0)
(0.880742 0.0510903 0)
(0.971023 -0.0897766 0)
(0.900096 0.0529252 0)
(0.969488 -0.0948631 0)
(0.90441 0.0653705 0)
(0.96914 -0.106734 0)
(0.910391 0.0677834 0)
(0.969542 -0.131128 0)
(0.916064 0.0584724 0)
(0.964704 -0.167151 0)
(0.934084 0.0398359 0)
(0.956841 -0.231112 0)
(0.970413 -0.0185486 0)
(0.924936 -0.351668 0)
(0.965541 0.0134122 0)
(0.871979 -0.0230196 0)
(0.95216 0.00982926 0)
(0.889767 -0.0252848 0)
(0.933948 0.0108611 0)
(0.919136 -0.0385623 0)
(0.928175 0.00433224 0)
(0.949389 -0.046799 0)
(0.913842 0.00587012 0)
(0.96791 -0.0451076 0)
(0.898773 0.00248467 0)
(0.994804 -0.0537644 0)
(0.877696 -0.00259277 0)
(1.02403 -0.066193 0)
(0.844468 -0.0148642 0)
(1.06156 -0.097712 0)
(0.794282 -0.0171641 0)
(1.09548 -0.173196 0)
(0.721237 -0.0196994 0)
(1.1019 -0.373308 0)
(1.03075 0.0423561 0)
(0.802326 -0.053121 0)
(1.04096 0.0318096 0)
(0.793949 -0.0568155 0)
(1.04849 0.0299619 0)
(0.802919 -0.0718593 0)
(1.05325 0.0279512 0)
(0.820639 -0.0800798 0)
(1.05406 0.0323473 0)
(0.842373 -0.0812844 0)
(1.0476 0.0373698 0)
(0.859534 -0.0888593 0)
(1.03081 0.0354008 0)
(0.882977 -0.108716 0)
(1.0035 0.0154043 0)
(0.934345 -0.135247 0)
(0.937116 -0.00401093 0)
(0.993268 -0.1904 0)
(0.768062 -0.0468535 0)
(1.05174 -0.387121 0)
(1.00423 0.00438154 0)
(0.827585 -0.0109417 0)
(1.00364 -0.00476057 0)
(0.814858 -0.012148 0)
(1.00836 -0.0108572 0)
(0.818517 -0.0207895 0)
(1.01578 -0.0248792 0)
(0.833495 -0.0220711 0)
(1.02983 -0.0303533 0)
(0.845794 -0.00905863 0)
(1.03533 -0.0368569 0)
(0.846258 -0.00361612 0)
(1.03906 -0.0536226 0)
(0.841141 0.00420052 0)
(1.03839 -0.0907997 0)
(0.862659 0.0139786 0)
(1.01496 -0.12315 0)
(0.884355 0.0196238 0)
(0.915285 -0.156389 0)
(0.893772 -0.0424971 0)
(1.03557 0.0419634 0)
(0.7982 -0.0484684 0)
(1.04462 0.03429 0)
(0.78608 -0.0559601 0)
(1.05605 0.0271421 0)
(0.796085 -0.0736438 0)
(1.07202 0.0204809 0)
(0.819976 -0.087112 0)
(1.08609 0.0257156 0)
(0.838419 -0.0838137 0)
(1.09935 0.0339381 0)
(0.840614 -0.0935115 0)
(1.10924 0.03428 0)
(0.836503 -0.117438 0)
(1.11726 0.000235468 0)
(0.866729 -0.128958 0)
(1.09797 -0.0253928 0)
(0.926756 -0.131916 0)
(1.00611 -0.0750742 0)
(1.02069 -0.226011 0)
(1.00546 -0.0054669 0)
(0.832846 0.00160084 0)
(1.01018 -0.0182737 0)
(0.823975 -0.000480651 0)
(1.02512 -0.0361364 0)
(0.825042 -0.0101878 0)
(1.05678 -0.0572533 0)
(0.852065 -0.00869884 0)
(1.07505 -0.0637493 0)
(0.86198 0.0118668 0)
(1.08796 -0.0653053 0)
(0.850807 0.0263534 0)
(1.10271 -0.0788611 0)
(0.795474 0.0408975 0)
(1.13364 -0.150477 0)
(0.768658 0.0883249 0)
(1.16574 -0.237027 0)
(0.754326 0.16988 0)
(1.13172 -0.326081 0)
(0.795465 0.34852 0)
(0.971669 0.0396082 0)
(0.871387 -0.0484285 0)
(0.97167 0.0363415 0)
(0.862512 -0.0639173 0)
(0.979524 0.0262807 0)
(0.875176 -0.0904846 0)
(1.01164 0.00870662 0)
(0.885862 -0.099173 0)
(1.03907 0.0223226 0)
(0.892427 -0.0956024 0)
(1.06187 0.0388559 0)
(0.887019 -0.109497 0)
(1.0927 0.0642408 0)
(0.83783 -0.152984 0)
(1.15997 0.0352015 0)
(0.788383 -0.165939 0)
(1.22945 0.0147749 0)
(0.655454 -0.133795 0)
(1.24866 -0.141994 0)
(0.639843 -0.0871659 0)
(0.94054 -0.0193025 0)
(0.901945 0.0189879 0)
(0.93753 -0.0289845 0)
(0.898603 0.0121527 0)
(0.942568 -0.0570188 0)
(0.921968 -0.00616839 0)
(0.953583 -0.0755761 0)
(0.928334 -0.00617942 0)
(0.962318 -0.0785314 0)
(0.928584 0.0228351 0)
(0.971641 -0.0755029 0)
(0.940148 0.0333334 0)
(0.979696 -0.0577389 0)
(0.970709 0.0200275 0)
(0.982794 -0.134599 0)
(0.981709 0.0586799 0)
(1.03901 -0.196752 0)
(0.849532 0.217714 0)
(0.999889 -0.33086 0)
(0.524656 0.758248 0)
(0.958093 0.0330106 0)
(0.88022 -0.0414849 0)
(0.959682 0.0310204 0)
(0.870121 -0.0632181 0)
(0.958333 0.00573009 0)
(0.848129 -0.0974673 0)
(0.911945 -0.00393908 0)
(0.782681 -0.103301 0)
(0.851873 0.0101572 0)
(0.723991 -0.102434 0)
(0.811588 0.0174732 0)
(0.684897 -0.114721 0)
(0.799958 0.0343141 0)
(0.706241 -0.16596 0)
(0.683716 0.0297188 0)
(0.70617 -0.21048 0)
(0.567037 0.10047 0)
(0.731284 -0.189752 0)
(0.801465 -0.0715211 0)
(0.170427 -0.0681344 0)
(0.909604 -0.0270909 0)
(0.926656 0.0285545 0)
(0.898578 -0.033882 0)
(0.902036 0.0239208 0)
(0.829015 -0.0489312 0)
(0.791288 0.0360721 0)
(0.711711 -0.0437795 0)
(0.671918 0.0396743 0)
(0.58585 -0.04416 0)
(0.578297 0.0630862 0)
(0.506982 -0.0550109 0)
(0.47196 0.0649403 0)
(0.411726 -0.0586161 0)
(0.39359 0.090604 0)
(0.244925 -0.110998 0)
(0.210847 0.120568 0)
(0.0253608 -0.170776 0)
(0.0903586 0.124885 0)
(-0.239707 0.0450387 0)
(0.0951874 0.827561 0)
(1.12118 -0.0413054 0)
(1.16469 -0.0666913 0)
(1.26614 -0.0762389 0)
(1.41156 -0.0480544 0)
(1.46677 -0.0711435 0)
(1.67451 -0.0658946 0)
(1.79056 -0.0949129 0)
(1.99881 -0.081835 0)
(1.11502 0.0363171 0)
(1.22593 -0.0778857 0)
(1.22861 0.00493309 0)
(1.47212 -0.0969568 0)
(1.44111 -0.049998 0)
(1.76213 -0.11569 0)
(1.75703 -0.0693029 0)
(2.06184 -0.117376 0)
(1.18581 -0.034419 0)
(1.06809 -0.177082 0)
(1.34699 -0.128383 0)
(1.37563 -0.186771 0)
(1.52421 -0.183363 0)
(1.71518 -0.206838 0)
(1.76216 -0.214002 0)
(2.05887 -0.251243 0)
(1.24298 0.00489881 0)
(1.1429 -0.23305 0)
(1.37802 -0.0915002 0)
(1.30169 -0.244831 0)
(1.61153 -0.201163 0)
(1.55722 -0.26037 0)
(1.92145 -0.259931 0)
(1.9402 -0.301679 0)
(1.09627 -0.0195289 0)
(1.10761 -0.306683 0)
(1.19907 -0.134665 0)
(1.39783 -0.354461 0)
(1.44004 -0.270406 0)
(1.7191 -0.371329 0)
(1.84263 -0.381391 0)
(2.00059 -0.408 0)
(1.30817 -0.0310352 0)
(1.01049 -0.357305 0)
(1.44329 -0.177942 0)
(1.31241 -0.42168 0)
(1.59228 -0.32873 0)
(1.73493 -0.468931 0)
(1.78428 -0.422167 0)
(2.13297 -0.514628 0)
(1.26141 -0.032739 0)
(1.07163 -0.419701 0)
(1.43895 -0.216642 0)
(1.28292 -0.500911 0)
(1.65702 -0.431289 0)
(1.55437 -0.512543 0)
(1.94427 -0.562093 0)
(2.12056 -0.613398 0)
(1.24196 -0.028752 0)
(1.05176 -0.503357 0)
(1.43379 -0.218511 0)
(1.29106 -0.583246 0)
(1.51478 -0.400699 0)
(1.70643 -0.657117 0)
(2.06309 -0.684422 0)
(2.21137 -0.735377 0)
(1.21273 -0.052888 0)
(1.09161 -0.566135 0)
(1.49227 -0.278349 0)
(1.07335 -0.600614 0)
(1.70981 -0.540489 0)
(1.842 -0.837504 0)
(2.12674 -0.791661 0)
(2.33309 -0.868515 0)
(0.96898 -0.0324145 0)
(1.16823 -0.662949 0)
(1.08636 -0.170342 0)
(1.22026 -0.815982 0)
(1.94962 -0.725862 0)
(1.82533 -0.949234 0)
(2.2151 -0.88119 0)
(2.33917 -0.970547 0)
(1.08869 -0.159101 0)
(0.961722 -0.603271 0)
(1.10168 -0.24923 0)
(1.53145 -1.07178 0)
(2.00104 -0.781942 0)
(1.80548 -1.04022 0)
(2.27557 -0.973072 0)
(2.29253 -1.05425 0)
(0.791988 -0.0805106 0)
(0.933997 -0.619954 0)
(1.36791 -0.477134 0)
(1.62411 -1.2269 0)
(1.96705 -0.810879 0)
(1.79307 -1.19101 0)
(2.31907 -1.04919 0)
(2.10043 -1.07456 0)
(0.404458 -0.160861 0)
(1.14118 -0.873095 0)
(1.4438 -0.70266 0)
(1.66507 -1.33046 0)
(1.91073 -0.845805 0)
(1.82925 -1.33059 0)
(2.2234 -1.0234 0)
(1.87721 -1.07552 0)
(0.605304 -0.184697 0)
(1.26987 -1.01351 0)
(1.54618 -0.862677 0)
(1.62911 -1.35791 0)
(1.85212 -0.874711 0)
(1.77609 -1.42961 0)
(2.06423 -0.971009 0)
(1.7906 -1.18888 0)
(0.606079 -0.455841 0)
(1.38042 -1.23324 0)
(1.54763 -1.03205 0)
(1.55808 -1.37866 0)
(1.79597 -0.956966 0)
(1.71259 -1.48855 0)
(1.93067 -0.913345 0)
(1.7351 -1.33348 0)
(0.837835 -0.472354 0)
(1.4137 -1.2596 0)
(1.54602 -1.09537 0)
(1.48557 -1.35006 0)
(1.73902 -1.01403 0)
(1.58731 -1.48746 0)
(1.75626 -0.872995 0)
(1.79164 -1.56527 0)
(0.851515 -0.958521 0)
(1.39948 -1.43405 0)
(1.41107 -1.23011 0)
(1.38673 -1.37155 0)
(1.60037 -1.10493 0)
(1.43361 -1.48997 0)
(1.72337 -0.959391 0)
(1.78212 -1.76792 0)
(0.997046 -0.984236 0)
(1.33393 -1.31865 0)
(1.29875 -1.20656 0)
(1.32266 -1.32405 0)
(1.47108 -1.14325 0)
(1.34799 -1.46962 0)
(1.62897 -1.05883 0)
(1.69068 -1.90425 0)
(0.932776 -1.63866 0)
(1.20851 -1.54084 0)
(1.13329 -1.36459 0)
(1.21053 -1.38105 0)
(1.32778 -1.23361 0)
(1.21525 -1.48036 0)
(1.56977 -1.22303 0)
(1.51557 -1.98646 0)
(1.00408 -1.53665 0)
(1.15445 -1.28962 0)
(1.06918 -1.25794 0)
(1.19857 -1.3056 0)
(1.20654 -1.23725 0)
(1.19643 -1.43999 0)
(1.38492 -1.33187 0)
(1.20947 -1.83096 0)
(2.13253 -0.119036 0)
(2.35094 -0.10795 0)
(2.50357 -0.132835 0)
(2.71921 -0.11455 0)
(2.88692 -0.122611 0)
(3.07686 -0.0950839 0)
(3.23418 -0.107794 0)
(3.3924 -0.0765851 0)
(3.52547 -0.0902592 0)
(3.62118 -0.0552184 0)
(3.7234 -0.0727333 0)
(3.74944 -0.0337769 0)
(3.80068 -0.0554522 0)
(3.76007 -0.0153803 0)
(3.75762 -0.0413748 0)
(3.65798 -0.000664694 0)
(3.61088 -0.0343969 0)
(3.47305 0.00767382 0)
(3.39682 -0.0353702 0)
(3.24694 0.00948707 0)
(3.15377 -0.0460571 0)
(3.03158 0.00735768 0)
(2.9273 -0.0654394 0)
(2.86596 -0.000496028 0)
(2.77004 -0.0958771 0)
(2.79542 -0.0119101 0)
(2.75613 -0.162253 0)
(2.96498 -0.0855106 0)
(2.13312 -0.0625944 0)
(2.39877 -0.107053 0)
(2.52992 -0.0561424 0)
(2.75626 -0.098625 0)
(2.88878 -0.0624528 0)
(3.09449 -0.0938444 0)
(3.22815 -0.0527185 0)
(3.40061 -0.0755958 0)
(3.51008 -0.0325934 0)
(3.63805 -0.0431668 0)
(3.70012 0.00302948 0)
(3.77081 -0.0027926 0)
(3.77263 0.0462159 0)
(3.78204 0.0399679 0)
(3.71932 0.088055 0)
(3.68043 0.0766267 0)
(3.56377 0.119529 0)
(3.49533 0.100183 0)
(3.34124 0.138124 0)
(3.26661 0.109098 0)
(3.09592 0.141397 0)
(3.03695 0.103488 0)
(2.87624 0.131284 0)
(2.84842 0.0848572 0)
(2.71912 0.102974 0)
(2.74081 0.043589 0)
(2.67063 0.0278485 0)
(2.71805 -0.10574 0)
(2.08307 -0.251788 0)
(2.42091 -0.279368 0)
(2.4372 -0.267804 0)
(2.80532 -0.281312 0)
(2.82041 -0.260609 0)
(3.1647 -0.252533 0)
(3.18175 -0.234836 0)
(3.49174 -0.211262 0)
(3.47917 -0.188219 0)
(3.7438 -0.146991 0)
(3.67685 -0.118285 0)
(3.88266 -0.067803 0)
(3.74592 -0.0388731 0)
(3.89472 0.0102184 0)
(3.68428 0.0328496 0)
(3.78869 0.073228 0)
(3.51695 0.0837318 0)
(3.59608 0.110705 0)
(3.27948 0.108531 0)
(3.35792 0.119767 0)
(3.02225 0.106855 0)
(3.12269 0.0993158 0)
(2.78713 0.0793055 0)
(2.93243 0.051324 0)
(2.6203 0.0326776 0)
(2.81993 -0.0415232 0)
(2.55693 -0.0537533 0)
(2.81077 -0.250207 0)
(2.2496 -0.278944 0)
(2.36896 -0.31289 0)
(2.57954 -0.274496 0)
(2.79232 -0.31223 0)
(2.93113 -0.264389 0)
(3.19587 -0.291621 0)
(3.2846 -0.239005 0)
(3.5488 -0.236015 0)
(3.58904 -0.176263 0)
(3.80772 -0.149061 0)
(3.79477 -0.080683 0)
(3.94093 -0.0403857 0)
(3.86906 0.0305548 0)
(3.93686 0.068186 0)
(3.8136 0.132093 0)
(3.81223 0.155754 0)
(3.64826 0.205141 0)
(3.60191 0.210463 0)
(3.41119 0.243651 0)
(3.34889 0.225596 0)
(3.14786 0.24404 0)
(3.10046 0.205938 0)
(2.90995 0.208142 0)
(2.89036 0.150647 0)
(2.73548 0.138395 0)
(2.75362 0.0536522 0)
(2.63768 0.00941593 0)
(2.70482 -0.134141 0)
(2.27635 -0.429659 0)
(2.35705 -0.431949 0)
(2.69882 -0.44489 0)
(2.7932 -0.450561 0)
(3.0917 -0.429599 0)
(3.22627 -0.429859 0)
(3.44352 -0.382732 0)
(3.58728 -0.361169 0)
(3.73231 -0.295547 0)
(3.84055 -0.244121 0)
(3.91891 -0.166303 0)
(3.96229 -0.0989398 0)
(3.97608 -0.0200751 0)
(3.94833 0.045647 0)
(3.90324 0.110889 0)
(3.81937 0.161729 0)
(3.72515 0.204503 0)
(3.60812 0.231687 0)
(3.47822 0.251549 0)
(3.35399 0.250235 0)
(3.21099 0.247972 0)
(3.09204 0.222278 0)
(2.97777 0.203259 0)
(2.85877 0.147448 0)
(2.80098 0.120967 0)
(2.69203 0.0260091 0)
(2.68693 -0.0262614 0)
(2.57821 -0.168477 0)
(2.2164 -0.48229 0)
(2.52474 -0.531733 0)
(2.74064 -0.520142 0)
(2.93261 -0.523172 0)
(3.19589 -0.500135 0)
(3.31279 -0.487828 0)
(3.53235 -0.431502 0)
(3.64114 -0.401623 0)
(3.7848 -0.313807 0)
(3.88063 -0.257329 0)
(3.93459 -0.150548 0)
(4.00492 -0.0784965 0)
(3.96008 0.0275314 0)
(4.00472 0.0962453 0)
(3.86607 0.186354 0)
(3.8933 0.235024 0)
(3.68063 0.301978 0)
(3.69637 0.320594 0)
(3.44106 0.359374 0)
(3.44701 0.344282 0)
(3.19211 0.360524 0)
(3.18191 0.308814 0)
(2.96965 0.307054 0)
(2.95064 0.222629 0)
(2.79019 0.202856 0)
(2.78317 0.0898116 0)
(2.65995 0.0455636 0)
(2.64565 -0.0984032 0)
(2.35253 -0.623588 0)
(2.6699 -0.677921 0)
(2.80444 -0.652883 0)
(3.07141 -0.660677 0)
(3.18673 -0.620455 0)
(3.3481 -0.595669 0)
(3.49348 -0.540832 0)
(3.61639 -0.487009 0)
(3.73045 -0.399237 0)
(3.83884 -0.318381 0)
(3.86961 -0.205608 0)
(3.95279 -0.109962 0)
(3.88466 0.00187678 0)
(3.94309 0.0929795 0)
(3.79271 0.1874 0)
(3.82387 0.253127 0)
(3.62689 0.320915 0)
(3.62647 0.34941 0)
(3.41845 0.387844 0)
(3.3839 0.373824 0)
(3.19814 0.391189 0)
(3.1463 0.334678 0)
(2.97803 0.331186 0)
(2.95401 0.241922 0)
(2.78229 0.218112 0)
(2.82245 0.0968754 0)
(2.62227 0.0548902 0)
(2.72258 -0.100791 0)
(2.55323 -0.76821 0)
(2.69012 -0.772174 0)
(2.87769 -0.736593 0)
(3.01324 -0.711573 0)
(3.11235 -0.65457 0)
(3.28554 -0.640961 0)
(3.40914 -0.572459 0)
(3.54907 -0.522863 0)
(3.67085 -0.425233 0)
(3.7517 -0.335745 0)
(3.80776 -0.202162 0)
(3.82994 -0.0982908 0)
(3.81819 0.036713 0)
(3.78388 0.131737 0)
(3.73408 0.24697 0)
(3.64673 0.313302 0)
(3.5839 0.396795 0)
(3.45264 0.422431 0)
(3.39116 0.46924 0)
(3.23729 0.454624 0)
(3.17467 0.466879 0)
(3.0398 0.414345 0)
(2.96001 0.38938 0)
(2.88037 0.312312 0)
(2.77996 0.259515 0)
(2.76144 0.160367 0)
(2.63455 0.0922019 0)
(2.65987 -0.0353309 0)
(2.55523 -0.865163 0)
(2.64727 -0.839933 0)
(2.7934 -0.797717 0)
(2.88215 -0.765333 0)
(3.0697 -0.75368 0)
(3.21267 -0.738118 0)
(3.36882 -0.673704 0)
(3.48857 -0.616759 0)
(3.59472 -0.505824 0)
(3.62701 -0.386788 0)
(3.68176 -0.241713 0)
(3.65416 -0.117124 0)
(3.64803 0.0299203 0)
(3.58431 0.135272 0)
(3.54735 0.257239 0)
(3.45439 0.330638 0)
(3.40749 0.41489 0)
(3.29362 0.446536 0)
(3.23474 0.493936 0)
(3.11732 0.488639 0)
(3.04065 0.489226 0)
(2.93918 0.45087 0)
(2.85043 0.40913 0)
(2.77892 0.339357 0)
(2.70351 0.270608 0)
(2.64062 0.182075 0)
(2.59584 0.092233 0)
(2.5101 -0.00363293 0)
(2.51091 -0.922888 0)
(2.55494 -0.888817 0)
(2.71169 -0.847702 0)
(2.86402 -0.849139 0)
(3.04191 -0.839073 0)
(3.15918 -0.800844 0)
(3.28463 -0.726671 0)
(3.34981 -0.649154 0)
(3.39757 -0.504715 0)
(3.41214 -0.376023 0)
(3.44111 -0.216799 0)
(3.37193 -0.0801079 0)
(3.37745 0.0753072 0)
(3.28622 0.18175 0)
(3.26257 0.314383 0)
(3.16896 0.383654 0)
(3.13131 0.473687 0)
(3.05413 0.497577 0)
(2.99996 0.55035 0)
(2.94272 0.541754 0)
(2.85613 0.550238 0)
(2.81599 0.496077 0)
(2.71704 0.468039 0)
(2.6739 0.376053 0)
(2.6018 0.327596 0)
(2.55169 0.212242 0)
(2.51027 0.156299 0)
(2.42828 0.0286413 0)
(2.38753 -0.95814 0)
(2.4506 -0.940176 0)
(2.6917 -0.938735 0)
(2.81092 -0.938034 0)
(2.95977 -0.913492 0)
(3.00997 -0.855759 0)
(3.08987 -0.775355 0)
(3.09111 -0.670382 0)
(3.11844 -0.529138 0)
(3.1275 -0.392124 0)
(3.07438 -0.217414 0)
(3.04394 -0.0749706 0)
(2.99845 0.0791429 0)
(2.94374 0.193864 0)
(2.89338 0.323189 0)
(2.84144 0.398709 0)
(2.77353 0.480759 0)
(2.75572 0.519028 0)
(2.6807 0.55594 0)
(2.70313 0.553147 0)
(2.60326 0.561558 0)
(2.62532 0.518837 0)
(2.52328 0.479026 0)
(2.54026 0.390772 0)
(2.43604 0.332321 0)
(2.45866 0.222662 0)
(2.35565 0.161186 0)
(2.36544 0.0418603 0)
(2.25895 -0.973818 0)
(2.45255 -1.04388 0)
(2.66353 -1.02343 0)
(2.74893 -0.999912 0)
(2.80193 -0.947909 0)
(2.78236 -0.86149 0)
(2.82063 -0.772236 0)
(2.76345 -0.667996 0)
(2.80436 -0.5152 0)
(2.68211 -0.350073 0)
(2.68933 -0.174872 0)
(2.57479 -0.0393284 0)
(2.5837 0.118562 0)
(2.47326 0.235731 0)
(2.49624 0.359468 0)
(2.43014 0.440256 0)
(2.40547 0.504528 0)
(2.38983 0.543762 0)
(2.35427 0.593054 0)
(2.36876 0.581702 0)
(2.35257 0.584654 0)
(2.36279 0.542162 0)
(2.32668 0.513285 0)
(2.33947 0.425944 0)
(2.29049 0.368161 0)
(2.3045 0.257826 0)
(2.2398 0.203207 0)
(2.25737 0.0846427 0)
(2.28535 -1.0877 0)
(2.44173 -1.15684 0)
(2.62442 -1.07954 0)
(2.56663 -1.02019 0)
(2.50711 -0.930115 0)
(2.46845 -0.846309 0)
(2.42916 -0.776559 0)
(2.37166 -0.654094 0)
(2.28677 -0.480446 0)
(2.25341 -0.322395 0)
(2.13619 -0.153728 0)
(2.11008 -0.0112188 0)
(1.98525 0.141887 0)
(2.01917 0.237299 0)
(1.93044 0.350732 0)
(1.99093 0.445787 0)
(1.91263 0.507228 0)
(1.97814 0.52884 0)
(1.97415 0.559365 0)
(2.00642 0.565616 0)
(2.0187 0.572043 0)
(2.05341 0.52042 0)
(2.08245 0.485024 0)
(2.08597 0.40907 0)
(2.11271 0.348647 0)
(2.08805 0.246966 0)
(2.10819 0.185492 0)
(2.06692 0.0890816 0)
(2.31892 -1.22164 0)
(2.41625 -1.22818 0)
(2.45872 -1.06851 0)
(2.22838 -0.975581 0)
(2.16903 -0.895445 0)
(2.04387 -0.825948 0)
(1.97092 -0.731499 0)
(1.78118 -0.595511 0)
(1.80243 -0.452265 0)
(1.60866 -0.275686 0)
(1.61305 -0.107638 0)
(1.4673 0.0375893 0)
(1.49037 0.164183 0)
(1.39841 0.266596 0)
(1.42889 0.378716 0)
(1.42904 0.454132 0)
(1.48839 0.500848 0)
(1.48241 0.54043 0)
(1.5682 0.573684 0)
(1.62178 0.552891 0)
(1.69225 0.569268 0)
(1.73022 0.519391 0)
(1.79038 0.496678 0)
(1.84699 0.409659 0)
(1.8878 0.366538 0)
(1.9218 0.258054 0)
(1.92434 0.218014 0)
(1.94363 0.107507 0)
(2.38444 -1.33945 0)
(2.27311 -1.23052 0)
(2.13592 -0.971561 0)
(1.8221 -0.895091 0)
(1.67575 -0.816656 0)
(1.51567 -0.733425 0)
(1.30918 -0.64776 0)
(1.23205 -0.558665 0)
(1.02482 -0.381785 0)
(0.978358 -0.219544 0)
(0.867491 -0.077452 0)
(0.845989 0.0485436 0)
(0.773499 0.189295 0)
(0.812666 0.250744 0)
(0.792492 0.35029 0)
(0.920869 0.420938 0)
(0.906899 0.477247 0)
(1.0509 0.477482 0)
(1.1065 0.503903 0)
(1.22554 0.513298 0)
(1.29549 0.517786 0)
(1.40837 0.456425 0)
(1.47215 0.436126 0)
(1.57492 0.357076 0)
(1.62298 0.31952 0)
(1.69965 0.216178 0)
(1.72051 0.18399 0)
(1.76228 0.0873412 0)
(2.3529 -1.40661 0)
(1.94656 -1.12518 0)
(1.70489 -0.815786 0)
(1.24395 -0.762681 0)
(1.16893 -0.730177 0)
(0.872403 -0.669178 0)
(0.784574 -0.582503 0)
(0.418158 -0.446778 0)
(0.440855 -0.325015 0)
(0.173388 -0.179875 0)
(0.26764 -0.0363576 0)
(0.0510605 0.0889434 0)
(0.222816 0.191082 0)
(0.0984002 0.263222 0)
(0.251914 0.337139 0)
(0.288661 0.395387 0)
(0.45179 0.446369 0)
(0.516439 0.452191 0)
(0.693945 0.472677 0)
(0.782976 0.466342 0)
(0.979092 0.483044 0)
(1.03521 0.427017 0)
(1.2 0.412332 0)
(1.2782 0.33527 0)
(1.41844 0.302424 0)
(1.45321 0.2135 0)
(1.5466 0.189771 0)
(1.57059 0.101727 0)
(2.16292 -1.31574 0)
(1.48343 -0.912219 0)
(1.17536 -0.624691 0)
(0.75057 -0.67177 0)
(0.53473 -0.617331 0)
(0.303725 -0.521235 0)
(-0.0749168 -0.443646 0)
(-0.190764 -0.386484 0)
(-0.471474 -0.243076 0)
(-0.494943 -0.145671 0)
(-0.610584 -0.00676504 0)
(-0.583566 0.0651904 0)
(-0.557065 0.17435 0)
(-0.503493 0.227681 0)
(-0.415174 0.277194 0)
(-0.253592 0.309784 0)
(-0.152508 0.366928 0)
(0.0557867 0.357852 0)
(0.170927 0.375287 0)
(0.367892 0.365484 0)
(0.554636 0.39242 0)
(0.691221 0.339391 0)
(0.845729 0.321798 0)
(0.967528 0.241637 0)
(1.10658 0.234216 0)
(1.17819 0.144487 0)
(1.28618 0.136389 0)
(1.31176 0.0628631 0)
(1.88316 -1.15895 0)
(0.893474 -0.703004 0)
(0.653541 -0.390777 0)
(0.0146231 -0.44685 0)
(-0.0689779 -0.490325 0)
(-0.522836 -0.37829 0)
(-0.62053 -0.312682 0)
(-1.09709 -0.245766 0)
(-1.06031 -0.169978 0)
(-1.39475 -0.0868182 0)
(-1.22039 0.00506029 0)
(-1.43125 0.0778052 0)
(-1.17161 0.150324 0)
(-1.25472 0.190182 0)
(-0.929683 0.222831 0)
(-0.96202 0.263549 0)
(-0.62082 0.294849 0)
(-0.532863 0.287896 0)
(-0.256443 0.304407 0)
(-0.14234 0.290838 0)
(0.1663 0.323563 0)
(0.255725 0.279664 0)
(0.553729 0.263518 0)
(0.580354 0.207777 0)
(0.84737 0.189318 0)
(0.824931 0.131594 0)
(1.03089 0.11754 0)
(0.979457 0.0660815 0)
(1.40429 -0.646077 0)
(0.214535 -0.318674 0)
(0.0304468 -0.21431 0)
(-0.458355 -0.357294 0)
(-0.815872 -0.312211 0)
(-1.22218 -0.273382 0)
(-1.41736 -0.190961 0)
(-1.72962 -0.180451 0)
(-1.83446 -0.0924652 0)
(-2.00794 -0.0798186 0)
(-1.98191 0.0112822 0)
(-2.01314 0.0286122 0)
(-1.87261 0.086747 0)
(-1.79462 0.103781 0)
(-1.59314 0.139399 0)
(-1.47273 0.135255 0)
(-1.18503 0.157361 0)
(-1.0369 0.16444 0)
(-0.779856 0.173363 0)
(-0.596547 0.156713 0)
(-0.31841 0.181224 0)
(-0.141384 0.140412 0)
(0.109216 0.151314 0)
(0.211225 0.0971127 0)
(0.452126 0.105411 0)
(0.454618 0.0542104 0)
(0.699433 0.057543 0)
(0.6056 0.0345129 0)
(0.924571 -0.594652 0)
(-0.813995 -0.0917721 0)
(-0.070312 0.00738689 0)
(-1.16358 -0.0429037 0)
(-0.997927 -0.0884801 0)
(-1.94338 -0.0579003 0)
(-1.74469 -0.0509513 0)
(-2.4592 -0.0321175 0)
(-2.20095 -0.0150909 0)
(-2.68851 -0.00821817 0)
(-2.3815 0.0105523 0)
(-2.66946 0.0295897 0)
(-2.26295 0.0413022 0)
(-2.43323 0.0606174 0)
(-1.91799 0.0659456 0)
(-2.03748 0.0633834 0)
(-1.52548 0.0743362 0)
(-1.58801 0.0835546 0)
(-1.03081 0.0787993 0)
(-1.09965 0.0727602 0)
(-0.553106 0.0804854 0)
(-0.617937 0.0708944 0)
(-0.11115 0.0731563 0)
(-0.205863 0.0521477 0)
(0.227682 0.0520676 0)
(0.0701293 0.0260531 0)
(0.423143 0.0361099 0)
(0.225946 0.0255449 0)
(3.05874 -0.407228 0)
(3.09528 -0.956651 0)
(2.52443 -0.989813 0)
(2.21008 -1.22616 0)
(1.71588 -1.311 0)
(1.36173 -1.55503 0)
(0.87448 -1.28773 0)
(-0.149114 -0.929726 0)
(2.7476 -0.391108 0)
(2.309 -0.746522 0)
(1.93086 -0.92343 0)
(1.90638 -1.21144 0)
(1.59366 -1.241 0)
(1.35143 -1.30994 0)
(1.02495 -1.01091 0)
(0.666446 -0.956752 0)
(2.60034 -0.290808 0)
(2.73109 -0.620536 0)
(2.56643 -0.776355 0)
(2.38777 -0.970797 0)
(1.88331 -0.920257 0)
(1.5884 -1.17594 0)
(1.07095 -0.832566 0)
(0.0812754 -0.229049 0)
(2.52163 -0.267051 0)
(2.5785 -0.567856 0)
(2.0319 -0.704587 0)
(1.78607 -0.866443 0)
(1.39106 -0.913544 0)
(1.24877 -0.911366 0)
(0.29808 -0.463952 0)
(0.802029 -0.526346 0)
(2.58546 -0.287704 0)
(2.43568 -0.442834 0)
(2.30056 -0.526909 0)
(2.32023 -0.693771 0)
(2.03539 -0.667458 0)
(1.86135 -0.60896 0)
(1.39627 -0.472967 0)
(1.2035 -0.39107 0)
(2.54533 -0.193724 0)
(2.41526 -0.348805 0)
(2.3298 -0.516232 0)
(1.94973 -0.625543 0)
(1.56319 -0.608047 0)
(1.43127 -0.646618 0)
(1.127 -0.244081 0)
(1.03483 -0.214445 0)
(2.46775 -0.165441 0)
(2.55976 -0.343765 0)
(2.29563 -0.383805 0)
(2.21998 -0.438564 0)
(2.13863 -0.463032 0)
(2.01425 -0.451987 0)
(1.8223 -0.250566 0)
(1.7314 -0.303044 0)
(2.47554 -0.100618 0)
(2.52799 -0.266412 0)
(2.20615 -0.270979 0)
(2.27546 -0.464457 0)
(1.84785 -0.389613 0)
(1.61336 -0.420508 0)
(1.36163 -0.152616 0)
(1.26867 -0.062676 0)
(2.4699 -0.107247 0)
(2.36995 -0.200742 0)
(2.23014 -0.264608 0)
(2.21437 -0.339535 0)
(1.88153 -0.223677 0)
(2.04557 -0.288202 0)
(1.77176 -0.103142 0)
(1.8909 -0.155026 0)
(2.40468 -0.0323217 0)
(2.26162 -0.139022 0)
(2.24118 -0.18689 0)
(2.04765 -0.244364 0)
(1.93973 -0.23382 0)
(1.84047 -0.277365 0)
(1.49717 -0.0966441 0)
(1.63609 -0.0736368 0)
(2.25053 -0.0140972 0)
(2.22699 -0.123734 0)
(2.11648 -0.148067 0)
(2.00484 -0.207726 0)
(1.95749 -0.17406 0)
(1.78749 -0.131172 0)
(1.7928 -0.0325679 0)
(1.66939 0.0250351 0)
(2.14623 0.0392371 0)
(2.17059 -0.0678796 0)
(1.99578 -0.0730211 0)
(2.02738 -0.154553 0)
(1.82944 -0.0969913 0)
(1.83541 -0.136701 0)
(1.68504 -0.029197 0)
(1.69667 -0.00482945 0)
(2.05919 0.0311758 0)
(2.00595 -0.0445752 0)
(1.94987 -0.0799107 0)
(1.90994 -0.117614 0)
(1.80613 -0.09547 0)
(1.80554 -0.0876451 0)
(1.6889 0.00809079 0)
(1.73502 0.0475387 0)
(1.90276 0.0779095 0)
(1.91314 -0.0116027 0)
(1.84253 -0.0286592 0)
(1.83944 -0.0774956 0)
(1.75374 -0.0467859 0)
(1.75214 -0.0539595 0)
(1.66631 0.0223568 0)
(1.69675 0.0431297 0)
(1.73479 0.0547774 0)
(1.7634 -0.0211652 0)
(1.69089 -0.0337519 0)
(1.72456 -0.076022 0)
(1.62761 -0.051546 0)
(1.66354 -0.0567691 0)
(1.57151 0.0271933 0)
(1.62936 0.040369 0)
(1.57808 0.0826777 0)
(1.5918 0.00515414 0)
(1.54621 -0.0149727 0)
(1.57334 -0.037056 0)
(1.50351 -0.017517 0)
(1.53392 -0.0236841 0)
(1.46725 0.0508524 0)
(1.51598 0.0437155 0)
(1.35743 0.0514651 0)
(1.35217 -0.000613188 0)
(1.31687 -0.0231594 0)
(1.32143 -0.059903 0)
(1.28098 -0.0356223 0)
(1.27877 -0.0359427 0)
(1.25591 0.0397965 0)
(1.28788 0.0236557 0)
(1.08119 0.0627955 0)
(1.04951 0.0189799 0)
(1.09808 0.00324711 0)
(1.01756 -0.0128863 0)
(1.04001 0.00295274 0)
(1.00512 -0.00962002 0)
(0.999425 0.0510396 0)
(0.9796 0.0303944 0)
(0.800026 0.0175636 0)
(0.704983 -0.00304786 0)
(0.772078 -0.00842144 0)
(0.670187 -0.0397886 0)
(0.741039 -0.0267181 0)
(0.63435 -0.0123206 0)
(0.739062 0.0461264 0)
(0.718027 -0.00194958 0)
(0.560427 0.0165507 0)
(0.286783 0.0298467 0)
(0.620666 0.0168669 0)
(0.302943 0.00947697 0)
(0.560886 0.0173472 0)
(0.278336 -0.00904449 0)
(0.525177 0.0185393 0)
(0.395103 0.0202747 0)
(-0.814161 -0.59572 0)
(0.384622 0.13011 0)
(0.761303 0.511074 0)
(0.95114 0.575834 8.9572e-18)
(1.49508 0.787667 6.72386e-19)
(1.74133 0.669167 0)
(2.27546 0.615674 5.31382e-18)
(2.00808 0.452077 3.05644e-19)
(2.23334 0.44756 3.98233e-18)
(1.98167 0.362773 3.84369e-18)
(2.32703 0.398857 0)
(2.05477 0.323721 3.21868e-18)
(2.4618 0.379535 -1.35235e-19)
(2.18189 0.311826 2.64412e-18)
(2.6026 0.379534 3.22361e-20)
(2.34927 0.314079 -3.55615e-20)
(2.74454 0.396064 -7.87201e-19)
(2.55918 0.319036 5.60289e-19)
(2.90834 0.405282 6.15788e-21)
(2.79146 0.139033 1.01786e-21)
(0.0841807 -0.630743 0)
(0.657091 -0.0370674 0)
(0.888366 0.407408 -3.98809e-19)
(1.13878 0.615636 -1.84181e-17)
(1.53162 0.839129 -4.74829e-19)