/*--------------------------------*- C++ -*----------------------------------*\
| =========                 |                                                 |
| \\      /  F ield         | OpenFOAM: The Open Source CFD Toolbox           |
|  \\    /   O peration     | Version:  2.4.0                                 |
|   \\  /    A nd           | Web:      www.OpenFOAM.org                      |
|    \\/     M anipulation  |                                                 |
\*---------------------------------------------------------------------------*/
FoamFile
{
    version     2.0;
    format      ascii;
    class       volScalarField;
    location    "1.89";
    object      k;
}
// * * * * * * * * * * * * * * * * * * * * * * * * * * * * * * * * * * * * * //

dimensions      [0 2 -2 0 0 0 0];

internalField   nonuniform List<scalar> 
6000
(
0.168236
0.0132443
0.000992256
0.00361393
0.00251566
0.00295418
0.00245991
0.0024443
0.00225333
0.00231167
0.00223968
0.00197363
0.00126843
0.00050141
0.000594495
0.00132368
0.0016423
0.001261
0.0014255
0.00498981
0.0106464
0.0173643
0.0238466
0.0289306
0.0317551
0.0317733
0.0288539
0.0234602
0.0165063
0.00921865
0.00319698
0.00101313
0.00326
0.00540976
0.00678839
0.00745159
0.00761688
0.00751912
0.0073542
0.00726197
0.00733437
0.00762807
0.00817805
0.00900721
0.0101286
0.0115524
0.0132773
0.0153129
0.0176374
0.0202971
0.0232059
0.0265987
0.0300908
0.0347202
0.0386805
0.0463249
0.0496452
0.0662037
0.0643416
0.104675
0.076209
0.0101381
0.000954316
0.00240135
0.00172076
0.00193953
0.00163302
0.0016047
0.00148533
0.00150668
0.0014473
0.00126424
0.000825538
0.000372348
0.000498853
0.000927452
0.00109322
0.00091534
0.00130059
0.00333966
0.00607535
0.00893778
0.0114104
0.0131233
0.0138581
0.0135064
0.012132
0.00991826
0.00714763
0.00417919
0.00161922
0.000869259
0.0020072
0.00297116
0.00357445
0.00386698
0.00394848
0.00392158
0.00387216
0.00386184
0.0039314
0.00410545
0.00439928
0.00482145
0.00537589
0.00606523
0.00688803
0.00784796
0.00893734
0.0101767
0.0115366
0.0131141
0.0147692
0.0169138
0.0188687
0.0223341
0.0242533
0.0314531
0.0317471
0.0484393
0.0412231
0.00802333
0.000980696
0.00168644
0.0012284
0.00132489
0.0011247
0.00109403
0.00101767
0.00102237
0.000974165
0.000844553
0.000566217
0.000302372
0.000425724
0.000687343
0.00079175
0.000757073
0.00120263
0.00244874
0.0038781
0.00517354
0.00612412
0.006632
0.0066816
0.00630045
0.00558287
0.00459111
0.00340679
0.00212757
0.000996029
0.000759511
0.00129899
0.00173698
0.00201438
0.00215483
0.00220173
0.00220111
0.00219266
0.00220561
0.00225931
0.00236534
0.00253088
0.00275917
0.00305149
0.00340869
0.00383024
0.00431814
0.00487034
0.00549675
0.00618811
0.00698642
0.00784128
0.00892256
0.00997106
0.0116756
0.0128377
0.0162129
0.0169641
0.024281
0.0260626
0.00677079
0.00107656
0.00126672
0.000920517
0.000943392
0.000803933
0.00077438
0.000724573
0.000722501
0.000684439
0.000592394
0.000415697
0.000267774
0.0003746
0.000544769
0.000632557
0.000697044
0.00112743
0.00192748
0.00271164
0.00330779
0.00364646
0.00373479
0.00361753
0.00335254
0.00298715
0.00252556
0.00198091
0.00137604
0.000815859
0.000702003
0.000914146
0.00109734
0.00122124
0.00128931
0.00131707
0.00132395
0.0013283
0.00134462
0.00138257
0.00144819
0.00154485
0.00167383
0.0018357
0.00203095
0.00225971
0.00252339
0.00282205
0.00316088
0.00353784
0.00397183
0.0044459
0.00503194
0.0056326
0.00653277
0.0072615
0.00895135
0.009668
0.0130227
0.0187961
0.00609049
0.00123713
0.00103361
0.000730878
0.000703942
0.000598321
0.000570397
0.000537411
0.00053366
0.000505153
0.000441453
0.000331818
0.000255035
0.000343479
0.000465342
0.000557753
0.000686642
0.00107169
0.0016058
0.00205335
0.00233437
0.00245083
0.00244527
0.00236627
0.00225637
0.0021024
0.00188451
0.00159338
0.00123511
0.00086448
0.000718866
0.000735736
0.00077508
0.000811663
0.000835985
0.000848236
0.000853731
0.000859604
0.000872746
0.000897964
0.000938686
0.000996267
0.0010713
0.00116413
0.00127521
0.00140497
0.00155451
0.0017246
0.00191817
0.00213559
0.00238574
0.00266397
0.00300134
0.00336332
0.00386889
0.00433749
0.00523518
0.00580028
0.00739814
0.0150485
0.0057656
0.00145271
0.000927234
0.000621393
0.000554988
0.000466378
0.000439279
0.000417204
0.000414591
0.000395352
0.000354125
0.000289961
0.000256509
0.000329703
0.00042812
0.000533442
0.000700669
0.00103492
0.00140944
0.00168892
0.00185395
0.0019386
0.00198578
0.00202445
0.00205611
0.00202978
0.00191751
0.00170535
0.00140022
0.00104604
0.000817737
0.000698853
0.000637345
0.000609957
0.000598991
0.000594841
0.000593896
0.000596279
0.000604212
0.00061969
0.000644505
0.000678936
0.000723246
0.000777692
0.000842663
0.000918664
0.00100658
0.00110728
0.00122259
0.0013535
0.00150443
0.00167497
0.00187885
0.00210545
0.00240463
0.00271138
0.00321484
0.00362965
0.00441719
0.0130158
0.00565579
0.00171194
0.000913041
0.000570075
0.000466626
0.000383623
0.00035592
0.00034104
0.000341225
0.000331095
0.000308212
0.000275343
0.000267924
0.000330339
0.000419583
0.000539517
0.00072757
0.00101924
0.00130626
0.00152309
0.00168756
0.00183999
0.00200366
0.00217782
0.00231262
0.00235274
0.00227022
0.00205425
0.00171626
0.00131023
0.000991457
0.000763863
0.000616631
0.000531041
0.000484888
0.000461472
0.000450445
0.000446611
0.000448677
0.00045662
0.000470854
0.000491058
0.000517226
0.000549485
0.000588125
0.000633586
0.000686548
0.000747789
0.00081852
0.000899759
0.000993868
0.0011017
0.00122952
0.00137533
0.00156006
0.00176348
0.00205999
0.00235386
0.00275626
0.0118774
0.00567232
0.00200253
0.000969524
0.000564691
0.000421314
0.000335327
0.000305208
0.000295032
0.000299024
0.000297846
0.000290127
0.000278927
0.00028693
0.000342745
0.000430738
0.00056408
0.000763464
0.00102802
0.00128147
0.00150718
0.00174142
0.00201199
0.00230864
0.00259549
0.00278899
0.00284819
0.00275273
0.00249767
0.00209729
0.00162621
0.00122334
0.000902142
0.000675045
0.000530845
0.00044644
0.000400085
0.000375817
0.000363793
0.000359584
0.000361331
0.00036819
0.000379336
0.000394465
0.000413525
0.000436652
0.000464149
0.000496496
0.000534307
0.000578421
0.000629709
0.000689558
0.000759035
0.000841157
0.000936672
0.00105443
0.00119057
0.00137266
0.00157691
0.00179108
0.0112299
0.00575901
0.00231176
0.00108271
0.000597427
0.000408888
0.000312575
0.000277886
0.000270549
0.00027892
0.00028647
0.000291332
0.000295183
0.000312265
0.000364703
0.000455589
0.000600574
0.000808433
0.00106454
0.00132673
0.00161166
0.00195808
0.00236535
0.00278117
0.00313944
0.00335115
0.00339682
0.00326693
0.00296231
0.00249715
0.00197269
0.00149435
0.00109056
0.000787911
0.000584004
0.000457887
0.000384916
0.000344498
0.000322529
0.00031153
0.00030775
0.000309112
0.000314231
0.000322455
0.000333494
0.000347291
0.000363968
0.000383809
0.000407244
0.000434856
0.000467345
0.000505609
0.000550622
0.000603962
0.00066703
0.000743617
0.000835169
0.000950722
0.00109117
0.00121057
0.0108617
0.0058805
0.00262706
0.00124154
0.000663455
0.000423831
0.000310081
0.000268263
0.000262128
0.00027511
0.00029108
0.000306412
0.000320835
0.000343331
0.000394544
0.000490198
0.000645939
0.000864298
0.00113125
0.00143608
0.00181602
0.00229708
0.00283671
0.00334225
0.00373113
0.00393069
0.00394182
0.00376664
0.00341161
0.00289321
0.00232932
0.00178745
0.0013109
0.000937402
0.000673912
0.000503625
0.000400975
0.000341831
0.000308272
0.000289809
0.000280694
0.000277586
0.000278443
0.0002822
0.000288285
0.000296413
0.000306504
0.000318645
0.00033308
0.000350194
0.000370526
0.000394709
0.000423574
0.000458051
0.000499524
0.000549664
0.000611182
0.000686125
0.000782055
0.000852055
0.0106566
0.00601497
0.00293695
0.00143581
0.000759401
0.00046335
0.00032494
0.000272919
0.0002663
0.000283822
0.000307856
0.000332014
0.000354124
0.000380002
0.000431249
0.000532491
0.000699341
0.000933436
0.00122983
0.00160473
0.00210424
0.00272628
0.00337959
0.00394337
0.0043301
0.00449486
0.00445606
0.00422833
0.00382431
0.00327013
0.00267955
0.00208818
0.00154945
0.00111058
0.000788842
0.000573178
0.000438678
0.000358707
0.000312069
0.000285375
0.000270808
0.000263711
0.000261295
0.000262021
0.000264994
0.00026968
0.000275787
0.0002832
0.000291985
0.00030235
0.000314692
0.000329478
0.000347419
0.000369141
0.000395869
0.000428378
0.000469337
0.000518384
0.000583516
0.000626686
0.0105485
0.00614957
0.00323183
0.00165537
0.000882815
0.000525514
0.000355899
0.000289957
0.000280913
0.000302614
0.000334371
0.000366231
0.000394346
0.000422562
0.000474487
0.000581786
0.000761318
0.00101827
0.00136135
0.00182834
0.00246193
0.00321879
0.00396171
0.00455639
0.00491479
0.00502609
0.00492435
0.00463791
0.00418621
0.00361622
0.00300916
0.00238381
0.00179532
0.0012981
0.000920507
0.000659189
0.000491446
0.000389048
0.000328054
0.000292351
0.000272035
0.000261095
0.000255916
0.000254433
0.000255399
0.000258019
0.000261781
0.000266373
0.000271682
0.000277754
0.000284852
0.000293322
0.000303783
0.000316712
0.000333189
0.000353605
0.000380292
0.000412207
0.000456084
0.000483993
0.0104983
0.00627728
0.00350459
0.00188996
0.00103082
0.000608871
0.000402962
0.000318562
0.000304729
0.000329947
0.000369168
0.000408181
0.000441537
0.000471681
0.000524596
0.000638438
0.000833208
0.00112107
0.00152638
0.00210213
0.00287493
0.00375271
0.00456126
0.00516387
0.00547177
0.00551335
0.0053372
0.00498648
0.00449098
0.00391934
0.00330579
0.00266271
0.002039
0.00149264
0.001063
0.000756537
0.0005547
0.000428657
0.000352237
0.000306786
0.000280337
0.0002655
0.000257771
0.000254519
0.000254126
0.000255524
0.000257984
0.000261002
0.000264291
0.000267741
0.000271486
0.000275766
0.000281126
0.000287962
0.000297261
0.000309241
0.000325929
0.000346196
0.000375411
0.000394229
0.0104825
0.00639477
0.00375071
0.00212967
0.00119963
0.000712567
0.000466157
0.000358742
0.00033718
0.000364919
0.00041146
0.000457692
0.000496245
0.000528381
0.000582506
0.000703539
0.000916771
0.00124381
0.00172472
0.00242022
0.00332936
0.00431077
0.00516286
0.00574944
0.00599141
0.00594911
0.00568868
0.00526877
0.00473766
0.00416885
0.00355915
0.00291435
0.00227158
0.0016877
0.00121175
0.000861641
0.000625318
0.000474673
0.000381902
0.000326014
0.000293011
0.000274106
0.000263859
0.000259041
0.000257641
0.000258319
0.000260131
0.000262391
0.000264645
0.000266633
0.000268361
0.00026997
0.00027194
0.000274609
0.000278917
0.000284996
0.000294679
0.000306908
0.00032605
0.000339243
0.0104868
0.00650094
0.00396814
0.00236545
0.00138431
0.000835565
0.0005454
0.000411191
0.000378236
0.000407077
0.00046089
0.000515053
0.000559342
0.000593966
0.000649598
0.000778636
0.00101388
0.00138794
0.00195508
0.0027754
0.00381218
0.00487912
0.00575489
0.00630459
0.00646631
0.00632823
0.0059756
0.00548261
0.00492694
0.00435887
0.00376156
0.00312969
0.00248465
0.00187702
0.00136265
0.000971781
0.000701178
0.000525212
0.000415271
0.000348292
0.0003083
0.000285091
0.000272247
0.000265909
0.000263664
0.000263893
0.000265445
0.000267463
0.000269338
0.000270666
0.000271333
0.000271376
0.000271216
0.000271138
0.000272067
0.000274081
0.000278926
0.000285616
0.000297937
0.00030759
0.0105024
0.00659597
0.00415689
0.00258966
0.00157899
0.000976099
0.000640697
0.000476673
0.000428327
0.000456302
0.000517338
0.000580804
0.00063187
0.000669927
0.000727544
0.000865469
0.00112622
0.00155416
0.00221478
0.00315944
0.00431144
0.00544615
0.00632758
0.00682214
0.00689058
0.00664737
0.00619692
0.00563382
0.00505647
0.00448712
0.00390821
0.00330165
0.0026706
0.0020544
0.00151167
0.00108457
0.000780729
0.000579049
0.00045123
0.000372542
0.000325118
0.00029733
0.000281741
0.000273835
0.000270776
0.000270669
0.000272162
0.000274239
0.00027615
0.000277359
0.000277637
0.000276918
0.000275564
0.000273808
0.000272576
0.000271898
0.000273528
0.000276486
0.000284353
0.000291825
0.0105237
0.00668066
0.00431847
0.00279648
0.00177716
0.00113142
0.000751891
0.000555677
0.000488329
0.000512748
0.000580778
0.000655322
0.000714888
0.000757808
0.000818113
0.000965726
0.00125506
0.00174214
0.00249983
0.00356364
0.00481631
0.00600166
0.00687213
0.00729524
0.0072595
0.00690459
0.00635329
0.00573012
0.0051265
0.00455431
0.00399725
0.00342546
0.00282306
0.00221394
0.00165467
0.00119761
0.000862638
0.000635331
0.000489103
0.000398139
0.000342851
0.000310183
0.000291659
0.000282072
0.000278148
0.000277709
0.00027921
0.000281489
0.000283672
0.000285105
0.00028545
0.000284545
0.00028269
0.000280058
0.000277598
0.000275278
0.000274936
0.000275522
0.000280716
0.00028697
0.0105473
0.00675604
0.00445539
0.00298209
0.00197226
0.00129772
0.00087816
0.000648592
0.000559253
0.000576826
0.000651199
0.000738661
0.000809327
0.000859076
0.000922993
0.00108083
0.00140103
0.0019505
0.00280514
0.00397924
0.00531689
0.00653635
0.00738037
0.00771762
0.00756927
0.00709899
0.00645127
0.00577519
0.00514024
0.00456357
0.0040296
0.00349889
0.00293732
0.00235032
0.00178745
0.00130838
0.000945562
0.00069335
0.000528447
0.000424737
0.000361182
0.000323324
0.000301653
0.000290234
0.000285338
0.000284497
0.000285981
0.000288491
0.000291048
0.000292893
0.000293597
0.0002929
0.000291046
0.000288143
0.000285167
0.000282018
0.000280675
0.000279938
0.000283838
0.000289612
0.0105712
0.00682321
0.00457069
0.00314456
0.00215821
0.00147026
0.00101779
0.00075551
0.000642001
0.000649228
0.000728584
0.000830785
0.000915853
0.000974975
0.00104365
0.00121179
0.00156402
0.00217684
0.00312487
0.00439773
0.00580412
0.00704156
0.00784452
0.00808355
0.00781689
0.00723051
0.00650114
0.00577088
0.00510253
0.00451989
0.00400857
0.0035222
0.00301056
0.00245916
0.00190601
0.00141418
0.00102803
0.000752384
0.000568908
0.000452131
0.000379954
0.000336612
0.000311572
0.000298151
0.000292143
0.000290786
0.000292164
0.000294855
0.000297787
0.00030012
0.000301342
0.000301108
0.000299609
0.000296878
0.00029393
0.000290579
0.000289
0.000287762
0.000291468
0.000297356
0.0105941
0.00688314
0.00466756
0.00328362
0.00232993
0.00164367
0.00116806
0.000875902
0.00073712
0.00073102
0.000812939
0.000931321
0.00103474
0.0011064
0.00118091
0.00135912
0.00174321
0.00241798
0.00345288
0.00481112
0.00626962
0.00750917
0.0082571
0.00838783
0.0080001
0.00730701
0.00650583
0.00572076
0.00501904
0.00442952
0.00393931
0.00349791
0.00304199
0.00253735
0.00200672
0.00151229
0.00110839
0.000811615
0.000610115
0.000480158
0.000399088
0.00035
0.000321376
0.000305776
0.000298503
0.00029649
0.000297636
0.000300405
0.000303646
0.000306452
0.000308253
0.000308625
0.000307713
0.000305474
0.00030296
0.000299891
0.000298678
0.000297589
0.000301991
0.000308487
0.0106153
0.00693671
0.00474908
0.00340034
0.00248365
0.00181239
0.00132524
0.00100841
0.000844744
0.000823076
0.000904663
0.00103954
0.00116576
0.00125376
0.00133534
0.00152288
0.00193721
0.0026703
0.0037831
0.00521205
0.00670575
0.00793149
0.00861079
0.00862576
0.00811945
0.00733691
0.00646674
0.00562914
0.00489584
0.00429933
0.0038283
0.00343039
0.00303278
0.00258319
0.00208665
0.00160004
0.00118489
0.000870094
0.00065163
0.000508636
0.00041852
0.000363472
0.000331069
0.000313119
0.000304427
0.000301612
0.000302384
0.000305096
0.000308533
0.00031174
0.0003141
0.000315134
0.000314943
0.000313413
0.000311631
0.000309213
0.000308836
0.00030841
0.000314229
0.000321748
0.0106345
0.00698465
0.00481805
0.00349674
0.00261712
0.00197117
0.00148477
0.00115073
0.000964387
0.000925725
0.00100475
0.00115443
0.00130804
0.00141687
0.00150739
0.0017028
0.00214427
0.00293014
0.00410993
0.00559397
0.00710553
0.00830122
0.00889833
0.00879327
0.00818414
0.00732085
0.0063864
0.00550058
0.00473898
0.0041364
0.00368269
0.00332538
0.00298583
0.0025965
0.0021437
0.00167505
0.00125568
0.00092676
0.000692924
0.00053733
0.000438158
0.000377008
0.000340663
0.000320212
0.000309956
0.000306196
0.000306449
0.000308961
0.000312459
0.000315951
0.000318797
0.000320478
0.000321063
0.000320373
0.000319528
0.000318034
0.000318855
0.000319495
0.00032731
0.000336199
0.0106516
0.00702757
0.0048769
0.00357535
0.00272954
0.00211552
0.00164159
0.00129955
0.00109475
0.00103888
0.00111318
0.00127607
0.00145851
0.00159471
0.00169697
0.00189844
0.00236269
0.00319428
0.00442867
0.00595137
0.00746277
0.0086113
0.00911253
0.00889518
0.00819601
0.00726041
0.00626791
0.00533966
0.00455429
0.00394763
0.00350989
0.00318951
0.00290542
0.0025785
0.00217676
0.00173491
0.00131898
0.000980489
0.000733387
0.000565944
0.000457875
0.000390564
0.000350157
0.000327077
0.000315132
0.000310298
0.0003099
0.000312071
0.000315485
0.000319128
0.000322348
0.000324607
0.000325959
0.000326171
0.00032639
0.000326014
0.000328297
0.000330313
0.000340575
0.000351119
0.0106666
0.007066
0.00492764
0.00363899
0.00282142
0.00224207
0.00179055
0.00145069
0.00123358
0.00116182
0.00122967
0.00140398
0.00161548
0.00178533
0.00190344
0.00210939
0.00259106
0.00346042
0.00473599
0.00627992
0.00777208
0.00885222
0.0092518
0.00893513
0.00815716
0.0071579
0.0061147
0.00515085
0.00434729
0.00373953
0.0033171
0.00302977
0.00279688
0.00253173
0.00218575
0.00177821
0.00137326
0.00103016
0.000772351
0.000594122
0.000477492
0.000404061
0.000359527
0.000333722
0.000319984
0.00031397
0.000312804
0.00031451
0.000317704
0.000321356
0.000324817
0.000327551
0.000329609
0.000330721
0.000332063
0.00033293
0.000336858
0.000340481
0.000353521
0.000365946
0.0106797
0.00710038
0.00497191
0.00369041
0.00289429
0.00234878
0.00192688
0.00159932
0.00137765
0.00129307
0.00135351
0.00153699
0.00177744
0.00198604
0.00212544
0.00233542
0.0028288
0.00372776
0.00503059
0.00657251
0.0080214
0.00902158
0.00932008
0.00891645
0.00807018
0.00701617
0.00593036
0.0049385
0.0041231
0.00351807
0.00311107
0.0028531
0.00266607
0.00245971
0.00217159
0.00180436
0.0014173
0.00107472
0.000809125
0.000621463
0.000496794
0.000417389
0.00036872
0.000340132
0.000324526
0.000317248
0.000315222
0.000316357
0.00031921
0.000322739
0.000326303
0.000329385
0.000332052
0.000334016
0.000336483
0.000338654
0.000344335
0.000349725
0.000365766
0.000380245
0.010691
0.00713109
0.00501098
0.00373218
0.00295039
0.00243498
0.00204663
0.00174037
0.00152283
0.0014302
0.00148339
0.00167365
0.00194179
0.00219246
0.00236089
0.00257651
0.00307654
0.00399183
0.00530257
0.006821
0.00820993
0.00912215
0.00932236
0.00884271
0.00793822
0.00683853
0.00571859
0.00470678
0.00388644
0.00328862
0.00289792
0.00266609
0.00251908
0.00236672
0.00213606
0.00181336
0.00145023
0.00111325
0.000843029
0.000647541
0.000515531
0.00043041
0.000377663
0.000346272
0.00032875
0.00032015
0.000317198
0.00031768
0.000320096
0.000323383
0.000326918
0.000330214
0.000333368
0.000336099
0.000339643
0.000343129
0.000350605
0.000357861
0.000377021
0.000393678
0.0107006
0.00715848
0.00504583
0.00376653
0.00299234
0.00250126
0.00214701
0.00186892
0.00166429
0.00156982
0.00161729
0.00181214
0.00210565
0.00240045
0.00260613
0.00283034
0.00332959
0.00424722
0.00554707
0.00702304
0.00833834
0.00915745
0.00926409
0.00871799
0.00776494
0.00662857
0.00548315
0.00445974
0.00364169
0.00305596
0.00268298
0.00247469
0.00236185
0.00225744
0.00208166
0.00180583
0.00147159
0.00114501
0.00087344
0.000671934
0.00053344
0.000442966
0.000386263
0.00035209
0.000332636
0.000322681
0.000318758
0.000318533
0.000320437
0.000323388
0.000326776
0.000330155
0.000333664
0.000337051
0.000341588
0.000346353
0.000355609
0.000364772
0.000387082
0.000405993
0.0107088
0.00718286
0.0050772
0.00379536
0.00302291
0.00254924
0.00222655
0.00198074
0.00179692
0.00170771
0.00175235
0.00195021
0.00226595
0.00260535
0.00285602
0.00309338
0.00358461
0.00448993
0.00576088
0.00717788
0.0084086
0.0091317
0.00915062
0.00854683
0.0075544
0.00639008
0.00522779
0.00420126
0.00339286
0.00282427
0.00247084
0.00228408
0.00219987
0.00213669
0.00201144
0.001783
0.00148138
0.00116949
0.000899824
0.000694239
0.000550254
0.000454894
0.000394418
0.000357527
0.000336152
0.000324831
0.000319917
0.000318953
0.000320297
0.00032284
0.000325984
0.000329326
0.000333058
0.000336976
0.000342394
0.000348365
0.000359336
0.000370401
0.000395814
0.000417015
0.0107157
0.00720452
0.00510563
0.00382015
0.00304474
0.00258127
0.00228518
0.00207263
0.00191573
0.001839
0.00188491
0.00208502
0.00241938
0.00280211
0.00310448
0.00336148
0.00383883
0.00471725
0.00594247
0.00728629
0.00842392
0.00904986
0.00898752
0.0083343
0.007311
0.00612699
0.00495628
0.00393509
0.00314365
0.00259717
0.0022653
0.0020986
0.00203802
0.00200915
0.00192872
0.00174663
0.00148
0.00118643
0.000921765
0.000714101
0.000565721
0.000466032
0.000402024
0.000362518
0.000339261
0.000326587
0.000320681
0.000318966
0.000319722
0.00032181
0.000324635
0.000327838
0.000331669
0.000335987
0.000342158
0.000349234
0.00036182
0.000374738
0.000403141
0.000426633
0.0107215
0.00722374
0.00513151
0.00384205
0.00306021
0.00260014
0.00232402
0.00214271
0.00201634
0.00195855
0.00201058
0.0022132
0.00256243
0.00298549
0.00334456
0.00362959
0.00408981
0.00492784
0.0060919
0.00735048
0.00838863
0.00891762
0.00878079
0.00808575
0.00703927
0.00584321
0.0046723
0.00366481
0.0028974
0.00237776
0.00206944
0.00192176
0.00188043
0.00187911
0.00183692
0.00169889
0.00146826
0.00119584
0.000938989
0.000731229
0.000579617
0.000476214
0.000408981
0.000367001
0.000341929
0.000327934
0.000321051
0.000318589
0.00031875
0.000320356
0.000322809
0.000325791
0.000329611
0.000334203
0.000340991
0.000349054
0.000363124
0.000377813
0.000409042
0.00043479
0.0107264
0.00724077
0.00515515
0.00386191
0.00307136
0.00260877
0.00234522
0.00219055
0.00209543
0.00206144
0.00212454
0.0023308
0.00269136
0.00315021
0.00356869
0.00389146
0.004335
0.00512141
0.00621072
0.00737398
0.00830807
0.00874131
0.00853673
0.00780675
0.00674377
0.00554262
0.00437945
0.00339382
0.00265713
0.0021686
0.00188563
0.00175622
0.00173046
0.00175039
0.00174023
0.00164227
0.00144728
0.00119797
0.000951369
0.00074541
0.000591754
0.000485301
0.000415199
0.000370923
0.000344126
0.000328858
0.000321028
0.000317836
0.000317409
0.000318523
0.000320571
0.000323271
0.000326987
0.000331739
0.000339007
0.000347927
0.000363331
0.000379684
0.000413538
0.000441482
0.0107304
0.00725584
0.00517678
0.0038803
0.00307981
0.00260995
0.00235159
0.0022171
0.00215107
0.00214344
0.00222188
0.00243353
0.00280231
0.00329115
0.00376897
0.00413955
0.00457121
0.00529831
0.00630163
0.00736146
0.00818848
0.0085278
0.0082619
0.00750282
0.00642885
0.0052289
0.00408121
0.00312534
0.0024255
0.00197179
0.00171566
0.00160392
0.00159065
0.00162619
0.00164198
0.0015792
0.00141839
0.00119329
0.000958928
0.000756516
0.000601994
0.000493186
0.000420605
0.00037424
0.00034583
0.000329355
0.000320617
0.000316723
0.000315724
0.000316348
0.000317976
0.000320352
0.000323891
0.000328699
0.000336322
0.000345965
0.000362544
0.00038043
0.000416684
0.000446739
0.0107338
0.00726917
0.00519659
0.00389762
0.00308684
0.00260623
0.0023463
0.00222449
0.00218285
0.0022015
0.00229811
0.00251697
0.00289135
0.00340354
0.00393756
0.00436501
0.00479398
0.00545882
0.00636797
0.00731831
0.00803665
0.00828415
0.00796275
0.00717917
0.00609855
0.00490555
0.00378094
0.00286234
0.00220483
0.00178895
0.00156076
0.00146616
0.00146283
0.00150908
0.00154482
0.00151204
0.00138307
0.00118247
0.000961833
0.000764511
0.000610249
0.00049979
0.000425147
0.000376926
0.000347034
0.000329427
0.000319831
0.000315268
0.000313719
0.000313866
0.00031507
0.000317094
0.000320401
0.00032518
0.000333042
0.000343278
0.00036087
0.00038015
0.000418562
0.000450625
0.0107366
0.00728096
0.00521472
0.00391408
0.00309332
0.00259975
0.00233255
0.0022157
0.00219186
0.00223402
0.00234968
0.00257703
0.00295476
0.00348317
0.00406721
0.00455811
0.00499714
0.00560239
0.00641306
0.00725019
0.0078595
0.00801725
0.00764537
0.00684043
0.00575642
0.00457581
0.00348181
0.00260756
0.00199704
0.00162128
0.00142169
0.00134367
0.00134822
0.00140098
0.00145109
0.00144302
0.00134288
0.00116629
0.000960376
0.000769442
0.000616488
0.000505069
0.000428794
0.000378967
0.00034774
0.000329089
0.000318689
0.000313493
0.00031142
0.000311107
0.000311892
0.000313552
0.000316587
0.000321269
0.000329267
0.000339975
0.000358419
0.000378946
0.000419271
0.000453226
0.0107388
0.00729141
0.00523132
0.00392983
0.00309987
0.00259222
0.00231335
0.00219423
0.00218055
0.00224111
0.00237434
0.00261035
0.00298925
0.00352656
0.00415174
0.00470882
0.00517254
0.00572683
0.00643938
0.0071623
0.00766349
0.00773314
0.00731503
0.00649039
0.00540545
0.00424271
0.00318687
0.00236344
0.0018037
0.00146959
0.00129883
0.00123676
0.00124746
0.00130328
0.00136273
0.00137414
0.00129933
0.00114566
0.000954957
0.000771441
0.000620729
0.000509015
0.000431537
0.000380367
0.000347962
0.000328364
0.000317219
0.000311429
0.000308859
0.000308104
0.000308478
0.000309771
0.000312508
0.00031704
0.000325089
0.000336157
0.000355304
0.000376931
0.000418925
0.000454643
0.0107407
0.00730067
0.00524651
0.00394492
0.00310682
0.00258489
0.00229132
0.00216372
0.0021523
0.00222447
0.00237153
0.0026148
0.0029924
0.00353128
0.00418648
0.00480766
0.00531036
0.00582767
0.0064477
0.00705859
0.00745395
0.00743958
0.00697584
0.00613175
0.00504807
0.00390909
0.00289899
0.00213215
0.00162601
0.00133436
0.00119226
0.00114542
0.0011608
0.00121682
0.00128123
0.00130713
0.00125391
0.00112152
0.000946059
0.00077071
0.000623047
0.000511654
0.000433393
0.000381146
0.000347728
0.000327284
0.000315457
0.000309112
0.000306068
0.000304888
0.000304865
0.000305791
0.000308216
0.000312559
0.000320588
0.000331919
0.000351628
0.000374212
0.000417641
0.00045499
0.0107422
0.0073089
0.00526041
0.00395938
0.00311435
0.00257866
0.00226861
0.00212765
0.00211109
0.00218719
0.00234242
0.00258981
0.00296297
0.00349616
0.00416868
0.00484671
0.00539969
0.00589789
0.00643638
0.00694096
0.00723426
0.00714003
0.00662997
0.00576607
0.00468625
0.0035777
0.00262087
0.0019155
0.00146483
0.00121577
0.00110181
0.00106939
0.00108816
0.00114208
0.00120767
0.00124344
0.00120796
0.00109482
0.000934224
0.00076751
0.000623556
0.000513041
0.000434395
0.000381337
0.000347074
0.000325889
0.000313444
0.000306581
0.000303087
0.000301498
0.000301086
0.000301652
0.000303757
0.000307884
0.000315837
0.000327347
0.000347494
0.000370899
0.000415542
0.000454386
0.0107435
0.00731622
0.00527314
0.00397319
0.00312248
0.00257404
0.00224687
0.0020891
0.00206108
0.00213335
0.00228985
0.0025366
0.00290131
0.0034216
0.00409784
0.00482051
0.0054298
0.00592812
0.00640084
0.00680857
0.00700518
0.00683442
0.0062776
0.00539382
0.00432169
0.00325129
0.00235505
0.00171502
0.00132069
0.0011138
0.00102718
0.00100826
0.00102926
0.00107917
0.00114275
0.00118421
0.00116268
0.00106648
0.000920024
0.000762149
0.000622414
0.000513261
0.000434601
0.000380986
0.000346046
0.000324225
0.000311226
0.000303882
0.000299959
0.000297971
0.00029718
0.000297389
0.000299173
0.000303065
0.000310901
0.000322518
0.000342993
0.000367094
0.000412746
0.000452949
0.0107444
0.00732277
0.0052848
0.00398637
0.00313115
0.00257128
0.00222725
0.00205062
0.00200623
0.00206759
0.00221799
0.00245812
0.00280948
0.00330972
0.00397588
0.00472689
0.00539152
0.00590745
0.00633355
0.0066574
0.00676441
0.00652045
0.00591707
0.00501474
0.00395614
0.00293269
0.00210387
0.00153187
0.00119387
0.00102824
0.000967962
0.00096156
0.000983674
0.00102799
0.00108687
0.00113032
0.00111908
0.00103738
0.000904042
0.000754966
0.000619807
0.000512423
0.00043408
0.00038015
0.000344696
0.000322345
0.000308855
0.000301065
0.000296727
0.000294349
0.000293184
0.000293042
0.000294505
0.000298151
0.000305837
0.000317504
0.000338212
0.000362893
0.000409369
0.000450799
0.0107452
0.00732863
0.0052955
0.0039989
0.00314026
0.00257045
0.00221046
0.00201417
0.00195003
0.00199464
0.00213186
0.00235887
0.00269132
0.0031645
0.00380725
0.00456744
0.00527887
0.00582498
0.0062246
0.00648034
0.0065064
0.00619355
0.00554546
0.0046284
0.0035917
0.00262491
0.00186946
0.00136692
0.00108441
0.000958776
0.000923733
0.000928796
0.000950918
0.000988276
0.00104019
0.00108236
0.001078
0.00100829
0.000886849
0.000746319
0.000615945
0.000510654
0.000432917
0.000378894
0.000343082
0.000320301
0.000306381
0.000298177
0.00029344
0.000290676
0.000289138
0.000288647
0.00028979
0.000293184
0.000300697
0.000312367
0.000333228
0.000358388
0.000405521
0.00044805
0.0107459
0.00733392
0.00530533
0.00401079
0.00314969
0.00257143
0.00219685
0.00198112
0.00189534
0.00191887
0.00203685
0.00224437
0.00255217
0.00299167
0.0035987
0.00434769
0.00509033
0.00567171
0.00606307
0.00626786
0.00622279
0.00584747
0.00515931
0.00423488
0.0032312
0.00233109
0.00165366
0.0012207
0.00099215
0.000905039
0.000894076
0.000909526
0.000930522
0.000959677
0.00100266
0.00104072
0.00104013
0.000979914
0.00086899
0.00073657
0.000611053
0.000508095
0.00043121
0.000377292
0.000341265
0.00031815
0.000303859
0.000295272
0.000290146
0.000286995
0.000285083
0.000284242
0.000285067
0.000288206
0.000295529
0.000307166
0.000328112
0.000353661
0.000401305
0.000444812
0.0107464
0.00733869
0.00531438
0.00402205
0.00315929
0.00257405
0.00218648
0.00195229
0.00184431
0.00184406
0.00193816
0.00212069
0.00239847
0.00279836
0.00335902
0.00407688
0.00482975
0.00544264
0.00583903
0.00600951
0.00590345
0.00547568
0.00475592
0.00383556
0.00287832
0.00205445
0.001458
0.00109346
0.000916793
0.000866631
0.000878641
0.000903402
0.000922079
0.00094182
0.000974139
0.00100562
0.00100596
0.000952839
0.000850969
0.000726077
0.000605365
0.000504898
0.000429059
0.00037542
0.000339308
0.000315949
0.000301342
0.000292398
0.000286892
0.000283353
0.00028106
0.000279868
0.000280374
0.000283255
0.000290379
0.000301954
0.00032293
0.000348788
0.000396815
0.000441188
0.0107468
0.00734304
0.00532274
0.00403269
0.00316896
0.00257806
0.00217923
0.00192807
0.00179837
0.00177318
0.00184041
0.00199377
0.00223714
0.00259261
0.00309841
0.00376726
0.00450646
0.0051385
0.00554596
0.00569606
0.00554097
0.00507334
0.0043346
0.00343375
0.00253765
0.00179812
0.00128361
0.000985147
0.000857928
0.000843183
0.000877187
0.000910217
0.000925299
0.000934376
0.000954394
0.000977145
0.000975875
0.000927567
0.000833244
0.000715184
0.000599113
0.000501219
0.000426572
0.000373359
0.000337276
0.000313755
0.000298882
0.000289607
0.000283726
0.000279795
0.000277115
0.000275564
0.00027575
0.000278373
0.00028529
0.000296779
0.000317742
0.000343841
0.000392141
0.000437273