/*--------------------------------*- C++ -*----------------------------------*\
| =========                 |                                                 |
| \\      /  F ield         | OpenFOAM: The Open Source CFD Toolbox           |
|  \\    /   O peration     | Version:  2.4.0                                 |
|   \\  /    A nd           | Web:      www.OpenFOAM.org                      |
|    \\/     M anipulation  |                                                 |
\*---------------------------------------------------------------------------*/
FoamFile
{
    version     2.0;
    format      ascii;
    class       volScalarField;
    location    "115";
    object      p;
}
// * * * * * * * * * * * * * * * * * * * * * * * * * * * * * * * * * * * * * //

dimensions      [0 2 -2 0 0 0 0];

internalField   nonuniform List<scalar> 
6000
(
-0.22539
0.062913
0.145932
0.159169
0.164005
0.166178
0.163844
0.157855
0.152301
0.150084
0.155345
0.174039
0.204154
0.236072
0.262179
0.276011
0.275197
0.26424
0.249775
0.239037
0.235543
0.238766
0.247539
0.255512
0.240549
0.197357
0.148641
0.109281
0.0819639
0.0663593
0.0616453
0.0659992
0.0777851
0.0951564
0.116726
0.140949
0.166717
0.192875
0.218567
0.243027
0.265691
0.286182
0.304147
0.319493
0.331943
0.341616
0.34861
0.352886
0.354048
0.35246
0.348001
0.340761
0.330346
0.316635
0.29878
0.276587
0.246873
0.213627
0.152971
0.129878
-0.203723
0.0623983
0.145351
0.1591
0.163994
0.16623
0.163971
0.15797
0.152327
0.14994
0.154898
0.17325
0.203096
0.234946
0.261236
0.27537
0.274787
0.264004
0.249605
0.238864
0.235349
0.238571
0.247503
0.255708
0.240729
0.197056
0.14819
0.108739
0.0813751
0.0657601
0.0610737
0.065479
0.0773328
0.0947813
0.11643
0.140729
0.166564
0.192777
0.218514
0.243005
0.265686
0.286181
0.304137
0.31946
0.331868
0.341509
0.348503
0.352767
0.353898
0.352275
0.347772
0.34048
0.330003
0.316219
0.29828
0.27598
0.246154
0.212696
0.152012
0.127901
-0.1842
0.0607475
0.144644
0.159044
0.164039
0.166318
0.164141
0.158123
0.152396
0.149867
0.154502
0.172429
0.201884
0.233562
0.260006
0.274532
0.274246
0.263673
0.249333
0.238586
0.235058
0.238296
0.247387
0.255556
0.240172
0.19589
0.147248
0.107947
0.080664
0.0650924
0.0604518
0.064904
0.0768098
0.094315
0.116026
0.140387
0.166284
0.192551
0.218336
0.242867
0.265578
0.286089
0.304049
0.319359
0.331729
0.341349
0.348348
0.352591
0.353693
0.352039
0.347498
0.340164
0.329639
0.315801
0.297796
0.275417
0.245497
0.211898
0.151129
0.126424
-0.16893
0.0589974
0.143878
0.158995
0.164122
0.166433
0.164318
0.158265
0.152431
0.149765
0.154096
0.171622
0.200741
0.232332
0.258942
0.27378
0.273741
0.263349
0.249026
0.238238
0.234692
0.237976
0.247138
0.254895
0.238558
0.193923
0.14584
0.106875
0.0797585
0.0642703
0.0597059
0.0642304
0.0762103
0.0937905
0.11558
0.140016
0.165985
0.192316
0.218155
0.242732
0.265475
0.286007
0.303975
0.319274
0.331613
0.341238
0.348242
0.352443
0.353507
0.351813
0.347226
0.339843
0.329262
0.315362
0.297286
0.274824
0.244798
0.211075
0.150154
0.125059
-0.155339
0.0575384
0.143008
0.158906
0.164197
0.166573
0.164483
0.158376
0.152403
0.149586
0.153624
0.170771
0.199614
0.231199
0.258032
0.273129
0.273297
0.263056
0.248704
0.237828
0.23425
0.237624
0.246705
0.253783
0.235978
0.191318
0.144005
0.105507
0.078634
0.0632804
0.0588393
0.0634751
0.0755603
0.0932404
0.115128
0.139655
0.165707
0.19211
0.218009
0.242633
0.26541
0.28596
0.303934
0.319214
0.331531
0.341175
0.348177
0.352329
0.35335
0.351612
0.346974
0.339537
0.328895
0.314929
0.296774
0.274224
0.244081
0.21024
0.149124
0.123773
-0.142478
0.0562997
0.142024
0.158741
0.164264
0.166732
0.164642
0.158457
0.152322
0.149337
0.153077
0.16984
0.198438
0.230055
0.257168
0.272517
0.272878
0.262779
0.248367
0.237356
0.233738
0.237233
0.246032
0.252227
0.232613
0.188192
0.141769
0.103845
0.0772924
0.0621319
0.057862
0.0626445
0.0748608
0.0926602
0.11466
0.139289
0.165432
0.191912
0.217875
0.242549
0.265359
0.285929
0.303905
0.319161
0.331468
0.34114
0.348127
0.352231
0.353211
0.35143
0.346741
0.33925
0.328546
0.314512
0.296278
0.273638
0.24338
0.209419
0.148106
0.12257
-0.130355
0.0552062
0.14095
0.158492
0.164325
0.166887
0.164801
0.158516
0.152204
0.149036
0.152473
0.168843
0.197209
0.228863
0.256292
0.271905
0.272456
0.262501
0.248011
0.236826
0.233167
0.236775
0.245082
0.250171
0.228639
0.18464
0.13918
0.101924
0.075766
0.0608503
0.0567908
0.0617463
0.0741125
0.0920451
0.114167
0.138905
0.165145
0.191706
0.217736
0.242461
0.265305
0.285895
0.303871
0.319102
0.331413
0.341117
0.348077
0.352137
0.353079
0.351257
0.346519
0.338976
0.328212
0.314113
0.295803
0.273075
0.242706
0.208626
0.147141
0.121438
-0.119008
0.0542545
0.139818
0.158166
0.164366
0.16702
0.164965
0.158558
0.152055
0.148692
0.151823
0.16779
0.195936
0.227615
0.255378
0.271275
0.27202
0.262217
0.247639
0.236245
0.232556
0.236215
0.243892
0.247548
0.224206
0.180744
0.136302
0.099794
0.0740896
0.0594597
0.0556404
0.0607882
0.0733177
0.0913933
0.113645
0.138497
0.164836
0.191482
0.217579
0.242357
0.265236
0.285847
0.303818
0.31903
0.33136
0.34109
0.348021
0.352041
0.352947
0.351085
0.346302
0.338709
0.327888
0.313727
0.295344
0.272532
0.24206
0.20786
0.146238
0.120361
-0.108377
0.0534556
0.138649
0.157769
0.164371
0.16713
0.165124
0.158585
0.15188
0.148313
0.151138
0.166696
0.19463
0.226319
0.254421
0.270625
0.271566
0.261925
0.247252
0.235619
0.231922
0.235496
0.242525
0.244339
0.219431
0.176586
0.133203
0.0975019
0.0722952
0.0579815
0.0544242
0.0597783
0.0724807
0.0907062
0.113091
0.13806
0.164502
0.191233
0.217399
0.242229
0.265143
0.285775
0.303736
0.318941
0.331303
0.341051
0.34795
0.351934
0.352807
0.35091
0.346082
0.338443
0.327569
0.313349
0.294897
0.272004
0.241438
0.207116
0.145396
0.11932
-0.0983907
0.0528107
0.137459
0.157308
0.164333
0.167215
0.165262
0.158603
0.151683
0.147905
0.150425
0.165575
0.193292
0.224981
0.25342
0.269955
0.271099
0.261632
0.246861
0.234961
0.231282
0.234583
0.241008
0.240603
0.214408
0.17224
0.129944
0.0950873
0.0704084
0.0564329
0.0531534
0.0587232
0.071605
0.089985
0.112507
0.137594
0.164139
0.190956
0.217191
0.242072
0.265023
0.285671
0.30362
0.318835
0.331236
0.34099
0.347861
0.351812
0.352655
0.350724
0.345856
0.338174
0.327249
0.312973
0.294457
0.271487
0.240836
0.206391
0.14461
0.118308
-0.0889941
0.0523148
0.136261
0.156789
0.164249
0.167269
0.165365
0.158611
0.151471
0.147475
0.149698
0.16445
0.191934
0.223619
0.252389
0.269273
0.270626
0.261343
0.246472
0.234284
0.230637
0.23348
0.239325
0.236442
0.209217
0.167774
0.126576
0.0925845
0.0684519
0.0548291
0.0518382
0.0576298
0.0706955
0.089233
0.111892
0.1371
0.163748
0.190651
0.216954
0.241885
0.264873
0.285532
0.303472
0.318714
0.331151
0.340904
0.347749
0.35167
0.352484
0.350523
0.345618
0.337895
0.326924
0.312596
0.294021
0.270976
0.240249
0.20568
0.143877
0.117312
-0.0801416
0.0519614
0.135066
0.156221
0.164116
0.167288
0.165433
0.158603
0.151249
0.14703
0.14897
0.163344
0.190555
0.22225
0.251338
0.268589
0.270157
0.261066
0.246095
0.233609
0.229983
0.232237
0.237448
0.231976
0.203932
0.163247
0.123141
0.09002
0.0664433
0.0531823
0.0504865
0.0565033
0.0697554
0.0884523
0.11125
0.136577
0.16333
0.190318
0.216686
0.241668
0.264692
0.285354
0.303297
0.31858
0.331043
0.340793
0.347612
0.351505
0.352294
0.350304
0.345364
0.337604
0.326589
0.312214
0.293583
0.270469
0.239674
0.20498
0.143189
0.11633
-0.0717923
0.0517438
0.133885
0.155612
0.163936
0.167267
0.165464
0.158575
0.15102
0.146579
0.148259
0.162285
0.189159
0.220898
0.250288
0.267914
0.269706
0.260809
0.245743
0.232953
0.229302
0.230942
0.235315
0.227311
0.198614
0.158708
0.119674
0.0874168
0.0643982
0.051503
0.0491052
0.055349
0.0687893
0.0876467
0.110584
0.136031
0.162886
0.189957
0.21639
0.241424
0.264478
0.285139
0.303105
0.318432
0.330912
0.340656
0.34745
0.351317
0.352081
0.350065
0.345092
0.337298
0.326243
0.311823
0.293141
0.269962
0.239108
0.204289
0.142542
0.115354
-0.0639092
0.0516552
0.132724
0.154969
0.163709
0.167205
0.165457
0.158526
0.150793
0.14613
0.147582
0.161281
0.187757
0.219581
0.249254
0.26726
0.269288
0.26058
0.245429
0.232343
0.228566
0.229714
0.232898
0.222537
0.193318
0.154197
0.116202
0.0847925
0.0623284
0.0497994
0.0476993
0.0541707
0.0678001
0.0868183
0.109894
0.135461
0.162418
0.18957
0.216068
0.241153
0.264229
0.284895
0.3029
0.318268
0.330757
0.340495
0.347264
0.351105
0.351846
0.349805
0.344801
0.336974
0.325882
0.31142
0.292692
0.269451
0.238545
0.203603
0.14193
0.114383
-0.0564584
0.0516883
0.131591
0.154298
0.163438
0.167101
0.165414
0.158451
0.150577
0.145701
0.146954
0.160333
0.186385
0.21832
0.248257
0.266641
0.268917
0.260384
0.245167
0.231796
0.227758
0.228594
0.230214
0.217719
0.188089
0.149745
0.112748
0.0821621
0.0602448
0.0480791
0.046274
0.052973
0.0667917
0.0859707
0.109185
0.134871
0.161927
0.18916
0.215723
0.240855
0.263946
0.284631
0.302687
0.318085
0.330581
0.340311
0.347055
0.350871
0.351589
0.349523
0.344491
0.336633
0.325505
0.311005
0.292234
0.268934
0.237985
0.202919
0.141349
0.113413
-0.0494092
0.0518356
0.13049
0.153608
0.163125
0.166957
0.165333
0.15835
0.150365
0.145304
0.146383
0.159438
0.185089
0.217129
0.24731
0.266072
0.26861
0.260228
0.244977
0.23133
0.226894
0.227596
0.227325
0.212913
0.182964
0.145376
0.109328
0.0795377
0.0581561
0.046348
0.0448341
0.0517594
0.065767
0.0851061
0.108458
0.134262
0.161416
0.188727
0.215355
0.240529
0.263634
0.284357
0.302464
0.317883
0.330384
0.340105
0.346824
0.350616
0.351311
0.349222
0.344161
0.336273
0.325113
0.310576
0.291765
0.268411
0.237423
0.202236
0.140792
0.112444
-0.0427336
0.05209
0.129426
0.152902
0.162776
0.166774
0.165216
0.158226
0.150149
0.144938
0.145871
0.158624
0.183914
0.216033
0.246435
0.265573
0.26838
0.260121
0.244871
0.230954
0.226015
0.226687
0.224295
0.208164
0.177971
0.141108
0.105956
0.0769297
0.0560703
0.0446124
0.0433846
0.0505344
0.0647299
0.0842282
0.107717
0.133636
0.160886
0.188276
0.214967
0.240174
0.263303
0.284077
0.302228
0.317662
0.330167
0.339879
0.346573
0.35034
0.351013
0.348901
0.343813
0.335897
0.324705
0.310133
0.291285
0.267879
0.236858
0.201553
0.140255
0.111473
-0.0364059
0.0524439
0.128403
0.152187
0.162393
0.166555
0.165063
0.158083
0.149931
0.144591
0.145423
0.157919
0.182882
0.215048
0.245643
0.265159
0.268238
0.260072
0.244871
0.230668
0.225234
0.225811
0.221201
0.203511
0.173131
0.136954
0.102645
0.0743468
0.0539943
0.0428778
0.0419299
0.0493016
0.0636832
0.0833392
0.106962
0.132996
0.160339
0.187808
0.214557
0.239792
0.262959
0.283791
0.301975
0.317424
0.329932
0.339632
0.346302
0.350046
0.350696
0.348562
0.343448
0.335505
0.324283
0.309678
0.290795
0.267339
0.23629
0.200868
0.139733
0.110501
-0.0304025
0.0528903
0.127422
0.151468
0.161982
0.166303
0.164881
0.157925
0.149719
0.144271
0.145047
0.15734
0.182015
0.214197
0.244954
0.264853
0.268191
0.260097
0.244994
0.230465
0.22466
0.224898
0.218093
0.198981
0.168459
0.132927
0.0994028
0.0717968
0.0519347
0.0411499
0.0404751
0.0480654
0.062631
0.0824427
0.106198
0.132343
0.159779
0.187324
0.214123
0.23939
0.26261
0.283496
0.301707
0.317169
0.329678
0.339366
0.346012
0.349733
0.350362
0.348206
0.343067
0.335098
0.323847
0.309211
0.290295
0.266792
0.235719
0.200182
0.139225
0.109529
-0.024702
0.0534222
0.126486
0.150749
0.161547
0.166022
0.164672
0.157757
0.149522
0.143987
0.144753
0.156897
0.181324
0.213492
0.244381
0.264671
0.268242
0.260221
0.245252
0.230336
0.224392
0.223917
0.215021
0.194601
0.163967
0.129031
0.096237
0.0692865
0.0498977
0.0394343
0.0390245
0.0468294
0.0615761
0.081541
0.105426
0.131679
0.159206
0.186823
0.213668
0.238977
0.262257
0.283189
0.301424
0.316898
0.329407
0.339083
0.345704
0.349402
0.35001
0.347833
0.342671
0.334677
0.3234
0.308733
0.289786
0.266238
0.235144
0.199494
0.138726
0.108558
-0.0192843
0.0540329
0.125596
0.150034
0.161093
0.165715
0.164442
0.157584
0.149347
0.143753
0.144552
0.156598
0.180822
0.212952
0.243945
0.264631
0.268391
0.260472
0.245646
0.230281
0.224451
0.222866
0.21201
0.190388
0.159662
0.125274
0.0931551
0.0668221
0.0478891
0.0377366
0.037583
0.0455982
0.0605228
0.080638
0.10465
0.131007
0.158623
0.186307
0.213197
0.238559
0.2619
0.282869
0.301127
0.316611
0.329119
0.338781
0.345378
0.349055
0.349642
0.347445
0.34226
0.334243
0.32294
0.308246
0.28927
0.26568
0.234566
0.198808
0.138235
0.10759
-0.0141311
0.0547158
0.124754
0.149325
0.160624
0.165387
0.164196
0.157413
0.149202
0.143578
0.144453
0.156449
0.180515
0.212583
0.243656
0.264742
0.268637
0.260888
0.246168
0.230337
0.22483
0.221782
0.209092
0.186357
0.155546
0.121657
0.0901614
0.0644094
0.0459146
0.0360625
0.0361553
0.0443754
0.0594741
0.0797358
0.10387
0.13033
0.158031
0.185776
0.212717
0.238139
0.261534
0.282537
0.300815
0.316309
0.328814
0.338462
0.345036
0.348692
0.349259
0.347043
0.341836
0.333797
0.322471
0.307751
0.288748
0.265117
0.233988
0.198123
0.137753
0.106628
-0.00922537
0.0554649
0.123961
0.148628
0.160145
0.165041
0.16394
0.157249
0.149094
0.143475
0.144466
0.156456
0.180408
0.212397
0.243534
0.265013
0.268985
0.261511
0.24682
0.230554
0.225478
0.22069
0.206279
0.182518
0.151623
0.118185
0.0872615
0.0620533
0.0439796
0.0344173
0.0347461
0.043166
0.0584343
0.0788381
0.10309
0.12965
0.157432
0.185235
0.212231
0.237716
0.261159
0.282194
0.300491
0.315992
0.328494
0.338127
0.344678
0.348312
0.34886
0.346625
0.341399
0.333339
0.321992
0.307248
0.28822
0.264551
0.23341
0.197442
0.137278
0.105674
-0.00455173
0.0562738
0.123216
0.147943
0.159659
0.164683
0.163678
0.157098
0.14903
0.143451
0.144598
0.156621
0.180499
0.212395
0.243587
0.265442
0.269443
0.262382
0.247599
0.231028
0.22633
0.219634
0.203596
0.178877
0.147892
0.114857
0.0844581
0.0597591
0.0420892
0.0328071
0.0333604
0.0419737
0.0574062
0.0779468
0.102314
0.12897
0.156827
0.184687
0.211744
0.23729
0.260775
0.28184
0.300154
0.315662
0.328159
0.337777
0.344304
0.347918
0.348447
0.346195
0.34095
0.332871
0.321504
0.306738
0.287688
0.263984
0.232833
0.196766
0.136812
0.104733
-9.54037e-05
0.0571373
0.12252
0.147274
0.15917
0.164315
0.163415
0.156966
0.149018
0.143516
0.144857
0.156947
0.180789
0.212583
0.243828
0.26603
0.27003
0.263529
0.24849
0.23185
0.227295
0.218633
0.201047
0.175437
0.144353
0.111676
0.0817558
0.0575307
0.0402478
0.0312377
0.0320032
0.0408031
0.0563938
0.0770662
0.101545
0.128293
0.15622
0.184136
0.211259
0.236858
0.260384
0.281476
0.299806
0.315318
0.327808
0.337411
0.343916
0.347509
0.34802
0.345751
0.340489
0.332393
0.321008
0.306222
0.287152
0.263416
0.232258
0.196097
0.136355
0.103805
0.00415667
0.0580497
0.121873
0.146623
0.158681
0.163943
0.163156
0.156858
0.14906
0.143675
0.145246
0.157435
0.18127
0.212955
0.244257
0.266769
0.270763
0.264958
0.249474
0.233093
0.228309
0.217713
0.198649
0.172201
0.141003
0.108639
0.0791559
0.0553726
0.0384602
0.0297151
0.0306793
0.0396577
0.0553998
0.0761998
0.100786
0.12762
0.155608
0.183586
0.210773
0.236423
0.259986
0.281103
0.299446
0.314961
0.327444
0.33703
0.343512
0.347086
0.347579
0.345295
0.340017
0.331905
0.320504
0.305701
0.286614
0.262849
0.231686
0.195435
0.135906
0.102893
0.0082172
0.059006
0.121275
0.145991
0.158196
0.16357
0.162903
0.156779
0.149165
0.143935
0.145772
0.158086
0.181936
0.213512
0.244881
0.267657
0.271672
0.26667
0.250578
0.234758
0.229339
0.216876
0.1964
0.169166
0.137842
0.105748
0.0766619
0.0532884
0.0367303
0.0282453
0.0293936
0.0385424
0.0544302
0.0753542
0.100043
0.126949
0.154996
0.183042
0.210288
0.235985
0.259583
0.280722
0.299076
0.314592
0.327066
0.336635
0.343095
0.346649
0.347125
0.344826
0.339534
0.331407
0.319994
0.305175
0.286073
0.262282
0.231117
0.194782
0.135468
0.102
0.0120974
0.0600012
0.120724
0.145381
0.157716
0.163199
0.162662
0.156731
0.149332
0.144298
0.146434
0.158896
0.182774
0.214244
0.245691
0.268682
0.272779
0.268642
0.251868
0.236824
0.230385
0.216138
0.194313
0.166331
0.134865
0.103001
0.0742747
0.0512824
0.0350625
0.0268344
0.0281514
0.0374622
0.0534907
0.0745321
0.0993099
0.126276
0.154391
0.182503
0.209805
0.235545
0.259174
0.280334
0.298696
0.314212
0.326676
0.336227
0.342664
0.346199
0.346659
0.344346
0.339041
0.330902
0.319477
0.304645
0.285531
0.261717
0.230554
0.194139
0.135039
0.101125
0.0158081
0.0610309
0.120221
0.144794
0.157245
0.162834
0.162435
0.156719
0.149567
0.144767
0.147234
0.159862
0.183777
0.215147
0.246683
0.269843
0.274107
0.270839
0.253394
0.23924
0.231446
0.215494
0.192382
0.163693
0.13207
0.100397
0.0719969
0.0493576
0.0334601
0.0254885
0.0269594
0.0364251
0.0525869
0.0737307
0.0985791
0.125612
0.153798
0.181972
0.209325
0.235105
0.258762
0.279939
0.298308
0.313821
0.326273
0.335805
0.342221
0.345737
0.346181
0.343855
0.338538
0.330389
0.318954
0.304112
0.284989
0.261154
0.229995
0.193506
0.13462
0.100271
0.019359
0.0620906
0.119764
0.144232
0.156785
0.162478
0.162224
0.156743
0.149868
0.145342
0.148164
0.160976
0.184929
0.216205
0.24784
0.271127
0.27567
0.2732
0.255199
0.241944
0.23254
0.214956
0.190617
0.161248
0.129453
0.0979348
0.0698291
0.0475187
0.0319291
0.0242159
0.0258251
0.0354344
0.051713
0.0729359
0.0978565
0.124965
0.153218
0.18145
0.20885
0.234665
0.258347
0.279538
0.29791
0.313419
0.325858
0.335372
0.341765
0.345262
0.345691
0.343353
0.338026
0.329868
0.318426
0.303576
0.284446
0.260595
0.229443
0.192885
0.134212
0.099439
0.0227596
0.0631765
0.119352
0.143694
0.156337
0.162133
0.162032
0.156805
0.150237
0.146021
0.149222
0.162231
0.186218
0.217409
0.24915
0.272532
0.277477
0.275672
0.257301
0.244853
0.233668
0.214516
0.189008
0.158993
0.127011
0.0956145
0.0677745
0.0457699
0.0304751
0.0230224
0.0247504
0.0344802
0.050855
0.0721562
0.0971592
0.12434
0.152656
0.180939
0.208381
0.234228
0.257931
0.279133
0.297506
0.313008
0.325432
0.334926
0.341297
0.344776
0.345191
0.342842
0.337505
0.32934
0.317893
0.303038
0.283903
0.260039
0.228897
0.192275
0.133815
0.0986285
0.026018
0.0642844
0.118984
0.143183
0.155904
0.161801
0.161862
0.156905
0.150671
0.146801
0.150399
0.163615
0.187628
0.218743
0.250589
0.274048
0.279528
0.278219
0.259705
0.247894
0.234842
0.214182
0.187562
0.156924
0.12474
0.0934349
0.0658333
0.0441163
0.0291033
0.0219
0.0237174
0.0335543
0.0500208
0.0714114
0.0964916
0.123738
0.15211
0.18044
0.207919
0.233793
0.257513
0.278724
0.297095
0.312589
0.324996
0.33447
0.340818
0.344279
0.34468
0.34232
0.336977
0.328806
0.317356
0.302498
0.283362
0.259487
0.228358
0.191678
0.133429
0.0978408
0.0291426
0.0654112
0.11866
0.142698
0.155487
0.161485
0.161715
0.157045
0.151169
0.147675
0.151685
0.165119
0.189146
0.220192
0.252139
0.275674
0.281822
0.280798
0.262421
0.25098
0.236057
0.213944
0.186271
0.155038
0.122636
0.0913869
0.063992
0.0425432
0.0277956
0.0208343
0.0227301
0.0326722
0.0492347
0.0707077
0.0958573
0.123163
0.151584
0.179956
0.207467
0.233363
0.257096
0.278311
0.296678
0.31216
0.32455
0.334002
0.340328
0.343771
0.344158
0.34179
0.336441
0.328267
0.316815
0.301957
0.282822
0.25894
0.227827
0.191093
0.133054
0.097076
0.0321403
0.0665532
0.118378
0.142241
0.155087
0.161186
0.161591
0.157223
0.151727
0.148637
0.153067
0.166726
0.190756
0.221737
0.253773
0.277397
0.284344
0.283365
0.265413
0.254057
0.237319
0.213812
0.185141
0.153312
0.120656
0.0894423
0.0622363
0.0410428
0.0265471
0.0198308
0.0218149
0.0318503
0.0485005
0.0700466
0.0952575
0.122615
0.15108
0.179486
0.207024
0.232939
0.25668
0.277896
0.296255
0.311725
0.324095
0.333525
0.339828
0.343253
0.343628
0.341251
0.335897
0.327722
0.316272
0.301415
0.282285
0.258399
0.227304
0.190522
0.13269
0.096335
0.0350185
0.0677076
0.118136
0.141813
0.154707
0.160906
0.161494
0.157439
0.152342
0.149681
0.154534
0.168424
0.192446
0.223363
0.255472
0.279219
0.287081
0.28589
0.268605
0.257085
0.238614
0.213773
0.18414
0.151699
0.11877
0.0875899
0.0605735
0.0396252
0.0253754
0.0188999
0.0209771
0.0310939
0.0478216
0.0694314
0.0946956
0.122098
0.1506
0.179035
0.206594
0.232522
0.256267
0.277481
0.295829
0.311282
0.323631
0.333038
0.339318
0.342726
0.343088
0.340705
0.335348
0.327172
0.315726
0.300873
0.28175
0.257864
0.22679
0.189965
0.132338
0.0956178
0.0377831
0.0688711
0.117934
0.141412
0.154346
0.160646
0.161423
0.157691
0.15301
0.150796
0.156073
0.170198
0.1942
0.225049
0.257208
0.281125
0.290005
0.28835
0.271908
0.260054
0.239949
0.213832
0.18324
0.150181
0.11699
0.0858378
0.0590081
0.0382981
0.024289
0.0180459
0.0202181
0.0304048
0.0471993
0.0688636
0.0941727
0.121612
0.150144
0.178602
0.206176
0.232112
0.255858
0.277064
0.295398
0.310834
0.32316
0.332542
0.3388
0.34219
0.342541
0.340151
0.334792
0.326618
0.315178
0.300333
0.281219
0.257336
0.226285
0.189423
0.131998
0.0949253
0.0404404
0.0700416
0.11777
0.14104
0.154005
0.160407
0.161379
0.15798
0.153727
0.151975
0.157672
0.172034
0.196007
0.226779
0.258964
0.283115
0.293085
0.290726
0.275237
0.262949
0.241309
0.21396
0.182412
0.148763
0.115321
0.0841923
0.0575452
0.0370642
0.023291
0.0172697
0.0195389
0.029786
0.046637
0.0683465
0.0936923
0.121161
0.149716
0.17819
0.205774
0.231712
0.255453
0.276648
0.294965
0.31038
0.322681
0.332039
0.338272
0.341645
0.341985
0.339589
0.334231
0.326061
0.314629
0.299793
0.280691
0.256814
0.22579
0.188895
0.131669
0.0942573
0.0429957
0.071216
0.117642
0.140697
0.153687
0.160189
0.161362
0.158304
0.154489
0.15321
0.159319
0.173919
0.197854
0.228536
0.260718
0.285174
0.296273
0.292994
0.278508
0.265777
0.242706
0.214148
0.181663
0.147444
0.113763
0.0826548
0.0561863
0.0359278
0.022386
0.0165741
0.0189409
0.0292393
0.0461361
0.0678814
0.0932554
0.120746
0.149316
0.1778
0.205387
0.231322
0.255053
0.276234
0.29453
0.309921
0.322196
0.331527
0.337737
0.341093
0.341422
0.339022
0.333665
0.325501
0.314078
0.299255
0.280168
0.256301
0.225305
0.188383
0.131353
0.0936147
0.0454544
0.0723924
0.11755
0.140382
0.15339
0.159994
0.161373
0.158662
0.155292
0.154493
0.161004
0.17584
0.19973
0.230307
0.262458
0.287295
0.299526
0.295175
0.28164
0.26854
0.244126
0.214367
0.180976
0.146221
0.112316
0.0812281
0.0549354
0.0348909
0.0215757
0.0159607
0.0184251
0.0287673
0.0456999
0.0674717
0.0928653
0.120369
0.148948
0.177435
0.205018
0.230945
0.254661
0.275822
0.294095
0.309459
0.321705
0.331009
0.337195
0.340533
0.340852
0.338449
0.333094
0.324938
0.313528
0.298719
0.279651
0.255796
0.224831
0.187887
0.131049
0.0929975
0.0478211
0.0735685
0.117492
0.140096
0.153117
0.159822
0.16141
0.159051
0.156132
0.155817
0.162719
0.177786
0.201623
0.232074
0.26417
0.289457
0.302782
0.297321
0.284653
0.271224
0.245548
0.214609
0.180358
0.14509
0.110975
0.0799128
0.0537934
0.0339575
0.0208635
0.0154329
0.0179932
0.0283714
0.0453298
0.0671186
0.0925231
0.120032
0.148612
0.177094
0.204668
0.23058
0.254276
0.275414
0.293658
0.308994
0.321209
0.330485
0.336646
0.339966
0.340276
0.33787
0.33252
0.324373
0.312978
0.298186
0.279138
0.2553
0.224369
0.187408
0.130757
0.0924066
0.0501007
0.0747425
0.117467
0.139839
0.152867
0.159673
0.161475
0.159472
0.157007
0.157175
0.164455
0.179748
0.203523
0.233829
0.265846
0.291646
0.305988
0.299472
0.287635
0.273773
0.246922
0.214854
0.179792
0.14405
0.109744
0.078711
0.0527635
0.0331283
0.02025
0.0149927
0.0176461
0.028054
0.0450287
0.0668253
0.092232
0.119738
0.14831
0.176781
0.204338
0.23023
0.2539
0.27501
0.293223
0.308526
0.320709
0.329955
0.33609
0.339394
0.339694
0.337287
0.331942
0.323806
0.312428
0.297657
0.278632
0.254813
0.223919
0.186945
0.130479
0.091842
0.0522969
0.0759123
0.117473
0.13961
0.15264
0.159548
0.161567
0.159922
0.157911
0.158561
0.166206
0.181716
0.205422
0.235559
0.267478
0.293832
0.309079
0.301664
0.290625
0.276171
0.248229
0.215102
0.179284
0.143098
0.108619
0.0776229
0.0518459
0.0324068
0.0197381
0.0146433
0.0173857
0.0278161
0.0447979
0.0665928
0.0919927
0.119487
0.148044
0.176496
0.20403
0.229895
0.253534
0.274611
0.292789
0.308057
0.320205
0.32942
0.33553
0.338816
0.339107
0.336699
0.331361
0.323239
0.31188
0.297132
0.278133
0.254336
0.223481
0.186499
0.130213
0.0913047
0.0544141
0.0770768
0.117508
0.139409
0.152437
0.159448
0.161685
0.1604
0.158844
0.15997
0.167967
0.183683
0.207312
0.237257
0.269063
0.295991
0.312007
0.303936
0.293618
0.278401
0.249443
0.215337
0.178821
0.142233
0.107602
0.0766505
0.0510431
0.031793
0.0193274
0.0143858
0.0172126
0.0276598
0.04464
0.0664241
0.0918084
0.119283
0.147817
0.176242
0.203745
0.229576
0.253179
0.274219
0.292357
0.307587
0.319699
0.328881
0.334964
0.338232
0.338515
0.336108
0.330778
0.322671
0.311334
0.296611
0.277641
0.25387
0.223056
0.186072
0.12996
0.0907947
0.0564556
0.0782338
0.117573
0.139235
0.152258
0.15937
0.16183
0.160904
0.1598
0.161398
0.169733
0.185643
0.209186
0.238915
0.270592
0.298086
0.314724
0.306286
0.296589
0.280464
0.250563
0.215563
0.178407
0.141452
0.106691
0.0757932
0.0503547
0.0312895
0.0190202
0.014222
0.0171284
0.027586
0.0445559
0.0663201
0.0916798
0.119126
0.147628
0.176018
0.203484
0.229276
0.252836
0.273834
0.291929
0.307118
0.31919
0.328338
0.334395
0.337645
0.33792
0.335513
0.330194
0.322103
0.310791
0.296095
0.277157
0.253415
0.222645
0.185662
0.129721
0.0903131
0.0584252
0.0793826
0.117664
0.139089
0.152104
0.159318
0.162
0.161434
0.160779
0.16284
0.171499
0.187589
0.211039
0.240529
0.272063
0.300088
0.317206
0.30869
0.2995
0.282347
0.251575
0.215765
0.178031
0.140754
0.105888
0.0750526
0.0497825
0.030896
0.0188164
0.0141511
0.017133
0.0275965
0.0445483
0.0662836
0.0916098
0.119018
0.14748
0.175828
0.203249
0.228994
0.252507
0.273457
0.291504
0.306649
0.31868
0.327793
0.333821
0.337054
0.337321
0.334916
0.329608
0.321537
0.31025
0.295585
0.276682
0.252972
0.222247
0.185271
0.129495
0.0898603
0.0603258
0.0805214
0.117781
0.138969
0.151973
0.159288
0.162195
0.161987
0.161777
0.164292
0.173261
0.189516
0.212866
0.242097
0.273467
0.301958
0.319435
0.311111
0.302307
0.284056
0.252483
0.21595
0.1777
0.140138
0.10519
0.0744276
0.0493257
0.0306148
0.0187179
0.0141749
0.0172276
0.0276918
0.0446176
0.0663152
0.0915989
0.118961
0.147374
0.175672
0.20304
0.228733
0.252192
0.273089
0.291085
0.306182
0.31817
0.327246
0.333245
0.33646
0.336719
0.334317
0.329022
0.320971
0.309713
0.29508
0.276215
0.25254
0.221864
0.184899
0.129282
0.0894371
0.0621606
0.0816496
0.117924
0.138876
0.151867
0.159283
0.162414
0.162563
0.162792
0.165752
0.175018
0.191421
0.214664
0.243615
0.274799
0.303671
0.321425
0.313512
0.304967
0.285578
0.253276
0.216104
0.177402
0.139603
0.104598
0.0739191
0.0489854
0.0304447
0.018724
0.0142937
0.0174128
0.0278735
0.0447662
0.0664175
0.0916498
0.118957
0.147313
0.175552
0.20286
0.228493
0.251892
0.272731
0.290672
0.305718
0.317659
0.326697
0.332667
0.335863
0.336116
0.333717
0.328436
0.320407
0.30918
0.294583
0.275758
0.252122
0.221496
0.184547
0.129083
0.0890442
0.0639321
0.0827657
0.118089
0.138808
0.151784
0.159302
0.162657
0.163159
0.163821
0.167216
0.176765
0.193299
0.21643
0.245083
0.276052
0.305201
0.323187
0.315848
0.307438
0.286924
0.253962
0.216237
0.177145
0.139147
0.10411
0.0735258
0.0487604
0.0303876
0.0188363
0.0145099
0.0176902
0.0281423
0.0449946
0.0665909
0.091763
0.119006
0.147296
0.175468
0.202709
0.228275
0.251608
0.272385
0.290265
0.305257
0.31715
0.326148
0.332088
0.335265
0.33551
0.333116
0.32785
0.319846
0.308651
0.294093
0.275311
0.251716
0.221143
0.184215
0.128898
0.0886826
0.0656435
0.0838692
0.118277
0.138765
0.151726
0.159344
0.162924
0.163776
0.164863
0.168682
0.178501
0.195147
0.218161
0.246502
0.277221
0.306535
0.324748
0.318087
0.309687
0.288087
0.254535
0.216337
0.176918
0.138771
0.103728
0.0732483
0.0486517
0.0304422
0.0190539
0.014824
0.0180602
0.0284994
0.0453047
0.0668378
0.0919408
0.119111
0.147327
0.175423
0.202588
0.228081
0.251341
0.27205
0.289867
0.304801
0.316643
0.325599
0.331507
0.334665
0.334904
0.332515
0.327266
0.319288
0.308128
0.293611
0.274874
0.251324
0.220806
0.183903
0.128727
0.0883531
0.0672966
0.0849589
0.118486
0.138748
0.15169
0.159409
0.163212
0.16441
0.165916
0.170146
0.180223
0.196964
0.219857
0.247872
0.278301
0.307664
0.326116
0.320191
0.311688
0.289081
0.255008
0.216416
0.176733
0.138472
0.103447
0.0730848
0.0486576
0.0306098
0.0193783
0.015238
0.0185244
0.0289455
0.0456967
0.0671584
0.0921835
0.119272
0.147404
0.175417
0.202499
0.22791
0.251093
0.271728
0.289477
0.30435
0.316138
0.325051
0.330927
0.334065
0.334298
0.331915
0.326683
0.318733
0.307611
0.293137
0.274449
0.250947
0.220485
0.183612
0.128569
0.0880569
0.0688942
0.0860345
0.118715
0.138754
0.151678
0.159496
0.163523
0.165063
0.166978
0.171607
0.181929
0.198745
0.221513
0.249193
0.279291
0.308591
0.327281
0.322136
0.313426
0.289902
0.255377
0.216465
0.176578
0.138252
0.103271
0.0730359
0.0487787
0.0308887
0.0198082
0.0157519
0.019083
0.0294814
0.0461724
0.0675548
0.0924932
0.11949
0.147531
0.175452
0.202443
0.227766
0.250864
0.271421
0.289096
0.303905
0.315637
0.324504
0.330347
0.333465
0.333692
0.331315
0.326103
0.318182
0.3071
0.292672
0.274035
0.250584
0.220181
0.183343
0.128426
0.0877948
0.0704381
0.0870949
0.118962
0.138783
0.151689
0.159606
0.163854
0.16573
0.168047
0.173063
0.183619
0.200492
0.223129
0.250465
0.280192
0.309322
0.328229
0.323893
0.314892
0.290567
0.255659
0.2165
0.176467
0.13811
0.103197
0.0730997
0.0490134
0.03128
0.020345
0.0163674
0.0197372
0.0301076
0.0467317
0.0680269
0.0928701
0.119768
0.147707
0.175527
0.202419
0.227648
0.250655
0.271128
0.288726
0.303466
0.31514
0.323961
0.329769
0.332867
0.333087
0.330717
0.325526
0.317636
0.306595
0.292216
0.273633
0.250236
0.219893
0.183096
0.128296
0.0875683
0.0719306
0.08814
0.119228
0.138836
0.151723
0.159739
0.164205
0.166414
0.169123
0.174512
0.185291
0.202204
0.224701
0.251687
0.281002
0.309873
0.328957
0.325445
0.316089
0.291075
0.255853
0.216513
0.176391
0.138048
0.103225
0.0732764
0.0493621
0.0317819
0.0209872
0.0170837
0.0204871
0.0308249
0.0473761
0.0685764
0.0933158
0.120105
0.147934
0.175646
0.202431
0.227557
0.250467
0.27085
0.288367
0.303036
0.314649
0.32342
0.329193
0.33227
0.332484
0.330122
0.324952
0.317096
0.306098
0.29177
0.273243
0.249904
0.219624
0.182871
0.128181
0.0873785
0.0733733
0.0891689
0.11951
0.13891
0.151778
0.159892
0.164576
0.16711
0.170202
0.175952
0.186944
0.203884
0.226227
0.252856
0.281725
0.310259
0.329463
0.326773
0.317024
0.291443
0.255977
0.216523
0.176363
0.138064
0.103354
0.0735645
0.0498232
0.0323953
0.0217359
0.0179022