/*--------------------------------*- C++ -*----------------------------------*\
| =========                 |                                                 |
| \\      /  F ield         | OpenFOAM: The Open Source CFD Toolbox           |
|  \\    /   O peration     | Version:  2.4.0                                 |
|   \\  /    A nd           | Web:      www.OpenFOAM.org                      |
|    \\/     M anipulation  |                                                 |
\*---------------------------------------------------------------------------*/
FoamFile
{
    version     2.0;
    format      ascii;
    class       volScalarField;
    location    "363";
    object      nut;
}
// * * * * * * * * * * * * * * * * * * * * * * * * * * * * * * * * * * * * * //

dimensions      [0 2 -1 0 0 0 0];

internalField   nonuniform List<scalar> 
10000
(
0.0012422
0.00124166
0.00124119
0.00124078
0.00124042
0.0012401
0.00123983
0.0012396
0.00123941
0.00123925
0.00123912
0.00123903
0.00123897
0.0012389
0.00123847
0.00123554
0.00121843
0.00113084
0.000776758
0.000177387
0.0012422
0.00124166
0.00124119
0.00124078
0.00124042
0.0012401
0.00123983
0.0012396
0.00123941
0.00123925
0.00123912
0.00123903
0.00123897
0.0012389
0.00123853
0.0012361
0.00122289
0.00116283
0.000951313
0.000504412
0.0012422
0.00124166
0.00124119
0.00124078
0.00124042
0.0012401
0.00123983
0.0012396
0.00123941
0.00123924
0.00123912
0.00123902
0.00123897
0.00123891
0.00123863
0.0012369
0.00122828
0.0011935
0.0010843
0.000843276
0.0012422
0.00124166
0.00124119
0.00124078
0.00124042
0.0012401
0.00123983
0.0012396
0.00123941
0.00123924
0.00123912
0.00123902
0.00123896
0.00123891
0.00123872
0.00123763
0.00123262
0.00121438
0.00116237
0.00105106
0.0012422
0.00124166
0.00124119
0.00124078
0.00124042
0.0012401
0.00123983
0.0012396
0.00123941
0.00123924
0.00123911
0.00123902
0.00123896
0.00123891
0.0012388
0.00123817
0.00123551
0.00122656
0.00120298
0.0011545
0.0012422
0.00124166
0.00124119
0.00124078
0.00124042
0.0012401
0.00123983
0.0012396
0.0012394
0.00123924
0.00123911
0.00123901
0.00123895
0.00123891
0.00123884
0.00123852
0.00123719
0.00123303
0.00122269
0.00120206
0.0012422
0.00124166
0.00124119
0.00124078
0.00124042
0.0012401
0.00123983
0.0012396
0.0012394
0.00123924
0.00123911
0.00123901
0.00123894
0.0012389
0.00123886
0.0012387
0.00123809
0.00123624
0.00123181
0.00122317
0.0012422
0.00124166
0.00124119
0.00124078
0.00124042
0.0012401
0.00123983
0.0012396
0.0012394
0.00123924
0.0012391
0.001239
0.00123893
0.00123889
0.00123886
0.00123878
0.00123852
0.00123773
0.00123589
0.00123231
0.0012422
0.00124166
0.00124119
0.00124078
0.00124042
0.0012401
0.00123983
0.0012396
0.0012394
0.00123923
0.0012391
0.001239
0.00123892
0.00123887
0.00123884
0.00123881
0.00123869
0.00123837
0.00123763
0.00123618
0.0012422
0.00124166
0.00124119
0.00124078
0.00124042
0.0012401
0.00123983
0.0012396
0.0012394
0.00123923
0.0012391
0.00123899
0.00123891
0.00123885
0.00123882
0.0012388
0.00123875
0.00123862
0.00123833
0.00123775
0.0012422
0.00124166
0.00124119
0.00124078
0.00124042
0.0012401
0.00123983
0.0012396
0.0012394
0.00123923
0.00123909
0.00123898
0.0012389
0.00123884
0.0012388
0.00123877
0.00123874
0.00123869
0.00123857
0.00123835
0.0012422
0.00124166
0.00124119
0.00124078
0.00124042
0.0012401
0.00123983
0.0012396
0.0012394
0.00123923
0.00123909
0.00123897
0.00123888
0.00123882
0.00123877
0.00123874
0.00123871
0.00123868
0.00123863
0.00123854
0.0012422
0.00124166
0.00124119
0.00124078
0.00124042
0.0012401
0.00123983
0.0012396
0.00123939
0.00123922
0.00123908
0.00123896
0.00123887
0.0012388
0.00123875
0.00123871
0.00123868
0.00123865
0.00123862
0.00123858
0.0012422
0.00124166
0.00124119
0.00124078
0.00124042
0.0012401
0.00123983
0.00123959
0.00123939
0.00123922
0.00123908
0.00123896
0.00123886
0.00123878
0.00123872
0.00123868
0.00123864
0.00123861
0.00123858
0.00123855
0.0012422
0.00124166
0.00124119
0.00124078
0.00124042
0.0012401
0.00123983
0.00123959
0.00123939
0.00123922
0.00123907
0.00123895
0.00123885
0.00123877
0.0012387
0.00123865
0.00123861
0.00123857
0.00123854
0.00123851
0.0012422
0.00124166
0.00124119
0.00124078
0.00124042
0.0012401
0.00123983
0.00123959
0.00123939
0.00123921
0.00123906
0.00123894
0.00123884
0.00123875
0.00123868
0.00123862
0.00123857
0.00123853
0.0012385
0.00123846
0.0012422
0.00124166
0.00124119
0.00124078
0.00124042
0.0012401
0.00123983
0.00123959
0.00123938
0.00123921
0.00123906
0.00123893
0.00123883
0.00123874
0.00123866
0.0012386
0.00123855
0.0012385
0.00123846
0.00123842
0.0012422
0.00124166
0.00124119
0.00124078
0.00124041
0.0012401
0.00123983
0.00123959
0.00123938
0.00123921
0.00123905
0.00123892
0.00123881
0.00123872
0.00123864
0.00123858
0.00123852
0.00123847
0.00123843
0.00123839
0.0012422
0.00124166
0.00124119
0.00124078
0.00124041
0.0012401
0.00123983
0.00123959
0.00123938
0.0012392
0.00123905
0.00123892
0.00123881
0.00123871
0.00123863
0.00123856
0.0012385
0.00123844
0.0012384
0.00123835
0.0012422
0.00124166
0.00124119
0.00124078
0.00124041
0.0012401
0.00123982
0.00123959
0.00123938
0.0012392
0.00123904
0.00123891
0.0012388
0.0012387
0.00123861
0.00123854
0.00123848
0.00123842
0.00123837
0.00123832
0.0012422
0.00124166
0.00124119
0.00124078
0.00124041
0.0012401
0.00123982
0.00123958
0.00123938
0.00123919
0.00123904
0.0012389
0.00123879
0.00123869
0.0012386
0.00123852
0.00123846
0.0012384
0.00123835
0.0012383
0.0012422
0.00124166
0.00124119
0.00124078
0.00124041
0.0012401
0.00123982
0.00123958
0.00123937
0.00123919
0.00123903
0.0012389
0.00123878
0.00123868
0.00123859
0.00123851
0.00123844
0.00123838
0.00123833
0.00123828
0.0012422
0.00124166
0.00124119
0.00124078
0.00124041
0.0012401
0.00123982
0.00123958
0.00123937
0.00123919
0.00123903
0.00123889
0.00123877
0.00123867
0.00123858
0.0012385
0.00123843
0.00123837
0.00123831
0.00123826
0.0012422
0.00124166
0.00124119
0.00124078
0.00124041
0.0012401
0.00123982
0.00123958
0.00123937
0.00123918
0.00123903
0.00123889
0.00123876
0.00123866
0.00123857
0.00123849
0.00123841
0.00123835
0.00123829
0.00123824
0.0012422
0.00124166
0.00124119
0.00124078
0.00124041
0.0012401
0.00123982
0.00123958
0.00123937
0.00123918
0.00123902
0.00123888
0.00123876
0.00123865
0.00123856
0.00123847
0.0012384
0.00123834
0.00123828
0.00123822
0.0012422
0.00124166
0.00124119
0.00124078
0.00124041
0.0012401
0.00123982
0.00123958
0.00123936
0.00123918
0.00123902
0.00123888
0.00123875
0.00123864
0.00123855
0.00123847
0.00123839
0.00123833
0.00123827
0.00123821
0.0012422
0.00124166
0.00124119
0.00124078
0.00124041
0.0012401
0.00123982
0.00123957
0.00123936
0.00123918
0.00123901
0.00123887
0.00123875
0.00123864
0.00123854
0.00123846
0.00123838
0.00123831
0.00123825
0.0012382
0.0012422
0.00124166
0.00124119
0.00124077
0.00124041
0.00124009
0.00123982
0.00123957
0.00123936
0.00123917
0.00123901
0.00123887
0.00123874
0.00123863
0.00123853
0.00123845
0.00123837
0.00123831
0.00123824
0.00123819
0.0012422
0.00124166
0.00124119
0.00124077
0.00124041
0.00124009
0.00123982
0.00123957
0.00123936
0.00123917
0.00123901
0.00123886
0.00123874
0.00123862
0.00123853
0.00123844
0.00123836
0.0012383
0.00123823
0.00123818
0.0012422
0.00124166
0.00124119
0.00124077
0.00124041
0.00124009
0.00123982
0.00123957
0.00123936
0.00123917
0.001239
0.00123886
0.00123873
0.00123862
0.00123852
0.00123843
0.00123836
0.00123829
0.00123823
0.00123817
0.0012422
0.00124166
0.00124119
0.00124077
0.00124041
0.00124009
0.00123981
0.00123957
0.00123935
0.00123917
0.001239
0.00123886
0.00123873
0.00123862
0.00123852
0.00123843
0.00123835
0.00123828
0.00123822
0.00123816
0.0012422
0.00124166
0.00124119
0.00124077
0.00124041
0.00124009
0.00123981
0.00123957
0.00123935
0.00123916
0.001239
0.00123885
0.00123872
0.00123861
0.00123851
0.00123842
0.00123835
0.00123828
0.00123821
0.00123815
0.0012422
0.00124166
0.00124119
0.00124077
0.00124041
0.00124009
0.00123981
0.00123957
0.00123935
0.00123916
0.001239
0.00123885
0.00123872
0.00123861
0.00123851
0.00123842
0.00123834
0.00123827
0.0012382
0.00123814
0.0012422
0.00124166
0.00124119
0.00124077
0.00124041
0.00124009
0.00123981
0.00123957
0.00123935
0.00123916
0.00123899
0.00123885
0.00123872
0.0012386
0.0012385
0.00123841
0.00123833
0.00123826
0.0012382
0.00123814
0.0012422
0.00124166
0.00124119
0.00124077
0.00124041
0.00124009
0.00123981
0.00123957
0.00123935
0.00123916
0.00123899
0.00123884
0.00123871
0.0012386
0.0012385
0.00123841
0.00123833
0.00123826
0.00123819
0.00123813
0.0012422
0.00124166
0.00124119
0.00124077
0.00124041
0.00124009
0.00123981
0.00123956
0.00123935
0.00123916
0.00123899
0.00123884
0.00123871
0.0012386
0.0012385
0.00123841
0.00123833
0.00123826
0.00123819
0.00123813
0.0012422
0.00124166
0.00124119
0.00124077
0.00124041
0.00124009
0.00123981
0.00123956
0.00123935
0.00123916
0.00123899
0.00123884
0.00123871
0.00123859
0.00123849
0.0012384
0.00123832
0.00123825
0.00123819
0.00123812
0.0012422
0.00124166
0.00124119
0.00124077
0.00124041
0.00124009
0.00123981
0.00123956
0.00123935
0.00123915
0.00123899
0.00123884
0.00123871
0.00123859
0.00123849
0.0012384
0.00123832
0.00123825
0.00123818
0.00123812
0.0012422
0.00124166
0.00124119
0.00124077
0.00124041
0.00124009
0.00123981
0.00123956
0.00123934
0.00123915
0.00123898
0.00123884
0.00123871
0.00123859
0.00123849
0.0012384
0.00123832
0.00123825
0.00123818
0.00123812
0.0012422
0.00124166
0.00124119
0.00124077
0.00124041
0.00124009
0.00123981
0.00123956
0.00123934
0.00123915
0.00123898
0.00123883
0.0012387
0.00123859
0.00123849
0.00123839
0.00123831
0.00123824
0.00123818
0.00123811
0.0012422
0.00124166
0.00124119
0.00124077
0.00124041
0.00124009
0.00123981
0.00123956
0.00123934
0.00123915
0.00123898
0.00123883
0.0012387
0.00123859
0.00123848
0.00123839
0.00123831
0.00123824
0.00123817
0.00123811
0.0012422
0.00124166
0.00124119
0.00124077
0.00124041
0.00124009
0.00123981
0.00123956
0.00123934
0.00123915
0.00123898
0.00123883
0.0012387
0.00123858
0.00123848
0.00123839
0.00123831
0.00123824
0.00123817
0.00123811
0.0012422
0.00124166
0.00124119
0.00124077
0.00124041
0.00124009
0.00123981
0.00123956
0.00123934
0.00123915
0.00123898
0.00123883
0.0012387
0.00123858
0.00123848
0.00123839
0.00123831
0.00123824
0.00123817
0.00123811
0.0012422
0.00124166
0.00124119
0.00124077
0.00124041
0.00124009
0.00123981
0.00123956
0.00123934
0.00123915
0.00123898
0.00123883
0.0012387
0.00123858
0.00123848
0.00123839
0.00123831
0.00123823
0.00123817
0.0012381
0.0012422
0.00124166
0.00124119
0.00124077
0.00124041
0.00124009
0.00123981
0.00123956
0.00123934
0.00123915
0.00123898
0.00123883
0.0012387
0.00123858
0.00123848
0.00123839
0.0012383
0.00123823
0.00123817
0.0012381
0.0012422
0.00124166
0.00124119
0.00124077
0.00124041
0.00124009
0.00123981
0.00123956
0.00123934
0.00123915
0.00123898
0.00123883
0.0012387
0.00123858
0.00123848
0.00123838
0.0012383
0.00123823
0.00123816
0.0012381
0.0012422
0.00124166
0.00124119
0.00124077
0.00124041
0.00124009
0.00123981
0.00123956
0.00123934
0.00123915
0.00123898
0.00123883
0.00123869
0.00123858
0.00123847
0.00123838
0.0012383
0.00123823
0.00123816
0.0012381
0.0012422
0.00124166
0.00124119
0.00124077
0.00124041
0.00124009
0.00123981
0.00123956
0.00123934
0.00123915
0.00123898
0.00123883
0.00123869
0.00123858
0.00123847
0.00123838
0.0012383
0.00123823
0.00123816
0.0012381
0.0012422
0.00124166
0.00124119
0.00124077
0.00124041
0.00124009
0.00123981
0.00123956
0.00123934
0.00123915
0.00123898
0.00123883
0.00123869
0.00123858
0.00123847
0.00123838
0.0012383
0.00123823
0.00123816
0.0012381
0.0012422
0.00124166
0.00124119
0.00124077
0.00124041
0.00124009
0.00123981
0.00123956
0.00123934
0.00123914
0.00123897
0.00123882
0.00123869
0.00123857
0.00123847
0.00123838
0.0012383
0.00123823
0.00123816
0.0012381
0.0012422
0.00124166
0.00124119
0.00124077
0.00124041
0.00124009
0.00123981
0.00123956
0.00123934
0.00123914
0.00123897
0.00123882
0.00123869
0.00123857
0.00123847
0.00123838
0.0012383
0.00123822
0.00123816
0.00123809
0.0012422
0.00124166
0.00124119
0.00124077
0.00124041
0.00124009
0.0012398
0.00123956
0.00123934
0.00123914
0.00123897
0.00123882
0.00123869
0.00123857
0.00123847
0.00123838
0.0012383
0.00123822
0.00123816
0.00123809
0.0012422
0.00124166
0.00124119
0.00124077
0.00124041
0.00124009
0.0012398
0.00123956
0.00123934
0.00123914
0.00123897
0.00123882
0.00123869
0.00123857
0.00123847
0.00123838
0.0012383
0.00123822
0.00123816
0.00123809
0.0012422
0.00124166
0.00124119
0.00124077
0.00124041
0.00124009
0.0012398
0.00123956
0.00123934
0.00123914
0.00123897
0.00123882
0.00123869
0.00123857
0.00123847
0.00123838
0.00123829
0.00123822
0.00123815
0.00123809
0.0012422
0.00124166
0.00124119
0.00124077
0.00124041
0.00124009
0.0012398
0.00123955
0.00123934
0.00123914
0.00123897
0.00123882
0.00123869
0.00123857
0.00123847
0.00123838
0.00123829
0.00123822
0.00123815
0.00123809
0.0012422
0.00124166
0.00124119
0.00124077
0.00124041
0.00124009
0.0012398
0.00123955
0.00123934
0.00123914
0.00123897
0.00123882
0.00123869
0.00123857
0.00123847
0.00123838
0.00123829
0.00123822
0.00123815
0.00123809
0.0012422
0.00124166
0.00124119
0.00124077
0.00124041
0.00124009
0.0012398
0.00123955
0.00123933
0.00123914
0.00123897
0.00123882
0.00123869
0.00123857
0.00123847
0.00123837
0.00123829
0.00123822
0.00123815
0.00123809
0.0012422
0.00124166
0.00124119
0.00124077
0.00124041
0.00124009
0.0012398
0.00123955
0.00123933
0.00123914
0.00123897
0.00123882
0.00123869
0.00123857
0.00123847
0.00123837
0.00123829
0.00123822
0.00123815
0.00123809
0.0012422
0.00124166
0.00124119
0.00124077
0.00124041
0.00124009
0.0012398
0.00123955
0.00123933
0.00123914
0.00123897
0.00123882
0.00123869
0.00123857
0.00123847
0.00123837
0.00123829
0.00123822
0.00123815
0.00123809
0.0012422
0.00124166
0.00124119
0.00124077
0.00124041
0.00124009
0.0012398
0.00123955
0.00123933
0.00123914
0.00123897
0.00123882
0.00123869
0.00123857
0.00123846
0.00123837
0.00123829
0.00123822
0.00123815
0.00123809
0.0012422
0.00124166
0.00124119
0.00124077
0.00124041
0.00124008
0.0012398
0.00123955
0.00123933
0.00123914
0.00123897
0.00123882
0.00123869
0.00123857
0.00123846
0.00123837
0.00123829
0.00123822
0.00123815
0.00123809
0.0012422
0.00124166
0.00124119
0.00124077
0.00124041
0.00124008
0.0012398
0.00123955
0.00123933
0.00123914
0.00123897
0.00123882
0.00123868
0.00123857
0.00123846
0.00123837
0.00123829
0.00123822
0.00123815
0.00123809
0.0012422
0.00124166
0.00124119
0.00124077
0.00124041
0.00124008
0.0012398
0.00123955
0.00123933
0.00123914
0.00123897
0.00123882
0.00123868
0.00123857
0.00123846
0.00123837
0.00123829
0.00123822
0.00123815
0.00123809
0.0012422
0.00124166
0.00124119
0.00124077
0.00124041
0.00124008
0.0012398
0.00123955
0.00123933
0.00123914
0.00123897
0.00123882
0.00123868
0.00123857
0.00123846
0.00123837
0.00123829
0.00123822
0.00123815
0.00123808
0.0012422
0.00124166
0.00124119
0.00124077
0.00124041
0.00124008
0.0012398
0.00123955
0.00123933
0.00123914
0.00123897
0.00123882
0.00123868
0.00123857
0.00123846
0.00123837
0.00123829
0.00123821
0.00123815
0.00123808
0.0012422
0.00124166
0.00124119
0.00124077
0.00124041
0.00124008
0.0012398
0.00123955
0.00123933
0.00123914
0.00123897
0.00123882
0.00123868
0.00123857
0.00123846
0.00123837
0.00123829
0.00123821
0.00123815
0.00123808
0.0012422
0.00124166
0.00124119
0.00124077
0.0012404
0.00124008
0.0012398
0.00123955
0.00123933
0.00123914
0.00123897
0.00123882
0.00123868
0.00123856
0.00123846
0.00123837
0.00123829
0.00123821
0.00123815
0.00123808
0.0012422
0.00124166
0.00124119
0.00124077
0.0012404
0.00124008
0.0012398
0.00123955
0.00123933
0.00123914
0.00123897
0.00123882
0.00123868
0.00123856
0.00123846
0.00123837
0.00123829
0.00123821
0.00123815
0.00123808
0.0012422
0.00124166
0.00124119
0.00124077
0.0012404
0.00124008
0.0012398
0.00123955
0.00123933
0.00123914
0.00123897
0.00123882
0.00123868
0.00123856
0.00123846
0.00123837
0.00123829
0.00123821
0.00123815
0.00123808
0.0012422
0.00124166
0.00124119
0.00124077
0.0012404
0.00124008
0.0012398
0.00123955
0.00123933
0.00123914
0.00123897
0.00123881
0.00123868
0.00123856
0.00123846
0.00123837
0.00123829
0.00123821
0.00123814
0.00123808
0.0012422
0.00124166
0.00124119
0.00124077
0.0012404
0.00124008
0.0012398
0.00123955
0.00123933
0.00123914
0.00123897
0.00123881
0.00123868
0.00123856
0.00123846
0.00123837
0.00123829
0.00123821
0.00123814
0.00123808
0.0012422
0.00124166
0.00124119
0.00124077
0.0012404
0.00124008
0.0012398
0.00123955
0.00123933
0.00123914
0.00123897
0.00123881
0.00123868
0.00123856
0.00123846
0.00123837
0.00123829
0.00123821
0.00123814
0.00123808
0.0012422
0.00124166
0.00124119
0.00124077
0.0012404
0.00124008
0.0012398
0.00123955
0.00123933
0.00123914
0.00123896
0.00123881
0.00123868
0.00123856
0.00123846
0.00123837
0.00123828
0.00123821
0.00123814
0.00123808
0.0012422
0.00124166
0.00124119
0.00124077
0.0012404
0.00124008
0.0012398
0.00123955
0.00123933
0.00123914
0.00123896
0.00123881
0.00123868
0.00123856
0.00123846
0.00123837
0.00123828
0.00123821
0.00123814
0.00123808
0.0012422
0.00124166
0.00124119
0.00124077
0.0012404
0.00124008
0.0012398
0.00123955
0.00123933
0.00123914
0.00123896
0.00123881
0.00123868
0.00123856
0.00123846
0.00123837
0.00123828
0.00123821
0.00123814
0.00123808
0.0012422
0.00124166
0.00124119
0.00124077
0.0012404
0.00124008
0.0012398
0.00123955
0.00123933
0.00123914
0.00123896
0.00123881
0.00123868
0.00123856
0.00123846
0.00123837
0.00123828
0.00123821
0.00123814
0.00123808
0.0012422
0.00124166
0.00124119
0.00124077
0.0012404
0.00124008
0.0012398
0.00123955
0.00123933
0.00123913
0.00123896
0.00123881
0.00123868
0.00123856
0.00123846
0.00123837
0.00123828
0.00123821
0.00123814
0.00123808
0.0012422
0.00124166
0.00124119
0.00124077
0.0012404
0.00124008
0.0012398
0.00123955
0.00123933
0.00123913
0.00123896
0.00123881
0.00123868
0.00123856
0.00123846
0.00123836
0.00123828
0.00123821
0.00123814
0.00123808
0.0012422
0.00124166
0.00124119
0.00124077
0.0012404
0.00124008
0.0012398
0.00123955
0.00123933
0.00123913
0.00123896
0.00123881
0.00123868
0.00123856
0.00123846
0.00123836
0.00123828
0.00123821
0.00123814
0.00123808
0.0012422
0.00124166
0.00124119
0.00124077
0.0012404
0.00124008
0.0012398
0.00123955
0.00123933
0.00123913
0.00123896
0.00123881
0.00123868
0.00123856
0.00123846
0.00123836
0.00123828
0.00123821
0.00123814
0.00123808
0.0012422
0.00124166
0.00124119
0.00124077
0.0012404
0.00124008
0.0012398
0.00123955
0.00123933
0.00123913
0.00123896
0.00123881
0.00123868
0.00123856
0.00123846
0.00123836
0.00123828
0.00123821
0.00123814
0.00123808
0.0012422
0.00124166
0.00124119
0.00124077
0.0012404
0.00124008
0.0012398
0.00123955
0.00123933
0.00123913
0.00123896
0.00123881
0.00123868
0.00123856
0.00123846
0.00123836
0.00123828
0.00123821
0.00123814
0.00123808
0.0012422
0.00124166
0.00124119
0.00124077
0.0012404
0.00124008
0.0012398
0.00123955
0.00123933
0.00123913
0.00123896
0.00123881
0.00123868
0.00123856
0.00123846
0.00123836
0.00123828
0.00123821
0.00123814
0.00123808
0.0012422
0.00124166
0.00124119
0.00124077
0.0012404
0.00124008
0.0012398
0.00123955
0.00123933
0.00123913
0.00123896
0.00123881
0.00123868
0.00123856
0.00123846
0.00123836
0.00123828
0.00123821
0.00123814
0.00123808
0.0012422
0.00124166
0.00124119
0.00124077
0.0012404
0.00124008
0.0012398
0.00123955
0.00123933
0.00123913
0.00123896
0.00123881
0.00123868
0.00123856
0.00123846
0.00123836
0.00123828
0.00123821
0.00123814
0.00123808
0.0012422
0.00124166
0.00124118
0.00124077
0.0012404
0.00124008
0.0012398
0.00123955
0.00123933
0.00123913
0.00123896
0.00123881
0.00123868
0.00123856
0.00123846
0.00123836
0.00123828
0.00123821
0.00123814
0.00123808
0.0012422
0.00124166
0.00124118
0.00124077
0.0012404
0.00124008
0.0012398
0.00123955
0.00123933
0.00123913
0.00123896
0.00123881
0.00123868
0.00123856
0.00123846
0.00123836
0.00123828
0.00123821
0.00123814
0.00123808
0.0012422
0.00124166
0.00124118
0.00124077
0.0012404
0.00124008
0.0012398
0.00123955
0.00123933
0.00123913
0.00123896
0.00123881
0.00123868
0.00123856
0.00123846
0.00123836
0.00123828
0.00123821
0.00123814
0.00123808
0.0012422
0.00124166
0.00124118
0.00124077
0.0012404
0.00124008
0.0012398
0.00123955
0.00123933
0.00123913
0.00123896
0.00123881
0.00123868
0.00123856
0.00123846
0.00123836
0.00123828
0.00123821
0.00123814
0.00123808
0.0012422
0.00124166
0.00124118
0.00124077
0.0012404
0.00124008
0.0012398
0.00123955
0.00123933
0.00123913
0.00123896
0.00123881
0.00123868
0.00123856
0.00123845
0.00123836
0.00123828
0.00123821
0.00123814
0.00123808
0.0012422
0.00124166
0.00124118
0.00124077
0.0012404
0.00124008
0.0012398
0.00123955
0.00123933
0.00123913
0.00123896
0.00123881
0.00123868
0.00123856
0.00123845
0.00123836
0.00123828
0.00123821
0.00123814
0.00123808
0.0012422
0.00124166
0.00124118
0.00124077
0.0012404
0.00124008
0.0012398
0.00123955
0.00123933
0.00123913
0.00123896
0.00123881
0.00123868
0.00123856
0.00123845
0.00123836
0.00123828
0.00123821
0.00123814
0.00123808
0.0012422
0.00124166
0.00124118
0.00124077
0.0012404
0.00124008
0.0012398
0.00123955
0.00123933
0.00123913
0.00123896
0.00123881
0.00123868
0.00123856
0.00123845
0.00123836
0.00123828
0.00123821
0.00123814
0.00123808
0.0012422
0.00124166
0.00124118
0.00124077
0.0012404
0.00124008
0.0012398
0.00123955
0.00123933
0.00123913
0.00123896
0.00123881
0.00123868
0.00123856
0.00123845
0.00123836
0.00123828
0.00123821
0.00123814
0.00123808
0.0012422
0.00124166
0.00124118
0.00124077
0.0012404
0.00124008
0.0012398
0.00123955
0.00123933
0.00123913
0.00123896
0.00123881
0.00123868
0.00123856
0.00123845
0.00123836
0.00123828
0.00123821
0.00123814
0.00123808
0.0012422
0.00124166
0.00124118
0.00124077
0.0012404
0.00124008
0.0012398
0.00123955
0.00123933
0.00123913
0.00123896
0.00123881
0.00123868
0.00123856
0.00123845
0.00123836
0.00123828
0.00123821
0.00123814
0.00123808
0.0012422
0.00124166
0.00124118
0.00124077
0.0012404
0.00124008
0.0012398
0.00123955
0.00123933
0.00123913
0.00123896
0.00123881
0.00123868
0.00123856
0.00123845
0.00123836
0.00123828
0.00123821
0.00123814
0.00123808
0.0012422
0.00124166
0.00124118
0.00124077
0.0012404
0.00124008
0.0012398
0.00123955
0.00123933
0.00123913
0.00123896
0.00123881
0.00123868
0.00123856
0.00123845
0.00123836
0.00123828
0.00123821
0.00123814
0.00123808
0.0012422
0.00124166
0.00124118
0.00124077
0.0012404
0.00124008
0.0012398
0.00123955
0.00123933
0.00123913
0.00123896
0.00123881
0.00123868
0.00123856
0.00123845
0.00123836
0.00123828
0.00123821
0.00123814
0.00123808
0.0012422
0.00124166
0.00124118
0.00124077
0.0012404
0.00124008
0.0012398
0.00123955
0.00123933
0.00123913
0.00123896
0.00123881
0.00123868
0.00123856
0.00123845
0.00123836
0.00123828
0.00123821
0.00123814
0.00123808
1.56636e-05
1.88873e-05
2.17603e-05
2.42824e-05
2.64577e-05
2.82981e-05
2.98233e-05
3.10585e-05
3.20325e-05
3.27763e-05
3.33207e-05
3.36951e-05
3.39269e-05
3.40408e-05
3.40586e-05
3.3999e-05
3.38778e-05
3.37084e-05
3.35016e-05
3.32662e-05
3.30095e-05
3.2737e-05
3.24533e-05
3.21619e-05
3.18656e-05
3.15666e-05
3.12668e-05
3.09675e-05
3.06701e-05
3.03758e-05
3.00855e-05
2.98003e-05
2.95211e-05
2.92488e-05
2.89845e-05
2.87289e-05
2.84829e-05
2.82473e-05
2.80228e-05
2.78099e-05
2.76092e-05
2.74208e-05
2.7245e-05
2.70818e-05
2.69309e-05
2.67921e-05
2.6665e-05
2.65487e-05
2.64425e-05
2.63455e-05
2.62564e-05
2.61742e-05
2.60977e-05
2.60258e-05
2.59574e-05
2.58915e-05
2.58274e-05
2.57644e-05
2.5702e-05
2.56398e-05
2.55774e-05
2.55147e-05
2.54515e-05
2.53878e-05
2.53236e-05
2.52589e-05
2.51937e-05
2.51282e-05
2.50623e-05
2.49962e-05
2.493e-05
2.48637e-05
2.47973e-05
2.47311e-05
2.46651e-05
2.45992e-05
2.45345e-05
2.44674e-05
2.44133e-05
2.43075e-05
0.000116736
6.12575e-05
3.99333e-05
2.93758e-05
2.35214e-05
2.00717e-05
1.79738e-05
1.66876e-05
1.59138e-05
1.54759e-05
1.52647e-05
1.52096e-05
1.5264e-05
1.53961e-05
1.55842e-05
1.58136e-05
1.60746e-05
1.63607e-05
1.66684e-05
1.69961e-05
1.73436e-05
1.77121e-05
1.81033e-05
1.85198e-05
1.89645e-05
1.94406e-05
1.99514e-05
2.05002e-05
2.10903e-05
2.17247e-05
2.24058e-05
2.31358e-05
2.39159e-05
2.47465e-05
2.56272e-05
2.65563e-05
2.75311e-05
2.85479e-05
2.96018e-05
3.06874e-05
3.17985e-05
3.2929e-05
3.40722e-05
3.52215e-05
3.63702e-05
3.7511e-05
3.86364e-05
3.97382e-05
4.08081e-05
4.18377e-05
4.28194e-05
4.37466e-05
4.46144e-05
4.54193e-05
4.616e-05
4.68365e-05
4.74503e-05
4.8004e-05
4.85012e-05
4.89457e-05
4.93422e-05
4.96951e-05
5.00088e-05
5.02877e-05
5.05356e-05
5.07561e-05
5.09525e-05
5.11274e-05
5.12833e-05
5.14223e-05
5.1546e-05
5.16557e-05
5.17526e-05
5.18375e-05
5.19105e-05
5.19713e-05
5.20193e-05
5.20529e-05
5.20673e-05
5.19882e-05
0.000496711
0.000312665
0.000211868
0.000151658
0.000113232
8.75269e-05
6.97112e-05
5.70047e-05
4.77196e-05
4.07899e-05
3.55209e-05
3.14481e-05
2.82538e-05
2.57168e-05
2.36802e-05
2.20313e-05
2.06877e-05
1.9589e-05
1.86901e-05
1.79573e-05
1.73653e-05
1.68954e-05
1.65337e-05
1.62701e-05
1.60978e-05
1.60127e-05
1.60125e-05
1.60972e-05
1.62683e-05
1.65288e-05
1.68831e-05
1.73369e-05
1.78967e-05
1.85701e-05
1.93649e-05
2.02895e-05
2.13515e-05
2.25576e-05
2.3913e-05
2.54198e-05
2.70771e-05
2.88796e-05
3.08173e-05
3.28758e-05
3.50363e-05
3.72765e-05
3.95726e-05
4.18999e-05
4.42351e-05
4.65567e-05
4.88456e-05
5.10859e-05
5.32638e-05
5.53679e-05
5.73891e-05
5.93202e-05
6.11563e-05
6.28946e-05
6.45345e-05
6.6077e-05
6.75247e-05
6.88814e-05
7.01515e-05
7.134e-05
7.24522e-05
7.34933e-05
7.44684e-05
7.53827e-05
7.62407e-05
7.70467e-05
7.78047e-05
7.8518e-05
7.91895e-05
7.98216e-05
8.04157e-05
8.09721e-05
8.14897e-05
8.19666e-05
8.23883e-05
8.26595e-05
0.000869396
0.000693465
0.000550346
0.000440024
0.000355881
0.000291442
0.000241657
0.000202797
0.000172148
0.000147728
0.000128082
0.000112126
9.90516e-05
8.8244e-05
7.92356e-05
7.1666e-05
6.52558e-05
5.9787e-05
5.50878e-05
5.10228e-05
4.74841e-05
4.43857e-05
4.16586e-05
3.92477e-05
3.71083e-05
3.52052e-05
3.35098e-05
3.2e-05
3.06584e-05
2.9472e-05
2.84315e-05
2.75312e-05
2.67679e-05
2.61415e-05
2.56546e-05
2.53119e-05
2.51207e-05
2.50905e-05
2.52329e-05
2.5561e-05
2.60892e-05
2.68326e-05
2.78055e-05
2.90207e-05
3.04873e-05
3.22094e-05
3.41843e-05
3.64011e-05
3.88403e-05
4.14741e-05
4.42681e-05
4.71835e-05
5.01805e-05
5.32205e-05
5.62692e-05
5.92972e-05
6.22808e-05
6.52013e-05
6.80445e-05
7.08e-05
7.34603e-05
7.60207e-05
7.84786e-05
8.08336e-05
8.30868e-05
8.52402e-05
8.72969e-05
8.92608e-05
9.11356e-05
9.29257e-05
9.46351e-05
9.62679e-05
9.78276e-05
9.93174e-05
0.000100739
0.000102094
0.000103379
0.000104593
0.000105712
0.000106652
0.00107211
0.000967966
0.000858332
0.000753908
0.00065967
0.000577057
0.000505738
0.000444635
0.000392449
0.000347898
0.000309822
0.00027721
0.000249198
0.00022506
0.000204187
0.000186069
0.000170282
0.000156471
0.000144338
0.000133635
0.000124153
0.000115717
0.000108179
0.000101413
9.53139e-05
8.9792e-05
8.47708e-05
8.01856e-05
7.59816e-05
7.21121e-05
6.85379e-05
6.52262e-05
6.21498e-05
5.92868e-05
5.66201e-05
5.41373e-05
5.18301e-05
4.96947e-05
4.77314e-05
4.59448e-05
4.43435e-05
4.29401e-05
4.1751e-05
4.07957e-05
4.00965e-05
3.96774e-05
3.9563e-05
3.97767e-05
4.03388e-05
4.12644e-05
4.25611e-05
4.42266e-05
4.62479e-05
4.85998e-05
5.1247e-05
5.41455e-05
5.7246e-05
6.04981e-05
6.38537e-05
6.72694e-05
7.0708e-05
7.41394e-05
7.75396e-05
8.08898e-05
8.41761e-05
8.7388e-05
9.05181e-05
9.35616e-05
9.65156e-05
9.93789e-05
0.000102151
0.000104833
0.000107427
0.000109932
0.000112351
0.000114681
0.00011692
0.000119062
0.000121079
0.00012291
0.00116617
0.00111427
0.00105012
0.000978928
0.000905364
0.000832884
0.000763706
0.000699078
0.000639563
0.000585286
0.000536106
0.000491731
0.000451795
0.000415906
0.000383673
0.00035472
0.0003287
0.000305293
0.00028421
0.000265191
0.000248003
0.00023244
0.000218318
0.000205474
0.000193762
0.000183055
0.000173238
0.000164211
0.000155885
0.000148178
0.000141021
0.000134351
0.00012811
0.00012225
0.000116727
0.0001115
0.000106537
0.000101809
9.72914e-05
9.29652e-05
8.8817e-05
8.48385e-05
8.10282e-05
7.73907e-05
7.39377e-05
7.0688e-05
6.76672e-05
6.49071e-05
6.24448e-05
6.03206e-05
5.8576e-05
5.7251e-05
5.63813e-05
5.59955e-05
5.6112e-05
5.67371e-05
5.78632e-05
5.94688e-05
6.15186e-05
6.39663e-05
6.67577e-05
6.98344e-05
7.31379e-05
7.6613e-05
8.02103e-05
8.3887e-05
8.76072e-05
9.13418e-05
9.50673e-05
9.87651e-05
0.000102421
0.000106022
0.000109562
0.000113033
0.00011643
0.000119745
0.000122971
0.000126097
0.000129088
0.000131903
0.00120784
0.00118387
0.00115095
0.00111013
0.0010632
0.00101222
0.000959078
0.000905381
0.000852355
0.000800888
0.00075158
0.000704804
0.000660759
0.00061952
0.000581072
0.000545341
0.000512214
0.000481551
0.000453202
0.00042701
0.000402819
0.000380475
0.000359831
0.000340748
0.000323095
0.000306749
0.000291594
0.000277524
0.000264442
0.000252256
0.000240881
0.00023024
0.000220261
0.000210877
0.000202027
0.000193652
0.000185701
0.000178124
0.000170877
0.000163916
0.000157206
0.000150711
0.000144404
0.000138259
0.00013226
0.000126396
0.000120662
0.000115067
0.000109626
0.000104366
9.93258e-05
9.45521e-05
9.01013e-05
8.6035e-05
8.24166e-05
7.93074e-05
7.67622e-05
7.48253e-05
7.35272e-05
7.28825e-05
7.28884e-05
7.3525e-05
7.47566e-05
7.65345e-05
7.87998e-05
8.14881e-05
8.45331e-05
8.78703e-05
9.14397e-05
9.51879e-05
9.90681e-05
0.000103041
0.000107073
0.000111137
0.000115208
0.000119267
0.000123291
0.00012726
0.000131129
0.000134854
0.00122587
0.00121527
0.00119961
0.0011785
0.00115209
0.00112096
0.00108594
0.00104795
0.00100794
0.000966755
0.000925137
0.000883693
0.000842905
0.000803143
0.000764677
0.000727695
0.000692321
0.000658624
0.000626631
0.000596337
0.000567715
0.000540719
0.00051529
0.000491361
0.000468858
0.000447707
0.00042783
0.000409149
0.000391587
0.00037507
0.000359524
0.00034488
0.000331068
0.000318023
0.000305683
0.000293986
0.000282875
0.000272293
0.000262188
0.000252506
0.000243199
0.000234219
0.000225521
0.000217061
0.0002088
0.000200702
0.000192736
0.000184876
0.000177105
0.000169413
0.000161801
0.000154283
0.000146884
0.000139646
0.000132621
0.000125876
0.000119486
0.000113533
0.0001081
0.000103266
9.91015e-05
9.56635e-05
9.29918e-05
9.1107e-05
9.00099e-05
8.96815e-05
9.00856e-05
9.1171e-05
9.28756e-05