/*--------------------------------*- C++ -*----------------------------------*\
| =========                 |                                                 |
| \\      /  F ield         | OpenFOAM: The Open Source CFD Toolbox           |
|  \\    /   O peration     | Version:  2.4.0                                 |
|   \\  /    A nd           | Web:      www.OpenFOAM.org                      |
|    \\/     M anipulation  |                                                 |
\*---------------------------------------------------------------------------*/
FoamFile
{
    version     2.0;
    format      ascii;
    class       volScalarField;
    location    "4.48";
    object      p;
}
// * * * * * * * * * * * * * * * * * * * * * * * * * * * * * * * * * * * * * //

dimensions      [0 2 -2 0 0 0 0];

internalField   nonuniform List<scalar> 
6000
(
-0.129784
0.227047
0.184312
0.204197
0.196809
0.201634
0.198621
0.200644
0.199337
0.20004
0.199272
0.199267
0.198776
0.198785
0.198963
0.19968
0.200632
0.201627
0.202554
0.203656
0.204451
0.204663
0.204986
0.20589
0.207335
0.20926
0.211567
0.214192
0.217067
0.220138
0.223354
0.226674
0.230071
0.233524
0.237025
0.240583
0.244214
0.24795
0.251827
0.255899
0.260204
0.26482
0.269751
0.275119
0.280794
0.287028
0.293305
0.300253
0.30641
0.313284
0.317316
0.322589
0.319901
0.321793
0.302825
0.302967
0.246637
0.262333
0.109381
0.209566
-0.103445
0.223631
0.184386
0.204044
0.19683
0.201619
0.198632
0.200643
0.199356
0.200062
0.199307
0.199302
0.198802
0.198789
0.198929
0.199602
0.200528
0.20154
0.202548
0.203741
0.204591
0.204793
0.205065
0.205928
0.207347
0.209253
0.211545
0.214158
0.217023
0.220084
0.22329
0.22661
0.230001
0.233448
0.236942
0.24049
0.244111
0.247834
0.251696
0.255751
0.260036
0.264629
0.269533
0.274871
0.280508
0.286699
0.292923
0.299805
0.305899
0.312685
0.316638
0.321777
0.318995
0.320682
0.301634
0.301433
0.245083
0.260125
0.107642
0.206193
-0.0865568
0.220177
0.184414
0.203952
0.196838
0.201613
0.198637
0.20065
0.199373
0.200095
0.199346
0.199349
0.198838
0.198804
0.198904
0.199532
0.200427
0.201461
0.202554
0.203843
0.204747
0.204947
0.205182
0.206008
0.207397
0.20928
0.211555
0.214154
0.217006
0.220057
0.223255
0.226558
0.229935
0.233368
0.236846
0.240376
0.243976
0.247676
0.25151
0.255534
0.259784
0.264338
0.269195
0.274482
0.28006
0.286186
0.292331
0.299126
0.305121
0.311805
0.315636
0.320657
0.317729
0.319292
0.300086
0.299761
0.24327
0.258091
0.105397
0.20346
-0.0743337
0.216324
0.184625
0.203868
0.196838
0.201606
0.198641
0.20066
0.19939
0.200129
0.199383
0.199396
0.198874
0.19882
0.198882
0.199468
0.200336
0.201395
0.202565
0.203935
0.204878
0.205075
0.205286
0.206084
0.207448
0.209311
0.211567
0.214152
0.216991
0.22003
0.223216
0.226506
0.22987
0.233287
0.236748
0.240259
0.243835
0.247509
0.251314
0.255304
0.259515
0.264026
0.268834
0.274068
0.279581
0.28564
0.291703
0.298412
0.304299
0.310877
0.314569
0.319475
0.316369
0.317831
0.298397
0.298027
0.241223
0.256061
0.102761
0.200938
-0.0625262
0.212198
0.185007
0.203787
0.196836
0.201597
0.198645
0.20067
0.199404
0.200159
0.199415
0.199437
0.198904
0.198834
0.198862
0.199413
0.20026
0.201343
0.202575
0.204007
0.204974
0.205169
0.205367
0.206147
0.20749
0.209335
0.211577
0.214148
0.216975
0.220004
0.223179
0.226458
0.22981
0.233212
0.236657
0.240149
0.243704
0.247353
0.251129
0.255087
0.259261
0.263732
0.268493
0.273677
0.279131
0.285128
0.291114
0.297744
0.303527
0.310006
0.313561
0.318354
0.315064
0.316426
0.296739
0.296334
0.239142
0.254068
0.10008
0.198584
-0.0509412
0.207961
0.185516
0.203691
0.196842
0.201584
0.198648
0.200677
0.199415
0.200185
0.199442
0.199472
0.19893
0.198846
0.198843
0.199365
0.200197
0.201301
0.202585
0.204062
0.205044
0.205238
0.205432
0.206199
0.207526
0.209356
0.211584
0.214144
0.216962
0.219981
0.223146
0.226416
0.229756
0.233146
0.236575
0.24005
0.243584
0.24721
0.250959
0.254886
0.259025
0.263459
0.268176
0.273313
0.278712
0.284651
0.290568
0.297124
0.302812
0.309196
0.312621
0.317306
0.313837
0.315098
0.295156
0.29471
0.237118
0.252133
0.0974802
0.196387
-0.0402002
0.203714
0.186055
0.203567
0.196862
0.201567
0.198652
0.200683
0.199426
0.200208
0.199466
0.199503
0.198952
0.198856
0.198827
0.199323
0.200142
0.201268
0.202593
0.204104
0.205095
0.205291
0.205486
0.206245
0.207559
0.209375
0.211592
0.214142
0.216951
0.219962
0.223119
0.22638
0.229709
0.233087
0.236502
0.23996
0.243474
0.247077
0.2508
0.254698
0.258804
0.263201
0.267877
0.27297
0.278317
0.284202
0.290054
0.29654
0.302139
0.308434
0.311736
0.31632
0.312678
0.313841
0.29365
0.293157
0.235174
0.250268
0.0950053
0.194348
-0.0303601
0.199529
0.186553
0.203425
0.196888
0.201548
0.198657
0.200688
0.199436
0.200228
0.199487
0.19953
0.198971
0.198865
0.198812
0.199285
0.200094
0.201239
0.202599
0.204137
0.205134
0.205333
0.205534
0.206287
0.20759
0.209395
0.211602
0.214143
0.216945
0.219948
0.223098
0.22635
0.22967
0.233037
0.236438
0.239879
0.243374
0.246954
0.250651
0.254522
0.258595
0.262957
0.267593
0.272643
0.277941
0.283774
0.289566
0.295985
0.3015
0.307713
0.310898
0.315385
0.311578
0.312647
0.292213
0.291671
0.233312
0.248473
0.0926641
0.192452
-0.0211911
0.195468
0.18696
0.203279
0.196908
0.201529
0.198664
0.200692
0.199445
0.200246
0.199506
0.199555
0.198988
0.198872
0.198797
0.199251
0.200052
0.201213
0.202603
0.204161
0.205161
0.205367
0.205577
0.206327
0.207621
0.209416
0.211614
0.214148
0.216943
0.219941
0.223084
0.226328
0.229639
0.232994
0.236382
0.239807
0.243282
0.246841
0.250513
0.254355
0.258396
0.262724
0.267321
0.272331
0.277582
0.283366
0.289098
0.295455
0.300891
0.307026
0.310102
0.314498
0.310532
0.311509
0.290841
0.290247
0.231527
0.246744
0.0904569
0.190681
-0.0125384
0.191573
0.187255
0.20313
0.196925
0.201512
0.198672
0.200694
0.199455
0.200263
0.199523
0.199577
0.199004
0.198878
0.198784
0.19922
0.200012
0.20119
0.202605
0.204178
0.205181
0.205395
0.205617
0.206366
0.207652
0.209439
0.211629
0.214157
0.216947
0.219939
0.223076
0.226314
0.229616
0.23296
0.236334
0.239743
0.2432
0.246736
0.250383
0.254198
0.258208
0.262502
0.267061
0.272032
0.277237
0.282973
0.288651
0.294948
0.300309
0.306371
0.309342
0.313652
0.309535
0.310422
0.28953
0.288879
0.229818
0.245075
0.0883817
0.189017
-0.00434935
0.187864
0.18743
0.20296
0.196962
0.201496
0.198682
0.200697
0.199465
0.200278
0.19954
0.199598
0.199018
0.198884
0.198771
0.19919
0.199976
0.201169
0.202606
0.204189
0.205193
0.205418
0.205655
0.206404
0.207684
0.209464
0.211648
0.214171
0.216956
0.219943
0.223075
0.226307
0.2296
0.232934
0.236295
0.239687
0.243125
0.24664
0.250262
0.254049
0.258028
0.26229
0.266812
0.271743
0.276905
0.282595
0.288219
0.294459
0.299751
0.305743
0.308616
0.312843
0.308583
0.309381
0.288275
0.287561
0.228182
0.243461
0.0864349
0.187443
0.00340463
0.184357
0.187491
0.202765
0.19703
0.201481
0.198697
0.200699
0.199476
0.200293
0.199556
0.199617
0.199031
0.198889
0.198758
0.199162
0.199941
0.201149
0.202605
0.204195
0.205201
0.205439
0.205691
0.206443
0.207718
0.209492
0.211671
0.214189
0.21697
0.219954
0.223081
0.226307
0.229592
0.232916
0.236263
0.23964
0.243059
0.246552
0.250149
0.253908
0.257857
0.262085
0.266571
0.271464
0.276584
0.282228
0.287802
0.293987
0.299212
0.305138
0.307918
0.312066
0.30767
0.308381
0.287071
0.286289
0.226614
0.241896
0.0846114
0.185946
0.0107588
0.18106
0.187443
0.202538
0.19713
0.201459
0.198717
0.200702
0.199488
0.200307
0.199572
0.199636
0.199044
0.198893
0.198746
0.199135
0.199908
0.201129
0.202603
0.204197
0.205205
0.205457
0.205727
0.206482
0.207755
0.209523
0.211698
0.214213
0.216991
0.219972
0.223095
0.226315
0.229593
0.232905
0.23624
0.239601
0.243001
0.246471
0.250043
0.253775
0.257693
0.261888
0.266338
0.271194
0.276271
0.281871
0.287396
0.293529
0.29869
0.304553
0.307245
0.311316
0.306791
0.307415
0.285914
0.285056
0.225111
0.240375
0.0829058
0.184512
0.0177481
0.17798
0.187297
0.20227
0.197263
0.201421
0.198743
0.200706
0.199502
0.200322
0.199588
0.199654
0.199057
0.198898
0.198734
0.199109
0.199876
0.201109
0.2026
0.204196
0.205205
0.205475
0.205763
0.206523
0.207794
0.209558
0.211729
0.214242
0.217018
0.219996
0.223116
0.22633
0.229601
0.232903
0.236225
0.23957
0.24295
0.246398
0.249944
0.253648
0.257535
0.261698
0.266112
0.27093
0.275966
0.281523
0.287
0.293081
0.298182
0.303984
0.306594
0.31059
0.305943
0.30648
0.284799
0.283858
0.223668
0.238893
0.0813123
0.183131
0.0244003
0.175118
0.187064
0.201959
0.19741
0.201382
0.198773
0.200713
0.199518
0.200337
0.199605
0.199672
0.199069
0.198902
0.198723
0.199084
0.199845
0.201089
0.202596
0.204192
0.205203
0.205492
0.2058
0.206566
0.207836
0.209598
0.211766
0.214276
0.217051
0.220028
0.223144
0.226354
0.229617
0.23291
0.236218
0.239546
0.242906
0.246332
0.249853
0.253528
0.257384
0.261514
0.265892
0.270672
0.275668
0.281182
0.286612
0.292643
0.297687
0.30343
0.30596
0.309885
0.305122
0.305571
0.283721
0.282691
0.222283
0.237446
0.0798255
0.181792
0.0307372
0.172474
0.186755
0.201605
0.197558
0.201349
0.198801
0.200723
0.199537
0.200353
0.199623
0.19969
0.199082
0.198907
0.198713
0.199059
0.199814
0.201069
0.20259
0.204187
0.2052
0.205509
0.205838
0.206611
0.207881
0.209641
0.211807
0.214317
0.217091
0.220066
0.22318
0.226385
0.229641
0.232924
0.236219
0.23953
0.24287
0.246273
0.249767
0.253414
0.257238
0.261335
0.265677
0.270419
0.275375
0.280847
0.286231
0.292214
0.297201
0.302887
0.305343
0.309197
0.304325
0.304685
0.282679
0.28155
0.220952
0.23603
0.0784399
0.180489
0.0367773
0.170043
0.186384
0.201208
0.197698
0.201323
0.19883
0.200738
0.19956
0.200371
0.199643
0.199709
0.199097
0.198913
0.198703
0.199036
0.199784
0.201048
0.202583
0.20418
0.205196
0.205527
0.205877
0.206658
0.207929
0.209689
0.211854
0.214364
0.217137
0.220112
0.223224
0.226425
0.229674
0.232946
0.236227
0.239522
0.242842
0.246221
0.249688
0.253306
0.257098
0.261161
0.265467
0.270171
0.275087
0.280516
0.285856
0.29179
0.296724
0.302355
0.304739
0.308523
0.303549
0.303819
0.281667
0.280432
0.219671
0.234642
0.0771506
0.179211
0.0425371
0.16782
0.185963
0.200774
0.197824
0.201305
0.198861
0.200758
0.199589
0.200392
0.199666
0.199729
0.199112
0.198919
0.198696
0.199014
0.199754
0.201026
0.202575
0.204172
0.205193
0.205546
0.205918
0.206708
0.207982
0.209741
0.211907
0.214417
0.217191
0.220166
0.223276
0.226473
0.229715
0.232977
0.236244
0.239521
0.24282
0.246175
0.249616
0.253203
0.256964
0.260992
0.265261
0.269927
0.274803
0.28019
0.285486
0.291372
0.296255
0.30183
0.304147
0.307862
0.302792
0.302969
0.280684
0.279335
0.218437
0.233277
0.0759527
0.177955
0.0480316
0.165798
0.185505
0.200308
0.197933
0.201293
0.198905
0.200778
0.199623
0.200416
0.199692
0.199751
0.199129
0.198927
0.198689
0.198994
0.199726
0.201004
0.202567
0.204165
0.20519
0.205567
0.205961
0.206761
0.208038
0.209799
0.211965
0.214476
0.217252
0.220227
0.223336
0.226529
0.229764
0.233016
0.236269
0.239528
0.242806
0.246137
0.249549
0.253107
0.256834
0.260827
0.265059
0.269687
0.274522
0.279868
0.28512
0.290959
0.295791
0.301313
0.303565
0.307212
0.302051
0.302134
0.279728
0.278255
0.217248
0.231933
0.074842
0.176712
0.0532744
0.163969
0.185021
0.199815
0.198019
0.201282
0.198966
0.200793
0.199664
0.200444
0.199722
0.199775
0.199149
0.198937
0.198685
0.198975
0.199698
0.200982
0.202557
0.204157
0.205188
0.205589
0.206007
0.206817
0.208099
0.209861
0.212029
0.214543
0.21732
0.220296
0.223404
0.226594
0.229822
0.233063
0.236302
0.239544
0.2428
0.246105
0.249489
0.253016
0.25671
0.260667
0.264862
0.269451
0.274246
0.279549
0.284757
0.29055
0.295333
0.300801
0.302991
0.30657
0.301324
0.301311
0.278794
0.277189
0.216102
0.230607
0.0738143
0.175479
0.0582779
0.162326
0.184521
0.199302
0.19808
0.20127
0.199046
0.200805
0.199709
0.200478
0.199757
0.199803
0.199171
0.198949
0.198684
0.198959
0.199672
0.20096
0.202546
0.20415
0.205189
0.205615
0.206055
0.206877
0.208165
0.209929
0.2121
0.214616
0.217396
0.220373
0.223481
0.226667
0.229889
0.233119
0.236344
0.239567
0.242801
0.24608
0.249436
0.25293
0.25659
0.260512
0.264669
0.269218
0.273972
0.279233
0.284398
0.290144
0.294879
0.300294
0.302425
0.305936
0.300609
0.300498
0.277883
0.276137
0.214995
0.229297
0.0728657
0.174251
0.0630538
0.160858
0.184016
0.198776
0.198115
0.201253
0.199139
0.200819
0.199759
0.200518
0.199798
0.199835
0.199198
0.198964
0.198685
0.198945
0.199648
0.200937
0.202534
0.204143
0.205192
0.205643
0.206107
0.206941
0.208235
0.210003
0.212177
0.214697
0.217479
0.220459
0.223566
0.226749
0.229964
0.233184
0.236394
0.239598
0.242809
0.246062
0.249388
0.252851
0.256476
0.260361
0.26448
0.268989
0.273702
0.27892
0.284042
0.289741
0.294429
0.299792
0.301865
0.305307
0.299906
0.299694
0.276991
0.275095
0.213927
0.228001
0.0719928
0.173023
0.0676131
0.159557
0.183512
0.198243
0.198123
0.20123
0.199243
0.200839
0.199811
0.200562
0.199845
0.199872
0.199228
0.198983
0.198691
0.198935
0.199626
0.200915
0.202522
0.204136
0.205198
0.205676
0.206163
0.20701
0.20831
0.210083
0.212261
0.214785
0.217571
0.220553
0.223661
0.226841
0.230049
0.233258
0.236453
0.239637
0.242825
0.246052
0.249348
0.252777
0.256367
0.260215
0.264295
0.268763
0.273435
0.27861
0.283688
0.28934
0.293982
0.299292
0.301311
0.304684
0.299213
0.298897
0.276117
0.274061
0.212894
0.226717
0.0711921
0.171794
0.0719663
0.158413
0.183016
0.197709
0.198107
0.201199
0.199357
0.200868
0.199864
0.200611
0.1999
0.199915
0.199265
0.199007
0.1987
0.198928
0.199607
0.200894
0.202509
0.204131
0.205206
0.205712
0.206223
0.207083
0.208392
0.21017
0.212353
0.214881
0.217672
0.220656
0.223764
0.226942
0.230143
0.233341
0.23652
0.239685
0.242849
0.246048
0.249314
0.25271
0.256264
0.260074
0.264114
0.268542
0.273172
0.278302
0.283338
0.288942
0.293539
0.298796
0.300762
0.304065
0.298529
0.298105
0.275259
0.273036
0.211896
0.225442
0.0704605
0.170559
0.0761235
0.157416
0.182535
0.197179
0.198069
0.20116
0.199477
0.200905
0.199924
0.200661
0.199963
0.199964
0.199308
0.199036
0.198715
0.198926
0.199591
0.200874
0.202496
0.204125
0.205218
0.205753
0.206288
0.207162
0.208479
0.210263
0.212452
0.214985
0.217781
0.220768
0.223877
0.227052
0.230247
0.233433
0.236597
0.239742
0.242882
0.246053
0.249287
0.252649
0.256166
0.259937
0.263937
0.268323
0.272912
0.277997
0.28299
0.288546
0.293098
0.298302
0.300218
0.30345
0.297852
0.297318
0.274417
0.272016
0.210931
0.224175
0.0697953
0.169315
0.0800942
0.156558
0.182073
0.196658
0.19801
0.201112
0.199601
0.20095
0.199994
0.200714
0.200032
0.200021
0.199358
0.199072
0.198737
0.198929
0.19958
0.200857
0.202482
0.204121
0.205233
0.205799
0.206358
0.207246
0.208573
0.210364
0.212558
0.215098
0.217899
0.22089
0.224
0.227172
0.23036
0.233535
0.236683
0.239807
0.242922
0.246065
0.249267
0.252594
0.256074
0.259806
0.263766
0.268109
0.272655
0.277696
0.282645
0.288153
0.292661
0.29781
0.299677
0.302837
0.297182
0.296535
0.273589
0.271001
0.209996
0.222916
0.0691936
0.168062
0.0838877
0.155829
0.181634
0.196151
0.197936
0.201057
0.199726
0.201003
0.200075
0.200768
0.200106
0.200086
0.199417
0.199115
0.198765
0.19894
0.199574
0.200842
0.20247
0.204117
0.205251
0.20585
0.206433
0.207337
0.208673
0.210472
0.212674
0.21522
0.218026
0.221022
0.224133
0.227302
0.230483
0.233647
0.236778
0.239882
0.242971
0.246085
0.249255
0.252546
0.255989
0.259681
0.263599
0.2679
0.272402
0.277398
0.282303
0.287763
0.292226
0.297321
0.29914
0.302226
0.296519
0.295754
0.272773
0.26999
0.209092
0.221662
0.068653
0.166796
0.087513
0.15522
0.18122
0.19566
0.197848
0.200996
0.199852
0.201063
0.200168
0.200826
0.200185
0.200158
0.199485
0.199167
0.198802
0.198957
0.199575
0.200831
0.202458
0.204114
0.205272
0.205905
0.206515
0.207434
0.208781
0.210589
0.212798
0.215351
0.218164
0.221164
0.224276
0.227443
0.230617
0.233769
0.236883
0.239965
0.24303
0.246113
0.24925
0.252506
0.25591
0.259561
0.263438
0.267695
0.272154
0.277103
0.281964
0.287375
0.291794
0.296833
0.298607
0.301618
0.295861
0.294974
0.271969
0.268981
0.208216
0.220412
0.0681711
0.165517
0.0909785
0.154722
0.180834
0.19519
0.197751
0.200932
0.199976
0.20113
0.200274
0.200889
0.200267
0.200236
0.199562
0.199228
0.198848
0.198984
0.199583
0.200825
0.202449
0.204113
0.205296
0.205965
0.206603
0.207539
0.208898
0.210714
0.212931
0.215492
0.218312
0.221316
0.22443
0.227595
0.230762
0.233901
0.236999
0.240059
0.243097
0.24615
0.249253
0.252472
0.255838
0.259448
0.263282
0.267495
0.27191
0.276813
0.281629
0.28699
0.291365
0.296348
0.298076
0.301011
0.295207
0.294196
0.271176
0.267974
0.207367
0.219166
0.0677456
0.164223
0.0942923
0.154327
0.180476
0.194743
0.197649
0.200865
0.200098
0.201203
0.200392
0.200961
0.200354
0.200319
0.199648
0.199299
0.198905
0.199021
0.1996
0.200826
0.202443
0.204113
0.205323
0.20603
0.206696
0.207651
0.209023
0.210848
0.213075
0.215644
0.21847
0.22148
0.224595
0.227758
0.230917
0.234045
0.237124
0.240162
0.243173
0.246196
0.249265
0.252447
0.255773
0.259341
0.263133
0.267301
0.271671
0.276526
0.281298
0.286608
0.29094
0.295865
0.297549
0.300405
0.294559
0.293419
0.270393
0.266968
0.206544
0.217922
0.0673744
0.162912
0.0974623
0.154028
0.180148
0.194319
0.197543
0.200799
0.200219
0.201282
0.200521
0.201042
0.200448
0.200408
0.199743
0.19938
0.198973
0.199068
0.199628
0.200835
0.202441
0.204116
0.205352
0.206098
0.206797
0.207772
0.209157
0.210993
0.213229
0.215806
0.21864
0.221655
0.224772
0.227932
0.231084
0.234199
0.237261
0.240276
0.243259
0.246251
0.249285
0.252429
0.255715
0.259242
0.26299
0.267112
0.271438
0.276245
0.280972
0.28623
0.290518
0.295385
0.297025
0.2998
0.293914
0.292641
0.269619
0.265963
0.205746
0.21668
0.0670556
0.161584
0.100496
0.153816
0.179851
0.193921
0.197438
0.200736
0.200338
0.201366
0.200662
0.201134
0.20055
0.2005
0.199845
0.199472
0.199054
0.199128
0.199667
0.200853
0.202446
0.204122
0.205384
0.20617
0.206903
0.2079
0.2093
0.211148
0.213393
0.21598
0.218822
0.221842
0.224961
0.228118
0.231262
0.234364
0.237408
0.2404
0.243356
0.246315
0.249314
0.25242
0.255666
0.259149
0.262854
0.26693
0.271211
0.275969
0.28065
0.285856
0.2901
0.294907
0.296504
0.299196
0.293273
0.291863
0.268853
0.264956
0.204971
0.215439
0.0667872
0.160238
0.1034
0.153686
0.179583
0.19355
0.197336
0.200678
0.200457
0.201456
0.200812
0.201238
0.200662
0.200599
0.199955
0.199575
0.199147
0.199202
0.199719
0.200881
0.202458
0.204133
0.205419
0.206245
0.207015
0.208037
0.209454
0.211313
0.21357
0.216166
0.219016
0.222041
0.225162
0.228317
0.231453
0.234541
0.237566
0.240534
0.243462
0.246389
0.249353
0.25242
0.255624
0.259065
0.262725
0.266755
0.270989
0.275698
0.280334
0.285487
0.289686
0.294432
0.295986
0.298593
0.292634
0.291083
0.268095
0.263949
0.20422
0.214199
0.0665676
0.158873
0.106181
0.153629
0.179345
0.193206
0.197239
0.200626
0.200577
0.201551
0.200972
0.201354
0.200787
0.200705
0.200072
0.199687
0.199253
0.19929
0.199785
0.200922
0.20248
0.20415
0.205456
0.206324
0.207132
0.208182
0.209617
0.21149
0.213758
0.216364
0.219223
0.222253
0.225376
0.228528
0.231656
0.234731
0.237737
0.24068
0.243579
0.246474
0.249401
0.252429
0.255592
0.258989
0.262604
0.266587
0.270775
0.275434
0.280023
0.285122
0.289277
0.29396
0.295472
0.297991
0.291999
0.290302
0.267344
0.26294
0.20349
0.212958
0.0663949
0.15749
0.108846
0.153641
0.179137
0.192889
0.19715
0.200583
0.2007
0.201654
0.201141
0.201482
0.200924
0.20082
0.200196
0.19981
0.199372
0.199392
0.199866
0.200977
0.202512
0.204173
0.205498
0.206406
0.207255
0.208334
0.20979
0.211678
0.213958
0.216576
0.219443
0.222479
0.225604
0.228752
0.231872
0.234932
0.237919
0.240838
0.243707
0.246569
0.249459
0.252448
0.255569
0.258921
0.262492
0.266427
0.270569
0.275177
0.279719
0.284763
0.288873
0.293492
0.294961
0.29739
0.291367
0.28952
0.266598
0.261929
0.202781
0.211716
0.0662675
0.156088
0.1114
0.153716
0.178958
0.192599
0.197069
0.200549
0.200826
0.201766
0.201318
0.201623
0.201076
0.200946
0.20033
0.199941
0.199504
0.19951
0.199963
0.201046
0.202556
0.204204
0.205545
0.206492
0.207382
0.208494
0.209973
0.211878
0.214172
0.2168
0.219676
0.222719
0.225845
0.22899
0.232101
0.235147
0.238113
0.241007
0.243847
0.246674
0.249528
0.252476
0.255555
0.258863
0.262388
0.266276
0.27037
0.274927
0.279422
0.284411
0.288474
0.293028
0.294454
0.296789
0.290737
0.288735
0.265859
0.260915
0.202092
0.210473
0.0661839
0.154666
0.113849
0.153847
0.178807
0.192335
0.196997
0.200525
0.200957
0.201887
0.201503
0.201777
0.201242
0.201085
0.200474
0.200082
0.199649
0.199643
0.200077
0.201132
0.202613
0.204246
0.205598
0.206582
0.207515
0.208661
0.210166
0.212089
0.214398
0.217039
0.219924
0.222973
0.226101
0.229242
0.232344
0.235375
0.23832
0.241188
0.243998
0.246791
0.249607
0.252515
0.255552
0.258815
0.262294
0.266133
0.27018
0.274685
0.279133
0.284064
0.288082
0.292568
0.293951
0.29619
0.290109
0.287948
0.265124
0.259899
0.201423
0.209229
0.0661426
0.153226
0.116198
0.15403
0.178683
0.192098
0.196937
0.200514
0.201094
0.20202
0.201698
0.201942
0.201424
0.201239
0.20063
0.200234
0.199806
0.199792
0.200209
0.201235
0.202686
0.204298
0.205658
0.206677
0.207652
0.208836
0.210368
0.212312
0.214637
0.217291
0.220187
0.223241
0.226371
0.229508
0.2326
0.235616
0.23854
0.241382
0.244161
0.24692
0.249698
0.252565
0.255559
0.258777
0.26221
0.266
0.269999
0.274452
0.278851
0.283725
0.287696
0.292113
0.293452
0.295592
0.289483
0.287158
0.264394
0.258879
0.200771
0.207983
0.0661422
0.151767
0.118453
0.154261
0.178587
0.191887
0.196889
0.200514
0.201238
0.202164
0.201903
0.202121
0.201621
0.201409
0.200801
0.200398
0.199975
0.199955
0.200358
0.201355
0.202775
0.204364
0.205727
0.206778
0.207795
0.209017
0.21058
0.212546
0.21489
0.217558
0.220464
0.223525
0.226656
0.229789
0.232871
0.235871
0.238774
0.241589
0.244337
0.24706
0.2498
0.252626
0.255577
0.258749
0.262136
0.265878
0.269828
0.274228
0.278579
0.283394
0.287317
0.291663
0.292957
0.294995
0.288859
0.286366
0.263668
0.257855
0.200137
0.206735
0.0661812
0.150289
0.120617
0.154534
0.178517
0.191701
0.196852
0.200527
0.201388
0.202321
0.202119
0.202313
0.201833
0.201595
0.200987
0.200576
0.200158
0.200134
0.200524
0.201495
0.202881
0.204444
0.205806
0.206886
0.207943
0.209204
0.2108
0.212792
0.215155
0.217839
0.220756
0.223824
0.226956
0.230085
0.233157
0.23614
0.239021
0.241809
0.244525
0.247213
0.249914
0.252699
0.255606
0.258733
0.262073
0.265766
0.269668
0.274015
0.278316
0.283072
0.286946
0.291219
0.292468
0.2944
0.288237
0.28557
0.262944
0.256827
0.199519
0.205485
0.0662583
0.148794
0.122695
0.154846
0.178473
0.19154
0.196828
0.200552
0.201547
0.202491
0.202347
0.202519
0.202059
0.2018
0.201191
0.200769
0.200356
0.200328
0.200708
0.201653
0.203006
0.20454
0.205898
0.207002
0.208097
0.209398
0.211028
0.213048
0.215433
0.218134
0.221063
0.224138
0.227272
0.230396
0.233457
0.236423
0.239282
0.242043
0.244727
0.247379
0.250041
0.252784
0.255648
0.258729
0.262023
0.265665
0.269519
0.273812
0.278063
0.282759
0.286583
0.290782
0.291983
0.293806
0.287617
0.284771
0.262224
0.255796
0.198917
0.204233
0.0663721
0.147281
0.124691
0.155193
0.178453
0.191404
0.196817
0.20059
0.201714
0.202675
0.202588
0.202741
0.202301
0.202022
0.201414
0.20098
0.200569
0.200537
0.20091
0.20183
0.203151
0.204653
0.206003
0.207127
0.208259
0.209598
0.211265
0.213314
0.215724
0.218443
0.221385
0.224467
0.227603
0.230723
0.233773
0.236722
0.239558
0.24229
0.244942
0.247558
0.250181
0.252882
0.255702
0.258737
0.261984
0.265577
0.269382
0.27362
0.277822
0.282455
0.28623
0.290351
0.291504
0.293214
0.286998
0.283969
0.261505
0.254759
0.198331
0.202979
0.0665215
0.145752
0.126609
0.155571
0.178457
0.19129
0.196818
0.200641
0.201889
0.202871
0.202842
0.202979
0.202559
0.202263
0.201657
0.201209
0.200799
0.200764
0.201129
0.202027
0.203315
0.204785
0.206124
0.207265
0.208429
0.209807
0.211509
0.21359
0.216026
0.218765
0.221722
0.224812
0.22795
0.231065
0.234103
0.237035
0.239847
0.242551
0.245171
0.24775
0.250334
0.252993
0.255769
0.258758
0.261958
0.265501
0.269257
0.273441
0.277592
0.282163
0.285886
0.289928
0.291032
0.292624
0.28638
0.283163
0.260789
0.253718
0.197758
0.201722
0.066705
0.144207
0.128452
0.155977
0.178485
0.1912
0.196833
0.200705
0.202073
0.203081
0.203108
0.203235
0.202834
0.202522
0.201921
0.20146
0.201049
0.201008
0.201366
0.202243
0.2035
0.204937
0.206263
0.207415
0.208609
0.210023
0.211762
0.213877
0.21634
0.219101
0.222073
0.225172
0.228312
0.231422
0.23445
0.237363
0.240152
0.242827
0.245414
0.247956
0.250501
0.253118
0.25585
0.258793
0.261946
0.265439
0.269145
0.273274
0.277374
0.281881
0.285552
0.289513
0.290565
0.292037
0.285764
0.282354
0.260073
0.252672
0.197199
0.200463
0.0669216
0.142648
0.130225
0.156409
0.178535
0.191133
0.19686
0.200781
0.202265
0.203303
0.203388
0.203509
0.203126
0.202801
0.202205
0.201733
0.201319
0.201272
0.201622
0.202478
0.203705
0.20511
0.20642
0.207582
0.208801
0.210249
0.212025
0.214172
0.216665
0.219449
0.222438
0.225547
0.22869
0.231796
0.234811
0.237707
0.240472
0.243118
0.245671
0.248177
0.250681
0.253256
0.255945
0.258841
0.261948
0.265391
0.269048
0.273122
0.27717
0.281612
0.28523
0.289107
0.290105
0.291453
0.285149
0.281541
0.259358
0.251621
0.196652
0.199203
0.0671698
0.141075
0.131929
0.156862
0.178606
0.191087
0.196901
0.200869
0.202466
0.203537
0.20368
0.2038
0.203436
0.2031
0.20251
0.202028
0.201613
0.201556
0.201898
0.202734
0.203932
0.205305
0.206597
0.207765
0.209006
0.210486
0.212296
0.214478
0.217001
0.21981
0.222817
0.225937
0.229083
0.232184
0.235189
0.238066
0.240807
0.243423
0.245943
0.248412
0.250877
0.253409
0.256054
0.258905
0.261964
0.265358
0.268965
0.272983
0.276979
0.281356
0.284919
0.28871
0.289653
0.290871
0.284536
0.280724
0.258643
0.250565
0.196117
0.19794
0.0674484
0.139491
0.133569
0.157335
0.178699
0.191063
0.196955
0.20097
0.202675
0.203784
0.203984
0.204108
0.203765
0.203419
0.202837
0.202348
0.20193
0.201864
0.202195
0.203011
0.20418
0.205522
0.206797
0.207967
0.209227
0.210735
0.212578
0.214794
0.217348
0.220182
0.223209
0.22634
0.22949
0.232588
0.235581
0.23844
0.241156
0.243744
0.246229
0.248661
0.251087
0.253577
0.256179
0.258983
0.261996
0.26534
0.268898
0.27286
0.276804
0.281114
0.284621
0.288323
0.289208
0.290293
0.283924
0.279903
0.257927
0.249503
0.195593
0.196675
0.0677563
0.137896
0.135146
0.157826
0.178812
0.191059
0.197022
0.201083
0.202893
0.204041
0.204299
0.204433
0.204113
0.20376
0.203186
0.202691
0.202272
0.202195
0.202514
0.203309
0.204451
0.205763
0.207019
0.20819
0.209465
0.210998
0.212873
0.215121
0.217705
0.220566
0.223613
0.226757
0.229912
0.233006
0.235988
0.238829
0.241521
0.244079
0.246531
0.248926
0.251312
0.253761
0.256319
0.259077
0.262044
0.265338
0.268847
0.272753
0.276644
0.280887
0.284336
0.287947
0.288771
0.289718
0.283312
0.279079
0.257211
0.248436
0.19508
0.19541
0.068092
0.136291
0.136664
0.158331
0.178944
0.191076
0.197102
0.201208
0.203118
0.204309
0.204626
0.204773
0.204479
0.204123
0.203557
0.203059
0.20264
0.202553
0.202858
0.203631
0.204745
0.206027
0.207265
0.208436
0.209723
0.211278
0.213181
0.215459
0.218074
0.220961
0.224029
0.227187
0.230347
0.233439
0.23641
0.239234
0.241901
0.24443
0.246849
0.249206
0.251553
0.25396
0.256475
0.259188
0.262109
0.265353
0.268813
0.272663
0.2765
0.280675
0.284065
0.287582
0.288343
0.289147
0.282702
0.27825
0.256493
0.247363
0.194576
0.194143
0.0684542
0.13468
0.138125
0.158849
0.179094
0.191113
0.197196
0.201345
0.203352
0.204587
0.204962
0.205128
0.204862
0.204508
0.203952
0.203452
0.203035
0.202937
0.203228
0.203977
0.205063
0.206317
0.207537
0.208706
0.210003
0.211576
0.213504
0.21581
0.218454
0.221367
0.224457
0.227629
0.230796
0.233886
0.236847
0.239652
0.242297
0.244796
0.247181
0.249502
0.25181
0.254175
0.256648
0.259316
0.262191
0.265386
0.268797
0.27259
0.276374
0.280479
0.283809
0.28723
0.287924
0.288581
0.282093
0.277417
0.255773
0.246284
0.19408
0.192876
0.0688416
0.133064
0.139531
0.159377
0.179263
0.191169
0.197302
0.201494
0.203594
0.204876
0.205308
0.205497
0.205262
0.204914
0.20437
0.20387
0.203455
0.203349
0.203625
0.204349
0.205407
0.206632
0.207835
0.209001
0.210306
0.211895
0.213844
0.216176
0.218847
0.221785
0.224896
0.228083
0.231257
0.234345
0.237297
0.240086
0.242706
0.245177
0.247529
0.249814
0.252083
0.254407
0.256837
0.259461
0.262291
0.265437
0.268799
0.272536
0.276266
0.2803
0.283568
0.28689
0.287514
0.288019
0.281486
0.27658
0.255051
0.2452
0.193593
0.191608
0.0692527
0.131445
0.140885
0.159915
0.179449
0.191244
0.197422
0.201655
0.203845
0.205173
0.205664
0.205878
0.205676
0.20534
0.204811
0.204313
0.203903
0.203789
0.20405
0.204749
0.205777
0.206974
0.20816
0.209323
0.210634
0.212235
0.214203
0.216558
0.219253
0.222215
0.225346
0.228548
0.23173
0.234818
0.237761
0.240533
0.243131
0.245573
0.247893
0.250142
0.252373
0.254657
0.257045
0.259624
0.262409
0.265507
0.26882
0.272502
0.276177
0.28014
0.283344
0.286564
0.287115
0.287462
0.280879
0.275739
0.254326
0.24411
0.193112
0.190341
0.069686
0.129825
0.142188
0.160461
0.179651
0.191337
0.197555
0.201827
0.204104
0.20548
0.206028
0.20627
0.206103
0.205784
0.205275
0.204783
0.204378
0.204258
0.204504
0.205177
0.206176
0.207345
0.208514
0.209674
0.210989
0.212601
0.214584
0.216957
0.219674
0.222658
0.225808
0.229025
0.232214
0.235302
0.238237
0.240994
0.24357
0.245984
0.248273
0.250486
0.252679
0.254923
0.25727
0.259806
0.262547
0.265596
0.268862
0.272487
0.276108
0.279998
0.283138
0.286253
0.286727
0.286911
0.280274
0.274894
0.253598
0.243015
0.192638
0.189076
0.0701397
0.128208
0.143443
0.161012
0.179869
0.191447
0.197701
0.202012
0.204371
0.205797
0.2064
0.206674
0.206543
0.206245
0.205759
0.205277
0.20488
0.204755
0.204988
0.205635
0.206604
0.207745
0.208897
0.210054
0.211372
0.212992
0.214987
0.217376
0.220111
0.223114
0.226282
0.229512
0.232709
0.235798
0.238726
0.241468
0.244022
0.24641
0.248668
0.250847
0.253003
0.255208
0.257514
0.260008
0.262705
0.265707
0.268925
0.272494
0.276059
0.279877
0.28295
0.285957
0.28635
0.286366
0.27967
0.274045
0.252867
0.241914
0.192169
0.187812
0.070612
0.126596
0.144651
0.161569
0.180102
0.191575
0.197859
0.202207
0.204647
0.206122
0.206781
0.207088
0.206995
0.20672
0.206261
0.205795
0.205408
0.20528
0.205501
0.206123
0.207062
0.208175
0.209312
0.210465
0.211785
0.213411
0.215415
0.217816
0.220566