/*--------------------------------*- C++ -*----------------------------------*\
| =========                 |                                                 |
| \\      /  F ield         | OpenFOAM: The Open Source CFD Toolbox           |
|  \\    /   O peration     | Version:  2.4.0                                 |
|   \\  /    A nd           | Web:      www.OpenFOAM.org                      |
|    \\/     M anipulation  |                                                 |
\*---------------------------------------------------------------------------*/
FoamFile
{
    version     2.0;
    format      ascii;
    class       volVectorField;
    location    "2.69";
    object      U;
}
// * * * * * * * * * * * * * * * * * * * * * * * * * * * * * * * * * * * * * //

dimensions      [0 1 -1 0 0 0 0];

internalField   nonuniform List<vector> 
6000
(
(0.513467 -0.0430611 -5.71335e-18)
(-0.317813 0.0668512 0)
(0.112526 -0.0274916 1.04859e-17)
(0.00710299 -0.0013542 0)
(0.00656843 -8.68141e-05 0)
(-0.02916 0.00553195 0)
(-0.00270543 0.000476251 4.47669e-18)
(-0.015276 0.00278373 -4.1736e-23)
(-0.0109776 0.00262183 0)
(-0.0344496 0.00699266 0)
(-0.0618801 0.0113121 3.66975e-18)
(-0.0876623 0.0131845 -7.01851e-18)
(-0.0773069 0.00793684 0)
(-0.0135764 -0.00535816 0)
(0.12068 -0.0259935 -1.779e-18)
(0.283874 -0.0414665 0)
(0.395662 -0.0404858 0)
(0.322765 -0.0245165 -1.2015e-18)
(0.173124 -0.0133594 -1.34987e-18)
(0.156215 -0.0160007 0)
(0.18234 -0.0112065 1.41811e-18)
(0.0181104 0.012791 5.97572e-19)
(-0.247421 0.0336427 -3.76632e-19)
(-0.462136 0.0374006 0)
(-0.593786 0.032733 0)
(-0.664772 0.0263912 0)
(-0.696516 0.0195436 -2.7033e-20)
(-0.699369 0.0123507 6.9248e-21)
(-0.680258 0.00499902 0)
(-0.645627 -0.00145264 0)
(-0.595939 -0.00718877 2.10009e-20)
(-0.531977 -0.0118958 0)
(-0.454258 -0.0153062 3.46619e-19)
(-0.363595 -0.0171281 -4.42451e-19)
(-0.261785 -0.0170665 0)
(-0.152127 -0.0148807 0)
(-0.0392953 -0.010423 1.36316e-18)
(0.0705354 -0.00369747 0)
(0.170731 0.0046086 1.45589e-18)
(0.255645 0.0136562 0)
(0.320654 0.0225767 0)
(0.363261 0.0308742 2.77459e-18)
(0.378028 0.0373528 -5.4593e-18)
(0.366101 0.0397407 0)
(0.343241 0.0397556 0)
(0.322906 0.0393872 2.72526e-18)
(0.310254 0.0398266 0)
(0.305066 0.041317 0)
(0.305836 0.0437293 -5.67277e-18)
(0.3114 0.0469703 -5.75314e-18)
(0.321048 0.0510265 -5.82068e-18)
(0.334254 0.0558677 -3.74616e-21)
(0.351305 0.0612462 5.88473e-18)
(0.373307 0.0676633 0)
(0.399671 0.0753958 -6.7266e-21)
(0.434111 0.084967 -5.57709e-18)
(0.468503 0.0957174 5.17659e-18)
(0.527973 0.110703 4.62431e-18)
(0.553633 0.122407 1.79774e-20)
(0.691415 0.153256 0)
(0.726716 -0.108538 4.26409e-18)
(-0.209249 0.0626233 6.06007e-18)
(0.0924094 -0.0316769 -5.0881e-18)
(-0.0254317 0.00937163 -5.38545e-18)
(0.00650705 0.000939938 0)
(-0.0399585 0.00797493 0)
(-0.00927963 0.00128677 -4.39764e-18)
(-0.0239161 0.00453198 8.46027e-18)
(-0.0220428 0.00533777 0)
(-0.0497001 0.0111215 0)
(-0.0777587 0.0157526 -3.54505e-18)
(-0.0993691 0.0158855 3.36202e-18)
(-0.0871873 0.00733255 1.62859e-18)
(-0.0249274 -0.011291 0)
(0.107094 -0.038136 1.63719e-18)
(0.271861 -0.0550506 0)
(0.394082 -0.0453344 0)
(0.400606 -0.023179 0)
(0.274467 -0.0109149 0)
(0.20286 -0.0151599 0)
(0.158687 0.0026601 4.16429e-21)
(-0.141406 0.0494232 0)
(-0.466881 0.0705445 -3.53328e-19)
(-0.635001 0.0611805 0)
(-0.701008 0.045847 0)
(-0.728157 0.0335912 -2.24529e-20)
(-0.733736 0.0229555 2.55649e-20)
(-0.723917 0.0131356 1.75871e-21)
(-0.700085 0.00363917 1.51902e-20)
(-0.66034 -0.00508473 0)
(-0.605991 -0.0129418 -1.95136e-20)
(-0.537657 -0.0196099 -1.16146e-19)
(-0.455854 -0.0247652 -2.39241e-21)
(-0.361388 -0.0280046 4.06264e-19)
(-0.256072 -0.0288608 -4.8721e-19)
(-0.143247 -0.0269174 0)
(-0.0276261 -0.0219364 0)
(0.0848121 -0.0140416 0)
(0.18784 -0.00377891 0)
(0.276187 0.00786803 0)
(0.346237 0.0199218 -2.68782e-18)
(0.396021 0.0316048 0)
(0.427467 0.0420826 2.65495e-18)
(0.44221 0.0500085 2.64134e-18)
(0.439382 0.0543178 0)
(0.424869 0.0556758 0)
(0.407696 0.0558898 0)
(0.394676 0.0564354 0)
(0.388598 0.0580068 5.59929e-18)
(0.389488 0.0607605 0)
(0.396522 0.0646327 0)
(0.409553 0.0695647 -5.80157e-18)
(0.428317 0.0760878 -5.81832e-18)
(0.453294 0.0841305 0)
(0.483618 0.0937045 -1.13756e-17)
(0.522893 0.105532 0)
(0.563283 0.118661 -1.01951e-17)
(0.629731 0.137273 -4.51603e-18)
(0.663606 0.151496 3.22918e-18)
(0.822765 0.190226 2.25028e-18)
(0.798606 -0.0913373 -3.3607e-19)
(-0.0778551 0.0480178 -5.66366e-18)
(0.0671945 -0.0275515 0)
(-0.0568877 0.0174473 5.33737e-18)
(0.00356572 0.00197185 0)
(-0.0441042 0.00886178 0)
(-0.0143092 0.00197129 0)
(-0.0290812 0.00574954 -4.13903e-18)
(-0.0286711 0.00783191 0)
(-0.0562514 0.0143852 -3.66793e-18)
(-0.083323 0.0187371 0)
(-0.104453 0.0169452 0)
(-0.0937931 0.00478437 -1.5341e-18)
(-0.0351119 -0.0188814 0)
(0.091003 -0.0506846 0)
(0.253364 -0.0675159 0)
(0.375136 -0.0496104 0)
(0.394004 -0.0171157 0)
(0.297512 -0.0033042 0)
(0.21263 -0.006778 1.38469e-18)
(0.0873664 0.0319415 -1.32465e-18)
(-0.268563 0.0921879 0)
(-0.539489 0.0993246 7.3048e-21)
(-0.640644 0.072224 -1.3877e-19)
(-0.690421 0.0499423 0)
(-0.717503 0.0346049 4.3168e-20)
(-0.725369 0.02184 0)
(-0.716479 0.0102048 -7.65293e-21)
(-0.691638 -0.00071876 -1.39824e-20)
(-0.651268 -0.0109634 0)
(-0.596417 -0.0202349 0)
(-0.527686 -0.0282421 1.06062e-19)
(-0.445563 -0.0346507 -2.42045e-21)
(-0.350836 -0.0389885 0)
(-0.245305 -0.0406491 8.84501e-19)
(-0.132318 -0.0390552 0)
(-0.0165551 -0.0338386 1.12911e-18)
(0.0960084 -0.0251459 0)
(0.199081 -0.0135212 0)
(0.287477 -8.83969e-05 0)
(0.357786 0.0139695 2.53885e-18)
(0.408709 0.0275996 0)
(0.441855 0.0397869 0)
(0.459957 0.0498778 -2.57907e-18)
(0.46482 0.0566824 0)
(0.459226 0.0602047 0)
(0.448304 0.061574 2.68194e-18)
(0.437907 0.0622494 -2.73066e-18)
(0.432099 0.063367 -2.77883e-18)
(0.43249 0.0655218 0)
(0.439208 0.068912 0)
(0.4522 0.0736776 0)
(0.471321 0.0798442 5.78575e-18)
(0.497062 0.0875267 5.75556e-18)
(0.528814 0.0969321 5.66276e-18)
(0.569996 0.108551 0)
(0.613599 0.122021 5.07432e-18)
(0.682986 0.139848 8.98453e-18)
(0.722027 0.156071 0)
(0.887216 0.191477 -2.23787e-18)
(0.836435 -0.0599262 -2.63434e-19)
(0.0438696 0.0394887 5.21678e-18)
(0.0470427 -0.0202036 -4.94347e-18)
(-0.076675 0.0223768 0)
(0.000385199 0.00235038 0)
(-0.0463184 0.00954647 0)
(-0.0186567 0.00252474 0)
(-0.0331126 0.00679703 0)
(-0.0336297 0.00995681 0)
(-0.0604459 0.0172042 3.56745e-18)
(-0.0868983 0.0214193 3.29895e-18)
(-0.108391 0.0180402 0)
(-0.0999722 0.00255022 0)
(-0.0456302 -0.0262033 0)
(0.073636 -0.0630395 1.39762e-18)
(0.232605 -0.0799592 0)
(0.35429 -0.0540702 1.08235e-18)
(0.375589 -0.0113855 -1.06808e-18)
(0.295398 0.00591017 0)
(0.203354 0.00773414 -1.35253e-18)
(0.00875695 0.0670283 0)
(-0.351308 0.131694 -5.09168e-19)
(-0.550796 0.119351 6.18821e-19)
(-0.624225 0.0794705 1.30435e-19)
(-0.674914 0.0538194 0)
(-0.703531 0.036249 -2.06483e-20)
(-0.712342 0.0215478 0)
(-0.703615 0.00803495 -1.03041e-20)
(-0.678586 -0.00466217 0)
(-0.638218 -0.0165346 0)
(-0.583427 -0.0273461 0)
(-0.514806 -0.0368244 9.6295e-20)
(-0.432822 -0.0446229 -5.30396e-19)
(-0.338245 -0.0501933 0)
(-0.232861 -0.05278 -4.11247e-19)
(-0.120024 -0.0516354 0)
(-0.00439931 -0.0462464 -1.05964e-18)
(0.107853 -0.036637 0)
(0.210417 -0.0234574 0)
(0.298125 -0.00802602 0)
(0.367617 0.00821644 2.41286e-18)
(0.417909 0.0239626 0)
(0.450663 0.0381596 2.46684e-18)
(0.468914 0.0496886 -2.5031e-18)
(0.475506 0.0577784 0)
(0.473401 0.0625081 -2.59123e-18)
(0.466436 0.0647706 -5.29492e-18)
(0.45894 0.0658779 2.70464e-18)
(0.454425 0.0670474 5.51474e-18)
(0.45485 0.0690703 -5.60776e-18)
(0.460957 0.0723022 -5.68446e-18)
(0.473033 0.0768817 0)
(0.491285 0.0826309 -5.75837e-18)
(0.516385 0.0900048 -5.7244e-18)
(0.547908 0.0992718 -5.61031e-18)
(0.589088 0.110735 0)
(0.633525 0.124612 0)
(0.703115 0.141803 -4.44059e-18)
(0.74493 0.159905 0)
(0.907993 0.190884 2.14761e-18)
(0.861454 -0.0344657 -2.46482e-19)
(0.153297 0.0355792 -8.98891e-20)
(0.0538667 -0.0143537 4.89779e-18)
(-0.0866066 0.0249585 5.27329e-18)
(-0.00282397 0.00233237 0)
(-0.0478425 0.0101298 -4.51894e-18)
(-0.0224927 0.00302812 0)
(-0.0365434 0.00776375 0)
(-0.0376419 0.0118854 0)
(-0.0635445 0.0198236 3.48848e-18)
(-0.0896227 0.023991 -3.21187e-18)
(-0.111865 0.0192037 0)
(-0.10617 0.000587173 0)
(-0.0566997 -0.0330999 0)
(0.0549884 -0.0748829 -1.34751e-18)
(0.209425 -0.0922432 0)
(0.331793 -0.0587687 -1.0554e-18)
(0.3546 -0.00618706 1.04491e-18)
(0.284013 0.0157862 0)
(0.182717 0.0268627 0)
(-0.0655329 0.104247 6.13249e-19)
(-0.399024 0.16413 4.90575e-19)
(-0.541071 0.13269 -5.68053e-19)
(-0.607895 0.0857685 -1.11199e-19)
(-0.659257 0.0578386 0)
(-0.688091 0.0379431 -2.23689e-20)
(-0.697018 0.0211774 0)
(-0.688241 0.00577429 9.71404e-21)
(-0.663173 -0.00869119 9.59606e-21)
(-0.622898 -0.0222169 0)
(-0.568264 -0.0345941 0)
(-0.499851 -0.0455687 -1.8159e-19)
(-0.418106 -0.0547813 2.5084e-19)
(-0.32377 -0.061604 0)
(-0.218609 -0.0651257 -3.88558e-19)
(-0.105988 -0.0644236 0)
(0.00940615 -0.0588237 1.00896e-18)
(0.121167 -0.0482537 0)
(0.223004 -0.033471 0)
(0.309731 -0.0159947 0)
(0.377989 0.00246005 -2.33262e-18)
(0.426968 0.0202984 -2.35713e-18)
(0.458503 0.0362258 -2.40136e-18)
(0.4759 0.0491082 3.55091e-21)
(0.482407 0.0582671 -2.48555e-18)
(0.481079 0.0637801 2.54429e-18)
(0.475357 0.0664983 5.2122e-18)
(0.468956 0.0677003 0)
(0.46499 0.0686427 -2.72932e-18)
(0.465385 0.0702056 5.56075e-18)
(0.471053 0.0728046 5.64132e-18)
(0.482534 0.0765349 0)
(0.500141 0.0818255 0)
(0.52468 0.0887822 0)
(0.555851 0.097621 5.54969e-18)
(0.596805 0.108608 0)
(0.641428 0.122119 0)
(0.710818 0.138576 4.31778e-18)
(0.753911 0.156448 -3.02667e-18)
(0.914189 0.18481 -2.07705e-18)
(0.880236 -0.0137281 -2.28013e-19)
(0.251008 0.0348218 -4.80935e-18)
(0.0811757 -0.0094943 0)
(-0.0878053 0.0265865 -5.2506e-18)
(-0.00599113 0.00215531 -4.73021e-18)
(-0.0489771 0.0106598 4.88502e-22)
(-0.0258108 0.0034867 0)
(-0.0394887 0.00865617 0)
(-0.0409283 0.0136514 0)
(-0.0658931 0.0222893 -3.42262e-18)
(-0.0917301 0.0264917 0)
(-0.114945 0.0204759 0)
(-0.112302 -0.00102471 1.37117e-18)
(-0.0680842 -0.0393492 0)
(0.0354466 -0.0859774 0)
(0.18388 -0.104112 0)
(0.307531 -0.0635645 0)
(0.332161 -0.00140499 -1.01373e-18)
(0.268273 0.0262516 0)
(0.154339 0.0495971 1.28987e-18)
(-0.130773 0.141336 -5.94531e-19)
(-0.422675 0.189867 -4.5051e-19)
(-0.525904 0.142653 5.18463e-19)
(-0.592168 0.0919003 2.04437e-19)
(-0.642754 0.0618427 0)
(-0.67114 0.0395996 2.12855e-20)
(-0.679812 0.0207509 0)
(-0.670881 0.00346125 0)
(-0.645784 -0.0127528 -1.74275e-20)
(-0.605605 -0.0279161 0)
(-0.551147 -0.0418446 0)
(-0.482975 -0.0543013 1.7273e-19)
(-0.401511 -0.0649147 0)
(-0.30746 -0.0729769 0)
(-0.202563 -0.0774182 3.75678e-19)
(-0.0901889 -0.0771362 0)
(0.0248903 -0.0712852 -9.78183e-19)
(0.136041 -0.0597198 0)
(0.237021 -0.0433069 0)
(0.322599 -0.0237641 0)
(0.3894 -0.00309105 0)
(0.43671 0.0168083 2.30244e-18)
(0.466564 0.0344074 2.34371e-18)
(0.482588 0.0485555 3.72593e-21)
(0.488324 0.0586375 2.44363e-18)
(0.486798 0.0647587 2.50002e-18)
(0.48114 0.067751 -2.56871e-18)
(0.474752 0.0689005 0)
(0.470621 0.0695452 -2.69754e-18)
(0.470709 0.070683 2.75099e-18)
(0.476013 0.0728379 -5.58374e-18)
(0.487109 0.0762865 0)
(0.504394 0.0811122 0)
(0.528706 0.0875027 -5.58748e-18)
(0.55976 0.0958642 -5.45679e-18)
(0.600664 0.106394 5.22268e-18)
(0.645384 0.119603 4.80265e-18)
(0.714742 0.135398 -4.21239e-18)
(0.758413 0.153325 2.93387e-18)
(0.916749 0.179352 0)
(0.895305 0.00501651 -2.04965e-19)
(0.337866 0.0365081 0)
(0.119991 -0.00426685 4.67023e-18)
(-0.0777634 0.0273121 5.18709e-18)
(-0.0088457 0.00206279 -4.2471e-22)
(-0.0497851 0.011134 4.43463e-18)
(-0.0285674 0.00389404 0)
(-0.0419491 0.00946862 0)
(-0.0435481 0.0152645 0)
(-0.0675828 0.0246141 1.68461e-18)
(-0.0932339 0.0289365 1.54313e-18)
(-0.117537 0.0218663 0)
(-0.118147 -0.00227863 -1.34846e-18)
(-0.0795097 -0.0448755 1.28994e-18)
(0.0154737 -0.0963158 0)
(0.156226 -0.115526 0)
(0.28158 -0.0684698 0)
(0.308535 0.00300826 8.62199e-21)
(0.249864 0.0374119 0)
(0.119764 0.0753314 -2.50934e-18)
(-0.184434 0.176466 5.64222e-19)
(-0.430752 0.210347 4.34482e-19)
(-0.509915 0.150906 -1.10999e-20)
(-0.57616 0.0979439 -9.46572e-20)
(-0.625133 0.0657158 0)
(-0.652706 0.0411633 0)
(-0.660918 0.020255 0)
(-0.651759 0.00110319 -7.09829e-21)
(-0.626609 -0.0168302 1.49755e-20)
(-0.586511 -0.0336051 0)
(-0.532232 -0.0490615 0)
(-0.464323 -0.062979 -1.6572e-19)
(-0.383172 -0.0749758 -1.14724e-19)
(-0.289442 -0.0842639 0)
(-0.184844 -0.0896125 0)
(-0.0727511 -0.0897329 0)
(0.0419208 -0.0835992 0)
(0.152371 -0.0710053 0)
(0.252402 -0.0529342 0)
(0.336717 -0.0312974 0)
(0.401919 -0.00838663 0)
(0.447348 0.0135699 0)
(0.475218 0.0328073 -4.65467e-21)
(0.489506 0.0481407 2.36035e-18)
(0.494089 0.0590471 0)
(0.491973 0.0656989 -4.93403e-18)
(0.485953 0.0689087 -2.53523e-18)
(0.479144 0.0699568 0)
(0.474497 0.0702596 2.67239e-18)
(0.474091 0.0709369 -2.72764e-18)
(0.479024 0.0726073 5.53846e-18)
(0.489896 0.0755145 -5.58399e-18)
(0.507065 0.0798276 0)
(0.531329 0.0858003 6.67109e-21)
(0.562401 0.0937592 5.38802e-18)
(0.603362 0.103881 -1.02747e-17)
(0.648222 0.116714 -1.40104e-20)
(0.71761 0.13201 -4.08075e-18)
(0.761772 0.149533 2.80043e-18)
(0.918559 0.173931 1.85985e-18)
(0.907614 0.0223084 -4.17334e-19)
(0.414771 0.0400878 0)
(0.166173 0.00164724 9.84763e-21)
(-0.0561773 0.02751 -3.26315e-21)
(-0.0107087 0.00226344 4.75357e-18)
(-0.050243 0.0115511 4.40936e-18)
(-0.0307163 0.00424104 0)
(-0.0438887 0.010194 3.87021e-18)
(-0.0454964 0.016724 0)
(-0.06861 0.0267997 -1.66125e-18)
(-0.0940697 0.0313263 -5.99322e-22)
(-0.119488 0.0233704 -1.41109e-18)
(-0.123445 -0.00318377 0)
(-0.0906474 -0.0497362 -2.53984e-18)
(-0.00443647 -0.10583 0)
(0.126955 -0.12649 0)
(0.254217 -0.0735501 0)
(0.283944 0.00706967 9.9158e-19)
(0.229497 0.0493851 0)
(0.0817653 0.1028 1.22016e-18)
(-0.226399 0.208806 -1.08702e-18)
(-0.429094 0.226754 0)
(-0.494022 0.158119 -1.08629e-20)
(-0.559421 0.103827 0)
(-0.606349 0.0693977 0)
(-0.632877 0.0426099 2.52649e-20)
(-0.640499 0.0196868 0)
(-0.631057 -0.00129297 1.47325e-20)
(-0.605828 -0.020917 -6.81076e-21)
(-0.565797 -0.0392788 -6.40726e-21)
(-0.511699 -0.0562412 1.26286e-20)
(-0.444068 -0.0716006 8.03902e-20)
(-0.363259 -0.084967 2.23337e-19)
(-0.269885 -0.0954724 0)
(-0.165623 -0.101722 3.54514e-19)
(-0.0538455 -0.10223 0)
(0.0603184 -0.0957849 0)
(0.169999 -0.0821297 0)
(0.269008 -0.0623677 1.03719e-18)
(0.351978 -0.0386016 0)
(0.415483 -0.0134208 0)
(0.458893 0.01061 2.20518e-18)
(0.484566 0.0314695 -2.26503e-18)
(0.496836 0.0479197 0)
(0.499977 0.0595603 0)
(0.497052 0.0666781 2.4388e-18)
(0.490524 0.0700795 2.51015e-18)
(0.483161 0.0710145 -2.58139e-18)
(0.477853 0.0709517 0)
(0.476836 0.0711301 0)
(0.481346 0.07227 0)
(0.49201 0.0746663 3.99047e-21)
(0.509125 0.0785152 0)
(0.533428 0.084038 5.47993e-18)
(0.564596 0.0915645 0)
(0.60567 0.101281 5.07162e-18)
(0.650694 0.113705 -4.62942e-18)
(0.720132 0.128573 8.00059e-18)
(0.764735 0.145531 -2.73458e-18)
(0.920175 0.168692 -1.80975e-18)
(0.917652 0.0379426 1.70954e-19)
(0.482602 0.0450245 -4.21339e-18)
(0.216948 0.00822189 -4.41047e-18)
(-0.025791 0.0278925 -3.26057e-21)
(-0.0104508 0.00288933 -4.76917e-18)
(-0.0502611 0.0119314 -4.39761e-18)
(-0.0322185 0.00452112 0)
(-0.045264 0.0108259 -3.83539e-18)
(-0.04674 0.018026 0)
(-0.0689311 0.0288419 -1.64159e-18)
(-0.0941435 0.0336524 -1.50027e-18)
(-0.120629 0.0249732 1.39496e-18)
(-0.12793 -0.00375655 -1.30403e-18)
(-0.101149 -0.0539648 1.25495e-18)
(-0.0238401 -0.114478 -1.23093e-18)
(0.0968151 -0.137021 1.15801e-18)
(0.225881 -0.0788756 0)
(0.258647 0.0107879 0)
(0.207591 0.062201 0)
(0.0427685 0.131057 5.86939e-19)
(-0.257862 0.237965 5.24495e-19)
(-0.421495 0.239944 0)
(-0.478173 0.164634 -2.02568e-19)
(-0.54178 0.109471 0)
(-0.586441 0.0728609 0)
(-0.611771 0.0439276 -2.4538e-20)
(-0.61872 0.019043 3.00399e-20)
(-0.608955 -0.00372673 -7.64255e-21)
(-0.583627 -0.0250133 0)
(-0.543651 -0.044939 1.22612e-20)
(-0.489736 -0.0633871 -2.44483e-20)
(-0.422397 -0.0801715 0)
(-0.341956 -0.094896 -1.09129e-19)
(-0.248968 -0.106613 2.82082e-19)
(-0.145076 -0.113761 -3.49108e-19)
(-0.0336532 -0.114641 0)
(0.0799064 -0.107855 0)
(0.188767 -0.0931083 0)
(0.286697 -0.0716206 -1.0208e-18)
(0.368256 -0.0456867 0)
(0.429991 -0.0181986 0)
(0.471288 0.00793318 -2.17298e-18)
(0.494616 0.0304103 0)
(0.504637 0.0479217 2.28942e-18)
(0.506081 0.0602088 -2.34216e-18)
(0.502179 0.0677223 0)
(0.495093 0.0712929 2.48399e-18)
(0.487177 0.0721212 5.1209e-18)
(0.481182 0.0716914 -2.63015e-18)
(0.479487 0.0713486 0)
(0.48351 0.07193 0)
(0.493935 0.0737985 2.76168e-18)
(0.511009 0.0771561 0)
(0.535384 0.0822245 5.43921e-18)
(0.566679 0.0893199 0)
(0.607889 0.0986385 5.01061e-18)
(0.653086 0.110635 4.55608e-18)
(0.722569 0.12512 -3.94259e-18)
(0.767573 0.141412 0)
(0.921776 0.163599 1.74301e-18)
(0.925828 0.0519251 -2.7165e-19)
(0.542204 0.0508683 7.4074e-20)
(0.270145 0.015348 4.31101e-18)
(0.0115444 0.0289151 -3.43432e-21)
(-0.00703318 0.00400845 -5.59085e-22)
(-0.0496533 0.0123167 0)
(-0.0330412 0.00473271 0)
(-0.0460375 0.0113592 0)
(-0.0472377 0.0191643 -1.75964e-18)
(-0.0684885 0.0307325 3.24735e-18)
(-0.0933544 0.0358996 0)
(-0.120793 0.0266538 1.37558e-18)
(-0.131355 -0.00401706 6.25532e-21)
(-0.110681 -0.0575841 -1.22999e-18)
(-0.0423642 -0.122227 8.20371e-21)
(0.066732 -0.147144 -1.15331e-18)
(0.197055 -0.0844909 0)
(0.232919 0.0141765 0)
(0.184441 0.0758029 0)
(0.00443963 0.1594 -5.73256e-19)
(-0.280344 0.263799 0)
(-0.410325 0.250581 3.38759e-19)
(-0.462143 0.170647 1.75891e-19)
(-0.523198 0.114818 -6.0725e-20)
(-0.565487 0.0760941 0)
(-0.589519 0.045111 0)
(-0.595742 0.0183227 -2.93223e-20)
(-0.585628 -0.00619766 0)
(-0.560185 -0.0291191 3.58795e-21)
(-0.520259 -0.0505868 -5.8798e-21)
(-0.466527 -0.0705011 1.18647e-20)
(-0.399492 -0.0886942 -7.44421e-20)
(-0.319438 -0.104766 0)
(-0.226864 -0.11769 -2.78175e-19)
(-0.123372 -0.125735 0)
(-0.0123498 -0.126969 0)
(0.100532 -0.119813 8.95894e-19)
(0.208531 -0.103948 0)
(0.305336 -0.0806995 0)
(0.385431 -0.0525586 0)
(0.445338 -0.0227243 0)
(0.484454 0.00553977 0)
(0.505331 0.0296398 0)
(0.512922 0.0481685 -4.52234e-18)
(0.512438 0.0610152 2.31724e-18)
(0.507391 0.0688443 2.3835e-18)
(0.499721 0.0725542 -4.9237e-18)
(0.491317 0.0732882 -2.54075e-18)
(0.484688 0.0725063 2.61373e-18)
(0.482303 0.0716347 -2.6746e-18)
(0.485786 0.0716331 0)
(0.495924 0.0729453 1.75854e-21)
(0.512936 0.0757952 -5.49746e-18)
(0.537386 0.0804012 -5.42152e-18)
(0.568818 0.0870635 -5.24815e-18)
(0.610168 0.0959878 -9.95968e-18)
(0.655534 0.107547 -4.52545e-18)
(0.725046 0.121672 3.8799e-18)
(0.770408 0.137249 2.59872e-18)
(0.923437 0.158631 -1.72142e-18)
(0.932511 0.0644582 -1.49088e-19)
(0.594379 0.0572753 4.02805e-18)
(0.324073 0.0229018 2.34364e-21)
(0.0550417 0.0306337 -3.81427e-21)
(0.000481012 0.00597264 4.70911e-18)
(-0.0480766 0.0127644 4.41285e-18)
(-0.0331475 0.00488236 -4.02444e-18)
(-0.046184 0.0117905 1.88873e-18)
(-0.0469525 0.0201327 -6.92778e-22)
(-0.0672248 0.0324619 -1.60748e-18)
(-0.091609 0.0380503 -1.46619e-18)
(-0.119833 0.0283885 -1.36375e-18)
(-0.133501 -0.00398711 2.55988e-18)
(-0.118952 -0.0606125 9.46351e-21)
(-0.0597133 -0.129088 1.21004e-18)
(0.0376073 -0.156858 0)
(0.168078 -0.0903916 9.9034e-19)
(0.206999 0.0172607 0)
(0.16024 0.0900805 -1.07623e-18)
(-0.032146 0.187253 -5.50122e-19)
(-0.295322 0.286345 -4.67749e-19)
(-0.397006 0.25919 -1.35867e-20)
(-0.445735 0.17626 -1.70947e-19)
(-0.5037 0.119836 5.91655e-20)
(-0.543579 0.079094 0)
(-0.56625 0.0461585 2.96098e-20)
(-0.571715 0.0175268 0)
(-0.561237 -0.00870437 0)
(-0.535672 -0.0332337 -3.51513e-21)
(-0.495791 -0.0562222 0)
(-0.442242 -0.0775841 0)
(-0.375519 -0.0971699 7.32954e-20)
(-0.295869 -0.114579 0)
(-0.203728 -0.128707 0)
(-0.100658 -0.137645 3.36153e-19)
(0.00990859 -0.139215 0)
(0.12206 -0.131662 -8.86297e-19)
(0.229165 -0.114653 0)
(0.324807 -0.0896088 9.87667e-19)
(0.403394 -0.0592214 0)
(0.461425 -0.0270018 0)
(0.498309 0.00342828 0)
(0.516661 0.0291643 0)
(0.521681 0.0486768 2.23471e-18)
(0.519064 0.0619997 0)
(0.512696 0.0700546 -4.71996e-18)
(0.504404 0.0738604 2.44052e-18)
(0.495601 0.0745091 -2.51968e-18)
(0.488443 0.0733997 2.59553e-18)
(0.485412 0.0720051 2.66144e-18)
(0.488332 0.0714026 0)
(0.498138 0.072132 2.73893e-18)
(0.515054 0.0744544 8.22587e-18)
(0.539562 0.0785887 -5.39894e-18)
(0.571124 0.0848142 5.23456e-18)
(0.612606 0.0933447 4.95909e-18)
(0.658125 0.104461 0)
(0.727641 0.118236 -3.86029e-18)
(0.773315 0.133079 -5.14115e-18)
(0.925202 0.153761 0)
(0.938013 0.0757446 8.57409e-19)
(0.639883 0.06398 0)
(0.377404 0.03076 7.21505e-23)
(0.102903 0.0332061 -4.30523e-21)
(0.0147323 0.00841329 -4.63109e-18)
(-0.0449301 0.013365 -8.868e-18)
(-0.0324747 0.00498915 8.04542e-18)
(-0.0456915 0.0121191 -1.87641e-18)
(-0.0458602 0.020925 1.72978e-18)
(-0.0650922 0.0340199 0)
(-0.0888298 0.0400856 7.59466e-22)
(-0.117629 0.0301527 0)
(-0.134194 -0.00368838 -2.53712e-18)
(-0.125717 -0.0630643 1.21032e-18)
(-0.0756626 -0.135091 0)
(0.0100969 -0.166127 0)
(0.138959 -0.0965116 -9.92295e-19)
(0.18105 0.0200755 0)
(0.135048 0.10489 1.06708e-18)
(-0.0662871 0.214147 5.38785e-19)
(-0.304099 0.305742 1.12369e-20)
(-0.382362 0.266175 -3.05583e-19)
(-0.428811 0.181512 -1.48192e-19)
(-0.483338 0.124505 0)
(-0.52081 0.0818617 0)
(-0.542085 0.0470712 -2.89789e-20)
(-0.546777 0.0166575 0)
(-0.535928 -0.0112448 -1.10833e-20)
(-0.510238 -0.0373556 -1.40743e-21)
(-0.470401 -0.0618447 4.90723e-21)
(-0.417036 -0.0846363 -1.07083e-20)
(-0.350628 -0.1056 7.01844e-20)
(-0.271392 -0.124337 -1.00726e-19)
(-0.179699 -0.139665 2.66387e-19)
(-0.0770662 -0.149493 -3.33643e-19)
(0.0329843 -0.151382 0)
(0.144371 -0.143406 0)
(0.250558 -0.125228 0)
(0.345006 -0.0983523 -3.6285e-21)
(0.422048 -0.0656784 9.9982e-19)
(0.478161 -0.0310343 0)
(0.512772 0.00159623 0)
(0.528548 0.0289865 0)
(0.530894 0.0494592 0)
(0.525964 0.0631806 0)
(0.518098 0.0713644 2.74937e-21)
(0.509122 0.075207 0)
(0.500001 0.0757699 5.00214e-18)
(0.492454 0.0743614 -5.15843e-18)
(0.48887 0.0724614 -2.64619e-18)
(0.491245 0.0712507 0)
(0.500688 0.0713762 0)
(0.51747 0.0731515 -5.46871e-18)
(0.542007 0.0768017 5.30836e-21)
(0.57368 0.082585 -5.21152e-18)
(0.615273 0.0907203 4.9311e-18)
(0.660923 0.101392 4.45967e-18)
(0.730407 0.114819 -3.82045e-18)
(0.776347 0.128922 5.08417e-18)
(0.927104 0.148974 1.65824e-18)
(0.942586 0.0859336 1.31834e-19)
(0.679421 0.0707732 -3.75184e-18)
(0.429124 0.0388068 -8.10738e-18)
(0.153683 0.0366883 -4.93156e-21)
(0.0358182 0.0112869 4.53635e-18)
(-0.0392321 0.0142363 4.45099e-18)
(-0.0309003 0.00509419 -2.01445e-18)
(-0.0445566 0.0123484 0)
(-0.0439544 0.0215362 0)
(-0.0620597 0.035397 1.57989e-18)
(-0.0849628 0.0419875 1.43926e-18)
(-0.114099 0.0319232 0)
(-0.133306 -0.00314138 1.26135e-18)
(-0.130789 -0.0649497 0)
(-0.0900022 -0.140238 0)
(-0.0155198 -0.174889 0)
(0.109319 -0.102737 0)
(0.155133 0.0226594 9.63893e-19)
(0.108713 0.12005 5.22498e-19)
(-0.0974047 0.239728 -5.17163e-19)
(-0.307767 0.32217 1.11551e-20)
(-0.366852 0.27184 0)
(-0.411284 0.186415 1.44893e-19)
(-0.462177 0.128818 0)
(-0.497269 0.0844014 0)
(-0.517134 0.0478514 -3.2742e-20)
(-0.521049 0.0157177 3.56396e-20)
(-0.509829 -0.0138164 1.08814e-20)
(-0.484016 -0.0414833 1.38312e-21)
(-0.444224 -0.067454 -9.39373e-21)
(-0.391044 -0.0916584 2.08437e-20)
(-0.324954 -0.113984 -6.93348e-20)
(-0.246136 -0.134041 9.97272e-20)
(-0.1549 -0.150567 -2.1871e-21)
(-0.0527125 -0.161278 -3.27609e-19)
(0.0567547 -0.163467 0)
(0.16736 -0.155048 0)
(0.272609 -0.135676 0)
(0.365838 -0.106933 -1.93622e-18)
(0.441303 -0.0719329 -9.93421e-19)
(0.495464 -0.0348253 0)
(0.527767 4.05209e-05 0)
(0.54093 0.0291067 -2.11414e-18)
(0.540528 0.0505241 0)
(0.533138 0.0645744 0)
(0.523598 0.0727864 4.62564e-18)
(0.513851 0.0765916 -2.39619e-18)
(0.504473 0.0770545 -4.96455e-18)
(0.496688 0.0753738 9.15932e-22)
(0.492683 0.0729951 5.2648e-18)
(0.494571 0.0711802 2.68586e-18)
(0.503648 0.0706876 0)
(0.520262 0.071897 2.72821e-18)
(0.544794 0.0750505 5.37841e-18)
(0.576548 0.0803853 5.20461e-18)
(0.618221 0.088122 -4.92446e-18)
(0.663972 0.0983481 -4.45287e-18)
(0.733383 0.111424 3.81465e-18)
(0.779542 0.124794 -2.52766e-18)
(0.929166 0.144259 -1.65545e-18)
(0.946435 0.095147 1.24589e-19)
(0.713656 0.0774953 3.71956e-18)
(0.478475 0.0469307 3.71664e-21)
(0.206211 0.0410348 -5.63966e-21)
(0.0629194 0.0148283 0)
(-0.0295834 0.0153432 0)
(-0.0281953 0.00526667 2.43712e-22)
(-0.042773 0.0124884 0)
(-0.0412495 0.0219632 0)
(-0.0581168 0.0365845 5.36396e-22)
(-0.0799806 0.0437396 0)
(-0.109197 0.033679 0)
(-0.130764 -0.00236458 1.24377e-18)
(-0.134037 -0.0662777 0)
(-0.102547 -0.144549 0)
(-0.0392353 -0.182965 0)
(0.0785935 -0.108941 0)
(0.129223 0.0250446 -2.84073e-22)
(0.0809145 0.135512 -5.17057e-19)
(-0.124811 0.263568 1.00875e-18)
(-0.307234 0.335847 1.08603e-20)
(-0.350723 0.27642 2.54477e-19)
(-0.393106 0.190969 0)
(-0.440283 0.132774 3.06992e-20)
(-0.47304 0.0867187 0)
(-0.491495 0.0485026 3.21399e-20)
(-0.494637 0.0147105 2.08122e-21)
(-0.483049 -0.0164167 0)
(-0.45712 -0.0456149 0)
(-0.417377 -0.0730494 2.66073e-22)
(-0.364383 -0.0986506 -2.72707e-22)
(-0.298611 -0.122326 3.31895e-20)
(-0.220214 -0.143693 0)
(-0.129437 -0.161415 -2.60503e-19)
(-0.0277052 -0.173002 3.25795e-19)
(0.0811118 -0.175471 0)
(0.190929 -0.166592 -8.53665e-19)
(0.295226 -0.146 0)
(0.387215 -0.115355 4.21409e-21)
(0.461078 -0.0779881 0)
(0.513255 -0.0383776 9.96646e-19)
(0.54322 -0.00124224 1.01645e-18)
(0.553745 0.029523 7.4255e-21)
(0.550546 0.0518769 -2.15104e-18)
(0.54058 0.0661947 0)
(0.5292 0.0743341 -2.90071e-21)
(0.518574 0.078015 2.37786e-18)
(0.508973 0.0783484 1.17537e-21)
(0.501093 0.076416 2.5466e-18)
(0.496825 0.0735905 -7.7227e-22)
(0.498322 0.0711858 -9.48627e-22)
(0.507054 0.070069 0)
(0.523481 0.0706979 0)
(0.54797 0.0733421 0)
(0.579768 0.0782211 0)
(0.621484 0.085555 0)
(0.667301 0.0953346 4.42646e-18)
(0.736594 0.108053 0)
(0.782927 0.120704 0)
(0.9314 0.139609 -1.62879e-18)
(0.949732 0.103498 -7.43571e-19)
(0.743209 0.0840309 0)
(0.524916 0.0550239 5.21354e-21)
(0.259491 0.0461417 -6.36909e-21)
(0.0953887 0.0190966 0)
(-0.0148651 0.0167531 2.20324e-18)
(-0.0239751 0.00559191 -2.03255e-18)
(-0.0403124 0.0125592 0)
(-0.0377787 0.0222055 0)
(-0.0532756 0.0375749 -1.55559e-18)
(-0.0738844 0.0453279 0)
(-0.102918 0.0354019 0)
(-0.126545 -0.00137441 -1.24056e-18)
(-0.135388 -0.0670567 0)
(-0.113167 -0.148023 -1.13679e-18)
(-0.0611132 -0.19015 0)
(0.0464718 -0.115024 0)
(0.103286 0.0272299 2.86728e-21)
(0.0521158 0.151014 0)
(-0.14824 0.285359 -4.92582e-19)
(-0.303236 0.347012 3.96617e-19)
(-0.334095 0.280094 -4.8741e-19)
(-0.374259 0.195166 1.15211e-19)
(-0.417721 0.136378 -3.01518e-20)
(-0.448197 0.0888205 0)
(-0.465254 0.0490288 3.58597e-20)
(-0.46763 0.0136393 -7.50773e-20)
(-0.455684 -0.0190429 0)
(-0.429647 -0.0497487 8.67655e-22)
(-0.38996 -0.0786301 4.17418e-21)
(-0.337154 -0.105613 -9.76587e-21)
(-0.271701 -0.130624 -3.28713e-20)
(-0.193724 -0.153295 0)
(-0.103408 -0.172212 -2.54628e-19)
(-0.00215251 -0.184663 3.19921e-19)
(0.105967 -0.187396 0)
(0.214992 -0.17804 8.50481e-19)
(0.318321 -0.156205 0)
(0.409051 -0.123622 9.55483e-19)
(0.481292 -0.0838469 0)
(0.53146 -0.0416945 -9.93346e-19)
(0.559063 -0.00225553 -1.01227e-18)
(0.566931 0.0302326 7.938e-21)
(0.560905 0.0535198 2.13395e-18)
(0.548277 0.0680525 0)
(0.534909 0.0760212 -2.2705e-18)
(0.52328 0.0794813 0)
(0.513456 0.0796397 2.44699e-18)
(0.505608 0.0774665 0)
(0.501246 0.0742276 -2.60423e-18)
(0.502475 0.0712556 -5.32453e-18)
(0.510914 0.0695171 0)
(0.527148 0.0695559 0)
(0.551562 0.07168 0)
(0.583362 0.0760959 2.58597e-18)
(0.625078 0.0830217 0)
(0.670923 0.0923542 -1.05965e-20)
(0.740051 0.104708 0)
(0.786515 0.116656 2.47964e-18)
(0.933815 0.135019 1.63073e-18)
(0.952614 0.111091 0)
(0.768655 0.0903014 3.51588e-18)
(0.568085 0.0629863 3.87106e-18)
(0.312654 0.0518757 -7.0685e-21)
(0.132486 0.0240551 0)
(0.00523984 0.0185857 -2.17329e-18)
(-0.0176982 0.00616197 0)
(-0.0370956 0.0125949 1.85837e-18)
(-0.0335899 0.0222668 1.68911e-18)
(-0.0475706 0.0383621 1.54588e-18)
(-0.066703 0.0467409 1.40372e-18)
(-0.0952944 0.0370771 1.29675e-18)
(-0.12067 -0.000185577 0)
(-0.13482 -0.0672946 0)
(-0.121788 -0.150648 1.12955e-18)
(-0.0812254 -0.19633 0)
(0.0134372 -0.120937 0)
(0.0773145 0.0291731 -9.79651e-19)
(0.022972 0.166262 0)
(-0.167674 0.304942 -4.74788e-19)
(-0.296369 0.355909 0)
(-0.317021 0.283004 2.33797e-19)
(-0.354744 0.199 -1.1329e-19)
(-0.394549 0.139642 0)
(-0.422805 0.090714 0)
(-0.438483 0.0494345 2.0945e-21)
(-0.440108 0.0125075 3.79889e-20)
(-0.427813 -0.0216923 0)
(-0.40168 -0.0538826 -8.55581e-22)
(-0.362058 -0.0841951 3.59318e-21)
(-0.309446 -0.112547 -9.11426e-21)
(-0.244312 -0.138882 0)
(-0.166755 -0.162848 0)
(-0.0768954 -0.182956 2.40302e-21)
(0.023846 -0.196261 -2.37826e-21)
(0.13124 -0.199241 0)
(0.239464 -0.189396 0)
(0.341809 -0.166292 9.04864e-19)
(0.431263 -0.131736 0)
(0.501866 -0.0895129 0)
(0.550008 -0.0447789 0)
(0.57523 -0.00300291 0)
(0.580427 0.0312319 2.06838e-18)
(0.57156 0.0554528 2.10572e-18)
(0.556209 0.0701558 0)
(0.540726 0.0778607 0)
(0.527965 0.0809971 2.33795e-18)
(0.517889 0.0809204 0)
(0.510175 0.0785052 0)
(0.505883 0.0748839 -2.58972e-18)
(0.506987 0.0713731 2.65046e-18)
(0.515207 0.0690234 0)
(0.531259 0.0684685 0)
(0.55557 0.070064 0)
(0.587333 0.07401 -2.58228e-18)
(0.629004 0.0805225 2.43771e-18)
(0.674837 0.0894074 -8.80843e-18)
(0.743753 0.101389 0)
(0.790308 0.112653 -2.48044e-18)
(0.936409 0.130484 -1.60792e-18)
(0.955191 0.118019 0)
(0.790528 0.0962567 -3.49688e-18)
(0.607772 0.0707287 0)
(0.364938 0.0580922 -6.15447e-18)
(0.17339 0.0296365 0)
(0.0307444 0.02093 -2.13459e-18)
(-0.00872752 0.00712922 0)
(-0.0329494 0.0126471 -1.86375e-18)
(-0.0287369 0.0221577 -1.68303e-18)
(-0.041057 0.0389417 -1.53616e-18)
(-0.0584908 0.0479697 -1.39422e-18)
(-0.0863879 0.0386926 -1.28819e-18)
(-0.113201 0.00118838 0)
(-0.132356 -0.0669998 0)
(-0.128368 -0.152406 0)
(-0.0995844 -0.201452 0)
(-0.0190019 -0.126559 0)
(0.0512279 0.0308331 5.00634e-19)
(-0.00584592 0.181005 0)