/*--------------------------------*- C++ -*----------------------------------*\
| =========                 |                                                 |
| \\      /  F ield         | OpenFOAM: The Open Source CFD Toolbox           |
|  \\    /   O peration     | Version:  2.4.0                                 |
|   \\  /    A nd           | Web:      www.OpenFOAM.org                      |
|    \\/     M anipulation  |                                                 |
\*---------------------------------------------------------------------------*/
FoamFile
{
    version     2.0;
    format      ascii;
    class       volScalarField;
    location    "235";
    object      p;
}
// * * * * * * * * * * * * * * * * * * * * * * * * * * * * * * * * * * * * * //

dimensions      [0 2 -2 0 0 0 0];

internalField   nonuniform List<scalar> 
10000
(
0.00238355
0.00240638
0.00243643
0.00248949
0.00253823
0.00261069
0.00267396
0.00276463
0.00283962
0.00294931
0.0030358
0.00316887
0.00326865
0.00343533
0.00355414
0.00377634
0.00393413
0.00426213
0.00452885
0.00505737
0.00238493
0.00240454
0.00243672
0.00248899
0.00253814
0.00261019
0.00267373
0.00276376
0.00283926
0.00294751
0.00303539
0.00316476
0.00326846
0.00342517
0.00355418
0.00375012
0.00392696
0.00418554
0.00444887
0.00477892
0.00238467
0.00240391
0.00243658
0.00248846
0.0025378
0.00260928
0.00267314
0.00276209
0.00283826
0.00294425
0.00303362
0.0031579
0.00326502
0.00340971
0.00354537
0.00371248
0.00389406
0.00407989
0.00430468
0.00444364
0.00238417
0.00240359
0.00243611
0.00248775
0.0025371
0.00260799
0.00267211
0.00275962
0.00283658
0.00293941
0.00303051
0.00314824
0.00325806
0.00338998
0.00352632
0.0036695
0.00383633
0.00397557
0.0041428
0.00421671
0.00238363
0.00240286
0.00243555
0.00248652
0.00253631
0.00260597
0.00267085
0.002756
0.00283437
0.00293269
0.00302611
0.0031355
0.00324785
0.00336542
0.00349977
0.00362009
0.00376768
0.00387398
0.003995
0.00404509
0.00238271
0.0024023
0.00243459
0.00248529
0.002535
0.00260375
0.00266882
0.00275191
0.00283085
0.00292508
0.00301919
0.00312136
0.0032327
0.00333877
0.00346515
0.0035683
0.00369324
0.0037768
0.00386276
0.00389622
0.00238167
0.00240133
0.00243364
0.00248344
0.00253363
0.00260068
0.00266654
0.00274659
0.00282661
0.00291579
0.00301046
0.00310505
0.00321374
0.00330951
0.00342496
0.00351465
0.00361689
0.00368446
0.00374406
0.00376763
0.00238042
0.00240023
0.00243229
0.00248147
0.00253171
0.00259733
0.00266344
0.00274074
0.00282097
0.00290557
0.0029993
0.00308722
0.00319106
0.00327799
0.00338111
0.00345933
0.00354187
0.00359655
0.00363821
0.00365466
0.00237908
0.00239865
0.00243084
0.002479
0.00252952
0.00259332
0.00265972
0.00273401
0.00281404
0.00289421
0.00298579
0.00306787
0.00316507
0.00324454
0.00333473
0.0034032
0.00346918
0.00351328
0.00354273
0.00355362
0.00237751
0.00239685
0.00242907
0.00247621
0.00252687
0.0025888
0.00265526
0.00272651
0.00280582
0.00288173
0.00297022
0.00304689
0.00313664
0.00320921
0.00328725
0.0033468
0.00339952
0.00343473
0.0034558
0.00346254
0.00237572
0.00239474
0.00242702
0.00247304
0.00252373
0.00258377
0.00264993
0.0027183
0.00279614
0.00286823
0.00295258
0.00302445
0.00310615
0.00317233
0.00323926
0.00329068
0.00333286
0.00336067
0.00337581
0.00337951
0.0023737
0.00239229
0.00242467
0.00246944
0.00252013
0.00257816
0.00264379
0.00270929
0.00278516
0.00285358
0.00293323
0.00300048
0.00307419
0.00313417
0.00319138
0.00323533
0.0032692
0.00329089
0.00330171
0.0033032
0.0023714
0.00238957
0.00242195
0.00246548
0.00251595
0.00257203
0.00263673
0.00269954
0.00277282
0.00283786
0.00291229
0.00297512
0.00304109
0.0030951
0.00314383
0.00318106
0.00320828
0.003225
0.00323255
0.00323242
0.00236884
0.00238647
0.00241888
0.00246108
0.00251122
0.00256532
0.00262878
0.00268897
0.00275925
0.00282099
0.00289003
0.00294845
0.0030072
0.0030554
0.00309689
0.00312812
0.00314996
0.00316267
0.00316769
0.00316636
0.00236596
0.00238306
0.00241539
0.00245628
0.00250587
0.00255805
0.00261992
0.00267761
0.00274449
0.00280302
0.0028666
0.00292064
0.00297273
0.00301539
0.00305063
0.00307661
0.00309404
0.00310351
0.00310652
0.00310429
0.00236277
0.00237927
0.00241148
0.00245102
0.00249989
0.00255017
0.00261017
0.00266541
0.00272864
0.00278396
0.00284219
0.00289183
0.00293787
0.00297531
0.00300516
0.00302658
0.00304036
0.00304721
0.00304864
0.0030457
0.00235923
0.00237513
0.00240712
0.00244532
0.00249327
0.00254169
0.00259953
0.00265235
0.00271178
0.00276385
0.00281692
0.00286221
0.00290276
0.00293535
0.00296053
0.00297802
0.00298875
0.00299346
0.0029936
0.00299011
0.00235533
0.00237059
0.00240228
0.00243914
0.00248598
0.00253257
0.00258802
0.00263844
0.00269398
0.00274275
0.00279092
0.00283193
0.00286752
0.00289566
0.00291678
0.0029309
0.00293907
0.00294202
0.00294112
0.0029372
0.00235104
0.00236566
0.00239694
0.00243247
0.00247802
0.0025228
0.00257567
0.00262366
0.00267531
0.00272075
0.00276429
0.00280114
0.00283226
0.00285635
0.00287392
0.00288514
0.00289115
0.00289265
0.0028909
0.00288663
0.00234633
0.00236031
0.00239109
0.0024253
0.00246939
0.00251235
0.00256252
0.00260803
0.00265584
0.00269791
0.00273711
0.00276999
0.00279704
0.0028175
0.00283196
0.0028407
0.00284488
0.00284517
0.00284273
0.00283817
0.0023412
0.00235453
0.0023847
0.0024176
0.00246007
0.00250121
0.00254858
0.00259156
0.00263564
0.00267433
0.00270948
0.00273858
0.00276196
0.00277915
0.00279088
0.00279748
0.00280012
0.00279939
0.00279637
0.00279159
0.00233562
0.0023483
0.00237775
0.00240936
0.00245007
0.00248937
0.00253388
0.0025743
0.00261474
0.0026501
0.00268146
0.00270701
0.00272707
0.00274134
0.00275068
0.00275544
0.00275675
0.00275518
0.00275168
0.00274672
0.00232956
0.0023416
0.00237023
0.00240054
0.0024394
0.00247682
0.00251847
0.00255625
0.00259321
0.00262528
0.00265313
0.00267537
0.00269241
0.00270409
0.00271133
0.0027145
0.00271468
0.00271238
0.00270849
0.00270338
0.002323
0.00233442
0.00236213
0.00239114
0.00242806
0.00246356
0.00250234
0.00253748
0.00257109
0.00259998
0.00262453
0.00264372
0.00265803
0.0026674
0.0026728
0.00267459
0.0026738
0.0026709
0.00266667
0.00266145
0.00231593
0.00232674
0.00235343
0.00238114
0.00241604
0.00244958
0.00248554
0.00251801
0.00254843
0.00257424
0.00259575
0.00261211
0.00262396
0.00263127
0.00263505
0.00263564
0.00263403
0.0026306
0.0026261
0.00262079
0.00230832
0.00231854
0.00234413
0.00237052
0.00240336
0.00243491
0.00246809
0.00249789
0.00252527
0.00254815
0.00256681
0.00258059
0.00259021
0.0025957
0.00259805
0.00259761
0.00259528
0.00259142
0.00258668
0.0025813
0.00230017
0.00230979
0.00233422
0.00235926
0.00239003
0.00241954
0.00245001
0.00247718
0.00250166
0.00252175
0.00253777
0.00254919
0.00255681
0.00256067
0.00256177
0.00256043
0.00255749
0.00255325
0.00254832
0.00254289
0.00229144
0.00230049
0.00232369
0.00234738
0.00237604
0.0024035
0.00243132
0.00245591
0.00247763
0.00249509
0.00250868
0.00251795
0.00252375
0.00252618
0.00252618
0.00252405
0.00252057
0.00251602
0.00251093
0.00250546
0.00228213
0.00229062
0.00231253
0.00233484
0.00236141
0.0023868
0.00241206
0.00243412
0.00245324
0.00246823
0.00247956
0.00248687
0.00249104
0.00249219
0.00249122
0.00248841
0.00248448
0.00247966
0.00247444
0.00246894
0.00227221
0.00228015
0.00230074
0.00232165
0.00234615
0.00236946
0.00239224
0.00241185
0.00242851
0.00244119
0.00245044
0.00245598
0.00245869
0.0024587
0.00245688
0.00245348
0.00244915
0.0024441
0.00243878
0.00243327
0.00226169
0.00226908
0.00228832
0.00230781
0.00233026
0.0023515
0.0023719
0.00238915
0.00240349
0.00241402
0.00242136
0.00242529
0.00242669
0.00242569
0.00242312
0.0024192
0.00241454
0.00240929
0.00240388
0.00239837
0.00225053
0.00225739
0.00227526
0.00229331
0.00231376
0.00233295
0.00235105
0.00236604
0.0023782
0.00238674
0.00239233
0.0023948
0.00239502
0.00239313
0.00238991
0.00238553
0.00238058
0.00237518
0.0023697
0.00236419
0.00223874
0.00224507
0.00226156
0.00227816
0.00229665
0.00231383
0.00232972
0.00234257
0.00235268
0.00235938
0.00236336
0.00236452
0.00236369
0.00236101
0.00235721
0.00235244
0.00234724
0.00234171
0.00233618
0.00233069
0.0022263
0.0022321
0.00224721
0.00226237
0.00227895
0.00229415
0.00230795
0.00231876
0.00232696
0.00233195
0.00233447
0.00233445
0.00233268
0.0023293
0.00232499
0.00231989
0.00231448
0.00230884
0.00230328
0.0022978
0.00221321
0.00221849
0.00223223
0.00224594
0.00226067
0.00227396
0.00228575
0.00229464
0.00230105
0.00230449
0.00230568
0.00230458
0.00230197
0.00229798
0.00229323
0.00228785
0.00228226
0.00227653
0.00227094
0.0022655
0.00219945
0.00220422
0.00221661
0.00222889
0.00224183
0.00225326
0.00226315
0.00227023
0.00227499
0.00227699
0.00227698
0.00227492
0.00227157
0.00226704
0.0022619
0.00225627
0.00225053
0.00224474
0.00223914
0.00223372
0.00218503
0.0021893
0.00220035
0.00221121
0.00222243
0.00223208
0.00224017
0.00224557
0.00224879
0.00224949
0.00224837
0.00224547
0.00224145
0.00223644
0.00223098
0.00222513
0.00221928
0.00221344
0.00220783
0.00220245
0.00216995
0.00217371
0.00218347
0.00219294
0.0022025
0.00221045
0.00221683
0.00222066
0.00222247
0.00222197
0.00221988
0.0022162
0.00221161
0.00220618
0.00220043
0.00219441
0.00218845
0.00218258
0.00217698
0.00217164
0.00215419
0.00215746
0.00216596
0.00217407
0.00218204
0.00218838
0.00219317
0.00219554
0.00219605
0.00219447
0.00219148
0.00218713
0.00218201
0.00217623
0.00217023
0.00216407
0.00215804
0.00215214
0.00214656
0.00214127
0.00213776
0.00214056
0.00214783
0.00215462
0.00216109
0.00216589
0.00216919
0.00217021
0.00216953
0.00216697
0.00216319
0.00215823
0.00215267
0.00214658
0.00214037
0.00213409
0.002128
0.00212209
0.00211654
0.00211129
0.00212067
0.002123
0.0021291
0.00213461
0.00213965
0.00214301
0.00214492
0.0021447
0.00214294
0.00213949
0.002135
0.00212951
0.00212355
0.0021172
0.00211081
0.00210444
0.00209831
0.00209241
0.00208689
0.0020817
0.00210293
0.0021048
0.00210977
0.00211406
0.00211774
0.00211976
0.00212037
0.00211902
0.00211627
0.00211203
0.00210691
0.00210096
0.00209466
0.00208807
0.00208155
0.0020751
0.00206894
0.00206306
0.00205757
0.00205244
0.00208452
0.00208596
0.00208986
0.00209298
0.00209539
0.00209615
0.00209557
0.00209318
0.00208954
0.0020846
0.00207892
0.00207255
0.00206596
0.00205919
0.00205255
0.00204605
0.00203989
0.00203403
0.00202858
0.00202351
0.00206548
0.00206649
0.00206937
0.00207138
0.0020726
0.0020722
0.00207052
0.00206719
0.00206276
0.00205718
0.00205101
0.0020443
0.00203746
0.00203053
0.0020238
0.00201727
0.00201111
0.00200528
0.00199989
0.00199488
0.0020458
0.00204641
0.00204833
0.0020493
0.00204941
0.00204793
0.00204525
0.00204107
0.00203592
0.0020298
0.00202319
0.00201618
0.00200913
0.00200209
0.00199529
0.00198874
0.00198259
0.00197681
0.00197147
0.00196652
0.00202551
0.00202574
0.00202675
0.00202674
0.00202582
0.00202336
0.00201977
0.00201483
0.00200904
0.00200243
0.00199546
0.00198819
0.00198097
0.00197383
0.00196699
0.00196044
0.00195432
0.00194858
0.0019433
0.00193842
0.00200461
0.00200448
0.00200464
0.00200373
0.00200186
0.00199851
0.00199409
0.00198847
0.00198212
0.00197509
0.0019678
0.00196032
0.00195297
0.00194576
0.00193889
0.00193236
0.00192627
0.00192059
0.00191537
0.00191057
0.00198312
0.00198266
0.00198204
0.00198029
0.00197754
0.00197338
0.00196823
0.001962
0.00195516
0.00194777
0.00194022
0.00193257
0.00192511
0.00191785
0.00191098
0.00190447
0.00189843
0.00189281
0.00188766
0.00188293
0.00196107
0.0019603
0.00195895
0.00195643
0.00195289
0.001948
0.00194219
0.00193544
0.00192817
0.00192047
0.0019127
0.00190492
0.00189738
0.0018901
0.00188324
0.00187677
0.00187078
0.00186523
0.00186015
0.0018555
0.00193847
0.00193741
0.0019354
0.00193217
0.00192792
0.00192238
0.001916
0.00190878
0.00190115
0.00189319
0.00188525
0.00187736
0.00186978
0.00186249
0.00185566
0.00184924
0.00184331
0.00183783
0.00183283
0.00182825
0.00191535
0.00191402
0.0019114
0.00190755
0.00190265
0.00189654
0.00188965
0.00188204
0.00187411
0.00186594
0.00185785
0.0018499
0.00184229
0.00183502
0.00182822
0.00182186
0.00181601
0.0018106
0.00180568
0.00180119
0.00189173
0.00189016
0.001887
0.00188257
0.00187711
0.00187049
0.00186317
0.00185522
0.00184704
0.0018387
0.00183052
0.00182252
0.0018149
0.00180767
0.00180092
0.00179463
0.00178885
0.00178353
0.00177869
0.00177427
0.00186763
0.00186585
0.0018622
0.00185726
0.00185131
0.00184425
0.00183655
0.00182833
0.00181994
0.00181149
0.00180323
0.00179522
0.00178762
0.00178044
0.00177375
0.00176754
0.00176184
0.00175661
0.00175185
0.00174752
0.00184308
0.00184111
0.00183703
0.00183165
0.00182526
0.00181784
0.00180983
0.00180138
0.00179284
0.00178429
0.001776
0.001768
0.00176043
0.00175331
0.0017467
0.00174057
0.00173495
0.00172981
0.00172514
0.0017209
0.00181811
0.00181597
0.00181151
0.00180575
0.00179899
0.00179126
0.001783
0.00177437
0.00176572
0.00175712
0.00174882
0.00174084
0.00173333
0.00172628
0.00171975
0.00171372
0.0017082
0.00170315
0.00169857
0.00169442
0.00179275
0.00179046
0.00178568
0.00177959
0.00177252
0.00176453
0.00175607
0.00174732
0.00173859
0.00172997
0.00172168
0.00171376
0.00170632
0.00169935
0.00169291
0.00168697
0.00168155
0.0016766
0.00167211
0.00166804
0.00176703
0.00176462
0.00175955
0.00175319
0.00174587
0.00173768
0.00172907
0.00172023
0.00171145
0.00170285
0.0016946
0.00168674
0.00167938
0.00167251
0.00166617
0.00166034
0.00165502
0.00165017
0.00164578
0.0016418
0.00174098
0.00173845
0.00173316
0.00172657
0.00171906
0.00171071
0.001702
0.0016931
0.00168432
0.00167575
0.00166756
0.00165978
0.00165252
0.00164575
0.00163953
0.0016338
0.00162858
0.00162383
0.00161954
0.00161565
0.00171462
0.00171201
0.00170653
0.00169977
0.00169209
0.00168364
0.00167486
0.00166596
0.0016572
0.00164868
0.00164057
0.00163289
0.00162574
0.00161909
0.00161297
0.00160736
0.00160226
0.00159761
0.00159341
0.00158962
0.00168799
0.00168532
0.00167969
0.00167279
0.00166501
0.00165649
0.00164769
0.0016388
0.00163009
0.00162165
0.00161364
0.00160607
0.00159903
0.0015925
0.00158651
0.00158101
0.00157602
0.00157148
0.00156738
0.00156367
0.00166113
0.0016584
0.00165267
0.00164567
0.00163782
0.00162928
0.00162048
0.00161164
0.001603
0.00159466
0.00158676
0.00157932
0.0015724
0.001566
0.00156013
0.00155476
0.00154988
0.00154545
0.00154145
0.00153784
0.00163405
0.00163129
0.00162548
0.00161843
0.00161055
0.00160202
0.00159326
0.00158449
0.00157595
0.00156772
0.00155994
0.00155263
0.00154585
0.00153958
0.00153384
0.00152859
0.00152383
0.0015195
0.0015156
0.00151209
0.0016068
0.00160402
0.00159817
0.0015911
0.00158322
0.00157473
0.00156603
0.00155736
0.00154893
0.00154083
0.00153319
0.00152603
0.00151939
0.00151326
0.00150765
0.00150253
0.00149788
0.00149367
0.00148987
0.00148645
0.00157941
0.00157662
0.00157076
0.00156369
0.00155585
0.00154742
0.00153882
0.00153026
0.00152196
0.00151401
0.00150652
0.0014995
0.00149301
0.00148702
0.00148154
0.00147655
0.00147202
0.00146792
0.00146422
0.00146089
0.00155191
0.00154913
0.00154327
0.00153624
0.00152846
0.00152012
0.00151163
0.00150321
0.00149506
0.00148726
0.00147992
0.00147306
0.00146672
0.00146088
0.00145554
0.00145068
0.00144627
0.00144228
0.00143869
0.00143545
0.00152433
0.00152156
0.00151574
0.00150877
0.00150108
0.00149285
0.00148449
0.00147622
0.00146823
0.00146059
0.00145342
0.00144672
0.00144053
0.00143484
0.00142964
0.00142491
0.00142062
0.00141674
0.00141325
0.0014101
0.00149671
0.00149396
0.0014882
0.00148131
0.00147372
0.00146563
0.00145742
0.0014493
0.00144148
0.00143402
0.00142701
0.00142048
0.00141445
0.00140891
0.00140386
0.00139925
0.00139509
0.00139132
0.00138793
0.00138488
0.00146907
0.00146636
0.00146066
0.00145388
0.00144641
0.00143847
0.00143042
0.00142248
0.00141483
0.00140755
0.00140072
0.00139436
0.00138849
0.0013831
0.00137818
0.00137371
0.00136966
0.00136601
0.00136272
0.00135976
0.00144145
0.00143878
0.00143317
0.0014265
0.00141917
0.00141139
0.00140352
0.00139576
0.0013883
0.00138121
0.00137455
0.00136837
0.00136266
0.00135742
0.00135265
0.00134831
0.00134438
0.00134084
0.00133764
0.00133478
0.00141388
0.00141126
0.00140575
0.00139921
0.00139204
0.00138443
0.00137674
0.00136917
0.0013619
0.001355
0.00134852
0.00134251
0.00133696
0.00133188
0.00132725
0.00132304
0.00131923
0.00131579
0.0013127
0.00130992
0.0013864
0.00138383
0.00137843
0.00137203
0.00136502
0.00135759
0.00135009
0.00134273
0.00133565
0.00132894
0.00132265
0.00131681
0.00131143
0.0013065
0.001302
0.00129792
0.00129423
0.0012909
0.00128791
0.00128522
0.00135903
0.00135652
0.00135124
0.00134499
0.00133815
0.00133091
0.00132361
0.00131645
0.00130956
0.00130304
0.00129694
0.00129127
0.00128605
0.00128127
0.00127692
0.00127297
0.00126939
0.00126617
0.00126327
0.00126067
0.00133181
0.00132936
0.0013242
0.00131812
0.00131144
0.00130441
0.0012973
0.00129035
0.00128366
0.00127734
0.00127142
0.00126592
0.00126087
0.00125624
0.00125202
0.0012482
0.00124474
0.00124162
0.00123881
0.0012363
0.00130476
0.00130238
0.00129735
0.00129143
0.00128494
0.0012781
0.0012712
0.00126445
0.00125797
0.00125184
0.0012461
0.00124078
0.00123588
0.0012314
0.00122731
0.00122361
0.00122027
0.00121725
0.00121454
0.00121211
0.00127793
0.00127562
0.00127072
0.00126497
0.00125866
0.00125203
0.00124533
0.00123878
0.0012325
0.00122656
0.001221
0.00121585
0.00121111
0.00120678
0.00120283
0.00119925
0.00119602
0.0011931
0.00119048
0.00118813
0.00125134
0.0012491
0.00124434
0.00123876
0.00123263
0.0012262
0.00121971
0.00121337
0.00120728
0.00120153
0.00119615
0.00119117
0.00118658
0.00118239
0.00117857
0.00117512
0.00117199
0.00116917
0.00116664
0.00116437
0.00122503
0.00122285
0.00121823
0.00121282
0.00120688
0.00120065
0.00119436
0.00118823
0.00118233
0.00117677
0.00117157
0.00116675
0.00116232
0.00115827
0.00115458
0.00115124
0.00114821
0.0011455
0.00114305
0.00114086
0.00119903
0.00119692
0.00119243
0.0011872
0.00118144
0.00117541
0.00116932
0.00116339
0.00115768
0.00115231
0.00114727
0.00114262
0.00113833
0.00113442
0.00113085
0.00112763
0.00112471
0.00112208
0.00111972
0.00111761
0.00117337
0.00117132
0.00116698
0.00116191
0.00115634
0.0011505
0.00114461
0.00113887
0.00113336
0.00112816
0.0011233
0.0011188
0.00111466
0.00111088
0.00110744
0.00110432
0.0011015
0.00109897
0.00109668
0.00109464
0.00114808
0.0011461
0.0011419
0.00113699
0.0011316
0.00112596
0.00112026
0.00111472
0.00110938
0.00110436
0.00109966
0.00109532
0.00109131
0.00108767
0.00108434
0.00108133
0.0010786
0.00107616
0.00107396
0.00107199
0.00112321
0.00112129
0.00111722
0.00111248
0.00110727
0.00110181
0.0010963
0.00109094
0.00108579
0.00108094
0.0010764
0.0010722
0.00106834
0.00106481
0.0010616
0.00105869
0.00105606
0.0010537
0.00105158
0.00104968
0.00109878
0.00109693
0.00109299
0.00108841
0.00108336
0.00107809
0.00107276
0.00106759
0.00106261
0.00105792
0.00105353
0.00104948
0.00104574
0.00104234
0.00103923
0.00103642
0.00103388
0.0010316
0.00102955
0.00102771
0.00107483
0.00107305
0.00106923
0.00106481
0.00105992
0.00105483
0.00104968
0.00104468
0.00103986
0.00103534
0.00103109
0.00102718
0.00102357
0.00102029
0.00101729
0.00101458
0.00101213
0.00100993
0.00100794
0.00100617
0.00105141
0.00104969
0.00104599
0.00104171
0.00103699
0.00103207
0.00102708
0.00102225
0.00101759
0.00101322
0.00100912
0.00100533
0.00100184
0.000998665
0.000995763
0.000993147
0.000990774
0.000988648
0.00098673
0.00098502
0.00102854
0.00102689
0.0010233
0.00101917
0.0010146
0.00100984
0.00100502
0.00100035
0.000995843
0.000991618
0.000987651
0.000984
0.000980627
0.000977561
0.000974759
0.000972232
0.000969941
0.000967888
0.000966036
0.000964383
0.00100629
0.00100468
0.00100121
0.000997211
0.000992784
0.000988182
0.000983512
0.000978992
0.000974631
0.00097054
0.000966696
0.000963159
0.000959889
0.000956918
0.000954202
0.000951755
0.000949535
0.000947548
0.000945755
0.000944156
0.000984679
0.000983124
0.000979757
0.000975885
0.000971595
0.000967139
0.000962617
0.000958243
0.000954024
0.000950071
0.000946356
0.000942942
0.000939784
0.000936918
0.000934294
0.000931932
0.000929787
0.000927867
0.000926133
0.000924588
0.000963768
0.000962258
0.00095899
0.000955236
0.000951073
0.000946753
0.000942364
0.000938119
0.000934021
0.000930179
0.000926565
0.000923242
0.000920169
0.000917379
0.000914827
0.00091253
0.000910446
0.000908582
0.000906899
0.000905401
0.000943602
0.000942137
0.000938957
0.000935313
0.000931267
0.000927076
0.000922816
0.000918707
0.000914739
0.00091103
0.00090754
0.000904339
0.000901375
0.000898687
0.000896224
0.000894008
0.000891994
0.000890192
0.000888564
0.000887113
0.00092424
0.000922814
0.000919714
0.000916168
0.000912228
0.000908147
0.000903994
0.000899983
0.000896104
0.000892471
0.000889049
0.000885907
0.000882998
0.000880361
0.000877948
0.00087578
0.000873812
0.000872054
0.000870467
0.000869055
0.000905744
0.000904351
0.000901321
0.00089786
0.000894015
0.000890041
0.000886005
0.00088212
0.000878372
0.000874876
0.000871587
0.000868574
0.000865782
0.000863251
0.00086093
0.000858843
0.000856942
0.000855243
0.000853705
0.000852336
0.000888174
0.000886819
0.00088384
0.000880451
0.000876678
0.000872779
0.000868804
0.000864968
0.000861252
0.000857773
0.000854494
0.000851487
0.000848705
0.000846187
0.000843884
0.000841819
0.000839946
0.000838275
0.000836768
0.00083543
0.00087162
0.000870287
0.000867347
0.000864013
0.000860306
0.000856498
0.000852635
0.000848937
0.000845377
0.000842066
0.000838953
0.000836104
0.000833462
0.000831067
0.000828867
0.000826887
0.000825082
0.000823467
0.000822003
0.000820699
0.000856167
0.000854844
0.000851924
0.000848613
0.000844924
0.000841119
0.000837232
0.00083348
0.000829842
0.000826441
0.000823238
0.000820308
0.000817603
0.000815162
0.000812936
0.000810945
0.000809144
0.000807541
0.000806098
0.000804819
0.000841922
0.0008406
0.000837665
0.000834364
0.000830716
0.000827009
0.000823272
0.000819724
0.000816319
0.000813165
0.000810201
0.000807489
0.00080497
0.000802682
0.000800577
0.000798678
0.000796944
0.000795389
0.000793979
0.000792719
0.000829025
0.00082767
0.000824685
0.000821298
0.000817535
0.000813652
0.000809691
0.000805875
0.000802186
0.000798754
0.000795538
0.000792615
0.00078993
0.000787524
0.000785339
0.000783395
0.000781643
0.000780092
0.000778698
0.000777467
0.000817634
0.000816213
0.000813121
0.000809722
0.000806054
0.00080237
0.000798695
0.000795234
0.000791927
0.000788872
0.000785998
0.000783368
0.000780917
0.000778689
0.000776632
0.000774773
0.000773071
0.000771543
0.000770153
0.000768912
0.000807997
0.000806462
0.00080301
0.000799161
0.000794973
0.000790698
0.000786394
0.0007823
0.000778398
0.000774814
0.000771498
0.000768518
0.00076581
0.000763404
0.000761237
0.000759325
0.00075761
0.000756101
0.000754751
0.000753563
0.000800381
0.000798704
0.000795247
0.000791599
0.000787711
0.000783811
0.000779952
0.000776338
0.000772904
0.000769745
0.000766788
0.000764093
0.000761592
0.000759327
0.000757241
0.000755363
0.000753645
0.000752107
0.000750708
0.000749461
0.000795568
0.000792274
0.000787286
0.000782445
0.000777383
0.00077232
0.000767374
0.000762787
0.000758521
0.000754679
0.000751196
0.000748114
0.000745356
0.000742935
0.000740778
0.000738891
0.000737212
0.000735744
0.000734438
0.000733293
0.00538553
0.00449377
0.00397246
0.00376337
0.00358222
0.00341309
0.00327714
0.00316432
0.00306458
0.00297494
0.00289386
0.00281938
0.00275023
0.00268521
0.00262371
0.00256485
0.00250831
0.00245344
0.00240009
0.00234777
0.00229645
0.00224577
0.00219575
0.00214613
0.00209699
0.0020481
0.00199961
0.00195127
0.0019033
0.00185543
0.00180792
0.00176047
0.00171338
0.00166633
0.00161961
0.00157295
0.00152655
0.00148022
0.00143411
0.00138808
0.00134223
0.00129647
0.00125089
0.00120541
0.0011602
0.00111514
0.00107051
0.00102614
0.000982496
0.00093934
0.000897304
0.000856078
0.000816462
0.000777984
0.00074157
0.000706456
0.000673627
0.000641882
0.000612246
0.000583027
0.000555403
0.000527271
0.000500236
0.000471927
0.000444621
0.000415631
0.000387977
0.00035836
0.000330481
0.000300132
0.000271795
0.000240342
0.000211264
0.000178652
0.000149084
0.00011584
8.65346e-05
5.39187e-05
2.71807e-05
4.68213e-06
0.00503568
0.00457951
0.0042449
0.00408781
0.00393852
0.00378621
0.00365262
0.00353403
0.00342345
0.00331936
0.00322105
0.00312756
0.00303805
0.00295202
0.00286912
0.00278902
0.00271155
0.00263648
0.00256374
0.00249313
0.00242461
0.00235804
0.00229336
0.00223042
0.00216921
0.00210953
0.0020514
0.0019946
0.00193918
0.00188487
0.00183178
0.0017796
0.00172848
0.00167809
0.00162859
0.0015797
0.00153152
0.00148385
0.00143673
0.00139003
0.00134378
0.00129789
0.00125239
0.00120719
0.0011624
0.00111792
0.00107396
0.00103037
0.000987526
0.000945197
0.00090394
0.000863428
0.000824387
0.000786326
0.000750118
0.000714988
0.000681916
0.000649718
0.00061948
0.000589555
0.000561237
0.000532459
0.000504949
0.000476315
0.000448904
0.000419939
0.000392448
0.000363008
0.000335299
0.000305036
0.000276686
0.000245133
0.000215857
0.000183041
0.0001532
0.000119788
9.01999e-05
5.75554e-05
3.02505e-05
7.47414e-06
0.00455715
0.00431637
0.00404091
0.0038591
0.00369743
0.00353926
0.00339935
0.00327687
0.00316611
0.00306478
0.00297188
0.00288596
0.00280595
0.00273085
0.00266007
0.00259288
0.00252888
0.00246753
0.00240854
0.00235153
0.00229626
0.00224247
0.00218997
0.00213857
0.00208814
0.00203851
0.00198963
0.00194133
0.00189362
0.00184634
0.00179954
0.00175305
0.00170696
0.00166113
0.00161561
0.00157032
0.00152527
0.00148046
0.00143583
0.00139144
0.0013472
0.00130323
0.00125942
0.00121591
0.00117264
0.00112972
0.00108719
0.00104511
0.00100365
0.000962812
0.000922887
0.000883802
0.00084596
0.000809128
0.000773817
0.000739531
0.00070686
0.000674927
0.000644434
0.000614067
0.000584769
0.000554827
0.00052567
0.000495272
0.000465755
0.000434703
0.000404993
0.000373561
0.000343959
0.000312222
0.000282649
0.000250349
0.000220573
0.000187612
0.000157742
0.000124421
9.4936e-05
6.22262e-05
3.48494e-05
1.05447e-05
0.00428598
0.00416973
0.00398657
0.00384869
0.00372833
0.00360752
0.00349518
0.00339314
0.00329795
0.00320797
0.00312275
0.00304146
0.00296353
0.0028883
0.00281557
0.00274486
0.0026761
0.00260893
0.00254337
0.00247916
0.00241633
0.00235468
0.00229426
0.00223492
0.00217671
0.00211947
0.00206328
0.00200796
0.00195364
0.00190008
0.00184746
0.00179549
0.00174438
0.00169386
0.00164408
0.00159483
0.00154621
0.00149807
0.00145045
0.00140328
0.00135655
0.00131023
0.00126432
0.00121881
0.00117372
0.00112907
0.00108494
0.00104133
0.000998437
0.000956233
0.000915032
0.000874758
0.000835829
0.000798077
0.000761994
0.000727224
0.000694286
0.000662524
0.000632477
0.000603118
0.00057509
0.000547003
0.00051982
0.00049185
0.000464611
0.000436051
0.000408349
0.000378878
0.000350482
0.000319764
0.000290342
0.00025807
0.000227544
0.000193974
0.000162954
0.000128992
9.84987e-05
6.56167e-05
3.74389e-05
1.17667e-05
0.00407402
0.00400445
0.00387407
0.00375332
0.00363974
0.00352291
0.00340951
0.00330319
0.00320299
0.00310796
0.0030182
0.0029331
0.00285238
0.00277537
0.00270193
0.0026315
0.00256396
0.00249885
0.0024361
0.00237534
0.00231649
0.00225928
0.00220361
0.00214928
0.00209622
0.00204422
0.00199328
0.00194317
0.00189395
0.00184537
0.00179753
0.00175018
0.00170345
0.0016571
0.00161125
0.00156571
0.00152057
0.0014757
0.00143112
0.0013868
0.00134273
0.00129891
0.00125532
0.00121199
0.00116895
0.00112623
0.00108392
0.00104203
0.00100076
0.000960075
0.000920307
0.000881337
0.000843613
0.000806895
0.000771705
0.000737596
0.000705121
0.000673535
0.000643414
0.00061368
0.000585013
0.000556059
0.000527802
0.000498716
0.000470272
0.000440728
0.00041211
0.000382229
0.000353596
0.000323325
0.000294464
0.000263407
0.000233936
0.0002018
0.000171689
0.000138621
0.000108336
7.51769e-05
4.65982e-05
1.45697e-05
0.0039049
0.00386131
0.00377219
0.00367662
0.00358281
0.00348625
0.00339079
0.00329968
0.00321292
0.00312982
0.00305047
0.00297438
0.00290138
0.00283086
0.00276278
0.0026966
0.00263236
0.00256958
0.00250836
0.00244831
0.00238953
0.00233172
0.00227498
0.00221906
0.00216407
0.0021098
0.00205636
0.00200353
0.00195148
0.00189994
0.00184914
0.00179878
0.0017491
0.00169981
0.00165112
0.0016028
0.001555
0.00150756
0.00146056
0.0014139
0.00136764
0.00132173
0.00127619
0.001231
0.00118623
0.00114186
0.00109801
0.00105465
0.001012
0.000969987
0.00092895
0.000888754
0.000849844
0.000811971
0.00077566
0.000740467
0.000706966
0.000674414
0.000643442
0.000612958
0.000583726
0.000554332
0.000525861
0.000496641
0.000468246
0.000438717
0.000410173
0.000380181
0.000351363
0.000320648
0.00029124
0.000259465
0.000229296
0.000196564
0.000166106
0.000133106
0.000103331
7.11101e-05
4.40277e-05
1.24916e-05
0.00376831
0.00373728
0.00367332
0.00359629
0.00351569
0.00343054
0.00334344
0.00325727
0.00317314
0.00309099
0.00301137
0.00293414
0.00285952
0.00278713
0.00271713
0.00264912
0.00258324
0.00251909
0.00245679
0.002396
0.00233682
0.00227896
0.00222249
0.00216715
0.00211302
0.00205987
0.00200777
0.00195649
0.00190613
0.00185644
0.00180757
0.00175924
0.00171162
0.00166443
0.00161785
0.00157164
0.00152592
0.00148052
0.00143553
0.00139083
0.00134647
0.00130238
0.00125862
0.00121514
0.00117201
0.00112921
0.00108687
0.00104495
0.00100368
0.000962966
0.00092317
0.000884131
0.000846308
0.000809433
0.000774039
0.00073967
0.000706899
0.000674991
0.000644561
0.000614547
0.00058568
0.000556597
0.000528326
0.000499267
0.000470927
0.00044143
0.00041284
0.00038282
0.000353973
0.000323304
0.000294029
0.000262464
0.000232627
0.000200168
0.000170044
0.000137072
0.000107331
7.46041e-05
4.69877e-05
1.32981e-05
0.00365157
0.00362687
0.003579
0.00351717
0.00344906
0.00337575
0.00329947
0.00322258
0.00314663
0.00307187
0.00299894
0.00292783
0.00285882
0.0027916
0.00272634
0.00266266
0.0026007
0.00254006
0.0024809
0.00242285
0.00236603
0.00231015
0.00225532
0.00220127
0.00214811
0.00209562
0.00204392
0.00199276
0.00194231
0.00189232
0.00184297
0.00179399
0.0017456
0.00169752
0.00164997
0.0016027
0.00155588
0.00150934
0.00146319
0.0014173
0.00137177
0.00132652
0.00128161
0.00123699
0.00119278
0.0011489
0.00110554
0.0010626
0.00102036
0.000978689
0.000937968
0.000898003
0.000859277
0.000821481
0.000785182
0.000749879
0.000716193
0.000683346
0.000652014
0.000621098
0.000591399
0.000561521
0.000532552
0.000502866
0.000473991
0.000444046