/*--------------------------------*- C++ -*----------------------------------*\
| =========                 |                                                 |
| \\      /  F ield         | OpenFOAM: The Open Source CFD Toolbox           |
|  \\    /   O peration     | Version:  2.4.0                                 |
|   \\  /    A nd           | Web:      www.OpenFOAM.org                      |
|    \\/     M anipulation  |                                                 |
\*---------------------------------------------------------------------------*/
FoamFile
{
    version     2.0;
    format      ascii;
    class       volScalarField;
    location    "1.19";
    object      epsilon;
}
// * * * * * * * * * * * * * * * * * * * * * * * * * * * * * * * * * * * * * //

dimensions      [0 2 -3 0 0 0 0];

internalField   nonuniform List<scalar> 
6000
(
0.994556
0.375943
0.0471303
0.00622412
0.00800412
0.0189114
0.0340278
0.0391748
0.0266208
0.0411712
0.077815
0.100833
0.0925677
0.0671394
0.0434882
0.0266916
0.0150636
0.00792866
0.00409887
0.00232216
0.0018232
0.00260034
0.00375605
0.00504677
0.00644683
0.00792926
0.00945777
0.0109895
0.0124822
0.0139029
0.0152352
0.0164815
0.0176598
0.0187982
0.0199296
0.0210881
0.0223086
0.0236273
0.0250824
0.0267161
0.0285759
0.0307175
0.0332073
0.0361274
0.0395802
0.0436971
0.0486485
0.0546589
0.0620292
0.0711693
0.082645
0.097261
0.116154
0.141076
0.174406
0.220832
0.284346
0.384669
0.508365
0.785237
0.558197
0.345964
0.0211363
0.00563003
0.00346984
0.0085912
0.0135277
0.0247073
0.05468
0.0576723
0.0349408
0.022376
0.0132302
0.00723189
0.00521968
0.0036822
0.00245665
0.00160558
0.00114188
0.000967986
0.00100815
0.00117999
0.00138984
0.00163316
0.00191325
0.00223391
0.00259547
0.00299136
0.00340703
0.00382257
0.00421877
0.00458319
0.00491272
0.00521192
0.00548918
0.00575358
0.00601378
0.00627828
0.00655611
0.00685717
0.00719232
0.00757342
0.00801364
0.00852811
0.00913481
0.00985591
0.0107195
0.0117618
0.013031
0.0145913
0.0165306
0.0189707
0.0220863
0.0261264
0.0314791
0.038679
0.0487978
0.0628411
0.0853043
0.11936
0.416934
0.401969
0.0275694
0.00364446
0.00334017
0.00905768
0.0171782
0.0391293
0.0512281
0.0273884
0.0127481
0.00713296
0.0041335
0.00315784
0.00292933
0.00251228
0.00188956
0.00131255
0.000966955
0.000817763
0.000783886
0.000800417
0.000836198
0.000885074
0.000947239
0.00102537
0.00112275
0.00124094
0.00137761
0.00152577
0.00167539
0.00181687
0.00194423
0.00205603
0.00215411
0.00224156
0.00232152
0.00239695
0.00247088
0.00254668
0.00262802
0.00271879
0.002823
0.00294482
0.0030888
0.00326018
0.00346527
0.00371196
0.00401036
0.00437368
0.00481967
0.00537208
0.00606474
0.00694226
0.00808108
0.00955369
0.0116098
0.0141719
0.0185972
0.0226451
0.367673
0.398165
0.0473635
0.00265911
0.00330593
0.00880004
0.0211477
0.0425208
0.0332604
0.0136282
0.00656652
0.00394151
0.00302745
0.0029956
0.00304722
0.0027542
0.00210234
0.00141682
0.00098166
0.000777318
0.000696725
0.000670377
0.000663648
0.000665524
0.000672392
0.000683779
0.000701242
0.00072706
0.000762643
0.000807202
0.00085746
0.000908772
0.000956998
0.000999825
0.00103685
0.00106879
0.00109671
0.00112166
0.00114473
0.00116713
0.00119026
0.00121562
0.00124469
0.00127896
0.00131989
0.00136906
0.00142824
0.00149957
0.00158569
0.00168993
0.00181669
0.00197165
0.00216286
0.00239999
0.00270119
0.00307716
0.00359447
0.00417896
0.00527339
0.00580682
0.34335
0.370208
0.069257
0.0026356
0.00311359
0.00737421
0.0219551
0.0344719
0.0199429
0.00814306
0.00449764
0.00328953
0.0031572
0.00342676
0.00357598
0.00328588
0.00252298
0.00165624
0.00107329
0.000789898
0.000670172
0.000623032
0.000601474
0.000589867
0.000581507
0.000573472
0.000565547
0.000559304
0.000556914
0.000559865
0.00056811
0.000580127
0.000593774
0.000607271
0.000619673
0.000630744
0.0006406
0.000649472
0.000657649
0.000665521
0.000673593
0.000682451
0.000692709
0.000704974
0.000719838
0.000737906
0.000759839
0.000786401
0.000818521
0.000857357
0.000904399
0.000961544
0.00103146
0.00111731
0.00122488
0.0013576
0.00153785
0.00173578
0.00211222
0.00228065
0.329769
0.33602
0.0919317
0.00391376
0.00279812
0.00587429
0.0177122
0.0234611
0.0124607
0.00582605
0.00379985
0.00333825
0.0035431
0.00394383
0.00415647
0.00387305
0.00302716
0.00198849
0.00123121
0.000845
0.000677435
0.00060891
0.000576225
0.000558476
0.000545752
0.000532811
0.00051767
0.000500832
0.000484317
0.000470424
0.000460619
0.000455077
0.000452971
0.000453138
0.000454613
0.000456789
0.000459339
0.000462094
0.000464987
0.000468049
0.000471408
0.000475273
0.000479896
0.000485547
0.000492502
0.000501051
0.000511515
0.000524267
0.000539763
0.000558567
0.000581412
0.000609233
0.000643345
0.000685294
0.000738068
0.000803155
0.000892311
0.00099169
0.00118235
0.00130341
0.321571
0.303085
0.109453
0.00847871
0.00265019
0.00441623
0.0113938
0.0150372
0.00854362
0.00478356
0.0036599
0.00359464
0.00395241
0.00442468
0.00469373
0.004432
0.00354577
0.00238502
0.00145348
0.000943282
0.000713644
0.000615799
0.000568022
0.000543266
0.000527928
0.000514275
0.000498361
0.000479259
0.000458315
0.000437959
0.000420395
0.000406786
0.000397163
0.000390865
0.000387046
0.000384978
0.000384122
0.000384106
0.000384686
0.000385731
0.000387203
0.000389141
0.000391637
0.000394813
0.000398815
0.000403809
0.000409989
0.00041759
0.000426908
0.000438315
0.000452301
0.000469497
0.000490807
0.000517324
0.000551128
0.000593454
0.000652975
0.000720415
0.000854269
0.000963175
0.316114
0.274156
0.121817
0.0169309
0.00289188
0.00345737
0.00689358
0.00991967
0.00651774
0.00432573
0.00376113
0.00389915
0.00432721
0.00485256
0.00517556
0.00492903
0.00401666
0.00279655
0.00172503
0.00108267
0.000778891
0.000641922
0.000572628
0.000537011
0.000517241
0.000502934
0.000488022
0.00046984
0.000448629
0.000426483
0.00040591
0.000388677
0.000375414
0.00036586
0.000359331
0.000355084
0.000352485
0.000351058
0.000350466
0.000350499
0.00035104
0.00035205
0.000353544
0.000355571
0.000358213
0.000361573
0.000365788
0.000371029
0.000377519
0.00038555
0.000395511
0.000407918
0.00042352
0.000443235
0.000468809
0.000501481
0.000548413
0.000603145
0.00071625
0.000819715
0.312154
0.249877
0.129752
0.0278715
0.00368974
0.00314519
0.00477367
0.00713624
0.00548297
0.00417636
0.00396959
0.00420833
0.00468221
0.00526838
0.0056427
0.00538508
0.00441674
0.00317039
0.00201842
0.0012551
0.00087262
0.00068687
0.000589664
0.000538672
0.000511373
0.000494687
0.000480421
0.000463997
0.000444194
0.000422395
0.000401086
0.000382408
0.000367437
0.000356242
0.000348303
0.000342909
0.000339393
0.000337222
0.00033601
0.000335503
0.000335548
0.000336068
0.00033704
0.00033848
0.000340432
0.000342971
0.000346203
0.000350268
0.000355356
0.000361719
0.000369701
0.000379757
0.000392563
0.00040895
0.000430616
0.000458546
0.000499613
0.000548168
0.000652125
0.000751919
0.30913
0.23001
0.133931
0.0400286
0.00535604
0.00329522
0.00404145
0.00573047
0.00498486
0.00420864
0.00423094
0.00452693
0.00505797
0.00572522
0.00614592
0.00584676
0.00476941
0.00347341
0.00230005
0.00144867
0.000990137
0.000748761
0.000618623
0.00054832
0.000510334
0.000488941
0.000474
0.00045903
0.000441121
0.000420595
0.000399639
0.000380593
0.000364882
0.000352865
0.00034418
0.000338173
0.00033417
0.000331607
0.000330069
0.000329279
0.000329063
0.000329325
0.000330025
0.000331161
0.00033276
0.000334881
0.000337611
0.000341076
0.000345444
0.000350945
0.000357893
0.000366709
0.00037803
0.000392653
0.000412174
0.000437647
0.00047571
0.000521063
0.000620402
0.000717503
0.306755
0.213993
0.135084
0.0519756
0.00883585
0.00373162
0.00396752
0.00510037
0.00479434
0.00435781
0.00452838
0.00487672
0.00549391
0.00626171
0.00671768
0.00635121
0.00512068
0.00370709
0.00253968
0.0016496
0.00112293
0.000823975
0.000657907
0.000565558
0.000514339
0.000485983
0.000468703
0.000454329
0.000438193
0.000419282
0.000399203
0.000380328
0.000364362
0.000351929
0.000342829
0.000336473
0.000332197
0.000329423
0.000327716
0.000326779
0.000326429
0.000326561
0.000327124
0.000328108
0.000329532
0.000331446
0.000333928
0.000337094
0.000341101
0.000346165
0.000352585
0.000360769
0.00037133
0.00038503
0.00040343
0.000427563
0.000463983
0.000507578
0.000604348
0.000699249
0.304853
0.201196
0.133955
0.0626301
0.0146264
0.00439337
0.00423625
0.0049123
0.00479454
0.00458962
0.00486293
0.00528177
0.00601893
0.00689807
0.00736863
0.00691145
0.00550679
0.00390348
0.00272144
0.00184277
0.00126101
0.000907633
0.000704956
0.00058925
0.00052319
0.00048608
0.000464833
0.000449956
0.000435143
0.000417882
0.000398933
0.000380518
0.000364551
0.000351907
0.000342551
0.000335971
0.000331524
0.000328624
0.000326821
0.000325808
0.000325389
0.000325455
0.000325951
0.000326862
0.000328203
0.00033002
0.000332386
0.00033541
0.000339245
0.0003441
0.000350264
0.000358135
0.000368311
0.000381539
0.000399359
0.000422788
0.000458329
0.000500968
0.000596097
0.000689138
0.303306
0.191026
0.131237
0.0714168
0.0215784
0.00534317
0.00469967
0.00498836
0.00492494
0.0048868
0.00524335
0.0057631
0.00665201
0.00764184
0.00809549
0.00752152
0.00593877
0.00410383
0.00285472
0.00200944
0.00139343
0.000994186
0.000756667
0.000617702
0.000536208
0.000489222
0.000462658
0.000446142
0.000432022
0.000416257
0.000398547
0.000380765
0.000364947
0.000352202
0.00034267
0.000335925
0.000331351
0.000328363
0.0003265
0.000325441
0.000324984
0.000325016
0.000325478
0.000326354
0.000327658
0.000329431
0.000331745
0.000334708
0.000338467
0.000343227
0.000349276
0.000357003
0.000366998
0.000380001
0.000397539
0.000420621
0.000455712
0.000497851
0.000591755
0.000683172
0.302035
0.182974
0.127525
0.0780756
0.0292088
0.00684363
0.00528357
0.00523543
0.00515386
0.00524203
0.00568099
0.00633768
0.00740513
0.00849356
0.00888866
0.0081666
0.00640703
0.00433602
0.00296704
0.00213882
0.00151071
0.00107807
0.000809818
0.000648957
0.000552369
0.000495098
0.000462288
0.000443111
0.00042897
0.000414422
0.000397964
0.000380928
0.000365364
0.00035259
0.000342928
0.000336046
0.000331365
0.000328305
0.000326395
0.000325304
0.000324824
0.000324835
0.000325279
0.000326137
0.000327423
0.000329178
0.000331471
0.000334409
0.000338138
0.000342862
0.000348865
0.000356533
0.000366453
0.000379362
0.000396779
0.000419709
0.000454586
0.00049648
0.000589372
0.000679317
0.300983
0.176613
0.123296
0.0826037
0.0367021
0.00938029
0.00594888
0.00560591
0.00546486
0.00565388
0.00618734
0.00701907
0.00828623
0.00945087
0.00973681
0.00883037
0.00689306
0.0046065
0.00308497
0.00223704
0.00160721
0.00115442
0.000861414
0.000681076
0.00057049
0.000503171
0.000463657
0.000441014
0.000426141
0.000412445
0.000397178
0.00038096
0.000365732
0.000352986
0.000343223
0.000336221
0.000331444
0.000328318
0.000326367
0.00032525
0.000324752
0.000324749
0.000325182
0.00032603
0.000327308
0.000329055
0.000331341
0.000334271
0.000337991
0.000342704
0.000348694
0.000356345
0.000366243
0.000379123
0.000396503
0.000419386
0.000454172
0.000495958
0.000587954
0.000676529
0.300106
0.1716
0.118909
0.0851746
0.0437582
0.0130116
0.0066793
0.00607619
0.00584987
0.00612413
0.0067728
0.00781832
0.00930137
0.0105107
0.0106291
0.00949858
0.00737836
0.00490567
0.00322744
0.00231761
0.0016825
0.0012199
0.000908969
0.000712342
0.000589394
0.00051278
0.000466554
0.000439914
0.000423668
0.00041041
0.00039621
0.000380847
0.000366025
0.000353355
0.000343519
0.000336409
0.00033154
0.000328351
0.000326362
0.000325223
0.00032471
0.000324697
0.000325121
0.000325963
0.000327236
0.00032898
0.000331265
0.000334195
0.000337915
0.000342629
0.00034862
0.000356272
0.000366173
0.000379057
0.00039644
0.000419327
0.000454084
0.000495829
0.000586999
0.000674279
0.299373
0.167656
0.114617
0.0860659
0.0500371
0.0176805
0.00750367
0.00663442
0.00630562
0.00665604
0.00744625
0.00874447
0.0104557
0.0116698
0.0115557
0.0101601
0.00784842
0.00521749
0.00340116
0.00239454
0.00174066
0.0012732
0.000950731
0.000741394
0.000608047
0.00052324
0.000470668
0.000439785
0.000421646
0.000408404
0.000395096
0.000380592
0.000366232
0.000353684
0.0003438
0.000336593
0.000331637
0.000328387
0.000326361
0.000325201
0.000324675
0.000324653
0.000325071
0.000325909
0.000327179
0.000328923
0.000331209
0.00033414
0.000337865
0.000342584
0.000348583
0.000356246
0.00036616
0.00037906
0.000396465
0.00041938
0.000454137
0.000495872
0.00058626
0.000672308
0.298758
0.16456
0.110587
0.0856047
0.0552652
0.0231133
0.00859234
0.00727376
0.00683153
0.00725317
0.00821458
0.00980473
0.0117533
0.0129232
0.0125067
0.0108061
0.00829335
0.00553255
0.00359698
0.0024775
0.00178818
0.00131512
0.000985836
0.000767293
0.000625628
0.000533919
0.000475639
0.000440532
0.000420132
0.000406502
0.000393877
0.000380203
0.000366349
0.000353967
0.000344059
0.000336768
0.000331728
0.000328419
0.000326357
0.000325177
0.00032464
0.00032461
0.000325023
0.000325857
0.000327126
0.00032887
0.000331158
0.000334094
0.000337824
0.000342551
0.000348559
0.000356236
0.000366167
0.000379091
0.000396525
0.000419477
0.000454245
0.000495981
0.000585622
0.000670494
0.29824
0.162136
0.106918
0.0841261
0.0592736
0.0289044
0.0101688
0.00798984
0.00742833
0.00791838
0.00908232
0.0110041
0.0131962
0.0142631
0.0134714
0.0114298
0.00870691
0.00584126
0.00380537
0.00257042
0.00183143
0.00134796
0.00101431
0.00078954
0.000641565
0.000544292
0.000481107
0.000442011
0.000419138
0.00040477
0.000392597
0.000379695
0.000366376
0.0003542
0.000344294
0.000336929
0.000331811
0.000328444
0.000326347
0.000325147
0.0003246
0.000324565
0.000324973
0.000325805
0.000327073
0.000328818
0.000331109
0.000334049
0.000337785
0.000342521
0.00034854
0.000356231
0.000366182
0.000379131
0.000396596
0.000419588
0.000454371
0.000496109
0.000585032
0.000668783
0.297804
0.160245
0.103657
0.0819444
0.062005
0.0347037
0.0123297
0.00879047
0.00809672
0.00865317
0.0100511
0.0123445
0.0147832
0.0156778
0.014438
0.0120247
0.00908528
0.00613728
0.00401634
0.00267247
0.00187499
0.00137469
0.0010369
0.000808054
0.000655531
0.000553967
0.000486744
0.000444052
0.000418646
0.000403256
0.0003913
0.000379085
0.000366315
0.000354381
0.000344502
0.000337076
0.000331884
0.00032846
0.000326329
0.000325112
0.000324556
0.000324515
0.00032492
0.000325751
0.000327019
0.000328765
0.000331059
0.000334004
0.000337747
0.000342491
0.000348522
0.000356227
0.000366197
0.000379172
0.000396669
0.000419701
0.000454499
0.000496237
0.00058447
0.000667151
0.297435
0.158777
0.100817
0.0793343
0.0635016
0.0401614
0.0150988
0.00970998
0.00883588
0.00945701
0.0111191
0.0138243
0.016508
0.0171505
0.0153933
0.012585
0.00942621
0.00641752
0.00422097
0.00277999
0.00192111
0.00139812
0.00105482
0.000823088
0.000667418
0.000562688
0.000492278
0.000446478
0.000418607
0.00040199
0.000390024
0.000378393
0.000366171
0.000354509
0.000344681
0.000337207
0.000331946
0.000328469
0.000326304
0.00032507
0.000324505
0.000324461
0.000324864
0.000325694
0.000326963
0.000328711
0.000331008
0.000333958
0.000337708
0.000342461
0.000348503
0.000356223
0.000366212
0.000379212
0.00039674
0.000419812
0.000454623
0.000496355
0.000583926
0.000665591
0.297122
0.157642
0.0983836
0.0765223
0.0638831
0.0449716
0.018452
0.0107764
0.00964901
0.0103269
0.0122802
0.0154363
0.0183578
0.0186593
0.0163231
0.0131053
0.00972916
0.00668052
0.00441217
0.00288823
0.00196998
0.00142032
0.00106941
0.00083513
0.000677297
0.000570324
0.000497505
0.000449123
0.000418956
0.000400986
0.000388806
0.00037764
0.00036595
0.000354583
0.000344831
0.000337321
0.000331999
0.000328469
0.000326272
0.000325021
0.00032445
0.000324403
0.000324805
0.000325635
0.000326904
0.000328655
0.000330956
0.000333912
0.000337668
0.00034243
0.000348483
0.000356218
0.000366226
0.00037925
0.000396808
0.000419917
0.000454739
0.000496462
0.000583399
0.000664098
0.296857
0.156774
0.0963312
0.0736841
0.0633213
0.0489014
0.0222946
0.0120322
0.0105361
0.0112568
0.0135235
0.0171674
0.0203112
0.0201771
0.0172127
0.0135803
0.00999721
0.00692368
0.00458462
0.0029925
0.00202044
0.00144244
0.00108186
0.000844779
0.000685362
0.00057685
0.000502286
0.000451843
0.000419618
0.000400243
0.000387673
0.000376849
0.000365658
0.000354605
0.00034495
0.000337419
0.000332041
0.000328461
0.000326232
0.000324966
0.000324389
0.00032434
0.000324742
0.000325573
0.000326844
0.000328598
0.000330903
0.000333864
0.000337628
0.000342398
0.000348462
0.000356211
0.000366237
0.000379285
0.000396873
0.000420017
0.000454848
0.000496557
0.000582888
0.00066267
0.296632
0.156115
0.0946238
0.070948
0.0620151
0.0518062
0.0264694
0.0135269
0.0115009
0.0122351
0.0148322
0.0189962
0.0223365
0.0216716
0.0180475
0.0140058
0.0102468
0.00713217
0.00473474
0.00308882
0.00207061
0.00146484
0.0010931
0.00085264
0.000691882
0.000582317
0.000506545
0.000454521
0.000420516
0.000399749
0.000386648
0.00037604
0.000365307
0.000354577
0.000345038
0.000337499
0.000332071
0.000328445
0.000326185
0.000324904
0.000324322
0.000324273
0.000324676
0.000325508
0.000326782
0.000328539
0.000330849
0.000333815
0.000337586
0.000342365
0.000348441
0.000356203
0.000366247
0.000379318
0.000396934
0.000420112
0.000454949
0.000496642
0.000582393
0.000661307
0.296439
0.155624
0.0932226
0.0684003
0.0601682
0.0536323
0.0307715
0.0153057
0.0125431
0.01326
0.0161801
0.0208908
0.0243882
0.0231062
0.018813
0.0143804
0.0104805
0.00730531
0.00486056
0.00317414
0.00211847
0.00148727
0.0011037
0.000859244
0.000697151
0.000586831
0.000510257
0.00045707
0.000421577
0.000399482
0.000385747
0.000375233
0.000364904
0.000354499
0.000345095
0.000337561
0.000332091
0.00032842
0.000326132
0.000324837
0.000324251
0.000324202
0.000324607
0.000325441
0.000326718
0.000328479
0.000330793
0.000333766
0.000337543
0.000342332
0.000348418
0.000356194
0.000366255
0.000379348
0.000396991
0.000420202
0.000455043
0.000496715
0.000581914
0.000660008
0.296275
0.155265
0.0920883
0.0660934
0.0579726
0.0544088
0.0349665
0.0173978
0.013666
0.0143473
0.0175275
0.0228022
0.0264026
0.0244414
0.0194956
0.0147054
0.0106993
0.00744303
0.00496115
0.00324636
0.00216218
0.00150911
0.00111392
0.000865006
0.000701453
0.000590527
0.000513434
0.000459431
0.000422734
0.000399415
0.000384977
0.000374445
0.000364462
0.000354377
0.000345121
0.000337605
0.000332099
0.000328388
0.000326071
0.000324763
0.000324174
0.000324127
0.000324535
0.000325372
0.000326652
0.000328417
0.000330737
0.000333715
0.0003375
0.000342297
0.000348394
0.000356183
0.000366261
0.000379376
0.000397045
0.000420286
0.00045513
0.00049678
0.000581451
0.000658771
0.296134
0.155012
0.0911836
0.0640522
0.0555967
0.0542332
0.038814
0.0198064
0.0148778
0.0154873
0.0189017
0.0246385
0.0282854
0.0256336
0.0200845
0.0150184
0.010874
0.00754513
0.00503638
0.00330417
0.00220022
0.00152963
0.00112377
0.000870208
0.000705037
0.000593549
0.000516121
0.000461573
0.000423933
0.000399517
0.000384341
0.000373692
0.00036399
0.000354213
0.000345117
0.000337631
0.000332097
0.000328347
0.000326004
0.000324684
0.000324092
0.000324047
0.000324459
0.000325301
0.000326585
0.000328354
0.000330679
0.000333664
0.000337456
0.000342262
0.000348369
0.000356171
0.000366266
0.000379401
0.000397095
0.000420364
0.00045521
0.000496835
0.000581006
0.000657595
0.296013
0.154841
0.0904738
0.0622822
0.0531792
0.0532507
0.0420943
0.0225004
0.0161914
0.0166667
0.0202993
0.0263802
0.0298871
0.026625
0.0206253
0.0152951
0.0110014
0.00761199
0.00508666
0.003347
0.00223151
0.00154808
0.0011331
0.000875015
0.000708105
0.000596038
0.000518376
0.000463485
0.000425132
0.000399757
0.000383838
0.000372987
0.000363499
0.000354013
0.000345083
0.000337638
0.000332082
0.000328299
0.000325931
0.000324599
0.000324006
0.000323964
0.00032438
0.000325227
0.000326516
0.00032829
0.000330621
0.000333612
0.000337411
0.000342226
0.000348343
0.000356158
0.000366269
0.000379424
0.000397141
0.000420438
0.000455284
0.000496883
0.000580577
0.000656479
0.295908
0.154737
0.0899282
0.0607748
0.0508271
0.0516338
0.0446329
0.0254114
0.0176223
0.0178705
0.0216942
0.0279835
0.0312013
0.0274432
0.0210776
0.0155045
0.0110809
0.00764447
0.00511283
0.00337482
0.00225536
0.00156384
0.00114171
0.000879493
0.000710807
0.000598118
0.000520265
0.00046517
0.000426298
0.000400108
0.000383462
0.00037234
0.000363
0.00035378
0.000345022
0.000337627
0.000332057
0.000328243
0.000325852
0.000324509
0.000323915
0.000323877
0.000324299
0.000325151
0.000326445
0.000328225
0.000330561
0.000333559
0.000337366
0.000342189
0.000348316
0.000356144
0.00036627
0.000379445
0.000397184
0.000420507
0.000455351
0.000496924
0.000580165
0.000655421
0.295818
0.154684
0.0895196
0.0595123
0.0486168
0.049563
0.0463194
0.0284349
0.0191856
0.019084
0.0230554
0.0294127
0.0322481
0.0280773
0.021413
0.0156411
0.0111125
0.0076438
0.00511606
0.00338801
0.00227144
0.00157642
0.00114933
0.000883643
0.000713244
0.000599898
0.00052186
0.000466648
0.000427411
0.000400541
0.000383205
0.000371757
0.000362502
0.000353521
0.000344934
0.000337598
0.00033202
0.00032818
0.000325767
0.000324414
0.00032382
0.000323787
0.000324215
0.000325073
0.000326373
0.000328159
0.000330501
0.000333505
0.00033732
0.000342151
0.000348289
0.000356129
0.000366269
0.000379463
0.000397223
0.000420571
0.000455413
0.000496957
0.00057977
0.00065442
0.295739
0.154672
0.0892244
0.058472
0.0465979
0.0472105
0.047115
0.0314367
0.0208899
0.0202959
0.0243492
0.0306413
0.0330369
0.0285129
0.0216221
0.0157038
0.0110973
0.00761148
0.00509772
0.00338728
0.00227976
0.00158554
0.00115575
0.000887425
0.000715482
0.000601464
0.000523224
0.000467944
0.00042846
0.000401035
0.000383055
0.000371244
0.000362014
0.00035324
0.000344822
0.000337551
0.000331972
0.000328109
0.000325676
0.000324315
0.000323721
0.000323693
0.000324128
0.000324993
0.000326299
0.000328091
0.00033044
0.000333451
0.000337273
0.000342113
0.000348261
0.000356112
0.000366267
0.000379478
0.000397259
0.00042063
0.000455469
0.000496985
0.000579392
0.000653475
0.29567
0.154691
0.0890225
0.0576292
0.0447974
0.0447289
0.0470512
0.0342628
0.0227329
0.0215005
0.0255425
0.0316483
0.0335691
0.0287412
0.0217029
0.0156936
0.011037
0.00754932
0.00505937
0.00337355
0.00228055
0.00159104
0.00116081
0.000890781
0.000717554
0.000602884
0.000524419
0.000469086
0.00042944
0.00040157
0.000383003
0.000370804
0.000361544
0.000352944
0.000344688
0.000337488
0.000331914
0.000328031
0.000325581
0.000324211
0.000323618
0.000323596
0.000324039
0.000324911
0.000326225
0.000328023
0.000330379
0.000333397
0.000337226
0.000342075
0.000348232
0.000356095
0.000366263
0.000379492
0.000397292
0.000420684
0.000455519
0.000497007
0.000579031
0.000652585
0.29561
0.154734
0.0888967
0.0569584
0.0432247
0.0422444
0.0462185
0.0367541
0.0246953
0.0226979
0.0266064
0.0324169
0.0338419
0.0287598
0.0216582
0.0156136
0.0109338
0.00745933
0.00500265
0.0033479
0.00227424
0.00159293
0.00116438
0.000893655
0.000719477
0.000604209
0.000525496
0.000470107
0.000430354
0.000402132
0.000383036
0.000370437
0.000361097
0.000352636
0.000344534
0.000337409
0.000331845
0.000327946
0.00032548
0.000324103
0.000323511
0.000323496
0.000323947
0.000324828
0.000326149
0.000327954
0.000330316
0.000333342
0.000337179
0.000342035
0.000348202
0.000356076
0.000366258
0.000379503
0.000397322
0.000420734
0.000455565
0.000497025
0.000578688
0.000651749
0.295558
0.154795
0.0888326
0.0564354
0.0418764
0.0398544
0.0447499
0.0387625
0.0267377
0.0238935
0.0275213
0.0329348
0.0338533
0.0285741
0.0214958
0.0154683
0.0107906
0.00734371
0.00492932
0.0033115
0.00226138
0.00159134
0.00116643
0.000896004
0.000721255
0.000605476
0.000526501
0.000471038
0.000431209
0.000402709
0.000383145
0.000370142
0.000360681
0.000352324
0.000344363
0.000337315
0.000331765
0.000327855
0.000325374
0.000323991
0.000323402
0.000323394
0.000323854
0.000324743
0.000326071
0.000327884
0.000330254
0.000333286
0.000337131
0.000341996
0.000348172
0.000356057
0.000366251
0.000379512
0.000397348
0.000420779
0.000455605
0.000497038
0.000578361
0.000650966
0.295512
0.154869
0.088818
0.0560381
0.0407404
0.0376276
0.042802
0.0401686
0.028799
0.0250947
0.0282799
0.0331966
0.0336065
0.0281973
0.021228
0.015264
0.0106105
0.00720478
0.00484116
0.00326558
0.00224264
0.0015865
0.00116698
0.000897805
0.000722891
0.000606713
0.000527471
0.000471907
0.000432014
0.000403296
0.000383318
0.000369918
0.000360299
0.000352011
0.000344178
0.000337206
0.000331676
0.000327757
0.000325264
0.000323876
0.000323289
0.000323289
0.000323758
0.000324656
0.000325993
0.000327814
0.000330191
0.000333231
0.000337083
0.000341956
0.000348141
0.000356036
0.000366243
0.000379518
0.000397371
0.00042082
0.000455641
0.000497047
0.000578052
0.000650235
0.295471
0.154951
0.0888424
0.0557461
0.0397989
0.0356075
0.0405366
0.040896
0.0307971
0.0263071
0.0288895
0.0332088
0.0331148
0.0276524
0.0208712
0.015008
0.0103971
0.00704489
0.00473993
0.00321139
0.00221875
0.00157872
0.0011661
0.000899058
0.000724386
0.000607942
0.000528436
0.000472743
0.000432783
0.000403887
0.000383547
0.000369761
0.000359956
0.000351702
0.000343981
0.000337085
0.000331577
0.000327653
0.00032515
0.000323757
0.000323174
0.000323181
0.000323661
0.000324569
0.000325915
0.000327743
0.000330127
0.000333175
0.000337035
0.000341916
0.00034811
0.000356015
0.000366233
0.000379523
0.000397391
0.000420856
0.000455673
0.000497054
0.00057776
0.000649555
0.295435
0.15504
0.0888974
0.0555417
0.0390315
0.0338163
0.0381059
0.040921
0.0326338
0.0275296
0.0293703
0.0329934
0.0324064
0.0269722
0.0204455
0.0147077
0.0101536
0.0068664
0.00462742
0.00315016
0.00219044
0.00156835
0.0011639
0.000899788
0.000725751
0.000609179
0.000529423
0.000473568
0.000433526
0.00040448
0.000383823
0.000369668
0.000359653
0.000351402
0.000343776
0.000336953
0.000331469
0.000327543
0.000325032
0.000323636
0.000323056
0.000323072
0.000323562
0.00032448
0.000325835
0.000327672
0.000330064
0.000333119
0.000336987
0.000341875
0.000348078
0.000355993
0.000366223
0.000379525
0.000397408
0.000420889
0.0004557
0.000497056
0.000577485
0.000648927
0.295404
0.155131
0.0889756
0.0554095
0.0384169
0.0322595
0.035642
0.0402741
0.0342017
0.0287497
0.0297523
0.032589
0.031526
0.0261988
0.0199725
0.0143705
0.00988338
0.00667158
0.00450536
0.00308315
0.0021585
0.00155578
0.00116055
0.00090004
0.000726998
0.00061044
0.000530451
0.000474406
0.000434257
0.000405076
0.00038414
0.000369635
0.000359392
0.000351115
0.000343565
0.00033681
0.000331353
0.000327427
0.000324911
0.000323512
0.000322936
0.000322961
0.000323462
0.00032439
0.000325755
0.0003276
0.00033
0.000333063
0.000336938
0.000341835
0.000348046
0.00035597
0.00036621
0.000379526
0.000397422
0.000420917
0.000455722
0.000497056
0.000577228
0.000648348
0.295376
0.155224
0.089071
0.0553361
0.0379341
0.0309305
0.0332502
0.0390341
0.0353949
0.0299404
0.030069
0.0320493
0.0305339
0.0253809
0.0194736
0.0140026
0.00958917
0.00646263
0.00437546
0.00301154
0.00212368
0.00154144
0.00115622
0.000899878
0.00072815
0.000611738
0.000531538
0.000475272
0.000434989
0.000405675
0.000384493
0.000369657
0.000359175
0.000350843
0.000343352
0.000336659
0.00033123
0.000327307
0.000324786
0.000323386
0.000322815
0.000322849
0.00032336
0.0003243
0.000325674
0.000327528
0.000329937
0.000333007
0.00033689
0.000341794
0.000348013
0.000355946
0.000366197
0.000379524
0.000397433
0.000420941
0.000455741
0.000497053
0.000576987
0.000647819
0.295352
0.155316
0.0891785
0.05531
0.0375637
0.0298146
0.0310081
0.0373159
0.0361217
0.0310578
0.0303512
0.031437
0.0295008
0.0245688
0.018967
0.0136081
0.00927332
0.00624165
0.00423937
0.00293653
0.00208674
0.00152573
0.00115112
0.000899381
0.000729235
0.000613087
0.000532696
0.000476182
0.000435731
0.000406282
0.000384877
0.000369732
0.000359002
0.000350591
0.000343138
0.000336501
0.000331099
0.000327182
0.000324658
0.000323259
0.000322692
0.000322736
0.000323258
0.000324209
0.000325594
0.000327457
0.000329873
0.000332951
0.000336841
0.000341753
0.00034798
0.000355922
0.000366182
0.00037952
0.000397442
0.000420962
0.000455756
0.000497049
0.000576764
0.00064734
0.29533
0.155406
0.0892941
0.0553217
0.0372878
0.0288923
0.0289663
0.0352552
0.0363172
0.0320418
0.0306196
0.0308154
0.0284987
0.0238071
0.0184645
0.0131886
0.00893765
0.00601067
0.00409875
0.00285926
0.00204841
0.00150908
0.00114545
0.000898638
0.000730285
0.000614502
0.000533937
0.000477148
0.000436495
0.000406898
0.000385289
0.000369854
0.000358873
0.00035036
0.000342926
0.000336337
0.000330963
0.000327052
0.000324528
0.000323129
0.000322569
0.000322622
0.000323155
0.000324117
0.000325513
0.000327385
0.00032981
0.000332895
0.000336793
0.000341713
0.000347947
0.000355897
0.000366166
0.000379515
0.000397447
0.000420978
0.000455768
0.000497043
0.000576559
0.000646908
0.295311
0.155495
0.0894143
0.0553627
0.0370906
0.0281417
0.0271523
0.032992
0.0359543
0.0328191
0.0308791
0.0302393
0.0275912
0.0231285
0.0179694
0.0127432
0.00858365
0.00577174
0.00395525
0.00278088
0.0020094
0.00149189
0.00113943
0.000897742
0.000731337
0.000615994
0.000535269
0.000478179
0.000437288
0.000407527
0.000385725
0.000370019
0.000358786
0.000350153
0.00034272
0.00033617
0.000330822
0.000326919
0.000324396
0.000322999
0.000322444
0.000322507
0.000323052
0.000324026
0.000325432
0.000327314
0.000329747
0.00033284
0.000336745
0.000341672
0.000347914
0.000355872
0.000366149
0.000379508
0.00039745
0.000420991
0.000455776
0.000497036
0.00057637
0.000646525
0.295294
0.15558
0.0895365
0.0554262
0.0369583
0.0275405
0.025575
0.0306566
0.0350491
0.0333095
0.0311147
0.0297459
0.0268228
0.0225469
0.0174748
0.0122687
0.00821268
0.00552699
0.00381056
0.00270247
0.00197036
0.00147455
0.00113326
0.000896787
0.000732425
0.000617575
0.000536697
0.000479282
0.000438117
0.000408171
0.000386184
0.000370225
0.000358741
0.000349971
0.000342521
0.000336001
0.000330677
0.000326783
0.000324262
0.000322868
0.000322319
0.000322392
0.000322949
0.000323934
0.000325351
0.000327242
0.000329684
0.000332785
0.000336698
0.000341632
0.00034788
0.000355846
0.000366131
0.000379499
0.00039745
0.000421001
0.000455782
0.000497028
0.000576199
0.000646191
0.29528
0.155662
0.0896586
0.0555062
0.0368786
0.0270674
0.0242293
0.0283599
0.0336609
0.0334366
0.0312895
0.0293479
0.0262118
0.0220534
0.0169638
0.0117603
0.00782638
0.00527876
0.00366638
0.0026251
0.00193193
0.0014574
0.00112712