/*--------------------------------*- C++ -*----------------------------------*\
| =========                 |                                                 |
| \\      /  F ield         | OpenFOAM: The Open Source CFD Toolbox           |
|  \\    /   O peration     | Version:  2.4.0                                 |
|   \\  /    A nd           | Web:      www.OpenFOAM.org                      |
|    \\/     M anipulation  |                                                 |
\*---------------------------------------------------------------------------*/
FoamFile
{
    version     2.0;
    format      ascii;
    class       volScalarField;
    location    "235";
    object      epsilon;
}
// * * * * * * * * * * * * * * * * * * * * * * * * * * * * * * * * * * * * * //

dimensions      [0 2 -3 0 0 0 0];

internalField   nonuniform List<scalar> 
10000
(
0.000756808
0.000749376
0.000742884
0.000737209
0.000732248
0.000727917
0.000724144
0.00072087
0.000718044
0.000715627
0.000713586
0.000711897
0.00071055
0.000709575
0.00070921
0.000710803
0.000721563
0.00078019
0.00114635
0.00523297
0.000756808
0.000749376
0.000742884
0.000737209
0.000732248
0.000727917
0.000724145
0.000720872
0.000718048
0.000715632
0.000713594
0.000711908
0.000710564
0.000709589
0.000709192
0.000710487
0.00071888
0.000758352
0.000933006
0.00178045
0.000756808
0.000749376
0.000742884
0.000737208
0.000732246
0.000727914
0.000724139
0.000720862
0.000718034
0.000715613
0.000713567
0.000711871
0.000710515
0.000709517
0.000709039
0.000709873
0.000715407
0.000738023
0.000816132
0.00105615
0.000756808
0.000749376
0.000742883
0.000737206
0.000732243
0.000727908
0.000724129
0.000720846
0.000718009
0.000715577
0.000713516
0.000711802
0.000710421
0.000709384
0.0007088
0.00070917
0.000712384
0.000724271
0.000758996
0.000842754
0.000756808
0.000749376
0.000742882
0.000737204
0.000732239
0.0007279
0.000724116
0.000720825
0.000717977
0.00071553
0.000713451
0.000711712
0.000710297
0.000709209
0.000708514
0.000708497
0.000710128
0.000716007
0.000731436
0.000764111
0.000756808
0.000749376
0.000742882
0.000737202
0.000732235
0.000727892
0.000724102
0.000720802
0.000717942
0.000715479
0.000713377
0.000711609
0.000710156
0.000709012
0.00070821
0.000707898
0.000708541
0.000711253
0.00071805
0.000731525
0.000756808
0.000749376
0.000742881
0.0007372
0.00073223
0.000727884
0.000724087
0.000720779
0.000717906
0.000715425
0.0007133
0.000711502
0.000710008
0.000708807
0.000707908
0.000707379
0.000707427
0.000708513
0.00071141
0.000717072
0.000756808
0.000749375
0.00074288
0.000737198
0.000732226
0.000727876
0.000724073
0.000720756
0.00071787
0.000715372
0.000713225
0.000711396
0.000709862
0.000708606
0.000707622
0.000706933
0.000706623
0.000706872
0.000707975
0.000710297
0.000756808
0.000749375
0.00074288
0.000737197
0.000732222
0.000727868
0.00072406
0.000720734
0.000717837
0.000715323
0.000713153
0.000711296
0.000709724
0.000708416
0.000707359
0.000706551
0.000706018
0.000705824
0.000706076
0.000706911
0.000756808
0.000749375
0.000742879
0.000737195
0.000732219
0.000727862
0.000724049
0.000720715
0.000717807
0.000715278
0.000713088
0.000711205
0.000709598
0.000708244
0.000707124
0.000706225
0.000705547
0.000705105
0.000704932
0.000705074
0.000756808
0.000749375
0.000742879
0.000737194
0.000732216
0.000727856
0.000724038
0.000720698
0.00071778
0.000715238
0.00071303
0.000711123
0.000709485
0.000708091
0.000706919
0.000705949
0.000705171
0.000704579
0.000704178
0.000703976
0.000756808
0.000749375
0.000742878
0.000737193
0.000732213
0.000727851
0.000724029
0.000720683
0.000717757
0.000715203
0.000712979
0.000711051
0.000709387
0.000707959
0.000706743
0.000705718
0.000704867
0.000704178
0.000703643
0.000703255
0.000756808
0.000749375
0.000742878
0.000737192
0.000732211
0.000727846
0.000724021
0.00072067
0.000717736
0.000715172
0.000712935
0.000710989
0.000709302
0.000707845
0.000706593
0.000705525
0.00070462
0.000703864
0.000703244
0.000702746
0.000756808
0.000749375
0.000742878
0.000737191
0.000732209
0.000727843
0.000724014
0.000720659
0.000717719
0.000715146
0.000712898
0.000710937
0.00070923
0.00070775
0.000706469
0.000705365
0.00070442
0.000703615
0.000702938
0.000702369
0.000756808
0.000749375
0.000742878
0.00073719
0.000732208
0.000727839
0.000724009
0.000720649
0.000717704
0.000715124
0.000712866
0.000710892
0.00070917
0.000707669
0.000706365
0.000705235
0.000704258
0.000703417
0.000702698
0.00070208
0.000756808
0.000749375
0.000742877
0.00073719
0.000732206
0.000727837
0.000724004
0.000720641
0.000717691
0.000715105
0.000712838
0.000710854
0.000709119
0.000707603
0.00070628
0.000705128
0.000704127
0.00070326
0.000702509
0.000701857
0.000756808
0.000749375
0.000742877
0.000737189
0.000732205
0.000727834
0.000724
0.000720634
0.00071768
0.000715089
0.000712815
0.000710822
0.000709076
0.000707547
0.00070621
0.000705041
0.000704021
0.000703133
0.00070236
0.000701682
0.000756809
0.000749376
0.000742877
0.000737189
0.000732204
0.000727832
0.000723996
0.000720628
0.000717671
0.000715075
0.000712796
0.000710796
0.000709041
0.000707501
0.000706152
0.00070497
0.000703936
0.000703032
0.000702242
0.000701544
0.000756809
0.000749376
0.000742877
0.000737189
0.000732203
0.000727831
0.000723993
0.000720623
0.000717663
0.000715063
0.000712779
0.000710773
0.000709011
0.000707463
0.000706104
0.000704912
0.000703867
0.00070295
0.000702147
0.000701435
0.000756809
0.000749376
0.000742877
0.000737188
0.000732203
0.000727829
0.00072399
0.000720618
0.000717656
0.000715053
0.000712765
0.000710753
0.000708985
0.000707431
0.000706065
0.000704864
0.00070381
0.000702884
0.000702071
0.000701348
0.000756809
0.000749376
0.000742878
0.000737188
0.000732202
0.000727828
0.000723988
0.000720614
0.00071765
0.000715044
0.000712752
0.000710737
0.000708964
0.000707404
0.000706032
0.000704824
0.000703763
0.00070283
0.000702009
0.000701278
0.000756809
0.000749376
0.000742878
0.000737188
0.000732202
0.000727827
0.000723985
0.000720611
0.000717644
0.000715036
0.000712741
0.000710722
0.000708945
0.000707381
0.000706004
0.000704791
0.000703724
0.000702786
0.000701958
0.000701221
0.000756809
0.000749376
0.000742878
0.000737188
0.000732201
0.000727826
0.000723983
0.000720608
0.00071764
0.000715029
0.000712732
0.00071071
0.000708929
0.000707361
0.00070598
0.000704763
0.000703692
0.000702749
0.000701916
0.000701174
0.00075681
0.000749377
0.000742878
0.000737188
0.000732201
0.000727825
0.000723982
0.000720605
0.000717635
0.000715023
0.000712723
0.000710699
0.000708915
0.000707344
0.000705959
0.000704739
0.000703664
0.000702717
0.000701881
0.000701134
0.00075681
0.000749377
0.000742878
0.000737188
0.0007322
0.000727824
0.00072398
0.000720602
0.000717631
0.000715017
0.000712716
0.000710689
0.000708903
0.000707329
0.000705942
0.000704719
0.000703641
0.000702691
0.000701851
0.000701101
0.00075681
0.000749377
0.000742878
0.000737188
0.0007322
0.000727823
0.000723979
0.0007206
0.000717627
0.000715012
0.000712709
0.00071068
0.000708892
0.000707316
0.000705926
0.000704701
0.000703621
0.000702668
0.000701826
0.000701073
0.00075681
0.000749377
0.000742878
0.000737188
0.0007322
0.000727822
0.000723977
0.000720597
0.000717624
0.000715007
0.000712703
0.000710672
0.000708882
0.000707304
0.000705913
0.000704685
0.000703603
0.000702648
0.000701804
0.000701049
0.00075681
0.000749378
0.000742879
0.000737188
0.0007322
0.000727822
0.000723976
0.000720595
0.000717621
0.000715003
0.000712697
0.000710665
0.000708874
0.000707294
0.000705901
0.000704672
0.000703588
0.000702631
0.000701785
0.000701028
0.000756811
0.000749378
0.000742879
0.000737188
0.000732199
0.000727821
0.000723975
0.000720593
0.000717618
0.000714999
0.000712692
0.000710659
0.000708866
0.000707285
0.00070589
0.00070466
0.000703574
0.000702616
0.000701768
0.00070101
0.000756811
0.000749378
0.000742879
0.000737188
0.000732199
0.00072782
0.000723974
0.000720592
0.000717616
0.000714996
0.000712688
0.000710653
0.000708859
0.000707277
0.000705881
0.000704649
0.000703562
0.000702603
0.000701754
0.000700994
0.000756811
0.000749378
0.000742879
0.000737188
0.000732199
0.00072782
0.000723973
0.00072059
0.000717614
0.000714993
0.000712683
0.000710648
0.000708853
0.00070727
0.000705873
0.00070464
0.000703552
0.000702591
0.000701741
0.00070098
0.000756811
0.000749379
0.000742879
0.000737189
0.000732199
0.00072782
0.000723972
0.000720589
0.000717611
0.00071499
0.00071268
0.000710644
0.000708848
0.000707263
0.000705865
0.000704632
0.000703543
0.000702581
0.00070173
0.000700967
0.000756812
0.000749379
0.00074288
0.000737189
0.000732199
0.000727819
0.000723971
0.000720587
0.00071761
0.000714987
0.000712677
0.000710639
0.000708843
0.000707258
0.000705859
0.000704624
0.000703535
0.000702572
0.00070172
0.000700956
0.000756812
0.000749379
0.00074288
0.000737189
0.000732199
0.000727819
0.000723971
0.000720586
0.000717608
0.000714985
0.000712674
0.000710636
0.000708838
0.000707253
0.000705853
0.000704618
0.000703527
0.000702564
0.000701711
0.000700947
0.000756812
0.000749379
0.00074288
0.000737189
0.000732199
0.000727819
0.00072397
0.000720585
0.000717606
0.000714983
0.000712671
0.000710633
0.000708835
0.000707248
0.000705848
0.000704612
0.000703521
0.000702557
0.000701703
0.000700938
0.000756812
0.00074938
0.00074288
0.000737189
0.000732199
0.000727818
0.000723969
0.000720584
0.000717605
0.000714981
0.000712669
0.00071063
0.000708831
0.000707244
0.000705843
0.000704607
0.000703515
0.00070255
0.000701696
0.00070093
0.000756812
0.00074938
0.000742881
0.000737189
0.000732199
0.000727818
0.000723969
0.000720583
0.000717604
0.000714979
0.000712666
0.000710627
0.000708828
0.000707241
0.000705839
0.000704602
0.00070351
0.000702545
0.00070169
0.000700923
0.000756813
0.00074938
0.000742881
0.000737189
0.000732199
0.000727818
0.000723968
0.000720583
0.000717603
0.000714978
0.000712665
0.000710625
0.000708825
0.000707237
0.000705836
0.000704598
0.000703505
0.00070254
0.000701684
0.000700917
0.000756813
0.00074938
0.000742881
0.00073719
0.000732199
0.000727818
0.000723968
0.000720582
0.000717602
0.000714977
0.000712663
0.000710623
0.000708823
0.000707234
0.000705832
0.000704594
0.000703501
0.000702535
0.000701679
0.000700911
0.000756813
0.000749381
0.000742881
0.00073719
0.000732199
0.000727818
0.000723968
0.000720581
0.000717601
0.000714975
0.000712661
0.000710621
0.000708821
0.000707232
0.000705829
0.000704591
0.000703498
0.000702531
0.000701674
0.000700906
0.000756813
0.000749381
0.000742882
0.00073719
0.000732199
0.000727818
0.000723967
0.000720581
0.0007176
0.000714974
0.00071266
0.000710619
0.000708819
0.00070723
0.000705827
0.000704588
0.000703494
0.000702527
0.00070167
0.000700902
0.000756813
0.000749381
0.000742882
0.00073719
0.000732199
0.000727818
0.000723967
0.00072058
0.000717599
0.000714973
0.000712659
0.000710618
0.000708817
0.000707228
0.000705825
0.000704586
0.000703491
0.000702524
0.000701667
0.000700898
0.000756813
0.000749381
0.000742882
0.00073719
0.000732199
0.000727817
0.000723967
0.00072058
0.000717599
0.000714973
0.000712658
0.000710616
0.000708815
0.000707226
0.000705823
0.000704583
0.000703489
0.000702521
0.000701663
0.000700894
0.000756814
0.000749381
0.000742882
0.00073719
0.000732199
0.000727817
0.000723967
0.00072058
0.000717598
0.000714972
0.000712657
0.000710615
0.000708814
0.000707224
0.000705821
0.000704581
0.000703486
0.000702519
0.00070166
0.000700891
0.000756814
0.000749381
0.000742882
0.00073719
0.000732199
0.000727817
0.000723966
0.000720579
0.000717598
0.000714971
0.000712656
0.000710614
0.000708813
0.000707223
0.000705819
0.000704579
0.000703484
0.000702516
0.000701658
0.000700888
0.000756814
0.000749381
0.000742882
0.00073719
0.000732199
0.000727817
0.000723966
0.000720579
0.000717597
0.00071497
0.000712655
0.000710613
0.000708812
0.000707221
0.000705818
0.000704578
0.000703482
0.000702514
0.000701655
0.000700885
0.000756814
0.000749382
0.000742882
0.00073719
0.000732199
0.000727817
0.000723966
0.000720579
0.000717597
0.00071497
0.000712654
0.000710612
0.000708811
0.00070722
0.000705816
0.000704576
0.00070348
0.000702512
0.000701653
0.000700883
0.000756814
0.000749382
0.000742882
0.00073719
0.000732199
0.000727817
0.000723966
0.000720578
0.000717596
0.000714969
0.000712654
0.000710611
0.00070881
0.000707219
0.000705815
0.000704575
0.000703479
0.00070251
0.000701651
0.000700881
0.000756814
0.000749382
0.000742882
0.00073719
0.000732199
0.000727817
0.000723966
0.000720578
0.000717596
0.000714969
0.000712653
0.000710611
0.000708809
0.000707218
0.000705814
0.000704573
0.000703477
0.000702508
0.000701649
0.000700878
0.000756814
0.000749382
0.000742882
0.00073719
0.000732199
0.000727817
0.000723965
0.000720578
0.000717595
0.000714968
0.000712652
0.00071061
0.000708808
0.000707217
0.000705812
0.000704572
0.000703476
0.000702507
0.000701647
0.000700876
0.000756814
0.000749382
0.000742882
0.00073719
0.000732199
0.000727816
0.000723965
0.000720577
0.000717595
0.000714968
0.000712652
0.000710609
0.000708807
0.000707216
0.000705811
0.000704571
0.000703474
0.000702505
0.000701646
0.000700874
0.000756814
0.000749382
0.000742882
0.00073719
0.000732199
0.000727816
0.000723965
0.000720577
0.000717595
0.000714967
0.000712651
0.000710608
0.000708806
0.000707215
0.00070581
0.00070457
0.000703473
0.000702504
0.000701644
0.000700873
0.000756814
0.000749382
0.000742882
0.00073719
0.000732198
0.000727816
0.000723965
0.000720577
0.000717594
0.000714967
0.00071265
0.000710608
0.000708805
0.000707214
0.000705809
0.000704568
0.000703472
0.000702502
0.000701642
0.000700871
0.000756814
0.000749382
0.000742882
0.00073719
0.000732198
0.000727816
0.000723964
0.000720576
0.000717594
0.000714966
0.00071265
0.000710607
0.000708805
0.000707213
0.000705808
0.000704567
0.000703471
0.000702501
0.000701641
0.000700869
0.000756814
0.000749381
0.000742882
0.00073719
0.000732198
0.000727815
0.000723964
0.000720576
0.000717593
0.000714965
0.000712649
0.000710606
0.000708804
0.000707212
0.000705807
0.000704566
0.00070347
0.0007025
0.000701639
0.000700868
0.000756814
0.000749381
0.000742882
0.00073719
0.000732198
0.000727815
0.000723964
0.000720575
0.000717593
0.000714965
0.000712649
0.000710606
0.000708803
0.000707212
0.000705806
0.000704565
0.000703468
0.000702498
0.000701638
0.000700866
0.000756814
0.000749381
0.000742882
0.000737189
0.000732197
0.000727815
0.000723963
0.000720575
0.000717592
0.000714964
0.000712648
0.000710605
0.000708802
0.000707211
0.000705805
0.000704564
0.000703467
0.000702497
0.000701636
0.000700864
0.000756814
0.000749381
0.000742881
0.000737189
0.000732197
0.000727814
0.000723963
0.000720574
0.000717592
0.000714964
0.000712647
0.000710604
0.000708801
0.00070721
0.000705804
0.000704563
0.000703466
0.000702496
0.000701635
0.000700863
0.000756813
0.000749381
0.000742881
0.000737189
0.000732197
0.000727814
0.000723962
0.000720574
0.000717591
0.000714963
0.000712647
0.000710603
0.0007088
0.000707209
0.000705803
0.000704562
0.000703465
0.000702494
0.000701634
0.000700861
0.000756813
0.000749381
0.000742881
0.000737188
0.000732196
0.000727814
0.000723962
0.000720573
0.00071759
0.000714962
0.000712646
0.000710603
0.0007088
0.000707208
0.000705802
0.000704561
0.000703464
0.000702493
0.000701632
0.00070086
0.000756813
0.00074938
0.000742881
0.000737188
0.000732196
0.000727813
0.000723961
0.000720573
0.00071759
0.000714962
0.000712645
0.000710602
0.000708799
0.000707207
0.000705801
0.00070456
0.000703462
0.000702492
0.000701631
0.000700858
0.000756813
0.00074938
0.00074288
0.000737188
0.000732196
0.000727813
0.000723961
0.000720572
0.000717589
0.000714961
0.000712644
0.000710601
0.000708798
0.000707206
0.0007058
0.000704559
0.000703461
0.000702491
0.00070163
0.000700857
0.000756813
0.00074938
0.00074288
0.000737187
0.000732195
0.000727812
0.00072396
0.000720572
0.000717588
0.00071496
0.000712644
0.0007106
0.000708797
0.000707205
0.000705799
0.000704557
0.00070346
0.000702489
0.000701628
0.000700855
0.000756813
0.00074938
0.00074288
0.000737187
0.000732195
0.000727812
0.00072396
0.000720571
0.000717588
0.00071496
0.000712643
0.000710599
0.000708796
0.000707204
0.000705798
0.000704556
0.000703459
0.000702488
0.000701627
0.000700854
0.000756813
0.00074938
0.000742879
0.000737187
0.000732194
0.000727811
0.000723959
0.00072057
0.000717587
0.000714959
0.000712642
0.000710598
0.000708795
0.000707203
0.000705797
0.000704555
0.000703458
0.000702487
0.000701625
0.000700852
0.000756812
0.000749379
0.000742879
0.000737186
0.000732194
0.000727811
0.000723958
0.00072057
0.000717586
0.000714958
0.000712641
0.000710597
0.000708794
0.000707202
0.000705796
0.000704554
0.000703456
0.000702485
0.000701624
0.000700851
0.000756812
0.000749379
0.000742879
0.000737186
0.000732193
0.00072781
0.000723958
0.000720569
0.000717586
0.000714957
0.00071264
0.000710597
0.000708793
0.000707201
0.000705795
0.000704553
0.000703455
0.000702484
0.000701623
0.000700849
0.000756812
0.000749379
0.000742878
0.000737185
0.000732193
0.00072781
0.000723957
0.000720568
0.000717585
0.000714956
0.000712639
0.000710596
0.000708792
0.0007072
0.000705794
0.000704552
0.000703454
0.000702483
0.000701621
0.000700848
0.000756812
0.000749378
0.000742878
0.000737185
0.000732192
0.000727809
0.000723957
0.000720568
0.000717584
0.000714956
0.000712638
0.000710595
0.000708791
0.000707199
0.000705793
0.00070455
0.000703453
0.000702481
0.00070162
0.000700846
0.000756812
0.000749378
0.000742878
0.000737185
0.000732192
0.000727808
0.000723956
0.000720567
0.000717583
0.000714955
0.000712638
0.000710594
0.00070879
0.000707198
0.000705792
0.000704549
0.000703451
0.00070248
0.000701618
0.000700845
0.000756811
0.000749378
0.000742877
0.000737184
0.000732191
0.000727808
0.000723955
0.000720566
0.000717583
0.000714954
0.000712637
0.000710593
0.000708789
0.000707197
0.00070579
0.000704548
0.00070345
0.000702479
0.000701617
0.000700843
0.000756811
0.000749378
0.000742877
0.000737184
0.000732191
0.000727807
0.000723955
0.000720565
0.000717582
0.000714953
0.000712636
0.000710592
0.000708788
0.000707196
0.000705789
0.000704547
0.000703449
0.000702477
0.000701615
0.000700842
0.000756811
0.000749377
0.000742877
0.000737183
0.00073219
0.000727807
0.000723954
0.000720565
0.000717581
0.000714952
0.000712635
0.000710591
0.000708787
0.000707195
0.000705788
0.000704546
0.000703448
0.000702476
0.000701614
0.00070084
0.000756811
0.000749377
0.000742876
0.000737183
0.00073219
0.000727806
0.000723953
0.000720564
0.00071758
0.000714951
0.000712634
0.00071059
0.000708786
0.000707194
0.000705787
0.000704545
0.000703446
0.000702475
0.000701613
0.000700839
0.000756811
0.000749377
0.000742876
0.000737182
0.000732189
0.000727805
0.000723953
0.000720563
0.000717579
0.000714951
0.000712633
0.000710589
0.000708785
0.000707192
0.000705786
0.000704543
0.000703445
0.000702473
0.000701611
0.000700838
0.00075681
0.000749376
0.000742875
0.000737182
0.000732189
0.000727805
0.000723952
0.000720563
0.000717579
0.00071495
0.000712632
0.000710588
0.000708784
0.000707191
0.000705785
0.000704542
0.000703444
0.000702472
0.00070161
0.000700836
0.00075681
0.000749376
0.000742875
0.000737181
0.000732188
0.000727804
0.000723951
0.000720562
0.000717578
0.000714949
0.000712631
0.000710587
0.000708783
0.00070719
0.000705784
0.000704541
0.000703443
0.000702471
0.000701609
0.000700835
0.00075681
0.000749376
0.000742875
0.000737181
0.000732188
0.000727804
0.000723951
0.000720561
0.000717577
0.000714948
0.00071263
0.000710586
0.000708782
0.000707189
0.000705783
0.00070454
0.000703441
0.00070247
0.000701607
0.000700833
0.00075681
0.000749376
0.000742874
0.000737181
0.000732187
0.000727803
0.00072395
0.00072056
0.000717576
0.000714947
0.000712629
0.000710585
0.000708781
0.000707188
0.000705782
0.000704539
0.00070344
0.000702468
0.000701606
0.000700832
0.00075681
0.000749375
0.000742874
0.00073718
0.000732187
0.000727803
0.000723949
0.00072056
0.000717576
0.000714946
0.000712629
0.000710584
0.00070878
0.000707187
0.00070578
0.000704538
0.000703439
0.000702467
0.000701605
0.000700831
0.000756809
0.000749375
0.000742874
0.00073718
0.000732186
0.000727802
0.000723949
0.000720559
0.000717575
0.000714946
0.000712628
0.000710583
0.000708779
0.000707186
0.000705779
0.000704536
0.000703438
0.000702466
0.000701603
0.000700829
0.000756809
0.000749375
0.000742873
0.000737179
0.000732186
0.000727801
0.000723948
0.000720558
0.000717574
0.000714945
0.000712627
0.000710582
0.000708778
0.000707185
0.000705778
0.000704535
0.000703437
0.000702465
0.000701602
0.000700828
0.000756809
0.000749374
0.000742873
0.000737179
0.000732185
0.000727801
0.000723948
0.000720558
0.000717573
0.000714944
0.000712626
0.000710582
0.000708777
0.000707184
0.000705777
0.000704534
0.000703436
0.000702464
0.000701601
0.000700827
0.000756809
0.000749374
0.000742873
0.000737178
0.000732185
0.0007278
0.000723947
0.000720557
0.000717573
0.000714943
0.000712625
0.000710581
0.000708776
0.000707183
0.000705776
0.000704533
0.000703435
0.000702463
0.0007016
0.000700826
0.000756809
0.000749374
0.000742872
0.000737178
0.000732184
0.0007278
0.000723946
0.000720556
0.000717572
0.000714943
0.000712625
0.00071058
0.000708776
0.000707183
0.000705776
0.000704532
0.000703434
0.000702462
0.000701599
0.000700825
0.000756808
0.000749374
0.000742872
0.000737178
0.000732184
0.000727799
0.000723946
0.000720556
0.000717571
0.000714942
0.000712624
0.000710579
0.000708775
0.000707182
0.000705775
0.000704531
0.000703433
0.00070246
0.000701598
0.000700823
0.000756808
0.000749373
0.000742872
0.000737177
0.000732183
0.000727799
0.000723945
0.000720555
0.000717571
0.000714941
0.000712623
0.000710578
0.000708774
0.000707181
0.000705774
0.000704531
0.000703432
0.00070246
0.000701597
0.000700822
0.000756808
0.000749373
0.000742871
0.000737177
0.000732183
0.000727798
0.000723945
0.000720555
0.00071757
0.000714941
0.000712622
0.000710578
0.000708773
0.00070718
0.000705773
0.00070453
0.000703431
0.000702459
0.000701596
0.000700821
0.000756808
0.000749373
0.000742871
0.000737177
0.000732183
0.000727798
0.000723944
0.000720554
0.00071757
0.00071494
0.000712622
0.000710577
0.000708773
0.000707179
0.000705772
0.000704529
0.00070343
0.000702458
0.000701595
0.00070082
0.000756808
0.000749373
0.000742871
0.000737176
0.000732182
0.000727798
0.000723944
0.000720554
0.000717569
0.000714939
0.000712621
0.000710576
0.000708772
0.000707179
0.000705771
0.000704528
0.000703429
0.000702457
0.000701594
0.00070082
0.000756808
0.000749373
0.00074287
0.000737176
0.000732182
0.000727797
0.000723943
0.000720553
0.000717569
0.000714939
0.000712621
0.000710576
0.000708771
0.000707178
0.000705771
0.000704528
0.000703429
0.000702456
0.000701593
0.000700819
0.000756807
0.000749372
0.00074287
0.000737176
0.000732182
0.000727797
0.000723943
0.000720553
0.000717568
0.000714938
0.00071262
0.000710575
0.000708771
0.000707178
0.00070577
0.000704527
0.000703428
0.000702456
0.000701593
0.000700818
0.000756807
0.000749372
0.00074287
0.000737175
0.000732181
0.000727796
0.000723943
0.000720552
0.000717568
0.000714938
0.00071262
0.000710575
0.00070877
0.000707177
0.00070577
0.000704526
0.000703427
0.000702455
0.000701592
0.000700818
0.000756807
0.000749372
0.00074287
0.000737175
0.000732181
0.000727796
0.000723942
0.000720552
0.000717567
0.000714938
0.00071262
0.000710575
0.00070877
0.000707177
0.00070577
0.000704526
0.000703427
0.000702455
0.000701592
0.000700817
0.000756807
0.000749372
0.00074287
0.000737175
0.000732181
0.000727796
0.000723942
0.000720552
0.000717567
0.000714938
0.000712619
0.000710574
0.00070877
0.000707177
0.000705769
0.000704526
0.000703427
0.000702455
0.000701592
0.000700817
0.000756807
0.000749372
0.000742869
0.000737175
0.000732181
0.000727796
0.000723942
0.000720552
0.000717567
0.000714938
0.000712619
0.000710575
0.00070877
0.000707177
0.000705769
0.000704526
0.000703427
0.000702455
0.000701592
0.000700817
0.000756807
0.000749371
0.000742869
0.000737174
0.00073218
0.000727796
0.000723942
0.000720552
0.000717567
0.000714938
0.00071262
0.000710575
0.00070877
0.000707177
0.00070577
0.000704526
0.000703427
0.000702455
0.000701592
0.000700818
0.000756807
0.000749371
0.000742869
0.000737174
0.00073218
0.000727796
0.000723942
0.000720552
0.000717568
0.000714938
0.00071262
0.000710576
0.000708771
0.000707178
0.000705771
0.000704528
0.000703429
0.000702456
0.000701593
0.000700819
0.000756807
0.000749371
0.000742869
0.000737175
0.000732181
0.000727796
0.000723943
0.000720553
0.000717569
0.000714939
0.000712621
0.000710577
0.000708772
0.000707179
0.000705772
0.000704529
0.00070343
0.000702458
0.000701595
0.000700821
0.000756806
0.000749371
0.000742869
0.000737175
0.000732181
0.000727797
0.000723944
0.000720554
0.00071757
0.000714941
0.000712623
0.000710579
0.000708775
0.000707182
0.000705775
0.000704532
0.000703433
0.000702461
0.000701598
0.000700824
0.160182
0.280058
0.427366
0.592792
0.765602
0.93544
1.09361
1.23377
1.35212
1.44713
1.5191
1.56963
1.60109
1.61621
1.61777
1.60842
1.59051
1.56607
1.53682
1.50414
1.46914
1.43271
1.39552
1.35809
1.32084
1.28409
1.2481
1.21307
1.17921
1.1467
1.11574
1.08655
1.05938
1.03454
1.01239
0.993331
0.97778
0.966081
0.958418
0.954714
0.954563
0.957232
0.961739
0.967011
0.972072
0.976068
0.978342
0.978531
0.976479
0.972196
0.96581
0.957516
0.947549
0.936152
0.923562
0.910001
0.895668
0.880743
0.865377
0.8497
0.833826
0.817851
0.801853
0.785896
0.770041
0.754333
0.738811
0.723507
0.708448
0.693658
0.679153
0.664943
0.651047
0.637448
0.624218
0.611156
0.598791
0.585552
0.575587
0.556068
0.0081147
0.0167401
0.0283258
0.0430496
0.0605594
0.0800634
0.100531
0.120914
0.140309
0.158048
0.17372
0.187144
0.198323
0.20739
0.214556
0.220079
0.224224
0.227254
0.229412
0.230915
0.231953
0.232691
0.233267
0.233797
0.23438
0.2351
0.23603
0.237238
0.238794
0.240769
0.243247
0.246326
0.250123
0.254769
0.2604
0.26712
0.27496
0.283823
0.293437
0.303357
0.313017
0.321827
0.329305
0.335175
0.339185
0.341345
0.341891
0.341095
0.339187
0.336399
0.33294
0.328986
0.324676
0.32012
0.315398
0.310571
0.305683
0.300762
0.29583
0.290901
0.285986
0.28109
0.276218
0.271374
0.266562
0.261784
0.257043
0.252343
0.247687
0.243079
0.238521
0.234018
0.229572
0.225186
0.220861
0.216606
0.212403
0.208302
0.204169
0.200449
0.00180932
0.0029027
0.00432958
0.00611637
0.00828403
0.0108312
0.0137287
0.0169202
0.0203268
0.0238541
0.0274015
0.0308718
0.0341791
0.0372546
0.0400506
0.0425412
0.0447209
0.0466025
0.0482133
0.0495914
0.0507822
0.051836
0.0528049
0.0537422
0.0547014
0.0557364
0.0569025
0.058258
0.0598663
0.0617983
0.0641345
0.066966
0.0703918
0.0745115
0.0794111
0.0851421
0.0916982
0.0989953
0.106864
0.115059
0.123283
0.131224
0.138595
0.145165
0.150761
0.155294
0.158763
0.161227
0.162783
0.163548
0.163646
0.163198
0.162316
0.161095
0.159617
0.157948
0.156141
0.154236
0.152264
0.150249
0.148207
0.146149
0.144083
0.142017
0.139952
0.137891
0.135836
0.133788
0.131747
0.129713
0.127688
0.125673
0.123666
0.121672
0.119683
0.117721
0.115738
0.113877
0.111795
0.110748
0.00102343
0.00128834
0.00162912
0.00204359
0.00253247
0.0030968
0.00373631
0.0044487
0.00522921
0.00607047
0.00696267
0.00789391
0.00885078
0.00981908
0.0107846
0.011734
0.0126554
0.0135393
0.0143787
0.01517
0.0159127
0.01661
0.0172685
0.0178986
0.0185142
0.0191335
0.0197787
0.020477
0.0212612
0.0221703
0.0232501
0.024554
0.0261419
0.0280786
0.0304302
0.0332579
0.0366088
0.0405055
0.0449343
0.0498372
0.055109
0.0606022
0.066141
0.0715404
0.0766243
0.0812452
0.0852977
0.0887221
0.091501
0.0936522
0.0952188
0.0962606
0.0968455
0.0970428
0.0969191
0.0965353
0.0959449
0.0951937
0.0943198
0.0933549
0.0923242
0.0912474
0.0901399
0.0890138
0.0878777
0.0867382
0.0855997
0.0844654
0.0833374
0.0822168
0.0811041
0.0799998
0.0789033
0.0778159
0.0767331
0.0756655
0.0745855
0.0735834
0.0724559
0.0720442
0.000825257
0.000916734
0.00103665
0.0011831
0.0013549
0.00155141
0.00177224
0.00201702
0.00228523
0.00257608
0.00288843
0.00322079
0.00357129
0.00393772
0.00431763
0.0047084
0.00510738
0.00551207
0.00592029
0.00633039
0.00674151
0.00715382
0.00756881
0.00798966
0.0084216
0.00887229
0.00935232
0.00987565
0.01046
0.0111274
0.011904
0.0128204
0.0139107
0.0152123
0.0167636
0.0186017
0.020759
0.0232583
0.0261069
0.0292917
0.0327742
0.0364899
0.04035
0.0442489
0.0480729
0.0517117
0.055069
0.0580702
0.0606661
0.0628331
0.0645703
0.0658952
0.0668389
0.0674405
0.0677434
0.0677919
0.0676282
0.0672916
0.066817
0.066235
0.0655719
0.0648493
0.0640853
0.0632947
0.062489
0.0616773
0.0608667
0.0600625
0.0592683
0.0584867
0.0577193
0.0569671
0.0562301
0.0555088
0.0548005
0.0541102
0.0534231
0.0527891
0.0521044
0.0518608
0.000755514
0.000792445
0.00084282
0.000906293
0.000982307
0.00107036
0.00117008
0.00128121
0.0014036
0.00153713
0.00168174
0.00183735
0.00200389
0.0021813
0.00236952
0.00256856
0.0027785
0.00299957
0.00323225
0.00347733
0.00373604
0.00401026
0.00430262
0.00461677
0.0049576
0.00533147
0.00574647
0.00621267
0.00674227
0.00734977
0.00805191
0.00886757
0.00981744
0.0109234
0.0122077
0.0136913
0.0153923
0.0173234
0.0194887
0.0218811
0.0244794
0.0272469
0.0301322
0.0330708
0.0359906
0.0388169
0.0414795
0.0439177
0.0460851
0.047951
0.0495007
0.0507342
0.0516633
0.052309
0.0526982
0.0528614
0.0528299
0.0526346
0.0523047
0.0518669
0.051345
0.0507598
0.050129
0.0494679
0.0487889
0.0481023
0.0474163
0.0467374
0.0460705
0.0454194
0.0447865
0.0441737
0.0435816
0.043011
0.0424604
0.0419321
0.0414185
0.0409463
0.040465
0.0402575
0.000727059
0.000742916
0.000765566
0.000795419
0.000832558
0.000876909
0.000928362
0.000986832
0.0010523
0.00112482
0.00120453
0.00129165
0.00138653
0.00148959
0.00160141
0.00172272
0.00185445
0.00199779
0.00215421
0.00232559
0.00251425
0.00272308
0.00295568
0.00321644
0.00351068
0.00384482
0.00422645
0.00466441
0.00516887
0.00575122
0.006424
0.00720065
0.00809515
0.00912151
0.0102931
0.0116217
0.0131162
0.0147816
0.0166168
0.0186135
0.0207543
0.0230124
0.0253514
0.0277267
0.0300879
0.0323821
0.0345582
0.0365698
0.0383793
0.0399589
0.0412921
0.0423731
0.0432054
0.0438007
0.0441764
0.044354
0.044357
0.0442099
0.0439365
0.0435597
0.0431005
0.0425777
0.0420081
0.0414064
0.0407848
0.0401539
0.0395224
0.0388974
0.0382845
0.0376881
0.0371116
0.0365571
0.0360262
0.0355198