/*--------------------------------*- C++ -*----------------------------------*\
| =========                 |                                                 |
| \\      /  F ield         | OpenFOAM: The Open Source CFD Toolbox           |
|  \\    /   O peration     | Version:  2.4.0                                 |
|   \\  /    A nd           | Web:      www.OpenFOAM.org                      |
|    \\/     M anipulation  |                                                 |
\*---------------------------------------------------------------------------*/
FoamFile
{
    version     2.0;
    format      ascii;
    class       volScalarField;
    location    "0";
    object      omega;
}
// * * * * * * * * * * * * * * * * * * * * * * * * * * * * * * * * * * * * * //

dimensions      [0 0 -1 0 0 0 0];

internalField   nonuniform List<scalar> 
23567
(
39968.7
41241.8
42369.2
43448.9
44102.8
44432
44685.6
44857.5
44868.3
44854.1
44789.4
44665.8
44560.8
44448.2
44264.7
44124
43998.3
43854.8
43672.5
43555.6
43439.8
43285
43159.6
43062
42966.5
13639
15217.2
16660.9
18176.9
19288.2
19947.3
20527.7
21177.4
21465.9
21708.1
21941.5
22114.7
22204.9
22281.2
22354.9
22384.5
22403.4
22415.8
22414.8
22406.9
22396.1
22374.1
22344.7
22309.6
22266.9
2642
3695.65
4677.2
5757.04
6611.64
7147.01
7635.96
8239.38
8540.64
8805.22
9085.64
9331.58
9479.59
9616.42
9785.21
9885.36
9966.74
10049.7
10136.5
10184.4
10228.5
10278.2
10306.6
10316.8
10318.8
757.696
1028.9
1297.09
1634.76
1952.62
2174.25
2389.9
2698.25
2875.44
3038.21
3225.68
3410.59
3530.64
3646.09
3801.62
3902.45
3987.64
4078.94
4182.59
4244.48
4303.52
4375.73
4427.49
4462.48
4493.17
418.256
495.159
573.859
679.791
786.776
864.525
941.889
1059.15
1130.58
1197.58
1277.5
1360.62
1416.62
1471.48
1548.52
1600.73
1645.69
1694.98
1753.33
1789.42
1824.45
1869.06
1903.64
1929
1952.78
347.509
376.216
406.528
449.661
495.56
529.731
564.154
617.773
651.25
682.917
721.214
761.871
789.657
817.065
856.194
883.183
906.612
932.534
963.753
983.357
1002.52
1027.36
1047.22
1062.17
1076.49
326.904
339.674
353.631
374.634
398.287
416.37
434.825
464.376
483.256
501.247
523.259
547.015
563.426
579.698
603.202
619.611
633.933
649.877
669.293
681.607
693.701
709.538
722.427
732.272
741.79
317.773
322.487
327.966
336.976
348.088
356.953
366.183
381.585
391.756
401.546
413.715
427.129
436.521
445.892
459.615
469.33
477.859
487.419
499.2
506.748
514.197
524.051
532.201
538.497
544.633
314.506
315.683
317.26
320.315
324.736
328.536
332.623
339.933
345.028
350.014
356.368
363.603
368.772
373.976
381.746
387.349
392.307
397.911
404.92
409.462
413.967
419.992
425.047
428.987
432.851
313.551
313.452
313.522
314.042
315.251
316.468
317.856
320.657
322.79
324.936
327.777
331.183
333.692
336.254
340.192
343.113
345.726
348.716
352.534
355.046
357.555
360.953
363.849
366.123
368.364
313.386
313.03
312.777
312.71
313.087
313.589
314.209
315.638
316.818
318.034
319.696
321.77
323.336
324.951
327.491
329.414
331.149
333.154
335.751
337.48
339.214
341.585
343.627
345.239
346.833
313.277
312.747
312.272
311.797
311.581
311.566
311.625
312.031
312.488
312.993
313.743
314.774
315.593
316.456
317.872
318.987
320.008
321.207
322.799
323.88
324.971
326.484
327.809
328.864
329.913
313.224
312.603
312.005
311.293
310.7
310.336
310.01
309.671
309.574
309.525
309.547
309.716
309.904
310.125
310.563
310.959
311.341
311.811
312.482
312.961
313.454
314.161
314.805
315.327
315.852
313.207
312.558
311.919
311.124
310.385
309.876
309.384
308.7
308.326
307.991
307.623
307.3
307.115
306.949
306.774
306.7
306.656
306.633
306.661
306.708
306.767
306.88
307.007
307.121
307.241
313.203
312.545
311.895
311.078
310.297
309.746
309.206
308.416
307.952
307.524
307.027
306.534
306.216
305.912
305.509
305.257
305.049
304.833
304.602
304.472
304.352
304.215
304.122
304.058
304.001
313.2
312.538
311.882
311.053
310.25
309.675
309.108
308.255
307.737
307.251
306.672
306.069
305.664
305.267
304.71
304.335
304.012
303.659
303.243
302.985
302.735
302.414
302.156
301.96
301.77
313.198
312.534
311.876
311.041
310.23
309.645
309.066
308.188
307.646
307.134
306.516
305.86
305.409
304.964
304.325
303.879
303.489
303.056
302.525
302.186
301.852
301.409
301.039
300.751
300.467
313.197
312.532
311.873
311.038
310.224
309.638
309.057
308.174
307.629
307.113
306.489
305.823
305.365
304.911
304.256
303.797
303.395
302.945
302.391
302.035
301.683
301.213
300.818
300.508
300.204
313.196
312.531
311.872
311.035
310.22
309.633
309.051
308.166
307.618
307.099
306.472
305.801
305.339
304.88
304.216
303.75
303.341
302.883
302.316
301.95
301.588
301.104
300.695
300.373
300.057
313.195
312.53
311.87
311.033
310.217
309.629
309.046
308.16
307.61
307.09
306.461
305.789
305.324
304.863
304.196
303.726
303.314
302.852
302.28
301.91
301.543
301.053
300.638
300.311
299.988
313.195
312.529
311.868
311.031
310.214
309.626
309.043
308.155
307.605
307.084
306.454
305.78
305.315
304.854
304.185
303.714
303.3
302.837
302.263
301.892
301.524
301.032
300.614
300.286
299.962
313.195
312.529
311.868
311.03
310.213
309.624
309.041
308.153
307.602
307.081
306.451
305.776
305.31
304.849
304.179
303.708
303.294
302.83
302.255
301.884
301.516
301.022
300.604
300.276
299.951
313.194
312.528
311.868
311.029
310.212
309.623
309.039
308.151
307.6
307.079
306.448
305.773
305.307
304.844
304.174
303.703
303.288
302.824
302.248
301.877
301.509
301.014
300.596
300.267
299.942
313.194
312.528
311.867
311.029
310.212
309.623
309.038
308.149
307.598
307.076
306.445
305.77
305.304
304.841
304.17
303.698
303.283
302.819
302.243
301.871
301.502
301.008
300.589
300.26
299.935
313.194
312.528
311.867
311.029
310.212
309.623
309.039
308.15
307.599
307.077
306.446
305.77
305.304
304.841
304.171
303.698
303.283
302.819
302.243
301.871
301.502
301.008
300.589
300.26
299.936
313.194
312.528
311.867
311.029
310.212
309.623
309.04
308.15
307.6
307.078
306.447
305.771
305.305
304.842
304.172
303.7
303.285
302.821
302.246
301.874
301.506
301.012
300.594
300.265
299.941
313.195
312.529
311.868
311.03
310.213
309.624
309.041
308.152
307.602
307.081
306.45
305.775
305.309
304.847
304.178
303.707
303.294
302.83
302.257
301.887
301.519
301.028
300.613
300.286
299.963
313.195
312.529
311.869
311.032
310.216
309.628
309.046
308.159
307.611
307.092
306.465
305.795
305.334
304.877
304.216
303.753
303.347
302.892
302.332
301.972
301.615
301.139
300.739
300.425
300.115
313.196
312.531
311.871
311.037
310.223
309.639
309.061
308.184
307.645
307.135
306.522
305.872
305.427
304.987
304.356
303.918
303.536
303.11
302.592
302.262
301.937
301.505
301.147
300.869
300.595
313.197
312.533
311.875
311.043
310.235
309.657
309.086
308.225
307.699
307.205
306.613
305.993
305.573
305.16
304.576
304.177
303.831
303.45
302.995
302.71
302.431
302.067
301.772
301.545
301.325
313.203
312.551
311.91
311.111
310.365
309.848
309.348
308.642
308.246
307.888
307.487
307.118
306.894
306.688
306.444
306.316
306.22
306.135
306.079
306.071
306.074
306.107
306.168
306.232
306.304
313.237
312.644
312.081
311.434
310.932
310.644
310.397
310.191
310.177
310.205
310.319
310.576
310.819
311.093
311.596
312.029
312.44
312.938
313.638
314.131
314.638
315.363
316.023
316.564
317.112
313.362
312.956
312.629
312.406
312.509
312.747
313.069
313.905
314.634
315.396
316.458
317.815
318.855
319.935
321.659
322.984
324.188
325.59
327.433
328.675
329.929
331.665
333.187
334.412
335.638
313.715
313.823
314.128
315.022
316.664
318.205
319.921
323.229
325.669
328.102
331.284
335.041
337.788
340.582
344.851
348.003
350.82
354.039
358.149
360.86
363.571
367.258
370.429
372.953
375.462
316.484
319.728
323.56
329.995
338.119
344.676
351.539
363.128
370.858
378.324
387.654
398.014
405.307
412.602
423.351
431.016
437.771
445.373
454.834
460.956
467.031
475.169
482.046
487.473
492.837
326.597
338.479
351.353
370.463
391.715
407.863
424.295
450.45
467.093
482.939
502.3
523.173
537.596
551.9
572.587
587.07
599.737
613.873
631.21
642.306
653.263
667.806
679.961
689.498
698.892
350.297
379.537
410.055
452.614
497.011
529.704
562.457
612.883
644.09
673.545
709.037
746.574
772.191
797.446
833.489
858.387
880.037
904.036
933.136
951.59
969.745
993.65
1013.44
1028.89
1044.06
474.104
581.983
690.105
829.955
965.332
1061.46
1155.97
1295.63
1379.06
1456.92
1549
1643.81
1707.33
1769.38
1856.13
1914.73
1965.18
2020.46
2086.12
2127.06
2167.03
2218.88
2260.99
2293.53
2325.25
1350.34
1845.96
2317.24
2861.94
3332.92
3646
3942.58
4343.59
4564.24
4764.65
4990.91
5208.36
5347.24
5479.66
5654.64
5765.82
5858.96
5957.74
6068.33
6133.98
6196.74
6274.45
6334.04
6378.51
6420.8
8628.77
9265.91
9866.07
10544.5
11107.8
11472
11811.2
12251.2
12485.7
12696.9
12931.4
13150.1
13286.2
13414.1
13577
13675.6
13756.4
13839.4
13926.8
13975.6
14021
14073.6
14110.1
14135.7
14158.7
21518.1
22132.3
22704.2
23332.4
23819.7
24118.9
24388.5
24707.9
24867.1
25007.8
25158.8
25289.2
25364.5
25432.1
25507.3
25543.9
25570
25591.7
25602.7
25602.1
25598.3
25585.1
25565.9
25547.4
25526.9
11463.3
6158.83
2495.26
2497.48
2499.9
2501.76
2503.76
2506.51
2508.01
2509.46
2511.41
2512.94
2514.2
2515.66
2517.56
2518.8
2520.04
2522.03
2523.66
2525.17
2527.19
2530.09
2532.37
2534.72
2538.11
2540.37
2542.5
2545.35
2549.8
2558.65
2570.28
2605.42
2631.92
2659.1
2699.41
2736.53
2764.97
2795.96
2839.74
2866.47
2892.91
2931.38
2961.75
2986.6
3015.67
3052.06
3075.83
3099.44
3136.21
3162.15
3185.19
3214.32
3246.9
3269.71
3292.48
3330.34
3353.99
3376.85
3407.94
3438.85
3462.06
3486.53
3525.12
3548.86
3572.66
3607.38
3637.86
3662.41
3690.59
3729.62
3755.11
3780.7
3820.6
3851.45
3878.26
3911.62
3952.33
3980.69
4009.24
4056.91
4089.44
4120.04
4161.12
4204.23
4235.69
4267.76
4320.93
4352.77
4384.6
4429.7
4470.83
4502.88
4538.46
4589.4
4621.52
4653.59
4701.83
4740.02
4771.98
4810.35
4857.91
4889.63
4921.26
4971.62
5006.09
5037.33
5077.64
5120.96
5151.69
5182.3
5233.71
5264.01
5294.01
5335.43
5374.02
5403.31
5435.03
5481.43
5509.96
5538.34
5580.08
5613.74
5641.28
5673.64
5714.47
5741.12
5767.61
5808.94
5837.71
5863.26
5895.63
5930.95
5955.54
5979.96
6020.28
6044.43
6067.92
6099.87
6130.11
6152.75
6176.94
6213
6235.03
6256.97
6289.16
6315.68
6337.09
6361.94
6393.66
6413.97
6434.08
6464.91
6486.42
6505.25
6528.77
6554.41
6571.96
6589.31
6617.4
6634.13
6650.18
6671.63
6691.69
6706.4
6721.89
6744.54
6757.89
6771.05
6789.71
6804.61
6816.39
6829.82
6846.49
6856.88
6867.07
6882.26
6892.52
6901.33
6912.07
6923.33
6930.77
6938.01
6949.15
6955.4
6961.26
6968.73
6975.12
6979.45
6983.79
6989.09
6991.73
6994.17
6996.97
6998.49
6999.38
7000.07
6999.97
6999.38
6998.59
6996.47
6994.23
6991.97
6988.65
6984.04
6980.35
6976.49
6969.03
6963.85
6958.61
6950.85
6942.62
6936.04
6928.73
6916.81
6908.95
6900.95
6888.52
6877.63
6868.47
6857.4
6842.44
6832.25
6821.96
6805.09
6792.72
6781.51
6766.84
6750.1
6738.02
6725.85
6704.74
6691.7
6678.78
6660.58
6643
6629.51
6614.75
6592.57
6578.63
6564.66
6543.68
6526.31
6511.81
6494.34
6471.93
6456.9
6441.93
6419.14
6415.14
6410.26
6401.51
6388.25
6347.65
6293.91
11463.3
6053.1
2194.04
1645.93
1502.41
1429.62
1376.06
1331.26
1314.12
1299.62
1286.88
1285.32
1291.56
1306.3
1331.3
1344.32
1355.49
1361.88
1356.98
1350.9
1340.66
1340.62
1360.4
1389.32
1503.54
1586.97
1658.69
1739.39
1799.88
1836.57
1870.25
1912.58
1931.15
1947.99
1966.13
1977.99
1986
1993.93
2003.79
2009.58
2015.31
2023.78
2030.93
2037.05
2044.53
2054.88
2062.17
2069.62
2082.06
2091.54
2100.23
2111.65
2125.24
2135.14
2145.17
2162.61
2173.92
2184.96
2200.29
2215.97
2227.93
2240.64
2261.06
2273.82
2286.65
2305.55
2322.29
2335.84
2351.43
2373.14
2387.36
2401.63
2423.92
2441.15
2456.11
2474.71
2497.35
2513.06
2528.85
2555.07
2572.81
2589.45
2611.67
2634.87
2651.74
2668.9
2697.19
2714.03
2730.84
2754.53
2776.02
2792.7
2811.17
2837.46
2853.95
2870.4
2895.03
2914.42
2930.62
2950.02
2973.97
2989.9
3005.76
3030.93
3048.12
3063.67
3083.71
3105.2
3120.42
3135.58
3160.99
3175.95
3190.75
3211.18
3230.19
3244.62
3260.23
3283.07
3297.1
3311.06
3331.58
3348.14
3361.68
3377.59
3397.67
3410.78
3423.81
3444.15
3458.33
3470.92
3486.89
3504.34
3516.51
3528.61
3548.63
3560.67
3572.4
3588.42
3603.67
3615.16
3627.46
3646.02
3657.49
3668.98
3686.09
3700.5
3712.13
3725.63
3742.84
3753.87
3764.79
3781.55
3793.25
3803.49
3816.29
3830.25
3839.82
3849.27
3864.59
3873.73
3882.49
3894.21
3905.18
3913.23
3921.72
3934.14
3941.47
3948.7
3958.97
3967.18
3973.69
3981.11
3990.35
3996.12
4001.79
4010.26
4016.01
4020.95
4026.99
4033.35
4037.56
4041.67
4048.02
4051.58
4054.93
4059.19
4062.78
4065.17
4067.53
4070.22
4071.54
4072.75
4074.11
4074.8
4075.18
4075.43
4075.22
4074.8
4074.27
4072.97
4071.65
4070.33
4068.41
4065.78
4063.7
4061.51
4057.32
4054.43
4051.5
4047.18
4042.61
4038.96
4034.92
4028.33
4024
4019.6
4012.75
4006.76
4001.73
3995.65
3987.44
3981.84
3976.19
3966.92
3960.13
3953.97
3945.91
3936.7
3930.07
3923.38
3911.78
3904.61
3897.51
3887.5
3877.84
3870.41
3862.29
3850.07
3842.38
3834.69
3823.14
3813.57
3805.58
3795.95
3783.76
3775.66
3767.64
3755.7
3753.24
3750.78
3747.17
3742.16
3729.81
3713.75
11463.3
6028.79
2068.22
1139.46
880.804
747.867
648.305
563.626
530.39
501.86
474.987
467.114
472.035
489.041
523.041
542.714
560.521
575.929
578.189
579.564
580.396
597.008
633.416
681.359
844.534
960.748
1060.46
1172.2
1254.33
1300.53
1340.88
1379.66
1390.22
1397.95
1399.88
1394.82
1389.4
1382.35
1370.43
1362.81
1355.28
1344.58
1336.91
1331.1
1324.84
1318.61
1315.42
1312.57
1309.54
1308.52
1308.04
1308.12
1309.49
1311.04
1312.83
1316.95
1320.16
1323.45
1328.38
1333.94
1338.39
1343.24
1351.44
1356.76
1362.17
1370.3
1377.67
1383.67
1390.64
1400.42
1406.85
1413.32
1423.42
1431.2
1437.94
1446.3
1456.37
1463.29
1470.21
1481.52
1488.99
1495.94
1505.09
1514.51
1521.29
1528.15
1539.25
1545.75
1552.2
1561.16
1569.14
1575.27
1582
1591.41
1597.23
1602.99
1611.5
1618.1
1623.56
1630.06
1637.96
1643.17
1648.33
1656.44
1661.92
1666.87
1673.2
1679.94
1684.7
1689.42
1697.3
1701.92
1706.49
1712.77
1718.61
1723.03
1727.81
1734.8
1739.09
1743.36
1749.63
1754.7
1758.84
1763.71
1769.87
1773.89
1777.9
1784.17
1788.56
1792.47
1797.44
1802.92
1806.77
1810.6
1817.02
1820.94
1824.79
1830.11
1835.29
1839.26
1843.56
1850.28
1854.58
1858.96
1865.75
1871.75
1876.59
1882.21
1889.34
1893.92
1898.46
1905.44
1910.31
1914.58
1919.92
1925.75
1929.75
1933.71
1940.12
1943.95
1947.62
1952.54
1957.16
1960.55
1964.13
1969.38
1972.48
1975.54
1979.91
1983.41
1986.19
1989.37
1993.34
1995.83
1998.28
2001.97
2004.47
2006.64
2009.3
2012.12
2013.99
2015.81
2018.65
2020.25
2021.73
2023.61
2025.15
2026.11
2027.02
2027.88
2028.26
2028.59
2028.91
2029.01
2029
2028.92
2028.59
2028.25
2027.87
2027.08
2026.36
2025.66
2024.66
2023.35
2022.33
2021.27
2019.27
2017.91
2016.55
2014.54
2012.44
2010.78
2008.94
2005.97
2004.03
2002.05
1999
1996.34
1994.1
1991.41
1987.77
1985.3
1982.8
1978.7
1975.69
1972.97
1969.41
1965.33
1962.4
1959.45
1954.33
1951.16
1948.03
1943.6
1939.33
1936.04
1932.44
1927.02
1923.6
1920.18
1915.08
1910.85
1907.32
1903.07
1897.87
1894.51
1891.23
1886.65
1885.21
1884.33
1883.99
1884.4
1889.77
1897.29
11463.5
6179.2
2298.71
1263.46
926.838
749.69
612.878
494.476
446.461
404.336
360.728
337.65
326.821
322.23
336.296
352.969
371.912
409.091
450.917
495.329
562.174
643.636
699.288
754.641
842.301
892.474
935.157
982.107
1015.18
1032.65
1047.21
1057.58
1057.76
1056.68
1051.19
1043.2
1036.29
1028.17
1015.53
1007.62
999.825
988.848
981.052
975.178
968.888
962.653
959.46
956.61
953.58
952.493
951.887
951.734
952.621
953.712
954.994
958.01
960.378
962.801
966.452
970.524
973.755
977.265
983.154
986.936
990.764
996.478
1001.59
1005.74
1010.52
1017.15
1021.46
1025.79
1032.46
1037.53
1041.89
1047.25
1053.6
1057.91
1062.21
1069.1
1073.59
1077.74
1083.15
1088.66
1092.6
1096.58
1102.96
1106.67
1110.33
1115.4
1119.89
1123.32
1127.08
1132.32
1135.53
1138.72
1143.42
1147.05
1150.06
1153.63
1157.98
1160.85
1163.69
1168.16
1171.19
1173.92
1177.43
1181.18
1183.83
1186.47
1190.9
1193.5
1196.08
1199.63
1202.95
1205.48
1208.22
1212.23
1214.71
1217.17
1220.82
1223.78
1226.21
1229.07
1232.72
1235.11
1237.5
1241.26
1243.91
1246.29
1249.32
1252.68
1255.05
1257.43
1261.44
1263.91
1266.33
1269.71
1273.01
1275.54
1278.29
1282.56
1285.28
1288.04
1292.31
1295.85
1298.71
1302.01
1306.2
1308.88
1311.54
1315.63
1318.47
1320.96
1324.06
1327.43
1329.74
1332.02
1335.7
1337.89
1339.98
1342.78
1345.39
1347.29
1349.3
1352.22
1353.93
1355.62
1358.01
1359.91
1361.4
1363.1
1365.2
1366.5
1367.77
1369.64
1370.89
1371.96
1373.25
1374.58
1375.44
1376.27
1377.5
1378.15
1378.74
1379.45
1379.97
1380.28
1380.55
1380.77
1380.82
1380.84
1380.75
1380.57
1380.37
1380.08
1379.58
1379.16
1378.72
1377.92
1377.24
1376.59
1375.71
1374.59
1373.74
1372.87
1371.26
1370.19
1369.12
1367.57
1365.97
1364.71
1363.32
1361.11
1359.67
1358.21
1355.97
1354.03
1352.4
1350.44
1347.81
1346.03
1344.23
1341.29
1339.13
1337.18
1334.64
1331.74
1329.66
1327.56
1323.93
1321.69
1319.47
1316.35
1313.33
1311.01
1308.47
1304.65
1302.23
1299.81
1296.23
1293.32
1290.92
1288.05
1284.55
1282.33
1280.16
1277.19
1275.89
1275.09
1274.76
1275.83
1280.32
1286.38
11464.7
6277.4
2435.39
1271.86
888.197
691.815
545.542
428.932
384.595
346.53
309.705
298.351
298.101
306.789
345.601
377.559
411.365
469.365
516.585
558.286
610.844
666.407
701.011
734.159
781.713
807.028
828.148
850.37
864.426
870.907
875.687
876.243
873.479
870.08
863.285
855.514
849.155
841.923
831.307
825.008
818.916
810.749
805.301
801.32
797.211
793.477
791.76
790.315
789.178
789.18
789.448
790.243
791.901
793.397
795.027
798.354
800.763
803.181
806.705
810.488
813.433
816.6
821.793
825.067
828.366
833.231
837.529
840.987
844.953
850.397
853.909
857.415
862.789
866.839
870.307
874.552
879.548
882.919
886.269
891.624
895.091
898.293
902.461
906.697
909.723
912.775
917.675
920.521
923.34
927.245
930.706
933.36
936.271
940.338
942.85
945.342
949.031
951.9
954.283
957.122
960.602
962.906
965.199
968.828
971.301
973.541
976.43
979.534
981.74
983.939
987.644
989.837
992.012
995.024
997.85
1000
1002.34
1005.79
1007.92
1010.05
1013.21
1015.78
1017.89
1020.38
1023.57
1025.67
1027.76
1031.07
1033.4
1035.49
1038.16
1041.13
1043.23
1045.32
1048.86
1051.03
1053.16
1056.1
1058.98
1061.17
1063.53
1067.17
1069.46
1071.76
1075.23
1078.07
1080.36
1083.01
1086.37
1088.52
1090.65
1093.91
1096.19
1098.17
1100.64
1103.32
1105.15
1106.96
1109.87
1111.59
1113.24
1115.43
1117.46
1118.95
1120.51
1122.76
1124.08
1125.38
1127.19
1128.63
1129.75
1131.02
1132.57
1133.52
1134.44
1135.78
1136.67
1137.41
1138.3
1139.19
1139.75
1140.28
1141.02
1141.4
1141.73
1142.1
1142.33
1142.44
1142.52
1142.49
1142.39
1142.28
1142.01
1141.69
1141.38
1140.98
1140.34
1139.85
1139.34
1138.43
1137.68
1136.99
1136.06
1134.89
1134.02
1133.13
1131.52
1130.45
1129.39
1127.86
1126.29
1125.06
1123.71
1121.57
1120.19
1118.79
1116.64
1114.79
1113.25
1111.39
1108.9
1107.22
1105.52
1102.75
1100.73
1098.9
1096.52
1093.82
1091.88
1089.93
1086.55
1084.48
1082.43
1079.54
1076.74
1074.6
1072.25
1068.76
1066.57
1064.38
1061.13
1058.51
1056.35
1053.78
1050.66
1048.68
1046.76
1044.05
1042.69
1041.75
1041.08
1041.67
1044.38
1048.06
11466.5
6268.34
2406.23
1186.06
801.829
611.842
477.049
378.299
344.644
317.785
300.191
303.669
313.551
332.027
376.85
410.694
445.606
501.794
542.806
577.014
617.206
657.022
680.775
703.086
733.115
748.059
760.235
772.324
778.8
781.047
782.147
779.333
775.761
771.811
765.052
757.962
752.332
746.049
737.208
732.162
727.344
721.125
717.191
714.404
711.638
709.401
708.551
707.924
707.874
708.492
709.256
710.588
712.686
714.418
716.252
719.779
722.233
724.67
728.16
731.828
734.653
737.674
742.562
745.614
748.68
753.171
757.108
760.264
763.873
768.799
771.962
775.116
779.932
783.547
786.638
790.415
794.848
797.834
800.798
805.532
808.593
811.421
815.103
818.849
821.527
824.23
828.581
831.115
833.628
837.118
840.223
842.61
845.235
848.919
851.205
853.477
856.855
859.497
861.699
864.33
867.573
869.73
871.879
875.298
877.642
879.768
882.518
885.486
887.601
889.711
893.281
895.401
897.505
900.427
903.174
905.271
907.549
910.915
913.003
915.088
918.178
920.699
922.773
925.224
928.355
930.419
932.48
935.736
938.036
940.093
942.723
945.642
947.702
949.76
953.221
955.341
957.416
960.28
963.057
965.167
967.439
970.909
973.074
975.241
978.454
981.08
983.193
985.638
988.739
990.722
992.683
995.688
997.778
999.603
1001.88
1004.34
1006.01
1007.67
1010.33
1011.9
1013.41
1015.4
1017.25
1018.6
1020.01
1022.04
1023.23
1024.39
1026.02
1027.29
1028.28
1029.41
1030.76
1031.59
1032.39
1033.55
1034.3
1034.92
1035.66
1036.39
1036.83
1037.26
1037.82
1038.09
1038.32
1038.56
1038.67
1038.7
1038.7
1038.56
1038.4
1038.22
1037.86
1037.47
1037.11
1036.64
1035.92
1035.38
1034.82
1033.83
1033.03
1032.3
1031.31
1030.08
1029.17
1028.25
1026.57
1025.47
1024.37
1022.8
1021.19
1019.94
1018.56
1016.38
1014.97
1013.56
1011.38
1009.51
1007.94
1006.07
1003.56
1001.86
1000.15
997.367
995.341
993.511
991.126
988.419
986.481
984.535
981.169
979.1
977.055
974.191
971.418
969.298
966.985
963.539
961.389
959.242
956.053
953.483
951.374
948.875
945.824
943.892
942.007
939.31
937.851
936.775
935.845
935.986
937.698
940.089
11468.6
6220.95
2316.89
1061.95
693.934
520.016
404.997
330.941
310.971
298.15
303.633
322.92
342.849
370.14
415.74
447.586
479.584
527.293
558.461
583.381
611.001
636.932
651.967
665.884
683.469
691.367
697.504
702.844
704.43
704.052
702.936
698.344
694.523
690.497
684.18
677.978
673.2
667.977
660.995
657.201
653.642
649.278
646.739
645.038
643.482
642.569
642.477
642.565
643.452
644.6
645.789
647.581
650.059
651.996
654.011
657.721
660.224
662.69
666.17
669.765
672.51
675.43
680.104
682.998
685.898
690.123
693.803
696.745
700.101
704.662
707.581
710.489
714.918
718.235
721.069
724.529
728.584
731.315
734.026
738.357
741.16
743.751
747.13
750.576
753.045
755.54
759.571
761.929
764.27
767.534
770.453
772.705
775.186
778.688
780.874
783.05
786.3
788.858
790.996
793.559
796.735
798.857
800.975
804.359
806.69
808.808
811.555
814.53
816.655
818.777
822.378
824.523
826.652
829.614
832.403
834.534
836.852
840.28
842.409
844.535
847.689
850.263
852.381
854.886
858.086
860.196
862.302
865.628
867.977
870.076
872.759
875.732
877.826
879.917
883.427
885.567
887.659
890.542
893.318
895.42
897.68
901.102
903.229
905.35
908.457
910.989
913.026
915.384
918.371
920.282
922.174
925.068
927.077
928.831
931.016
933.382
934.991
936.58
939.129
940.632
942.068
943.974
945.734
947.014
948.355
950.284
951.402
952.497
954.026
955.218
956.147
957.192
958.448
959.208
959.943
960.995
961.667
962.227
962.882
963.508
963.888
964.243
964.706
964.906
965.073
965.227
965.265
965.241
965.183
964.963
964.756
964.525
964.096
963.643
963.234
962.711
961.911
961.323
960.714
959.648
958.799
958.013
956.958
955.668
954.71
953.732
951.971
950.819
949.674
948.032
946.359
945.055
943.624
941.362
939.909
938.439
936.192
934.259
932.647
930.713
928.132
926.387
924.628
921.768
919.692
917.816
915.37
912.6
910.62
908.633
905.197
903.087
901.003
898.094
895.292
893.151
890.817
887.339
885.176
883.016
879.807
877.226
875.111
872.61
869.546
867.601
865.699
862.935
861.356
860.13
858.926
858.594
859.441
860.746
11472.2
6025.24
1998.5
810.926
530.812
412.445
349.405
323.258
324.549
329.498
347.485
370.14
390.551
416.145
452.373
475.129
497.276
527.828
546.513
561.221
577.15
591.588
599.541
606.704
614.705
617.536
619.438
620.298
618.996
617.251
615.101
610.2
606.796
603.326
598.232
593.591
590.165
586.53
582.035
579.783
577.735
575.482
574.449
573.902
573.604
574.034
574.699
575.496
577.303
578.969
580.573
582.816
585.67
587.814
590.013
593.923
596.493
599.007
602.51
606.075
608.774
611.634
616.169
618.956
621.744
625.787
629.293
632.09
635.276
639.596
642.358
645.108
649.296
652.433
655.114
658.391
662.24
664.838
667.42
671.56
674.253
676.747
680.011
683.361
685.774
688.217
692.194
694.538
696.872
700.146
703.097
705.385
707.916
711.519
713.783
716.043
719.443
722.138
724.399
727.119
730.512
732.79
735.068
738.726
741.257
743.561
746.555
749.811
752.142
754.471
758.433
760.796
763.144
766.413
769.495
771.851
774.414
778.206
780.562
782.913
786.403
789.25
791.593
794.361
797.897
800.226
802.55
806.216
808.801
811.108
814.053
817.309
819.598
821.881
825.699
828.017
830.28
833.388
836.364
838.609
841.017
844.641
846.869
849.085
852.312
854.936
857.046
859.489
862.583
864.561
866.518
869.512
871.59
873.403
875.66
878.102
879.762
881.4
884.026
885.572
887.049
889.007
890.811
892.121
893.493
895.462
896.6
897.713
899.264
900.468
901.405
902.457
903.713
904.468
905.198
906.236
906.891
907.434
908.065
908.657
909.009
909.336
909.745
909.909
910.04
910.142
910.126
910.06
909.956
909.661
909.402
909.118
908.607
908.078
907.604
907.003
906.093
905.43
904.742
903.548
902.6
901.725
900.552
899.123
898.064
896.984
895.045
893.779
892.521
890.719
888.887
887.46
885.895
883.426
881.842
880.24
877.791
875.687
873.934
871.833
869.033
867.14
865.232
862.134
859.89
857.864
855.224
852.23
850.098
847.962
844.29
842.043
839.823
836.72
833.746
831.474
828.996
825.311
823.025
820.743
817.352
814.628
812.396
809.757
806.515
804.445
802.413
799.398
797.577
796.087
794.452
793.413
793.32
793.503
11474.1
5870.89
1767.13
718.339
498.562
406.723
359.068
344.587
348.508
355.116
372.694
392.288
409.283
429.996
457.998
475.14
491.697
514.157
527.72
538.326
549.698
559.67
564.938
569.574
574.232
575.462
576.075
575.697
573.785
571.864
569.664
565.187
562.261
559.32
555.14
551.489
548.863
546.131
542.933
541.441
540.127
538.865
538.52
538.497
538.764
539.79
540.791
541.902
544.118
546.015
547.807
550.255
553.288
555.535
557.826
561.849
564.466
567.021
570.563
574.147
576.853
579.717
584.242
587.017
589.792
593.812
597.295
600.074
603.239
607.534
610.281
613.017
617.19
620.323
623.004
626.285
630.152
632.768
635.373
639.563
642.301
644.842
648.177
651.618
654.105
656.628
660.757
663.204
665.644
669.08
672.195
674.617
677.302
681.143
683.568
685.99
689.648
692.558
695.005
697.954
701.644
704.126
706.611
710.609
713.38
715.905
719.19
722.766
725.327
727.887
732.244
734.844
737.427
741.024
744.414
747.007
749.826
753.996
756.585
759.169
763.002
766.128
768.698
771.735
775.61
778.161
780.706
784.716
787.54
790.059
793.273
796.821
799.311
801.794
805.94
808.451
810.901
814.26
817.469
819.885
822.474
826.359
828.734
831.094
834.522
837.306
839.546
842.138
845.418
847.515
849.59
852.762
854.963
856.883
859.273
861.857
863.614
865.346
868.121
869.755
871.315
873.382
875.285
876.666
878.111
880.183
881.38
882.55
884.178
885.44
886.42
887.52
888.832
889.618
890.378
891.454
892.131
892.691
893.339
893.942
894.299
894.629
895.034
895.19
895.312
895.397
895.358
895.272
895.144
894.804
894.512
894.194
893.625
893.041
892.519
891.859
890.864
890.139
889.389
888.089
887.059
886.108
884.835
883.285
882.139
880.969
878.872
877.504
876.145
874.199
872.221
870.681
868.992
866.331
864.625
862.9
860.264
857.998
856.112
853.853
850.845
848.812
846.762
843.433
841.029
838.861
836.039
832.852
830.579
828.3
824.391
822.002
819.642
816.343
813.188
810.777
808.149
804.244
801.823
799.407
795.818
792.935
790.573
787.778
784.337
782.131
779.96
776.703
774.682
772.988
771.045
769.546
768.966
768.594
11475.7
5782.19
1634.42
668.21
484.372
408.679
370.79
362.724
367.715
374.706
390.671
407.005
420.776
437.19
458.554
471.336
483.592
499.94
509.651
517.172
525.115
531.758
535.056
537.852
540.146
540.29
540.045
538.882
536.653
534.697
532.555
528.539
526.05
523.584
520.188
517.358
515.384
513.38
511.21
510.313
509.574
509.082
509.269
509.649
510.353
511.839
513.098
514.452
516.984
519.062
521.002
523.613
526.79
529.121
531.49
535.612
538.275
540.87
544.456
548.07
550.794
553.674
558.217
560.999
563.78
567.809
571.3
574.085
577.259
581.569
584.329
587.081
591.284
594.448
597.158
600.48
604.408
607.074
609.73
614.019
616.835
619.451
622.896
626.466
629.054
631.684
636.009
638.584
641.155
644.787
648.095
650.673
653.535
657.646
660.249
662.853
666.794
669.94
672.587
675.782
679.789
682.489
685.192
689.548
692.571
695.327
698.913
702.82
705.618
708.417
713.179
716.021
718.844
722.776
726.48
729.312
732.391
736.943
739.768
742.588
746.767
750.173
752.973
756.279
760.496
763.27
766.036
770.392
773.457
776.19
779.674
783.515
786.21
788.894
793.371
796.079
798.72
802.335
805.783
808.376
811.152
815.308
817.836
820.347
823.989
826.944
829.32
832.07
835.548
837.77
839.969
843.33
845.661
847.694
850.223
852.957
854.815
856.646
859.579
861.305
862.952
865.133
867.14
868.596
870.119
872.3
873.559
874.789
876.499
877.822
878.849
880.001
881.372
882.192
882.984
884.102
884.804
885.383
886.051
886.67
887.033
887.367
887.771
887.921
888.035
888.104
888.044
887.938
887.787
887.402
887.078
886.725
886.099
885.46
884.89
884.171
883.089
882.304
881.491
880.085
878.972
877.946
876.572
874.902
873.667
872.408
870.152
868.682
867.222
865.132
863.007
861.354
859.541
856.687
854.859
853.011
850.187
847.757
845.737
843.32
840.105
837.933
835.745
832.193
829.63
827.319
824.317
820.932
818.518
816.096
811.946
809.413
806.912
803.416
800.075
797.524
794.742
790.614
788.054
785.502
781.71
778.664
776.167
773.212
769.567
767.222
764.91
761.411
759.198
757.312
755.084
753.175
752.19
751.363
11477.4
5752.2
1590.16
658.236
489.402
421.201
388.704
382.15
386.507
392.335
404.642
416.477
426.309
437.887
452.688
461.43
469.773
480.749
487.105
491.935
496.887
500.681
502.347
503.644
504.136
503.538
502.737
501.144
498.884
497.065
495.137
491.772
489.8
487.877
485.334
483.348
482.03
480.747
479.563
479.227
479.026
479.246
479.922
480.672
481.775
483.682
485.178
486.754
489.578
491.826
493.904
496.671
499.991
502.408
504.858
509.091
511.812
514.46
518.109
521.777
524.539
527.457
532.057
534.873
537.689
541.769
545.308
548.135
551.357
555.742
558.557
561.366
565.666
568.914
571.702
575.125
579.19
581.959
584.721
589.203
592.159
594.912
598.548
602.336
605.091
607.896
612.533
615.306
618.08
622.01
625.606
628.415
631.539
636.042
638.902
641.765
646.109
649.586
652.514
656.052
660.497
663.496
666.499
671.343
674.708
677.775
681.769
686.12
689.237
692.354
697.657
700.82
703.962
708.337
712.456
715.603
719.024
724.079
727.214
730.342
734.976
738.749
741.849
745.509
750.171
753.236
756.291
761.1
764.479
767.491
771.329
775.555
778.517