/*--------------------------------*- C++ -*----------------------------------*\
| =========                 |                                                 |
| \\      /  F ield         | OpenFOAM: The Open Source CFD Toolbox           |
|  \\    /   O peration     | Version:  2.4.0                                 |
|   \\  /    A nd           | Web:      www.OpenFOAM.org                      |
|    \\/     M anipulation  |                                                 |
\*---------------------------------------------------------------------------*/
FoamFile
{
    version     2.0;
    format      ascii;
    class       volScalarField;
    location    "175";
    object      nut;
}
// * * * * * * * * * * * * * * * * * * * * * * * * * * * * * * * * * * * * * //

dimensions      [0 2 -1 0 0 0 0];

internalField   nonuniform List<scalar> 
10000
(
4.28587e-06
1.79716e-06
1.05044e-06
7.59461e-07
6.23527e-07
5.51334e-07
5.0916e-07
4.82691e-07
4.65096e-07
4.52871e-07
4.44051e-07
4.37504e-07
4.32513e-07
4.28636e-07
4.25566e-07
4.23102e-07
4.21098e-07
4.19451e-07
4.18084e-07
4.17829e-07
4.28589e-06
1.79642e-06
1.04986e-06
7.58953e-07
6.23085e-07
5.50925e-07
5.0878e-07
4.82326e-07
4.64746e-07
4.5253e-07
4.4372e-07
4.37178e-07
4.32194e-07
4.2832e-07
4.25254e-07
4.22793e-07
4.20791e-07
4.19146e-07
4.17781e-07
4.1664e-07
4.28577e-06
1.79654e-06
1.04991e-06
7.58932e-07
6.23018e-07
5.50815e-07
5.08643e-07
4.82161e-07
4.64562e-07
4.52325e-07
4.43501e-07
4.36944e-07
4.31951e-07
4.28068e-07
4.24997e-07
4.22532e-07
4.20528e-07
4.18881e-07
4.17516e-07
4.16374e-07
4.28578e-06
1.7966e-06
1.04998e-06
7.58992e-07
6.23072e-07
5.50858e-07
5.08679e-07
4.82192e-07
4.64593e-07
4.5236e-07
4.43541e-07
4.3699e-07
4.32002e-07
4.28123e-07
4.25055e-07
4.22592e-07
4.20588e-07
4.18941e-07
4.17575e-07
4.16432e-07
4.28577e-06
1.79662e-06
1.04998e-06
7.58986e-07
6.23066e-07
5.50856e-07
5.08681e-07
4.82196e-07
4.64597e-07
4.52361e-07
4.43538e-07
4.36983e-07
4.31991e-07
4.2811e-07
4.2504e-07
4.22575e-07
4.20572e-07
4.18925e-07
4.17559e-07
4.16417e-07
4.28578e-06
1.79663e-06
1.04999e-06
7.59001e-07
6.23074e-07
5.50856e-07
5.08673e-07
4.82186e-07
4.64588e-07
4.52357e-07
4.43541e-07
4.36994e-07
4.32008e-07
4.28132e-07
4.25065e-07
4.22602e-07
4.20599e-07
4.18951e-07
4.17584e-07
4.1644e-07
4.28577e-06
1.79662e-06
1.04996e-06
7.58973e-07
6.23052e-07
5.50845e-07
5.08671e-07
4.82187e-07
4.64587e-07
4.5235e-07
4.43526e-07
4.36969e-07
4.31976e-07
4.28094e-07
4.25023e-07
4.22558e-07
4.20555e-07
4.18908e-07
4.17542e-07
4.16399e-07
4.28578e-06
1.79664e-06
1.04998e-06
7.59001e-07
6.23072e-07
5.50855e-07
5.08671e-07
4.82183e-07
4.64585e-07
4.52355e-07
4.4354e-07
4.36994e-07
4.3201e-07
4.28134e-07
4.25068e-07
4.22605e-07
4.20601e-07
4.18954e-07
4.17586e-07
4.16442e-07
4.28577e-06
1.79662e-06
1.04996e-06
7.58973e-07
6.23051e-07
5.50846e-07
5.08672e-07
4.82189e-07
4.64589e-07
4.52352e-07
4.43527e-07
4.3697e-07
4.31976e-07
4.28094e-07
4.25023e-07
4.22558e-07
4.20554e-07
4.18908e-07
4.17543e-07
4.164e-07
4.28578e-06
1.79664e-06
1.04999e-06
7.59006e-07
6.23076e-07
5.50859e-07
5.08674e-07
4.82186e-07
4.64588e-07
4.52359e-07
4.43545e-07
4.37e-07
4.32016e-07
4.28141e-07
4.25075e-07
4.22613e-07
4.20609e-07
4.18962e-07
4.17595e-07
4.16451e-07
4.28577e-06
1.79662e-06
1.04996e-06
7.58973e-07
6.23052e-07
5.50849e-07
5.08676e-07
4.82194e-07
4.64594e-07
4.52356e-07
4.43529e-07
4.36971e-07
4.31976e-07
4.28093e-07
4.25022e-07
4.22557e-07
4.20554e-07
4.18908e-07
4.17543e-07
4.16402e-07
4.28578e-06
1.79665e-06
1.04999e-06
7.5901e-07
6.2308e-07
5.50863e-07
5.08678e-07
4.8219e-07
4.64593e-07
4.52364e-07
4.4355e-07
4.37005e-07
4.32022e-07
4.28147e-07
4.25082e-07
4.22619e-07
4.20616e-07
4.18969e-07
4.17602e-07
4.16459e-07
4.28577e-06
1.79663e-06
1.04996e-06
7.58976e-07
6.23055e-07
5.50852e-07
5.08681e-07
4.82199e-07
4.64598e-07
4.5236e-07
4.43533e-07
4.36974e-07
4.31979e-07
4.28096e-07
4.25025e-07
4.2256e-07
4.20558e-07
4.18912e-07
4.17548e-07
4.16406e-07
4.28578e-06
1.79665e-06
1.04999e-06
7.59014e-07
6.23084e-07
5.50867e-07
5.08682e-07
4.82194e-07
4.64597e-07
4.52369e-07
4.43555e-07
4.3701e-07
4.32027e-07
4.28153e-07
4.25088e-07
4.22626e-07
4.20623e-07
4.18976e-07
4.17609e-07
4.16466e-07
4.28577e-06
1.79663e-06
1.04996e-06
7.58978e-07
6.23057e-07
5.50856e-07
5.08685e-07
4.82204e-07
4.64603e-07
4.52365e-07
4.43537e-07
4.36977e-07
4.31981e-07
4.28098e-07
4.25027e-07
4.22562e-07
4.2056e-07
4.18915e-07
4.17551e-07
4.1641e-07
4.28578e-06
1.79666e-06
1.05e-06
7.59018e-07
6.23088e-07
5.50871e-07
5.08686e-07
4.82199e-07
4.64602e-07
4.52374e-07
4.43561e-07
4.37016e-07
4.32033e-07
4.28159e-07
4.25094e-07
4.22632e-07
4.2063e-07
4.18983e-07
4.17616e-07
4.16473e-07
4.28577e-06
1.79664e-06
1.04996e-06
7.58981e-07
6.23061e-07
5.5086e-07
5.08689e-07
4.82209e-07
4.64608e-07
4.5237e-07
4.43542e-07
4.36982e-07
4.31986e-07
4.28103e-07
4.25032e-07
4.22568e-07
4.20565e-07
4.18921e-07
4.17557e-07
4.16416e-07
4.28578e-06
1.79666e-06
1.05e-06
7.59022e-07
6.23092e-07
5.50875e-07
5.08691e-07
4.82204e-07
4.64607e-07
4.52379e-07
4.43566e-07
4.37022e-07
4.32039e-07
4.28166e-07
4.25101e-07
4.2264e-07
4.20637e-07
4.18991e-07
4.17624e-07
4.16481e-07
4.28577e-06
1.79664e-06
1.04996e-06
7.58984e-07
6.23064e-07
5.50864e-07
5.08694e-07
4.82214e-07
4.64614e-07
4.52375e-07
4.43547e-07
4.36987e-07
4.31991e-07
4.28107e-07
4.25036e-07
4.22572e-07
4.2057e-07
4.18925e-07
4.17562e-07
4.16421e-07
4.28578e-06
1.79667e-06
1.05e-06
7.59026e-07
6.23096e-07
5.5088e-07
5.08695e-07
4.82208e-07
4.64612e-07
4.52384e-07
4.43572e-07
4.37028e-07
4.32046e-07
4.28173e-07
4.25108e-07
4.22647e-07
4.20645e-07
4.18998e-07
4.17632e-07
4.16489e-07
4.28577e-06
1.79664e-06
1.04997e-06
7.58987e-07
6.23067e-07
5.50868e-07
5.08699e-07
4.82218e-07
4.64619e-07
4.5238e-07
4.43552e-07
4.36992e-07
4.31996e-07
4.28113e-07
4.25042e-07
4.22578e-07
4.20577e-07
4.18932e-07
4.17569e-07
4.16428e-07
4.28578e-06
1.79667e-06
1.05001e-06
7.5903e-07
6.231e-07
5.50884e-07
5.087e-07
4.82213e-07
4.64617e-07
4.5239e-07
4.43578e-07
4.37034e-07
4.32052e-07
4.28179e-07
4.25115e-07
4.22654e-07
4.20652e-07
4.19005e-07
4.17639e-07
4.16496e-07
4.28577e-06
1.79665e-06
1.04997e-06
7.5899e-07
6.2307e-07
5.50871e-07
5.08703e-07
4.82223e-07
4.64624e-07
4.52385e-07
4.43557e-07
4.36997e-07
4.32001e-07
4.28117e-07
4.25046e-07
4.22583e-07
4.20581e-07
4.18936e-07
4.17573e-07
4.16433e-07
4.28578e-06
1.79667e-06
1.05001e-06
7.59033e-07
6.23103e-07
5.50888e-07
5.08704e-07
4.82218e-07
4.64622e-07
4.52395e-07
4.43583e-07
4.3704e-07
4.32058e-07
4.28185e-07
4.25121e-07
4.2266e-07
4.20658e-07
4.19012e-07
4.17646e-07
4.16503e-07
4.28577e-06
1.79665e-06
1.04997e-06
7.58993e-07
6.23074e-07
5.50875e-07
5.08707e-07
4.82228e-07
4.64629e-07
4.5239e-07
4.43563e-07
4.37003e-07
4.32007e-07
4.28123e-07
4.25053e-07
4.22589e-07
4.20587e-07
4.18943e-07
4.1758e-07
4.1644e-07
4.28578e-06
1.79667e-06
1.05001e-06
7.59035e-07
6.23107e-07
5.50891e-07
5.08708e-07
4.82222e-07
4.64627e-07
4.524e-07
4.43588e-07
4.37045e-07
4.32063e-07
4.28191e-07
4.25127e-07
4.22666e-07
4.20664e-07
4.19018e-07
4.17652e-07
4.16509e-07
4.28577e-06
1.79665e-06
1.04997e-06
7.58995e-07
6.23077e-07
5.50879e-07
5.08711e-07
4.82232e-07
4.64634e-07
4.52395e-07
4.43567e-07
4.37007e-07
4.32011e-07
4.28128e-07
4.25057e-07
4.22594e-07
4.20592e-07
4.18948e-07
4.17585e-07
4.16445e-07
4.28578e-06
1.79667e-06
1.05001e-06
7.59038e-07
6.2311e-07
5.50895e-07
5.08712e-07
4.82227e-07
4.64631e-07
4.52405e-07
4.43593e-07
4.3705e-07
4.32069e-07
4.28196e-07
4.25132e-07
4.22671e-07
4.20669e-07
4.19023e-07
4.17657e-07
4.16515e-07
4.28577e-06
1.79665e-06
1.04998e-06
7.58998e-07
6.2308e-07
5.50883e-07
5.08715e-07
4.82237e-07
4.64638e-07
4.524e-07
4.43573e-07
4.37013e-07
4.32018e-07
4.28135e-07
4.25064e-07
4.22601e-07
4.20599e-07
4.18955e-07
4.17592e-07
4.16452e-07
4.28578e-06
1.79668e-06
1.05002e-06
7.5904e-07
6.23113e-07
5.50898e-07
5.08716e-07
4.82231e-07
4.64636e-07
4.5241e-07
4.43598e-07
4.37055e-07
4.32074e-07
4.28202e-07
4.25137e-07
4.22677e-07
4.20675e-07
4.19029e-07
4.17663e-07
4.1652e-07
4.28577e-06
1.79665e-06
1.04998e-06
7.59e-07
6.23083e-07
5.50886e-07
5.08719e-07
4.82241e-07
4.64642e-07
4.52405e-07
4.43578e-07
4.37019e-07
4.32023e-07
4.2814e-07
4.2507e-07
4.22607e-07
4.20605e-07
4.18961e-07
4.17598e-07
4.16458e-07
4.28578e-06
1.79668e-06
1.05002e-06
7.59042e-07
6.23115e-07
5.50901e-07
5.08719e-07
4.82235e-07
4.6464e-07
4.52414e-07
4.43603e-07
4.3706e-07
4.32079e-07
4.28206e-07
4.25142e-07
4.22682e-07
4.2068e-07
4.19034e-07
4.17668e-07
4.16526e-07
4.28577e-06
1.79665e-06
1.04998e-06
7.59003e-07
6.23086e-07
5.50889e-07
5.08722e-07
4.82244e-07
4.64646e-07
4.52409e-07
4.43583e-07
4.37024e-07
4.32029e-07
4.28146e-07
4.25076e-07
4.22612e-07
4.20611e-07
4.18967e-07
4.17604e-07
4.16464e-07
4.28578e-06
1.79667e-06
1.05002e-06
7.59044e-07
6.23118e-07
5.50904e-07
5.08723e-07
4.82238e-07
4.64644e-07
4.52418e-07
4.43607e-07
4.37064e-07
4.32083e-07
4.28211e-07
4.25147e-07
4.22686e-07
4.20685e-07
4.19039e-07
4.17673e-07
4.1653e-07
4.28577e-06
1.79665e-06
1.04998e-06
7.59005e-07
6.23089e-07
5.50892e-07
5.08726e-07
4.82248e-07
4.6465e-07
4.52413e-07
4.43587e-07
4.37028e-07
4.32033e-07
4.28151e-07
4.25081e-07
4.22617e-07
4.20616e-07
4.18972e-07
4.17609e-07
4.16469e-07
4.28578e-06
1.79667e-06
1.05002e-06
7.59045e-07
6.2312e-07
5.50907e-07
5.08726e-07
4.82242e-07
4.64648e-07
4.52422e-07
4.43611e-07
4.37069e-07
4.32088e-07
4.28215e-07
4.25152e-07
4.22691e-07
4.20689e-07
4.19043e-07
4.17677e-07
4.16535e-07
4.28577e-06
1.79665e-06
1.04998e-06
7.59008e-07
6.23092e-07
5.50895e-07
5.08729e-07
4.82251e-07
4.64654e-07
4.52417e-07
4.43592e-07
4.37033e-07
4.32039e-07
4.28157e-07
4.25087e-07
4.22624e-07
4.20622e-07
4.18978e-07
4.17615e-07
4.16475e-07
4.28577e-06
1.79667e-06
1.05002e-06
7.59047e-07
6.23122e-07
5.50909e-07
5.08729e-07
4.82245e-07
4.64651e-07
4.52426e-07
4.43615e-07
4.37072e-07
4.32091e-07
4.28219e-07
4.25155e-07
4.22695e-07
4.20693e-07
4.19047e-07
4.17681e-07
4.16539e-07
4.28577e-06
1.79665e-06
1.04999e-06
7.59011e-07
6.23095e-07
5.50898e-07
5.08731e-07
4.82254e-07
4.64657e-07
4.52421e-07
4.43596e-07
4.37038e-07
4.32045e-07
4.28163e-07
4.25093e-07
4.2263e-07
4.20629e-07
4.18985e-07
4.17621e-07
4.16481e-07
4.28577e-06
1.79667e-06
1.05002e-06
7.59048e-07
6.23124e-07
5.50912e-07
5.08732e-07
4.82248e-07
4.64654e-07
4.52429e-07
4.43618e-07
4.37075e-07
4.32094e-07
4.28222e-07
4.25158e-07
4.22697e-07
4.20696e-07
4.1905e-07
4.17684e-07
4.16542e-07
4.28577e-06
1.79665e-06
1.04999e-06
7.59013e-07
6.23098e-07
5.50901e-07
5.08734e-07
4.82256e-07
4.6466e-07
4.52424e-07
4.436e-07
4.37043e-07
4.32049e-07
4.28168e-07
4.25099e-07
4.22636e-07
4.20634e-07
4.1899e-07
4.17626e-07
4.16486e-07
4.28577e-06
1.79667e-06
1.05002e-06
7.59048e-07
6.23125e-07
5.50914e-07
5.08734e-07
4.82251e-07
4.64657e-07
4.52432e-07
4.43621e-07
4.37078e-07
4.32097e-07
4.28224e-07
4.2516e-07
4.227e-07
4.20698e-07
4.19052e-07
4.17686e-07
4.16544e-07
4.28577e-06
1.79665e-06
1.04999e-06
7.59016e-07
6.23101e-07
5.50904e-07
5.08736e-07
4.82259e-07
4.64662e-07
4.52427e-07
4.43604e-07
4.37048e-07
4.32055e-07
4.28174e-07
4.25105e-07
4.22642e-07
4.2064e-07
4.18996e-07
4.17632e-07
4.16492e-07
4.28577e-06
1.79667e-06
1.05002e-06
7.59049e-07
6.23126e-07
5.50915e-07
5.08737e-07
4.82254e-07
4.6466e-07
4.52434e-07
4.43623e-07
4.3708e-07
4.32099e-07
4.28226e-07
4.25162e-07
4.22701e-07
4.207e-07
4.19054e-07
4.17688e-07
4.16546e-07
4.28577e-06
1.79665e-06
1.04999e-06
7.59015e-07
6.23101e-07
5.50905e-07
5.08739e-07
4.82261e-07
4.64665e-07
4.52429e-07
4.43605e-07
4.37048e-07
4.32055e-07
4.28173e-07
4.25104e-07
4.22641e-07
4.20639e-07
4.18995e-07
4.17632e-07
4.16491e-07
4.28577e-06
1.79667e-06
1.05002e-06
7.59049e-07
6.23127e-07
5.50917e-07
5.08739e-07
4.82256e-07
4.64663e-07
4.52437e-07
4.43625e-07
4.37082e-07
4.321e-07
4.28227e-07
4.25163e-07
4.22702e-07
4.20701e-07
4.19055e-07
4.17689e-07
4.16547e-07
4.28577e-06
1.79665e-06
1.04999e-06
7.59016e-07
6.23102e-07
5.50907e-07
5.08741e-07
4.82263e-07
4.64667e-07
4.52432e-07
4.43607e-07
4.3705e-07
4.32057e-07
4.28175e-07
4.25106e-07
4.22643e-07
4.20641e-07
4.18997e-07
4.17634e-07
4.16493e-07
4.28577e-06
1.79667e-06
1.05002e-06
7.59049e-07
6.23128e-07
5.50918e-07
5.0874e-07
4.82258e-07
4.64665e-07
4.52439e-07
4.43627e-07
4.37083e-07
4.32102e-07
4.28229e-07
4.25164e-07
4.22703e-07
4.20702e-07
4.19056e-07
4.1769e-07
4.16548e-07
4.28577e-06
1.79665e-06
1.04999e-06
7.59018e-07
6.23104e-07
5.50908e-07
5.08742e-07
4.82265e-07
4.64669e-07
4.52434e-07
4.4361e-07
4.37053e-07
4.3206e-07
4.28178e-07
4.25109e-07
4.22646e-07
4.20645e-07
4.19e-07
4.17637e-07
4.16497e-07
4.28577e-06
1.79667e-06
1.05002e-06
7.5905e-07
6.23129e-07
5.5092e-07
5.08742e-07
4.8226e-07
4.64666e-07
4.5244e-07
4.43629e-07
4.37085e-07
4.32103e-07
4.2823e-07
4.25165e-07
4.22704e-07
4.20703e-07
4.19057e-07
4.17691e-07
4.16549e-07
4.28577e-06
1.79665e-06
1.04999e-06
7.59021e-07
6.23107e-07
5.5091e-07
5.08744e-07
4.82266e-07
4.6467e-07
4.52436e-07
4.43612e-07
4.37057e-07
4.32064e-07
4.28183e-07
4.25114e-07
4.22651e-07
4.2065e-07
4.19006e-07
4.17642e-07
4.16501e-07
4.28577e-06
1.79667e-06
1.05002e-06
7.5905e-07
6.23129e-07
5.5092e-07
5.08743e-07
4.82261e-07
4.64668e-07
4.52442e-07
4.4363e-07
4.37086e-07
4.32103e-07
4.2823e-07
4.25166e-07
4.22705e-07
4.20703e-07
4.19058e-07
4.17692e-07
4.1655e-07
4.28577e-06
1.79665e-06
1.05e-06
7.59024e-07
6.2311e-07
5.50912e-07
5.08745e-07
4.82267e-07
4.64671e-07
4.52437e-07
4.43615e-07
4.3706e-07
4.32069e-07
4.28189e-07
4.2512e-07
4.22657e-07
4.20656e-07
4.19011e-07
4.17647e-07
4.16507e-07
4.28577e-06
1.79667e-06
1.05002e-06
7.5905e-07
6.23129e-07
5.50921e-07
5.08744e-07
4.82262e-07
4.64669e-07
4.52443e-07
4.4363e-07
4.37086e-07
4.32103e-07
4.2823e-07
4.25166e-07
4.22704e-07
4.20703e-07
4.19057e-07
4.17692e-07
4.16549e-07
4.28577e-06
1.79665e-06
1.05e-06
7.59026e-07
6.23112e-07
5.50914e-07
5.08745e-07
4.82267e-07
4.64672e-07
4.52439e-07
4.43617e-07
4.37063e-07
4.32072e-07
4.28193e-07
4.25124e-07
4.22662e-07
4.2066e-07
4.19016e-07
4.17652e-07
4.16511e-07
4.28577e-06
1.79667e-06
1.05002e-06
7.59049e-07
6.23129e-07
5.50921e-07
5.08745e-07
4.82263e-07
4.6467e-07
4.52443e-07
4.43631e-07
4.37086e-07
4.32103e-07
4.28229e-07
4.25164e-07
4.22703e-07
4.20702e-07
4.19056e-07
4.17691e-07
4.16548e-07
4.28577e-06
1.79665e-06
1.05e-06
7.59028e-07
6.23113e-07
5.50914e-07
5.08746e-07
4.82268e-07
4.64672e-07
4.5244e-07
4.43619e-07
4.37065e-07
4.32074e-07
4.28195e-07
4.25127e-07
4.22664e-07
4.20663e-07
4.19018e-07
4.17654e-07
4.16513e-07
4.28577e-06
1.79667e-06
1.05002e-06
7.59048e-07
6.23129e-07
5.50922e-07
5.08746e-07
4.82264e-07
4.64671e-07
4.52444e-07
4.4363e-07
4.37085e-07
4.32102e-07
4.28228e-07
4.25163e-07
4.22701e-07
4.207e-07
4.19054e-07
4.17689e-07
4.16547e-07
4.28577e-06
1.79666e-06
1.05e-06
7.59029e-07
6.23114e-07
5.50915e-07
5.08746e-07
4.82268e-07
4.64673e-07
4.5244e-07
4.4362e-07
4.37067e-07
4.32076e-07
4.28197e-07
4.25129e-07
4.22667e-07
4.20665e-07
4.19021e-07
4.17657e-07
4.16516e-07
4.28577e-06
1.79667e-06
1.05002e-06
7.59047e-07
6.23128e-07
5.50921e-07
5.08746e-07
4.82265e-07
4.64671e-07
4.52444e-07
4.4363e-07
4.37084e-07
4.32101e-07
4.28226e-07
4.25161e-07
4.227e-07
4.20698e-07
4.19053e-07
4.17688e-07
4.16546e-07
4.28577e-06
1.79666e-06
1.05e-06
7.59031e-07
6.23116e-07
5.50916e-07
5.08747e-07
4.82268e-07
4.64673e-07
4.52441e-07
4.43621e-07
4.37068e-07
4.32079e-07
4.282e-07
4.25132e-07
4.2267e-07
4.20668e-07
4.19024e-07
4.17659e-07
4.16518e-07
4.28577e-06
1.79667e-06
1.05002e-06
7.59047e-07
6.23128e-07
5.50921e-07
5.08746e-07
4.82265e-07
4.64671e-07
4.52444e-07
4.4363e-07
4.37084e-07
4.321e-07
4.28225e-07
4.2516e-07
4.22699e-07
4.20697e-07
4.19052e-07
4.17686e-07
4.16544e-07
4.28577e-06
1.79666e-06
1.05e-06
7.59032e-07
6.23117e-07
5.50917e-07
5.08747e-07
4.82268e-07
4.64673e-07
4.52441e-07
4.43622e-07
4.3707e-07
4.3208e-07
4.28202e-07
4.25134e-07
4.22672e-07
4.20671e-07
4.19026e-07
4.17662e-07
4.16521e-07
4.28577e-06
1.79667e-06
1.05002e-06
7.59046e-07
6.23127e-07
5.50921e-07
5.08746e-07
4.82265e-07
4.64671e-07
4.52444e-07
4.43629e-07
4.37083e-07
4.32099e-07
4.28224e-07
4.25158e-07
4.22697e-07
4.20696e-07
4.1905e-07
4.17685e-07
4.16543e-07
4.28577e-06
1.79666e-06
1.05e-06
7.59032e-07
6.23116e-07
5.50916e-07
5.08747e-07
4.82268e-07
4.64673e-07
4.52441e-07
4.43621e-07
4.37069e-07
4.3208e-07
4.28201e-07
4.25134e-07
4.22671e-07
4.2067e-07
4.19025e-07
4.17661e-07
4.1652e-07
4.28577e-06
1.79666e-06
1.05001e-06
7.59045e-07
6.23126e-07
5.50921e-07
5.08746e-07
4.82265e-07
4.64671e-07
4.52443e-07
4.43629e-07
4.37082e-07
4.32097e-07
4.28222e-07
4.25156e-07
4.22695e-07
4.20693e-07
4.19048e-07
4.17683e-07
4.16541e-07
4.28577e-06
1.79666e-06
1.05e-06
7.59032e-07
6.23117e-07
5.50916e-07
5.08746e-07
4.82268e-07
4.64673e-07
4.52441e-07
4.43621e-07
4.3707e-07
4.3208e-07
4.28202e-07
4.25135e-07
4.22672e-07
4.20671e-07
4.19026e-07
4.17662e-07
4.16521e-07
4.28577e-06
1.79666e-06
1.05001e-06
7.59044e-07
6.23125e-07
5.5092e-07
5.08746e-07
4.82265e-07
4.64671e-07
4.52443e-07
4.43628e-07
4.37081e-07
4.32096e-07
4.28221e-07
4.25155e-07
4.22693e-07
4.20692e-07
4.19047e-07
4.17681e-07
4.1654e-07
4.28577e-06
1.79666e-06
1.05e-06
7.59033e-07
6.23118e-07
5.50917e-07
5.08746e-07
4.82267e-07
4.64672e-07
4.52441e-07
4.43622e-07
4.3707e-07
4.32082e-07
4.28204e-07
4.25137e-07
4.22674e-07
4.20673e-07
4.19028e-07
4.17664e-07
4.16522e-07
4.28577e-06
1.79666e-06
1.05001e-06
7.59043e-07
6.23125e-07
5.5092e-07
5.08746e-07
4.82265e-07
4.64671e-07
4.52442e-07
4.43627e-07
4.3708e-07
4.32095e-07
4.28219e-07
4.25153e-07
4.22692e-07
4.2069e-07
4.19045e-07
4.1768e-07
4.16538e-07
4.28577e-06
1.79666e-06
1.05001e-06
7.59035e-07
6.23119e-07
5.50917e-07
5.08746e-07
4.82266e-07
4.64672e-07
4.52441e-07
4.43622e-07
4.37071e-07
4.32083e-07
4.28206e-07
4.25139e-07
4.22677e-07
4.20675e-07
4.1903e-07
4.17666e-07
4.16525e-07
4.28577e-06
1.79666e-06
1.05001e-06
7.59042e-07
6.23124e-07
5.50919e-07
5.08745e-07
4.82265e-07
4.64671e-07
4.52442e-07
4.43626e-07
4.37079e-07
4.32093e-07
4.28218e-07
4.25152e-07
4.22691e-07
4.20689e-07
4.19044e-07
4.17679e-07
4.16537e-07
4.28577e-06
1.79666e-06
1.05001e-06
7.59036e-07
6.23119e-07
5.50917e-07
5.08745e-07
4.82266e-07
4.64671e-07
4.5244e-07
4.43623e-07
4.37072e-07
4.32085e-07
4.28207e-07
4.25141e-07
4.22679e-07
4.20677e-07
4.19032e-07
4.17667e-07
4.16526e-07
4.28577e-06
1.79666e-06
1.05001e-06
7.59041e-07
6.23123e-07
5.50919e-07
5.08745e-07
4.82264e-07
4.6467e-07
4.52441e-07
4.43626e-07
4.37078e-07
4.32092e-07
4.28216e-07
4.2515e-07
4.22689e-07
4.20687e-07
4.19042e-07
4.17677e-07
4.16535e-07
4.28577e-06
1.79666e-06
1.05001e-06
7.59036e-07
6.23119e-07
5.50917e-07
5.08745e-07
4.82265e-07
4.64671e-07
4.5244e-07
4.43622e-07
4.37072e-07
4.32084e-07
4.28207e-07
4.25141e-07
4.22679e-07
4.20677e-07
4.19032e-07
4.17668e-07
4.16526e-07
4.28577e-06
1.79666e-06
1.05001e-06
7.5904e-07
6.23123e-07
5.50918e-07
5.08745e-07
4.82264e-07
4.6467e-07
4.52441e-07
4.43625e-07
4.37076e-07
4.32091e-07
4.28215e-07
4.25149e-07
4.22687e-07
4.20685e-07
4.1904e-07
4.17675e-07
4.16534e-07
4.28577e-06
1.79666e-06
1.05001e-06
7.59036e-07
6.23119e-07
5.50917e-07
5.08745e-07
4.82265e-07
4.6467e-07
4.5244e-07
4.43622e-07
4.37072e-07
4.32085e-07
4.28208e-07
4.25141e-07
4.22679e-07
4.20677e-07
4.19032e-07
4.17668e-07
4.16526e-07
4.28577e-06
1.79666e-06
1.05001e-06
7.5904e-07
6.23122e-07
5.50918e-07
5.08744e-07
4.82264e-07
4.64669e-07
4.5244e-07
4.43624e-07
4.37075e-07
4.32089e-07
4.28213e-07
4.25147e-07
4.22685e-07
4.20684e-07
4.19039e-07
4.17674e-07
4.16532e-07
4.28577e-06
1.79666e-06
1.05001e-06
7.59036e-07
6.23119e-07
5.50916e-07
5.08744e-07
4.82264e-07
4.64669e-07
4.52439e-07
4.43622e-07
4.37072e-07
4.32085e-07
4.28208e-07
4.25141e-07
4.2268e-07
4.20678e-07
4.19033e-07
4.17668e-07
4.16527e-07
4.28577e-06
1.79666e-06
1.05001e-06
7.59039e-07
6.23121e-07
5.50917e-07
5.08744e-07
4.82263e-07
4.64669e-07
4.5244e-07
4.43623e-07
4.37075e-07
4.32088e-07
4.28212e-07
4.25146e-07
4.22684e-07
4.20683e-07
4.19038e-07
4.17673e-07
4.16531e-07
4.28577e-06
1.79666e-06
1.05001e-06
7.59037e-07
6.23119e-07
5.50916e-07
5.08744e-07
4.82264e-07
4.64669e-07
4.52439e-07
4.43622e-07
4.37072e-07
4.32085e-07
4.28208e-07
4.25142e-07
4.2268e-07
4.20678e-07
4.19033e-07
4.17669e-07
4.16527e-07
4.28577e-06
1.79666e-06
1.05001e-06
7.59039e-07
6.23121e-07
5.50917e-07
5.08743e-07
4.82263e-07
4.64669e-07
4.52439e-07
4.43623e-07
4.37074e-07
4.32088e-07
4.28211e-07
4.25145e-07
4.22684e-07
4.20682e-07
4.19037e-07
4.17672e-07
4.1653e-07
4.28577e-06
1.79666e-06
1.05001e-06
7.59037e-07
6.23119e-07
5.50916e-07
5.08743e-07
4.82263e-07
4.64669e-07
4.52438e-07
4.43621e-07
4.37072e-07
4.32085e-07
4.28208e-07
4.25142e-07
4.2268e-07
4.20678e-07
4.19033e-07
4.17668e-07
4.16527e-07
4.28577e-06
1.79666e-06
1.05001e-06
7.59038e-07
6.2312e-07
5.50916e-07
5.08743e-07
4.82263e-07
4.64668e-07
4.52439e-07
4.43622e-07
4.37073e-07
4.32087e-07
4.28211e-07
4.25144e-07
4.22682e-07
4.20681e-07
4.19036e-07
4.17671e-07
4.16529e-07
4.28577e-06
1.79666e-06
1.05001e-06
7.59037e-07
6.23119e-07
5.50916e-07
5.08743e-07
4.82263e-07
4.64668e-07
4.52438e-07
4.43621e-07
4.37072e-07
4.32085e-07
4.28208e-07
4.25142e-07
4.2268e-07
4.20678e-07
4.19033e-07
4.17668e-07
4.16527e-07
4.28577e-06
1.79666e-06
1.05001e-06
7.59038e-07
6.2312e-07
5.50916e-07
5.08743e-07
4.82262e-07
4.64668e-07
4.52438e-07
4.43621e-07
4.37072e-07
4.32086e-07
4.28209e-07
4.25143e-07
4.22681e-07
4.2068e-07
4.19035e-07
4.1767e-07
4.16528e-07
4.28577e-06
1.79666e-06
1.05001e-06
7.59037e-07
6.23119e-07
5.50916e-07
5.08743e-07
4.82262e-07
4.64668e-07
4.52438e-07
4.43621e-07
4.37072e-07
4.32085e-07
4.28208e-07
4.25142e-07
4.2268e-07
4.20679e-07
4.19033e-07
4.17669e-07
4.16527e-07
4.28577e-06
1.79666e-06
1.05001e-06
7.59037e-07
6.23119e-07
5.50915e-07
5.08742e-07
4.82262e-07
4.64668e-07
4.52438e-07
4.43621e-07
4.37072e-07
4.32085e-07
4.28208e-07
4.25142e-07
4.2268e-07
4.20679e-07
4.19034e-07
4.17669e-07
4.16527e-07
4.28577e-06
1.79666e-06
1.05001e-06
7.59037e-07
6.23119e-07
5.50915e-07
5.08742e-07
4.82262e-07
4.64667e-07
4.52437e-07
4.43621e-07
4.37071e-07
4.32085e-07
4.28208e-07
4.25142e-07
4.2268e-07
4.20678e-07
4.19033e-07
4.17668e-07
4.16527e-07
4.28577e-06
1.79666e-06
1.05001e-06
7.59037e-07
6.23119e-07
5.50915e-07
5.08742e-07
4.82262e-07
4.64667e-07
4.52437e-07
4.4362e-07
4.37071e-07
4.32084e-07
4.28208e-07
4.25141e-07
4.22679e-07
4.20678e-07
4.19033e-07
4.17668e-07
4.16526e-07
4.28577e-06
1.79666e-06
1.05001e-06
7.59037e-07
6.23119e-07
5.50915e-07
5.08742e-07
4.82262e-07
4.64667e-07
4.52437e-07
4.43621e-07
4.37072e-07
4.32085e-07
4.28208e-07
4.25142e-07
4.2268e-07
4.20679e-07
4.19034e-07
4.17669e-07
4.16527e-07
4.28577e-06
1.79666e-06
1.05001e-06
7.59036e-07
6.23119e-07
5.50915e-07
5.08742e-07
4.82262e-07
4.64667e-07
4.52437e-07
4.4362e-07
4.37071e-07
4.32084e-07
4.28207e-07
4.25141e-07
4.22679e-07
4.20677e-07
4.19032e-07
4.17667e-07
4.16526e-07
4.28577e-06
1.79666e-06
1.05001e-06
7.59037e-07
6.23119e-07
5.50915e-07
5.08742e-07
4.82262e-07
4.64667e-07
4.52437e-07
4.43621e-07
4.37072e-07
4.32085e-07
4.28209e-07
4.25142e-07
4.2268e-07
4.20679e-07
4.19034e-07
4.17669e-07
4.16527e-07
4.28577e-06
1.79666e-06
1.05001e-06
7.59037e-07
6.23119e-07
5.50915e-07
5.08742e-07
4.82262e-07
4.64667e-07
4.52437e-07
4.4362e-07
4.37071e-07
4.32085e-07
4.28208e-07
4.25142e-07
4.2268e-07
4.20679e-07
4.19033e-07
4.17669e-07
4.16527e-07
4.28577e-06
1.79666e-06
1.05001e-06
7.59037e-07
6.23119e-07
5.50915e-07
5.08742e-07
4.82262e-07
4.64667e-07
4.52437e-07
4.4362e-07
4.37071e-07
4.32085e-07
4.28208e-07
4.25142e-07
4.2268e-07
4.20679e-07
4.19034e-07
4.17669e-07
4.16527e-07
4.28577e-06
1.79666e-06
1.05001e-06
7.59038e-07
6.2312e-07
5.50915e-07
5.08742e-07
4.82262e-07
4.64667e-07
4.52437e-07
4.43621e-07
4.37072e-07
4.32086e-07
4.2821e-07
4.25143e-07
4.22682e-07
4.2068e-07
4.19035e-07
4.1767e-07
4.16528e-07
4.28577e-06
1.79666e-06
1.05001e-06
7.59037e-07
6.23119e-07
5.50915e-07
5.08742e-07
4.82262e-07
4.64667e-07
4.52437e-07
4.43621e-07
4.37071e-07
4.32085e-07
4.28208e-07
4.25142e-07
4.2268e-07
4.20679e-07
4.19033e-07
4.17669e-07
4.16527e-07
4.28577e-06
1.79666e-06
1.05001e-06
7.59037e-07
6.23119e-07
5.50916e-07
5.08743e-07
4.82262e-07
4.64668e-07
4.52438e-07
4.43621e-07
4.37072e-07
4.32085e-07
4.28209e-07
4.25143e-07
4.22681e-07
4.20679e-07
4.19034e-07
4.17669e-07
4.16528e-07
4.28577e-06
1.79666e-06
1.05001e-06
7.59038e-07
6.2312e-07
5.50916e-07
5.08743e-07
4.82262e-07
4.64668e-07
4.52438e-07
4.43621e-07
4.37072e-07
4.32085e-07
4.28209e-07
4.25143e-07
4.22681e-07
4.20679e-07
4.19034e-07
4.17669e-07
4.16528e-07
4.28577e-06
1.79666e-06
1.05001e-06
7.59039e-07
6.23122e-07
5.50918e-07
5.08745e-07
4.82265e-07
4.6467e-07
4.5244e-07
4.43624e-07
4.37074e-07
4.32088e-07
4.28211e-07
4.25145e-07
4.22683e-07
4.20681e-07
4.19036e-07
4.17671e-07
4.16529e-07
2.58588e-06
3.57102e-06
4.52181e-06
5.44671e-06
6.34747e-06
7.22199e-06
8.06761e-06
8.88035e-06
9.65701e-06
1.03938e-05
1.10881e-05
1.1737e-05
1.23392e-05
1.28929e-05
1.33983e-05
1.38548e-05
1.42637e-05
1.46258e-05
1.49434e-05
1.5218e-05
1.54527e-05
1.56493e-05
1.58116e-05
1.59414e-05
1.60427e-05
1.61171e-05
1.61685e-05
1.61984e-05
1.62104e-05
1.62055e-05
1.61872e-05
1.61559e-05
1.6115e-05
1.60643e-05
1.6007e-05
1.59424e-05
1.58738e-05
1.57996e-05
1.57234e-05
1.56431e-05
1.55623e-05
1.54785e-05
1.53957e-05
1.53106e-05
1.52277e-05
1.51432e-05
1.50623e-05
1.49805e-05
1.49036e-05
1.48264e-05
1.47558e-05
1.46857e-05
1.46238e-05
1.45628e-05
1.45115e-05
1.44612e-05
1.44215e-05
1.43816e-05
1.43524e-05
1.43208e-05
1.42991e-05
1.42719e-05
1.42536e-05
1.42271e-05
1.42093e-05
1.41813e-05
1.41629e-05
1.41332e-05
1.41145e-05
1.40836e-05
1.40654e-05
1.40334e-05
1.40161e-05
1.39824e-05
1.39655e-05
1.393e-05
1.3913e-05
1.38759e-05
1.3858e-05
1.38191e-05
4.20175e-07
4.30371e-07
4.48607e-07
4.75597e-07
5.10576e-07
5.51796e-07
5.97989e-07
6.49341e-07
7.07419e-07
7.74197e-07
8.51364e-07
9.39929e-07
1.04038e-06
1.1527e-06
1.27662e-06
1.41158e-06
1.55701e-06
1.7121e-06
1.87616e-06
2.04829e-06
2.22786e-06
2.41396e-06
2.60612e-06
2.80353e-06
3.00598e-06
3.21282e-06
3.42417e-06
3.63958e-06
3.85962e-06
4.08405e-06
4.31395e-06
4.54933e-06
4.79184e-06
5.04175e-06
5.30141e-06
5.57131e-06
5.85461e-06
6.15201e-06
6.46763e-06
6.80233e-06
7.16132e-06
7.54553e-06
7.96137e-06
8.40961e-06
8.89788e-06
9.4263e-06
1.00035e-05
1.0628e-05
1.13087e-05
1.20414e-05
1.28335e-05
1.36759e-05
1.45732e-05
1.55088e-05
1.64833e-05
1.74713e-05
1.84705e-05
1.94485e-05
2.04046e-05
2.13049e-05
2.21579e-05
2.29337e-05
2.36564e-05
2.43013e-05
2.49078e-05
2.54498e-05
2.59761e-05
2.64503e-05
2.69237e-05
2.73464e-05
2.77718e-05
2.81404e-05
2.85147e-05
2.88258e-05
2.91571e-05
2.94178e-05
2.9724e-05
2.99426e-05
3.02316e-05
3.04068e-05
4.15256e-07
4.14164e-07
4.13127e-07
4.12179e-07
4.11361e-07
4.10707e-07
4.10239e-07
4.09963e-07
4.09853e-07
4.0985e-07
4.09856e-07
4.09738e-07
4.09348e-07
4.08545e-07
4.07234e-07
4.05407e-07
4.03175e-07
4.00775e-07
3.98565e-07
3.96978e-07
3.9649e-07
3.97559e-07
4.00607e-07
4.05991e-07
4.1402e-07
4.24934e-07
4.38959e-07
4.5627e-07
4.77071e-07
5.01522e-07
5.29868e-07
5.62288e-07
5.99124e-07
6.40609e-07
6.87232e-07
7.39324e-07
7.97593e-07
8.6253e-07
9.35157e-07
1.01622e-06
1.10721e-06
1.20927e-06
1.32455e-06
1.45482e-06
1.60323e-06
1.77243e-06
1.96702e-06
2.19092e-06
2.45081e-06
2.75217e-06
3.1045e-06
3.515e-06
3.99645e-06
4.5573e-06
5.2133e-06
5.97226e-06
6.85091e-06
7.85229e-06
8.99002e-06
1.02559e-05
1.16551e-05
1.31613e-05
1.47683e-05
1.64288e-05
1.81296e-05
1.98082e-05
2.14586e-05
2.30171e-05
2.45024e-05
2.58621e-05
2.71476e-05
2.83181e-05
2.94488e-05
3.04932e-05
3.15395e-05
3.25069e-05
3.35061e-05
3.43945e-05
3.53376e-05
3.6113e-05
4.15302e-07
4.14169e-07
4.13032e-07
4.11892e-07
4.1075e-07
4.09606e-07
4.08462e-07
4.07318e-07
4.06175e-07
4.05035e-07
4.03898e-07
4.02764e-07
4.01632e-07
4.005e-07
3.99365e-07
3.9822e-07
3.97057e-07
3.95865e-07
3.9463e-07
3.93335e-07
3.91962e-07
3.90487e-07
3.88889e-07
3.87143e-07
3.85229e-07
3.83122e-07
3.8081e-07
3.78278e-07
3.75524e-07
3.72552e-07
3.69378e-07
3.66031e-07
3.62552e-07
3.59001e-07
3.55447e-07
3.51988e-07
3.48725e-07
3.45792e-07
3.4333e-07
3.41511e-07
3.40523e-07
3.40582e-07
3.41944e-07
3.44894e-07
3.49791e-07
3.57036e-07
3.67172e-07
3.80806e-07
3.98815e-07
4.22171e-07
4.52374e-07
4.91053e-07
5.40837e-07
6.04544e-07
6.86799e-07
7.92511e-07
9.29652e-07
1.10656e-06
1.33636e-06
1.63225e-06
2.01422e-06
2.5006e-06
3.11847e-06
3.88816e-06
4.84033e-06
5.98805e-06
7.35753e-06
8.93885e-06
1.07435e-05
1.27232e-05
1.48694e-05
1.70946e-05
1.93806e-05
2.1622e-05
2.38231e-05
2.58832e-05
2.78724e-05
2.96818e-05
3.14712e-05
3.30622e-05
4.15288e-07
4.14154e-07
4.13016e-07
4.11875e-07
4.10729e-07
4.0958e-07
4.08428e-07
4.07273e-07
4.06114e-07
4.04953e-07
4.0379e-07
4.02624e-07
4.01457e-07
4.00287e-07
3.99116e-07
3.97943e-07
3.96768e-07
3.95592e-07
3.94415e-07
3.93236e-07
3.92055e-07
3.90872e-07
3.89686e-07
3.88497e-07
3.87303e-07
3.86103e-07
3.84896e-07
3.8368e-07
3.82452e-07
3.8121e-07
3.79949e-07
3.78668e-07
3.77361e-07
3.76023e-07
3.7465e-07
3.73234e-07
3.71769e-07
3.70247e-07
3.6866e-07
3.66999e-07
3.65252e-07
3.63412e-07
3.61463e-07
3.59398e-07
3.57199e-07
3.54857e-07
3.52358e-07
3.49693e-07
3.46852e-07
3.43837e-07
3.40652e-07
3.37334e-07
3.33933e-07
3.30573e-07
3.27433e-07
3.24848e-07
3.23306e-07
3.23599e-07
3.26882e-07
3.34827e-07
3.49873e-07
3.75319e-07
4.16035e-07
4.78479e-07
5.7226e-07
7.1e-07
9.10006e-07
1.19491e-06
1.5961e-06
2.14744e-06
2.89331e-06
3.87259e-06
5.12928e-06
6.69212e-06
8.57371e-06
1.07714e-05
1.32352e-05
1.59161e-05
1.87e-05
2.15125e-05
4.15309e-07
4.14175e-07
4.13037e-07
4.11895e-07
4.1075e-07
4.09602e-07
4.08451e-07
4.07297e-07
4.0614e-07
4.04981e-07
4.03819e-07
4.02654e-07
4.01487e-07
4.00318e-07
3.99146e-07
3.97973e-07
3.96798e-07
3.95621e-07
3.94443e-07
3.93263e-07
3.92082e-07
3.909e-07
3.89716e-07
3.88532e-07
3.87347e-07
3.8616e-07
3.84974e-07
3.83786e-07
3.82598e-07
3.81409e-07
3.8022e-07
3.7903e-07
3.77839e-07
3.76648e-07
3.75455e-07
3.74261e-07
3.73066e-07
3.71869e-07
3.7067e-07
3.69467e-07
3.68261e-07
3.67051e-07
3.65834e-07
3.64611e-07
3.63379e-07
3.62137e-07
3.60881e-07
3.5961e-07
3.5832e-07
3.57006e-07
3.55663e-07
3.54285e-07