/*--------------------------------*- C++ -*----------------------------------*\
| =========                 |                                                 |
| \\      /  F ield         | OpenFOAM: The Open Source CFD Toolbox           |
|  \\    /   O peration     | Version:  2.4.0                                 |
|   \\  /    A nd           | Web:      www.OpenFOAM.org                      |
|    \\/     M anipulation  |                                                 |
\*---------------------------------------------------------------------------*/
FoamFile
{
    version     2.0;
    format      ascii;
    class       volScalarField;
    location    "150";
    object      nut;
}
// * * * * * * * * * * * * * * * * * * * * * * * * * * * * * * * * * * * * * //

dimensions      [0 2 -1 0 0 0 0];

internalField   nonuniform List<scalar> 
12225
(
3.37634e-09
1.09782e-08
2.88809e-08
6.30329e-08
1.16081e-07
1.83776e-07
2.55887e-07
3.21421e-07
3.73409e-07
4.10031e-07
4.32992e-07
4.45386e-07
4.50275e-07
4.50076e-07
4.46516e-07
4.40394e-07
4.33516e-07
4.17961e-07
1.81405e-09
2.18208e-09
2.93738e-09
4.33851e-09
6.77801e-09
1.07891e-08
1.6995e-08
2.60026e-08
3.82825e-08
5.40911e-08
7.34569e-08
9.62196e-08
1.22095e-07
1.50744e-07
1.81824e-07
2.15106e-07
2.5021e-07
2.89053e-07
1.74007e-09
1.7193e-09
1.71611e-09
1.74027e-09
1.80447e-09
1.92319e-09
2.11299e-09
2.39319e-09
2.78678e-09
3.32114e-09
4.02869e-09
4.94746e-09
6.12146e-09
7.60231e-09
9.44877e-09
1.17451e-08
1.45487e-08
1.82404e-08
1.7476e-09
1.74586e-09
1.7396e-09
1.72812e-09
1.71271e-09
1.68667e-09
1.66378e-09
1.64746e-09
1.63801e-09
1.63668e-09
1.64506e-09
1.6648e-09
1.69756e-09
1.74516e-09
1.80945e-09
1.89401e-09
1.99903e-09
2.14515e-09
1.74769e-09
1.75011e-09
1.75185e-09
1.75285e-09
1.75288e-09
1.75122e-09
1.74762e-09
1.74205e-09
1.73455e-09
1.72519e-09
1.71409e-09
1.70141e-09
1.68734e-09
1.67195e-09
1.65535e-09
1.63515e-09
1.61763e-09
1.5993e-09
1.74739e-09
1.74967e-09
1.75162e-09
1.75348e-09
1.7553e-09
1.75708e-09
1.75879e-09
1.76031e-09
1.76157e-09
1.76245e-09
1.76288e-09
1.76275e-09
1.76196e-09
1.76038e-09
1.75793e-09
1.75424e-09
1.74965e-09
1.74203e-09
1.7471e-09
1.74908e-09
1.75077e-09
1.75237e-09
1.7539e-09
1.75541e-09
1.75688e-09
1.75834e-09
1.75979e-09
1.76123e-09
1.76265e-09
1.76405e-09
1.76543e-09
1.76678e-09
1.76808e-09
1.76932e-09
1.7705e-09
1.77144e-09
1.74689e-09
1.7486e-09
1.75008e-09
1.75147e-09
1.75281e-09
1.7541e-09
1.75535e-09
1.75657e-09
1.75775e-09
1.7589e-09
1.76003e-09
1.76113e-09
1.76222e-09
1.7633e-09
1.76437e-09
1.76546e-09
1.76656e-09
1.7677e-09
1.74673e-09
1.74823e-09
1.74954e-09
1.75077e-09
1.75196e-09
1.7531e-09
1.75421e-09
1.75529e-09
1.75633e-09
1.75733e-09
1.75831e-09
1.75925e-09
1.76017e-09
1.76106e-09
1.76193e-09
1.76277e-09
1.7636e-09
1.76437e-09
1.74658e-09
1.74789e-09
1.74903e-09
1.7501e-09
1.75113e-09
1.75212e-09
1.75308e-09
1.754e-09
1.7549e-09
1.75576e-09
1.7566e-09
1.75741e-09
1.75819e-09
1.75895e-09
1.75969e-09
1.7604e-09
1.7611e-09
1.76173e-09
1.74645e-09
1.74758e-09
1.74857e-09
1.74949e-09
1.75038e-09
1.75124e-09
1.75206e-09
1.75286e-09
1.75363e-09
1.75437e-09
1.75509e-09
1.75578e-09
1.75645e-09
1.7571e-09
1.75772e-09
1.75833e-09
1.75892e-09
1.75945e-09
1.74633e-09
1.7473e-09
1.74815e-09
1.74894e-09
1.74971e-09
1.75044e-09
1.75115e-09
1.75183e-09
1.75249e-09
1.75312e-09
1.75374e-09
1.75433e-09
1.7549e-09
1.75545e-09
1.75598e-09
1.75649e-09
1.757e-09
1.75744e-09
1.74623e-09
1.74706e-09
1.74778e-09
1.74845e-09
1.7491e-09
1.74973e-09
1.75033e-09
1.75091e-09
1.75147e-09
1.752e-09
1.75252e-09
1.75302e-09
1.75351e-09
1.75397e-09
1.75442e-09
1.75485e-09
1.75528e-09
1.75565e-09
1.74613e-09
1.74683e-09
1.74744e-09
1.74801e-09
1.74855e-09
1.74908e-09
1.74958e-09
1.75007e-09
1.75054e-09
1.75099e-09
1.75143e-09
1.75184e-09
1.75225e-09
1.75264e-09
1.75301e-09
1.75337e-09
1.75373e-09
1.75403e-09
1.74605e-09
1.74662e-09
1.74712e-09
1.74759e-09
1.74804e-09
1.74847e-09
1.74889e-09
1.74929e-09
1.74968e-09
1.75005e-09
1.75041e-09
1.75075e-09
1.75108e-09
1.7514e-09
1.75171e-09
1.752e-09
1.7523e-09
1.75254e-09
1.74596e-09
1.74642e-09
1.74681e-09
1.74719e-09
1.74754e-09
1.74789e-09
1.74821e-09
1.74853e-09
1.74884e-09
1.74913e-09
1.74941e-09
1.74969e-09
1.74995e-09
1.7502e-09
1.75044e-09
1.75068e-09
1.75091e-09
1.75109e-09
1.74587e-09
1.7462e-09
1.74649e-09
1.74676e-09
1.74702e-09
1.74727e-09
1.74751e-09
1.74774e-09
1.74796e-09
1.74817e-09
1.74837e-09
1.74857e-09
1.74876e-09
1.74895e-09
1.74912e-09
1.74929e-09
1.74946e-09
1.74959e-09
1.74578e-09
1.74597e-09
1.74614e-09
1.7463e-09
1.74645e-09
1.7466e-09
1.74674e-09
1.74688e-09
1.74701e-09
1.74713e-09
1.74726e-09
1.74737e-09
1.74749e-09
1.7476e-09
1.7477e-09
1.74781e-09
1.74791e-09
1.74798e-09
1.74566e-09
1.74569e-09
1.7457e-09
1.74571e-09
1.74572e-09
1.74572e-09
1.74573e-09
1.74574e-09
1.74575e-09
1.74576e-09
1.74577e-09
1.74578e-09
1.7458e-09
1.74581e-09
1.74582e-09
1.74583e-09
1.74585e-09
1.74586e-09
1.74569e-09
1.74575e-09
1.74579e-09
1.74583e-09
1.74587e-09
1.74591e-09
1.74594e-09
1.74598e-09
1.74601e-09
1.74605e-09
1.74608e-09
1.74611e-09
1.74613e-09
1.74616e-09
1.74619e-09
1.74621e-09
1.74623e-09
1.74628e-09
1.74582e-09
1.74605e-09
1.74625e-09
1.74644e-09
1.74662e-09
1.7468e-09
1.74696e-09
1.74713e-09
1.74728e-09
1.74743e-09
1.74757e-09
1.74771e-09
1.74784e-09
1.74796e-09
1.74808e-09
1.74819e-09
1.74829e-09
1.74841e-09
1.74595e-09
1.74637e-09
1.74673e-09
1.74706e-09
1.74739e-09
1.7477e-09
1.748e-09
1.74829e-09
1.74857e-09
1.74883e-09
1.74909e-09
1.74933e-09
1.74957e-09
1.7498e-09
1.75001e-09
1.75022e-09
1.75041e-09
1.75062e-09
1.7461e-09
1.74673e-09
1.74727e-09
1.74778e-09
1.74826e-09
1.74873e-09
1.74918e-09
1.74961e-09
1.75003e-09
1.75043e-09
1.75081e-09
1.75118e-09
1.75154e-09
1.75188e-09
1.7522e-09
1.75252e-09
1.75281e-09
1.75311e-09
1.74629e-09
1.74716e-09
1.74791e-09
1.74861e-09
1.74929e-09
1.74994e-09
1.75056e-09
1.75116e-09
1.75175e-09
1.75231e-09
1.75285e-09
1.75337e-09
1.75387e-09
1.75435e-09
1.75481e-09
1.75526e-09
1.75568e-09
1.7561e-09
1.74652e-09
1.74768e-09
1.74867e-09
1.74961e-09
1.75051e-09
1.75139e-09
1.75225e-09
1.75309e-09
1.75391e-09
1.75471e-09
1.75548e-09
1.75622e-09
1.75694e-09
1.75762e-09
1.75827e-09
1.75889e-09
1.75948e-09
1.76002e-09
1.7468e-09
1.74827e-09
1.74954e-09
1.75074e-09
1.75185e-09
1.75283e-09
1.75366e-09
1.75428e-09
1.75468e-09
1.75485e-09
1.75477e-09
1.75444e-09
1.75389e-09
1.75311e-09
1.75212e-09
1.75099e-09
1.74968e-09
1.74862e-09
1.74709e-09
1.74828e-09
1.74792e-09
1.74601e-09
1.74249e-09
1.73735e-09
1.73071e-09
1.72273e-09
1.71364e-09
1.70368e-09
1.69311e-09
1.68206e-09
1.67076e-09
1.65794e-09
1.64567e-09
1.6359e-09
1.62793e-09
1.6226e-09
1.74489e-09
1.73598e-09
1.708e-09
1.68938e-09
1.67824e-09
1.67481e-09
1.6804e-09
1.69652e-09
1.72457e-09
1.76576e-09
1.82113e-09
1.89147e-09
1.97744e-09
2.07948e-09
2.19796e-09
2.3327e-09
2.4847e-09
2.64884e-09
1.74936e-09
1.85485e-09
2.08097e-09
2.46171e-09
3.04445e-09
3.89317e-09
5.09132e-09
6.74103e-09
8.95891e-09
1.18691e-08
1.55945e-08
2.0247e-08
2.59185e-08
3.2674e-08
4.05493e-08
4.95344e-08
5.96411e-08
7.05419e-08
2.93852e-09
7.55751e-09
1.69999e-08
3.42656e-08
6.28016e-08
1.05794e-07
1.65262e-07
2.4131e-07
3.3187e-07
4.33058e-07
5.39979e-07
6.4765e-07
7.51754e-07
8.49061e-07
9.37538e-07
1.01622e-06
1.08506e-06
1.14448e-06
5.67325e-10
4.54552e-10
2.35023e-09
5.34897e-09
8.1119e-09
1.0989e-08
1.40498e-08
1.73572e-08
2.02787e-08
2.27517e-08
2.47931e-08
2.64553e-08
2.777e-08
2.87345e-08
2.93779e-08
2.95124e-08
2.89292e-08
2.78361e-08
2.65778e-08
2.54459e-08
2.48536e-08
2.48319e-08
2.51504e-08
2.71255e-08
2.84982e-08
1.59165e-08
7.48069e-09
5.1616e-10
4.13801e-12
2.64288e-08
1.70478e-07
4.43555e-07
8.45729e-07
1.36959e-06
1.99701e-06
2.70081e-06
3.44812e-06
4.20527e-06
4.94147e-06
5.63149e-06
6.25654e-06
6.80434e-06
7.26834e-06
7.64679e-06
7.94149e-06
8.15694e-06
8.29916e-06
8.37526e-06
8.39254e-06
8.35848e-06
8.28008e-06
8.16414e-06
8.01668e-06
7.84331e-06
7.64874e-06
7.43734e-06
7.21264e-06
6.97788e-06
6.73569e-06
6.48855e-06
6.23839e-06
5.98712e-06
5.73615e-06
5.48684e-06
5.24014e-06
4.99701e-06
4.75806e-06
4.52389e-06
4.29493e-06
4.0716e-06
3.8541e-06
3.6428e-06
3.43782e-06
3.23932e-06
3.04751e-06
2.86258e-06
2.68437e-06
2.51309e-06
2.34882e-06
2.19172e-06
2.04299e-06
1.90225e-06
1.76909e-06
1.64312e-06
1.52395e-06
1.41125e-06
1.30467e-06
1.20395e-06
1.10882e-06
1.01909e-06
9.34546e-07
8.5506e-07
7.80487e-07
7.10683e-07
6.45527e-07
5.84895e-07
5.28631e-07
4.76606e-07
4.28687e-07
3.8469e-07
3.44426e-07
3.07736e-07
2.7439e-07
2.44115e-07
2.16715e-07
1.91969e-07
1.69578e-07
1.49354e-07
1.31199e-07
1.14872e-07
1.00175e-07
8.70874e-08
7.5432e-08
6.48814e-08
5.53707e-08
4.69016e-08
3.90797e-08
3.18236e-08
2.54773e-08
1.9989e-08
1.4705e-08
1.07122e-08
8.89995e-09
1.1424e-08
1.78698e-08
2.17661e-08
2.57209e-08
3.02146e-08
3.54708e-08
4.16574e-08
4.89696e-08
5.76126e-08
6.78256e-08
7.98627e-08
9.40129e-08
1.10576e-07
1.29871e-07
1.52193e-07
1.77817e-07
2.06956e-07
2.3976e-07
2.76268e-07
3.164e-07
3.59814e-07
4.06268e-07
4.54112e-07
5.00678e-07
5.44547e-07
5.84754e-07
6.20576e-07
6.51519e-07
6.77295e-07
6.97815e-07
7.13144e-07
7.23493e-07
7.29174e-07
7.30583e-07
7.28159e-07
7.2237e-07
7.13685e-07
7.0256e-07
6.89423e-07
6.74672e-07
6.58661e-07
6.41703e-07
6.24069e-07
6.05986e-07
5.87639e-07
5.69174e-07
5.50699e-07
5.32275e-07
5.1393e-07
4.95636e-07
4.77314e-07
4.58813e-07
4.39861e-07
4.20222e-07
3.98246e-07
3.79224e-07
3.22747e-07
5.05858e-11
3.41368e-09
1.16266e-08
2.1095e-08
3.34825e-08
4.86621e-08
6.56361e-08
8.33796e-08
9.6497e-08
1.0852e-07
1.19047e-07
1.26964e-07
1.31642e-07
1.31878e-07
1.27056e-07
1.1913e-07
1.1036e-07
1.01544e-07
9.31819e-08
8.52656e-08
8.03568e-08
8.30809e-08
8.37831e-08
9.1368e-08
6.25112e-08
5.3925e-08
1.19032e-07
3.04684e-07
8.95963e-07
2.29092e-06
3.53899e-06
4.53616e-06
5.19806e-06
5.52761e-06
5.5634e-06
5.36557e-06
5.00088e-06
4.53301e-06
4.01633e-06
3.49318e-06
2.99282e-06
2.53405e-06
2.12659e-06
1.77353e-06
1.47339e-06
1.22196e-06
1.01364e-06
8.42398e-07
7.02382e-07
5.88271e-07
4.95415e-07
4.19863e-07
3.58329e-07
3.08127e-07
2.67069e-07
2.33391e-07
2.05691e-07
1.82843e-07
1.63939e-07
1.48268e-07
1.35262e-07
1.24455e-07
1.15478e-07
1.08054e-07
1.01936e-07
9.69459e-08
9.2936e-08
8.98398e-08
8.76289e-08
8.64346e-08
8.5956e-08
8.59355e-08
8.62654e-08
8.66839e-08
8.74038e-08
8.84073e-08
8.96955e-08
9.12652e-08
9.3109e-08
9.52107e-08
9.7426e-08
9.97451e-08
1.0215e-07
1.04617e-07
1.07121e-07
1.0963e-07
1.12112e-07
1.14534e-07
1.16863e-07
1.19069e-07
1.21124e-07
1.23e-07
1.24672e-07
1.26108e-07
1.27278e-07
1.28143e-07
1.2866e-07
1.28779e-07
1.28451e-07
1.27622e-07
1.26245e-07
1.24282e-07
1.21712e-07
1.18535e-07
1.14779e-07
1.10498e-07
1.05773e-07
1.00705e-07
9.54078e-08
8.99986e-08
8.45901e-08
7.92837e-08
7.41619e-08
6.9297e-08
6.47253e-08
6.04664e-08
5.65242e-08
5.29435e-08
4.96708e-08
4.66407e-08
4.37507e-08
4.08047e-08
3.75204e-08
3.3597e-08
3.007e-08
2.76003e-08
2.5816e-08
2.44688e-08
2.34322e-08
2.26434e-08
2.20657e-08
2.16771e-08
2.14647e-08
2.14225e-08
2.15512e-08
2.18578e-08
2.23539e-08
2.3056e-08
2.39866e-08
2.51747e-08
2.66584e-08
2.84851e-08
3.07108e-08
3.34175e-08
3.66429e-08
4.05807e-08
4.5566e-08
5.18517e-08
5.97213e-08
6.94518e-08
8.13305e-08
9.56604e-08
1.12747e-07
1.32891e-07
1.56364e-07
1.83401e-07
2.1418e-07
2.48809e-07
2.87316e-07
3.29648e-07
3.7566e-07
4.25137e-07
4.77785e-07
5.33267e-07
5.91199e-07
6.51188e-07
7.12836e-07
7.75773e-07
8.39653e-07
9.04188e-07
9.69134e-07
1.03432e-06
1.09962e-06
1.16496e-06
1.23032e-06
1.29569e-06
1.36102e-06
1.42615e-06
1.49049e-06
1.55382e-06
5.8889e-11
2.55857e-09
9.3783e-09
2.39268e-08
4.68785e-08
7.72767e-08
1.18171e-07
1.71861e-07
2.43323e-07
3.24519e-07
4.05363e-07
4.75832e-07
5.28226e-07
5.5858e-07
5.65948e-07
5.5023e-07
5.15233e-07
4.69266e-07
4.21391e-07
3.77942e-07
3.38888e-07
2.84986e-07
1.51432e-07
1.7697e-07
2.97946e-07
6.58714e-07
1.47894e-06
2.69873e-06
3.94216e-06
4.62311e-06
4.63257e-06
4.22968e-06
3.58804e-06
2.87388e-06
2.20053e-06
1.6285e-06
1.1785e-06
8.44317e-07
6.08063e-07
4.39029e-07
3.21561e-07
2.4132e-07
1.86843e-07
1.49952e-07
1.25063e-07
1.08442e-07
9.7619e-08
9.09657e-08
8.74063e-08
8.62248e-08
8.69367e-08
8.92067e-08
9.27945e-08
9.75211e-08
1.03244e-07
1.09844e-07
1.17215e-07
1.25262e-07
1.3389e-07
1.43011e-07
1.52537e-07
1.62385e-07
1.72477e-07
1.82736e-07
1.93097e-07
2.03499e-07
2.13879e-07
2.24188e-07
2.34374e-07
2.44385e-07
2.54172e-07
2.63714e-07
2.72947e-07
2.81829e-07
2.90394e-07
2.98845e-07
3.07289e-07
3.15751e-07
3.24246e-07
3.32778e-07
3.41337e-07
3.49892e-07
3.5839e-07
3.66756e-07
3.74897e-07
3.82711e-07
3.9009e-07
3.96937e-07
4.03154e-07
4.08657e-07
4.13376e-07
4.1724e-07
4.20163e-07
4.22052e-07
4.22791e-07
4.22216e-07
4.20152e-07
4.1639e-07
4.10687e-07
4.02795e-07
3.92491e-07
3.79582e-07
3.63965e-07
3.45641e-07
3.24765e-07
3.01677e-07
2.76872e-07
2.50976e-07
2.24702e-07
1.98804e-07
1.73968e-07
1.50773e-07
1.29614e-07
1.1072e-07
9.41368e-08
7.98652e-08
6.77105e-08
5.74673e-08
4.88176e-08
4.15016e-08
3.51085e-08
2.98685e-08
2.54429e-08
2.22517e-08
1.98404e-08
1.79768e-08
1.65121e-08
1.53491e-08
1.44191e-08
1.36741e-08
1.30778e-08
1.26032e-08
1.22291e-08
1.19399e-08
1.17237e-08
1.1572e-08
1.14782e-08
1.14374e-08
1.14461e-08
1.15025e-08
1.16062e-08
1.17584e-08
1.19612e-08
1.22183e-08
1.25343e-08
1.2915e-08
1.33741e-08
1.39148e-08
1.45482e-08
1.53089e-08
1.62363e-08
1.73769e-08
1.87868e-08
2.0533e-08
2.26962e-08
2.53727e-08
2.8678e-08
3.27489e-08
3.77464e-08
4.38576e-08
5.12972e-08
6.03064e-08
7.11525e-08
8.41245e-08
9.95293e-08
1.17685e-07
1.38914e-07
1.63536e-07
1.91865e-07
2.24203e-07
2.60843e-07
3.02078e-07
3.48217e-07
3.99611e-07
4.56693e-07
5.20129e-07
5.9052e-07
6.70862e-07
7.55486e-07
8.91748e-07
1.80985e-11
2.34105e-09
1.68843e-08
4.75054e-08
9.01807e-08
1.53331e-07
2.56904e-07
4.06374e-07
5.90195e-07
7.88393e-07
9.78084e-07
1.13766e-06
1.24995e-06
1.30475e-06
1.2994e-06
1.23945e-06
1.13561e-06
1.00404e-06
8.61776e-07
7.01866e-07
4.18928e-07
3.11795e-07
3.65807e-07
7.05895e-07
1.40791e-06
2.45231e-06
3.46959e-06
3.9627e-06
3.75965e-06
3.09695e-06
2.32208e-06
1.61629e-06
1.06605e-06
6.84346e-07
4.31468e-07
2.76163e-07
1.84015e-07
1.30521e-07
1.00052e-07
8.33673e-08
7.55691e-08
7.38087e-08
7.65754e-08
8.30438e-08
9.27352e-08
1.05305e-07
1.20428e-07
1.3775e-07
1.56866e-07
1.77336e-07
1.98703e-07
2.20517e-07
2.42357e-07
2.63847e-07
2.84667e-07
3.0456e-07
3.23329e-07
3.40837e-07
3.56998e-07
3.71775e-07
3.85161e-07
3.97183e-07
4.07881e-07
4.17303e-07
4.25506e-07
4.3254e-07
4.38449e-07
4.43275e-07
4.47073e-07
4.4988e-07
4.51742e-07
4.52759e-07
4.5314e-07
4.53134e-07
4.52922e-07
4.52654e-07
4.52505e-07
4.52664e-07
4.53312e-07
4.54616e-07
4.56716e-07
4.59701e-07
4.63619e-07
4.68474e-07
4.74222e-07
4.80783e-07
4.88089e-07
4.96045e-07
5.04557e-07
5.13578e-07
5.23069e-07
5.32945e-07
5.43193e-07
5.53775e-07
5.64537e-07
5.75354e-07
5.86072e-07
5.96286e-07
6.05483e-07
6.1302e-07
6.17866e-07
6.18797e-07
6.1451e-07
6.03572e-07
5.84691e-07
5.57001e-07
5.20414e-07
4.75806e-07
4.25011e-07
3.70591e-07
3.15544e-07
2.62718e-07
2.14375e-07
1.71984e-07
1.36189e-07
1.06935e-07
8.35234e-08
6.50123e-08
5.06618e-08
3.95653e-08
3.12325e-08
2.52093e-08
2.08425e-08
1.76116e-08
1.51939e-08
1.33713e-08
1.19849e-08
1.09199e-08
1.00944e-08
9.45048e-09
8.94624e-09
8.55139e-09
8.24344e-09
8.00587e-09
7.82639e-09
7.69579e-09
7.60687e-09
7.5541e-09
7.53312e-09
7.54074e-09
7.57461e-09
7.63314e-09
7.71518e-09
7.82004e-09
7.94748e-09
8.09762e-09
8.27057e-09
8.46907e-09
8.68957e-09
8.92758e-09
9.18334e-09
9.45896e-09
9.75857e-09
1.00883e-08
1.04569e-08
1.08758e-08
1.13597e-08
1.19268e-08
1.25993e-08
1.34035e-08
1.43715e-08
1.55409e-08
1.69571e-08
1.86734e-08
2.07537e-08
2.32734e-08
2.63219e-08
3.00039e-08
3.44432e-08
3.97843e-08
4.61971e-08
5.38818e-08
6.30772e-08
7.40743e-08
8.7232e-08
1.03049e-07
1.22052e-07
1.4583e-07
1.72747e-07
2.2175e-07
5.90657e-11
9.01403e-09
4.28915e-08
9.30074e-08
1.70353e-07
3.22747e-07
5.6458e-07
8.84603e-07
1.25669e-06
1.64615e-06
2.00863e-06
2.29612e-06
2.46781e-06
2.49725e-06
2.37919e-06
2.1414e-06
1.83003e-06
1.50293e-06
1.049e-06
6.17209e-07
4.54621e-07
5.85595e-07
1.04248e-06
1.86592e-06
2.78043e-06
3.32564e-06
3.2325e-06
2.62921e-06
1.85752e-06
1.18982e-06
7.18633e-07
4.16447e-07
2.42465e-07
1.48169e-07
9.89014e-08
7.48288e-08
6.4937e-08
6.39669e-08
6.96304e-08
8.10482e-08
9.77436e-08
1.19168e-07
1.44437e-07
1.72266e-07
2.01096e-07
2.29285e-07
2.55324e-07
2.78004e-07
2.96499e-07
3.1038e-07
3.19573e-07
3.24288e-07
3.24932e-07
3.22036e-07
3.1619e-07
3.07994e-07
2.98024e-07
2.86802e-07
2.74789e-07
2.6237e-07
2.49848e-07
2.37455e-07
2.25357e-07
2.13661e-07
2.02421e-07
1.9167e-07
1.81417e-07
1.7165e-07
1.62341e-07
1.535e-07
1.45136e-07
1.37303e-07
1.30099e-07
1.23452e-07
1.17378e-07
1.11905e-07
1.07074e-07
1.02924e-07
9.95005e-08
9.6846e-08
9.49925e-08
9.39661e-08
9.37918e-08
9.44816e-08
9.60439e-08
9.85078e-08
1.01901e-07
1.06256e-07
1.11666e-07
1.18248e-07
1.26117e-07
1.35505e-07
1.46711e-07
1.60015e-07
1.75848e-07
1.94867e-07
2.17637e-07
2.44891e-07
2.7759e-07
3.16339e-07
3.61237e-07
4.11824e-07
4.66172e-07
5.20887e-07
5.70885e-07
6.09315e-07
6.29096e-07
6.24722e-07
5.94044e-07
5.39316e-07
4.67198e-07
3.86877e-07
3.07576e-07
2.36108e-07
1.76123e-07
1.28491e-07
9.26826e-08
6.6212e-08
4.76803e-08
3.49662e-08
2.63586e-08
2.04404e-08
1.63189e-08
1.34107e-08
1.13305e-08
9.82037e-09
8.70843e-09
7.8781e-09
7.25088e-09
6.77258e-09
6.40581e-09
6.12391e-09
5.90797e-09
5.74418e-09
5.6226e-09
5.53573e-09
5.47796e-09
5.44497e-09
5.43352e-09
5.44113e-09
5.46607e-09
5.50699e-09
5.56297e-09
5.63335e-09
5.7177e-09
5.81583e-09
5.92763e-09
6.05329e-09
6.19296e-09
6.34608e-09
6.51238e-09
6.69168e-09
6.88362e-09
7.08785e-09
7.30399e-09
7.5319e-09
7.77176e-09
8.02436e-09
8.2913e-09
8.57519e-09
8.87988e-09
9.21067e-09
9.57443e-09
9.97984e-09
1.04374e-08
1.09599e-08
1.15624e-08
1.22625e-08
1.30814e-08
1.40438e-08
1.51795e-08
1.65246e-08
1.81235e-08
2.0033e-08
2.23251e-08
2.51063e-08
2.84875e-08
3.28254e-08
3.77859e-08
4.71907e-08
9.09118e-10
2.64448e-08
7.66555e-08
1.56703e-07
3.35331e-07
6.52584e-07
1.10389e-06
1.67012e-06
2.32671e-06
3.01965e-06
3.64961e-06
4.10048e-06
4.27232e-06
4.11366e-06
3.66475e-06
3.04144e-06
2.35557e-06
1.53499e-06
8.51146e-07
5.95219e-07
7.16215e-07
1.20122e-06
1.96931e-06
2.67186e-06
2.88838e-06
2.52243e-06
1.83771e-06
1.16312e-06
6.71872e-07
3.67992e-07
2.01705e-07
1.1708e-07
7.70224e-08
6.00763e-08
5.61579e-08
6.11936e-08
7.38732e-08
9.37755e-08
1.20103e-07
1.50972e-07
1.8332e-07
2.13463e-07
2.37863e-07
2.53887e-07
2.60244e-07
2.57033e-07
2.45482e-07
2.27527e-07
2.05363e-07
1.81094e-07
1.56498e-07
1.32914e-07
1.11241e-07
9.19821e-08
7.5329e-08
6.12512e-08
4.95719e-08
4.0033e-08
3.23404e-08
2.61973e-08
2.13262e-08
1.74794e-08
1.44448e-08
1.20473e-08
1.01468e-08
8.6315e-09
7.41481e-09
6.43017e-09
5.62888e-09
4.9714e-09
4.42646e-09
3.96261e-09
3.55086e-09
3.18523e-09
2.85982e-09
2.57079e-09
2.31544e-09
2.09199e-09
1.89925e-09
1.73585e-09
1.60057e-09
1.49263e-09
1.41088e-09
1.3542e-09
1.32309e-09
1.31831e-09
1.34109e-09
1.39658e-09
1.49292e-09
1.6391e-09
1.85474e-09
2.17163e-09
2.63004e-09
3.2997e-09
4.31172e-09
5.85273e-09
8.24196e-09
1.20803e-08
1.83481e-08
2.86317e-08
4.56415e-08
7.3185e-08
1.15722e-07
1.77639e-07
2.60884e-07
3.61609e-07
4.67281e-07
5.57721e-07
6.11269e-07
6.1397e-07
5.66247e-07
4.81873e-07
3.81531e-07
2.83702e-07
2.00836e-07
1.36799e-07
9.15223e-08
6.12377e-08
4.17208e-08
2.91976e-08
2.11237e-08
1.58618e-08
1.23758e-08
1.00209e-08
8.39685e-09
7.25423e-09
6.43513e-09
5.83814e-09
5.39694e-09
5.06742e-09
4.81968e-09
4.63304e-09
4.49303e-09
4.38939e-09
4.31474e-09
4.26363e-09
4.23207e-09
4.21701e-09
4.2162e-09
4.22799e-09
4.25118e-09
4.28491e-09
4.32852e-09
4.38163e-09
4.44393e-09
4.51532e-09
4.59573e-09
4.68522e-09
4.78389e-09
4.89183e-09
5.00923e-09
5.13643e-09
5.27369e-09
5.42136e-09
5.57963e-09
5.7487e-09
5.92855e-09
6.11915e-09
6.32024e-09
6.5316e-09
6.7529e-09
6.98398e-09
7.22477e-09
7.47559e-09
7.73709e-09
8.01055e-09
8.29783e-09
8.60168e-09
8.92561e-09
9.27424e-09
9.65323e-09
1.00697e-08
1.05323e-08
1.10521e-08
1.16425e-08
1.2324e-08
1.31141e-08
1.40848e-08
1.51482e-08
1.70294e-08
3.67413e-09
4.72313e-08
1.10374e-07
2.67435e-07
6.0903e-07
1.13889e-06
1.84704e-06
2.75744e-06
3.86732e-06
5.05813e-06
6.08318e-06
6.67057e-06
6.6253e-06
5.95517e-06
4.8822e-06
3.63392e-06
2.27783e-06
1.20119e-06
7.38913e-07
7.69655e-07
1.18477e-06
1.85285e-06
2.40624e-06
2.47588e-06
2.04101e-06
1.39268e-06
8.23881e-07
4.44431e-07
2.31943e-07
1.25228e-07
7.59898e-08
5.5683e-08
5.08228e-08
5.62094e-08
7.05796e-08
9.3659e-08
1.24177e-07
1.58693e-07
1.91697e-07
2.17008e-07
2.29745e-07
2.27819e-07
2.12292e-07
1.86682e-07
1.55641e-07
1.23644e-07
9.40983e-08
6.90069e-08
4.90825e-08
3.41086e-08
2.33504e-08
1.5895e-08
1.08696e-08
7.54958e-09
5.38552e-09
3.98775e-09
3.09253e-09
2.52755e-09
2.18282e-09
1.98919e-09
1.90318e-09
1.89708e-09
1.9524e-09
2.05573e-09
2.1962e-09
2.36412e-09
2.55018e-09
2.74537e-09
2.94071e-09
3.12727e-09
3.29616e-09
3.44028e-09
3.55475e-09
3.63209e-09
3.66515e-09
3.64754e-09
3.57464e-09
3.4446e-09
3.25859e-09
3.02134e-09
2.74157e-09
2.43047e-09
2.10066e-09
1.76685e-09
1.44295e-09
1.14039e-09
8.69833e-10
6.38831e-10
4.49274e-10
3.01618e-10
1.93466e-10
1.18104e-10
6.87347e-11
3.93567e-11
2.29913e-11
1.46736e-11
1.20769e-11
1.50457e-11
2.95406e-11
8.85169e-11
3.40436e-10
1.38398e-09
5.27721e-09
1.75104e-08
4.88953e-08
1.14161e-07
2.22285e-07
3.62424e-07
4.98409e-07
5.83579e-07
5.90804e-07
5.24787e-07
4.16277e-07
3.00284e-07
2.01707e-07
1.29692e-07
8.20154e-08
5.20763e-08
3.37897e-08
2.27192e-08
1.59703e-08
1.17833e-08
9.12256e-09
7.38691e-09
6.22451e-09
5.42692e-09
4.86756e-09
4.46801e-09
4.17829e-09
3.96598e-09
3.80942e-09
3.694e-09
3.60957e-09
3.54911e-09
3.50756e-09
3.48132e-09
3.46768e-09
3.46473e-09
3.47101e-09
3.48552e-09
3.50751e-09
3.53646e-09
3.57201e-09
3.61394e-09
3.66212e-09
3.71648e-09
3.77703e-09
3.84381e-09
3.91693e-09
3.9965e-09
4.0827e-09
4.17576e-09
4.27597e-09
4.38363e-09
4.49909e-09
4.6227e-09
4.75485e-09
4.89586e-09
5.04608e-09
5.20576e-09
5.37512e-09
5.55423e-09
5.74315e-09
5.94178e-09
6.15001e-09
6.36763e-09
6.5945e-09
6.83048e-09
7.07559e-09
7.33002e-09
7.59425e-09
7.86908e-09
8.15581e-09
8.45629e-09
8.77302e-09
9.11013e-09
9.47059e-09
9.87046e-09
1.02846e-08
1.08782e-08
8.05446e-09
6.51452e-08
1.52001e-07
4.41745e-07
9.72083e-07
1.71074e-06
2.72124e-06
4.13061e-06
5.94356e-06
7.87539e-06
9.37934e-06
9.92636e-06
9.2734e-06
7.70966e-06
5.67205e-06
3.50649e-06
1.79114e-06
9.52726e-07
7.95649e-07
1.07519e-06
1.62738e-06
2.11136e-06
2.16804e-06
1.76618e-06
1.17801e-06
6.75832e-07
3.52408e-07
1.78957e-07
9.64095e-08
6.05965e-08
4.79505e-08
4.84129e-08
5.90175e-08
7.95637e-08
1.09482e-07
1.45449e-07
1.80691e-07
2.06652e-07
2.16303e-07
2.07102e-07
1.8182e-07
1.4698e-07
1.10047e-07
7.69216e-08
5.07414e-08
3.2056e-08
1.97806e-08
1.22286e-08
7.80979e-09
5.32838e-09
4.00697e-09
3.39557e-09
3.26604e-09
3.53368e-09
4.20916e-09
5.37054e-09
7.14137e-09
9.66418e-09
1.30628e-08
1.7396e-08
2.26162e-08
2.85515e-08
3.49166e-08
4.1352e-08
4.74969e-08
5.3036e-08
5.77197e-08
6.13684e-08
6.3964e-08
6.56053e-08
6.66942e-08
6.76885e-08
6.85356e-08
6.92315e-08
6.97365e-08
6.9979e-08
6.98587e-08
6.92576e-08
6.80591e-08
6.61729e-08
6.35544e-08
6.02098e-08
5.62013e-08
5.16316e-08
4.66227e-08
4.13176e-08
3.5875e-08
3.0435e-08
2.51404e-08
2.01371e-08
1.55321e-08
1.14209e-08
7.91571e-09
5.07077e-09
2.90786e-09
1.43691e-09
5.74964e-10
1.64905e-10
2.8647e-11
2.40442e-12
1.15552e-13
1.73477e-13
9.9803e-12
3.00161e-10
3.59977e-09
2.1996e-08
8.1373e-08
2.0384e-07
3.71546e-07
5.15214e-07
5.7035e-07
5.2297e-07
4.10162e-07
2.8576e-07
1.83336e-07
1.11852e-07
6.69469e-08
4.04446e-08
2.52467e-08
1.65547e-08
1.15067e-08
8.49642e-09
6.64381e-09
5.46619e-09
4.69452e-09
4.17497e-09
3.81698e-09
3.56557e-09
3.3864e-09
3.25745e-09
3.16426e-09
3.09717e-09
3.04963e-09
3.0171e-09
2.99642e-09
2.98531e-09
2.98214e-09
2.98574e-09
2.99529e-09
3.01022e-09
3.03011e-09
3.05469e-09
3.08379e-09
3.1173e-09
3.15521e-09
3.19748e-09
3.24417e-09
3.29531e-09
3.35104e-09
3.41142e-09
3.47663e-09
3.54683e-09
3.62224e-09
3.70304e-09
3.78951e-09
3.88187e-09
3.98042e-09
4.08542e-09
4.1972e-09
4.31607e-09
4.44236e-09
4.57637e-09
4.71845e-09
4.86883e-09
5.02782e-09
5.19559e-09
5.37234e-09
5.55817e-09
5.75323e-09
5.95756e-09
6.1713e-09
6.39457e-09
6.62765e-09
6.8709e-09
7.12495e-09
7.3909e-09
7.66936e-09
7.96588e-09
8.26761e-09
8.64742e-09
1.31868e-08
7.84968e-08
2.29291e-07
6.69787e-07
1.34728e-06
2.26375e-06
3.62824e-06
5.69235e-06
8.42935e-06
1.12726e-05
1.32154e-05
1.34217e-05
1.17587e-05
8.81703e-06
5.5154e-06
2.83331e-06
1.35392e-06
8.72273e-07
9.53746e-07
1.36492e-06
1.81505e-06
1.94044e-06
1.63388e-06
1.11096e-06
6.402e-07
3.31596e-07
1.65769e-07
8.79623e-08
5.5114e-08
4.43258e-08
4.63314e-08
5.88639e-08
8.21787e-08
1.15396e-07
1.53668e-07
1.87777e-07
2.0723e-07
2.05232e-07
1.82181e-07
1.45238e-07
1.04502e-07
6.84818e-08
4.15169e-08
2.38852e-08
1.35544e-08
8.00194e-09
5.23447e-09
4.02503e-09
3.76912e-09
4.29429e-09
5.76444e-09
8.70974e-09
1.41897e-08
2.41119e-08
4.17143e-08
7.21053e-08
1.22479e-07
2.01296e-07
3.15729e-07
4.67695e-07
6.50299e-07
8.4721e-07
1.03604e-06
1.19463e-06
1.30661e-06
1.36437e-06
1.36876e-06
1.32809e-06
1.25387e-06
1.15753e-06
1.04587e-06
9.26068e-07
8.07688e-07
6.97315e-07
5.99046e-07
5.14736e-07
4.44454e-07
3.86979e-07
3.40332e-07
3.02248e-07
2.70543e-07
2.43414e-07
2.19578e-07
1.9821e-07
1.78765e-07
1.60851e-07
1.44142e-07
1.28385e-07
1.134e-07
9.90819e-08
8.53528e-08
7.21972e-08
5.95934e-08
4.75265e-08
3.61071e-08
2.55598e-08
1.62074e-08
8.66448e-09
3.54822e-09
9.26907e-10
1.07349e-10
2.37951e-12
2.2494e-15
5.53539e-13
1.61922e-10
4.29815e-09
3.40711e-08
1.30166e-07
3.00694e-07
4.69471e-07
5.42212e-07
4.95196e-07
3.77081e-07
2.50465e-07
1.51507e-07
8.70468e-08
4.94271e-08
2.8717e-08
1.7538e-08
1.1451e-08
8.04695e-09
6.07349e-09
4.88483e-09
4.14228e-09
3.66322e-09
3.34543e-09
3.12972e-09
2.98051e-09
2.87584e-09
2.80176e-09
2.74927e-09
2.71243e-09
2.6873e-09
2.67117e-09
2.66221e-09
2.65909e-09
2.66093e-09
2.66707e-09
2.67712e-09
2.69075e-09
2.70778e-09
2.72809e-09
2.75162e-09
2.77836e-09
2.80828e-09
2.84144e-09
2.87786e-09
2.91762e-09
2.96079e-09
3.00747e-09
3.05778e-09
3.11188e-09
3.16989e-09
3.23199e-09
3.29834e-09
3.36913e-09
3.44454e-09
3.52476e-09
3.60999e-09
3.70045e-09
3.79636e-09
3.89796e-09
4.00549e-09
4.1192e-09
4.23936e-09
4.36625e-09
4.50014e-09
4.64133e-09
4.79009e-09
4.94676e-09
5.11164e-09
5.28513e-09
5.46765e-09
5.65974e-09
5.86208e-09
6.07571e-09
6.30128e-09
6.54322e-09
6.79122e-09
7.10419e-09
1.81369e-08
8.64059e-08
3.33267e-07
8.92581e-07
1.65064e-06
2.70957e-06
4.41842e-06
7.13657e-06
1.07954e-05
1.44929e-05
1.67552e-05
1.61168e-05
1.28166e-05
8.43393e-06
4.55324e-06
2.12293e-06
1.10038e-06
8.98019e-07
1.12216e-06
1.51548e-06
1.73763e-06
1.57667e-06
1.14036e-06
6.84666e-07
3.62157e-07
1.80592e-07
9.31392e-08
5.56648e-08
4.2584e-08
4.3066e-08
5.4343e-08
7.68778e-08
1.10316e-07
1.49916e-07
1.85523e-07
2.04944e-07
2.00257e-07
1.72487e-07
1.31008e-07
8.81553e-08
5.31902e-08
2.94999e-08
1.57345e-08
8.67751e-09
5.45194e-09
4.30142e-09
4.50631e-09
6.19849e-09
1.05448e-08
2.07341e-08
4.47968e-08
1.03024e-07
2.46547e-07
5.99549e-07
1.43698e-06
3.27204e-06
6.82108e-06
1.26628e-05
2.07171e-05
3.01006e-05
3.9568e-05
4.80567e-05
5.49131e-05
5.98501e-05
6.28127e-05
6.38775e-05
6.3194e-05
6.09514e-05
5.73529e-05
5.26339e-05
4.70694e-05
4.08342e-05
3.42132e-05
2.75419e-05
2.11994e-05
1.55562e-05
1.08907e-05
7.3197e-06
4.78193e-06
3.08941e-06
2.01063e-06
1.3388e-06
9.21472e-07
6.58984e-07
4.90368e-07
3.79264e-07
3.03786e-07
2.50503e-07
2.10972e-07
1.79898e-07
1.54051e-07
1.31498e-07
1.11139e-07
9.236e-08
7.48688e-08
5.85003e-08
4.31813e-08
2.89739e-08
1.6389e-08
6.82629e-09
1.65193e-09
1.42286e-10
1.31331e-12
2.77075e-14
2.65759e-11
2.00604e-09
2.51063e-08
1.17724e-07
2.92266e-07
4.61995e-07
5.20694e-07
4.52644e-07
3.22756e-07
1.99329e-07
1.1232e-07
6.07472e-08
3.30532e-08
1.88218e-08
1.1531e-08
7.70336e-09
5.61334e-09
4.42095e-09
3.71154e-09
3.27353e-09
2.99435e-09
2.81152e-09
2.68895e-09
2.60515e-09
2.54698e-09
2.50624e-09
2.47772e-09
2.4581e-09
2.4452e-09
2.43758e-09
2.43425e-09
2.43455e-09
2.43801e-09
2.44434e-09
2.45334e-09
2.46488e-09
2.47888e-09
2.4953e-09
2.51412e-09
2.53538e-09
2.55908e-09
2.58526e-09
2.61394e-09
2.64522e-09
2.67913e-09
2.71578e-09
2.75525e-09
2.79767e-09
2.84315e-09
2.89182e-09
2.94378e-09
2.99919e-09
3.05816e-09
3.12085e-09
3.18738e-09
3.25792e-09
3.33258e-09
3.41156e-09
3.49498e-09
3.58303e-09
3.67587e-09
3.7737e-09
3.8767e-09
3.98512e-09
4.09917e-09
4.21915e-09
4.34534e-09
4.47813e-09
4.61792e-09
4.76528e-09
4.92083e-09
5.08556e-09
5.26011e-09
5.44822e-09
5.64187e-09
5.88754e-09
2.2303e-08
8.93263e-08
4.29788e-07
1.06436e-06
1.84484e-06
2.97615e-06
4.87779e-06
7.94305e-06
1.20714e-05
1.60307e-05
1.7555e-05
1.57248e-05
1.15609e-05
6.91587e-06
3.43239e-06
1.61771e-06
9.87156e-07
9.61668e-07
1.23043e-06
1.51153e-06
1.5237e-06
1.2209e-06
7.95392e-07
4.44444e-07
2.2657e-07
1.14205e-07
6.34545e-08
4.36148e-08
3.97404e-08
4.69564e-08
6.52749e-08
9.54305e-08
1.34728e-07
1.74363e-07
2.01148e-07
2.03924e-07
1.80407e-07
1.38892e-07
9.32323e-08
5.51313e-08
2.94874e-08
1.50665e-08
8.08675e-09
5.20254e-09
4.54988e-09
5.69015e-09
9.69763e-09
2.04997e-08
4.96555e-08
1.31655e-07
3.72357e-07
1.09477e-06
3.20767e-06
8.77538e-06
2.07515e-05
4.02411e-05
6.42753e-05
8.85738e-05
0.000110617
0.000129582
0.000145385
0.000158198
0.000168271
0.000175875
0.00018127
0.000184683
0.000186284
0.00018617
0.000184363
0.000180813
0.000175451
0.000168422
0.000159619
0.000148881
0.00013605
0.000121007
0.000103742
8.45147e-05
6.41462e-05
4.43308e-05
2.74448e-05
1.53062e-05
7.96512e-06
4.06892e-06
2.13772e-06
1.19294e-06
7.21051e-07
4.75665e-07
3.40877e-07
2.61381e-07
2.10068e-07
1.73107e-07
1.4374e-07
1.18392e-07
9.53492e-08
7.41283e-08
5.48061e-08
3.7518e-08
2.22724e-08
1.00694e-08
2.71751e-09
2.69765e-10
3.74665e-12
1.6966e-13
5.13832e-11
2.95356e-09
3.34981e-08
1.45395e-07
3.3296e-07
4.81439e-07
4.92993e-07