/*--------------------------------*- C++ -*----------------------------------*\
| =========                 |                                                 |
| \\      /  F ield         | OpenFOAM: The Open Source CFD Toolbox           |
|  \\    /   O peration     | Version:  2.4.0                                 |
|   \\  /    A nd           | Web:      www.OpenFOAM.org                      |
|    \\/     M anipulation  |                                                 |
\*---------------------------------------------------------------------------*/
FoamFile
{
    version     2.0;
    format      ascii;
    class       volScalarField;
    location    "0.46";
    object      pPrime2Mean;
}
// * * * * * * * * * * * * * * * * * * * * * * * * * * * * * * * * * * * * * //

dimensions      [0 4 -4 0 0 0 0];

internalField   nonuniform List<scalar> 
2320
(
3702.07
3608.08
3509.86
3413.01
3317.5
3223.43
3130.67
3039.39
2949.42
2861
2773.87
2688.41
2604.23
2521.86
2440.78
2361.75
2283.98
2208.51
2134.28
2062.51
3702.07
3608.09
3509.87
3413.01
3317.51
3223.42
3130.66
3039.38
2949.4
2860.98
2773.84
2688.36
2604.17
2521.78
2440.69
2361.63
2283.86
2208.37
2134.17
2062.39
3702.07
3608.09
3509.88
3413.02
3317.5
3223.42
3130.64
3039.35
2949.37
2860.93
2773.78
2688.27
2604.06
2521.62
2440.51
2361.38
2283.58
2208.02
2133.81
2062.02
3702.06
3608.07
3509.86
3412.99
3317.47
3223.37
3130.59
3039.29
2949.3
2860.83
2773.66
2688.12
2603.88
2521.39
2440.23
2361.04
2283.2
2207.56
2133.35
2061.51
3702.05
3608.05
3509.85
3412.97
3317.44
3223.33
3130.54
3039.22
2949.22
2860.71
2773.53
2687.94
2603.65
2521.09
2439.87
2360.55
2282.66
2206.93
2132.69
2060.83
3702.04
3608.05
3509.85
3412.97
3317.42
3223.28
3130.5
3039.15
2949.13
2860.58
2773.37
2687.7
2603.37
2520.71
2439.43
2359.98
2282.02
2206.15
2131.89
2059.96
3702.02
3608.03
3509.83
3412.94
3317.37
3223.23
3130.44
3039.07
2949.03
2860.44
2773.19
2687.45
2603.07
2520.29
2438.92
2359.3
2281.24
2205.18
2130.86
2058.85
3702
3607.99
3509.79
3412.88
3317.31
3223.15
3130.35
3038.95
2948.9
2860.26
2772.99
2687.17
2602.74
2519.82
2438.37
2358.54
2280.37
2204.07
2129.69
2057.53
3701.96
3607.95
3509.73
3412.82
3317.25
3223.09
3130.27
3038.86
2948.78
2860.12
2772.79
2686.9
2602.39
2519.34
2437.76
2357.72
2279.39
2202.78
2128.3
2055.91
3701.93
3607.9
3509.69
3412.77
3317.21
3223.01
3130.2
3038.75
2948.67
2859.94
2772.61
2686.61
2602.04
2518.81
2437.14
2356.84
2278.33
2201.38
2126.75
2054.08
3701.89
3607.87
3509.65
3412.73
3317.16
3222.97
3130.14
3038.69
2948.56
2859.81
2772.4
2686.35
2601.66
2518.31
2436.45
2355.92
2277.13
2199.8
2124.89
2051.94
3701.86
3607.81
3509.61
3412.66
3317.1
3222.89
3130.07
3038.57
2948.46
2859.64
2772.22
2686.04
2601.3
2517.75
2435.76
2354.92
2275.87
2198.1
2122.8
2049.35
3701.82
3607.77
3509.55
3412.61
3317.04
3222.83
3129.99
3038.48
2948.35
2859.51
2772.02
2685.78
2600.92
2517.25
2435.01
2353.91
2274.45
2196.19
2120.39
2046.39
3701.8
3607.73
3509.53
3412.57
3317.01
3222.77
3129.94
3038.4
2948.28
2859.38
2771.87
2685.52
2600.57
2516.72
2434.32
2352.9
2273.03
2194.21
2117.63
2043
3701.76
3607.7
3509.5
3412.53
3316.96
3222.72
3129.88
3038.34
2948.2
2859.29
2771.71
2685.32
2600.23
2516.26
2433.6
2351.91
2271.49
2192.02
2114.5
2038.67
3701.75
3607.68
3509.48
3412.49
3316.92
3222.66
3129.85
3038.3
2948.16
2859.21
2771.58
2685.13
2599.93
2515.83
2432.99
2351.02
2270.09
2189.89
2110.98
2033.86
3701.72
3607.67
3509.47
3412.47
3316.88
3222.61
3129.82
3038.27
2948.15
2859.19
2771.52
2685.01
2599.73
2515.48
2432.52
2350.27
2268.84
2187.88
2107.48
2027.81
3701.72
3607.64
3509.44
3412.42
3316.83
3222.56
3129.77
3038.25
2948.13
2859.22
2771.44
2684.98
2599.52
2515.21
2432.11
2349.7
2267.89
2186.15
2104.14
2021.62
3701.7
3607.62
3509.41
3412.38
3316.77
3222.53
3129.79
3038.24
2948.19
2859.25
2771.5
2684.97
2599.5
2515.01
2432.01
2349.26
2267.2
2184.84
2101.64
2014.96
3701.7
3607.62
3509.4
3412.35
3316.7
3222.4
3129.64
3038.13
2948.01
2859.1
2771.32
2684.81
2599.3
2514.91
2431.75
2349.09
2266.84
2184.01
2099.88
2010.39
1991.92
1923.69
1856.55
1791.09
1726.86
1663.59
1601.41
1539.9
1991.83
1923.64
1856.51
1791.13
1726.97
1663.83
1601.67
1540.19
1991.5
1923.33
1856.3
1791.06
1726.96
1663.88
1601.77
1540.34
1991.07
1922.95
1856.04
1790.98
1727
1664.1
1602.07
1540.71
1990.47
1922.49
1855.73
1790.92
1727.09
1664.37
1602.42
1541.14
1989.72
1921.85
1855.3
1790.81
1727.17
1664.76
1602.96
1541.8
1988.7
1921.03
1854.79
1790.62
1727.31
1665.24
1603.65
1542.6
1987.54
1919.99
1854.17
1790.44
1727.53
1665.83
1604.5
1543.62
1986.08
1918.69
1853.36
1790.18
1727.82
1666.61
1605.58
1544.89
1984.42
1917.17
1852.34
1789.68
1728.14
1667.58
1606.94
1546.47
1982.38
1915.39
1851.31
1789.23
1728.55
1668.79
1608.65
1548.39
1979.82
1913.05
1849.96
1788.69
1729.09
1670.27
1610.76
1550.71
1976.84
1910.16
1848.19
1788.06
1729.81
1672.08
1613.36
1553.55
1973.05
1906.55
1845.9
1787.33
1730.78
1674.33
1616.56
1557.04
1968.55
1902.2
1843.03
1786.47
1732
1677.18
1620.58
1561.35
1962.49
1896.78
1839.49
1785.43
1733.48
1680.74
1625.68
1566.75
1954.26
1889.93
1835.18
1784.21
1735.27
1685.13
1632.22
1573.65
1942.58
1881.05
1830.03
1782.82
1737.4
1690.52
1640.56
1582.79
1926.72
1869.9
1824.09
1781.32
1739.91
1697
1651.13
1595.53
1903.67
1856.35
1817.61
1780.19
1743.03
1704.63
1664.25
1614.97
1479.35
1419.64
1360.98
1303.39
1247.19
1192.47
1139.36
1087.88
1038.08
989.868
943.013
897.206
852.063
807.182
762.351
717.393
672.442
627.705
583.64
540.581
498.958
458.842
420.391
383.279
347.338
311.978
276.3
238.847
1479.65
1419.95
1361.29
1303.66
1247.44
1192.71
1139.58
1088.12
1038.37
990.191
943.414
897.637
852.535
807.676
762.847
717.851
672.853
628.062
583.931
540.845
499.168
459.092
420.604
383.613
347.772
312.686
277.614
241.534
1479.71
1420.02
1361.32
1303.74
1247.55
1192.82
1139.76
1088.37
1038.71
990.651
943.968
898.334
853.309
808.512
763.679
718.666
673.595
628.709
584.483
541.279
499.565
459.446
421.006
384.095
348.496
313.818
279.693
245.841
1480.13
1420.43
1361.67
1304.07
1247.87
1193.16
1140.18
1088.87
1039.37
991.497
945.038
899.563
854.679
809.97
765.125
720.017
674.78
629.733
585.29
541.954
500.098
459.97
421.568
384.834
349.529
315.425
282.318
250.388
1480.58
1420.85
1362.05
1304.45
1248.23
1193.56
1140.67
1089.51
1040.23
992.58
946.418
901.179
856.519
811.883
767.028
721.811
676.419
631.125
586.437
542.867
500.86
460.646
422.28
385.711
350.756
317.245
285.138
254.758
1481.25
1421.5
1362.64
1305
1248.77
1194.15
1141.38
1090.42
1041.44
994.162
948.394
903.491
859.075
814.564
769.676
724.308
678.589
632.964
587.895
544.066
501.81
461.507
423.157
386.77
352.161
319.259
288.037
258.901
1482.08
1422.28
1363.36
1305.68
1249.41
1194.87
1142.22
1091.53
1042.89
996.057
950.702
906.164
862.063
817.639
772.714
727.127
681.122
635.064
589.618
545.416
502.924
462.462
424.137
387.893
353.663
321.289
290.87
262.685
1483.14
1423.25
1364.24
1306.47
1250.16
1195.7
1143.19
1092.83
1044.6
998.324
953.429
909.344
865.589
821.319
776.376
730.491
684.087
637.494
591.623
546.986
504.189
463.519
425.176
389.076
355.182
323.319
293.576
266.14
1484.42
1424.39
1365.24
1307.34
1250.99
1196.59
1144.28
1094.32
1046.64
1000.99
956.613
913.025
869.51
825.357
780.294
734.121
687.249
640.14
593.778
548.68
505.529
464.654
426.238
390.273
356.677
325.279
296.1
269.271
1485.94
1425.71
1366.37
1308.29
1251.93
1197.6
1145.55
1096.03
1048.95
1003.87
959.987
916.804
873.49
829.463
784.234
737.68
690.342
642.781
595.981
550.349
506.888
465.805
427.299
391.446
358.117
327.123
298.422
272.08
1487.71
1427.23
1367.64
1309.37
1252.96
1198.69
1146.9
1097.78
1051.3
1006.68
963.157
920.22
877.066
833.112
787.715
740.884
693.013
645.083
597.939
551.859
508.109
466.846
428.271
392.546
359.471
328.827
300.532
274.578
1489.79
1429
1369.08
1310.56
1254.03
1199.79
1148.13
1099.42
1053.44
1009.19
965.927
923.155
880.111
836.068
790.513
743.478
695.221
646.954
599.409
553.108
509.221
467.746
429.143
393.535
360.705
330.361
302.42
276.777
1492.27
1431.04
1370.69
1311.82
1255.11
1200.76
1149.15
1100.78
1055.14
1011.04
967.887
925.193
882.119
838.071
792.529
744.99
696.458
648.338
600.393
553.857
509.981
468.465
429.88
394.409
361.788
331.735
304.084
278.693
1495.23
1433.38
1372.41
1313.12
1256.14
1201.53
1149.83
1101.64
1056.17
1012.24
968.948
926.201
883.15
838.93
793.529
745.929
696.966
648.836
600.879
554.366
510.395
468.915
430.457
395.161
362.745
332.943
305.532
280.351
1498.75
1436
1374.23
1314.4
1257.1
1202.08
1150.2
1101.95
1056.43
1012.44
969.101
926.153
883.108
838.934
793.367
745.655
696.914
648.76
600.766
554.474
510.543
469.189
430.889
395.774
363.562
333.985
306.768
281.756
1502.87
1438.86
1375.95
1315.46
1257.67
1202.28
1150.09
1101.63
1056.07
1011.84
968.089
925.31
882.116
838.082
792.562
744.764
696.193
648.207
600.314
554.234
510.411
469.277
431.173
396.274
364.246
334.866
307.799
282.925
1507.65
1441.78
1377.54
1316.31
1258.08
1202.21
1149.85
1100.93
1055.06
1010.79
966.928
923.98
880.831
836.834
791.24
743.528
695.22
647.325
599.66
553.83
510.122
469.237
431.336
396.678
364.799
335.599
308.633
283.876
1512.91
1444.41
1378.6
1316.75
1258.05
1201.9
1149.25
1100.09
1053.81
1009.27
965.288
922.44
879.254
835.33
789.699
742.209
694.066
646.276
598.944
553.292
509.699
469.11
431.418
397
365.21
336.15
309.255
284.585
1518.46
1446.98
1379.46
1316.92
1257.76
1201.49
1148.81
1099.28
1052.86
1008.01
964.011
921.131
878.003
834.015
788.332
741.045
693.099
645.42
598.283
552.722
509.373
468.992
431.464
397.219
365.5
336.541
309.678
285.072
1522.52
1448
1379.88
1316.92
1257.46
1201.12
1148.35
1098.79
1052.15
1007.24
963.147
920.253
877.188
833.157
787.426
740.364
692.494
644.87
597.847
552.381
509.166
468.896
431.461
397.335
365.635
336.728
309.877
285.303
192.669
175.26
161.642
151.932
144.091
138.329
134.445
133.626
204.704
183.651
168.929
157.869
149.203
142.678
138.185
135.861
213.916
191.766
175.814
163.712
154.213
147.034
141.897
137.803
221.265
199.084
182.309
169.215
158.726
150.43
144.744
139.476
227.46
205.389
187.981
174.143
163.042
154.048
146.812
140.289
232.799
211.001
193.324
178.915
167.044
157.308
149.097
141.449
237.443
215.875
197.864
182.88
170.378
159.927
150.93
142.565
241.537
220.157
201.983
186.673
173.743
162.62
152.85
143.572
245.133
223.931
205.636
189.926
176.382
164.641
154.293
144.766
248.305
227.241
208.84
192.869
179.019
166.874
155.961
145.886
251.087
230.132
211.652
195.449
181.201
168.575
157.242
146.843
253.517
232.635
214.084
197.68
183.162
170.244
158.576
147.839
255.619
234.791
216.186
199.623
184.877
171.641
159.657
148.633
257.414
236.628
217.975
201.285
186.323
172.858
160.653
149.407
258.934
238.172
219.473
202.686
187.555
173.903
161.48
150.044
260.18
239.448
220.709
203.833
188.561
174.763
162.175
150.604
261.184
240.464
221.695
204.769
189.37
175.463
162.733
151.065
261.924
241.232
222.424
205.435
189.977
175.989
163.16
151.433
262.416
241.727
222.926
205.921
190.378
176.339
163.457
151.692
262.638
241.98
223.172
206.137
190.581
176.521
163.597
151.821
137.378
136.824
133.013
127.415
122.008
114.043
101.56
89.402
80.2739
70.1946
59.5385
48.7096
38.1505
28.3485
19.7345
12.7007
7.37667
3.75663
1.60392
0.259865
136.853
135.419
131.369
125.863
120.686
112.974
100.747
88.7576
79.6473
69.6392
59.0819
48.3619
37.9025
28.185
19.642
12.6525
7.35591
3.73526
1.56672
0.225494
136.158
134.31
130.107
124.485
119.263
111.673
99.7358
87.9302
78.8344
68.9103
58.4786
47.9004
37.5736
27.9732
19.5255
12.5983
7.33429
3.71583
1.53613
0.216316
136.444
133.541
128.934
123.224
117.865
110.318
98.6442
87.0613
78.0099
68.177
57.872
47.433
37.2449
27.7622
19.4152
12.5484
7.31951
3.70328
1.51243
0.206944
136.085
133.014
128.115
122.218
116.665
109.091
97.6548
86.2509
77.2109
67.4568
57.2718
46.9711
36.9196
27.5579
19.3121
12.5081
7.3128
3.69784
1.49527
0.200878
136.65
132.653
127.297
121.221
115.449
107.801
96.5975
85.3975
76.398
66.7313
56.6701
46.5063
36.5958
27.3583
19.2143
12.4756
7.31147
3.69809
1.48178
0.196273
136.665
132.186
126.521
120.312
114.333
106.607
95.616
84.5859
75.6077
66.0204
56.0765
46.0496
36.279
27.1668
19.1238
12.4509
7.31749
3.70382
1.47202
0.192603
136.93
132.165
126.157
119.576
113.295
105.444
94.6426
83.7789
74.8232
65.3135
55.4858
45.5962
35.9662
26.9813
19.0388
12.4342
7.32916
3.71418
1.46478
0.189399
137.417
131.782
125.391
118.65
112.167
104.257
93.649
82.9665
74.0345
64.6101
54.9013
45.1483
35.6588
26.8019
18.9613
12.4244
7.34711
3.72882
1.46014
0.186601
137.918
131.657
124.99
118.019
111.276
103.231
92.7677
82.2234
73.2923
63.9344
54.3358
44.7145
35.362
26.6331
18.8935
12.4233
7.37151
3.74754
1.45733
0.184062
138.57
131.697
124.491
117.19
110.196
102.082
91.8067
81.4379
72.5286
63.2478
53.7657
44.2784
35.0672
26.4674
18.8314
12.4273
7.40077
3.76967
1.45629
0.181754
139.029
131.649
124.027
116.467
109.255
101.081
90.976
80.7473
71.8298
62.6074
53.2281
43.8699
34.7917
26.3179
18.7822
12.4417
7.43752
3.79616
1.45715
0.179719
139.478
131.661
123.714
115.866
108.382
100.088
90.1143
80.0212
71.1108
61.9535
52.6803
43.4524
34.5133
26.1701
18.7369
12.4597
7.47743
3.82504
1.4591
0.177809
139.902
131.601
123.301
115.185
107.475
99.1218
89.311
79.3617
70.4484
61.3458
52.1665
43.0641
34.2591
26.0415
18.706
12.4887
7.5255
3.85876
1.46311
0.176169
140.237
131.52
122.955
114.62
106.698
98.2577
88.5683
78.7254
69.7966
60.7436
51.6592
42.6776
34.0073
25.917
18.6807
12.5224
7.57653
3.89426
1.46782
0.174613
140.542
131.449
122.63
114.046
105.9
97.382
87.8361
78.1191
69.1783
60.1722
51.177
42.3128
33.7741
25.8078
18.6689
12.567
7.63535
3.93427
1.47447
0.173292
140.779
131.355
122.312
113.52
105.189
96.597
87.1729
77.5547
68.5905
59.6242
50.7108
41.9607
33.5512
25.7084
18.666
12.6182
7.69828
3.97646
1.48185
0.172073
140.959
131.256
122.028
113.043
104.519
95.8386
86.5343
77.0181
68.0293
59.0986
50.2612
41.623
33.3421
25.6218
18.675
12.6796
7.76796
4.02224
1.49076
0.171029
141.065
131.148
121.742
112.6
103.905
95.1412
85.9461
76.5189
67.5022
58.6009
49.834
41.3033
33.1481
25.5494
18.696
12.7505
7.84269
4.07014
1.50034
0.170062
141.111
131.033
121.553
112.311
103.478
94.6259
85.4926
76.1422
67.105
58.2168
49.4994
41.0511
32.9973
25.4982
18.7212
12.8145
7.90685
4.10972
1.50895
0.169362
1.05931
0.51024
1.18134
0.873987
0.265088
0.0936618
0.0452086
0.043287
0.999065
1.28345
1.88487
1.7974
0.822726
0.628427
0.410507
0.387006
2.01736
1.99629
2.59835
2.69101
1.89189
1.55975
1.13998
1.06072
2.665
3.24963
4.05974
4.28798
3.43021
2.86699
2.23207
2.05817
4.15696
5.06252
5.68524
6.15721
5.30964
4.5162
3.65965
3.3716
5.93937
7.02858
7.86713
8.29337
7.44529
6.47336
5.39968
4.98559
8.16262
9.55693
10.2189
10.6673
9.83137
8.69126
7.41112
6.87792
10.6225
12.1083
12.8205
13.2223
12.4024
11.1249
9.65985
9.01482
13.3271
14.9362
15.5638
15.9136
15.0946
13.7228
12.0952
11.3595
16.1673
17.7053
18.2174
18.6583
17.8731
16.4331
14.6873
13.8739
19.0983
20.5552
21.0268
21.4255
20.6618
19.2343
17.3939
16.5252
22.0604
23.3821
23.606
24.2371
23.5018
22.1005
20.204
19.2859
25.0662
26.3319
26.5906
27.1376
26.3634
25.0338
23.0967
22.1433
28.1197
29.3292
29.2746
30.0602
29.2839
28.0181
26.0722
25.084
31.22
32.4076
32.4267
33.169
32.3081
31.0517
29.1107
28.1016
34.3884
35.5324
35.3693
36.1755
35.4009
34.1321
32.2234
31.1886
37.6148
38.7536
38.6665
39.4586
38.6072
37.2773
35.3927
34.3355
40.9188
42.0464
41.8811
42.6484
41.8677
40.4861
38.6189
37.5354
44.2737
45.4357
45.3525
46.0585
45.2927
43.7661
41.8932
40.7836
47.7036
48.9063
48.7884
49.5361
48.7434
47.1061
45.2148
44.0746
51.1611
52.405
52.4326
53.0632
52.2738
50.4932
48.5697
47.4097
54.6494
55.9339
56.016
56.6397
55.8111
53.9138
51.9627
50.7929
58.1635
59.4166
59.6721
60.2069
59.3332
57.3421
55.3962
54.2314
61.7044
62.9096
63.3076
63.6836
62.8474
60.8084
58.8854
57.7371
65.322
66.3807
66.8886
67.2394
66.3763
64.3227
62.4407
61.3262
69.0621
69.9772
70.5797
70.7408
69.9361
67.926
66.0895
65.0151
73.0001
73.6616
74.3192
74.4362
73.6478
71.6533
69.8522
68.8238
77.2235
77.6633
78.3716
78.305
77.4743
75.5369
73.7612
72.7708
81.8328
81.9694
82.7041
82.4155
81.5491
79.6016
77.8217
76.866
86.9045
86.7718
87.4471
86.9335
85.8179
83.8514
82.0548
81.1185
92.4761
92.155
92.6879
91.886
90.3912
88.3038
86.4557
85.5282
98.5602
98.1663
98.4115
97.2409
95.1664
92.9329
91.0258
90.0924
105.094
104.807
104.631
102.95
100.207
97.76
95.7471
94.7998
112.058
111.782
110.937
108.891
105.476
102.724
100.592
99.6285
119.637
119.459
117.728
115.359
110.949
107.793
105.537
104.557
128.026
127.506
125.026
121.472
116.42
112.94
110.557
109.559
137.384
135.995
131.908
127.084
121.888
118.142
115.595
114.583
148.151
144.917
139.384
133.04
127.417
123.36
120.618
119.543
160.216
154.649
146.797
139.284
133.034
128.546
125.496
124.365
175.147
166.136
154.143
145.649
138.616
133.53
130.187
129.094
1871.59
1845.53
1814.43
1782.19
1749.7
1716.31
1682.68
1650.32
1849.03
1836.08
1812.82
1785.83
1757.85
1729.25
1701.07
1677.06
1833.46
1827.13
1810.25
1788.33
1764.66
1740.2
1716.52
1698.11
1822.44
1819.48
1807.33
1789.79
1769.99
1749.21
1729.36
1714.96
1814.38
1813.23
1804.47
1790.53
1774.12
1756.58
1740
1728.59
1808.43
1808.22
1801.87
1790.81
1777.28
1762.57
1748.78
1739.68
1803.94
1804.22
1799.59
1790.81
1779.68
1767.44
1756.03
1748.71
1800.55
1801.05
1797.64
1790.67
1781.53
1771.39
1761.98
1756.1
1797.93
1798.54
1796.01
1790.45
1782.97
1774.6
1766.88
1762.13
1795.94
1796.55
1794.66
1790.22
1784.12
1777.22
1770.9
1767.08
1794.38
1794.97
1793.55
1790.01
1785.04
1779.36
1774.2
1771.12
1793.19
1793.72
1792.66
1789.81
1785.78
1781.12
1776.92
1774.42
1792.24
1792.73
1791.93
1789.65
1786.38
1782.56
1779.15
1777.15
1791.53
1791.95
1791.35
1789.51
1786.86
1783.75
1780.98
1779.35
1790.96
1791.34
1790.89
1789.41
1787.27
1784.72
1782.49
1781.2
1790.55
1790.86
1790.53
1789.34
1787.61
1785.53
1783.73
1782.66
1790.21
1790.49
1790.24
1789.29
1787.9
1786.2
1784.76
1783.93
1789.98
1790.21
1790.03
1789.26
1788.14
1786.76
1785.6
1784.9
1789.8
1790
1789.87
1789.25
1788.36
1787.23
1786.32
1785.76
1789.69
1789.85
1789.77
1789.25
1788.54
1787.62
1786.88
1786.43
1789.6
1789.74
1789.69
1789.28
1788.71
1787.96
1787.39
1787.01
1789.57
1789.67
1789.65
1789.3
1788.85
1788.24
1787.78
1787.49
1789.54
1789.64
1789.63
1789.35
1788.99
1788.48
1788.14
1787.87
1789.56
1789.62
1789.64
1789.39
1789.12
1788.69
1788.42
1788.22
1789.59
1789.63
1789.66
1789.45
1789.24
1788.88
1788.67
1788.49
1789.65
1789.66
1789.71
1789.51
1789.35
1789.04
1788.89
1788.74
1789.71
1789.71
1789.76
1789.58
1789.46
1789.19
1789.07
1788.94
1789.81
1789.77
1789.83
1789.64
1789.57
1789.32
1789.24
1789.12
1789.9
1789.83
1789.91
1789.72
1789.67
1789.44
1789.39
1789.27
1790.02
1789.92
1790
1789.8
1789.77
1789.56
1789.52
1789.41
1790.15
1790.01
1790.1
1789.9
1789.87
1789.67
1789.64
1789.53
1790.31
1790.11
1790.2
1789.99
1789.97
1789.79
1789.75
1789.64
1790.49
1790.24
1790.31
1790.09
1790.06
1789.89
1789.86
1789.75
1790.71
1790.38
1790.43
1790.2
1790.16
1790
1789.96
1789.84
1790.96
1790.54
1790.56
1790.32
1790.25
1790.1
1790.06
1789.94
1791.28
1790.72
1790.7
1790.45
1790.35
1790.21
1790.15
1790.05
1791.68
1790.92
1790.88
1790.61
1790.47
1790.33
1790.26
1790.16
1792.35
1791.22
1791.09
1790.8
1790.61
1790.47
1790.39
1790.26
1793.49
1791.68
1791.34
1791.01
1790.77
1790.62
1790.54
1790.44
1795.31
1792.34
1791.56
1791.19
1790.96
1790.78
1790.66
1790.84
)
;

boundaryField
{
    wall
    {
        type            calculated;
        value           nonuniform List<scalar> 
312
(
3701.7
3607.62
3509.4
3412.35
3316.7
3222.4
3129.64
3038.13
2948.01
2859.1
2771.32
2684.81
2599.3
2514.91
2431.75
2349.09
2266.84
2184.01
2099.88
2010.39
1871.59
1849.03
1833.46
1822.44
1814.38
1808.43
1803.94
1800.55
1797.93
1795.94
1794.38
1793.19
1792.24
1791.53
1790.96
1790.55
1790.21
1789.98
1789.8
1789.69
1789.6
1789.57
1789.54
1789.56
1789.59
1789.65
1789.71
1789.81
1789.9
1790.02
1790.15
1790.31
1790.49
1790.71
1790.96
1791.28
1791.68
1792.35
1793.49
1795.31
1650.32
1677.06
1698.11
1714.96
1728.59
1739.68
1748.71
1756.1
1762.13
1767.08
1771.12
1774.42
1777.15
1779.35
1781.2
1782.66
1783.93
1784.9
1785.76
1786.43
1787.01
1787.49
1787.87
1788.22
1788.49
1788.74
1788.94
1789.12
1789.27
1789.41
1789.53
1789.64
1789.75
1789.84
1789.94
1790.05
1790.16
1790.26
1790.44
1790.84
1522.52
1448
1379.88
1316.92
1257.46
1201.12
1148.35
1098.79
1052.15
1007.24
963.147
920.253
877.188
833.157
787.426
740.364
692.494
644.87
597.847
552.381
509.166
468.896
431.461
397.335
365.635
336.728
309.877
285.303
262.638
241.98
223.172
206.137
190.581
176.521
163.597
151.821
141.111
131.033
121.553
112.311
103.478
94.6259
85.4926
76.1422
67.105
58.2168
49.4994
41.0511
32.9973
25.4982
18.7212
12.8145
7.90685
4.10972
1.50895
0.169362
137.378
136.824
133.013
127.415
122.008
114.043
101.56
89.402
80.2739
70.1946
59.5385
48.7096
38.1505
28.3485
19.7345
12.7007
7.37667
3.75663
1.60392
0.259865
0.043287
0.387006
1.06072
2.05817
3.3716
4.98559
6.87792
9.01482
11.3595
13.8739
16.5252
19.2859
22.1433
25.084
28.1016
31.1886
34.3355
37.5354
40.7836
44.0746
47.4097
50.7929
54.2314
57.7371
61.3262
65.0151
68.8238
72.7708
76.866
81.1185
85.5282
90.0924
94.7998
99.6285
104.557
109.559
114.583
119.543
124.365
129.094
1.05931
0.999065
2.01736
2.665
4.15696
5.93937
8.16262
10.6225
13.3271
16.1673
19.0983
22.0604
25.0662
28.1197
31.22
34.3884
37.6148
40.9188
44.2737
47.7036
51.1611
54.6494
58.1635
61.7044
65.322
69.0621
73.0001
77.2235
81.8328
86.9045
92.4761
98.5602
105.094
112.058
119.637
128.026
137.384
148.151
160.216
175.147
1479.35
1419.64
1360.98
1303.39
1247.19
1192.47
1139.36
1087.88
1038.08
989.868
943.013
897.206
852.063
807.182
762.351
717.393
672.442
627.705
583.64
540.581
498.958
458.842
420.391
383.279
347.338
311.978
276.3
238.847
1991.92
1923.69
1856.55
1791.09
1726.86
1663.59
1601.41
1539.9
3702.07
3608.08
3509.86
3413.01
3317.5
3223.43
3130.67
3039.39
2949.42
2861
2773.87
2688.41
2604.23
2521.86
2440.78
2361.75
2283.98
2208.51
2134.28
2062.51
)
;
    }
    inlet1
    {
        type            calculated;
        value           nonuniform List<scalar> 
20
(
3702.07
3702.07
3702.07
3702.06
3702.05
3702.04
3702.02
3702
3701.96
3701.93
3701.89
3701.86
3701.82
3701.8
3701.76
3701.75
3701.72
3701.72
3701.7
3701.7
)
;
    }
    inlet2
    {
        type            calculated;
        value           nonuniform List<scalar> 8(1795.31 1792.34 1791.56 1791.19 1790.96 1790.78 1790.66 1790.84);
    }
    outlet1
    {
        type            calculated;
        value           uniform 0;
    }
    outlet2
    {
        type            calculated;
        value           nonuniform List<scalar> 8(0.996943 0 1.18151 0.81683 0.115037 0 0 0);
    }
    defaultFaces
    {
        type            empty;
    }
}


// ************************************************************************* //
