/*--------------------------------*- C++ -*----------------------------------*\
| =========                 |                                                 |
| \\      /  F ield         | OpenFOAM: The Open Source CFD Toolbox           |
|  \\    /   O peration     | Version:  2.4.0                                 |
|   \\  /    A nd           | Web:      www.OpenFOAM.org                      |
|    \\/     M anipulation  |                                                 |
\*---------------------------------------------------------------------------*/
FoamFile
{
    version     2.0;
    format      ascii;
    class       volScalarField;
    location    "4.8";
    object      p;
}
// * * * * * * * * * * * * * * * * * * * * * * * * * * * * * * * * * * * * * //

dimensions      [0 2 -2 0 0 0 0];

internalField   nonuniform List<scalar> 
5625
(
0.178667
0.197653
0.238299
0.264534
0.284863
0.300579
0.313224
0.323543
0.332142
0.339399
0.345623
0.351019
0.355763
0.359968
0.363745
0.367158
0.370281
0.373149
0.375815
0.378298
0.380638
0.382845
0.384951
0.386957
0.388892
0.390752
0.392564
0.394319
0.396044
0.397726
0.399393
0.401024
0.402654
0.404255
0.405864
0.407447
0.409049
0.410622
0.412225
0.413788
0.41539
0.416934
0.418524
0.420026
0.421584
0.423002
0.424491
0.42576
0.42712
0.428144
0.429284
0.429922
0.430714
0.430769
0.431037
0.43025
0.429755
0.42779
0.426216
0.422646
0.419583
0.413852
0.408748
0.400092
0.392189
0.379518
0.367675
0.349328
0.331775
0.304984
0.278807
0.238463
0.198578
0.133223
0.0701323
0.187703
0.199812
0.238732
0.264522
0.284725
0.300422
0.313067
0.323394
0.332004
0.339272
0.345507
0.350912
0.355665
0.359879
0.363663
0.367083
0.370211
0.373085
0.375755
0.378243
0.380588
0.382799
0.384908
0.386917
0.388856
0.390719
0.392534
0.394292
0.39602
0.397704
0.399373
0.401006
0.402637
0.404239
0.405851
0.407435
0.40904
0.410614
0.412217
0.413781
0.415382
0.416926
0.418516
0.420017
0.421573
0.42299
0.424475
0.425742
0.427096
0.428116
0.429248
0.429881
0.430662
0.430708
0.430959
0.430156
0.429636
0.427648
0.426043
0.422437
0.419334
0.413552
0.408398
0.399695
0.391709
0.379002
0.367052
0.348666
0.330973
0.304123
0.277766
0.237292
0.197132
0.131541
0.0676992
0.193204
0.201547
0.239082
0.264556
0.284661
0.300325
0.312961
0.323291
0.331905
0.33918
0.345423
0.350835
0.355594
0.359814
0.363604
0.367029
0.370161
0.373039
0.375713
0.378205
0.380553
0.382766
0.384878
0.386889
0.38883
0.390695
0.392512
0.394271
0.396001
0.397687
0.399357
0.400992
0.402625
0.404228
0.405841
0.407426
0.409031
0.410606
0.41221
0.413774
0.415376
0.41692
0.41851
0.420011
0.421567
0.422982
0.424466
0.42573
0.427081
0.428096
0.429224
0.429847
0.430623
0.430656
0.430899
0.43008
0.429549
0.427539
0.425917
0.422284
0.419156
0.413339
0.40815
0.399391
0.391366
0.378569
0.366563
0.348046
0.330271
0.303246
0.276747
0.236097
0.19568
0.12983
0.06533
0.195712
0.203036
0.239359
0.264586
0.28461
0.300251
0.312881
0.323212
0.33183
0.33911
0.345357
0.350774
0.355537
0.359761
0.363555
0.366983
0.370119
0.373
0.375677
0.378171
0.380521
0.382736
0.38485
0.386864
0.388806
0.390673
0.392491
0.394252
0.395983
0.39767
0.399342
0.400978
0.402612
0.404217
0.405831
0.407417
0.409023
0.410599
0.412204
0.413768
0.415371
0.416915
0.418507
0.420005
0.421563
0.422976
0.42446
0.42572
0.427071
0.42808
0.429206
0.429821
0.430593
0.430614
0.430851
0.430014
0.429474
0.42744
0.425802
0.422138
0.418987
0.413131
0.40791
0.399098
0.391028
0.378164
0.366094
0.347491
0.329624
0.302477
0.275848
0.234991
0.194356
0.128295
0.0633558
0.197404
0.204595
0.239639
0.264608
0.284559
0.300186
0.312814
0.323146
0.331768
0.339051
0.345302
0.350722
0.355489
0.359716
0.363513
0.366944
0.370083
0.372965
0.375645
0.37814
0.380493
0.38271
0.384826
0.38684
0.388784
0.390652
0.392472
0.394234
0.395966
0.397655
0.399328
0.400964
0.4026
0.404205
0.405821
0.407408
0.409015
0.410591
0.412198
0.413762
0.415367
0.41691
0.418503
0.420001
0.421559
0.42297
0.424455
0.425712
0.427063
0.428066
0.429191
0.429797
0.430566
0.430574
0.430805
0.42995
0.429399
0.427341
0.425686
0.42199
0.418815
0.412918
0.407663
0.398798
0.390682
0.37775
0.365618
0.346926
0.328971
0.301707
0.274947
0.233934
0.193083
0.126912
0.0615317
0.199134
0.206237
0.23994
0.264615
0.284497
0.30012
0.312751
0.323089
0.331715
0.339002
0.345257
0.35068
0.35545
0.359679
0.363478
0.366911
0.370052
0.372936
0.375617
0.378114
0.380468
0.382687
0.384804
0.38682
0.388765
0.390634
0.392455
0.394218
0.395952
0.397641
0.399315
0.400952
0.402589
0.404195
0.405812
0.407399
0.409008
0.410584
0.412192
0.413756
0.415362
0.416905
0.4185
0.419997
0.421556
0.422965
0.424451
0.425705
0.427055
0.428053
0.429176
0.429774
0.430538
0.430534
0.430757
0.429885
0.429321
0.427239
0.425567
0.421839
0.418639
0.412698
0.40741
0.398491
0.39033
0.377328
0.365135
0.346351
0.328313
0.300926
0.274045
0.232878
0.191827
0.125596
0.0598243
0.200978
0.207901
0.240259
0.264601
0.284411
0.300041
0.312684
0.323033
0.331668
0.338961
0.34522
0.350646
0.355419
0.35965
0.36345
0.366885
0.370027
0.372912
0.375595
0.378093
0.380448
0.382667
0.384786
0.386802
0.388749
0.390618
0.392441
0.394204
0.395938
0.397628
0.399303
0.400941
0.40258
0.404185
0.405804
0.40739
0.409001
0.410577
0.412187
0.413751
0.415359
0.416901
0.418497
0.419993
0.421554
0.422961
0.424447
0.425697
0.427047
0.428039
0.42916
0.429749
0.430509
0.430491
0.430707
0.429816
0.42924
0.427132
0.425442
0.42168
0.418455
0.412471
0.407149
0.398174
0.38997
0.376895
0.364645
0.345766
0.327651
0.300139
0.273146
0.231827
0.19059
0.124347
0.0582371
0.202864
0.209555
0.240596
0.264565
0.284291
0.299935
0.312601
0.32297
0.33162
0.338922
0.345187
0.350618
0.355393
0.359626
0.363429
0.366864
0.370007
0.372894
0.375577
0.378076
0.380432
0.382652
0.384771
0.386788
0.388735
0.390605
0.392429
0.394192
0.395928
0.397617
0.399294
0.400932
0.402571
0.404177
0.405797
0.407384
0.408996
0.410571
0.412183
0.413746
0.415356
0.416897
0.418495
0.419989
0.421552
0.422956
0.424442
0.425688
0.427038
0.428023
0.429142
0.429721
0.430476
0.430445
0.430652
0.429741
0.429152
0.427018
0.425308
0.421512
0.418261
0.412233
0.406878
0.397845
0.389599
0.37645
0.364147
0.34517
0.326984
0.299346
0.272248
0.230784
0.189372
0.123164
0.0567619
0.204746
0.21119
0.240952
0.264508
0.284132
0.299794
0.312493
0.322892
0.331563
0.338879
0.345154
0.350591
0.355371
0.359607
0.363411
0.366848
0.369993
0.37288
0.375564
0.378063
0.38042
0.38264
0.38476
0.386777
0.388725
0.390595
0.392419
0.394183
0.395919
0.397608
0.399287
0.400924
0.402565
0.404171
0.405792
0.407378
0.408992
0.410567
0.41218
0.413743
0.415354
0.416894
0.418493
0.419986
0.421549
0.422951
0.424438
0.425679
0.427027
0.428006
0.429122
0.42969
0.430439
0.430393
0.43059
0.42966
0.429055
0.426894
0.425165
0.421333
0.418056
0.411982
0.406595
0.397504
0.389217
0.375992
0.363638
0.344563
0.326309
0.298546
0.27135
0.22975
0.188172
0.122044
0.0553878
0.206594
0.212796
0.241326
0.264436
0.283935
0.299611
0.31235
0.322788
0.331489
0.338827
0.345117
0.350563
0.35535
0.359589
0.363397
0.366835
0.369981
0.372869
0.375554
0.378054
0.380411
0.382631
0.384752
0.386769
0.388718
0.390588
0.392413
0.394176
0.395913
0.397602
0.399282
0.400919
0.402561
0.404166
0.405788
0.407374
0.408989
0.410564
0.412178
0.41374
0.415353
0.416892
0.418493
0.419983
0.421547
0.422945
0.424432
0.425668
0.427015
0.427986
0.429098
0.429655
0.430397
0.430335
0.430522
0.429569
0.42895
0.426761
0.42501
0.421142
0.417839
0.411718
0.406299
0.397148
0.388823
0.375522
0.363119
0.343946
0.325629
0.297743
0.270453
0.228727
0.186989
0.120981
0.054106
0.208383
0.214362
0.241713
0.264354
0.283702
0.299385
0.312167
0.322652
0.331392
0.338759
0.345069
0.350529
0.355325
0.359571
0.363383
0.366824
0.369972
0.372861
0.375548
0.378047
0.380405
0.382626
0.384747
0.386764
0.388713
0.390583
0.392409
0.394172
0.39591
0.397599
0.399279
0.400916
0.402559
0.404163
0.405787
0.407372
0.408989
0.410562
0.412178
0.413739
0.415353
0.416891
0.418492
0.41998
0.421545
0.422939
0.424426
0.425656
0.427001
0.427962
0.42907
0.429615
0.43035
0.43027
0.430445
0.42947
0.428835
0.426616
0.424844
0.420939
0.417609
0.411441
0.40599
0.396779
0.388417
0.375039
0.362591
0.343321
0.324943
0.296937
0.269557
0.227718
0.185825
0.119971
0.0529092
0.210096
0.215879
0.242112
0.264268
0.28344
0.299117
0.311941
0.32248
0.331266
0.338669
0.345006
0.350484
0.355294
0.359548
0.363367
0.366812
0.369964
0.372854
0.375542
0.378043
0.380402
0.382622
0.384744
0.386761
0.388711
0.390581
0.392407
0.39417
0.395908
0.397597
0.399279
0.400915
0.402559
0.404163
0.405788
0.407372
0.40899
0.410563
0.41218
0.413739
0.415355
0.41689
0.418493
0.419978
0.421543
0.422932
0.424418
0.425641
0.426984
0.427936
0.429038
0.429569
0.430296
0.430198
0.43036
0.429362
0.428709
0.42646
0.424667
0.420722
0.417367
0.411151
0.405669
0.396398
0.387999
0.374546
0.362054
0.342688
0.324252
0.296132
0.268664
0.226725
0.184679
0.119011
0.0517913
0.211724
0.217338
0.242516
0.264184
0.283159
0.298814
0.311675
0.322268
0.331107
0.338553
0.344922
0.350425
0.355252
0.359519
0.363346
0.366797
0.369953
0.372847
0.375537
0.378039
0.3804
0.38262
0.384743
0.386761
0.388712
0.390581
0.392408
0.39417
0.395909
0.397596
0.399282
0.400916
0.402561
0.404165
0.40579
0.407374
0.408993
0.410564
0.412183
0.413741
0.415357
0.416891
0.418494
0.419976
0.42154
0.422925
0.424409
0.425625
0.426964
0.427905
0.429002
0.429518
0.430235
0.430118
0.430267
0.429243
0.428573
0.426292
0.424477
0.420494
0.417112
0.410848
0.405336
0.396006
0.387571
0.374044
0.361509
0.342052
0.323558
0.29533
0.267774
0.22575
0.183554
0.118097
0.0507469
0.213262
0.218735
0.242924
0.264106
0.282867
0.298483
0.311373
0.32202
0.330915
0.338408
0.344816
0.350347
0.355196
0.359478
0.363318
0.366777
0.369939
0.372837
0.375531
0.378035
0.380397
0.382619
0.384743
0.386761
0.388713
0.390582
0.39241
0.394172
0.395912
0.3976
0.399285
0.400919
0.402565
0.404168
0.405795
0.407378
0.408998
0.410568
0.412187
0.413744
0.415361
0.416892
0.418495
0.419973
0.421538
0.422916
0.424399
0.425606
0.426941
0.427871
0.428961
0.429461
0.430169
0.430031
0.430166
0.429116
0.428427
0.426114
0.424277
0.420254
0.416846
0.410535
0.404992
0.395604
0.387134
0.373536
0.360958
0.341413
0.322863
0.294534
0.266891
0.224794
0.182452
0.117228
0.0497713
0.214713
0.220069
0.243332
0.264038
0.282573
0.298134
0.311043
0.32174
0.33069
0.338233
0.344684
0.350249
0.355124
0.359425
0.363279
0.366749
0.36992
0.372823
0.375522
0.378028
0.380394
0.382617
0.384743
0.386761
0.388715
0.390584
0.392413
0.394175
0.395916
0.397604
0.39929
0.400924
0.402571
0.404173
0.405801
0.407382
0.409004
0.410572
0.412193
0.413747
0.415365
0.416893
0.418497
0.41997
0.421534
0.422906
0.424387
0.425585
0.426916
0.427832
0.428915
0.429398
0.430095
0.429935
0.430056
0.428979
0.428271
0.425926
0.424065
0.420004
0.416569
0.410211
0.404638
0.395194
0.38669
0.373022
0.360403
0.340775
0.322168
0.293747
0.266015
0.223861
0.181374
0.116401
0.0488606
0.216077
0.221338
0.243737
0.263982
0.282284
0.297776
0.310693
0.321434
0.330437
0.338032
0.344528
0.350129
0.355033
0.359357
0.363229
0.366712
0.369893
0.372803
0.375508
0.378019
0.380388
0.382613
0.384742
0.386761
0.388716
0.390586
0.392417
0.394179
0.395921
0.397609
0.399296
0.400929
0.402577
0.404179
0.405808
0.407388
0.409011
0.410578
0.412199
0.413752
0.41537
0.416895
0.418499
0.419967
0.42153
0.422895
0.424373
0.425561
0.426887
0.42779
0.428865
0.42933
0.430016
0.429833
0.429938
0.428833
0.428107
0.425728
0.423844
0.419745
0.416283
0.40988
0.404277
0.394778
0.38624
0.372507
0.359845
0.340139
0.321476
0.292971
0.265151
0.222952
0.180324
0.115615
0.0480112
0.217358
0.222542
0.244137
0.263939
0.282005
0.297418
0.310333
0.321109
0.330162
0.337808
0.344349
0.349989
0.354925
0.359274
0.363166
0.366664
0.369857
0.372776
0.375489
0.378005
0.380379
0.382607
0.384739
0.38676
0.388717
0.390588
0.39242
0.394182
0.395926
0.397614
0.399303
0.400936
0.402585
0.404185
0.405816
0.407395
0.409019
0.410584
0.412207
0.413756
0.415376
0.416896
0.4185
0.419963
0.421525
0.422882
0.424357
0.425534
0.426855
0.427743
0.42881
0.429256
0.42993
0.429723
0.429813
0.42868
0.427934
0.425522
0.423615
0.419477
0.415989
0.409542
0.403909
0.394359
0.385786
0.371992
0.359288
0.33951
0.320789
0.292208
0.264299
0.222069
0.179303
0.114868
0.0472199
0.21856
0.223683
0.244531
0.263909
0.281741
0.297066
0.309969
0.320774
0.329872
0.337566
0.344152
0.349831
0.354801
0.359176
0.36309
0.366605
0.369812
0.372742
0.375463
0.377985
0.380365
0.382597
0.384733
0.386756
0.388716
0.390588
0.392422
0.394185
0.395931
0.397618
0.399311
0.400943
0.402593
0.404192
0.405824
0.407403
0.409027
0.410591
0.412215
0.413762
0.415381
0.416898
0.418501
0.419958
0.421518
0.422867
0.424339
0.425504
0.426819
0.427692
0.428751
0.429176
0.429838
0.429607
0.429681
0.428519
0.427753
0.425309
0.423379
0.419204
0.415689
0.4092
0.403537
0.393938
0.385331
0.371479
0.358734
0.338889
0.320111
0.291462
0.263465
0.221215
0.178314
0.11416
0.0464839
0.219685
0.224762
0.244916
0.263892
0.281495
0.296726
0.30961
0.320436
0.329573
0.337311
0.343942
0.349659
0.354662
0.359065
0.363003
0.366535
0.369758
0.372699
0.37543
0.37796
0.380346
0.382583
0.384723
0.386749
0.388713
0.390586
0.392423
0.394187
0.395935
0.397622
0.399313
0.400949
0.402601
0.4042
0.405833
0.40741
0.409036
0.410598
0.412222
0.413766
0.415387
0.416899
0.418502
0.419952
0.421511
0.42285
0.424318
0.425471
0.426781
0.427637
0.428687
0.429092
0.429742
0.429486
0.429544
0.428354
0.427567
0.425091
0.423137
0.418927
0.415386
0.408856
0.403164
0.393518
0.384878
0.370972
0.358186
0.338279
0.319444
0.290735
0.26265
0.22039
0.177359
0.11349
0.0458005
0.220737
0.225779
0.245291
0.263887
0.281267
0.296402
0.309262
0.320102
0.329273
0.337051
0.343722
0.349477
0.354513
0.358944
0.362905
0.366456
0.369695
0.372648
0.375391
0.377928
0.380322
0.382564
0.38471
0.386739
0.388707
0.390582
0.392422
0.394187
0.395938
0.397625
0.39932
0.400956
0.402608
0.404207
0.405841
0.407418
0.409045
0.410605
0.41223
0.413771
0.415392
0.416899
0.418502
0.419945
0.421502
0.422831
0.424296
0.425436
0.42674
0.427579
0.42862
0.429004
0.429641
0.429361
0.429402
0.428183
0.427377
0.424869
0.422892
0.418647
0.41508
0.408512
0.402791
0.393103
0.384428
0.370473
0.357645
0.337683
0.318791
0.290029
0.261857
0.219597
0.176442
0.112858
0.0451671
0.221718
0.226735
0.245655
0.263893
0.281058
0.296097
0.308927
0.319776
0.328976
0.33679
0.343498
0.349288
0.354356
0.358814
0.362799
0.366369
0.369625
0.372591
0.375346
0.377892
0.380294
0.382541
0.384693
0.386726
0.388698
0.390576
0.392419
0.394186
0.395939
0.397627
0.399324
0.40096
0.402615
0.404213
0.405849
0.407425
0.409054
0.410611
0.412238
0.413775
0.415396
0.416898
0.4185
0.419936
0.421491
0.422811
0.424272
0.425398
0.426696
0.427517
0.42855
0.428913
0.429537
0.429232
0.429256
0.42801
0.427184
0.424646
0.422645
0.418368
0.414775
0.408171
0.402421
0.392693
0.383985
0.369985
0.357116
0.337104
0.318155
0.289348
0.26109
0.218837
0.175563
0.112262
0.0445816
0.222632
0.227632
0.246005
0.263909
0.280868
0.295812
0.30861
0.319464
0.328687
0.336533
0.343276
0.349098
0.354196
0.358681
0.362688
0.366278
0.369549
0.372529
0.375295
0.37785
0.380261
0.382514
0.384672
0.386709
0.388686
0.390567
0.392414
0.394182
0.395939
0.397628
0.399327
0.400963
0.402621
0.404218
0.405857
0.407431
0.409061
0.410617
0.412245
0.413778
0.4154
0.416897
0.418498
0.419926
0.42148
0.422788
0.424246
0.425358
0.42665
0.427454
0.428477
0.428819
0.42943
0.429101
0.429109
0.427836
0.426989
0.424423
0.4224
0.418091
0.414472
0.407835
0.402057
0.392292
0.383552
0.36951
0.356601
0.336543
0.317539
0.288693
0.260351
0.218113
0.174725
0.111704
0.0440416
0.22348
0.22847
0.246341
0.263932
0.280696
0.295547
0.308311
0.319167
0.32841
0.336285
0.343058
0.348911
0.354037
0.358545
0.362575
0.366183
0.369471
0.372463
0.375241
0.377805
0.380224
0.382485
0.384648
0.38669
0.388671
0.390555
0.392406
0.394177
0.395937
0.397627
0.399328
0.400965
0.402626
0.404223
0.405864
0.407437
0.409069
0.410622
0.412251
0.413781
0.415403
0.416894
0.418495
0.419915
0.421467
0.422765
0.424219
0.425317
0.426602
0.427389
0.428403
0.428724
0.429323
0.42897
0.428961
0.427663
0.426796
0.424202
0.422156
0.417819
0.414175
0.407507
0.401701
0.391902
0.38313
0.369051
0.356102
0.336004
0.316946
0.288066
0.259644
0.217425
0.17393
0.111181
0.0435451
0.224264
0.229249
0.24666
0.263961
0.280542
0.295302
0.308033
0.318888
0.328148
0.336047
0.342849
0.348728
0.35388
0.358412
0.362461
0.366087
0.36939
0.372396
0.375185
0.377758
0.380186
0.382452
0.384623
0.386669
0.388655
0.390542
0.392397
0.39417
0.395934
0.397625
0.399329
0.400966
0.402631
0.404227
0.40587
0.407441
0.409075
0.410626
0.412257
0.413783
0.415405
0.416891
0.418491
0.419904
0.421453
0.42274
0.42419
0.425275
0.426554
0.427324
0.428328
0.428629
0.429215
0.42884
0.428815
0.427491
0.426606
0.423985
0.421918
0.417553
0.413886
0.407189
0.401356
0.391526
0.382723
0.36861
0.355623
0.335489
0.316378
0.28747
0.25897
0.216776
0.17318
0.110694
0.0430901
0.224988
0.229972
0.246963
0.263994
0.280403
0.295077
0.307774
0.318627
0.327902
0.335823
0.342649
0.348554
0.353729
0.358282
0.362351
0.365992
0.36931
0.372328
0.375128
0.37771
0.380146
0.382419
0.384595
0.386646
0.388637
0.390528
0.392387
0.394162
0.395929
0.397622
0.399328
0.400966
0.402633
0.40423
0.405874
0.407445
0.409081
0.41063
0.412261
0.413784
0.415407
0.416886
0.418487
0.419891
0.421438
0.422715
0.424161
0.425233
0.426505
0.427259
0.428253
0.428536
0.429109
0.428712
0.428671
0.427324
0.42642
0.423775
0.421687
0.417296
0.413606
0.406882
0.401024
0.391166
0.382334
0.36819
0.355166
0.335001
0.315839
0.286908
0.258332
0.216167
0.172476
0.110243
0.0426748
0.225651
0.230638
0.247246
0.26403
0.280279
0.294872
0.307536
0.318386
0.327672
0.335613
0.342462
0.348389
0.353586
0.358158
0.362244
0.365901
0.369233
0.372262
0.375071
0.377662
0.380105
0.382385
0.384567
0.386623
0.388619
0.390512
0.392375
0.394153
0.395923
0.397618
0.399327
0.400965
0.402635
0.404232
0.405879
0.407448
0.409086
0.410632
0.412265
0.413784
0.415408
0.416881
0.418481
0.419878
0.421423
0.42269
0.424132
0.425191
0.426457
0.427195
0.42818
0.428444
0.429005
0.428588
0.428532
0.427163
0.426241
0.423573
0.421465
0.41705
0.413339
0.40659
0.400708
0.390824
0.381964
0.367792
0.354733
0.33454
0.31533
0.28638
0.257733
0.215598
0.17182
0.109827
0.0422974
0.226256
0.231248
0.247511
0.264068
0.280169
0.294685
0.307319
0.318164
0.327461
0.335419
0.342288
0.348235
0.353452
0.358042
0.362144
0.365814
0.369158
0.372198
0.375017
0.377615
0.380066
0.382351
0.384539
0.386599
0.3886
0.390496
0.392363
0.394143
0.395917
0.397613
0.399325
0.400963
0.402636
0.404233
0.405882
0.40745
0.40909
0.410634
0.412268
0.413783
0.415408
0.416876
0.418475
0.419865
0.421408
0.422665
0.424103
0.42515
0.42641
0.427133
0.42811
0.428356
0.428905
0.428468
0.428398
0.427008
0.42607
0.42338
0.421254
0.416818
0.413085
0.406315
0.40041
0.390502
0.381616
0.36742
0.354328
0.33411
0.314854
0.285888
0.257174
0.215071
0.171212
0.109445
0.0419562
0.226804
0.231802
0.247754
0.264106
0.280071
0.294517
0.307121
0.317961
0.327267
0.335241
0.342128
0.348094
0.353327
0.357933
0.36205
0.365733
0.369088
0.372137
0.374966
0.377571
0.380028
0.382319
0.384512
0.386576
0.388581
0.390481
0.392351
0.394133
0.39591
0.397607
0.399322
0.400961
0.402636
0.404233
0.405884
0.407452
0.409093
0.410635
0.412271
0.413782
0.415407
0.416871
0.418469
0.419851
0.421393
0.422641
0.424076
0.42511
0.426364
0.427074
0.428042
0.428272
0.428811
0.428356
0.428272
0.426863
0.425909
0.4232
0.421056
0.416599
0.412848
0.406057
0.400132
0.390203
0.381292
0.367074
0.353951
0.333711
0.314412
0.285434
0.256658
0.214587
0.170654
0.109098
0.0416499
0.227297
0.232302
0.247977
0.264144
0.279986
0.294367
0.306943
0.317779
0.327092
0.335079
0.341982
0.347964
0.353214
0.357834
0.361964
0.365658
0.369024
0.372081
0.374918
0.377529
0.379993
0.382288
0.384487
0.386554
0.388563
0.390465
0.39234
0.394123
0.395903
0.397601
0.399319
0.400958
0.402636
0.404233
0.405886
0.407453
0.409096
0.410636
0.412273
0.413781
0.415406
0.416865
0.418463
0.419839
0.421378
0.422618
0.424049
0.425073
0.426321
0.427018
0.427979
0.428194
0.428722
0.428251
0.428155
0.426728
0.42576
0.423032
0.420872
0.416398
0.412629
0.40582
0.399875
0.389927
0.380994
0.366756
0.353604
0.333347
0.314008
0.28502
0.256187
0.214147
0.170147
0.108785
0.0413769
0.227734
0.232748
0.248178
0.26418
0.279911
0.294234
0.306785
0.317615
0.326935
0.334934
0.341851
0.347848
0.353112
0.357745
0.361886
0.365591
0.368965
0.372031
0.374874
0.377491
0.379961
0.38226
0.384463
0.386533
0.388546
0.390451
0.392328
0.394113
0.395896
0.397596
0.399316
0.400956
0.402635
0.404232
0.405888
0.407453
0.409098
0.410636
0.412274
0.413779
0.415405
0.416859
0.418457
0.419827
0.421365
0.422596
0.424024
0.425038
0.426282
0.426967
0.42792
0.428122
0.42864
0.428154
0.428047
0.426604
0.425623
0.422879
0.420705
0.416214
0.412429
0.405604
0.399641
0.389677
0.380722
0.366468
0.35329
0.333017
0.313641
0.284646
0.255761
0.213752
0.169692
0.108506
0.0411361
0.228118
0.23314
0.248357
0.264214
0.279847
0.294117
0.306645
0.317471
0.326796
0.334806
0.341735
0.347745
0.353021
0.357665
0.361817
0.36553
0.368913
0.371985
0.374834
0.377457
0.379931
0.382234
0.384442
0.386515
0.388531
0.390438
0.392318
0.394104
0.39589
0.39759
0.399312
0.400953
0.402634
0.404231
0.405889
0.407453
0.4091
0.410636
0.412275
0.413777
0.415404
0.416854
0.418451
0.419815
0.421352
0.422576
0.424001
0.425007
0.426246
0.42692
0.427867
0.428057
0.428567
0.428067
0.427949
0.426493
0.4255
0.422741
0.420554
0.416049
0.41225
0.40541
0.399432
0.389453
0.38048
0.366212
0.35301
0.332723
0.313315
0.284314
0.255382
0.213402
0.169288
0.108261
0.0409263
0.228449
0.233479
0.248512
0.264245
0.279793
0.294017
0.306525
0.317347
0.326676
0.334694
0.341635
0.347655
0.352942
0.357596
0.361756
0.365478
0.368867
0.371945
0.3748
0.377427
0.379906
0.382212
0.384423
0.386498
0.388517
0.390426
0.392309
0.394096
0.395884
0.397586
0.399309
0.40095
0.402633
0.40423
0.40589
0.407453
0.409101
0.410636
0.412276
0.413776
0.415402
0.416849
0.418446
0.419805
0.42134
0.422559
0.423981
0.424979
0.426214
0.426879
0.42782
0.427999
0.428502
0.42799
0.427864
0.426394
0.425391
0.42262
0.420422
0.415904
0.412093
0.405241
0.399248
0.389257
0.380268
0.365987
0.352764
0.332466
0.31303
0.284024
0.255051
0.213097
0.168938
0.108049
0.0407465
0.228728
0.233765
0.248645
0.264272
0.279748
0.293933
0.306424
0.317241
0.326574
0.3346
0.34155
0.347579
0.352875
0.357537
0.361705
0.365433
0.368828
0.371911
0.374771
0.377402
0.379884
0.382193
0.384406
0.386484
0.388506
0.390416
0.3923
0.394089
0.395879
0.397581
0.399307
0.400948
0.402632
0.404229
0.40589
0.407453
0.409102
0.410635
0.412276
0.413774
0.415401
0.416845
0.418441
0.419796
0.42133
0.422543
0.423964
0.424955
0.426186
0.426844
0.427779
0.42795
0.428446
0.427924
0.42779
0.42631
0.425298
0.422516
0.420308
0.41578
0.411958
0.405096
0.399091
0.38909
0.380087
0.365795
0.352555
0.332247
0.312787
0.283778
0.25477
0.212839
0.168641
0.107869
0.0405958
0.228956
0.233999
0.248754
0.264295
0.279712
0.293865
0.306341
0.317155
0.326491
0.334523
0.34148
0.347517
0.35282
0.357489
0.361663
0.365396
0.368796
0.371883
0.374746
0.37738
0.379865
0.382177
0.384393
0.386472
0.388496
0.390407
0.392294
0.394084
0.395875
0.397577
0.399304
0.400945
0.402631
0.404228
0.40589
0.407453
0.409103
0.410635
0.412276
0.413772
0.4154
0.416841
0.418437
0.419789
0.421322
0.422531
0.423949
0.424935
0.426163
0.426814
0.427746
0.427909
0.428399
0.42787
0.427729
0.426241
0.425221
0.422431
0.420215
0.415678
0.411847
0.404976
0.398961
0.388952
0.379937
0.365638
0.352382
0.332067
0.312586
0.283576
0.254539
0.212627
0.168397
0.107723
0.0404735
0.229132
0.23418
0.248839
0.264313
0.279684
0.293812
0.306277
0.317088
0.326426
0.334463
0.341425
0.347469
0.352777
0.357451
0.36163
0.365367
0.368771
0.371861
0.374728
0.377364
0.379851
0.382165
0.384382
0.386463
0.388488
0.3904
0.392288
0.394079
0.395871
0.397574
0.399302
0.400944
0.402631
0.404227
0.405891
0.407452
0.409103
0.410635
0.412276
0.413771
0.415399
0.416838
0.418434
0.419783
0.421315
0.422521
0.423937
0.424919
0.426145
0.426791
0.427719
0.427877
0.428363
0.427827
0.427681
0.426186
0.425161
0.422364
0.420141
0.415597
0.41176
0.404882
0.39886
0.388844
0.37982
0.365514
0.352247
0.331927
0.31243
0.283418
0.254359
0.212462
0.168207
0.10761
0.040379
0.229258
0.234309
0.248899
0.264326
0.279664
0.293774
0.306231
0.317041
0.32638
0.33442
0.341386
0.347434
0.352747
0.357424
0.361606
0.365347
0.368753
0.371846
0.374714
0.377352
0.379841
0.382156
0.384375
0.386456
0.388483
0.390396
0.392285
0.394076
0.395869
0.397572
0.399301
0.400942
0.40263
0.404226
0.405891
0.407452
0.409103
0.410634
0.412277
0.41377
0.415398
0.416836
0.418432
0.419779
0.421311
0.422513
0.423929
0.424908
0.426132
0.426774
0.4277
0.427853
0.428337
0.427796
0.427647
0.426147
0.425118
0.422315
0.420088
0.41554
0.411697
0.404815
0.398787
0.388767
0.379736
0.365426
0.352151
0.331826
0.312318
0.283305
0.254229
0.212344
0.168071
0.107528
0.0403119
0.229333
0.234387
0.248936
0.264334
0.279653
0.293751
0.306204
0.317012
0.326352
0.334394
0.341363
0.347413
0.352728
0.357408
0.361592
0.365334
0.368743
0.371836
0.374706
0.377345
0.379835
0.38215
0.38437
0.386452
0.388479
0.390393
0.392282
0.394074
0.395867
0.397571
0.3993
0.400942
0.40263
0.404226
0.405891
0.407452
0.409103
0.410634
0.412277
0.41377
0.415398
0.416834
0.41843
0.419776
0.421308
0.422509
0.423924
0.424901
0.426124
0.426764
0.427689
0.427839
0.428321
0.427778
0.427626
0.426123
0.425092
0.422286
0.420057
0.415505
0.41166
0.404775
0.398744
0.388721
0.379686
0.365373
0.352092
0.331766
0.312251
0.283237
0.254152
0.212273
0.16799
0.10748
0.0402717
0.229359
0.234413
0.248948
0.264337
0.279649
0.293744
0.306194
0.317002
0.326343
0.334385
0.341355
0.347406
0.352722
0.357403
0.361588
0.36533
0.368739
0.371833
0.374703
0.377343
0.379833
0.382148
0.384369
0.386451
0.388478
0.390392
0.392281
0.394073
0.395867
0.397571
0.3993
0.400941
0.40263
0.404226
0.405891
0.407452
0.409104
0.410634
0.412277
0.413769
0.415397
0.416834
0.41843
0.419776
0.421307
0.422508
0.423923
0.424899
0.426122
0.426761
0.427685
0.427835
0.428316
0.427772
0.427619
0.426115
0.425083
0.422277
0.420046
0.415494
0.411647
0.404761
0.398729
0.388705
0.379669
0.365355
0.352073
0.331746
0.312228
0.283214
0.254126
0.212249
0.167963
0.107464
0.0402583
0.229333
0.234387
0.248936
0.264334
0.279653
0.293751
0.306204
0.317012
0.326352
0.334394
0.341363
0.347413
0.352728
0.357408
0.361592
0.365334
0.368743
0.371836
0.374706
0.377345
0.379835
0.38215
0.38437
0.386452
0.388479
0.390393
0.392282
0.394074
0.395867
0.397571
0.3993
0.400942
0.40263
0.404226
0.405891
0.407452
0.409104
0.410634
0.412277
0.41377
0.415398
0.416834
0.41843
0.419776
0.421308
0.422509
0.423924
0.424901
0.426124
0.426764
0.427689
0.427839
0.428321
0.427778
0.427626
0.426123
0.425092
0.422286
0.420057
0.415505
0.41166
0.404775
0.398744
0.388721
0.379686
0.365373
0.352092
0.331766
0.312251
0.283237
0.254152
0.212273
0.16799
0.10748
0.0402717
0.229258
0.234309
0.248899
0.264326
0.279664
0.293774
0.306231
0.317041
0.32638
0.33442
0.341386
0.347434
0.352747
0.357424
0.361606
0.365347
0.368753
0.371846
0.374714
0.377352
0.379841
0.382156
0.384375
0.386456
0.388483
0.390396
0.392285
0.394076
0.395869
0.397572
0.399301
0.400942
0.40263
0.404226
0.405891
0.407452
0.409103
0.410634
0.412277
0.41377
0.415398
0.416836
0.418432
0.419779
0.421311
0.422514
0.423929
0.424908
0.426132
0.426775
0.427701
0.427853
0.428337
0.427796
0.427647
0.426147
0.425118
0.422315
0.420088
0.41554
0.411697
0.404815
0.398787
0.388767
0.379736
0.365426
0.352151
0.331826
0.312318
0.283305
0.254229
0.212344
0.168071
0.107528
0.0403119
0.229132
0.23418
0.248839
0.264313
0.279684
0.293811
0.306277
0.317088
0.326426
0.334463
0.341425
0.347469
0.352777
0.357451
0.36163
0.365367
0.368771
0.371861
0.374728
0.377364
0.379851
0.382165
0.384382
0.386463
0.388488
0.3904
0.392288
0.394079
0.395871
0.397575
0.399303
0.400944
0.402631
0.404227
0.405891
0.407453
0.409103
0.410635
0.412277
0.413771
0.415399
0.416838
0.418434
0.419783
0.421315
0.422521
0.423938
0.424919
0.426145
0.426791
0.427719
0.427877
0.428363
0.427827
0.427681
0.426186
0.425161
0.422364
0.420141
0.415597
0.41176
0.404882
0.39886
0.388844
0.37982
0.365514
0.352247
0.331927
0.31243
0.283418
0.254359
0.212462
0.168207
0.10761
0.040379
0.228956
0.233998
0.248754
0.264295
0.279712
0.293864
0.306341
0.317155
0.326491
0.334523
0.34148
0.347517
0.35282
0.357489
0.361663
0.365396
0.368796
0.371883
0.374746
0.37738
0.379865
0.382177
0.384393
0.386472
0.388496
0.390407
0.392294
0.394084
0.395875
0.397578
0.399304
0.400946
0.402632
0.404228
0.405891
0.407453
0.409103
0.410635
0.412277
0.413773
0.4154
0.416841
0.418437
0.419789
0.421322
0.422531
0.423949
0.424935
0.426163
0.426814
0.427746
0.427909
0.428399
0.42787
0.427729
0.426241
0.425221
0.422431
0.420214
0.415677
0.411847
0.404976
0.398961
0.388952
0.379937
0.365637
0.352382
0.332067
0.312586
0.283576
0.254539
0.212627
0.168397
0.107723
0.0404735
0.228728
0.233765
0.248645
0.264272
0.279748
0.293933
0.306424
0.317241
0.326574
0.3346
0.341549
0.347579
0.352875
0.357537
0.361705
0.365433
0.368828
0.371911
0.374771
0.377401
0.379884
0.382193
0.384406
0.386484
0.388506
0.390416
0.392301
0.394089
0.395879
0.397581
0.399307
0.400948
0.402632
0.404229
0.40589
0.407453
0.409102
0.410636
0.412276
0.413774
0.415401
0.416845
0.418441
0.419797
0.421331
0.422544
0.423964
0.424955
0.426186
0.426844
0.427779
0.42795
0.428446
0.427924
0.42779
0.42631
0.425298
0.422516
0.420308
0.41578
0.411958
0.405096
0.399091
0.38909
0.380086
0.365795
0.352555
0.332247
0.312786
0.283778
0.25477
0.212839
0.168641
0.107869
0.0405958
0.228449
0.233479
0.248512
0.264245
0.279793
0.294017
0.306525
0.317347
0.326676
0.334694
0.341635
0.347655
0.352942
0.357596
0.361756
0.365477
0.368867
0.371945
0.3748
0.377427
0.379906
0.382212
0.384423
0.386498
0.388517
0.390426
0.392309
0.394096
0.395884
0.397586
0.39931
0.40095
0.402633
0.40423
0.40589
0.407454
0.409101
0.410636
0.412276
0.413776
0.415403
0.416849
0.418446
0.419806
0.421341
0.422559
0.423981